/*--------------------------------*- C++ -*----------------------------------*\
| =========                 |                                                 |
| \\      /  F ield         | foam-extend: Open Source CFD                    |
|  \\    /   O peration     | Version:  3.0                                   |
|   \\  /    A nd           | Web:         http://www.extend-project.de       |
|    \\/     M anipulation  |                                                 |
\*---------------------------------------------------------------------------*/
FoamFile
{
    version     2.0;
    format      ascii;
    class       volVectorField;
    location    "1";
    object      u;
}
// * * * * * * * * * * * * * * * * * * * * * * * * * * * * * * * * * * * * * //

dimensions      [0 0 0 0 0 0 0];

internalField   nonuniform List<vector> 
400
(
(0.0541319 0.947134 3.68287e-17)
(0.34915 0.115321 4.12074e-17)
(0.553179 0.0793387 -6.14785e-17)
(0.685042 0.0268268 4.34691e-18)
(0.862446 0.0333397 -2.54891e-17)
(0.991604 0.0288333 2.92163e-18)
(1.0479 0.0274371 -2.21737e-18)
(1.09188 0.0229016 -1.04466e-18)
(1.03084 0.0116705 1.55078e-18)
(0.965565 0.00940587 -3.03602e-19)
(-0.849709 -0.333377 -1.23911e-16)
(-0.269698 -0.178493 -4.42577e-17)
(0.42122 -0.0175879 1.18496e-16)
(0.570057 0.00845082 -1.24767e-16)
(0.815878 0.0555628 7.64677e-17)
(0.945902 0.0682084 -3.12941e-19)
(1.02354 0.0701408 -5.4461e-17)
(1.06968 0.062535 1.34038e-16)
(1.02239 0.0319622 -5.54858e-17)
(0.957819 0.0261429 -1.39058e-18)
(0.559265 -1.05317 5.68973e-17)
(0.423818 -0.155538 5.44095e-17)
(0.576757 -0.0453918 3.7967e-18)
(0.670257 0.0402727 -1.29587e-16)
(0.827431 0.088661 1.00683e-16)
(0.945955 0.11446 2.3812e-16)
(1.00397 0.110062 -2.4525e-16)
(1.05209 0.0995543 8.0791e-17)
(1.01117 0.0493792 8.16032e-17)
(0.94923 0.0413768 -6.50418e-17)
(0.0495633 -0.229334 -2.10602e-16)
(0.227272 -0.141017 -4.81933e-20)
(0.47363 -0.0032314 -1.66075e-16)
(0.59069 0.0359926 2.78097e-16)
(0.766104 0.1132 -3.21408e-16)
(0.884868 0.136627 1.12628e-16)
(0.956881 0.138035 -1.10456e-17)
(1.0108 0.123017 2.2029e-16)
(0.992039 0.0621169 -5.74867e-17)
(0.932919 0.0516559 -8.04229e-17)
(0.525606 -0.396991 3.05763e-16)
(0.457893 -0.127448 1.12184e-16)
(0.565733 -0.0050133 -8.23095e-17)
(0.632052 0.0611508 1.29164e-16)
(0.753513 0.129434 1.03001e-16)
(0.855446 0.160097 -1.88945e-16)
(0.917294 0.154476 1.91374e-17)
(0.974235 0.138897 -2.46681e-16)
(0.972641 0.0688989 1.88157e-16)
(0.916883 0.0578018 -5.94948e-17)
(0.318042 -0.191772 2.06749e-16)
(0.37069 -0.104966 -1.10586e-16)
(0.491481 0.0102056 8.85928e-17)
(0.575854 0.0513466 -1.45213e-16)
(0.692403 0.129046 1.24424e-16)
(0.794294 0.154795 6.95281e-18)
(0.863436 0.153808 3.25112e-18)
(0.927565 0.137197 1.745e-16)
(0.949923 0.0687388 -2.15282e-16)
(0.89784 0.0574909 1.82136e-16)
(0.543325 -0.207875 -3.4175e-16)
(0.48053 -0.0806659 -2.21275e-18)
(0.535761 0.0183297 1.68863e-16)
(0.583888 0.0611407 4.84608e-18)
(0.666271 0.121621 -1.21337e-16)
(0.754159 0.145468 -1.11238e-16)
(0.820176 0.140372 2.30755e-18)
(0.887924 0.125425 -2.00869e-16)
(0.929906 0.0622345 -4.46553e-17)
(0.880981 0.0522178 1.98945e-16)
(0.456191 -0.132691 2.36659e-16)
(0.43694 -0.0671655 -5.82227e-17)
(0.491385 0.0111692 5.78212e-19)
(0.549214 0.0405408 -1.52329e-16)
(0.621866 0.0939761 1.14799e-17)
(0.708632 0.112289 -1.14932e-17)
(0.77808 0.110593 3.73698e-16)
(0.85136 0.0986571 -2.07058e-16)
(0.911878 0.0492217 -8.14266e-17)
(0.865883 0.0412821 3.10981e-16)
(0.570442 -0.0856356 -2.98431e-16)
(0.48949 -0.0320256 6.03295e-17)
(0.50867 0.0150488 -4.95478e-17)
(0.546911 0.0334032 1.61488e-16)
(0.602076 0.0634403 -3.87501e-17)
(0.681248 0.0746125 -1.0832e-17)
(0.750315 0.0718699 9.84084e-17)
(0.826131 0.0640274 -2.3569e-16)
(0.899345 0.0317516 1.59543e-16)
(0.85526 0.0266739 -5.33565e-17)
(0.523729 -0.0349875 9.85538e-17)
(0.466977 -0.0197908 -4.40472e-17)
(0.489341 -0.000739125 -2.06098e-17)
(0.533399 0.00695718 -5.41391e-18)
(0.584921 0.0198544 -3.54345e-17)
(0.664046 0.0242921 -9.91873e-19)
(0.734271 0.0242592 -1.48291e-18)
(0.812263 0.0217374 -5.29672e-19)
(0.892521 0.0108538 -6.67486e-18)
(0.849495 0.00916689 -5.06457e-18)
(0.559948 0.0307948 5.90068e-17)
(0.48206 0.0143929 4.88363e-17)
(0.497475 -0.00359252 -7.64286e-17)
(0.536389 -0.00998659 4.39992e-18)
(0.586576 -0.0214071 -3.77464e-17)
(0.664617 -0.0253085 3.04379e-18)
(0.734608 -0.0246589 -6.6603e-18)
(0.812399 -0.0219107 -5.93789e-18)
(0.892656 -0.0108967 -3.38918e-18)
(0.849502 -0.00908109 -1.22918e-17)
(0.516869 0.0729238 -1.99608e-16)
(0.464354 0.027345 -6.65506e-17)
(0.495239 -0.0183549 1.5593e-16)
(0.541358 -0.0341969 -1.73976e-16)
(0.599012 -0.0643101 1.11066e-16)
(0.680132 -0.0748021 1.01913e-18)
(0.749746 -0.0720777 -1.42376e-16)
(0.825989 -0.0639806 4.36676e-16)
(0.899456 -0.0317285 -2.3732e-16)
(0.855127 -0.0265597 -5.11398e-17)
(0.498525 0.125869 9.97209e-17)
(0.456078 0.0515377 6.72118e-17)
(0.503803 -0.0233778 4.65048e-18)
(0.555079 -0.0501756 -1.77155e-16)
(0.625091 -0.0987769 1.55607e-16)
(0.710312 -0.115709 4.61358e-16)
(0.778958 -0.11196 -5.71147e-16)
(0.851923 -0.0994953 1.81358e-16)
(0.912393 -0.0493488 4.11205e-16)
(0.865887 -0.0413818 -8.14666e-16)
(0.445888 0.150624 -2.67616e-16)
(0.435451 0.0598723 -4.92908e-19)
(0.511211 -0.0321782 -2.24359e-16)
(0.572944 -0.064709 3.78135e-16)
(0.660365 -0.125155 -5.19454e-16)
(0.751793 -0.14616 1.79139e-16)
(0.819078 -0.141228 -1.36146e-17)
(0.887615 -0.125453 7.32719e-16)
(0.930148 -0.0621763 -9.53252e-17)
(0.880707 -0.0521941 -4.96031e-16)
(0.398551 0.172343 4.07109e-16)
(0.415763 0.0694016 1.36578e-16)
(0.522011 -0.0341048 -1.02858e-16)
(0.594344 -0.0709416 1.86613e-16)
(0.702116 -0.138406 1.88121e-16)
(0.800559 -0.161849 -3.23866e-16)
(0.866273 -0.15648 2.37971e-17)
(0.929555 -0.13902 -7.91062e-16)
(0.950998 -0.0688597 6.07332e-16)
(0.898139 -0.0578788 -4.72471e-16)
(0.342248 0.168783 2.54495e-16)
(0.393632 0.0674264 -1.38944e-16)
(0.53282 -0.0351405 1.11964e-16)
(0.616951 -0.071464 -2.07359e-16)
(0.746029 -0.13866 1.7911e-16)
(0.851911 -0.161961 1.33346e-17)
(0.91591 -0.156514 7.04549e-18)
(0.973668 -0.139018 5.33618e-16)
(0.9729 -0.0687932 -6.32185e-16)
(0.916479 -0.05791 8.26958e-16)
(0.291807 0.154319 -4.42243e-16)
(0.373123 0.0617317 -2.03112e-19)
(0.543301 -0.0312985 2.20094e-16)
(0.638362 -0.0643162 8.76999e-18)
(0.787786 -0.125036 -1.78825e-16)
(0.900708 -0.146071 -1.87045e-16)
(0.963106 -0.141155 1.79271e-19)
(1.0156 -0.12536 -5.19004e-16)
(0.993706 -0.0619534 -2.18647e-16)
(0.933928 -0.0522674 6.16904e-16)
(0.247807 0.121175 2.88835e-16)
(0.355773 0.048272 -7.13821e-17)
(0.552324 -0.0252335 6.06431e-19)
(0.656738 -0.0512514 -2.02152e-16)
(0.823374 -0.0993346 9.09623e-18)
(0.942265 -0.115946 -3.94409e-17)
(1.00326 -0.111992 6.95857e-16)
(1.05128 -0.0994252 -3.99786e-16)
(1.01138 -0.0490242 -1.9855e-16)
(0.948782 -0.0415118 9.35351e-16)
(0.216175 0.0783657 -3.61889e-16)
(0.343071 0.0310709 7.16527e-17)
(0.558834 -0.0162262 -6.25308e-17)
(0.67003 -0.0329726 2.08096e-16)
(0.84922 -0.0638152 -4.83118e-17)
(0.972443 -0.074425 -1.30024e-17)
(1.03243 -0.0718339 1.84013e-16)
(1.07719 -0.0637307 -4.5326e-16)
(1.0242 -0.0312634 3.39016e-16)
(0.959583 -0.0266918 -1.09493e-16)
(0.199572 0.0266229 1.1631e-16)
(0.336619 0.0102992 -5.28404e-17)
(0.562402 -0.00587466 -2.56875e-17)
(0.677124 -0.0115643 -5.2481e-18)
(0.862865 -0.0220863 -4.63653e-17)
(0.988335 -0.0256249 9.59504e-19)
(1.04777 -0.0246347 2.57652e-18)
(1.0908 -0.0217801 3.3657e-18)
(1.0309 -0.0104132 -1.59273e-18)
(0.965276 -0.00926012 5.6567e-18)
(0.199514 -0.0270537 6.84013e-17)
(0.336677 -0.0112147 5.51201e-17)
(0.562485 0.00517863 -8.74845e-17)
(0.677189 0.011022 5.63278e-18)
(0.862919 0.0218321 -4.5773e-17)
(0.988354 0.0257021 5.04881e-18)
(1.04777 0.0249966 -5.10213e-18)
(1.09078 0.0223243 -6.30647e-18)
(1.03083 0.0114871 1.66427e-18)
(0.965304 0.00907784 -7.69261e-18)
(0.216252 -0.078367 -2.26371e-16)
(0.343542 -0.0317272 -7.58426e-17)
(0.559225 0.0156855 1.76687e-16)
(0.670315 0.0325162 -2.01535e-16)
(0.849416 0.0636139 1.33457e-16)
(0.97252 0.0745221 2.3006e-18)
(1.03243 0.0721972 -1.92004e-16)
(1.07713 0.0642635 6.20416e-16)
(1.02399 0.032293 -3.42215e-16)
(0.959663 0.0265267 -5.9508e-17)
(0.247917 -0.12203 1.06172e-16)
(0.3563 -0.0491551 7.13311e-17)
(0.552824 0.0246516 5.00516e-18)
(0.657102 0.0508223 -1.93236e-16)
(0.823649 0.0991735 1.7423e-16)
(0.942366 0.116057 5.47943e-16)
(1.00326 0.112347 -7.05548e-16)
(1.05119 0.0999324 2.2057e-16)
(1.01106 0.049968 5.38906e-16)
(0.948905 0.0413786 -1.10534e-15)
(0.291503 -0.153469 -2.72768e-16)
(0.373885 -0.0616283 3.87681e-21)
(0.543998 0.0312753 -2.37264e-16)
(0.638904 0.0641841 4.04278e-16)
(0.788162 0.125045 -5.71272e-16)
(0.900858 0.146248 1.89815e-16)
(0.963103 0.141519 -1.67201e-17)
(1.0155 0.12584 8.47231e-16)
(0.993296 0.0627821 -1.18813e-16)
(0.934085 0.0521797 -5.87209e-16)
(0.342943 -0.170522 4.25133e-16)
(0.394466 -0.0683702 1.41772e-16)
(0.533551 0.0347013 -1.04821e-16)
(0.617443 0.0712018 1.91337e-16)
(0.746408 0.138656 1.92913e-16)
(0.852043 0.162122 -3.35594e-16)
(0.915896 0.15685 2.02645e-17)
(0.97354 0.139448 -8.4597e-16)
(0.972443 0.0694799 6.31224e-16)
(0.916651 0.0578722 -5.18685e-16)
(0.39645 -0.169817 2.44809e-16)
(0.416003 -0.0678702 -1.37892e-16)
(0.522509 0.0349957 1.09187e-16)
(0.594874 0.0713708 -2.02377e-16)
(0.70249 0.138751 1.73668e-16)
(0.800716 0.162159 1.01452e-17)
(0.866261 0.156853 1.9409e-18)
(0.929433 0.13943 5.07113e-16)
(0.95054 0.0694076 -6.07712e-16)
(0.898311 0.0579 7.46005e-16)
(0.448681 -0.154209 -4.24018e-16)
(0.436738 -0.0616513 -2.17013e-18)
(0.512087 0.0314196 2.07357e-16)
(0.573373 0.0643366 3.30079e-18)
(0.660704 0.125178 -1.60951e-16)
(0.751883 0.146289 -1.65235e-16)
(0.819053 0.141499 -3.61652e-18)
(0.887487 0.125773 -4.37501e-16)
(0.92973 0.0625676 -1.72915e-16)
(0.880859 0.0522576 4.90358e-16)
(0.490573 -0.120956 2.65715e-16)
(0.453633 -0.0478739 -6.63651e-17)
(0.502875 0.0255329 1.19596e-18)
(0.555009 0.0513942 -1.86562e-16)
(0.625105 0.0995232 1.45131e-17)
(0.710337 0.116191 -2.26175e-17)
(0.778891 0.112343 5.61814e-16)
(0.851812 0.0998407 -3.15199e-16)
(0.912049 0.0496377 -1.39727e-16)
(0.866004 0.0415018 6.68024e-16)
(0.525883 -0.0793564 -3.24919e-16)
(0.467476 -0.0317001 6.51296e-17)
(0.496873 0.0159807 -5.47674e-17)
(0.541823 0.0327845 1.79666e-16)
(0.599319 0.0638608 -4.27789e-17)
(0.68016 0.0745875 -9.94763e-18)
(0.749726 0.0721515 1.35615e-16)
(0.825901 0.0641256 -3.12222e-16)
(0.899233 0.0318688 2.36214e-16)
(0.8552 0.0266763 -6.38196e-17)
(0.536804 -0.0254113 1.0308e-16)
(0.471895 -0.00890658 -4.47183e-17)
(0.492322 0.00675766 -2.17716e-17)
(0.534424 0.0120696 -3.82361e-18)
(0.58551 0.0224321 -3.68973e-17)
(0.664221 0.025959 2.21665e-18)
(0.734358 0.0250175 4.74199e-18)
(0.812279 0.0222104 4.06514e-18)
(0.892526 0.0110284 3.92021e-18)
(0.849501 0.00924885 1.09024e-17)
(0.547759 0.02645 5.56123e-17)
(0.476331 0.0103035 4.8103e-17)
(0.494435 -0.00558194 -7.28463e-17)
(0.535165 -0.0114028 5.96943e-18)
(0.585861 -0.0218441 -3.35238e-17)
(0.664339 -0.0255903 5.03313e-18)
(0.73443 -0.0246892 -5.95538e-19)
(0.812322 -0.0219406 -1.37913e-18)
(0.892609 -0.0108845 6.62958e-18)
(0.849479 -0.00910154 4.30579e-18)
(0.515145 0.0799402 -1.80916e-16)
(0.462501 0.034761 -6.18325e-17)
(0.494045 -0.0136111 1.44408e-16)
(0.540557 -0.0311052 -1.55994e-16)
(0.598605 -0.0628252 1.0027e-16)
(0.67987 -0.0738866 1.03118e-18)
(0.749615 -0.07168 -1.04307e-16)
(0.825908 -0.0637477 3.18296e-16)
(0.899417 -0.031648 -1.60565e-16)
(0.855105 -0.026529 -9.76294e-18)
(0.510836 0.127346 9.04437e-17)
(0.46269 0.0503475 5.93155e-17)
(0.507166 -0.0238668 4.56756e-18)
(0.556657 -0.05094 -1.46438e-16)
(0.625807 -0.0988956 1.19803e-16)
(0.710608 -0.115868 3.2481e-16)
(0.779065 -0.111937 -3.79537e-16)
(0.851961 -0.0995083 1.19943e-16)
(0.912394 -0.0493319 2.09339e-16)
(0.865892 -0.0414024 -3.55737e-16)
(0.429813 0.153264 -2.26233e-16)
(0.426046 0.0672544 -1.04365e-18)
(0.505097 -0.0269381 -1.83441e-16)
(0.569647 -0.0607338 3.08003e-16)
(0.658603 -0.123221 -3.75466e-16)
(0.750823 -0.14483 1.24506e-16)
(0.818598 -0.140648 -1.41999e-17)
(0.887347 -0.125077 3.35143e-16)
(0.930028 -0.0620469 -8.10811e-17)
(0.880641 -0.0521454 -1.71785e-16)
(0.435038 0.198025 3.2011e-16)
(0.434987 0.0795044 1.10893e-16)
(0.531862 -0.0280709 -8.54014e-17)
(0.599002 -0.0692726 1.33273e-16)
(0.704266 -0.136889 1.07566e-16)
(0.801466 -0.161439 -2.00651e-16)
(0.86661 -0.156039 1.5557e-17)
(0.929687 -0.13888 -3.01666e-16)
(0.951009 -0.068744 2.12043e-16)
(0.898172 -0.0578862 -1.05717e-16)
(0.306136 0.163931 1.96678e-16)
(0.370045 0.0770008 -1.08922e-16)
(0.516106 -0.0276341 8.69161e-17)
(0.606895 -0.0646085 -1.40752e-16)
(0.740614 -0.135372 1.19402e-16)
(0.848604 -0.159412 3.73381e-18)
(0.914343 -0.155466 -1.8719e-18)
(0.972713 -0.138257 1.48069e-16)
(0.972514 -0.068563 -1.9091e-16)
(0.916264 -0.057819 1.01212e-16)
(0.35155 0.245376 -3.25211e-16)
(0.403426 0.0986759 -1.55506e-19)
(0.558256 -0.0089975 1.57013e-16)
(0.646101 -0.0567842 -6.31384e-19)
(0.79102 -0.119514 -1.03204e-16)
(0.902276 -0.144403 -8.93423e-17)
(0.963564 -0.139808 -1.47844e-18)
(1.01586 -0.124959 -1.1936e-16)
(0.993685 -0.0616883 1.07796e-18)
(0.934047 -0.0522817 7.23832e-17)
(0.167762 0.105948 2.11243e-16)
(0.299122 0.0608118 -5.09294e-17)
(0.513812 -0.0172142 1.64797e-18)
(0.631005 -0.0422304 -1.36281e-16)
(0.810177 -0.0955341 1.70254e-17)
(0.933317 -0.112577 5.27818e-18)
(0.999433 -0.110872 2.3938e-16)
(1.04869 -0.0984526 -1.22382e-16)
(1.01051 -0.0489 -2.25935e-17)
(0.94829 -0.0413092 4.35989e-17)
(0.275622 0.363348 -2.57728e-16)
(0.372722 0.11352 5.33137e-17)
(0.569486 0.0342617 -4.27385e-17)
(0.67848 -0.0171351 1.33147e-16)
(0.851309 -0.0523193 -3.34586e-17)
(0.974359 -0.0710458 -7.8151e-18)
(1.03248 -0.0691616 5.00118e-17)
(1.07735 -0.0628709 -9.47208e-17)
(1.02405 -0.0307733 5.67407e-17)
(0.959717 -0.026399 -7.69096e-18)
(-0.0495453 -0.014162 7.95149e-17)
(0.170399 0.0150999 -3.60985e-17)
(0.483556 -0.0064016 -1.76876e-17)
(0.621051 -0.00794554 -4.28433e-18)
(0.837608 -0.0212242 -2.60133e-17)
(0.969504 -0.0243287 1.69847e-19)
(1.04055 -0.024434 6.27173e-19)
(1.0852 -0.0216424 1.34053e-19)
(1.02945 -0.0109788 -1.18212e-18)
(0.963966 -0.00915719 1.70707e-19)
)
;

boundaryField
{
    up
    {
        type            fixedValue;
        value           uniform (1 0 0);
    }
    hole
    {
        type            myImplicitVelocity;
    }
    frontAndBack
    {
        type            empty;
    }
}


// ************************************************************************* //
