/*--------------------------------*- C++ -*----------------------------------*\
| =========                 |                                                 |
| \\      /  F ield         | foam-extend: Open Source CFD                    |
|  \\    /   O peration     | Version:  3.0                                   |
|   \\  /    A nd           | Web:         http://www.extend-project.de       |
|    \\/     M anipulation  |                                                 |
\*---------------------------------------------------------------------------*/
FoamFile
{
    version     2.0;
    format      ascii;
    class       volVectorField;
    location    "2";
    object      u;
}
// * * * * * * * * * * * * * * * * * * * * * * * * * * * * * * * * * * * * * //

dimensions      [0 0 0 0 0 0 0];

internalField   nonuniform List<vector> 
168
(
(0.523967 -0.173324 4.77742e-19)
(0.695139 -0.0931784 4.93034e-18)
(0.931095 -0.0637335 -2.68258e-17)
(0.911433 -0.0428212 1.21746e-17)
(1.04097 -0.0234414 -9.44699e-18)
(0.934985 -0.0292186 2.12853e-17)
(0.66313 -0.454948 -6.7148e-17)
(0.767783 -0.240944 -1.66318e-17)
(0.979357 -0.160264 7.25906e-18)
(0.942454 -0.104381 -7.48521e-17)
(1.05626 -0.0520359 8.44995e-18)
(0.954787 -0.0668177 6.5941e-18)
(0.907779 -0.64576 -9.02005e-17)
(0.895401 -0.340161 1.18087e-16)
(1.0623 -0.225094 2.12204e-17)
(0.995939 -0.145658 1.21992e-16)
(1.08113 -0.0708761 -5.03793e-17)
(0.988831 -0.0918115 -4.29782e-17)
(1.2139 -0.71308 2.69914e-16)
(1.05597 -0.375801 -1.29706e-16)
(1.16798 -0.24799 2.78819e-18)
(1.06363 -0.160226 -8.13213e-17)
(1.11339 -0.0771508 5.93045e-18)
(1.03108 -0.100499 7.09013e-17)
(1.51613 -0.640647 -7.74623e-17)
(1.21391 -0.338006 3.99725e-17)
(1.27085 -0.223629 4.84236e-17)
(1.12976 -0.144354 1.55578e-17)
(1.14396 -0.0696366 1.89287e-17)
(1.07291 -0.0899097 -2.78298e-17)
(1.75895 -0.443355 -1.84094e-17)
(1.34188 -0.234948 -2.31492e-18)
(1.355 -0.155435 -2.1664e-17)
(1.1836 -0.100681 2.31726e-18)
(1.16918 -0.0483644 3.91983e-18)
(1.10645 -0.0625166 1.32355e-18)
(1.89133 -0.161319 -4.542e-19)
(1.41146 -0.0876289 4.91775e-19)
(1.40027 -0.0595848 -4.67885e-18)
(1.21258 -0.0389285 3.32514e-18)
(1.1822 -0.0196433 3.77858e-18)
(1.12494 -0.023013 -3.81427e-18)
(1.88804 0.151934 -2.48426e-18)
(1.4106 0.0768393 -7.12773e-18)
(1.39997 0.0491236 -2.15449e-18)
(1.21241 0.0307331 -6.1673e-19)
(1.18159 0.0137006 4.26239e-18)
(1.12445 0.0206674 -5.16868e-18)
(1.75092 0.431966 1.8202e-17)
(1.33928 0.222894 3.04126e-19)
(1.35326 0.143773 -5.60062e-18)
(1.18196 0.0913416 1.88691e-17)
(1.16641 0.0412531 -1.66006e-18)
(1.10395 0.060027 2.29961e-18)
(1.50341 0.625164 8.03387e-17)
(1.20937 0.325169 -8.23612e-17)
(1.26852 0.21256 -1.06546e-17)
(1.12817 0.136391 -8.60971e-17)
(1.14188 0.0640427 2.91105e-17)
(1.06983 0.0886648 2.41108e-17)
(1.20099 0.692761 -2.77389e-16)
(1.05255 0.359052 1.46427e-16)
(1.16716 0.232648 -1.85312e-18)
(1.06434 0.146347 1.01338e-16)
(1.11243 0.0655504 -1.91691e-17)
(1.02542 0.0908649 -8.1924e-17)
(0.894448 0.618441 9.69506e-17)
(0.889709 0.320448 -5.14949e-17)
(1.05892 0.209305 -7.46531e-17)
(0.994358 0.134731 -3.13015e-17)
(1.08031 0.0662149 -3.33045e-17)
(0.986915 0.0958705 6.33893e-17)
(0.65549 0.424812 7.33838e-17)
(0.768032 0.218965 8.12369e-18)
(0.982348 0.141877 8.15592e-17)
(0.953039 0.0868467 -4.29801e-18)
(1.06248 0.0421789 7.19343e-18)
(0.975142 0.0363786 -5.03227e-18)
(0.522025 0.13565 4.59706e-19)
(0.698114 0.0647123 -4.87215e-18)
(0.936582 0.0357326 1.39158e-17)
(0.925873 0.0230074 -4.7252e-18)
(1.04836 -0.002302 -9.66443e-18)
(0.974948 0.063186 2.37638e-17)
(0.52336 -0.173012 -4.02032e-19)
(0.693956 -0.0955579 -4.82293e-18)
(0.929618 -0.0696764 2.68774e-17)
(0.908824 -0.0451299 -1.18749e-17)
(1.0396 -0.0395639 9.47212e-18)
(0.926151 0.0120531 -2.14145e-17)
(0.663169 -0.454552 6.7022e-17)
(0.767926 -0.24271 1.62778e-17)
(0.980057 -0.163875 -7.64291e-18)
(0.938663 -0.105053 7.32847e-17)
(1.05815 -0.0597312 -8.33096e-18)
(0.926566 -0.0293815 -6.03708e-18)
(0.906972 -0.645332 8.92591e-17)
(0.892304 -0.343089 -1.15953e-16)
(1.05819 -0.229395 -2.10686e-17)
(0.984806 -0.15105 -1.17074e-16)
(1.07637 -0.0767236 4.84901e-17)
(0.952153 -0.0796473 4.01395e-17)
(1.21242 -0.710148 -2.67438e-16)
(1.05201 -0.375 1.27059e-16)
(1.16216 -0.24657 -2.87669e-18)
(1.05368 -0.161629 7.73445e-17)
(1.10528 -0.0747769 -6.04946e-18)
(1.01189 -0.1019 -6.57108e-17)
(1.51584 -0.638121 7.67588e-17)
(1.21042 -0.337054 -3.91627e-17)
(1.26532 -0.221821 -4.66091e-17)
(1.1224 -0.143637 -1.46221e-17)
(1.13673 -0.0664884 -1.74626e-17)
(1.06087 -0.0839979 2.52405e-17)
(1.75745 -0.440536 1.79164e-17)
(1.33563 -0.23333 2.23303e-18)
(1.34706 -0.153521 2.01093e-17)
(1.17542 -0.0998774 -2.5845e-18)
(1.16241 -0.0468166 -3.97109e-18)
(1.09571 -0.0582357 -1.15805e-18)
(1.8912 -0.159497 4.72902e-19)
(1.4056 -0.0867148 -4.00388e-19)
(1.39281 -0.0583792 4.54561e-18)
(1.20478 -0.0380527 -3.20978e-18)
(1.17585 -0.0183599 -3.47095e-18)
(1.11139 -0.0200047 3.28899e-18)
(1.88706 0.152272 2.41897e-18)
(1.40307 0.0757478 7.02793e-18)
(1.39129 0.0477733 2.00841e-18)
(1.20395 0.02945 5.18726e-19)
(1.17531 0.0128718 -4.29608e-18)
(1.10977 0.0195547 5.35255e-18)
(1.75109 0.43128 -1.81356e-17)
(1.33308 0.221107 -1.59907e-19)
(1.34601 0.141788 5.68372e-18)
(1.1748 0.0893205 -1.82656e-17)
(1.16149 0.039723 1.6117e-18)
(1.09124 0.0547971 -2.41877e-18)
(1.50345 0.622531 -7.9506e-17)
(1.20407 0.320705 8.09008e-17)
(1.26171 0.20663 1.0537e-17)
(1.12109 0.130397 8.33938e-17)
(1.13602 0.0581989 -2.85532e-17)
(1.05879 0.0784969 -2.26188e-17)
(1.20071 0.690016 2.75048e-16)
(1.04724 0.356376 -1.44012e-16)
(1.16007 0.229525 1.87659e-18)
(1.05625 0.14479 -9.81104e-17)
(1.10641 0.0642305 1.92222e-17)
(1.01972 0.0865848 7.82337e-17)
(0.895495 0.615781 -9.61597e-17)
(0.888241 0.317483 5.06907e-17)
(1.05633 0.203864 7.28472e-17)
(0.990317 0.128272 3.03302e-17)
(1.07589 0.0559051 3.18745e-17)
(0.980362 0.075941 -6.08873e-17)
(0.654458 0.421168 -7.27989e-17)
(0.762862 0.216796 -8.01647e-18)
(0.975081 0.138439 -7.94411e-17)
(0.938699 0.0863609 4.442e-18)
(1.05267 0.0364981 -6.98656e-18)
(0.949717 0.0499854 4.85935e-18)
(0.521373 0.136429 -4.90368e-19)
(0.693591 0.0678057 4.7415e-18)
(0.930092 0.0408305 -1.38095e-17)
(0.910333 0.0240664 4.56008e-18)
(1.04006 0.0071815 9.05774e-18)
(0.933265 0.0118214 -2.2438e-17)
)
;

boundaryField
{
    out
    {
        type            fixedValue;
        value           uniform (1 0 0);
    }
    in
    {
        type            myVelocity;
    }
    frontAndBack
    {
        type            empty;
    }
}


// ************************************************************************* //
