/*--------------------------------*- C++ -*----------------------------------*\
| =========                 |                                                 |
| \\      /  F ield         | foam-extend: Open Source CFD                    |
|  \\    /   O peration     | Version:  3.0                                   |
|   \\  /    A nd           | Web:         http://www.extend-project.de       |
|    \\/     M anipulation  |                                                 |
\*---------------------------------------------------------------------------*/
FoamFile
{
    version     2.0;
    format      ascii;
    class       volVectorField;
    location    "40";
    object      s;
}
// * * * * * * * * * * * * * * * * * * * * * * * * * * * * * * * * * * * * * //

dimensions      [0 1 -1 0 0 0 0];

internalField   nonuniform List<vector> 
80
(
(0.976151 0.154607 9.00565e-18)
(0.668912 0.105945 1.97954e-18)
(0.500351 0.0792477 4.70909e-18)
(0.400421 0.0634205 -2.05615e-18)
(0.880599 0.448688 -5.35144e-18)
(0.603434 0.307465 3.53323e-18)
(0.451373 0.229986 1.10502e-17)
(0.361225 0.184053 1.2948e-17)
(0.698847 0.698847 -3.31504e-18)
(0.478888 0.478888 4.29997e-18)
(0.358211 0.358211 -4.0572e-17)
(0.28667 0.28667 -7.18816e-18)
(0.448688 0.880599 -6.24331e-18)
(0.307465 0.603434 -8.90589e-20)
(0.229986 0.451373 -7.55952e-18)
(0.184053 0.361225 1.70495e-18)
(0.154607 0.976151 7.97048e-18)
(0.105945 0.668912 6.63383e-18)
(0.0792477 0.500351 -3.94179e-18)
(0.0634205 0.400421 -4.79656e-18)
(-0.154607 0.976151 9.00565e-18)
(-0.105945 0.668912 1.97954e-18)
(-0.0792477 0.500351 4.70909e-18)
(-0.0634205 0.400421 -2.05615e-18)
(-0.448688 0.880599 -5.35144e-18)
(-0.307465 0.603434 3.53323e-18)
(-0.229986 0.451373 1.10502e-17)
(-0.184053 0.361225 1.2948e-17)
(-0.698847 0.698847 -3.31504e-18)
(-0.478888 0.478888 4.29997e-18)
(-0.358211 0.358211 -4.0572e-17)
(-0.28667 0.28667 -7.18816e-18)
(-0.880599 0.448688 -6.24331e-18)
(-0.603434 0.307465 -8.90589e-20)
(-0.451373 0.229986 -7.55952e-18)
(-0.361225 0.184053 1.70495e-18)
(-0.976151 0.154607 7.97048e-18)
(-0.668912 0.105945 6.63383e-18)
(-0.500351 0.0792477 -3.94179e-18)
(-0.400421 0.0634205 -4.79656e-18)
(-0.976151 -0.154607 9.00565e-18)
(-0.668912 -0.105945 1.97954e-18)
(-0.500351 -0.0792477 4.70909e-18)
(-0.400421 -0.0634205 -2.05615e-18)
(-0.880599 -0.448688 -5.35144e-18)
(-0.603434 -0.307465 3.53323e-18)
(-0.451373 -0.229986 1.10502e-17)
(-0.361225 -0.184053 1.2948e-17)
(-0.698847 -0.698847 -3.31504e-18)
(-0.478888 -0.478888 4.29997e-18)
(-0.358211 -0.358211 -4.0572e-17)
(-0.28667 -0.28667 -7.18816e-18)
(-0.448688 -0.880599 -6.24331e-18)
(-0.307465 -0.603434 -8.90589e-20)
(-0.229986 -0.451373 -7.55952e-18)
(-0.184053 -0.361225 1.70495e-18)
(-0.154607 -0.976151 7.97048e-18)
(-0.105945 -0.668912 6.63383e-18)
(-0.0792477 -0.500351 -3.94179e-18)
(-0.0634205 -0.400421 -4.79656e-18)
(0.154607 -0.976151 9.00565e-18)
(0.105945 -0.668912 1.97954e-18)
(0.0792477 -0.500351 4.70909e-18)
(0.0634205 -0.400421 -2.05615e-18)
(0.448688 -0.880599 -5.35144e-18)
(0.307465 -0.603434 3.53323e-18)
(0.229986 -0.451373 1.10502e-17)
(0.184053 -0.361225 1.2948e-17)
(0.698847 -0.698847 -3.31504e-18)
(0.478888 -0.478888 4.29997e-18)
(0.358211 -0.358211 -4.0572e-17)
(0.28667 -0.28667 -7.18816e-18)
(0.880599 -0.448688 -6.24331e-18)
(0.603434 -0.307465 -8.90589e-20)
(0.451373 -0.229986 -7.55952e-18)
(0.361225 -0.184053 1.70495e-18)
(0.976151 -0.154607 7.97048e-18)
(0.668912 -0.105945 6.63383e-18)
(0.500351 -0.0792477 -3.94179e-18)
(0.400421 -0.0634205 -4.79656e-18)
)
;

boundaryField
{
    up
    {
        type            myHeatFlux;
        alpha           uniform 1;
        Theta_wall      uniform 1;
        value           nonuniform List<vector> 
20
(
(0.366783 0.0580928 0)
(0.33088 0.168592 4.11801e-17)
(0.262588 0.262588 0)
(0.168592 0.33088 -4.11801e-17)
(0.0580928 0.366783 0)
(-0.0580928 0.366783 0)
(-0.168592 0.33088 4.11801e-17)
(-0.262588 0.262588 0)
(-0.33088 0.168592 -4.11801e-17)
(-0.366783 0.0580928 0)
(-0.366783 -0.0580928 0)
(-0.33088 -0.168592 4.11801e-17)
(-0.262588 -0.262588 0)
(-0.168592 -0.33088 -4.11801e-17)
(-0.0580928 -0.366783 0)
(0.0580928 -0.366783 0)
(0.168592 -0.33088 4.11801e-17)
(0.262588 -0.262588 0)
(0.33088 -0.168592 -4.11801e-17)
(0.366783 -0.0580928 0)
)
;
    }
    hole
    {
        type            myHeatFlux;
        alpha           uniform 1;
        Theta_wall      uniform 4;
        value           nonuniform List<vector> 
20
(
(1.46713 0.232371 -0)
(1.32352 0.674367 0)
(1.05035 1.05035 0)
(0.674367 1.32352 -0)
(0.232371 1.46713 0)
(-0.232371 1.46713 -0)
(-0.674367 1.32352 0)
(-1.05035 1.05035 0)
(-1.32352 0.674367 -0)
(-1.46713 0.232371 0)
(-1.46713 -0.232371 -0)
(-1.32352 -0.674367 0)
(-1.05035 -1.05035 0)
(-0.674367 -1.32352 -0)
(-0.232371 -1.46713 0)
(0.232371 -1.46713 -0)
(0.674367 -1.32352 0)
(1.05035 -1.05035 0)
(1.32352 -0.674367 -0)
(1.46713 -0.232371 0)
)
;
    }
    frontAndBack
    {
        type            empty;
    }
}


// ************************************************************************* //
