/*--------------------------------*- C++ -*----------------------------------*\
| =========                 |                                                 |
| \\      /  F ield         | OpenFOAM: The Open Source CFD Toolbox           |
|  \\    /   O peration     | Version:  2.2.0                                 |
|   \\  /    A nd           | Web:      www.OpenFOAM.org                      |
|    \\/     M anipulation  |                                                 |
\*---------------------------------------------------------------------------*/
FoamFile
{
    version     2.0;
    format      ascii;
    class       volVectorField;
    location    "50";
    object      s;
}
// * * * * * * * * * * * * * * * * * * * * * * * * * * * * * * * * * * * * * //

dimensions      [0 1 -1 0 0 0 0];

internalField   nonuniform List<vector> 
728
(
(-0.0551185 -0.0866083 0)
(0.0571288 0.0851145 0)
(-0.0846954 0.0550603 0)
(0.0857357 -0.0573462 0)
(0.0368006 -0.321353 0)
(-0.0347506 0.314946 0)
(0.31842 0.0335499 0)
(-0.315897 -0.0374178 0)
(0.102027 -0.140938 0)
(-0.13359 -0.0998969 0)
(-0.0976554 0.134596 0)
(0.13572 0.0992042 0)
(0.102742 -0.135365 0)
(0.130001 0.10003 0)
(-0.0983606 0.128995 0)
(-0.127641 -0.100158 0)
(0.00903193 0.136723 0)
(-0.136436 0.00749029 0)
(0.137229 -0.00881835 0)
(-0.00829696 -0.139279 0)
(-0.0658268 0.19186 0)
(-0.192045 -0.0682286 0)
(0.193596 0.0671178 0)
(0.0692283 -0.198682 0)
(0.00299794 -0.392845 0)
(-0.38842 -0.00236312 0)
(0.391088 -0.00133615 0)
(-0.0017803 0.386096 0)
(0.00186604 0.145605 0)
(-0.145701 -0.000125623 0)
(0.146442 -0.00139688 0)
(0.000479237 -0.148799 0)
(-0.0471769 0.191233 0)
(-0.19113 -0.04979 0)
(0.192705 0.0484521 0)
(0.0500993 -0.197557 0)
(-0.119067 -0.0394003 0)
(-0.0356035 0.118538 0)
(0.119157 0.0388836 0)
(0.0425522 -0.123644 0)
(0.0534149 -0.155235 0)
(-0.149905 -0.0522397 0)
(-0.0496687 0.149125 0)
(0.150561 0.0513841 0)
(0.0563567 -0.145171 0)
(0.140158 0.0535769 0)
(-0.0521808 0.139083 0)
(-0.13929 -0.053512 0)
(0.107472 0.159743 0)
(0.161634 -0.110795 0)
(-0.159 0.105854 0)
(-0.105277 -0.162295 0)
(-0.467356 0.0564138 0)
(-0.0563085 -0.471704 0)
(0.471769 -0.0606967 0)
(0.0576494 0.465081 0)
(0.0548433 0.106259 0)
(-0.105752 0.0533595 0)
(0.106546 -0.0558174 0)
(-0.051693 -0.110775 0)
(0.030101 -0.150125 0)
(0.146115 0.0281022 0)
(-0.145109 -0.0289528 0)
(-0.0265905 0.144947 0)
(-0.0929372 0.0679454 0)
(-0.0671847 -0.0954438 0)
(0.0934988 -0.0726216 0)
(0.0708024 0.0926065 0)
(-0.0713665 0.290158 0)
(0.0736183 -0.297224 0)
(-0.291266 -0.0732002 0)
(0.292555 0.0708932 0)
(-0.114618 -0.0396863 0)
(-0.0389251 0.113241 0)
(0.044944 -0.119225 0)
(0.114465 0.0409309 0)
(0.0194339 -0.15167 0)
(-0.147687 -0.0180791 0)
(-0.0161926 0.14768 0)
(0.148725 0.0172338 0)
(-0.156946 -0.179225 0)
(0.158905 0.176779 0)
(0.180279 -0.163515 0)
(-0.176657 0.15722 0)
(0.0344654 0.096253 0)
(-0.0965677 0.034044 0)
(-0.0377012 -0.102964 0)
(0.0965374 -0.0346962 0)
(-0.159992 -0.484101 0)
(-0.479504 0.159311 0)
(0.15959 0.478054 0)
(0.484028 -0.16276 0)
(-0.152996 -0.19286 0)
(0.154677 0.190183 0)
(0.19352 -0.159517 0)
(-0.189722 0.153719 0)
(-0.117382 0.141959 0)
(-0.140915 -0.11955 0)
(0.121759 -0.14836 0)
(0.143123 0.118403 0)
(0.0522733 0.0907729 0)
(-0.0506989 -0.093492 0)
(-0.0905766 0.0506437 0)
(0.0914223 -0.0525638 0)
(-0.0650183 -0.101773 0)
(0.099536 -0.070365 0)
(-0.0982339 0.0662231 0)
(0.0683114 0.0987484 0)
(0.0270115 0.104331 0)
(-0.104791 0.0257099 0)
(-0.0393856 -0.108301 0)
(0.103223 -0.0284019 0)
(0.00588149 -0.127487 0)
(-0.125629 -0.00537602 0)
(-0.003741 0.126645 0)
(0.126301 0.00440616 0)
(0.0691917 0.0840219 0)
(-0.0601891 -0.0859044 0)
(-0.0838844 0.0559174 0)
(0.0848303 -0.0634976 0)
(0.0563965 0.0996642 0)
(-0.0991657 0.0544228 0)
(0.0999515 -0.0572653 0)
(-0.0533534 -0.103403 0)
(0.103352 -0.123213 0)
(0.118162 0.10069 0)
(-0.099006 0.116992 0)
(-0.115187 -0.101058 0)
(0.100328 0.0919574 0)
(-0.0966209 -0.091796 0)
(0.0938072 -0.10732 0)
(-0.089935 0.0995887 0)
(0.0481059 0.105965 0)
(-0.105837 0.0470212 0)
(0.106319 -0.0487969 0)
(-0.046048 -0.10957 0)
(0.0962747 0.0901724 0)
(0.0908759 -0.101657 0)
(-0.0926808 -0.0903719 0)
(-0.087858 0.0952793 0)
(-0.0726783 0.227707 0)
(-0.228688 -0.0759802 0)
(0.22967 0.0745111 0)
(0.075346 -0.234608 0)
(-0.0598529 -0.124013 0)
(-0.120401 0.059673 0)
(0.0611923 0.121152 0)
(0.121694 -0.0629328 0)
(0.0408285 -0.128944 0)
(-0.123718 -0.0373924 0)
(0.124304 0.0375567 0)
(-0.0349564 0.123474 0)
(-0.0738632 0.0825832 0)
(0.077836 -0.0857248 0)
(-0.0811015 -0.0742046 0)
(0.0829315 0.0756593 0)
(0.0126855 -0.132945 0)
(0.130486 0.0107347 0)
(-0.0096574 0.130033 0)
(-0.130021 -0.011619 0)
(0.27275 -0.0935595 0)
(0.0909248 0.269776 0)
(-0.271034 0.0893633 0)
(-0.0896981 -0.273722 0)
(0.0303831 0.279517 0)
(0.283178 -0.0310849 0)
(-0.280935 0.028482 0)
(-0.0284625 -0.283648 0)
(-0.126689 0.052728 0)
(0.0542685 0.126972 0)
(0.127683 -0.0553807 0)
(-0.0523359 -0.130757 0)
(0.10667 0.0882716 0)
(-0.103751 -0.0877989 0)
(0.0904174 -0.112509 0)
(-0.0863719 0.105605 0)
(0.0781392 -0.0785481 0)
(-0.0751579 0.0754444 0)
(0.0758652 0.0776217 0)
(-0.0744468 -0.0762969 0)
(-0.15499 0.0914812 0)
(0.157055 -0.0955952 0)
(-0.0910815 -0.15818 0)
(0.092747 0.155547 0)
(0.0970847 0.316333 0)
(0.322216 -0.0981136 0)
(-0.31785 0.0955434 0)
(-0.0953286 -0.321074 0)
(-0.0615269 0.159829 0)
(-0.159919 -0.0639052 0)
(0.0650016 -0.166422 0)
(0.161151 0.0630916 0)
(-0.0825754 0.14956 0)
(0.150731 0.0840064 0)
(-0.149447 -0.0845148 0)
(0.0868872 -0.155938 0)
(-0.00657881 0.109579 0)
(0.1092 0.00683125 0)
(-0.109396 -0.00707756 0)
(0.00792087 -0.11129 0)
(0.0296972 -0.115286 0)
(0.111804 0.0262295 0)
(-0.112067 -0.0257134 0)
(-0.0260228 0.111606 0)
(-0.0688918 -0.110714 0)
(0.108748 -0.0741412 0)
(0.0719088 0.108374 0)
(-0.106894 0.0698629 0)
(0.0523119 -0.118113 0)
(0.0994568 0.0610117 0)
(-0.0851596 -0.0691705 0)
(-0.0600293 0.0992226 0)
(0.13146 0.0405925 0)
(-0.130955 -0.0409441 0)
(-0.0385355 0.130244 0)
(0.0432116 -0.13643 0)
(0.0497127 0.286053 0)
(0.2913 -0.0517454 0)
(-0.287535 0.0482935 0)
(-0.048095 -0.290851 0)
(0.0326026 -0.117838 0)
(0.114516 0.0294084 0)
(-0.115088 -0.0290437 0)
(-0.0276068 0.114069 0)
(0.0124038 -0.167487 0)
(-0.00948408 0.162975 0)
(-0.163106 -0.0118889 0)
(0.16447 0.0101966 0)
(-0.0879171 0.0754415 0)
(0.0755193 0.0904996 0)
(-0.0734156 -0.0907965 0)
(0.0897335 -0.0790658 0)
(0.00480057 -0.117773 0)
(-0.116326 -0.00286207 0)
(-0.00220222 0.117036 0)
(0.116848 0.00204043 0)
(-0.129373 0.0775793 0)
(-0.0768941 -0.132907 0)
(0.0791721 0.130264 0)
(0.131329 -0.0815277 0)
(-0.0413846 0.23673 0)
(0.0437918 -0.242772 0)
(-0.237161 -0.0442647 0)
(0.23875 0.0420948 0)
(-0.21208 0.320147 0)
(0.320471 0.213574 0)
(0.216131 -0.334837 0)
(-0.322336 -0.215085 0)
(0.128833 0.0592805 0)
(0.0613262 -0.133478 0)
(-0.128585 -0.0598568 0)
(-0.0571312 0.127833 0)
(-0.200038 0.337844 0)
(-0.339921 -0.203648 0)
(0.207277 -0.346854 0)
(0.340777 0.201876 0)
(0.0287889 0.109598 0)
(0.109834 -0.0296492 0)
(-0.0345866 -0.113534 0)
(-0.109645 0.0280648 0)
(0.190833 0.0650434 0)
(-0.063781 0.189389 0)
(-0.189889 -0.0660658 0)
(0.066725 -0.19617 0)
(0.111162 -0.0864968 0)
(0.0828472 0.110071 0)
(-0.0802516 -0.112192 0)
(-0.108956 0.0812465 0)
(0.0971369 -0.248132 0)
(-0.0937457 0.240202 0)
(0.241896 0.0947586 0)
(-0.241258 -0.0960493 0)
(-0.110729 0.0131299 0)
(-0.0094703 -0.109274 0)
(0.017083 0.110222 0)
(0.110744 -0.0171544 0)
(-0.0856575 -0.0800636 0)
(-0.0785952 0.0879856 0)
(0.0813471 -0.0932268 0)
(0.0884441 0.0807415 0)
(-0.0388038 0.156401 0)
(-0.156779 -0.0409486 0)
(0.0419831 -0.161898 0)
(0.157765 0.0401782 0)
(0.00589736 0.128577 0)
(-0.128423 0.0043134 0)
(0.128916 -0.0052371 0)
(-0.00571674 -0.131204 0)
(-0.12796 0.0809072 0)
(-0.0800268 -0.130955 0)
(0.0822635 0.129037 0)
(0.130464 -0.085395 0)
(0.0658483 -0.101284 0)
(-0.0893705 -0.0593117 0)
(0.0938652 0.0620631 0)
(-0.0620043 0.0936994 0)
(0.106402 -0.0153997 0)
(0.0153792 0.105891 0)
(-0.106028 0.0151371 0)
(-0.0162778 -0.105377 0)
(0.0625953 -0.110835 0)
(0.10277 0.063029 0)
(-0.0997014 -0.0630704 0)
(-0.062816 0.101917 0)
(-0.0117932 0.235109 0)
(0.0136504 -0.240656 0)
(-0.236031 -0.0142247 0)
(0.238114 0.0121617 0)
(0.0334001 -0.139419 0)
(-0.134661 -0.0312201 0)
(0.135266 0.0309861 0)
(-0.0295017 0.134399 0)
(0.116208 -0.306142 0)
(-0.112588 0.296361 0)
(-0.297706 -0.116155 0)
(0.298984 0.114424 0)
(0.086816 -0.14819 0)
(-0.0824581 0.142089 0)
(0.143128 0.0840162 0)
(-0.141713 -0.0849012 0)
(0.233423 0.180018 0)
(0.183565 -0.24109 0)
(-0.17913 0.232154 0)
(-0.232776 -0.182162 0)
(0.158598 -0.229138 0)
(-0.153571 0.221354 0)
(0.223734 0.15486 0)
(-0.222767 -0.15651 0)
(-0.0387671 0.100752 0)
(-0.103341 -0.0398772 0)
(0.0428727 -0.108695 0)
(0.102982 0.0400993 0)
(-0.0600056 -0.115155 0)
(0.0623345 0.112299 0)
(-0.111068 0.0608238 0)
(0.112549 -0.0639895 0)
(0.146526 -0.2707 0)
(-0.142904 0.262169 0)
(0.264365 0.144646 0)
(-0.263686 -0.146348 0)
(0.0078833 -0.175306 0)
(-0.172021 -0.00732038 0)
(0.173295 0.00579361 0)
(-0.00515999 0.171575 0)
(0.114103 0.147576 0)
(0.149951 -0.117679 0)
(-0.112111 -0.14952 0)
(-0.146674 0.112804 0)
(-0.127538 0.135686 0)
(-0.134342 -0.129646 0)
(0.131844 -0.141922 0)
(0.137058 0.12879 0)
(-0.00046015 -0.15827 0)
(0.00240287 0.154512 0)
(-0.154606 0.000559957 0)
(0.155621 -0.00200814 0)
(0.0731402 -0.122334 0)
(0.115984 0.0712585 0)
(-0.0697587 0.114881 0)
(-0.114177 -0.0706499 0)
(-0.0522494 -0.148955 0)
(-0.14534 0.0522664 0)
(0.0539097 0.145464 0)
(0.146554 -0.0551621 0)
(-0.0386745 -0.10467 0)
(-0.0919746 0.0476917 0)
(0.0926916 -0.0480676 0)
(0.0473059 0.0924517 0)
(-0.163153 -0.150724 0)
(-0.148336 0.162864 0)
(0.164806 0.148629 0)
(0.152324 -0.169758 0)
(0.124161 0.163435 0)
(0.164971 -0.128059 0)
(-0.162795 0.122806 0)
(-0.122079 -0.166149 0)
(0.0794194 -0.12156 0)
(0.116117 0.0772604 0)
(-0.0752854 0.11497 0)
(-0.115006 -0.0770805 0)
(-0.113165 0.0411842 0)
(0.0424451 0.113358 0)
(0.113747 -0.0433095 0)
(-0.0434237 -0.11654 0)
(-0.00540066 0.11243 0)
(-0.113072 -0.00184107 0)
(0.112332 0.00297515 0)
(0.00407117 -0.113963 0)
(-0.0115272 -0.115634 0)
(-0.1148 0.0117658 0)
(0.0127711 0.114964 0)
(0.11513 -0.0133774 0)
(0.0357711 0.112916 0)
(0.113341 -0.0364142 0)
(-0.0358704 -0.119238 0)
(-0.112623 0.0345426 0)
(0.134667 -0.210968 0)
(-0.203908 -0.133085 0)
(-0.130117 0.203145 0)
(0.204919 0.13152 0)
(0.332327 0.369779 0)
(-0.369456 0.330916 0)
(0.376924 -0.337445 0)
(-0.332654 -0.372692 0)
(-0.12251 0.462206 0)
(-0.46445 -0.124606 0)
(0.124869 -0.471109 0)
(0.466022 0.123863 0)
(0.0892908 0.105109 0)
(-0.0859165 -0.106061 0)
(-0.103409 0.0879389 0)
(0.106329 -0.0935522 0)
(-0.0110431 0.140706 0)
(0.0132559 -0.1436 0)
(-0.14041 -0.0130299 0)
(0.141248 0.0119347 0)
(0.111364 -0.215939 0)
(-0.208672 -0.109551 0)
(0.209775 0.108116 0)
(-0.107169 0.208377 0)
(-0.0199245 -0.122391 0)
(0.120746 -0.0193381 0)
(0.0192721 0.120409 0)
(-0.120087 0.0177938 0)
(-0.0150886 -0.124008 0)
(-0.124004 0.0120879 0)
(0.0127108 0.124728 0)
(0.125105 -0.0126752 0)
(-0.0157153 0.126437 0)
(0.0190568 -0.129127 0)
(-0.125961 -0.0178108 0)
(0.126332 0.0170791 0)
(-0.0458952 -0.0949411 0)
(0.0916917 -0.0469645 0)
(-0.0911532 0.0458438 0)
(0.0466074 0.0907049 0)
(-0.00928406 0.116433 0)
(-0.115637 -0.0133753 0)
(0.115587 0.0122958 0)
(0.0137551 -0.117759 0)
(-0.0706729 -0.0826005 0)
(0.0814961 -0.0775959 0)
(0.0715298 0.089287 0)
(-0.0756382 0.0736377 0)
(0.130208 -0.102255 0)
(-0.0958236 -0.130297 0)
(-0.127514 0.097154 0)
(0.0986319 0.128624 0)
(0.16622 0.0193651 0)
(-0.0182816 0.164591 0)
(0.02153 -0.169498 0)
(-0.164651 -0.0206727 0)
(-0.0652345 -0.0814028 0)
(0.0818772 -0.0678989 0)
(0.0680439 0.0831199 0)
(-0.0788132 0.0644913 0)
(-0.0457133 -0.158141 0)
(0.0473467 0.153884 0)
(0.155143 -0.0484273 0)
(-0.153827 0.0459846 0)
(0.124885 -0.0473331 0)
(0.0464904 0.124539 0)
(-0.124182 0.0451121 0)
(-0.0457117 -0.128064 0)
(-0.0162773 0.192684 0)
(-0.193111 -0.0187758 0)
(0.0188749 -0.19768 0)
(0.195127 0.016883 0)
(0.147363 -0.0351804 0)
(-0.146151 0.0333625 0)
(-0.0336124 -0.150295 0)
(0.0347988 0.146495 0)
(-0.109137 0.108073 0)
(-0.106689 -0.111963 0)
(0.112549 -0.114159 0)
(0.109173 0.110679 0)
(-0.0511791 0.0990191 0)
(0.103742 0.0473864 0)
(-0.108457 -0.0245453 0)
(0.0670395 -0.108597 0)
(0.12141 -0.118095 0)
(0.113468 0.119269 0)
(-0.111121 -0.120641 0)
(-0.117863 0.112147 0)
(0.018259 -0.110478 0)
(-0.107828 -0.016979 0)
(-0.0166492 0.107431 0)
(0.107568 0.0170518 0)
(0.148177 -0.0278253 0)
(-0.147278 0.0263719 0)
(-0.0262799 -0.150987 0)
(0.0275238 0.147204 0)
(-0.191544 -0.0262704 0)
(-0.0236266 0.191308 0)
(0.0264396 -0.196644 0)
(0.193226 0.0248024 0)
(0.135586 -0.0775793 0)
(0.0751329 0.134456 0)
(-0.0734077 -0.13699 0)
(-0.133751 0.0737922 0)
(0.0305067 -0.110464 0)
(0.106388 0.028866 0)
(-0.0278018 0.105605 0)
(-0.106529 -0.0291626 0)
(-0.220171 0.221769 0)
(0.222809 0.221542 0)
(0.224718 -0.228195 0)
(-0.222326 -0.224016 0)
(0.149935 -0.138877 0)
(-0.131698 -0.148659 0)
(-0.146125 0.133019 0)
(0.134697 0.146878 0)
(0.248097 -0.00312303 0)
(0.00245391 0.243578 0)
(-0.245169 0.000492171 0)
(-0.00094318 -0.248911 0)
(0.105334 -0.0039331 0)
(-0.105154 0.00369989 0)
(0.00385157 0.105012 0)
(-0.00328371 -0.106 0)
(0.121773 0.057928 0)
(0.0612066 -0.126899 0)
(-0.119828 -0.0571545 0)
(-0.0559158 0.121831 0)
(-0.180291 0.0367094 0)
(-0.0359935 -0.184047 0)
(0.181881 -0.0387997 0)
(0.0380143 0.179685 0)
(-0.0291116 -0.104485 0)
(-0.102293 0.0262665 0)
(0.0261826 0.101967 0)
(0.102215 -0.0261456 0)
(0.0840182 0.0940735 0)
(0.0937984 -0.0878514 0)
(-0.0812828 -0.0941388 0)
(-0.0912797 0.0833492 0)
(0.0872907 0.0854133 0)
(-0.0828817 0.0867712 0)
(-0.084113 -0.0852407 0)
(0.0856099 -0.0928087 0)
(-0.133392 -0.0732069 0)
(-0.0704936 0.134855 0)
(0.135607 0.0725137 0)
(0.074776 -0.141137 0)
(0.127745 0.081589 0)
(-0.0796187 0.12671 0)
(0.0842465 -0.133431 0)
(-0.125933 -0.0815656 0)
(0.0312881 0.226156 0)
(-0.0294001 -0.230825 0)
(-0.227598 0.030056 0)
(0.229136 -0.0317711 0)
(-0.012473 -0.199762 0)
(-0.195707 0.0130486 0)
(0.0149082 0.195082 0)
(0.197742 -0.014909 0)
(-0.109323 -0.0443961 0)
(0.0380352 -0.114355 0)
(-0.0283835 0.107942 0)
(0.108846 0.0365316 0)
(-0.139447 -0.21225 0)
(0.141254 0.209231 0)
(0.211158 -0.144524 0)
(-0.20916 0.140399 0)
(0.238431 -0.19668 0)
(-0.234304 0.190206 0)
(0.191274 0.234104 0)
(-0.190624 -0.237096 0)
(-0.0493544 0.106878 0)
(0.108653 0.0496375 0)
(-0.108417 -0.0458756 0)
(0.0540715 -0.114954 0)
(0.0542034 -0.124715 0)
(0.117896 0.0485654 0)
(-0.116929 -0.0450821 0)
(-0.0468069 0.116312 0)
(0.0400748 0.216041 0)
(0.219221 -0.041312 0)
(-0.0382893 -0.220831 0)
(-0.217245 0.0386155 0)
(-0.181235 0.0516796 0)
(0.182712 -0.0545226 0)
(0.0530309 0.180553 0)
(-0.0514815 -0.185153 0)
(-0.0970077 -0.0474051 0)
(0.0983468 0.0501944 0)
(-0.0499828 0.0972033 0)
(0.0543795 -0.104064 0)
(-0.0273932 -0.107681 0)
(0.108919 -0.015459 0)
(-0.108648 0.0194771 0)
(0.0173526 0.109373 0)
(0.174874 0.273231 0)
(0.279861 -0.177968 0)
(-0.273663 0.174256 0)
(-0.174274 -0.276472 0)
(-0.0129375 -0.18522 0)
(-0.18127 0.0135516 0)
(0.0155833 0.18088 0)
(0.18287 -0.0157202 0)
(0.0744695 -0.11473 0)
(-0.0716579 0.104262 0)
(0.105258 0.0726327 0)
(-0.10021 -0.071428 0)
(0.0714396 -0.0901864 0)
(-0.0845411 -0.0684904 0)
(-0.0689175 0.0861885 0)
(0.086082 0.069531 0)
(-0.0558214 -0.150424 0)
(-0.146865 0.0562341 0)
(0.0578151 0.146988 0)
(0.148146 -0.0595202 0)
(0.115099 -0.0211807 0)
(0.0213744 0.11459 0)
(-0.114749 0.0208812 0)
(-0.0272191 -0.115984 0)
(-0.168437 0.0731739 0)
(0.0744523 0.168381 0)
(0.170102 -0.0765211 0)
(-0.0728303 -0.171592 0)
(-0.171559 0.0634563 0)
(-0.0633038 -0.174634 0)
(0.0647506 0.171182 0)
(0.173024 -0.0667286 0)
(0.116938 0.0660625 0)
(0.0670586 -0.119262 0)
(-0.0648279 0.115523 0)
(-0.11944 -0.0659741 0)
(0.0911592 0.0966902 0)
(0.0969651 -0.0953063 0)
(-0.0877861 -0.0970577 0)
(-0.0943213 0.0897993 0)
(0.110942 0.226519 0)
(-0.226651 0.109545 0)
(0.230077 -0.114001 0)
(-0.109038 -0.229652 0)
(0.090638 0.192431 0)
(-0.191956 0.0891869 0)
(0.194405 -0.0929204 0)
(-0.0887503 -0.195267 0)
(-0.0400788 0.164744 0)
(-0.165036 -0.0424954 0)
(0.166284 0.0413815 0)
(0.0432214 -0.170208 0)
(-0.34542 0.234537 0)
(0.236077 0.343546 0)
(0.356431 -0.235996 0)
(-0.235586 -0.34856 0)
(-0.0972203 -0.0758146 0)
(-0.0749851 0.100447 0)
(0.101153 0.0762629 0)
(0.0769422 -0.108939 0)
(-0.063451 -0.225988 0)
(-0.222526 0.0636872 0)
(0.224652 -0.0662785 0)
(0.0648757 0.221492 0)
(-0.077654 -0.198946 0)
(-0.195603 0.0774757 0)
(0.197606 -0.0812308 0)
(0.0789533 0.195512 0)
(0.0256485 0.127389 0)
(-0.0256527 -0.130587 0)
(0.127644 -0.0257136 0)
(-0.127258 0.0242385 0)
(-0.174109 0.0283462 0)
(-0.0283628 -0.178104 0)
(0.175504 -0.0306381 0)
(0.0299734 0.173696 0)
(0.0719042 -0.0990817 0)
(-0.0692584 0.093016 0)
(0.0935019 0.0693885 0)
(-0.090804 -0.0676472 0)
(-0.0574556 0.10473 0)
(0.106862 0.0576105 0)
(0.0595704 -0.113756 0)
(-0.106454 -0.0553458 0)
(-0.0738782 0.0951014 0)
(-0.0923648 -0.074447 0)
(0.0955562 0.0751489 0)
(0.0762473 -0.101767 0)
(0.0315877 0.12606 0)
(-0.0318035 -0.13003 0)
(-0.12588 0.0303442 0)
(0.126611 -0.0319487 0)
(-0.17005 -0.140551 0)
(0.171805 0.138979 0)
(0.142289 -0.177339 0)
(-0.137521 0.170387 0)
(0.162005 0.113809 0)
(-0.11268 0.161112 0)
(-0.160287 -0.115123 0)
(0.117211 -0.168096 0)
(0.019609 0.137019 0)
(0.137663 -0.0195468 0)
(-0.0180522 -0.139861 0)
(-0.136926 0.0180477 0)
(0.172003 0.103852 0)
(-0.170766 -0.104854 0)
(-0.10221 0.170603 0)
(0.106614 -0.177474 0)
(-0.0191999 -0.160975 0)
(-0.157568 0.0195724 0)
(0.158629 -0.0211948 0)
(0.0209778 0.157366 0)
(0.187648 0.0949587 0)
(0.0974195 -0.193283 0)
(-0.186443 -0.0963102 0)
(-0.0934414 0.186332 0)
(0.118731 0.0167919 0)
(-0.0149813 0.118999 0)
(-0.118628 -0.0174351 0)
(0.0189218 -0.121395 0)
(-0.0387769 -0.136513 0)
(0.132826 -0.0402184 0)
(-0.131947 0.038194 0)
(0.0397192 0.132206 0)
(-0.117877 -0.0257418 0)
(-0.0229089 0.118286 0)
(0.0280935 -0.121261 0)
(0.117884 0.0252708 0)
(-0.132167 -0.0231124 0)
(0.0249034 -0.136327 0)
(-0.0210515 0.132105 0)
(0.132722 0.0224932 0)
(-0.0237691 0.126779 0)
(-0.126289 -0.0268436 0)
(0.0289651 -0.13087 0)
(0.126881 0.0261214 0)
)
;

boundaryField
{
    insideCircle
    {
        type            myHeatFlux;
        alpha           uniform 1;
        Theta_wall      uniform 4;
        value           nonuniform List<vector> 
12
(
(-0.144981 -0.541076 -5.86635e-18)
(-0.536391 0.143726 -5.81556e-18)
(0.143371 0.535068 -5.80121e-18)
(0.540505 -0.144828 -5.86017e-18)
(0.358682 0.358682 0)
(-0.359098 0.359098 0)
(0.371046 -0.371046 0)
(-0.361783 -0.361783 0)
(-0.133464 0.498096 5.40037e-18)
(-0.501815 -0.134461 5.44069e-18)
(0.136461 -0.509279 5.52162e-18)
(0.503483 0.134908 5.45877e-18)
)
;
    }
    outsideCircle
    {
        type            myHeatFlux;
        alpha           uniform 1;
        Theta_wall      uniform 1;
        value           nonuniform List<vector> 
60
(
(-0.0530214 -0.0816458 0)
(0.051321 0.0790275 0)
(-0.0815602 0.0529658 0)
(0.0814715 -0.0529082 0)
(0.0326217 0.0849823 0)
(-0.0837839 0.0321617 0)
(-0.0399667 -0.104117 0)
(0.0856886 -0.0328928 0)
(0.0765889 -0.0765889 0)
(-0.0732224 0.0732224 0)
(0.0717646 0.0717646 0)
(-0.0714095 -0.0714095 0)
(-0.0057797 0.110284 0)
(0.106627 0.00558806 0)
(-0.105598 -0.00553416 0)
(0.00568574 -0.108491 0)
(0.0607068 -0.0934802 0)
(-0.0926813 -0.0601879 0)
(0.0921221 0.0598248 0)
(-0.0593547 0.0913983 0)
(0.108883 -0.0172454 0)
(0.0170663 0.107752 0)
(-0.104631 0.0165719 0)
(-0.0155452 -0.0981485 0)
(-0.0353325 0.0920442 0)
(-0.11264 -0.0432386 0)
(0.0383502 -0.0999054 0)
(0.100176 0.038454 0)
(-0.045335 -0.0889749 0)
(0.0905141 -0.0461192 0)
(-0.0900881 0.0459022 0)
(0.0456073 0.0895093 0)
(-0.0638066 -0.0787946 0)
(0.0797232 -0.0645585 0)
(0.0693832 0.0856811 0)
(-0.0736329 0.0596267 0)
(0.0171003 -0.107967 0)
(-0.106298 -0.016836 0)
(-0.0165204 0.104306 0)
(0.105521 0.0167129 0)
(0.0294631 -0.109958 1.17913e-18)
(0.104559 0.0280166 1.12124e-18)
(-0.0284722 0.10626 1.13948e-18)
(-0.102117 -0.0273622 1.09505e-18)
(0.10174 -0.00533196 0)
(-0.103419 0.00541997 0)
(0.00527711 0.100694 0)
(-0.0054586 -0.104157 0)
(-0.0276382 -0.103147 -1.1061e-18)
(-0.101242 0.0271276 -1.08566e-18)
(0.0267778 0.0999362 -1.07167e-18)
(0.0986055 -0.0264213 -1.0574e-18)
(-0.0804374 -0.0409849 0)
(0.0960862 0.0489584 0)
(-0.049346 0.0968469 0)
(0.0583943 -0.114605 0)
(0.0712585 -0.0879969 0)
(-0.0830009 -0.0672128 0)
(-0.0685436 0.0846443 0)
(0.0847371 0.0686188 0)
)
;
    }
    topAndBottom
    {
        type            empty;
    }
}


// ************************************************************************* //
