/*--------------------------------*- C++ -*----------------------------------*\
| =========                 |                                                 |
| \\      /  F ield         | foam-extend: Open Source CFD                    |
|  \\    /   O peration     | Version:  3.0                                   |
|   \\  /    A nd           | Web:         http://www.extend-project.de       |
|    \\/     M anipulation  |                                                 |
\*---------------------------------------------------------------------------*/
FoamFile
{
    version     2.0;
    format      ascii;
    class       volScalarField;
    location    "20";
    object      Theta;
}
// * * * * * * * * * * * * * * * * * * * * * * * * * * * * * * * * * * * * * //

dimensions      [0 2 -2 0 0 0 0];

internalField   nonuniform List<scalar> 
400
(
2.11231
1.88021
1.81428
1.71187
1.65425
1.58945
1.53375
1.48191
1.42804
1.37751
2.03528
1.86765
1.80138
1.71109
1.65373
1.59258
1.53862
1.4898
1.44083
1.39931
2.02897
1.86862
1.80404
1.71079
1.65332
1.59116
1.53682
1.48821
1.43835
1.39625
2.02966
1.86379
1.80007
1.70993
1.65297
1.59217
1.53827
1.48984
1.44013
1.39796
2.03357
1.86493
1.80068
1.7096
1.65259
1.59155
1.53767
1.48945
1.44002
1.39802
2.03422
1.86397
1.79976
1.7092
1.65245
1.59178
1.53805
1.48986
1.44041
1.39813
2.03443
1.86422
1.79988
1.70901
1.65225
1.59153
1.53786
1.4897
1.44032
1.39805
2.03409
1.86385
1.79964
1.70884
1.65219
1.59152
1.53789
1.48974
1.44034
1.398
2.03385
1.86375
1.7996
1.70873
1.6521
1.59141
1.53781
1.48965
1.44026
1.39792
2.03366
1.86357
1.79951
1.70864
1.65204
1.59136
1.53776
1.4896
1.44021
1.39785
2.03362
1.86351
1.79947
1.70857
1.65199
1.5913
1.53771
1.48954
1.44015
1.39779
2.03366
1.86349
1.79946
1.70854
1.65196
1.59126
1.53766
1.4895
1.4401
1.39773
2.03376
1.86353
1.79948
1.70853
1.65195
1.59124
1.53763
1.48947
1.44005
1.39769
2.03389
1.86359
1.79952
1.70854
1.65195
1.59123
1.53761
1.48944
1.44002
1.39765
2.03404
1.86367
1.79957
1.70857
1.65196
1.59123
1.5376
1.48943
1.44
1.39762
2.03419
1.86375
1.79963
1.7086
1.65198
1.59124
1.5376
1.48942
1.43998
1.3976
2.03433
1.86384
1.79968
1.70864
1.652
1.59126
1.5376
1.48942
1.43997
1.39758
2.03445
1.86391
1.79974
1.70868
1.65202
1.59127
1.53761
1.48942
1.43997
1.39758
2.03454
1.86397
1.79978
1.70871
1.65204
1.59128
1.53761
1.48942
1.43996
1.39757
2.03461
1.86401
1.79981
1.70873
1.65206
1.59129
1.53762
1.48942
1.43996
1.39757
2.03464
1.86404
1.79982
1.70874
1.65206
1.5913
1.53763
1.48942
1.43996
1.39757
2.03464
1.86404
1.79982
1.70874
1.65207
1.59129
1.53763
1.48942
1.43997
1.39757
2.03461
1.86401
1.7998
1.70872
1.65206
1.59129
1.53763
1.48942
1.43997
1.39757
2.03454
1.86397
1.79977
1.7087
1.65205
1.59127
1.53763
1.48942
1.43997
1.39758
2.03445
1.8639
1.79973
1.70867
1.65203
1.59126
1.53762
1.48941
1.43998
1.39759
2.03432
1.86382
1.79967
1.70863
1.65201
1.59124
1.53762
1.48941
1.43999
1.3976
2.03417
1.86372
1.79961
1.70858
1.65198
1.59123
1.53762
1.48942
1.44
1.39762
2.03399
1.86362
1.79954
1.70854
1.65197
1.59122
1.53762
1.48943
1.44002
1.39764
2.03381
1.86352
1.79949
1.70851
1.65196
1.59121
1.53764
1.48944
1.44005
1.39767
2.03363
1.86343
1.79944
1.70849
1.65197
1.59123
1.53767
1.48947
1.44009
1.39771
2.03346
1.86337
1.79943
1.70849
1.65201
1.59125
1.53772
1.48951
1.44014
1.39777
2.03333
1.86335
1.79945
1.70852
1.65208
1.5913
1.53779
1.48957
1.44021
1.39784
2.03329
1.86344
1.79955
1.70859
1.65217
1.59135
1.53786
1.48962
1.44028
1.39791
2.03331
1.86353
1.79965
1.70872
1.65232
1.59147
1.53801
1.48973
1.44039
1.39801
2.03357
1.86399
1.79997
1.70891
1.65245
1.59147
1.538
1.48969
1.44039
1.39807
2.03376
1.86409
1.80004
1.70921
1.65275
1.59177
1.53831
1.48993
1.44061
1.39821
2.03443
1.86554
1.80106
1.70963
1.65289
1.5915
1.53785
1.48942
1.44016
1.39814
2.0338
1.86496
1.80055
1.71011
1.65339
1.59234
1.53877
1.49024
1.44086
1.39843
2.03415
1.86936
1.80429
1.71081
1.65345
1.59098
1.5367
1.48786
1.43821
1.39761
2.02518
1.86639
1.80103
1.71117
1.65402
1.59298
1.53936
1.49069
1.4414
1.39837
)
;

boundaryField
{
    out
    {
        type            myTemperature;
        value           nonuniform List<scalar> 
40
(
1.3529
1.36746
1.37762
1.37716
1.37695
1.3768
1.37666
1.37654
1.37643
1.37634
1.37627
1.37621
1.37617
1.37613
1.3761
1.37608
1.37607
1.37606
1.37605
1.37605
1.37605
1.37605
1.37605
1.37606
1.37607
1.37608
1.3761
1.37612
1.37615
1.37619
1.37625
1.37631
1.37639
1.37649
1.3766
1.37673
1.37687
1.37705
1.3772
1.37789
)
;
    }
    in
    {
        type            myTemperature;
        value           nonuniform List<scalar> 
40
(
2.22024
2.09744
2.12147
2.11988
2.11886
2.11788
2.11722
2.11699
2.11706
2.11729
2.11758
2.11789
2.11819
2.11847
2.11871
2.11891
2.11907
2.11918
2.11926
2.11931
2.11932
2.11932
2.11929
2.11923
2.11915
2.11903
2.11887
2.11867
2.11843
2.11814
2.11782
2.11747
2.11711
2.11676
2.1165
2.11641
2.11668
2.11741
2.11863
2.11898
)
;
    }
    frontAndBack
    {
        type            empty;
    }
}


// ************************************************************************* //
