/*--------------------------------*- C++ -*----------------------------------*\
| =========                 |                                                 |
| \\      /  F ield         | foam-extend: Open Source CFD                    |
|  \\    /   O peration     | Version:  3.0                                   |
|   \\  /    A nd           | Web:         http://www.extend-project.de       |
|    \\/     M anipulation  |                                                 |
\*---------------------------------------------------------------------------*/
FoamFile
{
    version     2.0;
    format      ascii;
    class       volVectorField;
    location    "21";
    object      u;
}
// * * * * * * * * * * * * * * * * * * * * * * * * * * * * * * * * * * * * * //

dimensions      [0 0 0 0 0 0 0];

internalField   nonuniform List<vector> 
7680
(
(0.102778 -0.0318433 2.96261e-17)
(0.173331 -0.0264133 3.32322e-17)
(0.317666 -0.0243582 -1.84514e-17)
(0.36608 -0.0203443 1.88709e-17)
(0.473167 -0.0188306 -3.69133e-18)
(0.506718 -0.0159138 1.13372e-17)
(0.589146 -0.01468 -8.16979e-19)
(0.611952 -0.0125204 -9.07528e-18)
(0.677518 -0.0115061 -1.30366e-17)
(0.692482 -0.00983477 -1.33188e-17)
(0.74603 -0.00900582 -6.73702e-18)
(0.755234 -0.00766892 1.25028e-17)
(0.799945 -0.00698159 -1.87341e-17)
(0.804835 -0.00589503 9.42062e-18)
(0.842913 -0.00530631 -1.91941e-18)
(0.844476 -0.00441733 2.25058e-17)
(0.877508 -0.00389314 -2.1029e-17)
(0.876424 -0.00316343 3.46792e-17)
(0.90558 -0.00267978 -1.77441e-17)
(0.902315 -0.00207949 1.62777e-17)
(0.928481 -0.00162026 -1.7749e-17)
(0.923356 -0.0011255 1.56556e-17)
(0.947213 -0.000679897 -1.47965e-17)
(0.940446 -0.000271498 3.07367e-17)
(0.962529 0.000168004 -2.47676e-17)
(0.954263 0.000505027 2.30604e-17)
(0.975001 0.000944411 -8.35644e-18)
(0.965324 0.0012205 1.55381e-17)
(0.985068 0.00166697 -1.19029e-17)
(0.97402 0.00188452 4.70508e-18)
(0.993074 0.00235493 -4.46314e-18)
(0.980637 0.00249603 2.43833e-18)
(0.99932 0.00303372 -5.14889e-18)
(0.985328 0.00304416 2.01158e-18)
(1.00414 0.00374298 4.10188e-18)
(0.988081 0.00344563 -2.33398e-18)
(1.00791 0.00467971 7.94948e-18)
(0.988843 0.00380004 -1.01693e-17)
(1.0108 0.00330585 7.16815e-18)
(0.987828 0.0139242 -1.21228e-17)
(0.107089 -0.097535 -4.41288e-17)
(0.176872 -0.0815867 -5.66926e-17)
(0.321002 -0.0756761 9.64904e-18)
(0.368875 -0.0639276 -2.15595e-17)
(0.475794 -0.0594794 -2.49626e-17)
(0.508962 -0.0510275 5.52378e-18)
(0.591246 -0.0473933 2.47096e-18)
(0.613774 -0.0411764 2.68781e-17)
(0.679221 -0.0382292 4.10845e-17)
(0.693973 -0.0334808 4.07477e-17)
(0.747425 -0.031107 6.88411e-18)
(0.756463 -0.0273729 1.28958e-18)
(0.801094 -0.025433 1.51361e-17)
(0.805852 -0.0224429 3.00353e-18)
(0.843861 -0.0208133 -2.72937e-17)
(0.845319 -0.0183944 -2.64922e-17)
(0.878288 -0.0169797 3.40536e-17)
(0.87712 -0.0150144 -6.95592e-17)
(0.906217 -0.0137438 5.36343e-17)
(0.902885 -0.0121479 -5.42221e-17)
(0.928995 -0.0109694 3.69709e-17)
(0.923816 -0.00967992 -4.02766e-17)
(0.947621 -0.00855491 2.91161e-17)
(0.94081 -0.00752253 -6.5651e-17)
(0.962844 -0.00642142 3.6416e-17)
(0.954543 -0.005607 -3.74494e-17)
(0.975234 -0.00450553 3.01252e-18)
(0.965529 -0.00387933 -2.19273e-17)
(0.985228 -0.00275322 5.87372e-19)
(0.974159 -0.00230251 1.9778e-18)
(0.993166 -0.00110833 2.90323e-18)
(0.980717 -0.000871197 4.56215e-18)
(0.999346 0.000509308 9.41642e-18)
(0.985358 0.0003703 -1.19252e-17)
(1.00409 0.00222177 5.28609e-18)
(0.988073 0.00129493 -1.60102e-17)
(1.00778 0.00424239 2.4701e-17)
(0.9888 0.00212247 -5.01367e-18)
(1.01067 0.00378733 -4.69184e-18)
(0.987413 0.01305 3.54052e-17)
(0.115599 -0.162807 5.7429e-17)
(0.184095 -0.13651 4.82139e-17)
(0.327646 -0.126618 -2.94259e-17)
(0.374535 -0.107217 6.66e-17)
(0.481037 -0.0998337 1.66889e-17)
(0.513491 -0.0858935 -2.21106e-17)
(0.595445 -0.0799018 -3.16424e-17)
(0.617447 -0.0696647 -1.68367e-17)
(0.682632 -0.0648178 -7.63316e-17)
(0.696984 -0.0570015 -6.56182e-17)
(0.750226 -0.0531062 -1.30621e-17)
(0.75895 -0.0469643 -9.19469e-18)
(0.803411 -0.0437906 -7.33293e-18)
(0.807919 -0.0388894 -1.55999e-17)
(0.845785 -0.0362305 6.20128e-17)
(0.847044 -0.0322895 4.73793e-17)
(0.879889 -0.0299864 -3.73769e-17)
(0.878561 -0.026807 1.04359e-16)
(0.907551 -0.0247437 -9.57107e-17)
(0.904091 -0.0221792 7.14501e-17)
(0.930104 -0.0202712 -4.41222e-17)
(0.924823 -0.018211 7.19992e-17)
(0.948536 -0.0163951 -5.6848e-17)
(0.941645 -0.0147547 1.01036e-16)
(0.96359 -0.0129826 -3.60319e-17)
(0.955226 -0.0116974 7.04995e-17)
(0.975828 -0.00992953 -1.23159e-17)
(0.966075 -0.0089522 3.77672e-17)
(0.98568 -0.00714963 3.84848e-18)
(0.974579 -0.0064603 -5.61201e-18)
(0.993486 -0.00455324 -6.88148e-18)
(0.981022 -0.00421277 7.94299e-18)
(0.999534 -0.00200632 -5.55926e-18)
(0.985565 -0.00228595 5.31612e-18)
(1.00414 0.000697506 -2.46728e-18)
(0.988207 -0.000846477 -5.28674e-18)
(1.00767 0.00379141 2.11032e-18)
(0.988869 0.000448638 -1.31404e-17)
(1.01051 0.0042533 1.39172e-17)
(0.987059 0.0121677 -2.53569e-17)
(0.128452 -0.227373 -4.04294e-17)
(0.194807 -0.190758 -1.08863e-16)
(0.337642 -0.177047 1.68602e-16)
(0.382995 -0.150059 -2.08783e-16)
(0.488946 -0.139782 3.7549e-17)
(0.520307 -0.120408 3.77792e-17)
(0.601807 -0.112053 5.74539e-17)
(0.623007 -0.0978328 3.31829e-17)
(0.687821 -0.0910846 3.15531e-17)
(0.701561 -0.0802463 5.30758e-17)
(0.754506 -0.0748319 6.60641e-17)
(0.76275 -0.0663352 -1.80497e-17)
(0.80697 -0.0619293 1.49449e-18)
(0.811096 -0.0551586 2.62615e-17)
(0.848762 -0.0514756 -8.61377e-17)
(0.849713 -0.0460327 1.34526e-17)
(0.882386 -0.0428536 -1.86522e-17)
(0.880809 -0.0384622 -9.75693e-17)
(0.909643 -0.0356251 1.22946e-16)
(0.905983 -0.0320848 -1.00014e-16)
(0.93185 -0.0294695 5.25342e-17)
(0.926408 -0.0266303 -9.33091e-17)
(0.949981 -0.0241464 6.06455e-17)
(0.942964 -0.0218934 -7.18028e-17)
(0.964771 -0.0194708 -1.18623e-17)
(0.95631 -0.0177155 -5.12463e-17)
(0.976775 -0.015297 -1.85998e-17)
(0.96695 -0.0139735 -1.43702e-17)
(0.986418 -0.0115035 -2.71725e-17)
(0.975267 -0.010583 1.93749e-17)
(0.99403 -0.00796557 1.78228e-17)
(0.981543 -0.0075293 -1.60291e-17)
(0.99989 -0.00449577 -2.96779e-17)
(0.985944 -0.00492182 9.52213e-17)
(1.0043 -0.000806568 -6.66549e-17)
(0.988479 -0.00296958 3.37075e-17)
(1.0076 0.00335127 3.18464e-17)
(0.989044 -0.00121097 -2.49135e-17)
(1.01032 0.00471955 1.35628e-17)
(0.986757 0.0112766 -1.51222e-17)
(0.14541 -0.290971 2.83359e-17)
(0.209134 -0.244252 3.50893e-17)
(0.350896 -0.226695 -2.99818e-16)
(0.394263 -0.192239 3.19407e-16)
(0.499422 -0.179111 -4.34223e-17)
(0.52935 -0.154385 -1.08897e-16)
(0.610214 -0.143736 -9.9478e-17)
(0.630366 -0.125595 -5.08619e-18)
(0.694671 -0.116997 -6.27304e-18)
(0.707614 -0.103167 -3.17113e-17)
(0.760151 -0.0962713 -8.16968e-17)
(0.767772 -0.0854284 2.34126e-18)
(0.811659 -0.0798217 5.47571e-17)
(0.815291 -0.0711885 -5.02519e-17)
(0.852676 -0.0665042 1.04718e-16)
(0.853235 -0.0595767 -8.36624e-17)
(0.885665 -0.0555336 7.18717e-17)
(0.883775 -0.0499566 6.5602e-18)
(0.912394 -0.0463485 -3.04832e-17)
(0.908484 -0.0418614 2.29424e-17)
(0.934156 -0.0385366 2.89581e-17)
(0.928515 -0.0349441 1.09671e-16)
(0.951905 -0.0317882 -6.26549e-17)
(0.944729 -0.0289423 4.07662e-17)
(0.966361 -0.0258667 5.06714e-17)
(0.957776 -0.0236539 5.18648e-17)
(0.978066 -0.0205866 -2.789e-18)
(0.968148 -0.0189233 9.39036e-18)
(0.987435 -0.0157942 7.82661e-17)
(0.976221 -0.0146433 -3.47514e-17)
(0.994792 -0.0113309 1.58929e-17)
(0.982278 -0.0107953 1.98738e-17)
(1.0004 -0.00695654 -5.39468e-17)
(0.986494 -0.00752013 3.52295e-17)
(1.00454 -0.00230137 -9.77323e-18)
(0.98889 -0.00506582 -1.99875e-17)
(1.00755 0.00290195 -1.54166e-17)
(0.98933 -0.00285103 -2.84321e-17)
(1.01009 0.00516754 2.62285e-17)
(0.986516 0.010387 3.54369e-17)
(0.166574 -0.353308 7.39884e-18)
(0.226844 -0.296652 8.69879e-17)
(0.36737 -0.275375 3.32865e-16)
(0.408234 -0.233604 -2.61995e-16)
(0.512463 -0.217673 1.87241e-17)
(0.540604 -0.187706 1.45539e-16)
(0.620709 -0.174774 1.50242e-16)
(0.639548 -0.152792 -3.04436e-17)
(0.703238 -0.142358 -2.74879e-17)
(0.71518 -0.125614 1.53395e-17)
(0.767225 -0.117251 2.1123e-16)
(0.774061 -0.104135 -8.44355e-17)
(0.817551 -0.0973383 5.18139e-17)
(0.820557 -0.0869002 -7.40267e-17)
(0.857614 -0.0812269 -5.10396e-17)
(0.857669 -0.0728508 -4.97888e-17)
(0.889817 -0.0679615 1.19815e-16)
(0.88752 -0.0612172 -9.9234e-17)
(0.915887 -0.0568612 1.00182e-16)
(0.911649 -0.0514354 -3.72201e-17)
(0.937086 -0.0474265 -1.16914e-17)
(0.931184 -0.043085 -1.29964e-16)
(0.95435 -0.0392827 3.66058e-17)
(0.946968 -0.0358469 3.01581e-17)
(0.96838 -0.0321421 -1.12662e-16)
(0.959637 -0.0294753 1.80428e-17)
(0.979707 -0.0257793 -3.49613e-17)
(0.969672 -0.0237806 -1.25003e-17)
(0.988737 -0.0200075 -8.15508e-17)
(0.977442 -0.0186318 -1.99614e-17)
(0.995778 -0.0146348 -7.78981e-17)
(0.983227 -0.0140056 3.88846e-17)
(1.00108 -0.0093697 -6.70947e-17)
(0.987213 -0.0100742 7.33106e-17)
(1.00489 -0.00376399 -1.39534e-16)
(0.989436 -0.00712612 6.8898e-17)
(1.00754 0.00246537 3.26561e-17)
(0.989718 -0.00446463 -4.04165e-17)
(1.00984 0.0056105 -2.24877e-17)
(0.986327 0.00949429 -1.40587e-17)
(0.191698 -0.41414 1.31618e-17)
(0.248014 -0.347799 -1.98493e-16)
(0.387003 -0.322871 -2.00573e-16)
(0.424915 -0.273953 1.15967e-16)
(0.527994 -0.255303 2.10754e-17)
(0.554013 -0.220215 -8.38029e-18)
(0.633189 -0.205088 -1.69639e-16)
(0.650475 -0.179352 8.98971e-17)
(0.713418 -0.167149 5.96801e-17)
(0.72418 -0.147542 -9.35246e-17)
(0.775626 -0.137762 -1.84915e-16)
(0.781541 -0.122402 3.2504e-17)
(0.824541 -0.114458 3.71479e-17)
(0.826817 -0.102238 1.45792e-16)
(0.863463 -0.0956085 2.785e-17)
(0.862936 -0.085811 -3.99775e-18)
(0.894729 -0.0800967 -6.21401e-17)
(0.891968 -0.0722159 -7.08395e-18)
(0.920019 -0.0671242 -7.24101e-17)
(0.915408 -0.0607899 -1.47076e-17)
(0.940558 -0.0561042 -1.86549e-17)
(0.934359 -0.05104 5.43646e-17)
(0.957254 -0.0465967 3.05957e-17)
(0.949638 -0.0425928 -3.95184e-17)
(0.970788 -0.0382649 6.75342e-17)
(0.961863 -0.035161 -7.52272e-17)
(0.981673 -0.0308452 8.75038e-17)
(0.971502 -0.0285228 -7.15944e-17)
(0.990301 -0.0241193 1.83748e-16)
(0.978915 -0.022525 -4.11691e-17)
(0.996969 -0.0178626 2.26993e-16)
(0.98438 -0.0171396 -5.477e-17)
(1.0019 -0.0117328 2.98881e-17)
(0.988095 -0.0125694 1.33747e-17)
(1.00532 -0.00520315 6.88704e-17)
(0.990114 -0.00914074 -4.29279e-17)
(1.00755 0.00202574 2.28078e-17)
(0.990213 -0.006043 -5.70252e-17)
(1.00956 0.00603284 1.5649e-16)
(0.986198 0.00861117 -2.78841e-17)
(0.220805 -0.473184 7.9451e-17)
(0.272428 -0.39745 4.52448e-17)
(0.409683 -0.368977 2.50795e-16)
(0.444163 -0.313132 7.50943e-17)
(0.545947 -0.291823 -6.68338e-17)
(0.569511 -0.251773 -2.2634e-16)
(0.647636 -0.234484 1.75953e-16)
(0.663119 -0.205115 -1.90287e-16)
(0.725214 -0.191173 2.10782e-17)
(0.734601 -0.168807 -2.04968e-17)
(0.785369 -0.157639 2.34288e-16)
(0.790207 -0.140125 -2.51615e-16)
(0.832659 -0.131054 8.00248e-17)
(0.834078 -0.117126 -2.98645e-16)
(0.870269 -0.109559 3.44608e-17)
(0.869053 -0.0983906 -7.22028e-17)
(0.900456 -0.0918741 1.25259e-16)
(0.89714 -0.08289 -1.11688e-16)
(0.924844 -0.0770887 1.22712e-16)
(0.919788 -0.0698683 1.89198e-17)
(0.944616 -0.0645331 -3.05772e-17)
(0.938062 -0.058762 -2.50842e-18)
(0.960651 -0.0537049 -4.61688e-17)
(0.952755 -0.049144 7.59243e-17)
(0.973606 -0.044219 -2.96348e-17)
(0.964465 -0.0406855 -3.30371e-18)
(0.983977 -0.0357738 -3.28058e-17)
(0.973645 -0.0331332 8.60218e-17)
(0.99214 -0.0281202 -2.91745e-16)
(0.980644 -0.0263119 -8.881e-19)
(0.998376 -0.0210023 -1.63815e-16)
(0.985738 -0.0201897 2.06154e-17)
(1.00289 -0.0140294 4.90063e-17)
(0.989138 -0.014999 -5.13444e-17)
(1.00586 -0.00660001 -3.07604e-17)
(0.990921 -0.0111037 5.39792e-17)
(1.00759 0.00159981 4.31012e-17)
(0.990806 -0.00758329 -2.47337e-17)
(1.00925 0.00644475 -5.35365e-18)
(0.986118 0.00773151 -1.58129e-16)
(0.253665 -0.530209 -6.70907e-17)
(0.300077 -0.445381 -6.81845e-17)
(0.435347 -0.413505 -2.09721e-16)
(0.465966 -0.350961 -4.42521e-16)
(0.566261 -0.327106 1.0534e-17)
(0.587054 -0.282255 3.98733e-16)
(0.663971 -0.262909 -1.12973e-16)
(0.677426 -0.230017 2.34962e-16)
(0.738548 -0.214417 6.87225e-17)
(0.746393 -0.189366 -1.1243e-16)
(0.796381 -0.17687 -5.64652e-17)
(0.800014 -0.157254 2.12277e-16)
(0.841831 -0.147107 -2.10193e-18)
(0.842294 -0.131508 2.29926e-16)
(0.877953 -0.123046 1.72268e-16)
(0.875975 -0.110544 -1.00685e-16)
(0.906919 -0.103256 1.19091e-16)
(0.902992 -0.093205 -6.86529e-17)
(0.930287 -0.0867158 7.9587e-17)
(0.924741 -0.0786418 -2.17261e-17)
(0.949196 -0.0726742 -2.63101e-17)
(0.94225 -0.0662239 4.74785e-17)
(0.964488 -0.0605678 -5.38715e-17)
(0.956283 -0.0554733 -3.6545e-17)
(0.976793 -0.0499656 2.27724e-17)
(0.967413 -0.0460223 1.59493e-17)
(0.986586 -0.0405304 -7.33789e-17)
(0.976077 -0.0375871 2.37758e-16)
(0.994226 -0.0319831 -1.23077e-18)
(0.982611 -0.0299711 1.80564e-16)
(0.999976 -0.0240373 3.89442e-17)
(0.987287 -0.0231378 -4.62253e-17)
(1.00401 -0.0162542 2.67527e-17)
(0.990336 -0.0173485 -6.10522e-17)
(1.00647 -0.00795908 2.68468e-17)
(0.991855 -0.0130026 -3.32406e-17)
(1.00765 0.00117683 -3.35258e-18)
(0.991499 -0.00907351 -1.58477e-16)
(1.00891 0.00683379 2.95033e-16)
(0.986096 0.00686869 -1.07718e-16)
(0.290219 -0.58495 3.23221e-16)
(0.330775 -0.491428 9.73191e-17)
(0.463853 -0.45625 3.28273e-16)
(0.490165 -0.387284 6.66804e-16)
(0.588825 -0.360961 2.01563e-16)
(0.606533 -0.311512 -4.4668e-16)
(0.682125 -0.290163 4.05114e-17)
(0.693317 -0.253906 -3.31175e-16)
(0.753372 -0.236694 -1.6969e-16)
(0.759493 -0.209087 2.87012e-16)
(0.808628 -0.195304 1.52643e-17)
(0.81091 -0.173692 -1.33119e-16)
(0.852037 -0.162501 6.80515e-17)
(0.851426 -0.145318 -3.21403e-16)
(0.886512 -0.135986 -6.22349e-17)
(0.883672 -0.122215 1.54591e-17)
(0.914124 -0.114182 -1.17111e-16)
(0.909504 -0.10311 -4.0523e-17)
(0.936361 -0.0959617 -5.64516e-17)
(0.93026 -0.0870683 4.00448e-17)
(0.954311 -0.0804971 5.44926e-17)
(0.946923 -0.0733935 2.53354e-18)
(0.968777 -0.0671669 4.51263e-17)
(0.960224 -0.0615577 7.43279e-17)
(0.980359 -0.0554955 -1.49619e-16)
(0.970711 -0.0511547 2.31626e-16)
(0.989509 -0.0451102 -1.22165e-16)
(0.978801 -0.0418719 -1.65029e-17)
(0.996567 -0.0357035 -2.22586e-16)
(0.984816 -0.0334924 1.02695e-16)
(1.00178 -0.0269598 -1.56293e-16)
(0.989029 -0.0259763 1.79157e-16)
(1.00528 -0.0183955 -2.15387e-16)
(0.991684 -0.0196126 2.95113e-16)
(1.00718 -0.00926672 -2.42959e-16)
(0.992908 -0.0148348 1.64646e-16)
(1.00774 0.000768641 -7.53826e-17)
(0.992285 -0.0105143 5.3335e-17)
(1.00855 0.00720755 -5.20561e-17)
(0.986123 0.00601587 -2.10132e-16)
(0.330247 -0.637191 -6.74148e-16)
(0.364433 -0.53533 -3.60023e-16)
(0.495104 -0.497046 -2.5585e-16)
(0.516715 -0.421945 -8.10034e-16)
(0.613567 -0.393293 -2.35905e-16)
(0.627904 -0.339444 2.43528e-16)
(0.702031 -0.316209 -1.71443e-17)
(0.710754 -0.276724 4.28908e-16)
(0.769628 -0.257993 2.74111e-16)
(0.77387 -0.227926 -3.21692e-16)
(0.822059 -0.212927 -1.09086e-16)
(0.822873 -0.189387 -6.22865e-17)
(0.863229 -0.177212 1.63584e-17)
(0.861454 -0.158499 1.31641e-16)
(0.895896 -0.148348 8.95284e-17)
(0.892125 -0.133355 7.10245e-18)
(0.922022 -0.124616 1.29334e-16)
(0.916655 -0.112566 5.9432e-17)
(0.943019 -0.104789 1.90358e-16)
(0.936319 -0.0951124 -1.88842e-16)
(0.959918 -0.0879634 3.42831e-18)
(0.952051 -0.0802365 -6.91912e-17)
(0.973478 -0.0734628 -3.88952e-17)
(0.964548 -0.0673639 -7.9189e-18)
(0.984269 -0.0607691 -1.07466e-16)
(0.974329 -0.0560526 8.06099e-17)
(0.992716 -0.0494771 -1.99725e-16)
(0.981791 -0.0459619 3.07104e-16)
(0.999138 -0.0392521 -1.43249e-16)
(0.987241 -0.0368552 -2.5566e-17)
(1.00376 -0.0297503 2.47386e-17)
(0.990947 -0.0286885 -1.36977e-18)
(1.00669 -0.0204443 -4.7768e-17)
(0.993175 -0.0217767 2.7793e-17)
(1.00797 -0.0105229 -4.97372e-17)
(0.994078 -0.0165864 6.03631e-17)
(1.00785 0.000368804 4.01448e-17)
(0.993164 -0.0118918 -1.14542e-16)
(1.00816 0.00755607 2.63186e-16)
(0.986202 0.00518648 -4.63273e-17)
(0.373628 -0.686693 5.71234e-16)
(0.400883 -0.576978 3.50517e-16)
(0.52895 -0.535699 2.30917e-16)
(0.545451 -0.454793 6.28528e-16)
(0.640359 -0.423906 1.03376e-16)
(0.651035 -0.365902 1.51034e-16)
(0.723586 -0.340856 -9.62602e-17)
(0.729624 -0.29833 -2.24933e-16)
(0.787229 -0.278143 -3.67003e-16)
(0.789428 -0.245766 3.27008e-16)
(0.836602 -0.229602 -1.5353e-17)
(0.835817 -0.204259 3.41953e-16)
(0.875352 -0.191139 -8.16354e-17)
(0.872305 -0.170994 2.424e-17)
(0.906064 -0.160057 5.44901e-17)
(0.901274 -0.143917 4.90165e-17)
(0.930584 -0.134504 -1.7643e-16)
(0.924398 -0.121532 -4.0996e-19)
(0.950241 -0.113158 -1.60661e-16)
(0.942884 -0.102742 2.64115e-16)
(0.966003 -0.0950461 -5.12597e-17)
(0.957614 -0.0867301 4.8521e-17)
(0.978586 -0.0794396 5.33573e-17)
(0.969243 -0.0728766 1.6736e-16)
(0.988521 -0.0657797 -1.63956e-16)
(0.978264 -0.0607049 1.94935e-16)
(0.996207 -0.0536296 -1.19547e-16)
(0.985047 -0.0498479 7.19339e-18)
(1.00194 -0.0426283 -1.02446e-16)
(0.989884 -0.0400512 1.73982e-16)
(1.00592 -0.0324059 -1.13013e-16)
(0.99304 -0.0312674 4.71549e-18)
(1.00822 -0.0223943 3.59256e-17)
(0.994804 -0.0238369 1.63153e-16)
(1.00884 -0.0117194 -2.67553e-16)
(0.995358 -0.0182567 1.5269e-16)
(1.00799 -1.51022e-05 -1.22722e-16)
(0.994127 -0.0132085 8.49656e-17)
(1.00775 0.00788501 -2.33173e-16)
(0.986328 0.00437347 -1.11112e-16)
(0.420133 -0.733258 -3.11264e-17)
(0.43998 -0.616106 -1.46503e-16)
(0.56525 -0.572068 -1.84326e-16)
(0.576291 -0.48569 -3.62655e-16)
(0.669105 -0.452732 -2.33563e-16)
(0.675866 -0.390804 -3.5448e-16)
(0.746719 -0.364078 1.25298e-16)
(0.749889 -0.318673 1.25536e-16)
(0.806125 -0.297133 1.07962e-16)
(0.806141 -0.262562 2.65359e-17)
(0.852218 -0.245316 -4.10748e-17)
(0.849725 -0.218255 -4.24165e-16)
(0.888369 -0.204258 -2.92381e-17)
(0.883966 -0.182749 -2.46711e-16)
(0.916982 -0.171083 -6.02687e-17)
(0.911108 -0.153853 -2.82586e-16)
(0.939778 -0.143813 2.49328e-16)
(0.932723 -0.129967 -2.26355e-16)
(0.957996 -0.121035 2.11083e-16)
(0.949941 -0.10992 -4.02028e-16)
(0.972538 -0.101711 1.00135e-16)
(0.963592 -0.0928386 -8.40553e-17)
(0.984069 -0.0850617 -7.43589e-17)
(0.974288 -0.0780617 -7.5702e-19)
(0.993085 -0.0704912 -8.0983e-17)
(0.982489 -0.065081 2.34927e-16)
(0.999955 -0.0575332 -1.87392e-16)
(0.988543 -0.0535047 1.79018e-16)
(1.00495 -0.0458028 4.7722e-17)
(0.992723 -0.0430606 -7.8281e-17)
(1.00824 -0.034905 1.02994e-16)
(0.995292 -0.0336976 3.45421e-18)
(1.00988 -0.0242327 -7.44923e-17)
(0.996561 -0.0257793 -6.07076e-17)
(1.00977 -0.012852 2.5315e-16)
(0.996742 -0.019832 -2.46983e-16)
(1.00815 -0.00038572 2.19819e-16)
(0.995174 -0.0144507 -2.14007e-16)
(1.00731 0.00818665 3.05209e-16)
(0.986502 0.00358963 3.03625e-17)
(0.469602 -0.776673 -9.89455e-17)
(0.481554 -0.652638 9.15902e-17)
(0.603857 -0.605966 1.1542e-16)
(0.609072 -0.514502 2.19657e-16)
(0.699666 -0.47958 4.0187e-16)
(0.702254 -0.414012 2.6776e-16)
(0.771307 -0.385697 -1.71162e-17)
(0.771418 -0.337629 1.42154e-16)
(0.826205 -0.314809 -7.74655e-17)
(0.823892 -0.278215 -2.63619e-17)
(0.868812 -0.259947 3.66616e-17)
(0.864497 -0.231305 3.79646e-16)
(0.902204 -0.21648 2.85324e-16)
(0.896353 -0.193716 3.63869e-16)
(0.928588 -0.18136 3.56161e-17)
(0.921554 -0.163125 4.60373e-16)
(0.949553 -0.152493 -3.95569e-16)
(0.941566 -0.137841 4.76988e-16)
(0.966243 -0.128384 -1.58272e-16)
(0.957441 -0.116622 3.37958e-16)
(0.97949 -0.107932 -6.91262e-17)
(0.969948 -0.0985449 9.31338e-17)
(0.989908 -0.0903139 -8.33074e-17)
(0.979657 -0.0829083 9.41459e-17)
(0.99795 -0.0748969 1.17915e-17)
(0.986992 -0.0691737 -2.40423e-16)
(1.00395 -0.0611873 2.23887e-16)
(0.992273 -0.0569259 -2.26187e-16)
(1.00817 -0.0487773 4.91247e-17)
(0.995756 -0.0458772 -1.40494e-16)
(1.01073 -0.0372486 7.82122e-17)
(0.9977 -0.0359736 -1.88523e-16)
(1.01165 -0.0259583 1.59718e-16)
(0.998441 -0.0276009 1.35318e-17)
(1.01079 -0.0139174 -1.27371e-16)
(0.998225 -0.0213122 2.53905e-16)
(1.00834 -0.00073945 -1.97301e-16)
(0.996297 -0.0156213 1.77225e-16)
(1.00686 0.0084646 -1.21877e-16)
(0.986719 0.00282838 -2.10072e-16)
(0.521786 -0.816766 -3.27358e-16)
(0.525423 -0.686325 8.74832e-17)
(0.644587 -0.637286 -2.09573e-16)
(0.643676 -0.541107 -1.35408e-16)
(0.731922 -0.504406 -3.0579e-16)
(0.730118 -0.435457 -2.5378e-16)
(0.797269 -0.405698 -1.53112e-16)
(0.79416 -0.355149 -1.11632e-16)
(0.847414 -0.331166 -4.17923e-16)
(0.842651 -0.292682 2.81554e-16)
(0.886343 -0.273483 -2.44637e-16)
(0.88011 -0.243362 -1.81447e-16)
(0.91682 -0.227783 -6.41617e-16)
(0.909446 -0.203845 -3.3845e-16)
(0.940851 -0.190862 -2.02743e-16)
(0.932599 -0.171689 -1.61532e-16)
(0.959883 -0.160517 2.89709e-16)
(0.950918 -0.145113 -4.0632e-16)
(0.974959 -0.135176 2.89016e-16)
(0.965373 -0.122813 -4.00015e-16)
(0.986838 -0.113682 2.03321e-16)
(0.976671 -0.103815 -1.69408e-16)
(0.996077 -0.0951667 1.35949e-16)
(0.985334 -0.0873844 -7.60202e-17)
(1.00309 -0.0789663 5.69148e-17)
(0.991751 -0.0729541 6.9304e-17)
(1.00818 -0.0645617 6.50777e-18)
(0.996215 -0.0600878 -5.80498e-18)
(1.01156 -0.0515243 1.61458e-16)
(0.998961 -0.0484823 -2.17317e-17)
(1.01336 -0.0394145 1.05776e-16)
(1.00025 -0.0380809 -6.93916e-17)
(1.01353 -0.0275559 1.29551e-16)
(1.00043 -0.0292891 -1.3037e-16)
(1.01186 -0.0149079 9.98454e-17)
(0.999798 -0.022685 -1.41084e-16)
(1.00854 -0.00107539 2.67083e-17)
(0.997492 -0.0167078 -9.9645e-17)
(1.00639 0.00871375 -1.99696e-17)
(0.986979 0.00210101 3.59415e-17)
(0.576498 -0.85335 4.80613e-16)
(0.571406 -0.717115 -9.39969e-17)
(0.68729 -0.665848 1.02152e-16)
(0.679939 -0.565391 2.98828e-16)
(0.765729 -0.52703 1.41683e-16)
(0.759311 -0.455019 4.23631e-16)
(0.82447 -0.423919 6.14352e-17)
(0.81798 -0.371129 2.55466e-16)
(0.86963 -0.346067 3.38047e-16)
(0.862294 -0.30588 -1.2023e-16)
(0.904704 -0.285819 5.56932e-17)
(0.896458 -0.254368 2.95027e-16)
(0.932129 -0.23809 5.88771e-16)
(0.923156 -0.213097 4.67069e-16)
(0.953696 -0.199531 2.00935e-16)
(0.944163 -0.179513 2.77428e-18)
(0.970704 -0.167842 -3.65757e-16)
(0.96071 -0.15176 3.79467e-16)
(0.984091 -0.14138 -3.46642e-16)
(0.97368 -0.128473 1.56548e-16)
(0.994538 -0.118936 4.10097e-17)
(0.983714 -0.108637 5.7147e-18)
(1.00255 -0.099605 5.63421e-17)
(0.991285 -0.0914825 -7.1079e-17)
(1.00848 -0.0826923 6.71011e-17)
(0.996744 -0.0764176 -2.33732e-16)
(1.01261 -0.0676554 1.67666e-16)
(1.00035 -0.0629863 -2.35256e-16)
(1.01513 -0.0540465 3.34201e-17)
(1.00233 -0.0508721 -1.34652e-16)
(1.01613 -0.0414063 9.95383e-17)
(1.00293 -0.0400157 -1.34465e-16)
(1.01551 -0.029028 1.14223e-16)
(1.00253 -0.0308417 -3.41756e-16)
(1.013 -0.0158245 3.06845e-16)
(1.00146 -0.0239505 -1.51697e-16)
(1.00876 -0.00139366 5.47033e-17)
(0.998754 -0.0177129 1.65656e-16)
(1.0059 0.00893536 -6.00886e-17)
(0.987278 0.00140222 1.60102e-16)
(0.633467 -0.886286 -4.82404e-16)
(0.619297 -0.744786 3.67845e-16)
(0.731756 -0.691585 -4.06178e-16)
(0.717715 -0.587249 -1.1035e-16)
(0.800944 -0.547433 -4.20902e-16)
(0.78973 -0.47264 -1.66815e-16)
(0.852815 -0.440357 -2.84521e-17)
(0.842809 -0.385527 -2.15386e-17)
(0.892788 -0.359513 -5.84146e-16)
(0.882776 -0.317771 3.96183e-16)
(0.923847 -0.296948 -1.71348e-16)
(0.913508 -0.264281 -2.28775e-16)
(0.948092 -0.247386 -4.77191e-16)
(0.937457 -0.221426 -5.92491e-16)
(0.967091 -0.207347 -2.48611e-16)
(0.956227 -0.186557 4.72187e-17)
(0.981989 -0.174445 2.70598e-16)
(0.970928 -0.157744 -2.14234e-16)
(0.993616 -0.146972 1.4346e-16)
(0.982349 -0.13357 -7.52036e-17)
(1.00257 -0.123673 7.46946e-17)
(0.991064 -0.112979 -1.52347e-16)
(1.00929 -0.103606 1.11262e-17)
(0.997495 -0.0951736 -7.38779e-17)
(1.01411 -0.0860507 1.77666e-16)
(1.00195 -0.0795382 -4.29946e-17)
(1.01724 -0.0704436 1.251e-16)
(1.00467 -0.0655996 9.06121e-18)
(1.01885 -0.05632 2.67177e-16)
(1.00584 -0.0530291 -1.90892e-16)
(1.01901 -0.0432031 3.21357e-16)
(1.00572 -0.0417647 -2.42369e-16)
(1.01757 -0.0303586 2.804e-16)
(1.00472 -0.0322476 -1.76759e-17)
(1.01419 -0.0166571 1.7809e-16)
(1.00319 -0.0250981 -4.02623e-16)
(1.009 -0.0016903 3.09224e-16)
(1.00007 -0.018626 -3.5407e-16)
(1.00539 0.00912715 2.80421e-17)
(0.987614 0.000740994 -1.23191e-17)
(0.692484 -0.915414 4.83631e-16)
(0.668901 -0.769307 -7.7062e-17)
(0.777821 -0.714322 2.75922e-17)
(0.756838 -0.606589 4.8353e-16)
(0.837416 -0.565446 4.7551e-16)
(0.821228 -0.488223 1.97617e-16)
(0.882163 -0.454868 -2.09076e-16)
(0.868512 -0.398259 9.83144e-17)
(0.91676 -0.371382 4.01821e-16)
(0.903973 -0.328289 -3.03341e-16)
(0.943661 -0.306778 1.52949e-16)
(0.931152 -0.273054 2.35625e-16)
(0.964615 -0.255601 3.9859e-16)
(0.952255 -0.228804 3.39188e-16)
(0.980956 -0.214261 4.10421e-16)
(0.968712 -0.192801 -8.04482e-17)
(0.993672 -0.180289 -1.54138e-16)
(0.981501 -0.163051 5.02723e-17)
(1.00348 -0.151925 3.33848e-17)
(0.99132 -0.138092 -6.31139e-17)
(1.01089 -0.127871 7.61678e-17)
(0.998671 -0.116835 -7.66076e-17)
(1.01628 -0.107155 2.10954e-16)
(1.00392 -0.0984536 -2.99681e-16)
(1.01993 -0.0890338 1.26549e-16)
(1.00735 -0.0823139 -2.61814e-16)
(1.02203 -0.0729246 2.49812e-17)
(1.00915 -0.0679266 -1.59708e-16)
(1.02272 -0.0583473 -2.94435e-17)
(1.00949 -0.0549519 -7.49234e-17)
(1.02201 -0.0448094 -1.79342e-16)
(1.00862 -0.0433262 1.12221e-16)
(1.01972 -0.0315525 -1.55108e-16)
(1.00699 -0.0335057 -1.82574e-16)
(1.01543 -0.0174099 9.78108e-17)
(1.00499 -0.0261283 1.975e-16)
(1.00926 -0.00196844 -4.68356e-17)
(1.00145 -0.0194493 2.10566e-16)
(1.00487 0.00928805 -1.00519e-16)
(0.987984 0.000113821 1.5167e-16)
(0.753263 -0.940629 -4.61202e-16)
(0.719996 -0.79049 -2.43871e-16)
(0.825265 -0.734035 -1.21283e-16)
(0.79714 -0.623326 -1.4713e-16)
(0.874989 -0.581075 -8.50775e-16)
(0.853682 -0.501718 -8.99666e-17)
(0.912406 -0.467463 2.06965e-17)
(0.895003 -0.409289 9.84211e-18)
(0.94147 -0.381687 -3.20839e-16)
(0.925827 -0.337402 2.12008e-16)
(0.964089 -0.31531 6.38281e-17)
(0.949345 -0.280654 -4.65028e-16)
(0.98165 -0.26273 -1.50202e-16)
(0.967516 -0.235192 -2.25162e-16)
(0.995252 -0.220258 -2.29466e-16)
(0.981589 -0.198206 3.25304e-17)
(1.00572 -0.185359 3.12432e-16)
(0.992409 -0.167646 -1.78509e-16)
(1.01365 -0.156221 2.40607e-16)
(1.00058 -0.142009 -3.22176e-16)
(1.01947 -0.131514 1.9405e-16)
(1.00652 -0.120176 -9.63834e-17)
(1.02349 -0.110236 -5.20843e-18)
(1.01056 -0.101297 7.62696e-17)
(1.02594 -0.0916243 1.7183e-16)
(1.01292 -0.084722 8.95898e-17)
(1.02698 -0.0750797 6.91365e-17)
(1.01377 -0.0699474 8.9549e-17)
(1.0267 -0.0601093 3.55856e-17)
(1.01325 -0.0566246 1.58652e-16)
(1.0251 -0.0462075 1.12646e-16)
(1.01162 -0.0446878 -5.2226e-17)
(1.02193 -0.0325946 1.08041e-16)
(1.00934 -0.0346059 2.40062e-16)
(1.01671 -0.0180717 -1.09608e-17)
(1.00686 -0.027032 -3.49111e-16)
(1.00953 -0.00222206 3.07034e-16)
(1.00287 -0.0201743 -2.5518e-16)
(1.00435 0.00941835 6.02184e-17)
(0.988386 -0.000472965 -9.29718e-17)
(0.815575 -0.961804 6.83984e-16)
(0.772373 -0.808321 6.83647e-16)
(0.873899 -0.75056 8.39021e-17)
(0.838452 -0.637393 1.70502e-16)
(0.913499 -0.594171 6.73078e-16)
(0.886945 -0.513055 5.11788e-17)
(0.943397 -0.478016 9.34992e-17)
(0.922148 -0.418555 1.1372e-16)
(0.966786 -0.390323 1.0394e-16)
(0.948216 -0.34506 -1.50141e-16)
(0.985016 -0.322465 -1.03831e-16)
(0.967982 -0.287045 3.31948e-16)
(0.999102 -0.268714 2.41702e-16)
(0.983149 -0.240571 1.32204e-16)
(1.0099 -0.225298 3.54513e-17)
(0.994779 -0.202761 -6.2859e-17)
(1.01806 -0.189623 -3.30073e-16)
(1.00358 -0.171522 7.25434e-17)
(1.02407 -0.159839 -1.35231e-17)
(1.01006 -0.145316 9.26132e-17)
(1.02826 -0.134585 1.81216e-17)
(1.01456 -0.122999 -1.85125e-17)
(1.03088 -0.112837 1.06361e-16)
(1.01736 -0.103704 -1.2548e-16)
(1.0321 -0.0938147 -6.3082e-17)
(1.01863 -0.0867632 -2.32828e-16)
(1.03205 -0.0769065 1.15868e-16)
(1.0185 -0.0716638 -2.36414e-16)
(1.03079 -0.0616078 1.37363e-16)
(1.01711 -0.0580486 -3.03093e-16)
(1.02827 -0.0474016 -4.91564e-17)
(1.01469 -0.0458503 7.0963e-18)
(1.02421 -0.0334905 -2.03019e-16)
(1.01176 -0.035549 -1.95675e-16)
(1.01804 -0.0186483 -1.58973e-16)
(1.00877 -0.0278103 1.58219e-16)
(1.00981 -0.00245608 -1.64628e-16)
(1.00434 -0.0208029 4.462e-17)
(1.00381 0.00951531 1.67318e-17)
(0.988816 -0.00102111 1.81377e-16)
(0.879125 -0.978866 -8.29412e-16)
(0.825794 -0.822655 -6.86828e-16)
(0.923512 -0.763911 -3.57971e-16)
(0.880591 -0.648723 1.23747e-16)
(0.952788 -0.604759 -5.59918e-16)
(0.920878 -0.522195 1.48582e-16)
(0.975021 -0.486552 -3.17296e-16)
(0.949847 -0.426029 -1.12123e-16)
(0.992624 -0.39731 5.62049e-17)
(0.971068 -0.351239 2.13924e-16)
(1.00638 -0.328254 1.2082e-16)
(0.987007 -0.292202 -1.28445e-16)
(1.01692 -0.273555 -1.24388e-16)
(0.999109 -0.244909 -3.54753e-16)
(1.02485 -0.229374 7.21742e-17)
(1.00825 -0.206436 9.84567e-17)
(1.03066 -0.193073 2.74563e-16)
(1.01499 -0.17465 -2.00854e-16)
(1.03471 -0.162768 9.3713e-17)
(1.01974 -0.147987 -1.43845e-16)
(1.03723 -0.137072 1.74379e-17)
(1.02278 -0.125282 2.31969e-17)
(1.03842 -0.114946 -1.95542e-16)
(1.0243 -0.105652 -4.46673e-18)
(1.0384 -0.0955936 2.90091e-16)
(1.02446 -0.0884183 -2.70758e-17)
(1.03724 -0.0783923 4.2245e-17)
(1.02334 -0.0730584 1.12355e-16)
(1.03496 -0.0628292 -2.89668e-17)
(1.02106 -0.0592092 1.41522e-16)
(1.03151 -0.0483782 3.45058e-17)
(1.01784 -0.046802 1.94909e-16)
(1.02654 -0.0342277 5.01515e-17)
(1.01422 -0.0363257 3.59978e-16)
(1.01939 -0.0191295 1.80898e-16)
(1.01073 -0.0284554 -4.31828e-17)
(1.01011 -0.00266392 1.19419e-16)
(1.00584 -0.0213283 6.05405e-17)
(1.00326 0.00958086 -1.66983e-16)
(0.98927 -0.00152664 2.01666e-17)
(0.943663 -0.991727 8.78995e-16)
(0.880048 -0.833491 6.28358e-16)
(0.973881 -0.773944 3.06199e-16)
(0.923385 -0.657275 5.77632e-17)
(0.992675 -0.612715 1.72852e-16)
(0.955335 -0.529091 -1.20965e-17)
(1.00712 -0.492968 2.73998e-16)
(0.977969 -0.431669 7.97636e-17)
(1.01885 -0.402565 -1.62275e-16)
(0.994264 -0.355905 -1.73898e-16)
(1.02806 -0.332613 9.33587e-17)
(1.00632 -0.296102 -1.22614e-16)
(1.035 -0.277206 -6.43212e-17)
(1.01531 -0.248197 5.98244e-16)
(1.04003 -0.232454 -3.558e-16)
(1.02192 -0.209226 6.19817e-17)
(1.04345 -0.195685 -1.03521e-16)
(1.02657 -0.17703 -1.80868e-17)
(1.0455 -0.16499 2.23991e-16)
(1.02957 -0.150023 -1.17084e-16)
(1.04634 -0.138964 7.98879e-17)
(1.03112 -0.127026 9.64273e-17)
(1.04608 -0.116554 6.63691e-17)
(1.03135 -0.107144 -1.26701e-16)
(1.04479 -0.0969546 9.6739e-17)
(1.03038 -0.089691 -2.22764e-16)
(1.0425 -0.0795346 3.99543e-17)