/*--------------------------------*- C++ -*----------------------------------*\
| =========                 |                                                 |
| \\      /  F ield         | foam-extend: Open Source CFD                    |
|  \\    /   O peration     | Version:  3.0                                   |
|   \\  /    A nd           | Web:         http://www.extend-project.de       |
|    \\/     M anipulation  |                                                 |
\*---------------------------------------------------------------------------*/
FoamFile
{
    version     2.0;
    format      ascii;
    class       volScalarField;
    location    "22";
    object      p;
}
// * * * * * * * * * * * * * * * * * * * * * * * * * * * * * * * * * * * * * //

dimensions      [0 0 0 0 0 0 0];

internalField   nonuniform List<scalar> 
576
(
-7.12959
-7.19532
-5.57075
-5.69712
-4.75509
-4.9629
-4.39052
-4.61538
-4.32864
-4.49934
-4.49609
-4.54834
-7.00701
-7.07145
-5.47527
-5.59929
-4.67348
-4.87779
-4.31518
-4.53638
-4.25451
-4.42246
-4.41914
-4.47048
-6.76581
-6.82796
-5.28661
-5.40635
-4.51244
-4.70966
-4.16645
-4.37992
-4.10779
-4.26987
-4.2667
-4.31624
-6.40738
-6.46636
-5.00675
-5.12019
-4.27365
-4.46053
-3.94606
-4.14832
-3.89054
-4.04412
-4.04107
-4.08803
-5.94079
-5.99539
-4.64195
-4.74719
-3.96222
-4.13549
-3.65849
-3.84597
-3.60697
-3.74935
-3.74648
-3.79003
-5.37108
-5.42059
-4.1969
-4.29223
-3.58246
-3.73928
-3.30796
-3.47757
-3.26146
-3.39023
-3.38764
-3.42704
-4.71094
-4.75428
-3.68092
-3.76454
-3.14199
-3.27947
-2.90122
-3.0499
-2.8604
-2.9733
-2.97102
-3.00557
-3.96873
-4.00544
-3.10106
-3.17174
-2.64717
-2.76314
-2.44446
-2.56976
-2.41015
-2.50528
-2.50338
-2.5325
-3.1601
-3.18923
-2.46912
-2.52536
-2.1077
-2.19994
-1.94626
-2.04592
-1.91889
-1.9946
-1.99309
-2.01626
-2.29597
-2.31735
-1.79399
-1.83513
-1.53157
-1.59871
-1.41439
-1.48682
-1.39457
-1.44959
-1.44852
-1.46537
-1.39389
-1.40682
-1.08907
-1.11409
-0.929795
-0.970511
-0.858668
-0.902528
-0.846603
-0.879962
-0.879326
-0.889555
-0.466704
-0.471284
-0.364681
-0.37344
-0.311604
-0.325359
-0.287945
-0.302577
-0.283955
-0.295122
-0.294951
-0.298394
0.46737
0.471528
0.365229
0.373124
0.311488
0.325054
0.287449
0.302352
0.283385
0.294631
0.294352
0.297766
1.39441
1.40696
1.0895
1.11372
0.929617
0.970164
0.858143
0.902273
0.846015
0.879456
0.878714
0.888918
2.2968
2.31777
1.79465
1.83493
1.53155
1.59846
1.41398
1.48662
1.39406
1.44914
1.44797
1.46479
3.16052
3.18935
2.46947
2.525
2.10751
2.19958
1.94577
2.04564
1.91834
1.9941
1.9925
2.01566
3.9697
4.00605
3.10176
3.17168
2.64725
2.76294
2.44416
2.56957
2.40973
2.50489
2.50291
2.53199
4.71128
4.75443
3.68118
3.76423
3.14181
3.27911
2.9008
3.0496
2.85994
2.97286
2.97051
3.00504
5.37203
5.4213
4.19747
4.29228
3.58253
3.73912
3.30777
3.47741
3.26119
3.38993
3.38728
3.42665
5.94101
5.99552
4.64204
4.74695
3.962
4.13519
3.65817
3.84575
3.60666
3.74902
3.7461
3.78964
6.40824
6.46708
5.00712
5.12036
4.27366
4.46048
3.94596
4.14826
3.89041
4.04395
4.04082
4.08778
6.76588
6.82804
5.28656
5.40618
4.51221
4.70946
4.16625
4.37981
4.1076
4.2697
4.26641
4.31599
7.00773
7.07214
5.47553
5.59949
4.67354
4.87786
4.31524
4.53642
4.25451
4.42239
4.41899
4.47035
7.12968
7.19525
5.57082
5.697
4.75492
4.9628
4.39041
4.6154
4.32863
4.49941
4.49597
4.54822
7.12965
7.19524
5.57079
5.69702
4.75494
4.96283
4.39046
4.61542
4.32868
4.49944
4.49602
4.54827
7.00762
7.07212
5.47545
5.59958
4.6736
4.87794
4.31538
4.53647
4.25467
4.42249
4.41915
4.4705
6.76569
6.828
5.28642
5.40632
4.5123
4.70959
4.16647
4.3799
4.10786
4.26987
4.26666
4.31624
6.408
6.46704
5.00694
5.12056
4.27379
4.46065
3.94627
4.14838
3.89077
4.04419
4.04117
4.08812
5.94068
5.99545
4.6418
4.74719
3.96216
4.1354
3.65856
3.84589
3.60711
3.74932
3.74654
3.79007
5.37168
5.42124
4.19721
4.29258
3.58273
3.73938
3.30824
3.47759
3.26173
3.3903
3.3878
3.42716
4.71083
4.75433
3.68086
3.76456
3.14202
3.27941
2.90134
3.04981
2.86055
2.97327
2.97111
3.00562
3.9693
4.006
3.10146
3.17208
2.64751
2.76328
2.44476
2.56981
2.41041
2.50536
2.50357
2.53264
3.15996
3.18922
2.46908
2.52539
2.10777
2.19993
1.9464
2.04588
1.91905
1.9946
1.99321
2.01635
2.29642
2.31777
1.79437
1.83541
1.53189
1.59887
1.41468
1.4869
1.39482
1.44968
1.44872
1.46553
1.39375
1.40678
1.08906
1.11413
0.929893
0.97054
0.858831
0.902544
0.846788
0.880003
0.87948
0.88967
0.46709
0.471602
0.365019
0.373668
0.311894
0.325506
0.288205
0.302663
0.284192
0.295205
0.295138
0.298538
-0.467464
-0.471528
-0.365184
-0.373059
-0.311343
-0.32498
-0.287249
-0.302295
-0.283173
-0.29456
-0.294178
-0.297634
-1.39402
-1.40667
-1.08915
-1.11353
-0.929315
-0.970031
-0.857878
-0.902192
-0.845787
-0.879379
-0.878543
-0.88879
-2.29684
-2.31772
-1.79454
-1.83482
-1.53135
-1.59834
-1.41374
-1.48651
-1.39382
-1.44903
-1.44777
-1.46464
-3.16009
-3.18904
-2.46906
-2.52482
-2.10715
-2.19944
-1.94546
-2.04554
-1.91809
-1.99401
-1.99232
-2.01552
-3.96969
-4.00599
-3.10156
-3.17157
-2.64699
-2.76276
-2.44387
-2.5694
-2.40946
-2.50472
-2.50267
-2.53179
-4.71078
-4.75407
-3.68069
-3.76405
-3.1414
-3.27896
-2.90046
-3.04948
-2.85966
-2.97272
-2.97029
-3.00484
-5.37199
-5.42129
-4.1972
-4.29225
-3.58228
-3.73896
-3.30752
-3.47724
-3.26094
-3.38975
-3.38704
-3.42641
-5.94044
-5.99511
-4.6415
-4.74677
-3.96165
-4.13504
-3.6579
-3.84566
-3.60646
-3.74893
-3.74594
-3.78949
-6.40818
-6.46711
-5.00684
-5.12043
-4.27351
-4.46039
-3.94586
-4.14819
-3.89032
-4.04389
-4.04075
-4.08774
-6.76523
-6.82757
-5.28607
-5.40592
-4.51195
-4.70924
-4.16607
-4.37975
-4.10748
-4.26968
-4.26631
-4.31595
-7.00762
-7.07207
-5.47538
-5.59955
-4.67352
-4.87773
-4.31518
-4.53632
-4.25438
-4.42232
-4.41887
-4.47023
-7.12884
-7.19462
-5.57042
-5.69667
-4.75467
-4.96251
-4.39011
-4.61536
-4.32836
-4.49949
-4.49577
-4.54811
)
;

boundaryField
{
    out
    {
        type            implicitExtrapolation;
    }
    in
    {
        type            implicitExtrapolation;
    }
    frontAndBack
    {
        type            empty;
    }
}


// ************************************************************************* //
