/*--------------------------------*- C++ -*----------------------------------*\
| =========                 |                                                 |
| \\      /  F ield         | foam-extend: Open Source CFD                    |
|  \\    /   O peration     | Version:  3.0                                   |
|   \\  /    A nd           | Web:         http://www.extend-project.de       |
|    \\/     M anipulation  |                                                 |
\*---------------------------------------------------------------------------*/
FoamFile
{
    version     2.0;
    format      ascii;
    class       volScalarField;
    location    "7";
    object      p;
}
// * * * * * * * * * * * * * * * * * * * * * * * * * * * * * * * * * * * * * //

dimensions      [0 0 0 0 0 0 0];

internalField   nonuniform List<scalar> 
3012
(
1.0929
0.967503
0.905247
1.02785
0.985285
1.08428
0.982522
0.943915
1.08758
0.89451
1.05947
0.96029
0.999099
1.06647
0.881664
1.05211
0.985684
1.07259
1.01129
0.949684
1.12238
0.971465
0.801718
1.12061
0.897818
0.97776
1.0261
1.08973
1.10861
0.959129
1.0298
0.898399
1.02711
0.955943
1.11048
0.902958
0.979711
0.914952
1.0911
1.00433
1.00933
0.882474
1.06218
1.0449
1.03087
0.918443
1.10553
0.941838
0.903463
0.966167
1.10543
1.02208
1.08925
0.965968
1.03564
0.902004
1.11295
0.978289
1.10037
0.828174
1.06469
1.06408
1.00664
0.889933
1.0087
1.0637
0.874459
1.05311
0.86982
1.03971
1.03042
1.06412
0.974521
0.883374
1.04205
1.09569
1.14596
1.02781
0.843684
0.980949
1.0055
1.07358
1.04587
0.874958
0.853261
1.08888
1.04694
1.01167
1.00234
0.995407
1.12403
0.875058
0.889197
1.08818
1.05284
0.972613
1.05798
1.02835
1.05718
0.866083
0.862879
1.05102
1.03697
1.05327
0.98143
1.0335
0.88179
1.09861
0.808677
1.03826
1.28825
0.868003
1.09231
0.925014
0.938673
1.04089
0.825998
0.961692
1.06792
1.14328
0.985711
1.08596
1.10357
0.829582
0.963067
1.07421
0.912013
1.04338
1.01508
1.05685
0.915212
1.03788
0.962523
1.06601
1.03443
0.919291
0.975509
0.934584
1.05873
1.03193
0.911128
1.00997
1.09196
0.978818
1.03085
0.981332
1.09493
0.877945
0.969436
1.02851
1.07282
0.923238
1.02098
1.09687
0.926272
0.952553
0.896119
0.974113
1.11257
1.0138
0.822037
1.26372
0.871185
1.04399
1.08818
0.97917
0.92797
0.990467
1.03087
0.959794
1.10954
0.896364
1.01946
0.868129
1.11032
1.00022
1.06018
0.961364
1.0478
0.930511
1.10618
0.944187
0.93111
0.998674
0.991442
1.08657
1.06492
0.862696
1.06612
0.867186
0.978339
1.09105
0.818482
1.23132
0.899398
1.05223
0.909676
0.94414
1.10022
1.04185
1.0145
1.0644
1.05054
0.871223
0.991932
0.888347
1.07144
1.0474
0.944503
0.939341
1.02847
1.08426
1.07901
1.0144
0.864694
1.04596
0.876929
1.03795
1.01187
1.07458
0.829344
1.10671
1.00251
1.06047
1.03581
1.10796
0.894205
0.958513
1.07074
1.02526
1.05658
0.853963
1.02178
1.01889
1.09671
0.858281
0.944622
0.905247
1.05087
1.09585
1.17926
0.901427
0.800037
1.13799
1.10598
0.800192
1.06174
1.04281
0.992826
1.08704
1.06308
0.861903
1.06829
0.978635
0.870182
1.0868
0.861049
1.08228
1.04366
1.02283
1.00271
1.12158
0.866748
1.00656
1.00637
0.894703
1.04628
1.05185
0.979709
1.06915
1.08483
0.870176
1.00455
0.882695
1.05461
1.05757
1.00497
1.06476
0.880384
1.04963
1.0874
0.969599
1.03092
0.902593
1.02051
0.949167
1.09265
0.934036
0.935884
1.10652
0.993556
0.937286
0.919918
0.961139
1.10491
0.979715
1.03338
1.10211
0.919055
0.942139
0.981455
1.0726
1.08061
0.86914
0.933466
1.09849
0.931482
1.03388
1.09338
0.976437
1.01689
0.906358
0.867979
1.07536
1.05497
1.01159
0.881038
0.963251
1.067
1.08513
1.03676
0.8553
1.01845
1.08974
1.07017
1.05833
1.03546
0.8453
1.05484
1.01499
1.06548
0.876242
0.851757
1.04197
1.08228
1.02582
1.00738
1.13396
0.859493
0.996274
1.01721
1.14383
0.854333
0.982244
1.00094
1.01225
1.1229
0.861236
1.03526
0.864778
1.06501
1.03704
0.95692
0.931187
1.02956
1.07953
1.00855
1.10861
0.975586
0.903714
1.00963
1.00323
0.8647
1.11931
1.03908
0.859338
1.04
1.0642
1.08417
0.899155
1.06968
0.944838
1.08495
0.904714
0.944179
1.0637
0.854971
1.02461
1.07525
1.05169
1.08069
1.07165
0.953081
0.891451
1.03882
1.09982
0.931404
0.926631
0.996566
1.07397
1.07234
0.862623
0.991465
1.07159
1.07517
0.867991
1.16211
0.938574
1.05266
0.848379
1.02399
1.03229
1.0813
0.866833
0.977462
1.07602
1.04688
0.897577
0.960209
1.06053
0.912922
1.06532
1.02814
1.07837
1.02426
0.873024
1.04779
0.92042
1.05625
0.984014
1.04777
1.08179
0.890259
0.974589
0.871717
1.13418
0.976151
1.01464
1.04111
0.895962
1.06639
0.994029
1.05643
1.04047
1.04252
0.866741
1.07438
1.01045
0.867687
1.05509
1.07488
1.02099
0.863602
1.04638
0.848137
1.01119
1.03821
1.10012
0.868255
1.01961
1.07481
1.04322
1.04063
1.05746
1.0319
0.87374
1.00865
1.10703
0.964044
0.962634
0.852968
1.03261
1.05762
1.06526
0.973265
1.00574
0.90969
1.10793
1.06504
0.918316
1.04687
0.974629
1.01612
0.872137
1.07227
1.04705
0.972671
1.10415
1.06754
0.855739
1.08064
1.0701
0.955292
0.889755
1.00333
1.07394
1.04367
0.879075
1.00418
1.079
1.06787
0.895232
0.887485
0.956502
1.06644
1.08496
1.06545
1.0628
1.03396
0.846406
1.04635
0.921348
0.932704
1.09543
1.01792
0.976256
1.11635
0.88639
1.11025
0.976625
0.94575
0.952289
1.20227
0.763799
1.32353
0.737426
0.925267
1.04668
0.930919
1.09243
1.10575
0.911356
0.881552
1.07981
1.0877
0.873737
1.01577
1.01216
0.904768
1.04394
1.08871
0.959096
0.999592
1.0426
1.03554
0.932826
0.952131
0.896634
1.07537
1.07119
0.926299
1.04469
0.928078
1.09718
1.04149
0.956332
1.09016
0.90849
1.01745
1.10174
0.954864
0.922779
0.95443
0.893245
1.0694
1.07862
1.04392
1.03493
1.06855
0.859262
1.04508
1.03502
1.0665
0.860435
1.04253
1.09199
0.957031
0.904579
0.886753
1.08504
1.04578
0.977346
0.926472
0.927876
1.04276
1.09903
0.982642
1.07607
1.04599
0.893786
1.06069
1.03726
1.03827
0.869108
1.14564
0.936297
0.868332
1.03422
1.04175
0.961776
1.08806
0.904103
0.93361
0.9197
1.0964
1.04618
1.06196
0.961346
1.08475
0.893091
1
1.07665
1.02227
0.897071
1.08056
0.991165
0.923628
0.995647
1.09081
0.922947
0.930146
1.05259
1.03354
0.948704
0.908716
1.10543
1.08796
0.946033
1.04169
0.920733
0.943068
1.08901
1.02575
0.939194
0.866408
1.1071
1.0191
1.00473
1.07702
0.947323
0.915437
1.05751
0.947809
0.93188
1.08611
1.03138
1.05936
1.01951
0.923545
0.994692
0.931403
1.04379
0.922048
1.09877
1.01812
0.8844
1.05114
1.06248
1.08861
0.92288
1.05435
0.930298
1.00368
1.08883
0.996623
0.908641
1.04375
1.08781
0.987349
0.887729
0.918905
1.05074
0.966556
1.06737
1.06159
1.05227
0.911118
0.976262
1.00039
1.00624
0.904515
1.08463
1.00849
1.11284
0.881592
0.994141
1.00274
1.00333
1.11743
0.87338
1.01917
1.10259
1.01305
0.87917
1.10245
0.944501
1.04362
0.906003
0.918245
1.0945
0.941683
1.04077
1.04371
1.04862
1.04583
0.867158
0.864465
1.04832
1.03938
1.05448
1.00243
0.87176
1.09136
1.03001
0.929032
1.05218
1.05733
0.919003
0.896257
0.979803
1.11121
1.00946
1.00391
1.08986
1.03052
0.871358
0.955184
1.01769
0.935219
1.08792
1.01306
0.865912
1.09429
1.02341
1.03748
1.04874
1.04356
0.874782
1.0585
0.827154
0.952233
1.16643
1.10625
0.966468
0.933752
0.984499
1.04104
0.903575
0.958046
1.09174
1.09435
0.962579
0.918536
1.01445
1.05622
1.08627
0.865287
0.997345
0.964094
1.08789
0.911926
1.02476
0.960223
1.09494
0.918169
1.01314
1.0476
0.94709
0.924042
1.07988
0.969589
1.09283
0.888194
1.04443
0.856605
1.01986
1.05161
1.07803
1.04024
1.09213
0.865433
1.00888
0.95429
1.07513
1.07978
0.889107
1.0741
1.00572
0.862487
1.06458
0.86265
1.03639
1.04723
1.0584
0.914093
1.03743
0.951405
1.09096
0.912029
0.944152
1.09191
1.04704
1.04469
1.02618
1.07512
0.859864
1.11098
0.995179
0.987776
0.902058
0.953746
1.0318
0.937481
1.07316
0.892615
1.08042
1.0713
0.953935
1.00082
1.07967
0.861301
1.06427
1.04319
0.918211
0.941291
1.09345
1.09734
0.92104
0.94035
1.03833
0.885919
1.07626
0.99029
1.04649
1.0739
0.885188
0.960033
1.07998
1.06565
1.05175
0.845442
1.04579
1.14685
0.958946
1.06754
0.825729
0.968216
1.08447
1.02728
0.921604
1.06821
0.963284
0.890782
1.07145
0.995887
0.859584
1.02943
1.1221
0.935756
1.0542
1.06943
0.944765
0.847415
1.06642
0.997063
1.09115
0.970105
1.09892
0.944386
0.960361
1.0241
1.00637
1.10006
0.867756
1.01513
1.05212
0.841657
1.09934
1.0888
0.933119
0.926003
1.04873
1.16802
0.952065
1.06522
0.814409
1.11269
0.979313
0.835965
1.07248
1.07527
0.956591
0.906418
1.04969
0.835393
1.05207
1.04391
1.07844
0.965675
1.07492
1.06939
0.883565
1.07399
0.963861
1.03623
0.917668
1.03159
1.07517
1.03063
0.867414
1.07602
1.01549
0.861646
1.05362
1.0832
0.947648
1.06618
0.900011
0.838474
1.06846
1.08052
1.02374
1.06648
0.889876
1.06838
0.968167
1.00968
1.07044
1.06072
0.867594
0.968831
1.05466
1.08219
0.888958
1.02866
1.03039
0.865923
1.07523
0.887111
1.08108
1.04012
0.990074
1.07827
1.00977
1.05642
0.862506
0.960811
1.06031
1.07685
0.896091
0.920835
1.02662
0.94981
1.09978
1.06747
1.09296
0.876181
0.964888
1.01982
0.913098
0.958879
1.10521
1.03811
1.06119
1.04115
0.865558
1.08236
0.936799
1.05736
0.920533
0.858134
1.01887
1.05642
1.07393
1.04542
0.901488
0.949154
1.10012
0.999434
1.08857
1.06004
0.857754
1.16305
1.05044
0.956322
0.829067
0.892233
1.07821
1.07634
0.951721
1.01961
1.0777
1.04571
0.863317
1.04231
1.05972
1.04365
0.86124
1.00579
0.862837
0.996002
1.13292
0.991026
0.840888
1.1102
1.05774
0.868132
1.04636
1.01661
1.07059
0.882808
1.09572
1.02548
0.996781
0.885181
1.03121
1.08893
0.994381
0.868454
1.02116
1.03781
1.07528
0.941512
0.928522
1.03342
1.0939
1.10219
0.993597
0.86006
1.0381
0.907424
1.10483
0.955928
1.02871
1.09514
0.928683
0.955754
1.00815
0.948877
0.999053
1.0965
0.936999
0.901869
0.96114
1.02232
1.11114
1.09198
0.994712
1.08297
0.84018
0.984888
1.09139
0.839044
1.09372
1.09954
0.868331
1.01875
1.00721
1.04317
0.913342
0.946013
1.09393
1.14245
1.02322
0.980065
0.851961
1.08586
1.00867
1.01844
0.901842
1.13951
0.98169
1.01671
0.859615
0.829564
1.07458
1.12121
0.978935
0.962637
1.09
0.889642
1.05322
0.767885
1.11123
1.03792
1.09649
0.864923
1.08125
1.02237
1.03123
1.08037
0.869641
1.02333
1.02596
0.866295
1.06737
1.03275
1.03832
0.85086
1.18918
0.900645
1.05149
1.06052
0.991205
1.03895
0.907587
1.00087
0.902188
1.04183
1.05373
0.89042
1.08124
1.04292
0.982944
0.904305
1.05676
0.945255
1.09028
1.08877
1.04835
0.905154
0.95924
1.06145
0.851157
0.975456
1.11599
1.1588
1.03293
0.847339
0.958515
1.00299
0.848138
1.03823
1.11
1.08175
0.954033
1.0484
0.917852
1.06996
0.848243
1.00747
1.08113
0.86887
1.10103
0.959219
1.06448
0.873224
1.01767
1.07255
1.04331
0.936158
0.915237
1.09616
1.04866
1.03759
0.871206
1.02792
1.08196
0.922214
0.957585
1.03374
1.08436
1.02875
0.869342
1.03079
1.07567
1.04085
1.07749
0.978285
0.901982
0.898692
1.06433
0.946728
1.08722
1.05109
1.06653
0.990024
0.891196
1.08168
1.02964
1.01876
0.872218
0.939958
1.06183
1.08782
0.907675
0.898082
1.02439
0.962979
1.11116
1.05036
0.919981
0.953689
1.07592
0.869518
1.02477
1.00829
1.10155
0.888777
1.04929
0.99458
1.0661
0.931031
1.05185
0.951435
1.06762
1.04909
0.957919
1.0677
0.918911
1.00813
0.973326
0.906015
1.10949
1.00958
0.97577
1.11016
0.901041
0.923512
0.961335
1.03641
1.07649
0.919305
1.03748
1.07339
0.967996
0.982165
1.13131
0.861163
1.02284
0.953595
1.07975
0.912906
1.04855
0.8974
0.989634
1.10848
1.00789
1.05971
0.892497
1.00882
1.03732
0.945832
1.1262
1.05934
0.865863
1.01418
1.05885
1.0728
0.863381
1.05618
1.05703
1.01319
0.887072
1.01936
0.869134
1.02602
1.08459
1.03241
0.968179
0.850161
1.14656
0.861512
1.0146
1.02683
1.10274
0.916521
0.959192
1.08001
1.04076
0.933051
1.09954
0.919474
1.04395
0.996544
1.10697
1.06761
0.835841
0.938012
1.02762
0.937514
1.09373
0.915498
1.03915
0.96597
1.07741
1.00476
1.08844
1.0744
0.838859
0.986365
1.1042
0.823656
1.09954
1.07216
0.913531
1.01894
1.00493
0.967431
1.07088
1.08112
0.882148
0.959792
1.06412
1.08445
0.892967
1.11414
1.01478
0.984322
0.883665
1.05953
0.914417
1.08865
0.934958
0.921104
1.05591
1.08714
0.932984
1.02695
0.862122
1.03977
1.07191
0.856217
1.05285
1.02797
1.07048
1.03223
0.983462
1.09883
0.881431
0.897373
1.08404
1.06744
0.950407
1.01855
1.05134
0.871271
1.05925
1.0625
0.86284
1.02921
1.04889
1.06437
0.866462
1.04234
1.03084
1.07865
0.954349
1.07403
0.89
0.871369
1.02813
1.04283
1.06136
1.12802
0.99139
0.871109
1.00642
1.03499
0.862364
1.06323
1.04139
1.11828
0.880568
1.01944
0.978478
1.10035
1.04275
0.889492
0.963724
0.859597
1.02426
0.964983
1.14841
1.09646
1.04702
0.964575
0.888008
1.02247
0.867868
1.09158
1.01661
1.08399
1.0278
1.01135
0.877554
1.02765
0.885156
1.08433
1.0024
1.148
1.10141
0.852182
0.942605
0.999048
0.865466
1.12128
1.01155
1.06607
1.02561
1.00553
0.918519
1.07281
1.03787
0.984307
0.899067
0.892425
1.08192
1.06986
0.955581
0.952317
1.0403
1.09013
0.915077
0.957252
1.04118
1.08567
0.913088
1.03958
1.02113
0.870124
1.07205
1.03096
1.09224
0.982535
0.889406
0.884229
1.0119
1.07713
1.02989
1.09683
1.02556
0.858077
1.02851
0.914072
0.941659
1.03763
1.10244
0.978268
1.0524
1.07175
0.88863
1.01771
1.05046
1.07173
0.908026
1.05969
0.879576
0.977534
1.0866
1.04767
1.04742
0.897063
1.03254
1.09915
0.916795
0.985096
1.01503
1.02479
0.99089
0.857339
1.12394
1.08333
0.998849
1.08722
0.837432
0.984396
1.07649
0.86949
1.07404
0.933731
1.09577
0.934972
1.03267
1.02998
0.85798
1.04368
1.07064
0.812969
0.977045
1.12163
1.09587
0.99051
1.04456
1.12067
0.841833
0.837539
1.052
0.969704
1.138
1.06974
0.980734
1.07923
0.874141
0.882056
1.11904
1.00727
0.988
1.0297
1.07264
0.86128
1.04291
0.895498
0.950818
1.07327
1.07678
1.05923
1.03976
0.922836
0.974565
1.05277
0.899783
1.09504
0.948921
0.913194
1.03668
1.08535
0.956061
0.883294
1.04665
1.07465
0.994309
1.02275
1.07916
0.865659
1.03736
0.915157
1.0922
1.02635
0.958388
0.940763
1.03792
0.913969
1.10382
0.996813
1.03358
1.08528
0.882324
1.1226
1.01784
1.06625
0.797513
1.05695
1.053
0.977545
0.922357
0.852662
1.13248
0.948339
1.06361
0.967416
1.07618
0.890758
1.05986
1.05138
1.05316
0.858588
1.04499
1.02716
1.02924
0.880454
1.06246
0.840287
0.970704
1.04801
1.13964
0.900229
1.11727
0.98288
0.995731
0.939613
1.1875
1.09709
0.805117
1.06714
1.04626
0.920108
0.964835
0.883796
1.0489
1.08019
0.98154
1.04221
1.05041
0.862958
1.05128
1.05017
1.06379
1.03507
0.858666
0.977659
1.11134
0.817077
1.10174
0.972381
1.06117
0.828691
1.13571
1.03753
1.06019
0.819739
1.09417
0.956008
1.07255
1.07318
0.893417
0.996539
1.0437
0.898392
1.06029
1.04784
1.02242
0.940616
0.990172
1.11768
0.965265
0.861413
1.04806
1.01953
1.07731
0.866234
1.0428
1.09059
1.06494
1.00624
0.845355
1.02829
1.10973
0.857825
1.00213
0.939935
0.814003
1.11174
1.14546
1.05964
0.926979
1.01324
0.998078
1.06943
0.883285
1.08739
0.959344
0.953678
1.06262
1.10694
0.874315
1.06929
0.87678
1.08616
0.968744
1.0682
1.04331
0.982217
0.904501
1.06337
1.04446
0.894084
1.023
0.981896
1.09193
1.01644
0.909488
0.902084
1.08743
1.04136
0.966057
0.918057
0.941771
1.04607
1.08871
0.877143
0.971958
1.07926
1.07402
1.07781
0.975775
0.991707
0.963465
0.944156
1.0899
0.915791
1.04565
1.06
1.01477
1.0699
0.86282
1.03941
1.08182
0.981724
0.893301
0.900836
0.99946
1.00816
1.09526
1.08227
1.02478
1.02496
0.871065
1.07794
1.02322
1.03234
0.871235
1.08497
0.913978
1.03836
0.960412
0.876901
0.967821
1.08447
1.07233
1.08945
0.922942
0.949632
1.03528
0.923844
1.08582
1.05615
0.932949
1.07655
1.07809
0.961661
0.883974
0.978081
1.01592
0.882212
1.12056
0.885876
1.09026
0.986899
1.03272
1.07149
1.03029
1.0195
0.882652
0.923575
1.10046
1.02953
0.943539
0.883379
1.08005
1.04116
0.994017
0.923636
1.08414
1.05555
0.935051
1.08225
1.04169
0.882906
0.987067
1.05605
1.03492
0.857139
1.06005
1.11134
0.877621
1.00114
1.00633
1.07927
1.07331
0.965409
0.883478
1.06169
1.03349
0.914562
0.988196
0.942931
1.06379
0.905513
1.08618
1.06428
1.08442
0.900558
0.949786
0.955218
1.04251
1.08932
0.907498
0.874925
1.09597
1.00204
1.02338
1.01914
1.06384
0.865496
1.05974
1.06124
1.03476
0.879936
1.02785
0.893414
1.08339
0.978346
1.04237
0.897803
1.0846
0.970394
1.04402
1.0863
1.04231
1.01838
0.863207
0.882183
1.07936
1.03829
0.999501
1.04031
1.09025
0.902156
0.962524
1.09611
0.860121
1.02764
1.02496
1.03175
0.907347
1.0917
0.962956
0.967884
0.903455
1.08874
1.03496
1.09064
0.912845
0.947883
1.04551
1.05598
1.04845
1.02384
0.886778
0.852637
1.09884
1.04659
1.00131
1.15765
0.834053
1.04844
0.958408
1.00017
1.12879
1.00046
0.867786
1.01978
1.06727
0.873739
1.03906
0.922233
1.09328
0.934018
1.0463
1.11752
0.98028
0.878214
1.02054
1.08565
0.922952
0.933257
1.05394
1.04668
0.858937
1.06537
1.03097
1.034
0.939141
1.10001
0.923659
1.04532
0.945618
0.911927
1.09187
0.992745
1.06577
0.951932
0.987088
0.889156
1.08225
0.979446
1.04426
1.13631
0.800151
1.14075
0.931521
0.963339
1.14271
1.06912
0.824323
1.06539
1.03315
1.0311
0.875717
0.845681
1.07122
0.999718
1.08649
0.944034
1.10065
1.14103
0.812986
1.01474
1.05213
1.06118
0.871957
0.880015
1.08028
1.00841
1.03209
0.824566
0.969678
1.10462
1.10631
1.07014
1.07561
0.890336
0.959445
0.812167
1.14383
0.954603
1.08915
1.00423
1.064
0.865693
1.07435
1.03986
0.849248
1.06155
1.05748
0.870045
1.09692
1.00661
1.03114
0.938153
1.06036
1.07219
0.930402
1.07096
0.982785
1.07889
0.87104
1.04247
0.921108
0.935519
1.09732
0.890001
0.9847
1.03783
1.08438
0.967992
0.904568
1.08268
1.04269
1.09367
0.954217
1.00903
0.92457
0.996664
1.06647
0.863423
1.07903
0.895742
1.03244
0.98102
1.08743
1.08485
0.949542
1.02554
0.921227
1.01448
1.07443
0.973921
0.939671
1.04696
0.919478
0.933978
1.09541
1.0398
1.08817
0.898491
0.970137
1.01937
1.02704
0.878368
1.07359
1.05643
0.964267
0.824617
1.15418
1.00768
1.08337
0.859515
1.04931
0.959434
1.05294
1.14816
0.837623
1.3487
0.682671
0.33538
1.6824
1.07937
1.00065
0.909088
1.00969
0.958029
0.805981
0.618194
1.61117
0.983802
1.61076
0.674533
0.748641
1.0713
1.06636
0.845969
1.02669
0.597083
1.21712
0.990991
1.15075
0.952036
0.892724
1.0751
1.07689
1.02822
1.07314
0.859443
1.04589
1.05436
0.972955
0.892549
1.07259
1.08121
1.03158
1.01094
0.877274
0.940411
1.05955
0.912452
1.08587
0.9394
1.05892
0.913441
1.08696
0.973595
1.04417
1.08282
0.897262
1.10729
0.922701
0.822107
1.1466
0.896975
1.13755
0.753634
1.21491
0.881265
0.956548
1.06646
1.09399
1.05722
0.938219
1.08873
0.913028
1.05985
1.00993
0.851882
1.08513
1.01347
0.996583
0.89804
1.08711
0.994427
1.01327
0.899683
1.08874
1.08194
1.0249
1.01747
0.877832
1.01795
1.02208
0.878378
1.08322
0.978462
1.16522
0.856152
1.0917
1.11373
1.00963
0.857652
1.03331
1.06475
0.976407
0.86155
1.0996
1.0024
0.886149
1.02351
1.08638
1.12338
0.990893
0.870416
1.01214
0.86315
1.06339
1.025
1.05804
0.876002
1.0923
1.04719
0.989221
0.936272
1.05747
0.912852
1.09014
0.861283
1.03188
1.04057
1.06779
0.975909
1.06445
1.09881
0.864203
0.878183
1.0954
0.990816
1.03983
1.31547
0.764632
1.20589
0.741856
1.03686
1.0283
1.07633
0.863773
1.06936
0.948651
1.08215
0.896932
1.1453
0.946526
1.09975
0.808511
0.883996
1.07458
0.90547
1.11348
1.12334
0.811268
0.949918
1.12217
0.874962
1.07712
1.03731
1.01205
1.03939
1.07387
0.901668
0.969469
1.03934
1.08591
0.897768
0.973252
0.993427
0.893429
1.02252
1.08774
1.09344
0.865722
1.04036
1.00731
0.8916
1.06451
1.0324
1.00909
1.03598
1.13943
0.969078
0.852887
1.06515
0.864771
1.07415
1.00322
1.06586
1.00891
0.902205
1.03182
1.05593
0.942337
1.01995
0.961009
1.09395
1.0402
0.950795
0.910235
0.862265
1.07186
1.00536
1.06771
0.995929
1.08362
0.887108
1.03208
0.978509
0.892577
1.04289
1.08801
0.864291
1.08466
1.05166
1.00759
1.03358
0.996673
0.87934
1.08358
0.945613
1.03078
1.09019
0.93082
1.03897
0.986461
0.886943
1.07955
0.900202
0.969386
1.03554
1.08966
1.02028
0.849712
1.07243
1.06651
1.08201
1.006
1.08561
0.837374
0.993648
1.08375
0.863197
1.06506
0.99059
1.08134
0.864668
1.06865
1.00046
1.08862
0.832779
1.08937
1.03042
1.06853
0.958165
0.992664
0.839156
1.2102
0.904686
1.04582
1.038
0.879091
1.08006
1.00208
0.972353
1.09976
0.916544
1.00723
0.912648
0.974034
1.09688
1.00616
1.0817
0.952936
0.825339
1.13939
1.09038
0.919533
1.18779
0.801448
0.962663
1.03711
0.890254
1.10611
0.864139
1.06032
1.05309
1.02476
1.08965
0.990863
1.06235
0.858229
1.08335
0.974238
1.06423
0.881282
0.879505
1.05955
0.978031
1.08636
0.972084
1.04783
1.08807
0.894818
0.955795
1.0913
1.03727
0.909546
1.11251
0.955437
1.02893
0.871013
1.08777
0.94973
0.914608
1.04129
1.07987
1.02749
0.879082
1.01718
1.06699
1.01519
1.04709
0.879121
1.09498
0.998959
0.814929
1.10449
1.06507
1.01721
1.04835
0.877343
1.04919
0.925013
0.92882
1.09306
1.02766
1.09645
0.941754
0.931278
1.05374
1.05702
0.854585
1.0427
1.06923
0.957857
0.894893
1.07226
1.08391
0.934397
1.05483
0.924128
1.01203
0.856034
1.05747
1.08117
1.00637
0.857838
1.0612
1.08118
1.07042
0.866251
1.07664
0.992685
0.947952
1.08799
0.938125
1.02177
1.06137
1.07221
0.852909
1.02132
1.08573
0.943383
1.04807
0.918
1.06878
1.08641
0.882415
0.960494
0.889438
1.09555
0.982586
1.03506
0.896595
0.94959
1.08293
1.06893
0.867923
1.02497
1.04575
1.0642
0.890626
1.04307
0.961471
1.1014
1.04776
1.04711
0.833377
1.08206
1.09083
0.962495
0.876571
1.06526
1.08757
0.987579
0.960171
0.92638
0.93629
1.05093
0.916526
1.09254
1.03203
1.07618
0.878633
1.01823
1.02498
0.866121
1.0371
1.07705
1.05536
0.857764
1.0796
1.01332
1.11626
0.83034
0.947652
1.11402
0.840861
0.953419
1.08396
1.1169
1.08604
0.901952
1.06217
0.949837
0.908156
1.08597
0.947457
1.05826
0.941162
1.09177
1.0544
0.909264
0.88702
1.01763
1.0852
1.00934
0.936564
1.07568
1.05596
0.932274
1.08127
0.868173
1.02524
1.03899
1.07327
0.956488
0.890197
1.07975
0.951453
1.08097
1.04839
0.920798
1.04713
0.862422
1.07795
1.01869
0.92368
1.05487
1.08178
0.940284
1.07891
1.02674
0.878299
1.02006
0.942604
1.10103
0.983673
0.95742
1.07613
0.959099
1.05134
0.858339
0.932247
1.04047
0.922595
1.101
0.947367
0.917149
1.10253
1.03012
0.909694
0.94633
1.08731
1.05688
0.955579
0.906019
1.08646
1.05334
1.03557
0.890655
1.08719
0.982521
1.02799
0.893585
0.98759
1.08759
0.89133
1.02796
0.988493
1.08835
1.08673
0.954327
0.91436
1.03838
0.902138
1.02342
0.978435
1.09016
1.13411
0.786988
1.09919
0.987868
0.999205
1.06868
1.12575
0.806334
0.88817
1.01635
1.01308
1.08335
0.877575
1.1541
1.01937
0.900207
1.04081
1.0795
0.909476
0.968375
0.830082
0.961313
1.06169
1.14583
0.863091
1.07781
1.04775
1.01196
1.02725
0.87936
0.98031
1.10897
1.05777
1.05141
1.03299
0.860813
1.03281
0.881158
1.10712
0.97555
1.05662
1.05116
0.865828
1.02923
0.849141
1.1239
0.93041
1.10156
1.13556
0.917166
0.820569
1.12432
0.893318
1.08767
0.981129
1.02416
1.07988
0.933964
0.927832
1.05705
0.870883
1.02153
1.03261
1.07909
0.995478
0.933359
1.08738
0.959184
0.957585
1.0907
0.909993
1.0339
1.0288
0.884131
1.1124
0.971328
1.05704
1.05501
0.864719
1.02478
1.03268
1.01979
1.07721
0.873428
1.08002
1.03593
0.922611
0.959252
1.07106
0.913466
0.974939
1.03884
0.892381
1.07937
0.980686
1.04542
0.924411
1.05658
0.93006
1.08655
1.0478
1.05522
1.04847
0.856824
1.12167
0.957619
1.06012
0.861151
0.893759
1.05866
0.967689
1.0733
0.964982
1.10194
1.06452
0.867594
1.03606
1.03147
1.0741
0.86372
0.915196
1.04579
1.07964
0.954383
0.915393
1.03417
0.956452
1.08572
1.08222
1.06783
0.949287
0.897015
1.08928
0.942923
0.904598
1.06019
0.924352
1.0086
0.962351
1.07873
1.03542
0.891816
1.0105
1.06935
1.02463
0.893721
1.01017
1.07516
1.01633
1.10583
0.912371
0.962263
1.06815
0.864546
1.03683
1.03589
1.04426
0.937912
0.91855
1.09492
1.08942
0.975247
0.899232
1.03106
1.09615
1.04529
0.930217
0.924052
1.08944
0.976893
0.895507
1.03261
0.94375
0.913438
1.04473
1.09396
0.910313
0.950223
1.04308
1.09201
0.988577
0.89282
1.10092
0.96937
1.09961
0.931314
0.927954
1.03773
0.895223
0.985442
1.11192
1.00363
1.06897
0.920526
1.03745
0.971013
0.998308
1.06178
1.08168
0.864725
1.07547
1.0775
0.972872
0.876749
0.955638
1.0607
1.08598
0.893472
1.071
0.867777
1.0843
0.967777
0.88516
1.00932
1.02129
1.08433
0.908751
1.04059
1.06598
0.982974
1.08896
0.882779
1.00697
1.01101
0.809151
1.20182
1.12217
0.751565
0.990683
1.03589
0.885604
1.07914
1.07577
1.04157
1.02563
0.86316
1.07811
0.895159
1.07424
0.950055
1.08109
1.0032
0.859749
1.06179
0.977364
1.04865
1.09087
0.886236
0.868452
1.08676
1.05536
0.994958
0.862358
1.08215
1.00769
1.05523
0.872748
1.0657
0.96668
1.09468
1.06503
1.00701
0.852936
1.08202
1.03514
1.0659
1.0265
0.876742
0.885024
0.98473
1.09027
1.03539
0.979547
1.05545
1.07131
0.884273
0.993088
1.0891
1.01833
0.895292
1.06308
1.04594
0.989289
0.900246
0.896467
1.0843
1.06554
0.950173
0.898426
1.06012
1.08828
0.949339
1.03475
0.864941
1.03281
1.07279
0.864563
1.03015
1.03746
1.07216
1.20955
0.796868
1.09126
0.817327
1.0708
0.892982
0.961272
1.06918
0.893441
1.0185
1.08798
0.996674
0.850495
1.04971
1.06097
1.04784
0.869033
1.06439
0.964682
1.10237
0.99035
0.888979
1.03429
1.08445
0.864121
1.03166
1.06699
1.04182
0.870549
1.05883
1.01566
1.06419
0.95586
1.0913
0.894356
1.05442
0.93745
1.07837
1.05542
0.928051
0.81529
1.10826
0.96204
1.12863
0.859733
1.05944
1.08416
1.00271
0.972937
1.08827
0.898297
1.0365
1.06692
0.871238
1.01866
1.05106
0.854675
1.06246
0.989414
1.09874
1.06513
0.87127
1.01743
1.04764
0.956788
1.10278
0.896388
1.04042
1.06558
0.857755
1.08991
0.991541
0.919731
0.942302
1.08363
1.05462
1.06892
1.037
1.03745
0.862245
0.952214
1.08364
1.06379
0.896004
1.08555
1.03937
0.911332
0.966164
0.967659
1.04482
0.901032
1.08354
1.01492
0.891811
1.01268
1.08135
1.07708
1.03616
0.9153
0.969727
1.09892
0.981155
0.857046
1.06605
1.045
0.95893
1.08699
0.906303
1.04154
0.952664
1.0911
0.911673
1.07484
1.0442
0.956915
0.925879
0.861089
1.08136
1.03274
1.03694
1.04422
0.864898
1.02531
1.06866
0.848939
1.09641
1.03915
1.02602
0.895993
1.08967
0.981789
1.02673
1.0195
0.900699
1.09056
0.982996
1.03838
0.892077
1.01075
1.06621
1.02025
1.0789
1.01261
0.891677
1.07543
1.07974
0.96079
0.884191
0.896616
1.04994
1.09651
0.952982
0.871396
1.08509
1.06092
0.987333
0.895287
1.05647
0.953366
1.09158
0.867509
1.02878
1.03753
1.07044
1.02061
1.05923
1.05525
0.865893
1.02513
0.885188
1.11547
0.970617
1.07297
1.03472
0.881709
1.01604
0.862579
1.0376
1.0661
1.03929
0.863294
1.04073
1.03683
1.06557
0.89384
1.05968
0.957221
1.08432
0.893648
1.06324
0.958123
1.08017
0.870248
1.08072
0.987619
1.06621
0.991422
1.04698
0.874244
1.09135
1.07367
0.902108
1.00797
1.02161
0.980115
1.03849
1.08479
0.893712
)
;

boundaryField
{
    insideCircle
    {
        type            zeroGradient;
    }
    outsideCircle
    {
        type            zeroGradient;
    }
    topAndBottom
    {
        type            empty;
    }
}


// ************************************************************************* //
