/*--------------------------------*- C++ -*----------------------------------*\
| =========                 |                                                 |
| \\      /  F ield         | foam-extend: Open Source CFD                    |
|  \\    /   O peration     | Version:  3.0                                   |
|   \\  /    A nd           | Web:         http://www.extend-project.de       |
|    \\/     M anipulation  |                                                 |
\*---------------------------------------------------------------------------*/
FoamFile
{
    version     2.0;
    format      ascii;
    class       volVectorField;
    location    "7";
    object      u;
}
// * * * * * * * * * * * * * * * * * * * * * * * * * * * * * * * * * * * * * //

dimensions      [0 0 0 0 0 0 0];

internalField   nonuniform List<vector> 
576
(
(0.05201 -0.0242338 2.32958e-20)
(0.141587 -0.0253157 4.31609e-20)
(0.226748 -0.0412756 -4.48739e-19)
(0.364502 -0.0396127 -3.23662e-19)
(0.478406 -0.042788 4.37644e-19)
(0.547781 -0.0429357 4.11133e-19)
(0.686061 -0.0387703 4.94281e-19)
(0.737151 -0.0368231 8.9539e-19)
(0.835852 -0.0304422 3.58483e-19)
(0.889763 -0.0244094 3.39632e-19)
(0.947602 -0.0158918 6.48502e-19)
(0.987604 -0.00603798 -2.95816e-19)
(0.0645575 -0.0708597 6.37575e-20)
(0.154762 -0.0748852 -2.77812e-18)
(0.248141 -0.121332 -2.11337e-18)
(0.384961 -0.116623 -6.10041e-19)
(0.500651 -0.126194 1.103e-18)
(0.570045 -0.126509 -1.69926e-19)
(0.706147 -0.114348 2.68402e-19)
(0.756289 -0.108672 6.18718e-18)
(0.851674 -0.0898805 4.9437e-18)
(0.902492 -0.0721107 -1.77634e-19)
(0.955903 -0.0469773 -4.05601e-18)
(0.990756 -0.0178928 -3.76924e-18)
(0.088709 -0.112565 -1.38539e-19)
(0.180339 -0.119166 1.27754e-18)
(0.289483 -0.193175 -7.00456e-19)
(0.424763 -0.185707 -3.97028e-18)
(0.543764 -0.20099 -1.97529e-18)
(0.613265 -0.20152 4.56393e-18)
(0.745258 -0.182136 6.38625e-18)
(0.793464 -0.173099 3.01297e-18)
(0.88241 -0.143139 8.74945e-18)
(0.927154 -0.114831 2.96044e-18)
(0.97195 -0.0747898 2.261e-18)
(0.996866 -0.0284962 8.43199e-18)
(0.122806 -0.146727 -2.52369e-19)
(0.216538 -0.155436 5.86316e-19)
(0.348057 -0.251875 -1.94332e-18)
(0.481127 -0.24215 2.93616e-18)
(0.60478 -0.262071 -5.73241e-18)
(0.674414 -0.262774 -1.99308e-18)
(0.800539 -0.237527 4.85985e-19)
(0.846021 -0.225743 7.91416e-18)
(0.925873 -0.186672 6.88093e-18)
(0.962032 -0.149738 8.66056e-18)
(0.994654 -0.097516 8.24328e-18)
(1.00552 -0.0371543 1.8721e-17)
(0.164598 -0.170831 -2.4128e-19)
(0.260855 -0.18099 -6.84768e-19)
(0.419806 -0.293347 -2.93147e-19)
(0.550132 -0.28209 6.20452e-19)
(0.679495 -0.305297 2.65713e-18)
(0.749336 -0.306132 -7.37155e-18)
(0.868261 -0.276722 -5.29404e-18)
(0.91039 -0.262985 -1.40138e-17)
(0.979088 -0.217471 -1.34153e-17)
(1.00471 -0.174434 -3.3972e-18)
(1.02244 -0.113599 -6.35719e-18)
(1.01611 -0.043286 -1.93768e-17)
(0.211201 -0.183372 2.43557e-19)
(0.310293 -0.1943 1.24389e-18)
(0.499909 -0.314892 1.91661e-19)
(0.62717 -0.302841 -3.09084e-18)
(0.762871 -0.327726 -3.85955e-19)
(0.832937 -0.328629 -2.48942e-18)
(0.943817 -0.297075 -5.36614e-18)
(0.982208 -0.282317 -5.59001e-19)
(1.03847 -0.233466 -7.84138e-18)
(1.05234 -0.187253 -1.19507e-17)
(1.05345 -0.121946 8.60426e-19)
(1.02793 -0.0464688 -6.94318e-18)
(0.259459 -0.183405 2.91228e-19)
(0.361466 -0.194323 8.46731e-19)
(0.582836 -0.31493 5.8111e-18)
(0.706935 -0.302927 9.62593e-19)
(0.849188 -0.3278 2.20365e-19)
(0.919505 -0.328704 -1.40845e-18)
(1.02205 -0.297156 6.36551e-19)
(1.05657 -0.282378 2.74436e-18)
(1.09995 -0.233525 -1.47543e-20)
(1.10165 -0.187295 2.73144e-18)
(1.08556 -0.121975 -3.41799e-19)
(1.04017 -0.0464828 -4.22211e-18)
(0.306091 -0.170962 2.14425e-19)
(0.410925 -0.181136 9.49689e-19)
(0.662969 -0.293527 3.77735e-18)
(0.78403 -0.282382 -2.50906e-18)
(0.932594 -0.305539 5.95187e-18)
(1.00315 -0.306374 -4.13458e-18)
(1.09764 -0.276985 -3.39261e-18)
(1.12841 -0.263187 -3.54105e-19)
(1.15935 -0.217664 -9.07141e-18)
(1.14929 -0.174567 3.83807e-18)
(1.11658 -0.113689 2.37052e-18)
(1.052 -0.0433267 8.41754e-18)
(0.347911 -0.14687 3.60076e-19)
(0.455286 -0.155608 7.21289e-19)
(0.734818 -0.252123 -2.13543e-18)
(0.853175 -0.242594 2.94336e-18)
(1.00739 -0.262461 -3.38314e-18)
(1.07816 -0.263164 5.76037e-18)
(1.16543 -0.237938 -2.03077e-18)
(1.19282 -0.226054 -1.29551e-17)
(1.2126 -0.186964 -1.16925e-17)
(1.192 -0.149937 -5.09642e-18)
(1.14439 -0.0976516 -9.4737e-18)
(1.0626 -0.0372154 9.52321e-18)
(0.382066 -0.112776 6.53379e-19)
(0.491534 -0.119483 1.43316e-18)
(0.793497 -0.193552 3.69787e-20)
(0.909664 -0.186283 3.1567e-18)
(1.06848 -0.201509 1.20697e-19)
(1.13943 -0.202027 4.38001e-18)
(1.22079 -0.182687 6.27977e-18)
(1.24543 -0.173522 -2.49804e-18)
(1.2561 -0.143527 2.30542e-18)
(1.22688 -0.115091 5.0214e-18)
(1.16711 -0.0749607 2.95981e-18)
(1.07126 -0.0285665 -4.34756e-18)
(0.406226 -0.0710017 1.20888e-19)
(0.517195 -0.0752152 -8.35609e-20)
(0.835009 -0.121802 1.31121e-18)
(0.949646 -0.117283 -2.03997e-18)
(1.1117 -0.126834 1.83503e-18)
(1.18278 -0.127128 2.25338e-20)
(1.25997 -0.114997 -3.53679e-19)
(1.28264 -0.109171 6.05032e-18)
(1.28687 -0.0903164 5.92459e-18)
(1.25155 -0.0724053 8.41859e-18)
(1.18317 -0.0471638 1.24739e-17)
(1.07738 -0.0179703 -1.42611e-18)
(0.418743 -0.0243974 -6.95502e-20)
(0.530523 -0.0258176 -1.49069e-18)
(0.85653 -0.0417619 -9.26079e-19)
(0.970401 -0.0402927 1.6175e-18)
(1.13413 -0.0435233 -1.05744e-18)
(1.20526 -0.0435704 1.8041e-19)
(1.2803 -0.0394778 -9.81362e-19)
(1.30193 -0.0373857 1.36788e-18)
(1.30282 -0.030957 4.03672e-19)
(1.26433 -0.0247899 1.06599e-18)
(1.1915 -0.0161553 1.29948e-18)
(1.08056 -0.00614908 2.18146e-18)
(0.418763 0.0238583 -4.90315e-20)
(0.530607 0.025346 1.20835e-18)
(0.856597 0.0411173 1.33498e-18)
(0.970518 0.0394429 1.88532e-18)
(1.13423 0.0427508 1.37773e-18)
(1.20535 0.0429567 2.08973e-19)
(1.28038 0.0387268 1.59108e-18)
(1.30199 0.0369449 -2.72668e-18)
(1.30286 0.0305074 -3.41571e-18)
(1.26436 0.0245118 -3.95425e-18)
(1.19152 0.0159523 -4.1572e-19)
(1.08057 0.00609149 1.37961e-18)
(0.406288 0.0704746 3.60305e-19)
(0.517442 0.0747895 -1.1298e-18)
(0.835208 0.121189 -9.03765e-20)
(0.949989 0.116492 9.71515e-19)
(1.11199 0.126112 3.24229e-18)
(1.18305 0.126559 4.57672e-19)
(1.26023 0.11429 -3.94526e-18)
(1.28281 0.108758 -2.75735e-18)
(1.287 0.0898901 -5.46071e-18)
(1.25163 0.0721414 -4.27969e-18)
(1.18323 0.0469715 6.46772e-19)
(1.07741 0.0179175 -3.80253e-18)
(0.382169 0.112273 -2.76339e-20)
(0.491925 0.119143 -2.63563e-18)
(0.793821 0.192998 -5.77864e-19)
(0.910215 0.185604 -4.38296e-18)
(1.06893 0.200879 5.86551e-19)
(1.13986 0.201542 -4.23675e-19)
(1.2212 0.182065 2.36112e-18)
(1.24569 0.173161 1.19962e-18)
(1.25631 0.143146 2.86111e-18)
(1.227 0.114854 2.86837e-18)
(1.1672 0.0747893 -8.02156e-19)
(1.0713 0.0285231 -8.80947e-18)
(0.348051 0.146404 -6.43732e-19)
(0.455796 0.155384 1.43418e-18)
(0.735258 0.25165 -2.36088e-18)
(0.853907 0.24207 -4.46857e-19)
(1.00799 0.261959 -5.16469e-18)
(1.07874 0.262795 4.94114e-18)
(1.16596 0.237432 8.13613e-18)
(1.19318 0.225766 6.57423e-18)
(1.21288 0.186645 1.50147e-17)
(1.19217 0.149739 1.15218e-17)
(1.14451 0.0975102 -3.0737e-18)
(1.06265 0.037186 5.90419e-18)
(0.30626 0.17054 -4.30841e-19)
(0.411515 0.18104 -1.37772e-18)
(0.66351 0.293148 -4.45971e-18)
(0.784902 0.28204 3.65275e-18)
(0.933318 0.305189 -7.46006e-19)
(1.00385 0.306144 2.24834e-18)
(1.09828 0.27662 2.31632e-18)
(1.12883 0.262989 3.89545e-18)
(1.15968 0.217425 8.697e-18)
(1.14949 0.17442 6.2604e-18)
(1.11672 0.113586 5.22183e-18)
(1.05206 0.0433157 1.94512e-17)
(0.259645 0.183038 -5.7441e-19)
(0.362102 0.194363 -1.57128e-18)
(0.583465 0.314664 -1.82458e-18)
(0.707902 0.302791 -1.95575e-18)
(0.850001 0.327621 7.24449e-19)
(0.920291 0.328635 -2.28916e-18)
(1.02276 0.296957 -4.68045e-18)
(1.05705 0.282292 -1.12021e-17)
(1.10032 0.233387 3.19754e-18)
(1.10188 0.187216 -4.66056e-18)
(1.08572 0.121922 -8.69983e-19)
(1.04024 0.0464949 -6.88645e-18)
(0.211385 0.183045 -1.02408e-19)
(0.310924 0.194444 4.03043e-20)
(0.500579 0.314732 -5.72871e-19)
(0.628156 0.302907 -4.00274e-19)
(0.763717 0.327728 -2.67636e-18)
(0.833758 0.328736 -5.39474e-19)
(0.944549 0.297056 -5.38707e-18)
(0.982721 0.282361 1.34594e-17)
(1.03886 0.233445 1.2261e-17)
(1.05258 0.187253 -7.37569e-18)
(1.05361 0.121949 2.90816e-18)
(1.028 0.0465068 -4.46574e-18)
(0.164767 0.170562 -3.4437e-19)
(0.261468 0.181278 -3.6426e-19)
(0.4205 0.293347 4.85623e-18)
(0.551097 0.282381 -2.38319e-18)
(0.680346 0.3055 1.68801e-18)
(0.750149 0.306438 -4.39772e-18)
(0.86898 0.276913 3.76491e-18)
(0.910906 0.263191 1.11432e-17)
(0.979476 0.217594 -2.1656e-18)
(1.00495 0.174531 -5.94476e-18)
(1.02259 0.113667 -7.73744e-18)
(1.01618 0.0433509 -1.61401e-17)
(0.122969 0.146438 -2.97866e-19)
(0.217105 0.155761 1.64015e-18)
(0.348685 0.251966 -5.23816e-19)
(0.481977 0.242612 -1.53624e-18)
(0.60557 0.262454 6.20557e-19)
(0.675161 0.263262 -6.20037e-18)
(0.8012 0.237898 8.65004e-19)
(0.8465 0.226088 5.84865e-19)
(0.926219 0.186915 -1.2099e-17)
(0.962235 0.149916 -8.14207e-18)
(0.994776 0.0976396 -1.18582e-17)
(1.00557 0.0372423 -2.23078e-18)
(0.0888393 0.11232 1.49715e-19)
(0.180859 0.119633 -1.37244e-20)
(0.290028 0.193409 -7.39104e-19)
(0.425505 0.18631 1.93292e-18)
(0.544483 0.201523 -4.32303e-18)
(0.613903 0.202152 2.93382e-18)
(0.745828 0.182672 -2.63657e-18)
(0.793892 0.173582 -1.23007e-17)
(0.882718 0.143498 -9.62754e-18)
(0.92735 0.115086 -1.34001e-17)
(0.972055 0.0749593 -7.23908e-18)
(0.99691 0.0285974 1.45491e-17)
(0.0647036 0.0705312 7.57482e-19)
(0.155198 0.0753559 2.31335e-18)
(0.248526 0.121668 1.06807e-18)
(0.385531 0.117313 -1.19687e-18)
(0.501249 0.12686 1.94316e-18)
(0.570551 0.12727 -5.47355e-19)
(0.706637 0.114998 -1.38359e-19)
(0.756668 0.109251 -2.15688e-18)
(0.851937 0.0903037 3.13986e-20)
(0.902668 0.0724143 -1.76747e-18)
(0.955979 0.0471721 -2.87019e-18)
(0.990781 0.0180053 -6.04626e-18)
(0.0522064 0.0239204 1.19262e-19)
(0.141873 0.0259471 1.97656e-19)
(0.227007 0.0416315 1.77812e-19)
(0.364778 0.040322 -5.90366e-19)
(0.478813 0.0435531 -1.15216e-18)
(0.548056 0.0437215 1.19415e-19)
(0.686298 0.0394891 -7.63948e-19)
(0.737362 0.0374787 -5.30585e-19)
(0.835973 0.0309565 -1.34567e-18)
(0.889872 0.0248101 9.89707e-19)
(0.947643 0.0161717 -1.12917e-18)
(0.987602 0.00618806 -1.60397e-18)
(0.0521991 -0.0243359 -2.34849e-20)
(0.141789 -0.025226 -4.0883e-20)
(0.226936 -0.041246 4.5063e-19)
(0.364659 -0.0394152 3.25039e-19)
(0.478703 -0.0427205 -4.36458e-19)
(0.547953 -0.0428004 -4.09283e-19)
(0.686196 -0.0387098 -4.9224e-19)
(0.737291 -0.0368428 -8.93911e-19)
(0.835914 -0.0304989 -3.58365e-19)
(0.889833 -0.0244828 -3.4002e-19)
(0.947615 -0.0159291 -6.48296e-19)
(0.987589 -0.00604909 2.9564e-19)
(0.0646817 -0.070949 -6.43102e-20)
(0.154953 -0.074676 2.78085e-18)
(0.248318 -0.121317 2.11498e-18)
(0.385181 -0.116465 6.12616e-19)
(0.500927 -0.126081 -1.09921e-18)
(0.570248 -0.126399 1.73226e-19)
(0.706336 -0.114269 -2.67227e-19)
(0.756459 -0.108649 -6.18645e-18)
(0.851763 -0.0898743 -4.94247e-18)
(0.902554 -0.0721051 1.79264e-19)
(0.955896 -0.0469428 4.05627e-18)
(0.990745 -0.0178721 3.76837e-18)
(0.0888033 -0.112742 1.38122e-19)
(0.180466 -0.119033 -1.27713e-18)
(0.289695 -0.193123 7.00048e-19)
(0.424947 -0.185576 3.97052e-18)
(0.543969 -0.200848 1.97505e-18)
(0.61342 -0.201378 -4.56286e-18)
(0.745347 -0.18204 -6.38343e-18)
(0.793558 -0.173046 -3.01075e-18)
(0.88244 -0.143123 -8.74698e-18)
(0.927167 -0.114811 -2.95823e-18)
(0.971922 -0.0747557 -2.26014e-18)
(0.996853 -0.0284754 -8.43081e-18)
(0.12292 -0.146868 2.52385e-19)
(0.216591 -0.155274 -5.85293e-19)
(0.348247 -0.251773 1.94357e-18)
(0.481245 -0.242038 -2.93582e-18)
(0.604896 -0.261926 5.73266e-18)
(0.674527 -0.262626 1.99489e-18)
(0.80057 -0.237403 -4.84738e-19)
(0.846061 -0.225646 -7.91267e-18)
(0.925853 -0.186618 -6.87877e-18)
(0.961994 -0.149692 -8.65923e-18)
(0.994601 -0.0974726 -8.2422e-18)
(1.0055 -0.0371363 -1.87196e-17)
(0.164706 -0.170999 2.41028e-19)
(0.260864 -0.180931 6.84941e-19)
(0.419984 -0.293269 2.93141e-19)
(0.550238 -0.282005 -6.19411e-19)
(0.679555 -0.305153 -2.65568e-18)
(0.749405 -0.305971 7.37234e-18)
(0.868241 -0.276586 5.29465e-18)
(0.91039 -0.262863 1.40141e-17)
(0.979045 -0.217393 1.34145e-17)
(1.00466 -0.174369 3.39591e-18)
(1.02239 -0.113545 6.35664e-18)
(1.01609 -0.0432646 1.93753e-17)
(0.211313 -0.183493 -2.43752e-19)
(0.310269 -0.194253 -1.24431e-18)
(0.500017 -0.314784 -1.91836e-19)
(0.627226 -0.302753 3.0909e-18)
(0.762859 -0.327583 3.86229e-19)
(0.832952 -0.328459 2.48972e-18)
(0.943748 -0.296919 5.36506e-18)
(0.98216 -0.282163 5.58918e-19)
(1.03839 -0.233351 7.84254e-18)
(1.05227 -0.187161 1.19504e-17)
(1.05339 -0.121879 -8.60471e-19)
(1.02791 -0.0464428 6.94305e-18)
(0.259565 -0.183498 -2.91292e-19)
(0.361438 -0.194335 -8.46732e-19)
(0.582891 -0.314851 -5.81149e-18)
(0.70696 -0.302867 -9.62903e-19)
(0.84913 -0.327687 -2.20138e-19)
(0.919472 -0.328556 1.40838e-18)
(1.02195 -0.297016 -6.3649e-19)
(1.05648 -0.282228 -2.74316e-18)
(1.09985 -0.233406 1.48593e-20)
(1.10156 -0.187196 -2.73133e-18)
(1.08549 -0.121905 3.42037e-19)
(1.04014 -0.0464543 4.22225e-18)
(0.306174 -0.171014 -2.14396e-19)
(0.410884 -0.181171 -9.49749e-19)
(0.662959 -0.293466 -3.77714e-18)
(0.784009 -0.28234 2.50955e-18)
(0.932491 -0.305459 -5.95101e-18)
(1.00307 -0.306256 4.13422e-18)
(1.09751 -0.276869 3.39214e-18)
(1.12829 -0.263055 3.5381e-19)
(1.15922 -0.217552 9.07018e-18)
(1.14918 -0.174472 -3.83817e-18)
(1.1165 -0.113621 -2.37065e-18)
(1.05197 -0.0432983 -8.41737e-18)
(0.347962 -0.146892 -3.60188e-19)
(0.455239 -0.155658 -7.21448e-19)
(0.734766 -0.252087 2.13571e-18)
(0.85312 -0.242571 -2.9439e-18)
(1.00726 -0.262412 3.38282e-18)
(1.07805 -0.263078 -5.75985e-18)
(1.16528 -0.237851 2.0298e-18)
(1.19269 -0.225949 1.29533e-17)
(1.21248 -0.18687 1.16912e-17)
(1.19189 -0.149854 5.09561e-18)
(1.14432 -0.0975926 9.4731e-18)
(1.06257 -0.0371896 -9.52333e-18)
(0.382083 -0.112776 -6.53405e-19)
(0.491479 -0.119536 -1.43293e-18)
(0.793417 -0.193533 -3.6608e-20)
(0.909586 -0.186269 -3.15623e-18)
(1.06834 -0.201479 -1.20322e-19)
(1.13931 -0.201963 -4.37977e-18)
(1.22065 -0.18262 -6.27883e-18)
(1.2453 -0.173437 2.49778e-18)
(1.25598 -0.143448 -2.30599e-18)
(1.22678 -0.115019 -5.02191e-18)
(1.16704 -0.0749097 -2.96042e-18)
(1.07123 -0.028544 4.34711e-18)
(0.406212 -0.0709906 -1.20965e-19)
(0.517136 -0.0752645 8.35974e-20)
(0.834917 -0.121794 -1.31078e-18)
(0.949557 -0.11727 2.04017e-18)
(1.11157 -0.126813 -1.83489e-18)
(1.18266 -0.127075 -2.22696e-20)
(1.25984 -0.114937 3.54013e-19)
(1.28252 -0.109097 -6.04955e-18)
(1.28676 -0.0902445 -5.92408e-18)
(1.25146 -0.0723404 -8.4179e-18)
(1.18311 -0.0471172 -1.24735e-17)
(1.07736 -0.0179503 1.42613e-18)
(0.418703 -0.024384 6.95739e-20)
(0.530461 -0.0258623 1.49069e-18)
(0.856437 -0.0417581 9.26335e-19)
(0.97031 -0.040276 -1.61693e-18)
(1.13401 -0.0435006 1.05756e-18)
(1.20516 -0.0435165 -1.80307e-19)
(1.28018 -0.0394139 9.81532e-19)
(1.30183 -0.0373104 -1.36742e-18)
(1.30273 -0.030883 -4.03135e-19)
(1.26426 -0.0247239 -1.06543e-18)
(1.19145 -0.0161079 -1.29888e-18)
(1.08054 -0.00612977 -2.18127e-18)
(0.418706 0.0238687 4.90558e-20)
(0.530544 0.0253041 -1.20791e-18)
(0.85651 0.04112 -1.33446e-18)
(0.970429 0.039466 -1.88457e-18)
(1.13412 0.0427796 -1.37728e-18)
(1.20527 0.0430172 -2.08736e-19)
(1.28029 0.0388022 -1.59067e-18)
(1.30191 0.0370295 2.72669e-18)
(1.30279 0.0305915 3.41546e-18)
(1.2643 0.0245856 3.95413e-18)
(1.19148 0.0160059 4.15851e-19)
(1.08056 0.00611243 -1.37944e-18)
(0.406219 0.07048 -3.60206e-19)
(0.517381 0.0747473 1.12948e-18)
(0.835132 0.121193 9.04867e-20)
(0.949905 0.116521 -9.70929e-19)
(1.1119 0.126147 -3.24115e-18)
(1.18297 0.126628 -4.57355e-19)
(1.26015 0.11438 3.9452e-18)
(1.28274 0.108856 2.75734e-18)
(1.28694 0.0899885 5.45991e-18)
(1.25158 0.0722273 4.27875e-18)
(1.1832 0.0470355 -6.47186e-19)
(1.0774 0.017942 3.80246e-18)
(0.382093 0.112275 2.76732e-20)
(0.491867 0.119097 2.63488e-18)
(0.793757 0.193003 5.77689e-19)
(0.910135 0.185638 4.38185e-18)
(1.06885 0.200917 -5.86037e-19)
(1.1398 0.201614 4.2441e-19)
(1.22113 0.182165 -2.36058e-18)
(1.24564 0.17327 -1.19957e-18)
(1.25626 0.143257 -2.8611e-18)
(1.22696 0.114952 -2.86871e-18)
(1.16717 0.0748643 8.01509e-19)
(1.07128 0.0285519 8.80939e-18)
(0.34797 0.146405 6.43584e-19)
(0.45574 0.155327 -1.43372e-18)
(0.735203 0.251657 2.36027e-18)
(0.853825 0.242102 4.46256e-19)
(1.00792 0.261994 5.16321e-18)
(1.07869 0.262863 -4.94032e-18)
(1.1659 0.237534 -8.13412e-18)
(1.19313 0.225878 -6.57268e-18)
(1.21284 0.186762 -1.50124e-17)
(1.19213 0.149843 -1.15201e-17)
(1.14448 0.0975917 3.07356e-18)
(1.06263 0.0372172 -5.90422e-18)
(0.306172 0.170547 4.30678e-19)
(0.41146 0.18097 1.37757e-18)
(0.663461 0.293157 4.45823e-18)
(0.784814 0.282067 -3.65117e-18)
(0.933243 0.305215 7.45102e-19)
(1.00381 0.306198 -2.24823e-18)
(1.09822 0.276712 -2.31574e-18)
(1.1288 0.263092 -3.89477e-18)
(1.15965 0.217536 -8.69393e-18)
(1.14946 0.17452 -6.25739e-18)
(1.11669 0.113665 -5.22031e-18)
(1.05204 0.0433458 -1.9449e-17)
(0.259543 0.183052 5.74272e-19)
(0.362044 0.194271 1.57105e-18)
(0.583412 0.314671 1.82431e-18)
(0.707796 0.302801 1.95512e-18)
(0.849912 0.327631 -7.23672e-19)
(0.920247 0.328666 2.28838e-18)
(1.0227 0.297028 4.68039e-18)
(1.05703 0.282377 1.11992e-17)
(1.10031 0.233481 -3.198e-18)
(1.10186 0.187302 4.66067e-18)
(1.0857 0.12199 8.70856e-19)
(1.04022 0.0465213 6.88684e-18)
(0.211265 0.183072 1.02292e-19)
(0.310861 0.194331 -3.95994e-20)
(0.500516 0.314746 5.73627e-19)
(0.628029 0.302902 4.00338e-19)
(0.763608 0.327731 2.67562e-18)
(0.833712 0.328746 5.40008e-19)
(0.944488 0.297113 5.3859e-18)
(0.982704 0.282434 -1.34586e-17)
(1.03886 0.233527 -1.22571e-17)
(1.05258 0.187333 7.3751e-18)
(1.05362 0.122011 -2.90756e-18)
(1.02799 0.0465356 4.46562e-18)
(0.164616 0.17059 3.44173e-19)
(0.261394 0.181132 3.64261e-19)
(0.420413 0.293346 -4.85371e-18)
(0.550936 0.282341 2.38314e-18)
(0.680189 0.305488 -1.68621e-18)
(0.750075 0.30642 4.39681e-18)
(0.868887 0.276952 -3.76446e-18)
(0.910869 0.263258 -1.11405e-17)
(0.979477 0.217676 2.1677e-18)
(1.00496 0.174624 5.94581e-18)
(1.02261 0.113747 7.73852e-18)
(1.01619 0.0434004 1.61378e-17)
(0.122802 0.146483 2.97634e-19)
(0.217019 0.155603 -1.63902e-18)
(0.348565 0.251966 5.24407e-19)
(0.48179 0.242539 1.53662e-18)
(0.605353 0.262444 -6.18233e-19)
(0.675055 0.263231 6.20208e-18)
(0.801074 0.237953 -8.64155e-19)
(0.846435 0.22618 -5.84463e-19)
(0.926211 0.187028 1.20982e-17)
(0.96224 0.150051 8.14192e-18)
(0.994797 0.0977581 1.18579e-17)
(1.00559 0.0373229 2.23019e-18)
(0.0886473 0.112357 -1.49407e-19)
(0.180748 0.119439 1.4612e-20)
(0.289864 0.19339 7.39716e-19)
(0.425295 0.1862 -1.92992e-18)
(0.544206 0.201507 4.32307e-18)
(0.613756 0.202078 -2.93116e-18)
(0.745649 0.182699 2.63778e-18)
(0.793761 0.173662 1.23003e-17)
(0.882662 0.143603 9.62812e-18)
(0.927304 0.115225 1.34004e-17)
(0.972051 0.0750839 7.23952e-18)
(0.996913 0.028673 -1.45488e-17)
(0.0645213 0.070553 -7.56688e-19)
(0.155063 0.0751914 -2.30986e-18)
(0.248349 0.121622 -1.06574e-18)
(0.385324 0.117162 1.19826e-18)
(0.500927 0.126802 -1.93973e-18)
(0.570362 0.127157 5.50309e-19)
(0.706438 0.115014 1.40846e-19)
(0.756522 0.109318 2.15987e-18)
(0.851888 0.0904064 -2.90086e-20)
(0.90264 0.0725398 1.76861e-18)
(0.956011 0.0472615 2.87104e-18)
(0.990793 0.0180409 6.04635e-18)
(0.0520287 0.0240216 -1.18582e-19)
(0.141667 0.0257889 -1.96809e-19)
(0.226731 0.041546 -1.76367e-19)
(0.36448 0.0401251 5.936e-19)
(0.478404 0.0435148 1.15395e-18)
(0.547821 0.0436058 -1.17313e-19)
(0.686032 0.0394865 7.6424e-19)
(0.737147 0.0375109 5.30357e-19)
(0.83587 0.0310028 1.34441e-18)
(0.889785 0.0248728 -9.91148e-19)
(0.94764 0.0162374 1.12771e-18)
(0.987596 0.00624913 1.6039e-18)
)
;

boundaryField
{
    out
    {
        type            fixedValue;
        value           uniform (1 0 0);
    }
    in
    {
        type            fixedValue;
        value           uniform (0 0 0);
    }
    frontAndBack
    {
        type            empty;
    }
}


// ************************************************************************* //
