/*--------------------------------*- C++ -*----------------------------------*\
| =========                 |                                                 |
| \\      /  F ield         | foam-extend: Open Source CFD                    |
|  \\    /   O peration     | Version:  3.0                                   |
|   \\  /    A nd           | Web:         http://www.extend-project.de       |
|    \\/     M anipulation  |                                                 |
\*---------------------------------------------------------------------------*/
FoamFile
{
    version     2.0;
    format      ascii;
    class       volScalarField;
    location    "78";
    object      p;
}
// * * * * * * * * * * * * * * * * * * * * * * * * * * * * * * * * * * * * * //

dimensions      [0 0 0 0 0 0 0];

internalField   nonuniform List<scalar> 
2688
(
-0.2341384122
-0.2148533658
-0.2033244514
-0.1901595833
-0.1829217632
-0.1736035276
-0.1691194363
-0.1623886667
-0.1597392822
-0.1548230764
-0.1534045416
-0.1497836523
-0.1491615733
-0.1464544371
-0.1462849918
-0.1441834762
-0.1441658361
-0.1423955393
-0.1422398169
-0.1405321937
-0.1399349067
-0.1380045023
-0.1366270062
-0.134150124
-0.2334158107
-0.2141908644
-0.2026980845
-0.1895742024
-0.1823593163
-0.173070118
-0.1686004639
-0.1618906599
-0.1592500327
-0.1543490991
-0.1529355154
-0.1493258031
-0.1487062025
-0.1460073335
-0.1458389502
-0.1437437756
-0.1437267113
-0.1419617308
-0.1418069996
-0.140104569
-0.1395096631
-0.1375853469
-0.1362127547
-0.1337440244
-0.2319539321
-0.2128501809
-0.2014300318
-0.1883890889
-0.1812199407
-0.1719896433
-0.1675484837
-0.1608814291
-0.1582578218
-0.1533883367
-0.1519840842
-0.1483977604
-0.1477825154
-0.1451013443
-0.1449344901
-0.1428532185
-0.142836734
-0.141083527
-0.1409302211
-0.1392390707
-0.1386483088
-0.136736607
-0.13537298
-0.1329204651
-0.2297670337
-0.2108440221
-0.199532044
-0.1866145294
-0.179513481
-0.1703705704
-0.1659718149
-0.1593678625
-0.15676953
-0.1519460877
-0.150555621
-0.1470031366
-0.1463942334
-0.1437382726
-0.1435735166
-0.1415117349
-0.1414959121
-0.1397590905
-0.1396077273
-0.1379324385
-0.1373477689
-0.1354541844
-0.1341040068
-0.1316751032
-0.2268523186
-0.208170196
-0.1970023879
-0.1842495025
-0.1772391208
-0.1682129316
-0.163870521
-0.1573510838
-0.1547862384
-0.1500247444
-0.1486524416
-0.1451458027
-0.144545149
-0.1419236665
-0.1417615224
-0.1397266582
-0.139711549
-0.1379974572
-0.1378485002
-0.1361950525
-0.1356182189
-0.1337491157
-0.1324163561
-0.1300186434
-0.2232288505
-0.2048457242
-0.1938568059
-0.1813080923
-0.1744102071
-0.1655285657
-0.1612560599
-0.154841026
-0.1523177083
-0.1476324376
-0.1462826276
-0.1428320717
-0.1422415867
-0.1396619625
-0.1395029713
-0.1375005395
-0.1374862128
-0.1357994285
-0.1356533692
-0.1340263357
-0.1334592296
-0.1316201555
-0.130309207
-0.1279502933
-0.2188979219
-0.2008723391
-0.1900973347
-0.1777928711
-0.1710294374
-0.1623208673
-0.1581318363
-0.1518420127
-0.1493682173
-0.1447746081
-0.1434515526
-0.1400687151
-0.1394902521
-0.1369614494
-0.1368061028
-0.134843273
-0.1348297714
-0.1331764163
-0.1330337139
-0.1314388706
-0.1308832551
-0.1290803438
-0.1277952407
-0.1254822329
-0.2138834461
-0.1962713746
-0.1857437275
-0.1737216216
-0.1671136689
-0.1586049974
-0.1545125039
-0.1483670809
-0.145950558
-0.1414624064
-0.1401702871
-0.1368650864
-0.1363005151
-0.1338297099
-0.1336785559
-0.1317607141
-0.1317481222
-0.1301326823
-0.1299937802
-0.1284356207
-0.1278931686
-0.1261318937
-0.1248765583
-0.1226169776
-0.2081907715
-0.1910483948
-0.1808017087
-0.169100401
-0.1626689845
-0.1543875532
-0.1504046033
-0.1444235059
-0.1420719039
-0.1377039698
-0.1364468442
-0.1332303773
-0.1326814336
-0.1302771417
-0.1301306035
-0.1282645221
-0.1282528392
-0.1266810523
-0.1265463945
-0.1250302889
-0.1245028335
-0.1227889092
-0.1215676225
-0.1193682993
-0.2018483287
-0.1852287918
-0.175294821
-0.1639505125
-0.1577156091
-0.1496869188
-0.1458259306
-0.1400274203
-0.1377481225
-0.1335135596
-0.1322954365
-0.1291771899
-0.1286457032
-0.1263148224
-0.1261734861
-0.1243643721
-0.1243537406
-0.1228299478
-0.1226999716
-0.1212302256
-0.1207192277
-0.1190578414
-0.1178739395
-0.1157421388
-0.1948655106
-0.1788219085
-0.1692324035
-0.158281403
-0.1522628917
-0.1445127492
-0.1407859853
-0.1351888462
-0.1329890401
-0.1289017368
-0.127726395
-0.1247167783
-0.1242043189
-0.1219547933
-0.1218189784
-0.120073091
-0.1200634292
-0.118592859
-0.1184679148
-0.1170493286
-0.1165564632
-0.1149526136
-0.113810042
-0.1117515793
-0.1872748338
-0.1718568336
-0.1626414726
-0.1521176264
-0.1463341906
-0.1388864541
-0.1353055433
-0.1299268814
-0.1278135032
-0.1238858079
-0.1227570482
-0.1198650047
-0.1193733577
-0.1172117418
-0.1170820916
-0.1154044354
-0.1153959864
-0.1139828466
-0.1138634565
-0.1125001859
-0.112026905
-0.1104855688
-0.1093874645
-0.1074096762
-0.1790897076
-0.1643466343
-0.1555349042
-0.1454719247
-0.1399420078
-0.1328206203
-0.1293969172
-0.1242541382
-0.1222338116
-0.1184785672
-0.1173998279
-0.1146349495
-0.1141654835
-0.1120990562
-0.1119757656
-0.1103720373
-0.110364624
-0.1090136489
-0.1089000544
-0.1075964342
-0.1071442409
-0.1056698853
-0.1046198889
-0.1027275598
-0.1703462182
-0.1563236493
-0.1479427889
-0.1383717492
-0.1331125123
-0.1263393911
-0.1230835937
-0.1181924296
-0.1162715608
-0.1127001496
-0.1116749785
-0.10904555
-0.1085999834
-0.1066348772
-0.1065186357
-0.1049935971
-0.1049875579
-0.1037028458
-0.1035956509
-0.102355824
-0.1019261739
-0.1005237964
-0.09952488851
-0.09772538765
-0.1610617495
-0.1478046045
-0.1398814565
-0.1308330416
-0.1258612546
-0.1194581768
-0.1163805846
-0.1117568472
-0.1099414085
-0.1065654725
-0.1055969189
-0.1031116039
-0.1026910809
-0.1008338434
-0.1007247156
-0.09928348611
-0.09927855587
-0.09806439769
-0.09796376615
-0.09679173257
-0.09638606122
-0.09505979103
-0.09411555923
-0.09241274906
-0.1512753565
-0.1388245669
-0.1313835982
-0.1228857234
-0.1182168134
-0.1122034783
-0.109313724
-0.1049715656
-0.1032673487
-0.1000971466
-0.09918845111
-0.09685474715
-0.09646088026
-0.09471710202
-0.09461578781
-0.09326276543
-0.09325933445
-0.09211960584
-0.09202616244
-0.0909259777
-0.09054565152
-0.08930051256
-0.08841365463
-0.08681501811
-0.1410083424
-0.1294038397
-0.1224689024
-0.1145488338
-0.110197684
-0.1045934302
-0.1019006301
-0.09785407668
-0.09626633157
-0.09331216922
-0.09246595998
-0.09029151218
-0.08992521431
-0.08830065651
-0.0882070957
-0.08694678903
-0.08694451104
-0.08588302172
-0.08579685665
-0.08477210987
-0.0844185091
-0.08325814762
-0.08243222963
-0.08094047438
-0.1303020686
-0.1195796402
-0.1131721295
-0.1058542791
-0.1018343899
-0.09665644834
-0.09416904475
-0.0904304802
-0.08896430159
-0.08623516279
-0.08545431446
-0.0834456939
-0.08310842277
-0.08160798262
-0.08152283488
-0.0803590859
-0.08035833876
-0.0793784794
-0.07930013962
-0.07835445622
-0.07802868693
-0.07695782895
-0.07619500178
-0.07481790952
-0.1191816676
-0.1093757379
-0.1035162083
-0.09682407509
-0.09314825688
-0.08841328789
-0.08613910622
-0.0827206046
-0.08138046683
-0.07888520975
-0.07817191558
-0.07633567873
-0.07602812763
-0.074656734
-0.07457983607
-0.07351649147
-0.07351686277
-0.07262185823
-0.07255135287
-0.0716876941
-0.07139103323
-0.07041249783
-0.06971619582
-0.0684550388
-0.1076901033
-0.09883088345
-0.09353739785
-0.08749158941
-0.08417124597
-0.07989379243
-0.07783997265
-0.0747519818
-0.07354220544
-0.07128840142
-0.0706451125
-0.06898677651
-0.06871019964
-0.06747191768
-0.06740383997
-0.06644400724
-0.06644579884
-0.06563829196
-0.06557598448
-0.06479715894
-0.06453025498
-0.0636480222
-0.06301953176
-0.06188227485
-0.09585620722
-0.08797216367
-0.08326171393
-0.07788166192
-0.07492737268
-0.0711212119
-0.06929420101
-0.06654670548
-0.06547095374
-0.06346592648
-0.06289440476
-0.0614193892
-0.06117429177
-0.06007319317
-0.06001371741
-0.05916055829
-0.05916334609
-0.05844592724
-0.05839179622
-0.05770002875
-0.05746408001
-0.05667998972
-0.05612256437
-0.0551091997
-0.08372382599
-0.07683923024
-0.07272632671
-0.06802858073
-0.06544950933
-0.06212631077
-0.06053184997
-0.05813322019
-0.05719497183
-0.05544476694
-0.05494698926
-0.05365966327
-0.053447056
-0.05248629512
-0.05243586778
-0.0516916861
-0.05169565697
-0.05107014257
-0.05102430437
-0.05042145537
-0.05021652841
-0.0495335331
-0.04904737319
-0.04816517386
-0.07132529591
-0.06546228332
-0.06196013671
-0.05795981254
-0.0557641781
-0.05293466823
-0.05157775789
-0.04953577877
-0.04873786392
-0.04724820573
-0.0468255182
-0.04573013517
-0.04555038116
-0.04473317139
-0.04469159093
-0.04405889028
-0.04406370345
-0.04353211859
-0.04349463772
-0.04298234187
-0.04280968811
-0.04222894725
-0.04181724547
-0.04106588837
-0.05870463889
-0.05388125064
-0.05100064285
-0.04771002958
-0.04590464029
-0.04357746737
-0.04246237219
-0.04078322546
-0.0401282262
-0.03890355084
-0.03855741623
-0.03765714368
-0.03751098195
-0.03683955844
-0.03680713166
-0.03628747596
-0.03629320586
-0.03585670562
-0.03582748665
-0.03540690124
-0.03526609588
-0.03478958965
-0.03445156535
-0.0338361286
-0.04589743095
-0.04212917896
-0.03987936829
-0.03730907181
-0.03589968587
-0.03408239451
-0.03321261618
-0.03190180158
-0.03139170045
-0.03043608294
-0.0301674482
-0.02946535144
-0.02935304666
-0.02882976741
-0.02880637437
-0.02840164621
-0.02840810454
-0.02806825812
-0.02804748394
-0.02771992008
-0.02761220026
-0.02724095384
-0.02697957245
-0.02650054547
-0.03294719189
-0.03024567244
-0.02863358295
-0.02679148228
-0.02578246823
-0.02448057764
-0.02385884793
-0.02292027891
-0.02255672262
-0.02187293407
-0.02168272139
-0.02118074057
-0.02110274489
-0.02072894936
-0.02071476108
-0.02042589422
-0.02043309942
-0.02019064402
-0.02017821344
-0.01994450391
-0.01986952349
-0.01960486106
-0.01941944815
-0.0190792396
-0.01989238936
-0.01826628698
-0.01729710344
-0.01618915751
-0.01558373974
-0.01480151814
-0.01442980051
-0.01386662765
-0.01365073671
-0.0132411605
-0.01312992338
-0.01282990796
-0.01278640882
-0.01256357978
-0.01255858127
-0.01238682248
-0.01239471573
-0.01225077151
-0.01224677705
-0.01210799678
-0.01206628967
-0.01190925624
-0.01180111758
-0.01160043677
-0.006775420157
-0.006229746533
-0.005906453062
-0.005536036104
-0.005336091789
-0.005075862866
-0.004955323649
-0.004769144929
-0.004701610841
-0.00456732159
-0.004535430962
-0.004438077812
-0.004429238244
-0.004357821441
-0.004362062441
-0.00430773781
-0.004316352627
-0.004271273318
-0.004275866152
-0.004232541692
-0.004224605236
-0.00417599125
-0.004146247239
-0.004086135193
0.006362792323
0.00582629357
0.005502655614
0.005134310927
0.004928136197
0.004665438613
0.004534403438
0.004342831174
0.004261769057
0.004120116786
0.004072513796
0.003966607632
0.003940687309
0.00386013077
0.003846572449
0.003782930134
0.003773555591
0.003719250493
0.003706184649
0.003653501588
0.003628220645
0.003567863071
0.003520520574
0.003440039122
0.01948153157
0.01786449452
0.0168949146
0.01578897736
0.01517731595
0.0143925877
0.01401038497
0.01344179317
0.01321239841
0.01279543463
0.01266851254
0.01235990324
0.01229934173
0.01206728781
0.01204448446
0.01186323674
0.01185309104
0.01169962027
0.0116778418
0.01152930004
0.01147000085
0.01130105047
0.01117500713
0.01095533952
0.03253793456
0.02984557736
0.02823317499
0.02639315904
0.02537796112
0.02407362359
0.02344144342
0.02249749269
0.02212043052
0.02142925816
0.02122330738
0.02071268554
0.02061750866
0.02023436186
0.02020218043
0.01990356867
0.01989250889
0.01964005691
0.01960969137
0.0193654526
0.01927305017
0.0189955538
0.01879303479
0.01843346371
0.04549345312
0.04173403862
0.03948376169
0.03691536141
0.03549975355
0.03367990331
0.03279970917
0.03148344057
0.03095991059
0.02999684598
0.02971256509
0.02900173139
0.02887232046
0.02833949739
0.02829813187
0.02788327906
0.02787138629
0.02752089259
0.02748189121
0.02714296237
0.02701712099
0.02663273685
0.02635309191
0.02585775005
0.05830386699
0.05348950468
0.05060859841
0.0473200348
0.04550855013
0.04317894585
0.04205351908
0.04036901021
0.03970060474
0.03846852232
0.03810667989
0.03719763607
0.0370342016
0.03635309447
0.03630242546
0.03577234887
0.03575942218
0.03531173395
0.03526416203
0.03483133537
0.03467292949
0.034182259
0.03382771186
0.03319545458
0.07093322263
0.06507870709
0.0615760138
0.05757743209
0.05537564375
0.05254352173
0.05117634347
0.04912889192
0.04831771125
0.0468205669
0.04638235122
0.04527810468
0.04508125695
0.04425420102
0.04419451569
0.04355109794
0.04353730085
0.04299408002
0.04293811447
0.04241318284
0.04222245037
0.04162807743
0.04119906042
0.04043545061
0.08333656999
0.07646074113
0.07234754375
0.06765177293
0.0650667526
0.06174115035
0.0601365804
0.05773265245
0.05678122954
0.05502366401
0.05451035902
0.05321423197
0.0529844246
0.0520138102
0.05194507785
0.05119010318
0.05117525816
0.05053796206
0.05047367393
0.04985796253
0.04963574903
0.04893882754
0.04843749479
0.04754198862
0.0954809234
0.08760493083
0.0828938543
0.07751536089
0.07455504969
0.07074624163
0.06890922008
0.06615628564
0.06506757355
0.06305510845
0.06246834917
0.06098448845
0.0607225182
0.05961153396
0.05953408675
0.05867012276
0.05865440814
0.05792530948
0.0578529831
0.05714887025
0.05689576176
0.05609941526
0.0555269115
0.05450539814
0.1073212476
0.09847041599
0.09317664101
0.08713270391
0.08380663435
0.07952683658
0.07746326669
0.0743701219
0.07314759193
0.07088660673
0.07022821581
0.06856125908
0.06826786605
0.06701990943
0.06693386399
0.0659634762
0.06594681207
0.06512799126
0.06504781018
0.06425716702
0.06397416687
0.06308018097
0.06243889397
0.06129214868
0.1188278636
0.1090294406
0.1031692164
0.09647843977
0.09279681415
0.08805919972
0.08577540502
0.0823515798
0.08099898085
0.07849646692
0.07776847925
0.07592362451
0.07559974832
0.07421877187
0.07412445625
0.07305079597
0.07303330355
0.07212752007
0.07203974238
0.07116538301
0.07085315883
0.06986499861
0.06915633227
0.06788999587
0.1299562874
0.1192417541
0.1128339675
0.105517865
0.1014925643
0.09631238508
0.09381575266
0.09007228149
0.08859400079
0.0858580232
0.08506280476
0.0830459823
0.08269267237
0.08118308353
0.08108079541
0.07990723783
0.07988897576
0.07889899238
0.07880397441
0.0778484124
0.07750825486
0.07642847549
0.07565532453
0.07427170837
0.1406804578
0.1290828278
0.1221471505
0.1142282289
0.1098715838
0.1042647372
0.1015628844
0.0975112212
0.09591174083
0.0929506484
0.09209058734
0.08990794683
0.08952624737
0.08789266731
0.08778269543
0.08651287914
0.08649387713
0.0854228461
0.08532079124
0.08428720856
0.08391987081
0.08275230197
0.08191642677
0.08042120253
0.1509570483
0.1385135534
0.1310723382
0.1225760756
0.117902169
0.1118867577
0.1089884698
0.1046417617
0.1029263405
0.09974980223
0.09882779179
0.09648650892
0.09607778095
0.09432560864
0.09420844211
0.09284655946
0.09282701969
0.09167841727
0.09156982909
0.09046142488
0.09006837816
0.08881632101
0.0879208608
0.08631739052
0.1607639173
0.1475129289
0.1395890255
0.1305415488
0.1255646831
0.1191591235
0.1160732108
0.11144468
0.1096184684
0.106236067
0.105254806
0.1027618787
0.1023272417
0.1004616751
0.1003375432
0.09888763477
0.09886748842
0.09764478037
0.09752983252
0.09635008861
0.09593226667
0.09459989076
0.09364715253
0.09194139471
0.1700594413
0.1560434683
0.1476624094
0.1380928391
0.1328291198
0.1260541398
0.1227906737
0.1178954204
0.1159644815
0.1123873776
0.1113502492
0.1087140219
0.1082551302
0.1062825102
0.1061520855
0.1046191294
0.1045987149
0.1033060665
0.1031853875
0.1019381557
0.1014971444
0.1000884387
0.09908167167
0.0972778956
0.1788256985
0.1640879931
0.1552755243
0.1452132798
0.1396788045
0.1325551057
0.1291239805
0.1239768237
0.1219469114
0.118185792
0.1170957697
0.114323987
0.1138420171
0.111768035
0.1116314792
0.1100198473
0.1099989949
0.1086401238
0.1085138603
0.1072028645
0.1067397828
0.1052591878
0.1042012302
0.1023055607
0.1870232456
0.1716110546
0.1623955604
0.1518730352
0.1460857211
0.1386363931
0.1350488296
0.1296666294
0.1275445219
0.123611896
0.1224727942
0.1195748618
0.1190717216
0.1169035783
0.1167617189
0.1150771096
0.1150562726
0.113635975
0.1135048653
0.1121345549
0.1116510973
0.1101032581
0.1089974812
0.1070152167
0.1946386808
0.1785995946
0.1690093982
0.1580589373
0.1520364817
0.1442842541
0.1405511147
0.1349501031
0.1327420956
0.1286496218
0.1274646621
0.1244489738
0.1239258927
0.1216697005
0.1215226385
0.1197696997
0.1197486157
0.1182708184
0.1181349813
0.1167092861
0.1162067357
0.1145963175
0.1134460401
0.1113833254
0.2016351311
0.1850205411
0.1750865144
0.1637433723
0.1575052665
0.149475292
0.1456087879
0.1398073615
0.1375208378
0.1332822016
0.1320555505
0.1289324379
0.1283915159
0.1260552252
0.1259038916
0.1240889489
0.1240681411
0.1225381906
0.122398439
0.1209223409
0.1204024867
0.1187347572
0.1175434926
0.1154067141
0.2080040154
0.1908652501
0.1806179445
0.1689169884
0.1624823183
0.154199076
0.1502109171
0.1442265275
0.1418682655
0.1374959629
0.1362310743
0.1330094885
0.1324520195
0.1300421011
0.1298865625
0.128014497
0.1279936391
0.1264156419
0.1262720862
0.1247497027
0.1242139919
0.1224938362
0.1212653598
0.1190606974
0.2137113397
0.1961032912
0.1855756692
0.1735545663
0.166944136
0.1584345135
0.1543377238
0.1481900543
0.1457679179
0.1412766143
0.1399779121
0.1366689508
0.1360971489
0.1336221686
0.1334633884
0.1315410365
0.1315206525
0.1299004026
0.1297538646
0.1281906178
0.1276408838
0.125874107
0.1246120597
0.1223468415
0.2187536299
0.200730715
0.1899551785
0.177650884
0.1708849426
0.1621748721
0.1579818839
0.1516894038
0.1492105976
0.1446134922
0.1432846559
0.139897741
0.1393129915
0.136779723
0.1366177798
0.1346502172
0.1346299685
0.1329717198
0.1328223439
0.1312225147
0.1306603873
0.1288521068
0.1275607049
0.1252413789
0.2230999973
0.2047199256
0.1937311061
0.1811832208
0.1742836065
0.1654013579
0.1611258172
0.154709226
0.1521819577
0.1474944809
0.1461400877
0.1426869059
0.1420914498
0.1395089248
0.1393447331
0.1373391769
0.137319507
0.1356293814
0.1354779158
0.1338472425
0.1332745212
0.131430915
0.130113867
0.1277482804
0.2267523389
0.2080719218
0.1969036705
0.1841507772
0.1771386639
0.1681113105
0.1637662415
0.1572448168
0.1546766631
0.1499125815
0.1485365362
0.1450268971
0.144422249
0.1417974938
0.1416312055
0.1395928882
0.1395735129
0.1378558673
0.1377025388
0.1360454078
0.1354639049
0.1335903061
0.1322522002
0.1298474465
0.2296830271
0.2107620761
0.1994502518
0.186533383
0.1794313512
0.1702881748
0.1658876472
0.1592828201
0.1566821921
0.151857474
0.1504644019
0.1469103952
0.146298737
0.1436410938
0.1434734986
0.1414098868
0.1413911011
0.1396522681
0.1394976983
0.1378200354
0.1372314952
0.1353342486
0.133978864
0.1315427884
0.2318995458
0.2127965423
0.201376025
0.1883349098
0.1811648081
0.1719336978
0.1674911899
0.1608228292
0.1581976176
0.1533264591
0.1519204902
0.1483322322
0.1477152494
0.1450319534
0.1448633424
0.1427797956
0.1427614351
0.1410058338
0.14085035
0.1391565786
0.1385628801
0.1366474572
0.1352794257
0.1328198273
0.233377634
0.2141537504
0.2026611717
0.1895377553
0.1823226087
0.1730334764
0.1685632814
0.1618532576
0.1592119391
0.1543106147
0.1528963238
0.1492861186
0.1486658596
0.1459664095
0.1457973905
0.1437015024
0.1436836794
0.1419177578
0.1417618771
0.1400580207
0.1394610065
0.1375338032
0.1361573157
0.13368198
0.2341305111
0.2148451508
0.2033159834
0.1901506438
0.1829127141
0.1735939278
0.1691098322
0.1623783798
0.1597290932
0.1548120855
0.1533938198
0.1497720099
0.1491503644
0.1464421687
0.1462732289
0.1441704809
0.144153203
0.1423814528
0.1422255907
0.1405161202
0.1399175337
0.1379840967
0.1366032703
0.1341201868
0.2341373506
0.2148522907
0.2033234779
0.1901585447
0.1829210025
0.1736027174
0.1691190415
0.1623881766
0.1597393347
0.1548229939
0.153405192
0.1497841105
0.149162936
0.1464555003
0.1462870269
0.1441850243
0.1441681985
0.1423971091
0.142241683
0.1405326981
0.1399345624
0.1380013798
0.1366210579
0.1341380752
0.2334171662
0.2141919728
0.202699134
0.1895751273
0.1823603767
0.1730710934
0.1686017748
0.1618918633
0.1592517748
0.1543507178
0.1529379219
0.1493280489
0.1487094561
0.1460103257
0.1458430446
0.1437473971
0.1437312623
0.1419654424
0.141811034
0.1401071286
0.1395111838
0.1375839743
0.1362080127
0.1337334431
0.2319526201
0.21284891
0.2014288381
0.188387941
0.1812190023
0.1719887345
0.1675479319
0.1608808462
0.1582577424
0.1533881712
0.1519846142
0.148398133
0.1477837512
0.1451022901
0.1449363476
0.1428545462
0.1428387773
0.1410846521
0.1409314963
0.1392387634
0.1386469634
0.1367321929
0.1353655243
0.132906753
0.2297684704
0.2108452114
0.1995332214
0.1866155843
0.1795147258
0.170371753
0.1659733882
0.159369381
0.156771648
0.1519481493
0.1505585261
0.1470059512
0.1463981035
0.1437419395
0.1435783149
0.1415160819
0.1415011869
0.1397634893
0.1396124171
0.1379355682
0.1373498393
0.1354533317
0.1340998868
0.1316654998
0.2268509192
0.2081688039
0.1970010814
0.1842482145
0.1772380183
0.1682118345
0.1638697262
0.1573502468
0.1547858307
0.1500242456
0.148652532
0.1451457286
0.1445457997
0.1419240133
0.1417626151
0.1397271937
0.1397126173
0.1379975673
0.1378485921
0.1361935606
0.1356156348
0.1337437011
0.1324081706
0.1300051095
0.2232302973
0.204846944
0.1938580497
0.1813092242
0.1744115399
0.1655298475
0.1612577244
0.1548426596
0.1523199161
0.1476346226
0.1462856031
0.1428349966
0.1422454858
0.1396657041
0.1395077431
0.1375049125
0.1374914148
0.1358038223
0.135658011
0.1340295504
0.1334615326
0.1316199243
0.1303062926
0.1279429198
0.2188964095
0.2008708323
0.1900958967
0.177791434
0.1710281286
0.1623195352
0.158130711
0.1518408205
0.1493673218
0.1447736026
0.1434509604
0.1400679469
0.1394899962
0.1369608927
0.1368060633
0.1348427046
0.1348295299
0.1331752893
0.1330324499
0.1314362065
0.130879585
0.1290743791
0.1277870237
0.1254701327
0.2138848615
0.1962725955
0.1857449823
0.1737227734
0.1671149941
0.1586062692
0.154514096
0.1483686427
0.1459525934
0.1414644276
0.1401729555
0.1368677283
0.1363039529
0.1338330434
0.1336827341
0.1317645916
0.1317526941
0.1301366027
0.1299979658
0.1284386266
0.127895594
0.1261323074
0.1248751593
0.1226125045
0.2081891328
0.1910467789
0.1808001313
0.1690988099
0.1626674455
0.1543859603
0.1504030943
0.1444218985
0.1420704219
0.1377023546
0.1364454229
0.1332287791
0.132680095
0.1302755483
0.130129279
0.1282627917
0.1282512626
0.126678816
0.1265440248
0.1250268788
0.1244987003
0.1227831304
0.1215602424
0.1193585948
0.2018496814
0.1852299881
0.1752960431
0.1639516348
0.1577168504
0.1496880928
0.1458273227
0.1400287649
0.1377497859
0.1335151995
0.1322975148
0.1291792593
0.128648321
0.1263174117
0.1261766773
0.1243674391
0.1243573518
0.1228332246
0.1227035902
0.121233149
0.1207220139
0.1190593381
0.1178745032
0.1157408797
0.1948637489
0.1788201953
0.1692306962
0.1582796699
0.1522611283
0.1445109024
0.1407840881
0.1351868181
0.132986948
0.1288994899
0.1277241004
0.124714323
0.1242018486
0.1219521699
0.1218163662
0.1200703279
0.1200606789
0.1185899355
0.1184649883
0.1170461541
0.116553138
0.1149488327
0.1138057791
0.111746858
0.1872761044
0.1718579863
0.1626426333
0.1521186865
0.1463353007
0.1388874764
0.1353066591
0.1299279209
0.1278146742
0.1238869315
0.1227583582
0.1198663133
0.1193749131
0.1172133597
0.1170840109
0.1154064918
0.115398397
0.1139854765
0.1138665309
0.1125035431
0.1120307555
0.1104895938
0.1093919058
0.107413973
0.1790878408
0.1643448454
0.1555330934
0.1454700812
0.1399400575
0.1328185631
0.1293946807
0.1242517417
0.1222311643
0.1184757449
0.1173967126
0.1146316929
0.114161922
0.1120954596
0.1119718942
0.1103683327
0.1103607586
0.1090102842
0.108896816
0.1075941768
0.1071425423
0.1056696314
0.1046207146
0.1027301944
0.1703474009
0.1563247497
0.1479438778
0.138372736
0.1331134791
0.1263402487
0.1230844182
0.1181931437
0.1162722121
0.1127007158
0.1116754614
0.1090460123
0.1086003548
0.1066353623
0.1065190596
0.1049943799
0.1049884153
0.1037044852
0.1035977452
0.1023593378
0.1019308205
0.1005304825
0.09953364649
0.09773612839
0.1610598089
0.1478027717
0.1398795856
0.1308311389
0.1258591868
0.1194559894
0.1163781124
0.1117541948
0.1099383439
0.1065622124
0.10559314
0.1031076799
0.1026865635
0.1008293395
0.1007196163
0.09927872964
0.09927337306
0.09806016629
0.09795963116
0.09678954585
0.09638495398
0.09506187317
0.09412019617
0.09242167723
0.15127646
0.1388256185
0.1313846236
0.122886648
0.1182176609
0.1122042013
0.1093143062
0.1049720076
0.1032675567
0.1000972239
0.09918819595
0.09685441397
0.0964601231
0.09471640486
0.09461463244
0.09326195952
0.09325821562
0.0921193972
0.0920262006
0.09092789231
0.09054899116
0.08930699585
0.08842345265
0.08682884585
0.1410063698
0.1294020038
0.1224670283
0.114546939
0.1101955946
0.1045912249
0.1018980751
0.09785133869
0.09626307103
0.09330869928
0.09246180092
0.09028717288
0.08992003852
0.08829542177
0.08820095205
0.08694086225
0.08693781289
0.08587711057
0.08579077334
0.08476790315
0.08441540686
0.08325870284
0.08243602956
0.08095075247
0.1303031133
0.1195806566
0.113173115
0.1058551708
0.1018351718
0.09665710398
0.0941694915
0.09043077413
0.08896424622
0.08623494375
0.08545358453
0.08344481338
0.08310686013
0.08160633242
0.08152038059
0.08035670006
0.08035522543
0.07937579542
0.07929729748
0.07835283282
0.0780282682
0.07696015024
0.07620093679
0.07482922432
0.1191797104
0.1093739436
0.1035143948
0.09682226378
0.09314625739
0.08841119775
0.08613665655
0.08271799761
0.0813773035
0.078881851
0.07816779622
0.07633135131
0.07602283528
0.07465125241
0.07457323906
0.07350977461
0.07350907462
0.07261417749
0.07254310947
0.07168025622
0.07138425022
0.07040839041
0.06971500637
0.06846157492
0.1076911155
0.09883188344
0.09353837504
0.08749248722
0.08417203243
0.07989447071
0.077840428
0.07475230433
0.07354214745
0.07128819125
0.07064433381
0.06898582344
0.06870846453
0.0674699772
0.0674009301
0.06644084309
0.06644165113
0.06563387798
0.06557104715
0.06479224059
0.06452605811
0.06364518304
0.06301979616
0.06188818552
0.09585431156
0.08797045416
0.08326002299
0.07788000751
0.07492557419
0.07111937234
0.06929205324
0.06654446493
0.06546821578
0.0634630636
0.0628908437
0.06141567025
0.06116966151
0.06006834571
0.0600077729
0.05915427896
0.05915593001
0.05843804781
0.05838312234
0.05769107924
0.05745525194
0.05667244696
0.05611702929
0.05511116197
0.08372483094
0.07684023126
0.0727273249
0.06802952126
0.06545036861
0.06212710169
0.06053246188
0.05813376069
0.05719519658
0.0554449218
0.05494666682
0.05365925877
0.05344598508
0.05248508971
0.05243381534
0.05168936222
0.05169243634
0.05106643434
0.05102004572
0.05041664021
0.05021216267
0.04952955944
0.04904583218
0.04816852824
0.07132350036
0.06546069349
0.06195861823
0.05795837417
0.05576267228
0.05293319254
0.05157608132
0.04953411362
0.04873585059
0.04724620838
0.0468230249
0.04572766146
0.04554725614
0.04473003553
0.04468766157
0.04405483895
0.04405880884
0.04352692636
0.043488814
0.0429762347
0.0428035247
0.04222357298
0.04181307753
0.04106739751
0.05870565416
0.05388226257
0.0510016794
0.04771103445
0.04590561805
0.04357843315
0.04246325036
0.04078412927
0.04012896212
0.03890436819
0.03855798277
0.03765785051
0.03751134448
0.03684010204
0.03680724343
0.0362877561
0.03629305216
0.03585665739
0.03582728429
0.03540682927
0.0352666132
0.03479083188
0.03445482896
0.03384284733
0.04589576109
0.04212773028
0.03987805184
0.0373078831
0.03589852686
0.03408134891
0.03321151505
0.03190084144
0.03139060596
0.03043519697
0.03016637322
0.02946457862
0.02935204403
0.02882917205
0.02880552409
0.02840129925
0.02840752682
0.02806829475
0.02804745849
0.02772074927
0.02761330906
0.02724347014
0.02698304016
0.02650690792
0.03294822215
0.03024669276
0.02863465544
0.0267925476
0.02578357015
0.02448172788
0.02386002534
0.02292159221
0.02255806045
0.02187453564
0.02168437498
0.02118282207
0.02110492459
0.02073175535
0.02071772289
0.02042970858
0.02043715529
0.0201958269
0.020183832
0.01995158619
0.01987738605
0.01961438569
0.01943032147
0.01909134525
0.01989085481
0.01826498424
0.01729599286
0.01618821913
0.01558293197
0.01480090408
0.01442928662
0.01386638244
0.0136505911
0.01324141859
0.01313033421
0.01283091704
0.0127876655
0.01256569491
0.01256106474
0.01239049305
0.01239889131
0.0122565445
0.01225323511
0.01211647406
0.01207564218
0.01192054242
0.0118134406
0.0116128313
0.006776455341
0.006230758522
0.005907536165
0.005537127803
0.005337275213
0.005077141906
0.004956735918
0.004770784168
0.00470345742
0.004569586094
0.004538039076
0.004441357826
0.004433045313
0.004362623491
0.004367589466
0.004314648686
0.004324147155
0.004280897277
0.004286425425
0.004245287931
0.004238030055
0.00419110021
0.004161281245
0.004099562046
-0.006364198049
-0.005827462518
-0.005503582782
-0.005135032237
-0.004928640128
-0.004665687893
-0.004534417151
-0.004342480997
-0.004261116261
-0.004118918578
-0.004070869036
-0.003964159463
-0.003937587375
-0.003855885107
-0.003841443841
-0.003776240147
-0.003765782784
-0.003709477991
-0.003695225758
-0.003640340722
-0.003614058263
-0.003552485899
-0.003504920871
-0.003427494976
-0.01948051457
-0.0178635199
-0.0168938665
-0.01578792032
-0.01517613785
-0.01439129553
-0.01400889331
-0.0134400325
-0.01321031035
-0.01279285499
-0.01266539526
-0.01235600238
-0.01229463021
-0.01206143495
-0.01203753903
-0.01185475824
-0.01184333456
-0.01168798011
-0.01166500595
-0.01151453445
-0.01145476641
-0.01128504952
-0.01116025615
-0.01094395261
-0.0325392316
-0.02984663889
-0.02823396305
-0.02639372442
-0.02537825124
-0.02407363023
-0.02344112476
-0.02249677013
-0.02211927542
-0.0214275073
-0.02122093135
-0.02070945145
-0.02061339347
-0.02022906249
-0.02019573526
-0.01989559389
-0.01988321297
-0.01962898186
-0.01959735119
-0.01935152535
-0.01925846328
-0.01898100538
-0.01877937741
-0.01842489937
-0.0454924853
-0.04173313734
-0.03948280622
-0.03691441617
-0.03549869521
-0.03367875109
-0.03279835189
-0.03148183846
-0.03095795899
-0.02999443549
-0.02970957587
-0.02899801095
-0.0288677316
-0.02833386518
-0.02829134734
-0.02787515819
-0.02786196202
-0.02750997173
-0.02746985018
-0.02712967554
-0.02700364277
-0.02661942514
-0.02634159761
-0.02585000133
-0.0583050844
-0.05349049414
-0.05060930485
-0.04732052146