/*--------------------------------*- C++ -*----------------------------------*\
| =========                 |                                                 |
| \\      /  F ield         | foam-extend: Open Source CFD                    |
|  \\    /   O peration     | Version:  3.0                                   |
|   \\  /    A nd           | Web:         http://www.extend-project.de       |
|    \\/     M anipulation  |                                                 |
\*---------------------------------------------------------------------------*/
FoamFile
{
    version     2.0;
    format      ascii;
    class       volVectorField;
    location    "78";
    object      u;
}
// * * * * * * * * * * * * * * * * * * * * * * * * * * * * * * * * * * * * * //

dimensions      [0 0 0 0 0 0 0];

internalField   nonuniform List<vector> 
2688
(
(0.2835085635 -0.05190010263 7.459320557e-17)
(0.1540113966 -0.04242475625 -1.118974041e-16)
(0.5777463635 -0.03670532965 1.966426714e-16)
(0.4099387601 -0.02818274837 -8.62944434e-17)
(0.7481322591 -0.02687895935 1.132176759e-16)
(0.5769185324 -0.0196118631 -3.301322798e-17)
(0.8540180248 -0.02003890431 9.879858173e-18)
(0.6898625738 -0.01424128364 6.105715993e-17)
(0.9239977437 -0.01501597938 -6.81915926e-17)
(0.7678186725 -0.01073201509 8.74995383e-17)
(0.9727445983 -0.01118505179 -3.044030108e-17)
(0.8220205893 -0.008323848797 4.784752374e-17)
(1.008162526 -0.008176962674 3.099612366e-17)
(0.8594749152 -0.006569968801 -9.168461179e-17)
(1.034677859 -0.005755043787 1.087367872e-16)
(0.8847329072 -0.005193818817 -1.147421755e-16)
(1.054826139 -0.003764736389 1.099865472e-16)
(0.9008654532 -0.004005470972 -7.359516987e-17)
(1.070027173 -0.002115793265 1.80756549e-17)
(0.9100567219 -0.002850452657 2.026364461e-17)
(1.080954975 -0.0007711624973 -3.476472936e-17)
(0.9140001307 -0.001578553076 1.642027792e-17)
(1.087706323 0.0002980092573 -4.267621963e-17)
(0.9141770337 -0.0003979586023 1.534730509e-17)
(0.2950949316 -0.1545387521 -2.356993963e-16)
(0.1634714252 -0.126385335 4.56803217e-18)
(0.585941366 -0.1093390797 -3.961865444e-16)
(0.4162178276 -0.08395466135 4.940631193e-17)
(0.7541346146 -0.08010904091 -1.932872527e-16)
(0.581286479 -0.05843323564 -3.275713476e-17)
(0.8584936923 -0.05976715157 -1.044002702e-17)
(0.6930343016 -0.0424604249 -1.568273772e-16)
(0.9273509658 -0.04483405209 8.455490283e-17)
(0.7702093933 -0.03204494966 -1.392726366e-16)
(0.9752397182 -0.0334480938 7.979088915e-18)
(0.8238767101 -0.02492117162 -1.166014758e-16)
(1.009981894 -0.0245102654 3.247832491e-17)
(0.8609446996 -0.01975936733 1.141439309e-17)
(1.035952411 -0.01731951371 -3.55374389e-17)
(0.8859043671 -0.0157396342 7.565948942e-17)
(1.055655081 -0.01142310495 -6.924566834e-17)
(0.9017836795 -0.01230297116 1.063527683e-17)
(1.070494189 -0.006557882307 1.012488844e-16)
(0.9107274641 -0.009002544329 -1.276666156e-16)
(1.081143894 -0.002619074193 1.257291616e-16)
(0.9143856678 -0.005420196429 -2.801883972e-17)
(1.087706916 0.000414931726 6.438937463e-17)
(0.9142162599 -0.001463517115 2.820894612e-17)
(0.3180874706 -0.2552227818 4.293354655e-16)
(0.1822710985 -0.2086823215 1.10825768e-16)
(0.6022019164 -0.1805368382 4.991808429e-16)
(0.428698423 -0.1385933493 -2.522433686e-17)
(0.7660443774 -0.1322577045 2.4180492e-16)
(0.5899660245 -0.09644051402 1.066397297e-16)
(0.8673774359 -0.09867221259 -4.622613844e-18)
(0.6993369997 -0.07006514207 2.325146554e-16)
(0.9340155846 -0.07402384958 -6.616929514e-17)
(0.7749654576 -0.05287643477 2.172852008e-16)
(0.9802147819 -0.05523505537 2.308969288e-17)
(0.8275787004 -0.04113390511 1.359262829e-16)
(1.013632174 -0.04049022149 -3.521385806e-17)
(0.8638873398 -0.03264437287 -4.481169356e-17)
(1.038535082 -0.02862944698 6.033204531e-17)
(0.8882621711 -0.02606008065 -1.868865086e-16)
(1.057353056 -0.01889690003 2.094994973e-16)
(0.9036537162 -0.02046916576 -1.694218357e-16)
(1.07144043 -0.01083992024 -2.572332018e-17)
(0.912151434 -0.01514851558 4.87753383e-17)
(1.081446788 -0.004265569393 -5.572851141e-17)
(0.9153516939 -0.009415100526 -8.137188534e-17)
(1.087487045 0.0008260957468 -4.009670583e-17)
(0.9146477706 -0.002845552798 -3.568931078e-17)
(0.3522264998 -0.3527088152 -4.669826363e-16)
(0.2101699452 -0.2884331395 -2.819313186e-16)
(0.6263588179 -0.249523984 -6.092403669e-16)
(0.4472267276 -0.1915689515 1.728188814e-17)
(0.7837455669 -0.1828147639 -3.349492594e-16)
(0.6028620211 -0.1333151038 -7.727241362e-17)
(0.8805864056 -0.136406177 -7.452249116e-17)
(0.7087098195 -0.09686984549 -1.929665575e-16)
(0.9439261645 -0.1023463554 -7.11703523e-17)
(0.7820419277 -0.07312237006 -1.772514484e-16)
(0.9876088809 -0.07638286052 -8.329481659e-17)
(0.8330857728 -0.05690105886 -1.578352351e-16)
(1.019049185 -0.05600700114 1.23229097e-16)
(0.8682594181 -0.0451720492 -4.043106839e-17)
(1.042361084 -0.03961887462 8.281279199e-17)
(0.8917535462 -0.03606811815 7.267386814e-17)
(1.059877781 -0.02618264693 -7.928912775e-17)
(0.9063944108 -0.02832345537 7.043946522e-17)
(1.072902367 -0.01508663254 7.897220012e-17)
(0.9141669738 -0.02093925203 -1.142190993e-16)
(1.082071195 -0.006072069326 1.424628021e-16)
(0.9165650167 -0.01299794986 8.774640047e-17)
(1.087499623 0.0008766958994 -2.609227731e-17)
(0.9149072767 -0.003836268053 1.858755744e-16)
(0.3970488536 -0.4457512659 5.00720741e-16)
(0.2468131892 -0.364483385 2.561416018e-16)
(0.658054366 -0.315319216 7.207992651e-16)
(0.4715524094 -0.2420592691 -4.925630312e-17)
(0.8069584847 -0.2310082364 3.278169262e-16)
(0.6197791105 -0.1684361164 1.404058771e-16)
(0.8979000325 -0.1723607861 3.235004258e-17)
(0.7209930486 -0.1223770952 1.989777358e-16)
(0.9569122309 -0.1293219924 1.474360877e-16)
(0.7913083116 -0.09236917324 1.933340515e-16)
(0.9972986399 -0.0965166376 -5.366738351e-17)
(0.8402948347 -0.07187846561 2.646441e-16)
(1.02615445 -0.07077443465 -2.418534382e-16)
(0.8739853702 -0.05707434278 1.841764104e-16)
(1.047387632 -0.05007144994 -2.582826073e-16)
(0.8963354939 -0.04560397452 -5.903836838e-17)
(1.063192577 -0.03308973209 2.080440758e-17)
(0.9100168508 -0.03587960233 -6.301207128e-17)
(1.07478117 -0.01903552466 -3.159180145e-17)
(0.9168979806 -0.02665247551 2.757260623e-17)
(1.082744605 -0.007558363499 -1.324304979e-16)
(0.9183570935 -0.01675310179 -3.591999287e-17)
(1.087222601 0.001324955302 -1.444675305e-16)
(0.9155603459 -0.005162736078 -1.370194321e-17)
(0.4520206006 -0.5331971294 -3.85370274e-16)
(0.2917566791 -0.4360228568 -2.417958105e-16)
(0.6969552244 -0.3772001415 -5.293943839e-16)
(0.5014048332 -0.2895801256 -4.658842319e-17)
(0.8354680903 -0.2763558588 -1.859719727e-16)
(0.6405596746 -0.2015131355 -2.727531838e-16)
(0.9191801534 -0.2062060716 7.324770969e-17)
(0.7360999801 -0.1464211663 -2.754537802e-16)
(0.9728855275 -0.1547256409 -2.880933331e-16)
(0.8027188349 -0.1105305532 2.754825053e-17)
(1.009224935 -0.1154848585 -4.933555569e-18)
(0.8491798853 -0.0860228204 -1.479462672e-16)
(1.034903134 -0.08469156392 9.596173571e-17)
(0.8810427253 -0.06831157817 -9.612152966e-18)
(1.053580899 -0.05992799048 1.156087099e-16)
(0.9019706691 -0.05457487745 1.124157988e-16)
(1.067296233 -0.03962807105 1.700562036e-16)
(0.9144350628 -0.04290317558 -7.688633232e-17)
(1.077174331 -0.02286042761 1.665945885e-16)
(0.9201447496 -0.03180106842 -1.067368314e-16)
(1.083773125 -0.009213561913 2.672979167e-16)
(0.9203405261 -0.01991315171 -8.455004824e-18)
(1.087215582 0.001336758665 2.175858748e-16)
(0.9160859324 -0.006060275049 -1.287505996e-17)
(0.5164265996 -0.6139317333 -5.432636143e-17)
(0.3444065014 -0.5020150964 1.186165416e-16)
(0.7424987097 -0.4342943627 5.385333468e-16)
(0.5363556449 -0.333392946 -5.309055439e-17)
(0.8688209021 -0.3181791171 6.451987229e-17)
(0.6648650918 -0.2319895321 3.007819195e-16)
(0.9440542872 -0.2374100623 7.989832286e-19)
(0.7537460486 -0.1685550004 -1.182100619e-17)
(0.9915391545 -0.178138028 4.299175589e-16)
(0.8160282301 -0.1272313209 -1.950248463e-16)
(1.023139721 -0.1329596283 -1.448825012e-16)
(0.8595308595 -0.09901868081 3.579473794e-16)
(1.045103054 -0.0975086856 -3.110749379e-16)
(0.8892598383 -0.07864079005 3.049903277e-16)
(1.060797356 -0.06899848898 -4.234592831e-16)
(0.9085391448 -0.06285710378 1.968164093e-16)
(1.072068132 -0.04561467372 -3.947154722e-16)
(0.9196131517 -0.04948385062 1.840162063e-16)
(1.079919695 -0.02626010639 -1.974803157e-16)
(0.9240137945 -0.03681431024 8.104979999e-18)
(1.084852472 -0.01043800082 -1.641419426e-16)
(0.9228056734 -0.02326229443 -2.757685105e-16)
(1.087009213 0.001823616455 2.002534788e-16)
(0.9168345802 -0.007280297977 -6.69776009e-16)
(0.5894736205 -0.6869538712 6.153693699e-16)
(0.4041400415 -0.5617536843 -4.186663907e-16)
(0.7941907839 -0.485965925 7.822131749e-17)
(0.5760343515 -0.3730730567 -3.944989131e-16)
(0.9067078699 -0.3560419589 2.587010958e-16)
(0.6924880207 -0.2596070998 -4.368984416e-16)
(0.9723381304 -0.2656667148 2.008620952e-16)
(0.7738301334 -0.1886292833 -5.235544587e-17)
(1.012774856 -0.19934494 -6.232982831e-17)
(0.8312019677 -0.1423938687 8.550354306e-17)
(1.039001408 -0.1487918194 2.400852705e-16)
(0.8713505762 -0.1108282772 -3.314037944e-16)
(1.056745795 -0.1091211811 2.015480025e-16)
(0.8986519377 -0.08802516901 -3.098042616e-16)
(1.069046895 -0.07721719531 4.551709077e-16)
(0.9160405837 -0.07035211848 -4.257485462e-16)
(1.077539715 -0.05105947345 5.556905285e-16)
(0.9254963857 -0.05535515826 -4.395816171e-16)
(1.083105061 -0.02944007469 4.242483793e-16)
(0.9283509393 -0.04111753082 -3.317354926e-16)
(1.086181651 -0.01181689813 5.884586547e-16)
(0.9255096706 -0.02589535454 -2.213195223e-16)
(1.086888241 0.001820394058 1.821750228e-16)
(0.9176677323 -0.008016543067 1.508447539e-16)
(0.6702325933 -0.7513322884 -9.533644417e-16)
(0.4701587811 -0.6143800796 4.406989497e-16)
(0.8512988662 -0.5314974247 -4.354877893e-16)
(0.6198594355 -0.408014271 4.642894712e-16)
(0.9485286592 -0.3894000103 -8.74536546e-17)
(0.7229635644 -0.2839142107 8.620210897e-17)
(1.003525378 -0.2905587938 -1.959035683e-16)
(0.795953915 -0.2062838747 1.339954793e-17)
(1.036159664 -0.2180244568 -1.990716829e-16)
(0.847886238 -0.1557157653 3.829665117e-17)
(1.056441365 -0.1627360398 -4.488384202e-16)
(0.8843237294 -0.1211961711 5.823358696e-16)
(1.069525254 -0.1193490199 -4.908199125e-16)
(0.9089480233 -0.09626928611 6.041242069e-16)
(1.078085743 -0.08445116231 -5.456809188e-16)
(0.9242659582 -0.07697170725 6.243327766e-16)
(1.083523317 -0.05581976679 -5.847952527e-16)
(0.931965289 -0.06063425477 5.460053364e-16)
(1.086581208 -0.03211047578 -2.558345827e-16)
(0.9331430445 -0.04517221086 8.146695108e-17)
(1.087637491 -0.01271619771 -1.207445591e-16)
(0.9284867888 -0.02865135719 -3.273601189e-16)
(1.08680414 0.002316959455 5.198279089e-16)
(0.9184663756 -0.009094667494 -1.057514345e-15)
(0.757693164 -0.8062696456 1.020721811e-15)
(0.5416835644 -0.6593211677 -1.0531717e-15)
(0.9131896839 -0.5703675478 1.207865458e-15)
(0.6673714431 -0.437861434 -8.489322711e-16)
(0.9938922044 -0.417877292 4.845024335e-16)
(0.7560413704 -0.3046842273 -2.279176375e-16)
(1.037393782 -0.3118066263 3.41257452e-16)
(0.8200065801 -0.2213780032 9.024145788e-17)
(1.061592162 -0.2339670372 4.008883301e-16)
(0.8660617794 -0.1671151112 -5.059858439e-17)
(1.075441804 -0.1746334495 4.003884757e-16)
(0.8984865577 -0.1300752476 -3.780946913e-16)
(1.083474852 -0.1280689142 2.720964896e-16)
(0.9202091995 -0.1033295649 -5.876792068e-16)
(1.08796913 -0.09061157072 4.193208468e-16)
(0.9332727444 -0.08262371545 -8.130229171e-16)
(1.090069207 -0.0598806783 6.513629785e-16)
(0.9390521947 -0.06508962396 -8.27440118e-16)
(1.090366882 -0.03444876533 5.0764095e-16)
(0.9384048614 -0.04847717368 -4.392702362e-16)
(1.08917169 -0.01369326661 5.312428463e-16)
(0.9318118456 -0.03069240045 -2.11595088e-16)
(1.086589151 0.002330852859 1.804236313e-16)
(0.9195252418 -0.009607397043 3.576775704e-16)
(0.8507547086 -0.8510640059 -5.442124648e-16)
(0.6177636337 -0.6959434706 6.632045393e-16)
(0.9789995457 -0.6020548827 -5.167309227e-16)
(0.7178759636 -0.4621812505 1.607668909e-16)
(1.042085273 -0.4411001451 -6.784503842e-17)
(0.7911607888 -0.3216065456 -1.894920366e-16)
(1.073331495 -0.3291423497 -2.360947983e-16)
(0.8454999044 -0.2336720261 -3.767610932e-16)
(1.088536171 -0.2469817174 -3.905405446e-16)
(0.885285191 -0.1763941683 -1.403899704e-16)
(1.095531919 -0.1843533854 -4.320949161e-16)
(0.9134327898 -0.137298565 5.342534623e-16)
(1.098189629 -0.1352010141 -5.248651452e-16)
(0.9320721458 -0.1090760238 8.565349956e-16)
(1.098365213 -0.09565517096 -4.73207147e-16)
(0.9427554585 -0.08724360526 9.790365572e-16)
(1.096929509 -0.06319314079 -6.293164456e-16)
(0.9465229796 -0.06878379582 8.534583525e-16)
(1.094314251 -0.03629579024 -3.738686626e-16)
(0.9439577174 -0.05132537593 1.861090284e-16)
(1.090770816 -0.01430474875 -6.624048791e-17)
(0.9352724479 -0.03264474279 -4.837851294e-16)
(1.086426894 0.00269652052 4.582372525e-16)
(0.9204405538 -0.01043788446 -8.675987283e-16)
(0.9482439575 -0.885162075 4.228244684e-16)
(0.6974892152 -0.7238330854 -5.370839699e-16)
(1.047984492 -0.6261731827 5.420130667e-16)
(0.7708346051 -0.4806971071 -2.963787683e-16)
(1.092648778 -0.4587615204 2.709463318e-16)
(0.8280311189 -0.3344848738 1.693578526e-16)
(1.111084237 -0.3423126294 2.122328544e-16)
(0.8723119993 -0.243025765 4.973649048e-16)
(1.116888515 -0.2568566754 4.02130994e-16)
(0.9055488297 -0.1834547146 1.683803539e-16)
(1.11671677 -0.1917157226 2.471559609e-16)
(0.9292274593 -0.1427969118 -3.325543292e-16)
(1.113744183 -0.1405890181 3.970135275e-16)
(0.944639364 -0.1134503594 -6.844981976e-16)
(1.109381444 -0.09945112367 3.67806918e-16)
(0.9528239455 -0.09075300747 -9.795854126e-16)
(1.104209067 -0.06567994343 4.489234161e-16)
(0.9544784963 -0.07156546978 -6.378288004e-16)
(1.098486454 -0.03770372467 2.582910274e-16)
(0.949916057 -0.05341354697 -4.128211252e-16)
(1.092399305 -0.01485531678 4.33200763e-16)
(0.9390905644 -0.0339676361 -1.431358583e-16)
(1.086097882 0.002767768417 2.274789182e-16)
(0.9216928236 -0.01080293777 1.693525252e-16)
(1.048941664 -0.9081262988 -1.191582154e-16)
(0.77981868 -0.7426152268 5.379998781e-17)
(1.119198157 -0.6424288664 -7.086314594e-18)
(0.8254894535 -0.4931777524 -1.77197883e-16)
(1.144800184 -0.470687191 -6.898408931e-17)
(0.8660363418 -0.3431767284 -5.5469561e-17)
(1.149972925 -0.3512261947 -2.556416514e-16)
(0.8998987559 -0.2493464333 -3.908688372e-16)
(1.146042758 -0.2635583643 -2.709309195e-16)
(0.9263486788 -0.1882295316 -1.109593131e-17)
(1.138451155 -0.1967294094 -3.43017742e-16)
(0.9453971413 -0.1465163888 4.981225011e-16)
(1.129657461 -0.1442747281 -7.575501948e-16)
(0.9574721102 -0.1164109084 9.83698294e-16)
(1.120614515 -0.1020623194 -6.984858871e-16)
(0.9630833246 -0.09313507517 9.970375138e-16)
(1.111603528 -0.06739780435 -4.467463841e-16)
(0.9625682129 -0.07347446363 5.304233561e-16)
(1.102706555 -0.03866308882 -4.186097729e-17)
(0.9559447491 -0.05489723164 7.374377736e-17)
(1.094049033 -0.01516806249 -2.540262232e-17)
(0.9428692866 -0.03502195344 -1.594145294e-16)
(1.08583256 0.002993896876 1.695673081e-16)
(0.9227009458 -0.0113469907 -5.027569024e-16)
(1.151571177 -0.9196757245 6.117808621e-17)
(0.8637431506 -0.7520548621 -1.824795693e-17)
(1.191815701 -0.65058512 -5.476542159e-17)
(0.881234289 -0.4994330097 4.624074723e-17)
(1.198024987 -0.4766451632 1.309888275e-16)
(0.9048455904 -0.3475159032 -1.625845353e-16)
(1.189713814 -0.3556555988 3.022420831e-16)
(0.928121458 -0.252488275 6.867246939e-17)
(1.175890972 -0.2668666134 2.612662139e-16)
(0.947680553 -0.1905941586 -1.892633489e-16)
(1.16075753 -0.1991828281 4.264170966e-16)
(0.9620283427 -0.1483546641 -4.784430537e-16)
(1.146039277 -0.146055879 5.86154567e-16)
(0.9707110455 -0.1178748435 -6.844338055e-16)
(1.132218422 -0.1032999607 5.577268749e-16)
(0.9736997315 -0.0943158832 -6.546097726e-16)
(1.119267289 -0.06818616627 2.669243889e-16)
(0.9709739251 -0.07442209429 -2.48795347e-16)
(1.107080445 -0.03907633674 -6.074614931e-17)
(0.9622742017 -0.05563191813 2.518663512e-17)
(1.095704952 -0.01526935018 5.942327783e-17)
(0.9469919249 -0.03554370961 -9.520196554e-18)
(1.085365351 0.003141997863 9.314430411e-17)
(0.9241819969 -0.01160734736 2.432311881e-17)
(1.254855837 -0.9196581773 3.576536527e-18)
(0.9481969574 -0.7520550526 -5.365037747e-17)
(1.264865155 -0.6505947266 -7.239474556e-17)
(0.9373029212 -0.4994496564 2.063356205e-16)
(1.251523492 -0.4766772259 -1.08312652e-16)
(0.9438349452 -0.3475436522 2.819925702e-16)
(1.22960727 -0.3557026665 -2.66357137e-16)
(0.9564218766 -0.2525221843 2.469459924e-16)
(1.205796801 -0.2669229763 -1.590542677e-16)
(0.9690161097 -0.1906302362 2.062183966e-16)
(1.183048847 -0.1992433362 -4.634230564e-16)
(0.9786103447 -0.1483901665 3.883112534e-16)
(1.162355828 -0.1461145178 -3.757369073e-16)
(0.9838647746 -0.117909393 4.002529595e-16)
(1.143732366 -0.1033489938 -5.127528495e-16)
(0.9842058577 -0.09435344292 4.621670083e-16)
(1.126847137 -0.06821543443 -2.741762058e-16)
(0.9792419946 -0.0744739879 1.345854622e-16)
(1.111414153 -0.03907002972 -1.533324286e-17)
(0.9684135135 -0.05572301801 -8.59789361e-17)
(1.097411257 -0.01519746241 -4.124373624e-17)
(0.9508162959 -0.03571845358 5.193040428e-17)
(1.085111162 0.003321484308 -2.157619415e-16)
(0.9251525968 -0.01189007618 2.512086115e-16)
(1.357479402 -0.908080097 -1.317810018e-16)
(1.032107694 -0.7425720484 2.336756352e-16)
(1.337470796 -0.6423799507 -1.677204532e-16)
(0.9930332767 -0.4931309865 -1.983478776e-16)
(1.304736284 -0.470632296 7.327742366e-17)
(0.9826313452 -0.3431257137 -4.104995845e-16)
(1.269338934 -0.3511671462 2.595507998e-16)
(0.9846344288 -0.2492933667 -5.275566561e-16)
(1.23564023 -0.2634949273 9.174721894e-17)
(0.9903417886 -0.188178579 -4.087139844e-16)
(1.205356029 -0.1966585467 5.457873371e-16)
(0.9952408491 -0.1464749724 -4.107547508e-16)
(1.178744394 -0.1441892362 4.167900765e-16)
(0.9971099236 -0.1163915369 -3.47989411e-16)
(1.155347652 -0.101948925 4.303940348e-16)
(0.9948362696 -0.09315663374 -1.486774138e-16)
(1.134522497 -0.06723564352 1.554493193e-16)
(0.9876718623 -0.07356494271 1.002337902e-16)
(1.115787721 -0.03841927152 -7.710373102e-17)
(0.9747918487 -0.05510657205 2.33049587e-16)
(1.099022972 -0.01478724602 -8.266699439e-17)
(0.9550586478 -0.03543852716 5.407696509e-17)
(1.084499301 0.003562487953 6.717932459e-17)
(0.9268920431 -0.01199050918 -2.39320405e-16)
(1.458172177 -0.8850814646 9.419569029e-17)
(1.114454499 -0.7237895121 -1.982912291e-16)
(1.408696426 -0.626142612 1.385243955e-16)
(1.047708864 -0.4806826053 1.588823137e-16)
(1.356903885 -0.4587692067 -1.60839609e-17)
(1.020655019 -0.3344888419 3.797703375e-16)
(1.308241654 -0.3423464102 -9.777828424e-17)
(1.012234974 -0.2430413693 5.185175264e-16)
(1.264802383 -0.2569055859 -7.689073921e-18)
(1.011148644 -0.1834791136 4.64506936e-16)
(1.227089072 -0.1917665207 -3.196698188e-16)
(1.011408451 -0.1428332492 2.112764935e-16)
(1.194645634 -0.140621118 -2.470371037e-16)
(1.009928622 -0.1135126112 2.069502491e-16)
(1.166561927 -0.09943118269 -4.247977782e-16)
(1.005063675 -0.09087304858 2.516429193e-17)
(1.141906489 -0.06555667719 -1.352825957e-16)
(0.9956983657 -0.07180273663 -2.106943885e-16)
(1.120032788 -0.03739986874 1.127822997e-16)
(0.9807072625 -0.05387100798 -1.977894113e-16)
(1.100756985 -0.0142587942 1.940938328e-17)
(0.9586598296 -0.03479598175 1.477420039e-16)
(1.084388833 0.003751384325 -2.90359432e-16)
(0.9276207219 -0.0120136244 5.799313586e-16)
(1.55564358 -0.8509568197 -2.186419208e-16)
(1.194139555 -0.6958610697 4.309290205e-16)
(1.477645848 -0.6019699023 -3.618744205e-16)
(1.100624624 -0.4621087329 3.802309272e-17)
(1.407431141 -0.4410256187 -2.202013759e-17)
(1.057486808 -0.3215368271 -4.242278546e-16)
(1.345965577 -0.3290737109 1.80537714e-16)
(1.039015904 -0.2336044726 -5.832367348e-16)
(1.293137761 -0.2469118261 1.506618313e-16)
(1.0313926 -0.1763337646 -6.038890529e-16)
(1.248271421 -0.184269298 4.058060256e-16)
(1.027201229 -0.137259939 -3.593923628e-16)
(1.210211241 -0.1350784099 3.519381539e-16)
(1.022520628 -0.1090906387 -3.675908944e-16)
(1.177593541 -0.09545047398 5.88322455e-16)
(1.015196482 -0.0873678957 -1.078659677e-16)
(1.149181023 -0.06283637533 2.378029834e-16)
(1.003780379 -0.069105273 1.026477477e-16)
(1.124129289 -0.03568952102 -5.399182689e-17)
(0.9869032153 -0.05196119148 1.499618457e-16)
(1.102151525 -0.01334661671 -1.800805362e-16)
(0.9629240411 -0.03370854908 5.070479467e-17)
(1.083554218 0.004011356153 -1.392044629e-16)
(0.929644132 -0.01180377804 -1.232788835e-16)
(1.648695405 -0.8061301104 2.869650722e-16)
(1.270253516 -0.6592360552 -3.889696944e-16)
(1.543479422 -0.5702981677 4.82242286e-16)
(1.151170269 -0.4378176827 -1.986252292e-16)
(1.455656753 -0.4178602233 8.988392094e-17)
(1.09264412 -0.3046669313 1.77792763e-16)
(1.381932447 -0.3118259677 -3.584632424e-17)
(1.064540007 -0.2213796129 4.173137043e-16)
(1.320099573 -0.2340071172 -1.990714078e-16)
(1.050636554 -0.1671356765 5.18790548e-16)
(1.268360203 -0.1746724263 -2.198651327e-16)
(1.042154989 -0.1301269851 7.904995025e-17)
(1.224898251 -0.1280681868 -4.798822403e-17)
(1.034376142 -0.1034477871 1.565746814e-16)
(1.187934029 -0.09050129192 -3.732704082e-16)
(1.024653017 -0.08288367698 7.143132805e-17)
(1.155973496 -0.05954430995 -1.535536321e-16)
(1.011190717 -0.06562259172 -1.787445133e-16)
(1.128042421 -0.03372056405 9.128276662e-17)
(0.9923167123 -0.04946090361 -8.744495906e-17)
(1.10383209 -0.01241056046 1.042717277e-16)
(0.9660719324 -0.03226633388 1.172680291e-16)
(1.083702806 0.004156426766 -3.3366533e-17)
(0.929902797 -0.01154030979 2.120342104e-16)
(1.736126899 -0.7511701818 -4.037433843e-16)
(1.341713475 -0.6142651893 3.83237076e-16)
(1.605311907 -0.5313821814 -4.663931202e-16)
(1.198613044 -0.4079235677 3.041789697e-16)
(1.500959683 -0.3893113422 -1.792919823e-16)
(1.125658177 -0.2838343046 -5.290310174e-17)
(1.415750131 -0.2904857172 9.880201632e-17)
(1.088538828 -0.206211572 -4.123411493e-16)
(1.345497238 -0.2179530013 2.481622796e-16)
(1.068775374 -0.1556573578 -3.969672965e-16)
(1.287344433 -0.1626433686 1.762205135e-16)
(1.056311853 -0.121174581 -1.416811662e-16)
(1.238845401 -0.1191929501 1.539267912e-16)
(1.045686486 -0.09633791115 -2.319477947e-16)
(1.197803638 -0.0841542213 2.71886904e-16)
(1.033807252 -0.07723176061 -5.334110973e-17)
(1.162429938 -0.05525409019 9.10034727e-17)
(1.018595004 -0.06124112023 1.222127418e-16)
(1.131548332 -0.03111101032 -1.30939071e-16)
(0.9981616417 -0.04628745334 1.181117912e-16)
(1.104760565 -0.0111833342 -2.123783632e-16)
(0.9703269949 -0.03029556633 4.223168299e-17)
(1.082480365 0.004208536276 -1.31546868e-16)
(0.9322418908 -0.01082249582 -6.954073583e-17)
(1.816871704 -0.686763204 2.780479937e-16)
(1.407780532 -0.5616316996 -2.632816796e-16)
(1.662454768 -0.4858613026 2.316335499e-16)
(1.242498082 -0.3730041648 -1.978955656e-16)
(1.54282901 -0.3560008512 1.454399046e-16)
(1.156191494 -0.2595726489 -6.659665523e-17)
(1.446982884 -0.2656707218 -3.468793558e-17)
(1.110713876 -0.1886214277 2.800118298e-16)
(1.36891323 -0.1993751927 -2.533896485e-16)
(1.085501122 -0.1424155704 2.878792318e-16)
(1.304788472 -0.148820444 -7.369704638e-17)
(1.069313683 -0.1108996483 -1.460563559e-17)
(1.251586641 -0.1090962705 1.952120292e-17)
(1.05599653 -0.08819919618 7.760370296e-17)
(1.206751665 -0.07703997072 -6.108040695e-17)
(1.04202766 -0.07074000527 -4.247629419e-17)
(1.168284561 -0.05055830534 6.192140572e-17)
(1.025015677 -0.05614709826 -9.835754707e-17)
(1.134934555 -0.02837531902 1.046388714e-16)
(1.002770962 -0.04253888729 -6.497366328e-17)
(1.106352086 -0.01000779591 1.531908089e-16)
(0.9727726153 -0.02801060513 7.664037283e-17)
(1.083019701 0.00419448025 5.763970465e-17)
(0.9318713407 -0.01026816139 1.685147686e-16)
(1.889878793 -0.6137240612 -1.323720167e-16)
(1.467429579 -0.5018768083 2.911718563e-16)
(1.714067541 -0.4341571882 -1.720837413e-16)
(1.282085497 -0.3332939574 1.782579335e-16)
(1.580632332 -0.3180843363 -1.254420325e-16)
(1.183727776 -0.2319107329 1.086134848e-16)
(1.475193326 -0.2373413562 2.884942228e-17)
(1.130720643 -0.1684907238 -1.58802637e-16)
(1.390092309 -0.1780769304 2.617297354e-16)
(1.100616125 -0.1271876846 -2.553108209e-16)
(1.320613183 -0.132878396 1.533833378e-16)
(1.081113542 -0.09902162041 -6.425123235e-17)
(1.263204775 -0.09735792279 -1.845446934e-17)
(1.065448483 -0.07875254253 -4.609347999e-17)
(1.214950318 -0.06868833883 -1.26842252e-17)
(1.049746846 -0.0631971435 5.239987613e-17)
(1.173573516 -0.04499748015 -1.184454421e-16)
(1.031406539 -0.05023262894 8.122489882e-17)
(1.137610977 -0.02515355164 -9.932209363e-17)
(1.008066891 -0.03813388531 4.033170497e-17)
(1.106628186 -0.008770850221 -1.191372787e-16)
(0.9769554408 -0.02508143018 -6.235304573e-17)
(1.08126662 0.003756899069 -4.036430958e-17)
(0.9345010006 -0.008920505862 -1.523630538e-16)
(1.954267625 -0.5329665867 -1.875868683e-17)
(1.520138205 -0.4358710251 -2.24968446e-16)
(1.759655338 -0.3770660851 -4.174805495e-18)
(1.317111265 -0.2894920508 -7.57877515e-17)
(1.614047594 -0.2762927696 -1.121291492e-18)
(1.208108605 -0.2014664458 -7.448877464e-17)
(1.500128622 -0.206194662 4.924870565e-18)
(1.148438346 -0.1464070149 4.141645196e-17)
(1.408793089 -0.1547465237 -1.780733592e-16)
(1.113989526 -0.1105521831 1.130812778e-16)
(1.334545862 -0.1155105028 -5.977774015e-17)
(1.091514504 -0.08610063587 -4.375552145e-18)
(1.273374973 -0.08467209382 9.391734071e-17)
(1.073689773 -0.06849723743 -3.573429369e-17)
(1.222081303 -0.05976896981 6.917435054e-17)
(1.056285797 -0.05497442475 -3.785360922e-17)
(1.178243411 -0.03916491785 7.054009304e-17)
(1.03642747 -0.04369526817 -2.24977088e-17)
(1.140392744 -0.02186451251 2.442607623e-17)
(1.011477248 -0.03319050253 4.296141571e-17)
(1.10820623 -0.007522788405 -1.53640953e-17)
(0.9783909095 -0.02193627438 1.791334909e-16)
(1.082328313 0.003511926783 -9.491800014e-17)
(0.9335356584 -0.008087602995 2.524285319e-16)
(2.009189107 -0.4455108297 6.819895271e-17)
(1.564984368 -0.36433199 2.661976807e-16)
(1.798459839 -0.3151707909 4.430882516e-18)
(1.346857378 -0.2419627697 1.149669162e-16)
(1.6424551 -0.2309173246 1.284206134e-17)
(1.228785264 -0.1683706981 7.774526296e-17)
(1.521316306 -0.1723077028 7.030634919e-18)
(1.163447624 -0.1223345076 -4.305627132e-17)
(1.424690186 -0.129287741 1.693513002e-16)
(1.12531776 -0.09235259726 -1.153823858e-16)
(1.346416548 -0.09647673883 1.294758231e-16)
(1.100355345 -0.0719077221 -7.566653409e-17)
(1.282084364 -0.07068957866 3.97389601e-18)
(1.08079076 -0.05719804357 -3.251248619e-17)
(1.228212243 -0.04987437392 -2.722036276e-17)
(1.062154162 -0.04591464641 2.826815633e-17)
(1.182135124 -0.03267485006 -4.869031606e-17)
(1.041451418 -0.03651340591 1.565107243e-17)
(1.142156794 -0.01828109463 -3.248191208e-17)
(1.015946324 -0.02772002824 -1.254029798e-17)
(1.107839949 -0.00644011094 -1.827267029e-17)
(0.9823160023 -0.01816742315 -9.81148947e-17)
(1.080107923 0.002554298932 4.753705136e-17)
(0.9362555063 -0.006270734014 -1.379774976e-16)
(2.053993208 -0.3524527624 -8.375200778e-17)
(1.601691322 -0.2882607151 -2.126165202e-16)
(1.830205785 -0.2493686101 -5.574326037e-17)
(1.371266749 -0.1914694272 -8.437279783e-17)
(1.665739174 -0.182733597 -1.728493639e-17)
(1.24578934 -0.1332621645 -8.926306135e-17)
(1.538701881 -0.1363808527 7.377318631e-19)
(1.175816733 -0.09685259303 -1.019902399e-17)
(1.437736889 -0.1023595505 -7.126538041e-17)
(1.134663438 -0.07314106382 1.98194864e-17)
(1.356141479 -0.07641379979 -5.206474923e-17)
(1.107623881 -0.05696800025 7.3210542e-18)
(1.289184626 -0.05602380635 3.938283572e-17)
(1.086525463 -0.04531794155 -3.197757356e-17)
(1.233199252 -0.03956723152 6.654312557e-17)
(1.066623347 -0.03635266466 -3.976074105e-17)
(1.185455086 -0.02597381157 2.568590091e-17)
(1.044690432 -0.02884300569 1.359351128e-17)
(1.144321343 -0.01460107947 1.583351839e-18)
(1.017773712 -0.02180560173 4.998317656e-17)
(1.109480629 -0.005220259115 -3.310754612e-17)
(0.9824954757 -0.01425619801 1.189383711e-16)
(1.081666845 0.001994794623 -8.847246047e-17)
(0.9349468742 -0.005048435081 1.459972279e-16)
(2.088074754 -0.2549659394 1.072636581e-16)
(1.629486559 -0.2085278494 1.71312213e-16)
(1.854257694 -0.1803895713 5.010928842e-17)
(1.389681929 -0.1385094067 9.429232326e-17)
(1.683329415 -0.132181124 2.495643637e-17)
(1.258573067 -0.09639976277 6.45699172e-17)
(1.551809093 -0.09864537894 3.158815669e-17)
(1.185080703 -0.07005669278 -1.08299485e-17)
(1.447561639 -0.0740307146 8.329301291e-17)
(1.141641692 -0.05289866773 -4.959504621e-17)
(1.363472816 -0.05526036508 8.415634762e-17)
(1.113063761 -0.04119429454 -4.290850781e-17)
(1.294565147 -0.04051590419 1.261495335e-17)
(1.090909504 -0.03276241154 -5.7698512e-18)
(1.236988124 -0.02863122366 -1.484735565e-17)
(1.070310934 -0.02627048157 4.50970295e-18)
(1.187824262 -0.01884341162 -1.69125989e-17)
(1.048015689 -0.02081931193 -9.333075156e-18)
(1.145216963 -0.01070000682 -9.096390284e-18)
(1.021061553 -0.01567882771 -2.729082497e-17)
(1.108695607 -0.004032973062 2.569045733e-18)
(0.985801083 -0.01012151939 -6.74612386e-17)
(1.079345434 0.001078993639 4.979044011e-17)
(0.9374302518 -0.003327785778 -1.083269457e-16)
(2.111047651 -0.1542739617 -1.025173374e-16)
(1.648349624 -0.1262033938 -1.18317794e-16)
(1.870567444 -0.1091734441 -8.327607247e-17)
(1.402247602 -0.0838526988 -6.68614211e-17)
(1.695310013 -0.08001666015 -3.532211059e-17)
(1.267341886 -0.05838155073 -5.818956452e-17)
(1.560766014 -0.05973228046 -1.423301604e-17)
(1.191471839 -0.04244581249 -2.871436059e-17)
(1.454290715 -0.04484286579 -2.419903184e-17)
(1.146477883 -0.03206351459 -9.787861178e-18)
(1.368492313 -0.03348904325 -1.867285774e-17)
(1.116817842 -0.02497452291 -8.300054052e-18)
(1.298232287 -0.02457501269 2.037045633e-17)
(1.093828527 -0.01985224472 -2.132324053e-17)
(1.239582578 -0.01740615821 3.302107997e-17)
(1.07246324 -0.01587577691 -1.289193833e-17)
(1.189641954 -0.01154376286 1.606169686e-17)
(1.049294117 -0.01247702597 7.643451667e-18)
(1.146668722 -0.006746526401 6.691662991e-18)
(1.02122994 -0.009197179634 2.485550801e-17)