/*--------------------------------*- C++ -*----------------------------------*\
| =========                 |                                                 |
| \\      /  F ield         | foam-extend: Open Source CFD                    |
|  \\    /   O peration     | Version:  3.0                                   |
|   \\  /    A nd           | Web:         http://www.extend-project.de       |
|    \\/     M anipulation  |                                                 |
\*---------------------------------------------------------------------------*/
FoamFile
{
    version     2.0;
    format      ascii;
    class       volVectorField;
    location    "2";
    object      s;
}
// * * * * * * * * * * * * * * * * * * * * * * * * * * * * * * * * * * * * * //

dimensions      [0 1 -1 0 0 0 0];

internalField   nonuniform List<vector> 
3012
(
(-1.64418 0.0890256 0)
(-1.59847 -0.108649 0)
(-2.01029 0.148185 0)
(-1.52942 0.262086 0)
(-2.95595 0.406968 0)
(-1.59559 0.291079 0)
(-2.88847 -0.258206 0)
(-2.31324 0.180704 0)
(-1.60162 0.100105 0)
(-1.80321 -0.159319 0)
(-1.51651 0.123407 0)
(-1.84965 0.343892 0)
(-1.02906 -0.0564092 0)
(-1.38617 0.0744901 0)
(-1.6292 0.0846779 0)
(-1.01397 0.182424 0)
(-2.91158 0.288078 0)
(-1.63466 0.386338 0)
(-2.79926 -0.336446 0)
(-2.33775 0.220476 0)
(-1.00596 0.349628 0)
(-1.15461 -0.100481 0)
(-1.34631 -0.187902 0)
(-0.931047 0.190833 0)
(-2.10733 0.0846707 0)
(-1.76555 -0.062915 0)
(-1.74836 0.34974 0)
(-1.68377 0.0782439 0)
(-1.34051 0.205788 0)
(-1.55082 0.316933 0)
(-1.08435 0.00269746 0)
(-1.21248 -0.226137 0)
(-1.04086 0.016286 0)
(-1.54671 0.289256 0)
(-1.33604 0.194805 0)
(-1.14952 -0.210853 0)
(-1.88559 -0.0837827 0)
(-2.15266 0.0921396 0)
(-1.70158 0.0741281 0)
(-1.85551 0.358916 0)
(-0.925127 -0.0457263 0)
(-1.53899 0.0773325 0)
(-0.91237 0.168958 0)
(-1.32076 0.0693031 0)
(-1.04117 0.0438921 0)
(-1.13374 -0.190384 0)
(-1.3631 0.176492 0)
(-1.58389 0.257472 0)
(-0.979761 -0.186764 0)
(-1.45088 0.249653 0)
(-1.26253 0.182747 0)
(-0.903165 0.0146241 0)
(-1.62318 0.0925103 0)
(-1.5296 -0.103005 0)
(-1.4669 0.256036 0)
(-1.9793 0.145085 0)
(-2.42622 -0.401967 0)
(-1.78552 0.60033 0)
(-2.65777 0.0401188 0)
(-2.39882 0.259637 0)
(-2.55121 -0.421789 0)
(-1.72879 0.578058 0)
(-2.76301 0.0893548 0)
(-2.39313 0.271721 0)
(-1.0598 -0.028292 0)
(-1.40656 0.0546063 0)
(-1.66183 0.0500214 0)
(-1.05955 0.216953 0)
(-1.52521 -0.0528672 0)
(-0.978943 0.268468 0)
(-0.946591 0.0655657 0)
(-1.30107 -0.0133752 0)
(-1.34538 0.361903 0)
(-1.18082 -0.256977 0)
(-1.03717 -0.0774267 0)
(-1.18394 0.239558 0)
(-1.18731 0.231755 0)
(-1.35275 0.329955 0)
(-1.06995 -0.246511 0)
(-0.954969 -0.0631145 0)
(-1.15431 -0.0269467 0)
(-1.45892 0.0544081 0)
(-1.15671 0.239763 0)
(-1.73718 0.0458127 0)
(-1.4952 0.00882164 0)
(-0.898272 0.213269 0)
(-0.889752 0.0156205 0)
(-1.28392 0.0230062 0)
(-0.950493 -0.0181717 0)
(-1.44577 0.294497 0)
(-1.25739 0.208211 0)
(-1.04968 -0.22158 0)
(-1.8469 -0.153672 0)
(-1.61737 0.0861916 0)
(-1.54089 0.127787 0)
(-1.86297 0.34587 0)
(-1.68343 0.19072 0)
(-2.06161 0.328753 0)
(-1.90753 -0.0787004 0)
(-2.15242 0.00541752 0)
(-1.49701 -0.0638559 0)
(-0.958282 0.271563 0)
(-0.923585 0.0756871 0)
(-1.27899 -0.0217589 0)
(-1.31036 0.364237 0)
(-1.02224 -0.0870274 0)
(-1.16489 -0.259274 0)
(-1.15566 0.242865 0)
(-1.29596 -0.213286 0)
(-0.939004 0.207453 0)
(-1.11627 -0.115215 0)
(-1.0246 0.356045 0)
(-1.37164 0.150284 0)
(-1.59817 0.209984 0)
(-1.07757 -0.151713 0)
(-1.00959 0.0844918 0)
(-1.10204 -0.2569 0)
(-0.963576 -0.127351 0)
(-1.1329 0.371039 0)
(-1.01066 0.252494 0)
(-1.1653 -0.0704444 0)
(-0.828209 0.129908 0)
(-0.874108 0.286449 0)
(-1.35465 -0.126968 0)
(-2.25775 -0.0250629 0)
(-1.7925 -0.0549128 0)
(-2.28154 0.0957344 0)
(-2.07678 0.493587 0)
(-2.76832 0.281344 0)
(-2.37652 0.905147 0)
(-2.51663 -0.163556 0)
(-1.99161 -0.456109 0)
(-2.36021 -0.0289375 0)
(-1.76539 -0.0508834 0)
(-2.20757 0.535096 0)
(-2.3081 0.0737696 0)
(-2.72002 0.350328 0)
(-2.57058 -0.206176 0)
(-2.25552 0.957944 0)
(-2.10245 -0.520284 0)
(-2.08319 0.102025 0)
(-1.67106 0.32336 0)
(-1.66881 0.0776196 0)
(-1.70495 -0.0827809 0)
(-2.54154 -0.118185 0)
(-1.99559 0.751867 0)
(-2.20821 -0.449602 0)
(-2.52283 0.264805 0)
(-2.49254 -0.0662743 0)
(-2.04633 0.748152 0)
(-2.10382 -0.386743 0)
(-2.51556 0.232409 0)
(-0.839847 0.038197 0)
(-1.24481 0.156574 0)
(-0.89651 -0.156131 0)
(-1.42791 0.205633 0)
(-1.01486 -0.196987 0)
(-1.4663 0.263713 0)
(-1.27378 0.189693 0)
(-0.929972 0.00896862 0)
(-1.26434 -0.228256 0)
(-1.09141 -0.121693 0)
(-1.05194 0.36469 0)
(-0.957886 0.221186 0)
(-1.71435 0.0890157 0)
(-2.17587 -0.1023 0)
(-2.24018 0.0831082 0)
(-2.16386 0.405232 0)
(-1.04715 0.0031155 0)
(-1.53092 0.304057 0)
(-1.32456 0.203251 0)
(-1.16346 -0.220997 0)
(-2.48015 0.00782449 0)
(-2.40866 0.19551 0)
(-2.18644 -0.352373 0)
(-1.87224 0.617969 0)
(-1.99987 -0.239965 0)
(-2.39258 0.0617665 0)
(-1.97387 0.600535 0)
(-2.37863 0.116619 0)
(-1.71405 0.0682315 0)
(-2.21375 -0.103906 0)
(-2.25714 0.0824728 0)
(-2.17888 0.430696 0)
(-1.32407 0.381902 0)
(-1.34059 -0.0485005 0)
(-1.20636 0.161063 0)
(-1.59699 -0.182928 0)
(-1.23186 0.181497 0)
(-1.55638 -0.207722 0)
(-1.36935 0.389812 0)
(-1.31233 -0.0516329 0)
(-1.28907 -0.221474 0)
(-1.11036 -0.117136 0)
(-1.05076 0.36439 0)
(-0.959137 0.215917 0)
(-1.3143 -0.221854 0)
(-1.62815 0.3194 0)
(-1.40044 0.194816 0)
(-1.17073 0.0262618 0)
(-1.05014 -0.0121467 0)
(-1.39499 0.0447254 0)
(-1.05478 0.227486 0)
(-1.64627 0.0343372 0)
(-1.05624 -0.0692678 0)
(-1.64963 0.099723 0)
(-1.40196 0.0832224 0)
(-1.03486 0.175652 0)
(-0.849325 -0.125729 0)
(-1.4112 0.168827 0)
(-0.805762 0.0628179 0)
(-1.23273 0.132888 0)
(-0.842163 0.140733 0)
(-1.16862 -0.0759013 0)
(-1.36155 -0.135406 0)
(-0.889047 0.302658 0)
(-1.73526 0.0267489 0)
(-1.1652 0.253761 0)
(-1.15408 -0.0109811 0)
(-1.4558 0.0440975 0)
(-1.12653 -0.264008 0)
(-1.01176 0.251777 0)
(-0.981928 -0.131849 0)
(-1.13453 0.374267 0)
(-1.08362 -0.00980071 0)
(-1.32075 0.209959 0)
(-1.21462 -0.231948 0)
(-1.52353 0.323462 0)
(-0.885185 0.1406 0)
(-1.19424 -0.0705448 0)
(-0.937659 0.308699 0)
(-1.39222 -0.133546 0)
(-1.02094 -0.121377 0)
(-1.16862 0.373272 0)
(-1.04328 0.246617 0)
(-1.17197 -0.258526 0)
(-1.60974 0.331735 0)
(-1.32987 -0.227231 0)
(-1.17778 0.0152841 0)
(-1.38841 0.200142 0)
(-1.01523 0.3468 0)
(-1.17744 -0.0937579 0)
(-1.37499 -0.179813 0)
(-0.941438 0.181683 0)
(-0.950799 0.200085 0)
(-1.33272 -0.203196 0)
(-1.03434 0.356627 0)
(-1.14422 -0.107131 0)
(-1.36504 0.387648 0)
(-1.35519 -0.0413576 0)
(-1.24013 0.162303 0)
(-1.61689 -0.183935 0)
(-1.2554 0.169004 0)
(-1.3931 0.387631 0)
(-1.59979 -0.200458 0)
(-1.34448 -0.0438943 0)
(-2.03514 -0.067568 0)
(-1.71934 0.00378921 0)
(-1.62392 0.142072 0)
(-1.89704 0.357367 0)
(-0.888108 -0.0368715 0)
(-1.19757 0.212372 0)
(-0.978804 -0.221684 0)
(-1.36659 0.290687 0)
(-0.856534 -0.0381283 0)
(-1.46425 0.0702826 0)
(-0.845468 0.156816 0)
(-1.26616 0.0636358 0)
(-1.44725 0.384739 0)
(-1.30283 0.155948 0)
(-1.37667 -0.0270884 0)
(-1.64376 -0.191344 0)
(-0.960452 -0.0467512 0)
(-1.56426 0.0790045 0)
(-0.946895 0.172467 0)
(-1.34072 0.0705164 0)
(-1.02687 -0.0403939 0)
(-1.38551 0.063586 0)
(-1.63037 0.0673562 0)
(-1.01818 0.197115 0)
(-1.66473 0.0786823 0)
(-1.67197 -0.105878 0)
(-1.62046 0.292901 0)
(-2.06205 0.12097 0)
(-0.831373 0.0474125 0)
(-1.42585 0.194306 0)
(-1.24347 0.149091 0)
(-0.884041 -0.145698 0)
(-2.59747 -0.0636276 0)
(-1.70876 0.0114155 0)
(-2.52798 0.539394 0)
(-2.315 0.0551498 0)
(-2.72523 -0.106928 0)
(-2.68927 0.530484 0)
(-1.66636 0.0616707 0)
(-2.31907 0.0699863 0)
(-1.01067 0.0412836 0)
(-1.34692 0.176324 0)
(-1.09838 -0.188793 0)
(-1.56385 0.253174 0)
(-1.48919 0.391893 0)
(-1.33498 0.160885 0)
(-1.38274 -0.0186685 0)
(-1.65273 -0.194164 0)
(-1.06252 -0.162836 0)
(-1.35045 0.159171 0)
(-1.56937 0.223246 0)
(-0.989674 0.0667821 0)
(-1.66019 0.0778319 0)
(-1.67336 -0.0937192 0)
(-1.6245 0.29914 0)
(-2.05649 0.117934 0)
(-2.01942 -0.0647047 0)
(-1.68609 0.00695194 0)
(-1.61452 0.118908 0)
(-1.84183 0.358623 0)
(-1.41241 -0.238991 0)
(-1.2975 0.390013 0)
(-1.1603 0.215385 0)
(-1.20588 -0.0842895 0)
(-0.89223 -0.00159108 0)
(-1.50273 0.0272495 0)
(-1.29079 0.0355358 0)
(-0.895407 0.19953 0)
(-1.08513 0.160424 0)
(-1.29291 -0.0642719 0)
(-1.17506 0.364721 0)
(-1.53003 -0.167488 0)
(-1.66381 0.145061 0)
(-1.93987 0.341067 0)
(-1.80223 -0.0502534 0)
(-2.10924 -0.018507 0)
(-1.51867 -0.00323271 0)
(-0.916436 0.0236184 0)
(-0.929879 0.22678 0)
(-1.3003 0.0164784 0)
(-1.36851 0.33851 0)
(-1.2004 0.233088 0)
(-1.10845 -0.24826 0)
(-0.984994 -0.062063 0)
(-1.37229 0.320944 0)
(-1.20251 0.226436 0)
(-1.05687 -0.240565 0)
(-0.946065 -0.0528054 0)
(-0.957225 -0.0877192 0)
(-1.28935 0.347366 0)
(-1.13707 0.242301 0)
(-1.08061 -0.258127 0)
(-0.867381 0.053039 0)
(-1.45907 -0.0325081 0)
(-0.888339 0.240311 0)
(-1.25328 -0.0051457 0)
(-0.844082 -0.11159 0)
(-1.4156 0.155815 0)
(-0.803401 0.0770319 0)
(-1.23558 0.124011 0)
(-0.81936 0.0136052 0)
(-1.21181 0.169653 0)
(-1.38384 0.222912 0)
(-0.880442 -0.170583 0)
(-0.981221 -0.0834835 0)
(-1.30806 0.349831 0)
(-1.10935 -0.25618 0)
(-1.15327 0.240647 0)
(-0.892287 0.0552497 0)
(-1.479 -0.0363076 0)
(-1.26866 -0.00619255 0)
(-0.915739 0.24651 0)
(-1.40835 0.189784 0)
(-1.49601 -0.22517 0)
(-1.29224 0.0121811 0)
(-1.62051 0.364385 0)
(-1.44626 0.182356 0)
(-1.50955 -0.221373 0)
(-1.6753 0.353897 0)
(-1.30965 0.033724 0)
(-1.61142 -0.132523 0)
(-1.20939 0.351278 0)
(-1.35499 -0.0393125 0)
(-1.12854 0.126472 0)
(-1.22776 -0.0613978 0)
(-1.23992 0.212641 0)
(-1.3986 0.38926 0)
(-1.43561 -0.240225 0)
(-1.06531 0.0584663 0)
(-1.38554 0.168657 0)
(-1.61433 0.248001 0)
(-1.15608 -0.18347 0)
(-1.55666 0.392445 0)
(-1.44859 0.0103711 0)
(-1.40198 0.131714 0)
(-1.75123 -0.166958 0)
(-1.61362 0.381718 0)
(-1.48764 0.0322323 0)
(-1.45625 0.107085 0)
(-1.80617 -0.14969 0)
(-1.18422 -0.0997089 0)
(-1.14177 0.373504 0)
(-1.03875 0.204285 0)
(-1.38554 -0.216819 0)
(-1.30721 0.318973 0)
(-1.25398 0.0446369 0)
(-1.47976 0.0157531 0)
(-1.78052 -0.047185 0)
(-1.0509 -0.0959879 0)
(-1.38981 0.104916 0)
(-1.01438 0.144717 0)
(-1.62888 0.135139 0)
(-2.0332 -0.0721958 0)
(-1.77906 -0.00541986 0)
(-2.18898 0.17875 0)
(-1.81549 0.374763 0)
(-1.32994 0.313019 0)
(-1.50696 0.0287234 0)
(-1.28753 0.0247412 0)
(-1.81957 -0.0225936 0)
(-2.2666 0.663997 0)
(-2.38146 0.00431248 0)
(-1.85999 -0.2164 0)
(-2.53586 0.0879139 0)
(-1.05262 -0.0968383 0)
(-1.134 0.245054 0)
(-1.20838 -0.260368 0)
(-1.28146 0.37709 0)
(-0.915472 -0.211892 0)
(-1.16732 0.209018 0)
(-0.8331 -0.0357028 0)
(-1.32854 0.280293 0)
(-1.22986 0.0718461 0)
(-1.41546 0.0815066 0)
(-0.793821 0.132189 0)
(-0.807226 -0.0545258 0)
(-1.26852 -0.043026 0)
(-0.938778 0.104523 0)
(-0.986327 0.297234 0)
(-1.48722 -0.0994664 0)
(-1.51936 0.0255022 0)
(-1.51589 0.363284 0)
(-1.8561 -0.095343 0)
(-1.4108 0.0645796 0)
(-1.53425 0.0317863 0)
(-1.5138 0.360143 0)
(-1.87869 -0.0770173 0)
(-1.41967 0.0518741 0)
(-1.09736 -0.256404 0)
(-0.959256 -0.121399 0)
(-1.16055 0.370491 0)
(-1.03329 0.255714 0)
(-1.96026 -0.0565295 0)
(-1.64086 0.364749 0)
(-1.58469 0.0599304 0)
(-1.5389 0.0280809 0)
(-0.876698 0.276922 0)
(-0.830369 0.114833 0)
(-1.18134 -0.0594473 0)
(-1.37252 -0.111105 0)
(-1.77999 1.17001 0)
(-2.8801 -1.0129 0)
(-2.99631 -0.708232 0)
(-2.61458 0.685481 0)
(-1.58924 -0.130587 0)
(-1.16521 0.344342 0)
(-1.0903 0.124627 0)
(-1.33834 -0.0440494 0)
(-1.39018 0.213764 0)
(-0.81376 0.0247096 0)
(-0.871927 -0.160455 0)
(-1.2169 0.163373 0)
(-1.91518 0.466978 0)
(-2.27295 0.140001 0)
(-1.85849 -0.102471 0)
(-2.21442 -0.00558223 0)
(-1.56234 0.354003 0)
(-1.92944 -0.0566347 0)
(-1.56681 0.0452417 0)
(-1.47483 0.0276703 0)
(-1.17614 0.380837 0)
(-1.18555 -0.098912 0)
(-1.06521 0.210156 0)
(-1.38824 -0.224592 0)
(-1.19507 -0.070465 0)
(-1.21635 0.222367 0)
(-1.3738 0.391205 0)
(-1.39414 -0.24718 0)
(-1.11119 -0.0364101 0)
(-1.43522 0.0611065 0)
(-1.1074 0.219917 0)
(-1.70099 0.0597662 0)
(-1.70006 0.729596 0)
(-2.82789 -0.547488 0)
(-3.03914 -0.00168224 0)
(-2.42413 0.40732 0)
(-1.38417 -0.242122 0)
(-1.30045 0.389459 0)
(-1.16065 0.22094 0)
(-1.18479 -0.0847599 0)
(-1.06486 0.150418 0)
(-1.29272 -0.0617352 0)
(-1.14862 0.353859 0)
(-1.5282 -0.157352 0)
(-1.27709 0.116841 0)
(-1.79417 0.258626 0)
(-1.40074 -0.177929 0)
(-1.51616 0.151035 0)
(-0.982187 -0.00769786 0)
(-1.47556 0.29218 0)
(-1.2819 0.203885 0)
(-1.08425 -0.217042 0)
(-1.66179 0.158697 0)
(-2.64675 0.458322 0)
(-2.62843 -0.152353 0)
(-2.3065 0.109855 0)
(-0.904408 0.19019 0)
(-1.32766 -0.18483 0)
(-0.974039 0.34436 0)
(-1.14031 -0.102506 0)
(-1.80721 0.272103 0)
(-1.30437 0.115451 0)
(-1.44191 -0.184425 0)
(-1.5264 0.152424 0)
(-0.977404 0.234046 0)
(-1.22438 -0.249252 0)
(-1.05972 -0.130827 0)
(-1.08355 0.370523 0)
(-0.995703 0.230487 0)
(-1.25168 -0.244776 0)
(-1.08134 -0.124639 0)
(-1.10305 0.372061 0)
(-1.70618 0.175377 0)
(-1.11251 0.137705 0)
(-1.44581 0.124714 0)
(-1.17069 -0.128005 0)
(-3.0736 0.270228 0)
(-2.78768 0.984724 0)
(-1.79582 -0.411585 0)
(-2.45581 -0.179231 0)
(-1.39713 0.386615 0)
(-1.34593 -0.250914 0)
(-1.23115 0.229106 0)
(-1.16065 -0.0655873 0)
(-1.67714 0.252629 0)
(-1.13035 0.0793131 0)
(-1.23052 -0.181173 0)
(-1.43088 0.165256 0)
(-1.13883 0.134741 0)
(-1.20556 -0.136571 0)
(-1.46099 0.129609 0)
(-1.7257 0.187778 0)
(-0.861441 0.036803 0)
(-1.25685 0.159801 0)
(-1.44296 0.211918 0)
(-0.92125 -0.160301 0)
(-1.43547 0.384706 0)
(-1.3632 -0.247395 0)
(-1.1766 -0.0535208 0)
(-1.26233 0.225821 0)
(-1.06475 0.0984701 0)
(-1.12581 0.321236 0)
(-1.34961 -0.0317592 0)
(-1.60008 -0.102983 0)
(-1.09039 0.086171 0)
(-1.14895 0.31676 0)
(-1.37316 -0.0231074 0)
(-1.63097 -0.0916556 0)
(-1.18748 0.149733 0)
(-1.4879 0.125651 0)
(-1.2567 -0.131794 0)
(-1.76301 0.186123 0)
(-1.17777 -0.259116 0)
(-1.13137 0.245937 0)
(-1.02929 -0.0954121 0)
(-1.2786 0.37185 0)
(-1.6962 0.257711 0)
(-1.26995 -0.185526 0)
(-1.16283 0.079527 0)
(-1.44603 0.164897 0)
(-1.03383 -0.0814191 0)
(-1.38328 0.0952503 0)
(-1.00368 0.156115 0)
(-1.62073 0.119543 0)
(-1.26282 -0.0366718 0)
(-0.919822 0.0936832 0)
(-0.962163 0.283923 0)
(-1.47761 -0.0872198 0)
(-1.43707 -0.396845 0)
(-3.62827 0.144544 0)
(-3.41758 0.998762 0)
(-2.27316 -0.216725 0)
(-1.21328 0.170729 0)
(-1.27549 -0.120109 0)
(-1.5068 0.116517 0)
(-1.79313 0.170277 0)
(-1.71132 0.294517 0)
(-1.36164 -0.205609 0)
(-1.4598 0.175068 0)
(-1.22386 0.0653721 0)
(-1.46284 0.089547 0)
(-1.78872 0.359361 0)
(-1.54929 0.130362 0)
(-1.73123 -0.182057 0)
(-2.90606 0.169792 0)
(-2.66189 0.847173 0)
(-1.78595 -0.288874 0)
(-2.4211 -0.0901386 0)
(-1.70155 0.16687 0)
(-2.38754 -0.131672 0)
(-2.29097 0.0981007 0)
(-2.42807 0.418046 0)
(-1.53143 0.155557 0)
(-1.50902 -0.192949 0)
(-1.80589 0.298774 0)
(-1.34402 0.105374 0)
(-1.0589 0.033619 0)
(-1.57939 0.281844 0)
(-1.16552 -0.200292 0)
(-1.36108 0.188856 0)
(-1.68576 0.0728051 0)
(-1.78435 -0.130287 0)
(-1.6115 0.254436 0)
(-2.04458 0.222494 0)
(-0.885079 -0.133803 0)
(-1.25384 0.141045 0)
(-0.835824 0.0616156 0)
(-1.43974 0.183074 0)
(-0.915405 -0.202461 0)
(-1.18367 0.202624 0)
(-1.3493 0.272775 0)
(-0.835598 -0.02294 0)
(-1.68978 0.0672437 0)
(-1.81194 -0.134143 0)
(-2.04745 0.231141 0)
(-1.62157 0.253654 0)
(-0.901438 -0.126463 0)
(-1.46092 0.175696 0)
(-1.27019 0.135673 0)
(-0.854195 0.072919 0)
(-1.23818 0.08225 0)
(-0.802959 0.122353 0)
(-1.42528 0.0960021 0)
(-0.819955 -0.0686281 0)
(-1.70584 0.285578 0)
(-1.20334 0.0720266 0)
(-1.33326 -0.195725 0)
(-1.45567 0.173055 0)
(-2.3751 0.269385 0)
(-2.2799 0.0948989 0)
(-1.71854 0.3179 0)
(-2.20222 -0.201104 0)
(-1.50544 0.165659 0)
(-1.45881 -0.199654 0)
(-1.30034 0.0903865 0)
(-1.77261 0.303387 0)
(-1.9842 0.375621 0)
(-1.69162 0.117678 0)
(-1.93351 -0.0783562 0)
(-2.17789 0.0517193 0)
(-1.8051 0.713808 0)
(-2.41373 -0.472428 0)
(-2.65974 -0.0587394 0)
(-2.44203 0.312365 0)
(-2.26194 0.13718 0)
(-1.93427 0.461857 0)
(-2.19025 -0.0201249 0)
(-1.82689 -0.0766354 0)
(-2.09451 0.53935 0)
(-1.83592 -0.112777 0)
(-2.31617 0.0821308 0)
(-2.32827 0.0148386 0)
(-1.90281 -0.0754904 0)
(-1.92922 0.369816 0)
(-2.16227 0.0597654 0)
(-1.6928 0.0998223 0)
(-0.877143 -0.0131123 0)
(-1.21822 0.198725 0)
(-0.959977 -0.20234 0)
(-1.39373 0.271022 0)
(-0.893042 -0.0215589 0)
(-1.39756 0.280526 0)
(-1.22079 0.204381 0)
(-0.980555 -0.212982 0)
(-3.0435 -0.897288 0)
(-1.64617 1.0981 0)
(-3.26599 -0.380489 0)
(-2.48178 0.666394 0)
(-1.37978 0.195664 0)
(-1.60195 0.308159 0)
(-1.12701 0.0226208 0)
(-1.25711 -0.218337 0)
(-1.83285 0.235998 0)
(-1.5403 0.138303 0)
(-1.41478 -0.166769 0)
(-1.30261 0.14011 0)
(-0.926014 0.287746 0)
(-0.880194 0.112679 0)
(-1.21802 -0.0528102 0)
(-1.41983 -0.107115 0)
(-1.42051 -0.120128 0)
(-0.944664 0.301277 0)
(-1.2168 -0.0603163 0)
(-0.894372 0.126035 0)
(-1.21008 0.371888 0)
(-1.14815 -0.258563 0)
(-1.07613 0.249493 0)
(-1.0029 -0.11087 0)
(-3.56054 0.349873 0)
(-1.54082 -0.543932 0)
(-3.28591 1.20541 0)
(-2.35815 -0.308535 0)
(-0.960251 -0.192088 0)
(-1.42239 0.256327 0)
(-1.24011 0.188513 0)
(-0.882496 0.00321786 0)
(-1.20356 0.37482 0)
(-1.0712 0.247684 0)
(-1.02261 -0.114197 0)
(-1.17376 -0.25972 0)
(-1.38785 0.177252 0)
(-0.791337 0.0494701 0)
(-0.836831 -0.133565 0)
(-1.21662 0.139753 0)
(-1.19312 0.370024 0)
(-1.11748 -0.257487 0)
(-1.06141 0.252563 0)
(-0.97748 -0.113126 0)
(-0.898702 0.277406 0)
(-1.20405 -0.052205 0)
(-0.854907 0.107794 0)
(-1.4007 -0.103286 0)
(-0.981033 0.200285 0)
(-1.35833 -0.206111 0)
(-1.07035 0.363132 0)
(-1.16351 -0.103854 0)
(-1.70233 0.124867 0)
(-2.21063 -0.110471 0)
(-2.25452 0.0837168 0)
(-2.23111 0.410484 0)
(-1.37632 0.202887 0)
(-1.90756 0.18325 0)
(-1.46006 -0.128567 0)
(-1.58496 0.110283 0)
(-1.69412 0.0678392 0)
(-1.7793 -0.106504 0)
(-2.10702 0.13752 0)
(-1.69791 0.312634 0)
(-1.57808 0.134127 0)
(-1.64973 0.0535901 0)
(-1.92886 -0.119944 0)
(-1.86895 0.351017 0)
(-1.8712 -0.0910561 0)
(-1.71471 0.0582583 0)
(-2.14544 0.123944 0)
(-1.79132 0.34433 0)
(-1.92519 -0.0912363 0)
(-1.71558 0.0646004 0)
(-2.1709 0.101814 0)
(-1.87381 0.362433 0)
(-1.66394 0.26351 0)
(-1.87694 -0.132709 0)
(-2.07247 0.228987 0)
(-1.70958 0.0468138 0)
(-1.35686 0.368458 0)
(-1.19352 0.238123 0)
(-1.22073 -0.258675 0)
(-1.06724 -0.0769509 0)
(-1.69287 -0.119236 0)
(-1.29398 0.354199 0)
(-1.20799 0.106062 0)
(-1.41235 -0.0204438 0)
(-1.6114 0.151865 0)
(-1.69747 0.0214988 0)
(-1.991 -0.0973547 0)
(-1.91023 0.343436 0)
(-1.49115 0.38976 0)
(-1.3152 0.199211 0)
(-1.2816 -0.0331121 0)
(-1.50522 -0.231871 0)
(-1.46917 0.00396903 0)
(-1.48276 0.375875 0)
(-1.78076 -0.136871 0)
(-1.36065 0.103449 0)
(-1.54405 -0.0654232 0)
(-0.97351 0.0758582 0)
(-1.01196 0.284002 0)
(-1.313 -0.0191209 0)
(-1.92789 0.200776 0)
(-1.40736 0.198962 0)
(-1.50836 -0.1409 0)
(-1.59996 0.112822 0)
(-1.81333 0.225033 0)
(-1.36865 -0.1595 0)
(-1.5247 0.137656 0)
(-1.26821 0.141588 0)
(-1.22406 0.0882019 0)
(-1.30189 0.348574 0)
(-1.43878 -0.00998478 0)
(-1.73028 -0.0996919 0)
(-1.19294 0.176309 0)
(-0.805344 0.00276789 0)
(-1.35878 0.231592 0)
(-0.868135 -0.175257 0)
(-0.820626 -0.103259 0)
(-0.787436 0.0877783 0)
(-1.39978 0.142806 0)
(-1.22449 0.115462 0)
(-1.5079 -0.235249 0)
(-1.34653 0.197975 0)
(-1.2868 -0.021837 0)
(-1.53608 0.386692 0)
(-1.46995 0.381127 0)
(-1.44326 -0.00386284 0)
(-1.74311 -0.150683 0)
(-1.34232 0.120316 0)
(-1.1332 0.108894 0)
(-1.70894 0.223222 0)
(-1.21797 -0.159665 0)
(-1.45106 0.149117 0)
(-1.3937 0.150822 0)
(-1.62727 0.215632 0)
(-1.12456 -0.156094 0)
(-1.05055 0.0873633 0)
(-1.68149 0.100656 0)
(-1.4252 0.0836243 0)
(-1.09848 -0.0682438 0)
(-1.07644 0.184195 0)
(-1.31361 0.193228 0)
(-1.53194 -0.230928 0)
(-1.48747 0.390843 0)
(-1.30031 -0.0343384 0)
(-1.01221 0.144844 0)
(-1.08447 0.340014 0)
(-1.49735 -0.146081 0)
(-1.27151 -0.0633388 0)
(-1.05478 0.250406 0)
(-0.911885 -0.106585 0)
(-1.18381 0.350275 0)
(-1.03017 -0.255795 0)
(-2.30359 0.136682 0)
(-1.94725 -0.173881 0)
(-1.86729 0.482429 0)
(-2.27163 0.0499197 0)
(-1.13702 -0.0955518 0)
(-1.27177 0.386011 0)
(-1.32043 -0.250416 0)
(-1.1334 0.231409 0)
(-1.77293 0.41772 0)
(-2.27799 0.0755641 0)
(-2.32741 0.176615 0)
(-2.05862 -0.215133 0)
(-2.21679 0.17969 0)
(-1.83438 0.399842 0)
(-1.83642 -0.0710597 0)
(-2.14145 -0.0363303 0)
(-1.37031 -0.0633741 0)
(-0.803446 0.0773051 0)
(-1.18596 -0.0289173 0)
(-0.831675 0.24 0)
(-2.32694 0.46347 0)
(-1.7253 0.0251263 0)
(-2.39732 -0.102968 0)
(-2.29472 0.07219 0)
(-2.37257 0.122562 0)
(-1.82035 0.49853 0)
(-2.07234 -0.246253 0)
(-2.32185 0.103631 0)
(-1.75324 0.412779 0)
(-2.34905 0.196666 0)
(-2.28003 0.0887568 0)
(-2.09587 -0.217067 0)
(-1.59605 0.125649 0)
(-1.61922 -0.178274 0)
(-1.90156 0.279298 0)
(-1.44264 0.153215 0)
(-1.13605 0.239056 0)
(-0.930807 -0.0836573 0)
(-1.28826 0.336198 0)
(-1.04503 -0.254174 0)
(-0.862828 0.223077 0)
(-1.24568 0.00621448 0)
(-1.44614 -0.01344 0)
(-0.849013 0.0386183 0)
(-1.7432 0.0280551 0)
(-2.00389 -0.0768598 0)
(-2.19502 0.134458 0)
(-1.87623 0.392582 0)
(-1.45611 -0.170123 0)
(-1.08988 0.351468 0)
(-1.23939 -0.0776736 0)
(-1.00946 0.166813 0)
(-1.22087 0.383737 0)
(-1.14368 -0.101932 0)
(-1.09544 0.226357 0)
(-1.33104 -0.242846 0)
(-1.77124 -0.0108759 0)
(-2.11205 -0.0633748 0)
(-1.94376 0.423961 0)
(-2.23331 0.131099 0)
(-1.19935 0.0491472 0)
(-1.45497 0.00844148 0)
(-1.24945 0.314191 0)
(-1.74556 -0.0509406 0)
(-1.48092 0.00567472 0)
(-1.42838 0.359043 0)
(-1.79374 -0.107057 0)
(-1.33026 0.0817812 0)
(-1.37192 0.203385 0)
(-1.57752 0.370575 0)
(-1.24937 -0.00674158 0)
(-1.44455 -0.236391 0)
(-1.48836 -0.159163 0)
(-1.10227 0.346579 0)
(-1.02344 0.154314 0)
(-1.26444 -0.0691934 0)
(-1.15114 -0.0952332 0)
(-1.34011 -0.244329 0)
(-1.1254 0.227885 0)
(-1.25817 0.386973 0)
(-1.6686 0.369085 0)
(-1.5639 0.0630252 0)
(-1.54262 0.0471538 0)
(-1.93082 -0.084473 0)
(-1.32096 0.376553 0)
(-1.07411 -0.0864176 0)
(-1.16647 0.241436 0)
(-1.23351 -0.258136 0)
(-0.919513 -0.011926 0)
(-1.31316 0.04458 0)
(-1.53238 0.0401726 0)
(-0.919257 0.197711 0)
(-1.75491 0.0914993 0)
(-1.47433 0.0786087 0)
(-1.16304 0.211303 0)
(-1.1826 -0.0631749 0)
(-1.45867 -0.000962756 0)
(-1.41958 0.366415 0)
(-1.31634 0.0991667 0)
(-1.76216 -0.119722 0)
(-1.33321 0.380429 0)
(-1.1021 -0.0836961 0)
(-1.17771 0.238194 0)
(-1.27008 -0.256698 0)
(-0.978268 -0.167302 0)
(-0.910198 0.0417391 0)
(-1.48633 0.225477 0)
(-1.28876 0.166083 0)
(-1.23886 0.189364 0)
(-1.29742 -0.0526959 0)
(-1.53601 -0.21392 0)
(-1.38104 0.392435 0)
(-0.896293 0.0289758 0)
(-0.967734 -0.174151 0)
(-1.46142 0.23643 0)
(-1.27031 0.173784 0)
(-1.01518 0.296712 0)
(-1.29439 -0.0350507 0)
(-0.968302 0.0954629 0)
(-1.52103 -0.0907477 0)
(-1.62899 0.111661 0)
(-1.66317 -0.158712 0)
(-1.4889 0.186832 0)
(-1.94802 0.262611 0)
(-1.69189 -0.128127 0)
(-1.31395 0.367066 0)
(-1.22202 0.11784 0)
(-1.40856 -0.022352 0)
(-1.15118 -0.00470199 0)
(-1.30215 -0.233855 0)
(-1.56034 0.33715 0)
(-1.3518 0.206984 0)
(-1.30276 0.377653 0)
(-1.34763 -0.0460007 0)
(-1.19351 0.154179 0)
(-1.60617 -0.170948 0)
(-1.15438 0.237343 0)
(-1.31133 0.333488 0)
(-0.927108 -0.0751206 0)
(-1.03985 -0.250379 0)
(-1.53506 -0.22616 0)
(-1.38193 0.189909 0)
(-1.31133 -0.00459743 0)
(-1.57855 0.380796 0)
(-1.33674 0.341006 0)
(-1.46393 0.000513642 0)
(-1.26137 0.0728239 0)
(-1.76346 -0.0868056 0)
(-1.04822 0.308324 0)
(-1.3054 -0.0381185 0)
(-0.995556 0.102891 0)
(-1.53747 -0.100267 0)
(-1.41017 0.315877 0)
(-1.07583 -0.237457 0)
(-0.964876 -0.041222 0)
(-1.23114 0.220728 0)
(-1.25756 0.0157118 0)
(-1.4606 -0.000452841 0)
(-0.864404 0.21252 0)
(-0.853811 0.0234281 0)
(-1.69648 0.0119506 0)
(-1.13065 0.257292 0)
(-1.11398 0.00522465 0)
(-1.42862 0.0347673 0)
(-2.17114 0.00339195 0)
(-1.90724 -0.103674 0)
(-1.76168 0.370057 0)
(-2.21178 0.220796 0)
(-2.25972 0.0584821 0)
(-1.82622 0.462641 0)
(-1.97671 -0.172425 0)
(-2.30547 0.160823 0)
(-1.73565 -0.0187166 0)
(-1.16791 0.0230179 0)
(-1.20092 0.285984 0)
(-1.45257 0.0219023 0)
(-0.993554 -0.14561 0)
(-1.53001 0.197621 0)
(-0.934729 0.0729189 0)
(-1.32087 0.146649 0)
(-1.02649 0.241493 0)
(-1.051 -0.124883 0)
(-1.21228 -0.256866 0)
(-1.14584 0.375674 0)
(-1.04022 -0.188483 0)
(-1.29868 0.183403 0)
(-1.49732 0.257114 0)
(-0.955641 0.0232247 0)
(-1.73706 0.0325896 0)
(-2.19469 0.129582 0)
(-2.00822 -0.0760002 0)
(-1.89132 0.391992 0)
(-2.30009 -0.060765 0)
(-2.18294 0.482342 0)
(-1.74853 -0.00705383 0)
(-2.28143 0.0858307 0)
(-1.07947 -0.196661 0)
(-1.51832 0.268916 0)
(-0.9865 0.0213244 0)
(-1.31395 0.187982 0)
(-0.966271 0.322583 0)
(-1.20034 -0.0756104 0)
(-0.907933 0.151198 0)
(-1.40253 -0.144746 0)
(-1.18267 -0.0840786 0)
(-0.968141 0.32916 0)
(-1.38009 -0.157243 0)
(-0.906377 0.163683 0)
(-1.04772 0.243851 0)
(-1.20677 -0.259396 0)
(-1.17332 0.377213 0)
(-1.04729 -0.121133 0)
(-1.11332 0.115899 0)
(-1.69719 0.207623 0)
(-1.18849 -0.148068 0)
(-1.44228 0.141838 0)
(-1.18674 0.224163 0)
(-1.35235 0.311861 0)
(-0.913958 -0.0550575 0)
(-1.01673 -0.238091 0)
(-2.21526 0.705942 0)
(-2.54879 0.132169 0)
(-1.92271 -0.280559 0)
(-2.42053 -0.0188938 0)
(-1.20376 0.216888 0)
(-0.911979 -0.0430495 0)
(-1.37469 0.300485 0)
(-1.00961 -0.230879 0)
(-1.3525 -0.218473 0)
(-1.00312 0.207742 0)
(-1.15866 -0.107458 0)
(-1.10082 0.370038 0)
(-1.38899 0.36589 0)
(-1.22041 0.234226 0)
(-1.2405 -0.254064 0)
(-1.08564 -0.0664851 0)
(-1.28186 -0.209603 0)
(-0.912627 0.205384 0)
(-0.992473 0.351028 0)
(-1.1052 -0.117055 0)
(-1.47524 0.0385271 0)
(-0.862576 0.186076 0)
(-1.27173 0.0422663 0)
(-0.863572 -0.00883467 0)
(-0.865775 0.173656 0)
(-1.4837 0.057555 0)
(-0.872964 -0.0248056 0)
(-1.27935 0.054902 0)
(-1.57015 -0.0570659 0)
(-1.33351 -0.0123644 0)
(-0.999873 0.0673678 0)
(-1.0368 0.281386 0)
(-1.24116 -0.232344 0)
(-1.07278 -0.12689 0)
(-1.0351 0.36467 0)
(-0.941675 0.224893 0)
(-1.2707 0.0837629 0)
(-0.865701 -0.066881 0)
(-0.845876 0.13221 0)
(-1.46797 0.0988427 0)
(-0.872244 -0.0547722 0)
(-1.4795 0.0855067 0)
(-0.856625 0.145707 0)
(-1.27809 0.0745901 0)
(-1.76437 0.110813 0)
(-1.48217 0.0883543 0)
(-1.17009 0.202238 0)
(-1.19887 -0.0770671 0)
(-1.38341 -0.233959 0)
(-1.20872 -0.000436653 0)
(-1.58439 0.35604 0)
(-1.37339 0.205698 0)
(-1.70467 0.0422023 0)
(-1.61543 0.213262 0)
(-1.92156 -0.120139 0)
(-1.99623 0.300217 0)
(-1.08866 0.188979 0)
(-1.46027 -0.203659 0)
(-1.19441 0.375329 0)
(-1.24101 -0.0827944 0)
(-1.16524 0.227018 0)
(-1.32619 0.31328 0)
(-0.998011 -0.242676 0)
(-0.897303 -0.0641868 0)
(-1.25461 0.0378298 0)
(-1.45342 0.0334621 0)
(-0.840485 -0.00197176 0)
(-0.840403 0.187626 0)
(-1.72891 0.0320903 0)
(-2.04415 0.283104 0)
(-1.64503 0.246486 0)
(-1.94361 -0.112581 0)
(-1.0986 0.179261 0)
(-1.49504 -0.194303 0)
(-1.20195 0.374371 0)
(-1.26659 -0.0760803 0)
(-1.31765 -0.237936 0)
(-1.13177 -0.111926 0)
(-1.14947 0.379818 0)
(-1.03755 0.22437 0)
(-1.99874 -0.0351737 0)
(-1.68939 0.361343 0)
(-1.60851 0.0744843 0)
(-1.59421 0.0094439 0)
(-1.68112 0.31021 0)
(-1.36045 -0.212642 0)
(-1.43998 0.183245 0)
(-1.21405 0.0492761 0)
(-2.34448 0.242494 0)
(-2.27128 0.0913757 0)
(-1.72512 0.334895 0)
(-2.15691 -0.205549 0)
(-1.5144 0.163998 0)
(-0.94622 -0.120551 0)
(-0.901521 0.0925758 0)
(-1.30823 0.126229 0)
(-1.16558 0.037352 0)
(-1.7244 -0.0337292 0)
(-1.20447 0.296136 0)
(-1.44303 0.0133956 0)
(-0.937348 0.131528 0)
(-1.3366 0.101016 0)
(-0.968735 -0.0883447 0)
(-1.55432 0.126689 0)
(-1.39356 -0.236929 0)
(-1.21397 -0.00886859 0)
(-1.56462 0.361565 0)
(-1.35938 0.207585 0)
(-0.963532 0.150062 0)
(-1.35472 0.0912515 0)
(-0.989426 -0.075332 0)
(-1.57998 0.111969 0)
(-1.50366 0.0335384 0)
(-1.30215 0.29714 0)
(-1.26865 0.0109085 0)
(-1.811 -0.00852052 0)
(-1.67444 0.347627 0)
(-1.28691 0.0374002 0)
(-1.44377 0.18494 0)
(-1.47581 -0.218562 0)
(-1.09531 -0.208148 0)
(-0.996985 0.00917301 0)
(-1.51012 0.278938 0)
(-1.30798 0.193923 0)
(-1.73885 0.316007 0)
(-2.12845 0.209131 0)
(-1.96807 -0.0974951 0)
(-1.75178 0.0144077 0)
(-2.153 -0.00854033 0)
(-1.72855 0.320123 0)
(-2.16908 0.248924 0)
(-1.89597 -0.0938476 0)
(-1.58103 0.0949164 0)
(-0.964724 0.164389 0)
(-0.984209 -0.05998 0)
(-1.35441 0.0807575 0)
(-2.14551 0.215566 0)
(-1.76013 0.326026 0)
(-2.04631 -0.084782 0)
(-1.78311 -0.021684 0)
(-0.910677 -0.101962 0)
(-1.21046 0.348606 0)
(-1.07553 0.249134 0)
(-1.02687 -0.256819 0)
(-0.850751 0.0136122 0)
(-1.4099 0.234843 0)
(-0.918326 -0.177186 0)
(-1.23157 0.175532 0)
(-0.857758 0.00442086 0)
(-1.40673 0.246299 0)
(-1.22828 0.183341 0)
(-0.929751 -0.186953 0)
(-1.4508 0.147683 0)
(-0.871833 -0.106162 0)
(-0.835193 0.0912749 0)
(-1.26112 0.117501 0)
(-1.45912 0.13349 0)
(-0.838439 0.104096 0)
(-1.26617 0.107421 0)
(-0.869834 -0.0954239 0)
(-0.868425 -0.0460712 0)
(-1.18001 0.217589 0)
(-0.959449 -0.228396 0)
(-1.34651 0.29593 0)
(-1.80781 -0.114713 0)
(-1.70394 0.0677971 0)
(-2.0808 0.21034 0)
(-1.64379 0.286004 0)
(-1.38913 -0.0490392 0)
(-0.808104 0.0650995 0)
(-1.20124 -0.0189954 0)
(-0.833432 0.233801 0)
(-0.821625 0.157944 0)
(-1.44984 0.0652821 0)
(-0.831341 -0.034943 0)
(-1.25359 0.0599869 0)
(-1.17616 0.381262 0)
(-1.16039 -0.103622 0)
(-1.06255 0.218161 0)
(-1.35469 -0.231933 0)
(-1.7288 0.366711 0)
(-1.57503 0.078274 0)
(-1.58199 0.0421968 0)
(-1.94814 -0.0926554 0)
(-1.70123 0.195965 0)
(-1.99219 -0.118754 0)
(-2.12714 0.318185 0)
(-2.20037 0.0303034 0)
(-1.23687 0.0442185 0)
(-1.42948 0.0449264 0)
(-0.812549 -0.00828431 0)
(-0.808062 0.17668 0)
(-1.3086 0.304928 0)
(-0.866767 -0.0669469 0)
(-0.960177 -0.242789 0)
(-1.15017 0.225194 0)
(-2.1867 0.00762031 0)
(-1.73491 0.32612 0)
(-2.19782 0.23831 0)
(-1.93794 -0.122519 0)
(-2.18096 0.171266 0)
(-2.01334 -0.0803475 0)
(-1.76037 0.00551455 0)
(-1.82059 0.369104 0)
(-1.67625 0.283797 0)
(-1.43404 0.177454 0)
(-1.2872 -0.195707 0)
(-1.16475 0.0633629 0)
(-1.1138 0.364469 0)
(-1.21245 -0.0901981 0)
(-1.02232 0.187234 0)
(-1.42226 -0.195079 0)
(-1.4945 0.195868 0)
(-0.896403 0.0639939 0)
(-0.952827 -0.145692 0)
(-1.29444 0.147472 0)
(-1.50142 0.149584 0)
(-0.884304 0.098425 0)
(-0.922633 -0.111248 0)
(-1.29794 0.117481 0)
(-1.1482 0.371615 0)
(-1.21231 -0.0912273 0)
(-1.04852 0.19403 0)
(-1.42254 -0.204993 0)
(-1.21961 -0.082649 0)
(-1.05709 0.348742 0)
(-1.43075 -0.171358 0)
(-0.980376 0.169634 0)
(-1.7009 0.232459 0)
(-2.28884 0.105661 0)
(-2.33322 -0.178604 0)