/*--------------------------------*- C++ -*----------------------------------*\
| =========                 |                                                 |
| \\      /  F ield         | foam-extend: Open Source CFD                    |
|  \\    /   O peration     | Version:  3.0                                   |
|   \\  /    A nd           | Web:         http://www.extend-project.de       |
|    \\/     M anipulation  |                                                 |
\*---------------------------------------------------------------------------*/
FoamFile
{
    version     2.0;
    format      ascii;
    class       volScalarField;
    location    "2";
    object      Theta;
}
// * * * * * * * * * * * * * * * * * * * * * * * * * * * * * * * * * * * * * //

dimensions      [0 2 -2 0 0 0 0];

internalField   nonuniform List<scalar> 
3012
(
-2.06112
1.6476
4.34135
0.643663
5.30622
-2.70503
-2.53529
5.73211
-1.45627
3.13307
-0.911507
3.51258
0.879515
-0.561489
2.54122
1.09862
-0.132198
-6.85469
1.4893
8.50843
1.66653
-0.169255
2.28573
0.41114
4.84218
-0.0723715
2.57834
-2.29113
-0.607808
2.88151
0.261387
2.06181
0.272211
2.52321
-0.461725
1.84057
1.28362
4.99476
-3.02569
0.603461
1.05721
2.73128
1.16563
-0.508071
0.660781
1.60298
-0.835307
3.06175
1.25894
2.43611
-0.366786
0.838808
-1.92829
1.22644
1.57254
4.68214
-3.24511
-5.99039
3.73252
6.8539
-3.18659
0.0859934
6.85934
3.93581
0.931464
-0.811975
3.11311
1.34421
2.51061
1.30132
0.752222
-0.425161
2.26869
1.89443
0.228401
-0.223598
-0.293094
2.41247
1.70668
0.484894
0.971548
-0.936965
1.16185
3.07198
2.55805
1.10611
1.02299
-0.403985
0.497997
2.55194
-0.371517
1.71888
2.6163
-1.4545
-0.46654
3.43497
-2.89231
2.58659
-0.891621
4.77735
2.80561
1.73906
0.552448
-0.489303
2.40995
0.00616968
2.33714
-0.145235
2.24185
0.421538
-0.108017
1.65636
-0.731484
2.96438
1.44226
0.829091
1.95084
0.276881
1.89198
0.390206
-0.262661
0.420443
1.18659
2.41704
3.01381
-4.1988
5.49561
-1.61164
6.86454
-4.90769
5.49393
-3.85605
1.73412
-2.31422
1.57916
5.48376
1.59005
7.28417
1.85473
-4.47186
5.30726
-0.395096
-2.07836
3.52593
5.35641
-1.0701
-3.71038
3.50586
5.43733
-3.6529
-3.6536
5.73183
0.875574
-0.319991
1.37413
2.5365
1.75594
2.49877
-0.341773
0.454427
2.21987
-0.0145905
1.99227
0.173278
-4.34465
0.294143
5.59765
0.877076
0.594039
2.71049
-0.641341
1.53814
5.50553
5.81816
-3.1304
-3.03214
-3.4507
5.99366
0.275099
2.79253
-3.81251
-0.980487
5.38618
2.63188
2.10708
-0.806489
0.185661
3.1916
-0.288613
2.50783
2.31211
-0.401687
2.03053
0.0461721
1.65431
0.368403
1.88495
2.94238
-0.821732
0.297482
0.711179
-0.562778
1.16436
2.46649
1.19061
3.32231
-0.922094
1.26029
1.21184
1.95472
0.803256
0.0333269
0.723507
0.161374
1.69281
1.1507
3.04906
1.37038
0.751837
-0.911637
1.49133
0.287087
0.455723
1.53747
0.128574
-0.344218
1.78706
2.21483
0.568861
-0.17169
1.44841
2.19248
0.167269
1.92962
0.0636403
1.90526
2.72964
2.17719
-0.001255
-0.648184
1.89423
-0.132439
2.33046
0.28592
0.348727
2.35918
1.84211
-0.140479
1.91268
-0.994877
0.325188
3.32977
-0.633948
2.98373
2.85954
-0.411173
4.50871
0.0880207
-1.67783
2.50802
0.524105
-0.135857
1.4807
2.11198
0.995317
2.24787
1.01039
-0.240798
2.06885
-0.0446653
-0.938078
3.05168
1.14139
3.05809
1.20118
-0.734257
1.33086
-0.668497
2.80614
0.804173
-2.14705
1.0428
1.10901
4.28007
0.814176
1.92863
0.0111811
1.13846
4.00088
-5.56584
-2.56879
7.07332
-0.657638
3.15142
-3.5202
5.94596
0.666307
-0.787131
1.73881
3.13663
2.14193
0.0242976
-0.865366
3.15699
1.84171
-0.513068
2.68697
0.363026
-2.18543
0.106255
0.692646
2.96303
4.17506
-0.21288
-2.29286
1.93892
2.51249
2.3771
-0.158524
-0.209761
0.742017
2.18901
-0.212491
1.23922
0.280284
-0.500342
1.9072
2.74078
-2.12921
2.19539
0.606872
5.20132
2.46347
0.872595
1.1863
-0.372961
2.28612
-0.214917
1.74991
0.360576
1.96653
-0.0160745
1.68631
0.296549
0.422816
2.55514
-0.310519
1.90361
0.987194
2.74909
1.28284
-0.459257
1.16787
2.15174
0.846947
-0.0580672
0.754627
-0.0678706
2.15691
1.35825
0.121657
2.31208
2.1273
-0.125488
0.64008
2.63466
-0.402066
1.57908
-0.723474
2.69987
-0.519288
2.79943
-0.921999
2.36908
3.18838
-0.00506426
2.90261
1.88549
-0.729899
0.231507
-0.343481
-0.308081
2.39668
2.50738
0.400886
-0.677531
2.81955
1.77801
2.99727
-0.820863
-0.519853
3.45155
2.76318
-1.1488
-0.701483
3.34103
-0.251231
1.94696
0.166691
2.41659
1.85848
0.253075
-1.19859
3.36896
1.14198
-0.657112
1.00776
2.8052
1.91909
-2.67587
5.24572
0.871216
1.45016
-1.17644
0.810053
3.50217
-2.36609
6.38434
-5.43802
3.47307
-0.00815368
-0.00823098
2.2388
2.1716
1.52716
-0.147597
0.634013
2.10895
-0.178486
2.31402
0.949458
1.04261
-0.342819
0.469379
1.71528
2.55224
-1.56623
1.44611
3.58767
0.477656
-1.25099
2.6258
3.57227
-0.389612
1.76142
0.223985
1.77074
0.204375
4.55678
1.68945
-2.00039
0.725707
1.43505
0.619505
0.0207967
1.99631
-13.1744
-0.782573
0.135133
13.7383
3.46022
1.80236
0.645553
-0.927931
1.81602
0.801685
1.12706
0.0954914
0.307594
5.32205
-3.10233
2.20514
2.06285
4.07917
-1.54287
0.3306
1.86147
-0.179576
0.197883
2.30106
-0.0875186
-0.618258
3.07182
2.65405
1.03773
-0.971707
1.14509
3.20755
-5.86026
1.43048
1.18128
9.09949
1.89227
2.22733
-0.307303
0.0947567
0.646227
-0.532465
1.27165
2.51703
0.204829
3.20747
1.79811
-1.27701
0.435983
2.89117
-0.592068
1.87335
-5.8641
0.526719
0.956035
7.5
0.51155
2.34777
1.68434
-0.171368
3.60811
0.448103
2.03421
-1.22719
0.108581
2.10102
0.10955
2.05317
0.178152
2.18297
-0.0181786
1.94103
2.91776
0.972772
-0.876214
1.11252
5.43242
-2.97847
-4.41571
6.69136
2.39162
2.36115
-0.245888
-0.136694
3.38583
0.869332
1.45558
-1.10433
0.769436
1.75309
-1.1101
3.58953
0.939612
-0.421379
2.62757
1.29913
2.57603
2.73824
-0.369448
-0.312881
0.435062
1.72859
-0.617293
2.81934
0.243784
2.04397
-0.776365
3.11401
0.515313
-1.09038
1.53975
3.12564
1.7727
-0.23038
0.350064
2.27393
3.26443
1.90815
0.423472
-1.00747
1.03901
-0.577195
0.944945
2.56847
-0.380569
0.865236
1.19452
2.46518
-9.92874
10.0039
-10.144
9.82562
0.788727
1.50347
-1.08066
3.37978
2.95536
1.81981
-0.883479
0.327468
-0.474719
3.69368
-1.12207
3.22424
-1.9889
5.30158
-6.16067
9.13654
-2.99962
-1.28527
6.01641
4.13181
-1.44775
2.25831
3.70625
0.0921945
0.198226
2.82163
2.08786
-0.584153
-1.85793
2.96262
-1.0324
3.74611
1.53915
-0.280902
0.713698
2.50782
1.38675
0.0896914
1.85384
0.577018
-2.46734
1.4004
4.21208
0.471268
1.43203
2.55458
-0.352893
0.751649
-0.0467401
1.04739
2.00266
0.95651
3.0802
0.528691
1.50061
-1.10541
4.49103
4.7607
-1.65237
-1.66462
-1.35974
2.32787
0.378919
3.93469
1.25111
-2.23149
1.42062
5.00339
-4.35698
2.44151
-0.22016
7.50014
4.73859
-1.96379
3.66445
-3.16278
1.45718
-2.72593
5.83419
1.89276
-0.151196
1.58444
4.80721
-3.24556
0.814205
-0.149134
1.15019
2.07904
0.571288
2.3635
-0.175633
1.65527
-12.867
-7.50437
12.0733
6.76719
-0.822482
2.99671
0.288506
1.94768
3.7662
-1.30773
2.05267
0.441874
1.24755
0.797589
-0.22173
2.26152
2.29377
1.5931
-0.14524
0.553363
2.05716
1.74869
-0.0585
0.355271
-4.46701
-14.2648
4.11291
13.7294
1.82925
2.62474
-0.335947
0.484277
1.98347
0.124999
0.134952
2.03724
2.32046
0.774771
1.38818
-0.191615
2.36746
2.0055
-0.147961
0.279678
1.39741
-0.380945
0.79116
2.63175
0.347255
2.29596
1.72701
-0.185029
-3.13398
3.20702
5.68347
-0.727562
0.918747
3.64943
1.07093
-1.73455
-2.02976
2.50063
4.92187
0.454977
-1.16551
-1.60707
3.19649
3.47931
1.97806
-2.75719
5.44408
0.787764
0.336275
-2.5069
4.49892
1.66478
0.55871
2.51103
4.9992
-2.1235
2.37053
-0.235317
2.12867
0.0706828
2.68869
1.51248
0.328266
-0.787612
-1.40411
-0.435881
4.24695
3.0388
2.35224
-0.492458
-0.269585
2.21381
-1.05987
2.40639
3.6069
0.0130737
2.69314
0.618475
1.52782
-0.515732
3.80697
0.656786
1.70123
-1.51766
3.55023
1.12625
-1.45584
1.04141
0.0539885
2.38518
-1.01108
3.52393
-0.164398
0.749922
2.28623
1.37243
1.32143
1.5179
2.42843
-0.337841
3.13708
-0.436165
-0.589129
2.85126
2.63728
-0.71438
2.68704
-0.740247
0.653865
3.17361
1.64945
-0.920459
-0.835321
3.04242
1.59316
0.650594
3.02957
-0.886862
1.29895
0.853249
-0.541369
2.43082
2.61271
-0.258356
0.606349
1.56283
2.73895
-0.533654
-0.00140985
0.43557
2.02021
1.87115
3.14137
-0.920907
-3.25036
5.81826
0.0527435
2.40116
2.18187
-0.24986
-3.97385
5.61096
2.65194
-1.35892
3.84727
-2.67614
-1.87488
4.77334
2.37688
0.739555
-0.183688
1.3227
0.957106
-1.64893
3.2535
5.85756
4.02786
-0.747367
-0.374958
4.96772
-1.72578
5.75752
3.64487
-4.11864
-1.40682
2.88404
3.96289
-0.236818
0.157855
0.318586
1.74187
1.62307
1.23781
-0.0443557
1.96237
0.678422
-3.38453
1.3938
4.5258
-0.101305
2.57479
1.84462
-0.400985
0.294135
2.09339
-0.176533
0.00507528
2.33759
-1.99358
2.54183
1.42745
5.87651
0.932245
-1.19676
1.54412
3.73608
-0.811951
2.45288
3.0569
-0.298064
-0.959076
3.4184
0.0870748
2.49455
2.53777
1.86022
0.291027
-0.335532
-0.164749
2.39312
0.0364698
2.12493
2.18228
-1.83802
-0.0398436
4.04298
2.48567
0.146754
-0.32904
2.08211
1.11196
-0.526787
2.77943
1.1016
3.28783
-1.07396
1.00639
1.24262
-1.10331
1.93932
-0.0616948
3.06215
2.26289
0.0356998
-0.165612
2.13506
1.51457
0.776424
2.78116
-0.510575
-0.029014
-0.569432
2.55783
1.94992
0.541437
1.49155
2.16025
-0.158494
1.43216
-0.571794
0.731047
2.76559
-1.55859
2.97178
-0.463411
3.95241
2.86223
1.50762
0.437386
-0.846847
-0.170098
2.35996
2.65501
-0.537814
2.16907
-0.496758
-0.194279
2.54208
-0.0619337
2.17429
0.402948
1.76396
3.06127
-0.704592
-0.54544
3.08874
2.34398
-1.18063
0.0857725
3.69461
1.55816
-0.447564
0.563691
2.60948
2.61801
1.77097
0.507813
-0.426573
-0.249562
2.38465
1.24952
0.871685
3.04559
1.59268
0.526226
-0.90025
5.17842
-0.448442
-1.67434
3.55037
3.41304
-1.86643
-3.97363
5.27582
3.17722
0.542472
1.62281
-0.977097
1.36062
2.48368
0.700202
-0.429564
0.164341
0.0134604
2.11994
1.92298
1.67929
-0.57264
2.81037
0.616692
-2.79613
4.35653
2.56135
-0.96735
0.568952
0.267715
-5.21755
6.01952
1.39967
2.27699
0.566065
-0.35328
1.44221
-0.208103
0.675373
2.34466
-0.140053
1.72081
2.26358
0.380941
0.0409844
1.93801
2.06296
0.236003
0.660775
2.90353
1.37991
-0.886721
-0.17888
2.32581
0.359612
1.81505
1.27569
1.99695
-3.58856
6.45683
-0.227834
0.647263
2.35544
1.54417
2.37685
0.179585
-0.139098
2.00854
2.67065
-0.341955
2.56756
-0.119287
2.42986
0.341458
1.90182
-0.152893
2.51322
1.26534
-0.349359
0.888176
1.04261
2.45631
1.11627
-0.295627
3.11499
-0.732571
0.504428
1.85055
2.38135
-0.065246
2.1131
0.156824
-0.299616
1.24662
0.89166
2.44461
0.96452
2.34295
1.1711
-0.221624
3.17041
-0.987853
1.0239
1.10607
2.39277
-0.165381
2.74778
-0.604712
-1.66481
-1.38082
3.41622
3.52676
0.0574992
2.48106
2.04113
-0.321361
-0.123259
2.25297
1.80465
0.38147
-0.313799
2.46023
0.860975
1.29078
-1.14752
3.66326
-1.02598
3.77133
0.132224
2.55789
1.96799
-0.381692
2.42486
-0.153033
2.0886
0.119667
4.0703
2.78577
-1.70898
-0.442812
3.25501
2.40484
-0.940772
-0.00938016
2.48339
5.3718
-4.6598
-1.98654
2.79701
1.41796
0.865954
-0.531761
0.565654
2.67307
1.25331
-0.819207
0.898892
-0.557846
1.19929
2.65818
1.95116
-0.087274
2.35687
-0.555601
0.886223
-0.519747
1.29259
2.68432
-1.18919
0.916706
0.837564
2.96584
2.75292
0.00990865
-1.0317
1.79381
1.44793
0.58497
2.35263
-0.357442
-2.1865
3.71153
4.4129
-1.59352
3.77187
-2.12266
4.25335
-2.79322
2.43007
0.968002
1.0074
-0.414598
4.85256
0.118806
2.7005
-2.30575
0.338211
1.90447
0.135395
1.77581
0.662024
2.26471
1.46232
-0.163506
0.709091
2.03818
-0.0771088
1.30453
2.34777
1.18941
0.93112
-0.22786
2.24719
0.807689
-0.167904
1.18825
0.429266
-0.409501
2.06109
2.84369
2.81184
-1.78013
3.87889
-0.611843
2.1226
0.695023
-0.0678865
1.33674
1.36384
3.03916
1.06549
-0.587996
2.03643
-0.154575
0.0535058
2.29981
2.5362
-1.34948
-0.161858
3.85303
-1.8689
-1.08492
3.66851
4.63007
-0.0277752
2.06514
0.979606
1.06575
1.96199
0.585403
1.47662
0.0621724
3.5264
-0.860468
4.48702
-2.19911
4.1653
2.11183
-3.17869
-1.04849
3.3893
-1.02296
2.13877
0.2912
1.81877
-0.32424
0.274453
2.45641
2.4389
0.787402
1.37777
-0.306355
2.28033
0.894326
1.14399
-0.256194
1.99843
-0.212231
0.138736
2.40747
-0.417911
1.82558
2.73061
0.433577
-4.58404
6.4261
1.40979
0.248146
2.79027
-0.679467
-0.958844
2.60609
2.60594
-1.01015
-0.567302
3.17725
-0.292076
0.629419
2.33358
1.44776
-0.382412
2.41567
-1.18292
3.12847
2.62909
-0.346312
-0.947932
3.12198
0.745395
2.7373
-0.559462
1.40253
3.12747
0.222781
2.08445
-0.75138
0.28997
2.04436
-0.0466404
1.76861
2.95523
-0.602118
-0.884493
2.56867
0.967435
-0.528613
2.60077
1.0886
-0.605748
2.7943
0.69629
1.47401
-0.436913
2.34749
0.955233
0.912293
-0.420991
2.54301
-0.232916
2.80859
2.25862
0.730045
1.26082
-0.23414
-0.309644
2.46288
2.0194
0.178975
0.812062
2.3486
1.21542
-0.306053
-0.360293
1.76368
0.349479
2.42852
-0.359067
0.0954541
2.12797
2.5024
1.05833
1.48816
0.733432
0.265502
-0.322563
0.374767
2.20604
1.5216
0.25711
1.5036
0.779633
0.980305
-1.53006
1.49201
0.448295
3.51873
1.45738
3.65754
-1.37818
0.799208
0.546076
2.95176
6.57459
-3.35634
2.14397
1.73565
-0.132061
0.328774
-2.45424
-2.38871
5.26615
5.34997
-2.63607
-1.9363
5.31364
4.59073
2.46306
-1.24859
-0.0771836
3.49864
1.39275
0.673252
-0.564524
2.62253
1.36491
0.765171
-0.607212
2.73676
1.00235
1.02074
2.93004
-0.866
0.370644
0.0429355
1.93544
1.63669
2.12266
0.782913
-0.121384
1.20257
-0.616476
2.64064
4.22351
-1.92839
1.82415
2.52011
0.181296
-0.575996
2.38002
-0.116435
-0.0768813
2.49928
-2.37992
4.51147
-1.13957
5.84041
-1.3317
3.62437
2.95525
-0.819209
-6.0709
0.213195
7.46108
0.713797
4.38842
2.93455
1.42663
4.49523
2.34725
0.29762
2.01822
-0.122272
0.517232
-0.501936
1.8982
2.97369
2.35205
-0.847595
2.72616
-0.581781
1.29626
-0.468783
2.57672
0.874539
-0.333398
2.61087
0.787558
1.45792
1.55651
0.240632
1.05084
0.721728
-0.0177463
2.55253
-0.0924484
2.57703
1.34534
1.40843
0.484775
0.376115
-0.979382
2.78498
-0.305617
3.60133
1.56877
-0.131642
2.22927
0.605287
1.58469
-0.920266
3.18742
0.624278
2.39937
2.81509
-0.0955134
-0.621613
-0.134226
0.924862
2.29546
1.18522
0.314251
1.76636
-0.761466
2.77472
4.42338
1.19222
-2.35086
0.877527
2.96647
1.18737
-0.825665
0.934461
2.18959
-1.24756
3.36585
-0.134226
4.27341
-2.56721
0.717585
1.04557
3.04991
0.787844
1.38401
-0.94783
1.044
1.00214
-1.58901
3.65775
0.444995
0.0603376
1.7426
2.05533
-3.36103
-2.92037
5.17813
4.56155
2.38657
-0.205217
1.77483
0.355799
2.01516
-0.0200973
2.1153
-0.062154
-0.336294
0.39821
2.37264
1.60855
0.888738
-0.165557
2.33323
1.2372
1.73686
0.543857
2.2335
-0.21675
1.28573
-0.036388
2.04058
0.767073
-13.3381
3.22332
-2.12439
13.8054
-0.0400044
0.778618
2.08838
1.19327
1.98815
0.157126
-0.0602401
2.12311
1.45194
-0.311285
2.41624
0.622342
0.325969
-0.376871
1.48458
2.21551
0.0986542
1.41806
1.94747
0.598423
0.304129
1.68154
1.74744
0.315619
-0.201839
1.91682
2.41803
0.251128
1.853
-0.122258
-0.0548819
1.97136
1.29173
0.808192
2.45834
-0.334961
0.439454
1.48213
4.69527
3.41861
0.107264
0.0394109
2.22182
2.09494
1.37106
-1.36446
3.59992
0.767526
-0.49723
0.280416
1.82191
2.6457
1.68444
0.164886
1.18794
0.696122
-0.228722
2.48037
0.485779
1.75423
0.153376
1.70495
0.839629
1.01581
-0.426214
2.69532
-0.436621
2.56781
2.07309
0.0157495
-0.294541
2.44969
-0.00246162
2.99658
-0.695321
2.19648
-0.713909
1.12789
1.2922
3.11934
-7.55523
-11.0595
8.05505
11.7389
1.26099
0.764305
4.4094
3.87708
2.93389
-0.816941
0.342574
1.75847
3.88349
2.01281
0.461985
-1.50492
2.6871
2.9422
-0.375424
-0.744925
0.378472
2.3826
2.84375
4.77631
2.12029
-1.93811
4.04948
0.0551949
0.1607
2.20761
-1.31245
3.8171
0.338753
0.0734031
2.0254
1.73251
2.23955
0.782954
1.31256
-0.111378
-1.48871
1.49833
0.431051
3.46903
-1.35356
1.74772
0.584264
3.77427
-0.497901
2.5809
0.872401
1.24649
2.70352
2.94568
-0.403037
-0.77902
-0.503042
2.68387
1.42661
0.762147
2.70422
-1.82965
-0.386649
4.00324
-0.711805
-0.464682
2.7844
2.65458
2.30595
0.383483
1.69717
-0.28811
1.94506
-0.0123083
2.15001
0.271942
-0.251722
1.42439
0.720742
2.41494
1.59611
-0.50502
0.604303
2.68454
3.26236
-1.06829
0.938907
1.25939
2.78784
-1.32151
-0.174114
3.76962
-0.0998356
0.219653
1.91893
2.16286
1.39171
-0.308941
2.41747
0.689042
-0.408166
1.58418
2.6584
0.722058
-0.44085
-0.801498
2.79068
3.29765
-0.392744
0.946294
2.63771
1.28544
3.05169
-0.418382
2.45188
-1.13274
-0.328024
-0.988926
2.79918
3.31795
1.73381
0.826949
-1.39099
3.9065
1.95318
0.102137
1.96939
0.170696
3.14297
-1.07282
3.2652
-1.12422
-0.176076
1.50367
2.28895
0.583583
3.20874
-1.02908
1.29986
0.862464
3.2185
-1.00143
1.41166
0.885363
-1.53929
-2.04314
3.71105
4.43287
3.4078
-1.14954
1.41509
0.821225
0.785681
-1.37678
3.39227
1.27007
-0.664955
5.45565
-2.21287
3.63592
-0.0933853
3.32785
-1.35906
2.04193
1.74081
3.66533
-1.28669
0.649346
-0.716354
2.90549
1.6629
0.537578
-4.4406
1.54437
0.135824
6.43243
2.33102
0.97716
1.11487
-0.228766
-0.191795
1.48473
2.26294
0.632293
0.374167
-0.147816
2.16001
1.69615
0.88184
1.12895
2.31215
-0.302384
3.24675
-1.34408
2.22378
-0.262887
-0.350034
2.46319
1.95173
0.231115
-1.52274
3.52155
1.60385
0.501234
-0.556574
2.71137
1.31188
0.811354
0.753408
2.34101
-0.425241
1.18551
0.122678
1.8493
3.5017
-1.56527
3.07002
0.555812
4.39258
2.01574
2.14247
0.00033481
2.16771
0.0760039
0.358049
2.48153
1.56783
-0.0939737
0.656258
0.178451
1.7311
2.21115
-0.310543
1.62538
0.545152
2.51027
2.20923
0.736561
-0.214313
1.45208
0.1395
1.84293
0.27982
2.05812
0.912252
-0.435113
1.16033
2.49719
3.07027
-1.11595
0.89037
1.01622
2.14294
-0.000806273
0.633152
1.47708
0.112126
-0.42171
2.62394
2.02025
1.89354
0.209155
0.255248
1.89068
3.03349
-1.3574
3.52284
-1.03837
2.13679
2.58866
0.0262426
-0.402705
3.79693
-1.22833
3.69996
-1.0516
1.67231
0.274766
-3.21209
4.9689
-1.2661
2.76189
-0.382528
3.77545
0.166379
2.76189
1.92639
-0.719343
3.24755
0.818569
1.21811
-1.20196
1.24648
2.85704
-0.690309
0.927704
-3.33959
2.49608
-0.25781
5.5453
2.27811
-1.29848
3.71837
-0.0310418
3.97443
0.971757
1.55422
-1.44974
-2.60554
1.98736
1.01373
5.63014
1.88481
0.785033
4.29174
3.24759
0.212612
2.8163
1.7399
-0.91515
1.10438
-1.21819
3.33357
1.03299
-0.158228
0.993879
2.33067
1.13886
2.40276
0.331186
1.98477
-0.164598
-0.35715
1.40599
2.63749
0.841835
0.540206
2.19812
-0.0740505
1.64986
0.534083
2.10981
-0.0139692
1.60713
-3.21251
3.03831
5.48716
-0.789172
0.33834
1.99737
1.69675
0.108035
0.423707
0.103742
1.58412
1.97594
0.638208
1.52129
2.71295
-0.518163
0.166142
1.86924
1.99381
0.250464
2.3092
2.12522
-0.105242
-0.365328
1.48476
-0.669202
2.67498
0.469992
0.071989
2.39039
2.13768
-0.25793
-1.39945
1.97734
0.602135
4.03923
3.53462
-0.216202
2.82761
-1.06228
3.43171
-0.436467
2.49525
-1.48046
1.27036
0.860133
-0.819064
2.95602
0.918729
-0.0519479
2.08527
1.0806
0.53203
1.95934
1.52865
0.0544956
2.55106
2.1973
-0.137489
-0.413656
-0.17453
3.6199
-1.02748
2.90536
0.178258
1.94881
2.85553
-0.662899
0.443709
1.18674
4.33705
-2.6459
1.05805
1.7218
4.83252
-2.01711
-1.44627
1.74353
0.697546
3.96179
0.338279
1.60769
3.84798
-1.8224
-10.4375
10.3311
9.40811
-11.1701
0.834747
-0.782588
5.72675
3.46478
-0.316849
2.60166
2.67567
-0.323142
0.704404
3.94099
1.31322
-1.87198
-0.401365
2.51613
1.78658
0.404478
3.52625
-1.68691
3.63053
-1.41743
3.61962
-0.744427
-1.73467
2.43048
2.7558
-0.0538535
2.00878
-0.88219
2.68565
1.00876
-0.531009
1.13836
2.18737
-0.0517984
-0.489568
2.69883
2.62309
-2.91398
4.23316
-1.14519
1.68124
-0.00724668
0.400916
2.11594
0.0220295
1.91352
-0.783293
2.75708
-0.564759
2.16427
-0.241372
2.56018
0.253704
0.160119
1.9635
2.04048
0.05343
1.73286
2.06016
0.34282
1.44998
2.10797
-0.0990012
0.495166
3.52276
-1.18878
1.30242
0.990027
0.13494
-4.67505
6.96687
2.30039
0.488797
-1.08248
3.29905
1.79072
0.786271
3.88611
1.42933
-1.64533
-1.29435
4.35701
-2.07288
3.3478
2.22315
1.1471
-0.193741
1.0472
2.15788
-0.0675006
0.588442
1.53201
-0.320607
3.51528
-1.34286
2.36395
-2.30345
5.07079
5.24871
-2.21191
-3.60713
6.24084
-3.55432
6.67656
-1.05983
-0.155433
2.15647
3.03608
3.52234
-0.0435125
2.21777
-1.18399
1.23328
-1.49775
4.25448
1.49645
4.35622
3.30133
-1.24046
-2.53277
3.62995
-1.36521
-1.65744
3.16354
-0.0810809
2.16746
2.35002
0.0315034
1.09071
0.884966
-0.240858
2.20306
0.0259578
1.96034
2.09653
0.0916406
3.94206
1.37866
0.927463
-1.65394
-0.334868
2.57096
0.391458
1.81273
0.435346
-0.218625
1.64261
2.31129
2.32243
-0.736058
2.92027
-0.238117
2.65858
-0.638186
3.00057
-0.403347
-0.114079
1.68029
2.14497
0.311852
-14.9832
0.725359
-1.59875
14.2861
2.05844
0.0656682
2.04409
0.0322381
1.10045
3.03964
-1.11099
0.830304
2.3132
-0.163674
1.35144
0.819235
5.19523
1.07884
-2.13287
1.98634
0.898432
-0.141387
2.24182
1.2103
2.06272
0.463689
0.033029
1.66622
2.27624
0.0751928
1.93541
-0.307995
2.56466
-0.568839
1.31726
0.66464
-5.11382
2.77396
9.40152
2.52818
-1.39234
3.55773
-0.244587
2.60172
4.07724
-1.40324
2.86808
-0.41717
4.13507
-0.333244
-2.21925
2.46172
1.87178
-2.02812
0.37613
4.22342
-2.81286
-8.27589
3.53014
9.4613
-1.71714
1.88196
3.93636
0.435349
-2.05472
0.0638006
4.22804
2.01474
-2.06594
1.9314
0.811772
5.06548
1.60904
-0.166523
2.19622
0.394672
-2.48747
2.59913
-0.934317
4.26776
-0.330292
2.31663
2.8955
-0.957234
0.598978
-0.180007
2.14737
1.36766
0.545544
-0.665764
3.00685
1.73678
-0.0603541
2.61469
2.43629
-0.332276
-1.87554
2.32172
0.0233846
4.10299
2.10057
3.17663
0.137701
-0.86467
2.3888
2.84833
-0.191629
-0.566874
0.40204
3.49706
-1.30386
1.69345
2.10187
-0.0447596
1.1619
0.907606
0.256319
-0.636352
2.87853
1.9219
-1.89916
1.42644
0.83672
4.04312
-0.221915
-0.324348
2.61944
2.41159
5.21671
-0.277841
3.16627
-1.98141
2.05553
2.9733
-0.959889
0.0622308
2.8368
0.923085
1.20509
-0.684758
1.89128
0.293451
2.62678
-0.5295
-0.297965
1.91529
2.51425
0.247612
-0.200816
2.05492
2.42625
0.0982671
-3.20598
5.47138
6.92749
-1.70187
2.7431
0.00445785
1.94562
-0.858256
0.997789
-1.9415
4.14289
0.984841
1.13672
3.17593
0.869377
-1.10637
-0.0263012
3.66149
-1.00717
2.56046
0.54729
1.96174
0.0308983
1.42717
1.7811
0.219724
1.69337
0.268359
-1.14453
2.77774
-0.855735
2.94894
3.05692
-1.05806
3.44085
-0.518412
3.21155
-0.972888
0.154599
2.15542
4.11105
1.35404
-2.20379
0.488229
3.28574
-1.38305
-1.0695
3.45319
-0.0837511
4.65344
1.92355
-2.56112
-0.734813
2.31878
2.83693
-0.329875
4.6752
-2.24691
-0.915468
3.58755
0.530944
3.43895
-1.23896
1.58517
2.78613
-0.698258
-2.19401
4.12395
-1.56607
0.364427
4.08667
2.06728
1.60927
-5.68634
1.06849
8.5138
-0.779871
-0.83389
4.04424
5.61434
2.6363
0.11044
1.96316
-0.596005
2.4585
1.39993
-0.384842
0.697583
2.73422
3.57824
-1.72956
-0.733921
3.58677
3.27522
-1.14189
-0.617179
0.7314
3.57846
-1.53448
1.30824
1.37674
3.80134
0.972263
-1.42808
4.10201
1.00592
1.21592
-1.86585
-2.36408
2.15739
4.60759
0.195982
3.95999
0.945203
1.30944
-1.67491
0.457533
2.17045
1.69889
-0.0221711
0.0513463
1.84884
0.324104
2.05519
4.31975
1.6232
0.775448
-1.84733
3.9062
-8.19561
9.30994
-2.76622
0.894681
-0.479447
2.63638
1.25578
1.72022
0.401419
2.07084
0.0887779
2.34285
1.35521
0.930745
-0.17687
0.215778
1.98982
2.39768
-0.25673
1.4021
-0.493833
0.77023
2.67498
0.22247
2.03444
-0.401705
2.58508
-0.626115
1.36691
2.85819
0.844808
2.11792
0.56452
-0.017739
1.60097
1.84903
0.187135
1.942
0.250392
2.17891
0.220293
-0.0262161
1.88868
-1.28839
2.99124
3.32569
-0.815229
3.57276
1.88605
-0.00511564
-1.63839
-5.15927
6.08856
-3.3955
7.84949
1.92521
-1.73985
3.89826
0.284873
0.280059
1.96292
-0.49104
2.66213
1.26888
-0.689657
2.89745
0.923504
1.71567
0.619843
-1.16702
3.52546
-0.312753
1.10506
2.45
1.05222
-0.368425
2.5506
1.24063
0.95057
3.09852
-0.882633
1.07719
1.16422
2.00087
-0.0137294
3.54055
-1.66785
-0.429453
0.296221
1.89882
2.66154
-0.414752
2.28416
-0.000377324
2.76902
2.4469
-0.177827
2.20714
-0.00999968
2.21369
-0.0758575
-0.166738
2.19161
0.732018
1.66238
-0.98354
3.43213
5.47983
1.22667
-2.94845
1.51749
4.66276
-0.750717
3.17596
-2.24524
-0.690226
-0.019123
3.05708
2.5043
-0.816608
3.10262
2.5715
-0.172792
6.47669
3.80683
-1.17176
-3.98123
0.614709
4.8327
1.70592
-2.28631
-0.454926
4.74955
2.37731
-2.7744
0.516001
-0.196433
1.62324
2.29273
-0.724382
2.88888
1.42467
0.714018
0.417551
1.70265
3.01639
-0.92532
-1.51921
1.1252
3.89674
1.26811
-1.15311
0.341213
2.2038
3.63663
-1.69629
1.82563
3.67317
0.177367
1.75568
3.44699
0.558355
-1.17534
3.3299
1.2409
0.983522
-1.14128
6.34094
3.11758
-2.85417
0.418692
-0.666463
1.28695
2.71197
0.786054
1.66776
2.21569
-0.114264
0.481207
-0.21915
2.33562
1.1723
0.913284
3.19917
-1.12104
-1.32875
3.12742
-0.854303
-0.444914
2.36031
2.87417
2.59471
0.0774348
-0.494192
2.13043
0.260415
2.05786
0.0498507
1.79184
4.01167
0.764651
1.55119
-1.65862
2.36493
0.975651
-0.274436
1.09368
0.00269783
1.98902
2.09331
0.176629
-7.97322
-12.222
11.1699
8.03082
1.72164
-0.0565624
2.07533
0.246257
-0.997693
0.760175
1.37758
3.20625
-0.770038
2.21709
-0.0102669
2.87349
-0.885388
2.00782
3.21307
0.220803
3.33034
-1.62772
-1.10451
4.03893
4.23042
-0.240121
-1.39211
2.85444
4.01606
-0.140572
2.56744
-1.39614
2.5836
-0.272552
2.48655
-0.288484
0.351207
1.68865
2.69141
-0.586812
1.45683
-0.309876
0.675997
2.45701
1.97365
2.17068
-0.0691691
0.197378
1.86688
0.0712557
0.10383
1.95338
1.19929
-2.14693
0.879172
4.27468
-0.241182
1.05262
0.904132
2.19715
2.03316
-0.323471
-0.154664
2.13939
2.58905
-0.124606
-0.559216
2.92372
0.412581
2.51162
1.41826
-0.64127
3.35054
0.583834
1.79986
-0.926832
-14.8116
-2.61391
14.0272
1.88851
-0.102189
2.26816
2.17284
-0.127678
4.25904
1.97672
-1.91337
0.340344
2.57059
-0.444868
0.372735
1.72628
2.69922
0.275086
1.75602
-0.587056
0.983581
3.00334
0.865272
-1.14245
3.07865
0.556318
-0.773671
1.69782
4.87057
0.889936
1.40887
-2.26141
2.65473
-0.393832
2.41178
-0.100625
2.5307
-2.25745
-0.241274
4.37493
2.40068
0.675793
-0.271602
1.42825
3.01457
0.243951
-0.994837
1.69655
0.946414
-1.39345
3.40986
1.09451
-1.83666
3.621
2.70465
-0.874169
3.04755
0.011834
2.3066
-0.637017
-0.935386
3.2916
1.35051
0.987563
3.17802
-0.87348
1.84927
0.554587
0.144113
2.38461
-0.441946
1.73956
3.16465
3.49916
-1.187
-0.701527
-0.816779
0.740912
1.45324
3.05821
2.74224
-0.550185
0.0582409
2.20441
-1.56313
-1.85066
3.87717
3.35201
0.995964
1.0254
2.74417
-0.697787
-0.0581716
4.44053
1.89511
-2.50993
-0.161418
0.742393
2.10523
1.1673
-0.405911
1.62775
2.44679
0.359801
0.77888
1.63942
-0.955493
3.3143
0.918135
1.11512
-0.696076
2.70364
-3.14528
0.21326
5.64319
2.72944
5.39596
-0.956936
4.0206
-1.95106
1.72518
3.07551
0.525674
-0.806741
4.82468
-0.829526
2.50326
-2.88589
5.24838
-2.09531
1.50393
1.60547
1.79098
3.56132
-1.95835
-0.16667
-0.0967276
5.41831
2.36839
-2.98251
1.01409
-2.05345
1.51387
4.66812
-0.26007
-0.809084
2.53898
3.178
2.45358
-0.13103
-0.445587
2.65152
2.92264
-1.18318
-0.812507
3.19022
1.95568
0.115002
2.4953
-0.504679
2.77484
0.758292
1.2614
-0.725129
0.887023
1.36364
-0.69887
2.98296
0.226413
2.05681
-0.5084
2.73628
-2.22027
-0.636004
4.26131
2.5923
2.41995
0.448573
-0.435893
1.50695
2.73608
0.578654
1.5313
-0.583427
2.05299
-0.052687
2.0683
-0.131263
2.1655
0.0151323
2.39638
-0.297463
3.00186
-0.882212
2.89255
-0.878235
3.84518
-0.983671
4.0088
-1.11463
-3.27375
5.03369
0.840938
0.676781
0.98019
1.36914
-1.29641
3.66637
)
;

boundaryField
{
    insideCircle
    {
        type            myTemperature;
        value           nonuniform List<scalar> 
24
(
4.38695
3.19351
1.49789
4.55044
0.152126
1.85309
4.71458
3.25519
1.3244
0.649586
4.43511
3.8844
0.386254
2.26216
3.06953
4.74283
3.15394
0.75542
4.41843
1.89355
1.81631
0.804783
4.28304
3.23724
)
;
    }
    outsideCircle
    {
        type            myTemperature;
        value           nonuniform List<scalar> 
124
(
1.94821
0.356668
1.98487
-0.113511
0.157923
0.924865
1.73568
1.92148
1.43945
0.0383868
0.617631
2.20441
-0.0976004
2.15973
1.12638
1.11755
2.26575
0.964512
1.17149
-0.125904
-0.128998
0.744726
2.2848
1.45217
1.13226
0.287849
2.21652
-0.0103771
0.106831
0.247831
2.15284
1.76044
2.2242
0.807207
-0.101666
1.40669
1.3474
-0.0982878
2.24716
0.762992
-0.22068
1.03698
2.32797
1.12862
0.289403
0.0335273
1.75947
2.17411
0.932583
-0.171861
2.30573
1.2193
1.66173
0.374759
2.06958
0.191167
0.625609
1.90251
1.75999
0.0274537
-0.0709629
-0.00952515
2.36331
1.51759
2.36226
0.692785
-0.0394238
1.39991
0.0981028
1.93194
0.235397
2.05244
2.14528
-0.0752371
0.601493
1.44829
1.84237
0.181872
0.245
1.87568
-0.205182
0.939182
2.34648
1.23122
0.472204
2.18787
-0.0279628
1.67401
0.196877
0.162805
1.85511
1.96808
1.75971
2.31843
-0.00185249
0.576284
2.21239
0.964842
-0.0514008
1.02362
2.08706
-0.0118719
0.605596
1.4886
2.21944
-0.120493
1.27863
0.826844
0.387465
2.16308
1.73582
0.0224828
0.104366
1.79729
0.30337
2.12989
1.79985
0.407246
2.1626
-0.0588411
2.27386
1.23554
0.747961
-0.136643
)
;
    }
    topAndBottom
    {
        type            empty;
    }
}


// ************************************************************************* //
