/*--------------------------------*- C++ -*----------------------------------*\
| =========                 |                                                 |
| \\      /  F ield         | foam-extend: Open Source CFD                    |
|  \\    /   O peration     | Version:  3.0                                   |
|   \\  /    A nd           | Web:         http://www.extend-project.de       |
|    \\/     M anipulation  |                                                 |
\*---------------------------------------------------------------------------*/
FoamFile
{
    version     2.0;
    format      ascii;
    class       volScalarField;
    location    "2.4";
    object      Theta;
}
// * * * * * * * * * * * * * * * * * * * * * * * * * * * * * * * * * * * * * //

dimensions      [0 0 0 0 0 0 0];

internalField   nonuniform List<scalar> 
400
(
0.0830955
0.0610377
0.0536076
0.0472373
0.0485734
0.0513897
0.0578961
0.065486
0.0746341
0.0842014
0.0941551
0.103702
0.112808
0.120209
0.126399
0.128513
0.128869
0.120829
0.11137
0.08616
0.106371
0.0851247
0.0795868
0.0734935
0.0740478
0.0745245
0.0775189
0.080531
0.0843326
0.0880524
0.0919265
0.0954767
0.0989496
0.101439
0.103752
0.103327
0.102813
0.0955345
0.0886645
0.0667277
0.0990328
0.0779077
0.0722326
0.0658148
0.0671658
0.0681498
0.0724444
0.07665
0.0820646
0.0873709
0.0930382
0.0982758
0.103561
0.10749
0.111401
0.111715
0.112214
0.104621
0.0975739
0.0755145
0.0960396
0.0734229
0.0689327
0.0628901
0.0654657
0.0669892
0.0719838
0.0764691
0.0821627
0.0875761
0.093425
0.0988478
0.104576
0.108995
0.113887
0.114972
0.11694
0.109718
0.103755
0.0797128
0.0851429
0.059478
0.0559873
0.0503873
0.0549694
0.0580055
0.0650997
0.0714328
0.0792219
0.086651
0.0946934
0.102278
0.110412
0.117063
0.124593
0.127579
0.13205
0.125087
0.119961
0.0911586
0.0754273
0.0465917
0.0449311
0.0402883
0.0472181
0.0517817
0.0606716
0.0683169
0.0774592
0.0860622
0.0954097
0.104327
0.114166
0.122579
0.132591
0.137655
0.145249
0.139159
0.135808
0.101473
0.0630703
0.0300347
0.0311564
0.0277213
0.0375234
0.0438933
0.0548983
0.0641343
0.0749232
0.0850011
0.0959657
0.106542
0.118447
0.129003
0.142037
0.14966
0.161393
0.156455
0.156394
0.113576
0.0504536
0.015194
0.0195718
0.0179462
0.0304204
0.0384457
0.0510639
0.061389
0.0731729
0.0840679
0.0959302
0.107488
0.120777
0.132967
0.148562
0.158725
0.174671
0.171762
0.175826
0.126021
0.0361827
0.000617124
0.00895189
0.00949565
0.0244557
0.0339908
0.0478828
0.0590309
0.071462
0.0828591
0.0952399
0.107425
0.121669
0.135165
0.152963
0.165592
0.185958
0.185647
0.195668
0.139122
0.0207785
-0.00968208
0.00187527
0.00530513
0.0217066
0.0324493
0.0468093
0.0582478
0.0706268
0.0818991
0.0940551
0.106149
0.120436
0.134474
0.153297
0.16792
0.191306
0.194702
0.209876
0.153703
0.00255656
-0.0183187
-0.00332167
0.00356175
0.020873
0.0326485
0.0469585
0.0583278
0.0701525
0.0808386
0.0921907
0.103626
0.117203
0.131152
0.150075
0.166313
0.192096
0.200125
0.222183
0.171008
-0.0170231
-0.0216173
-0.00488258
0.00633533
0.0232891
0.0358962
0.0493878
0.0602578
0.070936
0.0805179
0.0904217
0.100536
0.11246
0.125451
0.142869
0.15992
0.185329
0.199146
0.224425
0.190657
-0.0403226
-0.0254995
-0.00595324
0.0103105
0.0269942
0.0404847
0.0529222
0.0630574
0.0722266
0.0803318
0.0883141
0.0966102
0.106216
0.117653
0.13274
0.15027
0.175052
0.195874
0.228056
0.216926
-0.0622179
-0.0240348
-0.00325147
0.0186309
0.0341934
0.048347
0.0592005
0.0682424
0.0755199
0.0817877
0.0874516
0.0934403
0.100038
0.109078
0.120314
0.137128
0.157722
0.185728
0.217061
0.242027
-0.0848018
-0.0245684
-0.000693796
0.027107
0.0422536
0.057122
0.0664002
0.0741822
0.0793846
0.0835965
0.0866968
0.0900829
0.0933133
0.09954
0.106588
0.122435
0.139868
0.176027
0.214697
0.276939
-0.0990051
-0.0179093
0.00847542
0.0412826
0.0553578
0.0701196
0.0773596
0.0834196
0.086363
0.0883203
0.0887985
0.0893433
0.0889683
0.091613
0.0933737
0.106282
0.116418
0.157843
0.189151
0.297667
-0.105352
-0.00899031
0.0190689
0.0564037
0.0695283
0.0839347
0.0890145
0.0931798
0.0937791
0.093442
0.0912779
0.0889565
0.0849248
0.0838209
0.0803462
0.0900588
0.0948254
0.1418
0.178779
0.330111
-0.0896385
0.0119163
0.0427997
0.0803891
0.0913637
0.103376
0.105735
0.107354
0.105672
0.10303
0.0986104
0.0935123
0.0862476
0.0808262
0.0718624
0.075383
0.0708627
0.11464
0.134157
0.320546
-0.0583813
0.0413077
0.0689633
0.10626
0.113958
0.123213
0.1225
0.121501
0.117517
0.112723
0.106171
0.098539
0.0881728
0.078602
0.0642657
0.061496
0.0491279
0.089645
0.105087
0.322933
0.0305065
0.0963988
0.118515
0.145255
0.147037
0.149717
0.145618
0.141107
0.135487
0.128667
0.121161
0.111374
0.0995659
0.0855286
0.0676417
0.0542253
0.0337349
0.0521829
0.0438546
0.230767
)
;

boundaryField
{
    cavity
    {
        type            implicitExtrapolation;
    }
    lid
    {
        type            implicitExtrapolation;
    }
    frontAndBack
    {
        type            empty;
    }
}


// ************************************************************************* //
