/*--------------------------------*- C++ -*----------------------------------*\
| =========                 |                                                 |
| \\      /  F ield         | foam-extend: Open Source CFD                    |
|  \\    /   O peration     | Version:  3.0                                   |
|   \\  /    A nd           | Web:         http://www.extend-project.de       |
|    \\/     M anipulation  |                                                 |
\*---------------------------------------------------------------------------*/
FoamFile
{
    version     2.0;
    format      ascii;
    class       volVectorField;
    location    "2.4";
    object      u;
}
// * * * * * * * * * * * * * * * * * * * * * * * * * * * * * * * * * * * * * //

dimensions      [0 0 0 0 0 0 0];

internalField   nonuniform List<vector> 
400
(
(0.00618127 0.0301376 5.32161e-316)
(-0.109286 0.0966752 4.81454e-316)
(-0.133858 0.0946862 3.92744e-316)
(-0.234852 0.129731 3.72081e-316)
(-0.281001 0.115924 2.74634e-316)
(-0.35866 0.115519 2.75167e-316)
(-0.402299 0.095011 1.83222e-316)
(-0.452602 0.0752598 1.96948e-316)
(-0.478497 0.0504284 1.14429e-316)
(-0.498147 0.0226006 1.38064e-316)
(-0.499083 -0.00420088 6.39758e-317)
(-0.485844 -0.0332262 9.49059e-317)
(-0.460949 -0.0599897 2.67277e-317)
(-0.413993 -0.0825535 6.1893e-317)
(-0.36947 -0.105696 -2.76445e-318)
(-0.290435 -0.108327 3.22533e-317)
(-0.242481 -0.123319 -2.7828e-317)
(-0.136325 -0.0871856 -3.24211e-318)
(-0.112234 -0.0877342 -4.66869e-317)
(0.00872278 -0.0172951 -5.0998e-317)
(-0.0338783 0.158137 1.84946e-316)
(-0.0963798 0.158284 2.24652e-316)
(-0.144631 0.136741 2.16743e-316)
(-0.201439 0.137007 2.21337e-316)
(-0.234917 0.111518 1.94087e-316)
(-0.278208 0.103611 1.86069e-316)
(-0.30121 0.0777074 1.51771e-316)
(-0.328331 0.0615911 1.41246e-316)
(-0.340348 0.0344012 1.07068e-316)
(-0.350695 0.0132237 9.86814e-317)
(-0.350318 -0.0156376 6.76047e-317)
(-0.343289 -0.0371956 6.27205e-317)
(-0.330467 -0.0672682 3.50359e-317)
(-0.305319 -0.0840223 3.30236e-317)
(-0.281578 -0.114631 7.68577e-318)
(-0.237834 -0.122178 6.30033e-318)
(-0.204322 -0.152161 -1.81209e-317)
(-0.144422 -0.14939 -2.53708e-317)
(-0.09783 -0.172509 -5.04023e-317)
(-0.0317306 -0.168721 -8.33661e-317)
(-0.0127312 0.248615 2.58723e-316)
(-0.0955464 0.284607 2.45476e-316)
(-0.144281 0.273146 2.18863e-316)
(-0.214814 0.28298 2.01379e-316)
(-0.263593 0.247628 1.69569e-316)
(-0.314435 0.227503 1.5547e-316)
(-0.350899 0.181689 1.24535e-316)
(-0.38228 0.140397 1.13775e-316)
(-0.401659 0.0896509 8.54952e-317)
(-0.415119 0.0374609 7.75901e-317)
(-0.415727 -0.0159789 5.17007e-317)
(-0.411056 -0.0694666 4.5605e-317)
(-0.392119 -0.123958 2.06546e-317)
(-0.366426 -0.168008 1.41907e-317)
(-0.328638 -0.219764 -1.24525e-317)
(-0.277619 -0.241067 -2.36225e-317)
(-0.226576 -0.281243 -5.53779e-317)
(-0.148958 -0.267767 -8.00764e-317)
(-0.100887 -0.278331 -1.19333e-316)
(-0.0078508 -0.234634 -1.7011e-316)
(-0.0258279 0.333994 3.19831e-317)
(-0.100544 0.37108 8.21183e-317)
(-0.15527 0.33259 9.90477e-317)
(-0.202899 0.332281 1.12023e-316)
(-0.245866 0.277479 1.09235e-316)
(-0.272234 0.247933 1.05114e-316)
(-0.2998 0.192358 9.30157e-317)
(-0.31354 0.145569 8.29461e-317)
(-0.327066 0.0907732 6.80223e-317)
(-0.333684 0.03539 5.69271e-317)
(-0.334332 -0.0213533 4.21376e-317)
(-0.335162 -0.07833 3.17983e-317)
(-0.322141 -0.14038 1.81243e-317)
(-0.313953 -0.190579 9.22014e-318)
(-0.284931 -0.259098 -2.58168e-318)
(-0.259546 -0.289803 -8.60509e-318)
(-0.213793 -0.358686 -1.63519e-317)
(-0.159728 -0.352243 -1.47933e-317)
(-0.105821 -0.396329 -1.3362e-317)
(-0.0187065 -0.342532 6.31531e-318)
(-0.0375418 0.436751 1.9643e-316)
(-0.117532 0.478731 1.69265e-316)
(-0.193771 0.429176 1.49803e-316)
(-0.241064 0.421483 1.30267e-316)
(-0.301522 0.355799 1.13156e-316)
(-0.326495 0.311295 9.88625e-317)
(-0.366141 0.247384 8.34679e-317)
(-0.38035 0.182466 7.13425e-317)
(-0.400616 0.121559 5.71073e-317)
(-0.41078 0.0467595 4.59617e-317)
(-0.412977 -0.014879 3.22926e-317)
(-0.420431 -0.0921142 2.12669e-317)
(-0.402801 -0.159422 7.06943e-318)
(-0.40281 -0.229897 -5.5073e-318)
(-0.361054 -0.306111 -2.24407e-317)
(-0.341717 -0.353659 -4.02596e-317)
(-0.274079 -0.434388 -6.37229e-317)
(-0.217175 -0.433345 -9.44069e-317)
(-0.13581 -0.490007 -1.29377e-316)
(-0.0301834 -0.421762 -1.8256e-316)
(-0.0577962 0.551346 1.7497e-317)
(-0.119207 0.592358 5.25429e-317)
(-0.211747 0.511277 6.59897e-317)
(-0.229626 0.489369 7.56507e-317)
(-0.291642 0.404595 7.52307e-317)
(-0.290197 0.344717 7.17194e-317)
(-0.325965 0.274062 6.42472e-317)
(-0.322272 0.197401 5.58359e-317)
(-0.339532 0.13633 4.58113e-317)
(-0.342295 0.0520562 3.60696e-317)
(-0.345249 -0.00919357 2.55096e-317)
(-0.357238 -0.0973896 1.56865e-317)
(-0.34382 -0.170155 5.34861e-318)
(-0.361785 -0.256473 -3.84487e-318)
(-0.323772 -0.351205 -1.29435e-317)
(-0.335464 -0.418804 -1.94026e-317)
(-0.263028 -0.537276 -2.43714e-317)
(-0.242789 -0.549475 -2.15616e-317)
(-0.137968 -0.65643 -1.65427e-317)
(-0.053903 -0.572536 7.35394e-318)
(-0.0990934 0.666988 1.87195e-316)
(-0.136598 0.683957 1.4693e-316)
(-0.269144 0.579883 1.24266e-316)
(-0.262732 0.533752 1.02142e-316)
(-0.342952 0.442824 8.69847e-317)
(-0.326256 0.363142 7.34436e-317)
(-0.370352 0.295425 6.15979e-317)
(-0.3608 0.203782 5.08228e-317)
(-0.382404 0.15015 4.02067e-317)
(-0.3879 0.0532606 3.01686e-317)
(-0.39332 0.00230539 1.97763e-317)
(-0.41665 -0.0996441 9.51381e-318)
(-0.402689 -0.160709 -1.65454e-318)
(-0.441143 -0.265578 -1.35618e-317)
(-0.394558 -0.351365 -2.7445e-317)
(-0.43509 -0.444222 -4.43967e-317)
(-0.335927 -0.566594 -6.4825e-317)
(-0.346182 -0.605871 -9.49178e-317)
(-0.181232 -0.74223 -1.2825e-316)
(-0.108937 -0.673045 -1.83883e-316)
(-0.145253 0.836308 2.51472e-317)
(-0.119841 0.804922 5.19854e-317)
(-0.281551 0.672047 6.01088e-317)
(-0.227043 0.588637 6.56066e-317)
(-0.30912 0.490661 6.32141e-317)
(-0.26178 0.38612 5.83927e-317)
(-0.300389 0.322758 5.11496e-317)
(-0.272185 0.216195 4.30288e-317)
(-0.289817 0.171798 3.42295e-317)
(-0.285692 0.0644137 2.53202e-317)
(-0.291974 0.0230661 1.6158e-317)
(-0.315445 -0.0919782 7.08577e-318)
(-0.307072 -0.148216 -2.11731e-318)
(-0.360332 -0.276227 -1.10115e-317)
(-0.319452 -0.369932 -1.95844e-317)
(-0.398737 -0.501129 -2.6516e-317)
(-0.291798 -0.656271 -3.18771e-317)
(-0.374344 -0.744829 -3.02778e-317)
(-0.158283 -0.947906 -2.65742e-317)
(-0.179954 -0.919533 -3.77521e-318)
(-0.204249 0.96853 1.8341e-316)
(-0.114327 0.848561 1.37539e-316)
(-0.322526 0.710982 1.13091e-316)
(-0.227719 0.576911 8.99915e-317)
(-0.322978 0.492213 7.50636e-317)
(-0.256085 0.362297 6.19242e-317)
(-0.296858 0.314642 5.09917e-317)
(-0.261709 0.196506 4.0963e-317)
(-0.280414 0.168774 3.14894e-317)
(-0.27859 0.0554961 2.23443e-317)
(-0.288379 0.0342033 1.3206e-317)
(-0.323852 -0.0878878 3.95764e-318)
(-0.320585 -0.117586 -5.79271e-318)
(-0.398929 -0.261912 -1.64328e-317)
(-0.357691 -0.32174 -2.8543e-317)
(-0.480568 -0.489828 -4.38129e-317)
(-0.348401 -0.612539 -6.22193e-317)
(-0.49698 -0.771358 -9.10079e-317)
(-0.190783 -0.977526 -1.23355e-316)
(-0.285232 -1.05805 -1.82143e-316)
(-0.236933 1.17344 3.28113e-317)
(-0.0605486 0.938179 5.72118e-317)
(-0.28223 0.799314 6.19092e-317)
(-0.144874 0.598549 6.44301e-317)
(-0.230807 0.52854 5.9828e-317)
(-0.143669 0.365496 5.34357e-317)
(-0.172744 0.334417 4.54782e-317)
(-0.124491 0.202022 3.70865e-317)
(-0.136398 0.191702 2.85221e-317)
(-0.123008 0.07167 2.00023e-317)
(-0.133035 0.0684254 1.15073e-317)
(-0.158268 -0.0635641 3.05654e-318)
(-0.162819 -0.0762473 -5.43987e-318)
(-0.237972 -0.246533 -1.38398e-317)
(-0.209711 -0.295446 -2.20432e-317)
(-0.353463 -0.522548 -2.91535e-317)
(-0.225645 -0.652728 -3.50341e-317)
(-0.45498 -0.920449 -3.47887e-317)
(-0.101768 -1.18005 -3.28727e-317)
(-0.368916 -1.41695 -1.23982e-317)
(-0.257067 1.27014 1.78626e-316)
(-0.0278535 0.905756 1.31732e-316)
(-0.263567 0.804505 1.07402e-316)
(-0.103455 0.536919 8.45842e-317)
(-0.184247 0.500225 6.97934e-317)
(-0.0891117 0.312447 5.68259e-317)
(-0.109804 0.302521 4.60728e-317)
(-0.0594864 0.164644 3.6289e-317)
(-0.0678869 0.171093 2.72245e-317)
(-0.0564524 0.0526919 1.85975e-317)
(-0.0707727 0.0691403 1.01583e-317)
(-0.103482 -0.0617428 1.75981e-318)
(-0.120488 -0.0434294 -6.89725e-318)
(-0.213228 -0.223229 -1.62097e-317)
(-0.200677 -0.218421 -2.66107e-317)
(-0.380508 -0.486569 -3.97726e-317)
(-0.250437 -0.530435 -5.5647e-317)
(-0.545176 -0.909594 -8.20969e-317)
(-0.118997 -1.08441 -1.12116e-316)
(-0.470865 -1.53272 -1.73398e-316)
(-0.197411 1.442 3.80892e-317)
(0.0491535 0.950112 6.43001e-317)
(-0.130439 0.874847 6.67518e-317)
(0.02397 0.53058 6.69792e-317)
(-0.0217611 0.520505 6.01902e-317)
(0.0686617 0.300395 5.21681e-317)
(0.0684137 0.31073 4.32428e-317)
(0.121549 0.164641 3.4357e-317)
(0.12281 0.19024 2.5761e-317)
(0.146516 0.0729699 1.74715e-317)
(0.133182 0.11035 9.4478e-318)
(0.123805 -0.0218472 1.61364e-318)
(0.0977841 0.0204498 -6.12189e-318)
(0.0392494 -0.179353 -1.37208e-317)
(0.0282532 -0.148685 -2.10965e-317)
(-0.116997 -0.485288 -2.75449e-317)
(-0.0269589 -0.510232 -3.27562e-317)
(-0.330949 -1.04957 -3.23436e-317)
(0.0529402 -1.2556 -2.99258e-317)
(-0.446065 -1.96063 -9.23696e-318)
(-0.139542 1.41321 1.7259e-316)
(0.0795822 0.85806 1.29291e-316)
(-0.043475 0.83577 1.0561e-316)
(0.0916521 0.449538 8.32513e-317)
(0.0824047 0.46853 6.81114e-317)
(0.163834 0.23877 5.48517e-317)
(0.185447 0.261901 4.3829e-317)
(0.234891 0.120171 3.39754e-317)
(0.244539 0.153147 2.50396e-317)
(0.26711 0.0448469 1.67497e-317)
(0.249369 0.0910013 8.87301e-318)
(0.239387 -0.0315603 1.22571e-318)
(0.19372 0.0299265 -6.38151e-318)
(0.131424 -0.165936 -1.42713e-317)
(0.0815337 -0.0867781 -2.27049e-317)
(-0.0767994 -0.44606 -3.31417e-317)
(-0.0376736 -0.356099 -4.52842e-317)
(-0.3672 -0.993254 -6.70726e-317)
(-0.000754355 -1.00678 -9.11062e-317)
(-0.498914 -1.89576 -1.48378e-316)
(0.037156 1.49655 4.54505e-317)
(0.137371 0.873712 7.68521e-317)
(0.16735 0.868327 7.56879e-317)
(0.240446 0.429523 7.24926e-317)
(0.293512 0.464362 6.26849e-317)
(0.349106 0.217427 5.25622e-317)
(0.395752 0.25459 4.24038e-317)
(0.439403 0.11635 3.29392e-317)
(0.458758 0.164461 2.42104e-317)
(0.492336 0.0675056 1.6118e-317)
(0.477003 0.131924 8.52252e-318)
(0.498865 0.0205258 1.32618e-318)
(0.44683 0.105841 -5.5824e-318)
(0.447289 -0.092302 -1.21933e-317)
(0.368766 0.0170905 -1.82894e-317)
(0.317615 -0.393451 -2.32604e-317)
(0.272263 -0.277314 -2.63691e-317)
(0.0848244 -1.08391 -2.32069e-317)
(0.24008 -1.14751 -1.63314e-317)
(-0.219966 -2.36413 1.3704e-317)
(0.144104 1.29586 1.74092e-316)
(0.15863 0.76601 1.33806e-316)
(0.299138 0.764849 1.08266e-316)
(0.328287 0.356472 8.44257e-317)
(0.444191 0.390029 6.7866e-317)
(0.483531 0.162446 5.37192e-317)
(0.56073 0.196125 4.2209e-317)
(0.597965 0.0733683 3.22062e-317)
(0.627931 0.115749 2.34123e-317)
(0.660903 0.0324419 1.54704e-317)
(0.642286 0.0895175 8.13999e-318)
(0.668554 -0.00649415 1.23549e-318)
(0.595008 0.0734235 -5.37394e-318)
(0.602273 -0.104312 -1.18941e-317)
(0.466604 0.0159447 -1.83711e-317)
(0.418558 -0.372908 -2.5842e-317)
(0.257816 -0.179304 -3.36417e-317)
(0.0658183 -0.978606 -4.8649e-317)
(0.086552 -0.791593 -6.36728e-317)
(-0.327303 -1.9146 -1.06549e-316)
(0.329857 1.27902 8.63969e-317)
(0.175142 0.761603 1.08216e-316)
(0.51711 0.746342 9.49611e-317)
(0.482694 0.324692 8.2598e-317)
(0.662179 0.353022 6.74703e-317)
(0.673512 0.132915 5.40848e-317)
(0.767513 0.172297 4.23177e-317)
(0.795148 0.0668076 3.20776e-317)
(0.829704 0.118686 2.31445e-317)
(0.87037 0.055454 1.51582e-317)
(0.85509 0.125359 7.88351e-318)
(0.912817 0.0523888 1.15451e-318)
(0.841259 0.151906 -5.12235e-318)
(0.922232 -0.00241763 -1.092e-317)
(0.771023 0.147338 -1.59124e-317)
(0.882398 -0.245805 -1.93585e-317)
(0.625351 -0.023946 -2.0102e-317)
(0.754379 -0.960825 -1.27747e-317)
(0.392955 -0.855901 3.70851e-319)
(0.390025 -2.51869 4.79167e-317)
(0.559865 0.965756 1.9045e-316)
(0.257781 0.644533 1.34154e-316)
(0.697781 0.562026 1.04979e-316)
(0.623064 0.259291 7.8778e-317)
(0.857182 0.26259 6.21134e-317)
(0.857112 0.0909023 4.83742e-317)
(0.974682 0.114958 3.75814e-317)
(0.994719 0.0314951 2.84388e-317)
(1.03678 0.0669374 2.05566e-317)
(1.07341 0.0168546 1.35437e-317)
(1.05829 0.0647076 7.17004e-318)
(1.11639 0.00655268 1.27789e-318)
(1.03368 0.0736233 -4.18498e-318)
(1.11549 -0.0505984 -9.34424e-318)
(0.917781 0.0525247 -1.40737e-317)
(1.0153 -0.267313 -1.89976e-317)
(0.628905 -0.0829013 -2.3432e-317)
(0.67822 -0.823098 -3.25182e-317)
(0.166086 -0.553107 -4.10823e-317)
(-0.100139 -1.43335 -6.94161e-317)
(0.353921 0.752893 2.44915e-316)
(0.298698 0.670571 1.92506e-316)
(0.884046 0.508716 1.44964e-316)
(0.84309 0.221351 1.09363e-316)
(1.12054 0.202015 8.30822e-317)
(1.1012 0.0564705 6.30121e-317)
(1.21858 0.0833449 4.75582e-317)
(1.22783 0.0254148 3.50553e-317)
(1.26491 0.067198 2.46614e-317)
(1.31051 0.0397318 1.5657e-317)
(1.29639 0.0963651 7.62762e-318)
(1.39121 0.0660244 2.47166e-319)
(1.31827 0.150399 -6.61008e-318)
(1.48673 0.0695035 -1.29356e-317)
(1.29686 0.208255 -1.82916e-317)
(1.59199 -0.0630585 -2.17135e-317)
(1.12124 0.187736 -2.15574e-317)
(1.66893 -0.661597 -1.10192e-317)
(0.541412 -0.350767 7.98194e-318)
(1.47484 -2.424 7.18412e-317)
(1.25226 0.571142 9.04525e-317)
(0.493786 0.3336 3.74986e-317)
(0.986594 0.237835 3.23559e-317)
(0.880875 0.116873 2.44409e-317)
(1.08182 0.10661 2.16791e-317)
(1.07043 0.0300452 1.8284e-317)
(1.16541 0.0382947 1.53529e-317)
(1.16871 0.00291819 1.23976e-317)
(1.20404 0.0184739 9.54843e-318)
(1.22267 -0.000702292 6.82731e-318)
(1.21931 0.0200275 4.25617e-318)
(1.26028 -0.00215758 1.90257e-318)
(1.21066 0.0240367 -1.87829e-319)
(1.27995 -0.0286591 -1.98962e-318)
(1.13439 0.00333292 -3.47637e-318)
(1.24026 -0.147735 -5.22379e-318)
(0.891886 -0.107587 -7.50772e-318)
(0.995051 -0.466806 -1.52128e-317)
(0.433728 -0.422732 -2.71938e-317)
(-0.166682 -0.297985 -6.45443e-317)
(-0.327504 -0.231744 7.09609e-316)
(0.909818 0.800888 4.42406e-316)
(1.78497 0.277664 3.07674e-316)
(1.86013 0.161389 2.15451e-316)
(2.29636 0.0904435 1.58632e-316)
(2.22015 0.00689742 1.17697e-316)
(2.35951 0.0255561 8.7536e-317)
(2.33546 0.0014343 6.36945e-317)
(2.36463 0.0344987 4.40465e-317)
(2.43352 0.0285421 2.70887e-317)
(2.41623 0.0722402 1.18999e-317)
(2.60786 0.0679266 -2.24481e-318)
(2.54238 0.135031 -1.5678e-317)
(2.91144 0.109374 -2.85094e-317)
(2.70353 0.223724 -4.01282e-317)
(3.35055 0.0724919 -4.90139e-317)
(2.58672 0.31476 -5.17631e-317)
(3.76883 -0.3897 -3.94042e-317)
(1.02635 0.299586 -9.40591e-318)
(3.59617 -2.1585 7.90579e-317)
)
;

boundaryField
{
    cavity
    {
        type            myImplicitVelocity;
    }
    lid
    {
        type            fixedValue;
        value           uniform (1 0 0);
    }
    frontAndBack
    {
        type            empty;
    }
}


// ************************************************************************* //
