/*--------------------------------*- C++ -*----------------------------------*\
| =========                 |                                                 |
| \\      /  F ield         | OpenFOAM: The Open Source CFD Toolbox           |
|  \\    /   O peration     | Version:  2.2.0                                 |
|   \\  /    A nd           | Web:      www.OpenFOAM.org                      |
|    \\/     M anipulation  |                                                 |
\*---------------------------------------------------------------------------*/
FoamFile
{
    version     2.0;
    format      ascii;
    class       volVectorField;
    location    "40";
    object      s;
}
// * * * * * * * * * * * * * * * * * * * * * * * * * * * * * * * * * * * * * //

dimensions      [0 1 -1 0 0 0 0];

internalField   nonuniform List<vector> 
728
(
(-0.0552966 -0.086907 0)
(0.0573054 0.0853713 0)
(-0.0849609 0.0552337 0)
(0.0859988 -0.0575328 0)
(0.0365285 -0.321959 0)
(-0.0344468 0.315523 0)
(0.319047 0.033212 0)
(-0.316428 -0.0371436 0)
(0.102207 -0.141093 0)
(-0.1337 -0.100106 0)
(-0.0978221 0.134708 0)
(0.135867 0.0993987 0)
(0.102938 -0.135568 0)
(0.13017 0.100228 0)
(-0.0985338 0.129127 0)
(-0.127768 -0.100369 0)
(0.00907271 0.136969 0)
(-0.136671 0.00750812 0)
(0.137433 -0.00884199 0)
(-0.0082849 -0.139514 0)
(-0.0657885 0.192067 0)
(-0.192222 -0.0682289 0)
(0.19379 0.0671074 0)
(0.0692242 -0.198938 0)
(0.00275868 -0.393621 0)
(-0.389147 -0.00208943 0)
(0.391901 -0.00164913 0)
(-0.00151348 0.386857 0)
(0.00195848 0.145884 0)
(-0.145965 -7.46703e-05 0)
(0.146685 -0.00147346 0)
(0.000422897 -0.149095 0)
(-0.0473022 0.191748 0)
(-0.191603 -0.0499458 0)
(0.19321 0.0485968 0)
(0.0502427 -0.198096 0)
(-0.119248 -0.0394563 0)
(-0.0356451 0.118698 0)
(0.119331 0.0389368 0)
(0.0426289 -0.12387 0)
(0.0534766 -0.155557 0)
(-0.150165 -0.0522835 0)
(-0.0496946 0.149426 0)
(0.150844 0.0514243 0)
(0.0564989 -0.145406 0)
(0.140337 0.0536897 0)
(-0.0522565 0.139247 0)
(-0.139462 -0.0536117 0)
(0.107679 0.160125 0)
(0.162 -0.111026 0)
(-0.159346 0.106033 0)
(-0.10545 -0.162701 0)
(-0.467815 0.0566112 0)
(-0.0565002 -0.472269 0)
(0.472344 -0.0609122 0)
(0.0578785 0.465623 0)
(0.0550256 0.106486 0)
(-0.10596 0.0535279 0)
(0.106762 -0.0560203 0)
(-0.0518755 -0.111021 0)
(0.0300829 -0.150455 0)
(0.146383 0.0280253 0)
(-0.145393 -0.0288788 0)
(-0.0265049 0.145242 0)
(-0.0931515 0.0681557 0)
(-0.0673854 -0.0957223 0)
(0.093728 -0.0728696 0)
(0.0710159 0.092886 0)
(-0.0713667 0.29076 0)
(0.0736402 -0.297865 0)
(-0.291832 -0.0732358 0)
(0.293199 0.0709119 0)
(-0.114763 -0.0397631 0)
(-0.0389847 0.11337 0)
(0.04507 -0.119439 0)
(0.114618 0.0410261 0)
(0.0194811 -0.151996 0)
(-0.147966 -0.018122 0)
(-0.0161633 0.147977 0)
(0.148984 0.0172493 0)
(-0.157212 -0.1796 0)
(0.159201 0.177138 0)
(0.180604 -0.163849 0)
(-0.176949 0.157483 0)
(0.0345447 0.0964555 0)
(-0.0967501 0.0341258 0)
(-0.037786 -0.103195 0)
(0.0967225 -0.0347753 0)
(-0.160164 -0.484901 0)
(-0.480138 0.159454 0)
(0.159775 0.478832 0)
(0.484875 -0.162936 0)
(-0.153259 -0.19308 0)
(0.154974 0.190387 0)
(0.193665 -0.159865 0)
(-0.189859 0.153989 0)
(-0.117562 0.142146 0)
(-0.141095 -0.119784 0)
(0.121969 -0.148615 0)
(0.143342 0.118624 0)
(0.052448 0.0910391 0)
(-0.050887 -0.0938015 0)
(-0.0908276 0.0508069 0)
(0.0916765 -0.0527492 0)
(-0.0652272 -0.102094 0)
(0.0998138 -0.0706085 0)
(-0.0985119 0.0664238 0)
(0.0685349 0.0990452 0)
(0.0270515 0.104504 0)
(-0.104936 0.025792 0)
(-0.0393833 -0.108528 0)
(0.103376 -0.0284298 0)
(0.00587619 -0.127714 0)
(-0.125838 -0.00532758 0)
(-0.00368508 0.126875 0)
(0.126477 0.00436304 0)
(0.0692947 0.0843066 0)
(-0.0604018 -0.0862141 0)
(-0.084148 0.0561888 0)
(0.0850953 -0.0637314 0)
(0.0566073 0.0999122 0)
(-0.0993952 0.0546366 0)
(0.100187 -0.0575017 0)
(-0.0535746 -0.103684 0)
(0.103497 -0.123411 0)
(0.118329 0.100872 0)
(-0.0991676 0.117135 0)
(-0.115318 -0.10127 0)
(0.100504 0.0920994 0)
(-0.0967676 -0.0919565 0)
(0.0939481 -0.107522 0)
(-0.090063 0.0997475 0)
(0.0482076 0.106221 0)
(-0.106053 0.0470993 0)
(0.106563 -0.0489083 0)
(-0.0461682 -0.109902 0)
(0.0964693 0.0903311 0)
(0.0910276 -0.101884 0)
(-0.0928398 -0.0905615 0)
(-0.0880161 0.0954576 0)
(-0.0726948 0.228094 0)
(-0.229038 -0.0760388 0)
(0.23006 0.0745544 0)
(0.075394 -0.235047 0)
(-0.0599563 -0.124394 0)
(-0.120707 0.0597989 0)
(0.0613326 0.121485 0)
(0.122021 -0.0630923 0)
(0.0409142 -0.129219 0)
(-0.12393 -0.0374157 0)
(0.124519 0.037588 0)
(-0.0349537 0.123694 0)
(-0.0740296 0.0827484 0)
(0.0780335 -0.0859064 0)
(-0.0812877 -0.0743484 0)
(0.0830998 0.0758293 0)
(0.0127227 -0.13331 0)
(0.130816 0.0107363 0)
(-0.00964112 0.130409 0)
(-0.130378 -0.0116177 0)
(0.273379 -0.093873 0)
(0.0911781 0.27037 0)
(-0.271569 0.0896028 0)
(-0.0899288 -0.274329 0)
(0.0307912 0.279928 0)
(0.283588 -0.0315532 0)
(-0.281299 0.0288828 0)
(-0.0288465 -0.28409 0)
(-0.126999 0.0528697 0)
(0.054444 0.127302 0)
(0.128002 -0.0555764 0)
(-0.0524944 -0.131112 0)
(0.106865 0.0884153 0)
(-0.103899 -0.0879723 0)
(0.0905587 -0.112747 0)
(-0.086507 0.105784 0)
(0.0783007 -0.0787479 0)
(-0.0753074 0.0756233 0)
(0.0760395 0.0777797 0)
(-0.0746209 -0.0764516 0)
(-0.155268 0.0915994 0)
(0.157364 -0.0957564 0)
(-0.0911865 -0.158506 0)
(0.092881 0.155863 0)
(0.0973275 0.316934 0)
(0.322857 -0.0984528 0)
(-0.318374 0.095762 0)
(-0.0955445 -0.321702 0)
(-0.0615836 0.159983 0)
(-0.160076 -0.0639867 0)
(0.0650741 -0.166643 0)
(0.16132 0.0631714 0)
(-0.0826262 0.149739 0)
(0.150926 0.0841092 0)
(-0.149609 -0.0846272 0)
(0.0870054 -0.156161 0)
(-0.00656456 0.109844 0)
(0.109416 0.00682336 0)
(-0.109646 -0.00707507 0)
(0.00792637 -0.111534 0)
(0.0297437 -0.115494 0)
(0.111946 0.026251 0)
(-0.112222 -0.0257447 0)
(-0.0259796 0.11175 0)
(-0.0690677 -0.111014 0)
(0.109008 -0.074374 0)
(0.0721147 0.108637 0)
(-0.107138 0.0700548 0)
(0.0524635 -0.118276 0)
(0.099587 0.0611287 0)
(-0.0852942 -0.069232 0)
(-0.0601416 0.0993057 0)
(0.131648 0.0406662 0)
(-0.131159 -0.0410096 0)
(-0.0385882 0.130438 0)
(0.0433285 -0.136666 0)
(0.049624 0.286472 0)
(0.291713 -0.0516608 0)
(-0.287914 0.0481831 0)
(-0.0479798 -0.291307 0)
(0.0326373 -0.118067 0)
(0.114681 0.0294038 0)
(-0.115271 -0.0290401 0)
(-0.0275439 0.114256 0)
(0.0124322 -0.16785 0)
(-0.00946739 0.163307 0)
(-0.163421 -0.0119099 0)
(0.164775 0.0101988 0)
(-0.0881303 0.0756259 0)
(0.0757585 0.0907232 0)
(-0.0736169 -0.0910391 0)
(0.089945 -0.0793016 0)
(0.00469681 -0.118071 0)
(-0.116653 -0.00274597 0)
(-0.00208842 0.11736 0)
(0.117133 0.00191889 0)
(-0.129681 0.0777163 0)
(-0.0770337 -0.133278 0)
(0.0793367 0.1306 0)
(0.131654 -0.081724 0)
(-0.0413852 0.23714 0)
(0.0438247 -0.243208 0)
(-0.237517 -0.0442955 0)
(0.239159 0.0420979 0)
(-0.212655 0.320679 0)
(0.321055 0.21423 0)
(0.216797 -0.335459 0)
(-0.322895 -0.215744 0)
(0.129007 0.0592983 0)
(0.0613742 -0.133686 0)
(-0.128721 -0.0598836 0)
(-0.0571159 0.127986 0)
(-0.200296 0.338727 0)
(-0.340815 -0.204 0)
(0.207472 -0.347824 0)
(0.341736 0.202222 0)
(0.0288626 0.109829 0)
(0.110034 -0.0297148 0)
(-0.0346447 -0.113785 0)
(-0.109853 0.0281379 0)
(0.19114 0.0652048 0)
(-0.0639072 0.1897 0)
(-0.190166 -0.0662364 0)
(0.0668824 -0.196547 0)
(0.111423 -0.0867505 0)
(0.0830701 0.110349 0)
(-0.0804436 -0.112494 0)
(-0.109201 0.0814491 0)
(0.0974386 -0.248613 0)
(-0.09399 0.240625 0)
(0.242335 0.0950496 0)
(-0.241657 -0.0963535 0)
(-0.11098 0.0131006 0)
(-0.00958025 -0.1095 0)
(0.0170693 0.110479 0)
(0.110958 -0.0171577 0)
(-0.0858278 -0.080206 0)
(-0.0787319 0.0881504 0)
(0.0814992 -0.0934263 0)
(0.0886365 0.0808873 0)
(-0.0388518 0.156716 0)
(-0.157072 -0.0410392 0)
(0.0420876 -0.162245 0)
(0.158057 0.0402611 0)
(0.00595901 0.128883 0)
(-0.128729 0.00436778 0)
(0.129182 -0.00529315 0)
(-0.00573401 -0.131476 0)
(-0.128258 0.0810784 0)
(-0.0801738 -0.131322 0)
(0.0824525 0.129361 0)
(0.130781 -0.0856178 0)
(0.0659085 -0.101444 0)
(-0.0895015 -0.0594246 0)
(0.0940079 0.0621388 0)
(-0.0620743 0.0938159 0)
(0.106609 -0.0154697 0)
(0.0154538 0.106129 0)
(-0.106272 0.0152165 0)
(-0.0163282 -0.105567 0)
(0.0627189 -0.111006 0)
(0.102907 0.0631338 0)
(-0.0997952 -0.063159 0)
(-0.0629071 0.102019 0)
(-0.0119252 0.235475 0)
(0.0138236 -0.241056 0)
(-0.236355 -0.014387 0)
(0.238474 0.0123007 0)
(0.0335018 -0.139815 0)
(-0.135028 -0.0312661 0)
(0.13562 0.0310313 0)
(-0.0295076 0.134774 0)
(0.116287 -0.306496 0)
(-0.112653 0.296726 0)
(-0.298045 -0.116276 0)
(0.299376 0.114529 0)
(0.0869876 -0.148453 0)
(-0.0826005 0.14229 0)
(0.14335 0.0841855 0)
(-0.141888 -0.0850727 0)
(0.233922 0.180331 0)
(0.183839 -0.241583 0)
(-0.179377 0.23262 0)
(-0.233238 -0.182491 0)
(0.158851 -0.229668 0)
(-0.153855 0.221802 0)
(0.224213 0.155203 0)
(-0.223212 -0.15687 0)
(-0.0388456 0.10084 0)
(-0.103492 -0.0399506 0)
(0.0429763 -0.108852 0)
(0.103103 0.0401901 0)
(-0.0602231 -0.115572 0)
(0.062571 0.11264 0)
(-0.111399 0.061031 0)
(0.112892 -0.0642444 0)
(0.146713 -0.271141 0)
(-0.143014 0.262566 0)
(0.264793 0.144807 0)
(-0.264074 -0.146525 0)
(0.00775593 -0.17557 0)
(-0.172221 -0.00719961 0)
(0.173485 0.0056364 0)
(-0.00498789 0.171799 0)
(0.114327 0.1479 0)
(0.150227 -0.117959 0)
(-0.112313 -0.149875 0)
(-0.146957 0.113003 0)
(-0.127704 0.13583 0)
(-0.134482 -0.129879 0)
(0.132022 -0.142124 0)
(0.137239 0.129004 0)
(-0.000471444 -0.158609 0)
(0.00247009 0.15484 0)
(-0.154928 0.000587707 0)
(0.155923 -0.00205579 0)
(0.073262 -0.122507 0)
(0.116123 0.0713552 0)
(-0.0698356 0.114987 0)
(-0.114274 -0.0707367 0)
(-0.0523252 -0.149283 0)
(-0.145625 0.0523464 0)
(0.0540135 0.145774 0)
(0.146854 -0.0552784 0)
(-0.0388794 -0.104915 0)
(-0.0922608 0.0477415 0)
(0.0929399 -0.0481834 0)
(0.0474282 0.0927149 0)
(-0.163391 -0.151028 0)
(-0.148572 0.163106 0)
(0.16508 0.14892 0)
(0.15257 -0.170042 0)
(0.124357 0.163958 0)
(0.165537 -0.128282 0)
(-0.163269 0.122974 0)
(-0.122243 -0.166684 0)
(0.0795398 -0.121759 0)
(0.116287 0.0773845 0)
(-0.0754011 0.115118 0)
(-0.115122 -0.0772172 0)
(-0.113422 0.0413628 0)
(0.0426188 0.113648 0)
(0.114024 -0.0434941 0)
(-0.0435679 -0.116909 0)
(-0.00532593 0.112711 0)
(-0.11333 -0.00175255 0)
(0.112546 0.00288739 0)
(0.00400545 -0.114202 0)
(-0.0115457 -0.115868 0)
(-0.115119 0.0117606 0)
(0.0127734 0.115273 0)
(0.115403 -0.0133799 0)
(0.0358718 0.113164 0)
(0.113561 -0.0365196 0)
(-0.0360137 -0.119479 0)
(-0.11287 0.0346201 0)
(0.134924 -0.211238 0)
(-0.204103 -0.133363 0)
(-0.130334 0.20335 0)
(0.205148 0.131787 0)
(0.332869 0.370395 0)
(-0.369982 0.331391 0)
(0.37759 -0.338038 0)
(-0.333168 -0.373313 0)
(-0.122637 0.462981 0)
(-0.465196 -0.124762 0)
(0.125042 -0.471954 0)
(0.466838 0.124022 0)
(0.0894776 0.105369 0)
(-0.0860571 -0.106361 0)
(-0.103655 0.0881053 0)
(0.106584 -0.0937728 0)
(-0.0109673 0.140929 0)
(0.0132581 -0.143849 0)
(-0.140638 -0.0129716 0)
(0.14144 0.0118784 0)
(0.111284 -0.216335 0)
(-0.20898 -0.109505 0)
(0.210117 0.108058 0)
(-0.107068 0.208696 0)
(-0.0199986 -0.122594 0)
(0.120935 -0.0193825 0)
(0.0193199 0.120637 0)
(-0.120313 0.0178289 0)
(-0.015083 -0.124187 0)
(-0.124149 0.0121455 0)
(0.0127656 0.124892 0)
(0.125223 -0.0127209 0)
(-0.0155725 0.126714 0)
(0.0189792 -0.129405 0)
(-0.126222 -0.0176812 0)
(0.126563 0.0169438 0)
(-0.0460332 -0.0952001 0)
(0.0919286 -0.0471068 0)
(-0.0913872 0.0459855 0)
(0.0467436 0.0909527 0)
(-0.00926374 0.116627 0)
(-0.11581 -0.0133976 0)
(0.115726 0.0123318 0)
(0.0137933 -0.11796 0)
(-0.0708051 -0.0828248 0)
(0.0816903 -0.0777965 0)
(0.0717492 0.0893883 0)
(-0.0758866 0.0737747 0)
(0.130533 -0.10257 0)
(-0.0960448 -0.13065 0)
(-0.127814 0.097393 0)
(0.0988909 0.128963 0)
(0.166592 0.0194448 0)
(-0.0183389 0.16499 0)
(0.0216195 -0.169937 0)
(-0.165026 -0.020774 0)
(-0.065397 -0.0816488 0)
(0.0821063 -0.0680845 0)
(0.0682142 0.0833371 0)
(-0.0790481 0.0646635 0)
(-0.0457464 -0.158436 0)
(0.047411 0.154184 0)
(0.155427 -0.0484963 0)
(-0.154113 0.0460129 0)
(0.125119 -0.0475167 0)
(0.0466623 0.124793 0)
(-0.124417 0.0452704 0)
(-0.0458504 -0.128329 0)
(-0.016206 0.193086 0)
(-0.193481 -0.0187325 0)
(0.018839 -0.198105 0)
(0.195502 0.0168188 0)
(0.14754 -0.0353449 0)
(-0.146348 0.0334955 0)
(-0.0337397 -0.150505 0)
(0.0349584 0.146703 0)
(-0.109334 0.108251 0)
(-0.106852 -0.112217 0)
(0.112758 -0.114387 0)
(0.109373 0.110914 0)
(-0.0512243 0.0991025 0)
(0.103853 0.0474915 0)
(-0.108537 -0.0246926 0)
(0.0671491 -0.108774 0)
(0.121764 -0.118326 0)
(0.113664 0.119624 0)
(-0.11128 -0.12102 0)
(-0.118184 0.112318 0)
(0.0183135 -0.110722 0)
(-0.108063 -0.0170132 0)
(-0.0166518 0.107667 0)
(0.107776 0.0170866 0)
(0.148444 -0.0278919 0)
(-0.147562 0.0264091 0)
(-0.0263167 -0.151281 0)
(0.0275989 0.147503 0)
(-0.191868 -0.0263088 0)
(-0.023629 0.191676 0)
(0.0264713 -0.197029 0)
(0.193568 0.0248144 0)
(0.13606 -0.0777702 0)
(0.0752934 0.134928 0)
(-0.0735489 -0.137495 0)
(-0.134194 0.0739321 0)
(0.0305849 -0.110654 0)
(0.106536 0.0289192 0)
(-0.0278233 0.105758 0)
(-0.106699 -0.029199 0)
(-0.220312 0.221997 0)
(0.223079 0.221772 0)
(0.224899 -0.228505 0)
(-0.222561 -0.224257 0)
(0.15031 -0.139199 0)
(-0.131958 -0.149051 0)
(-0.146449 0.133277 0)
(0.134986 0.147251 0)
(0.24849 -0.00332251 0)
(0.00263695 0.243989 0)
(-0.245547 0.000657469 0)
(-0.00110083 -0.249351 0)
(0.105616 -0.00400496 0)
(-0.105474 0.00376867 0)
(0.00391179 0.105318 0)
(-0.00333348 -0.106283 0)
(0.121937 0.0580203 0)
(0.061314 -0.127128 0)
(-0.119939 -0.0572431 0)
(-0.0559979 0.121941 0)
(-0.180487 0.0367637 0)
(-0.0360623 -0.184276 0)
(0.18207 -0.0388973 0)
(0.0381063 0.1799 0)
(-0.0291535 -0.104657 0)
(-0.102481 0.0262616 0)
(0.0261862 0.102159 0)
(0.102377 -0.0261422 0)
(0.0842356 0.0942798 0)
(0.0939968 -0.0880884 0)
(-0.081467 -0.094364 0)
(-0.0914832 0.0835387 0)
(0.0874922 0.0855701 0)
(-0.0830305 0.0869559 0)
(-0.0842859 -0.085407 0)
(0.0857644 -0.0930321 0)
(-0.133456 -0.0733313 0)
(-0.0706052 0.134888 0)
(0.135698 0.072636 0)
(0.074895 -0.141271 0)
(0.127888 0.0817114 0)
(-0.0797184 0.126817 0)
(0.0843775 -0.133614 0)
(-0.126025 -0.0816968 0)
(0.0312257 0.226388 0)
(-0.0293063 -0.231089 0)
(-0.2278 0.0299698 0)
(0.229356 -0.0317117 0)
(-0.0123359 -0.200011 0)
(-0.195916 0.0129038 0)
(0.0147969 0.195311 0)
(0.197936 -0.0147983 0)
(-0.109426 -0.0443919 0)
(0.0380922 -0.114508 0)
(-0.0284369 0.10796 0)
(0.108935 0.0365476 0)
(-0.139817 -0.212624 0)
(0.141656 0.209597 0)
(0.211529 -0.144999 0)
(-0.20945 0.140776 0)
(0.238897 -0.197062 0)
(-0.234696 0.190502 0)
(0.191597 0.234579 0)
(-0.190916 -0.237582 0)
(-0.0494714 0.106961 0)
(0.108787 0.0497697 0)
(-0.108515 -0.0459708 0)
(0.0542207 -0.115146 0)
(0.0542986 -0.124881 0)
(0.118023 0.0486307 0)
(-0.117059 -0.0451486 0)
(-0.0468415 0.116414 0)
(0.0401825 0.216357 0)
(0.21952 -0.0414324 0)
(-0.0383743 -0.221173 0)
(-0.217532 0.0386943 0)
(-0.181539 0.0517008 0)
(0.18303 -0.0545855 0)
(0.0530817 0.180873 0)
(-0.0515122 -0.185482 0)
(-0.0971558 -0.047516 0)
(0.098491 0.0502952 0)
(-0.0500964 0.0973259 0)
(0.0544808 -0.104238 0)
(-0.0273536 -0.107885 0)
(0.109115 -0.0155202 0)
(-0.108871 0.0195677 0)
(0.0174128 0.109602 0)
(0.175136 0.273661 0)
(0.28032 -0.178265 0)
(-0.274001 0.174487 0)
(-0.174504 -0.276918 0)
(-0.0129418 -0.185661 0)
(-0.181668 0.0135248 0)
(0.015603 0.181296 0)
(0.183272 -0.0157308 0)
(0.0745555 -0.114894 0)
(-0.0717214 0.104381 0)
(0.105399 0.0727149 0)
(-0.100336 -0.0715215 0)
(0.0715746 -0.0903425 0)
(-0.0846877 -0.0686217 0)
(-0.0690406 0.0863253 0)
(0.0862383 0.0696585 0)
(-0.0559908 -0.150784 0)
(-0.147193 0.0563951 0)
(0.0580047 0.147341 0)
(0.148496 -0.0597415 0)
(0.115258 -0.021173 0)
(0.0213728 0.11479 0)
(-0.114932 0.0208898 0)
(-0.0272033 -0.116157 0)
(-0.168831 0.0733686 0)
(0.0746699 0.168803 0)
(0.170537 -0.0767795 0)
(-0.0730339 -0.172021 0)
(-0.171894 0.0635233 0)
(-0.0633782 -0.175014 0)
(0.0648447 0.171543 0)
(0.17339 -0.0668409 0)
(0.117085 0.0661101 0)
(0.0671388 -0.119479 0)
(-0.0648343 0.115627 0)
(-0.119506 -0.0660137 0)
(0.0913876 0.0969098 0)
(0.0971714 -0.0955544 0)
(-0.0879785 -0.0973048 0)
(-0.0945292 0.0900095 0)
(0.111303 0.226952 0)
(-0.227023 0.109895 0)
(0.230495 -0.11444 0)
(-0.109366 -0.230095 0)
(0.0909863 0.192877 0)
(-0.192357 0.0895153 0)
(0.194874 -0.0933507 0)
(-0.0890708 -0.195724 0)
(-0.0400299 0.165242 0)
(-0.165488 -0.0424736 0)
(0.166757 0.0413458 0)
(0.0431959 -0.170731 0)
(-0.345997 0.234866 0)
(0.236459 0.344213 0)
(0.35715 -0.236451 0)
(-0.235931 -0.349255 0)
(-0.0973571 -0.0759417 0)
(-0.0750818 0.100594 0)
(0.101326 0.0763683 0)
(0.0770469 -0.109137 0)
(-0.0635391 -0.22641 0)
(-0.222895 0.0637762 0)
(0.22506 -0.0664167 0)
(0.0649823 0.221895 0)
(-0.0778364 -0.199378 0)
(-0.195981 0.0776697 0)
(0.198025 -0.0814791 0)
(0.0791648 0.195927 0)
(0.0257061 0.127609 0)
(-0.0257076 -0.130788 0)
(0.127826 -0.0257649 0)
(-0.127466 0.0242729 0)
(-0.174416 0.0283246 0)
(-0.0283229 -0.178427 0)
(0.175801 -0.0306317 0)
(0.0299839 0.174013 0)
(0.0719958 -0.0992302 0)
(-0.0693486 0.0931358 0)
(0.0936481 0.06948 0)
(-0.0909361 -0.067772 0)
(-0.0575211 0.104839 0)
(0.106992 0.0577021 0)
(0.0596813 -0.113921 0)
(-0.106553 -0.055422 0)
(-0.0739858 0.0952517 0)
(-0.0925078 -0.0745601 0)
(0.0957338 0.0752675 0)
(0.0763858 -0.101969 0)
(0.0317193 0.126264 0)
(-0.0319208 -0.130228 0)
(-0.126072 0.0304568 0)
(0.126781 -0.0320817 0)
(-0.170345 -0.140805 0)
(0.172134 0.139221 0)
(0.142501 -0.177706 0)
(-0.137707 0.170689 0)
(0.162221 0.113989 0)
(-0.112809 0.1613 0)
(-0.160468 -0.115314 0)
(0.117367 -0.168325 0)
(0.0197473 0.137225 0)
(0.137827 -0.0196853 0)
(-0.0181804 -0.140066 0)
(-0.137116 0.0181555 0)
(0.172301 0.103992 0)
(-0.17103 -0.105004 0)
(-0.102299 0.170876 0)
(0.106743 -0.177826 0)
(-0.019313 -0.161189 0)
(-0.157743 0.0196767 0)
(0.158792 -0.0213354 0)
(0.0211259 0.157562 0)
(0.18803 0.0950918 0)
(0.0975555 -0.193714 0)
(-0.186796 -0.0964482 0)
(-0.093533 0.186691 0)
(0.11891 0.0167761 0)
(-0.014924 0.119223 0)
(-0.118847 -0.0174212 0)
(0.0189371 -0.121633 0)
(-0.0388694 -0.136808 0)
(0.133101 -0.0403243 0)
(-0.132237 0.0382672 0)
(0.0398218 0.132507 0)
(-0.118097 -0.0257406 0)
(-0.0228698 0.118499 0)
(0.0281233 -0.121506 0)
(0.118075 0.0252693 0)
(-0.132387 -0.023138 0)
(0.0249733 -0.136573 0)
(-0.0210603 0.132315 0)
(0.132902 0.0225229 0)
(-0.0238009 0.12697 0)
(-0.126493 -0.0268788 0)
(0.0290447 -0.131116 0)
(0.127055 0.0261674 0)
)
;

boundaryField
{
    insideCircle
    {
        type            myHeatFlux;
        alpha           uniform 1;
        Theta_wall      uniform 4;
        value           nonuniform List<vector> 
12
(
(-0.145183 -0.541831 -5.87454e-18)
(-0.536939 0.143872 -5.82151e-18)
(0.143569 0.535808 -5.80924e-18)
(0.541323 -0.145047 -5.86903e-18)
(0.359306 0.359306 0)
(-0.359642 0.359642 0)
(0.371735 -0.371735 0)
(-0.362407 -0.362407 0)
(-0.133732 0.499093 5.41118e-18)
(-0.50283 -0.134733 5.4517e-18)
(0.136732 -0.510289 5.53257e-18)
(0.504567 0.135198 5.47053e-18)
)
;
    }
    outsideCircle
    {
        type            myHeatFlux;
        alpha           uniform 1;
        Theta_wall      uniform 1;
        value           nonuniform List<vector> 
60
(
(-0.0532105 -0.0819371 0)
(0.0515105 0.0793192 0)
(-0.0817947 0.0531181 0)
(0.0817293 -0.0530756 0)
(0.0326902 0.0851607 0)
(-0.0839844 0.0322386 0)
(-0.0400333 -0.10429 0)
(0.0858475 -0.0329538 0)
(0.0767803 -0.0767803 0)
(-0.0733635 0.0733635 0)
(0.0719597 0.0719597 0)
(-0.0715417 -0.0715417 0)
(-0.00579086 0.110497 0)
(0.106741 0.00559403 0)
(-0.10576 -0.0055426 0)
(0.0056945 -0.108658 0)
(0.0608175 -0.0936508 0)
(-0.0927923 -0.06026 0)
(0.0922732 0.0599229 0)
(-0.0594389 0.0915279 0)
(0.109089 -0.017278 0)
(0.0171028 0.107983 0)
(-0.10485 0.0166066 0)
(-0.0155843 -0.0983953 0)
(-0.0353647 0.092128 0)
(-0.11272 -0.0432694 0)
(0.0384166 -0.100079 0)
(0.100279 0.0384935 0)
(-0.0454851 -0.0892695 0)
(0.0907399 -0.0462343 0)
(-0.0902889 0.0460045 0)
(0.045728 0.0897462 0)
(-0.0639932 -0.079025 0)
(0.0799464 -0.0647393 0)
(0.0695165 0.0858457 0)
(-0.0738808 0.0598275 0)
(0.0171364 -0.108195 0)
(-0.106499 -0.0168678 0)
(-0.0165527 0.10451 0)
(0.105702 0.0167416 0)
(0.0295134 -0.110145 1.18114e-18)
(0.104687 0.0280507 1.12261e-18)
(-0.0284923 0.106335 1.14028e-18)
(-0.102264 -0.0274015 1.09663e-18)
(0.102023 -0.00534678 0)
(-0.103754 0.00543751 0)
(0.0052937 0.10101 0)
(-0.00547165 -0.104406 0)
(-0.0276838 -0.103317 -1.10792e-18)
(-0.101427 0.0271773 -1.08765e-18)
(0.026831 0.100134 -1.07379e-18)
(0.0987734 -0.0264662 -1.0592e-18)
(-0.0806285 -0.0410823 0)
(0.0962447 0.0490391 0)
(-0.0494045 0.0969619 0)
(0.0584897 -0.114793 0)
(0.0713798 -0.0881466 0)
(-0.0831575 -0.0673396 0)
(-0.0686544 0.0847811 0)
(0.084884 0.0687377 0)
)
;
    }
    topAndBottom
    {
        type            empty;
    }
}


// ************************************************************************* //
