/*--------------------------------*- C++ -*----------------------------------*\
| =========                 |                                                 |
| \\      /  F ield         | foam-extend: Open Source CFD                    |
|  \\    /   O peration     | Version:  3.0                                   |
|   \\  /    A nd           | Web:         http://www.extend-project.de       |
|    \\/     M anipulation  |                                                 |
\*---------------------------------------------------------------------------*/
FoamFile
{
    version     2.0;
    format      ascii;
    class       volVectorField;
    location    "46";
    object      s;
}
// * * * * * * * * * * * * * * * * * * * * * * * * * * * * * * * * * * * * * //

dimensions      [0 1 -1 0 0 0 0];

internalField   nonuniform List<vector> 
3012
(
(-2.26432 0.115876 0)
(-1.8632 -0.272809 0)
(-2.61259 0.155464 0)
(-1.76119 0.0990343 0)
(-3.12952 0.323391 0)
(-2.20928 0.209148 0)
(-3.04151 -0.340821 0)
(-2.89693 0.0896478 0)
(-2.02661 0.217912 0)
(-2.2391 -0.414299 0)
(-1.92038 -0.0928406 0)
(-2.2456 0.435364 0)
(-1.30262 -0.153255 0)
(-2.02961 0.0708988 0)
(-2.27557 0.0589711 0)
(-1.24013 0.0940309 0)
(-3.11717 0.275592 0)
(-2.23024 0.257448 0)
(-2.97101 -0.36782 0)
(-2.90893 0.0825936 0)
(-1.2794 0.40642 0)
(-1.69537 -0.229746 0)
(-1.9039 -0.362208 0)
(-1.23432 0.287857 0)
(-2.69678 0.0198498 0)
(-1.99538 -0.161697 0)
(-1.95755 0.244179 0)
(-2.28981 0.0371209 0)
(-1.8969 0.320799 0)
(-2.08589 0.404371 0)
(-1.39539 -0.18828 0)
(-1.57723 -0.462843 0)
(-1.33332 -0.16819 0)
(-2.10577 0.36481 0)
(-1.91296 0.297571 0)
(-1.49495 -0.435886 0)
(-2.11988 -0.217374 0)
(-2.75123 0.0400807 0)
(-2.31468 0.0405763 0)
(-2.07033 0.2186 0)
(-1.19094 -0.135863 0)
(-2.18517 0.0557395 0)
(-1.12778 0.0891462 0)
(-1.96138 0.0678203 0)
(-1.31562 -0.128396 0)
(-1.45991 -0.396214 0)
(-1.95358 0.266603 0)
(-2.16025 0.321477 0)
(-1.30026 -0.394566 0)
(-2.03778 0.320706 0)
(-1.85931 0.28104 0)
(-1.17021 -0.156132 0)
(-2.24869 0.112935 0)
(-1.79562 -0.257478 0)
(-1.69805 0.101627 0)
(-2.58447 0.144084 0)
(-2.7403 -0.34521 0)
(-2.30262 0.440439 0)
(-3.08226 0.212859 0)
(-2.92282 0.0774605 0)
(-2.71624 -0.371838 0)
(-2.27744 0.344543 0)
(-3.0116 0.241646 0)
(-2.94199 0.0263479 0)
(-1.32797 -0.103369 0)
(-2.04558 0.0254992 0)
(-2.30312 -0.00343761 0)
(-1.28131 0.140858 0)
(-2.15005 -0.156114 0)
(-1.20081 0.253933 0)
(-1.21713 0.0722664 0)
(-1.91934 -0.0903943 0)
(-1.79827 0.452465 0)
(-1.59492 -0.509243 0)
(-1.38653 -0.256663 0)
(-1.65961 0.35721 0)
(-1.71492 0.342114 0)
(-1.8621 0.4141 0)
(-1.44127 -0.493329 0)
(-1.26186 -0.250118 0)
(-1.41655 -0.0994583 0)
(-2.09417 0.0171872 0)
(-1.37515 0.163286 0)
(-2.3727 -0.0161611 0)
(-2.12929 -0.0440507 0)
(-1.1079 0.173756 0)
(-1.15017 -0.0193516 0)
(-1.91087 -0.00912566 0)
(-1.23583 -0.205282 0)
(-2.01147 0.376815 0)
(-1.83923 0.317505 0)
(-1.39164 -0.454426 0)
(-2.28985 -0.410169 0)
(-2.03003 0.207351 0)
(-1.95533 -0.0884073 0)
(-2.24943 0.44037 0)
(-2.24213 0.000300325 0)
(-2.3145 0.336715 0)
(-2.16563 -0.0561385 0)
(-2.71389 -0.208078 0)
(-2.12513 -0.172451 0)
(-1.17996 0.263362 0)
(-1.19459 0.0888622 0)
(-1.8995 -0.104055 0)
(-1.75896 0.458604 0)
(-1.37509 -0.264099 0)
(-1.58569 -0.514102 0)
(-1.6261 0.363517 0)
(-1.82292 -0.408264 0)
(-1.2594 0.312531 0)
(-1.62439 -0.25809 0)
(-1.32076 0.423833 0)
(-1.98488 0.215097 0)
(-2.20437 0.248799 0)
(-1.38053 -0.335667 0)
(-1.26447 -0.0716788 0)
(-1.54333 -0.514111 0)
(-1.35162 -0.286548 0)
(-1.52565 0.493423 0)
(-1.41671 0.389707 0)
(-1.77903 -0.186131 0)
(-1.0995 0.200044 0)
(-1.09793 0.307914 0)
(-1.97156 -0.272114 0)
(-2.51335 -0.228444 0)
(-2.34564 -0.0101397 0)
(-2.81165 0.131668 0)
(-2.32202 0.297591 0)
(-3.08552 0.0186434 0)
(-2.70431 0.650542 0)
(-3.00226 0.0513362 0)
(-2.44685 -0.309789 0)
(-2.58783 -0.239238 0)
(-2.33841 -0.00378569 0)
(-2.42623 0.325809 0)
(-2.85741 0.110994 0)
(-3.09089 0.0474739 0)
(-3.04882 0.0794805 0)
(-2.62976 0.664336 0)
(-2.49606 -0.367339 0)
(-2.69203 0.0583969 0)
(-1.88417 0.205911 0)
(-2.2894 0.0540455 0)
(-1.94498 -0.196013 0)
(-3.00962 0.174364 0)
(-2.4532 0.482833 0)
(-2.557 -0.322093 0)
(-2.98074 -0.0199979 0)
(-2.9426 0.200851 0)
(-2.39827 0.46152 0)
(-2.47647 -0.237398 0)
(-2.87577 -0.0744171 0)
(-1.08898 -0.10896 0)
(-1.85009 0.238421 0)
(-1.19266 -0.334175 0)
(-2.03698 0.26382 0)
(-1.34232 -0.411097 0)
(-2.05092 0.340964 0)
(-1.8698 0.293698 0)
(-1.20284 -0.165908 0)
(-1.76662 -0.434418 0)
(-1.57202 -0.268782 0)
(-1.36819 0.443949 0)
(-1.29514 0.334638 0)
(-2.33271 0.0441266 0)
(-2.39189 -0.22182 0)
(-2.83076 0.020507 0)
(-2.37706 0.266486 0)
(-1.34464 -0.184935 0)
(-2.08055 0.385019 0)
(-1.89323 0.311934 0)
(-1.51521 -0.45351 0)
(-2.8897 0.282839 0)
(-2.81326 -0.103996 0)
(-2.49829 -0.206577 0)
(-2.26184 0.334636 0)
(-2.43151 -0.0839661 0)
(-2.85241 0.263324 0)
(-2.36259 0.303031 0)
(-2.75892 -0.190531 0)
(-2.31675 0.0429316 0)
(-2.40922 -0.253841 0)
(-2.83965 0.0370216 0)
(-2.37108 0.274508 0)
(-1.62491 0.438754 0)
(-1.87291 -0.209541 0)
(-1.53957 0.253264 0)
(-2.15146 -0.391179 0)
(-1.59217 0.287581 0)
(-2.07858 -0.437305 0)
(-1.69982 0.459342 0)
(-1.80936 -0.228321 0)
(-1.80537 -0.422394 0)
(-1.60558 -0.262671 0)
(-1.35803 0.441383 0)
(-1.28894 0.328495 0)
(-1.68153 -0.459486 0)
(-2.1491 0.404976 0)
(-1.9454 0.308616 0)
(-1.48954 -0.169022 0)
(-1.31752 -0.0769149 0)
(-2.03064 0.00910572 0)
(-1.27638 0.158554 0)
(-2.28448 -0.0257518 0)
(-1.3307 -0.17553 0)
(-2.28998 0.0818925 0)
(-2.04143 0.0870249 0)
(-1.26113 0.0779799 0)
(-1.12496 -0.274379 0)
(-2.02684 0.202501 0)
(-1.04425 -0.0567201 0)
(-1.83682 0.187227 0)
(-1.11694 0.213773 0)
(-1.78137 -0.184103 0)
(-1.98261 -0.273394 0)
(-1.11778 0.333914 0)
(-2.36819 -0.0436035 0)
(-1.38328 0.187116 0)
(-1.41621 -0.0683331 0)
(-2.08777 -0.00120959 0)
(-1.57375 -0.528579 0)
(-1.42231 0.386296 0)
(-1.38058 -0.300279 0)
(-1.53089 0.490067 0)
(-1.39932 -0.197838 0)
(-1.86707 0.325065 0)
(-1.58469 -0.46833 0)
(-2.04687 0.411225 0)
(-1.16706 0.206422 0)
(-1.78718 -0.177269 0)
(-1.17643 0.332552 0)
(-1.99283 -0.27362 0)
(-1.42298 -0.281635 0)
(-1.55651 0.472316 0)
(-1.44733 0.36851 0)
(-1.61951 -0.506941 0)
(-2.11558 0.417724 0)
(-1.7036 -0.46868 0)
(-1.50328 -0.180404 0)
(-1.91958 0.316169 0)
(-1.28419 0.400887 0)
(-1.7261 -0.220313 0)
(-1.93924 -0.351038 0)
(-1.24197 0.275633 0)
(-1.2664 0.303974 0)
(-1.87447 -0.38946 0)
(-1.3234 0.422548 0)
(-1.66743 -0.244164 0)
(-1.66756 0.443283 0)
(-1.87972 -0.207201 0)
(-1.57511 0.254379 0)
(-2.16218 -0.397082 0)
(-1.60594 0.272522 0)
(-1.71177 0.453586 0)
(-2.12535 -0.426045 0)
(-1.84695 -0.219821 0)
(-2.57382 -0.31039 0)
(-2.01181 0.0899881 0)
(-2.14807 -0.0704104 0)
(-2.16937 0.423685 0)
(-1.16637 -0.221882 0)
(-1.76982 0.32636 0)
(-1.31514 -0.455348 0)
(-1.92201 0.37885 0)
(-1.11266 -0.118317 0)
(-2.10134 0.0545659 0)
(-1.05241 0.0877041 0)
(-1.89668 0.0655624 0)
(-1.76348 0.448664 0)
(-1.65148 0.255384 0)
(-1.87794 -0.206931 0)
(-2.17028 -0.418179 0)
(-1.22873 -0.13695 0)
(-2.1999 0.0575027 0)
(-1.16483 0.0906486 0)
(-1.97226 0.0695607 0)
(-1.29642 -0.126081 0)
(-2.02728 0.0501744 0)
(-2.2753 0.0321999 0)
(-1.23939 0.115113 0)
(-2.28847 0.0712384 0)
(-1.9138 -0.257148 0)
(-1.83456 0.140854 0)
(-2.66753 0.0901156 0)
(-1.07521 -0.093362 0)
(-2.03846 0.247385 0)
(-1.84858 0.223739 0)
(-1.17205 -0.315742 0)
(-2.76901 -0.217603 0)
(-2.30392 -0.0022717 0)
(-2.69667 0.370895 0)
(-2.87733 0.0307204 0)
(-2.90832 -0.251804 0)
(-2.87489 0.369259 0)
(-2.28979 0.0470617 0)
(-2.90711 0.0440359 0)
(-1.28121 -0.130052 0)
(-1.94596 0.2645 0)
(-1.42024 -0.394175 0)
(-2.15022 0.314725 0)
(-1.81232 0.45917 0)
(-1.69219 0.264425 0)
(-1.87465 -0.202609 0)
(-2.16961 -0.423247 0)
(-1.37009 -0.349703 0)
(-1.96118 0.23531 0)
(-2.17309 0.274149 0)
(-1.24782 -0.0907471 0)
(-2.27981 0.0699635 0)
(-1.91936 -0.22437 0)
(-1.84373 0.16499 0)
(-2.66071 0.0900974 0)
(-2.57788 -0.284877 0)
(-1.97797 0.0625652 0)
(-2.1549 -0.0799014 0)
(-2.10646 0.391386 0)
(-1.90524 -0.475402 0)
(-1.65019 0.474848 0)
(-1.53946 0.33382 0)
(-1.66718 -0.257722 0)
(-1.15237 -0.0514504 0)
(-2.14325 -0.0181518 0)
(-1.92382 0.0106586 0)
(-1.10534 0.149367 0)
(-1.39518 0.24102 0)
(-1.85065 -0.203622 0)
(-1.45082 0.408436 0)
(-2.10324 -0.35123 0)
(-2.24325 -0.0421588 0)
(-2.17774 0.33325 0)
(-2.05991 -0.0366886 0)
(-2.69567 -0.224201 0)
(-2.15397 -0.071954 0)
(-1.18017 -0.00902194 0)
(-1.14291 0.188051 0)
(-1.92822 -0.0301294 0)
(-1.87053 0.427756 0)
(-1.72208 0.348922 0)
(-1.49049 -0.492156 0)
(-1.3016 -0.246956 0)
(-1.89938 0.409626 0)
(-1.74773 0.340672 0)
(-1.42095 -0.484554 0)
(-1.24706 -0.24108 0)
(-1.2816 -0.269528 0)
(-1.76543 0.438913 0)
(-1.63166 0.359165 0)
(-1.47689 -0.511589 0)
(-1.12847 0.0474047 0)
(-2.09192 -0.113548 0)
(-1.09893 0.223487 0)
(-1.87695 -0.0634622 0)
(-1.11595 -0.250916 0)
(-2.03552 0.187914 0)
(-1.03213 -0.0298527 0)
(-1.84493 0.171477 0)
(-1.07314 -0.14616 0)
(-1.80778 0.264213 0)
(-1.97941 0.291291 0)
(-1.18254 -0.364029 0)
(-1.30849 -0.261536 0)
(-1.77547 0.439766 0)
(-1.50675 -0.505201 0)
(-1.6412 0.356837 0)
(-1.15468 0.0492382 0)
(-2.10415 -0.123325 0)
(-1.88625 -0.0698354 0)
(-1.12782 0.226328 0)
(-1.87046 0.310228 0)
(-1.91666 -0.47627 0)
(-1.67173 -0.189736 0)
(-2.05202 0.453005 0)
(-1.93086 0.304613 0)
(-1.91201 -0.473818 0)
(-2.12896 0.442267 0)
(-1.67431 -0.174491 0)
(-2.20381 -0.301793 0)
(-1.46757 0.375994 0)
(-1.93343 -0.170219 0)
(-1.42378 0.183839 0)
(-1.66216 -0.242331 0)
(-1.64627 0.334974 0)
(-1.77924 0.479924 0)
(-1.90915 -0.485591 0)
(-1.33691 -0.115626 0)
(-1.97935 0.25388 0)
(-2.19434 0.307891 0)
(-1.47834 -0.389166 0)
(-1.86501 0.456478 0)
(-1.95991 -0.177075 0)
(-1.74396 0.233326 0)
(-2.28069 -0.394212 0)
(-1.90997 0.441454 0)
(-1.99671 -0.156703 0)
(-1.7842 0.200647 0)
(-2.33697 -0.378558 0)
(-1.68939 -0.25092 0)
(-1.45338 0.443444 0)
(-1.37681 0.310514 0)
(-1.91216 -0.423623 0)
(-1.54219 0.29794 0)
(-1.52766 0.0479934 0)
(-2.08206 -0.0805787 0)
(-2.38704 -0.171521 0)
(-1.33366 -0.228495 0)
(-2.02321 0.128291 0)
(-1.24897 0.0287453 0)
(-2.26208 0.136221 0)
(-2.33962 -0.355773 0)
(-2.31854 0.0805282 0)
(-2.69777 0.24898 0)
(-2.10559 0.0943581 0)
(-1.55554 0.280886 0)
(-2.12061 -0.0556192 0)
(-1.5533 0.0159333 0)
(-2.43299 -0.132014 0)
(-2.61031 0.419066 0)
(-2.88241 0.107757 0)
(-2.37505 -0.118188 0)
(-2.87099 -0.162164 0)
(-1.43433 -0.269754 0)
(-1.57518 0.368111 0)
(-1.64531 -0.519023 0)
(-1.70141 0.473521 0)
(-1.24199 -0.448865 0)
(-1.7589 0.336656 0)
(-1.10243 -0.22128 0)
(-1.90092 0.381552 0)
(-1.86902 0.0797389 0)
(-2.06757 0.0741723 0)
(-0.996422 0.056202 0)
(-1.05592 -0.146517 0)
(-1.87957 -0.140359 0)
(-1.2159 0.142723 0)
(-1.21559 0.305616 0)
(-2.10671 -0.226396 0)
(-2.09489 -0.126535 0)
(-1.76688 0.369129 0)
(-2.44798 -0.274692 0)
(-1.69763 0.0993766 0)
(-2.12318 -0.106859 0)
(-1.76122 0.356928 0)
(-2.47987 -0.245894 0)
(-1.69993 0.0760267 0)
(-1.54306 -0.510452 0)
(-1.32961 -0.280748 0)
(-1.56401 0.478757 0)
(-1.45363 0.384159 0)
(-2.55372 -0.230745 0)
(-1.87688 0.353444 0)
(-2.1722 -0.0877606 0)
(-1.80562 0.0444224 0)
(-1.10113 0.292776 0)
(-1.09942 0.168192 0)
(-1.79207 -0.170836 0)
(-1.9886 -0.252683 0)
(-2.285 0.888171 0)
(-3.12479 -0.915378 0)
(-3.70125 -0.0188251 0)
(-3.12374 0.40532 0)
(-2.18951 -0.290682 0)
(-1.42164 0.370735 0)
(-1.38592 0.183546 0)
(-1.92448 -0.166793 0)
(-1.98777 0.280646 0)
(-1.06543 -0.126375 0)
(-1.17071 -0.342448 0)
(-1.81109 0.254393 0)
(-2.24561 0.163255 0)
(-2.74665 0.255127 0)
(-2.34298 0.00965976 0)
(-2.55473 -0.319032 0)
(-1.80201 0.334862 0)
(-2.53482 -0.211285 0)
(-2.16255 -0.0856155 0)
(-1.74956 0.0357871 0)
(-1.50079 0.457173 0)
(-1.68338 -0.257144 0)
(-1.41457 0.321995 0)
(-1.91081 -0.442029 0)
(-1.62591 -0.254608 0)
(-1.62977 0.342823 0)
(-1.76151 0.478806 0)
(-1.86326 -0.496807 0)
(-1.37796 -0.117097 0)
(-2.07063 0.0370944 0)
(-1.32886 0.138586 0)
(-2.33656 0.0114713 0)
(-2.28081 0.561446 0)
(-3.02441 -0.491694 0)
(-3.35775 0.179723 0)
(-2.98761 0.232651 0)
(-1.87022 -0.483745 0)
(-1.66751 0.479882 0)
(-1.55176 0.34339 0)
(-1.63634 -0.259621 0)
(-1.36883 0.224269 0)
(-1.86096 -0.198631 0)
(-1.418 0.3917 0)
(-2.11165 -0.336716 0)
(-1.55912 -0.0781338 0)
(-2.35282 0.313985 0)
(-1.71963 -0.401517 0)
(-2.09635 0.236386 0)
(-1.26934 -0.190946 0)
(-2.02903 0.368437 0)
(-1.85268 0.307697 0)
(-1.42719 -0.443936 0)
(-2.25782 0.0886679 0)
(-2.83163 0.361272 0)
(-2.80285 -0.240299 0)
(-2.87497 0.0238108 0)
(-1.20279 0.284832 0)
(-1.88616 -0.351114 0)
(-1.24226 0.398798 0)
(-1.68314 -0.225143 0)
(-2.35605 0.335184 0)
(-1.59438 -0.0865869 0)
(-1.76864 -0.415435 0)
(-2.09846 0.246199 0)
(-1.33892 0.352488 0)
(-1.70097 -0.477692 0)
(-1.51039 -0.290527 0)
(-1.42723 0.457984 0)
(-1.35371 0.348878 0)
(-1.73495 -0.470865 0)
(-1.53775 -0.283187 0)
(-1.44208 0.459053 0)
(-2.32822 0.192768 0)
(-1.35608 -0.00609136 0)
(-2.07505 0.166532 0)
(-1.45875 -0.291537 0)
(-3.35971 -0.00102329 0)
(-3.09236 0.705981 0)
(-2.31138 -0.267252 0)
(-2.95453 -0.0330618 0)
(-1.80937 0.482772 0)
(-1.79807 -0.502995 0)
(-1.66856 0.355719 0)
(-1.56685 -0.248766 0)
(-2.25561 0.312347 0)
(-1.40665 -0.100424 0)
(-1.55478 -0.392145 0)
(-2.02563 0.250983 0)
(-1.38254 -0.0149925 0)
(-1.4939 -0.30466 0)
(-2.0836 0.178209 0)
(-2.33766 0.212399 0)
(-1.11263 -0.110694 0)
(-1.85657 0.243707 0)
(-2.04364 0.271291 0)
(-1.22034 -0.338269 0)
(-1.85349 0.47632 0)
(-1.80875 -0.499659 0)
(-1.57688 -0.240567 0)
(-1.70665 0.348766 0)
(-1.3507 0.135401 0)
(-1.3699 0.328805 0)
(-1.95326 -0.143988 0)
(-2.21338 -0.248741 0)
(-1.37552 0.11606 0)
(-1.39137 0.318811 0)
(-1.97609 -0.130196 0)
(-2.24326 -0.230787 0)
(-1.43057 -0.00172382 0)
(-2.10613 0.172378 0)
(-1.544 -0.30148 0)
(-2.36939 0.20997 0)
(-1.61043 -0.517752 0)
(-1.57998 0.368258 0)
(-1.39909 -0.267889 0)
(-1.70638 0.468655 0)
(-2.2636 0.3147 0)
(-1.59264 -0.399414 0)
(-1.44049 -0.103962 0)
(-2.03187 0.249685 0)
(-1.3138 -0.201429 0)
(-2.01746 0.114014 0)
(-1.23505 0.0501636 0)
(-2.2556 0.116639 0)
(-1.87816 -0.130677 0)
(-1.19436 0.125413 0)
(-1.18754 0.287756 0)
(-2.10089 -0.208972 0)
(-2.05781 -0.340417 0)
(-3.84534 -0.17144 0)
(-3.64047 0.628855 0)
(-2.82703 -0.180452 0)
(-1.44856 0.0221399 0)
(-1.55401 -0.28271 0)
(-2.13048 0.155349 0)
(-2.40436 0.186101 0)
(-2.24756 0.362805 0)
(-1.70665 -0.440858 0)
(-2.0188 0.274111 0)
(-1.52684 -0.133786 0)
(-1.8685 -0.129373 0)
(-2.19603 0.451664 0)
(-1.98433 0.254383 0)
(-2.16663 -0.445344 0)
(-3.19153 -0.115447 0)
(-2.9625 0.548132 0)
(-2.32487 -0.166288 0)
(-2.93023 0.0263181 0)
(-2.3426 0.0720262 0)
(-2.57273 -0.216656 0)
(-2.89814 -0.0128922 0)
(-2.62117 0.313764 0)
(-2.07078 0.257999 0)
(-1.8577 -0.439449 0)
(-2.32081 0.367737 0)
(-1.65858 -0.104818 0)
(-1.34672 -0.149588 0)
(-2.14145 0.35286 0)
(-1.50527 -0.422371 0)
(-1.94066 0.287379 0)
(-2.24549 0.159101 0)
(-2.08967 -0.374648 0)
(-1.8936 0.0209574 0)
(-2.57247 0.282194 0)
(-1.16886 -0.293021 0)
(-1.86321 0.206307 0)
(-1.07507 -0.0691811 0)
(-2.05786 0.227445 0)
(-1.24501 -0.430998 0)
(-1.77639 0.33193 0)
(-1.92736 0.377995 0)
(-1.10815 -0.204787 0)
(-2.23169 0.162164 0)
(-2.13303 -0.389042 0)
(-2.56254 0.302261 0)
(-1.91859 0.0192735 0)
(-1.18336 -0.281846 0)
(-2.07568 0.21273 0)
(-1.87892 0.193316 0)
(-1.09116 -0.054209 0)
(-1.87439 0.0922388 0)
(-1.01019 0.0404899 0)
(-2.07391 0.0899552 0)
(-1.07428 -0.170193 0)
(-2.25093 0.357121 0)
(-1.50013 -0.120797 0)
(-1.67352 -0.423637 0)
(-2.02224 0.273385 0)
(-2.62299 0.298224 0)
(-2.85139 -0.126564 0)
(-2.29364 0.113065 0)
(-2.42783 -0.188792 0)
(-2.05349 0.269064 0)
(-1.81119 -0.442346 0)
(-1.61703 -0.11629 0)
(-2.29521 0.373322 0)
(-2.18006 0.330154 0)
(-2.28996 0.00687975 0)
(-2.14412 -0.112878 0)
(-2.76645 -0.0776847 0)
(-2.21112 0.499993 0)
(-2.67958 -0.344476 0)
(-3.07636 0.27149 0)
(-2.87656 0.073475 0)
(-2.75491 0.222891 0)
(-2.21722 0.21773 0)
(-2.49377 -0.277821 0)
(-2.33821 0.00602207 0)
(-2.35914 0.302905 0)
(-2.3694 -0.0195611 0)
(-2.83304 0.172021 0)
(-2.60147 -0.23279 0)
(-2.12662 -0.136525 0)
(-2.13903 0.296121 0)
(-2.75158 -0.0413483 0)
(-2.2944 0.0186764 0)
(-1.14926 -0.195609 0)
(-1.81434 0.314481 0)
(-1.28834 -0.429735 0)
(-1.97787 0.359956 0)
(-1.16911 -0.206376 0)
(-1.97224 0.368687 0)
(-1.80962 0.318403 0)
(-1.31397 -0.444089 0)
(-3.22062 -0.788793 0)
(-2.14263 0.922763 0)
(-3.68861 0.0331096 0)
(-2.97615 0.484421 0)
(-1.93432 0.301042 0)
(-2.13485 0.384117 0)
(-1.43564 -0.169435 0)
(-1.61436 -0.453708 0)
(-2.40395 0.285422 0)
(-2.13447 0.215293 0)
(-1.72068 -0.37816 0)
(-1.57063 -0.0521725 0)
(-1.15345 0.300807 0)
(-1.15564 0.158973 0)
(-1.83001 -0.153933 0)
(-2.03894 -0.237186 0)
(-2.03374 -0.260703 0)
(-1.17806 0.321805 0)
(-1.82174 -0.168433 0)
(-1.1728 0.18307 0)
(-1.6189 0.471925 0)
(-1.58937 -0.518238 0)
(-1.50357 0.372791 0)
(-1.37892 -0.271298 0)
(-3.79307 0.111175 0)
(-2.061 -0.395478 0)
(-3.52877 0.940577 0)
(-2.8359 -0.17847 0)
(-1.28385 -0.405662 0)
(-2.01163 0.338838 0)
(-1.83891 0.297909 0)
(-1.15116 -0.170925 0)
(-1.60139 0.480705 0)
(-1.48778 0.375955 0)
(-1.41791 -0.276971 0)
(-1.62097 -0.517575 0)
(-1.99629 0.21963 0)
(-1.02852 -0.0759374 0)
(-1.11773 -0.286577 0)
(-1.8078 0.200096 0)
(-1.59846 0.471407 0)
(-1.55985 -0.514026 0)
(-1.48676 0.375489 0)
(-1.34339 -0.269895 0)
(-1.12231 0.287926 0)
(-1.81441 -0.158616 0)
(-1.12789 0.15288 0)
(-2.01637 -0.237772 0)
(-1.30261 0.303445 0)
(-1.89783 -0.399585 0)
(-1.36504 0.428426 0)
(-1.68446 -0.245982 0)
(-2.2931 0.0277116 0)
(-2.37983 -0.157929 0)
(-2.82775 -0.0299622 0)
(-2.39482 0.355042 0)
(-1.6223 0.0286596 0)
(-2.49843 0.202951 0)
(-1.7414 -0.311994 0)
(-2.19699 0.153813 0)
(-2.31139 0.0869013 0)
(-2.03376 -0.270407 0)
(-2.69595 0.137848 0)
(-1.92535 0.143459 0)
(-2.03751 -0.0887441 0)
(-1.99996 0.168334 0)
(-2.40933 -0.381509 0)
(-2.1964 0.439785 0)
(-2.11834 -0.261981 0)
(-2.32658 0.0669315 0)
(-2.73213 0.112084 0)
(-2.01772 0.169991 0)
(-2.16379 -0.253052 0)
(-2.3316 0.0520368 0)
(-2.76253 0.0664072 0)
(-2.09956 0.191236 0)
(-1.96518 0.0141778 0)
(-2.20438 -0.399264 0)
(-2.57395 0.304358 0)
(-2.23875 0.140793 0)
(-1.80638 0.462714 0)
(-1.66542 0.360078 0)
(-1.64426 -0.518676 0)
(-1.43213 -0.261895 0)
(-2.28246 -0.287036 0)
(-1.54869 0.370365 0)
(-1.49959 0.155049 0)
(-1.98951 -0.152579 0)
(-2.09111 -0.0742143 0)
(-2.03922 0.13204 0)
(-2.49084 -0.352234 0)
(-2.22724 0.433337 0)
(-1.87453 0.476067 0)
(-1.72771 0.319004 0)
(-1.71037 -0.224377 0)
(-1.97106 -0.480499 0)
(-2.02116 -0.16145 0)
(-1.7557 0.414231 0)
(-2.34976 -0.339071 0)
(-1.66881 0.176055 0)
(-2.17508 -0.176172 0)
(-1.24716 0.0913659 0)
(-1.23714 0.277878 0)
(-1.93576 -0.102481 0)
(-2.51076 0.234001 0)
(-1.66118 0.00992375 0)
(-1.79819 -0.337905 0)
(-2.2072 0.170761 0)
(-2.39945 0.266214 0)
(-1.67057 -0.366033 0)
(-2.12974 0.206237 0)
(-1.53167 -0.0429417 0)
(-1.50712 0.12258 0)
(-1.54739 0.354601 0)
(-2.03203 -0.135126 0)
(-2.33489 -0.258534 0)
(-1.78168 0.28028 0)
(-1.06268 -0.160436 0)
(-1.94559 0.310801 0)
(-1.17573 -0.372342 0)
(-1.08694 -0.235554 0)
(-1.00487 -0.00608217 0)
(-2.01927 0.163196 0)
(-1.82732 0.152908 0)
(-1.96238 -0.489295 0)
(-1.77648 0.325657 0)
(-1.70082 -0.221245 0)
(-1.93638 0.48269 0)
(-1.75209 0.426054 0)
(-1.98512 -0.175916 0)
(-2.30295 -0.364729 0)
(-1.65679 0.200538 0)
(-1.39373 -0.0568569 0)
(-2.30922 0.266264 0)
(-1.52428 -0.350785 0)
(-2.06392 0.217635 0)
(-2.00649 0.219698 0)
(-2.23154 0.259845 0)
(-1.43075 -0.340313 0)
(-1.30881 -0.0698415 0)
(-2.31451 0.0766476 0)
(-2.05878 0.0822585 0)
(-1.37032 -0.175522 0)
(-1.30316 0.0845675 0)
(-1.71992 0.313193 0)
(-2.00891 -0.480615 0)
(-1.8654 0.478448 0)
(-1.74088 -0.226783 0)
(-1.30976 0.212573 0)
(-1.34377 0.371599 0)
(-2.09106 -0.307283 0)
(-1.85216 -0.185335 0)
(-1.50715 0.365725 0)
(-1.23198 -0.266489 0)
(-1.61609 0.440439 0)
(-1.43983 -0.50302 0)
(-2.74099 0.301933 0)
(-2.36845 -0.0470077 0)
(-2.20364 0.215124 0)
(-2.6325 -0.236111 0)
(-1.57195 -0.266391 0)
(-1.65393 0.475843 0)
(-1.79303 -0.495891 0)
(-1.53648 0.351917 0)
(-2.23452 0.184453 0)
(-2.75863 -0.181748 0)
(-2.70347 0.328419 0)
(-2.39818 -0.108471 0)
(-2.6882 0.298123 0)
(-2.1586 0.141653 0)
(-2.32038 0.0422343 0)
(-2.48717 -0.312942 0)
(-1.97924 -0.163867 0)
(-1.06094 0.0932342 0)
(-1.7872 -0.10773 0)
(-1.03875 0.236295 0)
(-2.53142 0.234707 0)
(-2.35547 0.021271 0)
(-2.60663 -0.310281 0)
(-2.89013 0.0549816 0)
(-2.76347 0.319835 0)
(-2.28115 0.212202 0)
(-2.40839 -0.113938 0)
(-2.78516 -0.202898 0)
(-2.22592 0.208129 0)
(-2.68856 0.350188 0)
(-2.77087 -0.1557 0)
(-2.387 -0.109906 0)
(-2.13877 0.226455 0)
(-1.96551 -0.426295 0)
(-2.41523 0.351952 0)
(-1.75554 -0.0702652 0)
(-1.64367 0.351312 0)
(-1.24025 -0.265714 0)
(-1.77788 0.423836 0)
(-1.424 -0.499751 0)
(-1.06971 0.196486 0)
(-1.86367 -0.0376064 0)
(-2.07332 -0.0784074 0)
(-1.10596 0.0187717 0)
(-2.32862 0.0755103 0)
(-2.27558 -0.25887 0)
(-2.76066 0.157678 0)
(-2.13737 0.224517 0)
(-2.02966 -0.349098 0)
(-1.36083 0.395544 0)
(-1.79791 -0.212681 0)
(-1.31433 0.249695 0)
(-1.57611 0.473294 0)
(-1.59863 -0.265433 0)
(-1.47283 0.347025 0)
(-1.81894 -0.47526 0)
(-2.35128 0.0504991 0)
(-2.3721 -0.277915 0)
(-2.18663 0.207694 0)
(-2.77996 0.178896 0)
(-1.47175 0.0567944 0)
(-2.07064 -0.0835709 0)
(-1.47998 0.298633 0)
(-2.36642 -0.170795 0)
(-2.05643 -0.136911 0)
(-1.68776 0.369142 0)
(-2.3856 -0.285108 0)
(-1.6238 0.121309 0)
(-1.84365 0.328115 0)
(-2.01973 0.46163 0)
(-1.62859 -0.21413 0)
(-1.86476 -0.495209 0)
(-2.07014 -0.335001 0)
(-1.36846 0.384014 0)
(-1.32462 0.229489 0)
(-1.83171 -0.201976 0)
(-1.59966 -0.26346 0)
(-1.82356 -0.482685 0)
(-1.51188 0.351045 0)
(-1.62144 0.479912 0)
(-1.92012 0.383343 0)
(-2.12205 -0.107297 0)
(-1.82745 0.0891091 0)
(-2.50631 -0.2826 0)
(-1.74969 0.467726 0)
(-1.45296 -0.26512 0)
(-1.61684 0.361343 0)
(-1.66542 -0.515424 0)
(-1.1797 -0.0695462 0)
(-1.95096 0.0248788 0)
(-2.1767 -2.70092e-06 0)
(-1.12904 0.141649 0)
(-2.38801 0.0584232 0)
(-2.10987 0.0694753 0)
(-1.38273 0.10789 0)
(-1.44569 -0.169681 0)
(-2.02324 -0.148798 0)
(-1.68231 0.386483 0)
(-1.61405 0.151502 0)
(-2.34272 -0.303061 0)
(-1.7494 0.47249 0)
(-1.4942 -0.261849 0)
(-1.6164 0.359949 0)
(-1.71116 -0.513099 0)
(-1.28747 -0.358227 0)
(-1.16938 -0.11633 0)
(-2.08943 0.283166 0)
(-1.89584 0.249631 0)
(-1.60325 0.300586 0)
(-1.78008 -0.231141 0)
(-2.04792 -0.445587 0)
(-1.71461 0.468371 0)
(-1.15971 -0.131379 0)
(-1.28368 -0.3685 0)
(-2.05803 0.308393 0)
(-1.87252 0.270988 0)
(-1.24447 0.299654 0)
(-1.90533 -0.127449 0)
(-1.24611 0.126555 0)
(-2.1405 -0.211521 0)
(-2.17247 0.206151 0)
(-1.99395 -0.40672 0)
(-1.7887 -0.0378868 0)
(-2.46306 0.328193 0)
(-2.28497 -0.301506 0)
(-1.57387 0.39418 0)
(-1.51857 0.176479 0)
(-1.98467 -0.158402 0)
(-1.48691 -0.198613 0)
(-1.68927 -0.476127 0)
(-2.05412 0.426923 0)
(-1.87195 0.325345 0)
(-1.58903 0.431368 0)
(-1.89199 -0.199445 0)
(-1.51339 0.243009 0)
(-2.17055 -0.368902 0)
(-1.67629 0.35584 0)
(-1.81515 0.427417 0)
(-1.23326 -0.258944 0)
(-1.41316 -0.493622 0)
(-1.9822 -0.482369 0)
(-1.81197 0.314489 0)
(-1.71717 -0.208733 0)
(-1.97861 0.474867 0)
(-1.57869 0.341074 0)
(-2.05405 -0.120212 0)
(-1.54007 0.100469 0)
(-2.36569 -0.241273 0)
(-1.28389 0.316777 0)
(-1.91109 -0.138313 0)
(-1.27628 0.141663 0)
(-2.15202 -0.23169 0)
(-1.94689 0.401738 0)
(-1.43516 -0.483095 0)
(-1.26351 -0.233662 0)
(-1.78591 0.333099 0)
(-1.88223 -0.0239783 0)
(-2.09389 -0.0618584 0)
(-1.0708 0.175736 0)
(-1.11009 -0.00923055 0)
(-2.32564 -0.0701075 0)
(-1.35399 0.202784 0)
(-1.38085 -0.0380862 0)
(-2.05631 -0.0208493 0)
(-2.59896 -0.264566 0)
(-2.2958 0.0238634 0)
(-2.17372 0.132298 0)
(-2.60839 0.361715 0)
(-2.69017 -0.19189 0)
(-2.25681 0.247903 0)
(-2.36089 -0.0353734 0)
(-2.71627 0.3251 0)
(-2.36146 -0.123541 0)
(-1.43305 0.00168367 0)
(-1.42433 0.247023 0)
(-2.07641 -0.0556645 0)
(-1.29197 -0.319662 0)
(-2.1454 0.239109 0)
(-1.18443 -0.0724826 0)
(-1.9368 0.212006 0)
(-1.41128 0.364103 0)
(-1.4796 -0.290714 0)
(-1.67568 -0.500938 0)
(-1.51336 0.471893 0)
(-1.36432 -0.393231 0)
(-1.88961 0.277992 0)
(-2.07624 0.324391 0)
(-1.22727 -0.145217 0)
(-2.33163 0.0617405 0)
(-2.76276 0.141738 0)
(-2.26466 -0.257224 0)
(-2.13146 0.212783 0)
(-2.51663 -0.241842 0)
(-2.39801 0.305276 0)
(-2.32899 0.0154117 0)
(-2.84299 0.0885467 0)
(-1.41228 -0.412826 0)
(-2.09586 0.339388 0)
(-1.26621 -0.156485 0)
(-1.90513 0.28583 0)
(-1.20858 0.360181 0)
(-1.78944 -0.182379 0)
(-1.1902 0.228789 0)
(-2.00318 -0.286649 0)
(-1.755 -0.199141 0)
(-1.21962 0.370084 0)
(-1.96476 -0.311237 0)
(-1.19411 0.245429 0)
(-1.44744 0.365902 0)
(-1.66271 -0.516086 0)
(-1.55719 0.472913 0)
(-1.46457 -0.292309 0)
(-1.36904 -0.0423508 0)
(-2.30389 0.243796 0)
(-1.49022 -0.33006 0)
(-2.05967 0.20256 0)
(-1.73637 0.340303 0)
(-1.8845 0.403696 0)
(-1.20624 -0.242776 0)
(-1.37151 -0.47864 0)
(-2.50661 0.365975 0)
(-2.84162 -0.214168 0)
(-2.38092 -0.137895 0)
(-2.88555 0.15577 0)
(-1.77383 0.324019 0)
(-1.19457 -0.23325 0)
(-1.92861 0.381431 0)
(-1.34999 -0.472976 0)
(-1.88352 -0.422353 0)
(-1.33603 0.317966 0)
(-1.66772 -0.25601 0)
(-1.40881 0.443829 0)
(-1.83981 0.454078 0)
(-1.6944 0.352164 0)
(-1.65356 -0.50909 0)
(-1.44364 -0.251323 0)
(-1.8118 -0.398603 0)
(-1.22643 0.312089 0)
(-1.28192 0.419935 0)
(-1.61649 -0.256661 0)
(-2.11337 0.000958893 0)
(-1.06925 0.132733 0)
(-1.9027 0.0247602 0)
(-1.12002 -0.0660906 0)
(-1.07228 0.110443 0)
(-2.12595 0.0413962 0)
(-1.13081 -0.0965826 0)
(-1.91445 0.0568068 0)
(-2.19348 -0.16141 0)
(-1.94993 -0.0900414 0)
(-1.27137 0.0749352 0)
(-1.25961 0.266915 0)
(-1.7418 -0.441757 0)
(-1.55116 -0.27748 0)
(-1.35028 0.447507 0)
(-1.27769 0.341495 0)
(-1.90613 0.0995848 0)
(-1.12947 -0.172006 0)
(-1.0588 0.0458919 0)
(-2.11292 0.0982188 0)
(-1.13262 -0.148523 0)
(-2.12741 0.0728311 0)
(-1.06778 0.0673183 0)
(-1.91711 0.0790462 0)
(-2.39566 0.0889534 0)
(-2.11751 0.0894606 0)
(-1.394 0.0913259 0)
(-1.46707 -0.194207 0)
(-1.78451 -0.483648 0)
(-1.56275 -0.20066 0)
(-2.05267 0.452828 0)
(-1.87022 0.333071 0)
(-2.14758 0.160449 0)
(-2.00313 -0.0131165 0)
(-2.33564 -0.379012 0)
(-2.41411 0.398853 0)
(-1.41952 0.287647 0)
(-2.00047 -0.409866 0)
(-1.49559 0.436772 0)
(-1.76051 -0.237526 0)
(-1.71244 0.339882 0)
(-1.85603 0.401384 0)
(-1.34868 -0.483362 0)
(-1.18722 -0.25094 0)
(-1.88242 0.0244516 0)
(-2.08884 0.000747621 0)
(-1.09474 -0.0556108 0)
(-1.04475 0.13638 0)
(-2.18479 0.157455 0)
(-2.47784 0.390405 0)
(-2.00764 0.00445867 0)
(-2.32997 -0.385046 0)
(-1.42423 0.274649 0)
(-2.04714 -0.394016 0)
(-1.49651 0.432514 0)
(-1.7988 -0.226732 0)
(-1.81934 -0.463891 0)
(-1.60778 -0.273188 0)
(-1.48627 0.461879 0)
(-1.39624 0.340486 0)
(-2.58937 -0.201156 0)
(-1.91612 0.34418 0)
(-2.19808 -0.0635489 0)
(-1.84764 0.0194498 0)
(-2.20533 0.39206 0)
(-1.72006 -0.449745 0)
(-1.98788 0.293729 0)
(-1.52764 -0.147883 0)
(-2.64501 0.304951 0)
(-2.81179 -0.127268 0)
(-2.25568 0.140112 0)
(-2.4239 -0.170257 0)
(-2.13998 0.193186 0)
(-1.2312 -0.269283 0)
(-1.1376 -0.0305379 0)
(-1.93034 0.176556 0)
(-1.43519 0.0273547 0)
(-2.34573 -0.136564 0)
(-1.4293 0.265259 0)
(-2.0605 -0.0653988 0)
(-1.16472 0.0273606 0)
(-1.96472 0.127664 0)
(-1.24504 -0.211355 0)
(-2.18632 0.132723 0)
(-1.79782 -0.48968 0)
(-1.57562 -0.207811 0)
(-2.02431 0.447583 0)
(-1.84677 0.327908 0)
(-1.19107 0.0492732 0)
(-1.98731 0.108787 0)
(-1.26775 -0.19114 0)
(-2.21578 0.109687 0)
(-2.126 -0.0394315 0)
(-1.52833 0.254431 0)
(-1.53619 -0.0140933 0)
(-2.43476 -0.104649 0)
(-2.15053 0.434429 0)
(-1.64339 -0.166409 0)
(-1.94615 0.305002 0)
(-1.87156 -0.470759 0)
(-1.43401 -0.429479 0)
(-1.28112 -0.171213 0)
(-2.07636 0.350247 0)
(-1.88999 0.29327 0)
(-2.0127 0.0648858 0)
(-2.62494 0.29481 0)
(-2.27537 -0.363398 0)
(-2.27562 0.107615 0)
(-2.62046 -0.266973 0)
(-2.1797 0.0949623 0)
(-2.53539 0.372649 0)
(-2.25658 0.0231223 0)
(-2.21572 0.0786291 0)
(-1.19072 0.0734673 0)
(-1.25938 -0.161943 0)
(-1.98618 0.0860472 0)
(-2.60317 0.312581 0)
(-2.11686 0.0428038 0)
(-2.41868 -0.382834 0)
(-2.26209 0.0849409 0)
(-1.23029 -0.270746 0)
(-1.66148 0.441772 0)
(-1.54533 0.366089 0)
(-1.42841 -0.50335 0)
(-1.11195 -0.150435 0)
(-2.0019 0.309418 0)
(-1.23092 -0.375403 0)
(-1.82776 0.276139 0)
(-1.12158 -0.166892 0)
(-2.00087 0.326347 0)
(-1.82909 0.290165 0)
(-1.24689 -0.395996 0)
(-2.07785 0.167538 0)
(-1.14551 -0.242196 0)
(-1.06139 -0.013545 0)
(-1.87827 0.155932 0)
(-2.09307 0.147567 0)
(-1.05932 0.00346365 0)
(-1.89014 0.139449 0)
(-1.13802 -0.223526 0)
(-1.14632 -0.236341 0)
(-1.76074 0.334381 0)
(-1.29445 -0.469385 0)
(-1.91074 0.386891 0)
(-2.09992 -0.345147 0)
(-2.27733 0.146963 0)
(-2.6212 0.262791 0)
(-1.91359 0.0629647 0)
(-2.00556 -0.141695 0)
(-1.06491 0.0705471 0)
(-1.80878 -0.0893887 0)
(-1.04122 0.225176 0)
(-1.02594 0.0913151 0)
(-2.10003 0.0542136 0)
(-1.08518 -0.113887 0)
(-1.89676 0.0653151 0)
(-1.50809 0.463207 0)
(-1.6423 -0.259365 0)
(-1.41877 0.333853 0)
(-1.86347 -0.449559 0)
(-1.98511 0.404112 0)
(-2.11509 -0.110549 0)
(-1.86603 0.107319 0)
(-2.50711 -0.314764 0)
(-2.30266 -0.00154431 0)
(-2.21488 -0.1518 0)
(-2.34057 0.26711 0)
(-2.79851 -0.179833 0)
(-1.86606 0.0497206 0)
(-2.06619 0.0310938 0)
(-1.06267 -0.0673909 0)
(-1.00647 0.123738 0)
(-1.85215 0.386751 0)
(-1.14473 -0.257593 0)
(-1.29575 -0.48698 0)
(-1.70907 0.332195 0)
(-2.6606 -0.257306 0)
(-2.19181 0.0972139 0)
(-2.5466 0.366122 0)
(-2.26893 -0.0113461 0)
(-2.71081 0.225257 0)
(-2.30555 -0.314738 0)
(-2.31544 0.0747497 0)
(-2.09401 0.144636 0)
(-2.22621 0.355812 0)
(-2.00519 0.277362 0)
(-1.62808 -0.41975 0)
(-1.45887 -0.126282 0)
(-1.40381 0.421979 0)
(-1.74462 -0.234546 0)
(-1.34188 0.282974 0)
(-1.97221 -0.388907 0)
(-2.11081 0.241013 0)
(-1.14608 -0.0777995 0)
(-1.25057 -0.316874 0)
(-1.90874 0.216499 0)
(-2.13367 0.166224 0)
(-1.11418 -0.017592 0)
(-1.1993 -0.25515 0)
(-1.92413 0.154919 0)
(-1.44899 0.43683 0)
(-1.73502 -0.241002 0)
(-1.37734 0.296093 0)
(-1.96625 -0.406808 0)
(-1.78382 -0.213651 0)
(-1.3263 0.393661 0)
(-2.01026 -0.346049 0)
(-1.28364 0.252788 0)
(-2.28732 0.0842971 0)
(-2.85949 -0.0554112 0)
(-2.52148 -0.202552 0)
(-2.62392 0.328128 0)
(-2.06572 0.461275 0)
(-1.8649 -0.158471 0)
(-1.88737 0.262338 0)
(-2.16724 -0.442633 0)
(-2.10616 0.468305 0)
(-1.84496 -0.155634 0)
(-1.91628 0.269655 0)
(-2.14802 -0.450822 0)
(-1.8352 0.30641 0)