/*--------------------------------*- C++ -*----------------------------------*\
| =========                 |                                                 |
| \\      /  F ield         | OpenFOAM: The Open Source CFD Toolbox           |
|  \\    /   O peration     | Version:  2.2.0                                 |
|   \\  /    A nd           | Web:      www.OpenFOAM.org                      |
|    \\/     M anipulation  |                                                 |
\*---------------------------------------------------------------------------*/
FoamFile
{
    version     2.0;
    format      ascii;
    class       volScalarField;
    location    "0";
    object      ccy;
}
// * * * * * * * * * * * * * * * * * * * * * * * * * * * * * * * * * * * * * //

dimensions      [0 1 0 0 0 0 0];

internalField   nonuniform List<scalar> 
5120
(
0.0102819
0.0112015
0.0121212
0.0130409
0.0139607
0.0148805
0.0158004
0.0167203
0.0176402
0.0185602
0.0194802
0.0204002
0.0213202
0.0222402
0.0231602
0.0240802
0.0250003
0.0259203
0.0268404
0.0277605
0.0286805
0.0296006
0.0305207
0.0314408
0.0323609
0.0332809
0.034201
0.0351211
0.0360412
0.0369613
0.0378815
0.0388016
0.0308298
0.0335872
0.0363448
0.0391026
0.0418605
0.0446186
0.0473768
0.0501351
0.0528935
0.055652
0.0584105
0.061169
0.0639276
0.0666862
0.0694449
0.0722036
0.0749623
0.077721
0.0804798
0.0832386
0.0859974
0.0887562
0.091515
0.0942738
0.0970327
0.0997915
0.10255
0.105309
0.108068
0.110827
0.113586
0.116345
0.0513302
0.055921
0.0605123
0.0651039
0.0696958
0.0742879
0.0788802
0.0834727
0.0880652
0.0926579
0.0972507
0.101844
0.106436
0.111029
0.115622
0.120216
0.124809
0.129402
0.133995
0.138588
0.143182
0.147775
0.152368
0.156962
0.161555
0.166148
0.170742
0.175335
0.179928
0.184522
0.189115
0.193709
0.0717514
0.0781687
0.0845866
0.0910049
0.0974237
0.103843
0.110262
0.116681
0.123101
0.129521
0.135941
0.142361
0.148781
0.155201
0.161622
0.168042
0.174463
0.180883
0.187304
0.193724
0.200145
0.206566
0.212986
0.219407
0.225828
0.232249
0.23867
0.24509
0.251511
0.257932
0.264353
0.270774
0.092062
0.100296
0.10853
0.116766
0.125001
0.133237
0.141474
0.14971
0.157947
0.166184
0.174422
0.182659
0.190897
0.199134
0.207372
0.21561
0.223848
0.232086
0.240324
0.248562
0.2568
0.265038
0.273276
0.281515
0.289753
0.297991
0.30623
0.314468
0.322706
0.330945
0.339183
0.347422
0.112231
0.122268
0.132307
0.142346
0.152386
0.162427
0.172467
0.182508
0.19255
0.202592
0.212633
0.222675
0.232718
0.24276
0.252802
0.262845
0.272887
0.28293
0.292973
0.303016
0.313059
0.323102
0.333145
0.343188
0.353231
0.363274
0.373317
0.38336
0.393404
0.403447
0.41349
0.423534
0.132226
0.144052
0.155879
0.167707
0.179536
0.191365
0.203195
0.215025
0.226856
0.238686
0.250517
0.262348
0.27418
0.286011
0.297843
0.309675
0.321507
0.333338
0.345171
0.357003
0.368835
0.380667
0.3925
0.404332
0.416164
0.427997
0.439829
0.451662
0.463495
0.475327
0.48716
0.498993
0.152018
0.165614
0.179212
0.19281
0.206409
0.220009
0.233609
0.24721
0.260811
0.274413
0.288015
0.301617
0.315219
0.328822
0.342424
0.356027
0.36963
0.383233
0.396836
0.410439
0.424042
0.437646
0.451249
0.464853
0.478456
0.49206
0.505663
0.519267
0.532871
0.546474
0.560078
0.573682
0.171575
0.186921
0.202267
0.217615
0.232964
0.248313
0.263663
0.279014
0.294365
0.309717
0.325068
0.34042
0.355772
0.371125
0.386477
0.40183
0.417183
0.432536
0.447889
0.463243
0.478596
0.493949
0.509303
0.524656
0.54001
0.555364
0.570718
0.586071
0.601425
0.616779
0.632133
0.647487
0.190868
0.207939
0.225011
0.242085
0.259159
0.276235
0.293311
0.310388
0.327465
0.344543
0.36162
0.378699
0.395777
0.412856
0.429935
0.447014
0.464093
0.481173
0.498252
0.515332
0.532412
0.549491
0.566571
0.583651
0.600731
0.617812
0.634892
0.651972
0.669052
0.686133
0.703213
0.720294
0.209866
0.228636
0.247408
0.266181
0.284955
0.303731
0.322506
0.341283
0.36006
0.378837
0.397615
0.416393
0.435172
0.45395
0.472729
0.491508
0.510288
0.529067
0.547847
0.566626
0.585406
0.604186
0.622966
0.641746
0.660527
0.679307
0.698087
0.716867
0.735648
0.754428
0.773209
0.79199
0.228541
0.248982
0.269424
0.289867
0.310312
0.330758
0.351204
0.371652
0.3921
0.412548
0.432997
0.453446
0.473895
0.494345
0.514795
0.535245
0.555695
0.576146
0.596597
0.617047
0.637498
0.657949
0.678401
0.698852
0.719303
0.739755
0.760206
0.780658
0.801109
0.821561
0.842013
0.862464
0.246864
0.268943
0.291024
0.313106
0.33519
0.357275
0.379361
0.401448
0.423535
0.445622
0.467711
0.489799
0.511888
0.533977
0.556067
0.578156
0.600246
0.622336
0.644427
0.666517
0.688607
0.710698
0.732789
0.75488
0.776971
0.799062
0.821153
0.843244
0.865335
0.887426
0.909518
0.931609
0.264806
0.288489
0.312175
0.335863
0.359551
0.383242
0.406933
0.430624
0.454317
0.47801
0.501703
0.525397
0.549092
0.572786
0.596481
0.620176
0.643871
0.667567
0.691263
0.714959
0.738655
0.762351
0.786047
0.809744
0.83344
0.857137
0.880833
0.90453
0.928227
0.951924
0.975621
0.999318
0.282339
0.307591
0.332845
0.358101
0.383358
0.408617
0.433877
0.459137
0.484398
0.50966
0.534922
0.560185
0.585448
0.610712
0.635976
0.66124
0.686504
0.711768
0.737033
0.762298
0.787563
0.812828
0.838093
0.863359
0.888624
0.91389
0.939156
0.964421
0.989687
1.01495
1.04022
1.06549
0.299437
0.326218
0.353002
0.379787
0.406574
0.433362
0.460152
0.486942
0.513733
0.540525
0.567317
0.594109
0.620902
0.647696
0.67449
0.701284
0.728078
0.754872
0.781667
0.808462
0.835257
0.862052
0.888847
0.915643
0.942438
0.969234
0.99603
1.02283
1.04962
1.07642
1.10321
1.13001
0.316074
0.344343
0.372614
0.400888
0.429163
0.45744
0.485717
0.513996
0.542275
0.570556
0.598836
0.627118
0.655399
0.683681
0.711964
0.740246
0.768529
0.796812
0.825096
0.853379
0.881663
0.909947
0.938231
0.966515
0.994799
1.02308
1.05137
1.07965
1.10794
1.13622
1.16451
1.19279
0.332223
0.361936
0.391652
0.42137
0.45109
0.480811
0.510534
0.540258
0.569982
0.599707
0.629433
0.659159
0.688885
0.718612
0.74834
0.778068
0.807796
0.837524
0.867252
0.896981
0.92671
0.956439
0.986168
1.0159
1.04563
1.07536
1.10509
1.13482
1.16455
1.19428
1.224
1.25374
0.34786
0.378971
0.410086
0.441203
0.472322
0.503442
0.534563
0.565686
0.596809
0.627933
0.659058
0.690184
0.721309
0.752436
0.783562
0.814689
0.845816
0.876944
0.908071
0.939199
0.970327
1.00146
1.03258
1.06371
1.09484
1.12597
1.1571
1.18823
1.21936
1.25049
1.28162
1.31274
0.36296
0.395422
0.427888
0.460355
0.492825
0.525296
0.557769
0.590242
0.622717
0.655192
0.687668
0.720144
0.752621
0.785098
0.817576
0.850054
0.882533
0.915011
0.94749
0.97997
1.01245
1.04493
1.07741
1.10989
1.14237
1.17485
1.20733
1.23981
1.27229
1.30477
1.33725
1.36973
0.377501
0.411264
0.44503
0.478798
0.512568
0.54634
0.580114
0.613888
0.647664
0.68144
0.715217
0.748994
0.782772
0.816551
0.85033
0.884109
0.917888
0.951668
0.985448
1.01923
1.05301
1.08679
1.12057
1.15435
1.18813
1.22191
1.2557
1.28948
1.32326
1.35704
1.39082
1.4246
0.39146
0.426471
0.461485
0.496502
0.531521
0.566542
0.601564
0.636588
0.671612
0.706637
0.741663
0.77669
0.811717
0.846744
0.881772
0.9168
0.951829
0.986858
1.02189
1.05692
1.09195
1.12698
1.16201
1.19704
1.23207
1.2671
1.30213
1.33716
1.37219
1.40722
1.44225
1.47728
0.404815
0.44102
0.477229
0.513441
0.549655
0.58587
0.622087
0.658306
0.694525
0.730745
0.766966
0.803187
0.839409
0.875632
0.911855
0.948078
0.984302
1.02053
1.05675
1.09297
1.1292
1.16542
1.20165
1.23787
1.2741
1.31033
1.34655
1.38278
1.419
1.45523
1.49145
1.52768
0.417546
0.45489
0.492238
0.529588
0.566941
0.604295
0.641651
0.679009
0.716367
0.753726
0.791086
0.828447
0.865808
0.903169
0.940531
0.977894
1.01526
1.05262
1.08998
1.12735
1.16471
1.20207
1.23944
1.2768
1.31417
1.35153
1.3889
1.42626
1.46363
1.50099
1.53836
1.57572
0.429633
0.468058
0.506487
0.544919
0.583353
0.621788
0.660226
0.698664
0.737104
0.775545
0.813986
0.852428
0.890871
0.929314
0.967758
1.0062
1.04465
1.08309
1.12154
1.15998
1.19843
1.23687
1.27532
1.31376
1.35221
1.39066
1.4291
1.46755
1.506
1.54444
1.58289
1.62134
0.441057
0.480504
0.519955
0.559409
0.598865
0.638323
0.677782
0.717243
0.756705
0.796168
0.835631
0.875096
0.914561
0.954026
0.993492
1.03296
1.07243
1.11189
1.15136
1.19083
1.23029
1.26976
1.30923
1.3487
1.38817
1.42764
1.46711
1.50657
1.54604
1.58551
1.62498
1.66445
0.451802
0.49221
0.532622
0.573037
0.613454
0.653873
0.694294
0.734716
0.775139
0.815563
0.855988
0.896414
0.93684
0.977267
1.01769
1.05812
1.09855
1.13898
1.17941
1.21984
1.26027
1.3007
1.34113
1.38156
1.42199
1.46242
1.50285
1.54328
1.58371
1.62414
1.66457
1.705
0.46185
0.503156
0.544467
0.585781
0.627097
0.668415
0.709735
0.751056
0.792378
0.833701
0.875025
0.91635
0.957675
0.999001
1.04033
1.08165
1.12298
1.16431
1.20564
1.24697
1.28829
1.32962
1.37095
1.41228
1.45361
1.49494
1.53627
1.5776
1.61893
1.66026
1.70159
1.74292
0.471186
0.513327
0.555473
0.597622
0.639773
0.681926
0.724081
0.766237
0.808395
0.850553
0.892713
0.934873
0.977034
1.01919
1.06136
1.10352
1.14568
1.18784
1.23001
1.27217
1.31434
1.3565
1.39866
1.44083
1.48299
1.52516
1.56732
1.60949
1.65165
1.69382
1.73598
1.77815
0.479795
0.522706
0.565622
0.608541
0.651462
0.694386
0.737311
0.780238
0.823165
0.866094
0.909024
0.951954
0.994885
1.03782
1.08075
1.12368
1.16661
1.20955
1.25248
1.29542
1.33835
1.38128
1.42422
1.46715
1.51009
1.55302
1.59596
1.6389
1.68183
1.72477
1.7677
1.81064
0.487664
0.53128
0.574899
0.618522
0.662147
0.705775
0.749404
0.793035
0.836667
0.8803
0.923933
0.967568
1.0112
1.05484
1.09848
1.14211
1.18575
1.22939
1.27302
1.31666
1.3603
1.40394
1.44758
1.49122
1.53486
1.5785
1.62214
1.66578
1.70942
1.75306
1.7967
1.84034
0.494782
0.539034
0.58329
0.62755
0.671812
0.716076
0.760342
0.804609
0.848878
0.893148
0.937418
0.98169
1.02596
1.07023
1.11451
1.15878
1.20306
1.24733
1.2916
1.33588
1.38015
1.42443
1.46871
1.51298
1.55726
1.60153
1.64581
1.69009
1.73436
1.77864
1.82292
1.8672
0.501136
0.545957
0.590781
0.635609
0.68044
0.725272
0.770107
0.814943
0.85978
0.904618
0.949458
0.994298
1.03914
1.08398
1.12882
1.17366
1.21851
1.26335
1.30819
1.35304
1.39788
1.44272
1.48757
1.53241
1.57726
1.6221
1.66695
1.71179
1.75664
1.80148
1.84633
1.89118
0.506718
0.552038
0.597362
0.642689
0.688019
0.733351
0.778685
0.82402
0.869357
0.914694
0.960033
1.00537
1.05071
1.09605
1.14139
1.18674
1.23208
1.27742
1.32276
1.36811
1.41345
1.45879
1.50414
1.54948
1.59483
1.64017
1.68552
1.73086
1.77621
1.82155
1.8669
1.91224
0.511519
0.557268
0.603021
0.648778
0.694537
0.740298
0.786062
0.831827
0.877593
0.92336
0.969128
1.0149
1.06067
1.10644
1.15221
1.19798
1.24375
1.28952
1.3353
1.38107
1.42684
1.47261
1.51839
1.56416
1.60994
1.65571
1.70148
1.74726
1.79303
1.83881
1.88458
1.93036
0.515531
0.561638
0.60775
0.653866
0.699984
0.746105
0.792227
0.838351
0.884476
0.930602
0.976729
1.02286
1.06899
1.11511
1.16124
1.20737
1.25351
1.29964
1.34577
1.3919
1.43803
1.48416
1.5303
1.57643
1.62256
1.6687
1.71483
1.76096
1.8071
1.85323
1.89936
1.9455
0.518747
0.565143
0.611543
0.657946
0.704352
0.75076
0.79717
0.843582
0.889995
0.936409
0.982824
1.02924
1.07566
1.12207
1.16849
1.21491
1.26133
1.30775
1.35417
1.40059
1.44701
1.49343
1.53985
1.58627
1.63269
1.67911
1.72553
1.77195
1.81837
1.86479
1.91121
1.95764
0.521165
0.567776
0.614392
0.661012
0.707634
0.754258
0.800885
0.847512
0.894142
0.940772
0.987403
1.03404
1.08067
1.1273
1.17394
1.22057
1.2672
1.31384
1.36048
1.40711
1.45375
1.50038
1.54702
1.59366
1.64029
1.68693
1.73357
1.78021
1.82684
1.87348
1.92012
1.96676
0.522778
0.569534
0.616294
0.663058
0.709825
0.756593
0.803364
0.850136
0.89691
0.943684
0.99046
1.03724
1.08401
1.13079
1.17757
1.22435
1.27113
1.31791
1.36469
1.41147
1.45825
1.50503
1.55181
1.59859
1.64537
1.69215
1.73894
1.78572
1.8325
1.87928
1.92606
1.97285
0.523585
0.570414
0.617246
0.664082
0.710921
0.757762
0.804605
0.851449
0.898295
0.945142
0.991989
1.03884
1.08569
1.13254
1.17939
1.22624
1.27309
1.31994
1.36679
1.41365
1.4605
1.50735
1.55421
1.60106
1.64791
1.69477
1.74162
1.78848
1.83533
1.88218
1.92904
1.97589
0.523585
0.570414
0.617246
0.664082
0.710921
0.757762
0.804605
0.851449
0.898295
0.945142
0.991989
1.03884
1.08569
1.13254
1.17939
1.22624
1.27309
1.31994
1.36679
1.41365
1.4605
1.50735
1.55421
1.60106
1.64791
1.69477
1.74162
1.78848
1.83533
1.88218
1.92904
1.97589
0.522778
0.569534
0.616294
0.663058
0.709825
0.756593
0.803364
0.850136
0.89691
0.943684
0.99046
1.03724
1.08401
1.13079
1.17757
1.22435
1.27113
1.31791
1.36469
1.41147
1.45825
1.50503
1.55181
1.59859
1.64537
1.69215
1.73894
1.78572
1.8325
1.87928
1.92606
1.97285
0.521165
0.567776
0.614392
0.661012
0.707634
0.754258
0.800885
0.847512
0.894142
0.940772
0.987403
1.03404
1.08067
1.1273
1.17394
1.22057
1.2672
1.31384
1.36048
1.40711
1.45375
1.50038
1.54702
1.59366
1.64029
1.68693
1.73357
1.78021
1.82684
1.87348
1.92012
1.96676
0.518747
0.565143
0.611543
0.657946
0.704352
0.75076
0.79717
0.843582
0.889995
0.936409
0.982824
1.02924
1.07566
1.12207
1.16849
1.21491
1.26133
1.30775
1.35417
1.40059
1.44701
1.49343
1.53985
1.58627
1.63269
1.67911
1.72553
1.77195
1.81837
1.86479
1.91121
1.95764
0.515531
0.561638
0.60775
0.653866
0.699984
0.746105
0.792227
0.838351
0.884476
0.930602
0.976729
1.02286
1.06899
1.11511
1.16124
1.20737
1.25351
1.29964
1.34577
1.3919
1.43803
1.48416
1.5303
1.57643
1.62256
1.6687
1.71483
1.76096
1.8071
1.85323
1.89936
1.9455
0.511519
0.557268
0.603021
0.648778
0.694537
0.740298
0.786062
0.831827
0.877593
0.92336
0.969128
1.0149
1.06067
1.10644
1.15221
1.19798
1.24375
1.28952
1.3353
1.38107
1.42684
1.47261
1.51839
1.56416
1.60994
1.65571
1.70148
1.74726
1.79303
1.83881
1.88458
1.93036
0.506718
0.552038
0.597362
0.642689
0.688019
0.733351
0.778685
0.82402
0.869357
0.914694
0.960033
1.00537
1.05071
1.09605
1.14139
1.18674
1.23208
1.27742
1.32276
1.36811
1.41345
1.45879
1.50414
1.54948
1.59483
1.64017
1.68552
1.73086
1.77621
1.82155
1.8669
1.91224
0.501136
0.545957
0.590781
0.635609
0.68044
0.725272
0.770107
0.814943
0.85978
0.904618
0.949458
0.994298
1.03914
1.08398
1.12882
1.17366
1.21851
1.26335
1.30819
1.35304
1.39788
1.44272
1.48757
1.53241
1.57726
1.6221
1.66695
1.71179
1.75664
1.80148
1.84633
1.89118
0.494782
0.539034
0.58329
0.62755
0.671812
0.716076
0.760342
0.804609
0.848878
0.893148
0.937418
0.98169
1.02596
1.07023
1.11451
1.15878
1.20306
1.24733
1.2916
1.33588
1.38015
1.42443
1.46871
1.51298
1.55726
1.60153
1.64581
1.69009
1.73436
1.77864
1.82292
1.8672
0.487664
0.53128
0.574899
0.618522
0.662147
0.705775
0.749404
0.793035
0.836667
0.8803
0.923933
0.967568
1.0112
1.05484
1.09848
1.14211
1.18575
1.22939
1.27302
1.31666
1.3603
1.40394
1.44758
1.49122
1.53486
1.5785
1.62214
1.66578
1.70942
1.75306
1.7967
1.84034
0.479795
0.522706
0.565622
0.608541
0.651462
0.694386
0.737311
0.780238
0.823165
0.866094
0.909024
0.951954
0.994885
1.03782
1.08075
1.12368
1.16661
1.20955
1.25248
1.29542
1.33835
1.38128
1.42422
1.46715
1.51009
1.55302
1.59596
1.6389
1.68183
1.72477
1.7677
1.81064
0.471186
0.513327
0.555473
0.597622
0.639773
0.681926
0.724081
0.766237
0.808395
0.850553
0.892713
0.934873
0.977034
1.01919
1.06136
1.10352
1.14568
1.18784
1.23001
1.27217
1.31434
1.3565
1.39866
1.44083
1.48299
1.52516
1.56732
1.60949
1.65165
1.69382
1.73598
1.77815
0.46185
0.503156
0.544467
0.585781
0.627097
0.668415
0.709735
0.751056
0.792378
0.833701
0.875025
0.91635
0.957675
0.999001
1.04033
1.08165
1.12298
1.16431
1.20564
1.24697
1.28829
1.32962
1.37095
1.41228
1.45361
1.49494
1.53627
1.5776
1.61893
1.66026
1.70159
1.74292
0.451802
0.49221
0.532622
0.573037
0.613454
0.653873
0.694294
0.734716
0.775139
0.815563
0.855988
0.896414
0.93684
0.977267
1.01769
1.05812
1.09855
1.13898
1.17941
1.21984
1.26027
1.3007
1.34113
1.38156
1.42199
1.46242
1.50285
1.54328
1.58371
1.62414
1.66457
1.705
0.441057
0.480504
0.519955
0.559409
0.598865
0.638323
0.677782
0.717243
0.756705
0.796168
0.835631
0.875096
0.914561
0.954026
0.993492
1.03296
1.07243
1.11189
1.15136
1.19083
1.23029
1.26976
1.30923
1.3487
1.38817
1.42764
1.46711
1.50657
1.54604
1.58551
1.62498
1.66445
0.429633
0.468058
0.506487
0.544919
0.583353
0.621788
0.660226
0.698664
0.737104
0.775545
0.813986
0.852428
0.890871
0.929314
0.967758
1.0062
1.04465
1.08309
1.12154
1.15998
1.19843
1.23687
1.27532
1.31376
1.35221
1.39066
1.4291
1.46755
1.506
1.54444
1.58289
1.62134
0.417546
0.45489
0.492238
0.529588
0.566941
0.604295
0.641651
0.679009
0.716367
0.753726
0.791086
0.828447
0.865808
0.903169
0.940531
0.977894
1.01526
1.05262
1.08998
1.12735
1.16471
1.20207
1.23944
1.2768
1.31417
1.35153
1.3889
1.42626
1.46363
1.50099
1.53836
1.57572
0.404815
0.44102
0.477229
0.513441
0.549655
0.58587
0.622087
0.658306
0.694525
0.730745
0.766966
0.803187
0.839409
0.875632
0.911855
0.948078
0.984302
1.02053
1.05675
1.09297
1.1292
1.16542
1.20165
1.23787
1.2741
1.31033
1.34655
1.38278
1.419
1.45523
1.49145
1.52768
0.39146
0.426471
0.461485
0.496502
0.531521
0.566542
0.601564
0.636588
0.671612
0.706637
0.741663
0.77669
0.811717
0.846744
0.881772
0.9168
0.951829
0.986858
1.02189
1.05692
1.09195
1.12698
1.16201
1.19704
1.23207
1.2671
1.30213
1.33716
1.37219
1.40722
1.44225
1.47728
0.377501
0.411264
0.44503
0.478798
0.512568
0.54634
0.580114
0.613888
0.647664
0.68144
0.715217
0.748994
0.782772
0.816551
0.85033
0.884109
0.917888
0.951668
0.985448
1.01923
1.05301
1.08679
1.12057
1.15435
1.18813
1.22191
1.2557
1.28948
1.32326
1.35704
1.39082
1.4246
0.36296
0.395422
0.427888
0.460355
0.492825
0.525296
0.557769
0.590242
0.622717
0.655192
0.687668
0.720144
0.752621
0.785098
0.817576
0.850054
0.882533
0.915011
0.94749
0.97997
1.01245
1.04493
1.07741
1.10989
1.14237
1.17485
1.20733
1.23981
1.27229
1.30477
1.33725
1.36973
0.34786
0.378971
0.410086
0.441203
0.472322
0.503442
0.534563
0.565686
0.596809
0.627933
0.659058
0.690184
0.721309
0.752436
0.783562
0.814689
0.845816
0.876944
0.908071
0.939199
0.970327
1.00146
1.03258
1.06371
1.09484
1.12597
1.1571
1.18823
1.21936
1.25049
1.28162
1.31274
0.332223
0.361936
0.391652
0.42137
0.45109
0.480811
0.510534
0.540258
0.569982
0.599707
0.629433
0.659159
0.688885
0.718612
0.74834
0.778068
0.807796
0.837524
0.867252
0.896981
0.92671
0.956439
0.986168
1.0159
1.04563
1.07536
1.10509
1.13482
1.16455
1.19428
1.224
1.25374
0.316074
0.344343
0.372614
0.400888
0.429163
0.45744
0.485717
0.513996
0.542275
0.570556
0.598836
0.627118
0.655399
0.683681
0.711964
0.740246
0.768529
0.796812
0.825096
0.853379
0.881663
0.909947
0.938231
0.966515
0.994799
1.02308
1.05137
1.07965
1.10794
1.13622
1.16451
1.19279
0.299437
0.326218
0.353002
0.379787
0.406574
0.433362
0.460152
0.486942
0.513733
0.540525
0.567317
0.594109
0.620902
0.647696
0.67449
0.701284
0.728078
0.754872
0.781667
0.808462
0.835257
0.862052
0.888847
0.915643
0.942438
0.969234
0.99603
1.02283
1.04962
1.07642
1.10321
1.13001
0.282339
0.307591
0.332845
0.358101
0.383358
0.408617
0.433877
0.459137
0.484398
0.50966
0.534922
0.560185
0.585448
0.610712
0.635976
0.66124
0.686504
0.711768
0.737033
0.762298
0.787563
0.812828
0.838093
0.863359
0.888624
0.91389
0.939156
0.964421
0.989687
1.01495
1.04022
1.06549
0.264806
0.288489
0.312175
0.335863
0.359551
0.383242
0.406933
0.430624
0.454317
0.47801
0.501703
0.525397
0.549092
0.572786
0.596481
0.620176
0.643871
0.667567
0.691263
0.714959
0.738655
0.762351
0.786047
0.809744
0.83344
0.857137
0.880833
0.90453
0.928227
0.951924
0.975621
0.999318
0.246864
0.268943
0.291024
0.313106
0.33519
0.357275
0.379361
0.401448
0.423535
0.445622
0.467711
0.489799
0.511888
0.533977
0.556067
0.578156
0.600246
0.622336
0.644427
0.666517
0.688607
0.710698
0.732789
0.75488
0.776971
0.799062
0.821153
0.843244
0.865335
0.887426
0.909518
0.931609
0.228541
0.248982
0.269424
0.289867
0.310312
0.330758
0.351204
0.371652
0.3921
0.412548
0.432997
0.453446
0.473895
0.494345
0.514795
0.535245
0.555695
0.576146
0.596597
0.617047
0.637498
0.657949
0.678401
0.698852
0.719303
0.739755
0.760206
0.780658
0.801109
0.821561
0.842013
0.862464
0.209866
0.228636
0.247408
0.266181
0.284955
0.303731
0.322506
0.341283
0.36006
0.378837
0.397615
0.416393
0.435172
0.45395
0.472729
0.491508
0.510288
0.529067
0.547847
0.566626
0.585406
0.604186
0.622966
0.641746
0.660527
0.679307
0.698087
0.716867
0.735648
0.754428
0.773209
0.79199
0.190868
0.207939
0.225011
0.242085
0.259159
0.276235
0.293311
0.310388
0.327465
0.344543
0.36162
0.378699
0.395777
0.412856
0.429935
0.447014
0.464093
0.481173
0.498252
0.515332
0.532412
0.549491
0.566571
0.583651
0.600731
0.617812
0.634892
0.651972
0.669052
0.686133
0.703213
0.720294
0.171575
0.186921
0.202267
0.217615
0.232964
0.248313
0.263663
0.279014
0.294365
0.309717
0.325068
0.34042
0.355772
0.371125
0.386477
0.40183
0.417183
0.432536
0.447889
0.463243
0.478596
0.493949
0.509303
0.524656
0.54001
0.555364
0.570718
0.586071
0.601425
0.616779
0.632133
0.647487
0.152018
0.165614
0.179212
0.19281
0.206409
0.220009
0.233609
0.24721
0.260811
0.274413
0.288015
0.301617
0.315219
0.328822
0.342424
0.356027
0.36963
0.383233
0.396836
0.410439
0.424042
0.437646
0.451249
0.464853
0.478456
0.49206
0.505663
0.519267
0.532871
0.546474
0.560078
0.573682
0.132226
0.144052
0.155879
0.167707
0.179536
0.191365
0.203195
0.215025
0.226856
0.238686
0.250517
0.262348
0.27418
0.286011
0.297843
0.309675
0.321507
0.333338
0.345171
0.357003
0.368835
0.380667
0.3925
0.404332
0.416164
0.427997
0.439829
0.451662
0.463495
0.475327
0.48716
0.498993
0.112231
0.122268
0.132307
0.142346
0.152386
0.162427
0.172467
0.182508
0.19255
0.202592
0.212633
0.222675
0.232718
0.24276
0.252802
0.262845
0.272887
0.28293
0.292973
0.303016
0.313059
0.323102
0.333145
0.343188
0.353231
0.363274
0.373317
0.38336
0.393404
0.403447
0.41349
0.423534
0.092062
0.100296
0.10853
0.116766
0.125001
0.133237
0.141474
0.14971
0.157947
0.166184
0.174422
0.182659
0.190897
0.199134
0.207372
0.21561
0.223848
0.232086
0.240324
0.248562
0.2568
0.265038
0.273276
0.281515
0.289753
0.297991
0.30623
0.314468
0.322706
0.330945
0.339183
0.347422
0.0717514
0.0781687
0.0845866
0.0910049
0.0974237
0.103843
0.110262
0.116681
0.123101
0.129521
0.135941
0.142361
0.148781
0.155201
0.161622
0.168042
0.174463
0.180883
0.187304
0.193724
0.200145
0.206566
0.212986
0.219407
0.225828
0.232249
0.23867
0.24509
0.251511
0.257932
0.264353
0.270774
0.0513302
0.055921
0.0605123
0.0651039
0.0696958
0.0742879
0.0788802
0.0834727
0.0880652
0.0926579
0.0972507
0.101844
0.106436
0.111029
0.115622
0.120216
0.124809
0.129402
0.133995
0.138588
0.143182
0.147775
0.152368
0.156962
0.161555
0.166148
0.170742
0.175335
0.179928
0.184522
0.189115
0.193709
0.0308298
0.0335872
0.0363448
0.0391026
0.0418605
0.0446186
0.0473768
0.0501351
0.0528935
0.055652
0.0584105
0.061169
0.0639276
0.0666862
0.0694449
0.0722036
0.0749623
0.077721
0.0804798
0.0832386
0.0859974
0.0887562
0.091515
0.0942738
0.0970327
0.0997915
0.10255
0.105309
0.108068
0.110827
0.113586
0.116345
0.0102819
0.0112015
0.0121212
0.0130409
0.0139607
0.0148805
0.0158004
0.0167203
0.0176402
0.0185602
0.0194802
0.0204002
0.0213202
0.0222402
0.0231602
0.0240802
0.0250003
0.0259203
0.0268404
0.0277605
0.0286805
0.0296006
0.0305207
0.0314408
0.0323609
0.0332809
0.034201
0.0351211
0.0360412
0.0369613
0.0378815
0.0388016
-0.0102819
-0.0112015
-0.0121212
-0.0130409
-0.0139607
-0.0148805
-0.0158004
-0.0167203
-0.0176402
-0.0185602
-0.0194802
-0.0204002
-0.0213202
-0.0222402
-0.0231602
-0.0240802
-0.0250003
-0.0259203
-0.0268404
-0.0277605
-0.0286805
-0.0296006
-0.0305207
-0.0314408
-0.0323609
-0.0332809
-0.034201
-0.0351211
-0.0360412
-0.0369613
-0.0378815
-0.0388016
-0.0308298
-0.0335872
-0.0363448
-0.0391026
-0.0418605
-0.0446186
-0.0473768
-0.0501351
-0.0528935
-0.055652
-0.0584105
-0.061169
-0.0639276
-0.0666862
-0.0694449
-0.0722036
-0.0749623
-0.077721
-0.0804798
-0.0832386
-0.0859974
-0.0887562
-0.091515
-0.0942738
-0.0970327
-0.0997915
-0.10255
-0.105309
-0.108068
-0.110827
-0.113586
-0.116345
-0.0513302
-0.055921
-0.0605123
-0.0651039
-0.0696958
-0.0742879
-0.0788802
-0.0834727
-0.0880652
-0.0926579
-0.0972507
-0.101844
-0.106436
-0.111029
-0.115622
-0.120216
-0.124809
-0.129402
-0.133995
-0.138588
-0.143182
-0.147775
-0.152368
-0.156962
-0.161555
-0.166148
-0.170742
-0.175335
-0.179928
-0.184522
-0.189115
-0.193709
-0.0717514
-0.0781687
-0.0845866
-0.0910049
-0.0974237
-0.103843
-0.110262
-0.116681
-0.123101
-0.129521
-0.135941
-0.142361
-0.148781
-0.155201
-0.161622
-0.168042
-0.174463
-0.180883
-0.187304
-0.193724
-0.200145
-0.206566
-0.212986
-0.219407
-0.225828
-0.232249
-0.23867
-0.24509
-0.251511
-0.257932
-0.264353
-0.270774
-0.092062
-0.100296
-0.10853
-0.116766
-0.125001
-0.133237
-0.141474
-0.14971
-0.157947
-0.166184
-0.174422
-0.182659
-0.190897
-0.199134
-0.207372
-0.21561
-0.223848
-0.232086
-0.240324
-0.248562
-0.2568
-0.265038
-0.273276
-0.281515
-0.289753
-0.297991
-0.30623
-0.314468
-0.322706
-0.330945
-0.339183
-0.347422
-0.112231
-0.122268
-0.132307
-0.142346
-0.152386
-0.162427
-0.172467
-0.182508
-0.19255
-0.202592
-0.212633
-0.222675
-0.232718
-0.24276
-0.252802
-0.262845
-0.272887
-0.28293
-0.292973
-0.303016
-0.313059
-0.323102
-0.333145
-0.343188
-0.353231
-0.363274
-0.373317
-0.38336
-0.393404
-0.403447
-0.41349
-0.423534
-0.132226
-0.144052
-0.155879
-0.167707
-0.179536
-0.191365
-0.203195
-0.215025
-0.226856
-0.238686
-0.250517
-0.262348
-0.27418
-0.286011
-0.297843
-0.309675
-0.321507
-0.333338
-0.345171
-0.357003
-0.368835
-0.380667
-0.3925
-0.404332
-0.416164
-0.427997
-0.439829
-0.451662
-0.463495
-0.475327
-0.48716
-0.498993
-0.152018
-0.165614
-0.179212
-0.19281
-0.206409
-0.220009
-0.233609
-0.24721
-0.260811
-0.274413
-0.288015
-0.301617
-0.315219
-0.328822
-0.342424
-0.356027
-0.36963
-0.383233
-0.396836
-0.410439
-0.424042
-0.437646
-0.451249
-0.464853
-0.478456
-0.49206
-0.505663
-0.519267
-0.532871
-0.546474
-0.560078
-0.573682
-0.171575
-0.186921
-0.202267
-0.217615
-0.232964
-0.248313
-0.263663
-0.279014
-0.294365
-0.309717
-0.325068
-0.34042
-0.355772
-0.371125
-0.386477
-0.40183
-0.417183
-0.432536
-0.447889
-0.463243
-0.478596
-0.493949
-0.509303
-0.524656
-0.54001
-0.555364
-0.570718
-0.586071
-0.601425
-0.616779
-0.632133
-0.647487
-0.190868
-0.207939
-0.225011
-0.242085
-0.259159
-0.276235
-0.293311
-0.310388
-0.327465
-0.344543
-0.36162
-0.378699
-0.395777
-0.412856
-0.429935
-0.447014
-0.464093
-0.481173
-0.498252
-0.515332
-0.532412
-0.549491
-0.566571
-0.583651
-0.600731
-0.617812
-0.634892
-0.651972
-0.669052
-0.686133
-0.703213
-0.720294
-0.209866
-0.228636
-0.247408
-0.266181
-0.284955
-0.303731
-0.322506
-0.341283
-0.36006
-0.378837
-0.397615
-0.416393
-0.435172
-0.45395
-0.472729
-0.491508
-0.510288
-0.529067
-0.547847
-0.566626
-0.585406
-0.604186
-0.622966
-0.641746
-0.660527
-0.679307
-0.698087
-0.716867
-0.735648
-0.754428
-0.773209
-0.79199
-0.228541
-0.248982
-0.269424
-0.289867
-0.310312
-0.330758
-0.351204
-0.371652
-0.3921
-0.412548
-0.432997
-0.453446
-0.473895
-0.494345
-0.514795
-0.535245
-0.555695
-0.576146
-0.596597
-0.617047
-0.637498
-0.657949
-0.678401
-0.698852
-0.719303
-0.739755
-0.760206
-0.780658
-0.801109
-0.821561
-0.842013
-0.862464
-0.246864
-0.268943
-0.291024
-0.313106
-0.33519
-0.357275
-0.379361
-0.401448
-0.423535
-0.445622
-0.467711
-0.489799
-0.511888
-0.533977
-0.556067
-0.578156
-0.600246
-0.622336
-0.644427
-0.666517
-0.688607
-0.710698
-0.732789
-0.75488
-0.776971
-0.799062
-0.821153
-0.843244
-0.865335
-0.887426
-0.909518
-0.931609
-0.264806
-0.288489
-0.312175
-0.335863
-0.359551
-0.383242
-0.406933
-0.430624
-0.454317
-0.47801
-0.501703
-0.525397
-0.549092
-0.572786
-0.596481
-0.620176
-0.643871
-0.667567
-0.691263
-0.714959
-0.738655
-0.762351
-0.786047
-0.809744
-0.83344
-0.857137
-0.880833
-0.90453
-0.928227
-0.951924
-0.975621
-0.999318
-0.282339
-0.307591
-0.332845
-0.358101
-0.383358
-0.408617
-0.433877
-0.459137
-0.484398
-0.50966
-0.534922
-0.560185
-0.585448
-0.610712
-0.635976
-0.66124
-0.686504
-0.711768
-0.737033
-0.762298
-0.787563
-0.812828
-0.838093
-0.863359
-0.888624
-0.91389
-0.939156
-0.964421
-0.989687
-1.01495
-1.04022
-1.06549
-0.299437
-0.326218
-0.353002
-0.379787
-0.406574
-0.433362
-0.460152
-0.486942
-0.513733
-0.540525
-0.567317
-0.594109
-0.620902
-0.647696
-0.67449
-0.701284
-0.728078
-0.754872
-0.781667
-0.808462
-0.835257
-0.862052
-0.888847
-0.915643
-0.942438
-0.969234
-0.99603
-1.02283
-1.04962
-1.07642
-1.10321
-1.13001
-0.316074
-0.344343
-0.372614
-0.400888
-0.429163
-0.45744
-0.485717
-0.513996
-0.542275
-0.570556
-0.598836
-0.627118
-0.655399
-0.683681
-0.711964
-0.740246
-0.768529
-0.796812
-0.825096
-0.853379
-0.881663
-0.909947
-0.938231
-0.966515
-0.994799
-1.02308
-1.05137
-1.07965
-1.10794
-1.13622
-1.16451
-1.19279
-0.332223
-0.361936
-0.391652
-0.42137
-0.45109
-0.480811
-0.510534
-0.540258
-0.569982
-0.599707
-0.629433
-0.659159
-0.688885
-0.718612
-0.74834
-0.778068
-0.807796
-0.837524
-0.867252
-0.896981
-0.92671
-0.956439
-0.986168
-1.0159
-1.04563
-1.07536
-1.10509
-1.13482
-1.16455
-1.19428
-1.224
-1.25374
-0.34786
-0.378971
-0.410086
-0.441203
-0.472322
-0.503442
-0.534563
-0.565686
-0.596809
-0.627933
-0.659058
-0.690184
-0.721309
-0.752436
-0.783562
-0.814689
-0.845816
-0.876944
-0.908071
-0.939199
-0.970327
-1.00146
-1.03258
-1.06371
-1.09484
-1.12597
-1.1571
-1.18823
-1.21936
-1.25049
-1.28162
-1.31274
-0.36296
-0.395422
-0.427888
-0.460355
-0.492825
-0.525296
-0.557769
-0.590242
-0.622717
-0.655192
-0.687668
-0.720144
-0.752621
-0.785098
-0.817576
-0.850054
-0.882533
-0.915011
-0.94749
-0.97997
-1.01245
-1.04493
-1.07741
-1.10989
-1.14237
-1.17485
-1.20733
-1.23981
-1.27229
-1.30477
-1.33725
-1.36973
-0.377501
-0.411264
-0.44503
-0.478798
-0.512568
-0.54634
-0.580114
-0.613888
-0.647664
-0.68144
-0.715217
-0.748994
-0.782772
-0.816551
-0.85033
-0.884109
-0.917888
-0.951668
-0.985448
-1.01923
-1.05301
-1.08679
-1.12057
-1.15435
-1.18813
-1.22191
-1.2557
-1.28948
-1.32326
-1.35704
-1.39082
-1.4246
-0.39146
-0.426471
-0.461485
-0.496502
-0.531521
-0.566542
-0.601564
-0.636588
-0.671612
-0.706637
-0.741663
-0.77669
-0.811717
-0.846744
-0.881772
-0.9168
-0.951829
-0.986858
-1.02189
-1.05692
-1.09195
-1.12698
-1.16201
-1.19704
-1.23207
-1.2671
-1.30213
-1.33716
-1.37219
-1.40722
-1.44225
-1.47728
-0.404815
-0.44102
-0.477229
-0.513441
-0.549655
-0.58587
-0.622087
-0.658306
-0.694525