/*--------------------------------*- C++ -*----------------------------------*\
| =========                 |                                                 |
| \\      /  F ield         | foam-extend: Open Source CFD                    |
|  \\    /   O peration     | Version:  3.0                                   |
|   \\  /    A nd           | Web:         http://www.extend-project.de       |
|    \\/     M anipulation  |                                                 |
\*---------------------------------------------------------------------------*/
FoamFile
{
    version     2.0;
    format      ascii;
    class       volScalarField;
    location    "41";
    object      Theta;
}
// * * * * * * * * * * * * * * * * * * * * * * * * * * * * * * * * * * * * * //

dimensions      [0 2 -2 0 0 0 0];

internalField   nonuniform List<scalar> 
3012
(
-2.49644
1.81274
4.03698
-0.394023
29.3048
11.2849
-22.7738
-5.43043
-2.68552
3.40151
-3.04508
3.40624
1.01657
-0.702724
2.50277
0.81901
-22.6569
-25.6078
19.7293
24.4002
1.07033
0.0385108
1.6984
0.959862
3.83488
-1.64472
4.64203
-1.64257
-1.50088
3.83269
-0.124805
2.34705
0.485558
2.82506
-0.860412
1.42911
1.18641
7.6941
-5.87528
-0.0614432
0.981903
3.11929
1.12829
-1.02086
1.01463
0.994844
-1.13248
3.11929
0.464161
1.24203
0.540711
1.19717
-4.169
1.73009
1.34767
6.86979
-3.58242
-15.0986
0.739762
12.4226
-15.6132
14.1527
23.456
-6.00653
0.944302
-1.69602
4.08499
1.40479
1.74432
0.943173
1.10998
0.257363
2.22236
0.987252
0.132694
-0.426561
-0.744507
2.73074
1.7177
0.28894
0.905264
-1.49244
1.15417
3.52966
2.83949
0.713175
1.11784
-0.799318
-0.355471
4.05229
-1.75728
2.71271
3.01009
-1.63314
0.0310183
4.05635
-6.0853
4.14853
-3.76989
6.14597
4.13184
2.08799
0.280004
-1.81564
3.38979
-0.976659
3.21733
-1.07487
2.13354
0.918966
-0.294256
1.06601
-1.04133
3.31146
1.1222
1.16738
2.45481
0.0955004
2.36418
0.183611
-0.746453
-0.100965
0.971055
2.57224
5.75909
-9.82905
7.07021
-8.71525
29.6342
-32.1691
3.56704
-4.92197
-4.29652
2.77839
12.3808
4.43565
-16.6555
12.7077
25.7463
-7.58576
9.39897
-2.10176
-5.4253
5.00792
7.03358
9.71359
-4.55499
-3.38658
5.21567
-26.2584
-5.99042
23.0636
0.23696
-0.612043
1.72795
2.70612
2.49107
3.54758
-1.36814
-0.251916
2.51344
-0.397181
1.94639
0.11275
-1.16601
-9.11014
3.36081
11.5134
0.465842
3.01815
-1.09386
1.41611
9.7018
10.0927
-9.34379
-10.6237
-8.01138
11.643
18.0583
-11.3986
-8.96308
4.64481
8.93936
-4.29668
3.42538
-1.60719
-1.13243
4.12886
-0.160243
2.63461
2.13158
-0.738666
2.32741
-0.217083
2.07024
-0.00388663
2.15737
3.1151
-1.01984
0.0058045
0.877483
-0.460095
0.783089
2.09573
1.20182
4.5033
-2.11474
1.35232
1.38043
1.16223
1.19427
0.325444
1.14481
1.76649
-0.0852367
0.973759
3.02965
1.33732
0.500041
-1.03722
0.158276
1.05848
0.88798
0.339453
0.150787
-0.267624
1.3836
1.95002
0.929656
1.97074
0.976317
-0.490844
1.00619
-0.176816
1.37979
0.0951579
2.85666
2.22844
-0.389361
-1.08389
2.33525
-0.926896
3.15507
-0.115327
-0.283728
3.26969
2.53556
-0.821866
1.59149
-1.72701
0.619624
3.98938
-1.89544
4.14245
3.82382
-1.46615
5.97362
2.13166
-1.76473
1.17525
1.24211
2.24167
-0.0794588
-0.734962
0.697473
-0.0715297
0.629919
1.62003
2.14515
-0.473927
-1.02881
2.75146
1.32353
4.16618
0.983912
-1.83173
1.55256
-1.20372
3.20475
0.364976
-5.41616
2.4262
0.356541
8.55539
0.897118
1.49263
0.183968
1.0446
20.2652
-18.5097
-23.4078
15.9664
-20.883
27.7458
7.7568
-1.8697
-0.473718
-1.94978
2.79083
4.30403
3.0064
-0.691184
-1.72032
4.27905
2.01753
-1.31473
3.3988
-0.14937
-0.881617
-1.17943
1.4579
0.800312
5.58172
-1.41695
-3.95179
2.60761
3.30682
3.71618
-1.11857
-0.777934
0.475105
1.38984
0.386485
1.42174
0.0036641
-0.86769
2.06377
3.04616
-4.36682
-0.58693
3.57539
8.98616
2.52149
0.344481
1.67045
-0.560435
2.00409
0.0798152
2.22065
-0.194744
1.18803
0.643446
1.39811
0.160533
-0.224282
3.51269
-1.2808
2.05643
1.13036
3.49259
1.22897
-1.13397
0.793061
1.87209
-0.239998
0.0333429
0.781798
0.262958
1.80876
1.17465
-0.647795
2.52945
2.85668
-0.363257
0.155314
3.30309
-1.20119
1.93648
0.150835
2.29779
-1.69566
0.717993
-3.00038
4.01503
6.38511
-0.245784
1.93405
2.06833
-0.233993
-0.174319
-0.390405
0.538749
0.833799
1.65762
-0.103531
-1.46485
3.62136
2.12335
4.02657
-1.9524
-1.12435
5.21169
3.20546
-1.96116
-2.21417
2.71755
-1.132
2.34839
-0.232024
3.24897
2.33002
-1.02922
-0.790224
1.87472
0.909724
-1.15437
1.42049
3.38495
-2.79849
-4.74914
10.1675
9.72917
1.69632
-3.08492
1.42131
6.46337
-13.2852
8.80877
-11.3854
10.1878
-0.957216
-0.547766
3.51511
2.88495
1.56703
-0.29403
0.696902
1.78332
-0.256218
2.49132
0.751486
0.996915
-1.60483
-0.132493
2.3564
3.89002
-2.09098
1.35482
3.83265
0.175588
-2.61244
2.61622
4.51113
-0.493753
-0.128044
-0.234737
1.80229
-0.129192
5.97224
0.475523
-3.72955
1.45401
1.22576
1.29569
1.3288
0.679789
-33.6142
6.08548
-9.44946
31.1411
5.62168
2.28385
0.353513
-2.66387
1.21875
1.10798
0.56908
0.500085
11.3119
9.23805
-5.11226
-5.27054
2.69829
5.46567
-2.34448
-0.130262
1.84161
0.319497
0.183305
1.57005
-1.49548
-2.26053
4.96318
4.20919
0.975368
-1.5333
0.864278
3.595
-22.7478
12.3058
-13.2249
23.4843
1.82897
2.04773
-0.419213
-0.253357
0.807222
-0.715843
1.07053
2.63048
-0.637749
2.3349
1.86936
-1.09967
0.266264
3.29368
-1.00518
1.68975
-25.2413
-24.6924
20.6193
22.5409
0.00761558
2.91578
2.38316
-0.682275
5.77472
0.0403043
3.23865
-2.84034
-0.319766
2.47685
-0.370073
2.4879
-0.045919
2.16745
-0.177934
1.94571
2.93833
0.547055
-1.10666
1.47331
24.7423
-23.8539
-5.58493
6.43104
4.4034
3.43137
-1.88678
-1.10272
4.46667
0.580206
1.74035
-2.24698
0.19872
2.40467
-2.79355
5.53166
0.949391
-1.14814
3.1219
1.33593
2.31564
2.73368
-0.767828
-0.416649
0.533354
1.84163
-2.37354
4.86941
0.0299055
2.1818
-0.929905
2.99167
0.140309
-1.03007
1.34433
2.51556
1.01768
-0.27494
0.0542274
2.0664
3.58561
2.51654
-0.398538
-1.49979
1.19583
-0.524845
0.320732
2.22115
0.288352
0.991659
1.01776
1.68851
-19.3048
30.451
-33.1666
16.4498
0.683088
1.97648
-2.39718
5.18867
3.92631
2.22684
-1.69863
0.127934
-0.338364
5.79482
-2.14714
4.76912
-16.0282
20.6292
-10.3715
13.6891
6.72597
-21.2514
-1.37008
27.4176
-1.97173
2.09801
3.6233
-0.568414
-0.365766
3.33602
2.3163
-1.14261
-4.02546
3.74518
-1.6653
6.19481
1.42503
-0.800642
0.217891
2.93811
0.16442
1.59091
0.433156
1.16211
-3.02352
2.60229
3.89834
-1.68904
1.59533
2.8445
-0.834444
0.921983
1.12782
0.945958
0.48164
0.903894
2.70651
0.0470647
1.57152
-1.11857
17.6168
-0.647309
7.7504
-10.6724
-2.74927
3.68464
-0.484752
5.58086
-3.33335
-4.18025
6.49335
8.04942
-5.28501
6.29962
-3.26075
10.8971
3.4006
-16.1245
12.8414
-5.40072
13.8389
-1.82841
8.54212
-5.44589
-5.89079
6.31596
4.45659
-4.00606
1.31686
1.42349
0.0940658
0.166922
-0.447516
5.38448
-2.70522
3.14722
-24.2451
-3.65404
24.0605
4.22845
-1.56246
3.59396
-0.37356
2.4295
5.57898
-2.75385
3.15908
-0.348819
0.676316
1.32267
1.06692
0.678646
4.54584
2.14293
-2.05332
0.300303
1.37077
0.0454442
0.230586
0.516345
-17.7151
-20.233
18.3807
20.455
2.13936
4.12903
-1.63743
0.17202
3.65943
-1.17279
-0.830626
3.69075
2.92474
0.620358
1.54275
-0.393534
3.45503
2.88779
-1.17568
-0.761509
1.80751
-1.15808
0.597123
3.62994
0.41548
2.21801
1.67142
-0.336432
-11.9372
15.8843
12.9436
-15.764
0.427327
3.93057
1.12186
-2.71586
-2.88697
2.88375
5.22097
-0.251137
-2.32168
-4.0999
2.96023
4.96694
2.14799
-6.39858
9.11989
0.421272
0.347419
-2.95848
4.47757
1.62927
0.792235
3.21967
7.49397
-3.98686
2.14524
-0.0679623
2.57202
-0.311764
2.7003
2.11531
-0.217002
-0.737536
-1.87014
1.71944
6.47853
1.77179
1.80826
-0.313222
-0.556684
2.02822
-2.43394
3.15036
5.83692
-0.188921
2.94882
0.0726957
1.689
-0.990711
4.89669
0.449304
2.29054
-2.28701
3.76747
1.1829
-2.0549
0.767364
0.087348
2.13887
-1.9907
4.23993
-0.42421
0.622289
2.62542
1.42815
1.47798
1.76575
2.75678
-0.342273
3.90509
-1.0106
-1.4348
3.34841
2.1834
-1.26552
2.58789
-0.7238
0.873186
4.65545
1.5104
-2.18869
-1.28943
3.17645
2.57775
-0.620416
3.14134
-1.25234
1.35361
0.318828
-1.11512
3.09431
3.30379
-0.75267
0.813079
1.52574
3.39318
-1.18995
-0.457401
0.147582
2.4022
2.13548
0.616722
1.27989
-14.864
16.3944
-0.433724
3.16555
2.28162
-1.09919
-4.38254
5.19475
6.48384
-5.86046
3.54372
-10.7105
-2.76407
10.6364
2.78014
0.654406
-0.550496
1.32825
11.3847
3.26306
-4.0824
3.54739
2.45378
0.653088
2.60294
6.83736
-0.225366
9.19334
2.43177
-7.55205
-2.82339
3.51761
5.33681
-1.03142
0.863629
0.470442
0.83149
1.18549
1.1116
0.665538
0.990673
0.50645
-5.78841
0.958359
5.92451
-0.480959
2.48022
1.84987
-0.578629
0.327743
1.6006
-0.318932
0.0381546
2.01197
-2.42168
-0.115971
7.13808
8.78318
1.49571
-3.92586
1.58793
7.28606
-1.96226
3.10199
4.74045
-0.477185
-3.71356
6.88006
-0.648262
4.0425
3.10368
2.00586
0.069853
-0.937412
-0.569719
2.93454
-0.667903
3.00995
1.4945
-3.89933
0.184276
5.7022
2.65944
-0.0884776
-0.837862
1.56535
1.09048
-1.19475
3.41234
0.846748
4.49777
-2.23724
0.843661
1.33532
-1.31242
0.796295
0.293978
2.33306
2.97573
-0.799719
-0.731261
2.8828
1.51522
0.649677
3.29425
-1.02782
0.0351353
-0.975714
2.59012
1.50007
0.374473
1.55811
2.25038
-0.302367
1.22766
-0.315573
1.08421
2.43328
-2.41176
3.98613
-1.88227
4.49086
2.98469
1.07495
0.535339
-1.16974
-1.36069
3.45554
2.76356
-0.622502
2.03123
-0.809132
-0.236607
2.52627
-0.62724
2.77413
-0.0561618
1.92172
3.67878
-1.58417
-1.4536
3.74634
3.09087
-2.27058
-0.482026
4.89121
1.87171
-1.34656
0.189286
3.57401
3.25833
2.08862
0.073349
-1.13389
-0.763141
2.91189
1.29436
0.97865
3.81324
2.21301
-0.125329
-1.79142
10.8483
2.0509
-5.50146
2.15515
-0.993933
0.960378
-10.8491
10.7335
5.11608
0.605688
1.73655
-2.83407
1.08652
2.18694
0.568037
-0.483392
0.83944
-0.404929
2.29311
0.907361
1.40684
-0.853981
3.0509
0.661812
-4.34395
5.75008
4.00406
-2.54213
4.56741
-6.6923
-11.041
9.02672
1.1126
2.11242
0.642821
-0.355785
1.07781
-1.42958
1.24736
3.69377
0.454678
2.51959
1.5114
-0.485897
-1.20133
2.25974
3.5441
-0.0487055
-0.431624
2.78001
2.28975
-1.03881
-0.185556
2.23776
-0.0994058
2.0633
19.3167
-11.0021
-4.92624
10.6944
-1.21137
0.153948
3.51809
2.1378
2.67019
-0.261525
-0.424374
2.42959
3.78693
-1.53573
3.21336
-1.27409
3.12388
-0.611292
2.93999
-0.629963
2.62289
1.29788
-0.652833
0.650809
1.10117
3.35459
1.11156
-1.13499
4.16123
-1.68653
0.41456
2.23251
3.34759
-1.00814
2.56282
-0.304399
-0.00808635
1.13623
0.656608
1.80014
1.18351
3.98119
1.1887
-1.66296
3.54464
-1.38299
0.542203
1.60319
3.31403
-0.939574
4.35217
-1.98421
-3.64081
-2.97476
4.17789
4.89231
-0.575834
3.81586
2.83252
-1.57155
-0.154665
2.19416
1.64967
0.238283
-0.191503
2.27085
0.866098
1.16769
-0.468303
3.58553
-1.78154
5.62595
0.450302
2.16159
1.34092
-0.269785
2.9923
-0.771676
2.52695
-0.208024
5.53117
3.30179
-3.28574
-0.982373
4.29161
3.17296
-2.04263
-0.97663
-4.39323
11.5441
-13.2851
2.04996
3.43109
1.62053
0.549167
-1.16631
0.423886
0.40607
0.615154
0.668911
0.358148
0.308028
0.973327
1.17977
0.524708
0.333112
0.219248
0.708136
1.16428
-1.50923
1.10265
3.83647
-0.919394
0.339932
0.576058
1.86935
1.55075
-0.0633035
-0.739948
0.814255
1.59521
0.320866
2.7303
-0.746996
-6.67291
3.01342
7.12825
-2.10122
2.56057
-3.20621
8.44923
-8.49894
1.91554
0.585066
1.13348
-0.106884
5.42209
0.100203
3.48002
-2.59947
0.223137
1.64034
0.305589
1.32407
0.445363
3.04134
1.74849
-0.953271
0.812946
1.09986
0.71107
0.90726
2.96845
1.4049
0.821116
-0.99565
1.55427
0.517887
0.281446
0.977027
-0.594141
-2.39598
3.2548
5.16719
3.42079
-2.21974
3.47011
-2.16894
1.50737
0.75212
0.276761
1.05938
1.32383
5.47196
1.33084
-2.78727
1.81398
-0.710527
-0.00397971
2.64528
2.17951
-1.81856
0.766631
5.14277
-1.56237
-0.652164
4.17699
5.75282
-0.523668
2.39303
0.644517
1.48045
2.18659
-0.039532
2.05822
-0.0676013
5.24156
-0.908754
4.24603
-1.16935
2.78757
5.10194
-4.27429
-7.02505
4.75719
-2.32631
2.74426
-0.358822
2.00425
-0.77219
0.147
2.72489
3.09983
0.644543
1.74434
-0.871881
2.51572
0.523895
1.45628
-0.647247
2.17138
0.101227
-0.182321
1.94681
-1.22984
2.04565
3.62733
0.287349
-18.0813
17.4084
16.8137
-19.0109
3.4234
-0.525322
-1.31702
2.98089
1.93737
-2.4351
-0.802014
3.408
0.799915
0.938562
0.975252
0.611939
-0.549602
0.943856
-1.43848
2.05137
4.6372
-1.43814
-1.72169
4.59212
-0.107545
2.72858
-0.654964
2.12633
5.42251
0.375373
2.20688
-2.71299
0.150693
1.63639
0.192568
1.28947
2.95189
-0.639925
-2.06925
1.70965
1.78643
-0.81472
2.69277
0.118903
-1.88976
4.2253
-0.500353
2.81417
0.269084
1.32978
0.097384
1.33389
-1.37318
4.82301
-2.04922
4.24771
1.55181
0.64868
1.20738
0.392257
0.202836
1.9051
2.54358
-0.59678
1.32333
1.82288
0.569774
0.109163
-0.985133
0.99025
0.68894
2.8965
-0.769365
-1.64565
4.09457
3.10922
-0.128959
-0.13288
1.48439
1.60603
0.0632322
1.22944
1.49395
0.297361
2.04109
-0.200297
0.30743
0.970372
-1.78362
0.521866
0.0181457
2.43959
2.81655
5.34499
-2.16525
0.494184
19.4525
-12.6849
11.3591
-6.18199
2.25335
0.790746
-0.396324
0.528751
11.1869
-20.554
27.6104
-4.97763
-4.82306
-0.981719
8.92024
4.92313
3.05602
-2.54044
-0.112578
5.10517
1.36269
0.264032
-0.998237
2.67919
1.04306
1.05962
-0.457897
2.61986
-0.0226482
1.48124
1.85659
-0.200493
0.590073
0.452128
1.42974
1.26557
1.55987
0.83891
0.13697
0.88591
2.11778
-0.0264567
5.34601
-2.00896
1.628
1.93626
-0.0716239
-0.260922
3.313
-1.0365
-0.919663
3.37978
9.57038
21.8648
-15.3552
-3.673
-2.16355
3.55676
3.81621
-2.35849
-23.4967
11.7195
20.9814
-15.9695
5.0138
2.52346
1.90538
7.32226
3.06621
-0.704458
2.77139
-0.814918
0.271647
-2.4661
2.72037
5.28902
1.74689
-1.26194
2.3311
-0.647768
1.70904
-0.76204
2.86012
0.56392
-1.14725
3.48534
0.406817
1.81851
0.102938
1.32293
0.436453
1.20045
-1.50974
4.36863
-1.89915
4.55865
0.00664415
0.487167
1.32315
1.0784
-1.91224
3.99848
-1.47665
4.62989
1.99232
-0.592641
2.58003
0.123573
1.98412
-1.91978
4.3604
0.310474
3.3657
3.79763
-1.15821
-1.53208
-0.394097
0.601478
2.48505
1.41252
0.952414
0.414553
-0.816206
2.22875
4.83323
1.95075
-2.91883
0.261168
3.16385
1.33976
-1.0864
0.720384
2.50849
-1.94266
3.31664
-0.825257
5.73193
-4.42047
0.0287717
1.2705
3.47151
0.611665
1.58188
-1.50451
1.55413
-0.726262
-2.297
3.36108
0.197254
-0.226464
1.82875
2.30619
-23.9057
-3.96442
20.9308
2.65827
2.63403
-0.478347
2.12429
-0.0721738
0.971914
0.6891
1.79029
-0.0308367
0.362835
0.0558643
1.40271
1.6895
0.901827
-0.44424
2.60595
1.14244
1.9536
0.310954
2.54879
-0.446171
0.360722
0.760259
1.25249
1.34082
-21.4519
16.2893
-13.2849
21.9793
0.416875
0.311139
1.30817
1.09009
1.39897
-0.090889
-0.165296
1.82616
1.42014
0.294331
1.64864
0.747957
0.199229
0.595182
1.30908
0.766799
0.326558
2.01646
1.82525
0.160083
-0.183708
1.38142
2.12126
0.419159
-0.747526
2.3568
3.06542
-0.204605
0.426809
0.345092
0.880712
1.04358
1.06874
0.807728
2.88641
-0.759281
-1.68013
-2.32131
6.29703
6.73758
-0.643862
-0.134166
2.26014
2.7541
0.966134
-2.15425
4.75944
1.2115
-1.32474
0.196938
2.0184
3.38627
-0.104916
1.87375
0.214684
1.12229
-0.981949
3.17034
0.812306
1.53131
1.8234
-0.171933
0.786101
0.649313
-0.379838
2.89735
-1.1247
2.07587
1.75155
0.00602162
-1.12023
3.0013
-0.481313
3.44693
-0.985673
2.82536
-2.29202
0.849613
1.62142
4.7912
-5.26768
-24.9339
5.78811
26.5907
0.112853
-0.110392
5.10507
4.84498
3.89246
-1.7146
-0.299167
2.14572
5.33209
2.41449
0.660928
-2.69684
3.15387
3.62956
-0.930756
-1.4425
-1.01775
2.8865
2.32077
5.66061
2.97315
-3.43727
5.08209
-1.51668
0.25721
2.55858
-2.17291
5.42895
-0.850455
-0.473648
2.75437
0.749048
1.88387
0.702165
1.28846
0.204288
-1.58562
1.407
-0.640046
2.18704
-2.66975
1.71351
1.22208
6.13313
-0.624967
2.27752
0.758663
0.870067
3.39544
2.95147
-1.29025
-1.00066
-0.825946
3.11983
1.95291
0.421404
1.77839
-4.16867
-0.532978
5.42373
-1.47982
-0.520895
3.55969
2.90404
2.43225
-0.104891
2.06832
-0.437715
2.25641
-0.727842
2.86757
-0.501824
-0.594204
1.71773
0.701319
2.92944
1.78064
-0.751621
0.209788
2.72449
3.65826
-1.56679
0.505348
1.53873
5.36912
-1.55439
-1.49661
4.91403
-0.321478
-0.377914
2.3302
2.45666
1.64578
-0.737654
2.88402
0.346461
-1.14952
1.80464
3.57753
0.488451
-1.0248
-2.12493
3.31286
4.48354
-1.01752
0.994561
3.25406
1.14848
1.75563
-1.08082
1.21891
-1.33181
-0.603945
-2.33327
4.57538
5.71763
1.89662
0.928365
-3.05339
5.97506
1.16053
-0.26288
2.36614
-0.230684
3.44008
-1.41085
3.5879
-1.55082
-0.157763
1.13968
2.09965
0.747259
4.19063
-2.14073
1.40776
0.425277
3.54372
-1.44142
1.94551
0.524422
-5.46667
-4.61944
7.10909
6.02948
4.34345
-2.12933
1.52324
0.594194
0.363484
-1.84686
3.17601
1.29463
-3.52177
7.55453
-4.53731
6.42397
-0.605588
3.75271
-1.635
2.31468
2.35618
5.42939
-2.40684
0.448634
-1.74636
4.09701
1.31431
0.793671
-13.4798
7.99799
-9.36492
13.5754
2.4791
0.944156
0.955797
-0.447454
-0.251161
1.68398
2.26396
0.403087
0.448662
0.538937
1.27933
1.1749
0.901262
0.938226
1.7836
0.0380466
3.00938
-1.74599
2.11925
-1.13165
-0.0234134
2.14935
3.18467
-0.89435
-2.04179
4.13591
2.45692
0.0911243
-1.06403
3.16722
2.2886
-0.325859
1.02041
1.9121
-0.164336
0.723473
-0.602402
1.65317
3.31693
-2.15032
2.72265
-0.425139
4.85674
1.96333
2.65777
-0.657693
2.78849
-0.488665
0.178025
3.08173
1.65919
-0.58545
1.70329
1.05253
0.56001
3.51087
-0.925332
1.89939
0.518126
3.19524
2.48282
0.827501
-0.563019
1.49372
-0.11979
2.05205
-0.0230178
2.3436
0.472848
-0.718095
1.59707
2.78707
3.34171
-1.54745
0.598887
0.987326
2.1361
-0.0536702
0.573679
1.33301
-0.425071
-0.787036
2.90299
2.55661
1.96123
0.260545
0.123153
1.83803
4.24917
-2.791
3.65597
-3.25016
2.22781
3.09675
-0.00804452
-1.06984
6.43352
0.648881
3.05189
-1.42958
2.16368
-0.416889
-5.07537
6.50612
-2.23848
2.82176
-0.645511
4.66484
-0.763886
2.91182
2.7212
-1.01801
3.66574
1.31002
0.616251
-1.7798
1.28875
3.10736
-1.29811
0.375943
-6.10609
3.09461
-1.74984
7.60832
2.83917
-1.78239
4.91468
-0.277215
5.68978
1.20417
1.58859
-2.75509
-3.90416
1.88887
1.42027
7.12267
1.76977
-0.014831
5.11268
3.12529
0.211217
2.58985
1.37983
-0.994864
1.40803
-2.02754
3.70367
0.236307
-0.66661
1.09632
2.81891
1.02248
3.20059
-0.319067
2.59863
-0.976303
-1.35943
1.42366
3.62462
0.776707
0.384923
2.59055
-0.507694
1.83559
0.471958
1.93924
-0.0257946
1.838
-2.7258
11.5452
4.60225
-8.98611
0.560565
1.93079
1.39445
0.0206102
0.490359
0.270862
1.48262
1.6992
0.323124
1.68553
2.54273
-0.492083
-0.142696
2.07909
2.1715
-0.0155469
1.86467
1.82228
-0.125279
-0.126174
1.40377
-0.544262
2.25957
0.34438
-0.307241
2.13854
2.29376
-0.207806
-3.30114
2.88665
0.27819
6.54185
5.93684
-1.35063
5.53429
-2.26468
3.39555
-0.629006
0.871462
-2.85308
1.61029
0.0873951
-1.50781
3.46482
0.786895
0.266224
1.51929
0.85396
0.565423
1.41719
1.28812
0.393323
2.48092
1.27004
0.213985
-0.928276
-1.34544
6.01767
-2.7438
4.86597
-0.0879424
2.17583
3.21598
-1.23304
0.33203
-0.160245
5.53252
-4.65045
3.08515
1.26046
6.57555
-2.32843
-2.85661
2.73186
0.728977
6.45768
-1.19502
1.59287
3.31805
-2.84231
-13.901
24.5625
11.5421
-27.0501
-1.37102
4.48782
3.87561
7.87643
-0.970873
3.32066
3.45297
-1.20416
0.597349
4.62351
0.0922887
-3.5128
-1.27097
3.23562
1.29325
0.462679
2.98957
-3.46295
5.03273
-1.77597
3.81943
-0.864559
-2.07044
2.18076
2.74967
-0.520174
2.21699
-1.14423
3.02703
1.66032
-0.958972
0.395145
2.55964
-0.624389
-0.985324
3.08524
0.767159
-5.95597
6.01116
-0.943905
1.29259
-0.366272
0.715932
2.21827
-0.237177
1.68436
-0.253601
1.44786
-0.708383
0.890312
0.426397
1.90245
0.0273808
-0.317628
2.32893
2.52077
-0.0398678
1.94979
2.15446
0.0473172
1.67308
2.61251
-0.542162
0.270825
4.85369
-2.52557
1.09461
1.18025
-5.99563
-10.4673
10.4191
6.06281
0.0128486
-1.70309
4.13415
2.36078
0.350531
3.69197
2.56748
-1.31247
-5.08467
4.99565
-4.53572
5.83396
2.03924
1.22368
-0.425968
1.04604
2.15816
-0.0949819
0.479082
1.5998
-1.53305
3.21542
-2.14594
2.63577
1.16692
15.8149
3.01157
-10.8157
-20.768
5.62822
-4.49715
21.0429
-1.46152
-1.02344
2.69433
3.24915
5.11913
0.557286
2.2425
-1.6977
0.85268
-3.33025
6.53767
2.25002
8.35157
-1.11221
2.16928
-7.5319
3.60753
-4.52192
-3.34514
5.03711
-0.89913
1.80424
2.86479
0.0612654
0.808429
0.641633
0.19163
1.43991
0.0417713
2.55998
1.82805
-0.50531
4.09955
1.52066
0.327824
-2.41097
-0.291469
2.45258
-0.22955
2.53973
0.910679
-0.554762
1.23425
2.57431
2.39326
-1.42539
3.43048
-0.462855
3.4753
-1.56953
4.0622
-1.09637
0.339611
2.16435
1.47815
-0.311744
-28.0081
9.51977
-12.1566
26.2568
2.28264
-0.313627
2.24404
-0.214658
0.300553
3.5394
-1.78172
1.51573
2.7056
-0.524538
1.3959
0.772908
7.47525
3.95179
-3.51941
0.0587001
0.869191
-0.177918
2.13472
1.11961
1.94782
0.199436
0.051699
1.5653
1.97918
-0.960588
3.0144
0.0206592
2.87493
-0.946621
2.18429
-0.276164
-9.5992
12.2708
15.2038
-3.87531
-2.38944
4.01139
-0.924307
2.68585
5.25216
-1.90079
3.75762
-0.987493
5.43926
1.07517
-3.48184
1.51993
2.28773
-3.83678
-0.925175
5.42553
-6.51715
-25.3327
4.78507
22.1182
-2.0767
2.15666
4.15608
0.327146
-3.64692
-3.29192
4.34941
4.0384
-4.64892
-0.703396
3.55854
8.73305
1.6056
0.322264
1.40249
0.395568
-4.41199
4.38065
-4.2971
3.91555
-1.24233
2.59564
2.3824
-0.878836
0.669875
0.319372
1.42838
0.832663
0.4383
-1.97488
4.46983
2.01238
-1.1417
3.99511
3.26781
-1.58632
-2.90911
3.13927
-0.918615
4.95022
2.67843
3.56341
-0.498618
-1.40572
3.06989
3.66018
-0.865614
-1.27421
-0.145633
3.80521
-1.84504
1.95912
1.69895
0.0312234
0.812554
1.11123
0.0866215
-1.57751
3.94286
2.05256
-2.57976
1.33975
1.06732
4.53708
-1.29386
-0.869934
3.5948
3.89097
8.49809
0.394935
3.07173
-3.97216
2.37301
4.22365
-1.88785
0.270443
2.57589
1.89622
-0.0171278
-0.638444
0.512561
1.07988
3.03783
-1.29264
-0.608387
2.24513
2.84366
-0.173361
-0.575459
2.64386
2.79937
-0.302009
2.31346
27.0151
4.25451
-20.0996
3.24363
0.0151214
1.92507
-1.35182
3.20771
-2.87142
5.84584
-0.954908
0.601366
4.30631
1.53303
-1.84902
-0.73507
5.95489
-2.65825
3.7409
0.450965
1.28809
0.533247
1.45344
1.64108
0.149635
1.06924
0.66926
-1.71698
1.68425
-1.75441
2.01151
5.5177
-1.28338
4.82804
-1.25386
4.16352
-1.88156
-0.243746
2.57259
4.75859
1.41726
-4.09396
-1.1565
5.02241
-0.788411
-2.39733
3.19528
2.80058
6.49324
-1.6461
-4.22995
-1.89651
1.89274
3.83818
-0.0262793
7.03466
-5.12805
-1.73039
3.85709
0.189409
3.62582
-1.63374
1.61779
2.66056
-1.51188
-4.82208
5.96065
-2.58842
1.40938
6.20484
2.02406
13.095
-17.4824
-12.7199
18.5771
-0.767736
11.5363
5.78173
-1.61606
2.45943
-0.329426
2.03616
-0.648277
2.76722
1.39562
-0.749071
0.518097
1.6815
4.21657
-3.66789
-1.37313
4.38817
5.04476
-0.936891
-0.699137
-0.482897
3.57823
-2.15304
1.77324
2.6078
5.35702
0.581916
-2.35578
5.89433
-0.43197
1.9729
-3.86993
-4.69136
3.1852
6.3542
-1.60091
3.50899
1.78232
0.557397
-1.54916
0.350393
2.59694
1.8009
-0.462501
-0.318418
1.97044
0.171262
2.48345
6.07847
1.01213
2.77532
-2.28469
17.6983
-24.4183
22.0741
-20.2326
0.865647
-1.14099
3.51711
1.52538
1.7322
0.164006
2.30703
-0.129494
2.62315
1.40772
0.984107
-0.413282
-0.660358
3.01395
2.89559
-0.678615
1.92491
-1.56499
0.251032
3.70327
0.396931
1.15337
-1.30669
3.27687
-0.866594
0.515778
2.9956
1.61853
1.81908
0.544001
0.0697915
1.82759
1.84343
-0.000931893
1.97553
0.093543
2.4975
-0.00355631
-0.377294
2.13122
-1.16016
4.40807
3.42627
-1.93943
2.80622
2.15256
-1.22766
-2.2398
-25.2326
9.73426
-8.70399
25.7859
2.20469
-2.40094
4.49797
0.0592564
0.540568
1.23763
-1.60625
3.63587
0.331877
-1.26933
3.35877
1.8527
1.65427
0.528726
-1.72965
3.94634
-0.484699
1.06054
2.58883
0.522501
-1.02026
3.01508
1.45711
0.516295
3.63563
-1.50819
0.811009
1.55017
1.31164
-0.219081
3.44028
-2.43204
-1.27106
0.465079
1.93528
3.48282
-1.82348
2.8364
-0.577794
4.19344
2.70812
-0.722071
3.16271
-1.01355
2.89462
-0.0294719
-0.764412
2.0388
0.515288
2.147
-2.91741
5.6827
8.34097
1.71888
-5.84606
1.38716
5.88388
-3.2032
4.86339
-4.01265
-2.33446
-1.21031
4.94036
3.91402
-1.54937
3.63073
2.74268
-0.616464
4.5031
15.5256
-10.6995
-0.239232
5.58136
7.90238
-2.99469
-3.94391
-5.27627
4.67707
6.27612
-4.3113
0.0469195
0.1441
1.91113
1.82387
-0.414781
2.27652
1.4287
0.455631
0.243514
1.88374
4.12993
-1.85669
-2.52499
1.10146
5.18746
1.67602
-2.89319
-0.380618
3.08622
5.62679
-2.505
2.6323
4.30373
-1.05045
2.18847
3.83749
-0.109411
-1.77028
4.74314
1.1738
1.21226
-2.35366
2.01575
-4.02704
3.50269
9.66698
-1.0412
0.720783
3.0434
1.24624
2.06011
2.31923
-0.334337
0.103391
-0.828384
2.79746
1.23258
0.552481
3.88925
-2.33453
-2.92579
3.03192
-1.41063
-0.187809
1.9095
3.31645
1.91642
-0.192149
-0.280897
1.90674
0.417524
2.21292
-0.314658
1.61734
5.16102
1.25837
2.13736
-2.00784
1.99774
0.819207
-0.0720543
1.03767
-0.477487
1.68306
2.46226
0.172846
-19.1853
-17.6513
14.4233
17.6194
0.723947
-0.339286
2.04496
0.931
-1.73508
0.498276
1.69197
4.17942
-1.3388
2.97338
-0.755682
3.44096
-1.58946
3.0463
4.39871
-0.570946
4.5231
-2.65127
-2.77417
4.56086
5.9105
-0.471573
-2.21433
3.44353
6.03316
0.839944
2.30994
-2.19456
3.07583
-1.20115
3.64966
-0.708495
0.491215
1.33351
2.70749
-0.745879
1.43185
-0.430228
0.52268
2.43716
1.68326
2.40181
-0.299559
-0.455582
1.62814
0.293318
0.0668268
1.43106
1.88269
-4.60955
-0.499625
6.849
0.275534
0.685513
1.02387
1.37771
1.06378
0.766088
0.111566
0.405859
4.66891
-1.78674
-2.58308
5.51052
0.222412
0.73468
1.05856
0.477411
6.46982
0.160759
2.71644
-3.53681
-27.2666
2.09084
24.2456
-4.68134
-0.0860457
2.37952
2.02105
-0.410354
4.43045
3.45459
-1.61662
0.00523753
2.50223
-0.518981
0.113204
1.85818
2.96878
0.471173
1.31146
-1.04051
0.884563
3.28435
0.669061
-1.5736
4.97659
0.0569222
-2.49429
2.41512
7.94231
2.0054
0.405269
-4.39087
4.1207
-1.60036
3.88744
-1.56125
2.72488
-4.0635
-0.646709
5.88959
2.52969
1.33849
-0.492838
0.830184
2.52461
0.152355
-1.05932
1.33544
1.09197
-1.81718
3.20524
0.482901
-2.68706
3.44879
3.45083
-2.07853
4.33631
-0.991889
3.39902
-1.78836
-1.73604
4.00583
1.94366
0.177267
4.14071
-2.05007
1.34156
0.73527
0.881912
2.03108
-0.455806
0.794074
5.36492
3.6538
-0.581731
-1.73349
-2.07315
0.418326
1.77585
4.38601
3.80192
-1.40749
-0.893491
3.09961
0.106437
-4.14876
7.17348
2.21412
0.624678
1.33385
2.66504
-0.696714
-4.03355
4.85691
4.43354
-4.34934
0.570623
0.765001
1.17017
0.630981
0.0425512
1.2511
1.75736
0.541356
-0.0541956
2.33049
-2.28708
4.5157
0.743472
1.10277
-0.771731
2.65303
-7.12231
5.60191
9.47564
-1.85324
6.39973
-5.52742
9.23009
-2.2524
3.01147
5.07912
-0.424323
-2.57573
6.14819
-0.0952718
1.22557
-4.35695
9.10563
-5.24223
2.29332
1.0122
2.64897
2.43002
-1.34025
-0.738211
-2.81566
6.6021
4.29868
-5.3751
5.08823
-3.20796
-1.54565
7.36646
-1.18477
-1.46787
3.53335
3.85462
4.55158
-2.03175
-1.37251
3.91114
3.25252
-1.93637
-1.31907
3.78647
0.628584
0.771706
1.2345
0.0787008
1.24605
1.02736
0.466685
0.314208
-0.0659337
2.18982
-1.42097
3.74296
-0.897167
3.13424
-0.660483
2.87619
-3.9694
-3.74187
4.71792
4.74816
2.32078
-0.0431359
-0.518407
1.6891
2.48685
0.565507
1.5785
-0.460379
2.30617
-0.391495
1.69937
0.212317
2.00327
-0.228758
2.2332
-0.469479
3.49764
-1.23523
3.05947
-1.5922
5.6812
-1.32333
4.6998
-2.92167
-6.59577
8.35072
-6.20499
6.81218
0.375371
1.86374
-2.68835
5.13684
)
;

boundaryField
{
    insideCircle
    {
        type            myTemperature;
        value           nonuniform List<scalar> 
24
(
5.01381
2.13904
1.26412
7.57272
-2.68272
-1.03644
6.88227
5.57768
0.351013
-0.516885
5.229
4.83103
-1.07545
2.41817
2.94599
6.03965
3.34852
0.0826281
5.53996
1.95733
1.74982
-0.0994856
5.22742
3.26062
)
;
    }
    outsideCircle
    {
        type            myTemperature;
        value           nonuniform List<scalar> 
124
(
2.45481
0.31271
1.62208
-0.296225
0.630012
1.60841
1.98162
1.77266
1.24761
0.305755
0.435536
2.43212
-0.0871879
1.88754
1.16868
1.20034
2.22571
1.01726
1.25723
-0.703089
-0.443004
0.692187
2.49798
1.51359
1.12236
-0.538441
2.51345
-0.753493
-0.140419
-0.274362
2.45117
1.77027
2.45671
0.799706
-0.441379
1.36639
0.854551
0.0712762
2.183
1.15423
-0.468212
1.04952
2.49731
1.07501
0.235606
-0.376682
1.88905
2.6153
0.888355
-0.706382
2.75623
1.20781
1.92815
0.0982282
2.24691
-0.200274
0.482968
1.99192
2.01785
-0.23582
-1.97066
-1.63908
4.20541
0.319599
2.6391
0.589171
-0.242749
1.39024
-0.425671
2.16769
-0.0120054
2.5606
2.27312
-0.246836
0.634917
1.56508
1.86809
-0.0472951
0.0699889
1.90858
-0.744927
0.819335
2.84568
1.35488
-0.0284628
2.56203
-0.402109
2.1576
-0.0894309
-0.160305
1.87383
2.32994
1.93217
2.58647
-0.32651
0.417047
2.46963
0.669145
0.0780435
1.04498
2.04982
-0.0745742
0.561464
1.43975
2.42261
-0.494773
1.35102
0.711376
0.174513
2.51822
1.90809
-0.342354
-0.276067
2.07187
-0.0193614
2.47331
2.25428
0.141833
2.3901
-0.41228
2.65655
1.08596
0.64348
-0.659882
)
;
    }
    topAndBottom
    {
        type            empty;
    }
}


// ************************************************************************* //
