/*--------------------------------*- C++ -*----------------------------------*\
| =========                 |                                                 |
| \\      /  F ield         | foam-extend: Open Source CFD                    |
|  \\    /   O peration     | Version:  3.0                                   |
|   \\  /    A nd           | Web:         http://www.extend-project.de       |
|    \\/     M anipulation  |                                                 |
\*---------------------------------------------------------------------------*/
FoamFile
{
    version     2.0;
    format      ascii;
    class       volScalarField;
    location    "32";
    object      p;
}
// * * * * * * * * * * * * * * * * * * * * * * * * * * * * * * * * * * * * * //

dimensions      [0 0 0 0 0 0 0];

internalField   nonuniform List<scalar> 
2688
(
-0.2354301906
-0.2160677958
-0.2044403531
-0.1913265982
-0.1839227768
-0.1747695353
-0.1700580089
-0.1635767516
-0.1606576669
-0.1560460877
-0.1543362593
-0.1510490064
-0.150133119
-0.1477655675
-0.1473171249
-0.1455398155
-0.1452742694
-0.1437917917
-0.1434352616
-0.1419571445
-0.1412223919
-0.1394393234
-0.1380044028
-0.135566123
-0.2346907894
-0.2153891885
-0.2037981536
-0.1907255613
-0.1833449721
-0.1742204491
-0.1695237155
-0.1630627852
-0.1601528502
-0.1555557245
-0.1538512463
-0.1505742863
-0.1496612558
-0.147301108
-0.146854057
-0.1450823025
-0.1448175795
-0.1433397355
-0.1429843145
-0.1415108145
-0.1407783621
-0.1390008844
-0.1375704693
-0.1351398468
-0.2332103462
-0.2140305169
-0.2025126658
-0.1895225704
-0.1821885648
-0.1731216337
-0.1684545424
-0.1620343966
-0.1591428317
-0.1545747323
-0.1528810244
-0.1496247609
-0.148717511
-0.1463722752
-0.1459280684
-0.1441675141
-0.1439044851
-0.1424359808
-0.1420828175
-0.140618621
-0.1398908036
-0.1381245537
-0.1367031646
-0.1342878733
-0.2309986542
-0.2120006953
-0.2005920368
-0.1877251117
-0.1804606406
-0.1714796707
-0.1668568282
-0.160497542
-0.1576333774
-0.1531085699
-0.1514309006
-0.1482054857
-0.1473068168
-0.1449837879
-0.1445437723
-0.1427998817
-0.1425393304
-0.1410847261
-0.1407349026
-0.1392845724
-0.1385636538
-0.1368141401
-0.1354062268
-0.1330138431
-0.22805767
-0.2093016139
-0.1980382476
-0.1853351694
-0.1781632151
-0.1692966176
-0.1647326544
-0.1584543622
-0.1556266854
-0.1511595155
-0.1495032313
-0.1463189094
-0.1454317092
-0.1431382821
-0.1427038951
-0.1409822298
-0.14072502
-0.1392889527
-0.138943605
-0.1375117505
-0.1368000314
-0.1350727947
-0.133682816
-0.1313208901
-0.2244016007
-0.205946199
-0.1948633684
-0.1823639088
-0.1753069081
-0.1665824269
-0.1620916089
-0.1559139384
-0.1531315657
-0.1487359812
-0.1471062235
-0.1439729212
-0.143099923
-0.1408432342
-0.1404157944
-0.1387217033
-0.1384686054
-0.137055538
-0.1367157227
-0.1353068069
-0.1346065031
-0.1329069452
-0.1315392533
-0.1292151935
-0.2200370268
-0.2019406098
-0.1910733757
-0.1788170584
-0.1718973467
-0.1633425864
-0.1589391444
-0.1528816602
-0.150153434
-0.1458433736
-0.1442453445
-0.141173012
-0.1403170209
-0.138104247
-0.1376851439
-0.1360240195
-0.1357758624
-0.1343902888
-0.134057098
-0.1326755893
-0.1319889227
-0.1303224201
-0.1289813377
-0.1267024786
-0.2149825757
-0.1973018156
-0.1866841824
-0.1747093741
-0.1679485885
-0.1595903121
-0.1552879954
-0.1493696318
-0.146704048
-0.1424929703
-0.1409316275
-0.1379298483
-0.1370935057
-0.1349315417
-0.1345220563
-0.1328990703
-0.1326566063
-0.1313028409
-0.1309772987
-0.1296275072
-0.1289566169
-0.1273283849
-0.1260181108
-0.1237915995
-0.2092492809
-0.1920400739
-0.1817056353
-0.1700502101
-0.1634697591
-0.1553344178
-0.1511468716
-0.145386373
-0.1427919073
-0.1386931603
-0.137173483
-0.1342517787
-0.133437762
-0.1313334714
-0.1309349244
-0.1293552346
-0.1291192523
-0.127801598
-0.1274847502
-0.1261709584
-0.1255179759
-0.1239331679
-0.1226578469
-0.1204907128
-0.2028600249
-0.1861762524
-0.1761573386
-0.1648577733
-0.1584782238
-0.1505912639
-0.1465315553
-0.140946928
-0.1384316578
-0.1344580455
-0.1329847526
-0.1301522443
-0.1293630714
-0.1273230172
-0.1269366315
-0.1254051588
-0.1251763753
-0.1238989348
-0.1235917544
-0.1223180579
-0.1216850131
-0.1201485844
-0.1189122044
-0.1168112413
-0.1958300931
-0.1797245121
-0.1700528308
-0.1591448729
-0.152986435
-0.1453728202
-0.1414538299
-0.1360627593
-0.1336346806
-0.1297987921
-0.1283765765
-0.1256422435
-0.1248804367
-0.1229110935
-0.1225381151
-0.1210597287
-0.1208388913
-0.1196057306
-0.119309211
-0.1180796585
-0.1174685699
-0.1159853889
-0.1147918672
-0.1127637111
-0.1881863995
-0.1727094224
-0.1634152216
-0.1529329993
-0.1470149131
-0.1396984533
-0.1359324062
-0.1307517442
-0.1284184167
-0.124732237
-0.1233655167
-0.1207378956
-0.1200058111
-0.1181133184
-0.1177548884
-0.1163341882
-0.1161219631
-0.1149369154
-0.1146519618
-0.1134703804
-0.1128831428
-0.1114578418
-0.1103109059
-0.1083619124
-0.1799482153
-0.1651488005
-0.1562615049
-0.1462381903
-0.1405792112
-0.1335830694
-0.1299819176
-0.1250280714
-0.1227969126
-0.1192721217
-0.1179652511
-0.1154526758
-0.1147526574
-0.1129430278
-0.1126003076
-0.1112418176
-0.1110389033
-0.1099057469
-0.1096332859
-0.1085034368
-0.107941927
-0.1065790261
-0.105482313
-0.10361864
-0.1711462296
-0.1570706805
-0.1486180725
-0.1390850137
-0.1337028132
-0.1270488611
-0.1236238334
-0.1189122834
-0.1167902372
-0.1134378429
-0.1121948779
-0.1098051857
-0.109139393
-0.1074182603
-0.1070922926
-0.1058002323
-0.1056072358
-0.1045294865
-0.1042703457
-0.103195741
-0.1026616969
-0.1013654491
-0.1003223811
-0.09854986661
-0.1618033781
-0.148496241
-0.1405050943
-0.1314924733
-0.1264041176
-0.1201134299
-0.1168754018
-0.1124210776
-0.1104148951
-0.1072455284
-0.1060704356
-0.1038112153
-0.1031817869
-0.1015546282
-0.1012464752
-0.1000249658
-0.09984252623
-0.09882362498
-0.09857864956
-0.09756271321
-0.09705784362
-0.09583236211
-0.09484624888
-0.09317049526
-0.1519538049
-0.1394566922
-0.1319519732
-0.1234879608
-0.1187093289
-0.1128015596
-0.1097606199
-0.10557743
-0.1036933476
-0.1007168954
-0.09961331418
-0.09749160221
-0.09690047304
-0.095372345
-0.09508293906
-0.09393576777
-0.09376442772
-0.09280753109
-0.092577463
-0.09162334935
-0.09114921482
-0.08999832088
-0.08907223758
-0.08749849162
-0.1416237591
-0.1299762485
-0.1229817454
-0.1150931584
-0.1106394148
-0.1051332907
-0.1022991051
-0.09840031889
-0.09664433995
-0.09387025424
-0.09284171558
-0.09086426119
-0.0903133374
-0.08888911176
-0.0886194005
-0.08755023242
-0.0873905616
-0.08649872846
-0.08628431919
-0.08539507108
-0.08495319052
-0.08388053882
-0.08301742599
-0.08155066462
-0.1308504817
-0.1200889631
-0.113626508
-0.1063379811
-0.1022230098
-0.09713571564
-0.09451710289
-0.09091487823
-0.08929245097
-0.08672937118
-0.08577905087
-0.08395200108
-0.08344296872
-0.08212706264
-0.08187785778
-0.08089000192
-0.08074247346
-0.07991846286
-0.07972036139
-0.07889873687
-0.07849047508
-0.07749940762
-0.07670195512
-0.07534676784
-0.1196631334
-0.1098217242
-0.1039118248
-0.09724647639
-0.09348335303
-0.08883103572
-0.08643633346
-0.08314211493
-0.08165842134
-0.07931450255
-0.07844545167
-0.07677463089
-0.07630913924
-0.07510575684
-0.07487787869
-0.07397449685
-0.07383960226
-0.07308605182
-0.07290490458
-0.0721535268
-0.07178019189
-0.0708738586
-0.07014460014
-0.06890527591
-0.1081016429
-0.09921105154
-0.09387212888
-0.08785074449
-0.08445118059
-0.08024833677
-0.07808498033
-0.07510902086
-0.07376865077
-0.07165117602
-0.07086606669
-0.06935665539
-0.06893612046
-0.06784898421
-0.06764311339
-0.06682699515
-0.06670513248
-0.06602436942
-0.06586072514
-0.06518192108
-0.06484466606
-0.06402588737
-0.06336709384
-0.06224750691
-0.09619766488
-0.08828612123
-0.08353514718
-0.07817685913
-0.07515167951
-0.07141167532
-0.06948657086
-0.06683834732
-0.06564559697
-0.06376132156
-0.06306268696
-0.06171951133
-0.06134530539
-0.06037789927
-0.06019471977
-0.05946848436
-0.05936006221
-0.05875427032
-0.05860866308
-0.05800460406
-0.05770450966
-0.05697589197
-0.05638965862
-0.05539335628
-0.08399336991
-0.07708550928
-0.07293725845
-0.06825873886
-0.06561733321
-0.06235179307
-0.06067089789
-0.05835862851
-0.05731717127
-0.05567193029
-0.05506190487
-0.05388911356
-0.05356236388
-0.05271766809
-0.05255771881
-0.05192360014
-0.0518289334
-0.05129997748
-0.05117284576
-0.0506453973
-0.05038338847
-0.04974719405
-0.04923534304
-0.04836543538
-0.07152244691
-0.06564026241
-0.06210796076
-0.05812411767
-0.05587492562
-0.05309426812
-0.05166297091
-0.0496940459
-0.04880723839
-0.0474063025
-0.04688686983
-0.04588823057
-0.04561001616
-0.04489075186
-0.04475457452
-0.04421461823
-0.04413403203
-0.04368361667
-0.04357538065
-0.04312623644
-0.04290315649
-0.04236141672
-0.04192558046
-0.04118482871
-0.05882883564
-0.05399057731
-0.05108516492
-0.04780834556
-0.0459583152
-0.04367114525
-0.04249384955
-0.04087434896
-0.04014490166
-0.03899258455
-0.03856531462
-0.03774389163
-0.03751503622
-0.03692340275
-0.03681138583
-0.03636723995
-0.0363009581
-0.03593045997
-0.0358414375
-0.0354719768
-0.0352885073
-0.03484289726
-0.03448442482
-0.03387513577
-0.04594778525
-0.04216893241
-0.03989972458
-0.0373404267
-0.03589550771
-0.03410916613
-0.03318967607
-0.03192481057
-0.03135509827
-0.03045511973
-0.03012142129
-0.0294798768
-0.02930115253
-0.02883907499
-0.0287516121
-0.02840472495
-0.02835298779
-0.02806361299
-0.02799410899
-0.02770552759
-0.02756226707
-0.02721421755
-0.02693425889
-0.02645837311
-0.0329245016
-0.03021668851
-0.02859065172
-0.02675674052
-0.02572135082
-0.02444131406
-0.02378242329
-0.022876058
-0.02246779416
-0.02182289223
-0.02158375138
-0.02112402657
-0.02099594392
-0.02066481253
-0.0206021371
-0.02035354866
-0.0203164855
-0.02010910346
-0.02005930953
-0.01985248205
-0.01974985849
-0.01950043644
-0.01929985027
-0.01895884199
-0.01979529328
-0.01816729593
-0.01718971971
-0.01608715293
-0.01546467853
-0.01469511809
-0.01429899888
-0.01375409996
-0.01350864773
-0.01312094454
-0.01297717691
-0.0127007949
-0.01262380821
-0.01242472794
-0.01238707899
-0.01223762273
-0.0122153846
-0.01209068895
-0.01206079023
-0.01193640033
-0.01187476009
-0.01172477763
-0.01160421682
-0.01139918192
-0.006606128974
-0.006062813396
-0.005736600676
-0.005368660346
-0.005160932066
-0.004904125939
-0.004771926249
-0.004590094567
-0.004508148563
-0.004378771906
-0.004330767717
-0.00423852232
-0.00421282358
-0.004146358166
-0.004133813067
-0.004083907727
-0.004076530205
-0.004034871499
-0.00402493297
-0.003983338767
-0.003962851555
-0.003912753515
-0.003872575585
-0.003804136441
0.006606143768
0.006062812093
0.005736462159
0.005368431342
0.005160632359
0.004903733059
0.004771499361
0.004589578641
0.00450768368
0.004378235597
0.004330264238
0.004238008172
0.004212289176
0.004145869037
0.004133230906
0.004083377375
0.00407583736
0.004034286381
0.00402420447
0.003982838998
0.003962084308
0.003912113616
0.003871760517
0.00380336569
0.01979531252
0.01816729857
0.017189585
0.0160869274
0.01546438184
0.01469472777
0.01429857388
0.01375358529
0.01350818302
0.01312040756
0.01297667158
0.0127002778
0.01262326971
0.01242423368
0.0123864908
0.01223708585
0.01221468477
0.0120900968
0.01206005466
0.01193589335
0.01187398665
0.01172413143
0.01160339632
0.01139840574
0.03292451315
0.030216684
0.02859051092
0.0267565097
0.02572104972
0.02444092046
0.0237819961
0.02287554287
0.02246733013
0.02182235828
0.02158325094
0.02112351691
0.02099541555
0.02066433051
0.02060156425
0.02035302833
0.02031580505
0.02010853051
0.0200585948
0.01985199454
0.01974910585
0.01949981048
0.01929905067
0.01895808596
0.04594780999
0.04216893961
0.03989959514
0.03734020633
0.03589521582
0.03410878052
0.033189255
0.03192429987
0.03135463569
0.03045458499
0.03012091696
0.02947936035
0.02930061463
0.02883858072
0.02875102529
0.02840418939
0.02835229193
0.02806302441
0.02799337959
0.02770502461
0.02756150245
0.02721357896
0.02693344921
0.02645760677
0.05882884538
0.05399057052
0.05108502354
0.04780811469
0.04595801442
0.04367075271
0.04249342347
0.04087383627
0.04014443884
0.03899205368
0.03856481697
0.03774338616
0.03751451321
0.03692292682
0.03681082157
0.03636672885
0.03630029013
0.03592989889
0.03584073698
0.03547150033
0.03528777112
0.03484228618
0.03448364399
0.03387439709
0.07152247804
0.0656402746
0.06210783799
0.05812390419
0.05587464051
0.05309388969
0.05166255631
0.04969354251
0.0488067807
0.04740577386
0.04688637048
0.04588771961
0.04560948494
0.04489026412
0.04475399807
0.0442140933
0.04413335276
0.04368304364
0.04357467222
0.04312574985
0.04290241703
0.04236080065
0.04192479886
0.04118408846
0.08399337954
0.07708550136
0.07293711853
0.06825851004
0.06561703493
0.06235140371
0.06067047469
0.05835812009
0.0573167102
0.05567140319
0.05506140964
0.05388861168
0.05356184514
0.05271719669
0.05255716195
0.05192309708
0.05182827806
0.05129942801
0.05117216074
0.05064493105
0.0503826715
0.04974659919
0.04923458456
0.04836471699
0.09619770302
0.08828613856
0.08353503232
0.07817665419
0.07515140332
0.07141130678
0.0694861657
0.06683785505
0.06564514752
0.06376080343
0.06306219706
0.06171901104
0.06134478693
0.06037742432
0.06019416178
0.05946797812
0.05935941017
0.05875372246
0.05860798732
0.05800414289
0.05770380768
0.05697530934
0.05638891817
0.05539265452
0.1081016543
0.09921104378
0.09387199286
0.08785052032
0.0844508878
0.08024795363
0.07808456298
0.07510851965
0.07376819335
0.07165065466
0.07086557515
0.06935615821
0.06893560722
0.06784851829
0.06764256645
0.06682650281
0.0667044957
0.06602383716
0.06586006481
0.06518147211
0.06484398014
0.06402531928
0.06336637102
0.06224682169
0.1196631787
0.1098217463
0.1039117187
0.0972462814
0.09348308795
0.08883067993
0.08643594117
0.08314163801
0.08165798407
0.07931399978
0.0784449761
0.07677414659
0.07630863945
0.07510530045
0.07487734623
0.07397401604
0.07383898612
0.07308553667
0.07290427053
0.07215309746
0.07177953662
0.07087331723
0.07014391055
0.06890462212
0.1308504967
0.1200889567
0.1136263784
0.1063377646
0.1022227265
0.09713534312
0.09451669631
0.09091438923
0.08929200165
0.08672886008
0.08577856728
0.08395151271
0.08344246588
0.08212660679
0.08187732772
0.0808895273
0.08074186636
0.07991795851
0.07971974058
0.07889831812
0.07848983788
0.07749888325
0.07670128797
0.07534613569
0.1416238111
0.1299762744
0.1229816484
0.1150929743
0.1106391629
0.1051329506
0.1022987296
0.09839986205
0.09664391965
0.0938697724
0.09284126003
0.09086379888
0.09031286279
0.08888868025
0.08861890107
0.08754978437
0.0873899907
0.08649825463
0.08628373729
0.08539468189
0.08495259335
0.08388004894
0.08301679948
0.08155007092
0.1519538244
0.1394566875
0.1319518522
0.1234877552
0.11870906
0.1128012035
0.1097602313
0.1055769611
0.1036929144
0.1007164026
0.09961284677
0.09749113047
0.0968999892
0.09537190712
0.09508243557
0.09393531996
0.09376386202
0.09280706538
0.09257689446
0.0916229715
0.0911486397
0.08999785269
0.08907164044
0.08749792685
0.1618034359
0.1484962691
0.1405050063
0.1314923006
0.1264038808
0.1201131084
0.1168750474
0.1124206462
0.1104144976
0.107245074
0.1060700071
0.1038107822
0.1031813455
0.1015542294
0.1012460179
0.1000245596
0.09984201188
0.09882320344
0.09857813301
0.09756237586
0.09705731963
0.0958319381
0.09484570206
0.09316997833
0.1711462533
0.1570706767
0.148617961
0.1390848209
0.133702563
0.1270485278
0.1236234717
0.118911845
0.116789832
0.1134373809
0.1121944397
0.109804743
0.1091389411
0.1074178521
0.1070918282
0.1057998225
0.1056067236
0.1045290698
0.1042698403
0.1031954123
0.1026611937
0.1013650456
0.1003218638
0.09854937908
0.1799482782
0.1651488295
0.1562614258
0.1462380291
0.1405789914
0.1335827693
0.1299815891
0.1250276711
0.1227965449
0.1192717024
0.1179648583
0.1154522805
0.1147522587
0.1129426709
0.1125999031
0.1112414637
0.1110384578
0.1099053892
0.1096328478
0.1085031628
0.1079414906
0.1065786821
0.1054818622
0.1036182166
0.1881864257
0.1727094171
0.1634151188
0.1529328195
0.1470146836
0.1396981474
0.1359320793
0.1307513471
0.1284180531
0.1247318213
0.1233651253
0.1207374997
0.1200054098
0.1181129572
0.1177544807
0.1163338323
0.1161215207
0.1149365614
0.114651533
0.1134701112
0.1128827236
0.111457514
0.1103104809
0.108361515
0.1958301614
0.1797245417
0.1700527612
0.1591447242
0.1529862344
0.1453725446
0.1414535324
0.1360623963
0.1336343503
0.1297984159
0.1283762289
0.1256418954
0.1248800916
0.1229107886
0.1225377749
0.1210594373
0.1208385259
0.119605446
0.1193088609
0.1180794545
0.1174682296
0.1159851321
0.1147915215
0.1127633905
0.2028600515
0.1861762429
0.1761572423
0.1648576045
0.1584780141
0.1505909862
0.1465312663
0.1409465788
0.138431346
0.1344576897
0.1329844257
0.1301519148
0.1293627433
0.1273227254
0.1269363044
0.1254048784
0.125176024
0.1238986606
0.1235914179
0.1223178591
0.1216846893
0.1201483408
0.1189118809
0.1168109431
0.2092493571
0.192040106
0.1817055782
0.1700500765
0.1634695816
0.1553341712
0.1511466109
0.1453860537
0.1427916221
0.1386928351
0.13717319
0.1342514866
0.1334374808
0.1313332276
0.1309346586
0.1293550136
0.1291189745
0.1278013897
0.1274844902
0.1261708225
0.125517731
0.1239329952
0.1226576039
0.1204904925
0.2149826019
0.1973018006
0.1866840921
0.1747092147
0.1679483965
0.1595900604
0.1552877416
0.1493693292
0.1467037879
0.1424926778
0.1409313726
0.1379295966
0.1370932674
0.1349313386
0.1345218324
0.1328988873
0.1326563681
0.1313026641
0.1309770709
0.1296273908
0.1289564015
0.1273282345
0.1260178972
0.1237914077
0.2200371148
0.2019406485
0.1910733362
0.1788169451
0.171897199
0.1633423757
0.1589389288
0.152881393
0.1501532025
0.1458431076
0.1442451148
0.1411727837
0.1403168126
0.1381040713
0.1376849592
0.1360238715
0.1357756729
0.1343901522
0.1340569233
0.132675514
0.1319887685
0.1303223231
0.1289811898
0.1267023507
0.2244016269
0.2059461798
0.1948632867
0.1823637603
0.1753067351
0.1665822013
0.1620913873
0.1559136772
0.1531313477
0.1487357406
0.1471060284
0.143972736
0.1430997664
0.1408431139
0.1404156721
0.1387216172
0.138468483
0.1370554619
0.1367156127
0.1353067843
0.1346064137
0.1329069033
0.1315391668
0.1292151249
0.2280577711
0.2093016639
0.1980382303
0.1853350813
0.1781631043
0.1692964506
0.1647324931
0.158454156
0.1556265153
0.1511593147
0.1495030701
0.1463187476
0.1454315756
0.1431381727
0.1427037882
0.140982147
0.1407249102
0.1392888772
0.1389435094
0.1375117304
0.1367999673
0.1350727685
0.1336827586
0.1313208496
0.2309986801
0.212000673
0.2005919684
0.1877249811
0.1804604946
0.1714794786
0.1668566438
0.1604973237
0.1576331952
0.1531083681
0.1514307429
0.1482053369
0.1473067046
0.1449837069
0.1445437046
0.1427998435
0.1425392773
0.1410847084
0.140734877
0.1392846169
0.1385636724
0.1368141908
0.1354062552
0.1330138871
0.2332104596
0.2140305822
0.2025126726
0.189522516
0.1821885002
0.1731215196
0.1684544463
0.1620342619
0.1591427305
0.154574602
0.1528809339
0.1496246651
0.1487174489
0.1463722255
0.1459280312
0.1441674873
0.1439044473
0.1424359611
0.142082798
0.1406186547
0.139890825
0.1381245935
0.1367031875
0.1342879111
0.2346907964
0.2153891404
0.2037980952
0.1907254563
0.1833448633
0.1742203061
0.169523585
0.1630626267
0.1601527169
0.1555555716
0.1538511304
0.1505741718
0.1496611773
0.1473010472
0.1468540172
0.1450822797
0.1448175579
0.1433397332
0.1429843185
0.1415108644
0.1407784122
0.1390009599
0.1375705307
0.1351399217
0.2354303855
0.2160679357
0.2044403946
0.1913265895
0.1839227648
0.1747694805
0.1700579826
0.1635766889
0.1606576295
0.1560460202
0.1543362276
0.151048962
0.1501331106
0.1477655595
0.1473171416
0.145539835
0.1452742999
0.1437918278
0.1434353107
0.1419572158
0.1412224727
0.1394394201
0.1380044933
0.135566223
0.2354315475
0.2160689709
0.2044413485
0.1913274534
0.1839235686
0.1747702165
0.1700586726
0.163577326
0.1606582282
0.1560465763
0.154336753
0.1510494511
0.1501335755
0.1477659927
0.1473175564
0.1455402229
0.1452746742
0.1437921779
0.1434356492
0.1419575304
0.1412227811
0.1394397105
0.1380047761
0.1355664926
0.2346896296
0.2153881028
0.2037971539
0.1907246148
0.1833440889
0.174219609
0.1695229367
0.1630620399
0.1601521616
0.1555550654
0.1538506501
0.1505737272
0.1496607579
0.1473006525
0.1468536502
0.1450819317
0.1448172408
0.1433394259
0.1429840383
0.1415105801
0.1407781635
0.1390007131
0.1375703106
0.1351397094
0.2332116165
0.2140316148
0.2025136388
0.1895234018
0.1821893331
0.1731222941
0.1684551774
0.1620349488
0.1591433722
0.1545752074
0.1528815037
0.1496251979
0.1487179585
0.1463726964
0.1459284929
0.1441679141
0.1439048777
0.1424363528
0.1420831932
0.1406189979
0.1398911911
0.1381249255
0.1367035306
0.1342882355
0.2309975086
0.2119996332
0.2005910397
0.1877241619
0.1804597495
0.1714788201
0.1668560371
0.160496787
0.1576326833
0.1531079115
0.1514303077
0.1482049368
0.1473063309
0.144983351
0.1445433856
0.1427995358
0.1425390176
0.1410844447
0.1407346557
0.1392843643
0.1385634849
0.1368139894
0.1354060996
0.1330137337
0.2280589227
0.2093026936
0.1980392085
0.1853359887
0.1781639657
0.1692972626
0.1647332646
0.1584548915
0.1556271989
0.1511599682
0.1495036831
0.146319323
0.1454321287
0.1431386799
0.142704295
0.1409826109
0.1407253943
0.1392893082
0.1389439586
0.1375120998
0.1368003878
0.1350731388
0.1336831583
0.1313212253
0.2244004511
0.2059451379
0.1948623707
0.1823629632
0.175306019
0.1665815809
0.1620908215
0.1559131897
0.1531308787
0.1487353331
0.1471056376
0.1439723798
0.1430994379
0.1408427964
0.1404154009
0.1387213498
0.1384682807
0.137055242
0.1367154507
0.1353065645
0.1346062879
0.1329067487
0.1315390768
0.1292150318
0.220038261
0.2019416753
0.1910743257
0.178817873
0.1718980877
0.1633432241
0.1589397392
0.1528821754
0.1501539265
0.1458438074
0.1442457694
0.1411733997
0.1403174071
0.1381046129
0.137685509
0.1360243705
0.135776208
0.1343906202
0.1340574233
0.1326759073
0.1319892399
0.1303227288
0.1289816422
0.1267027741
0.2149814221
0.197300757
0.1866831883
0.1747084389
0.1679477085
0.159589477
0.1552872155
0.1493688895
0.1467033604
0.1424923178
0.1409310251
0.1379292831
0.137092983
0.1349310587
0.1345216078
0.1328986594
0.1326562218
0.1313024874
0.1309769668
0.1296272037
0.1289563363
0.1273281263
0.1260178717
0.123791374
0.209250498
0.1920411297
0.1817065783
0.1700510239
0.1634704963
0.1553350539
0.1511474583
0.1453868808
0.1427923845
0.1386935789
0.137173884
0.1342521412
0.1334381148
0.1313338019
0.1309352492
0.1293555459
0.1291195581
0.127801893
0.1274850387
0.1261712388
0.1255182512
0.1239334353
0.1226581076
0.1204909623
0.2028588681
0.1861751979
0.1761563505
0.1648568493
0.1584773532
0.1505904381
0.1465307782
0.1409461846
0.1384309584
0.1344573751
0.1329841197
0.130151642
0.1293625009
0.1273224812
0.1269361241
0.1254046877
0.1251759306
0.1238985243
0.123591368
0.1223177019
0.1216846803
0.1201482751
0.118911915
0.1168109641
0.195831297
0.1797255621
0.1700537711
0.1591456897
0.1529871732
0.1453734596
0.1414544144
0.1360632653
0.1336351487
0.129799201
0.12837696
0.1256425864
0.1248807628
0.1229113939
0.1225384043
0.1210600017
0.1208391563
0.1196059842
0.1193094571
0.1180798952
0.1174687992
0.1159856084
0.1147920776
0.1127639082
0.1881852391
0.1727083708
0.1634142382
0.1529320836
0.147014048
0.1396976325
0.1359316269
0.1307509956
0.1284177027
0.124731549
0.1233648579
0.1207372648
0.1200052064
0.1181127457
0.1177543409
0.1163336751
0.116121475
0.1149364607
0.114651531
0.1134699788
0.1128827631
0.1114574837
0.1103105657
0.1083615823
0.1799494084
0.1651498467
0.1562624444
0.1462390111
0.1405799525
0.1335837139
0.129982503
0.1250285788
0.1227973766
0.1192725258
0.1179656241
0.1154530055
0.114752965
0.1129433058
0.1126005699
0.1112420595
0.1110391337
0.1099059624
0.1096334917
0.1085036301
0.1079421108
0.1065791971
0.1054824725
0.1036187843
0.1711450637
0.1570696291
0.1486170909
0.1390841027
0.1337019508
0.1270480433
0.1236230522
0.1189115328
0.1167895159
0.1134371475
0.1121942077
0.1098045425
0.1091387729
0.1074176697
0.1070917243
0.1057996945
0.1056067196
0.1045289993
0.1042698789
0.1031952989
0.1026612733
0.1013650431
0.1003219902
0.09854948403
0.1618045611
0.1484972831
0.1405060327
0.1314932973
0.1264048619
0.1201140797
0.1168759902
0.1124215889
0.1104153597
0.1072459323
0.1060708046
0.1038115385
0.1031820843
0.101554892
0.1012467197
0.1000251854
0.09984273106
0.0988238106
0.09857882284
0.0975628701
0.09705798891
0.09583249145
0.09484636515
0.09317059482
0.1519526322
0.139455639
0.1319509914
0.123487053
0.1187084688
0.1128007465
0.1097598414
0.1055766841
0.1036926291
0.1007162039
0.09961264614
0.09749096032
0.09689985193
0.09537175012
0.09508236287
0.09393521703
0.0937638938
0.09280702028
0.09257696771
0.09162287319
0.09114875336
0.08999787317
0.08907180227
0.0874980637
0.1416249315
0.1299772852
0.1229826814
0.1150939839
0.1106401615
0.1051339454
0.102299698
0.09840083576
0.09664480865
0.09387066175
0.09284208593
0.09086458348
0.09031363105
0.0888893682
0.08861963472
0.08755043768
0.08739074909
0.08649889266
0.08628446846
0.08539520034
0.08495330625
0.0838806361
0.08301750891
0.08155073014
0.1308493019
0.120087907
0.1136255256
0.1063370763
0.1022221537
0.09713490997
0.09451633216
0.09091414299
0.08929174303
0.08672869156
0.08577839374
0.0839513688
0.08344235501
0.08212647149
0.08187728146
0.08088944577
0.08074192877
0.07991793545
0.07971984391
0.07889823342
0.07848998197
0.07749892493
0.07670148223
0.07534630194
0.1196642948
0.1098227542
0.1039127572
0.09724730184
0.09348410139
0.08883169483
0.08643693133
0.08314263829
0.08165889619
0.07931491593
0.07844582659
0.07677495575
0.0763094334
0.07510601064
0.07487810773
0.07397469334
0.07383977838
0.0730862011
0.0729050367
0.07215363573
0.07178028554
0.07087393168
0.07014465766
0.0689053159
0.1081004571
0.09920999271
0.09387114654
0.0878498434
0.08445033025
0.08024754047
0.07808422041
0.07510829923
0.07376795703
0.07165051146
0.07086542408
0.06935603622
0.06893551805
0.06784840104
0.06764254189
0.06682643922
0.06670458368
0.06602383304
0.06586019402
0.06518139993
0.06484415137
0.06402538064
0.06336659479
0.06224701494
0.09619881548
0.08828714402
0.08353607522
0.07817768342
0.07515242891
0.07141233801
0.06948717367
0.06683887705
0.06564607852
0.06376174154
0.06306306771
0.06171984042
0.06134560207
0.06037815291
0.06019494629
0.05946867519
0.05936023021
0.05875440834
0.05860878183
0.05800469682
0.05770458546
0.05697594541
0.05638969543
0.05539337595
0.08399217955
0.07708444851
0.07293627683
0.06825784174
0.06561648923
0.06235100629
0.0606701492
0.05835792027
0.05731649158
0.05567128031
0.05506127635
0.05388850734
0.05356177303
0.05271709399
0.05255715442
0.05192304804
0.05182838641
0.05129943941
0.05117231096
0.05064486944
0.05038286508
0.04974667694
0.04923483256
0.04836493243
0.07152358772
0.06564127809
0.06210888431
0.0581249401
0.0558756754
0.05309493335
0.05166357783
0.049694581
0.04880772591
0.04740672851
0.04688725615
0.04588856404
0.04561031575
0.04489100621
0.04475479956
0.0442148048
0.04413419339
0.04368374519
0.04357548778
0.04312631516
0.04290321666
0.04236145327
0.04192559965
0.04118483157
0.05882764225
0.0539895153
0.05108418436
0.04780745196
0.0459574769
0.04367036646
0.04249311031
0.04087365161
0.04014423325
0.03899194612
0.03856469697
0.03774329545
0.03751445401
0.03692283568
0.03681082713
0.03636669152
0.0363004143
0.03592992281
0.03584090363
0.03547144738
0.03528798184
0.03484237646
0.03448390989
0.03387462884
0.04594891797
0.04216994188
0.03990064399
0.03734124687
0.0358962572
0.03410983262
0.0331902857
0.03192534932
0.03135559009
0.03045555022
0.0301218118
0.02948021379
0.02930145446
0.02883933015
0.02875183614
0.02840490834
0.02835314401
0.02806373399
0.02799420688
0.02770559514
0.02756231494
0.02721424111
0.02693426484
0.0264583636
0.03292330627
0.03021562562
0.02858967194
0.02675584922
0.02572051647
0.02444054052
0.02378169038
0.0228753677
0.02246713294
0.02182226104
0.02158314008
0.02112343619
0.02099536592
0.02066424871
0.02060158024
0.02035300099
0.02031594208
0.02010856529
0.02005877501
0.01985194997
0.01974933024
0.01949991121
0.01929932997
0.01895832995
0.01979642008
0.01816830053
0.01719063565
0.01608797061
0.01546542701
0.01469578432
0.01429960945
0.01375464012
0.01350914156
0.01312137725
0.01297756954
0.01270113386
0.01262411137
0.01242498367
0.0123873025
0.01223780437
0.01221553795
0.01209080552
0.01206088283
0.01193646138
0.01187480104
0.01172479395
0.01160421565
0.01139916584
0.006604932428
0.006061749642
0.005735620932
0.005367769543
0.005160099289
0.004903354267
0.004771195985
0.004589406973
0.004507490166
0.00437814341
0.004330158449
0.004237933684
0.004212246098
0.004145794473
0.004133255207
0.004083358629
0.004075984991
0.004034330856
0.004024396201
0.003982803311
0.003962319933
0.003912223867
0.003872050187
0.003803619418
-0.006605020346
-0.006061810649
-0.005735548775
-0.005367616261
-0.005159885562
-0.004903068735
-0.004770889777
-0.004589039637
-0.004507190403
-0.004377803388
-0.004329871953
-0.004237669276
-0.004211986244
-0.004145613271
-0.004133007612
-0.004083196008
-0.004075684432
-0.004034170634
-0.004024112687
-0.003982779139
-0.003962044488
-0.003912098451
-0.003871762755
-0.00380338268
-0.01979650978
-0.01816836335
-0.01719056571
-0.01608781974
-0.01546521568
-0.01469550123
-0.01429930526
-0.01375427463
-0.01350884268
-0.01312103766
-0.01297728231
-0.01270086794
-0.01262384876
-0.01242479884
-0.01238705007
-0.01223763632
-0.012215231
-0.01209063851
-0.01206059205
-0.01193642942
-0.01187451869
-0.01172466144
-0.01160392216
-0.01139892317
-0.03292339034
-0.03021568379
-0.02858959901
-0.02675569721
-0.02572030519
-0.02444025968
-0.02378138934
-0.02287500769
-0.02246683991
-0.02182192947
-0.02158286146
-0.02112318034
-0.02099511442
-0.02066407552
-0.02060134109
-0.02035284599
-0.02031565043
-0.02010841219
-0.02005849985
-0.01985193089
-0.01974906205
-0.01949979106
-0.01929904886
-0.01895809909
-0.04594900737
-0.04217000546
-0.03990057773
-0.03734110215
-0.03589605329
-0.03410955935
-0.03318999114
-0.03192499538
-0.03135530047
-0.0304552209
-0.03012153231
-0.02947995502
-0.0293011969
-0.02883914861
-0.02875158597
-0.02840474078
-0.02835283811
-0.02806356543
-0.02799391581
-0.02770555827
-0.02756203188
-0.0272141051
-0.02693397071
-0.0264581199
-0.05882772028
-0.05398956947
-0.05108411185