/*--------------------------------*- C++ -*----------------------------------*\
| =========                 |                                                 |
| \\      /  F ield         | foam-extend: Open Source CFD                    |
|  \\    /   O peration     | Version:  3.0                                   |
|   \\  /    A nd           | Web:         http://www.extend-project.de       |
|    \\/     M anipulation  |                                                 |
\*---------------------------------------------------------------------------*/
FoamFile
{
    version     2.0;
    format      ascii;
    class       volSymmTensorField;
    location    "16";
    object      sigma;
}
// * * * * * * * * * * * * * * * * * * * * * * * * * * * * * * * * * * * * * //

dimensions      [0 0 0 0 0 0 0];

internalField   nonuniform List<symmTensor> 
120
(
(-0.131135 -0.0230116 1.93028e-19 0.131118 -1.18029e-20 1.64423e-05)
(-0.0936275 -0.0224126 5.3034e-19 0.0935923 4.33235e-19 3.51649e-05)
(-0.0551279 -0.0174525 1.17376e-18 0.0550805 -6.07412e-19 4.73719e-05)
(-0.0241563 -0.0130428 -8.71301e-19 0.0241072 5.37093e-20 4.91514e-05)
(-0.00179369 -0.00953453 -9.17616e-19 0.00176485 -8.26832e-21 2.88341e-05)
(-0.111691 -0.0630932 3.37289e-19 0.111671 -1.02585e-19 1.96225e-05)
(-0.0687796 -0.0580594 1.65317e-18 0.0687375 -7.8076e-19 4.20485e-05)
(-0.0326811 -0.0434651 9.82715e-19 0.0326249 -1.61627e-18 5.62465e-05)
(-0.00437734 -0.0308475 1.39308e-18 0.00432003 -1.04515e-18 5.73141e-05)
(0.0155435 -0.0211155 7.41517e-19 -0.015576 -1.37984e-18 3.24938e-05)
(-0.0802785 -0.0883653 9.36232e-21 0.0802569 -2.98324e-19 2.16132e-05)
(-0.0315857 -0.0712725 -3.47231e-19 0.0315394 -1.30413e-18 4.62508e-05)
(-0.000244899 -0.0478056 -1.32401e-18 0.00018352 -1.70821e-18 6.13787e-05)
(0.0232489 -0.0283819 -1.9741e-18 -0.0233105 -1.84925e-18 6.15656e-05)
(0.0390235 -0.0139784 -3.27513e-18 -0.0390575 5.84475e-19 3.39307e-05)
(-0.0477476 -0.0971035 -1.00852e-19 0.0477255 -2.12275e-19 2.20421e-05)
(0.000110416 -0.0611495 -5.65723e-19 -0.000157526 -7.54621e-19 4.71106e-05)
(0.0244653 -0.0301739 -3.03882e-18 -0.0245274 1.85727e-19 6.20842e-05)
(0.0417799 -0.00580498 -1.05272e-18 -0.0418413 9.5322e-19 6.13931e-05)
(0.0527155 0.0114075 -5.82816e-19 -0.0527484 1.67254e-18 3.29268e-05)
(-0.0224741 -0.0948685 6.18777e-20 0.0224532 -1.8021e-19 2.09247e-05)
(0.0133226 -0.0392042 -7.59382e-19 -0.0133673 -4.14007e-20 4.46493e-05)
(0.0288009 -0.00273161 -1.01847e-19 -0.0288593 4.28446e-19 5.84299e-05)
(0.0393013 0.0247022 -3.77649e-19 -0.0393582 1.00843e-18 5.69249e-05)
(0.0455475 0.043193 2.87588e-18 -0.0455772 -3.79181e-20 2.96389e-05)
(-0.00618211 -0.0905218 -2.4977e-19 0.0061638 -8.36695e-20 1.83051e-05)
(0.00714971 -0.0222402 -1.00716e-18 -0.00718871 2.07986e-19 3.90051e-05)
(0.0124647 0.0171492 7.72038e-19 -0.0125153 4.08191e-19 5.0621e-05)
(0.0159781 0.0460068 2.25578e-19 -0.0160265 6.45689e-19 4.84112e-05)
(0.0180001 0.0648913 6.57175e-19 -0.0180243 -3.24116e-19 2.42278e-05)
(0.00617506 -0.0905184 -2.44708e-19 -0.00618948 -4.34136e-20 1.4422e-05)
(-0.00716332 -0.0222378 -5.75635e-19 0.00713266 1.63862e-19 3.06672e-05)
(-0.0124694 0.017153 7.11648e-19 0.0124301 3.60672e-19 3.93405e-05)
(-0.015957 0.0460126 1.90783e-19 0.0159204 4.77071e-19 3.65985e-05)
(-0.0179274 0.0648985 -1.07148e-18 0.0179102 -2.23757e-19 1.71904e-05)
(0.0224644 -0.0948598 -3.43505e-19 -0.0224739 -7.36881e-21 9.51672e-06)
(-0.0133335 -0.0391964 8.89611e-19 0.0133133 3.46621e-19 2.01866e-05)
(-0.0288014 -0.00271868 -4.64156e-19 0.0287761 8.60305e-20 2.53269e-05)
(-0.0392758 0.0247219 5.36881e-19 0.0392535 -5.53756e-20 2.22542e-05)
(-0.0454695 0.0432186 8.59572e-20 0.0454605 -4.00777e-19 8.95184e-06)
(0.0477342 -0.0970928 -2.1199e-19 -0.0477382 3.08683e-19 3.98566e-06)
(-0.000117336 -0.0611345 -9.46933e-19 0.000108955 5.41535e-19 8.38131e-06)
(-0.0244602 -0.0301482 -1.86809e-18 0.0244505 3.47523e-19 9.68599e-06)
(-0.0417496 -0.0057661 -1.22445e-18 0.041743 7.59895e-19 6.52698e-06)
(-0.0526333 0.0114611 -3.13754e-18 0.0526331 -1.18437e-19 2.0828e-07)
(0.0802631 -0.0883565 1.17447e-19 -0.0802612 4.09582e-19 -1.83117e-06)
(0.0315819 -0.0712492 1.33682e-19 -0.0315779 9.35924e-19 -3.99222e-06)
(0.000253118 -0.0477643 -6.67654e-19 -0.000246526 1.07668e-18 -6.59146e-06)
(-0.0232191 -0.0283195 1.80425e-18 0.0232287 1.16077e-19 -9.60118e-06)
(-0.038948 -0.0138887 2.38393e-18 0.0389565 2.55446e-18 -8.53458e-06)
(0.111677 -0.0630885 2.97855e-19 -0.111669 2.2535e-19 -7.48839e-06)
(0.0687767 -0.0580284 5.24838e-19 -0.0687607 2.07103e-19 -1.60208e-05)
(0.0326867 -0.0434087 2.13578e-18 -0.0326644 1.17863e-18 -2.22941e-05)
(0.00439716 -0.0307626 1.20247e-18 -0.00437225 -4.49806e-19 -2.49142e-05)
(-0.0154923 -0.0209899 2.35207e-18 0.0155089 -1.99609e-19 -1.65744e-05)
(0.131127 -0.0230105 1.33109e-19 -0.131114 -3.22973e-21 -1.26569e-05)
(0.093623 -0.022377 4.6906e-19 -0.093596 4.50872e-20 -2.6977e-05)
(0.055125 -0.0173864 1.68741e-18 -0.0550885 -1.40852e-19 -3.64942e-05)
(0.0241566 -0.0129431 1.46425e-19 -0.0241181 -6.13622e-19 -3.85372e-05)
(0.00180333 -0.00938573 -1.11032e-19 -0.00177982 -2.12188e-18 -2.35044e-05)
(0.13113 0.0229893 1.92879e-19 -0.131114 -1.18861e-20 -1.69466e-05)
(0.0936041 0.0224464 5.30324e-19 -0.0935681 4.33048e-19 -3.60731e-05)
(0.0550798 0.0175574 1.17385e-18 -0.0550316 -6.08153e-19 -4.8164e-05)
(0.0240709 0.0132609 -8.71171e-19 -0.0240214 5.32903e-20 -4.94731e-05)
(0.00164279 0.00997243 -9.17036e-19 -0.00161402 -6.85449e-21 -2.8771e-05)
(0.111687 0.0630692 3.3711e-19 -0.111667 -1.02681e-19 -2.01303e-05)
(0.068726 0.058076 1.65359e-18 -0.0686832 -7.81793e-19 -4.27999e-05)
(0.0325632 0.0435316 9.83136e-19 -0.0325065 -1.6166e-18 -5.66793e-05)
(0.00416231 0.0309945 1.39379e-18 -0.00410513 -1.04761e-18 -5.71789e-05)
(-0.015932 0.0214192 7.43339e-19 0.0159642 -1.38272e-18 -3.21796e-05)
(0.0802786 0.0883415 9.23086e-21 -0.0802567 -2.98379e-19 -2.19501e-05)
(0.0315142 0.0712591 -3.47467e-19 -0.0314675 -1.30367e-18 -4.66504e-05)
(8.48977e-05 0.0478036 -1.32474e-18 -2.35124e-05 -1.70718e-18 -6.13853e-05)
(-0.0235427 0.0284012 -1.97526e-18 0.0236037 -1.8491e-18 -6.10417e-05)
(-0.0395523 0.0140465 -3.27674e-18 0.0395857 5.87165e-19 -3.34013e-05)
(0.0477507 0.097083 -1.00995e-19 -0.0477284 -2.12364e-19 -2.23398e-05)
(-0.000182272 0.0611013 -5.6578e-19 0.000229724 -7.54515e-19 -4.74524e-05)
(-0.0246274 0.0300905 -3.04038e-18 0.0246895 1.86917e-19 -6.20993e-05)
(-0.0420778 0.00567258 -1.05438e-18 0.0421388 9.53663e-19 -6.09606e-05)
(-0.0532478 -0.0116156 -5.85066e-19 0.0532803 1.67505e-18 -3.24951e-05)
(0.0224767 0.0948536 6.17561e-20 -0.0224555 -1.8035e-19 -2.12179e-05)
(-0.0133771 0.0391255 -7.5992e-19 0.0134222 -4.12599e-20 -4.50673e-05)
(-0.0289232 0.0025763 -1.01243e-19 0.0289818 4.28267e-19 -5.8641e-05)
(-0.0395249 -0.0249696 -3.78557e-19 0.0395817 1.00905e-18 -5.67823e-05)
(-0.0459434 -0.0436429 2.88045e-18 0.0459728 -3.91439e-20 -2.93807e-05)
(0.00618025 0.0905104 -2.49997e-19 -0.00616154 -8.37439e-20 -1.87068e-05)
(-0.00717385 0.0221439 -1.00781e-18 0.00721357 2.08149e-19 -3.97158e-05)
(-0.0125153 -0.0173466 7.7269e-19 0.0125666 4.0827e-19 -5.13322e-05)
(-0.016068 -0.0463528 2.25279e-19 0.0161168 6.46515e-19 -4.88917e-05)
(-0.0181548 -0.0654818 6.55689e-19 0.0181792 -3.23647e-19 -2.43745e-05)
(-0.00618292 0.0905062 -2.44806e-19 0.00619784 -4.35155e-20 -1.4914e-05)
(0.00717448 0.0221415 -5.7569e-19 -0.00714282 1.64024e-19 -3.16557e-05)
(0.0125019 -0.0173501 7.1225e-19 -0.0124614 3.61114e-19 -4.05026e-05)
(0.0160226 -0.0463578 1.91219e-19 -0.015985 4.78006e-19 -3.76232e-05)
(0.0180515 -0.0654883 -1.07264e-18 -0.0180339 -2.23702e-19 -1.76498e-05)
(-0.0224754 0.0948431 -3.43537e-19 0.0224856 -7.52035e-21 -1.01418e-05)
(0.0133751 0.0391175 8.90331e-19 -0.0133536 3.47123e-19 -2.14887e-05)
(0.0289049 0.00256388 -4.64421e-19 -0.0288779 8.64282e-20 -2.6965e-05)
(0.0394737 -0.0249877 5.38626e-19 -0.0394499 -5.46148e-20 -2.38303e-05)
(0.0458335 -0.0436673 8.78628e-20 -0.0458238 -3.99579e-19 -9.75795e-06)
(-0.0477443 0.0970711 -2.12016e-19 0.0477489 3.08749e-19 -4.66084e-06)
(0.000176456 0.061086 -9.47773e-19 -0.000166638 5.41756e-19 -9.81772e-06)
(0.024603 0.0300648 -1.86977e-18 -0.0245915 3.47431e-19 -1.14985e-05)
(0.0420203 0.00563426 -1.22552e-18 -0.042012 7.60008e-19 -8.27947e-06)
(0.0531325 -0.0116689 -3.13896e-18 -0.0531315 -1.2067e-19 -1.0908e-06)
(-0.0802698 0.0883327 1.17585e-19 0.0802687 4.0973e-19 1.09985e-06)
(-0.0315228 0.0712354 1.33626e-19 0.0315203 9.36535e-19 2.48431e-06)
(-0.000112083 0.0477614 -6.68362e-19 0.00010735 1.07618e-18 4.73256e-06)
(0.0234858 0.0283375 1.80498e-18 -0.0234936 1.15247e-19 7.84474e-06)
(0.0394438 0.0139555 2.38271e-18 -0.0394515 2.55427e-18 7.64665e-06)
(-0.111681 0.0630655 2.98081e-19 0.111674 2.25515e-19 6.77401e-06)
(-0.0687351 0.0580447 5.24995e-19 0.0687205 2.07078e-19 1.4622e-05)
(-0.0325867 0.043474 2.13662e-18 0.032566 1.17992e-18 2.07108e-05)
(-0.00420748 0.0309074 1.20289e-18 0.00418393 -4.5045e-19 2.35539e-05)
(0.0158495 0.0212916 2.35319e-18 -0.0158654 -1.94434e-19 1.59615e-05)
(-0.131131 0.0229887 1.33256e-19 0.131119 -3.21762e-21 1.18975e-05)
(-0.0936114 0.0224107 4.69164e-19 0.0935857 4.48329e-20 2.56664e-05)
(-0.055094 0.0174909 1.68777e-18 0.0550588 -1.39981e-19 3.52344e-05)
(-0.0240949 0.0131603 1.46229e-19 0.0240572 -6.13713e-19 3.76581e-05)
(-0.00168239 0.00982262 -1.11841e-19 0.0016592 -2.12346e-18 2.31895e-05)
)
;

boundaryField
{
    out
    {
        type            mySigma;
    }
    in
    {
        type            mySigma;
    }
    frontAndBack
    {
        type            empty;
    }
}


// ************************************************************************* //
