/*--------------------------------*- C++ -*----------------------------------*\
| =========                 |                                                 |
| \\      /  F ield         | foam-extend: Open Source CFD                    |
|  \\    /   O peration     | Version:  3.0                                   |
|   \\  /    A nd           | Web:         http://www.extend-project.de       |
|    \\/     M anipulation  |                                                 |
\*---------------------------------------------------------------------------*/
FoamFile
{
    version     2.0;
    format      ascii;
    class       volVectorField;
    location    "16";
    object      u;
}
// * * * * * * * * * * * * * * * * * * * * * * * * * * * * * * * * * * * * * //

dimensions      [0 0 0 0 0 0 0];

internalField   nonuniform List<vector> 
120
(
(0.499756 -0.156932 -8.4578e-20)
(0.758393 -0.0860719 5.93651e-18)
(0.95293 -0.0440754 -1.40554e-17)
(0.959106 -0.0237802 7.44564e-18)
(1.04712 0.00535686 3.51367e-17)
(0.656829 -0.429078 2.39391e-18)
(0.84465 -0.235636 -3.33241e-17)
(0.997297 -0.121142 -9.96938e-18)
(0.983282 -0.0659638 -3.16662e-17)
(1.04241 0.0130684 -2.80211e-17)
(0.928907 -0.58622 4.03727e-18)
(0.994124 -0.322003 6.54317e-18)
(1.07422 -0.165671 1.85836e-17)
(1.02529 -0.0903571 1.12521e-17)
(1.03442 0.0174416 8.84055e-17)
(1.24309 -0.586245 1.90015e-18)
(1.16672 -0.322053 -6.94238e-19)
(1.16308 -0.165738 2.7436e-17)
(1.07382 -0.0904545 -1.4334e-18)
(1.02527 0.0172907 -6.21956e-18)
(1.51517 -0.429178 -2.17449e-18)
(1.3162 -0.235775 3.36507e-18)
(1.24003 -0.12136 -3.1474e-18)
(1.11585 -0.0662421 5.98864e-18)
(1.01735 0.0126089 -2.96154e-17)
(1.67225 -0.157098 -9.07249e-19)
(1.40249 -0.0863225 5.0111e-18)
(1.28444 -0.0444349 -2.7636e-18)
(1.1401 -0.0242582 2.24013e-18)
(1.01276 0.00461722 -1.335e-17)
(1.67222 0.15705 -1.08851e-18)
(1.40246 0.086257 4.32411e-18)
(1.28441 0.0443775 4.26651e-19)
(1.14006 0.0242316 1.53789e-18)
(1.0127 -0.00461928 -1.14312e-17)
(1.51509 0.4291 -2.98238e-18)
(1.31613 0.235683 9.59235e-18)
(1.23994 0.121272 -1.44549e-18)
(1.11574 0.0661765 8.45043e-18)
(1.01718 -0.0126721 3.47792e-18)
(1.24298 0.586113 -2.97074e-18)
(1.16662 0.321913 -1.31372e-17)
(1.16297 0.165597 -2.07154e-17)
(1.07367 0.0903202 -1.48587e-17)
(1.02504 -0.0174617 -5.64995e-17)
(0.928789 0.586028 2.06942e-18)
(0.994019 0.321808 1.55766e-18)
(1.07411 0.165468 -2.67368e-17)
(1.02514 0.0901428 5.88824e-18)
(1.03419 -0.0177377 4.14356e-17)
(0.656742 0.428834 7.80605e-18)
(0.844573 0.23539 -4.55085e-18)
(0.997215 0.120882 2.4652e-17)
(0.983176 0.0656782 -8.1155e-18)
(1.04224 -0.013472 6.56323e-17)
(0.499722 0.156657 -2.47675e-19)
(0.758364 0.0857947 -1.15759e-17)
(0.952904 0.0437821 1.8415e-17)
(0.959072 0.0234524 -2.83842e-18)
(1.04707 -0.00581608 3.27037e-18)
(0.499844 -0.157586 8.27506e-20)
(0.758498 -0.0868981 -5.94352e-18)
(0.953097 -0.0451881 1.40504e-17)
(0.959308 -0.0252254 -7.45612e-18)
(1.04744 0.00316566 -3.51522e-17)
(0.657067 -0.429693 -2.39438e-18)
(0.844981 -0.236415 3.33086e-17)
(0.997755 -0.122188 9.97704e-18)
(0.983881 -0.0673121 3.16627e-17)
(1.04328 0.011065 2.80168e-17)
(0.929304 -0.586742 -4.04108e-18)
(0.994647 -0.322689 -6.5503e-18)
(1.07496 -0.166573 -1.85732e-17)
(1.02623 -0.0915258 -1.12485e-17)
(1.03578 0.0157756 -8.84162e-17)
(1.2436 -0.586656 -1.90512e-18)
(1.16743 -0.322583 6.81416e-19)
(1.16404 -0.166445 -2.74344e-17)
(1.07505 -0.0913495 1.42996e-18)
(1.02697 0.0160442 6.19233e-18)
(1.51578 -0.429426 2.1721e-18)
(1.31703 -0.23612 -3.37665e-18)
(1.24115 -0.121801 3.13633e-18)
(1.11728 -0.0668173 -5.99656e-18)
(1.01928 0.0118471 2.96036e-17)
(1.67289 -0.157191 9.07281e-19)
(1.40338 -0.0864349 -5.01452e-18)
(1.28565 -0.0445979 2.7558e-18)
(1.14164 -0.0244526 -2.24799e-18)
(1.0148 0.00434563 1.33555e-17)
(1.67286 0.157146 1.08925e-18)
(1.40335 0.0863676 -4.32955e-18)
(1.28562 0.0445267 -4.31673e-19)
(1.14159 0.0244104 -1.54622e-18)
(1.01475 -0.00436942 1.14419e-17)
(1.51569 0.42935 2.98543e-18)
(1.31694 0.236023 -9.61266e-18)
(1.24106 0.121699 1.45008e-18)
(1.11716 0.0667363 -8.46981e-18)
(1.01914 -0.0119167 -3.48717e-18)
(1.24349 0.586526 2.97114e-18)
(1.16731 0.322434 1.31368e-17)
(1.16391 0.166289 2.07383e-17)
(1.07489 0.0912008 1.48735e-17)
(1.02677 -0.0162 5.65675e-17)
(0.929189 0.586551 -2.07225e-18)
(0.994534 0.322483 -1.56973e-18)
(1.07483 0.166356 2.67496e-17)
(1.02606 0.0912993 -5.89352e-18)
(1.03556 -0.016042 -4.14842e-17)
(0.656983 0.429449 -7.80883e-18)
(0.844899 0.236159 4.5404e-18)
(0.997657 0.121919 -2.46681e-17)
(0.983759 0.0670184 8.11136e-18)
(1.04311 -0.0114398 -6.56767e-17)
(0.499815 0.157312 2.46377e-19)
(0.758469 0.0866178 1.1573e-17)
(0.953058 0.0448908 -1.84248e-17)
(0.959258 0.0248944 2.83294e-18)
(1.04737 -0.00361311 -3.27303e-18)
)
;

boundaryField
{
    out
    {
        type            fixedValue;
        value           uniform (1 0 0);
    }
    in
    {
        type            myVelocity;
    }
    frontAndBack
    {
        type            empty;
    }
}


// ************************************************************************* //
