/*--------------------------------*- C++ -*----------------------------------*\
| =========                 |                                                 |
| \\      /  F ield         | foam-extend: Open Source CFD                    |
|  \\    /   O peration     | Version:  3.0                                   |
|   \\  /    A nd           | Web:         http://www.extend-project.de       |
|    \\/     M anipulation  |                                                 |
\*---------------------------------------------------------------------------*/
FoamFile
{
    version     2.0;
    format      ascii;
    class       volVectorField;
    location    "3.0003";
    object      u;
}
// * * * * * * * * * * * * * * * * * * * * * * * * * * * * * * * * * * * * * //

dimensions      [0 0 0 0 0 0 0];

internalField   nonuniform List<vector> 
168
(
(58.675 -27.0738 -2.77488e-18)
(56.5439 -19.4399 2.26419e-17)
(-9.64985 -21.9475 -7.22086e-15)
(-175.984 -34.337 2.84143e-17)
(-349.449 -44.6741 -9.80664e-17)
(-418.824 -42.5095 -4.31564e-15)
(82.1715 -75.8667 -1.43119e-14)
(73.4155 -54.475 -4.44844e-17)
(9.39715 -61.5009 7.2268e-15)
(-146.187 -96.2131 -1.71559e-14)
(-310.683 -125.176 2.12161e-17)
(-381.938 -119.108 1.62189e-17)
(124.512 -109.633 -1.06223e-14)
(103.817 -78.7203 2.58242e-14)
(43.7195 -88.873 7.24973e-15)
(-92.4939 -139.033 3.35848e-14)
(-240.827 -180.886 -8.03671e-15)
(-315.469 -172.117 6.88932e-15)
(177.309 -121.684 4.48122e-14)
(141.728 -87.3736 -2.97047e-14)
(86.5191 -98.6426 5.79416e-18)
(-25.539 -154.316 -2.51316e-14)
(-153.718 -200.77 -1.47559e-17)
(-232.584 -191.037 -1.23823e-14)
(230.107 -109.635 -1.29755e-14)
(179.639 -78.721 7.36567e-15)
(129.319 -88.8746 1.02675e-14)
(41.4161 -139.034 7.77409e-15)
(-66.6075 -180.888 5.049e-15)
(-149.698 -172.12 5.48253e-15)
(272.449 -75.8696 -6.86378e-15)
(210.042 -54.4764 -1.54191e-17)
(163.642 -61.5036 -9.44643e-15)
(95.1104 -96.2157 -7.02326e-16)
(3.24998 -125.181 4.78056e-18)
(-83.2272 -119.114 1.23589e-17)
(295.947 -27.0774 -9.41569e-19)
(226.914 -19.4416 5.09787e-18)
(182.691 -21.951 -1.63762e-15)
(124.909 -34.3403 4.46423e-18)
(42.0186 -44.6796 1.53335e-17)
(-46.338 -42.5166 4.8079e-16)
(295.947 27.0783 -4.98244e-18)
(226.914 19.4442 -2.03112e-17)
(182.692 21.9495 1.62816e-15)
(124.91 34.3366 -6.43842e-18)
(42.0199 44.6704 1.59474e-17)
(-46.3364 42.5009 4.83817e-16)
(272.451 75.8712 6.85688e-15)
(210.043 54.4793 1.52008e-17)
(163.645 61.5029 8.78658e-17)
(95.1125 96.2126 7.0517e-15)
(3.25352 125.173 -5.4201e-18)
(-83.2226 119.1 -8.38699e-18)
(230.111 109.637 1.29768e-14)
(179.641 78.7246 -1.90094e-14)
(129.322 88.875 -2.61126e-15)
(41.4192 139.033 -2.22794e-14)
(-66.6024 180.882 5.04132e-15)
(-149.691 172.109 -5.50497e-15)
(177.313 121.689 -4.48071e-14)
(141.73 87.3779 2.97178e-14)
(86.5227 98.6446 -1.04915e-18)
(-25.5356 154.315 2.51416e-14)
(-153.712 200.766 -1.72238e-18)
(-232.577 191.028 1.23841e-14)
(124.515 109.639 1.06268e-14)
(103.819 78.7253 -7.27095e-15)
(43.7227 88.8765 -1.9422e-14)
(-92.4908 139.034 -1.04955e-14)
(-240.822 180.885 -8.03805e-15)
(-315.463 172.112 -6.84733e-15)
(82.1738 75.8741 1.43271e-14)
(73.4166 54.4807 2.29627e-17)
(9.39936 61.5056 1.95292e-14)
(-146.185 96.2153 -1.02355e-15)
(-310.679 125.177 1.12882e-17)
(-381.933 119.105 -1.94044e-17)
(58.6758 27.0819 4.99776e-18)
(56.5443 19.4459 -1.16899e-17)
(-9.64907 21.953 7.18343e-15)
(-175.984 34.3399 6.32746e-18)
(-349.448 44.6759 -8.93378e-17)
(-418.822 42.508 -4.31106e-15)
(58.675 -27.0738 2.77498e-18)
(56.5439 -19.4399 -2.26414e-17)
(-9.64986 -21.9475 7.22086e-15)
(-175.984 -34.337 -2.84135e-17)
(-349.449 -44.6741 9.80663e-17)
(-418.824 -42.5095 4.31564e-15)
(82.1715 -75.8667 1.43119e-14)
(73.4155 -54.475 4.44834e-17)
(9.39716 -61.5009 -7.2268e-15)
(-146.187 -96.2131 1.71559e-14)
(-310.683 -125.176 -2.12159e-17)
(-381.938 -119.108 -1.62177e-17)
(124.512 -109.633 1.06223e-14)
(103.817 -78.7203 -2.58242e-14)
(43.7195 -88.873 -7.24973e-15)
(-92.4939 -139.033 -3.35848e-14)
(-240.827 -180.886 8.03671e-15)
(-315.469 -172.117 -6.88932e-15)
(177.309 -121.684 -4.48122e-14)
(141.728 -87.3736 2.97047e-14)
(86.5191 -98.6426 -5.79424e-18)
(-25.539 -154.316 2.51316e-14)
(-153.718 -200.77 1.47555e-17)
(-232.584 -191.037 1.23823e-14)
(230.107 -109.635 1.29755e-14)
(179.639 -78.721 -7.36567e-15)
(129.319 -88.8746 -1.02675e-14)
(41.4161 -139.034 -7.77408e-15)
(-66.6075 -180.889 -5.04899e-15)
(-149.698 -172.12 -5.48254e-15)
(272.449 -75.8696 6.86378e-15)
(210.042 -54.4764 1.54186e-17)
(163.642 -61.5037 9.44643e-15)
(95.1104 -96.2157 7.02325e-16)
(3.24998 -125.181 -4.78089e-18)
(-83.2272 -119.114 -1.23581e-17)
(295.947 -27.0774 9.41682e-19)
(226.914 -19.4416 -5.09747e-18)
(182.691 -21.951 1.63762e-15)
(124.909 -34.3403 -4.46393e-18)
(42.0186 -44.6796 -1.53328e-17)
(-46.338 -42.5166 -4.80792e-16)
(295.947 27.0783 4.98234e-18)
(226.914 19.4442 2.03108e-17)
(182.692 21.9495 -1.62816e-15)
(124.91 34.3366 6.43787e-18)
(42.0199 44.6704 -1.59475e-17)
(-46.3364 42.5009 -4.83817e-16)
(272.451 75.8712 -6.85688e-15)
(210.043 54.4793 -1.52e-17)
(163.645 61.5029 -8.78656e-17)
(95.1125 96.2126 -7.05169e-15)
(3.25351 125.173 5.41998e-18)
(-83.2226 119.1 8.38614e-18)
(230.111 109.637 -1.29768e-14)
(179.641 78.7246 1.90094e-14)
(129.322 88.875 2.61126e-15)
(41.4192 139.033 2.22794e-14)
(-66.6024 180.882 -5.04132e-15)
(-149.691 172.109 5.50497e-15)
(177.313 121.689 4.48071e-14)
(141.73 87.3779 -2.97178e-14)
(86.5227 98.6446 1.04917e-18)
(-25.5357 154.315 -2.51416e-14)
(-153.712 200.766 1.72294e-18)
(-232.577 191.028 -1.23841e-14)
(124.515 109.639 -1.06268e-14)
(103.819 78.7253 7.27095e-15)
(43.7227 88.8765 1.9422e-14)
(-92.4908 139.034 1.04955e-14)
(-240.822 180.885 8.03805e-15)
(-315.463 172.112 6.84733e-15)
(82.1738 75.8741 -1.43271e-14)
(73.4166 54.4807 -2.29622e-17)
(9.39936 61.5056 -1.95292e-14)
(-146.185 96.2153 1.02355e-15)
(-310.679 125.177 -1.12878e-17)
(-381.933 119.105 1.94037e-17)
(58.6758 27.0819 -4.99791e-18)
(56.5443 19.4459 1.16895e-17)
(-9.64907 21.953 -7.18344e-15)
(-175.984 34.3399 -6.32778e-18)
(-349.448 44.6759 8.9337e-17)
(-418.822 42.508 4.31106e-15)
)
;

boundaryField
{
    out
    {
        type            fixedValue;
        value           uniform (1 0 0);
    }
    in
    {
        type            myVelocity;
    }
    frontAndBack
    {
        type            empty;
    }
}


// ************************************************************************* //
