/*--------------------------------*- C++ -*----------------------------------*\
| =========                 |                                                 |
| \\      /  F ield         | foam-extend: Open Source CFD                    |
|  \\    /   O peration     | Version:  3.0                                   |
|   \\  /    A nd           | Web:         http://www.extend-project.de       |
|    \\/     M anipulation  |                                                 |
\*---------------------------------------------------------------------------*/
FoamFile
{
    version     2.0;
    format      ascii;
    class       volScalarField;
    location    "21";
    object      p;
}
// * * * * * * * * * * * * * * * * * * * * * * * * * * * * * * * * * * * * * //

dimensions      [0 0 0 0 0 0 0];

internalField   nonuniform List<scalar> 
120
(
-0.285358
-0.212585
-0.222182
-0.212334
-0.212485
-0.265975
-0.198131
-0.207065
-0.197874
-0.19801
-0.228317
-0.170086
-0.177762
-0.169879
-0.169999
-0.175253
-0.130543
-0.136424
-0.130362
-0.130449
-0.110098
-0.082016
-0.0857158
-0.0819122
-0.0819694
-0.0375924
-0.0279921
-0.0292443
-0.0279339
-0.0279487
0.0376241
0.0280277
0.0292943
0.0279972
0.0280175
0.110123
0.0820452
0.0857584
0.0819674
0.0820296
0.175267
0.13056
0.136453
0.130401
0.130493
0.228314
0.170086
0.177771
0.169896
0.170019
0.265951
0.198109
0.207048
0.197863
0.198001
0.28531
0.212539
0.222138
0.212292
0.212444
0.285376
0.212573
0.222163
0.212304
0.212451
0.26584
0.198029
0.20697
0.197794
0.197934
0.228337
0.170076
0.177746
0.169853
0.169968
0.175119
0.130441
0.13633
0.130282
0.130374
0.110116
0.0820043
0.0856974
0.0818822
0.0819352
0.0374557
0.0278866
0.0291459
0.0278483
0.0278673
-0.037608
-0.0280434
-0.0293178
-0.0280343
-0.0280588
-0.110262
-0.0821544
-0.0858616
-0.0820594
-0.0821174
-0.175252
-0.130578
-0.136479
-0.130442
-0.130538
-0.228453
-0.170195
-0.177874
-0.169989
-0.170107
-0.265935
-0.198125
-0.207072
-0.1979
-0.198042
-0.285447
-0.212645
-0.222237
-0.212379
-0.212526
)
;

boundaryField
{
    out
    {
        type            implicitExtrapolation;
    }
    in
    {
        type            implicitExtrapolation;
    }
    frontAndBack
    {
        type            empty;
    }
}


// ************************************************************************* //
