/*--------------------------------*- C++ -*----------------------------------*\
| =========                 |                                                 |
| \\      /  F ield         | foam-extend: Open Source CFD                    |
|  \\    /   O peration     | Version:  3.0                                   |
|   \\  /    A nd           | Web:         http://www.extend-project.de       |
|    \\/     M anipulation  |                                                 |
\*---------------------------------------------------------------------------*/
FoamFile
{
    version     2.0;
    format      ascii;
    class       volSymmTensorField;
    location    "21";
    object      sigma;
}
// * * * * * * * * * * * * * * * * * * * * * * * * * * * * * * * * * * * * * //

dimensions      [0 0 0 0 0 0 0];

internalField   nonuniform List<symmTensor> 
120
(
(-0.131174 -0.0230081 1.93038e-19 0.131178 -1.19207e-20 -4.77396e-06)
(-0.0936487 -0.0224065 5.30676e-19 0.0936589 4.34191e-19 -1.01662e-05)
(-0.0551341 -0.0174468 1.17452e-18 0.0551476 -6.08462e-19 -1.34961e-05)
(-0.0241562 -0.0130468 -8.72634e-19 0.0241698 5.35238e-20 -1.36292e-05)
(-0.00179648 -0.00956931 -9.17257e-19 0.00180413 -7.88094e-21 -7.64514e-06)
(-0.111721 -0.063103 3.37772e-19 0.111726 -1.02592e-19 -4.9953e-06)
(-0.0687864 -0.0580662 1.65419e-18 0.068797 -7.81496e-19 -1.06437e-05)
(-0.0326692 -0.0434657 9.83274e-19 0.0326833 -1.61851e-18 -1.40902e-05)
(-0.00435438 -0.0308468 1.394e-18 0.00436849 -1.04716e-18 -1.41087e-05)
(0.01557 -0.021122 7.42036e-19 -0.0155623 -1.38274e-18 -7.78145e-06)
(-0.0802993 -0.0883836 9.29838e-21 0.0803042 -2.9851e-19 -4.89025e-06)
(-0.0315767 -0.0712838 -3.47435e-19 0.0315871 -1.30558e-18 -1.04235e-05)
(-0.000218174 -0.0478043 -1.32477e-18 0.000231905 -1.70964e-18 -1.37311e-05)
(0.0232842 -0.0283696 -1.97576e-18 -0.0232706 -1.85128e-18 -1.36097e-05)
(0.0390546 -0.0139554 -3.27454e-18 -0.0390472 5.86685e-19 -7.35783e-06)
(-0.0477606 -0.0971271 -1.01015e-19 0.0477651 -2.12351e-19 -4.47364e-06)
(0.00012998 -0.0611571 -5.66472e-19 -0.000120454 -7.55132e-19 -9.52557e-06)
(0.0244986 -0.030164 -3.04161e-18 -0.0244861 1.86657e-19 -1.24879e-05)
(0.0418155 -0.00577842 -1.05378e-18 -0.0418032 9.55232e-19 -1.22436e-05)
(0.0527343 0.0114521 -5.87334e-19 -0.0527278 1.67542e-18 -6.48239e-06)
(-0.0224812 -0.0948966 6.19305e-20 0.0224849 -1.80302e-19 -3.73417e-06)
(0.0133433 -0.0392044 -7.59737e-19 -0.0133353 -4.10629e-20 -7.95166e-06)
(0.028829 -0.00271126 -1.02448e-19 -0.0288187 4.29284e-19 -1.03575e-05)
(0.0393246 0.0247414 -3.77946e-19 -0.0393146 1.00979e-18 -1.00071e-05)
(0.0455451 0.0432491 2.87789e-18 -0.04554 -3.95033e-20 -5.13186e-06)
(-0.00618358 -0.0905545 -2.49775e-19 0.00618633 -8.36766e-20 -2.75321e-06)
(0.00716189 -0.0222358 -1.00747e-18 -0.00715604 2.08439e-19 -5.85534e-06)
(0.0124762 0.0171754 7.73249e-19 -0.0124687 4.08636e-19 -7.55825e-06)
(0.0159779 0.0460515 2.25938e-19 -0.0159707 6.46076e-19 -7.13762e-06)
(0.0179708 0.0649499 6.58021e-19 -0.0179673 -3.24527e-19 -3.47718e-06)
(0.00618059 -0.0905555 -2.44655e-19 -0.00617902 -4.33962e-20 -1.56067e-06)
(-0.00716454 -0.0222365 -5.75147e-19 0.00716786 1.64146e-19 -3.32486e-06)
(-0.012481 0.0171746 7.1311e-19 0.0124852 3.61069e-19 -4.19733e-06)
(-0.0159873 0.0460507 1.91602e-19 0.0159911 4.77585e-19 -3.73274e-06)
(-0.0179885 0.0649492 -1.07146e-18 0.01799 -2.23845e-19 -1.54366e-06)
(0.0224791 -0.0948992 -3.43353e-19 -0.0224788 -7.51577e-21 -2.74736e-07)
(-0.0133459 -0.0392066 8.90793e-19 0.0133465 3.46831e-19 -5.84608e-07)
(-0.0288343 -0.0027139 -4.63864e-19 0.0288349 8.65292e-20 -5.79157e-07)
(-0.0393351 0.0247382 5.38237e-19 0.0393352 -5.48609e-20 -1.09467e-07)
(-0.0455648 0.0432457 8.6308e-20 0.0455643 -4.00473e-19 4.58525e-07)
(0.0477598 -0.0971302 -2.11836e-19 -0.0477609 3.08957e-19 1.05308e-06)
(-0.000132607 -0.0611607 -9.4742e-19 0.000130374 5.41644e-19 2.23274e-06)
(-0.0245044 -0.0301691 -1.86938e-18 0.0245013 3.46943e-19 3.13319e-06)
(-0.041827 -0.00578526 -1.2251e-18 0.0418234 7.60562e-19 3.58393e-06)
(-0.052756 0.0114433 -3.13758e-18 0.0527535 -1.19341e-19 2.48118e-06)
(0.0802995 -0.0883864 1.17686e-19 -0.0803018 4.09844e-19 2.29584e-06)
(0.0315742 -0.0712887 1.3345e-19 -0.0315791 9.3646e-19 4.8829e-06)
(0.000212425 -0.047812 -6.68339e-19 -0.000219034 1.07689e-18 6.60913e-06)
(-0.0232954 -0.028381 1.80555e-18 0.0232884 1.14666e-19 7.00662e-06)
(-0.0390757 -0.0139719 2.38396e-18 0.0390714 2.55623e-18 4.30496e-06)
(0.111721 -0.0631051 2.97802e-19 -0.111725 2.25341e-19 3.40333e-06)
(0.0687843 -0.0580721 5.24839e-19 -0.0687915 2.06487e-19 7.23475e-06)
(0.0326646 -0.0434759 2.13717e-18 -0.0326742 1.18016e-18 9.68701e-06)
(0.00434559 -0.0308626 1.20324e-18 -0.0043556 -4.50439e-19 1.00131e-05)
(-0.0155863 -0.0211464 2.35216e-18 0.0155804 -1.97398e-19 5.88636e-06)
(0.131173 -0.0230097 1.32912e-19 -0.131178 -3.52062e-21 4.26317e-06)
(0.0936472 -0.022413 4.69377e-19 -0.0936563 4.47976e-20 9.0728e-06)
(0.0551314 -0.0174585 1.68866e-18 -0.0551435 -1.40691e-19 1.2074e-05)
(0.0241516 -0.0130652 1.46201e-19 -0.0241639 -6.13693e-19 1.23025e-05)
(0.00178887 -0.00959842 -1.11951e-19 -0.0017959 -2.12471e-18 7.03278e-06)
(0.131172 0.0230078 1.92951e-19 -0.131177 -1.1942e-20 4.84911e-06)
(0.0936402 0.0224285 5.30673e-19 -0.0936505 4.34032e-19 1.03163e-05)
(0.0551168 0.0174984 1.17459e-18 -0.0551305 -6.08456e-19 1.36739e-05)
(0.0241253 0.0131445 -8.72254e-19 -0.0241391 5.34256e-20 1.37954e-05)
(0.00174254 0.00974948 -9.1685e-19 -0.00175027 -7.45909e-21 7.73857e-06)
(0.111718 0.0631014 3.37633e-19 -0.111723 -1.02645e-19 5.08493e-06)
(0.0687652 0.0580809 1.6543e-18 -0.068776 -7.81635e-19 1.08255e-05)
(0.0326244 0.0435017 9.83388e-19 -0.0326387 -1.61813e-18 1.42952e-05)
(0.00427352 0.0309162 1.39417e-18 -0.00428781 -1.04743e-18 1.42946e-05)
(-0.0157134 0.021251 7.4278e-19 0.0157056 -1.38294e-18 7.8724e-06)
(0.0802958 0.0883804 9.2708e-21 -0.0803008 -2.98535e-19 4.98661e-06)
(0.0315482 0.0712858 -3.47323e-19 -0.0315588 -1.30517e-18 1.06102e-05)
(0.000157197 0.047813 -1.32473e-18 -0.000171159 -1.70896e-18 1.39613e-05)
(-0.0233947 0.0283891 -1.97576e-18 0.0233809 -1.8509e-18 1.38412e-05)
(-0.0392501 0.0139954 -3.27477e-18 0.0392426 5.87087e-19 7.49522e-06)
(0.0477576 0.0971226 -1.01028e-19 -0.0477622 -2.12403e-19 4.52742e-06)
(-0.000158505 0.0611445 -5.66224e-19 0.000148869 -7.54951e-19 9.63648e-06)
(-0.0245599 0.0301408 -3.04148e-18 0.0245473 1.86876e-19 1.26222e-05)
(-0.0419266 0.00573984 -1.05406e-18 0.0419142 9.54819e-19 1.23826e-05)
(-0.0529303 -0.0115157 -5.86848e-19 0.0529238 1.6759e-18 6.55816e-06)
(0.0224791 0.0948915 6.18841e-20 -0.0224828 -1.80372e-19 3.77215e-06)
(-0.0133644 0.0391791 -7.59819e-19 0.0133564 -4.1025e-20 8.01954e-06)
(-0.0288745 0.00266026 -1.01918e-19 0.0288641 4.29109e-19 1.04415e-05)
(-0.0394068 -0.024831 -3.78175e-19 0.0393967 1.00967e-18 1.01003e-05)
(-0.0456897 -0.0434027 2.87904e-18 0.0456845 -3.91412e-20 5.19777e-06)
(0.0061824 0.0905491 -2.49849e-19 -0.00618515 -8.3724e-20 2.74231e-06)
(-0.00717037 0.0222032 -1.00763e-18 0.00716454 2.08436e-19 5.82869e-06)
(-0.0124938 -0.0172426 7.73412e-19 0.0124863 4.08623e-19 7.50718e-06)
(-0.0160094 -0.0461707 2.25796e-19 0.0160023 6.46387e-19 7.08135e-06)
(-0.0180253 -0.0651557 6.57226e-19 0.0180218 -3.2391e-19 3.44277e-06)
(-0.00618098 0.0905499 -2.44664e-19 0.00617943 -4.34751e-20 1.54272e-06)
(0.00717082 0.0222039 -5.75028e-19 -0.00717408 1.64174e-19 3.26554e-06)
(0.0124955 -0.0172417 7.1308e-19 -0.0124996 3.61206e-19 4.09638e-06)
(0.0160148 -0.0461697 1.91703e-19 -0.0160184 4.78102e-19 3.61836e-06)
(0.0180379 -0.0651549 -1.07184e-18 -0.0180394 -2.23529e-19 1.48729e-06)
(-0.0224784 0.0948938 -3.43321e-19 0.0224781 -7.64961e-21 2.26685e-07)
(0.0133649 0.0391813 8.90881e-19 -0.0133653 3.46947e-19 4.66739e-07)
(0.0288766 0.002663 -4.64345e-19 -0.028877 8.66407e-20 3.84524e-07)
(0.039413 -0.0248276 5.38388e-19 -0.0394129 -5.46791e-20 -1.1721e-07)
(0.045704 -0.0433991 8.63451e-20 -0.0457034 -3.99835e-19 -5.96678e-07)
(-0.0477581 0.0971256 -2.11823e-19 0.0477592 3.08963e-19 -1.08216e-06)
(0.000158867 0.0611482 -9.47897e-19 -0.00015654 5.41834e-19 -2.32676e-06)
(0.0245624 0.0301459 -1.87016e-18 -0.0245591 3.47088e-19 -3.30176e-06)
(0.0419335 0.0057468 -1.22563e-18 -0.0419297 7.60782e-19 -3.78852e-06)
(0.0529465 -0.0115068 -3.13777e-18 -0.0529439 -1.19672e-19 -2.59521e-06)
(-0.0802972 0.0883834 1.17748e-19 0.0802995 4.09882e-19 -2.32419e-06)
(-0.031548 0.0712907 1.3328e-19 0.031553 9.36822e-19 -4.96666e-06)
(-0.000154819 0.0478207 -6.68474e-19 0.000161595 1.0772e-18 -6.77548e-06)
(0.0234012 0.0284004 1.80616e-18 -0.023394 1.14519e-19 -7.22037e-06)
(0.0392656 0.0140117 2.3837e-18 -0.0392611 2.55706e-18 -4.44203e-06)
(-0.111719 0.0631037 2.97887e-19 0.111723 2.25343e-19 -3.381e-06)
(-0.0687655 0.0580868 5.24853e-19 0.0687727 2.06493e-19 -7.22676e-06)
(-0.032623 0.0435118 2.13745e-18 0.0326327 1.18081e-18 -9.73305e-06)
(-0.00426917 0.0309317 1.20354e-18 0.00427927 -4.50622e-19 -1.01011e-05)
(0.0157243 0.0212751 2.35178e-18 -0.0157184 -1.9615e-19 -5.94116e-06)
(-0.131173 0.0230095 1.32972e-19 0.131177 -3.55331e-21 -4.21003e-06)
(-0.0936411 0.0224349 4.69427e-19 0.0936501 4.47067e-20 -8.99979e-06)
(-0.0551173 0.01751 1.68875e-18 0.0551293 -1.4049e-19 -1.20448e-05)
(-0.0241249 0.0131626 1.45997e-19 0.0241372 -6.13799e-19 -1.23119e-05)
(-0.00174008 0.00977843 -1.12628e-19 0.00174713 -2.12552e-18 -7.05405e-06)
)
;

boundaryField
{
    out
    {
        type            mySigma;
    }
    in
    {
        type            mySigma;
    }
    frontAndBack
    {
        type            empty;
    }
}


// ************************************************************************* //
