/*--------------------------------*- C++ -*----------------------------------*\
| =========                 |                                                 |
| \\      /  F ield         | foam-extend: Open Source CFD                    |
|  \\    /   O peration     | Version:  3.0                                   |
|   \\  /    A nd           | Web:         http://www.extend-project.de       |
|    \\/     M anipulation  |                                                 |
\*---------------------------------------------------------------------------*/
FoamFile
{
    version     2.0;
    format      ascii;
    class       regIOobject;
    location    "40/uniform";
    object      profilingInfo;
}
// * * * * * * * * * * * * * * * * * * * * * * * * * * * * * * * * * * * * * //

profilingInfo
(

    {
        id              11;
        parentId        9;
        description     "Foam::Time::writeObject - outputTime";
        calls           1;
        totalTime       0.001039;
        childTime       0;
        onStack         1;
    }

    {
        id              9;
        parentId        1;
        description     "Foam::Time::writeObject";
        calls           4000;
        totalTime       0.018664;
        childTime       0.001039;
        onStack         1;
    }

    {
        id              1;
        description     "application::main";
        calls           1;
        totalTime       6.06279;
        childTime       1.05998;
        onStack         1;
    }

    {
        id              3;
        parentId        2;
        description     "functionObjectList::read";
        calls           1;
        totalTime       2.1e-05;
        childTime       0;
        onStack         0;
    }

    {
        id              10;
        parentId        1;
        description     "functionObjects_.execute()";
        calls           3999;
        totalTime       0.015157;
        childTime       0;
        onStack         0;
    }

    {
        id              2;
        parentId        1;
        description     "functionObjects_.start()";
        calls           1;
        totalTime       7.6e-05;
        childTime       2.1e-05;
        onStack         0;
    }

    {
        id              7;
        parentId        1;
        description     "fvMatrix::solve_Theta";
        calls           4000;
        totalTime       0.226906;
        childTime       0.039919;
        onStack         0;
    }

    {
        id              4;
        parentId        1;
        description     "fvMatrix::solve_s";
        calls           4000;
        totalTime       0.799173;
        childTime       0.35029;
        onStack         0;
    }

    {
        id              8;
        parentId        7;
        description     "lduMatrix::solver_Theta";
        calls           4000;
        totalTime       0.039919;
        childTime       0;
        onStack         0;
    }

    {
        id              5;
        parentId        4;
        description     "lduMatrix::solver_sx";
        calls           4000;
        totalTime       0.176796;
        childTime       0;
        onStack         0;
    }

    {
        id              6;
        parentId        4;
        description     "lduMatrix::solver_sy";
        calls           4000;
        totalTime       0.173494;
        childTime       0;
        onStack         0;
    }
);


// ************************************************************************* //
