/*--------------------------------*- C++ -*----------------------------------*\
| =========                 |                                                 |
| \\      /  F ield         | OpenFOAM: The Open Source CFD Toolbox           |
|  \\    /   O peration     | Version:  2.2.0                                 |
|   \\  /    A nd           | Web:      www.OpenFOAM.org                      |
|    \\/     M anipulation  |                                                 |
\*---------------------------------------------------------------------------*/
FoamFile
{
    version     2.0;
    format      ascii;
    class       volVectorField;
    location    "1.7";
    object      s;
}
// * * * * * * * * * * * * * * * * * * * * * * * * * * * * * * * * * * * * * //

dimensions      [0 1 -1 0 0 0 0];

internalField   nonuniform List<vector> 
1600
(
(1.80517 0.0709274 0)
(1.52991 0.0601107 0)
(1.32533 0.0520723 0)
(1.16776 0.0458814 0)
(1.0426 0.0409639 0)
(0.940709 0.0369605 0)
(0.856092 0.0336359 0)
(0.784652 0.030829 0)
(0.723498 0.0284262 0)
(0.670527 0.026345 0)
(0.62418 0.024524 0)
(0.583272 0.0229168 0)
(0.54689 0.0214873 0)
(0.514317 0.0202075 0)
(0.484984 0.019055 0)
(0.458434 0.0180119 0)
(0.434294 0.0170634 0)
(0.412261 0.0161978 0)
(0.392034 0.015403 0)
(0.373755 0.0146848 0)
(1.79404 0.212343 0)
(1.52048 0.179962 0)
(1.31716 0.155896 0)
(1.16056 0.137362 0)
(1.03617 0.122639 0)
(0.934909 0.110654 0)
(0.850814 0.1007 0)
(0.779815 0.0922971 0)
(0.719037 0.0851036 0)
(0.666393 0.0788728 0)
(0.620332 0.073421 0)
(0.579676 0.0686091 0)
(0.543518 0.0643295 0)
(0.511146 0.0604981 0)
(0.481994 0.0570477 0)
(0.455608 0.0539247 0)
(0.431617 0.0510852 0)
(0.409719 0.0484935 0)
(0.389617 0.0461142 0)
(0.37145 0.043964 0)
(1.77185 0.352447 0)
(1.50167 0.298702 0)
(1.30086 0.258759 0)
(1.14621 0.227995 0)
(1.02336 0.203559 0)
(0.923346 0.183665 0)
(0.84029 0.167144 0)
(0.770169 0.153196 0)
(0.710143 0.141256 0)
(0.65815 0.130914 0)
(0.612659 0.121865 0)
(0.572506 0.113878 0)
(0.536795 0.106775 0)
(0.504823 0.100416 0)
(0.476032 0.0946887 0)
(0.449972 0.089505 0)
(0.426278 0.084792 0)
(0.404652 0.0804902 0)
(0.384798 0.076541 0)
(0.366856 0.0729722 0)
(1.73873 0.490378 0)
(1.4736 0.415601 0)
(1.27655 0.360026 0)
(1.12478 0.317222 0)
(1.00423 0.283223 0)
(0.906089 0.255544 0)
(0.824586 0.232557 0)
(0.755775 0.213151 0)
(0.696871 0.196538 0)
(0.64585 0.182149 0)
(0.601209 0.169558 0)
(0.561806 0.158446 0)
(0.526763 0.148562 0)
(0.495389 0.139714 0)
(0.467136 0.131746 0)
(0.441563 0.124534 0)
(0.418311 0.117976 0)
(0.397089 0.111991 0)
(0.377606 0.106496 0)
(0.36 0.10153 0)
(1.6949 0.625285 0)
(1.43645 0.529938 0)
(1.24437 0.459073 0)
(1.09643 0.404494 0)
(0.978915 0.361141 0)
(0.883246 0.325847 0)
(0.803797 0.296537 0)
(0.736722 0.271791 0)
(0.679303 0.250608 0)
(0.629568 0.23226 0)
(0.586052 0.216206 0)
(0.547643 0.202036 0)
(0.513483 0.189434 0)
(0.4829 0.178151 0)
(0.455359 0.167991 0)
(0.430431 0.158794 0)
(0.407766 0.150433 0)
(0.387078 0.142801 0)
(0.368087 0.135794 0)
(0.350924 0.129463 0)
(1.64061 0.756337 0)
(1.39045 0.641006 0)
(1.20451 0.55529 0)
(1.06131 0.489271 0)
(0.947562 0.436832 0)
(0.854958 0.394141 0)
(0.778054 0.358688 0)
(0.713126 0.328756 0)
(0.657546 0.303133 0)
(0.609404 0.280939 0)
(0.567282 0.261521 0)
(0.530103 0.244381 0)
(0.497037 0.229137 0)
(0.467433 0.21549 0)
(0.440775 0.2032 0)
(0.416645 0.192076 0)
(0.394706 0.181962 0)
(0.374681 0.17273 0)
(0.356298 0.164255 0)
(0.339685 0.156597 0)
(1.57621 0.882726 0)
(1.33587 0.748123 0)
(1.15723 0.648083 0)
(1.01965 0.571033 0)
(0.910368 0.509831 0)
(0.821398 0.460005 0)
(0.747513 0.418627 0)
(0.685134 0.383693 0)
(0.631736 0.353789 0)
(0.585483 0.327886 0)
(0.545014 0.305223 0)
(0.509295 0.285219 0)
(0.477527 0.267428 0)
(0.449085 0.2515 0)
(0.423473 0.237156 0)
(0.40029 0.224173 0)
(0.379212 0.212369 0)
(0.359974 0.201595 0)
(0.342312 0.191704 0)
(0.326351 0.182765 0)
(1.5021 1.00367 0)
(1.27305 0.850627 0)
(1.10282 0.73688 0)
(0.971705 0.649273 0)
(0.86756 0.579685 0)
(0.782774 0.523033 0)
(0.712363 0.475986 0)
(0.652918 0.436266 0)
(0.60203 0.402264 0)
(0.557953 0.372812 0)
(0.519387 0.347043 0)
(0.485347 0.324298 0)
(0.455073 0.30407 0)
(0.427969 0.285959 0)
(0.403561 0.269651 0)
(0.381468 0.254889 0)
(0.361381 0.241467 0)
(0.343047 0.229217 0)
(0.326216 0.21797 0)
(0.311005 0.207807 0)
(1.41872 1.11843 0)
(1.20239 0.947887 0)
(1.0416 0.821135 0)
(0.917768 0.723511 0)
(0.819404 0.645966 0)
(0.739325 0.582837 0)
(0.672822 0.53041 0)
(0.616676 0.486148 0)
(0.568613 0.448258 0)
(0.526982 0.415439 0)
(0.490557 0.386724 0)
(0.458407 0.361379 0)
(0.429813 0.338837 0)
(0.404213 0.318656 0)
(0.38116 0.300482 0)
(0.360294 0.284033 0)
(0.341322 0.269076 0)
(0.324005 0.255425 0)
(0.308108 0.242893 0)
(0.293742 0.231568 0)
(1.3266 1.22629 0)
(1.12431 1.0393 0)
(0.973967 0.900326 0)
(0.858173 0.793287 0)
(0.766197 0.708265 0)
(0.691317 0.639047 0)
(0.629132 0.581564 0)
(0.576632 0.533033 0)
(0.53169 0.491489 0)
(0.492763 0.455505 0)
(0.458703 0.42402 0)
(0.42864 0.396231 0)
(0.401903 0.371515 0)
(0.377966 0.349388 0)
(0.356409 0.329461 0)
(0.336898 0.311425 0)
(0.319158 0.295027 0)
(0.302966 0.280059 0)
(0.288101 0.266318 0)
(0.274668 0.253901 0)
(1.22629 1.3266 0)
(1.0393 1.12431 0)
(0.900326 0.973967 0)
(0.793287 0.858173 0)
(0.708265 0.766196 0)
(0.639047 0.691317 0)
(0.581564 0.629132 0)
(0.533033 0.576632 0)
(0.491489 0.53169 0)
(0.455505 0.492763 0)
(0.42402 0.458703 0)
(0.396231 0.42864 0)
(0.371515 0.401903 0)
(0.349388 0.377966 0)
(0.329461 0.356409 0)
(0.311425 0.336898 0)
(0.295027 0.319158 0)
(0.280059 0.302966 0)
(0.266318 0.288101 0)
(0.253901 0.274668 0)
(1.11843 1.41872 0)
(0.947887 1.20239 0)
(0.821135 1.0416 0)
(0.723511 0.917768 0)
(0.645966 0.819404 0)
(0.582837 0.739325 0)
(0.53041 0.672822 0)
(0.486148 0.616676 0)
(0.448258 0.568613 0)
(0.415439 0.526982 0)
(0.386724 0.490557 0)
(0.361379 0.458407 0)
(0.338837 0.429813 0)
(0.318656 0.404213 0)
(0.300482 0.38116 0)
(0.284033 0.360294 0)
(0.269076 0.341322 0)
(0.255425 0.324005 0)
(0.242893 0.308108 0)
(0.231568 0.293742 0)
(1.00367 1.5021 0)
(0.850627 1.27305 0)
(0.73688 1.10282 0)
(0.649273 0.971705 0)
(0.579686 0.86756 0)
(0.523033 0.782774 0)
(0.475986 0.712363 0)
(0.436266 0.652918 0)
(0.402264 0.60203 0)
(0.372812 0.557953 0)
(0.347043 0.519387 0)
(0.324298 0.485347 0)
(0.30407 0.455073 0)
(0.285959 0.427969 0)
(0.26965 0.403561 0)
(0.254889 0.381468 0)
(0.241467 0.361381 0)
(0.229217 0.343047 0)
(0.21797 0.326216 0)
(0.207807 0.311005 0)
(0.882726 1.57621 0)
(0.748123 1.33587 0)
(0.648083 1.15723 0)
(0.571033 1.01965 0)
(0.509831 0.910368 0)
(0.460005 0.821398 0)
(0.418627 0.747513 0)
(0.383693 0.685134 0)
(0.353789 0.631736 0)
(0.327886 0.585483 0)
(0.305223 0.545014 0)
(0.285219 0.509295 0)
(0.267428 0.477527 0)
(0.2515 0.449085 0)
(0.237156 0.423473 0)
(0.224173 0.40029 0)
(0.212369 0.379212 0)
(0.201595 0.359974 0)
(0.191704 0.342312 0)
(0.182765 0.326351 0)
(0.756337 1.64061 0)
(0.641006 1.39045 0)
(0.55529 1.20451 0)
(0.489271 1.06131 0)
(0.436832 0.947562 0)
(0.394141 0.854958 0)
(0.358688 0.778053 0)
(0.328756 0.713126 0)
(0.303133 0.657546 0)
(0.280939 0.609404 0)
(0.26152 0.567282 0)
(0.244381 0.530103 0)
(0.229137 0.497037 0)
(0.21549 0.467433 0)
(0.2032 0.440775 0)
(0.192076 0.416645 0)
(0.181962 0.394706 0)
(0.17273 0.374681 0)
(0.164255 0.356297 0)
(0.156597 0.339685 0)
(0.625285 1.6949 0)
(0.529938 1.43645 0)
(0.459073 1.24437 0)
(0.404494 1.09643 0)
(0.361141 0.978915 0)
(0.325847 0.883246 0)
(0.296536 0.803797 0)
(0.271791 0.736722 0)
(0.250608 0.679303 0)
(0.23226 0.629568 0)
(0.216206 0.586052 0)
(0.202036 0.547643 0)
(0.189434 0.513483 0)
(0.178151 0.4829 0)
(0.167991 0.455359 0)
(0.158794 0.430431 0)
(0.150433 0.407765 0)
(0.142801 0.387078 0)
(0.135794 0.368086 0)
(0.129463 0.350924 0)
(0.490378 1.73873 0)
(0.415601 1.4736 0)
(0.360026 1.27655 0)
(0.317222 1.12478 0)
(0.283223 1.00423 0)
(0.255544 0.906089 0)
(0.232557 0.824585 0)
(0.213151 0.755775 0)
(0.196538 0.696871 0)
(0.182148 0.64585 0)
(0.169558 0.601209 0)
(0.158446 0.561806 0)
(0.148562 0.526763 0)
(0.139714 0.495389 0)
(0.131746 0.467136 0)
(0.124533 0.441563 0)
(0.117976 0.418311 0)
(0.111991 0.397089 0)
(0.106496 0.377606 0)
(0.10153 0.36 0)
(0.352447 1.77185 0)
(0.298702 1.50167 0)
(0.258759 1.30086 0)
(0.227995 1.14621 0)
(0.203559 1.02336 0)
(0.183665 0.923346 0)
(0.167144 0.84029 0)
(0.153196 0.770169 0)
(0.141256 0.710143 0)
(0.130914 0.65815 0)
(0.121865 0.612659 0)
(0.113878 0.572506 0)
(0.106775 0.536795 0)
(0.100416 0.504823 0)
(0.0946886 0.476032 0)
(0.089505 0.449972 0)
(0.0847919 0.426278 0)
(0.0804902 0.404652 0)
(0.076541 0.384798 0)
(0.0729722 0.366856 0)
(0.212343 1.79404 0)
(0.179961 1.52048 0)
(0.155896 1.31716 0)
(0.137361 1.16056 0)
(0.122639 1.03617 0)
(0.110654 0.934909 0)
(0.1007 0.850813 0)
(0.092297 0.779814 0)
(0.0851034 0.719037 0)
(0.0788727 0.666393 0)
(0.0734209 0.620332 0)
(0.068609 0.579676 0)
(0.0643294 0.543518 0)
(0.060498 0.511146 0)
(0.0570477 0.481994 0)
(0.0539246 0.455608 0)
(0.0510851 0.431617 0)
(0.0484935 0.40972 0)
(0.0461142 0.389617 0)
(0.043964 0.371451 0)
(0.0709274 1.80517 0)
(0.0601107 1.52991 0)
(0.0520722 1.32533 0)
(0.0458813 1.16776 0)
(0.0409638 1.0426 0)
(0.0369604 0.940709 0)
(0.0336357 0.856092 0)
(0.0308289 0.784652 0)
(0.0284261 0.723497 0)
(0.0263449 0.670527 0)
(0.0245239 0.62418 0)
(0.0229166 0.583272 0)
(0.0214872 0.54689 0)
(0.0202074 0.514317 0)
(0.019055 0.484984 0)
(0.0180118 0.458434 0)
(0.0170634 0.434294 0)
(0.0161977 0.412261 0)
(0.015403 0.392034 0)
(0.0146848 0.373755 0)
(-0.0709275 1.80517 0)
(-0.060111 1.52991 0)
(-0.0520727 1.32533 0)
(-0.0458818 1.16776 0)
(-0.0409643 1.0426 0)
(-0.0369609 0.940709 0)
(-0.0336362 0.856092 0)
(-0.0308293 0.784652 0)
(-0.0284266 0.723498 0)
(-0.0263453 0.670527 0)
(-0.0245243 0.62418 0)
(-0.022917 0.583272 0)
(-0.0214875 0.54689 0)
(-0.0202077 0.514317 0)
(-0.0190552 0.484984 0)
(-0.018012 0.458434 0)
(-0.0170636 0.434294 0)
(-0.0161978 0.412261 0)
(-0.0154031 0.392034 0)
(-0.0146849 0.373755 0)
(-0.212343 1.79404 0)
(-0.179962 1.52048 0)
(-0.155896 1.31716 0)
(-0.137362 1.16056 0)
(-0.12264 1.03617 0)
(-0.110654 0.934909 0)
(-0.100701 0.850814 0)
(-0.0922975 0.779815 0)
(-0.0851039 0.719037 0)
(-0.0788731 0.666393 0)
(-0.0734213 0.620332 0)
(-0.0686094 0.579676 0)
(-0.0643298 0.543518 0)
(-0.0604983 0.511146 0)
(-0.0570479 0.481994 0)
(-0.0539248 0.455608 0)
(-0.0510853 0.431617 0)
(-0.0484936 0.40972 0)
(-0.0461142 0.389617 0)
(-0.0439641 0.371451 0)
(-0.352448 1.77185 0)
(-0.298703 1.50167 0)
(-0.258759 1.30086 0)
(-0.227995 1.14621 0)
(-0.203559 1.02336 0)
(-0.183665 0.923346 0)
(-0.167144 0.84029 0)
(-0.153197 0.770169 0)
(-0.141257 0.710143 0)
(-0.130915 0.658151 0)
(-0.121866 0.612659 0)
(-0.113879 0.572506 0)
(-0.106775 0.536795 0)
(-0.100416 0.504824 0)
(-0.0946889 0.476032 0)
(-0.0895052 0.449972 0)
(-0.0847921 0.426278 0)
(-0.0804903 0.404652 0)
(-0.0765411 0.384798 0)
(-0.0729723 0.366856 0)
(-0.490379 1.73873 0)
(-0.415602 1.4736 0)
(-0.360026 1.27655 0)
(-0.317223 1.12478 0)
(-0.283223 1.00423 0)
(-0.255544 0.906089 0)
(-0.232558 0.824586 0)
(-0.213151 0.755775 0)
(-0.196538 0.696871 0)
(-0.182149 0.64585 0)
(-0.169559 0.601209 0)
(-0.158446 0.561806 0)
(-0.148563 0.526763 0)
(-0.139714 0.495389 0)
(-0.131746 0.467136 0)
(-0.124534 0.441563 0)
(-0.117976 0.418312 0)
(-0.111991 0.397089 0)
(-0.106496 0.377606 0)
(-0.101531 0.36 0)
(-0.625286 1.6949 0)
(-0.529938 1.43645 0)
(-0.459073 1.24437 0)
(-0.404494 1.09643 0)
(-0.361141 0.978915 0)
(-0.325847 0.883246 0)
(-0.296537 0.803798 0)
(-0.271792 0.736722 0)
(-0.250608 0.679303 0)
(-0.23226 0.629568 0)
(-0.216206 0.586052 0)
(-0.202036 0.547643 0)
(-0.189434 0.513483 0)
(-0.178151 0.4829 0)
(-0.167991 0.455359 0)
(-0.158794 0.430431 0)
(-0.150433 0.407766 0)
(-0.142801 0.387079 0)
(-0.135794 0.368087 0)
(-0.129463 0.350924 0)
(-0.756338 1.64061 0)
(-0.641007 1.39045 0)
(-0.55529 1.20451 0)
(-0.489272 1.06131 0)
(-0.436833 0.947562 0)
(-0.394142 0.854958 0)
(-0.358688 0.778054 0)
(-0.328756 0.713126 0)
(-0.303133 0.657546 0)
(-0.28094 0.609405 0)
(-0.261521 0.567282 0)
(-0.244381 0.530103 0)
(-0.229138 0.497038 0)
(-0.21549 0.467434 0)
(-0.2032 0.440775 0)
(-0.192076 0.416645 0)
(-0.181962 0.394706 0)
(-0.172731 0.374681 0)
(-0.164256 0.356298 0)
(-0.156597 0.339685 0)
(-0.882726 1.57622 0)
(-0.748124 1.33587 0)
(-0.648083 1.15723 0)
(-0.571033 1.01965 0)
(-0.509831 0.910368 0)
(-0.460006 0.821398 0)
(-0.418628 0.747513 0)
(-0.383694 0.685134 0)
(-0.35379 0.631736 0)
(-0.327887 0.585484 0)
(-0.305223 0.545015 0)
(-0.285219 0.509295 0)
(-0.267428 0.477527 0)
(-0.2515 0.449086 0)
(-0.237157 0.423474 0)
(-0.224174 0.400291 0)
(-0.212369 0.379213 0)
(-0.201595 0.359974 0)
(-0.191704 0.342312 0)
(-0.182766 0.326351 0)
(-1.00367 1.5021 0)
(-0.850628 1.27305 0)
(-0.736881 1.10282 0)
(-0.649274 0.971706 0)
(-0.579686 0.867561 0)
(-0.523034 0.782775 0)
(-0.475987 0.712364 0)
(-0.436266 0.652918 0)
(-0.402264 0.602031 0)
(-0.372813 0.557953 0)
(-0.347044 0.519387 0)
(-0.324299 0.485347 0)
(-0.30407 0.455073 0)
(-0.28596 0.427969 0)
(-0.269651 0.403561 0)
(-0.254889 0.381468 0)
(-0.241468 0.361381 0)
(-0.229217 0.343047 0)
(-0.217971 0.326216 0)
(-0.207807 0.311006 0)
(-1.11843 1.41872 0)
(-0.947888 1.20239 0)
(-0.821135 1.0416 0)
(-0.723511 0.917769 0)
(-0.645967 0.819405 0)
(-0.582837 0.739325 0)
(-0.530411 0.672822 0)
(-0.486149 0.616676 0)
(-0.448259 0.568613 0)
(-0.41544 0.526983 0)
(-0.386725 0.490557 0)
(-0.361379 0.458407 0)
(-0.338838 0.429813 0)
(-0.318657 0.404214 0)
(-0.300483 0.38116 0)
(-0.284033 0.360294 0)
(-0.269077 0.341322 0)
(-0.255426 0.324006 0)
(-0.242893 0.308109 0)
(-0.231568 0.293743 0)
(-1.22629 1.3266 0)
(-1.0393 1.12431 0)
(-0.900327 0.973968 0)
(-0.793288 0.858174 0)
(-0.708266 0.766197 0)
(-0.639047 0.691317 0)
(-0.581565 0.629133 0)
(-0.533034 0.576633 0)
(-0.49149 0.531691 0)
(-0.455506 0.492763 0)
(-0.424021 0.458703 0)
(-0.396231 0.42864 0)
(-0.371516 0.401904 0)
(-0.349388 0.377966 0)
(-0.329462 0.35641 0)
(-0.311426 0.336898 0)
(-0.295027 0.319159 0)
(-0.28006 0.302967 0)
(-0.266319 0.288102 0)
(-0.253901 0.274669 0)
(-1.3266 1.22629 0)
(-1.12431 1.0393 0)
(-0.973968 0.900327 0)
(-0.858174 0.793288 0)
(-0.766197 0.708265 0)
(-0.691318 0.639047 0)
(-0.629133 0.581564 0)
(-0.576633 0.533034 0)
(-0.531691 0.49149 0)
(-0.492764 0.455506 0)
(-0.458704 0.424021 0)
(-0.428641 0.396231 0)
(-0.401904 0.371516 0)
(-0.377966 0.349388 0)
(-0.35641 0.329462 0)
(-0.336899 0.311426 0)
(-0.319159 0.295027 0)
(-0.302967 0.28006 0)
(-0.288102 0.266319 0)
(-0.274669 0.253901 0)
(-1.41872 1.11843 0)
(-1.20239 0.947888 0)
(-1.0416 0.821135 0)
(-0.917769 0.723511 0)
(-0.819405 0.645967 0)
(-0.739326 0.582837 0)
(-0.672823 0.53041 0)
(-0.616677 0.486148 0)
(-0.568614 0.448259 0)
(-0.526983 0.41544 0)
(-0.490558 0.386724 0)
(-0.458407 0.361379 0)
(-0.429814 0.338838 0)
(-0.404214 0.318656 0)
(-0.381161 0.300483 0)
(-0.360294 0.284033 0)
(-0.341322 0.269077 0)
(-0.324006 0.255426 0)
(-0.308109 0.242893 0)
(-0.293743 0.231568 0)
(-1.5021 1.00367 0)
(-1.27305 0.850628 0)
(-1.10282 0.736881 0)
(-0.971706 0.649273 0)
(-0.867561 0.579686 0)
(-0.782775 0.523034 0)
(-0.712364 0.475986 0)
(-0.652919 0.436266 0)
(-0.602031 0.402264 0)
(-0.557954 0.372813 0)
(-0.519388 0.347044 0)
(-0.485348 0.324299 0)
(-0.455074 0.30407 0)
(-0.427969 0.28596 0)
(-0.403561 0.269651 0)
(-0.381469 0.254889 0)
(-0.361382 0.241468 0)
(-0.343048 0.229217 0)
(-0.326216 0.217971 0)
(-0.311006 0.207808 0)
(-1.57622 0.882726 0)
(-1.33587 0.748124 0)
(-1.15723 0.648083 0)
(-1.01965 0.571033 0)
(-0.910369 0.509831 0)
(-0.821399 0.460005 0)
(-0.747514 0.418628 0)
(-0.685135 0.383694 0)
(-0.631737 0.353789 0)
(-0.585484 0.327887 0)
(-0.545015 0.305223 0)
(-0.509296 0.285219 0)
(-0.477528 0.267428 0)
(-0.449086 0.2515 0)
(-0.423474 0.237157 0)
(-0.400291 0.224174 0)
(-0.379213 0.212369 0)
(-0.359975 0.201595 0)
(-0.342313 0.191704 0)
(-0.326352 0.182766 0)
(-1.64062 0.756338 0)
(-1.39045 0.641007 0)
(-1.20452 0.55529 0)
(-1.06131 0.489272 0)
(-0.947563 0.436833 0)
(-0.854959 0.394141 0)
(-0.778055 0.358688 0)
(-0.713127 0.328756 0)
(-0.657547 0.303133 0)
(-0.609405 0.28094 0)
(-0.567283 0.261521 0)
(-0.530104 0.244381 0)
(-0.497038 0.229138 0)
(-0.467434 0.21549 0)
(-0.440776 0.2032 0)
(-0.416646 0.192076 0)
(-0.394707 0.181962 0)
(-0.374682 0.172731 0)
(-0.356298 0.164256 0)
(-0.339685 0.156597 0)
(-1.6949 0.625286 0)
(-1.43645 0.529938 0)
(-1.24437 0.459073 0)
(-1.09643 0.404494 0)
(-0.978916 0.361141 0)
(-0.883247 0.325847 0)
(-0.803798 0.296537 0)
(-0.736723 0.271791 0)
(-0.679304 0.250608 0)
(-0.629569 0.23226 0)
(-0.586053 0.216206 0)
(-0.547644 0.202036 0)
(-0.513484 0.189434 0)
(-0.482901 0.178151 0)
(-0.45536 0.167991 0)
(-0.430432 0.158795 0)
(-0.407766 0.150433 0)
(-0.387079 0.142801 0)
(-0.368087 0.135795 0)
(-0.350925 0.129463 0)
(-1.73874 0.490379 0)
(-1.47361 0.415602 0)
(-1.27655 0.360026 0)
(-1.12478 0.317222 0)
(-1.00423 0.283223 0)
(-0.90609 0.255544 0)
(-0.824587 0.232557 0)
(-0.755776 0.213151 0)
(-0.696872 0.196538 0)
(-0.645851 0.182149 0)
(-0.60121 0.169559 0)
(-0.561807 0.158446 0)
(-0.526764 0.148563 0)
(-0.49539 0.139714 0)
(-0.467137 0.131746 0)
(-0.441564 0.124534 0)
(-0.418312 0.117976 0)
(-0.39709 0.111991 0)
(-0.377607 0.106496 0)
(-0.360001 0.101531 0)
(-1.77185 0.352448 0)
(-1.50167 0.298703 0)
(-1.30087 0.258759 0)
(-1.14621 0.227995 0)
(-1.02336 0.203559 0)
(-0.923347 0.183665 0)
(-0.840291 0.167144 0)
(-0.77017 0.153196 0)
(-0.710144 0.141256 0)
(-0.658152 0.130914 0)
(-0.61266 0.121866 0)
(-0.572507 0.113879 0)
(-0.536796 0.106775 0)
(-0.504824 0.100416 0)
(-0.476033 0.0946889 0)
(-0.449973 0.0895052 0)
(-0.426279 0.0847922 0)
(-0.404653 0.0804904 0)
(-0.384799 0.0765412 0)
(-0.366857 0.0729724 0)
(-1.79404 0.212343 0)
(-1.52048 0.179962 0)
(-1.31716 0.155896 0)
(-1.16056 0.137362 0)
(-1.03618 0.122639 0)
(-0.934911 0.110654 0)
(-0.850815 0.100701 0)
(-0.779816 0.0922972 0)
(-0.719038 0.0851037 0)
(-0.666394 0.0788729 0)
(-0.620333 0.0734212 0)
(-0.579677 0.0686093 0)
(-0.543519 0.0643297 0)
(-0.511147 0.0604982 0)
(-0.481995 0.0570479 0)
(-0.455609 0.0539248 0)
(-0.431618 0.0510853 0)
(-0.40972 0.0484936 0)
(-0.389618 0.0461143 0)
(-0.371451 0.0439642 0)
(-1.80518 0.0709275 0)
(-1.52991 0.0601108 0)
(-1.32533 0.0520724 0)
(-1.16776 0.0458815 0)
(-1.0426 0.040964 0)
(-0.94071 0.0369606 0)
(-0.856093 0.0336359 0)
(-0.784653 0.0308291 0)
(-0.723499 0.0284263 0)
(-0.670528 0.0263451 0)
(-0.624181 0.0245241 0)
(-0.583273 0.0229169 0)
(-0.546891 0.0214874 0)
(-0.514318 0.0202076 0)
(-0.484985 0.0190551 0)
(-0.458435 0.018012 0)
(-0.434295 0.0170635 0)
(-0.412262 0.0161978 0)
(-0.392035 0.0154031 0)
(-0.373756 0.0146849 0)
(-1.80518 -0.0709276 0)
(-1.52991 -0.060111 0)
(-1.32533 -0.0520726 0)
(-1.16776 -0.0458816 0)
(-1.0426 -0.0409641 0)
(-0.94071 -0.0369607 0)
(-0.856093 -0.033636 0)
(-0.784653 -0.0308291 0)
(-0.723499 -0.0284264 0)
(-0.670528 -0.0263451 0)
(-0.624181 -0.0245241 0)
(-0.583273 -0.0229169 0)
(-0.546891 -0.0214874 0)
(-0.514318 -0.0202076 0)
(-0.484985 -0.0190551 0)
(-0.458435 -0.0180119 0)
(-0.434295 -0.0170635 0)
(-0.412262 -0.0161978 0)
(-0.392035 -0.0154031 0)
(-0.373756 -0.0146849 0)
(-1.79404 -0.212343 0)
(-1.52048 -0.179962 0)
(-1.31716 -0.155896 0)
(-1.16056 -0.137362 0)
(-1.03618 -0.12264 0)
(-0.934911 -0.110654 0)
(-0.850815 -0.100701 0)
(-0.779816 -0.0922973 0)
(-0.719038 -0.0851038 0)
(-0.666394 -0.0788729 0)
(-0.620333 -0.0734212 0)
(-0.579677 -0.0686093 0)
(-0.543519 -0.0643297 0)
(-0.511147 -0.0604982 0)
(-0.481995 -0.0570478 0)
(-0.455609 -0.0539248 0)
(-0.431618 -0.0510853 0)
(-0.40972 -0.0484936 0)
(-0.389618 -0.0461143 0)
(-0.371451 -0.0439642 0)
(-1.77185 -0.352448 0)
(-1.50167 -0.298703 0)
(-1.30087 -0.258759 0)
(-1.14621 -0.227995 0)
(-1.02336 -0.203559 0)
(-0.923347 -0.183665 0)
(-0.840291 -0.167144 0)
(-0.77017 -0.153196 0)
(-0.710144 -0.141257 0)
(-0.658152 -0.130914 0)
(-0.61266 -0.121866 0)
(-0.572507 -0.113879 0)
(-0.536796 -0.106775 0)
(-0.504825 -0.100416 0)
(-0.476033 -0.0946889 0)
(-0.449973 -0.0895052 0)
(-0.426279 -0.0847922 0)
(-0.404653 -0.0804904 0)
(-0.384799 -0.0765412 0)
(-0.366857 -0.0729724 0)
(-1.73874 -0.490379 0)
(-1.47361 -0.415602 0)
(-1.27655 -0.360026 0)
(-1.12478 -0.317223 0)
(-1.00423 -0.283223 0)
(-0.90609 -0.255544 0)
(-0.824587 -0.232558 0)
(-0.755776 -0.213151 0)
(-0.696872 -0.196538 0)
(-0.645851 -0.182149 0)
(-0.60121 -0.169559 0)
(-0.561807 -0.158446 0)
(-0.526764 -0.148563 0)
(-0.49539 -0.139714 0)
(-0.467137 -0.131746 0)
(-0.441564 -0.124534 0)
(-0.418312 -0.117976 0)
(-0.39709 -0.111991 0)
(-0.377607 -0.106496 0)
(-0.360001 -0.101531 0)
(-1.6949 -0.625286 0)
(-1.43645 -0.529938 0)
(-1.24437 -0.459074 0)
(-1.09643 -0.404494 0)
(-0.978916 -0.361142 0)
(-0.883247 -0.325847 0)
(-0.803799 -0.296537 0)
(-0.736723 -0.271792 0)
(-0.679304 -0.250608 0)
(-0.629569 -0.23226 0)
(-0.586053 -0.216206 0)
(-0.547644 -0.202036 0)
(-0.513484 -0.189434 0)
(-0.482901 -0.178151 0)
(-0.45536 -0.167991 0)
(-0.430432 -0.158795 0)
(-0.407767 -0.150433 0)
(-0.387079 -0.142801 0)
(-0.368087 -0.135795 0)
(-0.350925 -0.129463 0)
(-1.64062 -0.756338 0)
(-1.39045 -0.641007 0)
(-1.20452 -0.55529 0)
(-1.06131 -0.489272 0)
(-0.947563 -0.436833 0)
(-0.854959 -0.394142 0)
(-0.778055 -0.358688 0)
(-0.713127 -0.328756 0)
(-0.657547 -0.303134 0)
(-0.609405 -0.28094 0)
(-0.567283 -0.261521 0)
(-0.530104 -0.244381 0)
(-0.497038 -0.229138 0)
(-0.467435 -0.21549 0)
(-0.440776 -0.2032 0)
(-0.416646 -0.192076 0)
(-0.394707 -0.181962 0)
(-0.374682 -0.172731 0)
(-0.356298 -0.164256 0)
(-0.339686 -0.156597 0)
(-1.57622 -0.882727 0)
(-1.33587 -0.748124 0)
(-1.15723 -0.648084 0)
(-1.01965 -0.571033 0)
(-0.910369 -0.509831 0)
(-0.821399 -0.460006 0)
(-0.747514 -0.418628 0)
(-0.685135 -0.383694 0)
(-0.631737 -0.35379 0)
(-0.585485 -0.327887 0)
(-0.545016 -0.305223 0)
(-0.509296 -0.285219 0)
(-0.477528 -0.267429 0)
(-0.449086 -0.2515 0)
(-0.423474 -0.237157 0)
(-0.400291 -0.224174 0)
(-0.379213 -0.21237 0)
(-0.359975 -0.201596 0)
(-0.342313 -0.191704 0)
(-0.326352 -0.182766 0)
(-1.5021 -1.00367 0)
(-1.27305 -0.850628 0)
(-1.10282 -0.736881 0)
(-0.971706 -0.649274 0)
(-0.867562 -0.579686 0)
(-0.782776 -0.523034 0)
(-0.712364 -0.475987 0)
(-0.652919 -0.436266 0)
(-0.602031 -0.402265 0)
(-0.557954 -0.372813 0)
(-0.519388 -0.347044 0)
(-0.485348 -0.324299 0)
(-0.455074 -0.304071 0)
(-0.42797 -0.28596 0)
(-0.403562 -0.269651 0)
(-0.381469 -0.254889 0)
(-0.361382 -0.241468 0)
(-0.343048 -0.229217 0)
(-0.326217 -0.217971 0)
(-0.311006 -0.207808 0)
(-1.41872 -1.11843 0)
(-1.20239 -0.947888 0)
(-1.0416 -0.821136 0)
(-0.91777 -0.723512 0)
(-0.819406 -0.645967 0)
(-0.739326 -0.582838 0)
(-0.672823 -0.530411 0)
(-0.616677 -0.486149 0)
(-0.568614 -0.448259 0)
(-0.526983 -0.41544 0)
(-0.490558 -0.386725 0)
(-0.458408 -0.361379 0)
(-0.429814 -0.338838 0)
(-0.404214 -0.318657 0)
(-0.381161 -0.300483 0)
(-0.360295 -0.284033 0)
(-0.341323 -0.269077 0)
(-0.324006 -0.255426 0)
(-0.308109 -0.242894 0)
(-0.293743 -0.231568 0)
(-1.3266 -1.2263 0)
(-1.12431 -1.0393 0)
(-0.973969 -0.900328 0)
(-0.858174 -0.793288 0)
(-0.766198 -0.708266 0)
(-0.691318 -0.639048 0)
(-0.629133 -0.581565 0)
(-0.576633 -0.533034 0)
(-0.531691 -0.49149 0)
(-0.492764 -0.455506 0)
(-0.458704 -0.424021 0)
(-0.428641 -0.396232 0)
(-0.401904 -0.371516 0)
(-0.377967 -0.349389 0)
(-0.35641 -0.329462 0)
(-0.336899 -0.311426 0)
(-0.319159 -0.295027 0)
(-0.302967 -0.28006 0)
(-0.288102 -0.266319 0)
(-0.274669 -0.253901 0)
(-1.2263 -1.3266 0)
(-1.0393 -1.12431 0)
(-0.900327 -0.973969 0)
(-0.793288 -0.858175 0)
(-0.708266 -0.766198 0)
(-0.639048 -0.691318 0)
(-0.581565 -0.629133 0)
(-0.533034 -0.576633 0)
(-0.49149 -0.531691 0)
(-0.455506 -0.492764 0)
(-0.424021 -0.458704 0)
(-0.396232 -0.428641 0)
(-0.371516 -0.401904 0)
(-0.349389 -0.377967 0)
(-0.329462 -0.35641 0)
(-0.311426 -0.336899 0)
(-0.295027 -0.319159 0)
(-0.28006 -0.302967 0)
(-0.266319 -0.288102 0)
(-0.253901 -0.274669 0)
(-1.11843 -1.41872 0)
(-0.947888 -1.20239 0)
(-0.821136 -1.0416 0)
(-0.723512 -0.91777 0)
(-0.645967 -0.819406 0)
(-0.582838 -0.739326 0)
(-0.530411 -0.672823 0)
(-0.486149 -0.616677 0)
(-0.448259 -0.568614 0)
(-0.41544 -0.526983 0)
(-0.386725 -0.490558 0)
(-0.361379 -0.458408 0)
(-0.338838 -0.429814 0)
(-0.318657 -0.404214 0)
(-0.300483 -0.381161 0)
(-0.284033 -0.360295 0)
(-0.269077 -0.341323 0)
(-0.255426 -0.324006 0)
(-0.242894 -0.308109 0)
(-0.231568 -0.293743 0)
(-1.00367 -1.5021 0)
(-0.850628 -1.27305 0)
(-0.736881 -1.10282 0)
(-0.649274 -0.971707 0)
(-0.579686 -0.867562 0)
(-0.523034 -0.782776 0)
(-0.475987 -0.712364 0)
(-0.436266 -0.652919 0)
(-0.402265 -0.602031 0)
(-0.372813 -0.557954 0)
(-0.347044 -0.519388 0)
(-0.324299 -0.485348 0)
(-0.304071 -0.455074 0)
(-0.28596 -0.42797 0)
(-0.269651 -0.403562 0)
(-0.254889 -0.381469 0)
(-0.241468 -0.361382 0)
(-0.229217 -0.343048 0)
(-0.217971 -0.326216 0)
(-0.207808 -0.311006 0)
(-0.882727 -1.57622 0)
(-0.748124 -1.33587 0)
(-0.648084 -1.15723 0)
(-0.571033 -1.01965 0)
(-0.509831 -0.910369 0)
(-0.460006 -0.821399 0)
(-0.418628 -0.747514 0)
(-0.383694 -0.685135 0)
(-0.35379 -0.631737 0)
(-0.327887 -0.585485 0)
(-0.305223 -0.545016 0)
(-0.28522 -0.509296 0)
(-0.267429 -0.477528 0)
(-0.251501 -0.449086 0)
(-0.237157 -0.423474 0)
(-0.224174 -0.400291 0)
(-0.21237 -0.379213 0)
(-0.201596 -0.359975 0)
(-0.191704 -0.342313 0)
(-0.182766 -0.326352 0)
(-0.756338 -1.64062 0)
(-0.641007 -1.39045 0)
(-0.55529 -1.20452 0)
(-0.489272 -1.06131 0)
(-0.436833 -0.947563 0)
(-0.394142 -0.854959 0)
(-0.358688 -0.778055 0)
(-0.328756 -0.713127 0)
(-0.303134 -0.657547 0)
(-0.28094 -0.609405 0)
(-0.261521 -0.567283 0)
(-0.244381 -0.530104 0)
(-0.229138 -0.497038 0)
(-0.21549 -0.467435 0)
(-0.2032 -0.440776 0)
(-0.192076 -0.416646 0)
(-0.181962 -0.394707 0)
(-0.172731 -0.374682 0)
(-0.164256 -0.356298 0)
(-0.156597 -0.339686 0)
(-0.625286 -1.6949 0)
(-0.529938 -1.43645 0)
(-0.459074 -1.24437 0)
(-0.404494 -1.09643 0)
(-0.361142 -0.978916 0)
(-0.325847 -0.883247 0)
(-0.296537 -0.803799 0)
(-0.271792 -0.736723 0)
(-0.250609 -0.679304 0)
(-0.23226 -0.629569 0)
(-0.216206 -0.586053 0)
(-0.202037 -0.547644 0)
(-0.189434 -0.513484 0)
(-0.178152 -0.482901 0)
(-0.167991 -0.45536 0)
(-0.158795 -0.430432 0)
(-0.150433 -0.407766 0)
(-0.142801 -0.387079 0)
(-0.135795 -0.368087 0)
(-0.129463 -0.350925 0)
(-0.490379 -1.73874 0)
(-0.415602 -1.47361 0)
(-0.360026 -1.27655 0)
(-0.317223 -1.12478 0)
(-0.283223 -1.00423 0)
(-0.255544 -0.90609 0)
(-0.232558 -0.824587 0)
(-0.213151 -0.755776 0)
(-0.196538 -0.696872 0)
(-0.182149 -0.645851 0)
(-0.169559 -0.60121 0)
(-0.158446 -0.561807 0)
(-0.148563 -0.526764 0)
(-0.139714 -0.49539 0)
(-0.131746 -0.467137 0)
(-0.124534 -0.441564 0)
(-0.117976 -0.418312 0)
(-0.111991 -0.39709 0)
(-0.106496 -0.377607 0)
(-0.101531 -0.360001 0)
(-0.352448 -1.77185 0)
(-0.298703 -1.50167 0)
(-0.258759 -1.30087 0)
(-0.227995 -1.14621 0)
(-0.203559 -1.02336 0)
(-0.183665 -0.923347 0)
(-0.167145 -0.840291 0)
(-0.153197 -0.77017 0)
(-0.141257 -0.710144 0)
(-0.130915 -0.658152 0)
(-0.121866 -0.61266 0)
(-0.113879 -0.572507 0)
(-0.106775 -0.536796 0)
(-0.100416 -0.504824 0)
(-0.094689 -0.476033 0)
(-0.0895053 -0.449973 0)
(-0.0847922 -0.426279 0)
(-0.0804904 -0.404653 0)
(-0.0765412 -0.384799 0)
(-0.0729724 -0.366857 0)
(-0.212343 -1.79404 0)
(-0.179962 -1.52048 0)
(-0.155897 -1.31716 0)
(-0.137362 -1.16056 0)
(-0.12264 -1.03618 0)
(-0.110654 -0.934911 0)
(-0.100701 -0.850815 0)
(-0.0922975 -0.779816 0)
(-0.0851039 -0.719038 0)
(-0.0788731 -0.666394 0)
(-0.0734214 -0.620333 0)
(-0.0686094 -0.579677 0)
(-0.0643298 -0.543519 0)
(-0.0604983 -0.511147 0)
(-0.057048 -0.481995 0)
(-0.0539249 -0.455609 0)
(-0.0510854 -0.431618 0)
(-0.0484936 -0.40972 0)
(-0.0461143 -0.389618 0)
(-0.0439642 -0.371451 0)
(-0.0709276 -1.80518 0)
(-0.060111 -1.52991 0)
(-0.0520727 -1.32533 0)
(-0.0458818 -1.16776 0)
(-0.0409643 -1.0426 0)
(-0.0369609 -0.94071 0)
(-0.0336362 -0.856093 0)
(-0.0308293 -0.784653 0)
(-0.0284265 -0.723498 0)
(-0.0263453 -0.670528 0)
(-0.0245243 -0.624181 0)
(-0.022917 -0.583273 0)
(-0.0214875 -0.546891 0)
(-0.0202077 -0.514318 0)
(-0.0190552 -0.484985 0)
(-0.018012 -0.458435 0)
(-0.0170636 -0.434295 0)
(-0.0161979 -0.412262 0)
(-0.0154031 -0.392035 0)
(-0.0146849 -0.373756 0)
(1.80517 -0.0709275 0)
(1.79404 -0.212343 0)
(1.77185 -0.352448 0)
(1.73873 -0.490379 0)
(1.6949 -0.625286 0)
(1.64061 -0.756338 0)
(1.57622 -0.882726 0)
(1.5021 -1.00367 0)
(1.41872 -1.11843 0)
(1.3266 -1.22629 0)
(1.22629 -1.3266 0)
(1.11843 -1.41872 0)
(1.00367 -1.5021 0)
(0.882726 -1.57622 0)
(0.756338 -1.64062 0)
(0.625286 -1.6949 0)
(0.490379 -1.73874 0)
(0.352448 -1.77185 0)
(0.212343 -1.79404 0)
(0.0709274 -1.80517 0)
(1.52991 -0.0601109 0)
(1.52048 -0.179962 0)
(1.50167 -0.298703 0)
(1.4736 -0.415602 0)
(1.43645 -0.529938 0)
(1.39045 -0.641007 0)
(1.33587 -0.748124 0)
(1.27305 -0.850628 0)
(1.20239 -0.947888 0)
(1.12431 -1.0393 0)
(1.0393 -1.12431 0)
(0.947888 -1.20239 0)
(0.850628 -1.27305 0)
(0.748124 -1.33587 0)
(0.641007 -1.39045 0)
(0.529938 -1.43645 0)
(0.415602 -1.47361 0)
(0.298703 -1.50167 0)
(0.179962 -1.52048 0)
(0.0601107 -1.52991 0)
(1.32533 -0.0520725 0)
(1.31716 -0.155896 0)
(1.30086 -0.258759 0)
(1.27655 -0.360026 0)
(1.24437 -0.459073 0)
(1.20451 -0.55529 0)
(1.15723 -0.648083 0)
(1.10282 -0.736881 0)
(1.0416 -0.821135 0)
(0.973968 -0.900327 0)
(0.900327 -0.973968 0)
(0.821135 -1.0416 0)
(0.736881 -1.10282 0)
(0.648083 -1.15723 0)
(0.55529 -1.20452 0)
(0.459073 -1.24437 0)
(0.360026 -1.27655 0)
(0.258759 -1.30087 0)
(0.155896 -1.31716 0)
(0.0520723 -1.32533 0)
(1.16776 -0.0458816 0)
(1.16056 -0.137362 0)
(1.14621 -0.227995 0)
(1.12478 -0.317223 0)
(1.09643 -0.404494 0)
(1.06131 -0.489272 0)
(1.01965 -0.571033 0)
(0.971706 -0.649274 0)
(0.917769 -0.723511 0)
(0.858174 -0.793288 0)
(0.793288 -0.858174 0)
(0.723511 -0.917769 0)
(0.649273 -0.971706 0)
(0.571033 -1.01965 0)
(0.489272 -1.06131 0)
(0.404494 -1.09643 0)
(0.317222 -1.12478 0)
(0.227995 -1.14621 0)
(0.137362 -1.16056 0)
(0.0458813 -1.16776 0)
(1.0426 -0.0409641 0)
(1.03617 -0.12264 0)
(1.02336 -0.203559 0)