/*--------------------------------*- C++ -*----------------------------------*\
| =========                 |                                                 |
| \\      /  F ield         | foam-extend: Open Source CFD                    |
|  \\    /   O peration     | Version:  3.0                                   |
|   \\  /    A nd           | Web:         http://www.extend-project.de       |
|    \\/     M anipulation  |                                                 |
\*---------------------------------------------------------------------------*/
FoamFile
{
    version     2.0;
    format      ascii;
    class       volVectorField;
    location    "120";
    object      s;
}
// * * * * * * * * * * * * * * * * * * * * * * * * * * * * * * * * * * * * * //

dimensions      [0 1 -1 0 0 0 0];

internalField   nonuniform List<vector> 
20480
(
(1.50645 0.01479 -3.24219e-20)
(1.44056 0.0141432 -2.89518e-20)
(1.38019 0.0135504 -2.99563e-20)
(1.32467 0.0130054 -2.82699e-20)
(1.27345 0.0125025 -2.76555e-20)
(1.22603 0.012037 -3.02013e-20)
(1.18202 0.0116049 -3.6736e-20)
(1.14106 0.0112027 -4.12181e-20)
(1.10284 0.0108275 -4.33236e-20)
(1.0671 0.0104766 -4.8466e-20)
(1.0336 0.0101477 -5.07407e-20)
(1.00214 0.00983883 -5.44149e-20)
(0.972538 0.0095482 -6.08421e-20)
(0.944634 0.00927424 -6.23705e-20)
(0.918286 0.00901557 -6.07204e-20)
(0.893368 0.00877092 -5.69698e-20)
(0.869766 0.0085392 -5.73878e-20)
(0.847378 0.00831941 -5.6545e-20)
(0.826114 0.00811064 -5.57432e-20)
(0.805891 0.00791209 -5.66371e-20)
(0.786634 0.00772303 -5.49028e-20)
(0.768276 0.00754279 -5.26806e-20)
(0.750755 0.00737078 -5.00112e-20)
(0.734015 0.00720643 -4.55337e-20)
(0.718005 0.00704925 -3.87775e-20)
(0.702679 0.00689878 -3.81035e-20)
(0.687993 0.00675459 -3.47172e-20)
(0.673908 0.00661631 -3.14894e-20)
(0.660389 0.00648358 -2.90778e-20)
(0.647401 0.00635607 -2.37546e-20)
(0.634914 0.00623348 -2.30317e-20)
(0.6229 0.00611552 -2.35024e-20)
(0.611331 0.00600195 -2.53272e-20)
(0.600185 0.00589251 -2.34616e-20)
(0.589438 0.005787 -2.07916e-20)
(0.579069 0.0056852 -1.58753e-20)
(0.569058 0.00558691 -1.38844e-20)
(0.559387 0.00549197 -1.47485e-20)
(0.55004 0.0054002 -1.35538e-20)
(0.541 0.00531144 -1.10851e-20)
(0.532252 0.00522556 -1.10571e-20)
(0.523783 0.00514241 -7.91074e-21)
(0.515579 0.00506186 -1.2063e-20)
(0.507627 0.0049838 -1.09367e-20)
(0.499918 0.00490811 -1.09957e-20)
(0.492439 0.00483468 -9.67234e-21)
(0.48518 0.00476342 -7.60247e-21)
(0.478133 0.00469423 -7.42264e-21)
(0.471287 0.00462702 -8.32873e-21)
(0.464634 0.0045617 -9.68469e-21)
(0.458167 0.00449821 -7.66783e-21)
(0.451877 0.00443645 -5.80963e-21)
(0.445758 0.00437637 -8.49035e-21)
(0.439802 0.0043179 -9.55526e-21)
(0.434003 0.00426097 -9.20876e-21)
(0.428355 0.00420552 -1.01927e-20)
(0.422852 0.00415149 -8.46224e-21)
(0.417489 0.00409883 -1.42818e-20)
(0.41226 0.0040475 -1.69398e-20)
(0.40716 0.00399743 -1.96957e-20)
(0.402185 0.00394859 -2.07892e-20)
(0.39733 0.00390092 -1.89326e-20)
(0.392591 0.00385439 -1.35592e-20)
(0.387964 0.00380897 -5.17518e-21)
(1.50587 0.0443643 -5.98767e-20)
(1.44001 0.042424 -3.17762e-20)
(1.37966 0.040646 -2.27135e-20)
(1.32416 0.0390111 -1.88783e-20)
(1.27296 0.0375025 -1.72638e-20)
(1.22556 0.0361062 -2.65254e-20)
(1.18157 0.0348101 -3.19217e-20)
(1.14062 0.0336038 -3.72869e-20)
(1.10242 0.0324783 -4.53395e-20)
(1.06669 0.0314257 -4.51704e-20)
(1.0332 0.0304392 -4.80844e-20)
(1.00175 0.0295127 -5.89446e-20)
(0.972164 0.0286409 -6.34077e-20)
(0.94427 0.0278191 -6.45867e-20)
(0.917932 0.0270432 -6.3168e-20)
(0.893023 0.0263093 -6.22386e-20)
(0.86943 0.0256143 -6.17324e-20)
(0.847052 0.024955 -5.69591e-20)
(0.825796 0.0243287 -6.33954e-20)
(0.80558 0.0237332 -6.03682e-20)
(0.786331 0.0231661 -5.64121e-20)
(0.76798 0.0226254 -5.66909e-20)
(0.750465 0.0221094 -5.23924e-20)
(0.733732 0.0216165 -4.60384e-20)
(0.717728 0.021145 -3.45275e-20)
(0.702408 0.0206936 -3.65307e-20)
(0.687728 0.0202611 -4.30723e-20)
(0.673649 0.0198463 -2.90573e-20)
(0.660134 0.0194482 -2.13348e-20)
(0.647151 0.0190657 -1.72325e-20)
(0.634669 0.018698 -2.10503e-20)
(0.622659 0.0183442 -2.73566e-20)
(0.611096 0.0180035 -2.63249e-20)
(0.599954 0.0176752 -2.63073e-20)
(0.589211 0.0173587 -2.00447e-20)
(0.578845 0.0170534 -1.17006e-20)
(0.568838 0.0167585 -1.55717e-20)
(0.559172 0.0164738 -1.42329e-20)
(0.549828 0.0161985 -1.4284e-20)
(0.540791 0.0159322 -1.32461e-20)
(0.532047 0.0156746 -8.71564e-21)
(0.523581 0.0154252 -2.9149e-21)
(0.51538 0.0151836 -1.22495e-20)
(0.507432 0.0149494 -1.40296e-20)
(0.499725 0.0147224 -1.17408e-20)
(0.492249 0.0145021 -1.01661e-20)
(0.484993 0.0142884 -4.72141e-21)
(0.477949 0.0140808 -1.11435e-20)
(0.471105 0.0138792 -5.03876e-21)
(0.464455 0.0136833 -3.0324e-21)
(0.45799 0.0134928 -3.84637e-21)
(0.451703 0.0133076 -3.83782e-21)
(0.445586 0.0131274 -9.01006e-21)
(0.439632 0.012952 -1.1121e-20)
(0.433836 0.0127812 -2.46501e-21)
(0.42819 0.0126149 -2.75824e-21)
(0.422689 0.0124528 -3.5301e-21)
(0.417328 0.0122949 -1.13699e-20)
(0.412101 0.0121409 -1.56155e-20)
(0.407003 0.0119907 -2.33672e-20)
(0.40203 0.0118442 -2.83279e-20)
(0.397177 0.0117012 -2.76066e-20)
(0.39244 0.0115617 -1.64214e-20)
(0.387815 0.0114254 -7.97408e-21)
(1.50471 0.0739215 -1.13966e-19)
(1.4389 0.0706884 -2.63749e-20)
(1.37859 0.067726 -1.32207e-20)
(1.32314 0.0650018 -7.80353e-21)
(1.27197 0.0624881 -6.53359e-21)
(1.22462 0.0601616 -1.87657e-20)
(1.18066 0.058002 -2.70643e-20)
(1.13974 0.055992 -3.50759e-20)
(1.10157 0.0541166 -2.83387e-20)
(1.06587 0.0523627 -4.35376e-20)
(1.03241 0.0507189 -4.50745e-20)
(1.00098 0.0491751 -5.73397e-20)
(0.971414 0.0477225 -6.74013e-20)
(0.943542 0.0463533 -5.60033e-20)
(0.917224 0.0450604 -6.54066e-20)
(0.892335 0.0438376 -6.10842e-20)
(0.86876 0.0426795 -6.21865e-20)
(0.846398 0.0415809 -6.37353e-20)
(0.825159 0.0405375 -6.37251e-20)
(0.804959 0.0395451 -6.47729e-20)
(0.785724 0.0386002 -5.51144e-20)
(0.767387 0.0376993 -5.71963e-20)
(0.749887 0.0368396 -4.95157e-20)
(0.733166 0.0360182 -3.66788e-20)
(0.717175 0.0352326 -4.07268e-20)
(0.701866 0.0344805 -3.81949e-20)
(0.687197 0.0337599 -3.32097e-20)
(0.673129 0.0330687 -1.37159e-20)
(0.659625 0.0324053 -1.76491e-20)
(0.646652 0.031768 -1.77971e-20)
(0.63418 0.0311553 -1.62738e-20)
(0.622179 0.0305657 -1.58036e-20)
(0.610624 0.0299981 -2.76942e-21)
(0.599491 0.0294511 -5.04262e-21)
(0.588756 0.0289238 -6.19231e-21)
(0.578399 0.0284149 -8.49727e-21)
(0.5684 0.0279237 3.61656e-22)
(0.55874 0.0274492 4.47763e-21)
(0.549404 0.0269905 -2.50521e-23)
(0.540374 0.0265469 -3.80521e-21)
(0.531637 0.0261177 8.36512e-21)
(0.523177 0.0257021 1.66836e-20)
(0.514982 0.0252995 1.00637e-20)
(0.50704 0.0249093 -6.50842e-21)
(0.49934 0.024531 -1.13524e-20)
(0.491869 0.024164 7.32143e-23)
(0.484619 0.0238078 -7.16229e-21)
(0.47758 0.023462 -2.16761e-21)
(0.470742 0.0231261 5.8423e-21)
(0.464097 0.0227996 1.80641e-20)
(0.457637 0.0224823 1.64873e-20)
(0.451355 0.0221736 -3.34892e-22)
(0.445242 0.0218734 2.51609e-21)
(0.439293 0.0215811 8.45835e-22)
(0.433501 0.0212966 5.24051e-21)
(0.42786 0.0210194 1.51484e-20)
(0.422363 0.0207494 8.60647e-21)
(0.417006 0.0204862 2.06771e-21)
(0.411783 0.0202296 -5.51251e-21)
(0.406689 0.0199794 -1.47133e-20)
(0.40172 0.0197353 -3.12111e-20)
(0.396871 0.019497 -3.5082e-20)
(0.392137 0.0192645 -4.14731e-20)
(0.387516 0.0190374 -3.20825e-20)
(1.50296 0.10345 -1.02099e-19)
(1.43723 0.0989256 9.50714e-21)
(1.377 0.0947798 1.66762e-20)
(1.32161 0.0909674 6.6239e-21)
(1.2705 0.0874496 5.22888e-21)
(1.2232 0.0841937 -1.70486e-20)
(1.17929 0.0811714 -1.69675e-20)
(1.13842 0.0783585 -1.62689e-20)
(1.10029 0.075734 -2.00855e-20)
(1.06463 0.0732795 -4.12219e-20)
(1.03121 0.0709791 -4.34491e-20)
(0.999824 0.0688186 -5.06937e-20)
(0.97029 0.0667858 -5.13867e-20)
(0.94245 0.0648695 -5.57985e-20)
(0.916163 0.0630602 -4.99265e-20)
(0.891302 0.061349 -5.71325e-20)
(0.867754 0.0597282 -6.23938e-20)
(0.845419 0.0581908 -4.56812e-20)
(0.824204 0.0567306 -5.041e-20)
(0.804028 0.0553418 -6.29436e-20)
(0.784815 0.0540194 -4.59767e-20)
(0.766499 0.0527587 -3.73568e-20)
(0.749019 0.0515555 -3.68036e-20)
(0.732318 0.050406 -4.23318e-20)
(0.716345 0.0493066 -5.21949e-20)
(0.701054 0.0482541 -4.20193e-20)
(0.686402 0.0472456 -2.18113e-20)
(0.67235 0.0462784 -3.59305e-20)
(0.658862 0.04535 -1.74926e-20)
(0.645904 0.0444581 -3.51435e-20)
(0.633446 0.0436006 -1.04354e-20)
(0.621459 0.0427755 -2.49304e-21)
(0.609918 0.0419811 -8.98854e-21)
(0.598797 0.0412157 -7.9548e-22)
(0.588075 0.0404776 -6.82423e-21)
(0.57773 0.0397656 1.28486e-20)
(0.567742 0.0390781 6.05225e-21)
(0.558094 0.038414 -1.43989e-20)
(0.548768 0.0377721 -3.18206e-21)
(0.539749 0.0371513 -6.89135e-22)
(0.531021 0.0365506 -2.98107e-21)
(0.522572 0.035969 8.04037e-21)
(0.514386 0.0354056 -2.9595e-21)
(0.506454 0.0348596 -5.04626e-22)
(0.498762 0.0343302 -3.51733e-21)
(0.4913 0.0338166 -1.00981e-20)
(0.484059 0.0333181 -1.36469e-20)
(0.477027 0.0328341 1.88864e-20)
(0.470197 0.032364 8.41103e-21)
(0.46356 0.0319072 1.15473e-20)
(0.457108 0.0314631 1.29973e-20)
(0.450832 0.0310311 1.79245e-20)
(0.444727 0.0306109 5.14398e-21)
(0.438785 0.0302019 -3.19742e-22)
(0.432999 0.0298037 1.90177e-20)
(0.427364 0.0294158 1.411e-20)
(0.421874 0.0290379 2.08721e-21)
(0.416523 0.0286696 -7.51036e-22)
(0.411306 0.0283105 8.82316e-21)
(0.406219 0.0279603 -6.48819e-21)
(0.401255 0.0276187 -4.71179e-20)
(0.396411 0.0272853 -5.51838e-20)
(0.391683 0.0269599 -8.98847e-20)
(0.387067 0.0266421 -2.09766e-19)
(1.50064 0.132939 -9.04226e-21)
(1.43501 0.127125 4.76053e-20)
(1.37487 0.121797 3.15645e-20)
(1.31957 0.116898 1.90482e-20)
(1.26854 0.112377 2.2484e-20)
(1.22131 0.108193 3.96783e-21)
(1.17747 0.10431 -1.23042e-20)
(1.13667 0.100695 -1.7323e-20)
(1.09859 0.0973222 -1.11674e-20)
(1.06299 0.094168 -1.78369e-20)
(1.02962 0.0912119 -3.98143e-20)
(0.99828 0.0884356 -2.35486e-20)
(0.968791 0.0858233 -5.73389e-20)
(0.940995 0.0833608 -6.04291e-20)
(0.914748 0.0810357 -5.24729e-20)
(0.889926 0.0788367 -5.4126e-20)
(0.866414 0.0767539 -6.22255e-20)
(0.844113 0.0747783 -5.39483e-20)
(0.822931 0.0729018 -4.52157e-20)
(0.802786 0.0711172 -5.35894e-20)
(0.783603 0.0694178 -4.49631e-20)
(0.765316 0.0677978 -5.28167e-20)
(0.747862 0.0662516 -6.10399e-20)
(0.731187 0.0647744 -4.45105e-20)
(0.715239 0.0633616 -2.30468e-20)
(0.699971 0.0620091 -2.59513e-20)
(0.685342 0.0607131 -9.4805e-21)
(0.671312 0.0594702 -2.92589e-20)
(0.657844 0.0582771 -4.26243e-20)
(0.644907 0.057131 -3.44047e-20)
(0.632468 0.056029 -1.80844e-20)
(0.6205 0.0549688 -4.51214e-21)
(0.608976 0.053948 -3.39505e-22)
(0.597873 0.0529643 -1.13254e-20)
(0.587167 0.0520159 -6.68251e-21)
(0.576837 0.0511009 2.64922e-21)
(0.566865 0.0502175 -2.6432e-21)
(0.557232 0.0493641 -9.85033e-21)
(0.547921 0.0485392 5.54144e-21)
(0.538915 0.0477414 -2.40708e-20)
(0.530201 0.0469695 -4.47549e-22)
(0.521765 0.0462221 -8.46243e-22)
(0.513592 0.0454981 -2.58368e-21)
(0.505672 0.0447964 -1.99574e-20)
(0.497992 0.0441161 -2.43277e-20)
(0.490542 0.0434561 -2.53698e-20)
(0.483311 0.0428156 -1.42666e-20)
(0.476291 0.0421936 1.14061e-20)
(0.469471 0.0415895 2.12745e-20)
(0.462844 0.0410024 4.4275e-20)
(0.456402 0.0404317 3.87989e-20)
(0.450136 0.0398767 3.5999e-20)
(0.44404 0.0393366 2.9433e-20)
(0.438107 0.038811 1.85403e-20)
(0.432331 0.0382993 1.16029e-20)
(0.426704 0.0378009 -7.9486e-21)
(0.421223 0.0373153 1.20543e-20)
(0.41588 0.036842 4.27076e-21)
(0.410671 0.0363805 7.82517e-21)
(0.405591 0.0359305 -1.0129e-20)
(0.400636 0.0354915 -3.05995e-20)
(0.395799 0.0350631 -4.7396e-21)
(0.391079 0.0346449 -2.22042e-20)
(0.386469 0.0342365 -2.97988e-20)
(1.49774 0.162377 5.2421e-20)
(1.43224 0.155275 8.18844e-20)
(1.37222 0.148767 6.4612e-20)
(1.31702 0.142783 4.70461e-20)
(1.26609 0.137262 2.56305e-20)
(1.21895 0.132151 2.45417e-20)
(1.17519 0.127408 9.94627e-21)
(1.13447 0.122992 -6.45669e-22)
(1.09647 0.118873 -8.81034e-21)
(1.06094 0.11502 1.25578e-22)
(1.02763 0.11141 -3.97934e-20)
(0.996351 0.108018 -3.35165e-20)
(0.96692 0.104828 -5.29856e-20)
(0.939177 0.10182 -4.62093e-20)
(0.912981 0.0989799 -2.58229e-20)
(0.888206 0.096294 -4.76937e-20)
(0.864741 0.09375 -7.11155e-20)
(0.842482 0.0913369 -3.68791e-20)
(0.821341 0.0890449 -4.25853e-20)
(0.801235 0.0868651 -6.83919e-20)
(0.782089 0.0847895 -5.96615e-20)
(0.763837 0.0828107 -6.77727e-20)
(0.746417 0.0809221 -4.83133e-20)
(0.729774 0.0791178 -5.08603e-20)
(0.713857 0.0773921 -3.12084e-20)
(0.698619 0.0757401 -2.64023e-20)
(0.684018 0.0741572 -2.34515e-20)
(0.670015 0.072639 -5.76885e-20)
(0.656573 0.0711818 -5.85484e-20)
(0.643661 0.0697819 -4.21222e-20)
(0.631246 0.0684359 -2.34525e-20)
(0.619301 0.0671409 -2.75802e-20)
(0.607799 0.065894 -3.70356e-20)
(0.596717 0.0646926 -8.41625e-21)
(0.586032 0.0635341 -1.23309e-20)
(0.575723 0.0624165 -2.15037e-20)
(0.56577 0.0613374 -4.11611e-20)
(0.556155 0.0602951 -2.82885e-21)
(0.546862 0.0592875 1.07462e-20)
(0.537874 0.0583131 1.01911e-20)
(0.529177 0.0573702 3.60746e-21)
(0.520757 0.0564573 2.62256e-20)
(0.5126 0.055573 -1.15877e-20)
(0.504695 0.054716 8.67764e-21)
(0.49703 0.053885 -1.5927e-20)
(0.489594 0.0530789 -2.67152e-20)
(0.482377 0.0522965 2.90389e-20)
(0.47537 0.0515368 3.18215e-20)
(0.468564 0.0507989 8.51416e-21)
(0.46195 0.0500819 2.35369e-20)
(0.45552 0.0493848 2.31503e-20)
(0.449266 0.0487068 2.54181e-20)
(0.443182 0.0480472 2.63245e-20)
(0.437261 0.0474052 2.91401e-20)
(0.431495 0.0467802 3.25557e-20)
(0.42588 0.0461714 -7.8548e-21)
(0.420409 0.0455782 1.10679e-20)
(0.415077 0.0450001 2.01353e-20)
(0.409878 0.0444365 2.17474e-20)
(0.404808 0.0438869 3.15347e-20)
(0.399862 0.0433506 2.00566e-20)
(0.395035 0.0428273 4.40691e-21)
(0.390323 0.0423165 -1.9916e-20)
(0.385723 0.0418178 -3.74794e-20)
(1.49427 0.191751 1.31433e-19)
(1.42891 0.183365 1.39177e-19)
(1.36903 0.17568 1.21356e-19)
(1.31396 0.168614 9.061e-20)
(1.26315 0.162093 4.34977e-20)
(1.21612 0.156058 2.86095e-20)
(1.17247 0.150456 1.0301e-20)
(1.13184 0.145243 -5.9654e-21)
(1.09393 0.140378 9.47272e-21)
(1.05847 0.135828 2.83912e-21)
(1.02524 0.131564 -7.32005e-22)
(0.994038 0.12756 -2.10519e-20)
(0.964675 0.123792 -2.46372e-20)
(0.936996 0.12024 -1.44846e-20)
(0.910861 0.116886 -5.17393e-20)
(0.886144 0.113714 -4.01421e-20)
(0.862733 0.11071 -6.1254e-20)
(0.840527 0.10786 -7.40478e-20)
(0.819435 0.105154 -5.34529e-20)
(0.799375 0.10258 -7.86113e-20)
(0.780274 0.100128 -6.30234e-20)
(0.762064 0.0977917 -1.02478e-19)
(0.744685 0.0955615 -7.4972e-20)
(0.72808 0.0934307 -4.66401e-20)
(0.7122 0.0913929 -2.77063e-20)
(0.696997 0.089442 -2.53668e-20)
(0.68243 0.0875727 -4.21387e-21)
(0.66846 0.0857799 -2.77404e-20)
(0.655049 0.084059 -3.12519e-20)
(0.642166 0.0824058 -2.21249e-20)
(0.62978 0.0808164 -3.58866e-20)
(0.617863 0.0792871 -4.47924e-20)
(0.606388 0.0778146 -2.32194e-20)
(0.595332 0.0763959 -3.13125e-20)
(0.584672 0.0750279 2.02847e-20)
(0.574387 0.073708 7.72599e-23)
(0.564457 0.0724338 7.70986e-21)
(0.554864 0.0712028 3.90922e-21)
(0.545593 0.070013 -3.07451e-20)
(0.536626 0.0688624 1.98245e-20)
(0.527949 0.0677489 -1.95974e-21)
(0.519548 0.0666708 -2.37376e-20)
(0.51141 0.0656265 -8.83533e-21)
(0.503523 0.0646145 6.98277e-21)
(0.495876 0.0636331 5.06144e-21)
(0.488457 0.0626812 -3.27004e-21)
(0.481258 0.0617573 2.45323e-20)
(0.474267 0.0608602 2.96694e-20)
(0.467476 0.0599888 -4.37422e-21)
(0.460878 0.059142 3.2431e-20)
(0.454463 0.0583188 3.85034e-20)
(0.448224 0.0575182 5.4135e-20)
(0.442154 0.0567392 1.9181e-20)
(0.436246 0.0559811 3.83891e-20)
(0.430494 0.055243 2.76694e-21)
(0.424891 0.0545241 7.95521e-21)
(0.419433 0.0538236 3.26934e-20)
(0.414113 0.053141 5.37266e-20)
(0.408926 0.0524754 5.35968e-20)
(0.403868 0.0518263 8.84562e-20)
(0.398933 0.051193 8.19393e-20)
(0.394118 0.050575 3.71407e-20)
(0.389417 0.0499718 -3.52953e-20)
(0.384827 0.0493829 -3.0327e-19)
(1.49021 0.221053 2.95687e-19)
(1.42504 0.211384 1.97071e-19)
(1.36532 0.202526 1.43575e-19)
(1.3104 0.194379 9.98081e-20)
(1.25972 0.186863 5.33872e-20)
(1.21282 0.179905 3.3803e-20)
(1.16929 0.173447 1.02328e-20)
(1.12877 0.167437 -1.08464e-20)
(1.09096 0.161829 2.43155e-20)
(1.0556 0.156584 4.49127e-21)
(1.02246 0.151668 -1.17441e-20)
(0.991342 0.147052 -3.7394e-21)
(0.962059 0.142708 -2.6156e-20)
(0.934455 0.138613 -3.27333e-20)
(0.908391 0.134747 -5.26846e-20)
(0.883741 0.131091 -4.02183e-20)
(0.860393 0.127627 -5.54976e-20)
(0.838247 0.124342 -5.33447e-20)
(0.817212 0.121222 -6.23352e-20)
(0.797207 0.118254 -8.8302e-20)
(0.778158 0.115429 -8.29475e-20)
(0.759997 0.112735 -4.80207e-20)
(0.742665 0.110164 -4.76075e-20)
(0.726105 0.107708 -6.37647e-20)
(0.710268 0.105358 -1.09643e-20)
(0.695107 0.103109 -4.04646e-20)
(0.680579 0.100954 -3.5942e-21)
(0.666646 0.0988877 -1.56937e-20)
(0.653273 0.0969039 -1.63797e-20)
(0.640425 0.094998 -3.99252e-20)
(0.628072 0.0931657 -5.31446e-20)
(0.616187 0.0914028 -3.32583e-20)
(0.604744 0.0897053 -3.85101e-20)
(0.593718 0.0880697 2.11006e-21)
(0.583086 0.0864927 1.13686e-20)
(0.572829 0.0849711 -1.28732e-20)
(0.562926 0.0835022 6.42893e-21)
(0.55336 0.0820831 -1.32016e-20)
(0.544113 0.0807115 7.84425e-21)
(0.53517 0.079385 -9.25242e-22)
(0.526517 0.0781014 -6.75922e-21)
(0.518139 0.0768586 6.11362e-21)
(0.510023 0.0756548 -7.9072e-21)
(0.502157 0.074488 -3.50384e-20)
(0.494531 0.0733567 -3.25565e-20)
(0.487133 0.0722593 2.76863e-20)
(0.479952 0.0711942 -1.06935e-20)
(0.472981 0.0701601 2.89663e-20)
(0.466209 0.0691555 6.46828e-20)
(0.459628 0.0681793 2.81565e-20)
(0.45323 0.0672303 3.45816e-20)
(0.447008 0.0663074 4.10272e-20)
(0.440954 0.0654094 4.60628e-20)
(0.435063 0.0645355 1.87557e-20)
(0.429326 0.0636845 3.24609e-20)
(0.423739 0.0628558 5.38019e-20)
(0.418295 0.0620483 6.23272e-20)
(0.41299 0.0612613 6.19009e-20)
(0.407817 0.060494 7.48244e-20)
(0.402773 0.0597457 9.52476e-20)
(0.397851 0.0590157 1.66387e-19)
(0.393049 0.0583033 2.22021e-19)
(0.388361 0.0576079 3.27985e-19)
(0.383784 0.0569289 4.82925e-19)
(1.48559 0.250268 3.06752e-19)
(1.42061 0.239323 2.46584e-19)
(1.36108 0.229293 1.64128e-19)
(1.30633 0.22007 1.10082e-19)
(1.25581 0.21156 6.65617e-20)
(1.20906 0.203683 3.0095e-20)
(1.16566 0.196371 -6.93747e-22)
(1.12526 0.189566 -1.25106e-20)
(1.08757 0.183217 -7.46029e-21)
(1.05232 0.177279 1.62438e-20)
(1.01929 0.171714 -9.57476e-21)
(0.988264 0.166487 -4.3374e-20)
(0.959071 0.161569 -3.44829e-20)
(0.931553 0.156933 -4.45555e-20)
(0.90557 0.152556 -6.96417e-20)
(0.880997 0.148416 -5.05664e-20)
(0.857722 0.144495 -5.92783e-20)
(0.835644 0.140776 -5.20043e-20)
(0.814675 0.137244 -6.05845e-20)
(0.794731 0.133884 -9.15786e-20)
(0.775741 0.130685 -9.63759e-20)
(0.757637 0.127635 -5.12909e-20)
(0.740359 0.124724 -6.29918e-20)
(0.723851 0.121943 -5.05874e-20)
(0.708063 0.119283 -4.17802e-20)
(0.692949 0.116737 -5.44332e-20)
(0.678466 0.114297 -1.85711e-20)
(0.664576 0.111957 -1.40282e-20)
(0.651244 0.109711 -3.9091e-20)
(0.638436 0.107554 -6.76745e-20)
(0.626122 0.105479 -4.37484e-20)
(0.614274 0.103483 -5.65424e-20)
(0.602866 0.101561 -4.33458e-20)
(0.591874 0.0997096 8.10879e-21)
(0.581276 0.0979241 -2.04856e-20)
(0.57105 0.0962015 -1.57525e-20)
(0.561178 0.0945384 -9.75729e-21)
(0.551641 0.0929318 -1.91585e-20)
(0.542423 0.0913789 -4.46633e-20)
(0.533508 0.0898771 -2.56927e-20)
(0.524882 0.0884238 2.79986e-20)
(0.51653 0.0870168 9.12777e-21)
(0.508439 0.0856538 1.4116e-20)
(0.500598 0.0843329 1.30408e-20)
(0.492995 0.0830521 -2.91183e-20)
(0.48562 0.0818096 1.77336e-20)
(0.478462 0.0806037 2.66652e-20)
(0.471512 0.0794329 3.34686e-20)
(0.464761 0.0782956 5.44511e-20)
(0.4582 0.0771904 1.33055e-20)
(0.451823 0.0761159 3.04788e-20)
(0.44562 0.075071 3.06877e-20)
(0.439585 0.0740544 -5.29559e-21)
(0.433712 0.0730649 5.93652e-20)
(0.427993 0.0721015 4.47529e-20)
(0.422423 0.0711632 5.34768e-20)
(0.416997 0.070249 1.12827e-19)
(0.411708 0.069358 1.13857e-19)
(0.406551 0.0684893 1.53534e-19)
(0.401522 0.0676421 2.02762e-19)
(0.396616 0.0668156 2.11391e-19)
(0.391828 0.066009 3.49133e-19)
(0.387155 0.0652218 5.54833e-19)
(0.382592 0.0644531 9.10389e-19)
(1.48039 0.279388 4.03078e-19)
(1.41564 0.267168 2.92165e-19)
(1.35631 0.255972 1.50977e-19)
(1.30176 0.245675 1.18334e-19)
(1.25142 0.236175 7.83288e-20)
(1.20482 0.227382 6.58452e-20)
(1.16158 0.219219 2.46141e-20)
(1.12132 0.211623 -8.94777e-21)
(1.08376 0.204535 -1.31691e-20)
(1.04864 0.197906 1.62596e-21)
(1.01572 0.191693 1.89335e-20)
(0.984805 0.185858 -7.61347e-21)
(0.955714 0.180368 -1.06806e-20)
(0.928293 0.175193 -9.95941e-22)
(0.9024 0.170306 -3.50756e-20)
(0.877913 0.165685 -2.1678e-20)
(0.854719 0.161308 -2.12166e-20)
(0.832719 0.157156 -6.70719e-20)
(0.811823 0.153212 -7.08563e-20)
(0.79195 0.149462 -5.83568e-20)
(0.773026 0.14589 -9.02047e-20)
(0.754985 0.142485 -1.49487e-20)
(0.737767 0.139236 -4.08702e-20)
(0.721317 0.136131 -3.48273e-20)
(0.705584 0.133162 -5.51994e-20)
(0.690523 0.13032 -5.23226e-20)
(0.676091 0.127596 -6.48665e-20)
(0.66225 0.124984 -4.39619e-20)
(0.648965 0.122477 -5.76833e-20)
(0.636201 0.120068 -2.67204e-20)
(0.62393 0.117752 -5.74955e-20)
(0.612124 0.115524 -4.63854e-20)
(0.600756 0.113378 -2.97858e-20)
(0.589802 0.111311 -1.95811e-20)
(0.579241 0.109318 -2.85283e-20)
(0.569051 0.107395 -2.03317e-20)
(0.559214 0.105538 -6.05868e-21)
(0.54971 0.103745 -6.87051e-20)
(0.540525 0.102011 -2.64026e-20)
(0.531641 0.100335 -3.47346e-20)
(0.523045 0.0987121 -3.2859e-20)
(0.514722 0.0971414 -2.39983e-20)
(0.506659 0.0956198 4.56284e-20)
(0.498846 0.0941452 -9.56237e-21)
(0.49127 0.0927154 -3.61002e-20)
(0.48392 0.0913283 1.87199e-21)
(0.476787 0.0899822 -2.90061e-21)
(0.469861 0.0886751 1.17352e-20)
(0.463134 0.0874055 9.0306e-20)
(0.456597 0.0861717 3.06361e-20)
(0.450241 0.0849722 -1.26496e-20)
(0.44406 0.0838057 2.23514e-20)
(0.438046 0.0826708 2.56051e-20)
(0.432193 0.0815662 4.7878e-20)
(0.426495 0.0804907 7.99457e-20)
(0.420945 0.0794432 8.64085e-20)
(0.415537 0.0784226 7.19872e-20)
(0.410266 0.077428 1.48624e-19)
(0.405128 0.0764582 2.07613e-19)
(0.400117 0.0755124 1.82151e-19)
(0.395228 0.0745897 1.53149e-19)
(0.390457 0.0736894 2.91502e-19)
(0.3858 0.0728105 2.89359e-19)
(0.381253 0.0719523 2.79196e-19)
(1.47462 0.308399 6.63988e-19)
(1.41012 0.294911 3.44975e-19)
(1.35103 0.282552 1.9005e-19)
(1.29668 0.271186 9.00583e-20)
(1.24654 0.260699 8.32856e-20)
(1.20013 0.250993 6.91827e-20)
(1.15705 0.241983 6.36298e-21)
(1.11695 0.233598 -1.45822e-20)
(1.07954 0.225773 3.98093e-20)
(1.04455 0.218456 8.03517e-21)
(1.01176 0.211598 1.91763e-20)
(0.980966 0.205158 1.8573e-20)
(0.951989 0.199098 7.44785e-21)
(0.924674 0.193385 -8.87181e-21)
(0.898883 0.187991 7.4638e-22)
(0.874491 0.18289 -3.59673e-20)
(0.851387 0.178058 -7.94123e-21)
(0.829473 0.173475 -5.47597e-20)
(0.808658 0.169122 -3.88837e-20)
(0.788862 0.164982 -4.95839e-20)
(0.770012 0.161039 -4.91961e-20)
(0.752042 0.157281 -1.69865e-20)
(0.734891 0.153694 -4.25288e-20)
(0.718505 0.150267 -5.48866e-20)
(0.702834 0.14699 -3.04468e-20)
(0.687831 0.143852 -3.71087e-20)
(0.673456 0.140846 -8.27251e-20)
(0.659669 0.137962 -4.241e-20)
(0.646435 0.135194 -5.98131e-20)
(0.633721 0.132536 -4.52839e-20)
(0.621498 0.129979 -5.34217e-20)
(0.609738 0.12752 -4.24457e-20)
(0.598414 0.125151 -9.63067e-21)
(0.587503 0.12287 -2.53555e-20)
(0.576983 0.120669 -5.71864e-20)
(0.566833 0.118547 -3.2738e-20)
(0.557034 0.116497 -3.18452e-20)
(0.547567 0.114518 -6.12203e-20)
(0.538418 0.112604 -4.72272e-21)
(0.529569 0.110753 8.35152e-21)
(0.521006 0.108962 -3.69462e-20)
(0.512715 0.107229 -1.55126e-20)
(0.504684 0.105549 -3.38894e-22)
(0.496901 0.103921 -7.65317e-21)
(0.489355 0.102343 -1.16287e-20)
(0.482034 0.100812 -1.07963e-20)
(0.474929 0.0993259 3.49167e-21)
(0.46803 0.0978831 1.35664e-20)
(0.461329 0.0964816 2.81101e-20)
(0.454817 0.0951197 1.87388e-20)
(0.448486 0.0937957 6.79979e-21)
(0.442329 0.0925081 5.37047e-21)
(0.436339 0.0912553 1.62e-20)
(0.430509 0.090036 8.85422e-20)
(0.424832 0.0888489 9.69424e-20)
(0.419304 0.0876926 1.76776e-20)
(0.413917 0.0865661 4.44227e-20)
(0.408667 0.0854681 1.47932e-19)
(0.403549 0.0843976 1.64697e-19)
(0.398557 0.0833536 1.73608e-19)
(0.393687 0.0823351 2.01708e-19)
(0.388935 0.0813413 2.92248e-19)
(0.384296 0.0803711 4.35441e-19)
(0.379767 0.0794238 8.66982e-19)
(1.46828 0.337292 7.73617e-19)
(1.40406 0.32254 3.66918e-19)
(1.34522 0.309023 2.0895e-19)
(1.29111 0.296593 1.27148e-19)
(1.24118 0.285123 5.05726e-20)
(1.19497 0.274508 2.55575e-20)
(1.15207 0.264654 -2.97802e-21)
(1.11215 0.255482 -1.90954e-21)
(1.0749 0.246925 1.33577e-20)
(1.04006 0.238923 -2.33015e-20)
(1.00741 0.231422 1.34237e-21)
(0.976749 0.224378 3.10108e-21)
(0.947896 0.21775 -1.89511e-20)
(0.920699 0.211503 -5.27752e-20)
(0.895019 0.205603 -6.26641e-20)
(0.870731 0.200024 -3.42257e-20)
(0.847727 0.19474 -2.93651e-20)
(0.825907 0.189727 -2.74476e-20)
(0.805182 0.184966 -4.32636e-20)
(0.785471 0.180438 -4.78754e-20)
(0.766702 0.176126 -2.99398e-20)
(0.748809 0.172016 2.17663e-20)
(0.731732 0.168093 -5.36513e-20)
(0.715416 0.164345 -4.77049e-20)
(0.699812 0.160761 -3.7807e-20)
(0.684874 0.157329 -4.5839e-20)
(0.670561 0.154041 -5.95094e-20)
(0.656833 0.150887 -4.678e-20)
(0.643656 0.14786 -3.25659e-20)
(0.630997 0.144952 -4.13525e-20)
(0.618826 0.142157 -6.92054e-20)
(0.607116 0.139467 -6.24799e-20)
(0.595841 0.136876 -5.96228e-20)
(0.584977 0.134381 -1.09465e-20)
(0.574502 0.131974 -2.56765e-20)
(0.564396 0.129653 -1.61104e-20)
(0.554639 0.127411 -1.83061e-20)
(0.545214 0.125246 -3.82678e-20)
(0.536103 0.123153 -5.6547e-20)
(0.527292 0.121129 2.32555e-21)
(0.518766 0.119171 -4.18227e-21)
(0.510511 0.117274 2.04483e-21)
(0.502515 0.115437 -1.10759e-20)
(0.494765 0.113657 -1.10202e-20)
(0.487251 0.111931 4.83818e-21)
(0.479961 0.110257 -4.68408e-20)
(0.472887 0.108631 1.70429e-20)
(0.466018 0.107053 6.92146e-21)
(0.459345 0.105521 1.08366e-20)
(0.452861 0.104031 1.21192e-20)
(0.446558 0.102583 5.53425e-21)
(0.440427 0.101175 -3.68071e-20)
(0.434463 0.0998047 2.29341e-20)
(0.428658 0.0984711 1.17628e-19)
(0.423006 0.0971728 1.24766e-20)
(0.417501 0.0959082 9.36802e-21)
(0.412138 0.0946761 1.36349e-19)
(0.40691 0.0934753 4.89046e-20)
(0.401814 0.0923045 1.40907e-19)
(0.396843 0.0911627 1.16388e-19)
(0.391995 0.0900488 8.74751e-20)
(0.387263 0.0889618 1.50408e-19)
(0.382644 0.0879008 1.02758e-19)
(0.378134 0.0868648 4.79944e-20)
(1.46137 0.366055 7.52111e-19)
(1.39746 0.350045 3.41377e-19)
(1.33889 0.335375 1.74699e-19)
(1.28504 0.321885 4.78431e-20)
(1.23534 0.309437 -3.45684e-20)
(1.18935 0.297916 -3.72762e-20)
(1.14666 0.287222 -4.19841e-20)
(1.10692 0.277269 -1.53286e-20)
(1.06984 0.267982 -8.2357e-20)
(1.03517 0.259297 -9.91823e-20)
(1.00267 0.251157 -9.86348e-20)
(0.972155 0.243512 -9.50795e-20)
(0.943438 0.236319 -8.70522e-20)
(0.916369 0.229538 -5.94635e-20)
(0.890809 0.223136 -2.25849e-20)
(0.866636 0.217081 -9.50259e-20)
(0.843741 0.211346 -9.98954e-20)
(0.822023 0.205906 -1.44203e-19)
(0.801395 0.200739 -5.43555e-20)
(0.781777 0.195825 -7.94643e-21)
(0.763096 0.191146 1.93142e-20)
(0.745288 0.186685 -1.35281e-20)
(0.728291 0.182427 -1.36933e-20)
(0.712052 0.17836 -4.37428e-20)
(0.696521 0.174469 -3.06786e-20)
(0.681653 0.170745 -4.96265e-20)
(0.667407 0.167177 -5.98553e-20)
(0.653744 0.163754 -5.33059e-20)
(0.640629 0.160469 -4.33204e-20)
(0.628029 0.157313 -7.82106e-20)
(0.615916 0.154279 -5.93317e-20)
(0.604261 0.15136 -7.84855e-20)
(0.593039 0.148549 -3.71825e-20)
(0.582226 0.14584 -4.99073e-20)
(0.571801 0.143229 -2.33287e-20)
(0.561742 0.140709 1.50724e-20)
(0.552031 0.138276 1.83765e-20)
(0.542649 0.135927 -1.7155e-20)
(0.533582 0.133655 -8.37638e-20)
(0.524812 0.131459 -4.48364e-20)
(0.516326 0.129333 9.80982e-21)
(0.50811 0.127275 4.91369e-20)
(0.500151 0.125281 -4.23611e-20)
(0.492438 0.123349 -4.02049e-20)
(0.484959 0.121476 -3.78247e-21)
(0.477704 0.119659 -2.12345e-21)
(0.470663 0.117895 1.9633e-20)
(0.463826 0.116182 -2.52744e-20)
(0.457185 0.114519 -1.54603e-21)
(0.450732 0.112902 2.08032e-20)
(0.444458 0.111331 7.60845e-20)
(0.438356 0.109803 3.17964e-21)
(0.43242 0.108316 -4.80139e-20)
(0.426642 0.106868 -1.37593e-20)
(0.421017 0.105459 2.40215e-21)
(0.415538 0.104087 2.00027e-21)
(0.410199 0.10275 1.25255e-19)
(0.404997 0.101446 1.26951e-19)
(0.399924 0.100176 9.62513e-20)
(0.394977 0.0989366 7.12303e-20)
(0.390151 0.0977277 4.34668e-20)
(0.385441 0.096548 -1.04605e-20)
(0.380844 0.0953965 -2.08842e-19)
(0.376356 0.0942722 -6.53551e-19)
(1.4539 0.394676 5.92562e-19)
(1.39032 0.377415 2.69346e-19)
(1.33205 0.361598 1.33094e-19)
(1.27847 0.347053 3.62613e-20)
(1.22903 0.333632 -6.04576e-20)
(1.18327 0.32121 -3.83731e-20)
(1.14079 0.30968 1.38313e-20)
(1.10126 0.298948 -1.9691e-20)
(1.06438 0.288935 -8.56983e-20)
(1.02988 0.279571 -1.14419e-19)
(0.99755 0.270795 -8.60477e-20)
(0.967186 0.262552 -1.02479e-19)
(0.938617 0.254797 -9.30278e-20)
(0.911686 0.247486 -9.51336e-20)
(0.886257 0.240583 -7.53867e-20)
(0.862207 0.234055 -9.0971e-20)
(0.839428 0.227871 -4.69877e-20)
(0.817822 0.222006 -8.21439e-20)
(0.7973 0.216435 -4.04517e-20)
(0.777782 0.211136 -9.64101e-21)
(0.759196 0.206091 1.43352e-21)
(0.741479 0.201282 -1.67791e-20)
(0.724569 0.196691 -6.48126e-21)
(0.708413 0.192306 -7.30644e-20)
(0.692961 0.188111 -1.11328e-19)
(0.67817 0.184096 -6.05469e-20)
(0.663996 0.180248 -7.49971e-20)
(0.650403 0.176558 -6.31735e-20)
(0.637355 0.173016 -1.08924e-20)
(0.62482 0.169613 -4.77745e-20)
(0.612768 0.166342 -1.00936e-20)
(0.601173 0.163194 -3.64202e-20)
(0.590008 0.160164 -7.94009e-20)
(0.579251 0.157243 -8.6217e-21)
(0.568878 0.154428 -3.59048e-20)
(0.558871 0.151711 -3.89753e-20)
(0.549209 0.149088 -2.42055e-20)
(0.539876 0.146555 -8.38402e-20)
(0.530855 0.144106 8.3563e-21)
(0.52213 0.141737 1.72213e-20)
(0.513687 0.139445 4.47521e-20)
(0.505513 0.137227 2.53748e-20)
(0.497595 0.135077 5.42211e-20)
(0.489922 0.132994 1.18674e-20)
(0.482481 0.130974 4.46784e-20)
(0.475263 0.129015 7.68125e-21)
(0.468257 0.127113 2.73307e-22)
(0.461456 0.125267 -3.99856e-20)
(0.454849 0.123473 -1.19577e-20)
(0.448428 0.12173 1.08879e-19)
(0.442186 0.120036 1.12721e-19)
(0.436116 0.118388 2.56271e-21)
(0.43021 0.116785 -3.1397e-21)
(0.424462 0.115224 4.12243e-20)
(0.418865 0.113705 2.88222e-20)