/*--------------------------------*- C++ -*----------------------------------*\
| =========                 |                                                 |
| \\      /  F ield         | foam-extend: Open Source CFD                    |
|  \\    /   O peration     | Version:  3.0                                   |
|   \\  /    A nd           | Web:         http://www.extend-project.de       |
|    \\/     M anipulation  |                                                 |
\*---------------------------------------------------------------------------*/
FoamFile
{
    version     2.0;
    format      ascii;
    class       volScalarField;
    location    "16";
    object      p;
}
// * * * * * * * * * * * * * * * * * * * * * * * * * * * * * * * * * * * * * //

dimensions      [0 0 0 0 0 0 0];

internalField   nonuniform List<scalar> 
400
(
0.833985
0.825517
0.823252
0.821107
0.823618
0.825897
0.831544
0.836623
0.843992
0.85049
0.858322
0.864972
0.872058
0.877586
0.88268
0.885654
0.887394
0.886
0.88298
0.875061
0.842957
0.834466
0.831814
0.828938
0.83047
0.831643
0.836089
0.839936
0.846025
0.851252
0.857773
0.86315
0.86892
0.873212
0.877028
0.878921
0.879593
0.877632
0.874347
0.866343
0.846091
0.838011
0.835328
0.832368
0.833658
0.834414
0.838426
0.841628
0.847189
0.851637
0.857631
0.862166
0.867511
0.870962
0.874577
0.875702
0.876509
0.873932
0.870863
0.862814
0.849635
0.842057
0.839338
0.836353
0.837197
0.837585
0.840906
0.843532
0.848276
0.852052
0.857191
0.86105
0.865587
0.868456
0.871417
0.87218
0.872641
0.870076
0.867179
0.859626
0.848156
0.841421
0.83919
0.836567
0.837677
0.838114
0.841526
0.84399
0.848718
0.852205
0.857313
0.860849
0.865433
0.868032
0.871195
0.871826
0.872662
0.870197
0.867737
0.860889
0.848213
0.842337
0.840248
0.83802
0.838956
0.8395
0.842529
0.844893
0.849113
0.852395
0.856956
0.860287
0.864376
0.866879
0.869695
0.870449
0.871186
0.869189
0.867021
0.861196
0.843375
0.838499
0.837388
0.835825
0.837471
0.838386
0.841915
0.844449
0.84904
0.852379
0.857279
0.860648
0.865144
0.867764
0.871131
0.872164
0.873625
0.87215
0.870863
0.865947
0.841322
0.837481
0.836609
0.835722
0.83735
0.838685
0.842009
0.844752
0.84901
0.852442
0.856964
0.860425
0.864591
0.867414
0.870594
0.872049
0.87356
0.872829
0.871951
0.868249
0.834104
0.831375
0.831886
0.831878
0.834583
0.836499
0.840628
0.843736
0.848626
0.852303
0.857409
0.861108
0.865934
0.869102
0.873122
0.875118
0.8777
0.877757
0.878152
0.875443
0.831005
0.829472
0.83025
0.831117
0.833861
0.836392
0.840365
0.843844
0.848435
0.852342
0.857092
0.861012
0.86553
0.869048
0.87291
0.875502
0.878171
0.879157
0.879983
0.878651
0.82225
0.821968
0.824513
0.826423
0.830534
0.833752
0.838711
0.842608
0.847944
0.852124
0.857549
0.861748
0.867046
0.87099
0.875888
0.879168
0.883216
0.885183
0.887672
0.887423
0.81913
0.820246
0.823014
0.825948
0.830049
0.833955
0.838681
0.842951
0.847877
0.852251
0.857193
0.861573
0.866434
0.870717
0.875343
0.879271
0.883311
0.886333
0.889171
0.890517
0.809759
0.812303
0.817262
0.821364
0.827028
0.831605
0.837332
0.841912
0.847505
0.852009
0.857527
0.862049
0.867632
0.87226
0.877977
0.882617
0.888284
0.892439
0.897396
0.899939
0.807831
0.81205
0.817076
0.822279
0.827746
0.832922
0.83818
0.842947
0.847871
0.852344
0.857108
0.861583
0.86645
0.871218
0.876382
0.881553
0.886953
0.892205
0.89729
0.901734
0.799126
0.805014
0.812705
0.819121
0.826158
0.831795
0.837823
0.84259
0.847871
0.852143
0.857161
0.861455
0.866751
0.871581
0.877651
0.883374
0.890483
0.896957
0.904697
0.910509
0.80005
0.808032
0.815405
0.82278
0.829179
0.835051
0.84018
0.844719
0.848943
0.852778
0.856676
0.860514
0.8647
0.869241
0.874299
0.880148
0.88648
0.893852
0.901254
0.909409
0.794232
0.804343
0.814592
0.822944
0.830438
0.836224
0.841523
0.845529
0.84955
0.852703
0.856322
0.8595
0.863558
0.867641
0.873028
0.878931
0.886561
0.894989
0.905322
0.915276
0.800913
0.81336
0.822271
0.830667
0.836647
0.841839
0.845644
0.8488
0.851375
0.853594
0.855781
0.858009
0.860585
0.863753
0.867553
0.872724
0.878696
0.887049
0.895996
0.908485
0.802836
0.818086
0.828214
0.836404
0.842005
0.846117
0.849094
0.851064
0.852734
0.853791
0.855081
0.856158
0.85788
0.859913
0.863012
0.867223
0.873013
0.881265
0.891506
0.906579
0.825347
0.836138
0.842121
0.847758
0.850653
0.85302
0.854077
0.854653
0.854773
0.854578
0.854428
0.85425
0.854422
0.855042
0.856203
0.858612
0.861657
0.867292
0.873406
0.884104
)
;

boundaryField
{
    cavity
    {
        type            implicitExtrapolation;
    }
    lid
    {
        type            implicitExtrapolation;
    }
    frontAndBack
    {
        type            empty;
    }
}


// ************************************************************************* //
