/*--------------------------------*- C++ -*----------------------------------*\
| =========                 |                                                 |
| \\      /  F ield         | foam-extend: Open Source CFD                    |
|  \\    /   O peration     | Version:  3.0                                   |
|   \\  /    A nd           | Web:         http://www.extend-project.de       |
|    \\/     M anipulation  |                                                 |
\*---------------------------------------------------------------------------*/
FoamFile
{
    version     2.0;
    format      ascii;
    class       volSymmTensorField;
    location    "6";
    object      sigma;
}
// * * * * * * * * * * * * * * * * * * * * * * * * * * * * * * * * * * * * * //

dimensions      [0 0 0 0 0 0 0];

internalField   nonuniform List<symmTensor> 
672
(
(-0.1656739333 -0.01080905365 -1.168825582e-19 0.164284835 -2.395649575e-20 0.00138909833)
(-0.1532319725 -0.01215002192 -2.703024475e-19 0.1497487746 -1.581673881e-20 0.003483197914)
(-0.1355627471 -0.0118933684 -1.858431002e-19 0.1303345454 -8.558636087e-21 0.0052282017)
(-0.1172999904 -0.01104679707 -7.972395889e-20 0.1106212276 -6.087875178e-21 0.006678762801)
(-0.1000933104 -0.0100266971 -2.95567658e-19 0.09224223433 -4.053819067e-20 0.007851076038)
(-0.08442653127 -0.009019155849 -2.888586651e-19 0.07571591928 -1.472605506e-19 0.008710611988)
(-0.07041209711 -0.008108417018 -4.419035722e-19 0.06119925871 -1.536615018e-19 0.009212838391)
(-0.05804079802 -0.007346659422 -5.387609391e-19 0.04877962248 -3.88012786e-19 0.009261175535)
(-0.04727291097 -0.006759949968 -5.602311787e-19 0.03851600098 -2.482335589e-19 0.008756909991)
(-0.03816183531 -0.006386443867 -3.252676407e-19 0.03062528389 -1.035813473e-20 0.007536551418)
(-0.03076058407 -0.006252954671 -1.059727982e-19 0.02532860965 1.154140707e-19 0.005431974419)
(-0.02531465881 -0.00640958727 -5.660472786e-20 0.02311354979 -1.895920277e-19 0.002201109017)
(-0.162684023 -0.03102038917 -9.66309767e-20 0.1613342787 5.379191656e-21 0.001349744293)
(-0.1484442719 -0.03502165401 -2.566782063e-19 0.1450595532 5.317407509e-20 0.003384718714)
(-0.1302507342 -0.03426983621 -2.144476117e-19 0.1251707493 1.290329015e-19 0.00507998485)
(-0.1119999781 -0.03173992761 -5.225907921e-20 0.1055115998 -5.305988122e-20 0.006488378309)
(-0.0950266164 -0.02865934858 -2.847086758e-19 0.08740084785 6.117401563e-21 0.007625768554)
(-0.07966658479 -0.02557241616 -2.8538322e-19 0.07120796652 -2.395527718e-19 0.008458618271)
(-0.06596383431 -0.02272058864 -5.145540963e-19 0.05701986933 -3.523368265e-19 0.008943964975)
(-0.05386773657 -0.02024807137 -8.381646255e-19 0.04487948634 -5.270847785e-19 0.008988250229)
(-0.04332094575 -0.01821971936 -4.738010259e-19 0.03482472467 -7.81259496e-20 0.008496221078)
(-0.03435468915 -0.01673378346 -1.13905368e-19 0.02704501077 -1.074672539e-19 0.007309678373)
(-0.02701085838 -0.01585197198 -3.160685122e-19 0.02174427555 -1.284762443e-19 0.005266582833)
(-0.02152325156 -0.0156716755 -1.858713031e-19 0.01939012437 -1.607555027e-19 0.002133127191)
(-0.1569077332 -0.05043916981 -2.925682193e-20 0.155617345 -5.146093428e-20 0.001290388197)
(-0.1392879316 -0.05609013323 -1.976012349e-19 0.1360527923 1.202085619e-19 0.003235139279)
(-0.1201324527 -0.05448974995 -2.601785854e-19 0.1152785279 2.291996293e-19 0.004853924755)
(-0.1019367551 -0.05020642308 -2.177033346e-19 0.09573968145 6.052699747e-20 0.006197073689)
(-0.08543840912 -0.04511866343 -3.269218519e-19 0.07815855122 3.597486019e-20 0.007279857903)
(-0.07069372084 -0.040051738 -6.517193758e-19 0.0626233 -1.621384663e-19 0.008070420837)
(-0.05761787554 -0.03536815211 -9.464660864e-19 0.04908963544 -5.653500204e-20 0.008528240099)
(-0.04608267588 -0.03128148326 -9.028758504e-19 0.03751802791 -8.770054876e-20 0.008564647965)
(-0.03599837839 -0.02788538638 -3.19568189e-19 0.02790843103 -8.704878118e-21 0.00808994735)
(-0.0273553288 -0.02532608287 -4.895038654e-19 0.02040064241 -2.524593771e-19 0.006954686391)
(-0.02017689964 -0.02369455715 -3.58082017e-19 0.01517036565 -2.384012857e-19 0.005006533986)
(-0.01468227565 -0.02313116733 -1.012911272e-19 0.01265672018 -1.749559393e-19 0.002025555477)
(-0.1485904202 -0.06860285214 5.081760765e-20 0.147378726 -5.451043285e-20 0.0012116942)
(-0.1264663955 -0.07434534611 -2.306351407e-20 0.1234294957 1.455650114e-19 0.003036899721)
(-0.1060809319 -0.071354451 -1.754963705e-19 0.1015267854 2.341663091e-19 0.004554146527)
(-0.08802741839 -0.06521481243 -2.020207471e-19 0.08221697694 1.562380655e-19 0.005810441448)
(-0.07223412546 -0.0582075391 -2.403880611e-19 0.06541386141 -4.311628514e-20 0.006820264049)
(-0.05837971288 -0.05132011267 -4.500944543e-19 0.05082563305 9.018978521e-20 0.00755407983)
(-0.04620613727 -0.04498050252 -5.866694326e-19 0.03823144453 3.228536333e-19 0.007974692733)
(-0.03548155569 -0.03943720103 -1.212361324e-18 0.02748150348 2.959634989e-19 0.008000052212)
(-0.02607367719 -0.0347976293 -6.79148146e-19 0.01852568767 1.046895734e-19 0.007547989523)
(-0.01791875268 -0.03123722217 -8.488340271e-19 0.01143791364 5.464490594e-19 0.006480839044)
(-0.0110164461 -0.02886665573 -6.93191539e-19 0.006357035948 1.958192159e-19 0.004659410154)
(-0.005568433128 -0.02786554954 -2.254700005e-19 0.003686249746 2.439624615e-19 0.001882183382)
(-0.1380713824 -0.08513411318 -2.029669364e-21 0.1369561075 1.269178195e-19 0.001115274892)
(-0.1109429991 -0.08904912057 6.39502798e-20 0.108149091 2.035955956e-19 0.002793908044)
(-0.08928966814 -0.08400791082 -1.629130929e-19 0.08510307588 2.845483772e-19 0.004186592266)
(-0.07152395788 -0.07589536846 -2.888098127e-19 0.06618770978 1.329969043e-19 0.005336248099)
(-0.05664837477 -0.06708736577 -4.017317745e-19 0.05039199919 -7.797573877e-21 0.006256375577)
(-0.04391204345 -0.05858663891 -3.35333033e-19 0.03699173023 2.164941283e-19 0.00692031322)
(-0.0328608588 -0.05081797733 -1.827543767e-19 0.02556590539 2.885768896e-19 0.007294953411)
(-0.02314671033 -0.04402219546 -9.367608872e-19 0.01584026743 4.216248678e-19 0.007306442902)
(-0.01459005872 -0.03830196901 -4.125502277e-19 0.007708223651 4.252664066e-19 0.006881835074)
(-0.007066057268 -0.03383925159 3.488080993e-19 0.00116800425 3.892877102e-19 0.005898053017)
(-0.0005487807458 -0.0307531046 -6.738475794e-19 -0.00368326472 4.188724023e-19 0.004232045466)
(0.004780205331 -0.02925978987 -2.159859445e-19 -0.006485513849 1.964038033e-19 0.001705308518)
(-0.1257542186 -0.09976020039 3.062228901e-21 0.1247513033 1.625449308e-19 0.001002915314)
(-0.0938383221 -0.09979958333 9.565119591e-20 0.09132751682 2.743356448e-19 0.002510805275)
(-0.07114267132 -0.09201692573 5.755564837e-20 0.06738421533 2.085321206e-19 0.003758455986)
(-0.05387595009 -0.08182437371 -3.228485128e-19 0.04909190455 1.306600808e-19 0.004784045539)
(-0.04010892565 -0.0713603644 -2.003657534e-19 0.03450901143 -1.214483718e-19 0.005599914213)
(-0.02866216799 -0.06148485405 -2.624097301e-19 0.02247942269 2.007011523e-19 0.006182745293)
(-0.01888743813 -0.05254574932 3.751453007e-19 0.01238326526 2.251274596e-20 0.006504172871)
(-0.01032298411 -0.04473103295 -3.871180306e-19 0.003823121728 6.050622341e-20 0.006499862379)
(-0.002744147434 -0.0381197351 -8.802179366e-19 -0.003363407921 9.743272115e-20 0.006107555355)
(0.0040333709 -0.03287639453 -2.291196048e-19 -0.009254439044 4.030210724e-19 0.005221068144)
(0.01005716758 -0.0291169828 7.536709201e-19 -0.01379316188 -1.072423829e-21 0.003735994293)
(0.01516908693 -0.02708600785 -3.79865242e-19 -0.01666938558 6.803167163e-21 0.001500298648)
(-0.1120711654 -0.1123254248 5.221722042e-20 0.1111943859 9.433889441e-20 0.000876779535)
(-0.07631295057 -0.1065620677 9.47359696e-20 0.07411987729 2.571852252e-19 0.002193073278)
(-0.05306602399 -0.09540924922 2.265899994e-19 0.04978785153 5.846904609e-20 0.003278172458)
(-0.03657350025 -0.08306437885 -1.57644647e-19 0.03240855932 -1.124770107e-19 0.004164940932)
(-0.02408092793 -0.07111014718 -6.656403955e-19 0.01921652969 -1.079360983e-19 0.004864398236)
(-0.01403528622 -0.06011291306 -4.26061217e-19 0.008678342369 1.223118281e-19 0.005356943851)
(-0.00562132179 -0.05027349539 -1.419997063e-19 1.87807883e-06 -1.204004718e-20 0.005619443711)
(0.001717876742 -0.04168407591 3.144995392e-20 -0.00731603377 1.877863418e-19 0.005598157027)
(0.008243465987 -0.0343815948 -1.465251522e-19 -0.01348608626 4.034150932e-19 0.005242620273)
(0.0141897033 -0.02849045114 -1.912875755e-20 -0.01865511766 2.652986217e-19 0.004465414362)
(0.01962140413 -0.02411509219 -4.339359454e-19 -0.02280411226 -1.976287426e-19 0.003182708133)
(0.02440885351 -0.02152005158 -6.073987823e-20 -0.02568064338 4.288061776e-19 0.00127178987)
(-0.09744849707 -0.1227891601 2.950909213e-20 0.09670927531 1.043874377e-19 0.0007392217552)
(-0.05944751899 -0.1096577542 1.259149718e-19 0.05760077437 1.691227276e-19 0.001846744621)
(-0.03637639375 -0.09465801549 1.127032273e-19 0.03362134789 2.70318101e-20 0.002755045862)
(-0.02098728399 -0.08014668517 -7.136706573e-21 0.01749605563 -8.817139877e-20 0.003491228354)
(-0.009909162975 -0.06688294585 -5.902808185e-19 0.005844313001 1.823963933e-19 0.004064849974)
(-0.001319028791 -0.05501358439 -6.579850835e-19 -0.003141265408 2.035696649e-19 0.004460294199)
(0.005715547892 -0.04453395255 -7.210748836e-19 -0.01037554954 4.351852545e-19 0.004660001652)
(0.01181491441 -0.03540521461 -1.167799929e-19 -0.01643648918 4.010442713e-19 0.00462157477)
(0.01726265102 -0.02760720019 -2.303910779e-19 -0.02156975692 4.223387824e-19 0.0043071059)
(0.02232653642 -0.02120549759 -2.366999455e-19 -0.02597574267 6.615951636e-19 0.003649206248)
(0.02707920626 -0.01628654752 4.858617638e-19 -0.02966511536 4.994399179e-19 0.002585909102)
(0.03141594724 -0.01312461771 -1.59251812e-19 -0.03244167528 2.204575489e-19 0.00102572804)
(-0.08227098314 -0.1312144108 -4.779135923e-20 0.08167818386 1.393035283e-19 0.0005927992765)
(-0.04413230712 -0.1097149731 1.419243065e-19 0.04265399281 1.048924859e-19 0.001478314308)
(-0.02214168899 -0.09061879945 1.618848227e-19 0.01994262715 -3.703189342e-20 0.002199061835)
(-0.008220846174 -0.07400428446 -1.239560498e-19 0.005444789804 1.602075557e-19 0.00277605637)
(0.001329379912 -0.05962099167 9.295507878e-20 -0.004546650059 2.185890013e-19 0.003217270147)
(0.008460397124 -0.04710988285 -5.178782321e-19 -0.01197163113 3.555053154e-19 0.003511234004)
(0.01415427858 -0.03622126346 -2.656242978e-19 -0.01780040829 4.010630676e-19 0.003646129707)
(0.01905207678 -0.02676208124 -3.004719653e-19 -0.02264344262 5.606234266e-19 0.00359136584)
(0.02344113581 -0.01864593709 3.657008833e-19 -0.02676309286 9.014173453e-19 0.003321957049)
(0.02760130973 -0.01186750099 7.298616514e-19 -0.03039257686 3.808892665e-19 0.002791267125)
(0.03160571168 -0.006491993566 3.117444553e-19 -0.03356549388 -1.907691232e-19 0.001959782201)
(0.03537238747 -0.00279351542 3.406489679e-19 -0.03614054435 -6.03011559e-20 0.000768156879)
(-0.06685673167 -0.1377457607 -1.214595546e-19 0.06641659518 1.151371307e-19 0.0004401364889)
(-0.03098070236 -0.1075868401 -2.452576672e-20 0.02988623138 5.535589981e-20 0.001094470975)
(-0.01107236887 -0.08442428605 -2.473597833e-19 0.009451867253 1.346454103e-19 0.001620501617)
(0.00100356573 -0.06585991872 -1.160578378e-19 -0.003036521459 2.893846505e-19 0.002032955729)
(0.008937347866 -0.05055154822 2.456750784e-20 -0.01127546556 3.477794502e-19 0.002338117696)
(0.0146445489 -0.0375984214 2.86597384e-19 -0.01717326322 2.92624825e-19 0.002528714323)
(0.01907891157 -0.02648999608 -1.188640325e-19 -0.02167759019 2.000252176e-19 0.002598678614)
(0.02285363598 -0.01687045022 1.322295532e-19 -0.02538299037 5.619095238e-19 0.002529354391)
(0.02623888068 -0.008583726107 8.269675332e-19 -0.0285475733 3.531345489e-19 0.002308692628)
(0.0295017209 -0.001548658119 8.410311828e-19 -0.03141262485 -3.948869013e-19 0.001910903952)
(0.0327064224 0.004191591366 -8.301723202e-20 -0.03402529835 -2.450931443e-19 0.001318875943)
(0.03578956285 0.008366891009 1.994793319e-19 -0.03629484907 -8.593542382e-20 0.0005052862181)
(-0.05143654303 -0.142579433 -8.104186158e-20 0.05115266094 4.496238065e-20 0.0002838820818)
(-0.02027344128 -0.1042449117 -6.881378787e-20 0.01957149247 4.436157902e-20 0.0007019488077)
(-0.003451991011 -0.07734857468 -1.192720935e-19 0.002422296749 1.561718478e-19 0.001029694262)
(0.006418209937 -0.05708181471 1.792281291e-20 -0.00769369617 2.127229343e-19 0.001275486233)
(0.01266963717 -0.04104301584 -1.016331384e-19 -0.01411347785 3.427505598e-19 0.001443840684)
(0.01701270127 -0.02780917267 3.3891447e-19 -0.01854432868 2.329481705e-19 0.001531627411)
(0.02029257796 -0.01661917745 1.114416273e-19 -0.02183094807 2.034029305e-19 0.001538370106)
(0.02304511072 -0.006962151509 3.626329216e-19 -0.02450228943 2.75791651e-19 0.001457178711)
(0.02550234792 0.001383995632 4.216284105e-19 -0.02679089901 -7.867756464e-20 0.001288551091)
(0.02789458379 0.00857303901 6.954558381e-20 -0.02892168456 -2.847127541e-19 0.001027100771)
(0.03026909065 0.01458133642 -1.064783273e-19 -0.03094645092 -4.888607672e-20 0.0006773602682)
(0.03257756932 0.01914608685 -1.222591172e-20 -0.0328206682 -3.639050717e-20 0.0002430988773)
(-0.03614809725 -0.1459311177 7.991523638e-20 0.03602146262 -3.071951984e-20 0.000126634628)
(-0.01194220141 -0.1006618531 -4.924646617e-20 0.01163486634 -8.723100932e-21 0.0003073350683)
(0.0008823026596 -0.07065794086 -1.872072849e-19 -0.001319007443 1.068846811e-19 0.0004367047834)
(0.008229685474 -0.0490255623 -2.259918982e-19 -0.008746482651 2.115387273e-19 0.0005167971763)
(0.01275238775 -0.03244837436 -1.386201557e-19 -0.01330268642 3.324968382e-19 0.0005502986685)
(0.01579982034 -0.01905458419 1.63997828e-19 -0.01633788667 2.050178859e-19 0.0005380663286)
(0.01803492885 -0.007868258756 -2.391483493e-19 -0.01851984371 3.041090543e-19 0.0004849148538)
(0.01987135944 0.001753260166 5.225721483e-19 -0.02026662755 2.761441086e-19 0.000395268112)
(0.02148452628 0.01008771297 3.360049562e-19 -0.0217660086 -1.27798449e-19 0.0002814823265)
(0.02304647118 0.01734991166 -8.327540589e-20 -0.02320405974 -3.186811695e-19 0.0001575885563)
(0.02458142436 0.02352898935 -5.98607982e-19 -0.02462989682 -4.921226555e-20 4.847246803e-05)
(0.02605141237 0.02837303352 1.682607498e-19 -0.02603854531 -7.773469681e-21 -1.286706337e-05)
(-0.02103873358 -0.1480009184 6.411998453e-20 0.02106786856 -2.604858879e-20 -2.913498032e-05)
(-0.005592609549 -0.09769407156 -4.025837423e-20 0.005675711304 -1.032518388e-20 -8.310175495e-05)
(0.002509220686 -0.06546186283 -1.620482404e-19 -0.002360316168 9.000112319e-20 -0.0001489045185)
(0.007086094932 -0.04287619557 -1.308700753e-19 -0.006855451244 1.956166585e-19 -0.0002306436876)
(0.009850228996 -0.02594836735 -4.907594943e-21 -0.00952273655 2.785767839e-19 -0.0003274924465)
(0.01166476832 -0.01247824546 5.04630079e-20 -0.01122992583 2.435607964e-19 -0.0004348424896)
(0.01295124742 -0.001332956893 2.97520627e-20 -0.01240823673 2.916944751e-19 -0.000543010688)
(0.01396560754 0.008225099685 2.732426247e-19 -0.01332864217 1.504145622e-19 -0.0006369653725)
(0.01481194574 0.01651338188 -3.867497112e-20 -0.01411845641 -9.159274444e-20 -0.000693489332)
(0.01558775647 0.02378982906 -1.513163909e-19 -0.01490716014 -2.00034338e-19 -0.0006805963241)
(0.0162919317 0.03004894645 -4.907363499e-19 -0.01573700852 -5.430427957e-20 -0.0005549231761)
(0.01689223036 0.03505217858 -2.498524775e-20 -0.01663526213 -2.483321616e-20 -0.0002569682278)
(-0.006080967065 -0.1489449263 5.894142522e-20 0.006262080903 -1.107879142e-20 -0.0001811138386)
(-0.0005644790564 -0.0959805823 -2.543948485e-20 0.001028020665 6.199231026e-21 -0.0004635416089)
(0.002345660947 -0.06258497809 -1.574356455e-19 -0.001627330812 7.5690263e-20 -0.0007183301352)
(0.003994018285 -0.03951296738 -2.792650687e-20 -0.003038538541 1.607282485e-19 -0.000955479744)
(0.004983265311 -0.02241804015 -3.587725864e-20 -0.003807221587 2.38042486e-19 -0.001176043724)
(0.005609212558 -0.008926623334 3.788895447e-20 -0.004237231327 2.448901221e-19 -0.001371981231)
(0.006013828258 0.00217694516 5.608744995e-20 -0.004484543844 2.551077406e-19 -0.001529284414)
(0.006273137182 0.01167898859 -2.298326227e-20 -0.004649912763 1.501297632e-19 -0.001623224419)
(0.006411142648 0.01991684627 -1.336152116e-19 -0.00479017697 -2.311008058e-20 -0.001620965678)
(0.006441350817 0.02716920633 -2.691888703e-19 -0.004967006977 -1.224658858e-19 -0.00147434384)
(0.006338399357 0.03342696739 -3.34879737e-19 -0.005214672691 -4.598057321e-20 -0.001123726666)
(0.006069706269 0.03846279378 -9.890779297e-20 -0.005583739551 -3.278499326e-20 -0.000485966718)
(0.008803124925 -0.1488511886 5.584269258e-20 -0.008475896971 4.586973742e-21 -0.0003272279537)
(0.003976604167 -0.09586633621 -5.250780517e-21 -0.003147850096 2.527461586e-20 -0.0008287540707)
(0.001529455347 -0.06247018247 -1.388129597e-19 -0.0002657804698 6.051926824e-20 -0.001263674878)
(0.0001938372896 -0.03940665366 5.236743877e-20 0.001453707017 1.3022315e-19 -0.001647544307)
(-0.0005969674355 -0.02232445691 3.229936527e-22 0.002580242026 2.061504693e-19 -0.00198327459)
(-0.001142393845 -0.008849712304 3.129626107e-20 0.003402147491 2.251609114e-19 -0.002259753646)
(-0.001593052752 0.002233237214 1.786114867e-20 0.004052288557 2.536534071e-19 -0.002459235804)
(-0.002059290753 0.01170813942 -9.889708769e-20 0.004607655683 1.754866518e-19 -0.00254836493)
(-0.002598991219 0.01991018916 -2.778474532e-19 0.005085051391 1.308898762e-20 -0.002486060172)
(-0.0032839455 0.02711425881 -3.551991224e-19 0.00549407393 -6.607071137e-20 -0.00221012843)
(-0.004159440875 0.03330105229 -2.282561755e-19 0.005806690459 -9.202922466e-21 -0.001647249584)
(-0.005262621916 0.03825086793 -1.498354466e-19 0.005957295052 -5.134403346e-20 -0.0006946731357)
(0.02371190138 -0.1477273339 6.553126895e-20 -0.02324626087 1.53083301e-20 -0.0004656405069)
(0.008929170097 -0.09736149024 2.424610302e-20 -0.007755002277 3.480003266e-20 -0.00117416782)
(0.00127901461 -0.0651276362 -8.464745036e-20 0.0004991244819 5.314911203e-20 -0.001778139092)
(-0.002989031662 -0.04256618717 8.768916978e-20 0.005287285293 1.020614205e-19 -0.002298253631)
(-0.005554644433 -0.02567469827 9.867623497e-20 0.008293904556 1.835121054e-19 -0.002739260122)
(-0.007284266638 -0.01225209387 6.212072139e-20 0.0103716559 1.961443908e-19 -0.003087389265)
(-0.008607439501 -0.00116553979 1.487653221e-19 0.01192926952 2.612915238e-19 -0.003321830021)
(-0.009811202005 0.008315348377 -3.109213181e-19 0.01321297686 1.879233092e-19 -0.00340177485)
(-0.01103052992 0.01650198511 -3.605423984e-19 0.01430995602 3.039774429e-20 -0.003279426109)
(-0.01241625562 0.02364157587 -2.640072405e-19 0.01529701914 -8.593303302e-21 -0.00288076352)
(-0.01402718296 0.02969950609 -1.683244393e-19 0.01614862703 5.37598845e-20 -0.002121444072)
(-0.01590535399 0.03445654733 -3.238016109e-19 0.01678781436 -7.878387516e-20 -0.0008824603755)
(0.03873008767 -0.1454991662 7.452746481e-20 -0.03813527626 1.365473385e-20 -0.0005948114083)
(0.01513621407 -0.1001396953 6.233775192e-20 -0.01364026924 1.799162885e-20 -0.001495944837)
(0.002740898721 -0.07013309432 7.122883407e-20 -0.0004848586048 6.561764009e-20 -0.002256040116)
(-0.004306152984 -0.04853712769 -7.356961241e-21 0.007206626502 7.019223318e-20 -0.002900473519)
(-0.008631299823 -0.03201445425 1.839846107e-19 0.01206706419 1.566504408e-19 -0.003435764366)
(-0.01158674414 -0.01869162473 -3.520381231e-20 0.01543265089 1.526802969e-19 -0.003845906752)
(-0.01384226327 -0.007592833513 -1.249464478e-20 0.01794993733 2.335822744e-19 -0.004107674062)
(-0.01583658484 0.001913858943 -4.092554436e-19 0.0200106228 1.775834726e-19 -0.004174037962)
(-0.01777011582 0.01009710952 -1.717390877e-19 0.02176210568 8.72820347e-20 -0.003991989854)
(-0.01985831028 0.01715580115 -3.92999295e-19 0.02333637515 1.008527683e-19 -0.003478064871)
(-0.02216537465 0.0230374009 -2.636933222e-19 0.02470504561 9.543905324e-20 -0.002539670961)
(-0.02473557765 0.02751450527 -3.122556701e-19 0.02578141388 -9.881816061e-20 -0.001045836229)
(0.05389733654 -0.142020031 -3.915864877e-20 -0.05318386353 -5.093930052e-20 -0.0007134730133)
(0.02327369465 -0.1035758111 1.243393318e-19 -0.02148270511 -4.317766291e-20 -0.001790989543)
(0.006848257129 -0.0766762143 1.956005147e-19 -0.004155344722 4.27056612e-20 -0.002692912407)
(-0.002735699277 -0.05645298287 1.314344271e-19 0.006184494515 6.144519291e-20 -0.003448795238)
(-0.008793272317 -0.04047887364 2.152624766e-19 0.01286013104 8.527993136e-20 -0.00406685872)
(-0.01303706327 -0.02732842913 7.271568793e-20 0.01756635437 -2.854323431e-20 -0.004529291101)
(-0.01631739924 -0.01624084068 5.278167597e-19 0.02112851615 1.521629962e-19 -0.004811116911)
(-0.01918733669 -0.006717733749 -6.820959099e-20 0.02404764777 3.258980787e-19 -0.004860311079)
(-0.02189626199 0.001451739109 -1.808006399e-19 0.02651642252 1.614848514e-19 -0.004620160535)
(-0.02470468158 0.008402686986 -1.245234787e-19 0.02870468746 1.845241266e-19 -0.004000005876)
(-0.02767486946 0.01406507511 -8.54482665e-20 0.0305765021 2.651903809e-19 -0.002901632634)
(-0.03084552184 0.01819889884 -3.893723414e-19 0.03203112427 -5.486238285e-20 -0.001185602426)
(0.06918144438 -0.1370933018 -9.754879707e-20 -0.06836078737 -1.082529852e-19 -0.0008206570075)
(0.03375622465 -0.1068204127 1.065184324e-19 -0.03169927564 -1.303277102e-19 -0.002056949011)
(0.01420088862 -0.08365531686 2.481776012e-19 -0.01111547085 8.304300626e-21 -0.003085417772)
(0.002390242872 -0.06513604767 1.316462436e-19 0.00154902679 6.574480904e-20 -0.003939269662)
(-0.005358536321 -0.04989346059 2.890921988e-20 0.009986859032 2.276393034e-20 -0.004628322712)
(-0.01096273041 -0.03702365344 3.30721127e-21 0.01609610089 -1.950539045e-19 -0.005133370479)
(-0.0153791172 -0.02601663162 4.978770381e-19 0.02080741439 -1.017564733e-19 -0.005428297195)
(-0.01922936978 -0.01652875093 2.430929887e-19 0.02468663925 2.471229153e-19 -0.005457269469)
(-0.02279174561 -0.00841558798 -9.003760267e-20 0.02795301144 -2.00687451e-21 -0.005161265833)
(-0.0263484487 -0.001614196447 4.367962632e-19 0.03079306781 -1.241470844e-19 -0.004444619105)
(-0.02995160851 0.003788526203 3.479836194e-19 0.03315758139 3.868733158e-19 -0.003205972883)
(-0.0336222572 0.007536015331 -1.116517241e-19 0.0349232725 1.051481977e-19 -0.001301015293)
(0.08445958347 -0.1304999712 3.532405755e-20 -0.08354392725 -7.458503995e-20 -0.000915656219)
(0.04667360745 -0.1088999305 1.164858094e-19 -0.04438144107 -2.022298996e-19 -0.002292166383)
(0.02498467045 -0.08980433955 4.029224267e-19 -0.02155333526 -4.123395065e-20 -0.00343133519)
(0.01130033555 -0.07323142269 1.84577923e-19 -0.006930843744 6.546842002e-20 -0.004369491803)
(0.001918789691 -0.0589059631 9.810306951e-20 0.00319914603 -2.734070297e-20 -0.005117935722)
(-0.005112884516 -0.04646529211 -3.222755074e-20 0.01076932953 -2.426973921e-19 -0.005656445015)
(-0.01077735345 -0.03566055831 3.326663109e-19 0.01673566806 -4.316309976e-19 -0.005958314613)
(-0.01571536543 -0.02630882837 4.004175803e-19 0.02168035185 4.345612633e-20 -0.005964986424)
(-0.02021233892 -0.01833420852 -1.258026447e-20 0.02582871109 3.223301814e-19 -0.005616372174)
(-0.02454767815 -0.01174669509 -2.292578294e-19 0.02936142458 -1.552522545e-19 -0.004813746424)
(-0.02875762861 -0.006646029477 5.054633919e-19 0.03221241218 -1.511207927e-19 -0.003454783571)
(-0.03283640988 -0.003302885875 -3.337965525e-19 0.03422980788 8.680964813e-20 -0.001393398002)
(0.09951281891 -0.1220348721 4.366641214e-21 -0.09851480097 -1.41740687e-19 -0.0009980179384)
(0.06176442444 -0.1088346498 1.094109456e-19 -0.05926880535 -2.367549518e-19 -0.002495619095)
(0.03893770409 -0.09384229163 2.304957766e-19 -0.03520830068 -2.419800064e-19 -0.00372940341)
(0.02374835538 -0.07936550272 2.407711714e-19 -0.01901005776 3.709288495e-20 -0.004738297625)
(0.01281376577 -0.06614417054 -2.327148105e-19 -0.007278822749 1.526243761e-20 -0.005534943019)
(0.004309434 -0.0543213831 -8.191726169e-20 0.001789007255 -9.947452209e-20 -0.006098441255)
(-0.002694962212 -0.04389368227 -3.090866992e-19 0.009096929045 -4.862641195e-19 -0.006401966834)
(-0.008811704527 -0.03482904004 3.037095859e-19 0.0151969149 -4.744531471e-19 -0.00638521037)
(-0.01431309423 -0.02711591472 5.58112609e-19 0.02030117443 -1.401249345e-19 -0.005988080204)
(-0.01945261167 -0.02083072009 5.934591199e-19 0.02456309851 2.912110231e-19 -0.005110486834)
(-0.02424457443 -0.01608166734 -2.906563951e-19 0.0278955406 2.923754279e-19 -0.003650966176)
(-0.02864531354 -0.01314843861 2.269505223e-19 0.03010954064 1.119400405e-19 -0.001464227102)
(0.1140292203 -0.1115407387 -4.184251791e-20 -0.1129617187 -2.152798371e-19 -0.001067501573)
(0.07842955793 -0.1057577723 9.586297929e-20 -0.07576272563 -2.375632633e-19 -0.002666832305)
(0.05536695195 -0.09462395602 -3.180806657e-21 -0.05138773994 -3.46557564e-19 -0.003979212006)
(0.03903024174 -0.08230530025 1.225897268e-19 -0.03398458723 -3.094020091e-19 -0.005045654507)
(0.02664667272 -0.07037356648 3.485622277e-19 -0.02076668572 1.324591385e-19 -0.005879987002)
(0.01666158578 -0.05939211455 1.312283014e-19 -0.01020066617 1.835025186e-19 -0.006460919604)
(0.008264706244 -0.04956341581 7.855376766e-20 -0.001502827599 2.219469437e-20 -0.006761878645)
(0.0009132999213 -0.0409823457 4.099439613e-19 0.005808323433 -3.433417384e-19 -0.006721623354)
(-0.005634243786 -0.03369110538 6.074217355e-19 0.01191513907 6.240814608e-21 -0.006280895288)
(-0.01158659574 -0.02781872006 5.691247623e-19 0.01692622273 1.205359944e-19 -0.005339626986)
(-0.01693327171 -0.02347496918 8.777482996e-19 0.02073191479 -5.658587666e-20 -0.003798643086)
(-0.0215844401 -0.020943139 1.933100286e-19 0.02309993642 4.09360485e-19 -0.001515496318)
(0.1276238569 -0.09894119334 -1.296378043e-20 -0.1264998128 -1.603614231e-19 -0.001124044085)
(0.09578618794 -0.09902459487 1.702250176e-20 -0.09298041179 -2.701999531e-19 -0.002805776148)
(0.07321572571 -0.09127796318 -1.053848416e-19 -0.06903470886 -4.054092149e-19 -0.004181016846)
(0.05605547446 -0.08110438402 3.07658942e-20 -0.05076309416 -5.243862817e-19 -0.005292380305)
(0.04235412896 -0.07064166076 6.234514754e-19 -0.03619942024 -3.603006615e-19 -0.006154708722)
(0.03093048665 -0.06074830884 4.5160317e-19 -0.02418393574 1.460622112e-19 -0.00674655091)
(0.02114417347 -0.05177446548 4.979893107e-19 -0.01410231628 1.872973334e-20 -0.007041857193)
(0.01255207009 -0.04390678813 4.602573017e-19 -0.005572957499 -2.093457924e-19 -0.006979112588)
(0.004956022065 -0.03722595506 1.257726664e-18 0.00154447143 -3.679044089e-19 -0.006500493494)
(-0.001793854912 -0.03189464918 9.674522566e-19 0.00730085226 1.245341182e-19 -0.005506997347)
(-0.007661838654 -0.0280171014 -4.522347885e-19 0.01156457178 -3.56717302e-19 -0.003902733128)
(-0.01250383634 -0.02587152267 2.305506049e-19 0.01405338898 -2.307561197e-20 -0.001549552646)
(0.1398636966 -0.08426585632 1.983169548e-20 -0.1386959728 1.292044823e-20 -0.001167723778)
(0.1127537811 -0.08829796095 -1.401117682e-19 -0.1098410175 -1.514865649e-19 -0.002912763653)
(0.09117167056 -0.0833149722 -2.852089302e-19 -0.08683610031 -3.66754995e-19 -0.004335570249)
(0.07346069229 -0.07521729424 1.087020833e-19 -0.06798079518 -4.012170724e-19 -0.005479897109)
(0.0586010664 -0.06639124579 2.154703829e-19 -0.05223965222 -8.280340471e-19 -0.006361414186)
(0.04584031632 -0.05784048793 6.923079905e-19 -0.03888163343 -3.301414691e-19 -0.006958682885)
(0.03473509582 -0.04999268053 3.148261691e-20 -0.02748874722 -4.095151452e-19 -0.007246348607)
(0.02495841772 -0.04308431857 6.670511655e-19 -0.01779529113 -3.508778459e-19 -0.007163126587)
(0.01636269337 -0.03721687699 4.33711307e-19 -0.009709691242 -6.71086228e-19 -0.00665300213)
(0.008863364519 -0.03256533586 -5.879499573e-19 -0.00324460681 -7.482807803e-19 -0.005618757709)
(0.002518637215 -0.02922340282 -6.44087541e-19 0.0014497158 -3.41003293e-19 -0.003968353015)
(-0.002470390128 -0.02744948533 9.982875182e-21 0.00403916558 -3.698921685e-19 -0.001568775451)
(0.1503053503 -0.06766432449 2.205306874e-20 -0.1491066419 1.49120687e-19 -0.001198708416)
(0.1281654588 -0.07359997284 -1.44604164e-19 -0.1251771246 -3.018804341e-20 -0.002988334179)
(0.1078064463 -0.07069345267 -9.247011543e-20 -0.1033624949 -1.414934451e-19 -0.004443951458)
(0.08975721539 -0.06456920805 -4.369469856e-20 -0.08414719136 -3.671049861e-19 -0.005610024039)
(0.07392713291 -0.05752950817 -4.487021817e-21 -0.06742427517 -5.800422482e-19 -0.00650285774)
(0.05999413087 -0.05056588323 1.631168789e-19 -0.0528929821 -7.598035696e-19 -0.007101148764)
(0.04771368604 -0.04410982846 3.113761286e-20 -0.04033336489 -7.143629644e-19 -0.007380321142)
(0.03687600599 -0.03840388193 3.604447234e-19 -0.02959634529 -3.630209063e-19 -0.007279660703)
(0.02738414525 -0.03355156016 -5.339025416e-19 -0.02063902838 -4.52706368e-19 -0.006745116873)
(0.01921784898 -0.02971794393 -8.934502379e-19 -0.01353622333 -4.750958845e-19 -0.005681625647)
(0.01245549277 -0.0269812196 -2.286071662e-19 -0.008454354315 -5.117761327e-19 -0.004001138451)
(0.007354695422 -0.02556249787 1.007829449e-19 -0.005778772593 1.626371852e-20 -0.001575922829)
(0.1585317084 -0.04941001205 -5.120110531e-20 -0.1573144749 8.883379812e-20 -0.001217233497)
(0.1408897938 -0.0553254669 -2.684119361e-19 -0.1378566329 -2.043319092e-20 -0.00303316094)
(0.1217286119 -0.0538372637 -2.987123049e-19 -0.1172212332 -1.543804051e-19 -0.00450737864)
(0.1034917789 -0.04957482947 -2.47977802e-19 -0.09780712262 -2.84657071e-19 -0.005684656319)
(0.0869046509 -0.04444695686 -1.520307006e-20 -0.080322926 -2.837904637e-19 -0.006581724902)
(0.07202451101 -0.03928658816 -1.775157444e-19 -0.06484702432 -5.077877527e-19 -0.007177486686)
(0.05878258863 -0.03446035957 -1.555048086e-19 -0.05133445674 -4.945586773e-19 -0.007448131889)
(0.04707285318 -0.03017589517 4.745397394e-19 -0.03973912208 -6.182789377e-19 -0.007333731098)
(0.03684292699 -0.02652126031 -4.6162068e-19 -0.03006077733 -3.661475634e-19 -0.006782149661)