/*--------------------------------*- C++ -*----------------------------------*\
| =========                 |                                                 |
| \\      /  F ield         | foam-extend: Open Source CFD                    |
|  \\    /   O peration     | Version:  3.0                                   |
|   \\  /    A nd           | Web:         http://www.extend-project.de       |
|    \\/     M anipulation  |                                                 |
\*---------------------------------------------------------------------------*/
FoamFile
{
    version     2.0;
    format      ascii;
    class       volScalarField;
    location    "38";
    object      p;
}
// * * * * * * * * * * * * * * * * * * * * * * * * * * * * * * * * * * * * * //

dimensions      [0 0 0 0 0 0 0];

internalField   nonuniform List<scalar> 
672
(
-0.2339094775
-0.1985886905
-0.1876089517
-0.1690121167
-0.1666523785
-0.1559488463
-0.1571898852
-0.1506882397
-0.1525600746
-0.1479291997
-0.1477900907
-0.1427772339
-0.2309527504
-0.1960760688
-0.1852331525
-0.1668696957
-0.1645378147
-0.1539686082
-0.1551919912
-0.1487718904
-0.1506185406
-0.1460443716
-0.1459068167
-0.1409499502
-0.2250846162
-0.1910917217
-0.1805232112
-0.1626245873
-0.1603513874
-0.1500487554
-0.1512405542
-0.1449815118
-0.1467797402
-0.1423205636
-0.1421826625
-0.1373536848
-0.2163943434
-0.1837115519
-0.1735490244
-0.1563401681
-0.1541528849
-0.1442475437
-0.1453916046
-0.13937407
-0.1411016431
-0.1368132281
-0.1366805803
-0.132031565
-0.2049745101
-0.1740142336
-0.1643868771
-0.1480848766
-0.1460123092
-0.1366285396
-0.1377114007
-0.1320104386
-0.1336448282
-0.1295820879
-0.1294521038
-0.1250478636
-0.1909864757
-0.1621364611
-0.1531640915
-0.1379733346
-0.1360405282
-0.1272966801
-0.1283040038
-0.1229920743
-0.1245132021
-0.1207267528
-0.1206039964
-0.1164946507
-0.1745868611
-0.1482118214
-0.1400085126
-0.1261211435
-0.1243533566
-0.1163598079
-0.1172796888
-0.1124236182
-0.1138124988
-0.1103505149
-0.1102353137
-0.1064760338
-0.1560025095
-0.1324319162
-0.1250997624
-0.1126890642
-0.1111078791
-0.1039643762
-0.1047846402
-0.1004451914
-0.1016835345
-0.09858926806
-0.09848199854
-0.0951177101
-0.135444737
-0.1149775303
-0.1086096802
-0.09783346681
-0.09645917224
-0.09025692233
-0.09096765602
-0.08720032849
-0.08827367413
-0.08558628504
-0.08549074607
-0.08256382256
-0.1131958631
-0.09608654622
-0.09076231324
-0.08175387397
-0.08060370666
-0.07541861092
-0.07601097273
-0.0728613758
-0.07375555806
-0.07150841615
-0.0714232897
-0.06897376993
-0.08951015239
-0.07597702141
-0.07176393106
-0.06463897021
-0.06372699915
-0.05962673112
-0.06009249653
-0.05760256161
-0.05830622675
-0.05652820652
-0.05645670405
-0.05450916052
-0.06471223655
-0.05492200027
-0.05187258168
-0.04671767496
-0.04605602937
-0.04308879064
-0.04342338082
-0.0416210038
-0.04212625561
-0.04083863412
-0.04078048624
-0.03936934013
-0.03908584213
-0.033165222
-0.0313180983
-0.02820100988
-0.02779698298
-0.02600336638
-0.02620086949
-0.02511204733
-0.0254113984
-0.02463121535
-0.02458884595
-0.02372069641
-0.01298219844
-0.01100178647
-0.01037992805
-0.009336310361
-0.009196033976
-0.00859445742
-0.008654107399
-0.008288248987
-0.008378958023
-0.008114727798
-0.00808650994
-0.007784846379
0.01330009737
0.01131156227
0.01070018319
0.00965401229
0.009529987684
0.008928364056
0.009008975808
0.008643771016
0.008763080058
0.008507486488
0.008517192663
0.008260011944
0.03940055937
0.03347204903
0.03163534811
0.02851621875
0.02812840545
0.02633540023
0.0265538467
0.02546637832
0.02579431526
0.02502308429
0.02501860472
0.02419433166
0.0650209033
0.05522317049
0.05218405425
0.04702803388
0.04638241593
0.04341708301
0.04377198663
0.04197264298
0.04250465263
0.04122705102
0.04120337899
0.03983212237
0.08980923723
0.0762692785
0.07206629317
0.06494161706
0.06404545061
0.059948885
0.06043454449
0.05794966007
0.05867902664
0.0569120356
0.05687303367
0.05496217997
0.1134828244
0.09636738388
0.0910530226
0.08204644963
0.08091185
0.07573253036
0.07634418909
0.07320203684
0.07412015456
0.07188512614
0.0718290088
0.06941084253
0.1357156766
0.1152433588
0.1088849869
0.09811257514
0.09675327703
0.09055927098
0.09128807147
0.0875310982
0.08862528349
0.08595146668
0.0858791739
0.08297648194
0.1562552324
0.1326804252
0.1253573435
0.1129522753
0.1113856678
0.104252678
0.1050903434
0.1007636641
0.1020212276
0.0989412196
0.09885401984
0.09550815562
0.1748172048
0.1484391687
0.1402443113
0.1263645739
0.1246104531
0.116629869
0.1175655289
0.1127250544
0.114129646
0.1106831035
0.1105817967
0.106833198
0.1911926357
0.1623405871
0.1533759729
0.1381944915
0.1362743864
0.1275454913
0.128567018
0.1232729334
0.1248065512
0.121036187
0.120921775
0.1168156228
0.2051522576
0.1741912106
0.164570757
0.1482795696
0.1462184753
0.1368513479
0.1379467525
0.1322653895
0.1339096774
0.1298632483
0.1297377543
0.1253312306
0.2165424148
0.1838597467
0.1737030654
0.1565060378
0.1543286537
0.14444098
0.1455952543
0.1395984749
0.1413318736
0.1370596776
0.1369251569
0.1322663262
0.2251989369
0.1912073237
0.1806435859
0.1627573837
0.1604924379
0.1502078009
0.1514077287
0.1451695987
0.1469708496
0.142526898
0.1423833146
0.1375398403
0.2310328373
0.1961581538
0.1853186119
0.1669676168
0.1646419938
0.1540902681
0.1553193961
0.148919296
0.1507659202
0.1462051642
0.1460580566
0.1410817089
0.2339514777
0.1986336569
0.1876562195
0.1690711783
0.1667157184
0.1560282423
0.1572724697
0.1507890519
0.1526575645
0.1480378977
0.1478850371
0.1428490107
0.2339369389
0.1986187171
0.1876397332
0.1690540501
0.1666965546
0.1560086332
0.1572507153
0.1507668468
0.1526339556
0.1480125897
0.1478603307
0.142817483
0.2309707711
0.1960975942
0.1852567663
0.1669040618
0.1645759027
0.1540204607
0.155246462
0.1488416261
0.1506843281
0.1461197649
0.1459671421
0.1409930211
0.2251090669
0.1911180305
0.180550019
0.1626607279
0.1603893351
0.1500999865
0.1512925581
0.1450487909
0.1468429644
0.1423921315
0.1422432029
0.1373889707
0.2164064204
0.1837264694
0.1735657193
0.1563649774
0.1541805316
0.144285575
0.1454315135
0.1394255697
0.141149998
0.1368690449
0.1367249329
0.1320632018
0.2049921747
0.1740325457
0.1644053539
0.148108786
0.1460372701
0.1366614911
0.1377448307
0.1320531509
0.1336851594
0.129627436
0.1294909815
0.1250713123
0.1909892251
0.1621411461
0.153169898
0.1379831819
0.1360517778
0.1273128963
0.128321063
0.1230145864
0.1245341201
0.1207511492
0.1206228572
0.1165076092
0.1745955327
0.1482196133
0.1400159527
0.1261288702
0.1243610504
0.1163684368
0.1172882502
0.1124334513
0.113821712
0.1103602165
0.1102435792
0.1064810361
0.1559944205
0.1324247724
0.1250928814
0.1126815614
0.1111000416
0.1039552231
0.1047751934
0.100433981
0.1016729225
0.09857739813
0.09847233243
0.09511072736
0.1354440117
0.1149743706
0.1086055982
0.0978243428
0.09644882027
0.09024022516
0.0909502124
0.08717596823
0.08825037821
0.0855589978
0.08546713931
0.08254974599
0.1131775717
0.09606830135
0.09074347144
0.0817301025
0.08057784929
0.07538567784
0.07597644604
0.07281859103
0.07371502255
0.07146256372
0.07138639502
0.06894742493
0.08950150347
0.07596464671
0.07175014932
0.06461569856
0.06370150886
0.05958883283
0.06005341354
0.05754973095
0.05825635371
0.05647065832
0.05640813513
0.05448178027
0.06468640058
0.05489556134
0.05184489423
0.04668192508
0.04601684002
0.04303838304
0.04337025407
0.04155505253
0.04206337076
0.0407677132
0.04072281064
0.03932752694
0.03907231355
0.03314717748
0.03129835428
0.02816907039
0.02776222998
0.02595254846
0.02614864001
0.02504197687
0.02534555487
0.02455552302
0.0245255496
0.02368580929
0.01295297173
0.01097166684
0.01034827438
0.009295223312
0.009150913071
0.008536336905
0.008592818581
0.008212196505
0.00830651303
0.008033156468
0.008020448867
0.007737349598
-0.01331450479
-0.01133062827
-0.01072099489
-0.009687461346
-0.009566377409
-0.008981333958
-0.009063501756
-0.008716581725
-0.00883170464
-0.008585993974
-0.008583124644
-0.008296533208
-0.03942836248
-0.03350062407
-0.03166532573
-0.02855497771
-0.02817094475
-0.02638999757
-0.02661138089
-0.02553755162
-0.02586187467
-0.02509893501
-0.02507931621
-0.02423698012
-0.06503201218
-0.05523841603
-0.05220083307
-0.04705556604
-0.0464124957
-0.04346107624
-0.0438174396
-0.04203323582
-0.0425619914
-0.04129233598
-0.04125838233
-0.03986243668
-0.08983109832
-0.07629140357
-0.07208930981
-0.06497089914
-0.06407751129
-0.05998957334
-0.06047749825
-0.05800229657
-0.05872914272
-0.05696782846
-0.05691766384
-0.05499319805
-0.1134871025
-0.09637472233
-0.09106145588
-0.082061846
-0.08092889312
-0.07575831259
-0.07637090594
-0.07323810513
-0.0741541477
-0.07192395173
-0.07186118381
-0.06942742288
-0.1357282485
-0.1152553989
-0.1088971256
-0.09812713132
-0.09676901858
-0.09057851359
-0.09130848987
-0.08755543915
-0.08864891953
-0.08597727259
-0.08590055163
-0.08299200917
-0.1562505003
-0.1326773212
-0.1253547721
-0.1129517254
-0.111385564
-0.1042546892
-0.105092567
-0.1007679811
-0.102025125
-0.09894633893
-0.09885775965
-0.09550892607
-0.1748189673
-0.1484394531
-0.1402437863
-0.1263620182
-0.1246071713
-0.1166242819
-0.1175595924
-0.1127167247
-0.1141221138
-0.110674191
-0.1105753737
-0.1068295104
-0.1911785074
-0.1623265389
-0.1533619284
-0.1381772707
-0.1362564411
-0.1275227348
-0.1285439028
-0.1232442922
-0.1247797063
-0.1210067494
-0.1208974002
-0.1168022309
-0.2051438308
-0.1741803508
-0.164558305
-0.1482608044
-0.1461972436
-0.1368222583
-0.137915863
-0.1322260735
-0.1338723968
-0.1298211427
-0.1297042393
-0.1253081408
-0.2165203782
-0.1838363816
-0.173679355
-0.1564746344
-0.1542956282
-0.1443971477
-0.1455506251
-0.1395416814
-0.141278638
-0.1370003475
-0.1368759153
-0.1322393648
-0.2251829689
-0.1911881077
-0.1806223343
-0.1627264697
-0.160457932
-0.1501610896
-0.1513583792
-0.1451069595
-0.1469115612
-0.1424597492
-0.1423298509
-0.1375027717
-0.2310059507
-0.1961289611
-0.1852889349
-0.1669273452
-0.1645995951
-0.1540331836
-0.1552612322
-0.1488446013
-0.1506956488
-0.1461263233
-0.1459918466
-0.1410443088
-0.2339321305
-0.1986105947
-0.1876309625
-0.1690346806
-0.1666751621
-0.1559733862
-0.1572146621
-0.1507154958
-0.1525880391
-0.1479587477
-0.1478218955
-0.1428047309
)
;

boundaryField
{
    out
    {
        type            implicitExtrapolation;
    }
    in
    {
        type            implicitExtrapolation;
    }
    frontAndBack
    {
        type            empty;
    }
}


// ************************************************************************* //
