/*--------------------------------*- C++ -*----------------------------------*\
| =========                 |                                                 |
| \\      /  F ield         | foam-extend: Open Source CFD                    |
|  \\    /   O peration     | Version:  3.0                                   |
|   \\  /    A nd           | Web:         http://www.extend-project.de       |
|    \\/     M anipulation  |                                                 |
\*---------------------------------------------------------------------------*/
FoamFile
{
    version     2.0;
    format      ascii;
    class       volVectorField;
    location    "37";
    object      u;
}
// * * * * * * * * * * * * * * * * * * * * * * * * * * * * * * * * * * * * * //

dimensions      [0 0 0 0 0 0 0];

internalField   nonuniform List<vector> 
672
(
(0.5117755069 -0.08959002354 6.379836614e-17)
(0.2696460043 -0.06182849121 3.981935182e-17)
(0.8869930987 -0.0499627072 1.501829608e-18)
(0.579389195 -0.03054851069 2.721444234e-17)
(1.034789126 -0.02929158055 3.821730531e-17)
(0.7318201712 -0.01738333115 5.961963857e-17)
(1.106319852 -0.01636602851 9.168063572e-17)
(0.8058332508 -0.01110733233 -1.234466791e-17)
(1.147160751 -0.007518228121 3.717464764e-17)
(0.8356174823 -0.006894662315 1.616042035e-17)
(1.17043458 -0.001558553817 8.86148377e-18)
(0.8400324948 -0.002194077759 -3.407684993e-17)
(0.551904367 -0.2646499976 -2.511336963e-17)
(0.2971075478 -0.1829244233 -1.055397766e-16)
(0.9091693329 -0.1473895173 5.763441304e-17)
(0.5927940807 -0.09037408859 -1.672955213e-16)
(1.047616493 -0.08596934813 -9.616861994e-17)
(0.7392669441 -0.05132802717 -2.156023771e-17)
(1.113463509 -0.04735300762 -2.862477706e-16)
(0.8102887832 -0.03264422913 1.196318774e-16)
(1.15073039 -0.02091124973 -1.220469223e-16)
(0.8376763543 -0.01989358431 1.443686631e-16)
(1.172044631 -0.0033399625 -2.242941606e-16)
(0.8390066574 -0.004823737307 3.216020243e-16)
(0.6297153095 -0.4264636809 1.72305258e-17)
(0.3509524203 -0.2944912061 1.520549176e-16)
(0.9526366989 -0.237265332 5.099702939e-17)
(0.6195452012 -0.1454715697 2.297983937e-16)
(1.073028333 -0.138188251 8.116771309e-17)
(0.7546588611 -0.08279683548 1.731863659e-16)
(1.127282727 -0.07574457428 1.611041777e-16)
(0.8204276687 -0.05304876264 1.272687187e-16)
(1.156213143 -0.03266687693 -4.269613827e-17)
(0.8445962417 -0.03293231488 1.094055666e-19)
(1.171539295 -0.003770474773 2.417256962e-17)
(0.8422241159 -0.008818738517 -7.390273596e-17)
(0.7418394877 -0.5668251964 -1.956246283e-16)
(0.4282461844 -0.3917950142 -1.15609334e-16)
(1.014962649 -0.3154670487 -2.313123584e-16)
(0.6575631424 -0.1935512426 -1.849160758e-18)
(1.10928886 -0.18368324 -4.29613071e-16)
(0.7760225923 -0.1099564294 1.598059682e-16)
(1.147366141 -0.1006619243 -4.956407144e-16)
(0.8336001786 -0.0700424692 2.980534099e-16)
(1.165609459 -0.04364403729 -3.541221578e-16)
(0.8517799549 -0.04290270804 5.094759712e-16)
(1.174259333 -0.005625775335 -4.91338349e-16)
(0.8421701964 -0.01057058526 6.654244623e-16)
(0.8822329711 -0.6787873167 4.060589488e-16)
(0.52509462 -0.4688840792 7.838042218e-17)
(1.09315033 -0.3775335214 2.366406356e-16)
(0.7055154756 -0.2316478295 5.39918508e-17)
(1.154851928 -0.2196810876 2.940974653e-16)
(0.8035270806 -0.1319199918 1.10128413e-16)
(1.172123163 -0.1200471754 1.553596796e-16)
(0.8516155341 -0.08467559323 -2.82329852e-17)
(1.175611623 -0.05120408658 2.216680775e-16)
(0.8636718145 -0.05273068978 -4.027071055e-16)
(1.174011099 -0.005051101216 2.944249695e-16)
(0.8465579218 -0.01404651385 -2.782171628e-16)
(1.044146756 -0.7566568216 -2.798397221e-16)
(0.6369672203 -0.5230940742 1.72359668e-17)
(1.183296131 -0.4209908632 -3.148562686e-16)
(0.7606509985 -0.2584292883 1.824754946e-16)
(1.207335189 -0.2449400371 -5.152485131e-16)
(0.8345685643 -0.146908785 2.130609353e-16)
(1.20108916 -0.133922072 -4.360404113e-16)
(0.8708528687 -0.09377173555 2.19450425e-16)
(1.188859541 -0.05757695221 -3.895479841e-16)
(0.8745244425 -0.05768397276 7.302126384e-16)
(1.177175178 -0.006646744542 -7.788699451e-16)
(0.8475572231 -0.01447835534 7.665055225e-16)
(1.219281966 -0.7965634864 6.221785989e-17)
(0.7576426348 -0.5504812584 9.226531927e-17)
(1.28068602 -0.4429666963 -9.581623287e-18)
(0.8203345841 -0.2720263473 -9.200203677e-17)
(1.264011595 -0.257586404 3.047264998e-16)
(0.8688225702 -0.1550429947 -2.910810729e-17)
(1.231871036 -0.1404163243 2.011039718e-16)
(0.8933212464 -0.09975631115 -1.066600222e-16)
(1.201389457 -0.0593211099 2.157690095e-16)
(0.8891960834 -0.06245770562 -4.54603766e-16)
(1.177223327 -0.00493031734 4.552881976e-16)
(0.8523781921 -0.01708995701 -3.223586961e-16)
(1.398932798 -0.7965305843 1.660164973e-17)
(0.8819520049 -0.5508277055 -7.492858191e-17)
(1.380805024 -0.4430296377 1.905994786e-16)
(0.8816827444 -0.2721704681 -7.860189801e-17)
(1.32228867 -0.2575693715 2.266237477e-18)
(0.9034378378 -0.1548869347 -5.816253582e-17)
(1.263891146 -0.1404935356 2.976529038e-17)
(0.9148994123 -0.09917447626 5.660762885e-17)
(1.215742093 -0.05987913576 -1.811708503e-16)
(0.9016291114 -0.0613591454 4.560797641e-16)
(1.180156322 -0.006140524715 -4.651301034e-16)
(0.8540966408 -0.01574545356 4.207811815e-16)
(1.574091766 -0.7564647148 7.59542409e-18)
(1.002581083 -0.5231071342 1.567867831e-17)
(1.47810194 -0.4206041756 -3.542607632e-16)
(0.9413102865 -0.2585922472 2.096541302e-16)
(1.378838169 -0.2444213244 -2.828765594e-16)
(0.9377013637 -0.1475503306 2.2277966e-16)
(1.294526603 -0.1328956 -1.713165392e-16)
(0.9374592934 -0.09523378257 5.668516171e-17)
(1.228114679 -0.05555068887 9.782025537e-17)
(0.9163945734 -0.06008830546 -3.323727824e-16)
(1.180101199 -0.003591482743 3.243266958e-16)
(0.8588712354 -0.01725432536 -3.57680639e-16)
(1.735919028 -0.6785513344 8.63975645e-17)
(1.114686614 -0.4694946593 -3.875981645e-17)
(1.568354495 -0.3772181863 4.200144937e-16)
(0.9966985373 -0.2320303484 -1.464671203e-16)
(1.431362028 -0.219069918 2.921235593e-16)
(0.9690330481 -0.1322425255 -2.725588398e-16)
(1.323301929 -0.1190767991 2.13686126e-16)
(0.9570986138 -0.08507212015 -8.273902186e-17)
(1.24088734 -0.05006382303 -6.095312068e-18)
(0.9278361128 -0.05313265069 3.362646906e-17)
(1.182555311 -0.004081050563 -1.883961375e-17)
(0.8606295155 -0.01423034432 5.922666894e-17)
(1.876392428 -0.566446818 -3.284991853e-17)
(1.211420972 -0.3921456359 -2.013304037e-17)
(1.646320528 -0.3148673051 -2.430517038e-16)
(1.044514111 -0.1939778738 -2.831268193e-17)
(1.476598035 -0.182801036 -1.040191971e-16)
(0.9965863645 -0.1108995394 4.332374911e-17)
(1.347658434 -0.09901680989 -8.318266047e-17)
(0.9753940505 -0.07196788082 -4.65909241e-18)
(1.250463268 -0.04072671386 3.77574912e-17)
(0.9399706271 -0.04600842601 -6.153391016e-17)
(1.182105549 -0.001451328355 7.801762341e-17)
(0.864683802 -0.01427630485 -1.198965035e-16)
(1.988368475 -0.4261014118 -2.016675393e-17)
(1.289070256 -0.2951887938 -2.389617517e-18)
(1.708797305 -0.2366204024 2.129193283e-16)
(1.082915863 -0.1459319668 -1.721497959e-17)
(1.51293119 -0.1371295469 1.875856516e-16)
(1.018375742 -0.08336431926 -1.431580599e-16)
(1.367483896 -0.07407285871 2.11962047e-16)
(0.9891428809 -0.05403870033 -1.369225415e-16)
(1.259155609 -0.03038469887 8.619236253e-17)
(0.9480784449 -0.03431215983 -9.02044215e-17)
(1.183640116 -0.001269842648 1.214802312e-16)
(0.8661051123 -0.009981713843 -1.157396822e-16)
(2.06633326 -0.2641657842 -8.091604069e-18)
(1.342790119 -0.1834807252 -3.638570882e-17)
(1.752050938 -0.1466869961 -9.623368997e-17)
(1.109501465 -0.09092311664 -5.102923975e-17)
(1.53796188 -0.0849245979 -5.901857632e-17)
(1.033812814 -0.05226727247 -1.618562366e-17)
(1.380805959 -0.04549140832 -2.807114425e-17)
(0.9995864697 -0.03446699709 -3.650977268e-17)
(1.26414382 -0.01774129221 3.881118392e-17)
(0.9551640643 -0.02294745573 -5.50248384e-17)
(1.183062364 0.001202993205 5.753423594e-17)
(0.868506424 -0.008772095349 -6.799392792e-17)
(2.106307576 -0.08919928622 1.51677522e-17)
(1.370550366 -0.06241575526 1.525602376e-17)
(1.774350842 -0.0491201055 1.02855262e-16)
(1.12325683 -0.03089942063 -2.001272035e-18)
(1.550874121 -0.02805552219 1.138037281e-16)
(1.041701379 -0.01784463339 -5.779932218e-17)
(1.387720991 -0.01457412287 1.148178636e-16)
(1.004695364 -0.01202540879 -7.458816884e-17)
(1.266982106 -0.005071952379 7.683025019e-17)
(0.9583197866 -0.008314900469 -7.740813047e-17)
(1.183309444 0.001289311159 9.087505561e-17)
(0.8692884325 -0.003475259338 -9.9139938e-17)
(2.106336657 0.09049190419 -2.162589507e-17)
(1.37062331 0.06160519277 -4.226544742e-17)
(1.774380245 0.05062671772 -4.992419643e-17)
(1.12334645 0.03021773443 -5.43071002e-17)
(1.550817742 0.02979194603 -3.411758258e-17)
(1.04191651 0.01683491919 -4.472763602e-17)
(1.387485354 0.01698081269 -1.339655183e-17)
(1.005097575 0.01000739462 -3.792198857e-17)
(1.266560185 0.008691771612 2.059268841e-17)
(0.9588092187 0.004714763205 -3.358997118e-17)
(1.182866112 0.003695719503 3.24836842e-17)
(0.8695687911 -0.001730602972 -3.679136151e-17)
(2.066419443 0.2654213597 4.222680643e-17)
(1.342961979 0.1827366775 3.270466413e-17)
(1.752096057 0.1481377133 7.151416974e-17)
(1.109704647 0.09031141408 1.9233269e-17)
(1.53777252 0.08654164316 1.186085413e-16)
(1.034327839 0.05139747099 -4.487116648e-17)
(1.380167097 0.04763708182 1.428962809e-16)
(1.000548558 0.03272544197 -8.80478933e-17)
(1.263068685 0.02090551374 9.412308586e-17)
(0.9563314426 0.01976018836 -1.092451893e-16)
(1.181951387 0.003205386445 1.272217326e-16)
(0.8692792027 0.003982784314 -1.623730662e-16)
(1.988532012 0.4272844757 -3.711113562e-17)
(1.289345966 0.2945833529 -5.680797575e-17)
(1.708921437 0.2379967876 -4.8766813e-17)
(1.083241518 0.1454631228 -7.86566355e-17)
(1.512683144 0.1386130015 -5.261283235e-17)
(1.019196162 0.08273925558 -6.381726819e-17)
(1.366503406 0.0759601768 -5.542495715e-17)
(0.9906853747 0.0527001254 -3.744893693e-17)
(1.257436224 0.03317337982 4.44582056e-19)
(0.9499817327 0.03163140948 2.312190959e-17)
(1.181803326 0.005269667551 -2.897623644e-17)
(0.8674218508 0.005682625299 3.296118671e-17)
(1.876647889 0.5675358999 1.231932946e-16)
(1.21173483 0.3917177682 3.627723151e-17)
(1.646503094 0.3161071731 1.264204703e-16)
(1.04489581 0.1936969237 -3.13394812e-17)
(1.476311626 0.1840130113 2.151574155e-16)
(0.997600326 0.1106347044 -8.959554086e-17)
(1.346469744 0.1003401439 2.26370952e-16)
(0.9773093923 0.07130110916 -1.354344221e-16)
(1.248404694 0.04258225637 1.710963603e-16)
(0.9422618999 0.04425896445 -2.516312e-16)
(1.180026507 0.004338522451 2.49795879e-16)
(0.8660095568 0.0108144859 -3.142614468e-16)
(1.736297164 0.6795294366 -2.010480291e-16)
(1.115003711 0.4692910969 -1.797107647e-17)
(1.568669194 0.3783319017 -9.826849667e-17)
(0.9970844874 0.2319697129 1.775716205e-17)
(1.431161551 0.220032504 -1.715429281e-16)
(0.9701000023 0.1323600318 -1.98384204e-17)
(1.32212062 0.1198635707 -9.840407316e-17)
(0.9591220631 0.0850972781 6.74849205e-17)
(1.238765791 0.05100540464 -1.609077381e-16)
(0.9302643782 0.0523911567 2.862354215e-16)
(1.180379257 0.005791456652 -2.260572292e-16)
(0.8621303927 0.01190706944 2.277106069e-16)
(1.574609936 0.7573326956 1.320436633e-16)
(1.002833495 0.5231313317 -2.252961624e-17)
(1.478527595 0.4215574728 8.935991905e-17)
(0.9416373486 0.2587614669 -1.030982702e-16)
(1.378722436 0.245108773 2.369869738e-16)
(0.9387273046 0.1480610629 -8.467020077e-17)
(1.293405177 0.1331815095 1.919326859e-16)
(0.9394466557 0.09592858208 -9.478266905e-17)
(1.226059112 0.05575110974 2.165729394e-16)
(0.9187169749 0.06021767515 -4.6838587e-16)
(1.178097951 0.004483172002 4.952603921e-16)
(0.8600206232 0.01572291398 -4.743537216e-16)
(1.399613597 0.7973003078 3.628292963e-17)
(0.882098484 0.5510879211 -3.672631567e-17)
(1.381412476 0.4438592645 1.501011019e-16)
(0.8819112802 0.2725707759 8.628904121e-17)
(1.322399881 0.2579974553 -1.622380502e-16)
(0.9043181791 0.1558033338 3.509981704e-17)
(1.263120767 0.140188438 -1.369156901e-16)
(0.916612357 0.1006339722 1.148580318e-16)
(1.214234274 0.05901634741 -2.064954847e-16)
(0.9035023287 0.06263516138 4.646790415e-16)
(1.178865954 0.00563553626 -4.717967823e-16)
(0.8546848017 0.01544164682 3.861027932e-16)
(1.220138373 0.7972476109 -1.269437219e-16)
(0.7576203476 0.5509478227 7.950681744e-17)
(1.281452502 0.4436431564 -4.471466966e-16)
(0.8203795151 0.272616193 1.637801549e-16)
(1.264348991 0.2577837806 -2.333964065e-16)
(0.8693881218 0.1562265808 2.00741064e-16)
(1.231508747 0.1397471409 -2.232948202e-16)
(0.894485435 0.1016397489 5.901000892e-17)
(1.200527745 0.05794188402 6.77900898e-17)
(0.890327315 0.06433967799 -3.490224457e-16)
(1.17671257 0.003791427301 3.526523809e-16)
(0.8522849704 0.01757858828 -2.805678567e-16)
(1.045163315 0.757299659 2.85075252e-17)
(0.6367621166 0.5237345047 2.735129799e-17)
(1.184245141 0.4216063934 5.940660744e-16)
(0.7605225979 0.2591879058 -2.479516843e-16)
(1.207940317 0.2450138158 4.80286981e-16)
(0.8348506249 0.1483621821 -2.805845908e-16)
(1.20118641 0.1329739025 2.858122474e-16)
(0.8715249509 0.09613233148 -6.343749602e-17)
(1.188691211 0.05569643593 -1.220617576e-16)
(0.8749567638 0.06025013755 4.592361218e-16)
(1.177512659 0.004857044621 -4.471806803e-16)
(0.8466382302 0.01564035907 5.081922151e-16)
(0.883429103 0.679394429 -1.535896695e-16)
(0.524657436 0.4696600931 4.606964547e-17)
(1.094287155 0.3780276724 -8.083195614e-16)
(0.7051395994 0.2325146426 2.45280098e-16)
(1.155789619 0.2196069831 -6.375602692e-16)
(0.8033625253 0.1334649174 5.42480231e-16)
(1.172902696 0.1189161072 -5.053477015e-16)
(0.8514651844 0.0871629217 2.554670951e-16)
(1.176598463 0.04905872302 -1.027596724e-16)
(0.8629336353 0.05555980847 6.540563771e-17)
(1.175787496 0.002869740472 -1.187323847e-16)
(0.8445068324 0.01571634444 3.028306391e-17)
(0.7431245118 0.5674620996 -1.530206656e-17)
(0.4276207295 0.3926316521 4.960208236e-17)
(1.016215264 0.3159807072 4.756882579e-16)
(0.6569947157 0.1944569474 1.458093641e-16)
(1.110437358 0.1836630239 1.737854031e-16)
(0.7755115201 0.1114896474 -5.816453098e-17)
(1.148552259 0.09966151211 1.488982497e-16)
(0.8328627616 0.07247356096 1.969281391e-17)
(1.16719252 0.04167596325 -8.534036629e-17)
(0.8503113596 0.04574332947 4.775917494e-17)
(1.176668545 0.003521974007 -8.786231222e-17)
(0.8394838451 0.01253088098 1.510443626e-16)
(0.6311438518 0.4271157958 1.792844112e-16)
(0.3500885422 0.2953755097 1.490986128e-17)
(0.9540534656 0.2377122408 -4.233914826e-16)
(0.6187515191 0.1463916583 -3.211115976e-17)
(1.07445504 0.1381643995 -3.935382232e-16)
(0.7537902206 0.08423352861 3.258977217e-16)
(1.129009719 0.07487955124 -5.290089893e-16)
(0.8190605129 0.05526165727 3.573447724e-16)
(1.158689033 0.03095702291 -2.108218826e-16)
(0.842210588 0.03552375735 2.57871444e-16)
(1.175075917 0.001951182214 -3.584967171e-16)
(0.8385263489 0.01059108173 3.460306791e-16)
(0.5532836279 0.2653730701 -1.102498833e-16)
(0.296141358 0.1837658238 1.526602348e-17)
(0.9105801658 0.1478937819 1.887742741e-16)
(0.5918821627 0.0912280019 7.321419956e-17)
(1.049128401 0.08609598044 1.587239467e-16)
(0.7381539675 0.0525347873 -5.731608044e-17)
(1.115459075 0.04686221232 1.030408591e-16)
(0.8084691539 0.03440409636 1.974883993e-17)
(1.15369473 0.0197788695 -1.125223558e-16)
(0.8346752878 0.02202377048 6.887587268e-17)
(1.176176415 0.002004618053 -7.096015259e-17)
(0.8347537939 0.006654701271 6.526329817e-17)
(0.5132227882 0.09035518059 5.779237711e-17)
(0.2684946731 0.06263604554 4.736001042e-17)
(0.8884870598 0.05045051665 -1.900086037e-16)
(0.5783406931 0.03132990135 8.454167067e-17)
(1.036402272 0.02952569074 -1.617876314e-16)
(0.7305501823 0.01833216956 1.192138408e-16)
(1.10845494 0.01624967369 -6.987045726e-17)
(0.8037942423 0.01234908879 3.236333671e-17)
(1.150293762 0.00704573328 -5.668907965e-18)
(0.8323472892 0.008343581573 3.272578704e-17)
(1.174725434 0.0009998604235 -4.750921925e-17)
(0.8355068732 0.00339058363 3.69763169e-17)
(0.513213624 -0.08917481428 -6.369747756e-17)
(0.2683895547 -0.06144674612 -3.955517577e-17)
(0.888242952 -0.04939010248 -1.557825572e-18)
(0.5780952592 -0.03000421224 -2.682323851e-17)
(1.036104781 -0.02840596976 -3.822427938e-17)
(0.7301990256 -0.01676179323 -5.925602286e-17)
(1.108333788 -0.01504726972 -9.165305587e-17)
(0.8032370989 -0.01044389999 1.257813926e-17)
(1.150629551 -0.005784467097 -3.71088257e-17)
(0.8312847848 -0.006073665905 -1.611462229e-17)
(1.175783604 0.0004277758248 -8.783236278e-18)
(0.8336123646 -0.0005904966082 3.405242794e-17)
(0.5530053291 -0.2642268989 2.479912962e-17)
(0.2960337027 -0.1824283673 1.052957255e-16)
(0.910552457 -0.1467225502 -5.799732157e-17)
(0.5919080666 -0.08983599977 1.672106065e-16)
(1.049138493 -0.0848705574 9.555467779e-17)
(0.7382620828 -0.05107889058 2.184699705e-17)
(1.115257889 -0.04549482236 2.853039243e-16)
(0.8087403723 -0.03287457747 -1.187238956e-16)
(1.152992778 -0.01812992611 1.204864673e-16)
(0.8353649556 -0.02036897357 -1.425638949e-16)
(1.174710064 3.972910129e-05 2.22044536e-16)
(0.8360601714 -0.004410710446 -3.189990865e-16)
(0.6308421233 -0.4260100678 -1.67606028e-17)
(0.3498580238 -0.2943807765 -1.516286709e-16)
(0.9536235635 -0.2368297123 -5.06040219e-17)
(0.6183548616 -0.1451771995 -2.294080375e-16)
(1.073951879 -0.1372205807 -8.077440959e-17)
(0.7532028695 -0.08261235553 -1.72925761e-16)
(1.128619265 -0.073923455 -1.608221529e-16)
(0.8181628134 -0.05308394615 -1.271859282e-16)
(1.158682195 -0.03015998486 4.297350022e-17)
(0.84073719 -0.03279428451 -2.727362392e-19)
(1.175685324 -0.001208808226 -2.386085097e-17)
(0.8361782989 -0.007419281942 7.356650315e-17)
(0.7426110486 -0.5664432296 1.949552341e-16)
(0.4272387735 -0.3912510732 1.154019966e-16)
(1.015874876 -0.3148119303 2.303000527e-16)
(0.6567435431 -0.1930784739 2.140352074e-18)
(1.110126414 -0.1824461755 4.28152485e-16)
(0.775356367 -0.110180318 -1.58769729e-16)
(1.148028523 -0.09825993224 4.93652782e-16)
(0.8328741891 -0.0713017421 -2.960027601e-16)
(1.16614034 -0.03980091388 3.512396002e-16)
(0.8506725043 -0.04470955144 -5.061324711e-16)
(1.174826431 -0.00100394093 4.872595873e-16)
(0.8401794212 -0.0110760555 -6.606845721e-16)
(0.8828806786 -0.6784643592 -4.053532835e-16)
(0.5243785401 -0.4688499569 -7.789302592e-17)
(1.093771017 -0.377327469 -2.358723964e-16)
(0.7046544356 -0.2314273939 -5.366302247e-17)
(1.155195956 -0.2188340861 -2.933687906e-16)
(0.8025559868 -0.1318947638 -1.100091628e-16)
(1.172385532 -0.1181840408 -1.548364224e-16)
(0.8501842574 -0.08493821463 2.821854035e-17)
(1.176445018 -0.04864656165 -2.213701702e-16)
(0.8609827616 -0.05267853733 4.025470429e-16)
(1.176163517 -0.002721994817 -2.940300279e-16)
(0.8417224702 -0.01237263612 2.777202192e-16)
(1.044497154 -0.7564697202 2.789427221e-16)
(0.6361085457 -0.5224537189 -1.735420539e-17)
(1.183611064 -0.4205715679 3.133547282e-16)
(0.7599872262 -0.2579403276 -1.818329331e-16)
(1.207313798 -0.2439366989 5.132033641e-16)
(0.8344355648 -0.1472528014 -2.115211489e-16)
(1.200334839 -0.1316913814 4.334864657e-16)
(0.8713129236 -0.09528114415 -2.169272458e-16)
(1.18724134 -0.0538382314 3.863262799e-16)
(0.8750829557 -0.05974552005 -7.266333765e-16)
(1.175201884 -0.00218269656 7.746948365e-16)
(0.8468599505 -0.01502276664 -7.617286652e-16)
(1.219429643 -0.796565052 -6.135942987e-17)
(0.7573336953 -0.5502748271 -9.183349556e-17)
(1.280918851 -0.4430830993 1.062160594e-17)
(0.8198477019 -0.2716419164 9.216996471e-17)
(1.263743214 -0.2571219133 -3.037911836e-16)
(0.8684051896 -0.1547929579 2.910223563e-17)
(1.23097725 -0.1391380598 -2.006051195e-16)
(0.8928540243 -0.09959997729 1.067477766e-16)
(1.20039518 -0.05769913964 -2.157604906e-16)
(0.8879264734 -0.06167197386 4.549054832e-16)
(1.177054089 -0.003928644618 -4.55632822e-16)
(0.84914827 -0.01443605429 3.228021708e-16)
(1.398887847 -0.7966848136 -1.757307835e-17)
(0.8812573137 -0.5500408224 7.493675045e-17)
(1.380570842 -0.4430705991 -1.923195543e-16)
(0.8811633128 -0.2715691551 7.948775964e-17)
(1.321524363 -0.2571713704 -4.511407894e-18)
(0.9037084726 -0.1549583856 5.990839879e-17)
(1.261995603 -0.1391470888 -3.229839034e-17)
(0.9162386983 -0.1000940621 -5.419911789e-17)
(1.212460425 -0.05738371402 1.783051956e-16)
(0.9034381996 -0.06257030445 -4.530464226e-16)
(1.176224045 -0.003133173443 4.617662594e-16)
(0.8544346858 -0.01556171686 -4.171089866e-16)
(1.573850255 -0.7569262923 -6.763034989e-18)
(1.00253577 -0.5225442067 -1.536846785e-17)
(1.477995365 -0.42109174 3.553241083e-16)
(0.9410712516 -0.2578779902 -2.096576581e-16)
(1.378104026 -0.2445174045 2.83810893e-16)
(0.9376424709 -0.1468136866 -2.228827892e-16)
(1.292822491 -0.1326525538 1.717406226e-16)
(0.9376407785 -0.09422087706 -5.649311728e-17)
(1.225813133 -0.05557822999 -9.809320093e-17)
(0.9161636378 -0.05800498503 3.330343534e-16)
(1.178168182 -0.004731920809 -3.252357848e-16)
(0.8569078934 -0.01306912156 3.589217059e-16)
(1.735600715 -0.6791190799 -8.723236292e-17)
(1.114116857 -0.4685535911 3.886809853e-17)
(1.56775894 -0.3778401151 -4.215660727e-16)
(0.9962385131 -0.2312786088 1.474397103e-16)
(1.430174668 -0.2194955763 -2.941534413e-16)
(0.9693554979 -0.1318173417 2.742449519e-16)
(1.320889322 -0.1190700432 -2.159664343e-16)
(0.9585669139 -0.08488362791 8.49801117e-17)
(1.236941646 -0.04958699898 3.547479998e-18)
(0.9299207688 -0.0527759737 -3.095072772e-17)
(1.177789914 -0.003458445555 1.588842318e-17)
(0.8613696804 -0.01280966911 -5.603612101e-17)
(1.875948358 -0.567384378 3.347627334e-17)
(1.211397302 -0.3911940699 2.029671606e-17)
(1.645959677 -0.3157084663 2.43917323e-16)
(1.044298675 -0.192914077 2.81152266e-17)
(1.475643242 -0.1834748993 1.04816956e-16)
(0.9965274834 -0.109637234 -4.360978598e-17)
(1.345746323 -0.09987658872 8.354658442e-17)
(0.9756106612 -0.07004446211 4.64428779e-18)
(1.247830445 -0.04246631259 -3.790606053e-17)
(0.9399737304 -0.04262471227 6.195136429e-17)
(1.179533995 -0.004717946526 -7.85974389e-17)
(0.8632543883 -0.00868272519 1.206313968e-16)
(1.987936221 -0.4270436184 1.961066179e-17)
(1.288570356 -0.2941482608 2.567927384e-18)
(1.708081634 -0.2377801994 -2.140240385e-16)
(1.082424728 -0.1450805612 1.808633875e-17)
(1.511711044 -0.138343166 -1.889983068e-16)
(1.01837821 -0.08249884904 1.445318974e-16)
(1.365291791 -0.07539268877 -2.135120741e-16)
(0.9899246821 -0.05280440128 1.386245827e-16)
(1.255743973 -0.03196162172 -8.809725441e-17)
(0.9493051595 -0.03243222148 9.236046141e-17)
(1.17948392 -0.00313103766 -1.237827728e-16)
(0.8662967602 -0.007329821131 1.183732396e-16)
(2.065868774 -0.2654610192 8.393328306e-18)
(1.342560447 -0.182286815 3.636734725e-17)
(1.751520084 -0.1478081925 9.673031905e-17)
(1.10909427 -0.08965568133 5.075550378e-17)
(1.537012161 -0.08606411656 5.941804184e-17)
(1.03340353 -0.05067635334 1.585930311e-17)
(1.379228619 -0.04722106649 2.824889249e-17)
(0.9992456596 -0.03194563292 3.634449116e-17)
(1.262032468 -0.0207941375 -3.881251981e-17)
(0.9546660652 -0.01873454566 5.503624733e-17)
(1.180781239 -0.003639565275 -5.768151867e-17)
(0.8670629957 -0.002417530971 6.811822811e-17)
(2.105888816 -0.0903716963 -1.529476981e-17)
(1.370084397 -0.06138442665 -1.502536428e-17)
(1.773708851 -0.0506128998 -1.032640384e-16)
(1.122677839 -0.0300721501 2.523589007e-18)
(1.549935734 -0.02975097051 -1.14249622e-16)
(1.041125345 -0.0168465006 5.845220864e-17)
(1.386340057 -0.01667066463 -1.152402518e-16)
(1.004203 -0.01037360262 7.520663978e-17)
(1.265066624 -0.007811287555 -7.723709079e-17)
(0.9578457543 -0.005800840503 7.794291663e-17)
(1.180940607 -0.001980511007 -9.131045766e-17)
(0.8681826035 -0.0003866773854 9.971503894e-17)
(2.105955911 0.08905624635 2.154482708e-17)
(1.370084836 0.06276397685 4.2024343e-17)
(1.773738491 0.04934257603 4.999407806e-17)
(1.122658084 0.03141146702 5.394247507e-17)
(1.550006014 0.02840298359 3.413009876e-17)
(1.041010705 0.01834981647 4.439576771e-17)
(1.386534978 0.01485512402 1.336304993e-17)
(1.003945955 0.01248655889 3.772542944e-17)
(1.265420779 0.005074712653 -2.068228045e-17)
(0.9574853759 0.008913254862 3.359445223e-17)
(1.181388404 -0.001835145488 -3.260543094e-17)
(0.867839818 0.004486366922 3.689812035e-17)
(2.066057048 0.2642191995 -4.191723355e-17)
(1.342539474 0.1836244703 -3.244454901e-17)
(1.751589726 0.1465988172 -7.116560456e-17)
(1.109047172 0.09095563317 -1.911526711e-17)
(1.53721033 0.08479866871 -1.180155235e-16)
(1.0331399 0.05210324672 4.463193995e-17)
(1.379759891 0.04554634212 -1.419968553e-16)
(0.9986754015 0.03391806489 8.7225145e-17)
(1.262896671 0.01826293371 -9.266043301e-17)
(0.9540111563 0.02167187639 1.07602334e-16)
(1.181650196 4.364163261e-05 -1.251564884e-16)
(0.8668470442 0.006395028199 1.600302849e-16)
(1.988222479 0.4259486103 3.666506526e-17)
(1.288574565 0.2954092655 5.640379073e-17)
(1.708185834 0.2366856757 4.838455369e-17)
(1.082362337 0.1462908833 7.829171894e-17)
(1.512006441 0.1372384947 5.221640861e-17)
(1.017935503 0.08374361958 6.359126894e-17)
(1.366121555 0.07403009929 5.513341264e-17)
(0.9889375051 0.05442157141 3.739694999e-17)
(1.257168317 0.029964338 -7.204252587e-19)
(0.9480688768 0.034830883 -2.29356162e-17)
(1.181067558 0.0002467345731 2.866081413e-17)
(0.8655474771 0.01068882463 -3.259469819e-17)
(1.87628844 0.5664883301 -1.225281456e-16)
(1.211419837 0.3923445637 -3.60534285e-17)
(1.646049288 0.3147759971 -1.25412743e-16)
(1.044255008 0.1940226153 3.107581649e-17)
(1.47597936 0.1825859703 -2.137083533e-16)
(0.9960481679 0.1106918877 8.859858523e-17)
(1.346731937 0.09887504351 -2.244143836e-16)
(0.9745317531 0.07131632973 1.334771047e-16)
(1.249465578 0.0409873075 -1.683156549e-16)
(0.9387334149 0.04459386064 2.484584129e-16)
(1.181190432 0.002384575585 -2.459031295e-16)
(0.8628423794 0.01173349037 3.097942052e-16)
(1.735944271 0.6784714982 2.003590837e-16)
(1.114224112 0.4695855898 1.750920581e-17)
(1.567817468 0.3771071415 9.750170428e-17)
(0.9962399994 0.2322432437 -1.805348711e-17)
(1.430495145 0.2188749706 1.708070058e-16)
(0.9688269625 0.1325747379 1.976052676e-17)
(1.321937642 0.1185755516 9.786744167e-17)
(0.9573237001 0.08557395808 -6.742928658e-17)
(1.238754278 0.04897439217 1.605972316e-16)
(0.9284579941 0.05386619944 -2.860315577e-16)
(1.179694254 0.002282892486 2.256421247e-16)
(0.8608064207 0.01486689233 -2.271526001e-16)
(1.574137796 0.7565444906 -1.311433442e-16)
(1.002723781 0.523437647 2.265997353e-17)
(1.477954814 0.4205688123 -8.786260659e-17)
(0.9411639187 0.2587207024 1.02486151e-16)
(1.378327824 0.2441652405 -2.349634736e-16)
(0.9372515572 0.1473634546 8.317501424e-17)
(1.293738815 0.1325884176 -1.894205611e-16)
(0.9366482689 0.09454386498 9.233747863e-17)
(1.227361033 0.05556519763 -2.134161684e-16)
(0.9151474174 0.05863879803 4.649221378e-16)
(1.179593486 0.004188376627 -4.912045411e-16)
(0.8570172525 0.014780873 4.697613745e-16)
(1.399062149 0.796580462 -3.7122511e-17)
(0.8815921502 0.5508258225 3.63190378e-17)
(1.380415817 0.4427796594 -1.511320657e-16)
(0.8813672009 0.2722704095 -8.642912893e-17)
(1.321595053 0.2571046577 1.612982753e-16)
(0.9034238705 0.1552123557 -3.5053409e-17)
(1.262694447 0.1395869839 1.363811272e-16)
(0.9153879059 0.09983648969 -1.148796546e-16)
(1.213737093 0.05822814426 2.064216677e-16)
(0.9026202684 0.06232066658 -4.648605802e-16)
(1.177363789 0.003753655175 4.720096974e-16)
(0.8547988373 0.01627005677 -3.863603796e-16)
(1.219437868 0.7967177254 1.279039815e-16)
(0.7578042157 0.550944835 -7.94941996e-17)
(1.280590361 0.4429868163 4.488387583e-16)
(0.8202072355 0.2722526189 -1.646367549e-16)
(1.263593195 0.2572789175 2.356202974e-16)
(0.8684110353 0.1549297348 -2.024423873e-16)
(1.231276204 0.1398941801 2.25807615e-16)
(0.892554433 0.09915500413 -6.137630521e-17)
(1.2009615 0.05894264823 -6.494521888e-17)
(0.8879555837 0.06119982298 3.460430057e-16)
(1.177190775 0.004946196451 -3.493205946e-16)
(0.8505054421 0.01497341867 2.769723393e-16)
(1.044294711 0.7568566489 -2.931061648e-17)
(0.6367565761 0.5230676305 -2.764570387e-17)
(1.183096192 0.4206834493 -5.950998686e-16)
(0.7604945965 0.2584626924 2.479816288e-16)
(1.206901771 0.2443062903 -4.812140311e-16)
(0.8346592535 0.1472114042 2.807344755e-16)
(1.200203819 0.1327624025 -2.862637774e-16)
(0.8713850768 0.09448357101 6.33436561e-17)
(1.187201533 0.05562143384 1.222361368e-16)
(0.8756125028 0.05870066247 -4.597304747e-16)
(1.174672457 0.003994585756 4.478981501e-16)
(0.8487069223 0.0148407724 -5.091658881e-16)
(0.8824487835 0.6790329011 1.54416525e-16)
(0.5251756309 0.4694147636 -4.615493822e-17)
(1.093056963 0.3775712127 8.098269582e-16)
(0.7053377555 0.2319318083 -2.462145351e-16)
(1.154516401 0.21930877 6.395385227e-16)
(0.8031235863 0.1319045635 -5.441122477e-16)
(1.171741917 0.1193114213 5.075829349e-16)
(0.8509138296 0.08427963944 -2.576619995e-16)
(1.175509834 0.0503948111 1.052824522e-16)
(0.8624969941 0.0518432166 -6.805070369e-17)
(1.174419279 0.004420977546 1.216510278e-16)
(0.8446698994 0.01236858142 -3.342369384e-17)
(0.7419180068 0.5671560677 1.469604837e-17)
(0.4281978792 0.3918239595 -4.974800436e-17)
(1.014937107 0.3151987765 -4.765190293e-16)
(0.6575654734 0.1935642203 -1.455874466e-16)
(1.109146819 0.1830077144 -1.745636169e-16)
(0.7761603392 0.1101806927 5.848236719e-17)
(1.14689641 0.09941764626 -1.492835976e-16)
(0.8340280574 0.07062711166 -1.959288237e-17)
(1.164510014 0.04161120243 8.539413875e-17)
(0.8527379069 0.04377079743 -4.801462576e-17)
(1.172327844 0.002920579865 8.824986595e-17)
(0.8435876829 0.01079813993 -1.515077065e-16)
(0.6299391035 0.4267960453 -1.787254824e-16)
(0.3509117342 0.2949828558 -1.50690312e-17)
(0.9525275503 0.2372726955 4.244645572e-16)
(0.6193054031 0.145728122 3.127328938e-17)
(1.072752673 0.1377544964 3.949057014e-16)
(0.7542748401 0.08284003701 -3.272177916e-16)
(1.127048526 0.074858246 5.305036392e-16)
(0.8198406471 0.05287964548 -3.589854204e-16)
(1.156283685 0.0314900153 2.126674978e-16)
(0.8435965302 0.03249119441 -2.599547716e-16)
(1.17214884 0.00251429687 3.607211874e-16)
(0.8404855881 0.007641662988 -3.485538127e-16)
(0.5518459421 0.2650547699 1.099622924e-16)
(0.2971973903 0.1830861938 -1.522603581e-17)