/*--------------------------------*- C++ -*----------------------------------*\
| =========                 |                                                 |
| \\      /  F ield         | foam-extend: Open Source CFD                    |
|  \\    /   O peration     | Version:  3.0                                   |
|   \\  /    A nd           | Web:         http://www.extend-project.de       |
|    \\/     M anipulation  |                                                 |
\*---------------------------------------------------------------------------*/
FoamFile
{
    version     2.0;
    format      ascii;
    class       volVectorField;
    location    "29";
    object      u;
}
// * * * * * * * * * * * * * * * * * * * * * * * * * * * * * * * * * * * * * //

dimensions      [0 0 0 0 0 0 0];

internalField   nonuniform List<vector> 
480
(
(0.282497 -0.102668 3.58277e-19)
(0.543659 -0.0692119 1.76818e-18)
(0.723095 -0.0486365 -3.59591e-18)
(0.817259 -0.0347059 3.98312e-18)
(0.897388 -0.0252126 2.55595e-18)
(0.932715 -0.0184215 -2.12095e-18)
(0.973974 -0.0129693 -1.29146e-17)
(0.981997 -0.00903413 9.94311e-18)
(1.00448 -0.00497432 -8.10372e-18)
(0.995479 -0.00180641 -8.4302e-18)
(0.335513 -0.300364 1.94932e-18)
(0.579328 -0.202117 2.581e-18)
(0.748074 -0.141611 -1.90169e-17)
(0.83499 -0.100572 -1.63738e-17)
(0.910161 -0.0725286 1.39696e-17)
(0.94193 -0.0523895 3.95167e-18)
(0.980316 -0.0361577 6.46285e-18)
(0.986251 -0.0243535 -2.04172e-17)
(1.00657 -0.0121386 2.78237e-17)
(0.995829 -0.0023491 4.83957e-18)
(0.437893 -0.477607 -2.1151e-18)
(0.648179 -0.32127 2.86331e-18)
(0.79627 -0.22496 1.22207e-17)
(0.869167 -0.159616 1.13952e-17)
(0.934752 -0.114938 2.29967e-17)
(0.959626 -0.0828298 -7.04551e-18)
(0.992451 -0.0569297 3.13482e-18)
(0.99433 -0.038068 1.01215e-18)
(1.01045 -0.0185379 2.86632e-17)
(0.996315 -0.00280635 -5.22055e-17)
(0.582658 -0.622318 1.15266e-18)
(0.745527 -0.418548 3.44783e-17)
(0.864398 -0.293004 1.23503e-17)
(0.917467 -0.207811 -6.38343e-18)
(0.969486 -0.14955 -8.03507e-18)
(0.984606 -0.107665 -1.53296e-18)
(1.00956 -0.0738692 -3.56119e-19)
(1.00569 -0.0492404 -8.96111e-18)
(1.01586 -0.0237351 -4.08592e-17)
(0.996916 -0.00314398 6.50382e-17)
(0.75995 -0.724634 -8.25883e-18)
(0.864738 -0.487323 6.72206e-18)
(0.947822 -0.341103 1.18911e-17)
(0.9766 -0.241874 1.30464e-17)
(1.012 -0.174003 -1.72686e-17)
(1.01517 -0.125202 -3.51871e-18)
(1.03047 -0.0858175 -1.23759e-17)
(1.01957 -0.0571076 -1.53737e-17)
(1.02245 -0.027371 4.77086e-17)
(0.997595 -0.00333555 -6.84551e-17)
(0.957682 -0.777582 1.1171e-17)
(0.997694 -0.522904 -1.7504e-17)
(1.04086 -0.365979 -2.00493e-17)
(1.04254 -0.259478 -2.05242e-17)
(1.05941 -0.186629 -4.02823e-18)
(1.04924 -0.134241 -5.60077e-18)
(1.05378 -0.0919592 5.53128e-17)
(1.03503 -0.0611281 -2.7303e-17)
(1.02977 -0.0291957 3.34818e-17)
(0.998319 -0.00336157 -1.0189e-17)
(1.16239 -0.77755 1.12596e-17)
(1.13533 -0.522868 -1.18962e-17)
(1.13717 -0.365933 -2.21815e-17)
(1.1108 -0.259424 -2.90433e-17)
(1.10848 -0.186563 -1.84582e-19)
(1.0845 -0.134164 1.33279e-17)
(1.07789 -0.0918693 1.21612e-17)
(1.05101 -0.0610254 6.01634e-19)
(1.03733 -0.0290772 2.95432e-17)
(0.999042 -0.00321641 -2.92596e-18)
(1.36011 -0.724543 -5.09423e-18)
(1.26828 -0.487212 -8.91652e-19)
(1.23019 -0.340969 5.35194e-18)
(1.17673 -0.241709 7.8966e-18)
(1.15586 -0.173808 1.25557e-17)
(1.11856 -0.124971 3.32753e-18)
(1.10118 -0.085552 -6.57971e-18)
(1.06644 -0.056799 6.77043e-18)
(1.04461 -0.0270205 -2.83924e-17)
(0.999723 -0.00290106 4.80011e-17)
(1.53738 -0.622167 1.82451e-18)
(1.38747 -0.418367 9.30209e-18)
(1.3136 -0.29278 1.41244e-17)
(1.23584 -0.207541 6.38832e-18)
(1.19835 -0.149227 -1.01957e-17)
(1.14909 -0.107286 6.88879e-19)
(1.12205 -0.0734295 -4.06522e-19)
(1.08026 -0.0487337 3.46929e-18)
(1.05114 -0.0231561 -3.10292e-18)
(1.00032 -0.0024325 1.07238e-17)
(1.68212 -0.477402 1.62434e-18)
(1.48479 -0.321018 2.4907e-19)
(1.38169 -0.224652 1.10403e-17)
(1.2841 -0.159241 8.16895e-18)
(1.23304 -0.114494 5.76282e-18)
(1.17401 -0.0823054 -5.79156e-18)
(1.13909 -0.0563255 1.03183e-18)
(1.09155 -0.0373699 -2.12394e-18)
(1.05646 -0.0177435 -1.26427e-17)
(1.0008 -0.0018318 2.67467e-18)
(1.78447 -0.300106 9.63958e-19)
(1.55361 -0.201801 -7.34593e-19)
(1.42985 -0.14122 3.13937e-18)
(1.31823 -0.1001 3.10828e-19)
(1.25757 -0.0719668 5.63035e-20)
(1.19163 -0.0517305 2.41702e-18)
(1.15114 -0.035396 2.86694e-18)
(1.09952 -0.0234786 1.59557e-18)
(1.06022 -0.0111402 -5.70417e-18)
(1.00113 -0.00113454 3.02218e-18)
(1.83744 -0.102365 6.08122e-19)
(1.58923 -0.0688338 -8.19338e-19)
(1.45477 -0.0481708 2.33212e-18)
(1.33589 -0.0341399 1.15214e-18)
(1.27027 -0.0245431 -6.59128e-19)
(1.20076 -0.0176356 1.37824e-18)
(1.15738 -0.0120648 1.57583e-18)
(1.10365 -0.00799596 1.13528e-18)
(1.06217 -0.00379201 -4.01252e-18)
(1.0013 -0.000375775 5.6178e-19)
(1.83744 0.102352 2.3094e-19)
(1.58923 0.0688213 -1.14565e-18)
(1.45478 0.0481629 2.51461e-18)
(1.3359 0.0341439 1.79039e-18)
(1.27027 0.0245543 -1.68299e-18)
(1.20076 0.0176579 1.33127e-19)
(1.15738 0.0120886 7.50022e-19)
(1.10365 0.00802671 7.00255e-19)
(1.06217 0.00381258 -4.02443e-18)
(1.00128 0.000399075 6.13943e-19)
(1.78446 0.300092 -2.31354e-20)
(1.55361 0.20179 -2.01275e-18)
(1.42986 0.141215 2.81073e-18)
(1.31824 0.100106 3.46778e-18)
(1.25758 0.0719802 -4.17604e-18)
(1.19164 0.0517539 -8.554e-19)
(1.15115 0.0354206 -2.12403e-18)
(1.09953 0.0235082 4.28985e-18)
(1.06022 0.0111598 -8.23624e-18)
(1.0011 0.00115074 1.95581e-18)
(1.68211 0.477387 1.17095e-18)
(1.4848 0.32101 -3.41104e-18)
(1.38171 0.224651 -6.644e-18)
(1.28412 0.159252 -3.25483e-18)
(1.23306 0.114511 -5.5636e-18)
(1.17403 0.0823309 3.02228e-18)
(1.13911 0.0563514 -8.95133e-19)
(1.09155 0.0373976 -5.61883e-19)
(1.05646 0.0177612 -5.24795e-18)
(1.00075 0.00183498 1.66999e-17)
(1.53737 0.622151 7.89633e-19)
(1.38748 0.418362 -1.53046e-17)
(1.31361 0.292785 -5.68228e-18)
(1.23586 0.207557 5.08413e-18)
(1.19838 0.14925 8.27129e-18)
(1.14911 0.107314 7.37961e-19)
(1.12207 0.0734569 -1.24547e-18)
(1.08027 0.0487586 4.80011e-18)
(1.05114 0.0231714 1.81283e-17)
(1.00026 0.00241889 -2.82833e-17)
(1.36009 0.724526 6.18248e-18)
(1.26828 0.487211 2.27706e-18)
(1.23021 0.34098 -4.13731e-18)
(1.17676 0.241731 -5.70169e-18)
(1.15589 0.173836 1.14651e-17)
(1.11858 0.125001 1.58746e-19)
(1.1012 0.0855809 -4.91223e-19)
(1.06645 0.0568208 8.32341e-18)
(1.04462 0.0270332 -3.7473e-17)
(0.999659 0.00286973 4.82184e-17)
(1.16237 0.777533 -1.14804e-17)
(1.13533 0.522872 1.77279e-17)
(1.13719 0.365951 1.93628e-17)
(1.11083 0.259451 2.01558e-17)
(1.1085 0.186595 -1.22269e-18)
(1.08453 0.134197 -5.58906e-20)
(1.07792 0.0918992 -5.07723e-17)
(1.05102 0.0610442 1.96455e-17)
(1.03733 0.0290874 -2.43467e-17)
(0.998983 0.00316946 -2.57841e-18)
(0.957664 0.777566 -1.43823e-17)
(0.997694 0.522912 8.63025e-18)
(1.04087 0.366002 1.62499e-17)
(1.04256 0.259509 2.27601e-17)
(1.05943 0.186664 -6.31226e-18)
(1.04927 0.134274 -1.6321e-17)
(1.0538 0.0919894 -3.0187e-18)
(1.03504 0.0611441 -2.74247e-18)
(1.02978 0.0292039 -1.97374e-17)
(0.998272 0.00330388 -7.78993e-18)
(0.759933 0.724621 4.53216e-18)
(0.864735 0.487334 -5.37977e-18)
(0.94783 0.341128 -2.06386e-17)
(0.976617 0.241907 -2.49889e-17)
(1.01203 0.174039 -1.73149e-17)
(1.0152 0.125235 5.14358e-19)
(1.0305 0.0858468 1.51929e-17)
(1.01959 0.0571213 -6.60538e-18)
(1.02246 0.027378 5.01995e-17)
(0.997565 0.00327414 -6.97174e-17)
(0.582643 0.62231 -6.34654e-18)
(0.745521 0.418562 -1.87505e-17)
(0.8644 0.29303 -3.07479e-17)
(0.917479 0.207844 -1.52199e-17)
(0.969504 0.149585 2.55707e-17)
(0.984631 0.107696 3.8616e-18)
(1.00958 0.0738963 -5.69678e-19)
(1.00572 0.0492525 -2.34788e-18)
(1.01588 0.0237418 5.22373e-18)
(0.996903 0.00308685 -8.89897e-18)
(0.437879 0.477605 -2.12526e-18)
(0.648168 0.321285 7.06114e-18)
(0.796266 0.224985 -2.02113e-17)
(0.869173 0.159645 -1.50231e-17)
(0.934766 0.114969 -1.41474e-17)
(0.959648 0.0828565 1.51596e-17)
(0.992475 0.0569536 -6.71496e-18)
(0.994356 0.0380792 5.43631e-18)
(1.01047 0.0185451 3.61083e-17)
(0.99632 0.00276166 -6.83667e-18)
(0.335499 0.30037 -3.85139e-21)
(0.579314 0.202133 8.33882e-18)
(0.748065 0.141632 3.76644e-18)
(0.834992 0.100596 1.22279e-17)
(0.91017 0.0725532 7.77927e-18)
(0.941949 0.0524111 -1.39717e-17)
(0.980338 0.0361771 -1.09558e-17)
(0.986279 0.0243642 -9.26086e-18)
(1.00659 0.0121469 9.36499e-18)
(0.995846 0.00232313 -1.27535e-17)
(0.282483 0.102682 -9.53745e-19)
(0.543643 0.0692278 2.98828e-18)
(0.723082 0.0486534 -3.66004e-19)
(0.817258 0.0347227 -4.71096e-18)
(0.897394 0.025229 -3.03525e-20)
(0.932733 0.0184365 1.11331e-20)
(0.973995 0.0129833 6.50546e-18)
(0.982026 0.0090449 -2.54858e-18)
(1.0045 0.00498421 1.19367e-17)
(0.995503 0.00180413 4.57715e-18)
(0.282436 -0.101986 -3.59489e-19)
(0.543589 -0.0683738 -1.76864e-18)
(0.723013 -0.0476149 3.59731e-18)
(0.817178 -0.0334857 -3.98258e-18)
(0.897298 -0.0237773 -2.55771e-18)
(0.932623 -0.0167517 2.12118e-18)
(0.973867 -0.0110457 1.29169e-17)
(0.981882 -0.00683445 -9.9434e-18)
(1.00434 -0.0024534 8.10317e-18)
(0.995304 0.00124024 8.43306e-18)
(0.335365 -0.299686 -1.95107e-18)
(0.579147 -0.201294 -2.5824e-18)
(0.747863 -0.140612 1.90198e-17)
(0.834751 -0.0993807 1.63767e-17)
(0.909889 -0.0711261 -1.39747e-17)
(0.94162 -0.0507555 -3.9518e-18)
(0.979961 -0.0342724 -6.46568e-18)
(0.985847 -0.0221919 2.04251e-17)
(1.0061 -0.00965923 -2.78356e-17)
(0.995251 0.00066908 -4.83998e-18)
(0.437654 -0.476946 2.11353e-18)
(0.647895 -0.320475 -2.86447e-18)
(0.795932 -0.224 -1.22228e-17)
(0.868778 -0.158471 -1.13965e-17)
(0.934299 -0.113592 -2.29994e-17)
(0.959108 -0.0812577 7.04783e-18)
(0.991851 -0.0551153 -3.13578e-18)
(0.993647 -0.0359815 -1.01269e-18)
(1.00965 -0.0161439 -2.86641e-17)
(0.99534 0.000127978 5.22154e-17)
(0.582337 -0.621686 -1.15341e-18)
(0.745143 -0.417795 -3.44819e-17)
(0.863943 -0.292097 -1.23495e-17)
(0.916933 -0.206733 6.38684e-18)
(0.968865 -0.14828 8.03698e-18)
(0.983886 -0.106182 1.5336e-18)
(1.00872 -0.0721547 3.55164e-19)
(1.00474 -0.0472664 8.96221e-18)
(1.01476 -0.021467 4.0868e-17)
(0.995554 -0.000350283 -6.50629e-17)
(0.759546 -0.724044 8.25924e-18)
(0.864264 -0.486623 -6.71998e-18)
(0.947254 -0.340264 -1.18894e-17)
(0.975933 -0.240876 -1.30462e-17)
(1.01122 -0.17283 1.72669e-17)
(1.01426 -0.123831 3.51876e-18)
(1.02942 -0.0842333 1.23697e-17)
(1.01836 -0.0552793 1.53731e-17)
(1.02106 -0.0252703 -4.77228e-17)
(0.995871 -0.000735951 6.84628e-17)
(0.957209 -0.777043 -1.11714e-17)
(0.997133 -0.52227 1.75077e-17)
(1.04019 -0.365219 2.00514e-17)
(1.04175 -0.258578 2.05269e-17)
(1.05848 -0.18557 4.02524e-18)
(1.04816 -0.133006 5.60051e-18)
(1.05253 -0.0905294 -5.53297e-17)
(1.03359 -0.0594796 2.73066e-17)
(1.02811 -0.0272971 -3.34861e-17)
(0.996261 -0.0010095 1.01878e-17)
(1.16185 -0.777077 -1.12596e-17)
(1.1347 -0.522308 1.1897e-17)
(1.13641 -0.365266 2.21801e-17)
(1.1099 -0.258634 2.90387e-17)
(1.10742 -0.185637 1.80913e-19)
(1.08327 -0.133083 -1.33265e-17)
(1.07647 -0.0906202 -1.21598e-17)
(1.04936 -0.0595833 -6.00531e-19)
(1.03543 -0.0274167 -2.95359e-17)
(0.99669 -0.00115599 2.92589e-18)
(1.35952 -0.72414 5.09459e-18)
(1.26758 -0.486738 8.89433e-19)
(1.22936 -0.340402 -5.35564e-18)
(1.17573 -0.241044 -7.90113e-18)
(1.15469 -0.173027 -1.25591e-17)
(1.11719 -0.124064 -3.32451e-18)
(1.0996 -0.0845016 6.58157e-18)
(1.06461 -0.0555911 -6.76761e-18)
(1.04251 -0.0256242 2.84012e-17)
(0.997123 -0.00117438 -4.8003e-17)
(1.53675 -0.621846 -1.8242e-18)
(1.38672 -0.417983 -9.3048e-18)
(1.31269 -0.292326 -1.41239e-17)
(1.23476 -0.207008 -6.387e-18)
(1.19708 -0.148607 1.01924e-17)
(1.1476 -0.106566 -6.8722e-19)
(1.12034 -0.0725989 4.05973e-19)
(1.07829 -0.047778 -3.46661e-18)
(1.04887 -0.0220513 3.10553e-18)
(0.997524 -0.00106788 -1.07243e-17)
(1.68146 -0.477163 -1.62469e-18)
(1.484 -0.320735 -2.49596e-19)
(1.38073 -0.224315 -1.1038e-17)
(1.28296 -0.158853 -8.16664e-18)
(1.23169 -0.114041 -5.7639e-18)
(1.17244 -0.0817878 5.79009e-18)
(1.13728 -0.0557255 -1.03379e-18)
(1.08946 -0.0366859 2.12247e-18)
(1.05407 -0.0169454 1.26383e-17)
(0.997861 -0.000854574 -2.67836e-18)
(1.78379 -0.299958 -9.65116e-19)
(1.55278 -0.201621 7.32875e-19)
(1.42885 -0.14101 -3.13722e-18)
(1.31704 -0.0998607 -3.10224e-19)
(1.25617 -0.0716949 -5.83907e-20)
(1.19 -0.0514214 -2.41574e-18)
(1.14926 -0.035041 -2.865e-18)
(1.09736 -0.0230741 -1.59277e-18)
(1.05774 -0.0106657 5.6986e-18)
(0.998108 -0.000554349 -3.02155e-18)
(1.83676 -0.102304 -6.09816e-19)
(1.58839 -0.0687633 8.18274e-19)
(1.45375 -0.0480896 -2.33191e-18)
(1.33467 -0.0340595 -1.15238e-18)
(1.26883 -0.024454 6.57679e-19)
(1.19909 -0.0175447 -1.37763e-18)
(1.15546 -0.0119576 -1.5763e-18)
(1.10146 -0.00788056 -1.13441e-18)
(1.05965 -0.00364457 4.00842e-18)
(0.998243 -0.000200115 -5.65013e-19)
(1.83677 0.102322 -2.3305e-19)
(1.58839 0.068784 1.14465e-18)
(1.45375 0.0481076 -2.5145e-18)
(1.33467 0.0340659 -1.78975e-18)
(1.26883 0.0244528 1.68142e-18)
(1.19909 0.0175313 -1.3388e-19)
(1.15545 0.0119412 -7.53497e-19)
(1.10146 0.00785532 -6.97081e-19)
(1.05965 0.00362746 4.01976e-18)
(0.998256 0.000177708 -6.18997e-19)
(1.7838 0.299977 2.05063e-20)
(1.55278 0.201641 2.01087e-18)
(1.42884 0.141027 -2.81156e-18)
(1.31703 0.0998653 -3.46921e-18)
(1.25616 0.071692 4.17433e-18)
(1.18999 0.0514073 8.56572e-19)
(1.14925 0.0350244 2.12384e-18)
(1.09736 0.0230504 -4.29264e-18)
(1.05775 0.0106503 8.23889e-18)
(0.998145 0.000539808 -1.9546e-18)
(1.68148 0.477185 -1.17355e-18)
(1.484 0.320754 3.40954e-18)
(1.38072 0.224327 6.64309e-18)
(1.28294 0.158854 3.25512e-18)
(1.23168 0.114036 5.56565e-18)
(1.17243 0.0817726 -3.02254e-18)
(1.13727 0.0557086 8.95056e-19)
(1.08946 0.0366654 5.60184e-19)
(1.05407 0.0169329 5.2607e-18)
(0.997918 0.000854527 -1.67154e-17)
(1.53678 0.621872 -7.90938e-19)
(1.38672 0.418 1.53034e-17)
(1.31268 0.292334 5.68364e-18)
(1.23474 0.207005 -5.08271e-18)
(1.19706 0.148597 -8.27211e-18)
(1.14759 0.106549 -7.38689e-19)
(1.12032 0.0725818 1.2439e-18)
(1.07829 0.0477618 -4.80269e-18)
(1.04888 0.0220429 -1.81335e-17)
(0.997594 0.00108666 2.82847e-17)
(1.35955 0.724171 -6.18289e-18)
(1.26758 0.486753 -2.27515e-18)
(1.22934 0.340406 4.13883e-18)
(1.17571 0.241037 5.7021e-18)
(1.15467 0.173014 -1.14703e-17)
(1.11717 0.124047 -1.60424e-19)
(1.09958 0.0844848 4.82941e-19)
(1.06461 0.0555798 -8.32811e-18)
(1.04252 0.0256205 3.7477e-17)
(0.997196 0.00121333 -4.82313e-17)
(1.16188 0.777111 1.14796e-17)
(1.13471 0.522322 -1.77251e-17)
(1.1364 0.365267 -1.93623e-17)
(1.10988 0.258623 -2.01548e-17)
(1.10739 0.185621 1.21853e-18)
(1.08325 0.133066 5.46403e-20)
(1.07645 0.0906043 5.0762e-17)
(1.04936 0.0595772 -1.96453e-17)
(1.03543 0.0274178 2.43513e-17)
(0.99676 0.00121319 2.57328e-18)
(0.957242 0.77708 1.43816e-17)
(0.997144 0.522283 -8.62972e-18)
(1.04019 0.365217 -1.62513e-17)
(1.04174 0.258566 -2.27645e-17)
(1.05846 0.185553 6.30778e-18)
(1.04814 0.132989 1.6321e-17)
(1.05251 0.0905151 3.01997e-18)
(1.03358 0.0594783 2.74036e-18)
(1.02811 0.0273025 1.97442e-17)
(0.996318 0.00108003 7.7825e-18)
(0.759577 0.724081 -4.53213e-18)
(0.864277 0.486635 5.37735e-18)
(0.947255 0.340261 2.06337e-17)
(0.975923 0.240864 2.49819e-17)
(1.0112 0.172814 1.73097e-17)
(1.01424 0.123817 -5.11779e-19)
(1.0294 0.0842219 -1.51895e-17)
(1.01835 0.0552823 6.60444e-18)
(1.02105 0.0252792 -5.01805e-17)
(0.995911 0.000812567 6.9694e-17)
(0.582365 0.621722 6.34636e-18)
(0.745159 0.417807 1.87466e-17)
(0.863948 0.292095 3.07456e-17)
(0.916927 0.206723 1.5219e-17)
(0.968852 0.148267 -2.55689e-17)
(0.983867 0.106172 -3.8586e-18)
(1.00871 0.0721471 5.68674e-19)
(1.00472 0.0472727 2.34808e-18)
(1.01475 0.0214781 -5.21964e-18)
(0.995574 0.000424528 8.89023e-18)
(0.437678 0.476979 2.12501e-18)
(0.647912 0.320488 -7.06068e-18)
(0.795941 0.224001 2.02111e-17)
(0.868775 0.158467 1.50226e-17)
(0.93429 0.113584 1.4144e-17)
(0.95909 0.0812528 -1.51557e-17)
(0.991832 0.0551124 6.71159e-18)
(0.993625 0.03599 -5.43656e-18)
(1.00964 0.0161561 -3.60953e-17)
(0.995342 -6.46323e-05 6.83037e-18)
(0.335384 0.299714 3.15959e-21)
(0.579165 0.201308 -8.33905e-18)
(0.747876 0.140617 -3.76332e-18)
(0.834751 0.0993825 -1.22247e-17)
(0.909882 0.0711259 -7.77905e-18)
(0.941603 0.0507567 1.3969e-17)
(0.979942 0.0342748 1.09532e-17)
(0.985822 0.0222018 9.25779e-18)
(1.00608 0.00967141 -9.36545e-18)
(0.995237 -0.000623533 1.27488e-17)
(0.282453 0.102007 9.52718e-19)
(0.543606 0.0683886 -2.98833e-18)
(0.723026 0.0476261 3.66759e-19)
(0.81718 0.0334953 4.71021e-18)
(0.897293 0.0237857 2.94449e-20)
(0.932606 0.0167599 -1.01365e-20)
(0.973847 0.0110538 -6.50293e-18)
(0.981854 0.0068447 2.54818e-18)
(1.00432 0.00246457 -1.19339e-17)
(0.995282 -0.00121793 -4.57468e-18)
)
;

boundaryField
{
    out
    {
        type            fixedValue;
        value           uniform (1 0 0);
    }
    in
    {
        type            myVelocity;
    }
    frontAndBack
    {
        type            empty;
    }
}


// ************************************************************************* //
