/*--------------------------------*- C++ -*----------------------------------*\
| =========                 |                                                 |
| \\      /  F ield         | foam-extend: Open Source CFD                    |
|  \\    /   O peration     | Version:  3.0                                   |
|   \\  /    A nd           | Web:         http://www.extend-project.de       |
|    \\/     M anipulation  |                                                 |
\*---------------------------------------------------------------------------*/
FoamFile
{
    version     2.0;
    format      ascii;
    class       volVectorField;
    location    "31";
    object      u;
}
// * * * * * * * * * * * * * * * * * * * * * * * * * * * * * * * * * * * * * //

dimensions      [0 0 0 0 0 0 0];

internalField   nonuniform List<vector> 
576
(
(0.0533944 -0.028349 2.17291e-20)
(0.137735 -0.0362754 3.91103e-19)
(0.255595 -0.0497181 -5.63142e-19)
(0.386724 -0.0530957 -7.75568e-19)
(0.497438 -0.0555163 -2.33588e-19)
(0.620197 -0.0542913 4.11569e-19)
(0.709845 -0.0517975 2.86874e-19)
(0.811078 -0.0465104 2.23109e-19)
(0.871493 -0.0404065 -1.86831e-19)
(0.94507 -0.0310459 -9.05778e-20)
(0.96938 -0.0210954 4.92189e-19)
(1.00878 -0.00752224 -6.29106e-20)
(0.0680711 -0.0831177 4.13833e-19)
(0.156513 -0.10636 -4.47959e-18)
(0.281333 -0.145777 -2.8331e-18)
(0.414211 -0.155681 -8.0549e-19)
(0.526179 -0.16279 1.51916e-18)
(0.648303 -0.159194 -1.56643e-19)
(0.736662 -0.151889 -4.87683e-19)
(0.835156 -0.136379 8.14878e-18)
(0.892414 -0.11849 6.38928e-18)
(0.961144 -0.0910331 1.52239e-18)
(0.980302 -0.0618631 -4.31071e-18)
(1.01267 -0.0220524 -4.54877e-18)
(0.0964198 -0.132221 -5.73953e-19)
(0.192791 -0.169195 2.31063e-18)
(0.331056 -0.231903 -7.42588e-19)
(0.467313 -0.247658 -6.332e-18)
(0.581705 -0.258969 -2.96452e-18)
(0.702604 -0.253249 3.81553e-18)
(0.78847 -0.24163 8.36684e-18)
(0.881676 -0.216957 1.89295e-18)
(0.932831 -0.188498 1.02849e-17)
(0.992196 -0.144821 4.21379e-18)
(1.00141 -0.0984156 6.58033e-19)
(1.02019 -0.0350845 1.16648e-17)
(0.136514 -0.172315 -4.52579e-19)
(0.244097 -0.2205 1.12831e-18)
(0.401377 -0.302222 -3.18211e-18)
(0.542412 -0.322756 6.51146e-18)
(0.660235 -0.337498 -7.46361e-18)
(0.779399 -0.330043 -3.5908e-19)
(0.861742 -0.314902 -1.1807e-18)
(0.947466 -0.282745 1.13818e-17)
(0.989991 -0.245659 8.15769e-18)
(1.03611 -0.188733 1.14113e-17)
(1.03125 -0.128259 6.96018e-18)
(1.03083 -0.0457207 2.58439e-17)
(0.185617 -0.200664 -1.76941e-19)
(0.30693 -0.256778 -1.41997e-18)
(0.4875 -0.351947 5.98508e-19)
(0.634386 -0.375859 -1.05563e-18)
(0.756411 -0.393028 4.30959e-18)
(0.873452 -0.384347 -1.04669e-17)
(0.95148 -0.366715 -6.00453e-18)
(1.02804 -0.329267 -1.96841e-17)
(1.06 -0.28608 -1.80077e-17)
(1.0899 -0.219787 -8.86331e-18)
(1.0678 -0.149363 -4.60772e-18)
(1.04386 -0.0532441 -2.97726e-17)
(0.240387 -0.21534 2.2283e-19)
(0.377016 -0.275558 1.80724e-18)
(0.583561 -0.377685 -1.69765e-19)
(0.736973 -0.403347 -3.99258e-18)
(0.863685 -0.421772 -1.02604e-18)
(0.978357 -0.412456 -1.99484e-18)
(1.05157 -0.393536 -8.01277e-18)
(1.11791 -0.353347 2.11946e-18)
(1.13808 -0.307003 -7.7063e-18)
(1.14988 -0.235859 -1.4499e-17)
(1.10856 -0.160288 2.2833e-18)
(1.0584 -0.0571368 -7.1327e-18)
(0.297086 -0.21534 6.28639e-19)
(0.44957 -0.275558 4.29315e-19)
(0.683007 -0.377686 7.98957e-18)
(0.843176 -0.403347 1.61719e-18)
(0.97474 -0.421773 5.77939e-19)
(1.08696 -0.412457 -1.64613e-18)
(1.15519 -0.393537 9.36818e-19)
(1.21095 -0.353348 4.83857e-18)
(1.21892 -0.307005 -2.5837e-18)
(1.21199 -0.23586 3.47025e-18)
(1.15077 -0.160289 -1.15752e-18)
(1.07344 -0.0571368 -4.9056e-18)
(0.351856 -0.200665 3.30005e-19)
(0.519656 -0.256779 1.08981e-18)
(0.779068 -0.351946 5.02932e-18)
(0.945764 -0.375859 -5.28835e-18)
(1.08201 -0.39303 8.46482e-18)
(1.19186 -0.384349 -6.1414e-18)
(1.25529 -0.366718 -4.16245e-18)
(1.30082 -0.329268 8.43175e-19)
(1.297 -0.286083 -1.32946e-17)
(1.27198 -0.219786 6.07201e-18)
(1.19154 -0.149367 -7.7347e-20)
(1.08798 -0.053242 1.26094e-17)
(0.400959 -0.172314 5.01449e-19)
(0.58249 -0.220502 9.19496e-19)
(0.865191 -0.302223 -3.34963e-18)
(1.03774 -0.322758 5.65374e-18)
(1.17819 -0.337503 -5.57083e-18)
(1.28592 -0.330048 8.34821e-18)
(1.34502 -0.314909 -2.50229e-18)
(1.3814 -0.282748 -1.60954e-17)
(1.36701 -0.245665 -1.49798e-17)
(1.32576 -0.188734 -5.23939e-18)
(1.22809 -0.128264 -1.279e-17)
(1.101 -0.0457191 1.25271e-17)
(0.441054 -0.132221 8.57087e-19)
(0.633797 -0.169197 2.17047e-18)
(0.935513 -0.231903 5.88906e-20)
(1.11284 -0.24766 3.92267e-18)
(1.25672 -0.258974 3.8921e-19)
(1.36271 -0.253253 5.31613e-18)
(1.4183 -0.241637 8.11521e-18)
(1.44719 -0.216959 -2.99362e-18)
(1.42417 -0.188506 3.65065e-18)
(1.36968 -0.144819 6.09174e-18)
(1.25793 -0.0984216 5.56912e-18)
(1.11164 -0.0350801 -5.93779e-18)
(0.469403 -0.0831166 2.51228e-19)
(0.670074 -0.106362 -2.52259e-19)
(0.985236 -0.145779 1.89027e-18)
(1.16594 -0.155685 -3.10793e-18)
(1.31225 -0.162797 2.43202e-18)
(1.41702 -0.159201 -1.74147e-19)
(1.47011 -0.151899 -1.0797e-18)
(1.49371 -0.136384 7.38641e-18)
(1.46458 -0.118499 6.31992e-18)
(1.40073 -0.091035 9.19382e-18)
(1.27903 -0.0618707 1.39908e-17)
(1.11916 -0.0220507 -2.01555e-18)
(0.48408 -0.0283478 -3.70168e-20)
(0.688855 -0.0362778 -2.22413e-18)
(1.01098 -0.0497195 -1.55013e-18)
(1.19343 -0.0530986 2.53423e-18)
(1.341 -0.0555247 -1.89701e-18)
(1.44513 -0.0542972 6.0858e-19)
(1.49693 -0.0518082 -1.62936e-18)
(1.51779 -0.046514 1.65541e-18)
(1.48551 -0.0404168 1.80856e-19)
(1.4168 -0.0310464 1.24627e-18)
(1.28996 -0.0211039 1.43528e-18)
(1.12306 -0.00751808 2.3368e-18)
(0.484079 0.0283526 -2.38506e-20)
(0.688854 0.0362777 1.75027e-18)
(1.01098 0.0497273 1.91319e-18)
(1.19343 0.0531048 2.08785e-18)
(1.341 0.0555307 2.00853e-18)
(1.44513 0.0543052 -1.66111e-20)
(1.49693 0.0518127 2.65443e-18)
(1.51779 0.0465249 -3.46046e-18)
(1.48551 0.0404197 -3.41562e-18)
(1.4168 0.0310572 -4.59984e-18)
(1.28996 0.0211015 1.59082e-19)
(1.12306 0.00752653 1.17799e-18)
(0.469405 0.0831217 4.21588e-19)
(0.670077 0.106363 -1.36363e-18)
(0.985241 0.145788 -3.24572e-19)
(1.16594 0.155692 1.58767e-18)
(1.31226 0.162804 3.72505e-18)
(1.41702 0.15921 7.92256e-19)
(1.47011 0.151905 -5.26908e-18)
(1.49371 0.136396 -3.06555e-18)
(1.46459 0.118503 -6.69391e-18)
(1.40073 0.091046 -5.47332e-18)
(1.27904 0.0618693 8.1696e-19)
(1.11916 0.0220589 -4.56125e-18)
(0.441054 0.132225 1.54249e-19)
(0.633797 0.169197 -4.0463e-18)
(0.935515 0.231911 -5.13443e-19)
(1.11284 0.247666 -5.9295e-18)
(1.25673 0.258981 1.44826e-18)
(1.36272 0.253262 -7.14011e-19)
(1.4183 0.241643 3.12544e-18)
(1.44719 0.21697 8.97072e-19)
(1.42417 0.188509 3.48286e-18)
(1.36967 0.144829 2.34e-18)
(1.25793 0.0984203 3.49216e-21)
(1.11164 0.0350875 -1.04123e-17)
(0.400962 0.17232 -1.00863e-18)
(0.582494 0.220504 2.41595e-18)
(0.865198 0.302233 -3.37279e-18)
(1.03774 0.322766 -9.90608e-19)
(1.1782 0.337513 -7.83138e-18)
(1.28593 0.330059 5.84266e-18)
(1.34503 0.314917 1.03788e-17)
(1.3814 0.282761 6.72084e-18)
(1.36701 0.245672 1.77809e-17)
(1.32576 0.188744 1.26653e-17)
(1.22809 0.128266 -3.9232e-18)
(1.101 0.0457259 4.83686e-18)
(0.351857 0.200669 -7.05272e-19)
(0.519657 0.256781 -1.36003e-18)
(0.779072 0.351956 -6.3617e-18)
(0.945767 0.375868 6.65337e-18)
(1.08202 0.393041 -1.30272e-18)
(1.19187 0.38436 3.42556e-18)
(1.25529 0.366728 2.85302e-18)
(1.30083 0.329279 6.03693e-18)
(1.297 0.28609 1.17396e-17)
(1.27198 0.219795 1.02441e-17)
(1.19154 0.149368 3.54084e-18)
(1.08797 0.0532474 2.69554e-17)
(0.29709 0.215345 -7.01636e-19)
(0.449574 0.275562 -2.20633e-18)
(0.683015 0.377698 -1.58967e-18)
(0.843183 0.403358 -3.53113e-18)
(0.974752 0.421787 1.97496e-18)
(1.08697 0.412471 -4.39807e-18)
(1.1552 0.39355 -4.05725e-18)
(1.21096 0.353362 -1.69831e-17)
(1.21892 0.307015 3.77148e-18)
(1.21199 0.23587 -6.62058e-18)
(1.15077 0.160294 2.7515e-19)
(1.07344 0.0571415 -9.23104e-18)
(0.240388 0.215344 -3.66942e-19)
(0.377016 0.275561 7.3684e-19)
(0.583565 0.377697 -1.44105e-18)
(0.736977 0.403357 -1.19018e-19)
(0.863694 0.421787 -4.34423e-18)
(0.978364 0.412471 6.30155e-19)
(1.05158 0.39355 -7.50773e-18)
(1.11792 0.353361 1.60719e-17)
(1.13809 0.307014 1.80658e-17)
(1.14988 0.235869 -8.8768e-18)
(1.10857 0.160294 5.67651e-18)
(1.0584 0.0571404 -4.87879e-18)
(0.185621 0.20067 -1.97551e-19)
(0.306933 0.256783 -1.20587e-18)
(0.487507 0.35196 7.63096e-18)
(0.634392 0.375871 -2.67751e-18)
(0.756422 0.393047 4.03813e-18)
(0.873462 0.384365 -6.11453e-18)
(0.95149 0.366734 5.37723e-18)
(1.02805 0.329283 1.32508e-17)
(1.06 0.286095 -6.69888e-19)
(1.0899 0.219796 -6.72096e-18)
(1.0678 0.149372 -5.08695e-18)
(1.04386 0.0532467 -2.20947e-17)
(0.136516 0.172319 -7.47718e-19)
(0.244096 0.220504 2.5308e-18)
(0.401382 0.302235 -9.89354e-19)
(0.542415 0.322768 -4.62069e-18)
(0.660243 0.337519 1.33781e-18)
(0.779407 0.330062 -8.65731e-18)
(0.86175 0.314923 3.88169e-20)
(0.947471 0.282762 2.76758e-18)
(0.989995 0.245676 -1.33972e-17)
(1.03611 0.188743 -7.6801e-18)
(1.03125 0.12827 -1.26026e-17)
(1.03083 0.0457234 -3.56987e-18)
(0.0964228 0.132227 1.50129e-19)
(0.192791 0.1692 -2.24946e-19)
(0.331061 0.231917 -1.03772e-18)
(0.467316 0.247671 4.80139e-18)
(0.581714 0.258992 -6.41931e-18)
(0.702612 0.25327 5.01459e-18)
(0.788477 0.241654 -2.15975e-18)
(0.881682 0.216974 -1.59336e-17)
(0.932834 0.188518 -1.25874e-17)
(0.992199 0.144829 -1.62294e-17)
(1.00141 0.0984277 -1.54163e-17)
(1.0202 0.0350852 1.98863e-17)
(0.0680721 0.0831221 7.65633e-19)
(0.156512 0.106363 3.74761e-18)
(0.281336 0.145792 1.74738e-18)
(0.414213 0.155694 -2.27772e-18)
(0.526184 0.162814 3.74451e-18)
(0.648309 0.159216 -1.3296e-18)
(0.736665 0.151915 9.17986e-19)
(0.835162 0.136399 -1.90544e-18)
(0.892415 0.118511 1.29145e-18)
(0.961146 0.0910449 -1.26019e-18)
(0.980301 0.0618768 -1.74138e-18)
(1.01267 0.0220555 -8.75385e-18)
(0.053397 0.0283546 5.35815e-20)
(0.137733 0.0362799 1.93926e-19)
(0.255597 0.0497345 2.1473e-19)
(0.386725 0.0531097 -9.60886e-20)
(0.497439 0.0555436 -1.94833e-18)
(0.620199 0.0543142 6.78122e-19)
(0.709844 0.0518253 -1.23215e-18)
(0.81108 0.0465301 -4.90621e-19)
(0.871491 0.0404293 -2.39006e-18)
(0.945073 0.0310576 1.41314e-18)
(0.969377 0.0211102 -1.41733e-18)
(1.00878 0.00752354 -1.14135e-18)
(0.0533967 -0.0283465 -2.17894e-20)
(0.137733 -0.0362774 -3.91113e-19)
(0.255596 -0.049714 5.63133e-19)
(0.386724 -0.0530958 7.75564e-19)
(0.497437 -0.0555136 2.33548e-19)
(0.620198 -0.0542902 -4.11502e-19)
(0.709843 -0.0517969 -2.86817e-19)
(0.81108 -0.0465104 -2.23033e-19)
(0.87149 -0.0404081 1.86829e-19)
(0.945073 -0.031047 9.05406e-20)
(0.969376 -0.0210955 -4.92223e-19)
(1.00878 -0.00752151 6.29064e-20)
(0.0680716 -0.0831143 -4.13901e-19)
(0.156512 -0.106361 4.47977e-18)
(0.281334 -0.145773 2.83312e-18)
(0.414212 -0.155681 8.0563e-19)
(0.526179 -0.162785 -1.51916e-18)
(0.648306 -0.159193 1.56697e-19)
(0.73666 -0.151887 4.8766e-19)
(0.83516 -0.13638 -8.1489e-18)
(0.892411 -0.11849 -6.38947e-18)
(0.961146 -0.0910345 -1.52257e-18)
(0.980298 -0.0618627 4.3107e-18)
(1.01268 -0.0220533 4.54881e-18)
(0.0964217 -0.132219 5.73893e-19)
(0.19279 -0.169197 -2.31068e-18)
(0.331057 -0.231898 7.42516e-19)
(0.467313 -0.247658 6.33207e-18)
(0.581706 -0.258964 2.96443e-18)
(0.702607 -0.253247 -3.81544e-18)
(0.78847 -0.241628 -8.36688e-18)
(0.881679 -0.216955 -1.89308e-18)
(0.932828 -0.188498 -1.0285e-17)
(0.992198 -0.144819 -4.21402e-18)
(1.0014 -0.0984145 -6.58132e-19)
(1.0202 -0.0350825 -1.16649e-17)
(0.136515 -0.172312 4.52559e-19)
(0.244095 -0.220502 -1.12831e-18)
(0.401376 -0.302218 3.18211e-18)
(0.542411 -0.322756 -6.51165e-18)
(0.660233 -0.337494 7.46352e-18)
(0.7794 -0.330042 3.59106e-19)
(0.86174 -0.3149 1.18094e-18)
(0.947468 -0.282744 -1.13819e-17)
(0.989988 -0.245659 -8.15769e-18)
(1.03611 -0.188732 -1.14113e-17)
(1.03124 -0.128259 -6.96023e-18)
(1.03084 -0.0457203 -2.58443e-17)
(0.185618 -0.200662 1.76922e-19)
(0.30693 -0.256781 1.41992e-18)
(0.4875 -0.351943 -5.98538e-19)
(0.634387 -0.375859 1.05572e-18)
(0.75641 -0.393024 -4.30959e-18)
(0.873453 -0.384345 1.0467e-17)
(0.951478 -0.366712 6.00467e-18)
(1.02804 -0.329265 1.96843e-17)
(1.05999 -0.286079 1.80079e-17)
(1.0899 -0.219785 8.86359e-18)
(1.06779 -0.149363 4.60777e-18)
(1.04387 -0.0532426 2.9773e-17)
(0.240387 -0.215338 -2.22826e-19)
(0.377014 -0.27556 -1.80738e-18)
(0.583558 -0.377683 1.69815e-19)
(0.736972 -0.403347 3.99252e-18)
(0.863681 -0.421769 1.02618e-18)
(0.978355 -0.412455 1.99468e-18)
(1.05157 -0.393533 8.01295e-18)
(1.11791 -0.353346 -2.11988e-18)
(1.13808 -0.307001 7.70632e-18)
(1.14988 -0.235858 1.44992e-17)
(1.10856 -0.160287 -2.28326e-18)
(1.0584 -0.057136 7.13267e-18)
(0.297087 -0.215338 -6.28634e-19)
(0.449571 -0.27556 -4.29375e-19)
(0.683006 -0.377683 -7.9896e-18)
(0.843177 -0.403348 -1.61724e-18)
(0.974737 -0.42177 -5.77952e-19)
(1.08696 -0.412456 1.64608e-18)
(1.15519 -0.393535 -9.36871e-19)
(1.21095 -0.353347 -4.83871e-18)
(1.21891 -0.307003 2.58388e-18)
(1.21199 -0.235859 -3.47019e-18)
(1.15077 -0.160288 1.15759e-18)
(1.07344 -0.0571358 4.90558e-18)
(0.351855 -0.200663 -3.29977e-19)
(0.519655 -0.256781 -1.08993e-18)
(0.779065 -0.351946 -5.02911e-18)
(0.945762 -0.37586 5.28833e-18)
(1.08201 -0.393029 -8.46471e-18)
(1.19186 -0.384348 6.14123e-18)
(1.25528 -0.366717 4.16254e-18)
(1.30082 -0.329267 -8.4304e-19)
(1.29699 -0.286082 1.32948e-17)
(1.27198 -0.219785 -6.07205e-18)
(1.19153 -0.149365 7.74423e-20)
(1.08798 -0.0532416 -1.26099e-17)
(0.400959 -0.172313 -5.01428e-19)
(0.582491 -0.220503 -9.19526e-19)
(0.865189 -0.302222 3.34972e-18)
(1.03774 -0.322758 -5.65394e-18)
(1.17819 -0.337502 5.57088e-18)
(1.28592 -0.330047 -8.34835e-18)
(1.34502 -0.314907 2.50222e-18)
(1.3814 -0.282748 1.60954e-17)
(1.367 -0.245664 1.49797e-17)
(1.32576 -0.188733 5.23932e-18)
(1.22808 -0.128264 1.27899e-17)
(1.101 -0.045719 -1.25272e-17)
(0.441052 -0.13222 -8.57083e-19)
(0.633796 -0.169198 -2.17047e-18)
(0.93551 -0.231904 -5.89336e-20)
(1.11284 -0.247661 -3.92254e-18)
(1.25672 -0.258975 -3.89402e-19)
(1.36271 -0.253254 -5.3161e-18)
(1.41829 -0.241638 -8.11513e-18)
(1.44719 -0.216959 2.99333e-18)
(1.42416 -0.188505 -3.65096e-18)
(1.36967 -0.144819 -6.09207e-18)
(1.25793 -0.0984206 -5.56984e-18)
(1.11164 -0.0350807 5.93807e-18)
(0.469402 -0.0831161 -2.51225e-19)
(0.670074 -0.106362 2.5232e-19)
(0.985234 -0.14578 -1.89019e-18)
(1.16594 -0.155685 3.10791e-18)
(1.31225 -0.162798 -2.43197e-18)
(1.41701 -0.159201 1.74129e-19)
(1.4701 -0.151899 1.07975e-18)
(1.49371 -0.136384 -7.38645e-18)
(1.46458 -0.118499 -6.31995e-18)
(1.40073 -0.091035 -9.19385e-18)
(1.27903 -0.06187 -1.39908e-17)
(1.11916 -0.0220512 2.01543e-18)
(0.484078 -0.0283485 3.70081e-20)
(0.688854 -0.0362784 2.22414e-18)
(1.01097 -0.0497216 1.55015e-18)
(1.19343 -0.0531001 -2.53421e-18)
(1.34099 -0.0555269 1.89693e-18)
(1.44512 -0.054299 -6.08577e-19)
(1.49693 -0.0518094 1.62931e-18)
(1.51779 -0.0465158 -1.65541e-18)
(1.48551 -0.0404169 -1.80943e-19)
(1.4168 -0.0310479 -1.24625e-18)
(1.28996 -0.021103 -1.43528e-18)
(1.12306 -0.00751945 -2.33682e-18)
(0.484077 0.0283518 2.38408e-20)
(0.688853 0.0362784 -1.75025e-18)
(1.01097 0.0497263 -1.91316e-18)
(1.19343 0.0531052 -2.08782e-18)
(1.34099 0.05553 -2.00854e-18)
(1.44512 0.0543054 1.66036e-20)
(1.49693 0.0518125 -2.65443e-18)
(1.51779 0.046525 3.46044e-18)
(1.48551 0.0404203 3.41559e-18)
(1.4168 0.0310571 4.59982e-18)
(1.28996 0.0211024 -1.59085e-19)
(1.12306 0.00752585 -1.17799e-18)
(0.469403 0.0831196 -4.21635e-19)
(0.670075 0.106363 1.36372e-18)
(0.985238 0.145785 3.24642e-19)
(1.16594 0.15569 -1.58757e-18)
(1.31225 0.162802 -3.72507e-18)
(1.41702 0.159208 -7.92249e-19)
(1.47011 0.151903 5.26912e-18)
(1.49371 0.136394 3.06541e-18)
(1.46459 0.118503 6.69368e-18)
(1.40073 0.091044 5.47311e-18)
(1.27904 0.0618703 -8.17001e-19)
(1.11916 0.0220572 4.56133e-18)
(0.441052 0.132223 -1.54272e-19)
(0.633796 0.169198 4.04627e-18)
(0.935513 0.231909 5.13418e-19)
(1.11284 0.247667 5.92956e-18)
(1.25672 0.258981 -1.44824e-18)
(1.36271 0.253262 7.14047e-19)
(1.4183 0.241643 -3.12559e-18)
(1.44719 0.21697 -8.97176e-19)
(1.42417 0.18851 -3.48308e-18)
(1.36967 0.144829 -2.34023e-18)
(1.25793 0.0984212 -3.5638e-21)
(1.11164 0.0350869 1.04121e-17)
(0.400961 0.172316 1.00861e-18)
(0.582492 0.220504 -2.41596e-18)
(0.865196 0.30223 3.37287e-18)
(1.03774 0.322765 9.90483e-19)
(1.1782 0.33751 7.83136e-18)
(1.28592 0.330057 -5.84262e-18)
(1.34503 0.314916 -1.03785e-17)
(1.3814 0.282758 -6.72102e-18)
(1.36701 0.245672 -1.7781e-17)
(1.32576 0.188742 -1.26654e-17)
(1.22809 0.128266 3.92317e-18)
(1.101 0.0457242 -4.8373e-18)
(0.351855 0.200665 7.05252e-19)
(0.519655 0.256782 1.36002e-18)
(0.77907 0.351953 6.36162e-18)
(0.945765 0.375867 -6.65326e-18)
(1.08202 0.39304 1.30258e-18)
(1.19187 0.384359 -3.42546e-18)
(1.25529 0.366728 -2.85292e-18)
(1.30082 0.329279 -6.03663e-18)
(1.297 0.286091 -1.17391e-17)
(1.27198 0.219795 -1.02437e-17)
(1.19154 0.149369 -3.54086e-18)
(1.08797 0.053247 -2.69547e-17)
(0.297089 0.215341 7.01632e-19)
(0.449572 0.275562 2.20622e-18)
(0.683014 0.377693 1.58969e-18)
(0.843182 0.403356 3.53107e-18)
(0.974752 0.421785 -1.97479e-18)
(1.08697 0.412469 4.39788e-18)
(1.1552 0.393549 4.05748e-18)
(1.21096 0.35336 1.69826e-17)
(1.21892 0.307014 -3.77156e-18)
(1.21199 0.235868 6.62071e-18)
(1.15077 0.160295 -2.7513e-19)
(1.07344 0.0571403 9.23101e-18)
(0.240388 0.215339 3.66927e-19)
(0.377014 0.275562 -7.36857e-19)
(0.583564 0.377693 1.44096e-18)
(0.736975 0.403356 1.18985e-19)
(0.863693 0.421786 4.34414e-18)
(0.978363 0.412469 -6.3016e-19)
(1.05158 0.39355 7.50765e-18)
(1.11792 0.35336 -1.60721e-17)
(1.13809 0.307015 -1.80655e-17)
(1.14988 0.235869 8.87677e-18)
(1.10857 0.160295 -5.67643e-18)
(1.0584 0.0571409 4.87879e-18)
(0.185621 0.200666 1.97564e-19)
(0.306931 0.256784 1.20575e-18)
(0.487508 0.351955 -7.63073e-18)
(0.634392 0.37587 2.67745e-18)
(0.756424 0.393044 -4.03801e-18)
(0.873462 0.384362 6.11436e-18)
(0.951493 0.366733 -5.37713e-18)
(1.02805 0.329281 -1.32507e-17)
(1.06001 0.286095 6.70227e-19)
(1.0899 0.219796 6.72094e-18)
(1.0678 0.149374 5.08711e-18)
(1.04387 0.0532472 2.20942e-17)
(0.136516 0.172313 7.47717e-19)
(0.244093 0.220504 -2.53081e-18)
(0.401382 0.30223 9.89411e-19)
(0.542413 0.322766 4.62051e-18)
(0.660243 0.337516 -1.33776e-18)
(0.779405 0.33006 8.65717e-18)
(0.86175 0.314923 -3.88426e-20)
(0.94747 0.282761 -2.76746e-18)
(0.989996 0.245677 1.33972e-17)
(1.03611 0.188744 7.68005e-18)
(1.03125 0.128271 1.26026e-17)
(1.03084 0.0457254 3.56971e-18)
(0.0964246 0.132223 -1.50131e-19)
(0.192789 0.169201 2.24941e-19)
(0.331063 0.231912 1.03765e-18)
(0.467315 0.247672 -4.80127e-18)
(0.581716 0.258989 6.4191e-18)
(0.70261 0.253269 -5.01452e-18)
(0.788481 0.241653 2.15984e-18)
(0.881681 0.216974 1.59334e-17)
(0.932836 0.188518 1.25872e-17)
(0.992198 0.14483 1.62291e-17)
(1.00141 0.0984284 1.54158e-17)
(1.0202 0.0350857 -1.98861e-17)
(0.0680727 0.0831165 -7.65645e-19)
(0.15651 0.106363 -3.7475e-18)
(0.281337 0.145787 -1.74732e-18)
(0.414211 0.155693 2.27771e-18)
(0.526185 0.16281 -3.74447e-18)
(0.648306 0.159213 1.32963e-18)
(0.736667 0.151913 -9.17864e-19)
(0.835159 0.136398 1.90542e-18)
(0.892417 0.118511 -1.29142e-18)
(0.961144 0.0910461 1.26015e-18)
(0.980304 0.0618764 1.74135e-18)
(1.01267 0.0220558 8.75375e-18)
(0.0533976 0.0283511 -5.35683e-20)
(0.13773 0.0362817 -1.93871e-19)
(0.255596 0.0497301 -2.14731e-19)
(0.38672 0.0531099 9.61288e-20)
(0.49744 0.0555415 1.94824e-18)
(0.620194 0.0543143 -6.78144e-19)
(0.709846 0.0518259 1.23207e-18)
(0.811075 0.0465303 4.90603e-19)
(0.871493 0.0404301 2.38997e-18)
(0.945069 0.031059 -1.41313e-18)
(0.969379 0.0211114 1.41731e-18)
(1.00878 0.00752616 1.14132e-18)
)
;

boundaryField
{
    out
    {
        type            fixedValue;
        value           uniform (1 0 0);
    }
    in
    {
        type            fixedValue;
        value           uniform (0 0 0);
    }
    frontAndBack
    {
        type            empty;
    }
}


// ************************************************************************* //
