/*--------------------------------*- C++ -*----------------------------------*\
| =========                 |                                                 |
| \\      /  F ield         | foam-extend: Open Source CFD                    |
|  \\    /   O peration     | Version:  3.0                                   |
|   \\  /    A nd           | Web:         http://www.extend-project.de       |
|    \\/     M anipulation  |                                                 |
\*---------------------------------------------------------------------------*/
FoamFile
{
    version     2.0;
    format      ascii;
    class       volScalarField;
    location    "18";
    object      p;
}
// * * * * * * * * * * * * * * * * * * * * * * * * * * * * * * * * * * * * * //

dimensions      [0 0 0 0 0 0 0];

internalField   nonuniform List<scalar> 
2688
(
-0.2183250962
-0.1993808412
-0.1878619014
-0.174850013
-0.1673320585
-0.1581298837
-0.1531061708
-0.1465251825
-0.1431107461
-0.1384090513
-0.1360376247
-0.1327028944
-0.1309842117
-0.1286206767
-0.1272666506
-0.125529719
-0.1243112812
-0.1228667047
-0.1215827149
-0.1200806207
-0.1185283846
-0.1165872583
-0.1145276763
-0.1117262146
-0.2176342547
-0.1987500187
-0.1872681122
-0.1742972404
-0.1668032933
-0.1576302052
-0.1526225343
-0.1460624953
-0.1426590358
-0.137972188
-0.1356083504
-0.1322840187
-0.130570836
-0.1282145757
-0.1268648734
-0.1251332452
-0.1239186554
-0.1224785107
-0.1211985156
-0.1197010415
-0.1181535966
-0.1162185164
-0.1141654057
-0.111372786
-0.2162656685
-0.1975001345
-0.1860899305
-0.1732005067
-0.1657535252
-0.1566380164
-0.1516618742
-0.1451429298
-0.1417609626
-0.1371033516
-0.1347545363
-0.1314508467
-0.1297486937
-0.1274069828
-0.1260661128
-0.1243451093
-0.1231385842
-0.1217072499
-0.1204357911
-0.1189475194
-0.1174102552
-0.1154871936
-0.1134472315
-0.1106721082
-0.2142101415
-0.1956229583
-0.1843213533
-0.1715544971
-0.1641783389
-0.1551495375
-0.1502207596
-0.1437639049
-0.1404142273
-0.1358009149
-0.1334745347
-0.1302021497
-0.1285162539
-0.1261966292
-0.1248685366
-0.1231636973
-0.1219685846
-0.1205506841
-0.119291191
-0.1178169441
-0.1162941947
-0.1143893484
-0.1123687168
-0.1096199691
-0.2114868533
-0.1931358688
-0.1819776892
-0.169373045
-0.1620905029
-0.1531763279
-0.1483101824
-0.1419352424
-0.1386282361
-0.1340733487
-0.131776711
-0.1285456641
-0.1268814645
-0.1245910545
-0.1232802036
-0.1215967633
-0.120417286
-0.1190171424
-0.1177741602
-0.1163184198
-0.1148154908
-0.1129346855
-0.1109399771
-0.1082261116
-0.2080921076
-0.1900357231
-0.1790567462
-0.1666545019
-0.1594888991
-0.1507178678
-0.1459299016
-0.1396573785
-0.1364035816
-0.1319218216
-0.1296621626
-0.1264828939
-0.1248454943
-0.122591692
-0.1213019109
-0.1196453035
-0.1184846765
-0.1171068282
-0.1158836413
-0.1144511393
-0.1129722244
-0.1111215475
-0.1091588099
-0.1064885217
-0.2040484628
-0.1863428545
-0.1755770423
-0.1634156817
-0.1563891816
-0.1477884121
-0.1430934468
-0.1369426297
-0.1337521418
-0.129357244
-0.1271416723
-0.1240239187
-0.1224186213
-0.1202083376
-0.1189440059
-0.1173193084
-0.1161817089
-0.1148303485
-0.1136314471
-0.1122265181
-0.1107767888
-0.1089618754
-0.1070374953
-0.1044190234
-0.1993571982
-0.1820587167
-0.1715404738
-0.1596587744
-0.1527938595
-0.1443908768
-0.1398039194
-0.1337945777
-0.1306775528
-0.1263836937
-0.1242191678
-0.1211730085
-0.1196047056
-0.1174450901
-0.1162098517
-0.1146223287
-0.1135107867
-0.1121903191
-0.1110187973
-0.1096460222
-0.1082294653
-0.1064561825
-0.104575946
-0.1020176831
-0.1940440905
-0.177206543
-0.1669684659
-0.1554032893
-0.148721207
-0.1405419894
-0.1360772426
-0.1302278679
-0.1271939974
-0.123014339
-0.1209076897
-0.1179424406
-0.1164162423
-0.1143138936
-0.1131119966
-0.1115664865
-0.1104850872
-0.1091995071
-0.1080597648
-0.106723295
-0.1053449765
-0.1036187554
-0.1017888989
-0.09929874172
-0.1881152888
-0.1717922547
-0.1618670125
-0.1506552416
-0.1441773511
-0.1362480779
-0.1319198034
-0.1262491936
-0.1233081157
-0.1192561409
-0.1172139557
-0.1143392135
-0.1128597294
-0.1108214704
-0.1096563182
-0.1081578629
-0.1071094061
-0.1058629411
-0.1047578418
-0.1034620542
-0.102125707
-0.1004521191
-0.09867810448
-0.09626403174
-0.1815995456
-0.1658417998
-0.1562601825
-0.1454366021
-0.1391829705
-0.1315281558
-0.127349771
-0.1218753797
-0.1190362631
-0.1151243898
-0.1131531453
-0.1103776859
-0.1089497792
-0.1069818076
-0.1058574683
-0.1044105914
-0.1033990055
-0.1021953864
-0.1011291378
-0.0998779378
-0.0985883397
-0.09697251795
-0.09526017892
-0.09292965841
-0.1745077312
-0.1593654115
-0.1501579734
-0.1397571079
-0.1337477087
-0.1263918588
-0.1223766956
-0.1171161216
-0.1143879638
-0.1106288215
-0.1087346475
-0.1060674715
-0.1046954056
-0.1028041376
-0.1017237241
-0.1003331872
-0.09936101332
-0.09820425066
-0.09717951568
-0.09597707574
-0.0947378269
-0.09318506793
-0.09153967369
-0.089300177
-0.1668713017
-0.1523915173
-0.1435868423
-0.1336409639
-0.1278944326
-0.1208602879
-0.1170208151
-0.111990247
-0.1093815823
-0.1057866818
-0.1039756247
-0.1014248549
-0.1001131923
-0.09830434726
-0.09727170365
-0.095941661
-0.09501260591
-0.09390609673
-0.09292673176
-0.0917765542
-0.0905918643
-0.08910677989
-0.08753347951
-0.08539191387
-0.1587056277
-0.1449344461
-0.1365606
-0.1271014393
-0.1216361143
-0.1149462024
-0.111294651
-0.1065102728
-0.1040293416
-0.1006103071
-0.09888795905
-0.09646189263
-0.09521449213
-0.09349400137
-0.09251190643
-0.09124678305
-0.09036312313
-0.08931064482
-0.08837916983
-0.08728524719
-0.08615863595
-0.08474624957
-0.08325008002
-0.08121332504
-0.1500445648
-0.1370248348
-0.1291078284
-0.1201647353
-0.1149975835
-0.1086725795
-0.1052203123
-0.1006968351
-0.09835142986
-0.09511871134
-0.09349061429
-0.09119661285
-0.09001768448
-0.08839071682
-0.08746274767
-0.08626627187
-0.08543141542
-0.08443594783
-0.08355576388
-0.08252110367
-0.08145621636
-0.0801205744
-0.07870611072
-0.07678043082
-0.1409076943
-0.128680837
-0.1212458973
-0.1128474087
-0.1079949026
-0.102055074
-0.09881306554
-0.09456506077
-0.0923625584
-0.08932663606
-0.08779777214
-0.08564333244
-0.08453628054
-0.0830082138
-0.08213678877
-0.08101301075
-0.08022898437
-0.07929405113
-0.0784675151
-0.07749584878
-0.07649593651
-0.07524162755
-0.0739133892
-0.072104969
-0.1313309389
-0.1199349994
-0.1130052313
-0.1051774009
-0.1006546225
-0.09511831294
-0.09209667607
-0.08813718311
-0.08608453631
-0.08325465761
-0.08182999491
-0.07982161459
-0.07879024356
-0.07736561835
-0.07655398543
-0.0755061318
-0.07477595991
-0.07390407446
-0.07313413836
-0.07222803918
-0.07129636352
-0.0701269817
-0.06888915945
-0.0672035744
-0.1213377566
-0.1108089898
-0.1044064649
-0.09717427779
-0.09299562666
-0.08788059239
-0.08508890606
-0.08143070681
-0.07953433524
-0.07691971308
-0.07560356134
-0.07374785297
-0.07279507399
-0.07147866469
-0.07072887824
-0.06976059988
-0.06908606417
-0.0682804316
-0.06756918387
-0.06673195602
-0.06587127192
-0.06479077904
-0.06364716992
-0.06208981563
-0.110965763
-0.1013369286
-0.09548155289
-0.08886743512
-0.08504591712
-0.0803679342
-0.07781493418
-0.07446922502
-0.0727351541
-0.0703437074
-0.06914039681
-0.06744289869
-0.06657205464
-0.065367692
-0.06468259661
-0.0637965524
-0.06318024264
-0.06244292333
-0.06179292417
-0.06102679749
-0.06024006188
-0.05925164738
-0.05820603567
-0.0567817366
-0.1002419263
-0.09154365992
-0.08625407295
-0.08027914609
-0.07682690731
-0.07260100203
-0.07029475097
-0.06727237003
-0.06570598076
-0.0635455483
-0.0624586635
-0.06092503463
-0.06013851712
-0.05905033507
-0.05843162362
-0.05763102794
-0.05707444918
-0.05640823243
-0.0558211925
-0.05512891843
-0.05441830564
-0.05352522415
-0.05258067456
-0.05129397263
-0.08920514312
-0.08146450474
-0.07675716134
-0.07143993903
-0.06836774521
-0.06460692362
-0.0625546706
-0.05986482438
-0.05847113948
-0.05654820277
-0.05558137926
-0.05421611415
-0.05351674927
-0.0525477992
-0.05199785535
-0.05128477257
-0.05079007798
-0.05019660682
-0.0496747259
-0.04905820255
-0.04842630297
-0.04763127225
-0.04679101523
-0.04564591083
-0.07788550507
-0.07112712649
-0.06701700107
-0.06237447836
-0.05969207044
-0.05640844374
-0.05461663378
-0.05226808586
-0.05105137996
-0.04937231347
-0.04852836776
-0.04733611411
-0.04672575534
-0.04587949259
-0.04539963476
-0.0447767836
-0.04434514367
-0.04382671196
-0.04337126559
-0.04283266402
-0.0422811012
-0.04158668647
-0.04085311864
-0.03985325576
-0.06632273301
-0.06056763429
-0.05706752324
-0.05311406662
-0.05082983441
-0.04803347219
-0.04650777679
-0.04450762329
-0.04347185299
-0.04204161184
-0.04132343602
-0.04030757647
-0.03978848682
-0.03906713979
-0.03865926546
-0.03812811902
-0.03776126768
-0.03731910675
-0.03693191449
-0.03647273122
-0.03600361609
-0.03541194882
-0.03478761059
-0.03393610082
-0.05454964407
-0.04981614391
-0.04693716916
-0.04368543579
-0.04180659357
-0.03950654277
-0.03825170852
-0.03660653271
-0.0357548127
-0.03457823328
-0.03398784248
-0.03315196343
-0.03272544064
-0.03213173953
-0.0317967608
-0.03135947984
-0.03105819862
-0.03069407625
-0.03037597008
-0.02999783546
-0.02961229505
-0.02912529962
-0.02861196314
-0.02791151883
-0.04260629251
-0.03890910616
-0.03666024373
-0.03412027093
-0.03265272637
-0.03085599123
-0.02987604058
-0.0285907354
-0.02792590596
-0.02700634969
-0.02654585388
-0.02589217899
-0.02555989291
-0.02509522651
-0.0248345543
-0.02449202827
-0.02425764084
-0.0239723445
-0.02372471788
-0.02342863453
-0.02312820933
-0.022747335
-0.02234677102
-0.02179956557
-0.03052781083
-0.02787871406
-0.02626709511
-0.02444704438
-0.02339539607
-0.02210784796
-0.02140577007
-0.02048465866
-0.02000863568
-0.01934934354
-0.019019932
-0.01855094172
-0.01831361415
-0.01797993764
-0.01779403948
-0.01754782603
-0.01738069097
-0.01717546707
-0.01699871584
-0.01678581615
-0.01657115799
-0.01629771142
-0.01601106076
-0.01561884666
-0.01835406734
-0.01676128677
-0.01579195302
-0.01469740572
-0.01406500312
-0.01329049104
-0.01286860762
-0.0123143163
-0.01202878754
-0.01163148327
-0.01143445757
-0.01115119218
-0.01100988818
-0.01080775144
-0.01069756238
-0.01054796566
-0.01044899561
-0.01032414575
-0.01021920714
-0.01008994083
-0.009961994291
-0.009796702076
-0.00962496014
-0.009388942888
-0.006122096524
-0.005590715232
-0.005266718835
-0.004901239124
-0.004690009628
-0.004431157235
-0.00429066425
-0.004105203027
-0.004010861957
-0.003877150422
-0.003812856874
-0.003716653488
-0.003671496381
-0.003602039109
-0.003567549327
-0.003515504599
-0.003484618056
-0.003440884333
-0.003407714569
-0.003362732497
-0.003321648727
-0.003265187727
-0.003208813102
-0.003129762272
0.006128958181
0.0055973041
0.005274920656
0.00491027833
0.004699588136
0.004442136771
0.004300649886
0.004116955125
0.004019594926
0.003889647812
0.003820727979
0.003730017269
0.003678562885
0.003615624355
0.003573942674
0.003528730564
0.003491034789
0.003453874328
0.00341479894
0.003375626777
0.003329476699
0.003277107536
0.0032178589
0.003139717921
0.01836058139
0.01676756682
0.01579986695
0.0147061797
0.01407433451
0.01330123511
0.01287837735
0.01232585462
0.01203732989
0.01164377812
0.01144215129
0.01116435785
0.01101678719
0.01082114884
0.01070380358
0.01056101418
0.01045526214
0.01033694302
0.01022611202
0.01010260401
0.009969600528
0.009808364164
0.009633758956
0.009398651725
0.03053489813
0.02788549592
0.02627545125
0.02445620554
0.02340507491
0.02211889762
0.02141582321
0.02049645117
0.02001743027
0.01936186316
0.01902786807
0.01856431815
0.01832075428
0.01799353006
0.01780050232
0.01756105309
0.01738716619
0.01718846883
0.01700587229
0.01679875957
0.01657909521
0.01630972599
0.01602023326
0.01562891535
0.04261233995
0.038914964
0.03666773804
0.03412863789
0.03266166444
0.03086633488
0.02988544502
0.02860188576
0.02793412609
0.02701825969
0.02655325386
0.02590495624
0.02556652123
0.02510824183
0.02484054012
0.02450470073
0.02426363761
0.02398474312
0.02373130222
0.02344085167
0.02313543139
0.02275852275
0.02235513041
0.02180882116
0.05455683504
0.04982300295
0.04694554633
0.04369457604
0.04181622669
0.03951749818
0.03826168203
0.03661819358
0.03576354089
0.03459059565
0.03399573019
0.03316516727
0.03273256075
0.03214516411
0.03180322179
0.03137254724
0.03106466192
0.03070692702
0.03038311484
0.0300106655
0.02962026045
0.0291372773
0.0286211891
0.02792161378
0.06632820086
0.06057296143
0.0570744704
0.05312188833
0.05083823544
0.04804325283
0.04651666706
0.04451821254
0.04347961728
0.04205295402
0.04133042033
0.04031977075
0.03979473006
0.03907956897
0.03866487701
0.03814020634
0.03776686411
0.0373309011
0.03693804223
0.03648430569
0.03601031746
0.03542248081
0.03479538056
0.03394474008
0.07789268075
0.07113394921
0.06702526809
0.06238345658
0.05970151303
0.05641914168
0.05462638063
0.05227944328
0.05105991153
0.04938433711
0.04853608717
0.04734895362
0.0467327498
0.045892565
0.04540601385
0.04478952599
0.04435152092
0.04383923958
0.04337829245
0.04284517931
0.04228895184
0.04159841874
0.0408622302
0.03986319382
0.08920992748
0.08146920011
0.07676344031
0.07144708275
0.06837546977
0.06461598287
0.06256290031
0.05987468274
0.05847831454
0.05655879659
0.05558782286
0.05422753181
0.05352248779
0.05255943974
0.05200297244
0.05129607362
0.05079515384
0.05020761554
0.04968029537
0.04906899203
0.0484324188
0.04764105637
0.04679815236
0.04565387901
0.1002489737
0.09155033739
0.08626210228
0.08028782351
0.07683601521
0.07261127937
0.07030412169
0.06728324974
0.06571417905
0.06355704612
0.06246608287
0.06093730614
0.0601452581
0.05906284818
0.05843781043
0.0576432557
0.05708064133
0.05642024482
0.05582796021
0.05514087347
0.05442581783
0.05353640734
0.05258937522
0.05130344169
0.1109697722
0.101340901
0.09548705115
0.08887377483
0.08505283096
0.08037611834
0.07782236005
0.07447818662
0.07274160833
0.07035337662
0.0691461752
0.06745335155
0.06657717102
0.06537835191
0.06468711023
0.06380688344
0.06318469663
0.06245298627
0.06179785592
0.06103668701
0.06024555652
0.05926062824
0.05821253598
0.05678902
0.1213445718
0.1108154199
0.104414134
0.09718251824
0.09300425527
0.08789028393
0.08509774531
0.08144092846
0.07954205257
0.07693048855
0.07561053305
0.07375933834
0.07280140776
0.07149038331
0.07073471895
0.06977208525
0.06909193409
0.06829172066
0.06757554177
0.06674311501
0.06587821786
0.0648011109
0.06365514186
0.06209848488
0.1313340963
0.1199381695
0.1130098466
0.1051828179
0.1006605963
0.09512547167
0.09210315632
0.0881450838
0.08609013808
0.08326322808
0.08183498389
0.07983091845
0.07879462312
0.07737511401
0.07655779654
0.07551532015
0.07477970076
0.07391303011
0.07313834004
0.07223688478
0.07130115393
0.07013504826
0.06889495006
0.06721009265
0.1409141851
0.1286869269
0.1212530906
0.1128550794
0.1080029064
0.1020640111
0.09882120986
0.09457443534
0.09236963363
0.08933648154
0.08780413252
0.08565380099
0.08454203353
0.08301888225
0.0821420924
0.08102348554
0.08023434781
0.07930438131
0.0784733107
0.07750601492
0.07650215031
0.07525089667
0.07392040253
0.07211260077
0.1500468113
0.1370271382
0.1291114712
0.1201691201
0.1150024934
0.1086785655
0.105225705
0.1007035101
0.09835604447
0.09512600755
0.09349468663
0.09120458287
0.09002120982
0.0883988641
0.0874657549
0.08627414187
0.08543434562
0.08444361571
0.08355910817
0.08252870226
0.08146013119
0.08012751021
0.07871099147
0.07678598029
0.1587117157
0.1449401145
0.1365672122
0.1271084152
0.1216433511
0.1149542171
0.1113019331
0.1065186072
0.1040356059
0.1006190106
0.09889353768
0.09647111299
0.09521948933
0.09350336805
0.09251647895
0.09125596885
0.09036776941
0.08931974903
0.08838423998
0.08729424606
0.0861640415
0.0847543832
0.08325609967
0.08121988881
0.1668725965
0.1523929061
0.1435894406
0.1336442227
0.1278981674
0.1208649643
0.1170249848
0.1119955377
0.1093850777
0.1057925335
0.1039786554
0.1014313118
0.1001157474
0.09831096554
0.09727380302
0.09594803625
0.09501462481
0.09391229093
0.09292908398
0.09178268068
0.09059469674
0.08911231516
0.0875371796
0.08539622261
0.1745133494
0.1593705899
0.1501639154
0.1397632819
0.1337540531
0.1263988003
0.1223829631
0.1171232398
0.1143932642
0.110636193
0.1087392959
0.1060752433
0.1046995055
0.1028119974
0.1017274237
0.100340864
0.09936477811
0.09821188569
0.09718370913
0.09598472712
0.0947424012
0.09319206773
0.0915448399
0.08930582621
0.1815998615
0.1658422428
0.1562616882
0.1454386705
0.1391854487
0.1315314176
0.1273526121
0.1218791609
0.1190385379
0.1151286633
0.1131550418
0.1103824899
0.1089512812
0.1069867555
0.1058585851
0.1044153317
0.1034000441
0.102199963
0.1011304198
0.09988243101
0.09858997161
0.09697646879
0.09526252356
0.09293254459
0.1881203729
0.1717968827
0.1618722148
0.1506605385
0.1441827148
0.13625384
0.1319249521
0.1262549762
0.1233123593
0.1192620607
0.1172175973
0.1143454199
0.1128628738
0.1108277159
0.1096591034
0.1081639304
0.1071122406
0.1058689724
0.1047610648
0.1034681693
0.1021293484
0.1004578325
0.09868237521
0.096268714
0.1940434031
0.1772060163
0.1669688542
0.155404142
0.1487223932
0.1405437874
0.1360787086
0.1302300839
0.1271950219
0.1230169833
0.1209084391
0.1179455415
0.1164166885
0.1143171188
0.1131121303
0.1115695342
0.1104851413
0.1092023992
0.1080599744
0.1067260905
0.1053454157
0.1036210811
0.1017898863
0.09930018629
0.1993616709
0.182062726
0.1715448733
0.1596631471
0.1527981916
0.1443954054
0.1398079069
0.1337989824
0.1306807328
0.1263881423
0.1242218281
0.1211776454
0.1196069417
0.1174497261
0.1162117791
0.1146267925
0.1135127325
0.1121947184
0.1110210181
0.1096504618
0.1082319843
0.1064603009
0.10457894
0.1020209826
0.2040467387
0.1863413222
0.1755762908
0.163415316
0.1563890676
0.1477887368
0.1430935363
0.1369432858
0.1337519529
0.1293582883
0.1271413383
0.1240253507
0.1224180812
0.1202098653
0.1189432149
0.1173206687
0.1161808118
0.1148315339
0.1136306003
0.1122275911
0.110776071
0.1089625867
0.1070371765
0.1044190648
0.2080958784
0.1900390224
0.1790602528
0.1666578963
0.1594921409
0.1507211136
0.1459326974
0.1396603906
0.1364057261
0.1319248256
0.1296639091
0.1264860025
0.124846901
0.1225947537
0.1213030479
0.1196481763
0.1184857633
0.1171095739
0.1158848466
0.114453861
0.1129735684
0.1111239942
0.10916039
0.1064903025
0.2114840713
0.1931332795
0.1819757548
0.1693714475
0.1620890588
0.1531751555
0.1483088785
0.1419343431
0.1386268727
0.1340728318
0.1317753569
0.1285454602
0.1268799894
0.124590891
0.1232785116
0.1215964128
0.1204154307
0.1190165775
0.1177722416
0.1163177441
0.114813635
0.1129338023
0.1109383906
0.1082247911
0.214213159
0.1956254663
0.1843238443
0.1715568241
0.1641803836
0.1551514163
0.1502223019
0.143765491
0.1404153444
0.1358024837
0.1334754016
0.1302037338
0.1285168523
0.126198093
0.1248688782
0.1231649296
0.1219687876
0.1205517267
0.1192913803
0.1178179594
0.116294473
0.1143902671
0.1123691166
0.1096204761
0.2162618722
0.1974964759
0.1860867696
0.1731976351
0.1657506861
0.1566353065
0.1516591497
0.1451404909
0.1417584784
0.1371013281
0.1347522241
0.1314490322
0.1297463097
0.12740511
0.1260635118
0.1243430066
0.1231357567
0.1217049113
0.1204328249
0.1189451223
0.1174073401
0.1154847933
0.1134444723
0.1106695092
0.2176365837
0.1987518051
0.1872694556
0.1742983244
0.1668039629
0.1576306004
0.152622776
0.1460626592
0.1426591626
0.1379723504
0.1356083696
0.1322840821
0.1305706365
0.1282144226
0.1268644168
0.125132817
0.1239179912
0.1224778777
0.1211977656
0.1197004383
0.1181529214
0.1162180308
0.1141647546
0.1113721266
0.2183200593
0.1993760426
0.1878576375
0.1748457628
0.1673279031
0.158125677
0.1531022199
0.1465214123
0.1431073917
0.1384056968
0.1360345109
0.1326995605
0.1309810073
0.1286171435
0.1272632073
0.1255259252
0.1243075983
0.1228627466
0.1215789138
0.1200767076
0.1185245947
0.1165835063
0.1145239355
0.1117225043
0.2183231018
0.1993787236
0.1878600439
0.1748479214
0.1673298854
0.1581274884
0.153103931
0.1465230059
0.1431089608
0.1384071361
0.1360359847
0.1327008812
0.1309824182
0.1286183788
0.1272645578
0.1255270812
0.1243088476
0.1228637907
0.121580011
0.1200776066
0.1185255207
0.1165842776
0.1145246975
0.1117232013
0.2176327495
0.1987483431
0.187266089
0.1742951047
0.1668008759
0.1576275257
0.1526199428
0.1460597432
0.142656652
0.1379695383
0.1356060967
0.1322813251
0.1305685625
0.1282117583
0.1268625214
0.1251303048
0.1239162326
0.1224755386
0.1211961137
0.11969829
0.1181513725
0.1162161495
0.1141632335
0.111370563
0.2162640788
0.1974983376
0.1860881818
0.1731987032
0.1657515366
0.1566358311
0.1516597149
0.145140741
0.1417590803
0.1371013716
0.1347528664
0.1314488878
0.129747015
0.1274048792
0.1260642641
0.1243427606
0.1231364353
0.1217046081
0.1204333015
0.1189447144
0.1174075754
0.1154843924
0.1134444075
0.1106692748
0.2142085869
0.1956212715
0.1843195635
0.1715525859
0.1641762324
0.1551471174
0.1502183835
0.14376129
0.1404119278
0.1357983384
0.133472369
0.1301995866
0.1285141616
0.1261940534
0.1248664921
0.1231611211
0.1219665799
0.1205481569
0.1192892367
0.1178146279
0.1162923648
0.114387342
0.1123669006
0.1096181093
0.2114854083
0.1931342934
0.1819761507
0.1693714089
0.1620887642
0.1531743864
0.1483082888
0.1419332471
0.1386264961
0.1340714782
0.131775151
0.1285438482
0.1268799645
0.1245891878
0.1232786338
0.1215947549
0.120415504
0.1190149159
0.1177720666
0.1163160201
0.1148131564
0.1129322215
0.1109374851
0.1082236158
0.2080906317
0.1900341524
0.1790551153
0.1666526953
0.1594869789
0.1507156444
0.1459277422
0.1396549559
0.1364014453
0.1319193987
0.1296601555
0.1264805195
0.1248436319
0.1225893954
0.1213002088
0.1196431275
0.118483142
0.1171048245
0.1158822416
0.1144493887
0.1129709225
0.1111200546
0.1091574948
0.1064871501
0.2040471829
0.1863414702
0.1755756608
0.1634141679
0.1563876288
0.147786683
0.1430917982
0.1369408601
0.1337506031
0.1293555602
0.1271402878
0.1240222995
0.1224173275
0.1202067215
0.1189427075
0.1173176333
0.1161802849
0.1148285544
0.113629791
0.1122246013
0.110774913
0.1089598841
0.107035483
0.1044170059
0.1993558212
0.1820572468
0.1715389477
0.1596570514
0.1527920851
0.1443888343
0.1398019749
0.1337923784
0.130675635
0.1263814948
0.1242173901
0.1211708858
0.119603121
0.1174431041
0.1162085041
0.1146205499
0.1135097057
0.1121888247
0.1110179499
0.1096448692
0.1082287875
0.1064553477
0.1045753454
0.1020170284
0.1940429423
0.1772052907
0.1669672007
0.1554018946
0.1487198242
0.1405404733
0.1360758428
0.1302263621
0.1271927192
0.1230129246
0.1209065663
0.1179411067
0.1164152306
0.1143125997
0.1131110217
0.1115651938
0.1104840507
0.1091981817
0.1080585798
0.1067219227
0.1053436416
0.1036173471
0.101787483
0.09929732658
0.1881139997
0.1717908683
0.1618655805
0.1506536281
0.1441757431
0.1362462501
0.1319181162
0.1262472816
0.1233065001
0.1192542655
0.1172125137
0.114337451
0.1128585233
0.1108198883
0.1096553984
0.1081565399
0.1071088035
0.1058619687
0.1047575233
0.1034614805
0.1021255887
0.1004518776
0.09867807333
0.0962639566
0.1815984947
0.1658406466
0.1562590256
0.1454353467
0.1391817763
0.1315268811
0.1273486514
0.1218741902
0.1190353133
0.1151233331
0.1131523802
0.1103767456
0.1089491574
0.1069809476
0.105856919
0.1044097809
0.103398441
0.1021946067
0.101128498
0.09987718357
0.09858764132
0.09697178983
0.09525947307
0.09292895132
0.1745065387
0.1593641212
0.1501566612
0.139755648
0.1337463087
0.1263902893
0.122375311
0.1171145494
0.1143867126
0.1106273392
0.1087336165
0.1060661476
0.1046946544
0.102803036
0.1017232989
0.1003323836
0.09936092975
0.09820382003
0.0971796941
0.09597698763
0.09473808899
0.09318515511
0.09153985948
0.08930030252
0.1668703345
0.1523904532
0.1435857957
0.1336398576
0.1278934302
0.1208592555
0.1170199718
0.1119893756
0.1093809679
0.1057859993
0.1039752418
0.10142434
0.1001129973
0.09830396309
0.09727162432
0.09594137692
0.09501256256
0.093905902
0.0929266949
0.0917764565
0.09059186837
0.08910677629
0.08753353685
0.08539195585
0.1587045583
0.1449332777
0.1365594353
0.1271001586
0.1216349384
0.1149448967
0.111293568
0.1065090329
0.1040284482
0.1006092071
0.09888733087
0.09646099504
0.09521418621
0.0934933672
0.09251196275
0.09124647799
0.09036352455
0.08931068858
0.08837976365
0.08728551745
0.08615919722
0.08474657061
0.08325048007
0.08121364728
0.1500436774
0.1370238543
0.1291068836
0.1201637615
0.1149967422
0.1086717465
0.1052196916
0.1006962228
0.09835108957
0.09511834157
0.09349055539
0.09119646618
0.090017866
0.08839075824
0.08746309879
0.08626647165
0.08543187049
0.08443629978
0.08355631449
0.08252161386
0.08145687954
0.08012121864
0.07870684024
0.07678112989
0.1409067749
0.1286798117
0.1212448943
0.1128463086
0.1079939396
0.1020540048
0.09881224872
0.09456410486
0.09236197343
0.08932585766
0.08779748847
0.08564279049
0.0845363523
0.08300796482
0.08213724047
0.08101309279
0.08022974639
0.07929441738
0.07846840102
0.07749637064
0.07649679303
0.0752422358
0.07391416521
0.07210567103
0.1313301268
0.1199340928
0.1130043696
0.1051765274
0.1006538956
0.09511761806
0.09209620542
0.08813674794
0.08608438354
0.0832545082
0.08183016857
0.07982173975
0.07879071061
0.07736598963
0.0765546839
0.07550672435
0.0747768419
0.07390488009
0.07313519339
0.07222904126
0.07129755941
0.07012812487
0.06889039883
0.06720477479
0.1213370036
0.110808117
0.1044056248
0.09717334641
0.09299485443
0.08787972324
0.08508831386
0.08142998108
0.07953400508
0.07691918983
0.07560355809
0.0737475862
0.07279544411
0.07147869899
0.07072961549
0.06976093192
0.06908705068
0.06828098078
0.06757026158
0.0667326607
0.06587239133
0.0647916727
0.0636483175
0.06209090377
0.1109650175
0.1013360826
0.09548075249
0.08886662876
0.08504526057
0.08036732158
0.07781454961
0.07446889354
0.07273511116
0.07034369269
0.06914071643
0.06744320125
0.0665727158
0.06536829392
0.06468355293
0.06379743582
0.06318146013
0.06244407031
0.06179437178
0.06102816296
0.06024165795
0.05925315644
0.05820765525
0.05678331502
0.1002413409
0.09154293702
0.08625338697
0.08027836541
0.07682630209
0.07260029942
0.07029434771
0.06727182967
0.06570586171
0.06354522568
0.0624588874
0.06092497475
0.06013911562
0.05905056367
0.05843255622
0.05763151085
0.05707558296
0.05640890104
0.05582242481
0.05512977724
0.05441963469
0.05352633643
0.05258207044
0.05129532079
0.08920445196
0.08146370466
0.07675640269
0.07143917287
0.06836712641
0.06460635231
0.06255432674
0.05986454316
0.05847115016
0.0565482582
0.05558177881
0.05421651907
0.05351753104
0.05254854749
0.05199898965
0.051285851
0.05079153444
0.05019798403
0.04967644877
0.0490598159
0.04842818313
0.04763304534
0.04679292105
0.04564777789
0.07788507344
0.07112653868
0.06701645169
0.06237382605
0.05969160711
0.05640787696
0.05461638779
0.05226769352
0.05105143459
0.04937214697
0.04852877253
0.0473362051
0.04672652227
0.04587984856
0.04540070378
0.04477736862
0.04434640365
0.04382749444
0.04337265425
0.04283367056
0.04228259752
0.04158795113
0.04085465383
0.03985474883
0.06632208249
0.06056686622
0.05706679081
0.05311332149
0.05082923248
0.04803291607
0.04650744644
0.04450735867
0.04347188286
0.04204169503
0.04132387249
0.04030803122
0.03978933788
0.03906796982
0.03866051291
0.03812931108
0.03776287328
0.03732061798
0.03693380298
0.03647449522
0.03600567402
0.03541389776
0.03478971349
0.03393817107
0.05454933882
0.0498156658
0.04693673019
0.04368488428
0.04180624299
0.03950608011
0.03825158658
0.03660625228
0.03575500266
0.03457818151
0.03398838188
0.03315215625
0.03272632195
0.03213217343
0.03179792619
0.03136014392
0.03105957769
0.0306949774
0.03037751344
0.02999898555
0.02961393151
0.02912668265
0.02861358889
0.02791310414
0.04260566907
0.03890835791
0.0366595261
0.03411953421
0.03265212982
0.03085543573
0.02987571061
0.02859046919
0.027925938
0.02700643644
0.02654630389
0.02589265064
0.0255607815
0.0250960929
0.02483586776
0.02449327351
0.0242593262
0.02397391935
0.02372668633
0.02343047506
0.02313035428
0.02274938073
0.02234898103
0.02180175108
0.03052759356
0.02787831138
0.02626673258
0.02444656045
0.02339512361
0.02210745409
0.02140573434
0.02048445153
0.02000891863
0.01934936465
0.019020559
0.0185511927
0.01831456268
0.01798041143
0.01779526771
0.01754854665
0.01738216784
0.01717647274
0.0170003906
0.01678709747
0.01657291879
0.01629921175
0.01601278541
0.0156205329
0.01835345842
0.01676054804
0.01579124212
0.01469666962
0.01406440694
0.01328992945
0.01286827438
0.01231404091
0.01202881675
0.01163156218
0.01143491128
0.01115166205
0.01101079561
0.0108086245
0.0106989101
0.01054922472
0.01045071653
0.01032574175
0.01022120283
0.01009181156
0.009964164822
0.009798786645
0.0096272059
0.009391171811
0.006121921016
0.005590347287
0.005266392769
0.00490078477
0.004689775585
0.004430792959
0.00429067238
0.004105027504
0.004011192667
0.003877202147
0.003813527257
0.003716925256
0.003672475946
0.003602522768
0.003568810856
0.003516248819
0.003486153236
0.003441948817
0.003409468042
0.00336409808
0.003323491212
0.003266776018
0.00321061989
0.003131533724
-0.006129563994
-0.005598042063
-0.005275630646
-0.004911018603
-0.004700185231
-0.004442706529
-0.004300984695
-0.004117241084
-0.004019566759
-0.003889580493
-0.003820273115
-0.003729559338
-0.003677649253
-0.003614764216
-0.003572583837
-0.003527482445
-0.003489304308
-0.003452278888
-0.003412799777
-0.003373743725
-0.003327303689
-0.003275004308
-0.003215603061
-0.003137473707
-0.01836076542
-0.01676794423
-0.01580019991
-0.01470664535
-0.01407457303
-0.01330161151
-0.01287837056
-0.01232604217
-0.0120369978
-0.01164373801
-0.01144147801
-0.01116409802
-0.01101580355
-0.01082068077
-0.01070253512
-0.01056028908
-0.01045371981
-0.01033589409
-0.0102243598
-0.01010124901
-0.00996777179
-0.009806789738
-0.009631973592
-0.00939690115
-0.0305355114
-0.02788624105
-0.02627616521
-0.02445695364
-0.02340567306
-0.02211947599
-0.02141615634
-0.0204967468
-0.02001739917
-0.01936180814
-0.01902741218
-0.01856387845
-0.0183198452
-0.01799269733
-0.01779915257
-0.01755983476
-0.01738544482
-0.01718688863
-0.01700387953
-0.01679686968
-0.01657692075
-0.01630760245
-0.01601796303
-0.0156266551
-0.04261258285
-0.03891539524
-0.03666812162
-0.0341291561
-0.03266195115
-0.03086676572
-0.02988548581
-0.02860212966
-0.02793383991
-0.02701827425
-0.02655261887
-0.02590474202
-0.02556556168
-0.02510781534
-0.02483929389
-0.02450403897