/*--------------------------------*- C++ -*----------------------------------*\
| =========                 |                                                 |
| \\      /  F ield         | foam-extend: Open Source CFD                    |
|  \\    /   O peration     | Version:  3.0                                   |
|   \\  /    A nd           | Web:         http://www.extend-project.de       |
|    \\/     M anipulation  |                                                 |
\*---------------------------------------------------------------------------*/
FoamFile
{
    version     2.0;
    format      ascii;
    class       volScalarField;
    location    "22";
    object      p;
}
// * * * * * * * * * * * * * * * * * * * * * * * * * * * * * * * * * * * * * //

dimensions      [0 0 0 0 0 0 0];

internalField   nonuniform List<scalar> 
224
(
-0.257592
-0.200689
-0.197639
-0.179457
-0.183179
-0.179321
-0.175307
-0.247698
-0.192979
-0.190046
-0.172561
-0.17614
-0.17243
-0.16857
-0.228273
-0.177846
-0.175143
-0.159029
-0.162328
-0.158908
-0.155352
-0.200087
-0.155885
-0.153515
-0.139391
-0.142281
-0.139284
-0.136166
-0.1642
-0.127927
-0.125982
-0.114391
-0.116763
-0.114303
-0.111745
-0.122015
-0.0950595
-0.0936137
-0.0849996
-0.0867618
-0.0849332
-0.0830321
-0.0751295
-0.0585317
-0.0576415
-0.0523373
-0.0534223
-0.0522963
-0.0511258
-0.0253682
-0.0197623
-0.0194608
-0.0176686
-0.0180343
-0.0176532
-0.0172579
0.0253791
0.019774
0.0194741
0.0176836
0.0180508
0.0176714
0.0172759
0.0751398
0.0585427
0.057654
0.0523513
0.0534378
0.0523133
0.0511426
0.122024
0.0950691
0.0936246
0.0850118
0.0867752
0.0849479
0.0830467
0.164208
0.127934
0.125991
0.1144
0.116774
0.114315
0.111756
0.200092
0.155891
0.153521
0.139397
0.142288
0.139291
0.136174
0.228276
0.177849
0.175146
0.159033
0.162331
0.158912
0.155356
0.247698
0.19298
0.190046
0.172561
0.17614
0.172429
0.16857
0.25759
0.200687
0.197637
0.179454
0.183175
0.179317
0.175303
0.257595
0.200689
0.197639
0.179454
0.183176
0.179317
0.175303
0.247689
0.192972
0.190039
0.172554
0.176133
0.172423
0.168564
0.228276
0.177847
0.175143
0.159028
0.162326
0.158906
0.155349
0.200079
0.155879
0.15351
0.139386
0.142276
0.139279
0.136162
0.164204
0.127929
0.125984
0.114392
0.116763
0.114303
0.111745
0.122008
0.0950544
0.0936094
0.0849965
0.0867591
0.0849314
0.0830304
0.0751339
0.0585348
0.0576443
0.0523398
0.0534248
0.0522989
0.0511281
0.0253614
0.019758
0.0194574
0.0176667
0.018033
0.017653
0.0172578
-0.0253745
-0.0197706
-0.0194709
-0.0176807
-0.0180478
-0.0176681
-0.017273
-0.0751467
-0.0585473
-0.0576577
-0.0523536
-0.0534394
-0.0523139
-0.0511432
-0.12202
-0.0950664
-0.0936223
-0.0850099
-0.0867734
-0.0849462
-0.0830453
-0.164215
-0.12794
-0.125996
-0.114404
-0.116777
-0.114318
-0.111759
-0.200089
-0.155889
-0.153521
-0.139398
-0.142289
-0.139292
-0.136175
-0.228284
-0.177855
-0.175152
-0.159039
-0.162337
-0.158918
-0.155361
-0.247695
-0.192979
-0.190047
-0.172563
-0.176142
-0.172433
-0.168573
-0.257599
-0.200694
-0.197644
-0.179461
-0.183183
-0.179324
-0.175311
)
;

boundaryField
{
    out
    {
        type            implicitExtrapolation;
    }
    in
    {
        type            implicitExtrapolation;
    }
    frontAndBack
    {
        type            empty;
    }
}


// ************************************************************************* //
