/*--------------------------------*- C++ -*----------------------------------*\
| =========                 |                                                 |
| \\      /  F ield         | foam-extend: Open Source CFD                    |
|  \\    /   O peration     | Version:  3.0                                   |
|   \\  /    A nd           | Web:         http://www.extend-project.de       |
|    \\/     M anipulation  |                                                 |
\*---------------------------------------------------------------------------*/
FoamFile
{
    version     2.0;
    format      ascii;
    class       volVectorField;
    location    "22";
    object      u;
}
// * * * * * * * * * * * * * * * * * * * * * * * * * * * * * * * * * * * * * //

dimensions      [0 0 0 0 0 0 0];

internalField   nonuniform List<vector> 
224
(
(0.383013 -0.135761 1.56464e-18)
(0.655577 -0.0827894 6.64236e-18)
(0.842406 -0.0518377 -4.58368e-18)
(0.906143 -0.0333937 -7.50423e-18)
(0.984631 -0.0185758 -7.4853e-18)
(0.97865 -0.0112025 2.2903e-18)
(1.02391 0.00168268 -2.68735e-18)
(0.486915 -0.386599 4.10696e-19)
(0.718936 -0.235746 -9.05807e-19)
(0.882074 -0.1476 -1.38623e-17)
(0.931693 -0.0950724 3.74141e-17)
(0.998839 -0.0528703 -7.9726e-18)
(0.987213 -0.0318671 -1.81654e-17)
(1.02261 0.00482799 -2.13329e-17)
(0.6789 -0.578582 -6.75675e-18)
(0.836005 -0.352813 -4.54922e-18)
(0.955369 -0.220892 -1.72616e-17)
(0.978903 -0.142279 -5.47671e-18)
(1.02509 -0.0791176 -2.30348e-17)
(1.00303 -0.0476822 6.86474e-17)
(1.0202 0.00723564 1.834e-17)
(0.92974 -0.682482 -3.8869e-18)
(0.988963 -0.416168 -2.96622e-18)
(1.05113 -0.260557 -5.51455e-18)
(1.04058 -0.167826 -8.48952e-20)
(1.05939 -0.0933216 -1.52078e-18)
(1.0237 -0.0562404 2.96357e-17)
(1.01706 0.00853937 -4.32157e-17)
(1.20125 -0.68248 -1.70244e-18)
(1.15452 -0.416167 -1.86677e-18)
(1.15479 -0.260556 -2.72821e-18)
(1.10735 -0.167824 -2.94889e-19)
(1.09651 -0.09332 1.3143e-17)
(1.04607 -0.0562382 -4.15672e-17)
(1.01366 0.00854068 -3.68761e-18)
(1.45209 -0.578578 1.23657e-18)
(1.30748 -0.352808 -1.45888e-18)
(1.25055 -0.220888 -3.12265e-18)
(1.16902 -0.142274 -9.40269e-18)
(1.1308 -0.0791124 1.37077e-17)
(1.06674 -0.0476759 -3.93515e-17)
(1.01052 0.00724039 4.26244e-17)
(1.64407 -0.386593 -8.24404e-19)
(1.42455 -0.235739 -3.69851e-18)
(1.32384 -0.147593 3.31436e-18)
(1.21623 -0.0950644 9.33424e-18)
(1.15705 -0.0528621 9.11677e-18)
(1.08256 -0.0318564 -1.58865e-17)
(1.00812 0.00483664 -5.62268e-18)
(1.74797 -0.135753 -1.33714e-19)
(1.4879 -0.0827809 -4.13934e-19)
(1.36351 -0.0518286 3.4283e-18)
(1.24178 -0.0333837 3.00147e-18)
(1.17126 -0.0185646 5.4669e-18)
(1.09112 -0.0111881 -6.86942e-18)
(1.00682 0.00169676 -1.71821e-18)
(1.74797 0.135753 9.44664e-19)
(1.4879 0.0827794 5.95145e-19)
(1.36351 0.051825 4.37749e-18)
(1.24178 0.0333791 -1.67998e-18)
(1.17126 0.0185584 2.84569e-18)
(1.09112 0.0111835 -4.73434e-18)
(1.00682 -0.00170121 4.26946e-19)
(1.64407 0.386593 2.22254e-18)
(1.42455 0.235737 2.59716e-18)
(1.32384 0.147589 7.41726e-18)
(1.21623 0.0950595 -1.13922e-17)
(1.15705 0.0528562 3.93898e-18)
(1.08256 0.0318521 -4.63249e-18)
(1.00813 -0.00483883 5.98245e-18)
(1.45208 0.578577 4.66211e-18)
(1.30748 0.352805 3.21467e-18)
(1.25055 0.220883 8.06096e-18)
(1.16902 0.142268 5.61583e-18)
(1.1308 0.079107 1.03659e-17)
(1.06674 0.0476724 -3.70873e-17)
(1.01053 -0.00723876 -5.67789e-18)
(1.20124 0.682478 1.46166e-18)
(1.15452 0.416162 1.09803e-18)
(1.15478 0.26055 -9.76475e-20)
(1.10734 0.167818 -1.13396e-18)
(1.09651 0.0933152 -6.21218e-18)
(1.04607 0.0562354 3.18218e-18)
(1.01367 -0.00853494 3.7028e-17)
(0.929738 0.682478 -7.88547e-19)
(0.988961 0.416163 7.43506e-19)
(1.05113 0.260551 -9.75483e-19)
(1.04058 0.16782 -1.01957e-19)
(1.05938 0.0933175 -2.20916e-17)
(1.0237 0.0562386 7.36102e-17)
(1.01707 -0.00853051 -8.32248e-18)
(0.678899 0.578577 -3.75836e-18)
(0.836004 0.352807 2.22385e-18)
(0.955367 0.220886 -4.88088e-19)
(0.9789 0.142273 1.15957e-17)
(1.02509 0.0791143 -2.78387e-17)
(1.00303 0.0476813 6.12547e-17)
(1.02021 -0.00722562 -7.77985e-17)
(0.486915 0.386594 2.01221e-18)
(0.718935 0.23574 8.87175e-18)
(0.882073 0.147594 -1.14533e-17)
(0.931691 0.0950677 -2.96432e-17)
(0.998836 0.0528678 -1.80938e-17)
(0.987211 0.0318668 1.88416e-17)
(1.02261 -0.00481911 3.34493e-17)
(0.383013 0.135755 -9.90879e-19)
(0.655578 0.0827837 -5.51625e-18)
(0.842405 0.051833 7.20698e-19)
(0.906141 0.0333903 8.25419e-18)
(0.984628 0.0185742 -9.82164e-19)
(0.978648 0.0112027 1.13236e-17)
(1.0239 -0.00167679 5.19456e-19)
(0.383013 -0.135752 -1.56524e-18)
(0.655577 -0.0827747 -6.64291e-18)
(0.842403 -0.0518183 4.58277e-18)
(0.906139 -0.0333692 7.50334e-18)
(0.984625 -0.0185456 7.48446e-18)
(0.978644 -0.0111648 -2.29089e-18)
(1.0239 0.00172315 2.68637e-18)
(0.486913 -0.386591 -4.1119e-19)
(0.718932 -0.235731 9.05245e-19)
(0.882067 -0.14758 1.3861e-17)
(0.931684 -0.0950474 -3.74137e-17)
(0.998827 -0.0528406 7.9718e-18)
(0.9872 -0.0318305 1.81641e-17)
(1.02259 0.0048634 2.13316e-17)
(0.678897 -0.578574 6.75627e-18)
(0.835998 -0.352799 4.54858e-18)
(0.955358 -0.220873 1.72606e-17)
(0.978888 -0.142255 5.47575e-18)
(1.02507 -0.0790894 2.30337e-17)
(1.00301 -0.0476482 -6.86464e-17)
(1.02019 0.00726616 -1.83397e-17)
(0.929735 -0.682475 3.88636e-18)
(0.988953 -0.416156 2.96559e-18)
(1.05112 -0.26054 5.51381e-18)
(1.04056 -0.167804 8.42009e-20)
(1.05936 -0.0932963 1.51994e-18)
(1.02368 -0.0562099 -2.96355e-17)
(1.01704 0.00856528 4.32129e-17)
(1.20124 -0.682475 1.70193e-18)
(1.15451 -0.416157 1.86615e-18)
(1.15477 -0.260541 2.72752e-18)
(1.10732 -0.167806 2.94219e-19)
(1.09648 -0.0932982 -1.31438e-17)
(1.04604 -0.0562126 4.1567e-17)
(1.01364 0.00856297 3.68664e-18)
(1.45208 -0.578575 -1.23696e-18)
(1.30747 -0.352801 1.45829e-18)
(1.25053 -0.220877 3.12195e-18)
(1.169 -0.14226 9.40204e-18)
(1.13078 -0.0790954 -1.37081e-17)
(1.0667 -0.0476558 3.93505e-17)
(1.01049 0.00725858 -4.26256e-17)
(1.64406 -0.386592 8.23901e-19)
(1.42453 -0.235735 3.69793e-18)
(1.32382 -0.147586 -3.3152e-18)
(1.21621 -0.0950556 -9.33507e-18)
(1.15702 -0.05285 -9.11782e-18)
(1.08252 -0.031843 1.5886e-17)
(1.00808 0.00485049 5.62221e-18)
(1.74796 -0.135754 1.33095e-19)
(1.48789 -0.0827804 4.13275e-19)
(1.36349 -0.0518265 -3.42905e-18)
(1.24175 -0.0333794 -3.00213e-18)
(1.17123 -0.0185585 -5.46764e-18)
(1.09108 -0.0111814 6.86881e-18)
(1.00678 0.00170401 1.71745e-18)
(1.74796 0.135751 -9.45321e-19)
(1.48789 0.0827767 -5.95824e-19)
(1.36349 0.0518238 -4.37826e-18)
(1.24176 0.0333783 1.67932e-18)
(1.17123 0.018559 -2.8463e-18)
(1.09108 0.0111824 4.73349e-18)
(1.00678 -0.00170185 -4.27797e-19)
(1.64406 0.386588 -2.22315e-18)
(1.42453 0.235732 -2.59781e-18)
(1.32382 0.147584 -7.41828e-18)
(1.21621 0.0950547 1.13915e-17)
(1.15703 0.0528505 -3.93954e-18)
(1.08252 0.031844 4.6318e-18)
(1.00808 -0.00484969 -5.98297e-18)
(1.45207 0.578571 -4.66274e-18)
(1.30747 0.352798 -3.21539e-18)
(1.25053 0.220876 -8.06164e-18)
(1.169 0.142259 -5.6167e-18)
(1.13078 0.079096 -1.03663e-17)
(1.06671 0.0476567 3.70853e-17)
(1.01049 -0.00725997 5.67692e-18)
(1.20124 0.68247 -1.46238e-18)
(1.15451 0.416154 -1.09879e-18)
(1.15477 0.26054 9.68941e-20)
(1.10733 0.167806 1.13319e-18)
(1.09649 0.0932987 6.21171e-18)
(1.04604 0.0562135 -3.18293e-18)
(1.01363 -0.00856648 -3.70292e-17)
(0.92973 0.682469 7.87848e-19)
(0.988953 0.416153 -7.4429e-19)
(1.05112 0.260539 9.74698e-19)
(1.04057 0.167804 1.01121e-19)
(1.05937 0.0932967 2.20912e-17)
(1.02368 0.0562107 -7.3612e-17)
(1.01704 -0.00856987 8.32135e-18)
(0.678893 0.578567 3.7578e-18)
(0.835997 0.352795 -2.22463e-18)
(0.955359 0.220872 4.87286e-19)
(0.978891 0.142255 -1.15968e-17)
(1.02508 0.0790895 2.78392e-17)
(1.00302 0.047649 -6.1258e-17)
(1.02019 -0.00727018 7.78002e-17)
(0.48691 0.386583 -2.01284e-18)
(0.718931 0.235727 -8.87256e-18)
(0.882068 0.147578 1.14526e-17)
(0.931687 0.0950468 2.96433e-17)
(0.998831 0.0528403 1.80937e-17)
(0.987203 0.0318312 -1.88427e-17)
(1.0226 -0.00486506 -3.34514e-17)
(0.383011 0.135744 9.90238e-19)
(0.655575 0.0827696 5.51565e-18)
(0.842404 0.0518149 -7.21519e-19)
(0.90614 0.0333673 -8.25513e-18)
(0.984628 0.0185447 9.81632e-19)
(0.978647 0.0111653 -1.13246e-17)
(1.0239 -0.00172117 -5.20439e-19)
)
;

boundaryField
{
    out
    {
        type            fixedValue;
        value           uniform (1 0 0);
    }
    in
    {
        type            myVelocity;
    }
    frontAndBack
    {
        type            empty;
    }
}


// ************************************************************************* //
