/*--------------------------------*- C++ -*----------------------------------*\
| =========                 |                                                 |
| \\      /  F ield         | foam-extend: Open Source CFD                    |
|  \\    /   O peration     | Version:  3.0                                   |
|   \\  /    A nd           | Web:         http://www.extend-project.de       |
|    \\/     M anipulation  |                                                 |
\*---------------------------------------------------------------------------*/
FoamFile
{
    version     2.0;
    format      ascii;
    class       volScalarField;
    location    "8";
    object      p;
}
// * * * * * * * * * * * * * * * * * * * * * * * * * * * * * * * * * * * * * //

dimensions      [0 0 0 0 0 0 0];

internalField   nonuniform List<scalar> 
224
(
-0.26611
-0.209299
-0.207093
-0.189563
-0.194023
-0.190752
-0.186577
-0.255833
-0.201199
-0.199068
-0.182201
-0.18648
-0.183324
-0.179305
-0.235702
-0.185346
-0.183373
-0.167817
-0.17175
-0.168829
-0.165122
-0.206528
-0.162378
-0.160633
-0.146982
-0.150414
-0.147836
-0.144585
-0.169397
-0.133155
-0.131708
-0.120486
-0.123286
-0.121149
-0.118481
-0.125774
-0.0988269
-0.097732
-0.0893681
-0.0914285
-0.0898135
-0.087829
-0.0773038
-0.0606942
-0.0599957
-0.054816
-0.0560587
-0.0550308
-0.0538071
-0.0258843
-0.0202478
-0.0199728
-0.0181766
-0.0185549
-0.0181555
-0.0177378
0.026541
0.0209793
0.0208163
0.0191537
0.0196512
0.0194012
0.0189976
0.0779236
0.0613797
0.0607842
0.0557254
0.0570781
0.0561855
0.0549781
0.126323
0.0994249
0.0984163
0.0901498
0.0923029
0.090797
0.088833
0.169849
0.133633
0.13225
0.121094
0.123965
0.121902
0.119258
0.206862
0.162715
0.161009
0.147389
0.150866
0.148325
0.145102
0.235911
0.185535
0.183574
0.168017
0.171967
0.169047
0.165369
0.255914
0.201241
0.1991
0.182204
0.186476
0.183291
0.179298
0.26607
0.20921
0.206975
0.189395
0.193828
0.190505
0.186349
0.266024
0.209159
0.206916
0.189328
0.193753
0.190423
0.186262
0.255743
0.201067
0.198906
0.181992
0.186242
0.183037
0.179031
0.235654
0.185265
0.18327
0.16768
0.171591
0.168635
0.164937
0.206496
0.162338
0.160586
0.146923
0.150348
0.147757
0.144509
0.169419
0.133183
0.131742
0.120528
0.123334
0.121206
0.118534
0.125814
0.0988975
0.097823
0.0894912
0.09157
0.0899868
0.0879938
0.0773866
0.0608177
0.0601484
0.0550143
0.0562845
0.0553037
0.0540664
0.0259653
0.0203832
0.020145
0.0184061
0.0188182
0.0184764
0.0180435
-0.0264423
-0.0208309
-0.0206323
-0.0189145
-0.0193787
-0.019072
-0.0186842
-0.0778548
-0.0612631
-0.0606355
-0.0555268
-0.0568502
-0.0559077
-0.0547134
-0.126263
-0.0993361
-0.0983069
-0.0900086
-0.0921425
-0.0906038
-0.0886492
-0.169838
-0.133608
-0.132216
-0.121046
-0.123908
-0.121833
-0.119192
-0.206872
-0.162735
-0.161037
-0.147428
-0.15091
-0.14838
-0.145155
-0.235972
-0.18562
-0.183678
-0.16815
-0.172118
-0.16923
-0.165543
-0.255984
-0.201356
-0.199246
-0.182398
-0.1867
-0.183564
-0.179558
-0.266173
-0.209361
-0.20716
-0.189634
-0.194101
-0.190836
-0.186664
)
;

boundaryField
{
    out
    {
        type            implicitExtrapolation;
    }
    in
    {
        type            implicitExtrapolation;
    }
    frontAndBack
    {
        type            empty;
    }
}


// ************************************************************************* //
