/*--------------------------------*- C++ -*----------------------------------*\
| =========                 |                                                 |
| \\      /  F ield         | foam-extend: Open Source CFD                    |
|  \\    /   O peration     | Version:  3.0                                   |
|   \\  /    A nd           | Web:         http://www.extend-project.de       |
|    \\/     M anipulation  |                                                 |
\*---------------------------------------------------------------------------*/
FoamFile
{
    version     2.0;
    format      ascii;
    class       volVectorField;
    location    "8";
    object      u;
}
// * * * * * * * * * * * * * * * * * * * * * * * * * * * * * * * * * * * * * //

dimensions      [0 0 0 0 0 0 0];

internalField   nonuniform List<vector> 
224
(
(0.384374 -0.135961 2.09312e-18)
(0.657752 -0.0827915 7.31001e-18)
(0.845075 -0.0516973 -4.14562e-18)
(0.908601 -0.033167 -7.35545e-18)
(0.986983 -0.0182348 -7.18147e-18)
(0.980108 -0.010784 2.66148e-18)
(1.02472 0.00227567 -2.13896e-18)
(0.488632 -0.387786 9.37978e-19)
(0.721319 -0.236354 -4.48976e-19)
(0.884849 -0.147816 -1.38709e-17)
(0.934201 -0.0950817 3.84958e-17)
(1.00117 -0.0526031 -7.48329e-18)
(0.988608 -0.0314657 -1.80067e-17)
(1.02321 0.0057577 -2.06981e-17)
(0.681333 -0.580548 -6.39226e-18)
(0.838817 -0.3539 -4.12573e-18)
(0.958372 -0.221399 -1.71145e-17)
(0.981532 -0.142489 -5.39771e-18)
(1.0274 -0.0789369 -2.33579e-17)
(1.00436 -0.0473305 6.9168e-17)
(1.02047 0.00838908 1.87509e-17)
(0.933141 -0.684898 -3.4881e-18)
(0.992351 -0.417531 -2.57782e-18)
(1.05444 -0.26124 -5.14248e-18)
(1.04338 -0.168173 2.09194e-19)
(1.06168 -0.0932336 -1.22552e-18)
(1.02496 -0.0559708 3.01997e-17)
(1.01691 0.0097315 -4.29808e-17)
(1.20572 -0.684949 -1.3417e-18)
(1.15854 -0.417559 -1.54887e-18)
(1.15843 -0.261277 -2.42456e-18)
(1.11032 -0.168226 -3.70464e-20)
(1.0988 -0.0933241 1.3779e-17)
(1.04727 -0.0560735 -4.15397e-17)
(1.01314 0.00956228 -3.20716e-18)
(1.45758 -0.580688 1.55903e-18)
(1.31208 -0.353984 -1.22401e-18)
(1.25449 -0.221511 -2.90089e-18)
(1.17215 -0.142648 -9.36692e-18)
(1.13311 -0.0791971 1.40398e-17)
(1.06791 -0.0476275 -3.92634e-17)
(1.00977 0.00792422 4.28326e-17)
(1.65038 -0.387988 -6.63548e-19)
(1.42959 -0.23649 -3.62859e-18)
(1.32799 -0.148004 3.4669e-18)
(1.21946 -0.0953418 9.60969e-18)
(1.15937 -0.0530042 9.19628e-18)
(1.08373 -0.0319141 -1.54557e-17)
(1.00736 0.00510897 -5.59754e-18)
(1.75476 -0.136181 -6.70879e-20)
(1.49318 -0.0829742 -3.35824e-19)
(1.36776 -0.0519547 3.4576e-18)
(1.24504 -0.0335179 2.9932e-18)
(1.17359 -0.018731 5.4456e-18)
(1.09232 -0.0113247 -6.70189e-18)
(1.00626 0.00160032 -1.69917e-18)
(1.75484 0.136396 8.92212e-19)
(1.49319 0.08319 5.08908e-19)
(1.36773 0.0520084 4.32229e-18)
(1.24501 0.0334076 -1.638e-18)
(1.17361 0.0184062 2.79533e-18)
(1.09236 0.0110106 -4.65981e-18)
(1.00661 -0.00202592 3.77845e-19)
(1.6506 0.388248 2.05096e-18)
(1.4296 0.236704 2.4247e-18)
(1.32792 0.148059 7.40514e-18)
(1.21936 0.0952452 -1.17565e-17)
(1.1594 0.052756 3.76221e-18)
(1.08385 0.0316915 -4.60262e-18)
(1.0083 -0.00520709 5.80179e-18)
(1.45792 0.581031 4.45123e-18)
(1.31212 0.354202 2.97005e-18)
(1.2544 0.221578 7.97025e-18)
(1.17201 0.142586 5.48635e-18)
(1.13313 0.0790869 1.0551e-17)
(1.06807 0.0475683 -3.74706e-17)
(1.01103 -0.00748865 -5.98414e-18)
(1.20612 0.685394 1.1108e-18)
(1.15862 0.417802 7.72061e-19)
(1.15835 0.261381 -3.86417e-19)
(1.11017 0.16823 -1.38212e-18)
(1.0988 0.0933891 -6.33222e-18)
(1.04742 0.0562196 2.46577e-18)
(1.01437 -0.00857849 3.69187e-17)
(0.93355 0.685448 -1.24376e-18)
(0.992479 0.417829 3.52007e-19)
(1.0544 0.261418 -1.33201e-18)
(1.04324 0.168283 -4.36078e-19)
(1.06162 0.0934831 -2.27926e-17)
(1.02504 0.0563256 7.32473e-17)
(1.01782 -0.00836551 -8.71327e-18)
(0.681702 0.581182 -4.34253e-18)
(0.838981 0.354284 1.81561e-18)
(0.958363 0.22169 -8.7284e-19)
(0.981417 0.142744 1.16481e-17)
(1.02726 0.0793576 -2.84899e-17)
(1.00435 0.04787 6.11829e-17)
(1.02092 -0.00690932 -7.82997e-17)
(0.48892 0.388467 1.56971e-18)
(0.721487 0.236842 8.77173e-18)
(0.884854 0.148247 -1.19321e-17)
(0.93409 0.0955056 -3.04704e-17)
(1.00095 0.0531675 -1.85211e-17)
(0.988494 0.0321437 1.79965e-17)
(1.02324 -0.00442165 3.32131e-17)
(0.384555 0.136641 -1.50716e-18)
(0.657879 0.0833792 -6.14151e-18)
(0.845054 0.0522704 2.79125e-19)
(0.908462 0.03376 8.07995e-18)
(0.986699 0.0189081 -1.38875e-18)
(0.97989 0.0115472 1.08437e-17)
(1.02447 -0.00124502 -3.10818e-20)
(0.384498 -0.135958 -2.09435e-18)
(0.657837 -0.0827468 -7.30765e-18)
(0.84502 -0.0516333 4.13581e-18)
(0.908428 -0.0330953 7.34034e-18)
(0.986665 -0.0181995 7.16713e-18)
(0.979843 -0.0107775 -2.65499e-18)
(1.02441 0.0021811 2.12926e-18)
(0.488757 -0.387831 -9.37999e-19)
(0.721368 -0.236251 4.47846e-19)
(0.884755 -0.147651 1.38537e-17)
(0.933994 -0.0948854 -3.84465e-17)
(1.00085 -0.0525012 7.46822e-18)
(0.98836 -0.0314263 1.79727e-17)
(1.02305 0.00536562 2.0657e-17)
(0.68146 -0.580631 6.39186e-18)
(0.838805 -0.353768 4.12291e-18)
(0.958216 -0.221168 1.70963e-17)
(0.981271 -0.142207 5.38741e-18)
(1.0271 -0.0787742 2.33171e-17)
(1.00414 -0.0472542 -6.90409e-17)
(1.02055 0.00783136 -1.87006e-17)
(0.933267 -0.685008 3.48878e-18)
(0.992276 -0.417407 2.57695e-18)
(1.05423 -0.260994 5.13631e-18)
(1.04307 -0.167855 -2.11381e-19)
(1.06142 -0.093019 1.20276e-18)
(1.02478 -0.0558503 -3.01595e-17)
(1.01727 0.00918313 4.29042e-17)
(1.20584 -0.68507 1.34272e-18)
(1.15842 -0.417478 1.54934e-18)
(1.15818 -0.261061 2.42208e-18)
(1.10999 -0.167921 3.81987e-20)
(1.09857 -0.0930675 -1.38047e-17)
(1.04714 -0.0559085 4.16112e-17)
(1.01368 0.0091853 3.20528e-18)
(1.45768 -0.580813 -1.55869e-18)
(1.31195 -0.353966 1.22573e-18)
(1.25425 -0.221353 2.89945e-18)
(1.17185 -0.142388 9.37967e-18)
(1.13292 -0.0789104 -1.4089e-17)
(1.06782 -0.0474182 3.93594e-17)
(1.01035 0.0078095 -4.29702e-17)
(1.65044 -0.388111 6.63187e-19)
(1.42948 -0.236534 3.63357e-18)
(1.32781 -0.147907 -3.48108e-18)
(1.21924 -0.0951335 -9.65472e-18)
(1.15925 -0.0526979 -9.24667e-18)
(1.08367 -0.0316712 1.54774e-17)
(1.00778 0.00525353 5.66853e-18)
(1.75477 -0.136305 6.30878e-20)
(1.49313 -0.0830567 3.28656e-19)
(1.36768 -0.0518984 -3.45866e-18)
(1.24495 -0.0333433 -2.98384e-18)
(1.17354 -0.018415 -5.45815e-18)
(1.0923 -0.0110598 6.7162e-18)
(1.00639 0.0019054 1.70191e-18)
(1.7548 0.136268 -8.98545e-19)
(1.4932 0.0831027 -5.18798e-19)
(1.36777 0.0520615 -4.32007e-18)
(1.24505 0.033579 1.64477e-18)
(1.17362 0.0187237 -2.78808e-18)
(1.09237 0.0112795 4.64392e-18)
(1.0064 -0.00171952 -3.77178e-19)
(1.65051 0.38811 -2.05821e-18)
(1.42968 0.236649 -2.43081e-18)
(1.32806 0.148145 -7.39612e-18)
(1.21953 0.0954465 1.17002e-17)
(1.15948 0.0530641 -3.75513e-18)
(1.0839 0.0319476 4.62175e-18)
(1.00779 -0.00506831 -5.77295e-18)
(1.45779 0.580883 -4.45824e-18)
(1.31222 0.354201 -2.97499e-18)
(1.2546 0.22172 -7.96001e-18)
(1.17227 0.142834 -5.48384e-18)
(1.13328 0.0793754 -1.05192e-17)
(1.06816 0.0477949 3.7332e-17)
(1.01035 -0.00763167 5.92851e-18)
(1.20598 0.68524 -1.11935e-18)
(1.15872 0.41786 -7.79368e-19)
(1.15857 0.261579 3.83806e-19)
(1.11046 0.168521 1.37582e-18)
(1.099 0.0936452 6.34616e-18)
(1.04755 0.0564063 -2.50285e-18)
(1.01372 -0.00901965 -3.68465e-17)
(0.9334 0.685298 1.23484e-18)
(0.992544 0.41793 -3.60701e-19)
(1.0546 0.261645 1.32572e-18)
(1.04353 0.168587 4.26219e-19)
(1.06187 0.0936968 2.28085e-17)
(1.02522 0.0564675 -7.33229e-17)
(1.01737 -0.00901223 8.70002e-18)
(0.681556 0.58105 4.33471e-18)
(0.838987 0.354394 -1.82542e-18)
(0.958509 0.221902 8.65419e-19)
(0.981664 0.143015 -1.16702e-17)
(1.02754 0.079518 2.85319e-17)
(1.00457 0.0479685 -6.12941e-17)
(1.02076 -0.00759365 7.84336e-17)
(0.488783 0.388369 -1.57693e-18)
(0.721436 0.236924 -8.78446e-18)
(0.884942 0.148398 1.19381e-17)
(0.934291 0.0956933 3.05078e-17)
(1.00125 0.0532676 1.85649e-17)
(0.988743 0.0322034 -1.80307e-17)
(1.02336 -0.00495886 -3.32896e-17)
(0.384427 0.136588 1.50346e-18)
(0.657793 0.0834038 6.14091e-18)
(0.845108 0.0523209 -2.85254e-19)
(0.908632 0.0338251 -8.09548e-18)
(0.987012 0.0189408 1.39598e-18)
(0.980153 0.0115725 -1.08682e-17)
(1.02476 -0.00149357 1.72853e-20)
)
;

boundaryField
{
    out
    {
        type            fixedValue;
        value           uniform (1 0 0);
    }
    in
    {
        type            myVelocity;
    }
    frontAndBack
    {
        type            empty;
    }
}


// ************************************************************************* //
