/*--------------------------------*- C++ -*----------------------------------*\
| =========                 |                                                 |
| \\      /  F ield         | OpenFOAM: The Open Source CFD Toolbox           |
|  \\    /   O peration     | Version:  2.2.0                                 |
|   \\  /    A nd           | Web:      www.OpenFOAM.org                      |
|    \\/     M anipulation  |                                                 |
\*---------------------------------------------------------------------------*/
FoamFile
{
    version     2.0;
    format      ascii;
    class       volScalarField;
    location    "10";
    object      Theta;
}
// * * * * * * * * * * * * * * * * * * * * * * * * * * * * * * * * * * * * * //

dimensions      [0 2 -2 0 0 0 0];

internalField   nonuniform List<scalar> 
1600
(
2.0921
1.90497
1.87171
1.79955
1.7584
1.71594
1.68016
1.64736
1.61746
1.58986
1.56421
1.54023
1.51766
1.49643
1.47597
1.45715
1.43769
1.4206
1.40375
1.38053
2.09137
1.90443
1.87198
1.79946
1.75848
1.71594
1.68017
1.64737
1.61746
1.58986
1.56421
1.54025
1.51771
1.49652
1.47614
1.45736
1.43813
1.42102
1.40433
1.3813
2.06549
1.90578
1.87084
1.79955
1.75846
1.71596
1.68018
1.64737
1.61745
1.58986
1.56422
1.54028
1.51776
1.49675
1.47619
1.45874
1.43691
1.428
1.39629
1.40631
2.06452
1.90553
1.87116
1.79955
1.75855
1.71599
1.6802
1.64737
1.61744
1.58983
1.56417
1.54021
1.51767
1.49663
1.47611
1.45856
1.43715
1.42766
1.39723
1.40726
2.07197
1.90519
1.87151
1.79951
1.75863
1.716
1.68023
1.64738
1.61744
1.58982
1.56416
1.54021
1.51767
1.49661
1.4761
1.45832
1.43714
1.42621
1.39808
1.40008
2.07368
1.90457
1.87208
1.79945
1.75877
1.71602
1.68025
1.64738
1.61743
1.58979
1.56411
1.54013
1.51757
1.49647
1.47601
1.45803
1.43738
1.42539
1.39945
1.39843
2.0764
1.90397
1.87266
1.79937
1.7589
1.71604
1.68028
1.64738
1.61742
1.58977
1.56408
1.54008
1.51752
1.49638
1.47596
1.45778
1.4375
1.42447
1.40038
1.39582
2.07823
1.90335
1.87324
1.79928
1.75904
1.71605
1.68031
1.64738
1.6174
1.58974
1.56403
1.54002
1.51744
1.49627
1.47588
1.45754
1.43761
1.42377
1.40125
1.39406
2.07988
1.90277
1.87377
1.7992
1.75918
1.71606
1.68034
1.64738
1.61739
1.58971
1.56399
1.53996
1.51738
1.49618
1.47581
1.45734
1.4377
1.42316
1.40197
1.39246
2.08129
1.90223
1.87426
1.79912
1.7593
1.71608
1.68036
1.64738
1.61738
1.58968
1.56395
1.53991
1.51731
1.49609
1.47575
1.45717
1.43778
1.42263
1.40261
1.39109
2.08253
1.90173
1.87469
1.79905
1.75941
1.71609
1.68038
1.64738
1.61737
1.58966
1.56391
1.53986
1.51726
1.49602
1.4757
1.45701
1.43785
1.42217
1.40318
1.38986
2.08362
1.90128
1.87506
1.79898
1.7595
1.7161
1.6804
1.64737
1.61735
1.58963
1.56388
1.53982
1.51721
1.49595
1.47565
1.45687
1.43791
1.42176
1.40368
1.38878
2.08462
1.90087
1.87538
1.79892
1.75958
1.7161
1.68041
1.64737
1.61734
1.58961
1.56385
1.53978
1.51716
1.49589
1.4756
1.45675
1.43796
1.42139
1.40413
1.38778
2.08541
1.9005
1.87564
1.79886
1.75964
1.71611
1.68042
1.64736
1.61733
1.58959
1.56382
1.53974
1.51712
1.49584
1.47556
1.45666
1.43801
1.42109
1.40454
1.38696
2.08632
1.90019
1.87585
1.79882
1.75968
1.71611
1.68043
1.64736
1.61732
1.58957
1.5638
1.53971
1.51708
1.49579
1.47552
1.45655
1.43802
1.42077
1.40486
1.38603
2.08657
1.89993
1.87597
1.79878
1.7597
1.71611
1.68043
1.64735
1.61731
1.58956
1.56378
1.53969
1.51706
1.49577
1.47551
1.45652
1.4381
1.42065
1.40519
1.38571
2.08797
1.89972
1.87609
1.79875
1.75971
1.7161
1.68042
1.64734
1.6173
1.58954
1.56376
1.53967
1.51703
1.49572
1.47546
1.4564
1.43802
1.42024
1.40538
1.38429
2.08644
1.89963
1.876
1.79873
1.7597
1.7161
1.68042
1.64734
1.61728
1.58953
1.56374
1.53965
1.51703
1.49573
1.47548
1.45651
1.43814
1.42064
1.40544
1.38568
2.09073
1.89951
1.876
1.79872
1.75968
1.7161
1.68041
1.64733
1.61728
1.58953
1.56375
1.53967
1.51705
1.49576
1.47548
1.45645
1.438
1.41992
1.40564
1.38145
2.08318
1.89966
1.87583
1.79874
1.75968
1.7161
1.6804
1.64732
1.61726
1.58949
1.5637
1.5396
1.51696
1.49568
1.47535
1.4566
1.43777
1.42143
1.4043
1.38865
2.07073
1.9002
1.87497
1.7987
1.75962
1.71609
1.6804
1.64732
1.61726
1.58952
1.56376
1.53972
1.51715
1.49605
1.47573
1.45773
1.43762
1.42544
1.40046
1.40058
2.0905
1.89854
1.87673
1.79857
1.75982
1.71609
1.68041
1.6473
1.61722
1.58944
1.56362
1.5395
1.51682
1.49546
1.47517
1.456
1.43788
1.41923
1.40644
1.38144
2.09149
1.89786
1.87698
1.7984
1.7599
1.71607
1.68042
1.64729
1.61722
1.58944
1.56364
1.53954
1.51692
1.49562
1.47546
1.45622
1.4385
1.41922
1.40735
1.38043
2.09405
1.89708
1.87779
1.79829
1.76004
1.71607
1.68043
1.64727
1.61718
1.58938
1.56355
1.53941
1.51673
1.49533
1.47515
1.45564
1.43833
1.41792
1.40834
1.37791
2.0944
1.8965
1.87815
1.79817
1.76013
1.71606
1.68044
1.64726
1.61717
1.58936
1.56353
1.53939
1.51673
1.49534
1.47521
1.45565
1.43857
1.41778
1.40894
1.37752
2.09542
1.89605
1.87852
1.7981
1.76021
1.71606
1.68045
1.64725
1.61715
1.58933
1.56348
1.53933
1.51665
1.49524
1.47511
1.45547
1.43851
1.41737
1.40924
1.37648
2.0958
1.89568
1.87876
1.79803
1.76026
1.71605
1.68045
1.64724
1.61713
1.5893
1.56346
1.5393
1.51662
1.4952
1.47509
1.45542
1.43857
1.41721
1.40955
1.37604
2.09623
1.89539
1.87893
1.79798
1.7603
1.71605
1.68045
1.64724
1.61712
1.58928
1.56343
1.53927
1.51659
1.49516
1.47505
1.45536
1.43857
1.41704
1.40975
1.37556
2.09649
1.89515
1.87905
1.79795
1.76033
1.71605
1.68046
1.64723
1.61711
1.58927
1.56341
1.53924
1.51656
1.49513
1.47503
1.45532
1.43858
1.41694
1.40991
1.37524
2.09669
1.89496
1.87913
1.79792
1.76035
1.71606
1.68046
1.64723
1.6171
1.58925
1.56339
1.53922
1.51654
1.49511
1.47501
1.4553
1.43859
1.41687
1.41004
1.37498
2.0968
1.89479
1.87919
1.79791
1.76036
1.71606
1.68046
1.64722
1.61709
1.58924
1.56338
1.53921
1.51652
1.49509
1.47499
1.45528
1.43859
1.41682
1.41013
1.37481
2.09687
1.89465
1.87923
1.7979
1.76038
1.71607
1.68046
1.64722
1.61708
1.58923
1.56336
1.53919
1.5165
1.49508
1.47498
1.45527
1.43859
1.4168
1.4102
1.37468
2.09686
1.89452
1.87928
1.79789
1.7604
1.71608
1.68047
1.64722
1.61708
1.58922
1.56335
1.53917
1.51649
1.49506
1.47496
1.45527
1.43858
1.4168
1.41025
1.37463
2.09689
1.89437
1.87935
1.79789
1.76043
1.7161
1.68048
1.64722
1.61707
1.58921
1.56333
1.53915
1.51646
1.49505
1.47494
1.45526
1.43857
1.4168
1.41027
1.37457
2.09672
1.8942
1.87948
1.79788
1.76048
1.71611
1.68049
1.64722
1.61706
1.58919
1.5633
1.53912
1.51643
1.49501
1.47491
1.45525
1.43855
1.41683
1.41029
1.37469
2.09688
1.89394
1.87969
1.79786
1.76056
1.71614
1.68051
1.64723
1.61705
1.58917
1.56328
1.53909
1.5164
1.49499
1.47489
1.45524
1.43854
1.41682
1.41033
1.37452
2.09657
1.89358
1.88008
1.79782
1.76069
1.71616
1.68054
1.64722
1.61703
1.58913
1.56322
1.53901
1.5163
1.49486
1.47475
1.4551
1.43842
1.41676
1.41028
1.37482
2.09658
1.89301
1.88055
1.79772
1.76084
1.71618
1.68057
1.64723
1.61702
1.58911
1.5632
1.539
1.5163
1.49489
1.47484
1.4552
1.43864
1.41687
1.41057
1.37484
2.09762
1.89199
1.88186
1.79761
1.76112
1.71621
1.68062
1.64722
1.61698
1.58902
1.56305
1.53877
1.51598
1.49443
1.47431
1.45438
1.43817
1.41554
1.41116
1.3739
2.09422
1.89104
1.88237
1.79738
1.76133
1.7162
1.68066
1.64722
1.61698
1.58902
1.56307
1.53882
1.51612
1.49465
1.47474
1.45485
1.43903
1.41664
1.41156
1.37726
2.14024
1.88754
1.88622
1.79708
1.7618
1.71621
1.68072
1.6472
1.61692
1.58889
1.56284
1.53843
1.51553
1.49354
1.47373
1.4513
1.43954
1.40331
1.42356
1.33293
2.13489
1.88712
1.88626
1.79694
1.76189
1.7162
1.68074
1.64721
1.61693
1.58891
1.56288
1.53852
1.51568
1.49381
1.47406
1.45197
1.44007
1.40488
1.42393
1.3381
2.1148
1.88798
1.88546
1.79698
1.76187
1.71621
1.68075
1.64721
1.61693
1.5889
1.56287
1.53852
1.5157
1.49394
1.47422
1.45281
1.44001
1.40949
1.41948
1.35748
2.11579
1.88876
1.88492
1.79709
1.76176
1.71622
1.68073
1.64722
1.61695
1.58894
1.56292
1.53858
1.51576
1.49402
1.47414
1.45298
1.43919
1.40996
1.41747
1.35651
2.10869
1.88962
1.88391
1.7972
1.76159
1.71622
1.68071
1.64722
1.61697
1.58897
1.56298
1.53867
1.5159
1.49426
1.4744
1.45368
1.43938
1.41221
1.41609
1.36331
2.10709
1.89052
1.88311
1.79733
1.76141
1.71621
1.68068
1.64723
1.61699
1.58902
1.56304
1.53876
1.51599
1.49439
1.47445
1.45392
1.43904
1.41296
1.4146
1.36482
2.10445
1.89129
1.88231
1.79745
1.76122
1.7162
1.68065
1.64723
1.61701
1.58905
1.5631
1.53884
1.51609
1.49454
1.47458
1.45426
1.439
1.41393
1.41374
1.36734
2.10269
1.89201
1.88162
1.79755
1.76104
1.71618
1.68061
1.64724
1.61703
1.58909
1.56316
1.53892
1.51619
1.49466
1.47467
1.4545
1.43889
1.4146
1.41288
1.36901
2.10109
1.89265
1.88101
1.79765
1.76088
1.71616
1.68058
1.64724
1.61704
1.58913
1.56321
1.53899
1.51627
1.49477
1.47475
1.45471
1.43881
1.4152
1.41218
1.37055
2.09972
1.89324
1.88048
1.79773
1.76074
1.71614
1.68055
1.64724
1.61706
1.58916
1.56326
1.53905
1.51634
1.49487
1.47482
1.45489
1.43874
1.41572
1.41156
1.37189
2.09849
1.89377
1.88001
1.7978
1.76061
1.71613
1.68053
1.64724
1.61707
1.58919
1.5633
1.5391
1.5164
1.49495
1.47488
1.45505
1.43867
1.41619
1.41099
1.37309
2.0974
1.89426
1.87959
1.79787
1.7605
1.71611
1.6805
1.64724
1.61709
1.58922
1.56334
1.53915
1.51646
1.49503
1.47493
1.45519
1.43861
1.4166
1.41048
1.37417
2.09637
1.89472
1.87922
1.79794
1.76041
1.7161
1.68048
1.64724
1.6171
1.58924
1.56337
1.5392
1.51651
1.49509
1.47498
1.45532
1.43856
1.41699
1.41001
1.3752
2.09552
1.89515
1.87889
1.798
1.76032
1.71609
1.68047
1.64724
1.61711
1.58927
1.5634
1.53924
1.51656
1.49515
1.47502
1.45543
1.43849
1.41731
1.40954
1.37606
2.09449
1.89556
1.87859
1.79806
1.76025
1.71609
1.68046
1.64725
1.61712
1.58929
1.56344
1.53928
1.51661
1.49522
1.47507
1.45556
1.43846
1.41769
1.40914
1.37711
2.09402
1.89593
1.87834
1.79812
1.76019
1.71608
1.68045
1.64725
1.61714
1.58931
1.56346
1.53931
1.51664
1.49525
1.47509
1.45563
1.43837
1.41791
1.40874
1.37762
2.09276
1.89632
1.87806
1.79818
1.76013
1.71608
1.68044
1.64726
1.61715
1.58933
1.56349
1.53935
1.51668
1.49532
1.47514
1.45576
1.43834
1.41833
1.40825
1.3789
2.09234
1.89661
1.87789
1.79823
1.76009
1.71608
1.68044
1.64727
1.61716
1.58935
1.56351
1.53938
1.51672
1.49536
1.47518
1.45584
1.43835
1.41853
1.40813
1.37938
2.09203
1.89697
1.87773
1.79829
1.76006
1.71609
1.68044
1.64728
1.61717
1.58936
1.56353
1.5394
1.51673
1.49537
1.47514
1.45585
1.43811
1.41872
1.40742
1.37976
2.08875
1.89729
1.87743
1.79832
1.76003
1.71609
1.68044
1.64728
1.61719
1.58939
1.56357
1.53945
1.51681
1.49548
1.47532
1.45611
1.4384
1.41954
1.4071
1.38299
2.03794
2.04879
2.06779
2.06788
2.07467
2.07664
2.0793
2.08114
2.08277
2.08416
2.08537
2.08643
2.08738
2.08819
2.08898
2.08961
2.09013
2.09107
2.09038
2.09321
1.90824
1.90822
1.90707
1.9061
1.90506
1.90404
1.90318
1.90239
1.9017
1.90109
1.90054
1.90004
1.89959
1.89919
1.89881
1.89847
1.89816
1.89786
1.89766
1.8973
1.86808
1.8686
1.86955
1.87033
1.87145
1.87235
1.8732
1.87393
1.87455
1.87509
1.87554
1.87593
1.87627
1.87656
1.8768
1.87702
1.87717
1.87738
1.87735
1.87767
1.79978
1.79986
1.79977
1.79963
1.79949
1.79934
1.79921
1.7991
1.799
1.79892
1.79884
1.79878
1.79871
1.79865
1.79859
1.79854
1.79849
1.79844
1.79839
1.79836
1.75805
1.75808
1.75817
1.75834
1.75855
1.75877
1.75897
1.75916
1.75932
1.75946
1.75958
1.75968
1.75977
1.75984
1.75989
1.75994
1.75997
1.76
1.76001
1.76004
1.71594
1.71596
1.71596
1.71597
1.71597
1.71599
1.716
1.71602
1.71604
1.71606
1.71608
1.71609
1.7161
1.71611
1.71611
1.71611
1.71611
1.7161
1.7161
1.71609
1.68013
1.68012
1.68014
1.68016
1.6802
1.68023
1.68027
1.68031
1.68034
1.68037
1.68039
1.68041
1.68043
1.68044
1.68045
1.68045
1.68045
1.68045
1.68045
1.68045
1.64738
1.64737
1.64737
1.64737
1.64736
1.64736
1.64735
1.64735
1.64735
1.64735
1.64735
1.64734
1.64734
1.64734
1.64733
1.64732
1.64732
1.64731
1.6473
1.64729
1.6175
1.61748
1.61748
1.61745
1.61743
1.61741
1.61739
1.61737
1.61735
1.61733
1.61732
1.6173
1.61729
1.61728
1.61726
1.61725
1.61724
1.61722
1.61721
1.6172
1.58996
1.58991
1.58991
1.58986
1.58982
1.58977
1.58973
1.58968
1.58965
1.58961
1.58958
1.58956
1.58953
1.58951
1.58949
1.58947
1.58945
1.58943
1.58942
1.58939
1.56438
1.5643
1.5643
1.56423
1.56417
1.56409
1.56403
1.56397
1.56391
1.56386
1.56382
1.56378
1.56374
1.56371
1.56369
1.56366
1.56364
1.56361
1.56361
1.56357
1.54055
1.54042
1.5404
1.54031
1.54021
1.54011
1.54002
1.53994
1.53987
1.5398
1.53974
1.53969
1.53965
1.53961
1.53958
1.53954
1.53952
1.53948
1.53949
1.53943
1.51815
1.51793
1.51791
1.51781
1.51767
1.51755
1.51745
1.51735
1.51726
1.51719
1.51712
1.51707
1.51702
1.51697
1.51693
1.51689
1.51688
1.51682
1.51685
1.51676
1.49745
1.49708
1.49696
1.49681
1.49657
1.49642
1.49627
1.49614
1.49602
1.49593
1.49584
1.49577
1.49571
1.49565
1.49561
1.49555
1.49554
1.49546
1.49551
1.49538
1.47687
1.47641
1.47632
1.47632
1.47608
1.476
1.47587
1.47578
1.47569
1.47562
1.47556
1.4755
1.47545
1.47541
1.47538
1.47533
1.47534
1.47525
1.47533
1.47519
1.46085
1.45985
1.45908
1.45877
1.45809
1.45781
1.45747
1.45722
1.45701
1.45683
1.45667
1.45654
1.45642
1.45632
1.45623
1.45614
1.45611
1.45596
1.45608
1.45574
1.43705
1.43634
1.43667
1.43737
1.43728
1.4376
1.43765
1.43776
1.43784
1.43791
1.43797
1.43802
1.43807
1.43812
1.43816
1.43818
1.43826
1.43822
1.43834
1.43832
1.43556
1.43266
1.42829
1.42745
1.42526
1.4244
1.42341
1.42271
1.4221
1.42158
1.42112
1.42073
1.42037
1.42007
1.41979
1.41953
1.41937
1.41898
1.41926
1.41821
1.39032
1.39075
1.39548
1.3976
1.39917
1.40069
1.40164
1.40253
1.40326
1.40389
1.40445
1.40496
1.4054
1.40581
1.40618
1.40651
1.40682
1.40716
1.40713
1.40803
1.43273
1.42226
1.40393
1.40385
1.39734
1.39545
1.3929
1.39112
1.38953
1.38817
1.38697
1.3859
1.38493
1.38409
1.38326
1.38258
1.382
1.38101
1.38159
1.37878
)
;

boundaryField
{
    up
    {
        type            myTemperature;
        value           nonuniform List<scalar> 
80
(
1.38054
1.38084
1.38035
1.38016
1.38037
1.38053
1.38067
1.3808
1.38092
1.38103
1.38113
1.38123
1.38133
1.38141
1.3815
1.38157
1.38165
1.38171
1.38177
1.38158
1.38151
1.38185
1.38215
1.38228
1.38239
1.38248
1.38256
1.38263
1.3827
1.38276
1.38281
1.38286
1.38291
1.38295
1.383
1.38305
1.38311
1.38318
1.38324
1.38371
1.38461
1.38473
1.38429
1.38404
1.38383
1.38367
1.38353
1.3834
1.38327
1.38316
1.38305
1.38295
1.38285
1.38276
1.38266
1.38257
1.38248
1.3824
1.3823
1.38221
1.37953
1.37948
1.37999
1.38027
1.38051
1.3807
1.38086
1.38101
1.38115
1.38128
1.38139
1.3815
1.38161
1.38171
1.3818
1.38189
1.38197
1.38205
1.38213
1.38219
)
;
    }
    hole
    {
        type            myTemperature;
        value           nonuniform List<scalar> 
80
(
2.09207
2.09182
2.09239
2.0926
2.09239
2.09223
2.09209
2.09196
2.09183
2.0917
2.09156
2.09143
2.09129
2.09114
2.09099
2.09084
2.09069
2.09053
2.09038
2.09049
2.09049
2.09006
2.08968
2.08949
2.08932
2.08916
2.08901
2.08887
2.08873
2.0886
2.08848
2.08836
2.08826
2.08816
2.08808
2.088
2.08795
2.0879
2.08791
2.0875
2.0866
2.08649
2.08696
2.0872
2.08737
2.08751
2.08763
2.08775
2.08787
2.088
2.08813
2.08827
2.08841
2.08855
2.0887
2.08886
2.08902
2.08918
2.08936
2.08953
2.0931
2.09315
2.0926
2.09231
2.0921
2.09192
2.09176
2.0916
2.09145
2.09129
2.09113
2.09097
2.0908
2.09064
2.09047
2.0903
2.09013
2.08997
2.0898
2.08964
)
;
    }
    frontAndBack
    {
        type            empty;
    }
}


// ************************************************************************* //
