/*--------------------------------*- C++ -*----------------------------------*\
| =========                 |                                                 |
| \\      /  F ield         | foam-extend: Open Source CFD                    |
|  \\    /   O peration     | Version:  3.0                                   |
|   \\  /    A nd           | Web:         http://www.extend-project.de       |
|    \\/     M anipulation  |                                                 |
\*---------------------------------------------------------------------------*/
FoamFile
{
    version     2.0;
    format      ascii;
    class       volScalarField;
    location    "10";
    object      Theta;
}
// * * * * * * * * * * * * * * * * * * * * * * * * * * * * * * * * * * * * * //

dimensions      [0 2 -2 0 0 0 0];

internalField   nonuniform List<scalar> 
400
(
-0.612295
-0.774647
-0.382763
-0.110767
-0.326555
0.698122
-0.845548
1.55889
-0.933255
0.787532
-0.555781
-0.721368
-0.402038
-0.133631
-0.436016
0.766008
-0.977011
1.814
-0.501507
0.741186
-0.464364
-0.570866
-0.259923
0.0291099
-0.28783
0.850491
-0.913531
1.6159
-0.70249
0.334012
-0.280493
-0.419123
-0.178888
0.0709065
-0.297575
0.862708
-0.946968
1.69636
-0.657544
0.385605
-0.0256071
-0.169016
0.0415328
0.287995
-0.0974699
1.04464
-0.795396
1.80025
-0.57705
0.448454
0.265641
0.0927404
0.232831
0.434521
0.0037454
1.12083
-0.74197
1.85787
-0.528597
0.504249
0.608594
0.414635
0.497341
0.67023
0.208251
1.30064
-0.588516
1.98555
-0.425914
0.583934
0.982113
0.758713
0.768405
0.897799
0.392424
1.45312
-0.462414
2.09302
-0.335048
0.663343
1.38301
1.13063
1.06709
1.15498
0.6078
1.63666
-0.307535
2.22354
-0.227411
0.751762
1.79895
1.51555
1.37463
1.4177
0.825624
1.8206
-0.153116
2.35389
-0.119005
0.842347
2.22055
1.9061
1.68735
1.68565
1.04862
2.00954
0.00581685
2.48793
-0.00792262
0.934538
2.63707
2.29182
1.99616
1.95012
1.26856
2.19577
0.162392
2.61999
0.101589
1.02554
3.03835
2.66349
2.2938
2.2051
1.48069
2.37544
0.313468
2.7474
0.207201
1.11325
3.41439
3.01179
2.57274
2.4441
1.67951
2.54384
0.455066
2.86681
0.306182
1.19544
3.75592
3.32815
2.82612
2.6612
1.86013
2.69682
0.583702
2.97529
0.396095
1.2701
4.05448
3.60471
3.04762
2.851
2.01803
2.83057
0.696165
3.07013
0.474701
1.33537
4.30268
3.83463
3.23177
3.00879
2.14931
2.94176
0.789662
3.14897
0.540046
1.38963
4.49438
4.01221
3.37399
3.13066
2.25069
3.02764
0.861867
3.20985
0.590508
1.43153
4.62484
4.13304
3.47076
3.21358
2.31967
3.08606
0.910987
3.25127
0.624833
1.46003
4.69082
4.19415
3.51968
3.25549
2.35453
3.11558
0.9358
3.27219
0.642167
1.47442
4.69069
4.19399
3.51953
3.25535
2.35439
3.11545
0.935685
3.27208
0.642076
1.47434
4.62443
4.13257
3.4703
3.21315
2.31925
3.08568
0.910641
3.25096
0.624559
1.45979
4.49369
4.0114
3.3732
3.12993
2.24998
3.027
0.861283
3.20933
0.590046
1.43113
4.30168
3.83346
3.23063
3.00774
2.14829
2.94085
0.788828
3.14822
0.539389
1.38907
4.05313
3.60315
3.04611
2.8496
2.01668
2.82936
0.695065
3.06914
0.473838
1.33464
3.75419
3.32615
2.8242
2.65942
1.85841
2.69529
0.582311
2.97405
0.395015
1.26919
3.41224
3.00931
2.57036
2.44189
1.67739
2.54194
0.453357
2.8653
0.304869
1.19434
3.03571
2.66045
2.2909
2.2024
1.4781
2.37313
0.311395
2.74558
0.205632
1.11194
2.6339
2.28819
1.99269
1.94686
1.26547
2.19302
0.159939
2.61785
0.0997628
1.02403
2.21678
1.90179
1.68317
1.68163
1.04479
2.0061
0.00275353
2.48529
-0.0101113
0.932795
1.7946
1.51064
1.36991
1.41323
0.821493
1.81696
-0.156282
2.35118
-0.121273
0.84049
1.37785
1.12465
1.06081
1.14843
0.601225
1.63041
-0.313133
2.2189
-0.230926
0.749417
0.97678
0.753119
0.763355
0.89358
0.389239
1.45087
-0.464067
2.09161
-0.33641
0.661812
0.601403
0.405494
0.485337
0.655564
0.191452
1.28337
-0.604842
1.97275
-0.43496
0.579896
0.260767
0.0897887
0.232843
0.439187
0.0118155
1.13127
-0.732088
1.8652
-0.523711
0.505819
-0.0363418
-0.185333
0.0135846
0.251038
-0.144593
0.997363
-0.844847
1.76881
-0.603491
0.440349
-0.282903
-0.414025
-0.166525
0.0982061
-0.266015
0.895934
-0.921668
1.69938
-0.655878
0.390725
-0.473952
-0.593151
-0.312454
-0.0359042
-0.384913
0.781724
-1.02455
1.61131
-0.733903
0.339308
-0.599382
-0.706656
-0.380167
-0.0818521
-0.383263
0.779262
-0.959275
1.60569
-0.691159
0.33741
-0.673405
-0.78269
-0.46787
-0.190924
-0.513205
0.652662
-1.13439
1.54928
-0.822784
0.280785
)
;

boundaryField
{
    up
    {
        type            myTemperature;
        value           nonuniform List<scalar> 
40
(
0.786197
1.36841
0.833449
0.897497
0.952131
1.01092
1.07975
1.15331
1.23237
1.31417
1.39708
1.47898
1.55789
1.63183
1.699
1.75771
1.80652
1.84421
1.86984
1.88278
1.88271
1.86962
1.84384
1.80599
1.75703
1.69815
1.63081
1.55669
1.47761
1.39553
1.31249
1.23055
1.15174
1.078
1.01116
0.952623
0.904716
0.865403
0.843619
0.811396
)
;
    }
    hole
    {
        type            myTemperature;
        value           nonuniform List<scalar> 
40
(
-0.615126
-0.467479
-0.410876
-0.211357
0.0439786
0.351668
0.704378
1.09307
1.50828
1.93974
2.37678
2.80865
3.22464
3.61449
3.96854
4.27803
4.53533
4.73406
4.8693
4.93771
4.93758
4.86892
4.73341
4.53439
4.27678
3.96692
3.61247
3.22217
2.80567
2.37326
1.93564
1.5036
1.08783
0.698616
0.345577
0.037452
-0.218166
-0.414924
-0.547616
-0.61554
)
;
    }
    frontAndBack
    {
        type            empty;
    }
}


// ************************************************************************* //
