/*--------------------------------*- C++ -*----------------------------------*\
| =========                 |                                                 |
| \\      /  F ield         | foam-extend: Open Source CFD                    |
|  \\    /   O peration     | Version:  3.0                                   |
|   \\  /    A nd           | Web:         http://www.extend-project.de       |
|    \\/     M anipulation  |                                                 |
\*---------------------------------------------------------------------------*/
FoamFile
{
    version     2.0;
    format      ascii;
    class       volVectorField;
    location    "25";
    object      u;
}
// * * * * * * * * * * * * * * * * * * * * * * * * * * * * * * * * * * * * * //

dimensions      [0 0 0 0 0 0 0];

internalField   nonuniform List<vector> 
480
(
(0.282459 -0.102142 3.50985e-19)
(0.543594 -0.0685441 1.76131e-18)
(0.723008 -0.0478246 -3.60081e-18)
(0.817148 -0.0337397 3.97574e-18)
(0.897259 -0.0240748 2.54973e-18)
(0.932567 -0.0170945 -2.12581e-18)
(0.973817 -0.01143 -1.29129e-17)
(0.981826 -0.00726028 9.9316e-18)
(1.00431 -0.00289336 -8.10582e-18)
(0.995304 0.000418102 -8.43365e-18)
(0.335403 -0.299836 1.942e-18)
(0.579172 -0.201446 2.57405e-18)
(0.747879 -0.140797 -1.90162e-17)
(0.834751 -0.099607 -1.63718e-17)
(0.909884 -0.0713948 1.39585e-17)
(0.941608 -0.0510717 3.94362e-18)
(0.979958 -0.0346318 6.45301e-18)
(0.985849 -0.0226015 -2.04102e-17)
(1.00613 -0.0100852 2.78031e-17)
(0.995369 -0.00017509 4.82848e-18)
(0.437711 -0.477087 -2.12175e-18)
(0.647932 -0.32061 2.85601e-18)
(0.795965 -0.22416 1.22115e-17)
(0.8688 -0.158669 1.13858e-17)
(0.934325 -0.113828 2.29815e-17)
(0.959133 -0.0815437 -7.04702e-18)
(0.991895 -0.0554436 3.12844e-18)
(0.993702 -0.0363679 1.00779e-18)
(1.00974 -0.0165475 2.86422e-17)
(0.995581 -0.00071835 -5.21884e-17)
(0.582403 -0.621817 1.14526e-18)
(0.745189 -0.417912 3.44639e-17)
(0.863984 -0.292235 1.23409e-17)
(0.916973 -0.206903 -6.38587e-18)
(0.968912 -0.148486 -8.03636e-18)
(0.983947 -0.106435 -1.53703e-18)
(1.00881 -0.0724501 -3.6167e-19)
(1.00485 -0.0476215 -8.96398e-18)
(1.0149 -0.0218419 -4.08438e-17)
(0.995922 -0.00117232 6.49955e-17)
(0.759623 -0.72416 -8.26483e-18)
(0.864312 -0.486725 6.71352e-18)
(0.947304 -0.340381 1.18821e-17)
(0.975986 -0.241022 1.30369e-17)
(1.01129 -0.173006 -1.72663e-17)
(1.01435 -0.124051 -3.52189e-18)
(1.02954 -0.0844916 -1.23758e-17)
(1.01852 -0.055598 -1.53728e-17)
(1.02125 -0.0256079 4.76791e-17)
(0.996358 -0.00150904 -6.84363e-17)
(0.957287 -0.777147 1.11636e-17)
(0.997184 -0.522358 -1.75064e-17)
(1.04024 -0.365321 -2.00497e-17)
(1.04182 -0.258701 -2.05234e-17)
(1.05857 -0.185721 -4.0306e-18)
(1.04828 -0.133192 -5.60121e-18)
(1.05268 -0.0907516 5.52878e-17)
(1.03379 -0.0597542 -2.72981e-17)
(1.02834 -0.0275936 3.34659e-17)
(0.996857 -0.0017061 -1.01945e-17)
(1.16193 -0.777164 1.12525e-17)
(1.13475 -0.522385 -1.18991e-17)
(1.13646 -0.365353 -2.21817e-17)
(1.10998 -0.258738 -2.90405e-17)
(1.10752 -0.185761 -1.87869e-19)
(1.08341 -0.133237 1.33218e-17)
(1.07665 -0.0908026 1.21558e-17)
(1.0496 -0.0598116 6.00393e-19)
(1.0357 -0.0276645 2.95362e-17)
(0.997376 -0.00175637 -2.92812e-18)
(1.35959 -0.724214 -5.09958e-18)
(1.26763 -0.486804 -8.961e-19)
(1.22941 -0.340479 5.34702e-18)
(1.17582 -0.241129 7.89168e-18)
(1.15481 -0.173129 1.25491e-17)
(1.11736 -0.124184 3.32342e-18)
(1.09981 -0.0846466 -6.5805e-18)
(1.06489 -0.0557671 6.76664e-18)
(1.04282 -0.0258226 -2.83897e-17)
(0.997875 -0.00165925 4.79962e-17)
(1.53681 -0.621903 1.82012e-18)
(1.38676 -0.418043 9.29733e-18)
(1.31276 -0.292392 1.41194e-17)
(1.23486 -0.207078 6.38426e-18)
(1.19722 -0.148684 -1.01993e-17)
(1.14779 -0.106653 6.8518e-19)
(1.12058 -0.0727021 -4.08593e-19)
(1.07859 -0.0479025 3.4669e-18)
(1.0492 -0.0221949 -3.10398e-18)
(0.998315 -0.00143037 1.07245e-17)
(1.68151 -0.477211 1.62068e-18)
(1.48404 -0.320786 2.44789e-19)
(1.38081 -0.224373 1.10368e-17)
(1.28307 -0.158904 8.16596e-18)
(1.23185 -0.114097 5.76032e-18)
(1.17265 -0.0818396 -5.79545e-18)
(1.13754 -0.0557897 1.02981e-18)
(1.08978 -0.036755 -2.12649e-18)
(1.05441 -0.0170369 -1.26505e-17)
(0.998665 -0.00108915 2.673e-18)
(1.78383 -0.299994 9.61303e-19)
(1.55283 -0.201665 -7.37439e-19)
(1.42893 -0.141054 3.1363e-18)
(1.31717 -0.0998945 3.07501e-19)
(1.25635 -0.0717221 5.28689e-20)
(1.19023 -0.0514389 2.41699e-18)
(1.14953 -0.0350611 2.86691e-18)
(1.0977 -0.0230917 1.59595e-18)
(1.0581 -0.0107018 -5.70871e-18)
(0.998898 -0.000668959 3.02108e-18)
(1.83679 -0.102336 6.06392e-19)
(1.58844 -0.0687962 -8.20872e-19)
(1.45385 -0.0481205 2.33049e-18)
(1.33482 -0.0340685 1.15167e-18)
(1.26903 -0.0244537 -6.60293e-19)
(1.19934 -0.0175228 1.37666e-18)
(1.15575 -0.0119364 1.57304e-18)
(1.1018 -0.00784498 1.13488e-18)
(1.06001 -0.00363067 -4.01725e-18)
(0.999 -0.000201624 5.57485e-19)
(1.83678 0.102297 2.29936e-19)
(1.58844 0.0687606 -1.14605e-18)
(1.45386 0.0480987 2.51273e-18)
(1.33484 0.0340824 1.7897e-18)
(1.26905 0.0244888 -1.68299e-18)
(1.19935 0.0175912 1.32081e-19)
(1.15576 0.0120091 7.45473e-19)
(1.1018 0.00793832 7.01644e-19)
(1.06001 0.00369304 -4.02851e-18)
(0.998964 0.000271717 6.08004e-19)
(1.7838 0.299954 -2.32617e-20)
(1.55284 0.201634 -2.01222e-18)
(1.42896 0.14104 2.80752e-18)
(1.3172 0.099915 3.46367e-18)
(1.25639 0.0717632 -4.17237e-18)
(1.19026 0.0515104 -8.5413e-19)
(1.14956 0.0351357 -2.12201e-18)
(1.0977 0.0231815 4.28194e-18)
(1.0581 0.0107608 -8.22773e-18)
(0.998796 0.00071742 1.95768e-18)
(1.68148 0.477168 1.17136e-18)
(1.48406 0.320762 -3.40883e-18)
(1.38085 0.224371 -6.63965e-18)
(1.28313 0.158937 -3.25121e-18)
(1.23191 0.114149 -5.55692e-18)
(1.1727 0.0819164 3.02074e-18)
(1.13758 0.0558675 -8.93913e-19)
(1.08979 0.0368381 -5.60847e-19)
(1.05441 0.0170896 -5.23718e-18)
(0.998509 0.00109785 1.66809e-17)
(1.53677 0.621856 7.91567e-19)
(1.38678 0.41803 -1.52963e-17)
(1.31281 0.292407 -5.67753e-18)
(1.23493 0.207127 5.08359e-18)
(1.1973 0.148751 8.2686e-18)
(1.14786 0.106737 7.38768e-19)
(1.12063 0.0727838 -1.24481e-18)
(1.07861 0.0479766 4.79892e-18)
(1.0492 0.0222393 1.81115e-17)
(0.998126 0.00138767 -2.82584e-17)
(1.35954 0.724164 6.18428e-18)
(1.26764 0.486804 2.27927e-18)
(1.22947 0.340513 -4.13286e-18)
(1.1759 0.241194 -5.69554e-18)
(1.1549 0.173211 1.14607e-17)
(1.11743 0.124274 1.58434e-19)
(1.09987 0.0847317 -4.93458e-19)
(1.06491 0.0558308 8.31869e-18)
(1.04282 0.0258579 -3.7451e-17)
(0.997677 0.00156196 4.81958e-17)
(1.16187 0.777115 -1.14744e-17)
(1.13475 0.522398 1.77259e-17)
(1.13651 0.365405 1.93588e-17)
(1.11005 0.258818 2.01502e-17)
(1.10761 0.185856 -1.22084e-18)
(1.08349 0.133333 -5.70275e-20)
(1.07672 0.0908899 -5.07473e-17)
(1.04964 0.0598648 1.96389e-17)
(1.03571 0.027691 -2.43317e-17)
(0.997192 0.0016105 -2.57583e-18)
(0.957234 0.777102 -1.43755e-17)
(0.997185 0.522382 8.63211e-18)
(1.04028 0.365387 1.62488e-17)
(1.04188 0.258792 2.27549e-17)
(1.05865 0.185824 -6.30803e-18)
(1.04836 0.133289 -1.6312e-17)
(1.05276 0.0908384 -3.01438e-18)
(1.03383 0.0597978 -2.73911e-18)
(1.02836 0.0276126 -1.97244e-17)
(0.996709 0.00152608 -7.78553e-18)
(0.759574 0.724125 4.5368e-18)
(0.864303 0.486759 -5.37354e-18)
(0.947325 0.340456 -2.06287e-17)
(0.976037 0.241118 -2.49775e-17)
(1.01136 0.173112 -1.73055e-17)
(1.01443 0.124146 5.18826e-19)
(1.02962 0.0845748 1.5193e-17)
(1.01858 0.0556336 -6.5986e-18)
(1.02128 0.0256218 5.0193e-17)
(0.99626 0.00131571 -6.96993e-17)
(0.582359 0.621795 -6.3396e-18)
(0.74517 0.417954 -1.87419e-17)
(0.863988 0.292313 -3.07362e-17)
(0.917008 0.206997 -1.52115e-17)
(0.968965 0.148587 2.55683e-17)
(0.984017 0.106522 3.86532e-18)
(1.00888 0.0725259 -5.6502e-19)
(1.00492 0.0476512 -2.34412e-18)
(1.01494 0.0218534 5.22912e-18)
(0.995878 0.000990075 -8.89348e-18)
(0.43767 0.477084 -2.11831e-18)
(0.647902 0.320656 7.06528e-18)
(0.795952 0.224234 -2.02025e-17)
(0.868818 0.158754 -1.50151e-17)
(0.934364 0.113916 -1.41377e-17)
(0.959197 0.0816189 1.51611e-17)
(0.991962 0.0555087 -6.70793e-18)
(0.993778 0.0363939 5.4419e-18)
(1.00979 0.0165594 3.61123e-17)
(0.995589 0.000571156 -6.82928e-18)
(0.335363 0.299854 3.5678e-21)
(0.579133 0.201494 8.34349e-18)
(0.747851 0.14086 3.77086e-18)
(0.834757 0.0996748 1.223e-17)
(0.90991 0.0714636 7.78205e-18)
(0.941666 0.0511302 -1.39637e-17)
(0.980022 0.0346827 -1.09497e-17)
(0.98593 0.0226256 -9.25568e-18)
(1.00618 0.0100998 9.36882e-18)
(0.995417 8.37216e-05 -1.27467e-17)
(0.282416 0.102183 -9.45725e-19)
(0.543547 0.0685902 2.99477e-18)
(0.722971 0.0478733 -3.59802e-19)
(0.817145 0.0337866 -4.70383e-18)
(0.897279 0.0241203 -2.47187e-20)
(0.932621 0.0171341 1.65285e-20)
(0.973878 0.0114653 6.5099e-18)
(0.98191 0.00728388 -2.54237e-18)
(1.00437 0.00291199 1.19417e-17)
(0.995373 -0.000440768 4.58645e-18)
(0.282433 -0.102459 -3.51353e-19)
(0.543575 -0.0689988 -1.76115e-18)
(0.723005 -0.0483901 3.60269e-18)
(0.817189 -0.0344209 -3.97631e-18)
(0.89733 -0.0248865 -2.55166e-18)
(0.932683 -0.0180534 2.12658e-18)
(0.97395 -0.0125614 1.29202e-17)
(0.981997 -0.00858729 -9.93682e-18)
(1.00447 -0.0045148 8.10679e-18)
(0.995467 -0.000969776 8.44225e-18)
(0.335419 -0.300126 -1.94306e-18)
(0.579214 -0.201896 -2.57486e-18)
(0.747956 -0.141368 1.9023e-17)
(0.834884 -0.100299 1.63788e-17)
(0.910065 -0.0722166 -1.39667e-17)
(0.941849 -0.0520341 -3.94592e-18)
(0.980241 -0.0357599 -6.45932e-18)
(0.986188 -0.0239068 2.04274e-17)
(1.0065 -0.0116749 -2.78315e-17)
(0.995694 -0.00146954 -4.83045e-18)
(0.437759 -0.477347 2.12102e-18)
(0.648038 -0.321044 -2.85594e-18)
(0.796122 -0.224726 -1.22136e-17)
(0.86903 -0.159356 -1.13884e-17)
(0.934616 -0.114644 -2.299e-17)
(0.959501 -0.0824913 7.05141e-18)
(0.992321 -0.0565494 -3.13098e-18)
(0.994204 -0.0376303 -1.00646e-18)
(1.01031 -0.0180807 -2.86583e-17)
(0.996046 -0.00190719 5.22212e-17)
(0.582485 -0.622045 -1.14582e-18)
(0.745356 -0.418323 -3.44701e-17)
(0.864226 -0.292778 -1.23408e-17)
(0.917298 -0.207569 6.39116e-18)
(0.969315 -0.149276 8.03907e-18)
(0.984434 -0.107349 1.5387e-18)
(1.00937 -0.0735109 3.59722e-19)
(1.0055 -0.0488226 8.96736e-18)
(1.01566 -0.0232935 4.0864e-17)
(0.996505 -0.0022542 -6.50513e-17)
(0.759732 -0.724359 8.2657e-18)
(0.86454 -0.487102 -6.71371e-18)
(0.947623 -0.34089 -1.18823e-17)
(0.976403 -0.241648 -1.30382e-17)
(1.0118 -0.173752 1.72677e-17)
(1.01496 -0.124912 3.52229e-18)
(1.03024 -0.085489 1.23717e-17)
(1.01931 -0.0567184 1.53742e-17)
(1.02218 -0.0269579 -4.77126e-17)
(0.997047 -0.00248467 6.84619e-17)
(0.957426 -0.777315 -1.11639e-17)
(0.997467 -0.522694 1.75099e-17)
(1.04064 -0.365778 2.00514e-17)
(1.04232 -0.259272 2.05254e-17)
(1.05917 -0.186401 4.02929e-18)
(1.04898 -0.133982 5.60247e-18)
(1.0535 -0.0916636 -5.53109e-17)
(1.03471 -0.0607792 2.73054e-17)
(1.02943 -0.0288194 -3.34777e-17)
(0.99764 -0.00258208 1.01964e-17)
(1.16209 -0.777304 -1.12527e-17)
(1.13508 -0.522671 1.19006e-17)
(1.13692 -0.365749 2.21816e-17)
(1.11055 -0.259238 2.90373e-17)
(1.1082 -0.186363 1.86135e-19)
(1.08421 -0.133939 -1.33176e-17)
(1.07757 -0.0916145 -1.2155e-17)
(1.05063 -0.0607236 -5.93894e-19)
(1.03693 -0.0287504 -2.95246e-17)
(0.998253 -0.00253368 2.93806e-18)
(1.35979 -0.724323 5.09961e-18)
(1.268 -0.487035 8.94952e-19)
(1.22992 -0.340801 -5.34751e-18)
(1.17645 -0.241548 -7.89177e-18)
(1.15556 -0.173636 -1.25515e-17)
(1.11822 -0.124785 -3.32043e-18)
(1.10081 -0.0853397 6.58173e-18)
(1.06601 -0.0565547 -6.76013e-18)
(1.04417 -0.0267488 2.83907e-17)
(0.998848 -0.00233983 -4.79747e-17)
(1.53704 -0.621986 -1.81958e-18)
(1.38717 -0.418212 -9.2993e-18)
(1.3133 -0.292636 -1.41161e-17)
(1.23553 -0.207404 -6.38108e-18)
(1.19801 -0.149088 1.01903e-17)
(1.14871 -0.10714 -6.85575e-19)
(1.12164 -0.0732676 4.09417e-19)
(1.0798 -0.04855 -3.46212e-18)
(1.05065 -0.0229494 3.10742e-18)
(0.999389 -0.00200463 -1.07138e-17)
(1.68177 -0.477259 -1.62137e-18)
(1.48448 -0.320894 -2.47441e-19)
(1.38138 -0.224532 -1.10334e-17)
(1.28376 -0.159136 -8.16226e-18)
(1.23267 -0.114389 -5.75877e-18)
(1.1736 -0.0822072 5.789e-18)
(1.13865 -0.0562146 -1.03013e-18)
(1.09105 -0.037254 2.12452e-18)
(1.05595 -0.0176029 1.26302e-17)
(0.999841 -0.00154701 -2.67302e-18)
(1.78411 -0.30001 -9.62867e-19)
(1.55328 -0.201708 7.34051e-19)
(1.42951 -0.141134 -3.13609e-18)
(1.31787 -0.100028 -3.10119e-19)
(1.25717 -0.0719046 -5.81896e-20)
(1.1912 -0.0516799 -2.41153e-18)
(1.15067 -0.0353434 -2.86115e-18)
(1.09901 -0.023429 -1.5879e-18)
(1.05969 -0.0110718 5.69621e-18)
(1.00018 -0.000987959 -3.01683e-18)
(1.83709 -0.10231 -6.0864e-19)
(1.58889 -0.0687783 8.19014e-19)
(1.45442 -0.0481183 -2.33103e-18)
(1.33551 -0.0341105 -1.15101e-18)
(1.26985 -0.024524 6.58426e-19)
(1.20031 -0.0176393 -1.37707e-18)
(1.15689 -0.0120691 -1.57719e-18)
(1.10313 -0.00801601 -1.13255e-18)
(1.06163 -0.00379197 4.00515e-18)
(1.00037 -0.000362348 -5.66133e-19)
(1.83711 0.102363 -2.32932e-19)
(1.5889 0.0688404 1.1446e-18)
(1.45441 0.0481723 -2.51463e-18)
(1.3355 0.0341307 -1.78996e-18)
(1.26984 0.0245218 1.68166e-18)
(1.2003 0.0176013 -1.34203e-19)
(1.15688 0.0120218 -7.55373e-19)
(1.10313 0.00794258 -6.96594e-19)
(1.06163 0.00374207 4.01723e-18)
(1.00041 0.000296475 -6.22893e-19)
(1.78415 0.300067 1.96147e-20)
(1.55328 0.201768 2.01002e-18)
(1.42949 0.141182 -2.81152e-18)
(1.31784 0.100043 -3.46944e-18)
(1.25714 0.0718974 4.17425e-18)
(1.19117 0.0516398 8.55725e-19)
(1.15065 0.0352953 2.12356e-18)
(1.09901 0.0233601 -4.29649e-18)
(1.0597 0.0110263 8.24259e-18)
(1.00028 0.000944931 -1.9548e-18)
(1.68183 0.477326 -1.1751e-18)
(1.48448 0.32095 3.40792e-18)
(1.38135 0.224571 6.64115e-18)
(1.28372 0.159142 3.25347e-18)
(1.23262 0.114373 5.56272e-18)
(1.17356 0.0821635 -3.02399e-18)
(1.13861 0.0561652 8.9403e-19)
(1.09105 0.0371938 5.58755e-19)
(1.05596 0.0175657 5.26178e-18)
(1.00001 0.00154601 -1.67237e-17)
(1.53712 0.622064 -7.93712e-19)
(1.38718 0.418264 1.52972e-17)
(1.31327 0.292662 5.67925e-18)
(1.23547 0.207397 -5.08421e-18)
(1.19795 0.149061 -8.27394e-18)
(1.14866 0.107092 -7.41145e-19)
(1.1216 0.0732171 1.24104e-18)
(1.07979 0.0485015 -4.80649e-18)
(1.05067 0.0229233 -1.81329e-17)
(0.99959 0.00205804 2.82803e-17)
(1.35988 0.724415 -6.18586e-18)
(1.26802 0.487081 -2.27992e-18)
(1.22989 0.340814 4.13209e-18)
(1.17639 0.241528 5.69501e-18)
(1.15549 0.173597 -1.147e-17)
(1.11816 0.124734 -1.63174e-19)
(1.10075 0.085289 4.83391e-19)
(1.066 0.0565198 -8.32941e-18)
(1.04418 0.0267353 3.74717e-17)
(0.999059 0.00245122 -4.82313e-17)
(1.16219 0.777407 1.14728e-17)
(1.1351 0.522712 -1.77255e-17)
(1.1369 0.36575 -1.93619e-17)
(1.11049 0.259207 -2.01533e-17)
(1.10813 0.186315 1.21607e-18)
(1.08414 0.133886 5.53901e-20)
(1.07751 0.0915653 5.07439e-17)
(1.05062 0.0607028 -1.96418e-17)
(1.03693 0.0287496 2.43462e-17)
(0.998451 0.00269704 2.56612e-18)
(0.957525 0.777425 1.43733e-17)
(0.997497 0.522732 -8.63121e-18)
(1.04062 0.365771 -1.6249e-17)
(1.04227 0.259235 -2.27577e-17)
(1.05911 0.186349 6.30391e-18)
(1.04892 0.133932 1.63119e-17)
(1.05344 0.0916187 3.01489e-18)
(1.03468 0.0607716 2.73607e-18)
(1.02943 0.0288298 1.97343e-17)
(0.997801 0.0027827 7.77367e-18)
(0.759824 0.724472 -4.53772e-18)
(0.864579 0.487138 5.37182e-18)
(0.947623 0.34088 2.06247e-17)
(0.976369 0.241611 2.49702e-17)
(1.01174 0.173702 1.72976e-17)
(1.01489 0.124868 -5.17128e-19)
(1.03018 0.0854512 -1.51872e-17)
(1.01927 0.056722 6.59395e-18)
(1.02216 0.0269769 -5.01619e-17)
(0.997157 0.00270115 6.96569e-17)
(0.582567 0.622154 6.33868e-18)
(0.745401 0.41836 1.87362e-17)
(0.864241 0.292771 3.07312e-17)
(0.917277 0.207538 1.5208e-17)
(0.969275 0.149235 -2.5562e-17)
(0.984373 0.107316 -3.86173e-18)
(1.00931 0.0734835 5.64497e-19)
(1.00544 0.0488349 2.34156e-18)
(1.01563 0.023318 -5.22135e-18)
(0.996557 0.00246176 8.87952e-18)
(0.437828 0.477447 2.11794e-18)
(0.648088 0.321082 -7.06505e-18)
(0.79615 0.224728 2.01984e-17)
(0.869022 0.159339 1.50104e-17)
(0.934587 0.114619 1.41323e-17)
(0.959445 0.0824721 -1.51518e-17)
(0.992261 0.056535 6.70344e-18)
(0.994136 0.0376485 -5.44025e-18)
(1.01027 0.0181074 -3.60808e-17)
(0.996045 0.00208109 6.82152e-18)
(0.335477 0.300209 -3.7603e-21)
(0.579265 0.201937 -8.34249e-18)
(0.747992 0.141384 -3.76779e-18)
(0.834884 0.100301 -1.22252e-17)
(0.910044 0.0722122 -7.78049e-18)
(0.941796 0.052033 1.39574e-17)
(0.980182 0.0357612 1.09419e-17)
(0.986111 0.0239284 9.24627e-18)
(1.00645 0.0117008 -9.36613e-18)
(0.99565 0.00158882 1.2735e-17)
(0.282482 0.102523 9.45435e-19)
(0.543627 0.069043 -2.99363e-18)
(0.723045 0.0484222 3.60886e-19)
(0.817194 0.0344447 4.70297e-18)
(0.897312 0.0249063 2.44472e-20)
(0.932631 0.0180721 -1.57867e-20)
(0.973891 0.0125792 -6.50518e-18)
(0.981915 0.0086103 2.54091e-18)
(1.00442 0.00453761 -1.19334e-17)
(0.9954 0.00102118 -4.57815e-18)
)
;

boundaryField
{
    out
    {
        type            fixedValue;
        value           uniform (1 0 0);
    }
    in
    {
        type            myVelocity;
    }
    frontAndBack
    {
        type            empty;
    }
}


// ************************************************************************* //
