/*--------------------------------*- C++ -*----------------------------------*\
| =========                 |                                                 |
| \\      /  F ield         | foam-extend: Open Source CFD                    |
|  \\    /   O peration     | Version:  3.0                                   |
|   \\  /    A nd           | Web:         http://www.extend-project.de       |
|    \\/     M anipulation  |                                                 |
\*---------------------------------------------------------------------------*/
FoamFile
{
    version     2.0;
    format      ascii;
    class       volSymmTensorField;
    location    "1";
    object      sigma;
}
// * * * * * * * * * * * * * * * * * * * * * * * * * * * * * * * * * * * * * //

dimensions      [0 0 0 0 0 0 0];

internalField   nonuniform List<symmTensor> 
672
(
(-0.1656663599 -0.01067525923 -1.098719516e-19 0.1637667996 -2.346120849e-20 0.001899560319)
(-0.1563345812 -0.01269203575 -2.510229555e-19 0.1520029872 -1.203307687e-20 0.004331594067)
(-0.1412325463 -0.01294512777 -1.39000966e-19 0.1354239849 1.22368315e-21 0.005808561412)
(-0.1248519334 -0.01246856669 -5.193395361e-21 0.1184095687 2.27976802e-20 0.006442364707)
(-0.1087026558 -0.01165959852 -1.9499859e-19 0.1024815925 1.027418395e-20 0.006221063329)
(-0.09351700332 -0.01068693361 -1.552766274e-19 0.08810085282 -6.145561979e-20 0.005416150502)
(-0.07943133322 -0.009555247716 -2.668089909e-19 0.07529588561 -6.62265117e-20 0.004135447605)
(-0.06647429978 -0.008264236837 -3.735978382e-19 0.0641510724 -2.436896541e-19 0.00232322738)
(-0.05454827196 -0.006711882463 -4.79097198e-19 0.05465576567 -1.899822503e-19 -0.0001074937105)
(-0.0449486484 -0.004996916995 -3.165661043e-19 0.04713141415 1.060454957e-20 -0.002182765751)
(-0.04017850401 -0.00315801213 -1.054196289e-19 0.0416688154 7.944891206e-20 -0.001490311398)
(-0.03792593228 -0.001372147932 -1.003543848e-19 0.03879683757 -1.037765409e-19 -0.0008709052954)
(-0.1628091109 -0.03124442038 -8.564732761e-20 0.1609256862 -4.786591261e-21 0.001883424737)
(-0.1515529698 -0.03631875593 -2.295948534e-19 0.1472600669 3.872654522e-20 0.004292902945)
(-0.1358467304 -0.03654847097 -1.576984106e-19 0.1300881014 1.214479177e-19 0.005758628976)
(-0.1194208156 -0.03490638382 4.349495923e-20 0.113035991 -6.41299783e-20 0.00638482464)
(-0.103464508 -0.03256005096 -1.553826333e-19 0.0973008231 4.026182432e-20 0.006163684871)
(-0.08854912318 -0.03005328453 -1.263178094e-19 0.08318915771 -1.696633661e-19 0.005359965464)
(-0.07475336078 -0.02753230217 -3.030859483e-19 0.07067166586 -2.699602475e-19 0.004081694918)
(-0.06205094617 -0.02506900655 -7.016127433e-19 0.05977226816 -4.05327961e-19 0.002278678011)
(-0.05033838612 -0.02256774681 -4.447290773e-19 0.05047781246 -2.884526189e-20 -0.0001394263433)
(-0.04079390585 -0.02022236801 -1.200711345e-19 0.04298273516 -5.6669688e-20 -0.002188829314)
(-0.03589861116 -0.01824241858 -2.355630928e-19 0.03739991326 -8.914055616e-20 -0.001501302094)
(-0.03332142344 -0.01621838477 -2.63924547e-19 0.0341994926 -9.126472145e-20 -0.0008780691593)
(-0.15714005 -0.05113925336 -9.48361632e-21 0.1552694572 -7.722024942e-20 0.001870592782)
(-0.1423805894 -0.05817571127 -1.532559011e-19 0.1381110079 8.221558338e-20 0.004269581489)
(-0.1256111805 -0.05799131816 -1.939438689e-19 0.1198735316 1.944229651e-19 0.005737648958)
(-0.1091455865 -0.05508314372 -1.000615538e-19 0.1027670784 2.498425243e-20 0.006378508094)
(-0.093586864 -0.05123089616 -1.468110722e-19 0.08740325293 3.223019144e-20 0.006183611069)
(-0.07921682853 -0.0472685009 -4.689226719e-19 0.07380514819 -1.630019591e-19 0.005411680345)
(-0.06599945039 -0.04345470505 -6.981181478e-19 0.06183309333 -6.208267061e-20 0.004166357061)
(-0.05384279257 -0.03991228408 -7.388147485e-19 0.05144287377 -5.095968324e-20 0.002399918803)
(-0.04261896935 -0.03656447172 -2.761230153e-19 0.04259299908 3.780488254e-20 2.597027206e-05)
(-0.03337697125 -0.0336427407 -4.972797484e-19 0.03538269699 -1.663407885e-19 -0.002005725731)
(-0.02847907855 -0.03151989012 -2.971652453e-19 0.0298504702 -1.275272385e-19 -0.001371391649)
(-0.02599158634 -0.0288758732 -2.08582716e-19 0.02680216528 -8.700844647e-20 -0.0008105789404)
(-0.1488358344 -0.06985729287 7.955720455e-20 0.1469765877 -8.949778983e-20 0.00185924672)
(-0.1294697703 -0.0772336758 4.173755713e-20 0.1252141361 8.325722874e-20 0.00425563423)
(-0.1113581187 -0.07604338888 -8.485029386e-20 0.1056142693 1.653186648e-19 0.005743849386)
(-0.09491045571 -0.07172583545 -7.230810167e-20 0.0884855136 9.675141694e-20 0.006424942113)
(-0.0799431315 -0.06641873248 -5.480085798e-20 0.07365359263 -1.072287494e-19 0.006289538879)
(-0.06635281148 -0.06112697255 -2.654674579e-19 0.06077153748 -3.374496161e-21 0.005581273996)
(-0.05395252548 -0.05616625462 -2.772982772e-19 0.04956058371 1.983624365e-19 0.004391941771)
(-0.04258524583 -0.05170561413 -9.029927811e-19 0.03991906024 1.815706614e-19 0.00266618559)
(-0.03209341062 -0.04768300103 -4.997617136e-19 0.03178631082 8.442977109e-21 0.0003070997997)
(-0.02344988855 -0.0443817318 -7.132422254e-19 0.02523135035 3.614272818e-19 -0.001781461803)
(-0.01881372536 -0.04228313887 -5.070050324e-19 0.02014682616 1.115170924e-19 -0.001333100801)
(-0.01726003373 -0.0390501119 -3.990040298e-19 0.01813662805 1.300156749e-19 -0.0008765943187)
(-0.1381292771 -0.08704329596 2.922088655e-20 0.1362860636 8.952670416e-20 0.001843213458)
(-0.1137495235 -0.09278016382 1.369635766e-19 0.1095122203 1.299118501e-19 0.004237303152)
(-0.09426920298 -0.08989432776 -5.337714164e-20 0.08851611328 1.952880492e-19 0.005753089708)
(-0.07796204781 -0.08402282354 -1.44521936e-19 0.07147069604 5.082366225e-20 0.006491351773)
(-0.06375794981 -0.07735079624 -2.263816061e-19 0.05731621331 -8.530576917e-20 0.006441736506)
(-0.05112245794 -0.07089627087 -1.913675998e-19 0.04528735408 8.135772996e-20 0.00583510386)
(-0.03970759367 -0.06495755736 6.645881062e-20 0.03495675892 1.050647681e-19 0.004750834751)
(-0.02930007241 -0.05972562839 -6.069211247e-19 0.02617042305 2.099034618e-19 0.003129649356)
(-0.01972949544 -0.05513714316 -3.215255256e-19 0.01886453458 2.300397361e-19 0.0008649608625)
(-0.01192510112 -0.05161769135 3.966151075e-19 0.01313578974 1.794239954e-19 -0.001210688626)
(-0.007698289293 -0.04975237929 -3.380800068e-19 0.008645347008 1.965300589e-19 -0.0009470577152)
(-0.007524412328 -0.04696412228 -1.863474936e-19 0.008238732549 8.792053895e-20 -0.0007143202213)
(-0.1254126518 -0.1022924536 2.992684704e-20 0.1235915071 1.298693373e-19 0.001821144663)
(-0.09631858597 -0.1043594009 1.665292989e-19 0.09211027444 2.017988544e-19 0.004208311527)
(-0.07572151561 -0.09907919841 1.713409498e-19 0.06996385277 1.150394756e-19 0.005757662849)
(-0.05975080754 -0.09153132817 -1.705261291e-19 0.05318165193 5.161529208e-20 0.006569155605)
(-0.04645596 -0.08362208463 -4.075167442e-20 0.03982135864 -1.894110647e-19 0.006634601361)
(-0.03485816155 -0.07622238714 -1.839793786e-19 0.02868675976 8.706537644e-20 0.006171401797)
(-0.02445287189 -0.06953028585 4.777160157e-19 0.01920266534 -7.89602202e-20 0.00525020655)
(-0.01494171236 -0.0637345819 -5.488617363e-20 0.01112768656 -5.48518485e-20 0.003814025805)
(-0.006185842153 -0.05873349017 -5.794977375e-19 0.004437190593 -9.734305717e-21 0.001748651559)
(0.0009826730787 -0.05525622242 -3.075489045e-19 -0.0007747084993 1.622426375e-19 -0.0002079645795)
(0.004907623438 -0.05396796592 7.527844895e-19 -0.004818526068 -1.866882215e-20 -8.909736989e-05)
(0.004007154297 -0.05342955764 -3.608200541e-19 -0.003771434985 -2.912948742e-20 -0.0002357193119)
(-0.111027862 -0.1153830589 7.075264748e-20 0.1092432472 6.742656182e-20 0.001784614824)
(-0.07829942276 -0.1119247488 1.550736841e-19 0.07414981212 1.874504238e-19 0.004149610632)
(-0.05710449745 -0.1036604381 3.330832793e-19 0.0513785201 -2.574583309e-20 0.005725977343)
(-0.04173492849 -0.09438728144 6.226172564e-21 0.03512168501 -1.862259797e-19 0.006613243478)
(-0.02947907372 -0.08544104501 -4.710145193e-19 0.02267523432 -1.656486869e-19 0.006803839403)
(-0.01896368558 -0.07739838935 -2.911385672e-19 0.01246147261 4.64465835e-20 0.006502212973)
(-0.009551322371 -0.07031401663 -1.40252105e-19 0.003789544509 -7.576786622e-20 0.005761777862)
(-0.0008390953884 -0.06430569221 1.159119985e-19 -0.003695176328 2.997111647e-20 0.004534271717)
(0.007217421481 -0.05919991327 3.253423999e-20 -0.009893037325 1.472163544e-19 0.002675615843)
(0.01402615468 -0.05574413563 2.220469586e-19 -0.01484529259 7.738879529e-20 0.0008191379048)
(0.01793601792 -0.05453758356 -2.272210318e-19 -0.01864684906 -1.638082442e-19 0.0007108311361)
(0.01910125475 -0.05512424507 -3.249234533e-20 -0.01923723552 1.834150764e-19 0.000135980769)
(-0.09552647191 -0.1261263315 4.343429444e-20 0.09379623227 7.878837341e-20 0.001730239639)
(-0.06080651244 -0.1157331362 1.694533374e-19 0.05675655386 1.077410011e-19 0.004049958581)
(-0.03976331194 -0.1040753544 1.967646074e-19 0.03412246912 -4.798693025e-20 0.005640842821)
(-0.02533604795 -0.09309270841 1.325624343e-19 0.0187347485 -1.728275072e-19 0.006601299454)
(-0.01427565297 -0.08331521014 -3.468307915e-19 0.007350457446 5.499220402e-20 0.00692519552)
(-0.004930137533 -0.07490459547 -3.809406516e-19 -0.00187317304 4.954821157e-20 0.006803310573)
(0.003419133032 -0.06774336524 -5.311427002e-19 -0.009686261712 2.261086649e-19 0.00626712868)
(0.01124978159 -0.06180401892 -8.113017084e-21 -0.01653079082 1.419601059e-19 0.005281009227)
(0.01856750248 -0.05684137226 2.475456533e-20 -0.02221810409 8.517662749e-20 0.003650601611)
(0.0250287847 -0.053268049 1.273148537e-20 -0.02693019325 1.946261355e-19 0.001901408548)
(0.02913718084 -0.05153684474 6.249782776e-19 -0.03065318639 1.941798583e-19 0.001516005547)
(0.03100252655 -0.05061622634 1.106922166e-19 -0.03147760156 6.41668493e-20 0.0004750750114)
(-0.07929503371 -0.1344770097 -3.308538588e-20 0.0776442784 1.148851947e-19 0.001650755316)
(-0.04471475007 -0.11636196 1.668402291e-19 0.04082298123 5.597125009e-20 0.00389176884)
(-0.0247051724 -0.1011484882 2.017279965e-19 0.01923096335 -9.317105772e-20 0.005474209046)
(-0.01156793121 -0.08854693372 -4.286983641e-20 0.005074108023 4.773340479e-20 0.006493823185)
(-0.001811671513 -0.0781214735 2.455840826e-19 -0.005134803135 3.211210211e-20 0.006946474648)
(0.006332903873 -0.06953233962 -2.097205664e-19 -0.01334014094 1.027682932e-19 0.007007237064)
(0.0136057577 -0.06244952178 4.53094687e-21 -0.0202944311 1.297509465e-19 0.006688673402)
(0.02049140901 -0.05666780958 -1.28481164e-19 -0.02646232763 1.530152866e-19 0.005970918623)
(0.02698348861 -0.05186628435 5.066668241e-19 -0.03160554328 2.79267137e-19 0.004622054668)
(0.03285439423 -0.04818651928 1.077792803e-18 -0.03589546907 1.044967605e-19 0.003041074843)
(0.03693669558 -0.04601629549 3.475968231e-19 -0.03936549338 -6.633900745e-20 0.002428797798)
(0.03858470501 -0.0444622435 4.731280425e-19 -0.03948975867 7.319944215e-21 0.000905053653)
(-0.0628858388 -0.1405427443 -1.016379056e-19 0.06134480104 9.502419329e-20 0.001541037759)
(-0.03070217343 -0.1146387128 2.811508247e-21 0.02704151002 2.553399117e-20 0.003660663408)
(-0.01265121221 -0.09599321169 -2.133218352e-19 0.007449588944 7.872624369e-20 0.005201623268)
(-0.00113614185 -0.08194955277 -7.30436982e-20 -0.005119819254 1.655707902e-19 0.006255961104)
(0.00725101573 -0.07105046156 2.689275132e-20 -0.01407236567 1.498320264e-19 0.006821349944)
(0.01423682341 -0.06242262351 4.309424502e-19 -0.02129289589 5.890277371e-20 0.007056072484)
(0.0205229738 -0.05551316336 1.270648772e-20 -0.02747889862 1.548399248e-20 0.006955924826)
(0.0265752252 -0.04994043427 2.469599239e-19 -0.03309358903 1.604255697e-19 0.006518363833)
(0.03238378828 -0.04532310137 7.930720729e-19 -0.03786830769 1.015235824e-19 0.005484519418)
(0.03780025365 -0.04164266855 7.611988396e-19 -0.04193293315 -1.104345268e-19 0.004132679497)
(0.04191337618 -0.03920091228 -7.421521314e-20 -0.04526628685 -3.797501609e-20 0.00335291067)
(0.04333620064 -0.03794280828 1.158587887e-19 -0.04472988977 -1.484522964e-20 0.00139368913)
(-0.04662772973 -0.1444806661 -5.997234403e-20 0.0452305324 3.066613269e-20 0.00139719733)
(-0.01907242971 -0.1114887365 -4.63319995e-20 0.0157265107 1.830783048e-20 0.00334591901)
(-0.003836629956 -0.08980950484 -9.646223276e-20 -0.0009708072905 9.775481097e-20 0.004807437247)
(0.005792353361 -0.07456928483 1.522466576e-20 -0.01165860349 1.303181758e-19 0.005866250132)
(0.01281138602 -0.06334446066 -1.288997302e-19 -0.01933439432 1.79393869e-19 0.006523008296)
(0.01874246831 -0.05476141938 2.902399126e-19 -0.02565275949 8.224564534e-20 0.006910291186)
(0.02418586605 -0.04805946158 6.187174587e-20 -0.03119505376 4.551598752e-20 0.007009187712)
(0.02956208094 -0.04271611674 4.277903155e-19 -0.03638407752 4.391968792e-20 0.006821996578)
(0.03485249745 -0.03831627133 3.994950742e-19 -0.04092885715 2.314547784e-21 0.006076359707)
(0.04002516664 -0.03477905394 -2.722757794e-20 -0.04495885084 -2.948623003e-20 0.004933684206)
(0.04436843481 -0.03228857739 -2.428140203e-19 -0.04836103945 1.449174262e-20 0.003992604635)
(0.04638204733 -0.0317500782 9.433112419e-21 -0.04811068 -1.370911745e-20 0.001728632664)
(-0.03087051287 -0.1466527752 8.511524048e-20 0.02965660019 -3.308593807e-20 0.001213912685)
(-0.009808941695 -0.1079271921 -3.736199244e-20 0.006874813251 -1.395138987e-20 0.002934128443)
(0.001916673916 -0.08387146392 -1.772800042e-19 -0.006182776565 8.343382345e-20 0.004266102648)
(0.009482097366 -0.06775370786 -2.267444655e-19 -0.01476711435 1.459847024e-19 0.005285016987)
(0.01518825464 -0.05634443531 -1.409491232e-19 -0.02117949438 1.802309761e-19 0.005991239742)
(0.02021415059 -0.04784205818 1.09045864e-19 -0.02670320266 1.237258361e-19 0.006489052077)
(0.02499601385 -0.04131866415 -2.842017735e-19 -0.03174091042 1.056714729e-19 0.006744896571)
(0.02989528207 -0.0361190478 4.392068553e-19 -0.03665155793 2.281330243e-20 0.006756275864)
(0.03484610471 -0.03183547015 2.924995637e-19 -0.04110816249 -6.775981135e-21 0.006262057779)
(0.04000515036 -0.02831434984 3.764777207e-21 -0.04529536545 3.198799527e-20 0.005290215087)
(0.04474613309 -0.02571533994 -6.632997648e-19 -0.04895920461 3.909241718e-20 0.00421307152)
(0.04824820833 -0.02542822451 1.36954251e-19 -0.05007436428 -2.209084521e-20 0.001826155952)
(-0.01576155463 -0.1473616554 5.692274414e-20 0.01476947666 -2.314704554e-20 0.0009920779744)
(-0.002569349207 -0.1048093844 -4.310710343e-20 0.0001440288116 -1.025501605e-20 0.002425320396)
(0.005169989801 -0.07921079824 -1.596686385e-19 -0.008750880484 6.168821975e-20 0.003580890683)
(0.01058643077 -0.06256413741 -1.086029257e-19 -0.01510684778 1.13701612e-19 0.004520417009)
(0.01506781353 -0.05108348844 -9.407065604e-21 -0.02031475472 1.534465451e-19 0.005246941183)
(0.01934465106 -0.04266246866 1.530436846e-20 -0.02517433241 1.372108015e-19 0.005829681344)
(0.02365094645 -0.03627336568 5.483859567e-20 -0.02987529876 1.219176471e-19 0.006224352312)
(0.02824779982 -0.03114397185 1.250250426e-19 -0.03466846897 1.043707803e-19 0.00642066914)
(0.03300272585 -0.02692921201 -1.434042087e-19 -0.03917544161 2.580895111e-20 0.00617271576)
(0.03810977822 -0.02331251707 -1.682071014e-19 -0.04350809281 -1.15494185e-20 0.005398314592)
(0.04292748352 -0.02050382631 -3.663372582e-19 -0.04716602111 -1.075317046e-21 0.004238537587)
(0.04731581264 -0.01889603726 -8.595320346e-20 -0.04917070091 -2.16857613e-20 0.001854888267)
(-0.001320142791 -0.1470224099 4.904599257e-20 0.0005919905543 -5.946538711e-21 0.0007281522371)
(0.003305366959 -0.1028567078 -3.885385263e-20 -0.005117171556 1.16902454e-20 0.001811804597)
(0.006862257218 -0.07666275454 -1.701535021e-19 -0.009595910577 4.628049922e-20 0.002733653358)
(0.01014826722 -0.0598621942 -2.514089079e-20 -0.01368927535 9.222971951e-20 0.003541008137)
(0.01351851979 -0.04842104593 -6.593281029e-20 -0.01775410905 1.457378917e-19 0.004235589254)
(0.01717585774 -0.04008488642 -2.308749703e-21 -0.02203152938 1.390772824e-19 0.004855671633)
(0.02113523883 -0.03380525014 9.278638711e-21 -0.02647924475 1.575638282e-19 0.005344005928)
(0.02549123359 -0.02872913002 -1.185098578e-19 -0.03118049195 1.229844363e-19 0.005689258361)
(0.03005854713 -0.02457677235 -1.846881742e-19 -0.03572382946 3.505729959e-20 0.005665282333)
(0.03488865048 -0.02084276947 -3.022517493e-19 -0.0399711544 -8.602737449e-21 0.005082503922)
(0.03932975559 -0.01776018651 -2.406348081e-19 -0.04319906188 -2.650788823e-20 0.003869306289)
(0.04296039526 -0.01531501896 -9.461765378e-20 -0.04459301293 -1.994546805e-20 0.001632617669)
(0.01255011515 -0.1459249569 4.488181148e-20 -0.01297790268 1.171598174e-20 0.0004277875287)
(0.008603178125 -0.102461716 -2.386761347e-20 -0.009708052348 3.650809213e-20 0.001104874224)
(0.00803605661 -0.07662838057 -1.539770489e-19 -0.009781943222 3.223219528e-20 0.001745886612)
(0.009271511073 -0.06002568083 3.725304901e-20 -0.01165167216 6.878812949e-20 0.002380161084)
(0.01160475124 -0.0486972909 -1.765046413e-20 -0.01461763879 1.369562289e-19 0.003012887543)
(0.01468315812 -0.04041121148 -3.732766856e-21 -0.01833244478 1.406304798e-19 0.003649286663)
(0.01828862034 -0.03416683071 -2.313841775e-20 -0.02251863937 1.735958218e-19 0.004230019036)
(0.0222982659 -0.02908596729 -1.873782535e-19 -0.02705145388 1.514418189e-19 0.004753187979)
(0.02648759384 -0.0249553357 -3.617232206e-19 -0.03151018269 7.223322533e-20 0.005022588855)
(0.03074348601 -0.02116316749 -3.587389313e-19 -0.03550927003 -3.315217763e-20 0.004765784025)
(0.03456212054 -0.01792512153 -1.653044244e-19 -0.03820503352 -3.108317423e-20 0.003642912983)
(0.03753549584 -0.01482021655 -1.593389965e-19 -0.03911328187 -2.389974219e-20 0.001577786031)
(0.02610454673 -0.1442796386 5.287516889e-20 -0.02619549205 2.355126217e-20 9.094532395e-05)
(0.01427550852 -0.1036944529 7.389041801e-21 -0.01458172888 5.153015964e-20 0.0003062203628)
(0.009912497727 -0.07910323176 -8.866802561e-20 -0.01052644982 3.456999124e-20 0.0006139520925)
(0.009258821851 -0.06300666781 4.789849353e-20 -0.01028485061 4.093837804e-20 0.001026028764)
(0.01063500571 -0.05183123629 8.042669588e-20 -0.01218397251 1.245417543e-19 0.001548966802)
(0.0131520955 -0.04353183014 -4.63330962e-21 -0.01531684892 1.178508213e-19 0.00216475341)
(0.01637484174 -0.03720118025 2.785054909e-20 -0.01919145301 2.153470217e-19 0.002816611266)
(0.01992066084 -0.0319982264 -4.676386323e-19 -0.02345454225 2.061972658e-19 0.003533881415)
(0.02353527674 -0.02775959021 -4.216889397e-19 -0.02769542416 2.464342525e-20 0.004160147425)
(0.02688576693 -0.02385785626 -2.932819608e-19 -0.0312483502 -5.988570031e-20 0.004362583274)
(0.02968933293 -0.02055683793 -1.733506199e-19 -0.03318082759 5.294340098e-20 0.003491494665)
(0.03158877321 -0.01677121453 -3.479493267e-19 -0.03325124885 -4.742286477e-20 0.001662475645)
(0.03961668833 -0.1421789693 5.534403406e-20 -0.03934379518 1.878564015e-20 -0.0002728931485)
(0.0211612975 -0.1062906124 5.330740244e-20 -0.02059795891 3.625798168e-20 -0.0005633385914)
(0.01351839786 -0.0836835512 7.412504249e-20 -0.01289123942 7.134543458e-20 -0.000627158437)
(0.01116785656 -0.06835269418 -2.774334908e-20 -0.01069368652 3.47838207e-20 -0.0004741700389)
(0.01162840908 -0.05736490218 1.531230305e-19 -0.01153390559 1.214985603e-19 -9.450348372e-05)
(0.0135690806 -0.04899960097 -1.333037725e-19 -0.01403102022 1.623207254e-19 0.0004619396224)
(0.0163693442 -0.04247389203 -1.509917656e-19 -0.01751311096 2.475743906e-19 0.001143766762)
(0.01941141019 -0.03703701836 -5.309340969e-19 -0.02140830061 1.4010108e-19 0.00199689042)
(0.02240744368 -0.03254850363 -2.463529671e-19 -0.02532211776 3.437466208e-20 0.002914674079)
(0.02477083518 -0.02848771793 -4.996488822e-19 -0.02827951039 6.371892592e-20 0.003508675206)
(0.0264689763 -0.02523904306 -3.183159174e-19 -0.0293484124 2.588171989e-20 0.002879436093)
(0.02657908424 -0.02113259485 -3.146386446e-19 -0.02803080424 -7.447895613e-20 0.001451719997)
(0.05338603994 -0.1394736889 -5.069644016e-20 -0.05272649224 -4.880948377e-20 -0.0006595477058)
(0.03000720758 -0.1096197052 1.194289022e-19 -0.0285155719 -3.036840346e-20 -0.001491635678)
(0.01975169262 -0.08953875383 1.965446081e-19 -0.01778743669 5.755792741e-20 -0.00196425593)
(0.01592462559 -0.0751697593 1.260426718e-19 -0.0138153185 5.360942141e-20 -0.002109307088)
(0.01549709915 -0.06440916847 1.560995503e-19 -0.01357920513 8.185458214e-20 -0.001917894015)
(0.01683417369 -0.05597174512 -1.895804004e-20 -0.01536333569 8.975439065e-21 -0.001470838)
(0.01919270347 -0.04922217293 4.018239282e-19 -0.01837389111 1.757143287e-19 -0.0008188123647)
(0.02178132729 -0.04355969199 -1.80407128e-19 -0.02187398009 3.25670923e-19 9.265280629e-05)
(0.02426727438 -0.03883050803 -3.260097475e-19 -0.02547911908 1.055122129e-19 0.001211844704)
(0.0257966145 -0.03481958583 -2.451729918e-19 -0.02790036855 1.406866158e-19 0.002103754057)
(0.0263873481 -0.03199160108 -2.017102309e-19 -0.02808102555 1.670488969e-19 0.001693677443)
(0.02396801909 -0.02889820264 -4.361690799e-19 -0.02484842386 -4.671350955e-20 0.000880404771)
(0.06766529616 -0.1359594557 -8.489261256e-20 -0.06660832129 -9.382363324e-20 -0.001056974872)
(0.04126262546 -0.1128590364 1.177521401e-19 -0.03881215038 -1.06933239e-19 -0.002450475083)
(0.0291134722 -0.09563916994 2.615367691e-19 -0.02576266103 4.490840306e-20 -0.003350811167)
(0.02400853802 -0.08238872305 1.28003287e-19 -0.02019414599 9.690872301e-20 -0.003814392038)
(0.02265598499 -0.07194160314 -1.045232789e-20 -0.01882535105 7.577785532e-20 -0.003830633933)
(0.02327861452 -0.06351344826 -7.174623372e-20 -0.01976224968 -1.051286422e-19 -0.003516364841)
(0.02506137162 -0.05664706575 3.659113085e-19 -0.02214750444 -4.139891738e-20 -0.002913867184)
(0.02712914213 -0.05091233016 1.232916238e-19 -0.0251601085 2.869678907e-19 -0.001969033637)
(0.02906198343 -0.04609564157 -1.947524633e-19 -0.02840420748 3.043664595e-21 -0.0006577759476)
(0.02995207966 -0.04220957055 3.44539637e-19 -0.03050511825 -1.192952091e-19 0.0005530385866)
(0.0297927944 -0.03968337759 2.312110415e-19 -0.03023584458 2.910149507e-19 0.0004430501808)
(0.02728695915 -0.03814137823 -1.060031558e-19 -0.02762994472 7.508242035e-20 0.0003429855653)
(0.08250606964 -0.1311806138 5.543603313e-20 -0.0810489998 -4.993754537e-20 -0.001457069844)
(0.05505097915 -0.1149593165 1.49051538e-19 -0.05163246728 -1.58703848e-19 -0.003418511869)
(0.0417205278 -0.1007040571 4.165964718e-19 -0.03696227334 1.282324523e-20 -0.004758254458)
(0.03550384527 -0.08866217753 1.97264766e-19 -0.02994726171 1.37278492e-19 -0.005556583566)
(0.03314101524 -0.07861300425 6.207431983e-20 -0.02733789909 5.256272015e-20 -0.005803116156)
(0.0328644657 -0.07028466319 -6.28005299e-20 -0.02721654462 -8.683176335e-20 -0.005647921075)
(0.0338359396 -0.06341125896 2.73905321e-19 -0.02871439524 -2.883805043e-19 -0.005121544359)
(0.03516354342 -0.0577240317 3.183458438e-19 -0.03099007549 1.060348669e-19 -0.004173467933)
(0.03636832688 -0.05296494276 -1.080329909e-19 -0.03368478213 3.165665177e-19 -0.002683544747)
(0.03667118503 -0.04918659283 -4.076105586e-19 -0.03551562598 -1.097373291e-19 -0.001155559054)
(0.0361632134 -0.0467788602 5.39341936e-19 -0.03525054284 -1.226307839e-19 -0.0009126705612)
(0.03357206437 -0.04473778764 -3.337658213e-19 -0.03334168645 5.987012844e-20 -0.0002303779247)
(0.09790313256 -0.1247165318 2.656898033e-20 -0.09605581917 -1.107743323e-19 -0.001847313391)
(0.0711524024 -0.1149038124 1.520223382e-19 -0.06678731832 -1.724467124e-19 -0.004365084077)
(0.05728791449 -0.1035248551 2.49288472e-19 -0.05115029623 -1.68684566e-19 -0.006137618265)
(0.05010644781 -0.09274656263 2.259162385e-19 -0.04283769146 1.295701775e-19 -0.007268756345)
(0.04665350399 -0.08319962583 -2.568266948e-19 -0.03890642729 1.181974883e-19 -0.007747076694)
(0.04530841961 -0.07507695947 -9.498654764e-20 -0.03755392902 2.221837463e-20 -0.007754490593)
(0.04526951172 -0.06828157415 -3.427393647e-19 -0.03796009718 -2.5679652e-19 -0.007309414538)
(0.0456588198 -0.06269706776 1.642381523e-19 -0.03929702334 -2.520044636e-19 -0.006361796452)
(0.04597751484 -0.05802686851 3.585737104e-19 -0.04127053104 -3.969412692e-20 -0.004706983802)
(0.04551044167 -0.05439701565 5.080451468e-19 -0.04265189772 2.168033045e-19 -0.002858543951)
(0.04458400747 -0.05225340724 -3.099554526e-19 -0.04232691833 1.627224087e-19 -0.002257089136)
(0.04096690186 -0.05014776796 9.513015038e-20 -0.04017387849 4.123727147e-20 -0.0007930233688)
(0.113479573 -0.1160767825 -1.498333805e-20 -0.1112628943 -1.784993108e-19 -0.002216678756)
(0.08893252979 -0.111734064 1.395796725e-19 -0.08366984371 -1.597253932e-19 -0.005262686076)
(0.07506586068 -0.1029816865 2.146664554e-20 -0.06761701059 -2.338467633e-19 -0.007448850093)
(0.06703994599 -0.09349600993 8.918621062e-20 -0.05813928353 -1.803262323e-19 -0.008900662456)
(0.06243517012 -0.08458403194 2.713580766e-19 -0.05282907617 2.372429145e-19 -0.009606093947)
(0.05990707577 -0.07682159341 4.372286734e-20 -0.05013337392 2.201419709e-19 -0.009773701851)
(0.05873498463 -0.0702490796 -3.534518497e-20 -0.04932448988 1.3928266e-19 -0.009410494751)
(0.05811431651 -0.06491481069 2.025197231e-19 -0.04965308634 -1.442849167e-19 -0.008461230171)
(0.05753045265 -0.06049913601 3.324155068e-19 -0.05088495314 5.710654337e-20 -0.006645499504)
(0.05636029271 -0.05731220199 2.541313489e-19 -0.05187484097 4.788578347e-20 -0.004485451742)
(0.05515162238 -0.05578796042 7.647732088e-19 -0.05162201939 7.876595452e-21 -0.003529602988)
(0.05026103864 -0.05462811343 1.828985634e-19 -0.04892847099 1.696680655e-19 -0.001332567643)
(0.1288490863 -0.1048874591 1.634054375e-20 -0.1262945968 -1.20766546e-19 -0.002554489488)
(0.1075081065 -0.1047338235 6.194811368e-20 -0.1014241876 -1.85267108e-19 -0.006083918924)
(0.09403864653 -0.09825323162 -7.878858273e-20 -0.08538833104 -2.636240415e-19 -0.008650315489)
(0.085290575 -0.09008404835 1.886570368e-21 -0.07489243279 -3.231875591e-19 -0.01039814221)
(0.07953511225 -0.08197492028 4.988149484e-19 -0.06821998708 -1.673898662e-19 -0.01131512517)
(0.07578757032 -0.07476845013 3.144596584e-19 -0.06415696191 2.212576556e-19 -0.01163060841)
(0.07343352744 -0.06860151885 3.818295128e-19 -0.06209213995 1.340566042e-19 -0.01134138749)
(0.07177829694 -0.06368591274 1.729778135e-19 -0.0613965758 1.726280616e-21 -0.01038172114)
(0.07027821564 -0.05970253803 8.569100193e-19 -0.0618711764 -1.158978641e-19 -0.008407039242)
(0.0685117745 -0.05724869709 1.094427034e-18 -0.06256046213 1.234833627e-19 -0.00595131237)
(0.06727693239 -0.05667240232 -3.488398785e-20 -0.06261485175 -1.132770048e-19 -0.004662080645)
(0.06198543582 -0.05747687465 4.321387998e-19 -0.06016641278 -2.187417392e-20 -0.001819023043)
(0.1432751936 -0.09096579185 4.688511571e-20 -0.1404267085 5.03894082e-20 -0.002848485159)
(0.1257010343 -0.09352729176 -8.837006634e-20 -0.1189015302 -6.824114939e-20 -0.006799504075)
(0.1128679622 -0.08891861063 -2.37561075e-19 -0.1031712519 -2.109003896e-19 -0.009696710225)
(0.103507021 -0.08210176009 9.795699186e-20 -0.09180588727 -1.794975432e-19 -0.01170113369)
(0.09665507257 -0.07499933726 1.345930998e-19 -0.0838560291 -4.914865226e-19 -0.01279904347)
(0.09174546163 -0.06857291599 6.338266403e-19 -0.07850824532 -9.238665375e-20 -0.0132372163)
(0.08827396008 -0.0630051824 4.809233602e-20 -0.07526905215 -9.739625491e-20 -0.01300490793)
(0.08571459789 -0.05861925849 4.963500349e-19 -0.07369320902 -4.577788111e-20 -0.01202138887)
(0.0834538825 -0.05512453442 5.997147683e-19 -0.07355149649 -1.962354444e-19 -0.00990238601)
(0.08145857167 -0.05340265399 1.807236772e-19 -0.07428726626 -2.568907666e-19 -0.007171305413)
(0.08066791808 -0.0538056442 -2.164137804e-19 -0.07506985366 -6.213078926e-20 -0.005598064423)
(0.07671074019 -0.05691619433 8.678045864e-20 -0.07449195534 -1.391954027e-19 -0.00221878485)
(0.1560972071 -0.07427676026 4.342580776e-20 -0.1530055527 1.774071835e-19 -0.003091654438)
(0.1422798478 -0.07808455365 -9.694006192e-20 -0.1348897892 4.499851314e-20 -0.007390058591)
(0.1301741354 -0.07494460677 -4.64867909e-20 -0.1196130748 -1.282448596e-20 -0.01056106061)
(0.1203223359 -0.06952452935 -5.945588594e-21 -0.1075441149 -1.637594036e-19 -0.01277822099)
(0.1125158258 -0.06365781413 -1.416729614e-20 -0.09848763818 -2.601838092e-19 -0.01402818758)
(0.1066091386 -0.05827949338 2.349572649e-19 -0.09203955398 -3.762679593e-19 -0.0145695846)
(0.1022103441 -0.05358826834 9.080235821e-20 -0.0878256765 -2.746446014e-19 -0.01438466764)
(0.09897301954 -0.04993390894 4.062036654e-19 -0.08559278868 -7.825953549e-20 -0.01338023086)
(0.09615508982 -0.04710620403 -1.760121853e-20 -0.08502554505 -1.231603187e-19 -0.01112954477)
(0.09406372805 -0.0459769952 -3.039089676e-19 -0.08590444573 -1.350554285e-19 -0.008159282317)
(0.09360289079 -0.04691271235 -1.014658806e-19 -0.08727053268 -1.098538179e-19 -0.006332358109)
(0.09178889179 -0.04967754842 6.680637736e-20 -0.08926738906 4.212842974e-20 -0.002521502734)
(0.166517465 -0.055137993 -3.071018581e-20 -0.1632446444 1.119877995e-19 -0.003272820613)
(0.1560030546 -0.05884225524 -2.143870281e-19 -0.1481729573 4.098206367e-20 -0.007830097358)
(0.1445697659 -0.05682543767 -2.293871776e-19 -0.1333678346 -4.901181843e-20 -0.01120193125)
(0.1343351612 -0.05287127885 -1.810014779e-19 -0.1207628249 -1.356852581e-19 -0.01357233632)
(0.1257449694 -0.04848967802 1.849764283e-20 -0.1108194414 -8.402488901e-20 -0.01492552801)
(0.1190184905 -0.04445790674 -2.337387873e-20 -0.1034852069 -2.222843716e-19 -0.01553328364)
(0.1138599402 -0.04096898634 -1.636953064e-19 -0.09849262414 -1.709052264e-19 -0.01536731601)
(0.1100594701 -0.03832124112 4.742352306e-19 -0.09572895203 -2.190593938e-19 -0.0143305181)
(0.1067719545 -0.03638145299 1.972460567e-20 -0.09482019424 -8.36232307e-20 -0.01195176029)
(0.1044577137 -0.03575250532 -2.073198957e-19 -0.09569748225 7.605338642e-20 -0.008760231422)
(0.1040142893 -0.03670829666 -5.043637347e-19 -0.0973177128 -4.515458565e-20 -0.006696576497)