/*--------------------------------*- C++ -*----------------------------------*\
| =========                 |                                                 |
| \\      /  F ield         | foam-extend: Open Source CFD                    |
|  \\    /   O peration     | Version:  3.0                                   |
|   \\  /    A nd           | Web:         http://www.extend-project.de       |
|    \\/     M anipulation  |                                                 |
\*---------------------------------------------------------------------------*/
FoamFile
{
    version     2.0;
    format      ascii;
    class       volVectorField;
    location    "1";
    object      u;
}
// * * * * * * * * * * * * * * * * * * * * * * * * * * * * * * * * * * * * * //

dimensions      [0 0 0 0 0 0 0];

internalField   nonuniform List<vector> 
672
(
(0.2312794067 -0.08734405035 -1.894872952e-18)
(0.4737332689 -0.06086503402 1.211107813e-18)
(0.6526824139 -0.04294989972 9.304085089e-18)
(0.7613262966 -0.02951774779 -6.518386083e-18)
(0.857321729 -0.01899457214 4.122670805e-18)
(0.9085241341 -0.01061145641 5.812732495e-19)
(0.9667787729 -0.002300070325 2.489372423e-18)
(0.9913469467 0.004091578759 -3.53078499e-18)
(1.029717552 0.01187618969 3.087485901e-18)
(1.019428434 0.01448471146 5.677278098e-18)
(1.011826956 0.01828281675 -2.634421185e-18)
(1.020019406 0.01452961592 -8.850174364e-19)
(0.2698111007 -0.258080758 -3.648368768e-18)
(0.5004921112 -0.1835043538 1.251746557e-18)
(0.6714953306 -0.1347904419 1.067329411e-17)
(0.7746384947 -0.09962201531 -7.51842481e-18)
(0.8666688732 -0.07375731996 -1.525558673e-18)
(0.9155023359 -0.05438964625 -3.74442124e-18)
(0.971592339 -0.03668207907 -1.634750664e-17)
(0.9955197259 -0.0227568926 6.887008182e-18)
(1.032541567 -0.006786929498 8.071597069e-18)
(1.023462971 0.00213271243 -4.903906108e-18)
(1.014314522 0.01315986438 -7.263151927e-18)
(1.02316724 0.02799762841 1.066401958e-17)
(0.3455390184 -0.4142073033 -8.468283314e-18)
(0.5545535416 -0.2949240847 3.970355357e-19)
(0.7116447988 -0.2173899247 2.319623693e-18)
(0.8047126638 -0.1621950375 1.002239894e-17)
(0.8897008523 -0.1219748979 -6.818258128e-18)
(0.9332417882 -0.09259438581 9.764371148e-18)
(0.9850985282 -0.06622450749 1.236344361e-17)
(1.005706979 -0.04555198357 2.217618103e-17)
(1.039632669 -0.02244272065 -8.143052286e-18)
(1.029070173 -0.007205310924 7.665473075e-18)
(1.016998031 0.009940516962 -1.668219392e-18)
(1.019254085 0.04858841414 4.079469486e-18)
(0.4541365387 -0.5515996933 3.112715786e-18)
(0.6309783487 -0.3939781744 -3.969023723e-18)
(0.7668922318 -0.2921378545 -4.49190758e-18)
(0.8448481657 -0.219933249 3.716748496e-19)
(0.9189090784 -0.1678884644 -1.431953824e-17)
(0.9545231812 -0.1301579064 6.430904636e-18)
(0.9997362379 -0.09663756196 -2.013349083e-17)
(1.015054007 -0.07031475632 1.252549017e-17)
(1.044175896 -0.04078118292 1.353088947e-18)
(1.029994688 -0.01950827772 1.469015296e-17)
(1.015275834 0.004190274728 -2.040427847e-19)
(1.005188549 0.0701492048 2.05006139e-17)
(0.5892915776 -0.6581113982 1.709821531e-17)
(0.726356996 -0.4694694763 1.630774586e-18)
(0.8363305022 -0.3477732762 -3.690115209e-19)
(0.8956546232 -0.2621746039 3.133462284e-18)
(0.9563101343 -0.2005898994 4.478611641e-18)
(0.9819905867 -0.1569104242 1.402829684e-17)
(1.019157893 -0.1182790352 -1.081000608e-17)
(1.027896597 -0.0893889044 3.795570425e-18)
(1.051972256 -0.05690608535 1.342572821e-17)
(1.033185089 -0.0349697574 -2.702386477e-17)
(1.01862378 -0.01079127735 -2.482341911e-19)
(0.9870199194 0.0729498052 5.402866557e-19)
(0.7460404405 -0.7344776075 2.394649169e-18)
(0.8367463413 -0.5247760407 3.537956002e-18)
(0.9162942923 -0.3900830943 -1.655050199e-17)
(0.9537474568 -0.295697306 1.477748622e-18)
(0.9984034926 -0.2282787673 -1.360297278e-17)
(1.011977282 -0.1811604669 8.931001597e-18)
(1.038336394 -0.1395702285 -1.879262621e-17)
(1.037267399 -0.1103390228 -1.305676658e-17)
(1.051436997 -0.07586478906 4.171283236e-18)
(1.021902522 -0.0569372571 2.97483943e-17)
(1.002028529 -0.02762939051 -2.870791502e-17)
(0.9455266593 0.05976292048 1.785583595e-17)
(0.9128771479 -0.7703985502 -1.364877359e-18)
(0.9532871281 -0.5495985337 2.467104772e-18)
(0.9998450529 -0.4079771375 -1.198702756e-17)
(1.013882267 -0.3092593364 -1.492817088e-17)
(1.041302578 -0.2384290944 1.88594289e-17)
(1.042432028 -0.1893557607 4.115959888e-18)
(1.057403137 -0.1447314315 1.317065168e-17)
(1.047906851 -0.1142814217 -1.707528242e-18)
(1.052221212 -0.07529048696 -4.692538381e-20)
(1.020133446 -0.05913645812 -1.42108953e-17)
(0.9975288515 -0.02881313188 1.58270477e-17)
(0.9657070206 0.01264116858 1.602260799e-18)
(1.086045725 -0.7706277195 4.544322385e-18)
(1.07482284 -0.5502366471 -2.844231024e-18)
(1.087797568 -0.4094884167 -6.657453701e-19)
(1.078107165 -0.3117344199 -6.491185865e-18)
(1.088729647 -0.2418466283 1.340711052e-18)
(1.078419197 -0.1934745888 3.108263676e-18)
(1.084006104 -0.1487061567 1.202178533e-17)
(1.069620457 -0.1175249305 -3.926667836e-19)
(1.068529314 -0.07574151604 1.727458637e-18)
(1.03924496 -0.05533889296 1.455594339e-17)
(1.0123721 -0.02087237513 -1.034848306e-17)
(0.9810409703 0.02554699856 3.670652827e-18)
(1.250775435 -0.7295258449 7.541202088e-18)
(1.188407905 -0.5205620939 -3.937886542e-18)
(1.167892598 -0.3876780992 -5.634375335e-18)
(1.134888674 -0.2960034141 6.818048975e-18)
(1.128732855 -0.2306128728 -1.541896567e-17)
(1.107239658 -0.1859005394 4.229251876e-18)
(1.103575559 -0.144203279 -6.946412419e-18)
(1.084093962 -0.1158388615 6.48087627e-18)
(1.078132075 -0.0768408775 -1.115195979e-18)
(1.049599717 -0.05755275153 -1.14092302e-17)
(1.022951367 -0.02705052263 4.496770964e-18)
(0.9822622892 0.02553679923 -5.964158559e-18)
(1.405306287 -0.6541079678 5.265109032e-18)
(1.295798116 -0.4672273677 7.325941553e-19)
(1.244881167 -0.3491300169 1.115726461e-17)
(1.190604561 -0.2683701726 2.321196129e-18)
(1.169695459 -0.2111898656 1.888393189e-18)
(1.138144032 -0.1727653131 -1.097265681e-17)
(1.126337415 -0.1364158783 1.615804045e-18)
(1.101762098 -0.1123805442 6.066203002e-19)
(1.090415253 -0.0770761596 -4.502308305e-18)
(1.059688747 -0.05939025004 -3.772205371e-18)
(1.030489957 -0.02999530947 3.698273717e-18)
(0.9716260669 0.02407276795 -1.273803696e-18)
(1.534984516 -0.5449599759 -6.10604622e-19)
(1.38335848 -0.3902763268 -2.956717434e-19)
(1.304904989 -0.2936114697 1.858212133e-18)
(1.231698533 -0.2283681664 -2.915764948e-18)
(1.197271899 -0.1826612631 1.738204069e-18)
(1.156889903 -0.1527984283 -4.947083513e-18)
(1.13790719 -0.1239986698 -1.821025378e-18)
(1.109387313 -0.1061560393 -1.061710469e-18)
(1.094470646 -0.07683254449 -1.290127585e-18)
(1.063142189 -0.06350430642 -3.6075026e-19)
(1.035074035 -0.03592384174 -1.294323696e-19)
(0.9633585079 0.01141886094 -9.426433262e-20)
(1.639718794 -0.4096950534 -4.8272863e-18)
(1.454418684 -0.2947181972 -9.800923654e-19)
(1.354380087 -0.2238838226 2.34252809e-18)
(1.266268946 -0.177285229 6.870286134e-19)
(1.22161643 -0.1450857272 1.277522549e-18)
(1.174406499 -0.1256310025 -2.174124613e-18)
(1.149770929 -0.1057559859 -1.632447793e-18)
(1.118024737 -0.09622776688 -9.020523141e-19)
(1.0989546 -0.07464437143 4.960638034e-20)
(1.066994403 -0.06938986593 1.514469581e-18)
(1.036874423 -0.04467944306 -3.881054753e-18)
(0.9637244909 -0.01369965289 1.420194809e-18)
(1.708870433 -0.2547632282 -3.054785435e-18)
(1.498833883 -0.186703098 -8.001691143e-19)
(1.382634471 -0.14670215 1.44466707e-18)
(1.283669763 -0.1218309782 8.162834991e-19)
(1.231139254 -0.1053811563 1.209187913e-18)
(1.179149441 -0.09699130982 -8.900238849e-19)
(1.149843519 -0.08657457344 7.296201047e-19)
(1.116673132 -0.0837718128 -1.768281347e-18)
(1.094162448 -0.06875324853 -3.321000561e-18)
(1.066485145 -0.0672291436 8.097680208e-20)
(1.038484029 -0.04468491793 -1.029105395e-18)
(0.9993927608 -0.02879883028 -6.224203722e-19)
(1.743017076 -0.08742332412 -1.315348784e-18)
(1.519341326 -0.06907993405 -4.310093821e-19)
(1.394423757 -0.06090470878 -2.384811917e-19)
(1.289763928 -0.05837344213 1.177209276e-18)
(1.233381307 -0.0575824838 -4.444897123e-19)
(1.179485834 -0.06010764456 -2.351617975e-19)
(1.148483822 -0.05869908896 2.291856139e-19)
(1.116324134 -0.06161542939 -2.727041789e-18)
(1.093626897 -0.0527263536 -5.832834467e-19)
(1.071120378 -0.05168322253 -1.451474646e-18)
(1.045093586 -0.03245737678 -1.755326115e-19)
(1.018539203 -0.02131991217 -4.628987126e-19)
(1.738559143 0.08243833115 2.226658099e-19)
(1.512590866 0.04832959672 -4.892110572e-20)
(1.386212339 0.02239785055 -1.844341087e-18)
(1.280998927 0.001482745432 2.10659404e-18)
(1.224355735 -0.01455169437 -4.609349609e-19)
(1.171208763 -0.02806926153 -5.621561505e-20)
(1.140771018 -0.03659541986 -4.346594667e-19)
(1.111493123 -0.04504565411 1.170190007e-19)
(1.090888346 -0.04377289638 -2.251997642e-18)
(1.075184491 -0.04378008745 -2.886077821e-18)
(1.055374401 -0.02820907576 1.038511514e-18)
(1.044944518 -0.02004237259 -1.035839463e-18)
(1.695823674 0.2479750937 2.010783097e-18)
(1.47903979 0.1637829312 4.173609172e-19)
(1.358498775 0.1061074924 -2.774409189e-18)
(1.257746858 0.06341490221 2.308634488e-18)
(1.204331198 0.03218155022 1.308786113e-18)
(1.154085647 0.00873417791 6.833069671e-19)
(1.126153349 -0.00871797808 6.308015961e-18)
(1.100243101 -0.02180894996 -4.617230513e-18)
(1.082688469 -0.02774950044 -4.259797314e-18)
(1.072483789 -0.02814189528 1.064553742e-18)
(1.05731708 -0.01678050613 2.821110015e-18)
(1.065747457 -0.0125420634 -6.681506718e-18)
(1.619228624 0.3995469793 4.202098196e-18)
(1.423148405 0.2677879862 9.908456772e-19)
(1.316061851 0.1795479824 -6.737114576e-20)
(1.224803972 0.1162913992 -4.112955902e-18)
(1.178426889 0.07053560667 4.048265215e-18)
(1.133131667 0.03820313901 -4.601777688e-18)
(1.109672816 0.01241655496 -4.479325522e-18)
(1.086976915 -0.004173874691 -1.072901647e-17)
(1.072620781 -0.01699376612 3.881649247e-18)
(1.064687613 -0.01618100301 -5.23847442e-18)
(1.050269793 -0.009633702926 -4.575473458e-19)
(1.075357556 -0.000154574179 -4.111589992e-18)
(1.508697175 0.5303178461 -5.731746777e-19)
(1.342966317 0.3580331561 2.68242544e-18)
(1.255130969 0.2444001121 2.988536367e-18)
(1.177454052 0.1641844864 4.181143548e-19)
(1.140628774 0.1069089563 7.037881554e-18)
(1.102062107 0.06780803763 -3.385700137e-18)
(1.084577257 0.03628281986 1.365688515e-17)
(1.065736893 0.01878386784 -3.713077557e-18)
(1.056427802 0.002820178228 -3.168457149e-19)
(1.049897809 0.009810443754 -6.032082241e-18)
(1.041577482 0.01457747522 1.225789275e-18)
(1.078880009 0.03514725693 -1.174668422e-17)
(1.375358126 0.6344287042 -7.844830359e-18)
(1.249258784 0.4290809823 -8.244200189e-19)
(1.187037785 0.2945763996 1.027517768e-18)
(1.127042469 0.2006124497 -1.076089087e-18)
(1.103332978 0.1339988031 -3.632564062e-18)
(1.073749503 0.08956872574 -8.448191888e-18)
(1.06538426 0.05343900164 7.977931728e-18)
(1.052395952 0.03486889325 1.510735566e-18)
(1.052222951 0.01617324379 -7.645882007e-18)
(1.046158634 0.02445713549 1.769708598e-17)
(1.041528345 0.02732013689 2.937684945e-18)
(1.046428696 0.03301827662 8.038469526e-19)
(1.219314216 0.704869544 1.064337812e-18)
(1.138807677 0.4767918288 -2.202439277e-18)
(1.105439194 0.3282100015 1.242041404e-17)
(1.065451113 0.2250628178 -2.106501392e-19)
(1.055738053 0.1520501255 9.107108324e-18)
(1.035977286 0.1035547478 -5.988223246e-18)
(1.03669147 0.06325905806 1.276287552e-17)
(1.030408921 0.04181727033 1.135555802e-17)
(1.039498353 0.01833494028 -4.602432112e-19)
(1.039348616 0.02288290373 -2.358661965e-17)
(1.042854045 0.02480376738 2.224027651e-17)
(1.05978107 0.02573299802 -1.430686921e-17)
(1.055322261 0.7418156057 6.370276067e-19)
(1.02526153 0.5020905731 -1.675133112e-18)
(1.024161584 0.3465547596 8.228287851e-18)
(1.006055546 0.2390815834 1.317254232e-17)
(1.011896756 0.1632392964 -1.740826166e-17)
(1.002189185 0.1132596251 -2.831845405e-18)
(1.011848252 0.07095956527 -1.503554834e-17)
(1.010600841 0.04889183596 -5.583793645e-20)
(1.026139563 0.02237597921 2.114237956e-18)
(1.028200183 0.02665722797 1.793712842e-17)
(1.033409139 0.02666424936 -1.537414827e-17)
(1.067408218 0.03410223687 1.362477708e-18)
(0.8846521219 0.7386832257 -8.411645526e-18)
(0.9062557076 0.4990365573 3.250142593e-18)
(0.9377802514 0.3438589014 -2.44616126e-18)
(0.9418108217 0.2372055725 4.315914589e-18)
(0.9628439879 0.1618240752 2.450804218e-18)
(0.9628903043 0.1127678897 -5.580263894e-19)
(0.9811770747 0.07055721835 -1.187203119e-17)
(0.9845423618 0.04970705062 5.886665741e-19)
(1.0072435 0.0226595959 1.05164637e-18)
(1.011390422 0.02972698152 -1.306626786e-17)
(1.021796577 0.02994924097 1.583114661e-17)
(1.072476778 0.05450744851 -4.738144255e-19)
(0.7218578014 0.7018517281 -1.329476503e-17)
(0.7943128773 0.4746562766 3.544816355e-18)
(0.8580889999 0.3280628057 5.082613975e-18)
(0.8836856828 0.2276298897 -1.258546062e-17)
(0.9197365724 0.1569280628 2.25802824e-17)
(0.928880168 0.1113053363 -1.844514134e-18)
(0.9552018872 0.07145366982 1.325149079e-17)
(0.9615222296 0.05266930143 -7.677195891e-18)
(0.9896817926 0.02556064506 5.902574969e-18)
(0.9916510329 0.03454235396 2.466567002e-17)
(1.005067583 0.03127383246 -1.006821137e-17)
(1.061092767 0.07341103384 1.071875042e-17)
(0.5699038071 0.6265254062 -1.014121558e-17)
(0.6896351198 0.4226570088 -3.497431339e-18)
(0.7833526815 0.291178232 -2.304853095e-17)
(0.8289063764 0.2016269457 -3.058103087e-18)
(0.8786440373 0.1385198792 -1.143205066e-17)
(0.8956079458 0.09865887782 2.491857186e-17)
(0.9288620205 0.06361531279 -6.326573445e-18)
(0.9359600305 0.0490984357 2.800510004e-18)
(0.9681840614 0.02630982505 9.494231662e-18)
(0.9630346826 0.03976668519 2.19388206e-18)
(0.9803642392 0.03943204732 -1.009505685e-17)
(1.027703859 0.09251085057 -1.342374212e-18)
(0.4398145654 0.5234417269 2.423772183e-18)
(0.6003723119 0.3537652012 1.017543255e-18)
(0.7198328521 0.2447762314 2.050454472e-18)
(0.782586381 0.1707752796 9.091856309e-18)
(0.8443712246 0.1192155206 -1.063439031e-17)
(0.8686866514 0.08709536142 6.808229867e-18)
(0.9091017808 0.05962513247 -1.086690511e-18)
(0.9188678749 0.04927057779 7.001296081e-18)
(0.9574682414 0.03293288688 -2.325682602e-18)
(0.949142591 0.04390701451 -1.003001658e-17)
(0.9694372953 0.04271610442 -1.248061717e-18)
(0.9937883404 0.05425548454 4.301084755e-19)
(0.3358284712 0.3912384027 1.62969007e-17)
(0.5296610845 0.2637304934 3.120420098e-18)
(0.670449035 0.1818196127 -5.304863018e-18)
(0.7474928834 0.1265145436 -1.148657271e-17)
(0.8194752016 0.08797763076 -6.382492871e-18)
(0.8502272655 0.06425310268 3.193895463e-18)
(0.8970995659 0.04399257952 -1.853951624e-17)
(0.9105255351 0.03636856446 1.169342978e-17)
(0.9555373515 0.02447240505 1.743357408e-18)
(0.9500167872 0.03154313058 -2.377892175e-22)
(0.9733188056 0.03221055878 -1.09981043e-17)
(1.000796566 0.03624271968 1.00550959e-17)
(0.2636647142 0.2419774644 7.579739113e-18)
(0.4799126514 0.1635220306 1.193008146e-18)
(0.6346764625 0.1133466828 -2.588113857e-18)
(0.7211823301 0.07957759766 -7.986270444e-19)
(0.7996444788 0.05631585724 4.152276613e-18)
(0.8346003591 0.04196005107 -7.376722448e-19)
(0.8851064812 0.02988967894 3.244787732e-18)
(0.9002612475 0.0248421487 2.4861424e-18)
(0.9477552531 0.01707523294 -5.300893532e-18)
(0.9418486403 0.01934225336 3.160251033e-19)
(0.9647444378 0.01675589938 -2.503978734e-18)
(0.9945130626 0.0159476346 1.163037119e-18)
(0.2273273077 0.07896908054 3.605931849e-18)
(0.4558965883 0.05324241328 -2.411401631e-19)
(0.6188343354 0.03689931155 -5.025247507e-18)
(0.7108062437 0.02619478328 2.613966199e-18)
(0.7932386364 0.01899613296 -2.392958645e-18)
(0.8306592012 0.01478938625 -8.903307551e-20)
(0.8833169883 0.01149089901 1.079393368e-18)
(0.8995046805 0.01008795844 -3.024162105e-18)
(0.9482241316 0.007993694522 2.802756111e-19)
(0.941798836 0.007816226917 -1.177111417e-18)
(0.9642294059 0.005896142912 -2.904282614e-20)
(0.9912263701 0.002450523306 1.278218267e-18)
(0.227349883 -0.08747408802 1.89858216e-18)
(0.4552958899 -0.05909599913 -9.928656421e-19)
(0.617610535 -0.04068450446 -7.382198561e-18)
(0.7093455822 -0.02774881157 4.866989282e-18)
(0.7914598812 -0.01846380196 -2.773017869e-18)
(0.8290102714 -0.01216789277 -3.839040937e-19)
(0.8814170066 -0.006454239758 -1.521048407e-18)
(0.897880482 -0.00356076721 1.249952307e-18)
(0.9461012438 0.0006609638 -1.621795334e-18)
(0.9398197718 -0.0005945256101 -1.924624754e-18)
(0.961692776 0.000511279885 1.559451106e-18)
(0.9898861391 -0.007480446381 1.188654447e-18)
(0.2652964382 -0.2494486544 3.477217903e-18)
(0.4819909298 -0.1682815007 -9.302796783e-19)
(0.6376104166 -0.1158720206 -8.401017562e-18)
(0.7248611952 -0.07983257443 5.740075083e-18)
(0.8041610173 -0.05437639225 1.143103971e-18)
(0.8400008238 -0.03784770084 2.355143614e-18)
(0.8911248354 -0.02333722083 8.687681433e-18)
(0.9075288926 -0.01638109544 -4.181644015e-18)
(0.9550756338 -0.00630911297 -3.56866453e-18)
(0.9509813356 -0.009125747393 2.815768791e-18)
(0.9718015587 -0.007598477427 3.043077887e-18)
(1.003463062 -0.0226925435 -3.434448432e-18)
(0.3380181437 -0.4005862342 7.831760385e-18)
(0.5312373792 -0.2710911936 3.03703384e-20)
(0.6718335105 -0.1877324982 -1.845956985e-18)
(0.7491377242 -0.1305603722 -7.222774513e-18)
(0.8214647205 -0.09059544352 4.4421022e-18)
(0.8531965644 -0.06488916087 -6.873722979e-18)
(0.9005317688 -0.04300520273 -8.452338448e-18)
(0.9156494474 -0.03289583064 -1.210378768e-17)
(0.9606018256 -0.01890822429 4.11521953e-18)
(0.9573693703 -0.02259686135 -2.866478449e-18)
(0.9774163817 -0.01971346926 1.001878351e-18)
(1.006448844 -0.01735533827 -6.492535774e-19)
(0.4426689485 -0.5299733135 -2.564394171e-18)
(0.603366244 -0.3581799844 3.388797958e-18)
(0.7236459174 -0.2473120065 3.379088185e-18)
(0.7872427761 -0.171402269 -4.018807261e-19)
(0.8500895963 -0.1180848295 1.034196216e-17)
(0.8755284105 -0.08407285123 -4.76570519e-18)
(0.9170133838 -0.05505410905 1.157546726e-17)
(0.9283567155 -0.04231389341 -8.681168223e-18)
(0.9676567715 -0.02467190756 -1.109134328e-18)
(0.9616800638 -0.03192762988 -8.462638074e-18)
(0.9793972708 -0.03090170319 -1.242194909e-18)
(1.004221548 -0.03454174643 -9.595287307e-18)
(0.5745738832 -0.6359890665 -1.538622259e-17)
(0.6939231686 -0.4311416931 -1.435555537e-18)
(0.7879435648 -0.2990001505 -8.678384639e-20)
(0.8339402348 -0.2082872177 -3.189073205e-18)
(0.8844470424 -0.1446273695 -4.44361549e-18)
(0.9022270356 -0.1037660101 -1.003384426e-17)
(0.936336546 -0.06873717594 7.546477624e-18)
(0.9442775386 -0.05314297593 -3.514350084e-18)
(0.9771486633 -0.03111954935 -8.124093422e-18)
(0.9711438483 -0.04054069281 1.558607589e-17)
(0.9864089589 -0.03814864923 -2.520025654e-18)
(1.01385708 -0.0540242227 -4.172768879e-19)
(0.7256611192 -0.7075415773 -2.107830038e-18)
(0.7980268108 -0.47928151 -3.360573624e-18)
(0.8623334514 -0.3315549335 1.453735428e-17)
(0.8883899394 -0.2299705365 -1.728265508e-18)
(0.9248722298 -0.1582183448 1.118229449e-17)
(0.9339553342 -0.111943939 -6.543692346e-18)
(0.9598191461 -0.07213318894 1.608754998e-17)
(0.964260871 -0.05406455298 9.431740189e-18)
(0.9903380951 -0.02928716197 -4.125089105e-18)
(0.9860350447 -0.0408099904 -2.10452642e-17)
(0.99823891 -0.03963116518 1.947231043e-17)
(1.034472439 -0.07065704822 -1.334882438e-17)
(0.8915894541 -0.7471543355 1.21233886e-18)
(0.9133106235 -0.5074223788 -2.328684761e-18)
(0.9455770906 -0.3521037422 1.121929044e-17)
(0.9500357949 -0.2447713328 1.375626702e-17)
(0.9715279576 -0.1688993602 -1.763584753e-17)
(0.971257868 -0.1191826644 -3.589348677e-18)
(0.9882736609 -0.07641983572 -1.123816004e-17)
(0.9887850174 -0.05539119332 1.672680979e-18)
(1.006713822 -0.02770357065 1.732902538e-19)
(1.003865152 -0.03699451444 1.276962044e-17)
(1.008929231 -0.0341169167 -1.465206261e-17)
(1.057547839 -0.07077896902 -1.336917296e-18)
(1.059964132 -0.7466851144 -4.963001658e-18)
(1.029960177 -0.5069966426 3.05131474e-18)
(1.029309316 -0.351166139 4.741676004e-19)
(1.011675213 -0.2430229095 6.702717996e-18)
(1.017667266 -0.1661302527 -1.418078028e-18)
(1.008062221 -0.1148582962 -3.310856474e-18)
(1.016772986 -0.0707302626 -1.454812295e-17)
(1.014742239 -0.04648784679 4.993897315e-20)
(1.027527304 -0.01703878676 -1.840505704e-18)
(1.029922857 -0.02018440545 -1.735571186e-17)
(1.033236574 -0.01925452498 1.261039462e-17)
(1.091937573 -0.04909390001 -3.447401492e-18)
(1.227744821 -0.7113963311 -8.359328829e-18)
(1.14805015 -0.4838068101 4.348334236e-18)
(1.116029776 -0.3354452753 6.767655303e-18)
(1.077033907 -0.2319283167 -8.532305186e-18)
(1.068518243 -0.158434089 1.923026912e-17)
(1.049652845 -0.1088613429 -5.549666394e-18)
(1.050898167 -0.06724770935 9.13141051e-18)
(1.045070984 -0.04322390932 -1.048293799e-17)
(1.053188569 -0.01708751596 1.17245676e-18)
(1.053270464 -0.01650784714 2.237626334e-17)
(1.051202157 -0.01630448043 -6.743230471e-18)
(1.068307336 -0.01100756947 1.182526092e-17)
(1.380745223 -0.6384519717 -6.107608027e-18)
(1.25512755 -0.4341777013 -8.99725196e-19)
(1.193662175 -0.3004966049 -1.461010264e-17)
(1.134555018 -0.2067508847 -2.85534475e-18)
(1.111629304 -0.1401243014 -5.694852031e-18)
(1.08307685 -0.09497058892 1.926215468e-17)
(1.07545777 -0.05802345453 -4.186914769e-18)
(1.063359034 -0.03696395159 -2.009270071e-19)
(1.063668361 -0.016331678 1.070293407e-17)
(1.058451749 -0.01909921356 1.077528084e-17)
(1.05347174 -0.02242655046 -6.939611298e-18)
(1.058563831 -0.02053557214 1.651791424e-18)
(1.517298654 -0.5344431085 7.614343981e-19)
(1.352852817 -0.3630506024 6.146369731e-19)
(1.266764287 -0.2500993223 -5.266791578e-19)
(1.190472255 -0.1702667664 6.193484266e-18)
(1.155495435 -0.113333226 -5.936644553e-18)
(1.118352801 -0.0742775725 7.704303037e-18)
(1.102961484 -0.04278036884 9.823110999e-19)
(1.084842081 -0.02416193718 5.307215628e-18)
(1.077316997 -0.007240502409 1.228658028e-18)
(1.067173427 -0.009567962075 -5.406044218e-18)
(1.054610541 -0.0122522326 1.150864816e-18)
(1.054067458 -0.01503751934 5.085672015e-19)
(1.624974035 -0.4025759698 6.713817781e-18)
(1.429783541 -0.2727495511 1.666933516e-18)
(1.323829847 -0.1864346258 -3.050429747e-18)
(1.233726349 -0.1246180778 -4.709605864e-18)
(1.188628283 -0.08033780808 -4.239370146e-18)
(1.144440614 -0.04933070128 3.676319955e-18)
(1.122537589 -0.02499484811 -1.255562637e-17)
(1.09980923 -0.009940614489 1.040212382e-17)
(1.086668185 0.001710184243 5.246580474e-18)
(1.074323635 -0.0004203118032 3.06033216e-18)
(1.058229621 -0.005012857156 -1.113377294e-17)
(1.058064107 -0.009058175579 8.343076372e-18)
(1.703009202 -0.2499014204 3.743182296e-18)
(1.487595981 -0.1668584415 9.931217731e-19)
(1.368754482 -0.1102324343 -1.487793752e-18)
(1.269410707 -0.06873138952 -9.756953018e-19)
(1.217636831 -0.03858481865 1.017114929e-18)
(1.168479876 -0.01686687203 2.932994131e-19)
(1.141904649 -0.0005113740976 7.427473813e-19)
(1.115542269 0.01031340511 4.600978555e-18)
(1.097851834 0.01617357197 -1.576873919e-18)
(1.083309013 0.01446941388 2.252537833e-18)
(1.063982635 0.006722740728 -3.917427138e-18)
(1.061162962 0.001387899376 1.247808549e-18)
(1.7440068 -0.08437680183 1.503855628e-18)
(1.519247999 -0.05259635468 3.615430096e-19)
(1.394291529 -0.02913044928 -8.626946898e-19)
(1.290432142 -0.01028213923 -2.020142414e-19)
(1.235135494 0.003723303465 -7.50360382e-19)
(1.183181677 0.0151182144 1.625391563e-19)
(1.153891624 0.02223911156 9.529452574e-19)
(1.12498995 0.02854367225 3.670255657e-19)
(1.104693598 0.02787447759 1.490867701e-18)
(1.087629639 0.02694882146 3.284830015e-19)
(1.066173321 0.01648296139 -1.196259816e-18)
(1.054914154 0.01098370765 4.128598896e-19)
(1.747598546 0.08681791095 -2.212183614e-19)
(1.52514735 0.06733192963 -1.648184956e-19)
(1.401641089 0.05805715653 -7.285588389e-20)
(1.298426146 0.05420861378 -4.566493225e-19)
(1.2433898 0.05227147538 -8.887373515e-19)
(1.191033055 0.05289801049 -1.349920421e-19)
(1.161308521 0.05067604712 -5.354530976e-19)
(1.130856187 0.05138342371 2.203306849e-18)
(1.109473755 0.04353501739 8.209840604e-19)
(1.089214695 0.04145222219 -8.552029704e-19)
(1.065573817 0.02676721979 3.873745154e-20)
(1.044909189 0.01668795203 7.310180979e-19)
(1.713442421 0.2537949405 -1.836571695e-18)
(1.504864255 0.1836324674 -7.369041103e-19)
(1.390337193 0.1413578458 5.040169078e-19)
(1.292978384 0.1146462248 -5.269977959e-19)
(1.242020964 0.09628428813 -9.363754102e-19)
(1.19177355 0.08601142589 7.142848836e-19)
(1.163898598 0.07415998737 1.287543321e-18)
(1.133034413 0.06936762464 2.0076534e-18)
(1.11198847 0.0546578615 -1.602779178e-19)
(1.088130095 0.05182691815 1.043734046e-18)
(1.062151641 0.03416648378 1.413995831e-18)
(1.033174883 0.02009778947 -5.697161992e-19)
(1.641425679 0.4092100912 -3.560083013e-18)
(1.457150928 0.2933445807 -1.421466302e-18)
(1.358173312 0.2216517217 -4.100735058e-19)
(1.271362404 0.1742191215 1.325601402e-18)
(1.227695634 0.1411860894 -1.700798131e-18)
(1.181865748 0.1205887773 1.770556549e-18)
(1.157927215 0.1000865866 6.204533918e-19)
(1.128007605 0.08938164284 8.707931913e-19)
(1.109250088 0.06844240373 8.172979499e-20)
(1.081926966 0.06358393112 5.193410111e-19)
(1.054603941 0.04233626955 1.334420384e-18)
(1.014466661 0.02085341159 5.799458029e-19)
(1.53835949 0.5447022483 2.821343754e-20)
(1.388315572 0.3887087654 -2.107191094e-18)
(1.311600152 0.2907363515 -1.889422436e-18)
(1.239984322 0.2247124116 -3.965066953e-19)
(1.207226386 0.1783341206 -3.11080012e-18)
(1.168337551 0.148284678 1.744731627e-18)
(1.150563183 0.1198553095 -5.356156517e-18)
(1.123335409 0.1034205311 -2.002471689e-20)
(1.108404875 0.07691465951 1.737702599e-19)
(1.078554755 0.06928228439 2.400794356e-19)
(1.050645289 0.04561024492 5.097804159e-19)
(0.9979316545 0.01489483514 1.431464523e-18)
(1.404810352 0.6528199366 6.126953026e-18)
(1.296274896 0.4655095394 6.248713288e-19)
(1.246229263 0.3471083525 -5.915346672e-19)
(1.193208478 0.2664066081 1.11960374e-18)
(1.173452573 0.2094401657 3.593618568e-18)
(1.143491388 0.1715585019 4.555973734e-18)
(1.133470724 0.1367334745 -4.819153093e-18)
(1.111183101 0.1151792639 -1.809868933e-18)
(1.102595701 0.08463308974 2.640210862e-18)
(1.074034288 0.07376443317 -7.277723456e-18)
(1.049903497 0.05027194898 -4.876623372e-19)
(0.991827849 0.005194096301 -9.309293219e-19)
(1.252879782 0.7296705883 -1.354873369e-18)
(1.192060165 0.5204952125 2.01839662e-18)
(1.173077608 0.3875944667 -1.042315052e-17)
(1.141614502 0.2962327241 4.40825301e-19)
(1.137355117 0.2314598052 -6.704787687e-18)
(1.11799724 0.1873818725 3.657674471e-18)
(1.11727088 0.1471149302 -1.013026627e-17)
(1.101435737 0.1200570604 -7.917906992e-18)
(1.100016745 0.08427191444 3.783034039e-19)
(1.075240696 0.06660345713 1.530494634e-17)
(1.051956449 0.04036658504 -1.374674557e-17)
(0.9978981548 -0.02006060168 9.858541079e-18)
(1.084474208 0.768272986 -4.855129356e-19)
(1.074256319 0.5481093121 1.533478506e-18)
(1.087883706 0.4076863263 -7.457014138e-18)
(1.079300939 0.3107056383 -1.200543399e-17)
(1.090885541 0.24149468 1.619536523e-17)
(1.082398835 0.19388885 2.319956606e-18)
(1.090191423 0.1501804587 1.316773544e-17)
(1.079931767 0.1201040637 1.053310781e-19)
(1.083508497 0.08090894254 -2.203954239e-18)
(1.062494398 0.06247227443 -1.636333547e-17)
(1.042767974 0.03626536904 1.401060853e-17)
(1.026808699 -0.003785319877 -1.600189011e-18)
(0.9138078681 0.7707060719 8.827194435e-18)
(0.9553786453 0.5509697721 -3.453885914e-18)
(1.002724399 0.4106216612 2.647584348e-18)
(1.017668163 0.3133260734 -4.513394862e-18)
(1.04601579 0.2439930769 -2.403063512e-18)
(1.04869344 0.1962208913 7.096386076e-19)
(1.065693001 0.1528306215 1.423866096e-17)
(1.060324013 0.1235406851 -3.024282672e-19)
(1.069023131 0.08566379186 -1.075589846e-18)
(1.046378017 0.0704412932 1.508136651e-17)
(1.027549285 0.04375527317 -1.738988002e-17)
(1.013907232 0.008818557604 2.955687868e-19)
(0.7445077447 0.7315859419 1.410606535e-17)
(0.8361060701 0.5230797246 -3.945727491e-18)
(0.9159290421 0.3895670903 -6.194229702e-18)
(0.9538075437 0.2970051338 1.429652132e-17)
(0.9984083877 0.2308806968 -2.632452843e-17)
(1.012400167 0.1855540353 3.10839824e-18)
(1.039139925 0.1446601005 -1.53847371e-17)
(1.040140465 0.117505784 1.141555924e-17)
(1.056600726 0.08301539582 -5.946632275e-18)
(1.035718288 0.07010358501 -3.449107025e-17)
(1.022861202 0.04682823754 1.178709914e-17)
(1.009452097 0.01137130526 -1.589755762e-17)
(0.5893468407 0.6585092145 1.097565966e-17)
(0.72685389 0.4722150662 3.666655378e-18)
(0.8366155748 0.3530591673 2.648452799e-17)
(0.895689469 0.2703082562 3.57891364e-18)
(0.9556223907 0.2114827189 1.522261867e-17)
(0.9803370635 0.1710579126 -3.306267723e-17)
(1.016389309 0.1349809452 8.86386281e-18)
(1.023449086 0.1106425524 -3.27518309e-18)
(1.046645759 0.08029396102 -1.562401433e-17)
(1.027088842 0.06752314493 -9.061354487e-18)
(1.017150118 0.04608399527 1.301848912e-17)
(1.005093631 0.004321129048 1.020468016e-18)
(0.4533504056 0.5491835857 -2.576672569e-18)
(0.630916761 0.3938441753 -1.33232049e-18)
(0.7669189079 0.2943377943 -3.38053359e-18)
(0.8446462993 0.2253962035 -1.233941019e-17)
(0.9180426319 0.1763558296 1.479916207e-17)
(0.9522669217 0.1428925138 -9.47079998e-18)
(0.9965985959 0.1133375027 1.9527172e-18)
(1.009386794 0.09332208745 -1.115348793e-17)
(1.038840567 0.06919746739 2.503897158e-18)
(1.02176548 0.05764089158 1.592018884e-17)
(1.014207784 0.04067003755 3.6724684e-19)
(1.006870863 -0.004398574548 -8.174988548e-19)
(0.3451078377 0.4145543791 -1.817495361e-17)
(0.5539779769 0.2984961387 -3.800427977e-18)
(0.7103181092 0.2244981505 6.010164341e-18)
(0.8026976711 0.1733344367 1.549515954e-17)
(0.8867209983 0.1373783356 9.309671183e-18)
(0.9289347567 0.112882623 -4.652574884e-18)
(0.9801988004 0.09170709061 3.254812348e-17)
(0.9989172895 0.07674618077 -2.097063824e-17)
(1.034048224 0.05921806188 -6.861932822e-18)
(1.02161607 0.04841464038 -4.419104137e-18)
(1.01585459 0.03401454995 2.582597251e-17)
(1.017500625 -0.008746872322 -1.957167789e-17)
(0.2698262754 0.2568143849 -8.257099559e-18)
(0.5012703211 0.1853069478 -1.378133142e-18)
(0.6725937316 0.1398865589 2.632413837e-18)