/*--------------------------------*- C++ -*----------------------------------*\
| =========                 |                                                 |
| \\      /  F ield         | foam-extend: Open Source CFD                    |
|  \\    /   O peration     | Version:  3.0                                   |
|   \\  /    A nd           | Web:         http://www.extend-project.de       |
|    \\/     M anipulation  |                                                 |
\*---------------------------------------------------------------------------*/
FoamFile
{
    version     2.0;
    format      ascii;
    class       volScalarField;
    location    "8.3";
    object      p;
}
// * * * * * * * * * * * * * * * * * * * * * * * * * * * * * * * * * * * * * //

dimensions      [0 0 0 0 0 0 0];

internalField   nonuniform List<scalar> 
400
(
1.87563
0.627364
0.690939
0.336364
0.723914
0.581372
1.001
0.895786
1.29023
1.18668
1.56666
1.46003
1.84075
1.71847
2.0867
1.90062
2.17545
1.77869
1.7176
0.619765
3.58924
2.55556
2.41859
1.87417
2.00083
1.61348
1.77968
1.43869
1.58933
1.25724
1.38817
1.0479
1.16537
0.803165
0.904384
0.494749
0.535082
0.0016463
-0.190339
-1.07696
2.88134
1.92816
1.91807
1.5
1.69914
1.42193
1.65469
1.40727
1.64057
1.39317
1.63145
1.37561
1.62446
1.35041
1.59458
1.27192
1.44435
0.984216
0.901909
0.0547275
2.97234
2.36727
2.22613
1.87467
1.90752
1.627
1.69689
1.42757
1.50068
1.23181
1.31043
1.04331
1.13518
0.866372
0.96191
0.665388
0.702121
0.301524
0.111965
-0.52271
2.36435
1.82966
1.82412
1.55287
1.68742
1.48129
1.65963
1.46212
1.67265
1.47387
1.73029
1.5325
1.84608
1.64357
1.9957
1.74949
2.04565
1.64293
1.63992
0.846932
2.18636
1.86832
1.79469
1.60722
1.61394
1.4457
1.47312
1.30012
1.34427
1.17459
1.25279
1.10148
1.23454
1.10491
1.29376
1.14472
1.32
1.00322
0.927285
0.100585
1.83616
1.61517
1.62701
1.49661
1.56944
1.43914
1.55339
1.41079
1.58336
1.43913
1.70153
1.57252
1.95782
1.84877
2.36225
2.22393
2.76848
2.4006
2.60666
1.44776
1.55414
1.5214
1.4941
1.43816
1.40186
1.30858
1.27544
1.16085
1.15207
1.04269
1.08948
1.01663
1.15925
1.14273
1.41089
1.40684
1.74818
1.51076
1.58846
0.354395
1.34894
1.46914
1.47456
1.4687
1.45507
1.37808
1.39899
1.28467
1.37712
1.25483
1.46515
1.36893
1.75977
1.71646
2.34398
2.31496
3.12924
2.83116
3.36563
1.76275
1.01892
1.32161
1.312
1.36725
1.26563
1.21564
1.10146
1.00564
0.911983
0.811947
0.774346
0.718881
0.792695
0.831449
1.08193
1.20305
1.62492
1.53834
1.75664
0.291675
0.896876
1.37708
1.35488
1.45555
1.34658
1.30327
1.21652
1.10371
1.07913
0.938197
1.02485
0.905492
1.18918
1.15104
1.75047
1.80524
2.7795
2.65139
3.59085
1.88529
0.580708
1.20348
1.19703
1.34288
1.17822
1.15306
0.956997
0.851287
0.653805
0.515728
0.344744
0.236302
0.148982
0.157493
0.245392
0.43694
0.763077
0.937633
1.21701
0.0834907
0.534851
1.30105
1.25286
1.43637
1.25525
1.23575
1.0518
0.922692
0.763616
0.568333
0.472031
0.268976
0.324298
0.207843
0.581359
0.656528
1.56043
1.72281
3.05519
1.96352
0.305887
1.14289
1.13836
1.35121
1.1495
1.14258
0.88219
0.750846
0.448992
0.238119
-0.0932984
-0.318838
-0.638232
-0.760145
-0.97297
-0.81265
-0.789656
-0.273133
-0.077209
-0.0421172
0.366303
1.25792
1.20411
1.4433
1.23211
1.23335
0.977679
0.823516
0.534256
0.262261
-0.0435058
-0.378054
-0.636564
-0.918993
-0.960395
-0.971598
-0.444322
0.072012
1.62602
2.08799
0.309793
1.1926
1.19139
1.44505
1.23629
1.24406
0.941033
0.777102
0.385334
0.0859139
-0.401353
-0.783376
-1.35693
-1.69918
-2.2919
-2.31035
-2.75417
-1.94161
-2.01568
0.0595445
0.538013
1.34709
1.3069
1.57283
1.36369
1.3789
1.0735
0.889644
0.491129
0.138653
-0.360046
-0.843501
-1.43058
-1.94321
-2.50911
-2.74871
-2.90563
-2.13675
-0.814503
2.05577
0.759399
1.48645
1.47765
1.73794
1.52865
1.53521
1.19925
0.997238
0.539646
0.157724
-0.446187
-0.983119
-1.76907
-2.37877
-3.33641
-3.70602
-4.67165
-3.86113
-4.39493
0.15466
1.22039
1.74299
1.71128
1.96605
1.75036
1.75201
1.40123
1.17985
0.704314
0.286555
-0.344834
-0.953011
-1.79488
-2.54863
-3.60587
-4.22155
-5.24612
-4.61716
-4.43074
1.01685
1.85177
2.23491
2.17362
2.3784
2.12659
2.08087
1.70572
1.45071
0.963331
0.520839
-0.121635
-0.769063
-1.64885
-2.50732
-3.6861
-4.56776
-5.92575
-5.81144
-6.81749
-0.983346
)
;

boundaryField
{
    cavity
    {
        type            implicitExtrapolation;
    }
    lid
    {
        type            implicitExtrapolation;
    }
    frontAndBack
    {
        type            empty;
    }
}


// ************************************************************************* //
