/*--------------------------------*- C++ -*----------------------------------*\
| =========                 |                                                 |
| \\      /  F ield         | foam-extend: Open Source CFD                    |
|  \\    /   O peration     | Version:  3.0                                   |
|   \\  /    A nd           | Web:         http://www.extend-project.de       |
|    \\/     M anipulation  |                                                 |
\*---------------------------------------------------------------------------*/
FoamFile
{
    version     2.0;
    format      ascii;
    class       volScalarField;
    location    "8.3";
    object      Theta;
}
// * * * * * * * * * * * * * * * * * * * * * * * * * * * * * * * * * * * * * //

dimensions      [0 0 0 0 0 0 0];

internalField   nonuniform List<scalar> 
400
(
0.394686
-0.223816
-0.267493
-0.370203
-0.267235
-0.231137
-0.111854
-0.0426002
0.0665866
0.141853
0.244551
0.317448
0.418986
0.476451
0.569717
0.576887
0.625682
0.491538
0.390408
-0.158321
1.22995
0.725618
0.603163
0.402281
0.389843
0.298684
0.302634
0.249162
0.247018
0.203051
0.192325
0.142963
0.125023
0.0566255
0.0299869
-0.0800661
-0.13241
-0.337207
-0.483994
-0.918763
0.952919
0.480002
0.409552
0.258175
0.269159
0.215079
0.234296
0.209109
0.223032
0.204934
0.215354
0.194994
0.20501
0.171347
0.177588
0.105661
0.0861871
-0.0847405
-0.198366
-0.619987
0.945951
0.649965
0.556229
0.426877
0.404079
0.336234
0.325326
0.278092
0.266284
0.226261
0.215506
0.176843
0.170749
0.124869
0.119635
0.044427
0.0139666
-0.141456
-0.268612
-0.58461
0.675196
0.413581
0.372614
0.276926
0.281539
0.240052
0.249588
0.226841
0.23713
0.223652
0.241374
0.234373
0.26662
0.257966
0.302374
0.263309
0.289825
0.147007
0.0655682
-0.326054
0.571899
0.418405
0.380751
0.314357
0.308127
0.27025
0.26775
0.240984
0.242092
0.224921
0.238967
0.23359
0.270855
0.273203
0.334273
0.316478
0.3691
0.246098
0.180038
-0.235386
0.387367
0.283229
0.277172
0.235894
0.23997
0.215464
0.218845
0.202814
0.21235
0.207905
0.237442
0.250571
0.3163
0.345733
0.455747
0.469376
0.593946
0.474401
0.471493
-0.0991858
0.27098
0.259746
0.261834
0.246902
0.242273
0.221346
0.213017
0.192902
0.191564
0.182023
0.203916
0.216384
0.281736
0.32173
0.444462
0.48517
0.637489
0.547923
0.563586
-0.0569313
0.134506
0.200457
0.213491
0.22096
0.210115
0.194342
0.17842
0.158071
0.151028
0.140244
0.161004
0.175458
0.251381
0.30257
0.461838
0.526084
0.758646
0.679716
0.804733
0.0183786
0.0174947
0.173407
0.196748
0.226466
0.206703
0.191777
0.162111
0.133852
0.110098
0.0869173
0.0882542
0.0904799
0.14636
0.194738
0.338216
0.424092
0.648923
0.624703
0.734905
0.000506723
-0.084249
0.160826
0.17758
0.22788
0.192872
0.179584
0.135225
0.0999229
0.0602854
0.0239081
0.00794651
-0.00608475
0.0372837
0.0738473
0.229074
0.320584
0.622394
0.623437
0.920273
0.0905254
-0.186284
0.128705
0.162229
0.229172
0.190162
0.176307
0.119505
0.0734207
0.0129496
-0.0433662
-0.0907737
-0.131411
-0.132355
-0.119363
-0.0227298
0.0745868
0.300905
0.388144
0.583284
0.0203721
-0.24409
0.143309
0.158626
0.243524
0.189364
0.177417
0.105588
0.0496073
-0.0316273
-0.109512
-0.186377
-0.259952
-0.296206
-0.322283
-0.24653
-0.174389
0.111751
0.231697
0.715373
0.196466
-0.306454
0.114335
0.153848
0.249021
0.19894
0.18657
0.106278
0.0386736
-0.0640106
-0.166423
-0.281654
-0.393408
-0.492698
-0.564128
-0.588404
-0.535626
-0.408516
-0.180602
0.0492715
0.0803756
-0.29894
0.151505
0.16969
0.279039
0.220017
0.211114
0.119202
0.0414
-0.0821295
-0.209598
-0.35943
-0.514638
-0.664896
-0.800147
-0.877718
-0.891833
-0.738193
-0.49647
0.123614
0.368253
-0.287731
0.155536
0.199323
0.31249
0.262443
0.25259
0.155287
0.0661014
-0.0763099
-0.228277
-0.415008
-0.612351
-0.830189
-1.02661
-1.22658
-1.29339
-1.36806
-1.03523
-0.874017
0.183312
-0.184238
0.228336
0.255407
0.377165
0.324063
0.31682
0.210569
0.111469
-0.0485937
-0.22362
-0.441585
-0.682547
-0.954143
-1.22757
-1.50383
-1.68109
-1.78313
-1.49988
-0.919471
0.476
-0.0533329
0.317514
0.360034
0.47677
0.427225
0.413296
0.300514
0.18929
0.0156964
-0.178879
-0.422012
-0.698281
-1.02181
-1.35963
-1.74557
-2.01562
-2.35783
-2.0887
-2.14744
0.113561
0.173417
0.453913
0.487217
0.603191
0.548525
0.529938
0.407062
0.285073
0.099017
-0.111941
-0.374844
-0.683221
-1.04748
-1.45574
-1.92109
-2.32819
-2.7691
-2.65573
-2.50453
0.0634234
0.485216
0.708167
0.729174
0.819231
0.746737
0.70235
0.568576
0.428789
0.24021
0.0170001
-0.245148
-0.572635
-0.945383
-1.40713
-1.91619
-2.46584
-3.04152
-3.22191
-3.57737
-0.872997
)
;

boundaryField
{
    cavity
    {
        type            implicitExtrapolation;
    }
    lid
    {
        type            implicitExtrapolation;
    }
    frontAndBack
    {
        type            empty;
    }
}


// ************************************************************************* //
