/*--------------------------------*- C++ -*----------------------------------*\
| =========                 |                                                 |
| \\      /  F ield         | foam-extend: Open Source CFD                    |
|  \\    /   O peration     | Version:  3.0                                   |
|   \\  /    A nd           | Web:         http://www.extend-project.de       |
|    \\/     M anipulation  |                                                 |
\*---------------------------------------------------------------------------*/
FoamFile
{
    version     2.0;
    format      ascii;
    class       volVectorField;
    location    "8.3";
    object      u;
}
// * * * * * * * * * * * * * * * * * * * * * * * * * * * * * * * * * * * * * //

dimensions      [0 0 0 0 0 0 0];

internalField   nonuniform List<vector> 
400
(
(-3.13226 8.16006 3.7876e-315)
(-2.64322 5.53989 3.37281e-315)
(-7.13786 6.00745 2.99382e-315)
(-7.00421 3.6235 2.70057e-315)
(-9.76379 4.08159 2.36871e-315)
(-9.92601 2.58576 2.16468e-315)
(-11.4583 2.86447 1.87362e-315)
(-11.7123 1.92325 1.7329e-315)
(-12.3689 2.1127 1.47866e-315)
(-12.5525 1.37802 1.38306e-315)
(-12.5002 1.49332 1.16274e-315)
(-12.4729 0.718306 1.09891e-315)
(-11.7401 0.755903 9.11094e-316)
(-11.3929 -0.236317 8.6781e-316)
(-9.91048 -0.19267 7.14245e-316)
(-9.24472 -1.55939 6.81514e-316)
(-6.86716 -1.29409 5.6809e-316)
(-6.11638 -3.15384 5.40521e-316)
(-2.64888 -2.66875 4.76114e-316)
(-2.20375 -4.49962 4.61117e-316)
(-0.603711 1.47052 2.67942e-315)
(-1.77596 1.21331 2.42703e-315)
(-3.02249 1.33125 2.19203e-315)
(-3.61719 0.830395 2.01318e-315)
(-4.84803 0.838609 1.80639e-315)
(-5.15058 0.296407 1.67361e-315)
(-6.06806 0.148053 1.49e-315)
(-6.22488 -0.356223 1.38773e-315)
(-6.68758 -0.675371 1.22371e-315)
(-6.72248 -1.10694 1.14357e-315)
(-6.70379 -1.57911 9.97831e-316)
(-6.592 -1.92701 9.34365e-316)
(-6.13191 -2.5005 8.07051e-316)
(-5.8286 -2.75348 7.55209e-316)
(-5.03353 -3.33072 6.47688e-316)
(-4.4602 -3.45971 6.02015e-316)
(-3.54042 -3.8675 5.16915e-316)
(-2.54883 -3.82729 4.74314e-316)
(-1.82081 -3.79344 4.1516e-316)
(-0.259199 -3.48309 3.85717e-316)
(-1.4818 11.1634 2.09646e-315)
(-2.12954 8.81592 1.91959e-315)
(-4.02231 8.40139 1.753e-315)
(-4.37312 6.14136 1.62363e-315)
(-5.54855 6.12425 1.46852e-315)
(-5.84565 4.23957 1.36442e-315)
(-6.51792 4.26444 1.22049e-315)
(-6.82675 2.68908 1.13528e-315)
(-7.09555 2.65855 1.00322e-315)
(-7.39571 1.2416 9.33457e-316)
(-7.30083 1.0971 8.14038e-316)
(-7.4956 -0.292563 7.56638e-316)
(-7.05747 -0.583143 6.50534e-316)
(-6.97569 -2.011 6.02291e-316)
(-6.23251 -2.41455 5.10921e-316)
(-5.65282 -3.86911 4.69522e-316)
(-4.69696 -4.27513 3.95903e-316)
(-3.43206 -5.69947 3.63981e-316)
(-2.41371 -6.08681 3.14007e-316)
(-0.499141 -7.41361 3.07088e-316)
(-0.0239896 7.01566 1.03318e-315)
(-0.773016 5.18419 1.06358e-315)
(-1.01121 4.8483 1.04301e-315)
(-1.4056 3.25558 1.03985e-315)
(-1.74874 3.17276 9.92253e-316)
(-1.93648 1.85813 9.64327e-316)
(-2.2355 1.72269 9.01146e-316)
(-2.36665 0.602033 8.60797e-316)
(-2.51913 0.274297 7.90599e-316)
(-2.66308 -0.711792 7.46499e-316)
(-2.62063 -1.32802 6.7588e-316)
(-2.78057 -2.20406 6.33109e-316)
(-2.54048 -3.1688 5.66528e-316)
(-2.64487 -3.90237 5.27056e-316)
(-2.26486 -5.19266 4.66477e-316)
(-2.12291 -5.6768 4.28207e-316)
(-1.77871 -7.07047 3.7132e-316)
(-1.05867 -7.17102 3.22826e-316)
(-1.1104 -8.08065 2.58302e-316)
(0.390566 -7.77611 1.57061e-316)
(-0.726779 11.8543 6.53833e-316)
(-1.17675 9.82463 7.54018e-316)
(-2.18813 8.94921 7.76492e-316)
(-2.45357 6.88954 8.01753e-316)
(-3.07688 6.59317 7.82431e-316)
(-3.40744 4.70066 7.69481e-316)
(-3.71394 4.64086 7.26907e-316)
(-4.2093 2.91376 6.968e-316)
(-4.25309 2.88413 6.42846e-316)
(-4.91585 1.24931 6.05823e-316)
(-4.71312 1.09981 5.47561e-316)
(-5.45904 -0.506979 5.07828e-316)
(-4.99203 -0.911197 4.48675e-316)
(-5.61742 -2.46888 4.06378e-316)
(-4.86605 -3.25505 3.46893e-316)
(-5.00184 -4.587 2.98066e-316)
(-4.02974 -5.82407 2.35446e-316)
(-3.16477 -6.61734 1.69081e-316)
(-2.27189 -8.06946 9.40574e-317)
(-0.142245 -8.28864 -1.853e-317)
(-0.357441 9.60683 -1.20631e-316)
(-0.0230735 7.22739 1.39778e-316)
(-0.488306 6.62814 2.71977e-316)
(-0.229691 4.53239 3.92506e-316)
(-0.481235 4.51535 4.48279e-316)
(-0.381708 2.78023 4.93825e-316)
(-0.497601 2.85107 5.03801e-316)
(-0.587113 1.37714 5.10018e-316)
(-0.60597 1.26956 4.9455e-316)
(-0.912676 -0.0513573 4.81487e-316)
(-0.823389 -0.547632 4.5407e-316)
(-1.37664 -1.78571 4.3353e-316)
(-1.10896 -2.88692 4.0312e-316)
(-1.91201 -4.01325 3.82457e-316)
(-1.33255 -5.91332 3.5515e-316)
(-2.30059 -6.70902 3.38924e-316)
(-1.25707 -9.37676 3.18817e-316)
(-2.12768 -9.39272 3.08516e-316)
(-0.588707 -11.9341 2.9778e-316)
(-0.930477 -10.8477 2.90485e-316)
(-0.644269 12.1027 -1.70834e-316)
(-0.261375 9.75888 7.70178e-317)
(-1.05236 8.99644 2.03041e-316)
(-0.961426 6.6876 3.08396e-316)
(-1.31433 6.60262 3.62075e-316)
(-1.625 4.56728 4.00222e-316)
(-1.68255 4.74523 4.12082e-316)
(-2.38214 2.928 4.17099e-316)
(-2.24179 3.15665 4.05764e-316)
(-3.32568 1.42182 3.93673e-316)
(-3.00091 1.54823 3.69889e-316)
(-4.45588 -0.240593 3.48334e-316)
(-3.85232 -0.388134 3.17838e-316)
(-5.57684 -2.28523 2.89763e-316)
(-4.47663 -2.94292 2.55152e-316)
(-6.1518 -4.78997 2.20052e-316)
(-4.25789 -6.22969 1.82046e-316)
(-5.21658 -7.55477 1.37138e-316)
(-2.36017 -9.69389 9.47164e-317)
(-1.76849 -10.187 3.94547e-317)
(-0.347115 10.7162 -5.89448e-316)
(0.474311 7.77536 -2.6984e-316)
(0.146768 7.49701 -8.71962e-317)
(0.680379 4.9002 6.96854e-317)
(0.632998 5.33274 1.63814e-316)
(0.837674 3.25581 2.36555e-316)
(0.917933 3.76943 2.77021e-316)
(0.826477 2.06257 3.04658e-316)
(0.936751 2.40175 3.1457e-316)
(0.526586 0.859342 3.1884e-316)
(0.661018 0.805738 3.13337e-316)
(-0.165142 -0.768749 3.07628e-316)
(0.130221 -1.52999 2.97335e-316)
(-1.2789 -3.2519 2.91471e-316)
(-0.462276 -5.16219 2.85361e-316)
(-2.65532 -6.9031 2.89229e-316)
(-0.675113 -10.3358 2.97512e-316)
(-3.72303 -11.4916 3.25527e-316)
(0.202469 -15.7682 3.62801e-316)
(-3.09316 -15.485 4.4611e-316)
(-0.107308 11.8523 -3.78635e-316)
(0.383303 9.07206 -1.49795e-316)
(0.32172 8.64694 -1.61968e-317)
(0.296718 6.0243 9.1236e-317)
(0.457243 6.32585 1.606e-316)
(-0.0267554 4.15785 2.10199e-316)
(0.272832 4.67695 2.40299e-316)
(-0.624996 2.84124 2.5909e-316)
(-0.263994 3.42055 2.66025e-316)
(-1.64239 1.67787 2.67292e-316)
(-1.21719 2.23874 2.60832e-316)
(-3.2221 0.295943 2.518e-316)
(-2.569 0.730833 2.37825e-316)
(-5.34125 -1.70862 2.22409e-316)
(-4.01736 -1.61276 2.04731e-316)
(-7.49947 -4.69019 1.854e-316)
(-4.6654 -5.34677 1.67754e-316)
(-8.19506 -8.71997 1.50651e-316)
(-2.70065 -10.7184 1.39899e-316)
(-4.50613 -13.5177 1.52293e-316)
(0.247132 10.4799 -5.5889e-316)
(0.673455 7.37707 -3.12398e-316)
(1.20788 7.60887 -1.57923e-316)
(1.44822 4.78653 -2.6983e-317)
(1.96314 5.67663 5.92936e-317)
(2.02074 3.45985 1.26241e-316)
(2.46293 4.39154 1.68918e-316)
(2.34384 2.62296 1.99061e-316)
(2.65435 3.45631 2.15776e-316)
(2.30003 1.84583 2.25746e-316)
(2.46931 2.4477 2.28727e-316)
(1.72262 0.630258 2.29688e-316)
(1.8949 0.68953 2.28206e-316)
(0.450045 -1.74173 2.29471e-316)
(1.1108 -2.85511 2.32279e-316)
(-1.55869 -6.18317 2.45078e-316)
(0.675954 -9.44919 2.63137e-316)
(-3.91381 -13.384 3.063e-316)
(1.58292 -19.2873 3.56396e-316)
(-4.79351 -22.6343 4.6964e-316)
(1.03054 10.8936 -2.51886e-316)
(0.729651 8.03441 -1.32359e-316)
(1.98769 7.82506 -4.16871e-317)
(1.32586 5.20579 3.01583e-317)
(2.26297 5.72247 8.57372e-317)
(1.45512 3.62354 1.26578e-316)
(2.23041 4.3426 1.56114e-316)
(1.23379 2.64072 1.76231e-316)
(1.85768 3.46504 1.88335e-316)
(0.475431 1.86909 1.94743e-316)
(0.961433 2.80877 1.95707e-316)
(-1.13224 0.873764 1.93251e-316)
(-0.62393 1.94809 1.87347e-316)
(-3.87309 -0.953831 1.78959e-316)
(-2.79528 0.224349 1.68788e-316)
(-7.60958 -4.3611 1.56039e-316)
(-4.61307 -3.36458 1.42978e-316)
(-10.6949 -9.85223 1.29173e-316)
(-3.2073 -10.3893 1.15137e-316)
(-7.76564 -17.0269 1.14752e-316)
(1.05489 8.92805 -3.13458e-316)
(0.682675 6.53 -1.83998e-316)
(2.40146 7.06094 -8.88628e-317)
(2.11004 4.53211 -5.52882e-318)
(3.37435 5.53853 5.25977e-317)
(3.20066 3.47595 9.95388e-317)
(4.11398 4.57015 1.31004e-316)
(4.00875 2.94672 1.5396e-316)
(4.58716 4.12668 1.67919e-316)
(4.47563 2.64753 1.7659e-316)
(4.69342 3.90117 1.80456e-316)
(4.44393 2.06387 1.82263e-316)
(4.34902 3.20069 1.82412e-316)
(3.68673 0.238065 1.84308e-316)
(3.64166 0.625991 1.871e-316)
(1.94868 -4.48579 1.97907e-316)
(3.1039 -6.42167 2.10592e-316)
(-0.935315 -14.5016 2.42727e-316)
(3.66137 -21.5031 2.73837e-316)
(-4.22335 -32.1397 3.38988e-316)
(2.35296 9.32472 -1.23379e-316)
(0.823782 6.79363 -8.7075e-317)
(3.43847 6.56053 -3.21837e-317)
(2.0151 4.32351 1.29087e-317)
(3.71119 4.77833 5.35796e-317)
(2.64919 2.97893 8.52258e-317)
(3.89423 3.67225 1.1044e-316)
(2.98302 2.26191 1.29001e-316)
(3.8705 3.12213 1.42089e-316)
(2.81251 1.84273 1.50521e-316)
(3.33494 2.92561 1.54859e-316)
(1.71784 1.26457 1.55911e-316)
(1.92438 2.69594 1.53952e-316)
(-0.910841 -0.25074 1.48934e-316)
(-0.617697 1.74941 1.41145e-316)
(-5.64475 -3.88303 1.28505e-316)
(-3.72141 -1.0882 1.11875e-316)
(-11.6217 -10.5695 8.51102e-317)
(-3.79417 -8.2447 5.15082e-317)
(-11.4218 -18.3029 -9.01486e-318)
(1.638 6.43396 -5.6365e-317)
(0.74102 5.66154 7.80164e-318)
(3.46589 6.06775 4.11718e-317)
(2.83824 4.27955 7.78439e-317)
(4.80786 4.97592 1.01037e-316)
(4.50167 3.28864 1.23001e-316)
(5.8929 4.24858 1.37657e-316)
(5.86863 2.9272 1.48793e-316)
(6.75425 4.21257 1.55171e-316)
(7.00145 3.04311 1.58401e-316)
(7.33687 4.7354 1.58706e-316)
(7.86637 3.16795 1.57481e-316)
(7.52224 5.28708 1.55095e-316)
(8.32675 2.26292 1.53806e-316)
(7.22019 4.46838 1.52717e-316)
(8.11134 -1.96767 1.57249e-316)
(6.66688 -1.3898 1.61541e-316)
(6.53671 -14.2406 1.77125e-316)
(6.16729 -20.9844 1.88839e-316)
(1.26161 -43.4637 2.02429e-316)
(3.32147 7.38949 -2.61979e-316)
(0.695005 5.34468 -1.60488e-316)
(4.02054 4.94847 -9.39567e-317)
(2.15398 3.29698 -3.7921e-317)
(4.24536 3.5337 3.90329e-318)
(3.17973 2.17538 3.72406e-317)
(4.71334 2.68342 6.37321e-317)
(4.05598 1.66227 8.44046e-317)
(5.12794 2.35532 1.00406e-316)
(4.58163 1.50235 1.12247e-316)
(5.13459 2.4215 1.20553e-316)
(4.3622 1.28358 1.2563e-316)
(4.26932 2.56099 1.27665e-316)
(2.6296 0.186555 1.26141e-316)
(1.8961 2.14311 1.20898e-316)
(-1.98069 -3.28595 1.08761e-316)
(-2.16366 0.149628 9.08405e-317)
(-10.6441 -10.3448 5.55428e-317)
(-4.28255 -4.9614 1.30879e-317)
(-16.423 -14.1073 -7.73792e-317)
(1.804 3.65765 3.63328e-316)
(1.17482 5.1337 3.34041e-316)
(4.63618 4.96022 2.70567e-316)
(4.11566 4.04673 2.33049e-316)
(6.75625 4.15885 2.09798e-316)
(6.45867 2.88589 1.97925e-316)
(8.33225 3.54073 1.91198e-316)
(8.40899 2.5686 1.8623e-316)
(9.64408 3.75188 1.81134e-316)
(10.2645 2.9769 1.75007e-316)
(10.8649 4.7956 1.6772e-316)
(12.2696 3.72118 1.59689e-316)
(11.9585 6.41438 1.5122e-316)
(14.5619 3.89117 1.43879e-316)
(12.5795 7.66468 1.37077e-316)
(17.1454 0.900125 1.35021e-316)
(12.0605 4.87397 1.33383e-316)
(19.4801 -12.4813 1.40628e-316)
(8.72075 -16.0078 1.46421e-316)
(15.6122 -56.4527 1.53803e-316)
(3.48811 5.19956 -6.85082e-316)
(0.282559 3.43144 -4.12568e-316)
(2.98345 2.97783 -2.81364e-316)
(1.2534 1.91022 -1.77394e-316)
(2.95714 1.99891 -1.12657e-316)
(2.18837 1.15772 -6.30295e-317)
(3.55359 1.4347 -2.55495e-317)
(3.20843 0.847576 4.46904e-318)
(4.20315 1.2188 2.89088e-317)
(4.06518 0.803121 4.88623e-317)
(4.56467 1.26655 6.50926e-317)
(4.46616 0.752473 7.7855e-317)
(4.21841 1.33039 8.72003e-317)
(3.75693 0.0737716 9.23851e-317)
(2.38038 0.845674 9.3049e-317)
(0.256158 -2.58827 8.55689e-317)
(-1.71817 -1.00817 7.20388e-317)
(-9.75354 -8.1328 4.00081e-317)
(-4.53604 -2.89762 3.94981e-318)
(-26.2357 -0.238366 -7.02261e-317)
(1.54717 1.37443 1.48485e-315)
(2.43703 5.33953 9.41257e-316)
(7.09561 4.22496 6.78997e-316)
(7.08519 3.92538 4.89769e-316)
(10.9266 3.43824 4.05978e-316)
(10.616 2.40358 3.50325e-316)
(13.2644 2.77955 3.20339e-316)
(13.366 2.06814 2.96553e-316)
(15.1557 3.08674 2.77078e-316)
(16.1696 2.65434 2.57787e-316)
(17.3482 4.3862 2.38573e-316)
(19.8186 3.82861 2.19229e-316)
(20.1511 6.64788 2.00306e-316)
(24.9554 4.92339 1.83163e-316)
(23.0428 9.58965 1.67707e-316)
(31.996 3.40017 1.57586e-316)
(23.3738 10.9596 1.49044e-316)
(40.9097 -10.3569 1.50556e-316)
(12.9885 -4.8377 1.52053e-316)
(45.2918 -72.6309 1.7038e-316)
(2.7111 2.6148 -1.48611e-315)
(-0.696267 0.231823 -9.20473e-316)
(-0.987757 0.276905 -6.4973e-316)
(-2.05826 -0.266665 -4.46796e-316)
(-2.44457 -0.0264202 -3.41013e-316)
(-2.64347 -0.17014 -2.63401e-316)
(-2.59775 -0.122904 -2.10688e-316)
(-2.6929 -0.201927 -1.67692e-316)
(-2.55645 -0.322448 -1.32089e-316)
(-2.8133 -0.365843 -1.00759e-316)
(-2.86528 -0.67733 -7.3074e-317)
(-3.46967 -0.676441 -4.86505e-317)
(-3.93332 -1.33311 -2.77999e-317)
(-5.21952 -1.266 -1.14647e-317)
(-6.22983 -2.70588 -7.57798e-320)
(-9.20467 -2.3034 2.86507e-318)
(-9.55925 -5.44614 7.03327e-319)
(-19.1793 -1.9489 -1.64333e-317)
(-6.95818 -5.43973 -3.38091e-317)
(-48.6831 30.266 -6.74318e-317)
(0.119871 0.303013 3.41126e-315)
(5.08407 7.09942 1.71508e-315)
(13.9333 4.74519 1.17839e-315)
(14.5213 4.48115 8.06401e-316)
(21.8926 3.55296 6.85785e-316)
(21.1619 2.32788 6.06738e-316)
(25.9577 2.63577 5.72374e-316)
(25.9109 1.91528 5.42575e-316)
(29.2118 2.97184 5.17098e-316)
(30.9736 2.67798 4.89014e-316)
(33.6608 4.50497 4.59305e-316)
(38.3576 4.226 4.27984e-316)
(40.549 7.25223 3.96373e-316)
(49.8479 5.95667 3.66377e-316)
(49.7475 11.2504 3.37949e-316)
(66.5598 5.08687 3.1447e-316)
(55.5467 15.7855 2.90674e-316)
(87.0785 -11.1743 2.73423e-316)
(31.234 11.7911 2.53203e-316)
(100.087 -97.9184 2.51656e-316)
)
;

boundaryField
{
    cavity
    {
        type            myImplicitVelocity;
    }
    lid
    {
        type            fixedValue;
        value           uniform (1 0 0);
    }
    frontAndBack
    {
        type            empty;
    }
}


// ************************************************************************* //
