/*--------------------------------*- C++ -*----------------------------------*\
| =========                 |                                                 |
| \\      /  F ield         | foam-extend: Open Source CFD                    |
|  \\    /   O peration     | Version:  3.0                                   |
|   \\  /    A nd           | Web:         http://www.extend-project.de       |
|    \\/     M anipulation  |                                                 |
\*---------------------------------------------------------------------------*/
FoamFile
{
    version     2.0;
    format      ascii;
    class       volScalarField;
    location    "29";
    object      p;
}
// * * * * * * * * * * * * * * * * * * * * * * * * * * * * * * * * * * * * * //

dimensions      [0 0 0 0 0 0 0];

internalField   nonuniform List<scalar> 
224
(
-0.257513
-0.200609
-0.197552
-0.179364
-0.183082
-0.179221
-0.175212
-0.247622
-0.192903
-0.189962
-0.172473
-0.176048
-0.172335
-0.16848
-0.228205
-0.177777
-0.175068
-0.15895
-0.162245
-0.158824
-0.155271
-0.200028
-0.155826
-0.153451
-0.139323
-0.14221
-0.139211
-0.136097
-0.164154
-0.12788
-0.125931
-0.114337
-0.116707
-0.114246
-0.111691
-0.121982
-0.0950263
-0.0935777
-0.0849621
-0.0867227
-0.0848938
-0.0829946
-0.0751123
-0.0585144
-0.0576227
-0.0523178
-0.0534021
-0.0522761
-0.0511068
-0.0253656
-0.0197602
-0.0194587
-0.017667
-0.0180329
-0.0176524
-0.0172574
0.025365
0.0197596
0.0194584
0.0176667
0.0180328
0.0176525
0.0172575
0.0751115
0.0585137
0.0576222
0.0523174
0.053402
0.0522762
0.0511068
0.121981
0.0950254
0.0935771
0.0849616
0.0867224
0.0848936
0.0829944
0.164153
0.127879
0.12593
0.114337
0.116706
0.114246
0.11169
0.200026
0.155825
0.15345
0.139322
0.142209
0.13921
0.136096
0.228203
0.177775
0.175066
0.158949
0.162243
0.158822
0.155269
0.24762
0.192901
0.189961
0.172471
0.176046
0.172333
0.168478
0.257511
0.200607
0.19755
0.179362
0.18308
0.179219
0.17521
0.257516
0.20061
0.197552
0.179364
0.183081
0.17922
0.175211
0.247615
0.192897
0.189958
0.172469
0.176044
0.172331
0.168476
0.228207
0.177778
0.175068
0.15895
0.162244
0.158823
0.15527
0.200021
0.155821
0.153446
0.139319
0.142206
0.139208
0.136094
0.164157
0.127881
0.125932
0.114337
0.116707
0.114246
0.11169
0.121975
0.0950211
0.093573
0.0849581
0.086719
0.0848905
0.0829915
0.0751149
0.0585156
0.0576235
0.0523179
0.0534021
0.0522757
0.0511062
0.0253589
0.0197551
0.0194541
0.0176631
0.0180293
0.0176492
0.0172544
-0.0253623
-0.0197583
-0.0194575
-0.0176665
-0.0180329
-0.0176528
-0.0172581
-0.0751182
-0.0585189
-0.0576269
-0.0523213
-0.0534056
-0.0522793
-0.0511098
-0.121978
-0.0950242
-0.0935763
-0.0849615
-0.0867225
-0.0848941
-0.0829951
-0.16416
-0.127884
-0.125935
-0.114341
-0.11671
-0.114249
-0.111693
-0.200024
-0.155823
-0.153449
-0.139322
-0.14221
-0.139211
-0.136097
-0.22821
-0.177781
-0.175071
-0.158953
-0.162247
-0.158826
-0.155273
-0.247617
-0.1929
-0.18996
-0.172472
-0.176046
-0.172334
-0.168479
-0.257518
-0.200612
-0.197555
-0.179366
-0.183084
-0.179223
-0.175214
)
;

boundaryField
{
    out
    {
        type            implicitExtrapolation;
    }
    in
    {
        type            implicitExtrapolation;
    }
    frontAndBack
    {
        type            empty;
    }
}


// ************************************************************************* //
