/*--------------------------------*- C++ -*----------------------------------*\
| =========                 |                                                 |
| \\      /  F ield         | foam-extend: Open Source CFD                    |
|  \\    /   O peration     | Version:  3.0                                   |
|   \\  /    A nd           | Web:         http://www.extend-project.de       |
|    \\/     M anipulation  |                                                 |
\*---------------------------------------------------------------------------*/
FoamFile
{
    version     2.0;
    format      ascii;
    class       volVectorField;
    location    "38";
    object      u;
}
// * * * * * * * * * * * * * * * * * * * * * * * * * * * * * * * * * * * * * //

dimensions      [0 0 0 0 0 0 0];

internalField   nonuniform List<vector> 
7680
(
(0.117741 -0.0348804 4.2325e-17)
(0.15924 -0.0301302 4.76002e-17)
(0.332601 -0.0283624 -4.05044e-17)
(0.353531 -0.0244773 3.6934e-17)
(0.486662 -0.0236422 -2.00933e-17)
(0.496196 -0.020676 2.01068e-17)
(0.60093 -0.02019 -8.9963e-18)
(0.603199 -0.0179674 -9.52274e-18)
(0.687881 -0.0176413 -1.83624e-17)
(0.685025 -0.0159815 -1.42557e-17)
(0.755332 -0.0157602 -2.01262e-17)
(0.748675 -0.0145138 2.58866e-17)
(0.808455 -0.0143735 -3.46667e-17)
(0.798894 -0.0134338 2.83437e-17)
(0.850816 -0.013353 -1.29409e-17)
(0.838958 -0.0126459 4.05285e-17)
(0.884936 -0.0126051 -3.3645e-17)
(0.871178 -0.0120771 5.71159e-17)
(0.912632 -0.0120637 -3.85023e-17)
(0.897223 -0.0116731 4.41298e-17)
(0.935228 -0.011684 -4.23611e-17)
(0.918316 -0.0113958 4.42131e-17)
(0.953702 -0.0114359 -3.74921e-17)
(0.93537 -0.0112187 5.42565e-17)
(0.968786 -0.0112987 -4.01352e-17)
(0.949077 -0.0111266 4.05524e-17)
(0.981031 -0.0112579 -2.00404e-17)
(0.959971 -0.0111194 2.83011e-17)
(0.990873 -0.0113064 -2.0897e-17)
(0.968481 -0.0112266 1.44142e-17)
(0.99869 -0.011446 -1.20606e-17)
(0.974974 -0.0115341 9.73478e-18)
(1.00486 -0.0116786 -8.25916e-18)
(0.979816 -0.0122266 4.63796e-18)
(1.00967 -0.012014 7.69843e-18)
(0.98364 -0.0131906 -5.44384e-18)
(1.01229 -0.0132884 1.81464e-17)
(0.989964 -0.0109792 -1.74737e-17)
(1.00563 -0.0160279 2.03016e-17)
(1.01107 -0.00909968 -1.8122e-17)
(0.122085 -0.100144 -5.02747e-17)
(0.162987 -0.0860144 -7.0375e-17)
(0.336297 -0.0803655 4.58548e-17)
(0.356719 -0.0683552 -4.59762e-17)
(0.489893 -0.0652167 -6.41288e-18)
(0.499024 -0.0558138 3.34599e-18)
(0.603811 -0.0536969 1.26694e-17)
(0.605762 -0.0465482 3.3926e-17)
(0.690497 -0.0449339 4.53124e-17)
(0.687383 -0.039492 5.04967e-17)
(0.757743 -0.0382037 1.70279e-17)
(0.75087 -0.0340061 -3.44981e-18)
(0.810699 -0.0329641 1.93172e-17)
(0.800949 -0.0296841 -7.68699e-18)
(0.852911 -0.0288272 -2.75945e-17)
(0.840882 -0.026247 -4.06246e-17)
(0.886888 -0.0255203 4.40522e-17)
(0.872971 -0.0234902 -9.47778e-17)
(0.914436 -0.0228478 7.58848e-17)
(0.898876 -0.021258 -8.51583e-17)
(0.936872 -0.0206669 5.9716e-17)
(0.919812 -0.019432 -6.98699e-17)
(0.955161 -0.0188748 4.53426e-17)
(0.936679 -0.0179294 -8.60066e-17)
(0.970015 -0.0174051 4.07911e-17)
(0.950145 -0.0167043 -4.93445e-17)
(0.981953 -0.0162242 6.00915e-19)
(0.96071 -0.0157521 -2.66668e-17)
(0.991344 -0.0153218 -6.71075e-18)
(0.968738 -0.0151112 1.32396e-18)
(0.998442 -0.0146885 -4.64065e-18)
(0.97451 -0.0148443 6.10566e-18)
(1.00342 -0.0142519 2.01779e-18)
(0.978384 -0.0148709 -7.99508e-18)
(1.00638 -0.0139959 -2.25439e-18)
(0.981531 -0.013506 -1.19598e-17)
(1.00676 -0.0173286 1.74965e-17)
(0.98841 -0.000574551 -3.39021e-18)
(1.00166 -0.036614 -8.83261e-18)
(1.00454 0.0164194 3.20298e-17)
(0.130759 -0.165556 5.24572e-17)
(0.17032 -0.140704 6.27077e-17)
(0.342939 -0.131213 -8.83303e-17)
(0.362277 -0.11099 1.02425e-16)
(0.494987 -0.105655 -1.60019e-17)
(0.503284 -0.0899984 -1.17404e-17)
(0.607733 -0.0863936 -5.64723e-17)
(0.609056 -0.0745052 -1.53842e-17)
(0.69352 -0.0717312 -9.13336e-17)
(0.689938 -0.0626822 -7.07881e-17)
(0.760071 -0.0604357 -3.19686e-17)
(0.752849 -0.0534584 -9.44008e-19)
(0.812489 -0.0515982 -9.84345e-18)
(0.80248 -0.0461537 -5.27295e-18)
(0.854289 -0.044566 6.95761e-17)
(0.84207 -0.0402931 5.78169e-17)
(0.887956 -0.0388777 -4.31186e-17)
(0.873898 -0.0355269 1.2862e-16)
(0.915275 -0.0342051 -1.17375e-16)
(0.899608 -0.0315926 1.05945e-16)
(0.937549 -0.0303104 -7.0412e-17)
(0.920404 -0.0282905 1.10013e-16)
(0.955738 -0.0270167 -7.89352e-17)
(0.937177 -0.0254656 1.32898e-16)
(0.970551 -0.0241878 -4.80735e-17)
(0.950598 -0.0229954 9.45502e-17)
(0.982511 -0.0217155 -1.50423e-17)
(0.961165 -0.0207893 5.35242e-17)
(0.991994 -0.0195141 8.51971e-18)
(0.969251 -0.0188004 4.43781e-18)
(0.999261 -0.0175399 -1.31273e-18)
(0.975152 -0.0170639 1.3092e-17)
(1.00446 -0.0159241 -1.58885e-18)
(0.979232 -0.0157001 5.85681e-18)
(1.00738 -0.0157262 3.72451e-18)
(0.982818 -0.0136597 -8.83493e-18)
(1.00541 -0.0221945 1.10038e-17)
(0.992612 -0.00409102 -1.89595e-17)
(0.989493 -0.036693 2.48962e-17)
(1.01718 -0.00247901 -3.01375e-17)
(0.143613 -0.229721 -2.19967e-17)
(0.181272 -0.195543 -1.1411e-16)
(0.35332 -0.182213 2.43137e-16)
(0.37109 -0.154001 -2.40197e-16)
(0.503534 -0.146389 7.57201e-17)
(0.510597 -0.124418 2.46528e-17)
(0.614882 -0.119203 8.79571e-17)
(0.615252 -0.102481 2.58855e-17)
(0.699597 -0.0984371 5.18051e-17)
(0.695271 -0.085679 5.4556e-17)
(0.765313 -0.0823822 9.40739e-17)
(0.757496 -0.0725159 -3.76215e-17)
(0.817062 -0.0697692 1.37216e-17)
(0.806565 -0.0620409 -5.37717e-19)
(0.858309 -0.0596899 -8.30096e-17)
(0.84568 -0.0535968 -1.43008e-17)
(0.891504 -0.0515041 1.77444e-18)
(0.877102 -0.0467023 -1.36622e-16)
(0.918415 -0.044755 1.55229e-16)
(0.902457 -0.0409951 -1.42352e-16)
(0.940331 -0.0391091 8.20975e-17)
(0.922938 -0.0361997 -1.30698e-16)
(0.958202 -0.0343206 7.51662e-17)
(0.939424 -0.0321095 -9.55105e-17)
(0.97273 -0.0302118 -1.49643e-17)
(0.952575 -0.0285762 -6.11278e-17)
(0.984433 -0.0266573 -3.72947e-17)
(0.962884 -0.0255068 -1.49201e-17)
(0.993693 -0.0235709 -5.56173e-17)
(0.97072 -0.022861 2.61212e-17)
(1.00078 -0.0208961 -1.28535e-17)
(0.976367 -0.0205955 -3.12643e-18)
(1.00584 -0.0186601 -5.20851e-17)
(0.980085 -0.0181709 1.03779e-16)
(1.00875 -0.0180615 -8.14431e-17)
(0.982606 -0.0108866 4.02659e-17)
(1.00791 -0.0292727 2.17537e-17)
(0.988385 0.0186233 -2.7813e-17)
(0.996974 -0.065423 1.67407e-17)
(1.00871 0.0208815 -3.24549e-17)
(0.160728 -0.293447 -9.29438e-18)
(0.195721 -0.248899 2.7767e-17)
(0.366603 -0.231852 -3.93556e-16)
(0.382231 -0.195638 3.4159e-16)
(0.513938 -0.185892 -9.38093e-17)
(0.51935 -0.157817 -8.36669e-17)
(0.623109 -0.151155 -1.40008e-16)
(0.622234 -0.129807 1.44212e-17)
(0.706161 -0.124633 -2.93243e-17)
(0.700897 -0.108354 -3.29318e-17)
(0.770594 -0.10412 -1.08774e-16)
(0.762065 -0.0915377 2.07886e-17)
(0.821343 -0.0879879 5.11386e-17)
(0.810303 -0.0781409 -3.11559e-17)
(0.861804 -0.0750711 1.20766e-16)
(0.84876 -0.0673187 -7.24079e-17)
(0.894377 -0.0645489 7.27601e-17)
(0.879655 -0.0584517 2.76864e-17)
(0.920792 -0.0558363 -4.64526e-17)
(0.904583 -0.0510745 5.13523e-17)
(0.94231 -0.048506 7.99455e-18)
(0.924713 -0.0448307 1.39045e-16)
(0.959864 -0.0422369 -7.42982e-17)
(0.940909 -0.0394418 6.66122e-17)
(0.974142 -0.0367807 5.00294e-17)
(0.953809 -0.0346864 6.87128e-17)
(0.985646 -0.0319401 1.2899e-17)
(0.963878 -0.0303939 2.04745e-17)
(0.994734 -0.0275573 1.01282e-16)
(0.971438 -0.0264501 -3.02683e-17)
(1.00165 -0.0235394 4.00459e-17)
(0.976706 -0.0227957 1.6846e-17)
(1.00659 -0.0200866 -3.30644e-17)
(0.979879 -0.0191241 2.69426e-17)
(1.01001 -0.01925 7.6173e-18)
(0.981205 -0.0117354 -2.92081e-17)
(1.01351 -0.0317125 4.12713e-18)
(0.981406 0.0115231 -3.61342e-17)
(1.01722 -0.0571707 4.15763e-17)
(0.988825 -0.00519602 3.45387e-17)
(0.181867 -0.355405 6.8665e-17)
(0.213705 -0.301768 1.16452e-16)
(0.383494 -0.28099 4.41392e-16)
(0.396519 -0.237059 -2.60283e-16)
(0.527653 -0.225104 7.61829e-17)
(0.531025 -0.190941 1.13491e-16)
(0.634407 -0.18272 1.94909e-16)
(0.631962 -0.156714 -6.39114e-17)
(0.715602 -0.150311 -1.20849e-18)
(0.709121 -0.13046 6.32651e-18)
(0.778585 -0.125211 2.51233e-16)
(0.769095 -0.10985 -1.25699e-16)
(0.82818 -0.105445 7.99137e-17)
(0.816364 -0.0934073 -1.25576e-16)
(0.8677 -0.0895992 -3.95343e-17)
(0.854024 -0.0801064 -8.8885e-17)
(0.899493 -0.0766767 1.37912e-16)
(0.884254 -0.0691993 -1.39572e-16)
(0.925254 -0.0659678 1.30204e-16)
(0.908626 -0.0601244 -7.36845e-17)
(0.946225 -0.0569533 1.22753e-17)
(0.928289 -0.0524544 -1.51319e-16)
(0.963327 -0.0492459 3.68463e-17)
(0.944097 -0.0458613 2.34412e-17)
(0.977252 -0.0425513 -1.36261e-16)
(0.956695 -0.040093 2.7457e-17)
(0.988531 -0.0366385 -8.31175e-17)
(0.966571 -0.0349621 6.37397e-18)
(0.997588 -0.0313156 -1.40724e-16)
(0.974106 -0.0303415 8.80428e-18)
(1.00479 -0.0264278 -1.34063e-16)
(0.979582 -0.0261248 6.7294e-17)
(1.01055 -0.0220095 -1.11136e-16)
(0.983098 -0.0217842 9.68371e-17)
(1.01555 -0.0197742 -1.65886e-16)
(0.983764 -0.0127339 7.9912e-17)
(1.0222 -0.0313605 1.45672e-17)
(0.978466 0.0170821 -4.92245e-17)
(1.03102 -0.0663871 -9.8205e-18)
(0.98141 0.0127938 -6.03089e-17)
(0.207139 -0.416355 -7.77406e-17)
(0.235027 -0.352862 -2.53823e-16)
(0.403195 -0.328549 -3.26962e-16)
(0.413059 -0.276966 8.53889e-17)
(0.543193 -0.262978 -4.90245e-17)
(0.544128 -0.222968 3.11874e-17)
(0.646802 -0.213363 -2.21528e-16)
(0.642515 -0.182926 1.38454e-16)
(0.725597 -0.17544 3.72989e-17)
(0.717724 -0.152214 -8.7155e-17)
(0.786727 -0.146066 -2.17293e-16)
(0.776173 -0.128101 6.29184e-17)
(0.83487 -0.122923 2.26023e-17)
(0.822235 -0.108852 1.76201e-16)
(0.873236 -0.104352 4.46012e-17)
(0.858925 -0.0932678 4.04912e-18)
(0.904099 -0.0891871 -4.38213e-17)
(0.888366 -0.0804705 -1.66702e-18)
(0.929099 -0.0765974 -6.87332e-17)
(0.912084 -0.0698023 -8.52067e-18)
(0.949439 -0.0659742 -2.38521e-17)
(0.931196 -0.0607617 6.49096e-17)
(0.966011 -0.0568602 2.61077e-17)
(0.946529 -0.0529604 -2.64972e-17)
(0.979482 -0.0489024 7.5369e-17)
(0.958697 -0.0460977 -5.97343e-17)
(0.990355 -0.0418206 1.06141e-16)
(0.968152 -0.0399543 -5.59165e-17)
(0.999016 -0.0353865 2.10864e-16)
(0.975215 -0.0344071 -3.91936e-17)
(1.00578 -0.0294385 2.54143e-16)
(0.980086 -0.0294336 -6.08957e-17)
(1.01099 -0.0240707 6.1481e-17)
(0.982787 -0.0247969 -4.82642e-18)
(1.01554 -0.0210026 9.97226e-17)
(0.982228 -0.0169541 -6.47315e-17)
(1.02338 -0.0303127 6.3629e-17)
(0.972872 0.00683168 -7.61305e-17)
(1.0409 -0.055516 1.83276e-16)
(0.961371 -0.00814936 -2.40468e-17)
(0.2362 -0.475043 2.00533e-16)
(0.259727 -0.402869 1.36333e-16)
(0.426307 -0.375005 3.84118e-16)
(0.432576 -0.316106 1.49289e-16)
(0.561842 -0.300015 5.72517e-18)
(0.559963 -0.254246 -2.555e-16)
(0.662056 -0.243161 2.22715e-16)
(0.655609 -0.20832 -2.42036e-16)
(0.738241 -0.199668 3.30233e-17)
(0.728701 -0.173067 -2.3332e-17)
(0.797337 -0.165958 2.71829e-16)
(0.785473 -0.14537 -2.86916e-16)
(0.843864 -0.139381 1.18271e-16)
(0.830183 -0.123246 -3.51697e-16)
(0.880921 -0.118043 4.92732e-17)
(0.865768 -0.105323 -1.05777e-16)
(0.910708 -0.10061 1.28756e-16)
(0.894298 -0.0906009 -1.30362e-16)
(0.934814 -0.0861315 1.30422e-16)
(0.91726 -0.0783314 1.06567e-17)
(0.954412 -0.0739124 -2.30257e-17)
(0.935745 -0.0679457 -5.73267e-19)
(0.970376 -0.0634305 -5.8221e-17)
(0.950569 -0.0590067 9.50078e-17)
(0.983373 -0.0542812 -7.5426e-17)
(0.962345 -0.0511762 2.80473e-17)
(0.993928 -0.0461336 -9.79067e-17)
(0.971544 -0.0442021 1.1385e-16)
(1.00247 -0.0386941 -3.59478e-16)
(0.978518 -0.0379226 4.297e-17)
(1.00938 -0.0316956 -2.38807e-16)
(0.983495 -0.0322556 6.96921e-17)
(1.01509 -0.0250441 -2.44964e-17)
(0.986426 -0.026926 -3.28601e-18)
(1.02043 -0.019998 -8.28893e-17)
(0.985739 -0.0189921 7.59843e-17)
(1.02936 -0.02509 1.12237e-17)
(0.973901 0.00218368 -3.93043e-17)
(1.04933 -0.0455944 1.00571e-17)
(0.955587 -0.00743453 -2.2649e-16)
(0.269197 -0.532176 -2.19443e-16)
(0.287566 -0.450815 -1.8537e-16)
(0.45209 -0.419653 -3.57559e-16)
(0.454233 -0.353585 -5.48561e-16)
(0.582252 -0.335594 -7.72439e-17)
(0.577192 -0.284337 4.24208e-16)
(0.678406 -0.271955 -1.67962e-16)
(0.669553 -0.232952 2.9476e-16)
(0.751493 -0.223285 5.83686e-17)
(0.740129 -0.193514 -1.17258e-16)
(0.808194 -0.185559 -8.62208e-17)
(0.794932 -0.162525 2.17123e-16)
(0.852838 -0.155808 -2.43272e-17)
(0.838073 -0.137764 2.44266e-16)
(0.88839 -0.13191 1.83787e-16)
(0.872393 -0.117698 -1.1168e-16)
(0.916952 -0.112374 1.55809e-16)
(0.899884 -0.101207 -9.82275e-17)
(0.940046 -0.0961365 1.09775e-16)
(0.92198 -0.087456 -5.5026e-17)
(0.958791 -0.0824211 -1.21531e-17)
(0.939731 -0.0758112 3.29957e-17)
(0.974023 -0.0706445 -5.36172e-17)
(0.953915 -0.0657897 -3.09277e-17)
(0.986377 -0.060356 2.07568e-17)
(0.965118 -0.0570265 4.10916e-17)
(0.996345 -0.0511932 -6.98752e-17)
(0.973783 -0.049268 2.62595e-16)
(1.00433 -0.0428432 1.41729e-17)
(0.980236 -0.0423905 1.88403e-16)
(1.01067 -0.0350294 6.68442e-17)
(0.984689 -0.0364034 -4.87939e-17)
(1.01575 -0.0276211 6.19016e-17)
(0.9871 -0.0312293 -8.27532e-17)
(1.02039 -0.0214206 7.73432e-17)
(0.985991 -0.0248898 -7.23061e-17)
(1.02845 -0.0219105 6.42191e-17)
(0.973375 -0.0102998 -1.85035e-16)
(1.04912 -0.0297855 3.32211e-16)
(0.94795 -0.0231429 -9.39326e-17)
(0.305685 -0.586585 4.96115e-16)
(0.318551 -0.497114 2.42304e-16)
(0.481026 -0.462645 4.72748e-16)
(0.478642 -0.38979 8.2032e-16)
(0.605518 -0.36984 2.81103e-16)
(0.596919 -0.31325 -4.35709e-16)
(0.697358 -0.299493 7.56128e-17)
(0.685793 -0.256414 -3.64041e-16)
(0.767131 -0.245665 -1.76375e-16)
(0.753679 -0.212772 3.11874e-16)
(0.82125 -0.203925 3.85343e-17)
(0.806355 -0.178465 -1.15763e-16)
(0.863846 -0.170996 1.03168e-16)
(0.847786 -0.151044 -3.2484e-16)
(0.897745 -0.144536 -5.41605e-17)
(0.880712 -0.128813 2.63611e-17)
(0.924949 -0.122897 -1.41769e-16)
(0.907055 -0.110541 -6.03187e-18)
(0.946915 -0.104907 -8.43866e-17)
(0.928198 -0.0953057 8.3161e-17)
(0.964717 -0.0897084 3.21003e-17)
(0.945154 -0.0824127 3.88075e-17)
(0.979162 -0.0766556 1.90923e-17)
(0.958681 -0.0713314 1.08313e-16)
(0.990869 -0.0652464 -1.87895e-16)
(0.969351 -0.0616584 2.51073e-16)
(1.00032 -0.0550654 -1.74116e-16)
(0.9776 -0.0531055 9.36795e-18)
(1.00791 -0.0457329 -2.88243e-16)
(0.983746 -0.0455112 1.40181e-16)
(1.01396 -0.0368774 -2.35098e-16)
(0.987969 -0.0388426 2.27672e-16)
(1.01877 -0.0282214 -2.87373e-16)
(0.990152 -0.0330557 3.41982e-16)
(1.02288 -0.0201288 -3.08778e-16)
(0.988859 -0.0271552 2.06082e-16)
(1.02929 -0.0156531 -1.30046e-16)
(0.976711 -0.0182337 5.03419e-17)
(1.04668 -0.0129339 -4.8811e-17)
(0.949369 -0.0322565 -2.84443e-16)
(0.345843 -0.638922 -8.63919e-16)
(0.35244 -0.541082 -5.08036e-16)
(0.512454 -0.503605 -4.17903e-16)
(0.505052 -0.424184 -9.7658e-16)
(0.630448 -0.402499 -3.42679e-16)
(0.617979 -0.340876 2.26723e-16)
(0.717382 -0.32593 -6.93537e-17)
(0.702885 -0.279033 4.61603e-16)
(0.783408 -0.267352 2.60581e-16)
(0.76773 -0.231549 -3.4882e-16)
(0.834626 -0.221926 -1.37734e-16)
(0.818021 -0.194222 -1.1076e-16)
(0.874939 -0.186084 -1.83283e-17)
(0.85755 -0.164382 8.59573e-17)
(0.907005 -0.157276 1.05336e-16)
(0.888935 -0.140188 -6.48156e-17)
(0.932713 -0.133712 2.02226e-16)
(0.914011 -0.120299 -3.92522e-17)
(0.953434 -0.114116 2.62951e-16)
(0.934095 -0.103718 -2.74062e-16)
(0.97018 -0.0975599 4.66143e-17)
(0.95015 -0.0896947 -1.13503e-16)
(0.983709 -0.0833449 -2.96034e-17)
(0.962894 -0.0776617 -1.07811e-17)
(0.994601 -0.0709314 -1.13988e-16)
(0.972871 -0.0671984 1.16806e-16)
(1.00331 -0.0598785 -2.10719e-16)
(0.980497 -0.0580191 3.46722e-16)
(1.01018 -0.049785 -1.37679e-16)
(0.986086 -0.0499863 3.93466e-18)
(1.01552 -0.0402444 4.71303e-17)
(0.989831 -0.0430998 -6.92673e-18)
(1.01958 -0.030876 -1.93724e-18)
(0.991664 -0.0373695 -1.16565e-17)
(1.02275 -0.0214906 2.3318e-17)
(0.990465 -0.0325208 -5.43918e-18)
(1.02704 -0.0120718 1.2697e-16)
(0.980197 -0.0292497 -1.56885e-16)
(1.03964 0.0037234 3.09511e-16)
(0.953321 -0.0451936 -2.61906e-17)
(0.389138 -0.688118 7.69763e-16)
(0.389174 -0.582889 5.09278e-16)
(0.546717 -0.542411 3.83747e-16)
(0.533933 -0.456848 8.33146e-16)
(0.657936 -0.433384 2.0056e-16)
(0.641263 -0.366944 2.20608e-16)
(0.739714 -0.350751 -7.05785e-17)
(0.722 -0.300175 -2.09832e-16)
(0.801782 -0.287513 -3.6585e-16)
(0.783632 -0.248893 3.86682e-16)
(0.849918 -0.238461 1.05723e-17)
(0.831385 -0.208568 4.25489e-16)
(0.887788 -0.199747 -3.35513e-17)
(0.868874 -0.176323 1.01223e-16)
(0.917881 -0.168623 4.84712e-17)
(0.898598 -0.150172 1.37454e-16)
(0.941969 -0.143157 -2.46358e-16)
(0.922304 -0.128671 1.10944e-16)
(0.961339 -0.121974 -2.38177e-16)
(0.941246 -0.110744 3.58719e-16)
(0.976944 -0.104072 -1.00772e-16)
(0.956339 -0.0955858 1.1052e-16)
(0.9895 -0.088696 2.44714e-17)
(0.968267 -0.0825845 1.89771e-16)
(0.999551 -0.0752618 -1.79081e-16)
(0.977548 -0.0712844 1.82646e-16)
(1.00751 -0.0632825 -1.35039e-16)
(0.984574 -0.0613708 -8.55778e-18)
(1.0137 -0.0523059 -1.35051e-16)
(0.989632 -0.0526791 1.68791e-16)
(1.01834 -0.0418596 -1.58771e-16)
(0.992878 -0.0451858 3.16382e-17)
(1.02155 -0.0314669 -2.56245e-17)
(0.994224 -0.0389416 2.03355e-16)
(1.02344 -0.0206012 -3.28184e-16)
(0.992923 -0.0344901 2.05276e-16)
(1.02485 -0.00708784 -1.89755e-16)
(0.985161 -0.036282 1.01099e-16)
(1.03066 0.0187648 -2.35651e-16)
(0.962495 -0.0552886 -1.75925e-16)
(0.435767 -0.734764 -2.45871e-16)
(0.428541 -0.622118 -2.87924e-16)
(0.583256 -0.578969 -3.63207e-16)
(0.564647 -0.487555 -5.4957e-16)
(0.68696 -0.46255 -3.75776e-16)
(0.665792 -0.391618 -4.17955e-16)
(0.763064 -0.374368 5.78695e-17)
(0.741942 -0.32038 1.26186e-16)
(0.820797 -0.306888 5.46483e-17)
(0.800057 -0.26567 -1.26998e-17)
(0.865576 -0.254546 -1.10687e-16)
(0.84505 -0.222649 -5.15981e-16)
(0.900799 -0.213232 -1.02789e-16)
(0.880335 -0.188246 -3.56233e-16)
(0.928766 -0.180013 -5.21407e-17)
(0.908271 -0.160344 -4.11319e-16)
(0.951112 -0.152831 3.52575e-16)
(0.930506 -0.137405 -3.86433e-16)
(0.969029 -0.130222 3.34009e-16)
(0.948216 -0.118286 -5.39252e-16)
(0.983398 -0.111118 1.80442e-16)
(0.962261 -0.102132 -1.66707e-16)
(0.994877 -0.0947222 -3.88069e-17)
(0.973281 -0.0882998 -1.73188e-17)
(1.00396 -0.0804157 -7.65513e-17)
(0.981762 -0.076318 2.63779e-16)
(1.01104 -0.0676884 -1.91225e-16)
(0.988079 -0.0658644 2.22136e-16)
(1.01637 -0.0560609 5.76063e-17)
(0.99252 -0.0567738 -5.6807e-17)
(1.02014 -0.0450147 1.38528e-16)
(0.995257 -0.0490064 -1.77312e-17)
(1.02244 -0.0339648 -7.68686e-18)
(0.99626 -0.0425795 -1.13497e-16)
(1.02318 -0.0219611 3.29133e-16)
(0.995212 -0.0384535 -3.20339e-16)
(1.02192 -0.00468152 3.13771e-16)
(0.990608 -0.0437031 -2.72323e-16)
(1.02049 0.0308172 3.57342e-16)
(0.973722 -0.0641011 2.86262e-17)
(0.48513 -0.777899 1.20498e-16)
(0.470389 -0.658726 2.35982e-16)
(0.622258 -0.612935 2.81867e-16)
(0.597505 -0.516133 4.30217e-16)
(0.7182 -0.489559 5.27563e-16)
(0.692239 -0.414409 3.93513e-16)
(0.788402 -0.396059 2.13434e-17)
(0.763615 -0.338852 1.91286e-16)
(0.841603 -0.324496 -2.93711e-17)
(0.818051 -0.280811 3.66146e-17)
(0.882855 -0.268974 1.09665e-16)
(0.860138 -0.23516 5.05317e-16)
(0.915283 -0.225142 3.67863e-16)
(0.893089 -0.198647 4.98789e-16)
(0.940991 -0.189892 4.68523e-17)
(0.919124 -0.169027 5.91536e-16)
(0.961479 -0.16104 -4.81939e-16)
(0.939787 -0.144669 6.25712e-16)
(0.977842 -0.137034 -2.68133e-16)
(0.95618 -0.124363 4.61383e-16)
(0.990888 -0.116745 -1.30468e-16)
(0.969106 -0.107202 1.52221e-16)
(1.00122 -0.0993264 -9.37884e-17)
(0.979161 -0.0925061 8.43897e-17)
(1.00929 -0.0841225 2.30628e-17)
(0.986792 -0.0797713 -2.88283e-16)
(1.01542 -0.070589 2.38376e-16)
(0.992347 -0.0686526 -2.91339e-16)
(1.01983 -0.0582142 5.81364e-17)
(0.996086 -0.0589656 -1.8857e-16)
(1.02264 -0.0464413 7.18199e-17)
(0.998168 -0.0506566 -2.09836e-16)
(1.02381 -0.0346356 1.39893e-16)
(0.998603 -0.0437603 1.3169e-17)
(1.02308 -0.0216724 -1.55767e-16)
(0.997562 -0.0396821 2.77106e-16)
(1.01893 -0.00201352 -2.41588e-16)
(0.99621 -0.0476766 1.97929e-16)
(1.01011 0.0393831 -1.43247e-16)
(0.987143 -0.0701404 -2.21199e-16)
(0.537431 -0.818058 -5.62029e-16)
(0.514567 -0.692536 -3.54475e-17)
(0.663286 -0.644454 -4.11235e-16)
(0.632001 -0.542615 -2.9966e-16)
(0.750822 -0.51472 -4.96069e-16)
(0.719817 -0.435696 -3.4809e-16)
(0.814674 -0.416439 -2.51694e-16)
(0.786062 -0.356289 -1.25422e-16)
(0.863024 -0.34122 -5.32656e-16)
(0.836562 -0.295292 2.65429e-16)
(0.900516 -0.282861 -3.721e-16)
(0.875559 -0.247318 -2.93577e-16)
(0.929979 -0.236787 -7.54415e-16)
(0.906042 -0.208944 -4.8245e-16)
(0.953305 -0.199731 -2.22267e-16)
(0.930073 -0.177815 -3.19316e-16)
(0.97184 -0.1694 3.96358e-16)
(0.949088 -0.152218 -5.88244e-16)
(0.986572 -0.144166 4.29265e-16)
(0.964102 -0.130884 -5.59278e-16)
(0.998229 -0.122845 3.0195e-16)
(0.975855 -0.112865 -2.63463e-16)
(1.00735 -0.104553 1.87251e-16)
(0.984892 -0.0974516 -9.9947e-17)
(1.01433 -0.0886038 8.51722e-17)
(0.991631 -0.0841192 9.06723e-17)
(1.01947 -0.0744326 3.16791e-17)
(0.996395 -0.0725074 2.27428e-17)
(1.02292 -0.0615015 2.07875e-16)
(0.999443 -0.0624152 -2.91264e-17)
(1.02476 -0.0492158 1.8086e-16)
(1.00095 -0.0537545 -1.03916e-16)
(1.02492 -0.0368719 2.08882e-16)
(1.001 -0.0464956 -1.88198e-16)
(1.02301 -0.0231458 1.93926e-16)
(1.00014 -0.04213 -2.31101e-16)
(1.01645 -0.0016115 1.34388e-16)
(1.00185 -0.0509212 -1.85993e-16)
(1.00076 0.0440605 6.46002e-17)
(1.00062 -0.0732746 -1.51892e-17)
(0.592019 -0.85439 7.28549e-16)
(0.560809 -0.723325 4.81376e-17)
(0.706359 -0.673009 2.89447e-16)
(0.668272 -0.566628 4.80163e-16)
(0.785283 -0.537402 3.17568e-16)
(0.748978 -0.454829 5.61121e-16)
(0.84259 -0.434641 1.35086e-16)
(0.809929 -0.371781 3.13219e-16)
(0.885918 -0.35598 4.39848e-16)
(0.85635 -0.307977 -8.85533e-17)
(0.919501 -0.294943 1.77958e-16)
(0.892127 -0.257785 4.21375e-16)
(0.945865 -0.246746 7.08401e-16)
(0.920022 -0.217631 6.11216e-16)
(0.966685 -0.207975 2.41956e-16)
(0.941944 -0.185049 1.39864e-16)
(0.983158 -0.176234 -4.32714e-16)
(0.959211 -0.158249 5.14254e-16)
(0.996159 -0.14982 -4.30309e-16)
(0.972757 -0.135906 2.58049e-16)
(1.00634 -0.127495 8.50619e-19)
(0.983254 -0.117025 2.8992e-17)
(1.01416 -0.108335 6.85822e-17)
(0.991197 -0.100864 -1.20981e-16)
(1.01999 -0.0916268 1.0134e-16)
(0.996961 -0.0868711 -3.26468e-16)
(1.02404 -0.0767806 2.02403e-16)
(1.00084 -0.0746672 -3.34513e-16)
(1.02644 -0.0632426 5.34927e-17)
(1.00307 -0.0640375 -2.11851e-16)
(1.02719 -0.0504038 9.94576e-17)
(1.00385 -0.0548865 -1.90221e-16)
(1.02618 -0.0375556 1.13353e-16)
(1.0033 -0.0471794 -3.56989e-16)
(1.02293 -0.0233884 2.76785e-16)
(1.00241 -0.0424665 -1.22706e-16)
(1.01423 -0.00138799 6.66364e-18)
(1.00678 -0.051369 2.0922e-16)
(0.99283 0.0450272 -1.12812e-16)
(1.0138 -0.0737699 2.042e-16)
(0.649095 -0.887374 -7.65284e-16)
(0.609047 -0.751129 2.25235e-16)
(0.751175 -0.698941 -6.30155e-16)
(0.705964 -0.588422 -2.41978e-16)
(0.820945 -0.558119 -6.58082e-16)
(0.779132 -0.472356 -2.51572e-16)
(0.871333 -0.451427 -1.66088e-16)
(0.834492 -0.386144 -3.83374e-17)
(0.909371 -0.36976 -7.33125e-16)
(0.876624 -0.31991 4.03078e-16)
(0.938856 -0.306389 -3.19086e-16)
(0.909033 -0.267805 -3.34558e-16)
(0.961988 -0.256345 -6.09537e-16)
(0.934237 -0.226119 -7.31391e-16)
(0.98021 -0.216088 -2.83713e-16)
(0.953977 -0.192294 -9.60524e-17)
(0.994555 -0.183127 3.58998e-16)
(0.969449 -0.164472 -3.7635e-16)
(1.00578 -0.1557 2.69886e-16)
(0.981493 -0.141277 -2.19904e-16)
(1.01445 -0.132524 1.67124e-16)
(0.990714 -0.121681 -2.28271e-16)
(1.02096 -0.11264 6.87612e-17)
(0.997554 -0.104913 -8.97608e-17)
(1.02562 -0.0953122 2.2082e-16)
(1.00235 -0.0904009 -2.36453e-17)
(1.0286 -0.0799326 1.7838e-16)
(1.00537 -0.0777446 2.31005e-17)
(1.02998 -0.0659283 3.42904e-16)
(1.00684 -0.066709 -1.98899e-16)
(1.02973 -0.0526718 4.17962e-16)
(1.00699 -0.0571682 -2.72801e-16)
(1.02772 -0.0394374 3.77735e-16)
(1.00597 -0.0490249 -8.33545e-17)
(1.02342 -0.0249355 2.81961e-16)
(1.00501 -0.043619 -4.84974e-16)
(1.01315 -0.00291834 4.11301e-16)
(1.0112 -0.0509883 -4.54941e-16)
(0.987229 0.0426656 1.39925e-16)
(1.02519 -0.071631 -1.32242e-16)
(0.707975 -0.916277 7.91898e-16)
(0.658889 -0.77558 1.05144e-16)
(0.797583 -0.721604 2.36124e-16)
(0.745027 -0.607469 6.32465e-16)
(0.85804 -0.576096 6.86946e-16)
(0.810512 -0.487513 3.07229e-16)
(0.901357 -0.465835 -9.81323e-17)
(0.860153 -0.398399 1.49391e-16)
(0.933971 -0.381426 5.16882e-16)
(0.897879 -0.329926 -2.89312e-16)
(0.959234 -0.31592 2.68486e-16)
(0.926809 -0.276053 3.46754e-16)
(0.979019 -0.264186 5.1482e-16)
(0.949218 -0.232945 4.73526e-16)
(0.994534 -0.222561 4.5066e-16)
(0.966676 -0.197958 2.00799e-17)
(1.00665 -0.188474 -1.98102e-16)
(0.980258 -0.169171 1.44421e-16)
(1.016 -0.160103 -2.20659e-17)
(0.99071 -0.145161 -7.12482e-18)
(1.02306 -0.13612 7.13962e-17)
(0.998565 -0.124863 -9.51229e-17)
(1.02817 -0.115538 2.43487e-16)
(1.00421 -0.107477 -3.74346e-16)
(1.03157 -0.0975977 1.69197e-16)
(1.00794 -0.0924087 -3.725e-16)
(1.03339 -0.081675 6.21709e-17)
(1.00999 -0.0792412 -2.7039e-16)
(1.03367 -0.0671921 -2.14948e-17)
(1.01059 -0.067731 -1.57524e-16)
(1.03232 -0.0535252 -1.91249e-16)
(1.00995 -0.0577534 4.62703e-17)
(1.02921 -0.0399822 -1.71392e-16)
(1.00833 -0.0491982 -2.01125e-16)
(1.02387 -0.0254471 5.53682e-17)
(1.0071 -0.0431781 2.20375e-16)
(1.01258 -0.00450569 -1.12376e-16)
(1.01438 -0.0486607 2.86421e-16)
(0.983951 0.037683 -1.88041e-16)
(1.03466 -0.0678496 2.65673e-16)
(0.768848 -0.941523 -8.03231e-16)
(0.710365 -0.796894 -4.34482e-16)
(0.845423 -0.741495 -3.58759e-16)
(0.785271 -0.624192 -2.51819e-16)
(0.896133 -0.592004 -1.10321e-15)
(0.842725 -0.500973 -1.39889e-16)
(0.932075 -0.478734 -1.30624e-16)
(0.886408 -0.409435 -4.74354e-18)
(0.959052 -0.392021 -4.48727e-16)
(0.919563 -0.3391 2.19359e-16)
(0.979946 -0.324725 -4.44639e-17)
(0.944903 -0.28376 -5.61313e-16)
(0.996286 -0.271572 -2.37691e-16)
(0.964445 -0.239475 -3.74709e-16)
(1.00903 -0.228803 -2.29435e-16)
(0.979579 -0.203529 -8.99525e-17)
(1.01888 -0.193776 3.93585e-16)
(0.99125 -0.173952 -3.03482e-16)
(1.02635 -0.16462 3.38714e-16)
(1.00011 -0.149279 -4.20408e-16)
(1.03181 -0.139975 2.60358e-16)
(1.00661 -0.128418 -1.47733e-16)
(1.03554 -0.118825 3.9017e-17)
(1.01109 -0.110544 7.37781e-17)
(1.03772 -0.100392 2.08103e-16)
(1.0138 -0.095042 1.16904e-16)
(1.03843 -0.0840391 1.18837e-16)
(1.01494 -0.0814782 1.20404e-16)
(1.03769 -0.0691775 1.08469e-16)
(1.01473 -0.0695924 1.69708e-16)
(1.03537 -0.0551825 1.96964e-16)
(1.01341 -0.0592427 -4.63396e-17)
(1.03133 -0.0413861 1.92631e-16)
(1.01123 -0.0502728 2.03699e-16)
(1.02516 -0.0268432 8.40106e-17)
(1.00955 -0.0434048 -4.04269e-16)
(1.01333 -0.00715692 3.94931e-16)
(1.01678 -0.0460008 -3.53408e-16)
(0.983355 0.0309074 1.66315e-16)
(1.04134 -0.0627441 -2.27953e-16)
(0.831013 -0.9625 1.032e-15)
(0.762952 -0.814595 9.07319e-16)
(0.894369 -0.757886 2.91338e-16)
(0.82646 -0.637954 2.88898e-16)
(0.935229 -0.604976 8.90298e-16)
(0.875793 -0.511901 1.10235e-16)
(0.963701 -0.489107 2.10686e-16)
(0.913432 -0.418248 1.45121e-16)
(0.984946 -0.400398 1.94231e-16)
(0.941932 -0.34628 -1.43382e-16)
(1.00138 -0.331546 -2.79174e-17)
(0.963597 -0.28965 4.20418e-16)
(1.01418 -0.277161 3.01709e-16)
(0.980184 -0.244325 2.62714e-16)
(1.02407 -0.233395 3.99608e-17)
(0.992908 -0.207529 1.77195e-17)
(1.03156 -0.197547 -3.64493e-16)
(1.00258 -0.177242 1.27084e-16)
(1.03705 -0.167699 -4.15351e-17)
(1.00975 -0.151966 1.09223e-16)
(1.04082 -0.142461 3.23578e-17)
(1.01481 -0.130579 -5.47982e-17)
(1.04307 -0.120794 1.49576e-16)
(1.01803 -0.112232 -2.10306e-16)
(1.04394 -0.101901 -1.59348e-17)
(1.01961 -0.0962938 -3.33742e-16)
(1.04346 -0.085135 1.3434e-16)
(1.01974 -0.0823152 -3.28332e-16)
(1.04161 -0.0699068 1.19443e-16)
(1.01862 -0.0700318 -3.66506e-16)
(1.03826 -0.055604 -8.06029e-17)
(1.0165 -0.0593123 -5.51518e-17)
(1.03325 -0.0416133 -2.29462e-16)
(1.01366 -0.0499957 -2.17616e-16)
(1.02634 -0.0272491 -2.0095e-16)
(1.01139 -0.0424581 1.85757e-16)
(1.01454 -0.00941216 -2.37532e-16)
(1.01784 -0.0423626 1.47766e-16)
(0.98504 0.0233196 -9.98357e-17)
(1.04555 -0.0575339 3.3562e-16)
(0.894638 -0.979576 -1.1723e-15)
(0.816788 -0.829047 -9.05442e-16)
(0.944417 -0.77139 -5.61899e-16)
(0.868568 -0.649314 4.39336e-17)
(0.975101 -0.615796 -7.85074e-16)
(0.909513 -0.521056 1.33467e-16)
(0.995866 -0.497892 -4.42134e-16)
(0.940927 -0.425765 -1.21515e-16)
(1.01122 -0.407622 -2.07048e-17)
(0.96465 -0.352536 2.02614e-16)
(1.02309 -0.337556 7.89772e-17)
(0.982564 -0.294908 -2.22401e-16)
(1.03229 -0.282205 -1.32847e-16)
(0.996155 -0.248782 -4.99616e-16)
(1.03929 -0.237657 1.25867e-16)
(1.00645 -0.21133 -2.17351e-17)
(1.04442 -0.201162 3.60951e-16)
(1.01413 -0.180497 -2.93339e-16)
(1.04794 -0.170771 1.71322e-16)
(1.01964 -0.154758 -2.13393e-16)
(1.05005 -0.145068 6.6243e-17)
(1.0233 -0.132969 -7.67319e-18)
(1.05089 -0.122995 -1.69702e-16)
(1.02531 -0.114266 1.85801e-17)
(1.05051 -0.103742 2.94135e-16)
(1.02585 -0.0979979 1.81107e-17)
(1.04894 -0.0866526 7.46349e-17)
(1.02505 -0.0837061 1.48423e-16)
(1.04609 -0.071131 2.70406e-17)
(1.02311 -0.0711164 1.73888e-16)
(1.04182 -0.0565747 8.64525e-17)
(1.02027 -0.0600939 2.31733e-16)
(1.03598 -0.0424123 8.78835e-17)
(1.0168 -0.0504541 3.72594e-16)
(1.02843 -0.0281802 2.16138e-16)
(1.0137 -0.0421673 -6.94305e-17)
(1.01691 -0.0119998 1.82904e-16)
(1.01833 -0.0391248 -3.74648e-17)
(0.988811 0.0158362 -5.41247e-17)
(1.04705 -0.0525921 -1.43398e-16)
(0.959023 -0.992264 1.1808e-15)
(0.871219 -0.839702 8.43158e-16)
(0.995066 -0.781234 4.61951e-16)
(0.91118 -0.657561 1.29349e-16)
(1.01553 -0.623546 3.54152e-16)
(0.943706 -0.527572 -6.57093e-18)
(1.02856 -0.504057 3.75305e-16)
(0.968858 -0.430987 8.25368e-17)
(1.03798 -0.412569 -1.01356e-16)
(0.987759 -0.356758 -1.67989e-16)
(1.04522 -0.341553 1.20866e-16)
(1.00187 -0.29834 -5.71676e-17)
(1.05077 -0.285449 -5.72602e-17)
(1.0124 -0.251575 6.94291e-16)
(1.0548 -0.240291 -3.87985e-16)
(1.0202 -0.213599 1.31634e-16)
(1.05749 -0.203294 -1.46837e-16)
(1.02581 -0.182327 1.57026e-17)
(1.05897 -0.172478 2.01207e-16)
(1.02958 -0.156211 -1.07313e-16)
(1.05933 -0.146407 9.27804e-17)
(1.03174 -0.134087 6.18682e-17)
(1.05865 -0.124009 1.01518e-16)
(1.03245 -0.115074 -1.90523e-16)
(1.05694 -0.104458 1.23788e-16)
(1.03184 -0.0985104 -2.8435e-16)
(1.05417 -0.0870891 3.57074e-17)
(1.03001 -0.0839219 3.36544e-17)
(1.05025 -0.0713049 -3.52781e-16)
(1.02715 -0.0710337 7.49262e-17)
(1.04501 -0.0565115 -1.92523e-16)