/*--------------------------------*- C++ -*----------------------------------*\
| =========                 |                                                 |
| \\      /  F ield         | OpenFOAM: The Open Source CFD Toolbox           |
|  \\    /   O peration     | Version:  2.2.0                                 |
|   \\  /    A nd           | Web:      www.OpenFOAM.org                      |
|    \\/     M anipulation  |                                                 |
\*---------------------------------------------------------------------------*/
FoamFile
{
    version     2.0;
    format      ascii;
    class       volVectorField;
    location    "4.7";
    object      s;
}
// * * * * * * * * * * * * * * * * * * * * * * * * * * * * * * * * * * * * * //

dimensions      [0 1 -1 0 0 0 0];

internalField   nonuniform List<vector> 
1600
(
(1.76139 0.0692073 0)
(1.49666 0.0588044 0)
(1.29907 0.0510408 0)
(1.14801 0.0451055 0)
(1.02821 0.0403984 0)
(0.931041 0.0365808 0)
(0.850642 0.0334219 0)
(0.783027 0.0307653 0)
(0.725377 0.0285002 0)
(0.675644 0.0265462 0)
(0.632306 0.0248434 0)
(0.594204 0.0233464 0)
(0.560447 0.0220201 0)
(0.530331 0.0208368 0)
(0.503299 0.0197747 0)
(0.478903 0.0188162 0)
(0.456763 0.0179463 0)
(0.436633 0.0171554 0)
(0.418093 0.0164269 0)
(0.401286 0.0157666 0)
(1.75053 0.207193 0)
(1.48743 0.17605 0)
(1.29106 0.152807 0)
(1.14093 0.135038 0)
(1.02187 0.120946 0)
(0.925301 0.109517 0)
(0.845398 0.100059 0)
(0.7782 0.092106 0)
(0.720905 0.0853247 0)
(0.671479 0.0794747 0)
(0.628407 0.0743769 0)
(0.590541 0.0698951 0)
(0.556991 0.0659243 0)
(0.527061 0.0623818 0)
(0.500196 0.0592021 0)
(0.47595 0.0563324 0)
(0.453947 0.0537281 0)
(0.433941 0.0513604 0)
(0.415515 0.0491794 0)
(0.398812 0.0472025 0)
(1.72887 0.343899 0)
(1.46903 0.29221 0)
(1.27509 0.253632 0)
(1.12682 0.224138 0)
(1.00923 0.200748 0)
(0.913856 0.181777 0)
(0.834941 0.16608 0)
(0.768574 0.152879 0)
(0.711988 0.141623 0)
(0.663173 0.131913 0)
(0.620635 0.123452 0)
(0.583237 0.116013 0)
(0.550102 0.109422 0)
(0.520542 0.103542 0)
(0.494009 0.0982644 0)
(0.470063 0.0935013 0)
(0.448332 0.0891787 0)
(0.428574 0.0852487 0)
(0.410375 0.0816287 0)
(0.393879 0.0783474 0)
(1.69656 0.478485 0)
(1.44158 0.406569 0)
(1.25126 0.352892 0)
(1.10576 0.311857 0)
(0.990365 0.279312 0)
(0.896777 0.252917 0)
(0.819337 0.231077 0)
(0.75421 0.212709 0)
(0.698682 0.197048 0)
(0.650779 0.183539 0)
(0.609035 0.171766 0)
(0.572336 0.161415 0)
(0.539821 0.152245 0)
(0.510814 0.144064 0)
(0.484776 0.136721 0)
(0.461278 0.130094 0)
(0.439953 0.124079 0)
(0.420564 0.118611 0)
(0.402706 0.113575 0)
(0.386518 0.109009 0)
(1.65379 0.610119 0)
(1.40523 0.51842 0)
(1.21971 0.449977 0)
(1.07788 0.397652 0)
(0.965398 0.356154 0)
(0.874168 0.322498 0)
(0.798681 0.294649 0)
(0.735196 0.271228 0)
(0.681068 0.251259 0)
(0.634373 0.234032 0)
(0.593681 0.21902 0)
(0.557907 0.205823 0)
(0.526212 0.19413 0)
(0.497936 0.183698 0)
(0.472555 0.174335 0)
(0.449649 0.165884 0)
(0.428861 0.158215 0)
(0.409962 0.151243 0)
(0.392553 0.144821 0)
(0.376774 0.138999 0)
(1.60082 0.737993 0)
(1.36023 0.627075 0)
(1.18065 0.544288 0)
(1.04336 0.480996 0)
(0.934478 0.4308 0)
(0.846171 0.39009 0)
(0.773101 0.356404 0)
(0.711649 0.328075 0)
(0.659255 0.30392 0)
(0.614055 0.283083 0)
(0.574667 0.264925 0)
(0.540039 0.248961 0)
(0.509358 0.234817 0)
(0.481988 0.222199 0)
(0.45742 0.210873 0)
(0.435248 0.200652 0)
(0.415126 0.191376 0)
(0.396832 0.182942 0)
(0.379981 0.175173 0)
(0.364706 0.168132 0)
(1.53798 0.861316 0)
(1.30683 0.731863 0)
(1.13431 0.635242 0)
(1.00241 0.561374 0)
(0.897797 0.50279 0)
(0.812956 0.455277 0)
(0.742755 0.415962 0)
(0.683715 0.382898 0)
(0.633377 0.354708 0)
(0.589952 0.330388 0)
(0.55211 0.309196 0)
(0.518841 0.290564 0)
(0.489365 0.274057 0)
(0.463069 0.259331 0)
(0.439465 0.246112 0)
(0.418163 0.234182 0)
(0.398831 0.223356 0)
(0.381255 0.213513 0)
(0.365065 0.204446 0)
(0.350391 0.196228 0)
(1.46567 0.979329 0)
(1.24538 0.83214 0)
(1.08097 0.72228 0)
(0.95527 0.638291 0)
(0.855581 0.571681 0)
(0.774729 0.517657 0)
(0.707829 0.472956 0)
(0.651566 0.435362 0)
(0.603594 0.403308 0)
(0.562211 0.375657 0)
(0.526149 0.351561 0)
(0.494444 0.330376 0)
(0.466354 0.311607 0)
(0.441294 0.294863 0)
(0.418801 0.279833 0)
(0.3985 0.266269 0)
(0.380077 0.253959 0)
(0.363327 0.242768 0)
(0.347899 0.232459 0)
(0.333915 0.223115 0)
(1.38431 1.0913 0)
(1.17626 0.927286 0)
(1.02097 0.804865 0)
(0.902246 0.711273 0)
(0.80809 0.637046 0)
(0.731726 0.576846 0)
(0.668539 0.527033 0)
(0.615399 0.485141 0)
(0.57009 0.449422 0)
(0.531004 0.418609 0)
(0.496943 0.391758 0)
(0.466999 0.368152 0)
(0.440468 0.347236 0)
(0.416799 0.328578 0)
(0.395554 0.311829 0)
(0.376381 0.296714 0)
(0.35898 0.282997 0)
(0.34316 0.270525 0)
(0.328588 0.259038 0)
(0.31538 0.248625 0)
(1.29442 1.19655 0)
(1.09988 1.01671 0)
(0.95467 0.882488 0)
(0.843659 0.779869 0)
(0.755617 0.698484 0)
(0.684212 0.632478 0)
(0.625128 0.577861 0)
(0.575438 0.531929 0)
(0.533072 0.492766 0)
(0.496524 0.458981 0)
(0.464675 0.42954 0)
(0.436674 0.403657 0)
(0.411866 0.380724 0)
(0.389734 0.360266 0)
(0.369869 0.341903 0)
(0.35194 0.32533 0)
(0.33567 0.31029 0)
(0.320877 0.296615 0)
(0.307251 0.28402 0)
(0.294901 0.272603 0)
(1.19655 1.29442 0)
(1.01672 1.09988 0)
(0.882488 0.95467 0)
(0.77987 0.843658 0)
(0.698485 0.755616 0)
(0.632479 0.684211 0)
(0.577862 0.625127 0)
(0.53193 0.575437 0)
(0.492767 0.533071 0)
(0.458982 0.496523 0)
(0.429541 0.464674 0)
(0.403658 0.436674 0)
(0.380725 0.411865 0)
(0.360267 0.389734 0)
(0.341903 0.369868 0)
(0.32533 0.35194 0)
(0.31029 0.335669 0)
(0.296616 0.320877 0)
(0.28402 0.307251 0)
(0.272603 0.2949 0)
(1.0913 1.38431 0)
(0.927286 1.17625 0)
(0.804866 1.02097 0)
(0.711274 0.902245 0)
(0.637047 0.808089 0)
(0.576847 0.731725 0)
(0.527034 0.668538 0)
(0.485142 0.615398 0)
(0.449423 0.570089 0)
(0.41861 0.531003 0)
(0.391759 0.496943 0)
(0.368152 0.466998 0)
(0.347237 0.440467 0)
(0.328578 0.416799 0)
(0.31183 0.395553 0)
(0.296714 0.37638 0)
(0.282997 0.35898 0)
(0.270525 0.34316 0)
(0.259038 0.328588 0)
(0.248625 0.31538 0)
(0.979328 1.46566 0)
(0.83214 1.24538 0)
(0.722281 1.08097 0)
(0.638292 0.955269 0)
(0.571681 0.85558 0)
(0.517658 0.774728 0)
(0.472956 0.707828 0)
(0.435362 0.651564 0)
(0.403309 0.603593 0)
(0.375658 0.56221 0)
(0.351561 0.526148 0)
(0.330377 0.494443 0)
(0.311608 0.466353 0)
(0.294863 0.441294 0)
(0.279834 0.4188 0)
(0.266269 0.3985 0)
(0.253959 0.380077 0)
(0.242767 0.363327 0)
(0.232459 0.347899 0)
(0.223114 0.333914 0)
(0.861316 1.53798 0)
(0.731864 1.30683 0)
(0.635243 1.1343 0)
(0.561375 1.0024 0)
(0.502791 0.897796 0)
(0.455278 0.812955 0)
(0.415963 0.742753 0)
(0.382899 0.683714 0)
(0.354708 0.633376 0)
(0.330389 0.589951 0)
(0.309197 0.552109 0)
(0.290565 0.51884 0)
(0.274057 0.489364 0)
(0.259331 0.463068 0)
(0.246112 0.439464 0)
(0.234183 0.418162 0)
(0.223356 0.39883 0)
(0.213513 0.381254 0)
(0.204446 0.365065 0)
(0.196228 0.35039 0)
(0.737992 1.60082 0)
(0.627075 1.36023 0)
(0.544288 1.18065 0)
(0.480997 1.04336 0)
(0.430801 0.934477 0)
(0.390091 0.846169 0)
(0.356405 0.7731 0)
(0.328075 0.711648 0)
(0.303921 0.659253 0)
(0.283084 0.614054 0)
(0.264925 0.574666 0)
(0.248962 0.540038 0)
(0.234818 0.509357 0)
(0.2222 0.481987 0)
(0.210874 0.457419 0)
(0.200652 0.435247 0)
(0.191376 0.415125 0)
(0.182942 0.396831 0)
(0.175173 0.37998 0)
(0.168132 0.364706 0)
(0.610119 1.65379 0)
(0.51842 1.40523 0)
(0.449978 1.21971 0)
(0.397653 1.07788 0)
(0.356155 0.965396 0)
(0.322498 0.874167 0)
(0.29465 0.79868 0)
(0.271229 0.735195 0)
(0.25126 0.681066 0)
(0.234033 0.634371 0)
(0.219021 0.59368 0)
(0.205823 0.557906 0)
(0.19413 0.526211 0)
(0.183698 0.497935 0)
(0.174335 0.472554 0)
(0.165884 0.449648 0)
(0.158215 0.428861 0)
(0.151243 0.409961 0)
(0.14482 0.392553 0)
(0.138999 0.376773 0)
(0.478484 1.69656 0)
(0.406569 1.44158 0)
(0.352893 1.25126 0)
(0.311857 1.10576 0)
(0.279313 0.990364 0)
(0.252918 0.896775 0)
(0.231078 0.819335 0)
(0.21271 0.754209 0)
(0.197049 0.69868 0)
(0.183539 0.650778 0)
(0.171766 0.609034 0)
(0.161416 0.572335 0)
(0.152246 0.53982 0)
(0.144065 0.510813 0)
(0.136721 0.484775 0)
(0.130094 0.461277 0)
(0.12408 0.439952 0)
(0.118611 0.420564 0)
(0.113575 0.402705 0)
(0.109009 0.386517 0)
(0.343899 1.72887 0)
(0.292211 1.46903 0)
(0.253632 1.27509 0)
(0.224139 1.12682 0)
(0.200749 1.00923 0)
(0.181778 0.913854 0)
(0.166081 0.83494 0)
(0.15288 0.768573 0)
(0.141624 0.711987 0)
(0.131914 0.663172 0)
(0.123452 0.620633 0)
(0.116013 0.583235 0)
(0.109422 0.550101 0)
(0.103543 0.520541 0)
(0.0982647 0.494008 0)
(0.0935015 0.470062 0)
(0.0891788 0.448331 0)
(0.0852487 0.428573 0)
(0.0816287 0.410375 0)
(0.0783473 0.393878 0)
(0.207193 1.75053 0)
(0.176051 1.48743 0)
(0.152808 1.29106 0)
(0.135039 1.14093 0)
(0.120947 1.02186 0)
(0.109517 0.925299 0)
(0.10006 0.845396 0)
(0.0921067 0.778198 0)
(0.0853254 0.720903 0)
(0.0794754 0.671477 0)
(0.0743775 0.628406 0)
(0.0698956 0.59054 0)
(0.0659247 0.55699 0)
(0.0623822 0.52706 0)
(0.0592024 0.500195 0)
(0.0563326 0.475949 0)
(0.0537283 0.453946 0)
(0.0513604 0.433941 0)
(0.0491794 0.415514 0)
(0.0472024 0.398811 0)
(0.0692075 1.76139 0)
(0.0588049 1.49666 0)
(0.0510414 1.29907 0)
(0.0451063 1.14801 0)
(0.0403992 1.0282 0)
(0.0365816 0.931039 0)
(0.0334227 0.850641 0)
(0.0307661 0.783026 0)
(0.028501 0.725376 0)
(0.0265469 0.675643 0)
(0.024844 0.632304 0)
(0.0233469 0.594203 0)
(0.0220205 0.560445 0)
(0.0208372 0.53033 0)
(0.0197751 0.503298 0)
(0.0188165 0.478902 0)
(0.0179465 0.456762 0)
(0.0171555 0.436633 0)
(0.016427 0.418092 0)
(0.0157666 0.401285 0)
(-0.0692069 1.76139 0)
(-0.0588037 1.49666 0)
(-0.0510399 1.29907 0)
(-0.0451045 1.14801 0)
(-0.0403973 1.0282 0)
(-0.0365797 0.931039 0)
(-0.0334208 0.850641 0)
(-0.0307643 0.783026 0)
(-0.0284992 0.725376 0)
(-0.0265453 0.675643 0)
(-0.0248426 0.632304 0)
(-0.0233456 0.594203 0)
(-0.0220194 0.560445 0)
(-0.0208362 0.53033 0)
(-0.0197742 0.503298 0)
(-0.0188157 0.478902 0)
(-0.0179459 0.456762 0)
(-0.0171551 0.436632 0)
(-0.0164267 0.418092 0)
(-0.0157665 0.401285 0)
(-0.207192 1.75053 0)
(-0.176049 1.48743 0)
(-0.152806 1.29106 0)
(-0.135037 1.14093 0)
(-0.120945 1.02186 0)
(-0.109515 0.925299 0)
(-0.100058 0.845396 0)
(-0.0921049 0.778198 0)
(-0.0853237 0.720903 0)
(-0.0794738 0.671477 0)
(-0.074376 0.628406 0)
(-0.0698943 0.590539 0)
(-0.0659235 0.55699 0)
(-0.0623811 0.52706 0)
(-0.0592015 0.500195 0)
(-0.0563319 0.475949 0)
(-0.0537277 0.453946 0)
(-0.05136 0.43394 0)
(-0.0491792 0.415514 0)
(-0.0472024 0.398811 0)
(-0.343898 1.72887 0)
(-0.292209 1.46903 0)
(-0.253631 1.27509 0)
(-0.224137 1.12682 0)
(-0.200747 1.00922 0)
(-0.181776 0.913854 0)
(-0.166079 0.834939 0)
(-0.152878 0.768572 0)
(-0.141622 0.711986 0)
(-0.131912 0.663172 0)
(-0.123451 0.620633 0)
(-0.116012 0.583235 0)
(-0.109421 0.550101 0)
(-0.103541 0.520541 0)
(-0.0982638 0.494008 0)
(-0.0935007 0.470062 0)
(-0.0891782 0.448331 0)
(-0.0852482 0.428573 0)
(-0.0816284 0.410374 0)
(-0.0783472 0.393878 0)
(-0.478484 1.69656 0)
(-0.406567 1.44157 0)
(-0.352891 1.25126 0)
(-0.311855 1.10576 0)
(-0.279311 0.990363 0)
(-0.252916 0.896775 0)
(-0.231075 0.819335 0)
(-0.212708 0.754208 0)
(-0.197047 0.69868 0)
(-0.183537 0.650778 0)
(-0.171765 0.609034 0)
(-0.161414 0.572335 0)
(-0.152244 0.53982 0)
(-0.144063 0.510812 0)
(-0.13672 0.484775 0)
(-0.130093 0.461277 0)
(-0.124079 0.439952 0)
(-0.118611 0.420563 0)
(-0.113574 0.402705 0)
(-0.109009 0.386517 0)
(-0.610118 1.65379 0)
(-0.518419 1.40523 0)
(-0.449976 1.21971 0)
(-0.397651 1.07788 0)
(-0.356153 0.965396 0)
(-0.322496 0.874167 0)
(-0.294647 0.798679 0)
(-0.271227 0.735194 0)
(-0.251258 0.681066 0)
(-0.234031 0.634371 0)
(-0.219019 0.59368 0)
(-0.205822 0.557906 0)
(-0.194129 0.52621 0)
(-0.183697 0.497935 0)
(-0.174334 0.472554 0)
(-0.165883 0.449648 0)
(-0.158215 0.42886 0)
(-0.151242 0.409961 0)
(-0.14482 0.392552 0)
(-0.138999 0.376773 0)
(-0.737991 1.60082 0)
(-0.627073 1.36022 0)
(-0.544286 1.18065 0)
(-0.480994 1.04336 0)
(-0.430799 0.934476 0)
(-0.390088 0.846169 0)
(-0.356403 0.773099 0)
(-0.328073 0.711648 0)
(-0.303919 0.659253 0)
(-0.283082 0.614054 0)
(-0.264924 0.574666 0)
(-0.24896 0.540038 0)
(-0.234816 0.509357 0)
(-0.222198 0.481987 0)
(-0.210872 0.457419 0)
(-0.200651 0.435247 0)
(-0.191375 0.415125 0)
(-0.182941 0.39683 0)
(-0.175173 0.37998 0)
(-0.168131 0.364705 0)
(-0.861314 1.53798 0)
(-0.731862 1.30683 0)
(-0.63524 1.1343 0)
(-0.561372 1.0024 0)
(-0.502789 0.897795 0)
(-0.455275 0.812954 0)
(-0.415961 0.742753 0)
(-0.382897 0.683714 0)
(-0.354706 0.633375 0)
(-0.330387 0.58995 0)
(-0.309195 0.552108 0)
(-0.290563 0.51884 0)
(-0.274056 0.489363 0)
(-0.25933 0.463067 0)
(-0.246111 0.439464 0)
(-0.234181 0.418162 0)
(-0.223355 0.39883 0)
(-0.213512 0.381254 0)
(-0.204446 0.365064 0)
(-0.196228 0.35039 0)
(-0.979326 1.46566 0)
(-0.832138 1.24538 0)
(-0.722278 1.08097 0)
(-0.638289 0.955268 0)
(-0.571679 0.855579 0)
(-0.517655 0.774728 0)
(-0.472954 0.707827 0)
(-0.43536 0.651564 0)
(-0.403307 0.603593 0)
(-0.375656 0.56221 0)
(-0.351559 0.526147 0)
(-0.330375 0.494443 0)
(-0.311606 0.466353 0)
(-0.294862 0.441293 0)
(-0.279832 0.418799 0)
(-0.266268 0.398499 0)
(-0.253958 0.380076 0)
(-0.242767 0.363326 0)
(-0.232458 0.347898 0)
(-0.223114 0.333914 0)
(-1.0913 1.38431 0)
(-0.927284 1.17625 0)
(-0.804863 1.02096 0)
(-0.711271 0.902244 0)
(-0.637044 0.808088 0)
(-0.576844 0.731725 0)
(-0.527031 0.668538 0)
(-0.485139 0.615397 0)
(-0.449421 0.570089 0)
(-0.418608 0.531003 0)
(-0.391757 0.496942 0)
(-0.36815 0.466997 0)
(-0.347235 0.440467 0)
(-0.328576 0.416798 0)
(-0.311828 0.395553 0)
(-0.296713 0.376379 0)
(-0.282996 0.358979 0)
(-0.270524 0.343159 0)
(-0.259037 0.328587 0)
(-0.248625 0.315379 0)
(-1.19655 1.29442 0)
(-1.01671 1.09987 0)
(-0.882486 0.954668 0)
(-0.779867 0.843657 0)
(-0.698482 0.755615 0)
(-0.632476 0.68421 0)
(-0.57786 0.625126 0)
(-0.531927 0.575437 0)
(-0.492764 0.53307 0)
(-0.458979 0.496522 0)
(-0.429539 0.464673 0)
(-0.403655 0.436673 0)
(-0.380723 0.411865 0)
(-0.360265 0.389733 0)
(-0.341901 0.369868 0)
(-0.325329 0.351939 0)
(-0.310289 0.335669 0)
(-0.296614 0.320876 0)
(-0.284019 0.30725 0)
(-0.272602 0.2949 0)
(-1.29442 1.19655 0)
(-1.09987 1.01671 0)
(-0.954667 0.882486 0)
(-0.843656 0.779868 0)
(-0.755614 0.698483 0)
(-0.684209 0.632477 0)
(-0.625125 0.577861 0)
(-0.575435 0.531928 0)
(-0.533069 0.492765 0)
(-0.496521 0.458981 0)
(-0.464672 0.42954 0)
(-0.436672 0.403656 0)
(-0.411864 0.380724 0)
(-0.389732 0.360266 0)
(-0.369867 0.341902 0)
(-0.351939 0.325329 0)
(-0.335668 0.310289 0)
(-0.320876 0.296615 0)
(-0.30725 0.284019 0)
(-0.2949 0.272602 0)
(-1.38431 1.0913 0)
(-1.17625 0.927284 0)
(-1.02096 0.804864 0)
(-0.902243 0.711272 0)
(-0.808087 0.637045 0)
(-0.731723 0.576845 0)
(-0.668536 0.527033 0)
(-0.615396 0.48514 0)
(-0.570088 0.449422 0)
(-0.531002 0.418609 0)
(-0.496941 0.391758 0)
(-0.466996 0.368151 0)
(-0.440466 0.347236 0)
(-0.416797 0.328577 0)
(-0.395552 0.311829 0)
(-0.376379 0.296714 0)
(-0.358978 0.282996 0)
(-0.343159 0.270525 0)
(-0.328587 0.259037 0)
(-0.315379 0.248624 0)
(-1.46566 0.979326 0)
(-1.24538 0.832138 0)
(-1.08096 0.722279 0)
(-0.955267 0.63829 0)
(-0.855578 0.57168 0)
(-0.774726 0.517657 0)
(-0.707826 0.472955 0)
(-0.651563 0.435361 0)
(-0.603591 0.403308 0)
(-0.562208 0.375657 0)
(-0.526146 0.35156 0)
(-0.494442 0.330376 0)
(-0.466351 0.311607 0)
(-0.441292 0.294863 0)
(-0.418798 0.279833 0)
(-0.398498 0.266268 0)
(-0.380075 0.253959 0)
(-0.363326 0.242767 0)
(-0.347898 0.232458 0)
(-0.333913 0.223114 0)
(-1.53798 0.861314 0)
(-1.30683 0.731862 0)
(-1.1343 0.635241 0)
(-1.0024 0.561373 0)
(-0.897794 0.50279 0)
(-0.812953 0.455276 0)
(-0.742751 0.415962 0)
(-0.683712 0.382898 0)
(-0.633374 0.354707 0)
(-0.589949 0.330388 0)
(-0.552107 0.309195 0)
(-0.518838 0.290564 0)
(-0.489362 0.274057 0)
(-0.463066 0.25933 0)
(-0.439463 0.246111 0)
(-0.418161 0.234182 0)
(-0.398829 0.223355 0)
(-0.381253 0.213512 0)
(-0.365064 0.204446 0)
(-0.350389 0.196227 0)
(-1.60082 0.737991 0)
(-1.36022 0.627073 0)
(-1.18065 0.544287 0)
(-1.04336 0.480995 0)
(-0.934475 0.4308 0)
(-0.846167 0.390089 0)
(-0.773098 0.356404 0)
(-0.711646 0.328074 0)
(-0.659251 0.30392 0)
(-0.614052 0.283083 0)
(-0.574664 0.264924 0)
(-0.540036 0.248961 0)
(-0.509356 0.234817 0)
(-0.481986 0.222199 0)
(-0.457418 0.210873 0)
(-0.435246 0.200651 0)
(-0.415124 0.191375 0)
(-0.39683 0.182941 0)
(-0.379979 0.175173 0)
(-0.364705 0.168131 0)
(-1.65379 0.610118 0)
(-1.40523 0.518419 0)
(-1.21971 0.449976 0)
(-1.07788 0.397651 0)
(-0.965394 0.356153 0)
(-0.874165 0.322497 0)
(-0.798678 0.294648 0)
(-0.735193 0.271228 0)
(-0.681064 0.251258 0)
(-0.63437 0.234032 0)
(-0.593678 0.21902 0)
(-0.557905 0.205822 0)
(-0.526209 0.194129 0)
(-0.497933 0.183698 0)
(-0.472552 0.174334 0)
(-0.449647 0.165884 0)
(-0.428859 0.158215 0)
(-0.40996 0.151242 0)
(-0.392551 0.14482 0)
(-0.376772 0.138998 0)
(-1.69656 0.478483 0)
(-1.44157 0.406568 0)
(-1.25126 0.352892 0)
(-1.10576 0.311856 0)
(-0.990361 0.279311 0)
(-0.896773 0.252917 0)
(-0.819333 0.231076 0)
(-0.754207 0.212709 0)
(-0.698678 0.197048 0)
(-0.650776 0.183538 0)
(-0.609032 0.171765 0)
(-0.572333 0.161415 0)
(-0.539818 0.152245 0)
(-0.510811 0.144064 0)
(-0.484774 0.136721 0)
(-0.461276 0.130093 0)
(-0.43995 0.124079 0)
(-0.420562 0.118611 0)
(-0.402704 0.113574 0)
(-0.386516 0.109009 0)
(-1.72887 0.343898 0)
(-1.46903 0.29221 0)
(-1.27509 0.253631 0)
(-1.12681 0.224138 0)
(-1.00922 0.200747 0)
(-0.913852 0.181777 0)
(-0.834938 0.16608 0)
(-0.768571 0.152879 0)
(-0.711985 0.141623 0)
(-0.66317 0.131913 0)
(-0.620631 0.123452 0)
(-0.583234 0.116013 0)
(-0.550099 0.109422 0)
(-0.520539 0.103542 0)
(-0.494006 0.0982641 0)
(-0.470061 0.093501 0)
(-0.448329 0.0891784 0)
(-0.428572 0.0852483 0)
(-0.410373 0.0816283 0)
(-0.393877 0.078347 0)
(-1.75052 0.207192 0)
(-1.48743 0.17605 0)
(-1.29106 0.152807 0)
(-1.14093 0.135038 0)
(-1.02186 0.120946 0)
(-0.925297 0.109516 0)
(-0.845394 0.100059 0)
(-0.778196 0.0921058 0)
(-0.720902 0.0853245 0)
(-0.671476 0.0794745 0)
(-0.628404 0.0743767 0)
(-0.590538 0.0698949 0)
(-0.556988 0.065924 0)
(-0.527059 0.0623816 0)
(-0.500193 0.0592019 0)
(-0.475948 0.0563322 0)
(-0.453944 0.0537279 0)
(-0.433939 0.0513601 0)
(-0.415513 0.0491792 0)
(-0.39881 0.0472023 0)
(-1.76138 0.0692071 0)
(-1.49665 0.0588042 0)
(-1.29906 0.0510406 0)
(-1.148 0.0451053 0)
(-1.0282 0.0403982 0)
(-0.931037 0.0365806 0)
(-0.850639 0.0334217 0)
(-0.783024 0.0307651 0)
(-0.725374 0.0285001 0)
(-0.675641 0.026546 0)
(-0.632302 0.0248433 0)
(-0.594201 0.0233463 0)
(-0.560444 0.0220199 0)
(-0.530328 0.0208367 0)
(-0.503296 0.0197746 0)
(-0.4789 0.0188161 0)
(-0.45676 0.0179462 0)
(-0.436631 0.0171553 0)
(-0.41809 0.0164268 0)
(-0.401284 0.0157665 0)
(-1.76138 -0.0692072 0)
(-1.49665 -0.0588043 0)
(-1.29906 -0.0510407 0)
(-1.148 -0.0451054 0)
(-1.0282 -0.0403983 0)
(-0.931037 -0.0365807 0)
(-0.850639 -0.0334218 0)
(-0.783024 -0.0307652 0)
(-0.725374 -0.0285001 0)
(-0.675641 -0.0265461 0)
(-0.632302 -0.0248433 0)
(-0.594201 -0.0233463 0)
(-0.560444 -0.02202 0)
(-0.530328 -0.0208367 0)
(-0.503296 -0.0197746 0)
(-0.4789 -0.0188161 0)
(-0.45676 -0.0179462 0)
(-0.436631 -0.0171553 0)
(-0.41809 -0.0164268 0)
(-0.401284 -0.0157665 0)
(-1.75052 -0.207192 0)
(-1.48743 -0.17605 0)
(-1.29106 -0.152807 0)
(-1.14093 -0.135038 0)
(-1.02186 -0.120946 0)
(-0.925297 -0.109516 0)
(-0.845394 -0.100059 0)
(-0.778196 -0.0921058 0)
(-0.720902 -0.0853246 0)
(-0.671476 -0.0794746 0)
(-0.628404 -0.0743767 0)
(-0.590538 -0.0698949 0)
(-0.556988 -0.0659241 0)
(-0.527059 -0.0623816 0)
(-0.500193 -0.0592019 0)
(-0.475948 -0.0563322 0)
(-0.453944 -0.0537279 0)
(-0.433939 -0.0513601 0)
(-0.415513 -0.0491792 0)
(-0.39881 -0.0472023 0)
(-1.72887 -0.343898 0)
(-1.46903 -0.29221 0)
(-1.27509 -0.253631 0)
(-1.12681 -0.224138 0)
(-1.00922 -0.200748 0)
(-0.913852 -0.181777 0)
(-0.834938 -0.16608 0)
(-0.768571 -0.152879 0)
(-0.711985 -0.141623 0)
(-0.66317 -0.131913 0)
(-0.620631 -0.123452 0)
(-0.583234 -0.116013 0)
(-0.550099 -0.109422 0)
(-0.520539 -0.103542 0)
(-0.494006 -0.0982642 0)
(-0.470061 -0.0935011 0)
(-0.448329 -0.0891784 0)
(-0.428572 -0.0852483 0)
(-0.410373 -0.0816284 0)
(-0.393877 -0.078347 0)
(-1.69656 -0.478483 0)
(-1.44157 -0.406568 0)
(-1.25126 -0.352892 0)
(-1.10576 -0.311856 0)
(-0.990362 -0.279312 0)
(-0.896773 -0.252917 0)
(-0.819333 -0.231076 0)
(-0.754207 -0.212709 0)
(-0.698678 -0.197048 0)
(-0.650776 -0.183538 0)
(-0.609032 -0.171765 0)
(-0.572333 -0.161415 0)
(-0.539818 -0.152245 0)
(-0.510811 -0.144064 0)
(-0.484774 -0.136721 0)
(-0.461276 -0.130093 0)
(-0.439951 -0.124079 0)
(-0.420562 -0.118611 0)
(-0.402704 -0.113574 0)
(-0.386516 -0.109009 0)
(-1.65379 -0.610118 0)
(-1.40523 -0.518419 0)
(-1.21971 -0.449976 0)
(-1.07788 -0.397652 0)
(-0.965394 -0.356154 0)
(-0.874165 -0.322497 0)
(-0.798678 -0.294648 0)
(-0.735193 -0.271228 0)
(-0.681064 -0.251259 0)
(-0.63437 -0.234032 0)
(-0.593678 -0.21902 0)
(-0.557905 -0.205822 0)
(-0.526209 -0.194129 0)
(-0.497933 -0.183698 0)
(-0.472552 -0.174334 0)
(-0.449647 -0.165884 0)
(-0.428859 -0.158215 0)
(-0.40996 -0.151242 0)
(-0.392551 -0.14482 0)
(-0.376772 -0.138998 0)
(-1.60082 -0.737991 0)
(-1.36022 -0.627074 0)
(-1.18065 -0.544287 0)
(-1.04336 -0.480995 0)
(-0.934475 -0.4308 0)
(-0.846167 -0.390089 0)
(-0.773098 -0.356404 0)
(-0.711646 -0.328074 0)
(-0.659251 -0.30392 0)
(-0.614052 -0.283083 0)
(-0.574664 -0.264924 0)
(-0.540036 -0.248961 0)
(-0.509356 -0.234817 0)
(-0.481986 -0.222199 0)
(-0.457418 -0.210873 0)
(-0.435246 -0.200651 0)
(-0.415124 -0.191375 0)
(-0.39683 -0.182941 0)
(-0.379979 -0.175173 0)
(-0.364705 -0.168131 0)
(-1.53798 -0.861314 0)
(-1.30683 -0.731862 0)
(-1.1343 -0.635241 0)
(-1.0024 -0.561373 0)
(-0.897794 -0.50279 0)
(-0.812953 -0.455276 0)
(-0.742751 -0.415962 0)
(-0.683712 -0.382898 0)
(-0.633374 -0.354707 0)
(-0.589949 -0.330388 0)
(-0.552107 -0.309196 0)
(-0.518838 -0.290564 0)
(-0.489362 -0.274057 0)
(-0.463066 -0.25933 0)
(-0.439463 -0.246111 0)
(-0.418161 -0.234182 0)
(-0.398829 -0.223355 0)
(-0.381253 -0.213512 0)
(-0.365064 -0.204446 0)
(-0.350389 -0.196227 0)
(-1.46566 -0.979327 0)
(-1.24538 -0.832138 0)
(-1.08096 -0.722279 0)
(-0.955267 -0.63829 0)
(-0.855578 -0.57168 0)
(-0.774726 -0.517657 0)
(-0.707826 -0.472955 0)
(-0.651563 -0.435361 0)
(-0.603592 -0.403308 0)
(-0.562209 -0.375657 0)
(-0.526146 -0.35156 0)
(-0.494442 -0.330376 0)
(-0.466352 -0.311607 0)
(-0.441292 -0.294863 0)
(-0.418799 -0.279833 0)
(-0.398498 -0.266269 0)
(-0.380075 -0.253959 0)
(-0.363326 -0.242767 0)
(-0.347898 -0.232458 0)
(-0.333913 -0.223114 0)
(-1.38431 -1.0913 0)
(-1.17625 -0.927284 0)
(-1.02096 -0.804864 0)
(-0.902243 -0.711272 0)
(-0.808087 -0.637046 0)
(-0.731723 -0.576845 0)
(-0.668536 -0.527033 0)
(-0.615396 -0.48514 0)
(-0.570088 -0.449422 0)
(-0.531002 -0.418609 0)
(-0.496941 -0.391758 0)
(-0.466996 -0.368151 0)
(-0.440466 -0.347236 0)
(-0.416797 -0.328577 0)
(-0.395552 -0.311829 0)
(-0.376379 -0.296714 0)
(-0.358979 -0.282996 0)
(-0.343159 -0.270525 0)
(-0.328587 -0.259037 0)
(-0.315379 -0.248625 0)
(-1.29442 -1.19655 0)
(-1.09987 -1.01671 0)
(-0.954667 -0.882487 0)
(-0.843656 -0.779869 0)
(-0.755614 -0.698484 0)
(-0.684209 -0.632477 0)
(-0.625125 -0.577861 0)
(-0.575436 -0.531928 0)
(-0.533069 -0.492765 0)
(-0.496521 -0.458981 0)
(-0.464672 -0.42954 0)
(-0.436672 -0.403656 0)
(-0.411864 -0.380724 0)
(-0.389733 -0.360266 0)
(-0.369867 -0.341902 0)
(-0.351939 -0.325329 0)
(-0.335668 -0.310289 0)
(-0.320876 -0.296615 0)
(-0.30725 -0.284019 0)
(-0.2949 -0.272602 0)
(-1.19655 -1.29442 0)
(-1.01671 -1.09987 0)
(-0.882486 -0.954668 0)
(-0.779868 -0.843657 0)
(-0.698482 -0.755615 0)
(-0.632476 -0.68421 0)
(-0.57786 -0.625126 0)
(-0.531927 -0.575437 0)
(-0.492764 -0.53307 0)
(-0.45898 -0.496522 0)
(-0.429539 -0.464673 0)
(-0.403656 -0.436673 0)
(-0.380723 -0.411865 0)
(-0.360265 -0.389733 0)
(-0.341902 -0.369868 0)
(-0.325329 -0.351939 0)
(-0.310289 -0.335669 0)
(-0.296615 -0.320876 0)
(-0.284019 -0.307251 0)
(-0.272602 -0.2949 0)
(-1.0913 -1.38431 0)
(-0.927284 -1.17625 0)
(-0.804863 -1.02096 0)
(-0.711271 -0.902244 0)
(-0.637044 -0.808088 0)
(-0.576844 -0.731725 0)
(-0.527032 -0.668538 0)
(-0.485139 -0.615398 0)
(-0.449421 -0.570089 0)
(-0.418608 -0.531003 0)
(-0.391757 -0.496942 0)
(-0.36815 -0.466998 0)
(-0.347235 -0.440467 0)
(-0.328576 -0.416798 0)
(-0.311828 -0.395553 0)
(-0.296713 -0.37638 0)
(-0.282996 -0.358979 0)
(-0.270525 -0.343159 0)
(-0.259037 -0.328587 0)
(-0.248625 -0.315379 0)
(-0.979327 -1.46566 0)
(-0.832138 -1.24538 0)
(-0.722278 -1.08097 0)
(-0.638289 -0.955269 0)
(-0.571679 -0.855579 0)
(-0.517656 -0.774728 0)
(-0.472954 -0.707827 0)
(-0.43536 -0.651564 0)
(-0.403307 -0.603593 0)
(-0.375656 -0.56221 0)
(-0.351559 -0.526147 0)
(-0.330375 -0.494443 0)
(-0.311606 -0.466353 0)
(-0.294862 -0.441293 0)
(-0.279832 -0.418799 0)
(-0.266268 -0.398499 0)
(-0.253958 -0.380076 0)
(-0.242767 -0.363327 0)
(-0.232458 -0.347898 0)
(-0.223114 -0.333914 0)
(-0.861314 -1.53798 0)
(-0.731862 -1.30683 0)
(-0.63524 -1.1343 0)
(-0.561372 -1.0024 0)
(-0.502789 -0.897795 0)
(-0.455275 -0.812954 0)
(-0.415961 -0.742753 0)
(-0.382897 -0.683714 0)
(-0.354706 -0.633376 0)
(-0.330387 -0.58995 0)
(-0.309195 -0.552108 0)
(-0.290563 -0.51884 0)
(-0.274056 -0.489364 0)
(-0.25933 -0.463068 0)
(-0.246111 -0.439464 0)
(-0.234182 -0.418162 0)
(-0.223355 -0.39883 0)
(-0.213512 -0.381254 0)
(-0.204446 -0.365064 0)
(-0.196228 -0.35039 0)
(-0.737991 -1.60082 0)
(-0.627073 -1.36022 0)
(-0.544286 -1.18065 0)
(-0.480994 -1.04336 0)
(-0.430799 -0.934476 0)
(-0.390088 -0.846169 0)
(-0.356403 -0.773099 0)
(-0.328073 -0.711648 0)
(-0.303919 -0.659253 0)
(-0.283082 -0.614054 0)
(-0.264924 -0.574666 0)
(-0.24896 -0.540038 0)
(-0.234816 -0.509357 0)
(-0.222198 -0.481987 0)
(-0.210873 -0.457419 0)
(-0.200651 -0.435247 0)
(-0.191375 -0.415125 0)
(-0.182941 -0.396831 0)
(-0.175173 -0.37998 0)
(-0.168131 -0.364705 0)
(-0.610118 -1.65379 0)
(-0.518419 -1.40523 0)
(-0.449976 -1.21971 0)
(-0.397651 -1.07788 0)
(-0.356153 -0.965396 0)
(-0.322496 -0.874167 0)
(-0.294648 -0.798679 0)
(-0.271227 -0.735195 0)
(-0.251258 -0.681066 0)
(-0.234031 -0.634371 0)
(-0.219019 -0.59368 0)
(-0.205822 -0.557906 0)
(-0.194129 -0.526211 0)
(-0.183697 -0.497935 0)
(-0.174334 -0.472554 0)
(-0.165884 -0.449648 0)
(-0.158215 -0.42886 0)
(-0.151242 -0.409961 0)
(-0.14482 -0.392552 0)
(-0.138999 -0.376773 0)
(-0.478484 -1.69656 0)
(-0.406567 -1.44157 0)
(-0.352891 -1.25126 0)
(-0.311855 -1.10576 0)
(-0.279311 -0.990363 0)
(-0.252916 -0.896775 0)
(-0.231076 -0.819335 0)
(-0.212708 -0.754208 0)
(-0.197047 -0.69868 0)
(-0.183538 -0.650778 0)
(-0.171765 -0.609034 0)
(-0.161415 -0.572335 0)
(-0.152244 -0.53982 0)
(-0.144064 -0.510813 0)
(-0.13672 -0.484775 0)
(-0.130093 -0.461277 0)
(-0.124079 -0.439952 0)
(-0.118611 -0.420563 0)
(-0.113574 -0.402705 0)
(-0.109009 -0.386517 0)
(-0.343898 -1.72887 0)
(-0.292209 -1.46903 0)
(-0.253631 -1.27509 0)
(-0.224137 -1.12682 0)
(-0.200747 -1.00922 0)
(-0.181776 -0.913854 0)
(-0.166079 -0.834939 0)
(-0.152878 -0.768572 0)
(-0.141622 -0.711987 0)
(-0.131912 -0.663172 0)
(-0.123451 -0.620633 0)
(-0.116012 -0.583235 0)
(-0.109421 -0.550101 0)
(-0.103542 -0.520541 0)
(-0.0982639 -0.494008 0)
(-0.0935008 -0.470062 0)
(-0.0891783 -0.448331 0)
(-0.0852483 -0.428573 0)
(-0.0816284 -0.410375 0)
(-0.0783472 -0.393878 0)
(-0.207192 -1.75053 0)
(-0.17605 -1.48743 0)
(-0.152806 -1.29106 0)
(-0.135037 -1.14093 0)
(-0.120945 -1.02186 0)
(-0.109516 -0.925299 0)
(-0.100058 -0.845396 0)
(-0.092105 -0.778198 0)
(-0.0853238 -0.720903 0)
(-0.0794739 -0.671477 0)
(-0.0743761 -0.628406 0)
(-0.0698944 -0.59054 0)
(-0.0659236 -0.55699 0)
(-0.0623812 -0.52706 0)
(-0.0592016 -0.500195 0)
(-0.056332 -0.475949 0)
(-0.0537278 -0.453946 0)
(-0.0513601 -0.433941 0)
(-0.0491792 -0.415514 0)
(-0.0472024 -0.398811 0)
(-0.069207 -1.76139 0)
(-0.0588037 -1.49666 0)
(-0.0510399 -1.29907 0)
(-0.0451046 -1.14801 0)
(-0.0403974 -1.0282 0)
(-0.0365798 -0.931039 0)
(-0.0334209 -0.850641 0)
(-0.0307644 -0.783026 0)
(-0.0284993 -0.725376 0)
(-0.0265454 -0.675643 0)
(-0.0248427 -0.632304 0)
(-0.0233457 -0.594203 0)
(-0.0220195 -0.560445 0)
(-0.0208363 -0.53033 0)
(-0.0197743 -0.503298 0)
(-0.0188158 -0.478902 0)
(-0.017946 -0.456762 0)
(-0.0171552 -0.436633 0)
(-0.0164268 -0.418092 0)
(-0.0157665 -0.401285 0)
(1.76139 -0.0692073 0)
(1.75053 -0.207193 0)
(1.72887 -0.343899 0)
(1.69656 -0.478484 0)
(1.65379 -0.610119 0)
(1.60082 -0.737993 0)
(1.53798 -0.861316 0)
(1.46567 -0.979328 0)
(1.38431 -1.0913 0)
(1.29442 -1.19655 0)
(1.19655 -1.29442 0)
(1.0913 -1.38431 0)
(0.979328 -1.46566 0)
(0.861316 -1.53798 0)
(0.737992 -1.60082 0)
(0.610119 -1.65379 0)
(0.478484 -1.69656 0)
(0.343899 -1.72887 0)
(0.207193 -1.75053 0)
(0.0692075 -1.76139 0)
(1.49666 -0.0588044 0)
(1.48743 -0.17605 0)
(1.46903 -0.29221 0)
(1.44158 -0.406569 0)
(1.40523 -0.51842 0)
(1.36023 -0.627075 0)
(1.30683 -0.731863 0)
(1.24538 -0.83214 0)
(1.17626 -0.927286 0)
(1.09988 -1.01671 0)
(1.01672 -1.09988 0)
(0.927286 -1.17625 0)
(0.83214 -1.24538 0)
(0.731864 -1.30683 0)
(0.627075 -1.36023 0)
(0.51842 -1.40523 0)
(0.406569 -1.44158 0)
(0.292211 -1.46903 0)
(0.176051 -1.48743 0)
(0.0588049 -1.49666 0)
(1.29907 -0.0510407 0)
(1.29106 -0.152807 0)
(1.27509 -0.253632 0)
(1.25126 -0.352892 0)
(1.21971 -0.449977 0)
(1.18065 -0.544287 0)
(1.13431 -0.635242 0)
(1.08097 -0.72228 0)
(1.02097 -0.804865 0)
(0.95467 -0.882488 0)
(0.882488 -0.954669 0)
(0.804866 -1.02097 0)
(0.722281 -1.08097 0)
(0.635243 -1.1343 0)
(0.544288 -1.18065 0)
(0.449978 -1.21971 0)
(0.352893 -1.25126 0)
(0.253632 -1.27509 0)
(0.152808 -1.29106 0)
(0.0510414 -1.29907 0)
(1.14801 -0.0451054 0)
(1.14093 -0.135038 0)
(1.12682 -0.224138 0)
(1.10576 -0.311857 0)
(1.07788 -0.397652 0)
(1.04336 -0.480996 0)
(1.00241 -0.561374 0)
(0.95527 -0.638291 0)
(0.902246 -0.711273 0)
(0.843659 -0.779869 0)
(0.77987 -0.843658 0)
(0.711274 -0.902245 0)
(0.638292 -0.955269 0)
(0.561375 -1.0024 0)
(0.480996 -1.04336 0)
(0.397653 -1.07788 0)
(0.311857 -1.10576 0)
(0.224139 -1.12682 0)
(0.135039 -1.14093 0)
(0.0451062 -1.14801 0)
(1.02821 -0.0403983 0)
(1.02187 -0.120946 0)