/*--------------------------------*- C++ -*----------------------------------*\
| =========                 |                                                 |
| \\      /  F ield         | foam-extend: Open Source CFD                    |
|  \\    /   O peration     | Version:  3.0                                   |
|   \\  /    A nd           | Web:         http://www.extend-project.de       |
|    \\/     M anipulation  |                                                 |
\*---------------------------------------------------------------------------*/
FoamFile
{
    version     2.0;
    format      ascii;
    class       volVectorField;
    location    "20";
    object      u;
}
// * * * * * * * * * * * * * * * * * * * * * * * * * * * * * * * * * * * * * //

dimensions      [0 0 0 0 0 0 0];

internalField   nonuniform List<vector> 
168
(
(0.799326 -0.135315 -5.52991e-17)
(0.426235 -0.0871932 1.45355e-16)
(1.23333 -0.0483942 -1.66807e-16)
(0.67469 -0.0291046 2.2465e-16)
(1.34126 -0.0113652 -1.65519e-16)
(0.71664 -0.000216168 1.58535e-16)
(0.916509 -0.378794 1.92208e-17)
(0.502453 -0.245654 -2.8309e-16)
(1.2751 -0.135217 1.00481e-16)
(0.700137 -0.0818744 -3.89775e-16)
(1.3505 -0.0302484 1.30115e-16)
(0.71759 -0.0025878 9.78558e-18)
(1.12747 -0.547175 -3.84836e-16)
(0.639346 -0.354347 5.6426e-16)
(1.34996 -0.195064 -1.04769e-16)
(0.745792 -0.117961 5.50366e-16)
(1.36668 -0.0432295 -2.0119e-16)
(0.71956 -0.0043373 -1.64638e-16)
(1.39093 -0.607346 7.21103e-16)
(0.810604 -0.39368 -6.10308e-16)
(1.444 -0.216489 9.79381e-17)
(0.802887 -0.131049 -4.04624e-16)
(1.38737 -0.0477115 -8.38869e-18)
(0.722075 -0.00516824 4.0245e-16)
(1.65413 -0.547363 -3.44961e-16)
(0.981113 -0.354361 3.42775e-16)
(1.53729 -0.195243 1.11506e-16)
(0.859621 -0.117904 1.63224e-16)
(1.40746 -0.0431466 9.58092e-17)
(0.724348 -0.0047037 -2.56519e-16)
(1.86541 -0.378906 1.21957e-16)
(1.1185 -0.245112 -2.02268e-16)
(1.61282 -0.135014 -6.69655e-17)
(0.905556 -0.0814304 -1.05032e-16)
(1.42401 -0.0296788 -1.63749e-17)
(0.727073 -0.00329502 9.01374e-17)
(1.98268 -0.135561 -7.64126e-17)
(1.19428 -0.0873116 1.45927e-16)
(1.65423 -0.0487029 3.20392e-17)
(0.930586 -0.02908 7.84744e-17)
(1.43294 -0.0109119 3.49565e-17)
(0.727198 -0.00155762 -7.04936e-17)
(1.98263 0.134632 7.51122e-17)
(1.19436 0.0880867 -1.70974e-16)
(1.65431 0.047859 -1.44572e-17)
(0.931016 0.0297388 -1.15873e-16)
(1.43258 0.0101476 2.79774e-17)
(0.729034 0.00199653 4.96298e-19)
(1.86553 0.37837 -1.34076e-16)
(1.11842 0.24574 2.34261e-16)
(1.61257 0.134564 -2.45532e-17)
(0.905336 0.0815676 1.93459e-16)
(1.42381 0.029875 -2.40865e-17)
(0.726061 0.00202978 -7.12034e-17)
(1.65425 0.546683 3.57543e-16)
(0.981347 0.355007 -4.40154e-16)
(1.53721 0.194259 2.20194e-17)
(0.860374 0.119056 -3.57927e-16)
(1.40665 0.0412915 7.27987e-17)
(0.726151 0.00696779 1.75545e-16)
(1.39061 0.607383 -7.0959e-16)
(0.810602 0.393917 5.95554e-16)
(1.44333 0.216651 -5.14604e-17)
(0.802833 0.130549 3.76042e-16)
(1.38655 0.0488633 1.96335e-17)
(0.722018 0.00324336 -4.11796e-16)
(1.12739 0.54715 3.47112e-16)
(0.6399 0.355026 -3.27104e-16)
(1.3496 0.194115 -2.21926e-16)
(0.74681 0.119747 -1.03694e-16)
(1.36579 0.0407362 -2.21214e-16)
(0.720633 0.00705091 4.17702e-16)
(0.915889 0.378863 3.72754e-17)
(0.50269 0.245517 1.28851e-16)
(1.27442 0.135372 2.80492e-16)
(0.700228 0.0809917 -7.82413e-18)
(1.34996 0.0313255 1.272e-16)
(0.717383 0.00104295 -1.61275e-16)
(0.798709 0.135581 1.36709e-17)
(0.426594 0.0880365 -3.48656e-17)
(1.23249 0.0475854 -9.29393e-17)
(0.67546 0.0311344 6.56526e-17)
(1.33987 0.00925163 -1.5057e-16)
(0.717705 0.00236456 2.1947e-16)
(0.799348 -0.134528 5.55369e-17)
(0.426295 -0.087499 -1.44709e-16)
(1.23359 -0.0476268 1.66933e-16)
(0.674375 -0.0295199 -2.24519e-16)
(1.34201 -0.00852669 1.65765e-16)
(0.715894 -0.00438465 -1.59287e-16)
(0.916412 -0.377959 -1.94376e-17)
(0.502045 -0.245363 2.82499e-16)
(1.275 -0.134912 -1.00638e-16)
(0.69974 -0.0803712 3.89911e-16)
(1.34963 -0.0299623 -1.30683e-16)
(0.718803 -0.00262336 -8.52644e-18)
(1.12805 -0.545971 3.85055e-16)
(0.638764 -0.354774 -5.63657e-16)
(1.35088 -0.194236 1.04859e-16)
(0.744635 -0.118156 -5.50489e-16)
(1.36743 -0.0409557 2.01694e-16)
(0.719801 -0.00802218 1.63513e-16)
(1.39129 -0.606311 -7.214e-16)
(0.809704 -0.393824 6.09764e-16)
(1.44452 -0.21554 -9.81413e-17)
(0.80169 -0.130562 4.04889e-16)
(1.38733 -0.0465539 7.73747e-18)
(0.722559 -0.00540379 -4.01016e-16)
(1.65445 -0.546209 3.45207e-16)
(0.980495 -0.355021 -3.42239e-16)
(1.53823 -0.194542 -1.11296e-16)
(0.858271 -0.118179 -1.63451e-16)
(1.40789 -0.0419045 -9.5142e-17)
(0.725327 -0.00662218 2.55064e-16)
(1.86557 -0.377988 -1.22202e-16)
(1.11749 -0.245462 2.01701e-16)
(1.6132 -0.134097 6.67418e-17)
(0.904087 -0.0816237 1.05095e-16)
(1.42391 -0.0284211 1.5869e-17)
(0.727101 -0.00405096 -8.90777e-17)
(1.98269 -0.135075 7.66839e-17)
(1.1939 -0.087654 -1.45399e-16)
(1.65506 -0.0482502 -3.17429e-17)
(0.929466 -0.0292203 -7.85536e-17)
(1.43309 -0.0104819 -3.444e-17)
(0.72843 -0.00169108 6.95127e-17)
(1.98262 0.13488 -7.53326e-17)
(1.19346 0.0877891 1.70398e-16)
(1.65467 0.0481054 1.43049e-17)
(0.92949 0.0291437 1.1577e-16)
(1.43257 0.0106968 -2.82841e-17)
(0.728735 0.000989552 2.00894e-19)
(1.86567 0.377921 1.34274e-16)
(1.11795 0.245899 -2.33652e-16)
(1.61331 0.134365 2.47461e-17)
(0.904379 0.0818051 -1.93417e-16)
(1.42372 0.0289387 2.451e-17)
(0.727417 0.00377872 7.02551e-17)
(1.65444 0.546216 -3.57705e-16)
(0.980393 0.35495 4.39577e-16)
(1.53783 0.194184 -2.21822e-17)
(0.858726 0.118055 3.58035e-16)
(1.4071 0.0417908 -7.3295e-17)
(0.725753 0.00567653 -1.74457e-16)
(1.39131 0.606393 7.0983e-16)
(0.809986 0.394322 -5.95019e-16)
(1.44431 0.215668 5.16533e-17)
(0.802047 0.131195 -3.76262e-16)
(1.38687 0.046254 -1.90155e-17)
(0.722926 0.00653301 4.10639e-16)
(1.12794 0.546226 -3.47388e-16)
(0.638818 0.3548 3.26609e-16)
(1.35041 0.194042 2.21591e-16)
(0.745178 0.118005 1.03997e-16)
(1.36648 0.0413439 2.20401e-16)
(0.720411 0.00630454 -4.16259e-16)
(0.916614 0.378076 -3.70327e-17)
(0.502178 0.245983 -1.28262e-16)
(1.27514 0.134391 -2.80332e-16)
(0.699801 0.0817861 7.82556e-18)
(1.35016 0.0283687 -1.26759e-16)
(0.718123 0.00474875 1.60306e-16)
(0.79938 0.134666 -1.39595e-17)
(0.426112 0.0874768 3.43497e-17)
(1.23336 0.0475265 9.26066e-17)
(0.674582 0.0289719 -6.54936e-17)
(1.34116 0.00942326 1.49907e-16)
(0.716814 0.00248581 -2.18269e-16)
)
;

boundaryField
{
    out
    {
        type            fixedValue;
        value           uniform (1 0 0);
    }
    in
    {
        type            myVelocity;
    }
    frontAndBack
    {
        type            empty;
    }
}


// ************************************************************************* //
