/*--------------------------------*- C++ -*----------------------------------*\
| =========                 |                                                 |
| \\      /  F ield         | foam-extend: Open Source CFD                    |
|  \\    /   O peration     | Version:  3.0                                   |
|   \\  /    A nd           | Web:         http://www.extend-project.de       |
|    \\/     M anipulation  |                                                 |
\*---------------------------------------------------------------------------*/
FoamFile
{
    version     2.0;
    format      ascii;
    class       volScalarField;
    location    "5";
    object      p;
}
// * * * * * * * * * * * * * * * * * * * * * * * * * * * * * * * * * * * * * //

dimensions      [0 0 0 0 0 0 0];

internalField   nonuniform List<scalar> 
1920
(
-0.263928
-0.240956
-0.229215
-0.215085
-0.208908
-0.199977
-0.197056
-0.191389
-0.190408
-0.186806
-0.186889
-0.184497
-0.184958
-0.18307
-0.183283
-0.18123
-0.180553
-0.177633
-0.175346
-0.170769
-0.262802
-0.239929
-0.228239
-0.21417
-0.208021
-0.199128
-0.19622
-0.190576
-0.189601
-0.186014
-0.186097
-0.183715
-0.184174
-0.182293
-0.182506
-0.18046
-0.179787
-0.176879
-0.174601
-0.170043
-0.260547
-0.23787
-0.226281
-0.212332
-0.206235
-0.197419
-0.194536
-0.18894
-0.187972
-0.184416
-0.184498
-0.182137
-0.182592
-0.180727
-0.180938
-0.178911
-0.178243
-0.17536
-0.173103
-0.168584
-0.257181
-0.234797
-0.223358
-0.20959
-0.203572
-0.194871
-0.192025
-0.186502
-0.185547
-0.182037
-0.182119
-0.179788
-0.180237
-0.178396
-0.178604
-0.176602
-0.175943
-0.173098
-0.170869
-0.166409
-0.252707
-0.230713
-0.219473
-0.205945
-0.200031
-0.191481
-0.188684
-0.183258
-0.182319
-0.17887
-0.17895
-0.17666
-0.177101
-0.175292
-0.175497
-0.17353
-0.172883
-0.170087
-0.167897
-0.163515
-0.247158
-0.225648
-0.214655
-0.201424
-0.195641
-0.187279
-0.184544
-0.179237
-0.178319
-0.174946
-0.175024
-0.172784
-0.173216
-0.171447
-0.171647
-0.169723
-0.169089
-0.166355
-0.164213
-0.159926
-0.240543
-0.219608
-0.208909
-0.196033
-0.190404
-0.182266
-0.179604
-0.17444
-0.173546
-0.170264
-0.17034
-0.16816
-0.16858
-0.166858
-0.167053
-0.165181
-0.164565
-0.161903
-0.159819
-0.155647
-0.232907
-0.212638
-0.202278
-0.189811
-0.184361
-0.176482
-0.173905
-0.168904
-0.16804
-0.164861
-0.164935
-0.162824
-0.163231
-0.161564
-0.161752
-0.159939
-0.159342
-0.156765
-0.154747
-0.150708
-0.224263
-0.204746
-0.194771
-0.182766
-0.177519
-0.169932
-0.167451
-0.162636
-0.161803
-0.158743
-0.158814
-0.156782
-0.157174
-0.155569
-0.15575
-0.154005
-0.153431
-0.15095
-0.149006
-0.145117
-0.214671
-0.195989
-0.18644
-0.17495
-0.169927
-0.162665
-0.16029
-0.155681
-0.154884
-0.151955
-0.152023
-0.150078
-0.150453
-0.148916
-0.14909
-0.147419
-0.146869
-0.144494
-0.142634
-0.138911
-0.204146
-0.18638
-0.1773
-0.166372
-0.161596
-0.15469
-0.152432
-0.148049
-0.147292
-0.144506
-0.144571
-0.142721
-0.143078
-0.141617
-0.141783
-0.140194
-0.139671
-0.137413
-0.135644
-0.132104
-0.192761
-0.175986
-0.167412
-0.157095
-0.152585
-0.146065
-0.143932
-0.139794
-0.139079
-0.136449
-0.13651
-0.134763
-0.1351
-0.13372
-0.133877
-0.132377
-0.131883
-0.12975
-0.12808
-0.124738
-0.180536
-0.164825
-0.156795
-0.147132
-0.142908
-0.136802
-0.134805
-0.13093
-0.13026
-0.127797
-0.127854
-0.126219
-0.126534
-0.125243
-0.125389
-0.123985
-0.123523
-0.121526
-0.119962
-0.116831
-0.167553
-0.152972
-0.14552
-0.136552
-0.132632
-0.126965
-0.125112
-0.121515
-0.120894
-0.118608
-0.118661
-0.117143
-0.117436
-0.116237
-0.116373
-0.115069
-0.11464
-0.112787
-0.111335
-0.10843
-0.153836
-0.14045
-0.133607
-0.125374
-0.121776
-0.116573
-0.114871
-0.11157
-0.110999
-0.108901
-0.10895
-0.107557
-0.107826
-0.106725
-0.106851
-0.105654
-0.10526
-0.103559
-0.102226
-0.0995595
-0.139479
-0.127341
-0.121137
-0.113673
-0.11041
-0.105693
-0.104151
-0.101157
-0.10064
-0.0987377
-0.0987822
-0.0975187
-0.0977626
-0.0967648
-0.0968782
-0.0957932
-0.0954363
-0.0938937
-0.0926857
-0.0902678
-0.124505
-0.113671
-0.108134
-0.101471
-0.0985593
-0.0943491
-0.0929725
-0.0903011
-0.0898397
-0.088142
-0.0881821
-0.0870546
-0.0872727
-0.0863823
-0.0864838
-0.0855156
-0.0851973
-0.0838206
-0.0827424
-0.0805842
-0.109017
-0.0995308
-0.0946822
-0.088849
-0.0862992
-0.0826131
-0.0814078
-0.0790689
-0.0786648
-0.0771783
-0.0772133
-0.0762261
-0.0764169
-0.0756373
-0.0757261
-0.0748784
-0.0745997
-0.0733943
-0.0724503
-0.0705608
-0.0930433
-0.0849478
-0.0808101
-0.0758323
-0.0736566
-0.0705113
-0.0694831
-0.0674875
-0.0671431
-0.0658749
-0.0659052
-0.065063
-0.0652263
-0.0645612
-0.0646374
-0.0639142
-0.0636766
-0.0626481
-0.0618427
-0.0602301
-0.0766902
-0.0700177
-0.0666071
-0.0625047
-0.0607116
-0.0581195
-0.0572722
-0.0556276
-0.0553437
-0.0542986
-0.0543235
-0.0536294
-0.0537639
-0.0532158
-0.0532786
-0.0526826
-0.0524868
-0.0516392
-0.0509755
-0.0496464
-0.0599896
-0.0547709
-0.0521036
-0.0488956
-0.0474937
-0.045467
-0.0448048
-0.0435192
-0.0432977
-0.0424808
-0.0425007
-0.0419583
-0.0420639
-0.0416356
-0.0416851
-0.0412193
-0.0410665
-0.0404037
-0.0398849
-0.0388454
-0.0430513
-0.0393065
-0.0373923
-0.035091
-0.0340853
-0.0326316
-0.0321567
-0.0312346
-0.0310758
-0.0304899
-0.0305043
-0.0301152
-0.0301911
-0.0298839
-0.0299195
-0.0295854
-0.029476
-0.0290006
-0.0286284
-0.0278826
-0.0259094
-0.023657
-0.0225057
-0.0211224
-0.0205181
-0.0196447
-0.0193599
-0.0188062
-0.0187114
-0.0183598
-0.018369
-0.0181356
-0.0181818
-0.0179976
-0.0180196
-0.0178191
-0.0177538
-0.0174681
-0.0172446
-0.0167959
-0.00867578
-0.00792288
-0.00753784
-0.00707699
-0.00687577
-0.00658534
-0.00649103
-0.00630719
-0.00627621
-0.00615955
-0.00616315
-0.00608578
-0.00610172
-0.00604071
-0.00604865
-0.00598218
-0.00596095
-0.00586586
-0.00579162
-0.00564178
0.00861404
0.00786175
0.00747737
0.0070123
0.0068086
0.00651369
0.00641633
0.00622858
0.00619505
0.00607542
0.006077
0.00599736
0.00601136
0.00594834
0.00595419
0.00588591
0.00586266
0.00576638
0.00569075
0.00554089
0.025848
0.0235962
0.0224455
0.0210581
0.0204513
0.0195735
0.0192857
0.0187281
0.0186307
0.0182761
0.0182833
0.0180477
0.0180919
0.0179057
0.0179256
0.0177233
0.017656
0.0173691
0.0171442
0.0166955
0.0429901
0.0392459
0.0373325
0.035027
0.0340188
0.0325607
0.0320828
0.0311568
0.0309955
0.0304067
0.030419
0.0300277
0.0301017
0.0297925
0.0298261
0.0294902
0.0293788
0.0289022
0.0285287
0.0277829
0.0599295
0.0547114
0.0520448
0.0488328
0.0474285
0.0453974
0.0447323
0.0434428
0.0432189
0.042399
0.0424169
0.0418723
0.041976
0.0415456
0.0415931
0.0411255
0.0409708
0.0403068
0.0397866
0.0387471
0.0766306
0.0699586
0.0665488
0.0624424
0.060647
0.0580506
0.0572004
0.055552
0.0552657
0.0542177
0.0542406
0.0535443
0.0536769
0.0531268
0.0531876
0.0525898
0.0523922
0.0515434
0.0508784
0.0495494
0.0929854
0.0848904
0.0807534
0.0757718
0.073594
0.0704445
0.0694135
0.0674142
0.0670674
0.0657964
0.0658247
0.0649803
0.0651417
0.0644747
0.0645488
0.0638239
0.0635844
0.0625547
0.0617481
0.0601355
0.10896
0.0994743
0.0946265
0.0887894
0.0862375
0.0825473
0.0813393
0.0789967
0.0785903
0.077101
0.0771341
0.0761447
0.0763337
0.0755521
0.0756391
0.0747896
0.0745091
0.0733026
0.0723575
0.070468
0.12445
0.113617
0.10808
0.101414
0.0985002
0.0942861
0.092907
0.090232
0.0897684
0.0880679
0.0881062
0.0869765
0.0871928
0.0863005
0.0864001
0.0854302
0.0851101
0.0837323
0.082653
0.0804948
0.139425
0.127288
0.121085
0.113617
0.110353
0.105632
0.104086
0.10109
0.10057
0.0986652
0.0987079
0.0974423
0.0976845
0.0966848
0.0967963
0.0957098
0.0953511
0.0938076
0.0925985
0.0901808
0.153785
0.140399
0.133558
0.125322
0.121721
0.116515
0.114811
0.111506
0.110933
0.108833
0.10888
0.107485
0.107752
0.10665
0.106773
0.105575
0.105179
0.103477
0.102144
0.0994768
0.167505
0.152924
0.145472
0.136501
0.13258
0.126909
0.125053
0.121453
0.120829
0.118541
0.118593
0.117073
0.117364
0.116163
0.116297
0.114992
0.114562
0.112708
0.111255
0.10835
0.180489
0.164779
0.15675
0.147084
0.142859
0.136749
0.13475
0.130872
0.1302
0.127735
0.127791
0.126153
0.126467
0.125174
0.125319
0.123913
0.123449
0.121451
0.119886
0.116757
0.192718
0.175943
0.16737
0.15705
0.152538
0.146014
0.14388
0.139739
0.139021
0.136389
0.136449
0.1347
0.135035
0.133654
0.133809
0.132307
0.131812
0.129679
0.128008
0.124666
0.204105
0.186339
0.17726
0.166331
0.161553
0.154644
0.152384
0.147999
0.147239
0.144452
0.144515
0.142664
0.143019
0.141557
0.141721
0.140131
0.139606
0.137347
0.135578
0.132039
0.214634
0.195952
0.186404
0.174911
0.169887
0.162622
0.160244
0.155633
0.154835
0.151903
0.15197
0.150023
0.150396
0.148858
0.14903
0.147359
0.146807
0.144432
0.142571
0.138849
0.224228
0.204712
0.194737
0.182731
0.177482
0.169893
0.16741
0.162593
0.161759
0.158697
0.158767
0.156733
0.157124
0.155517
0.155697
0.153951
0.153375
0.150893
0.14895
0.145061
0.232878
0.212609
0.202249
0.18978
0.184329
0.176447
0.173868
0.168865
0.167999
0.164818
0.164891
0.162778
0.163184
0.161515
0.161702
0.159889
0.15929
0.156713
0.154694
0.150656
0.240515
0.219581
0.208882
0.196004
0.190375
0.182235
0.179572
0.174406
0.173511
0.170227
0.170302
0.168121
0.16854
0.166817
0.16701
0.165137
0.16452
0.161858
0.159773
0.155602
0.247137
0.225627
0.214634
0.201401
0.195617
0.187252
0.184516
0.179207
0.178288
0.174914
0.174991
0.172749
0.173179
0.171409
0.171608
0.169683
0.169048
0.166313
0.164171
0.159885
0.252686
0.230693
0.219453
0.205924
0.20001
0.191459
0.188661
0.183234
0.182295
0.178844
0.178924
0.176632
0.177072
0.175262
0.175465
0.173498
0.172849
0.170052
0.167862
0.16348
0.257168
0.234785
0.223346
0.209577
0.203558
0.194855
0.192007
0.186484
0.185527
0.182016
0.182096
0.179764
0.180212
0.17837
0.178577
0.176574
0.175914
0.173067
0.170838
0.166379
0.260533
0.237858
0.226269
0.21232
0.206223
0.197407
0.194523
0.188927
0.187959
0.184402
0.184483
0.182121
0.182575
0.180708
0.180918
0.17889
0.178221
0.175338
0.173079
0.168561
0.262799
0.239926
0.228236
0.214166
0.208016
0.199123
0.196214
0.190569
0.189592
0.186004
0.186086
0.183703
0.184161
0.182278
0.18249
0.180444
0.179769
0.176861
0.174583
0.170025
0.263923
0.240953
0.229214
0.215084
0.208908
0.199977
0.197056
0.191387
0.190407
0.186804
0.186887
0.184493
0.184953
0.183063
0.183276
0.181221
0.180543
0.177623
0.175335
0.170758
0.263933
0.240962
0.229222
0.215092
0.208915
0.199984
0.197062
0.191394
0.190413
0.18681
0.186893
0.184499
0.184959
0.183069
0.183281
0.181226
0.180549
0.177628
0.17534
0.170763
0.262796
0.239925
0.228236
0.214167
0.208018
0.199125
0.196217
0.190573
0.189597
0.18601
0.186092
0.183709
0.184167
0.182285
0.182497
0.180451
0.179777
0.176868
0.17459
0.170033
0.260551
0.237875
0.226286
0.212337
0.20624
0.197424
0.19454
0.188944
0.187976
0.184419
0.184501
0.182138
0.182593
0.180726
0.180936
0.178908
0.178239
0.175356
0.173097
0.168579
0.257174
0.234792
0.223353
0.209586
0.203568
0.194867
0.192021
0.186498
0.185543
0.182033
0.182114
0.179782
0.18023
0.178389
0.178596
0.176594
0.175934
0.173088
0.170859
0.166399
0.252712
0.230718
0.219478
0.205949
0.200036
0.191485
0.188688
0.183262
0.182323
0.178873
0.178953
0.176661
0.177102
0.175292
0.175496
0.173528
0.172879
0.170083
0.167892
0.16351
0.24715
0.225641
0.214649
0.201419
0.195636
0.187274
0.184539
0.179232
0.178314
0.174941
0.175019
0.172778
0.173209
0.171439
0.171639
0.169715
0.169081
0.166346
0.164204
0.159918
0.240548
0.219613
0.208914
0.196038
0.190409
0.18227
0.179609
0.174443
0.17355
0.170267
0.170342
0.168161
0.168581
0.166858
0.167052
0.165179
0.164562
0.1619
0.159815
0.155644
0.232898
0.21263
0.202271
0.189805
0.184356
0.176477
0.1739
0.168899
0.168035
0.164856
0.16493
0.162818
0.163225
0.161557
0.161745
0.159932
0.159335
0.156757
0.154739
0.1507
0.224268
0.204751
0.194776
0.182772
0.177524
0.169937
0.167456
0.162641
0.161808
0.158747
0.158818
0.156784
0.157175
0.15557
0.15575
0.154005
0.153429
0.150947
0.149003
0.145114
0.214661
0.19598
0.186433
0.174943
0.169921
0.16266
0.160285
0.155677
0.15488
0.151951
0.152018
0.150073
0.150447
0.14891
0.149084
0.147413
0.146862
0.144487
0.142626
0.138904
0.204152
0.186386
0.177306
0.166379
0.161602
0.154696
0.152438
0.148055
0.147297
0.144511
0.144575
0.142725
0.143081
0.141619
0.141784
0.140195
0.139671
0.137412
0.135642
0.132102
0.19275
0.175977
0.167405
0.157089
0.15258
0.14606
0.143928
0.13979
0.139075
0.136445
0.136506
0.134759
0.135096
0.133716
0.133871
0.132371
0.131877
0.129744
0.128073
0.124731
0.180542
0.164831
0.156802
0.147139
0.142915
0.136809
0.134812
0.130936
0.130266
0.127802
0.12786
0.126223
0.126538
0.125245
0.125391
0.123986
0.123523
0.121525
0.11996
0.116829
0.167542
0.152963
0.145512
0.136546
0.132627
0.126961
0.125108
0.121512
0.120891
0.118605
0.118658
0.11714
0.117432
0.116233
0.116369
0.115065
0.114635
0.112781
0.111329
0.108424
0.153843
0.140456
0.133615
0.125382
0.121783
0.11658
0.114879
0.111577
0.111006
0.108907
0.108956
0.107562
0.10783
0.106729
0.106853
0.105656
0.105261
0.103559
0.102225
0.0995576
0.139466
0.127331
0.12113
0.113667
0.110405
0.105689
0.104147
0.101155
0.100638
0.0987354
0.0987799
0.0975163
0.0977599
0.0967618
0.0968747
0.0957893
0.0954317
0.0938886
0.0926798
0.0902611
0.124512
0.113678
0.108141
0.101479
0.0985672
0.0943569
0.0929804
0.0903086
0.089847
0.0881487
0.0881884
0.0870602
0.0872775
0.0863864
0.086487
0.0855179
0.0851986
0.0838209
0.0827417
0.0805823
0.109005
0.0995211
0.0946744
0.0888428
0.0862943
0.0826092
0.0814047
0.0790664
0.0786627
0.0771765
0.0772115
0.0762242
0.0764147
0.0756349
0.0757232
0.074875
0.0745956
0.0733895
0.0724447
0.0705542
0.0930508
0.0849554
0.080818
0.0758403
0.0736649
0.0705194
0.0694913
0.0674953
0.0671507
0.065882
0.0659118
0.065069
0.0652315
0.0645657
0.064641
0.0639169
0.0636783
0.0626487
0.0618421
0.0602282
0.0766779
0.070008
0.0665993
0.0624986
0.0607068
0.0581158
0.0572693
0.0556253
0.0553419
0.054297
0.0543219
0.0536279
0.0537621
0.0532138
0.053276
0.0526796
0.0524831
0.0516347
0.0509701
0.04964
0.0599975
0.0547789
0.0521118
0.0489039
0.0475021
0.0454754
0.0448132
0.0435272
0.0433055
0.0424881
0.0425076
0.0419645
0.0420694
0.0416404
0.041689
0.0412223
0.0410684
0.0404046
0.0398845
0.0388436
0.0430391
0.039297
0.0373846
0.035085
0.0340805
0.032628
0.0321539
0.0312325
0.0310741
0.0304886
0.030503
0.030114
0.0301895
0.0298822
0.0299173
0.0295827
0.0294726
0.0289964
0.0286233
0.0278764
0.0259176
0.0236653
0.0225142
0.0211309
0.0205267
0.0196533
0.0193685
0.0188145
0.0187195
0.0183674
0.0183761
0.0181422
0.0181876
0.0180027
0.0180238
0.0178224
0.017756
0.0174692
0.0172444
0.0167943
0.00866367
0.00791348
0.00753017
0.00707108
0.00687104
0.00658185
0.00648831
0.00630529
0.00627467
0.00615846
0.00616208
0.00608484
0.00610047
0.00603931
0.00604668
0.00597976
0.00595776
0.00586192
0.00578671
0.00563575
-0.00860559
-0.00785317
-0.00746868
-0.0070036
-0.0067998
-0.00650497
-0.00640762
-0.0062201
-0.0061868
-0.00606758
-0.00606964
-0.00599056
-0.00600528
-0.005943
-0.00594976
-0.0058824
-0.00586025
-0.00576509
-0.00569071
-0.00554221
-0.0258601
-0.0236055
-0.0224531
-0.0210639
-0.020456
-0.0195769
-0.0192883
-0.0187298
-0.0186321
-0.018277
-0.0182842
-0.0180484
-0.018093
-0.0179069
-0.0179274
-0.0177255
-0.017659
-0.0173729
-0.0171489
-0.0167013
-0.0429815
-0.0392372
-0.0373237
-0.0350182
-0.0340099
-0.0325519
-0.032074
-0.0311482
-0.0309871
-0.0303987
-0.0304115
-0.0300207
-0.0300954
-0.0297869
-0.0298215
-0.0294865
-0.0293762
-0.0289007
-0.0285284
-0.0277839
-0.0599414
-0.0547206
-0.0520523
-0.0488384
-0.047433
-0.0454007
-0.0447349
-0.0434445
-0.0432202
-0.0423998
-0.0424178
-0.0418729
-0.0419769
-0.0415468
-0.0415948
-0.0411276
-0.0409737
-0.0403104
-0.0397911
-0.0387526
-0.0766221
-0.0699499
-0.06654
-0.0624336
-0.0606381
-0.0580417
-0.0571915
-0.0555433
-0.0552573
-0.0542096
-0.054233
-0.0535373
-0.0536706
-0.0531212
-0.0531829
-0.0525861
-0.0523895
-0.0515418
-0.050878
-0.0495502
-0.0929973
-0.0848995
-0.0807609
-0.0757774
-0.0735985
-0.0704477
-0.0694161
-0.0674159
-0.0670688
-0.0657973
-0.0658256
-0.0649811
-0.0651428
-0.0644759
-0.0645506
-0.0638261
-0.0635874
-0.0625585
-0.0617527
-0.060141
-0.108952
-0.0994658
-0.0946178
-0.0887807
-0.0862287
-0.0825385
-0.0813305
-0.0789882
-0.078582
-0.0770931
-0.0771267
-0.0761379
-0.0763276
-0.0755468
-0.0756346
-0.0747861
-0.0745066
-0.0733012
-0.0723572
-0.0704689
-0.124462
-0.113626
-0.108088
-0.10142
-0.0985048
-0.0942895
-0.0929097
-0.090234
-0.0897701
-0.0880691
-0.0881074
-0.0869777
-0.0871943
-0.0863021
-0.0864023
-0.0854328
-0.0851134
-0.0837363
-0.0826578
-0.0805005
-0.139417
-0.12728
-0.121077
-0.113609
-0.110344
-0.105623
-0.104078
-0.101082
-0.100562
-0.0986577
-0.0987009
-0.0974359
-0.0976788
-0.0966799
-0.0967923
-0.0957067
-0.0953491
-0.0938066
-0.0925985
-0.0901819
-0.153797
-0.140408
-0.133565
-0.125327
-0.121726
-0.116518
-0.114814
-0.111508
-0.110936
-0.108834
-0.108882
-0.107486
-0.107754
-0.106652
-0.106776
-0.105578
-0.105183
-0.103482
-0.102149
-0.0994829
-0.167497
-0.152916
-0.145464
-0.136493
-0.132571
-0.1269
-0.125045
-0.121445
-0.120822
-0.118534
-0.118586
-0.117067
-0.117359
-0.116159
-0.116294
-0.11499
-0.11456
-0.112707
-0.111256
-0.108352
-0.180501
-0.164788
-0.156757
-0.14709
-0.142864
-0.136753
-0.134753
-0.130875
-0.130203
-0.127737
-0.127794
-0.126156
-0.12647
-0.125177
-0.125323
-0.123917
-0.123454
-0.121457
-0.119892
-0.116763
-0.192711
-0.175936
-0.167362
-0.157042
-0.15253
-0.146006
-0.143872
-0.139732
-0.139015
-0.136383
-0.136443
-0.134695
-0.135031
-0.133651
-0.133806
-0.132306
-0.131811
-0.129679
-0.128009
-0.124668
-0.204116
-0.186348
-0.177267
-0.166336
-0.161557
-0.154648
-0.152387
-0.148002
-0.147243
-0.144455
-0.144519
-0.142667
-0.143023
-0.141561
-0.141725
-0.140136
-0.139612
-0.137353
-0.135584
-0.132046
-0.214628
-0.195945
-0.186397
-0.174903
-0.169879
-0.162614
-0.160237
-0.155627
-0.154829
-0.151898
-0.151965
-0.150019
-0.150393
-0.148856
-0.149029
-0.147358
-0.146807
-0.144433
-0.142573
-0.138851
-0.224239
-0.20472
-0.194744
-0.182736
-0.177487
-0.169897
-0.167414
-0.162596
-0.161763
-0.158701
-0.158771
-0.156737
-0.157128
-0.155522
-0.155703
-0.153957
-0.153382
-0.1509
-0.148957
-0.145069
-0.232872
-0.212602
-0.202242
-0.189773
-0.184321
-0.17644
-0.173861
-0.168859
-0.167993
-0.164814
-0.164887
-0.162775
-0.163181
-0.161514
-0.161702
-0.159889
-0.159292
-0.156715
-0.154697
-0.150659
-0.240524
-0.219588
-0.208888
-0.196009
-0.190379
-0.182238
-0.179576
-0.174409
-0.173515
-0.170231
-0.170307
-0.168126
-0.168545
-0.166822
-0.167017
-0.165144
-0.164527
-0.161866
-0.159781
-0.15561
-0.247132
-0.225621
-0.214627
-0.201395
-0.19561
-0.187246
-0.18451
-0.179202
-0.178283
-0.174909
-0.174987
-0.172746
-0.173178
-0.171408
-0.171608
-0.169684
-0.169051
-0.166316
-0.164175
-0.159889
-0.252694
-0.230699
-0.219458
-0.205928
-0.200014
-0.191462
-0.188665
-0.183237
-0.182298
-0.178849
-0.178928
-0.176637
-0.177078
-0.175268
-0.175473
-0.173506
-0.172858
-0.170062
-0.167872
-0.16349
-0.257163
-0.23478
-0.22334
-0.20957
-0.203551
-0.194848
-0.192001
-0.186478
-0.185522
-0.182012
-0.182093
-0.179762
-0.180211
-0.17837
-0.178578
-0.176576
-0.175917
-0.173072
-0.170843
-0.166384
-0.26054
-0.237863
-0.226273
-0.212324
-0.206226
-0.197409
-0.194526
-0.18893
-0.187962
-0.184406
-0.184488
-0.182126
-0.182581
-0.180716
-0.180927
-0.178899
-0.178231
-0.175348
-0.17309
-0.168572
-0.262795
-0.239922
-0.228231
-0.21416
-0.20801
-0.199117
-0.196208
-0.190564
-0.189587
-0.186
-0.186083
-0.183701
-0.18416
-0.182279
-0.182492
-0.180447
-0.179773
-0.176866
-0.174589
-0.170031
-0.263928
-0.240957
-0.229217
-0.215087
-0.208911
-0.199979
-0.197059
-0.191391
-0.19041
-0.186808
-0.186892
-0.184499
-0.18496
-0.18307
-0.183284
-0.18123
-0.180553
-0.177633
-0.175346
-0.170769
)
;

boundaryField
{
    out
    {
        type            implicitExtrapolation;
    }
    in
    {
        type            implicitExtrapolation;
    }
    frontAndBack
    {
        type            empty;
    }
}


// ************************************************************************* //
