/*--------------------------------*- C++ -*----------------------------------*\
| =========                 |                                                 |
| \\      /  F ield         | foam-extend: Open Source CFD                    |
|  \\    /   O peration     | Version:  3.0                                   |
|   \\  /    A nd           | Web:         http://www.extend-project.de       |
|    \\/     M anipulation  |                                                 |
\*---------------------------------------------------------------------------*/
FoamFile
{
    version     2.0;
    format      ascii;
    class       volScalarField;
    location    "30";
    object      p;
}
// * * * * * * * * * * * * * * * * * * * * * * * * * * * * * * * * * * * * * //

dimensions      [0 0 0 0 0 0 0];

internalField   nonuniform List<scalar> 
7680
(
-0.234762
-0.222771
-0.213901
-0.204523
-0.197746
-0.190299
-0.18508
-0.179103
-0.17507
-0.170239
-0.167127
-0.163203
-0.160816
-0.15762
-0.155807
-0.153199
-0.151842
-0.14971
-0.148711
-0.146962
-0.146241
-0.144797
-0.14428
-0.143072
-0.142695
-0.141659
-0.141361
-0.140438
-0.140159
-0.139291
-0.138971
-0.1381
-0.137677
-0.136742
-0.13615
-0.135088
-0.134255
-0.132997
-0.131845
-0.130316
-0.234523
-0.222545
-0.213683
-0.204314
-0.197544
-0.190105
-0.184891
-0.17892
-0.174891
-0.170065
-0.166956
-0.163036
-0.160651
-0.157458
-0.155647
-0.153042
-0.151686
-0.149555
-0.148558
-0.146811
-0.14609
-0.144647
-0.144131
-0.142924
-0.142547
-0.141512
-0.141214
-0.140293
-0.140014
-0.139147
-0.138827
-0.137957
-0.137533
-0.1366
-0.136008
-0.134947
-0.134115
-0.132859
-0.131708
-0.13018
-0.234008
-0.222056
-0.213214
-0.203866
-0.197111
-0.189689
-0.184486
-0.178529
-0.174509
-0.169693
-0.166591
-0.16268
-0.160301
-0.157115
-0.155308
-0.152708
-0.151356
-0.14923
-0.148235
-0.146492
-0.145773
-0.144333
-0.143818
-0.142614
-0.142238
-0.141206
-0.140909
-0.139989
-0.139711
-0.138846
-0.138527
-0.137659
-0.137237
-0.136305
-0.135715
-0.134657
-0.133826
-0.132573
-0.131424
-0.1299
-0.233268
-0.221354
-0.212539
-0.203221
-0.196488
-0.189088
-0.183902
-0.177963
-0.173956
-0.169156
-0.166063
-0.162164
-0.159792
-0.156617
-0.154815
-0.152224
-0.150875
-0.148756
-0.147764
-0.146026
-0.145309
-0.143874
-0.143361
-0.14216
-0.141786
-0.140757
-0.14046
-0.139544
-0.139266
-0.138404
-0.138086
-0.13722
-0.136799
-0.135871
-0.135282
-0.134227
-0.133399
-0.13215
-0.131005
-0.129485
-0.232253
-0.22039
-0.211615
-0.202337
-0.195633
-0.188266
-0.183102
-0.17719
-0.1732
-0.168421
-0.165342
-0.161461
-0.159099
-0.155937
-0.154144
-0.151564
-0.150222
-0.148112
-0.147124
-0.145394
-0.14468
-0.143252
-0.142741
-0.141546
-0.141173
-0.140148
-0.139854
-0.138941
-0.138665
-0.137806
-0.13749
-0.136628
-0.136209
-0.135285
-0.134699
-0.133648
-0.132824
-0.13158
-0.130441
-0.128927
-0.231014
-0.219215
-0.210486
-0.201258
-0.194589
-0.187262
-0.182125
-0.176244
-0.172276
-0.167522
-0.164459
-0.160598
-0.158249
-0.155104
-0.153321
-0.150754
-0.149419
-0.14732
-0.146338
-0.144617
-0.143907
-0.142486
-0.141977
-0.140788
-0.140418
-0.139398
-0.139105
-0.138197
-0.137922
-0.137068
-0.136753
-0.135896
-0.13548
-0.13456
-0.133977
-0.132932
-0.132113
-0.130875
-0.129742
-0.128236
-0.229503
-0.217781
-0.209109
-0.199942
-0.193317
-0.186037
-0.180935
-0.175093
-0.17115
-0.166428
-0.163385
-0.15955
-0.157216
-0.154092
-0.15232
-0.14977
-0.148444
-0.146359
-0.145384
-0.143674
-0.142969
-0.141557
-0.141052
-0.139871
-0.139503
-0.138491
-0.138199
-0.137298
-0.137025
-0.136177
-0.135864
-0.135012
-0.134598
-0.133685
-0.133106
-0.132068
-0.131254
-0.130024
-0.128898
-0.127403
-0.227771
-0.216138
-0.207531
-0.198433
-0.191858
-0.184633
-0.179569
-0.173771
-0.169858
-0.165171
-0.162151
-0.158345
-0.156029
-0.152928
-0.151169
-0.148639
-0.147322
-0.145253
-0.144285
-0.142588
-0.141888
-0.140487
-0.139986
-0.138813
-0.138448
-0.137443
-0.137154
-0.136259
-0.135988
-0.135146
-0.134835
-0.13399
-0.13358
-0.132673
-0.132098
-0.131068
-0.13026
-0.12904
-0.127922
-0.126438
-0.22577
-0.214239
-0.205708
-0.19669
-0.190173
-0.183012
-0.177992
-0.172246
-0.168367
-0.163721
-0.160729
-0.156956
-0.15466
-0.151587
-0.149844
-0.147336
-0.146031
-0.14398
-0.14302
-0.141339
-0.140645
-0.139256
-0.13876
-0.137598
-0.137236
-0.13624
-0.135953
-0.135066
-0.134798
-0.133964
-0.133656
-0.132818
-0.132411
-0.131513
-0.130943
-0.129922
-0.129121
-0.127912
-0.126804
-0.125333
-0.223553
-0.212135
-0.203688
-0.194758
-0.188305
-0.181214
-0.176244
-0.170553
-0.166712
-0.162112
-0.159149
-0.155413
-0.15314
-0.150096
-0.14837
-0.145887
-0.144595
-0.142564
-0.141614
-0.139948
-0.139261
-0.137886
-0.137395
-0.136244
-0.135885
-0.134899
-0.134615
-0.133737
-0.133471
-0.132645
-0.13234
-0.131511
-0.131108
-0.130218
-0.129654
-0.128643
-0.127849
-0.126652
-0.125555
-0.124099
-0.22107
-0.20978
-0.201427
-0.192596
-0.186215
-0.179203
-0.174288
-0.168661
-0.164863
-0.160314
-0.157384
-0.153689
-0.151442
-0.148432
-0.146726
-0.14427
-0.142992
-0.140984
-0.140045
-0.138398
-0.137719
-0.136359
-0.135873
-0.134735
-0.134381
-0.133406
-0.133125
-0.132257
-0.131994
-0.131177
-0.130876
-0.130056
-0.129657
-0.128777
-0.128219
-0.12722
-0.126435
-0.125251
-0.124166
-0.122726
-0.218377
-0.207224
-0.198973
-0.190249
-0.183946
-0.177019
-0.172164
-0.166605
-0.162853
-0.15836
-0.155465
-0.151816
-0.149595
-0.146622
-0.144936
-0.14251
-0.141248
-0.139265
-0.138336
-0.13671
-0.136039
-0.134696
-0.134215
-0.133091
-0.132741
-0.131778
-0.1315
-0.130642
-0.130383
-0.129576
-0.129278
-0.128468
-0.128074
-0.127205
-0.126654
-0.125667
-0.124892
-0.123722
-0.12265
-0.121228
-0.215424
-0.204422
-0.196282
-0.187677
-0.181459
-0.174627
-0.169837
-0.164354
-0.160653
-0.15622
-0.153365
-0.149765
-0.147575
-0.144642
-0.142979
-0.140586
-0.139341
-0.137385
-0.136469
-0.134865
-0.134203
-0.132878
-0.132404
-0.131296
-0.13095
-0.13
-0.129727
-0.12888
-0.128624
-0.127829
-0.127535
-0.126736
-0.126347
-0.12549
-0.124947
-0.123973
-0.123208
-0.122054
-0.120997
-0.119594
-0.212267
-0.201426
-0.193405
-0.184926
-0.178799
-0.172066
-0.167347
-0.161944
-0.158297
-0.153929
-0.151116
-0.147568
-0.14541
-0.142521
-0.140882
-0.138524
-0.137297
-0.135369
-0.134467
-0.132886
-0.132233
-0.130928
-0.130461
-0.129369
-0.129028
-0.128092
-0.127822
-0.126988
-0.126736
-0.125952
-0.125662
-0.124875
-0.124492
-0.123647
-0.123112
-0.122152
-0.121399
-0.120262
-0.11922
-0.117837
-0.208856
-0.198189
-0.190298
-0.181955
-0.175927
-0.169302
-0.164659
-0.159343
-0.155755
-0.151458
-0.14869
-0.145199
-0.143076
-0.140233
-0.138621
-0.136301
-0.135094
-0.133197
-0.132309
-0.130754
-0.130112
-0.128828
-0.128369
-0.127294
-0.126959
-0.126038
-0.125773
-0.124952
-0.124704
-0.123933
-0.123648
-0.122873
-0.122497
-0.121666
-0.121139
-0.120195
-0.119453
-0.118335
-0.11731
-0.115949
-0.205247
-0.194765
-0.187009
-0.178811
-0.172887
-0.166377
-0.161813
-0.156589
-0.153063
-0.14884
-0.146119
-0.142689
-0.140602
-0.137808
-0.136224
-0.133944
-0.132758
-0.130894
-0.130021
-0.128492
-0.127862
-0.126599
-0.126148
-0.125092
-0.124763
-0.123857
-0.123597
-0.12279
-0.122547
-0.121788
-0.121508
-0.120747
-0.120377
-0.11956
-0.119042
-0.118114
-0.117386
-0.116287
-0.115279
-0.113942
-0.201393
-0.191107
-0.183498
-0.175454
-0.169641
-0.163253
-0.158776
-0.15365
-0.15019
-0.146047
-0.143377
-0.140012
-0.137964
-0.135223
-0.133668
-0.131431
-0.130268
-0.128439
-0.127583
-0.126083
-0.125464
-0.124226
-0.123783
-0.122747
-0.122424
-0.121536
-0.12128
-0.120489
-0.12025
-0.119506
-0.119232
-0.118485
-0.118122
-0.11732
-0.116812
-0.115902
-0.115187
-0.114108
-0.11312
-0.111808
-0.197349
-0.18727
-0.179813
-0.17193
-0.166234
-0.159974
-0.155587
-0.150564
-0.147173
-0.143113
-0.140497
-0.137199
-0.135192
-0.132506
-0.130983
-0.12879
-0.12765
-0.125858
-0.125019
-0.123549
-0.122942
-0.121729
-0.121295
-0.120279
-0.119963
-0.119093
-0.118842
-0.118067
-0.117832
-0.117103
-0.116834
-0.116102
-0.115746
-0.114961
-0.114463
-0.113571
-0.11287
-0.111813
-0.110845
-0.109559
-0.193067
-0.183207
-0.175912
-0.168201
-0.162628
-0.156505
-0.152213
-0.147299
-0.143982
-0.14001
-0.137451
-0.134225
-0.132262
-0.129634
-0.128144
-0.125999
-0.124884
-0.12313
-0.12231
-0.120872
-0.120279
-0.119092
-0.118668
-0.117674
-0.117365
-0.116513
-0.116269
-0.11551
-0.115281
-0.114568
-0.114305
-0.113589
-0.113241
-0.112472
-0.111985
-0.111112
-0.110427
-0.109393
-0.108446
-0.107188
-0.188605
-0.178973
-0.171847
-0.164313
-0.158869
-0.152887
-0.148694
-0.143893
-0.140653
-0.136773
-0.134273
-0.131121
-0.129204
-0.126636
-0.12518
-0.123085
-0.121995
-0.120283
-0.119481
-0.118076
-0.117497
-0.116337
-0.115922
-0.114952
-0.11465
-0.113818
-0.113578
-0.112837
-0.112613
-0.111917
-0.11166
-0.11096
-0.11062
-0.10987
-0.109394
-0.108541
-0.107872
-0.106861
-0.105936
-0.104707
-0.183915
-0.174522
-0.167574
-0.160228
-0.15492
-0.149086
-0.144998
-0.140317
-0.137158
-0.133374
-0.130936
-0.127863
-0.125993
-0.12349
-0.12207
-0.120028
-0.118965
-0.117295
-0.116513
-0.115144
-0.114579
-0.113448
-0.113044
-0.112098
-0.111803
-0.110992
-0.110759
-0.110036
-0.109818
-0.109138
-0.108888
-0.108206
-0.107874
-0.107143
-0.106679
-0.105847
-0.105195
-0.104209
-0.103307
-0.102109
-0.179054
-0.16991
-0.163144
-0.155992
-0.150824
-0.145145
-0.141165
-0.136607
-0.133531
-0.129847
-0.127474
-0.124482
-0.122662
-0.120224
-0.118842
-0.116853
-0.115819
-0.114193
-0.113432
-0.112098
-0.111548
-0.110447
-0.110053
-0.109132
-0.108845
-0.108055
-0.107828
-0.107125
-0.106912
-0.106251
-0.106007
-0.105343
-0.10502
-0.104307
-0.103856
-0.103046
-0.102411
-0.101452
-0.100573
-0.0994063
-0.173975
-0.16509
-0.158517
-0.151568
-0.146547
-0.14103
-0.137162
-0.132734
-0.129746
-0.126166
-0.12386
-0.120953
-0.119185
-0.116817
-0.115474
-0.113542
-0.112537
-0.110957
-0.110218
-0.108922
-0.108388
-0.107318
-0.106936
-0.106041
-0.105762
-0.104995
-0.104774
-0.104091
-0.103885
-0.103242
-0.103005
-0.10236
-0.102046
-0.101354
-0.100915
-0.100129
-0.0995112
-0.0985794
-0.0977257
-0.0965921
-0.168736
-0.160119
-0.153743
-0.147004
-0.142134
-0.136782
-0.133031
-0.128736
-0.125837
-0.122366
-0.120129
-0.11731
-0.115594
-0.113298
-0.111995
-0.110121
-0.109146
-0.107614
-0.106896
-0.10564
-0.105122
-0.104084
-0.103713
-0.102845
-0.102575
-0.10183
-0.101616
-0.100954
-0.100753
-0.10013
-0.0998999
-0.0992741
-0.09897
-0.0982985
-0.0978727
-0.0971098
-0.0965111
-0.0956073
-0.0947792
-0.0936798
-0.16329
-0.154951
-0.148782
-0.14226
-0.137547
-0.132369
-0.128739
-0.124583
-0.121778
-0.118418
-0.116254
-0.113526
-0.111866
-0.109644
-0.108383
-0.10657
-0.105626
-0.104144
-0.10345
-0.102234
-0.101733
-0.100729
-0.10037
-0.09953
-0.0992684
-0.0985484
-0.0983415
-0.0977001
-0.0975063
-0.0969032
-0.0966808
-0.0960753
-0.095781
-0.0951313
-0.0947193
-0.0939811
-0.0934017
-0.0925271
-0.0917258
-0.0906618
-0.157696
-0.149642
-0.143684
-0.137386
-0.132834
-0.127833
-0.124327
-0.120313
-0.117605
-0.11436
-0.11227
-0.109635
-0.108032
-0.105886
-0.104668
-0.102917
-0.102006
-0.100574
-0.0999035
-0.0987291
-0.0982448
-0.0972752
-0.0969286
-0.0961173
-0.0958646
-0.0951692
-0.0949693
-0.0943498
-0.0941626
-0.09358
-0.0933652
-0.0927804
-0.0924961
-0.0918686
-0.0914707
-0.0907577
-0.0901981
-0.0893534
-0.0885796
-0.0875521
-0.151906
-0.144149
-0.13841
-0.132343
-0.127959
-0.123141
-0.119764
-0.115898
-0.113289
-0.110164
-0.108151
-0.105612
-0.104068
-0.102001
-0.100829
-0.0991414
-0.0982639
-0.0968846
-0.0962392
-0.0951081
-0.0946418
-0.0937079
-0.0933742
-0.0925928
-0.0923495
-0.0916798
-0.0914873
-0.0908907
-0.0907104
-0.0901494
-0.0899425
-0.0893793
-0.0891055
-0.0885011
-0.0881178
-0.0874311
-0.0868921
-0.0860784
-0.0853329
-0.0843432
-0.14598
-0.138525
-0.13301
-0.127179
-0.122966
-0.118336
-0.115091
-0.111376
-0.108868
-0.105865
-0.10393
-0.101491
-0.100007
-0.0980201
-0.0968934
-0.0952719
-0.0944286
-0.093103
-0.0924827
-0.0913956
-0.0909474
-0.0900498
-0.089729
-0.088978
-0.0887441
-0.0881004
-0.0879154
-0.087342
-0.0871687
-0.0866294
-0.0864305
-0.0858892
-0.0856261
-0.0850452
-0.0846768
-0.0840169
-0.0834988
-0.0827169
-0.0820005
-0.0810493
-0.139872
-0.132729
-0.127445
-0.121858
-0.117822
-0.113386
-0.110277
-0.106717
-0.104314
-0.101437
-0.0995834
-0.0972465
-0.0958248
-0.0939212
-0.0928418
-0.0912884
-0.0904805
-0.0892105
-0.0886164
-0.0875749
-0.0871455
-0.0862857
-0.0859785
-0.085259
-0.0850351
-0.0844184
-0.0842413
-0.0836919
-0.083526
-0.0830094
-0.0828189
-0.0823004
-0.0820483
-0.0814918
-0.0811389
-0.0805066
-0.0800102
-0.079261
-0.0785746
-0.0776632
-0.13364
-0.126815
-0.121766
-0.116428
-0.112571
-0.108333
-0.105362
-0.101961
-0.0996656
-0.0969163
-0.0951452
-0.0929122
-0.0915538
-0.0897349
-0.0887035
-0.0872191
-0.0864472
-0.0852337
-0.0846659
-0.0836707
-0.0832604
-0.0824388
-0.0821451
-0.0814576
-0.0812436
-0.0806543
-0.080485
-0.07996
-0.0798014
-0.0793078
-0.0791257
-0.0786302
-0.0783893
-0.0778576
-0.0775203
-0.0769161
-0.0764418
-0.075726
-0.0750701
-0.0741993
-0.127238
-0.120741
-0.115934
-0.110852
-0.10718
-0.103145
-0.100317
-0.0970788
-0.0948934
-0.092276
-0.0905899
-0.0884641
-0.0871709
-0.0854393
-0.0844575
-0.0830444
-0.0823096
-0.0811544
-0.0806139
-0.0796666
-0.0792761
-0.0784939
-0.0782145
-0.0775601
-0.0773564
-0.0767955
-0.0766344
-0.0761347
-0.0759838
-0.0755139
-0.0753407
-0.0748689
-0.0746397
-0.0741335
-0.0738124
-0.0732372
-0.0727856
-0.0721041
-0.0714796
-0.0706505
-0.120727
-0.114562
-0.110001
-0.105179
-0.101695
-0.097866
-0.0951823
-0.0921098
-0.0900362
-0.0875526
-0.0859527
-0.0839356
-0.0827085
-0.0810654
-0.0801337
-0.0787928
-0.0780955
-0.0769993
-0.0764864
-0.0755874
-0.0752169
-0.0744746
-0.0742094
-0.0735884
-0.0733951
-0.0728628
-0.0727098
-0.0722356
-0.0720924
-0.0716465
-0.071482
-0.0710343
-0.0708167
-0.0703364
-0.0700317
-0.0694859
-0.0690574
-0.0684107
-0.0678182
-0.0670315
-0.11406
-0.108235
-0.103927
-0.0993714
-0.0960798
-0.0924628
-0.0899275
-0.0870249
-0.085066
-0.0827197
-0.0812084
-0.0793028
-0.0781437
-0.0765915
-0.0757114
-0.0744448
-0.0737861
-0.0727506
-0.0722662
-0.071417
-0.0710671
-0.070366
-0.0701156
-0.069529
-0.0693464
-0.0688437
-0.0686993
-0.0682514
-0.0681161
-0.067695
-0.0675397
-0.0671168
-0.0669113
-0.0664575
-0.0661697
-0.0656541
-0.0652493
-0.0646383
-0.0640785
-0.0633352
-0.107297
-0.101818
-0.0977642
-0.093479
-0.0903825
-0.0869798
-0.0845948
-0.0818642
-0.0800213
-0.077814
-0.0763922
-0.0745995
-0.073509
-0.0720487
-0.0712208
-0.0700291
-0.0694094
-0.0684352
-0.0679794
-0.0671805
-0.0668512
-0.0661916
-0.0659559
-0.065404
-0.0652322
-0.0647592
-0.0646232
-0.0642018
-0.0640745
-0.0636782
-0.0635321
-0.0631342
-0.0629408
-0.0625139
-0.0622431
-0.061758
-0.0613771
-0.0608024
-0.0602757
-0.0595765
-0.100393
-0.0952666
-0.0914742
-0.0874649
-0.0845679
-0.0813844
-0.0791531
-0.0765984
-0.0748743
-0.0728093
-0.0714791
-0.069802
-0.0687817
-0.0674157
-0.0666411
-0.0655263
-0.0649467
-0.0640353
-0.063609
-0.0628616
-0.0625537
-0.0619366
-0.0617163
-0.0612
-0.0610394
-0.0605969
-0.0604699
-0.0600757
-0.0599567
-0.059586
-0.0594493
-0.0590772
-0.0588963
-0.0584969
-0.0582435
-0.0577897
-0.0574333
-0.0568956
-0.0564027
-0.0557485
-0.0934076
-0.0886379
-0.0851092
-0.0813788
-0.0786833
-0.0757212
-0.073645
-0.0712679
-0.0696637
-0.0677423
-0.0665045
-0.064944
-0.0639947
-0.0627235
-0.0620028
-0.0609655
-0.0604261
-0.059578
-0.0591813
-0.0584858
-0.0581992
-0.057625
-0.0574199
-0.0569394
-0.0567899
-0.0563782
-0.0562599
-0.055893
-0.0557822
-0.0554372
-0.05531
-0.0549637
-0.0547953
-0.0544236
-0.0541878
-0.0537655
-0.0534339
-0.0529335
-0.052475
-0.0518662
-0.0862961
-0.0818898
-0.0786301
-0.075184
-0.0726939
-0.0699575
-0.0680396
-0.0658438
-0.0643619
-0.0625869
-0.0614437
-0.0600021
-0.0591253
-0.0579511
-0.0572854
-0.0563272
-0.055829
-0.0550457
-0.0546794
-0.054037
-0.0537723
-0.053242
-0.0530527
-0.0526089
-0.0524709
-0.0520906
-0.0519815
-0.0516427
-0.0515404
-0.0512218
-0.0511043
-0.0507844
-0.0506289
-0.0502856
-0.0500678
-0.0496777
-0.0493713
-0.0489091
-0.0484854
-0.047923
-0.0791184
-0.0750785
-0.0720898
-0.0689302
-0.0666471
-0.0641383
-0.0623798
-0.0603665
-0.0590078
-0.0573804
-0.0563321
-0.0550104
-0.0542063
-0.0531297
-0.0525193
-0.0516407
-0.0511839
-0.0504656
-0.0501297
-0.0495406
-0.0492979
-0.0488116
-0.0486379
-0.048231
-0.0481044
-0.0477557
-0.0476555
-0.0473448
-0.047251
-0.0469588
-0.046851
-0.0465577
-0.046415
-0.0461002
-0.0459004
-0.0455427
-0.0452618
-0.0448379
-0.0444494
-0.0439338
-0.0718297
-0.0681623
-0.0654492
-0.062581
-0.0605085
-0.0582311
-0.0566348
-0.0548072
-0.0535738
-0.0520966
-0.0511451
-0.0499453
-0.0492156
-0.0482383
-0.0476843
-0.0468868
-0.0464723
-0.0458203
-0.0455155
-0.0449809
-0.0447607
-0.0443193
-0.0441618
-0.0437925
-0.0436777
-0.0433612
-0.0432704
-0.0429884
-0.0429033
-0.0426381
-0.0425404
-0.0422741
-0.0421447
-0.0418589
-0.0416776
-0.0413528
-0.0410978
-0.040713
-0.0403602
-0.0398921
-0.0644904
-0.0611977
-0.0587617
-0.0561864
-0.0543256
-0.0522808
-0.0508475
-0.0492066
-0.0480992
-0.0467728
-0.0459184
-0.0448412
-0.0441859
-0.0433084
-0.0428109
-0.0420948
-0.0417226
-0.0411371
-0.0408634
-0.0403833
-0.0401855
-0.0397891
-0.0396477
-0.039316
-0.0392129
-0.0389286
-0.038847
-0.0385938
-0.0385173
-0.0382792
-0.0381913
-0.0379522
-0.0378359
-0.0375792
-0.0374164
-0.0371248
-0.0368957
-0.0365502
-0.0362334
-0.0358131
-0.0570558
-0.054143
-0.0519881
-0.04971
-0.048064
-0.0462552
-0.0449874
-0.0435359
-0.0425564
-0.0413831
-0.0406274
-0.0396746
-0.0390951
-0.0383189
-0.037879
-0.0372456
-0.0369165
-0.0363987
-0.0361567
-0.0357321
-0.0355573
-0.0352068
-0.0350817
-0.0347885
-0.0346973
-0.034446
-0.0343739
-0.03415
-0.0340824
-0.0338718
-0.0337941
-0.0335827
-0.0334798
-0.0332529
-0.0331088
-0.0328508
-0.0326481
-0.0323425
-0.0320622
-0.0316902
-0.0495863
-0.0470548
-0.0451819
-0.0432021
-0.0417715
-0.0401994
-0.0390975
-0.037836
-0.0369846
-0.0359649
-0.0353081
-0.0344799
-0.0339762
-0.0333016
-0.0329192
-0.0323687
-0.0320825
-0.0316324
-0.0314221
-0.031053
-0.030901
-0.0305963
-0.0304876
-0.0302326
-0.0301533
-0.0299348
-0.0298721
-0.0296774
-0.0296186
-0.0294355
-0.029368
-0.0291841
-0.0290946
-0.0288973
-0.028772
-0.0285477
-0.0283715
-0.0281058
-0.0278621
-0.0275389
-0.0420375
-0.0398917
-0.0383043
-0.0366262
-0.0354137
-0.0340812
-0.0331474
-0.0320781
-0.0313566
-0.0304924
-0.0299358
-0.0292339
-0.0288071
-0.0282354
-0.0279115
-0.0274449
-0.0272026
-0.0268211
-0.026643
-0.0263302
-0.0262016
-0.0259434
-0.0258514
-0.0256354
-0.0255683
-0.0253832
-0.0253302
-0.0251653
-0.0251155
-0.0249604
-0.0249031
-0.0247474
-0.0246715
-0.0245043
-0.0243981
-0.024208
-0.0240586
-0.0238333
-0.0236267
-0.0233525
-0.0344699
-0.0327104
-0.0314088
-0.0300327
-0.0290385
-0.0279459
-0.0271801
-0.0263034
-0.0257117
-0.025003
-0.0245466
-0.023971
-0.023621
-0.0231522
-0.0228865
-0.0225039
-0.0223051
-0.0219923
-0.0218462
-0.0215897
-0.0214841
-0.0212724
-0.0211969
-0.0210197
-0.0209647
-0.0208128
-0.0207692
-0.020634
-0.0205931
-0.0204658
-0.0204188
-0.020291
-0.0202287
-0.0200915
-0.0200043
-0.0198484
-0.0197258
-0.019541
-0.0193715
-0.0191466
-0.0268392
-0.0254696
-0.0244565
-0.0233855
-0.0226117
-0.0217613
-0.0211653
-0.020483
-0.0200226
-0.0194711
-0.0191159
-0.0186681
-0.0183958
-0.018031
-0.0178243
-0.0175266
-0.0173721
-0.0171287
-0.0170152
-0.0168156
-0.0167336
-0.0165689
-0.0165103
-0.0163725
-0.0163298
-0.0162117
-0.0161779
-0.0160727
-0.0160409
-0.015942
-0.0159054
-0.015806
-0.0157575
-0.0156507
-0.0155828
-0.0154614
-0.0153659
-0.015222
-0.0150899
-0.0149147
-0.019206
-0.018226
-0.0175011
-0.0167348
-0.0161812
-0.0155727
-0.0151463
-0.0146581
-0.0143287
-0.0139341
-0.01368
-0.0133595
-0.0131647
-0.0129036
-0.0127558
-0.0125427
-0.0124322
-0.012258
-0.0121767
-0.0120339
-0.0119752
-0.0118573
-0.0118154
-0.0117167
-0.0116862
-0.0116016
-0.0115774
-0.0115021
-0.0114793
-0.0114084
-0.0113821
-0.0113109
-0.0112761
-0.0111996
-0.0111509
-0.011064
-0.0109955
-0.0108924
-0.0107977
-0.0106723
-0.0115259
-0.0109385
-0.010504
-0.0100446
-0.00971282
-0.00934814
-0.00909267
-0.00880011
-0.00860279
-0.00836638
-0.00821422
-0.00802225
-0.00790565
-0.00774929
-0.00766089
-0.00753327
-0.00746723
-0.0073629
-0.00731444
-0.00722891
-0.00719398
-0.0071234
-0.00709845
-0.00703945
-0.00702126
-0.00697071
-0.00695628
-0.00691124
-0.00689764
-0.00685522
-0.0068395
-0.00679682
-0.00677593
-0.00673003
-0.00670073
-0.00664851
-0.00660729
-0.00654537
-0.00648834
-0.00641296
-0.00385982
-0.00366365
-0.00351861
-0.00336528
-0.00325458
-0.0031329
-0.00304769
-0.00295012
-0.00288432
-0.00280551
-0.0027548
-0.0026908
-0.00265199
-0.00259984
-0.00257048
-0.00252788
-0.002506
-0.00247115
-0.00245515
-0.00242657
-0.00241506
-0.00239149
-0.00238328
-0.00236359
-0.00235758
-0.00234072
-0.00233591
-0.00232087
-0.00231627
-0.00230206
-0.0022967
-0.00228235
-0.0022752
-0.00225972
-0.0022497
-0.00223206
-0.00221799
-0.00219708
-0.00217763
-0.00215219
0.00383667
0.00363955
0.00349355
0.00333929
0.00322763
0.00310504
0.00301894
0.00292046
0.00285386
0.00277417
0.0027227
0.00265794
0.00261834
0.00256559
0.00253539
0.00249236
0.00246963
0.00243445
0.00241762
0.00238875
0.0023765
0.00235262
0.00234381
0.00232379
0.00231737
0.00230018
0.00229515
0.00227986
0.00227525
0.00226094
0.00225576
0.0022415
0.00223474
0.00221955
0.00221012
0.00219294
0.00217969
0.00215937
0.00214107
0.00211639
0.0115028
0.0109144
0.010479
0.0100186
0.00968589
0.0093203
0.00906394
0.00877048
0.00857235
0.00833507
0.00818214
0.00798941
0.00787203
0.00771506
0.00762584
0.00749779
0.0074309
0.00732624
0.00727696
0.00719113
0.00715546
0.00708458
0.00705903
0.00699969
0.0069811
0.00693022
0.00691558
0.00687029
0.00685667
0.00681416
0.00679862
0.00675604
0.00673553
0.00668994
0.00666123
0.00660946
0.00656907
0.00650773
0.00645186
0.00637724
0.0191829
0.018202
0.0174761
0.0167089
0.0161543
0.0155449
0.0151176
0.0146285
0.0142983
0.0139028
0.013648
0.0133267
0.0131311
0.0128695
0.0127208
0.0125073
0.0123959
0.0122214
0.0121393
0.0119962
0.0119368
0.0118186
0.0117761
0.0116771
0.0116461
0.0115613
0.0115368
0.0114612
0.0114384
0.0113675
0.0113414
0.0112703
0.0112359
0.0111597
0.0111116
0.0110251
0.0109574
0.010855
0.0107614
0.0106368
0.0268162
0.0254456
0.0244316
0.0233596
0.0225848
0.0217335
0.0211367
0.0204535
0.0199923
0.0194399
0.019084
0.0186354
0.0183623
0.0179969
0.0177895
0.0174913
0.017336
0.0170922
0.0169779
0.016778
0.0166953
0.0165303
0.0164711
0.016333
0.0162899
0.0161715
0.0161375
0.0160321
0.0160003
0.0159012
0.0158649
0.0157655
0.0157175
0.015611
0.0155437
0.0154227
0.0153281
0.0151848
0.0150538
0.0148795
0.0344469
0.0326865
0.0313839
0.0300069
0.0290117
0.0279182
0.0271516
0.0262739
0.0256815
0.024972
0.0245148
0.0239385
0.0235877
0.0231183
0.0228518
0.0224687
0.0222691
0.021956
0.0218091
0.0215523
0.021446
0.021234
0.0211579
0.0209804
0.020925
0.0207728
0.0207291
0.0205936
0.0205527
0.0204254
0.0203785
0.0202509
0.020189
0.0200521
0.0199655
0.0198101
0.0196883
0.0195041
0.0193357
0.0191117
0.0420146
0.0398679
0.0382796
0.0366005
0.035387
0.0340537
0.033119
0.0320488
0.0313265
0.0304615
0.0299041
0.0292015
0.0287739
0.0282016
0.0278769
0.0274099
0.0271667
0.026785
0.0266061
0.026293
0.0261637
0.0259052
0.0258126
0.0255964
0.0255289
0.0253435
0.0252903
0.0251252
0.0250754
0.0249202
0.0248632
0.0247076
0.0246321
0.0244652
0.0243596
0.02417
0.0240215
0.0237968
0.0235913
0.023318
0.0495635
0.047031
0.0451573
0.0431765
0.0417449
0.040172
0.0390693
0.0378069
0.0369547
0.0359342
0.0352766
0.0344477
0.0339432
0.033268
0.0328849
0.0323339
0.032047
0.0315966
0.0313854
0.031016
0.0308634
0.0305584
0.0304491
0.0301939
0.0301143
0.0298955
0.0298326
0.0296377
0.0295789
0.0293958
0.0293284
0.0291448
0.0290557
0.0288587
0.028734
0.0285103
0.0283349
0.0280699
0.0278274
0.0275049
0.0570331
0.0541194
0.0519636
0.0496846
0.0480377
0.0462279
0.0449593
0.0435069
0.0425266
0.0413525
0.0405961
0.0396426
0.0390623
0.0382856
0.0378449
0.0372111
0.0368812
0.0363631
0.0361203
0.0356954
0.03552
0.0351692
0.0350436
0.0347501
0.0346586
0.034407
0.0343347
0.0341107
0.0340431
0.0338325
0.0337551
0.0335438
0.0334413
0.0332147
0.0330713
0.0328139
0.0326121
0.032307
0.0320279
0.0316568
0.0644678
0.0611742
0.0587372
0.0561611
0.0542994
0.0522537
0.0508196
0.0491778
0.0480696
0.0467425
0.0458873
0.0448094
0.0441534
0.0432753
0.0427771
0.0420606
0.0416876
0.0411018
0.0408274
0.040347
0.0401486
0.039752
0.03961
0.0392781
0.0391746
0.0388901
0.0388084
0.038555
0.0384785
0.0382404
0.0381528
0.0379139
0.037798
0.0375418
0.0373796
0.0370885
0.0368603
0.0365155
0.0361999
0.0357804
0.0718073
0.068139
0.065425
0.0625559
0.0604825
0.0582042
0.0566071
0.0547786
0.0535445
0.0520665
0.0511142
0.0499138
0.0491833
0.0482055
0.0476508
0.0468529
0.0464376
0.0457853
0.0454798
0.0449449
0.0447241
0.0442825
0.0441245
0.043755
0.0436399
0.0433232
0.0432322
0.0429501
0.0428651
0.0426
0.0425024
0.0422364
0.0421074
0.0418221
0.0416414
0.0413172
0.0410631
0.040679
0.0403274
0.0398601
0.0790961
0.0750554
0.0720657
0.0689053
0.0666213
0.0641117
0.0623523
0.0603382
0.0589787
0.0573506
0.0563015
0.0549791
0.0541744
0.0530973
0.0524861
0.0516071
0.0511496
0.050431
0.0500944
0.0495051
0.0492618
0.0487753
0.0486012
0.048194
0.0480672
0.0477182
0.0476179
0.0473072
0.0472134
0.0469213
0.0468138
0.0465207
0.0463785
0.0460641
0.0458651
0.0455079
0.0452279
0.0448048
0.0444175
0.0439027
0.086274
0.0818669
0.0786062
0.0751593
0.0726683
0.0699311
0.0680124
0.0658157
0.0643331
0.0625574
0.0614134
0.0599712
0.0590936
0.0579189
0.0572525
0.056294
0.0557951
0.0550115
0.0546445
0.0540019
0.0537367
0.0532062
0.0530164
0.0525725
0.0524342
0.0520538
0.0519445
0.0516057
0.0515034
0.051185
0.0510678
0.0507482
0.0505931
0.0502503
0.0500332
0.0496437
0.0493383
0.0488768
0.0484543
0.0478928
0.0933857
0.0886151
0.0850856
0.0813544
0.0786579
0.0756951
0.073618
0.0712402
0.0696352
0.067713
0.0664746
0.0649134
0.0639634
0.0626918
0.0619704
0.0609326
0.0603926
0.0595442
0.0591469
0.0584512
0.0581641
0.0575897
0.0573842
0.0569036
0.0567539
0.056342
0.0562236
0.0558568
0.0557461
0.0554013
0.0552743
0.0549283
0.0547604
0.0543893
0.0541542
0.0537326
0.0534019
0.0529023
0.052445
0.0518372
0.100371
0.0952441
0.0914508
0.0874407
0.0845429
0.0813586
0.0791264
0.0765709
0.0748461
0.0727803
0.0714495
0.0697717
0.0687508
0.0673843
0.0666091
0.0654939
0.0649136
0.064002
0.0635751
0.0628275
0.0625191
0.0619019
0.0616811
0.0611648
0.0610039
0.0605614
0.0604343
0.0600402
0.0599213
0.0595508
0.0594144
0.0590427
0.0588623
0.0584635
0.0582108
0.0577577
0.0574023
0.0568653
0.0563738
0.0557205
0.107275
0.101795
0.097741
0.0934551
0.0903577
0.0869543
0.0845684
0.0818371
0.0799935
0.0777855
0.076363
0.0745697
0.0734785
0.0720178
0.0711891
0.0699972
0.0693768
0.0684024
0.0679461
0.067147
0.0668172
0.0661574
0.0659214
0.0653694
0.0651975
0.0647244
0.0645885
0.0641672
0.06404
0.063644
0.0634982
0.0631008
0.0629079
0.0624816
0.0622116
0.0617272
0.0613473
0.0607734
0.060248
0.0595498
0.114038
0.108213
0.103904
0.0993477
0.0960553
0.0924375
0.0899015
0.0869981
0.0850385
0.0826915
0.0811795
0.0792734
0.0781136
0.0765609
0.0756802
0.0744133
0.073754
0.0727183
0.0722334
0.0713841
0.0710336
0.0703325
0.0700817
0.0694951
0.0693124
0.0688096
0.0686653
0.0682175
0.0680825
0.0676616
0.0675067
0.0670844
0.0668794
0.0664263
0.0661393
0.0656244
0.0652206
0.0646105
0.064052
0.0633097
0.120706
0.11454
0.109978
0.105156
0.101671
0.0978411
0.0951567
0.0920834
0.0900091
0.0875248
0.0859243
0.0839066
0.0826788
0.0810353
0.080103
0.0787619
0.0780639
0.0769676
0.0764542
0.0755551
0.0751841
0.0744418
0.0741763
0.0735553
0.0733618
0.0728296
0.0726767
0.0722028
0.0720597
0.0716142
0.0714502
0.0710031
0.0707861
0.0703065
0.0700026
0.0694576
0.0690302
0.0683844
0.0677932
0.0670075
0.127217
0.120719
0.115912
0.110829
0.107156
0.103121
0.100292
0.0970527
0.0948667
0.0922486
0.0905619
0.0884355
0.0871417
0.0854097
0.0844273
0.0830139
0.0822785
0.0811232
0.0805822
0.0796348
0.0792439
0.0784617
0.078182
0.0775277
0.0773239
0.0767631
0.0766021
0.0761027
0.0759521
0.0754827
0.0753099
0.0748388
0.0746102
0.0741048
0.0737846
0.0732103
0.0727598
0.0720792
0.0714561
0.070628
0.133619
0.126794
0.121744
0.116406
0.112548
0.108309
0.105337
0.101935
0.0996393
0.0968893
0.0951176
0.0928841
0.091525
0.0897058
0.0886738
0.0871892
0.0864167
0.0852031
0.0846348
0.0836396
0.0832289
0.0824073
0.0821134
0.081426
0.0812119
0.0806229
0.0804537
0.0799291
0.0797708
0.0792777
0.0790962
0.0786014
0.0783613
0.0778304
0.0774941
0.0768909
0.0764177
0.0757028
0.0750483
0.0741786
0.139851
0.132708
0.127423
0.121836
0.117798
0.113362
0.110252
0.106692
0.104289
0.10141
0.0995563
0.0972188
0.0957965
0.0938926
0.0928126
0.0912589
0.0904505
0.0891805
0.0885858
0.0875443
0.0871147
0.0862549
0.0859475
0.0852281
0.0850042
0.0843878
0.0842108
0.0836619
0.0834964
0.0829804
0.0827906
0.0822728
0.0820216
0.0814661
0.0811141
0.0804829
0.0799877
0.0792395
0.0785545
0.0776442
0.14596
0.138505
0.132989
0.127157
0.122943
0.118313
0.115067
0.111351
0.108843
0.105839
0.103904
0.101464
0.0999793
0.097992
0.0968648
0.0952431
0.0943993
0.0930736
0.0924529
0.0913658
0.0909172
0.0900198
0.0896988
0.088948
0.0887142
0.0880708
0.087886
0.0873131
0.0871402
0.0866017
0.0864035
0.0858631
0.0856009
0.0850212
0.0846538
0.083995
0.0834782
0.0826974
0.0819824
0.0810323
0.151887
0.144129
0.138389
0.132321
0.127936
0.123118
0.11974
0.115874
0.113264
0.110138
0.108124
0.105586
0.104041
0.101973
0.1008
0.099113
0.0982351
0.0968558
0.09621
0.0950789
0.0946123
0.0936785
0.0933447
0.0925635
0.0923203
0.0916509
0.0914587
0.0908627
0.090683
0.0901228
0.0899166
0.0893545
0.0890817
0.0884786
0.0880964
0.087411
0.0868733
0.0860609
0.0853169
0.0843282
0.157676
0.149622
0.143664
0.137364
0.132812
0.12781
0.124304
0.120289
0.11758
0.114335
0.112244
0.109609
0.108005
0.105859
0.104641
0.102889
0.101977
0.100545
0.0998749
0.0987006
0.0982161
0.0972466
0.0968999
0.0960889
0.0958363
0.0951413
0.0949418
0.094323
0.0941363
0.0935547
0.0933407
0.0927571
0.0924739
0.0918479
0.0914512
0.0907397
0.0901815
0.0893382
0.0885659
0.0875396
0.163271
0.154932
0.148762
0.142239
0.137526
0.132346
0.128716
0.124559
0.121754
0.118394
0.116229
0.1135
0.11184
0.109617