/*--------------------------------*- C++ -*----------------------------------*\
| =========                 |                                                 |
| \\      /  F ield         | foam-extend: Open Source CFD                    |
|  \\    /   O peration     | Version:  3.0                                   |
|   \\  /    A nd           | Web:         http://www.extend-project.de       |
|    \\/     M anipulation  |                                                 |
\*---------------------------------------------------------------------------*/
FoamFile
{
    version     2.0;
    format      ascii;
    class       volVectorField;
    location    "6.3";
    object      u;
}
// * * * * * * * * * * * * * * * * * * * * * * * * * * * * * * * * * * * * * //

dimensions      [0 0 0 0 0 0 0];

internalField   nonuniform List<vector> 
400
(
(-0.889441 2.38364 2.12973e-315)
(-1.0102 1.67039 1.89098e-315)
(-2.26501 1.8291 1.65671e-315)
(-2.48384 1.21677 1.50109e-315)
(-3.25355 1.28403 1.28738e-315)
(-3.4915 0.920402 1.19067e-315)
(-3.93143 0.919248 9.97203e-316)
(-4.11959 0.681179 9.3995e-316)
(-4.31843 0.665414 7.66742e-316)
(-4.42179 0.460323 7.36093e-316)
(-4.41287 0.429363 5.81916e-316)
(-4.39679 0.205527 5.69174e-316)
(-4.18057 0.146335 4.32897e-316)
(-4.00654 -0.129674 4.30399e-316)
(-3.56244 -0.193237 3.13929e-316)
(-3.22239 -0.56529 3.12723e-316)
(-2.5051 -0.533717 2.22975e-316)
(-2.08794 -1.0719 2.12915e-316)
(-1.01568 -0.876834 1.58725e-316)
(-0.70663 -1.45024 1.27148e-316)
(-0.111449 0.765675 1.27492e-315)
(-0.692807 0.636051 1.19467e-315)
(-1.03862 0.641456 1.08925e-315)
(-1.38485 0.452305 1.02655e-315)
(-1.76951 0.408859 9.20534e-316)
(-1.97496 0.227032 8.69919e-316)
(-2.26769 0.137642 7.66321e-316)
(-2.38713 -0.0220124 7.24617e-316)
(-2.53245 -0.15229 6.25691e-316)
(-2.57577 -0.289858 5.91741e-316)
(-2.5618 -0.460566 4.99555e-316)
(-2.52097 -0.57959 4.72523e-316)
(-2.35781 -0.785483 3.88733e-316)
(-2.21668 -0.887675 3.66535e-316)
(-1.93829 -1.10251 2.93029e-316)
(-1.66759 -1.18457 2.70952e-316)
(-1.35461 -1.34485 2.10149e-316)
(-0.895826 -1.39461 1.80253e-316)
(-0.699767 -1.40368 1.32572e-316)
(0.00285238 -1.37713 8.54541e-317)
(-0.317696 3.43473 9.60748e-316)
(-0.821651 2.96799 9.35031e-316)
(-1.30403 2.76703 8.72087e-316)
(-1.62063 2.25128 8.31012e-316)
(-1.98767 2.09713 7.52745e-316)
(-2.19579 1.61441 7.09914e-316)
(-2.4395 1.47531 6.27246e-316)
(-2.59408 1.02709 5.88591e-316)
(-2.70499 0.887692 5.07665e-316)
(-2.82088 0.453537 4.74525e-316)
(-2.79465 0.286157 3.9813e-316)
(-2.84868 -0.149106 3.69973e-316)
(-2.68837 -0.369204 2.993e-316)
(-2.62227 -0.800675 2.7459e-316)
(-2.34986 -1.06948 2.11403e-316)
(-2.0756 -1.46717 1.88765e-316)
(-1.75348 -1.73042 1.37719e-316)
(-1.17988 -2.05079 1.21006e-316)
(-0.921701 -2.22975 9.20762e-317)
(-0.0526654 -2.44116 1.07709e-316)
(-0.0777198 2.49045 2.65033e-316)
(-0.414146 2.14877 3.88166e-316)
(-0.616677 1.87588 4.30225e-316)
(-0.777305 1.51392 4.73994e-316)
(-0.986261 1.30527 4.71607e-316)
(-1.05143 0.9367 4.75475e-316)
(-1.2093 0.763557 4.48642e-316)
(-1.25105 0.40341 4.33605e-316)
(-1.32689 0.213229 3.94876e-316)
(-1.37608 -0.131552 3.72234e-316)
(-1.35826 -0.394393 3.29594e-316)
(-1.41547 -0.717111 3.05591e-316)
(-1.30376 -1.09945 2.64151e-316)
(-1.33869 -1.37417 2.42339e-316)
(-1.1509 -1.89327 2.05652e-316)
(-1.08505 -2.0568 1.88071e-316)
(-0.885448 -2.6527 1.58656e-316)
(-0.580795 -2.61579 1.46316e-316)
(-0.517521 -3.05299 1.25489e-316)
(0.115695 -2.8005 1.15441e-316)
(-0.363472 3.99302 2.33494e-316)
(-0.50729 3.61099 3.39636e-316)
(-1.02748 3.17349 3.75517e-316)
(-1.07634 2.68272 4.04331e-316)
(-1.42068 2.39739 4.00858e-316)
(-1.48373 1.8582 3.97464e-316)
(-1.68045 1.68546 3.73503e-316)
(-1.80577 1.13731 3.56603e-316)
(-1.87544 1.00506 3.2296e-316)
(-2.07001 0.455313 3.00183e-316)
(-2.01917 0.293335 2.62244e-316)
(-2.25776 -0.256508 2.36355e-316)
(-2.07847 -0.516072 1.96121e-316)
(-2.29492 -1.0355 1.66776e-316)
(-1.97551 -1.45457 1.23978e-316)
(-2.04398 -1.8487 8.77305e-317)
(-1.60152 -2.45132 3.98473e-317)
(-1.33596 -2.55955 -1.10987e-317)
(-0.87246 -3.18943 -7.06053e-317)
(-0.152029 -2.96402 -1.54103e-316)
(-0.443084 3.647 -1.76166e-316)
(-0.15555 3.05277 6.46431e-318)
(-0.70593 2.65051 1.02012e-316)
(-0.445861 2.06387 1.83677e-316)
(-0.75509 1.86666 2.2319e-316)
(-0.596969 1.3051 2.52425e-316)
(-0.756122 1.20816 2.5873e-316)
(-0.713681 0.679738 2.6077e-316)
(-0.77381 0.577387 2.49052e-316)
(-0.852207 0.0716099 2.3793e-316)
(-0.827858 -0.133875 2.1789e-316)
(-1.03229 -0.628892 2.01776e-316)
(-0.9024 -1.03784 1.79645e-316)
(-1.22879 -1.50038 1.63745e-316)
(-0.937293 -2.20793 1.43748e-316)
(-1.3468 -2.53568 1.31804e-316)
(-0.818481 -3.56098 1.16673e-316)
(-1.19883 -3.5505 1.10481e-316)
(-0.385999 -4.57458 1.01087e-316)
(-0.542167 -4.10405 9.51564e-317)
(-0.640959 4.66192 1.07363e-317)
(-0.148731 3.87222 1.14261e-316)
(-0.927919 3.47152 1.66876e-316)
(-0.593222 2.69039 2.051e-316)
(-0.999096 2.53288 2.23151e-316)
(-0.897954 1.81583 2.32229e-316)
(-1.07566 1.78659 2.29979e-316)
(-1.18308 1.12391 2.24426e-316)
(-1.22001 1.13857 2.1078e-316)
(-1.51632 0.492899 1.97037e-316)
(-1.44041 0.479238 1.76794e-316)
(-1.9156 -0.191466 1.57624e-316)
(-1.69488 -0.314848 1.32644e-316)
(-2.32271 -1.02234 1.07913e-316)
(-1.86007 -1.36096 7.74919e-317)
(-2.55368 -2.03189 4.34126e-317)
(-1.69615 -2.69596 3.80358e-318)
(-2.25366 -3.13131 -4.88184e-317)
(-0.857506 -4.04938 -1.05893e-316)
(-0.962371 -4.11757 -1.955e-316)
(-0.59147 4.57692 -2.17845e-316)
(0.108453 3.40759 -7.60968e-317)
(-0.589189 3.18322 8.57768e-318)
(-0.0696007 2.16662 7.95807e-317)
(-0.401143 2.23463 1.20827e-316)
(-0.116667 1.40895 1.50597e-316)
(-0.246952 1.55009 1.64043e-316)
(-0.161107 0.857363 1.705e-316)
(-0.193447 0.972667 1.67907e-316)
(-0.293529 0.33371 1.623e-316)
(-0.261922 0.337021 1.51789e-316)
(-0.573337 -0.329514 1.41247e-316)
(-0.434247 -0.556531 1.28497e-316)
(-1.01589 -1.30421 1.18259e-316)
(-0.622077 -1.92582 1.07881e-316)
(-1.54877 -2.71591 1.02907e-316)
(-0.622595 -3.88423 9.92139e-317)
(-1.91416 -4.49918 1.04179e-316)
(-0.0889899 -6.03128 1.10994e-316)
(-1.46757 -6.16465 1.26147e-316)
(-0.546348 5.15892 4.69493e-317)
(0.171031 3.83009 9.09215e-317)
(-0.479821 3.63224 1.20232e-316)
(-0.0620386 2.44881 1.39263e-316)
(-0.347761 2.55609 1.52306e-316)
(-0.239329 1.62002 1.58171e-316)
(-0.314201 1.81384 1.59253e-316)
(-0.452837 1.0467 1.56391e-316)
(-0.424358 1.26663 1.49453e-316)
(-0.798567 0.554547 1.40503e-316)
(-0.703222 0.767389 1.28297e-316)
(-1.35115 -0.016838 1.14912e-316)
(-1.13503 0.140171 9.88805e-317)
(-2.11599 -0.840843 8.11494e-317)
(-1.59309 -0.83226 6.11867e-317)
(-2.92599 -2.07643 3.6628e-317)
(-1.72863 -2.38651 1.08742e-317)
(-3.2489 -3.78384 -2.59013e-317)
(-0.862827 -4.64522 -6.13668e-317)
(-1.96191 -5.87496 -1.15594e-316)
(-0.296695 4.97916 -1.14089e-316)
(0.256927 3.35313 -3.45146e-317)
(-0.0750913 3.43127 1.93568e-317)
(0.335616 2.03837 6.56004e-317)
(0.228903 2.4204 9.36389e-317)
(0.458575 1.3778 1.14005e-316)
(0.470897 1.77079 1.23665e-316)
(0.545404 0.971558 1.27908e-316)
(0.588521 1.32889 1.26388e-316)
(0.507054 0.620155 1.2208e-316)
(0.544897 0.907544 1.15036e-316)
(0.257393 0.114216 1.07502e-316)
(0.338474 0.237292 9.95451e-317)
(-0.270622 -0.831063 9.36173e-317)
(0.0520552 -1.07412 8.96346e-317)
(-1.07971 -2.56618 9.18549e-317)
(-0.0694762 -3.51178 9.86496e-317)
(-1.96942 -5.3582 1.19862e-316)
(0.428002 -7.28404 1.47695e-316)
(-2.10001 -8.99406 2.0701e-316)
(0.0138101 5.18472 1.38222e-316)
(0.373768 3.58458 1.24666e-316)
(0.344496 3.5383 1.27353e-316)
(0.456639 2.12829 1.26123e-316)
(0.528061 2.42536 1.28678e-316)
(0.472043 1.37098 1.27952e-316)
(0.610226 1.72626 1.26522e-316)
(0.414385 0.929182 1.22794e-316)
(0.552206 1.30758 1.17288e-316)
(0.177868 0.601658 1.10255e-316)
(0.284175 1.01585 1.01661e-316)
(-0.368673 0.19046 9.20545e-317)
(-0.24297 0.650069 8.14154e-317)
(-1.33257 -0.565655 6.95373e-317)
(-0.969527 -0.0797053 5.73111e-317)
(-2.66822 -1.9908 4.21472e-317)
(-1.533 -1.61622 2.81988e-317)
(-3.80614 -4.35023 8.83246e-318)
(-0.930857 -4.68104 -6.45197e-318)
(-2.87499 -7.61953 -1.90485e-317)
(0.234592 4.64509 -9.78088e-318)
(0.255023 3.06195 2.93961e-317)
(0.643105 3.35515 5.7584e-317)
(0.706032 1.86931 8.39205e-317)
(1.01516 2.39946 9.747e-317)
(1.08063 1.29688 1.07363e-316)
(1.33 1.81517 1.10301e-316)
(1.37162 1.01764 1.10119e-316)
(1.53453 1.53716 1.06598e-316)
(1.52794 0.858348 1.01407e-316)
(1.57719 1.40137 9.49382e-317)
(1.47234 0.590274 8.83809e-317)
(1.42729 1.11884 8.23182e-317)
(1.11299 -0.169411 7.84374e-317)
(1.12737 0.16381 7.72633e-317)
(0.36348 -2.04207 8.31759e-317)
(0.898684 -2.4152 9.44009e-317)
(-0.780077 -5.86272 1.24844e-316)
(1.16089 -8.00686 1.61718e-316)
(-1.84545 -12.325 2.47314e-316)
(0.833641 4.74614 1.60284e-316)
(0.44606 3.20497 1.33694e-316)
(1.26006 3.14273 1.26834e-316)
(0.86653 1.79238 1.19307e-316)
(1.40169 2.10399 1.16306e-316)
(1.1269 1.09723 1.12205e-316)
(1.53098 1.48599 1.08653e-316)
(1.30477 0.762767 1.04042e-316)
(1.5759 1.19403 9.8776e-317)
(1.29999 0.586809 9.26871e-317)
(1.41581 1.09496 8.59608e-317)
(0.95568 0.350862 7.87161e-317)
(0.926277 0.993378 7.12245e-317)
(0.0628258 -0.276973 6.31057e-317)
(0.0332712 0.578768 5.51228e-317)
(-1.56644 -1.79052 4.5209e-317)
(-1.0418 -0.69206 3.58993e-317)
(-3.63719 -4.65264 2.27446e-317)
(-1.09282 -3.97246 1.06621e-317)
(-3.70723 -8.44546 2.41944e-318)
(0.659699 3.63871 5.12641e-317)
(0.223822 2.72433 1.01004e-316)
(1.33667 3.00332 1.10151e-316)
(1.09811 1.74384 1.21883e-316)
(1.85617 2.17075 1.20338e-316)
(1.77249 1.1777 1.18923e-316)
(2.28184 1.65372 1.13641e-316)
(2.3024 0.967365 1.07616e-316)
(2.60332 1.52471 1.00348e-316)
(2.71016 0.975544 9.26421e-317)
(2.79126 1.66535 8.47588e-317)
(2.97753 0.975841 7.72798e-317)
(2.80011 1.8314 7.07182e-317)
(3.04574 0.545773 6.63379e-317)
(2.59862 1.48884 6.44891e-317)
(2.80814 -1.1673 6.94107e-317)
(2.28505 -0.678798 7.83274e-317)
(2.04453 -5.76124 1.05581e-316)
(2.04917 -7.74952 1.35483e-316)
(0.123472 -15.9276 2.05381e-316)
(1.646 4.02758 5.10971e-317)
(0.39106 2.66589 8.22509e-317)
(1.88882 2.47577 8.8491e-317)
(1.06042 1.39356 9.1187e-317)
(1.962 1.5992 9.12734e-317)
(1.55044 0.779414 8.95262e-317)
(2.17197 1.0995 8.76038e-317)
(1.97041 0.535841 8.46976e-317)
(2.35614 0.914727 8.13817e-317)
(2.23855 0.477791 7.74487e-317)
(2.3723 0.942331 7.31894e-317)
(2.22639 0.397574 6.86165e-317)
(2.05442 1.01319 6.39629e-317)
(1.68233 -0.054559 5.8834e-317)
(1.17567 0.837246 5.33879e-317)
(0.153053 -1.49348 4.55697e-317)
(-0.335115 -0.0917597 3.61046e-317)
(-2.76135 -4.51805 1.87782e-317)
(-1.30515 -2.72893 -2.24404e-318)
(-4.89536 -7.22358 -4.08938e-317)
(0.77631 2.22589 2.49828e-316)
(0.418111 2.54367 2.74648e-316)
(2.0664 2.4958 2.33829e-316)
(1.78708 1.66485 2.0678e-316)
(2.94771 1.78804 1.79015e-316)
(2.7915 1.00256 1.58251e-316)
(3.53741 1.32539 1.40292e-316)
(3.54814 0.814178 1.24745e-316)
(3.98321 1.30663 1.1061e-316)
(4.20946 0.944873 9.7408e-317)
(4.36345 1.64673 8.50841e-317)
(4.8787 1.18535 7.37439e-317)
(4.66236 2.19135 6.36955e-317)
(5.5958 1.1581 5.5905e-317)
(4.74382 2.55932 5.05549e-317)
(6.32857 -0.0909293 5.13404e-317)
(4.36769 1.4349 5.53936e-317)
(6.84335 -4.99019 7.44198e-317)
(3.02926 -5.96214 9.42556e-317)
(5.16421 -19.8253 1.35748e-316)
(2.19442 3.13355 -1.6862e-316)
(0.17073 1.79411 -6.9781e-317)
(1.76762 1.56018 -2.76712e-317)
(0.798105 0.814607 2.48327e-319)
(1.70743 0.936704 1.7529e-317)
(1.32511 0.39511 2.84356e-317)
(1.96899 0.608464 3.65939e-317)
(1.83484 0.256551 4.21462e-317)
(2.23995 0.503747 4.63571e-317)
(2.24436 0.261559 4.9331e-317)
(2.38755 0.553672 5.15546e-317)
(2.47776 0.264705 5.3127e-317)
(2.26081 0.631571 5.41791e-317)
(2.33014 -0.00651221 5.42748e-317)
(1.56009 0.488228 5.30288e-317)
(1.23773 -1.12098 4.79189e-317)
(-0.0373446 -0.299752 3.87745e-317)
(-2.06257 -3.61347 1.61415e-317)
(-1.46708 -1.75226 -1.27842e-317)
(-7.81349 -2.45998 -7.90539e-317)
(0.596515 0.791608 1.00926e-315)
(1.20375 2.76354 6.98833e-316)
(3.49147 2.04322 5.19138e-316)
(3.42538 1.64692 3.88364e-316)
(5.15039 1.40377 3.13182e-316)
(4.9204 0.798784 2.58112e-316)
(5.96128 0.963442 2.19114e-316)
(5.93023 0.613114 1.86689e-316)
(6.53118 1.00975 1.59077e-316)
(6.88647 0.823015 1.3396e-316)
(7.19801 1.45411 1.10954e-316)
(8.12312 1.23409 8.9773e-317)
(8.06789 2.22445 7.07523e-317)
(9.85944 1.56718 5.47176e-317)
(8.90947 3.17053 4.21576e-317)
(12.1735 0.900033 3.64489e-317)
(8.7198 3.45892 3.52983e-317)
(14.8963 -3.9739 4.83789e-317)
(4.69882 -2.08366 6.284e-317)
(15.6955 -24.6835 9.31309e-317)
(2.28546 1.93205 -7.27147e-316)
(-0.273171 0.124793 -4.82519e-316)
(0.0846479 0.263519 -3.35973e-316)
(-0.608663 -0.130771 -2.33287e-316)
(-0.577324 0.0706263 -1.71558e-316)
(-0.703768 -0.0689381 -1.27415e-316)
(-0.54706 0.0278157 -9.50992e-317)
(-0.581036 -0.0612873 -6.90679e-317)
(-0.440805 -0.0292439 -4.71282e-317)
(-0.501399 -0.0929944 -2.7916e-317)
(-0.479402 -0.112468 -1.07152e-317)
(-0.623275 -0.174583 4.77039e-318)
(-0.804474 -0.277089 1.84834e-317)
(-1.12058 -0.379109 2.98372e-317)
(-1.58699 -0.683786 3.79551e-317)
(-2.3591 -0.841153 3.97868e-317)
(-2.78452 -1.6378 3.5364e-317)
(-5.55306 -1.19326 1.38995e-317)
(-2.1966 -2.18319 -1.30649e-317)
(-15.5069 8.39068 -7.68028e-317)
(-0.0652677 -0.274617 2.56006e-315)
(2.98087 3.83662 1.41893e-315)
(7.40388 2.12217 1.00283e-315)
(7.45164 1.90658 7.13148e-316)
(10.7584 1.37406 5.78215e-316)
(10.1623 0.725204 4.79268e-316)
(11.9906 0.838276 4.11999e-316)
(11.7892 0.513823 3.54314e-316)
(12.8474 0.910033 3.04278e-316)
(13.4636 0.800196 2.57736e-316)
(14.2069 1.448 2.14442e-316)
(16.0284 1.35642 1.74085e-316)
(16.4982 2.39037 1.37497e-316)
(20.1124 1.9317 1.05873e-316)
(19.546 3.69341 8.0348e-317)
(25.976 1.52634 6.45204e-317)
(21.0388 5.02285 5.54486e-317)
(32.6951 -4.08516 6.13315e-317)
(11.2942 3.53796 6.4876e-317)
(35.6427 -32.7099 7.75948e-317)
)
;

boundaryField
{
    cavity
    {
        type            myImplicitVelocity;
    }
    lid
    {
        type            fixedValue;
        value           uniform (1 0 0);
    }
    frontAndBack
    {
        type            empty;
    }
}


// ************************************************************************* //
