/*--------------------------------*- C++ -*----------------------------------*\
| =========                 |                                                 |
| \\      /  F ield         | foam-extend: Open Source CFD                    |
|  \\    /   O peration     | Version:  3.0                                   |
|   \\  /    A nd           | Web:         http://www.extend-project.de       |
|    \\/     M anipulation  |                                                 |
\*---------------------------------------------------------------------------*/
FoamFile
{
    version     2.0;
    format      ascii;
    class       volVectorField;
    location    "6";
    object      s;
}
// * * * * * * * * * * * * * * * * * * * * * * * * * * * * * * * * * * * * * //

dimensions      [0 0 0 0 0 0 0];

internalField   nonuniform List<vector> 
400
(
(-0.00783236 0.0130352 7.29286e-318)
(-0.0129945 0.019117 1.25783e-317)
(-0.0273794 0.0200647 1.41217e-317)
(-0.0352811 0.0167643 1.40792e-317)
(-0.0461132 0.0142219 1.34016e-317)
(-0.0527005 0.0106117 1.24859e-317)
(-0.0595611 0.00789208 1.14982e-317)
(-0.063739 0.00496951 1.05487e-317)
(-0.0670329 0.00247263 9.62741e-318)
(-0.0684962 -0.000128638 8.804e-318)
(-0.0684178 -0.00269622 8.02054e-318)
(-0.0669254 -0.00548209 7.33899e-318)
(-0.0632775 -0.00842093 6.69686e-318)
(-0.0586092 -0.0116808 6.13656e-318)
(-0.0510389 -0.0148672 5.61359e-318)
(-0.0434455 -0.0184358 5.12524e-318)
(-0.0320143 -0.020883 4.63784e-318)
(-0.0231307 -0.0233526 4.05409e-318)
(-0.00940933 -0.0215553 3.21285e-318)
(-0.00409225 -0.0140955 1.66959e-318)
(-0.00845986 0.00803481 8.73327e-318)
(-0.0192811 0.0186712 1.69385e-317)
(-0.0357917 0.0232515 2.03236e-317)
(-0.0482954 0.0232266 2.12277e-317)
(-0.0624415 0.0208977 2.08829e-317)
(-0.0727947 0.0170997 1.99778e-317)
(-0.0826373 0.0128186 1.87851e-317)
(-0.0892342 0.00823937 1.75468e-317)
(-0.0941831 0.00358568 1.62688e-317)
(-0.0963759 -0.00110402 1.50807e-317)
(-0.0962069 -0.0058852 1.39137e-317)
(-0.093659 -0.0106527 1.28644e-317)
(-0.0881801 -0.0154449 1.18462e-317)
(-0.080837 -0.0199703 1.09271e-317)
(-0.0701531 -0.0240055 1.00195e-317)
(-0.0587242 -0.0269405 9.13655e-318)
(-0.0440107 -0.0279992 8.16542e-318)
(-0.0308321 -0.0260409 6.98364e-318)
(-0.0153045 -0.0195565 5.27924e-318)
(-0.00498817 -0.00756707 2.51349e-318)
(-0.00843759 0.0244284 7.19654e-318)
(-0.0187917 0.0448255 1.48379e-317)
(-0.0354128 0.0513503 1.85987e-317)
(-0.0475934 0.0494198 2.01533e-317)
(-0.061218 0.0439176 2.04308e-317)
(-0.0712181 0.0360292 2.00354e-317)
(-0.0806547 0.0274694 1.92333e-317)
(-0.0871219 0.0183977 1.82687e-317)
(-0.0920289 0.00921579 1.71846e-317)
(-0.0944014 -0.000121921 1.61122e-317)
(-0.0945263 -0.0096616 1.50167e-317)
(-0.0924045 -0.0193062 1.39883e-317)
(-0.0874137 -0.0290853 1.29624e-317)
(-0.0805509 -0.0384979 1.19964e-317)
(-0.0703216 -0.0471881 1.101e-317)
(-0.0591376 -0.054015 1.00063e-317)
(-0.0445164 -0.0577424 8.85989e-318)
(-0.0311273 -0.0562738 7.46047e-318)
(-0.0150179 -0.0464474 5.49413e-318)
(-0.00468987 -0.0234416 2.51946e-318)
(-0.00638188 0.0254364 4.64944e-318)
(-0.0149507 0.0496639 1.04638e-317)
(-0.0275023 0.0583617 1.38998e-317)
(-0.0371812 0.0573002 1.58175e-317)
(-0.0480516 0.0513659 1.6693e-317)
(-0.0561831 0.0426046 1.69372e-317)
(-0.0640651 0.032618 1.67303e-317)
(-0.0695934 0.0219655 1.62779e-317)
(-0.0739977 0.0109533 1.56314e-317)
(-0.0763822 -0.000309637 1.49099e-317)
(-0.0769486 -0.0119312 1.41058e-317)
(-0.0757416 -0.0236925 1.32946e-317)
(-0.0720325 -0.0356785 1.24354e-317)
(-0.0668574 -0.0470752 1.15674e-317)
(-0.0585662 -0.0576342 1.06188e-317)
(-0.0495212 -0.0653604 9.57263e-318)
(-0.0372363 -0.0693252 8.30654e-318)
(-0.025877 -0.0657083 6.70991e-318)
(-0.0124675 -0.0523118 4.59145e-318)
(-0.00321911 -0.0235642 1.75245e-318)
(-0.00579757 0.0320677 2.41148e-318)
(-0.0115404 0.0613314 6.38304e-318)
(-0.0218921 0.0713078 9.28897e-318)
(-0.0287785 0.0698841 1.13387e-317)
(-0.0373745 0.0627022 1.26229e-317)
(-0.0434002 0.0522303 1.33585e-317)
(-0.0497099 0.0403348 1.36455e-317)
(-0.0541531 0.0275807 1.36372e-317)
(-0.0580281 0.0143695 1.33865e-317)
(-0.0604843 0.000712757 1.29969e-317)
(-0.0616407 -0.0134755 1.24783e-317)
(-0.0616437 -0.0280486 1.18982e-317)
(-0.0594836 -0.0430807 1.12339e-317)
(-0.0564237 -0.057663 1.05158e-317)
(-0.0501455 -0.0714907 9.6888e-318)
(-0.0436069 -0.0820403 8.73188e-318)
(-0.0329056 -0.0882496 7.54486e-318)
(-0.0238051 -0.0848724 6.03491e-318)
(-0.0106127 -0.0694002 4.06925e-318)
(-0.00346165 -0.0328219 1.52221e-318)
(-0.00455585 0.0331675 5.18468e-319)
(-0.00793178 0.063809 2.83749e-318)
(-0.0150163 0.074703 5.17471e-318)
(-0.0190998 0.0732904 7.21394e-318)
(-0.0250139 0.0660715 8.7612e-318)
(-0.0289195 0.0552097 9.86821e-318)
(-0.033526 0.0429638 1.05614e-317)
(-0.0368728 0.0296727 1.09422e-317)
(-0.0401653 0.0158934 1.10575e-317)
(-0.0426801 0.0014538 1.09901e-317)
(-0.0444245 -0.0136814 1.07658e-317)
(-0.0456749 -0.029522 1.04395e-317)
(-0.0451816 -0.0461167 1.00089e-317)
(-0.0444072 -0.0626063 9.49527e-318)
(-0.0404663 -0.0785904 8.86071e-318)
(-0.0367596 -0.09121 8.0804e-318)
(-0.0281854 -0.0991031 7.0688e-318)
(-0.0216406 -0.0957969 5.73127e-318)
(-0.00925127 -0.0783228 3.94081e-318)
(-0.00380845 -0.0359442 1.53676e-318)
(-0.00364568 0.0350454 -5.53981e-319)
(-0.00481644 0.0670525 6.16115e-319)
(-0.00938072 0.0785447 2.43176e-318)
(-0.0110772 0.0769821 4.31787e-318)
(-0.0147593 0.0697338 5.92415e-318)
(-0.0168219 0.0584968 7.1922e-318)
(-0.0199171 0.0460481 8.10222e-318)
(-0.0222523 0.0323378 8.71191e-318)
(-0.024961 0.0181866 9.05849e-318)
(-0.0274692 0.00311207 9.20799e-318)
(-0.0296797 -0.0127937 9.19061e-318)
(-0.0320502 -0.0298515 9.05233e-318)
(-0.0330537 -0.0479876 8.80107e-318)
(-0.0344913 -0.0666845 8.45499e-318)
(-0.0326887 -0.0852087 7.99084e-318)
(-0.0318832 -0.100949 7.38345e-318)
(-0.0250224 -0.111621 6.56173e-318)
(-0.021203 -0.110448 5.42323e-318)
(-0.00847681 -0.0923903 3.822e-318)
(-0.00510555 -0.0444598 1.54594e-318)
(-0.0022499 0.0346644 -1.21024e-318)
(-0.00195129 0.0659619 -8.5336e-319)
(-0.00348649 0.0775828 5.16931e-319)
(-0.0031659 0.0758999 2.19105e-318)
(-0.00444154 0.0691409 3.75527e-318)
(-0.00481585 0.058167 5.08168e-318)
(-0.00628994 0.0463064 6.11275e-318)
(-0.00758239 0.0330116 6.87417e-318)
(-0.00953596 0.0193876 7.38966e-318)
(-0.0118448 0.00460924 7.7103e-318)
(-0.0142899 -0.0111033 7.86643e-318)
(-0.0174917 -0.0284257 7.89911e-318)
(-0.0198226 -0.0471873 7.82294e-318)
(-0.0232066 -0.0673146 7.65615e-318)
(-0.0236624 -0.0878025 7.38656e-318)
(-0.025622 -0.106402 6.99242e-318)
(-0.0211092 -0.119981 6.40692e-318)
(-0.0199109 -0.121247 5.51908e-318)
(-0.00794207 -0.103196 4.12911e-318)
(-0.00595271 -0.0500751 1.88372e-318)
(-0.000911099 0.0336858 -1.30733e-318)
(0.000613713 0.0641699 -1.37688e-318)
(0.00182929 0.0756708 -3.74161e-319)
(0.00377297 0.0740735 1.03168e-318)
(0.00467393 0.0678569 2.44021e-318)
(0.00575552 0.0573532 3.69405e-318)
(0.00583972 0.0462459 4.72115e-318)
(0.00559893 0.0335929 5.51985e-318)
(0.00454615 0.0207513 6.1044e-318)
(0.00267685 0.00656702 6.51018e-318)
(0.000328924 -0.00858104 6.76374e-318)
(-0.00332199 -0.0257919 6.89813e-318)
(-0.00657558 -0.0447081 6.93013e-318)
(-0.0116022 -0.06596 6.87533e-318)
(-0.0140436 -0.0880197 6.72922e-318)
(-0.0188879 -0.109724 6.4711e-318)
(-0.0166914 -0.126351 6.04302e-318)
(-0.01888 -0.131698 5.33037e-318)
(-0.00734529 -0.11472 4.10073e-318)
(-0.00788387 -0.0585786 1.95156e-318)
(0.000439509 0.0314704 -1.25805e-318)
(0.00274019 0.0598646 -1.56975e-318)
(0.00672081 0.0709825 -8.50865e-319)
(0.0100407 0.0694922 3.04354e-319)
(0.0131421 0.0640545 1.54053e-318)
(0.0156048 0.0543459 2.69352e-318)
(0.0173426 0.0443426 3.67789e-318)
(0.0182607 0.0327466 4.47772e-318)
(0.0183409 0.021118 5.09445e-318)
(0.0172387 0.00804399 5.55283e-318)
(0.0153794 -0.00598855 5.87465e-318)
(0.0118425 -0.0224255 6.08764e-318)
(0.00811439 -0.0408312 6.20844e-318)
(0.00218045 -0.0624523 6.25212e-318)
(-0.00207894 -0.0855432 6.21612e-318)
(-0.00905073 -0.109823 6.08419e-318)
(-0.00990035 -0.129732 5.79694e-318)
(-0.0147734 -0.139317 5.24454e-318)
(-0.00598183 -0.124841 4.16629e-318)
(-0.00781383 -0.0659247 2.10703e-318)
(0.00192514 0.0289519 -9.92662e-319)
(0.00462905 0.0552429 -1.37061e-318)
(0.0111127 0.0655317 -8.71067e-319)
(0.0153951 0.0643373 4.35964e-320)
(0.0204464 0.0595265 1.08263e-318)
(0.0240543 0.0507545 2.08983e-318)
(0.0273535 0.0418565 2.98181e-318)
(0.029417 0.0314526 3.72985e-318)
(0.0307492 0.0211583 4.32968e-318)
(0.0306462 0.00941761 4.79312e-318)
(0.0296438 -0.00318897 5.1373e-318)
(0.0266737 -0.0184202 5.38109e-318)
(0.0230435 -0.0356838 5.53925e-318)
(0.016661 -0.056976 5.62086e-318)
(0.0111372 -0.0800646 5.62393e-318)
(0.00193359 -0.106249 5.52898e-318)
(-0.00172576 -0.128225 5.2817e-318)
(-0.0107352 -0.142523 4.77998e-318)
(-0.0041607 -0.130104 3.77637e-318)
(-0.0100511 -0.0717191 1.8831e-318)
(0.00263522 0.0251253 -7.67798e-319)
(0.00593013 0.0487711 -1.15338e-318)
(0.0143595 0.0584045 -8.05021e-319)
(0.0196795 0.0575293 -7.69705e-320)
(0.0265007 0.0535146 7.9465e-319)
(0.0312708 0.0457877 1.67188e-318)
(0.0360904 0.0381105 2.47162e-318)
(0.0393654 0.0290331 3.16099e-318)
(0.0420616 0.0201949 3.72879e-318)
(0.0432263 0.0099884 4.18129e-318)
(0.0434303 -0.000975527 4.52945e-318)
(0.0416593 -0.0146053 4.78788e-318)
(0.0387215 -0.030309 4.9673e-318)
(0.0330143 -0.0505427 5.07408e-318)
(0.0267622 -0.0730955 5.10214e-318)
(0.0169754 -0.100271 5.03285e-318)
(0.00997776 -0.124519 4.80729e-318)
(-0.00102825 -0.143466 4.33644e-318)
(-0.000412932 -0.135902 3.39794e-318)
(-0.00722399 -0.0796268 1.67114e-318)
(0.00394761 0.0223591 -6.00868e-319)
(0.00685912 0.0430332 -9.40815e-319)
(0.0170291 0.0512496 -6.79493e-319)
(0.0227313 0.0506269 -8.91492e-320)
(0.0309595 0.047079 6.41574e-319)
(0.0364979 0.0404181 1.39448e-318)
(0.0425656 0.0338376 2.09818e-318)
(0.0468378 0.0260981 2.71723e-318)
(0.0507928 0.0186769 3.23869e-318)
(0.0532101 0.0100563 3.66313e-318)
(0.0547822 0.000840612 3.99657e-318)
(0.0544373 -0.0109239 4.24772e-318)
(0.052718 -0.0245787 4.42284e-318)
(0.0480408 -0.0429981 4.52289e-318)
(0.0419344 -0.0637169 4.53779e-318)
(0.0313994 -0.0904482 4.44391e-318)
(0.0221038 -0.114369 4.18501e-318)
(0.00688693 -0.136404 3.68134e-318)
(0.00358118 -0.130249 2.76404e-318)
(-0.00959448 -0.0780476 1.23369e-318)
(0.00370218 0.0175166 -4.16181e-319)
(0.00729957 0.035791 -6.82315e-319)
(0.0182515 0.0431737 -4.86378e-319)
(0.0247883 0.0429133 -9.82697e-321)
(0.0340962 0.0400023 5.93304e-319)
(0.0404443 0.0343836 1.23095e-318)
(0.0475334 0.0289136 1.83726e-318)
(0.0527096 0.0224719 2.38062e-318)
(0.0577893 0.0164121 2.84495e-318)
(0.0614885 0.00933959 3.22849e-318)
(0.0645205 0.00182478 3.53328e-318)
(0.0660304 -0.00798368 3.76481e-318)
(0.0659876 -0.0194829 3.9265e-318)
(0.0635558 -0.0356169 4.01635e-318)
(0.0583145 -0.0541753 4.02043e-318)
(0.0495796 -0.0795267 3.91501e-318)
(0.0378011 -0.103472 3.64359e-318)
(0.0229482 -0.128729 3.13824e-318)
(0.0104151 -0.128783 2.27634e-318)
(-0.00157175 -0.0856736 9.33255e-319)
(0.00439499 0.0154194 -5.37697e-319)
(0.00682651 0.0300371 -7.08021e-319)
(0.0184259 0.035673 -4.95859e-319)
(0.0247666 0.0353848 -6.35714e-320)
(0.0346052 0.0328097 4.64046e-319)
(0.0411198 0.0282095 1.01946e-318)
(0.048685 0.0237217 1.55118e-318)
(0.0542676 0.0185292 2.03203e-318)
(0.0600301 0.0136904 2.44739e-318)
(0.0645901 0.00806408 2.79416e-318)
(0.0688243 0.00212463 3.07264e-318)
(0.0718582 -0.00573411 3.28487e-318)
(0.073621 -0.0149606 3.43085e-318)
(0.0731763 -0.0283279 3.50538e-318)
(0.0697094 -0.0437455 3.49323e-318)
(0.0620604 -0.0659468 3.36663e-318)
(0.0500891 -0.086664 3.07747e-318)
(0.0322072 -0.110842 2.56438e-318)
(0.016141 -0.109744 1.75712e-318)
(-0.00466265 -0.0714221 6.05912e-319)
(0.00331595 0.0105474 -1.60517e-319)
(0.00647174 0.0233915 -2.84364e-319)
(0.0179101 0.0279482 -1.65334e-319)
(0.0247677 0.0279464 1.38077e-319)
(0.0348953 0.0258181 5.37509e-319)
(0.041543 0.0221499 9.73922e-319)
(0.0492943 0.0186177 1.40205e-318)
(0.0550153 0.0145428 1.79501e-318)
(0.0611408 0.0108255 2.13735e-318)
(0.0663444 0.00648193 2.42469e-318)
(0.0715502 0.00197113 2.65572e-318)
(0.0762113 -0.00409448 2.83113e-318)
(0.0798145 -0.0111612 2.94905e-318)
(0.0823354 -0.0217603 3.00441e-318)
(0.0810543 -0.0340245 2.98129e-318)
(0.0775855 -0.0528465 2.85663e-318)
(0.0652019 -0.0709997 2.58654e-318)
(0.0519797 -0.0957744 2.12231e-318)
(0.0250677 -0.100525 1.42361e-318)
(0.0114195 -0.0792511 4.64362e-319)
(0.00278012 0.00935539 -5.66827e-319)
(0.00425901 0.0179116 -5.66935e-319)
(0.0149023 0.0207728 -3.75939e-319)
(0.0208664 0.0204861 -6.411e-320)
(0.030143 0.0187889 3.00891e-319)
(0.0360638 0.01612 6.84404e-319)
(0.0430274 0.0134915 1.05532e-318)
(0.0481786 0.0105224 1.39487e-318)
(0.0538428 0.00773818 1.69154e-318)
(0.0588295 0.00452438 1.9415e-318)
(0.0641964 0.00113786 2.14478e-318)
(0.0692741 -0.00333436 2.30052e-318)
(0.0740507 -0.00856729 2.40624e-318)
(0.0778817 -0.0162915 2.45546e-318)
(0.0790954 -0.0252867 2.43434e-318)
(0.0773588 -0.0390133 2.32021e-318)
(0.0681668 -0.0522061 2.08096e-318)
(0.0538084 -0.0699989 1.67692e-318)
(0.0289788 -0.07046 1.0963e-318)
(0.00470603 -0.0476641 3.34403e-319)
(0.00134179 0.00560124 3.6844e-319)
(0.00348468 0.0128482 1.85522e-319)
(0.0136983 0.0144479 1.55996e-319)
(0.0193847 0.0143971 2.57379e-319)
(0.0282111 0.0130336 4.64249e-319)
(0.0331864 0.0111229 7.07344e-319)
(0.0394511 0.00932896 9.58645e-319)
(0.0437126 0.00723542 1.19265e-318)
(0.0487774 0.00539263 1.39861e-318)
(0.0533552 0.00314638 1.57139e-318)
(0.0585826 0.000933625 1.71071e-318)
(0.0641769 -0.00215665 1.81518e-318)
(0.0697086 -0.00550376 1.88361e-318)
(0.075763 -0.010835 1.91144e-318)
(0.078956 -0.0165396 1.88763e-318)
(0.0823616 -0.026585 1.79583e-318)
(0.0747928 -0.0354537 1.6099e-318)
(0.0700839 -0.0525139 1.30319e-318)
(0.0361915 -0.0565001 8.68306e-319)
(0.0311054 -0.0590678 2.9641e-319)
(-0.000365328 0.00472492 -5.10138e-319)
(6.17103e-05 0.00708729 -4.43923e-319)
(0.00686383 0.00765317 -3.13455e-319)
(0.010499 0.00742928 -1.35315e-319)
(0.0160043 0.00679381 5.9362e-320)
(0.0192174 0.00597294 2.59622e-319)
(0.022933 0.00498724 4.50667e-319)
(0.0256212 0.00391495 6.2483e-319)
(0.0287048 0.00272635 7.77724e-319)
(0.0315799 0.00138187 9.07193e-319)
(0.0351169 -0.000156842 1.01338e-318)
(0.0387065 -0.00204099 1.09585e-318)
(0.0430692 -0.00429367 1.15304e-318)
(0.0470584 -0.007202 1.18139e-318)
(0.0509426 -0.0107074 1.17316e-318)
(0.0529047 -0.0151522 1.11714e-318)
(0.0510854 -0.0200193 1.00047e-318)
(0.0447676 -0.0244163 8.076e-319)
(0.0270866 -0.0241375 5.4535e-319)
(0.0097909 -0.00759484 2.12488e-319)
(-0.000602876 0.00244176 8.4174e-319)
(0.000788689 0.00445547 4.42984e-319)
(0.00660694 0.00412111 2.95975e-319)
(0.00841515 0.0040686 2.31223e-319)
(0.012742 0.00359195 2.60847e-319)
(0.0138102 0.0030333 3.09201e-319)
(0.0164559 0.00275447 3.68696e-319)
(0.0174553 0.00221968 4.23222e-319)
(0.0194558 0.00203621 4.71215e-319)
(0.0210736 0.00152129 5.09984e-319)
(0.0233156 0.00135812 5.40053e-319)
(0.026143 0.000683979 5.61916e-319)
(0.0290365 0.000490665 5.75478e-319)
(0.0335013 -0.000716877 5.80468e-319)
(0.0363608 -0.000951822 5.73338e-319)
(0.0423042 -0.00373527 5.50182e-319)
(0.0408461 -0.00381367 5.01373e-319)
(0.047096 -0.0119906 4.18039e-319)
(0.0255338 -0.0109059 3.00031e-319)
(0.0399809 -0.034233 1.37232e-319)
)
;

boundaryField
{
    cavity
    {
        type            myHeatFlux;
        ThetaWall       uniform 0;
        value           nonuniform List<vector> 
60
(
(0.001 0 0)
(0.001 0 0)
(0.001 0 0)
(0.001 0 0)
(0.001 0 0)
(0.001 0 0)
(0.001 0 0)
(0.001 0 0)
(0.001 0 0)
(0.001 0 0)
(0.001 0 0)
(0.001 0 0)
(0.001 0 0)
(0.001 0 0)
(0.001 0 0)
(0.001 0 0)
(0.001 0 0)
(0.001 0 0)
(0.001 0 0)
(0.001 0 0)
(0 -0.001 0)
(0 -0.001 0)
(0 -0.001 0)
(0 -0.001 0)
(0 -0.001 0)
(0 -0.001 0)
(0 -0.001 0)
(0 -0.001 0)
(0 -0.001 0)
(0 -0.001 0)
(0 -0.001 0)
(0 -0.001 0)
(0 -0.001 0)
(0 -0.001 0)
(0 -0.001 0)
(0 -0.001 0)
(0 -0.001 0)
(0 -0.001 0)
(0 -0.001 0)
(0 -0.001 0)
(-0.001 0 0)
(-0.001 0 0)
(-0.001 0 0)
(-0.001 0 0)
(-0.001 0 0)
(-0.001 0 0)
(-0.001 0 0)
(-0.001 0 0)
(-0.001 0 0)
(-0.001 0 0)
(-0.001 0 0)
(-0.001 0 0)
(-0.001 0 0)
(-0.001 0 0)
(-0.001 0 0)
(-0.001 0 0)
(-0.001 0 0)
(-0.001 0 0)
(-0.001 0 0)
(-0.001 0 0)
)
;
    }
    lid
    {
        type            myHeatFlux;
        ThetaWall       uniform 0;
        value           nonuniform List<vector> 
20
(
(0.000135815 0.0009 0)
(0.000135815 0.0009 0)
(0.000135815 0.0009 0)
(0.000135815 0.0009 0)
(0.000135815 0.0009 0)
(0.000135815 0.0009 0)
(0.000135815 0.0009 0)
(0.000135815 0.0009 0)
(0.000135815 0.0009 0)
(0.000135815 0.0009 0)
(0.000135815 0.0009 0)
(0.000135815 0.0009 0)
(0.000135815 0.0009 0)
(0.000135815 0.0009 0)
(0.000135815 0.0009 0)
(0.000135815 0.0009 0)
(0.000135815 0.0009 0)
(0.000135815 0.0009 0)
(0.000135815 0.0009 0)
(0.000135815 0.0009 0)
)
;
    }
    frontAndBack
    {
        type            empty;
    }
}


// ************************************************************************* //
