/*--------------------------------*- C++ -*----------------------------------*\
| =========                 |                                                 |
| \\      /  F ield         | foam-extend: Open Source CFD                    |
|  \\    /   O peration     | Version:  3.0                                   |
|   \\  /    A nd           | Web:         http://www.extend-project.de       |
|    \\/     M anipulation  |                                                 |
\*---------------------------------------------------------------------------*/
FoamFile
{
    version     2.0;
    format      ascii;
    class       volVectorField;
    location    "6";
    object      u;
}
// * * * * * * * * * * * * * * * * * * * * * * * * * * * * * * * * * * * * * //

dimensions      [0 0 0 0 0 0 0];

internalField   nonuniform List<vector> 
400
(
(-0.726766 1.95266 1.93665e-315)
(-0.878179 1.37772 1.72078e-315)
(-1.89648 1.51036 1.50452e-315)
(-2.12617 1.02946 1.36573e-315)
(-2.75278 1.07137 1.16629e-315)
(-2.98401 0.788313 1.08221e-315)
(-3.34658 0.772414 9.00399e-316)
(-3.52184 0.581514 8.52585e-316)
(-3.68827 0.55515 6.8904e-316)
(-3.78135 0.384693 6.65448e-316)
(-3.77518 0.346522 5.19128e-316)
(-3.75881 0.160059 5.11754e-316)
(-3.57944 0.098289 3.81509e-316)
(-3.42085 -0.125877 3.83233e-316)
(-3.05326 -0.192208 2.70858e-316)
(-2.74372 -0.486743 2.72948e-316)
(-2.15344 -0.471878 1.85274e-316)
(-1.76811 -0.900847 1.7696e-316)
(-0.885026 -0.734694 1.2275e-316)
(-0.589044 -1.20726 8.89986e-317)
(-0.0848934 0.701479 1.12216e-315)
(-0.600008 0.578192 1.06206e-315)
(-0.889821 0.577203 9.71435e-316)
(-1.2031 0.412357 9.21201e-316)
(-1.52781 0.366642 8.26391e-316)
(-1.71752 0.213767 7.84144e-316)
(-1.96394 0.130395 6.89417e-316)
(-2.07535 -0.00188613 6.53652e-316)
(-2.19733 -0.116205 5.62027e-316)
(-2.23861 -0.23024 5.32461e-316)
(-2.22638 -0.376497 4.46347e-316)
(-2.19086 -0.476278 4.22648e-316)
(-2.05234 -0.652874 3.43774e-316)
(-1.92626 -0.740661 3.24182e-316)
(-1.68887 -0.927108 2.54325e-316)
(-1.44775 -1.00187 2.34188e-316)
(-1.17863 -1.14294 1.75494e-316)
(-0.773924 -1.19762 1.46137e-316)
(-0.605108 -1.20943 9.84e-317)
(0.0097692 -1.20885 4.72578e-317)
(-0.238141 2.85232 8.50121e-316)
(-0.70953 2.50779 8.36842e-316)
(-1.09681 2.33189 7.83126e-316)
(-1.39694 1.93361 7.4937e-316)
(-1.70752 1.78215 6.78472e-316)
(-1.90224 1.39648 6.41124e-316)
(-2.11444 1.25625 5.64798e-316)
(-2.25443 0.887682 5.30522e-316)
(-2.35321 0.748913 4.55202e-316)
(-2.45355 0.385579 4.2555e-316)
(-2.43253 0.224431 3.54015e-316)
(-2.47488 -0.140956 3.28592e-316)
(-2.33603 -0.346594 2.61909e-316)
(-2.27155 -0.704743 2.39248e-316)
(-2.03475 -0.952081 1.78961e-316)
(-1.78808 -1.27315 1.57508e-316)
(-1.51122 -1.51368 1.07997e-316)
(-1.00191 -1.75811 9.07911e-317)
(-0.793537 -1.91415 6.15898e-317)
(-0.0238168 -2.05566 7.33696e-317)
(-0.073363 2.129 2.0744e-316)
(-0.378467 1.88763 3.32202e-316)
(-0.56814 1.63331 3.76768e-316)
(-0.713891 1.35459 4.21636e-316)
(-0.905814 1.14929 4.21917e-316)
(-0.964685 0.848297 4.27199e-316)
(-1.10767 0.680106 4.03198e-316)
(-1.1443 0.377247 3.89777e-316)
(-1.21282 0.201775 3.53957e-316)
(-1.25492 -0.0927311 3.3295e-316)
(-1.23996 -0.325656 2.93145e-316)
(-1.28824 -0.603791 2.7068e-316)
(-1.18945 -0.937683 2.31873e-316)
(-1.2174 -1.17525 2.1154e-316)
(-1.04879 -1.62832 1.77329e-316)
(-0.988014 -1.76778 1.61498e-316)
(-0.803644 -2.29119 1.34872e-316)
(-0.533942 -2.2496 1.25717e-316)
(-0.463339 -2.63826 1.09249e-316)
(0.0940456 -2.39826 1.0775e-316)
(-0.319717 3.37447 2.15295e-316)
(-0.453946 3.1061 3.11892e-316)
(-0.91717 2.71496 3.44186e-316)
(-0.961656 2.33315 3.69216e-316)
(-1.27321 2.06221 3.65114e-316)
(-1.32425 1.62052 3.60966e-316)
(-1.50588 1.44886 3.38026e-316)
(-1.60766 0.988497 3.21725e-316)
(-1.67594 0.855291 2.89935e-316)
(-1.83605 0.388183 2.68288e-316)
(-1.79622 0.231597 2.3251e-316)
(-1.99419 -0.236997 2.07917e-316)
(-1.83908 -0.477205 1.69862e-316)
(-2.01949 -0.917658 1.4188e-316)
(-1.73859 -1.29619 1.01171e-316)
(-1.79467 -1.62274 6.64681e-317)
(-1.40251 -2.15951 2.07391e-317)
(-1.17427 -2.22723 -2.78701e-317)
(-0.759632 -2.77836 -8.44431e-317)
(-0.140023 -2.53794 -1.62315e-316)
(-0.41913 3.15068 -1.57758e-316)
(-0.167442 2.69507 8.07345e-318)
(-0.686302 2.31966 9.51228e-317)
(-0.450866 1.84768 1.69037e-316)
(-0.743979 1.64526 2.04506e-316)
(-0.596518 1.17489 2.30281e-316)
(-0.748833 1.06872 2.35078e-316)
(-0.703931 0.616165 2.35806e-316)
(-0.763261 0.514627 2.23981e-316)
(-0.825954 0.0761862 2.12632e-316)
(-0.806933 -0.107593 1.93177e-316)
(-0.981323 -0.539731 1.77316e-316)
(-0.866357 -0.894933 1.56038e-316)
(-1.14788 -1.3003 1.40572e-316)
(-0.887964 -1.91206 1.21527e-316)
(-1.24106 -2.19898 1.10251e-316)
(-0.769798 -3.08815 9.6291e-317)
(-1.09374 -3.07388 9.16666e-317)
(-0.367339 -3.96715 8.42321e-317)
(-0.488169 -3.54112 8.25515e-317)
(-0.607321 4.03796 4.35532e-317)
(-0.15088 3.38288 1.26657e-316)
(-0.88546 3.0138 1.68609e-316)
(-0.56483 2.36002 1.97729e-316)
(-0.950543 2.19902 2.10668e-316)
(-0.837306 1.58979 2.15842e-316)
(-1.01177 1.5454 2.11546e-316)
(-1.08376 0.97663 2.04526e-316)
(-1.12848 0.974765 1.90459e-316)
(-1.3676 0.417784 1.76413e-316)
(-1.30936 0.393576 1.56564e-316)
(-1.7068 -0.185782 1.37681e-316)
(-1.51849 -0.305146 1.13472e-316)
(-2.05311 -0.915265 8.93419e-317)
(-1.64931 -1.22345 5.98187e-317)
(-2.2499 -1.79821 2.65311e-317)
(-1.49398 -2.39198 -1.22231e-317)
(-1.9915 -2.75453 -6.38453e-317)
(-0.749086 -3.56595 -1.20141e-316)
(-0.868894 -3.59847 -2.08042e-316)
(-0.5824 4.03871 -1.73789e-316)
(0.0721304 3.03367 -5.17481e-317)
(-0.613339 2.81201 2.14249e-317)
(-0.12371 1.93817 8.26922e-317)
(-0.453519 1.97177 1.1763e-316)
(-0.181022 1.25698 1.42368e-316)
(-0.315681 1.36266 1.52567e-316)
(-0.225359 0.758898 1.56503e-316)
(-0.263956 0.85016 1.52418e-316)
(-0.342134 0.29054 1.45631e-316)
(-0.318483 0.291501 1.3453e-316)
(-0.585543 -0.294244 1.23425e-316)
(-0.463255 -0.486453 1.10408e-316)
(-0.969054 -1.14516 9.96991e-317)
(-0.619719 -1.67286 8.89398e-317)
(-1.42783 -2.37114 8.32027e-317)
(-0.607123 -3.36822 7.85613e-317)
(-1.73269 -3.91761 8.20576e-317)
(-0.113025 -5.23514 8.67534e-317)
(-1.30944 -5.37359 9.84199e-317)
(-0.555382 4.56898 8.57929e-317)
(0.139384 3.38361 1.12626e-316)
(-0.520547 3.19926 1.31726e-316)
(-0.0985096 2.1552 1.42344e-316)
(-0.396987 2.23793 1.49806e-316)
(-0.261116 1.41615 1.51456e-316)
(-0.353392 1.57608 1.4968e-316)
(-0.443203 0.904309 1.44724e-316)
(-0.434725 1.0888 1.36456e-316)
(-0.735146 0.466439 1.26538e-316)
(-0.663116 0.645558 1.13834e-316)
(-1.20472 -0.038659 1.00086e-316)
(-1.02381 0.091099 8.39515e-317)
(-1.85864 -0.76359 6.6119e-317)
(-1.4055 -0.76569 4.60391e-317)
(-2.55575 -1.84904 2.11767e-317)
(-1.50472 -2.13266 -5.31717e-318)
(-2.84135 -3.35172 -4.37583e-317)
(-0.733008 -4.11733 -8.18181e-317)
(-1.73978 -5.19854 -1.42433e-316)
(-0.328649 4.47851 -7.81408e-317)
(0.221496 3.00755 -1.12802e-317)
(-0.158825 3.06213 3.38202e-317)
(0.249301 1.81561 7.26796e-317)
(0.10791 2.14053 9.52612e-317)
(0.338722 1.21349 1.11192e-316)
(0.325235 1.54986 1.17641e-316)
(0.40795 0.842267 1.19341e-316)
(0.433484 1.15034 1.16034e-316)
(0.371784 0.52455 1.10309e-316)
(0.39952 0.775989 1.02254e-316)
(0.151908 0.0762303 9.38304e-317)
(0.222699 0.191919 8.51195e-317)
(-0.310514 -0.75082 7.82838e-317)
(-0.0228449 -0.940714 7.32793e-317)
(-1.01603 -2.26037 7.39221e-317)
(-0.119446 -3.04171 7.87444e-317)
(-1.78377 -4.6851 9.65067e-317)
(0.339272 -6.31003 1.2013e-316)
(-1.8637 -7.85303 1.70231e-316)
(-0.0630265 4.66276 1.63061e-316)
(0.332375 3.19312 1.41286e-316)
(0.213769 3.1574 1.37473e-316)
(0.374567 1.87448 1.30823e-316)
(0.387037 2.1414 1.29133e-316)
(0.381137 1.19288 1.25058e-316)
(0.474824 1.50613 1.21043e-316)
(0.335622 0.796184 1.15305e-316)
(0.438844 1.12737 1.08289e-316)
(0.139514 0.503485 1.00094e-316)
(0.218933 0.864892 9.06516e-317)
(-0.323058 0.139196 8.03919e-317)
(-0.224953 0.538972 6.92699e-317)
(-1.14505 -0.526987 5.69878e-317)
(-0.837458 -0.106726 4.43186e-317)
(-2.2885 -1.78165 2.85341e-317)
(-1.30265 -1.46358 1.36834e-317)
(-3.26994 -3.86601 -7.84084e-318)
(-0.763498 -4.17353 -2.56377e-317)
(-2.49175 -6.77808 -4.57942e-317)
(0.169402 4.24773 7.67737e-318)
(0.227706 2.76209 4.28777e-317)
(0.506919 3.02193 6.65143e-317)
(0.596089 1.65448 8.87219e-317)
(0.829932 2.12764 9.87063e-317)
(0.909924 1.12704 1.05461e-316)
(1.10799 1.58375 1.05943e-316)
(1.15795 0.868488 1.03722e-316)
(1.28885 1.32272 9.86506e-317)
(1.28972 0.719578 9.22025e-317)
(1.32608 1.19423 8.47671e-317)
(1.23497 0.477391 7.73597e-317)
(1.19353 0.944226 7.05512e-317)
(0.913145 -0.192326 6.58252e-317)
(0.929963 0.11924 6.3785e-317)
(0.250795 -1.82679 6.83629e-317)
(0.730794 -2.09765 7.82516e-317)
(-0.746604 -5.13939 1.06196e-316)
(0.970239 -6.91568 1.40853e-316)
(-1.63905 -10.7064 2.21514e-316)
(0.691235 4.3078 1.75021e-316)
(0.406867 2.8784 1.46256e-316)
(1.06367 2.83403 1.35461e-316)
(0.76044 1.58228 1.2435e-316)
(1.1981 1.87185 1.18136e-316)
(0.988056 0.950436 1.11314e-316)
(1.32333 1.30102 1.05484e-316)
(1.15011 0.64817 9.89972e-317)
(1.3727 1.03176 9.22144e-317)
(1.15529 0.489838 8.48877e-317)
(1.24194 0.938929 7.71829e-317)
(0.868043 0.280087 6.91656e-317)
(0.826266 0.845739 6.10786e-317)
(0.110939 -0.273766 5.25346e-317)
(0.0661617 0.476366 4.42806e-317)
(-1.27451 -1.60652 3.41851e-317)
(-0.844338 -0.652989 2.49701e-317)
(-3.03896 -4.13528 1.16757e-317)
(-0.884129 -3.57644 1.71673e-319)
(-3.126 -7.54823 -7.69476e-318)
(0.583925 3.38191 5.36413e-317)
(0.191371 2.46573 1.03458e-316)
(1.16109 2.72454 1.11554e-316)
(0.956966 1.53517 1.21651e-316)
(1.60874 1.92723 1.18481e-316)
(1.54387 1.01231 1.15302e-316)
(1.97862 1.43734 1.08548e-316)
(2.00279 0.816187 1.01197e-316)
(2.256 1.30488 9.28848e-317)
(2.35157 0.815004 8.43235e-317)
(2.41344 1.41513 7.57703e-317)
(2.57285 0.805589 6.77346e-317)
(2.41146 1.54989 6.07299e-317)
(2.61453 0.417854 5.58717e-317)
(2.22387 1.24751 5.36427e-317)
(2.38375 -1.08434 5.79929e-317)
(1.93767 -0.617993 6.67055e-317)
(1.69659 -5.05611 9.37715e-317)
(1.72777 -6.6789 1.24406e-316)
(0.0495394 -13.72 1.97857e-316)
(1.47139 3.6792 7.67182e-317)
(0.366333 2.41773 1.00896e-316)
(1.68527 2.24995 1.01897e-316)
(0.963951 1.23737 9.98488e-317)
(1.75513 1.43172 9.63666e-317)
(1.40587 0.67305 9.16144e-317)
(1.94643 0.965372 8.72313e-317)
(1.78362 0.451376 8.22532e-317)
(2.11178 0.792289 7.72057e-317)
(2.02587 0.398564 7.18194e-317)
(2.12851 0.813682 6.63622e-317)
(2.02549 0.327033 6.08238e-317)
(1.85552 0.875271 5.54279e-317)
(1.57139 -0.0720394 4.98237e-317)
(1.0994 0.718837 4.42185e-317)
(0.281447 -1.33853 3.66708e-317)
(-0.201263 -0.111396 2.80388e-317)
(-2.18344 -4.01134 1.24816e-317)
(-1.06348 -2.50144 -5.89956e-318)
(-4.02583 -6.55003 -3.79489e-317)
(0.700202 2.1035 2.32008e-316)
(0.354601 2.3059 2.60546e-316)
(1.83951 2.27052 2.23171e-316)
(1.58145 1.46152 1.97899e-316)
(2.60743 1.58268 1.70784e-316)
(2.46716 0.853463 1.49973e-316)
(3.11513 1.14312 1.31713e-316)
(3.12353 0.679389 1.15783e-316)
(3.49297 1.10978 1.01325e-316)
(3.68815 0.787196 8.79018e-317)
(3.80887 1.39357 7.54532e-317)
(4.25127 0.986894 6.40506e-317)
(4.04851 1.85218 5.4018e-317)
(4.84544 0.94698 4.62313e-317)
(4.09375 2.15328 4.09905e-317)
(5.43802 -0.155127 4.18438e-317)
(3.73975 1.17198 4.63248e-317)
(5.82359 -4.3734 6.6391e-317)
(2.57074 -5.14322 8.79828e-317)
(4.34017 -16.9171 1.35569e-316)
(2.05012 2.88993 -1.11998e-316)
(0.176294 1.64687 -3.40171e-317)
(1.651 1.4289 -2.06503e-318)
(0.770943 0.731324 1.75417e-317)
(1.60134 0.846014 2.96765e-317)
(1.26107 0.340716 3.651e-317)
(1.83729 0.537943 4.1514e-317)
(1.72331 0.213739 4.44479e-317)
(2.07611 0.44043 4.64309e-317)
(2.09047 0.219146 4.7495e-317)
(2.20534 0.486607 4.80789e-317)
(2.30478 0.223675 4.82804e-317)
(2.09673 0.560798 4.82461e-317)
(2.19667 -0.0148563 4.75895e-317)
(1.48984 0.442165 4.60048e-317)
(1.28989 -0.998163 4.11727e-317)
(0.0980495 -0.252634 3.2797e-317)
(-1.48565 -3.21785 1.20611e-317)
(-1.20633 -1.62629 -1.48007e-317)
(-6.38487 -2.5162 -7.63834e-317)
(0.51116 0.748809 9.38439e-316)
(1.07733 2.51339 6.56274e-316)
(3.1404 1.84374 4.88697e-316)
(3.07499 1.44384 3.66646e-316)
(4.60284 1.22804 2.94585e-316)
(4.39114 0.671019 2.41421e-316)
(5.29197 0.817061 2.03107e-316)
(5.2578 0.503123 1.71187e-316)
(5.7628 0.846221 1.43946e-316)
(6.06608 0.681972 1.19269e-316)
(6.3133 1.22163 9.67581e-317)
(7.10853 1.03052 7.60944e-317)
(7.03278 1.87244 5.75873e-317)
(8.57061 1.30445 4.20214e-317)
(7.71703 2.66347 2.99376e-317)
(10.5089 0.711852 2.46378e-317)
(7.50118 2.87833 2.42469e-317)
(12.7554 -3.45284 3.87198e-317)
(4.01404 -1.84159 5.52189e-317)
(13.3086 -20.8792 8.98105e-317)
(2.24238 1.82496 -6.28837e-316)
(-0.206743 0.129425 -4.242e-316)
(0.201916 0.261287 -2.94434e-316)
(-0.447222 -0.104077 -2.04607e-316)
(-0.378284 0.0813084 -1.4925e-316)
(-0.499081 -0.0552396 -1.09908e-316)
(-0.336241 0.0377352 -8.08804e-317)
(-0.367124 -0.0496372 -5.76382e-317)
(-0.231617 -0.0113011 -3.80658e-317)
(-0.277264 -0.0733789 -2.09831e-317)
(-0.253012 -0.0756601 -5.67442e-318)
(-0.359543 -0.138364 8.16222e-318)
(-0.519681 -0.204735 2.05196e-317)
(-0.757248 -0.313109 3.08823e-317)
(-1.18107 -0.538812 3.83931e-317)
(-1.77777 -0.726858 4.01845e-317)
(-2.21169 -1.35147 3.58579e-317)
(-4.44235 -1.11389 1.48079e-317)
(-1.79084 -1.91229 -1.25212e-317)
(-12.853 6.73034 -7.83832e-317)
(-0.136816 -0.334092 2.41316e-315)
(2.74921 3.51148 1.35218e-315)
(6.72587 1.88097 9.56898e-316)
(6.76028 1.67118 6.82151e-316)
(9.68358 1.18502 5.49815e-316)
(9.13315 0.599112 4.52291e-316)
(10.7026 0.695653 3.84559e-316)
(10.5083 0.411386 3.26576e-316)
(11.3862 0.750497 2.76243e-316)
(11.9121 0.657487 2.29729e-316)
(12.5089 1.20696 1.86641e-316)
(14.0835 1.13123 1.46635e-316)
(14.434 2.00329 1.10451e-316)
(17.5577 1.61532 7.91913e-317)
(16.9925 3.09561 5.41473e-317)
(22.5374 1.25518 3.89102e-317)
(18.1629 4.18724 3.12658e-317)
(28.1691 -3.50297 3.9978e-317)
(9.64739 2.91131 4.75743e-317)
(30.3955 -27.5031 6.58623e-317)
)
;

boundaryField
{
    cavity
    {
        type            myImplicitVelocity;
    }
    lid
    {
        type            fixedValue;
        value           uniform (1 0 0);
    }
    frontAndBack
    {
        type            empty;
    }
}


// ************************************************************************* //
