/*--------------------------------*- C++ -*----------------------------------*\
| =========                 |                                                 |
| \\      /  F ield         | foam-extend: Open Source CFD                    |
|  \\    /   O peration     | Version:  3.0                                   |
|   \\  /    A nd           | Web:         http://www.extend-project.de       |
|    \\/     M anipulation  |                                                 |
\*---------------------------------------------------------------------------*/
FoamFile
{
    version     2.0;
    format      ascii;
    class       volScalarField;
    location    "3";
    object      p;
}
// * * * * * * * * * * * * * * * * * * * * * * * * * * * * * * * * * * * * * //

dimensions      [0 0 0 0 0 0 0];

internalField   nonuniform List<scalar> 
576
(
-2.84788
-1.02418
-4.40992
-1.37578
-2.50212
-1.86602
-1.91722
-1.79965
-1.7626
-1.73096
-1.72858
-1.72418
-2.79379
-1.00406
-4.33356
-1.35219
-2.45966
-1.83615
-1.88625
-1.77092
-1.73464
-1.70381
-1.70156
-1.69717
-2.69872
-0.966867
-4.18579
-1.30776
-2.37646
-1.77501
-1.82353
-1.71239
-1.67718
-1.64702
-1.64444
-1.64008
-2.55573
-0.912052
-3.96329
-1.23785
-2.25073
-1.68223
-1.72874
-1.62383
-1.59054
-1.56186
-1.55932
-1.55525
-2.36892
-0.843462
-3.67409
-1.14803
-2.08733
-1.56119
-1.60488
-1.50793
-1.47706
-1.45027
-1.44769
-1.44388
-2.14078
-0.760832
-3.3214
-1.03819
-1.88794
-1.41324
-1.45342
-1.36614
-1.33824
-1.31382
-1.31128
-1.30777
-1.87543
-0.665471
-2.91179
-0.910603
-1.65627
-1.24107
-1.27702
-1.20088
-1.17644
-1.15482
-1.15238
-1.1492
-1.57783
-0.558991
-2.45258
-0.767631
-1.39647
-1.0478
-1.07881
-1.01504
-0.994427
-0.97597
-0.973673
-0.970875
-1.25306
-0.442951
-1.95157
-0.611646
-1.11297
-0.836729
-0.862218
-0.811824
-0.795354
-0.78036
-0.778234
-0.77585
-0.906615
-0.31915
-1.4172
-0.445176
-0.810482
-0.611405
-0.630915
-0.594729
-0.582644
-0.571352
-0.569419
-0.567477
-0.544472
-0.189652
-0.858515
-0.270985
-0.494095
-0.375606
-0.388815
-0.367447
-0.359935
-0.352527
-0.350807
-0.349332
-0.172918
-0.0567207
-0.28506
-0.0920423
-0.169183
-0.133329
-0.140027
-0.133847
-0.131032
-0.12763
-0.126144
-0.125156
0.201591
0.0772847
0.293321
0.088561
0.158687
0.111285
0.111199
0.102081
0.100152
0.099491
0.10072
0.101206
0.57258
0.209996
0.866693
0.267693
0.483881
0.354035
0.36056
0.336298
0.329658
0.324944
0.325896
0.32587
0.933669
0.339093
1.42521
0.442253
0.800812
0.590751
0.603777
0.564788
0.553551
0.544865
0.545521
0.544981
1.27868
0.462343
1.95931
0.609233
1.10404
0.817366
0.836678
0.783631
0.767991
0.755482
0.75583
0.754781
1.60172
0.577631
2.45984
0.765764
1.38836
1.02999
1.05527
0.989075
0.969303
0.953184
0.953216
0.951673
1.89728
0.682989
2.91824
0.909166
1.64891
1.22499
1.2558
1.1776
1.15403
1.13458
1.1343
1.13228
2.16033
0.776622
3.32667
1.03699
1.88123
1.39901
1.43483
1.34597
1.31902
1.29657
1.29597
1.29352
2.38639
0.856938
3.67815
1.14704
2.08134
1.54909
1.58931
1.4913
1.46143
1.43636
1.43546
1.43261
2.57159
0.922571
3.96668
1.23745
2.24582
1.67264
1.71658
1.61111
1.57882
1.55157
1.55038
1.54719
2.71279
0.972404
4.18732
1.30667
2.37186
1.76756
1.81447
1.70334
1.6692
1.64023
1.63877
1.63528
2.80756
1.00559
4.3363
1.35351
2.45731
1.83222
1.8813
1.76642
1.731
1.70081
1.69911
1.69538
2.8543
1.02156
4.41107
1.37719
2.50069
1.86552
1.91593
1.79926
1.76317
1.73227
1.73036
1.72646
2.85219
1.02004
4.41036
1.37728
2.50127
1.86689
1.91776
1.80129
1.76516
1.73408
1.73199
1.72799
2.80128
1.00107
4.33417
1.3538
2.45904
1.83629
1.88676
1.77249
1.73692
1.7062
1.70397
1.69994
2.70244
0.964957
4.18382
1.30714
2.37472
1.77426
1.82346
1.71335
1.67896
1.64912
1.64678
1.64278
2.55735
0.91233
3.96186
1.2381
2.24975
1.68186
1.72894
1.62487
1.59225
1.5638
1.5614
1.5575
2.36849
0.844084
3.67211
1.14787
2.08627
1.56066
1.60482
1.50857
1.47828
1.45171
1.44928
1.44556
2.1391
0.761388
3.31952
1.03798
1.88708
1.41274
1.45323
1.36644
1.33899
1.31476
1.31236
1.30888
1.8731
0.665658
2.91012
0.910314
1.65559
1.24063
1.27675
1.20091
1.17678
1.1553
1.15296
1.14978
1.57503
0.558534
2.45092
0.767067
1.39575
1.04727
1.0784
1.01481
0.9944
0.976046
0.973811
0.970985
1.25
0.441856
1.94979
0.610691
1.11203
0.835983
0.861575
0.81132
0.794982
0.780059
0.777967
0.775542
0.903593
0.317628
1.4153
0.443867
0.809271
0.610376
0.629992
0.593921
0.58193
0.570686
0.568768
0.566781
0.541738
0.187988
0.856624
0.26946
0.492678
0.374322
0.387615
0.366337
0.358888
0.351506
0.349786
0.348259
0.170653
0.0551701
0.283328
0.0904658
0.167681
0.131874
0.138608
0.132477
0.129686
0.126273
0.124765
0.123706
-0.203286
-0.0785376
-0.294755
-0.0900345
-0.160133
-0.112795
-0.112742
-0.103631
-0.10173
-0.101134
-0.102429
-0.103032
-0.573655
-0.21083
-0.86771
-0.268932
-0.485124
-0.355471
-0.362098
-0.337899
-0.331348
-0.326776
-0.327861
-0.328039
-0.934094
-0.339431
-1.42571
-0.443141
-0.801699
-0.591971
-0.605152
-0.566261
-0.555168
-0.546708
-0.547587
-0.547374
-1.27842
-0.46213
-1.9592
-0.609654
-1.10442
-0.818233
-0.83772
-0.784758
-0.769286
-0.757072
-0.757726
-0.757132
-1.60075
-0.576832
-2.45905
-0.765601
-1.38809
-1.0304
-1.05584
-0.989654
-0.970014
-0.954205
-0.954579
-0.953544
-1.89557
-0.681594
-2.91672
-0.908301
-1.64787
-1.22492
-1.25587
-1.17754
-1.15401
-1.1348
-1.13481
-1.13319
-2.15784
-0.774689
-3.32442
-1.03532
-1.87935
-1.39855
-1.43452
-1.3454
-1.31835
-1.29602
-1.2956
-1.29328
-2.38307
-0.854607
-3.67525
-1.14459
-2.07861
-1.54841
-1.58882
-1.4905
-1.46045
-1.43542
-1.4346
-1.43171
-2.56737
-0.920306
-3.96304
-1.23419
-2.24216
-1.67177
-1.716
-1.61015
-1.57766
-1.55042
-1.5493
-1.54631
-2.7076
-0.970476
-4.18379
-1.30346
-2.36801
-1.76658
-1.81373
-1.70203
-1.66754
-1.63841
-1.63676
-1.63347
-2.80074
-1.00557
-4.33107
-1.34861
-2.45258
-1.83045
-1.87999
-1.76438
-1.72857
-1.69811
-1.69598
-1.69192
-2.84814
-1.02115
-4.40813
-1.37394
-2.49927
-1.86568
-1.91599
-1.7974
-1.76014
-1.72878
-1.72686
-1.72364
)
;

boundaryField
{
    out
    {
        type            implicitExtrapolation;
    }
    in
    {
        type            implicitExtrapolation;
    }
    frontAndBack
    {
        type            empty;
    }
}


// ************************************************************************* //
