/*--------------------------------*- C++ -*----------------------------------*\
| =========                 |                                                 |
| \\      /  F ield         | foam-extend: Open Source CFD                    |
|  \\    /   O peration     | Version:  3.0                                   |
|   \\  /    A nd           | Web:         http://www.extend-project.de       |
|    \\/     M anipulation  |                                                 |
\*---------------------------------------------------------------------------*/
FoamFile
{
    version     2.0;
    format      ascii;
    class       volSymmTensorField;
    location    "3";
    object      sigma;
}
// * * * * * * * * * * * * * * * * * * * * * * * * * * * * * * * * * * * * * //

dimensions      [0 0 0 0 0 0 0];

internalField   nonuniform List<symmTensor> 
576
(
(0.995467 -0.0243088 -1.0274e-18 -2.05205 3.1758e-18 -2.98697e-36)
(2.17256 0.235306 2.09876e-18 -1.20072 -4.88274e-18 -4.13932e-35)
(2.19684 0.150992 4.8713e-18 -0.942515 -4.41351e-18 -3.6083e-37)
(1.24175 0.127499 -1.74474e-19 -0.966435 -2.24473e-18 3.76385e-36)
(1.56559 0.137254 4.76847e-18 -0.764316 8.55726e-19 1.52691e-35)
(1.1931 0.114186 4.01591e-18 -0.657815 5.45104e-19 5.70072e-36)
(1.129 0.10521 -6.40477e-18 -0.531387 2.43881e-18 -1.79644e-35)
(0.985106 0.0922831 -8.88422e-18 -0.421068 8.59299e-18 -7.62973e-35)
(0.88323 0.0822355 -1.61818e-17 -0.31635 4.59088e-18 -5.05102e-35)
(0.784549 0.0726343 -1.34412e-17 -0.218601 -1.29834e-18 7.31983e-36)
(0.701073 0.0640201 -1.95649e-19 -0.126418 -7.06949e-18 2.6752e-35)
(0.616976 0.0555863 -9.405e-18 -0.0381175 -4.9887e-18 1.15166e-36)
(1.09681 -0.0297949 -1.13934e-18 -2.1385 -1.91907e-18 -1.02984e-35)
(2.00435 0.682487 -1.54074e-17 -1.04965 9.90603e-18 1.08732e-34)
(2.10681 0.442736 -1.49517e-17 -0.875653 3.39866e-18 9.18108e-35)
(1.16299 0.369271 -8.41327e-18 -0.894049 -4.41329e-18 -2.37453e-35)
(1.47714 0.39737 9.33925e-18 -0.690628 -5.73729e-18 -2.97912e-36)
(1.12005 0.327625 -5.03463e-19 -0.593985 7.74402e-18 0)
(1.05943 0.302246 -2.32956e-17 -0.472114 1.37437e-17 -2.09208e-34)
(0.922679 0.264461 1.7993e-17 -0.368186 4.44766e-18 9.13757e-35)
(0.826102 0.23417 2.8123e-17 -0.268644 4.49025e-18 1.13208e-34)
(0.73275 0.204991 2.69912e-17 -0.175903 -1.02855e-18 -2.37413e-34)
(0.65412 0.178843 -1.25162e-17 -0.0884822 4.76156e-18 -7.69861e-35)
(0.574883 0.153557 -3.25479e-17 -0.00498538 9.12475e-18 1.72937e-34)
(1.27749 0.0310485 -3.98963e-18 -2.28317 3.60517e-18 -3.39701e-37)
(1.69129 1.0443 1.14622e-17 -0.770659 -1.08707e-17 -8.8608e-35)
(1.94098 0.698878 3.64184e-18 -0.751927 -3.47885e-18 -7.10647e-35)
(1.0183 0.572394 -1.75241e-17 -0.758313 1.1371e-17 -7.23243e-36)
(1.31121 0.614861 -3.22236e-17 -0.551623 5.35544e-18 -2.14136e-35)
(0.982372 0.504648 1.18826e-17 -0.473853 2.94329e-19 2.46872e-35)
(0.928466 0.464626 6.73713e-17 -0.360715 -9.98873e-18 4.88809e-34)
(0.805564 0.40542 6.04417e-18 -0.269406 2.61799e-19 8.35323e-36)
(0.719559 0.357755 5.32297e-17 -0.180598 -4.97355e-18 5.36616e-34)
(0.636519 0.31184 4.23274e-17 -0.09828 5.03622e-18 3.5545e-34)
(0.566882 0.270877 -2.5697e-17 -0.0202851 1.61356e-17 -1.80696e-34)
(0.496019 0.231316 6.2426e-17 0.0546786 8.82097e-18 4.76428e-34)
(1.502 0.189287 7.85015e-19 -2.4548 -1.06774e-18 0)
(1.27648 1.27911 -2.97889e-18 -0.406447 -9.84169e-19 0)
(1.71333 0.900614 -4.00127e-17 -0.588287 1.84023e-17 1.49885e-34)
(0.824464 0.718214 5.97531e-17 -0.579112 -2.18845e-17 -6.08792e-36)
(1.08809 0.769639 -8.44178e-18 -0.369195 9.22655e-19 -1.25144e-34)
(0.798324 0.628393 2.17184e-17 -0.316677 -1.19771e-17 3.20985e-34)
(0.753473 0.576539 -4.97176e-17 -0.215511 3.52867e-18 -3.9292e-34)
(0.649059 0.501036 4.79238e-17 -0.140846 -2.29595e-17 8.61494e-35)
(0.577114 0.440034 1.64277e-17 -0.0661592 -1.93737e-17 -6.43685e-34)
(0.507851 0.381302 8.52268e-18 0.0024578 -2.10493e-19 -6.99157e-35)
(0.450162 0.328958 1.37138e-17 0.0681168 -5.76311e-18 -2.63693e-34)
(0.390614 0.278258 1.083e-16 0.131649 -3.11401e-17 4.20553e-35)
(1.72376 0.461231 -1.71275e-18 -2.60735 1.52768e-18 0)
(0.814109 1.36123 -2.43192e-17 -0.00870155 1.38278e-17 4.06744e-35)
(1.44608 1.03651 3.23156e-17 -0.403673 -1.04023e-17 -1.81132e-34)
(0.605831 0.79568 -4.78363e-17 -0.378692 1.86519e-17 -1.0504e-34)
(0.834342 0.849687 6.58078e-17 -0.168124 -2.39556e-17 -3.77296e-34)
(0.590282 0.688545 -4.5566e-17 -0.143619 2.81014e-18 1.69322e-34)
(0.555641 0.628116 -2.84968e-18 -0.0565362 -1.29178e-17 0)
(0.472353 0.542333 -6.73543e-17 -0.000643294 -3.81043e-18 6.30268e-34)
(0.416406 0.472853 -9.36627e-17 0.0579281 8.84552e-18 7.99509e-34)
(0.362877 0.406156 -9.17703e-17 0.110885 -7.25142e-18 -2.84803e-34)
(0.318797 0.346683 3.67877e-17 0.162372 -2.62111e-17 -3.86626e-34)
(0.272177 0.288788 -1.84391e-16 0.212763 -2.89085e-18 -4.20553e-35)
(1.89231 0.841768 2.58658e-18 -2.69193 4.68868e-18 0)
(0.363843 1.28953 1.92383e-17 0.363266 -6.39349e-18 9.3395e-35)
(1.16366 1.10448 9.25881e-18 -0.222013 -5.11176e-19 -8.34978e-35)
(0.388153 0.803964 -2.52508e-18 -0.183317 -2.42372e-18 0)
(0.578692 0.853968 -4.66667e-17 0.023276 1.10328e-17 1.18269e-34)
(0.382776 0.68428 2.77446e-17 0.0211071 -8.95197e-18 -9.74345e-35)
(0.358404 0.618655 -8.45304e-17 0.0931971 2.17061e-17 3.76162e-34)
(0.29667 0.528744 1.15577e-16 0.130401 -1.83861e-17 -9.45077e-34)
(0.256879 0.455728 4.28681e-17 0.17269 -7.36452e-18 -6.92807e-34)
(0.219205 0.385992 -4.82562e-17 0.209899 1.31256e-17 3.14193e-34)
(0.188807 0.323731 3.07975e-19 0.247041 7.98058e-18 0)
(0.15529 0.262653 3.44093e-18 0.284045 1.42174e-17 0)
(1.96214 1.30657 4.92883e-18 -2.66437 3.67984e-18 0)
(-0.0185551 1.08534 -1.60579e-17 0.655028 2.15665e-17 -2.76143e-34)
(0.889723 1.11088 6.94653e-17 -0.0649667 -2.40659e-17 7.87183e-34)
(0.195697 0.751403 -1.08215e-17 -0.0166663 -6.21875e-18 0)
(0.348132 0.791783 3.93707e-17 0.179282 -1.11785e-17 -7.22429e-35)
(0.198768 0.623737 -4.15196e-17 0.155396 1.11058e-17 5.9323e-35)
(0.183646 0.556026 8.60803e-17 0.212698 -1.26056e-17 -3.37592e-36)
(0.141798 0.467483 7.90139e-17 0.233312 -7.88578e-18 -2.39291e-35)
(0.116687 0.39534 -1.29057e-16 0.260768 2.26794e-17 -4.16294e-34)
(0.0933462 0.326918 4.12372e-17 0.28377 2.19535e-18 -3.35317e-36)
(0.0752315 0.265729 -9.87815e-18 0.307856 -1.74609e-18 0)
(0.0536452 0.205062 -5.77401e-18 0.332576 1.20052e-17 0)
(1.89952 1.81471 1.23946e-18 -2.49243 2.5931e-18 0)
(-0.289848 0.788977 3.86603e-17 0.824911 -6.43401e-18 1.83456e-34)
(0.643406 1.06973 -3.56925e-17 0.050454 6.94246e-18 -6.59858e-34)
(0.0474797 0.654623 -3.31684e-17 0.102767 1.0623e-17 1.11246e-35)
(0.163887 0.681517 -1.6038e-18 0.280046 -3.12144e-18 5.71623e-35)
(0.0562485 0.522832 2.49966e-17 0.242203 -1.794e-17 6.04405e-35)
(0.0485207 0.455494 3.15206e-18 0.285828 -8.48634e-19 0)
(0.0232211 0.372463 -6.11535e-17 0.293535 2.49503e-19 7.29041e-35)
(0.0100086 0.304535 -1.16937e-16 0.308896 1.52801e-17 8.01491e-34)
(-0.00180204 0.240683 1.41017e-17 0.320501 7.98015e-18 2.1751e-34)
(-0.0101639 0.183447 -4.20091e-17 0.333958 3.67847e-18 6.71828e-35)
(-0.0220356 0.125897 1.13052e-16 0.348549 -4.80289e-18 -2.98624e-34)
(1.68794 2.31455 1.73057e-17 -2.16149 -4.76304e-18 2.26148e-35)
(-0.425789 0.453522 -1.75421e-17 0.850294 2.53858e-18 -1.75105e-35)
(0.436578 1.0003 -4.9435e-17 0.114606 1.40626e-17 -1.6017e-34)
(-0.0456411 0.535828 1.08309e-16 0.164598 -2.47926e-17 3.16263e-34)
(0.0382905 0.547645 -1.00623e-16 0.314667 2.33012e-17 -2.65546e-34)
(-0.0344365 0.402693 8.51702e-17 0.272157 -1.25516e-17 3.96403e-34)
(-0.0370751 0.337279 6.45487e-17 0.303782 -3.2791e-17 -6.984e-34)
(-0.0501404 0.262069 -1.21991e-16 0.303178 2.40525e-18 8.78502e-34)
(-0.0549979 0.200251 -6.66358e-18 0.309937 1.03314e-17 -2.71696e-34)
(-0.0588217 0.142775 -1.03395e-18 0.313688 2.96757e-18 -4.21817e-35)
(-0.0606023 0.0910819 8.9264e-18 0.319594 1.20775e-17 7.61926e-35)
(-0.065574 0.0381851 5.10832e-17 0.326816 -5.43692e-18 2.98624e-34)
(1.33115 2.75121 3.12873e-18 -1.67736 4.71126e-18 0)
(-0.424324 0.136552 1.13551e-17 0.730929 -4.80106e-18 3.4195e-35)
(0.272652 0.92384 4.2187e-17 0.126452 -2.2126e-18 5.04799e-35)
(-0.0822744 0.419213 -8.38311e-17 0.167913 1.74015e-17 -3.22746e-34)
(-0.02669 0.416817 8.182e-17 0.282684 -8.52095e-18 2.31398e-34)
(-0.0718649 0.2863 -3.5301e-17 0.244844 1.40639e-17 -1.33249e-34)
(-0.0717524 0.223374 -5.25153e-17 0.266315 -1.43712e-18 -1.77116e-34)
(-0.0770726 0.156286 5.36114e-17 0.262116 -6.56422e-18 -2.21489e-34)
(-0.0772524 0.100883 5.2368e-17 0.263907 1.05042e-17 -3.25203e-34)
(-0.0767562 0.0500122 4.41472e-17 0.263468 1.56623e-18 -2.6037e-35)
(-0.0752145 0.00405499 1.58239e-16 0.265003 -9.50216e-18 -5.72945e-35)
(-0.076193 -0.0439259 -8.04075e-17 0.267717 2.06938e-18 7.58161e-35)
(0.853088 3.07453 4.51568e-18 -1.06618 -2.90713e-19 0)
(-0.305507 -0.108706 -3.25432e-17 0.488843 9.1622e-18 -3.30765e-35)
(0.146668 0.860168 -3.34117e-17 0.0934987 1.52758e-18 -3.08992e-35)
(-0.0704128 0.327204 3.75783e-17 0.121227 -4.07103e-18 3.8779e-36)
(-0.0393845 0.313736 -3.98178e-17 0.194037 6.80904e-18 -1.38301e-35)
(-0.063486 0.194952 6.83819e-18 0.168781 -3.69385e-18 0)
(-0.0626017 0.134165 -3.56933e-17 0.181721 1.15046e-17 -1.50596e-34)
(-0.0640584 0.0736397 1.74112e-17 0.177974 1.08213e-17 8.01436e-35)
(-0.062747 0.0234735 -1.66452e-17 0.177955 7.37057e-18 -2.17329e-34)
(-0.0611045 -0.0220387 -1.09342e-17 0.176496 8.45469e-18 -3.28926e-34)
(-0.0590426 -0.0633599 -1.59598e-17 0.176403 -1.1356e-17 1.49948e-34)
(-0.0585289 -0.107336 3.58561e-17 0.177075 -1.45727e-17 2.78053e-34)
(0.294792 3.24638 4.5254e-19 -0.371232 -5.09481e-18 0)
(-0.108103 -0.241543 6.6368e-18 0.164917 -2.80485e-18 -1.51442e-35)
(0.0465693 0.824506 -5.61779e-18 0.0304986 6.24106e-18 -1.29096e-35)
(-0.0260064 0.276991 -4.16671e-19 0.0410656 5.28008e-19 3.69604e-36)
(-0.0168672 0.257348 2.30533e-17 0.0675027 -4.3196e-18 7.90546e-36)
(-0.0242884 0.144996 -6.45032e-18 0.0600856 2.62105e-19 2.15654e-36)
(-0.0239264 0.0853109 1.21684e-17 0.0655683 2.43016e-18 7.27793e-36)
(-0.0241284 0.0283583 -1.84265e-17 0.0649793 2.96265e-18 -8.62463e-35)
(-0.0234851 -0.0189008 1.37783e-17 0.0652897 -4.27361e-19 -4.39062e-35)
(-0.0228468 -0.0614406 -1.48091e-17 0.0649576 1.10022e-18 -1.08329e-34)
(-0.0221468 -0.100221 -1.25019e-17 0.0650823 -1.14479e-19 -1.25103e-34)
(-0.0218146 -0.142002 9.18567e-18 0.0653618 -6.10953e-18 2.63659e-35)
(-0.291352 3.24629 3.2522e-18 0.352795 3.12155e-18 6.00637e-36)
(0.116635 -0.240008 1.50679e-17 -0.187411 6.15633e-18 -2.65244e-36)
(-0.0444464 0.825092 4.67361e-18 -0.0429576 2.5178e-18 1.45115e-35)
(0.0296702 0.277844 -6.13161e-18 -0.0506855 3.24579e-19 -1.89928e-35)
(0.0179276 0.257896 9.10705e-20 -0.0722168 -3.21288e-18 3.26711e-35)
(0.025679 0.145282 5.62565e-18 -0.0600209 -1.0603e-18 6.78161e-36)
(0.0251247 0.0853081 -7.24074e-18 -0.0616878 -4.9264e-18 1.25638e-35)
(0.0252878 0.02817 -3.27888e-18 -0.0582063 -8.31636e-18 5.29054e-35)
(0.0244957 -0.0191428 -9.71331e-18 -0.0568107 -2.68478e-18 8.34295e-35)
(0.0233655 -0.0617231 -9.25395e-18 -0.0552535 4.16877e-18 6.23557e-35)
(0.0220549 -0.100596 1.98135e-18 -0.0542776 7.46218e-18 9.05884e-36)
(0.0216399 -0.142471 -5.48781e-18 -0.0538373 -2.35571e-19 -1.99057e-36)
(-0.849021 3.07443 1.19824e-17 1.04726 -1.93945e-18 -1.65608e-35)
(0.313118 -0.104272 -3.88573e-17 -0.510338 -8.51595e-18 1.79558e-34)
(-0.144833 0.861873 -2.9257e-17 -0.105592 1.80816e-18 3.30925e-35)
(0.0734924 0.329666 -2.14404e-17 -0.130274 6.60695e-18 -8.25249e-35)
(0.0400175 0.315309 1.57055e-17 -0.198343 2.461e-18 2.62764e-35)
(0.064591 0.195776 2.74329e-18 -0.168516 -1.12364e-17 0)
(0.0636926 0.134158 -4.78096e-17 -0.177857 -1.16062e-17 1.99907e-35)
(0.0652037 0.0730931 1.4225e-17 -0.171343 -4.07583e-18 -6.337e-35)
(0.0637342 0.0227589 4.39358e-17 -0.169625 -1.9942e-18 -2.46172e-34)
(0.0615896 -0.0228827 3.5245e-17 -0.166937 5.41606e-18 -5.10579e-35)
(0.0589638 -0.0644757 -1.28772e-17 -0.165798 -6.30065e-19 2.89824e-35)
(0.058441 -0.108722 -3.6867e-17 -0.165837 5.77785e-18 7.57779e-35)
(-1.32597 2.7516 -1.48666e-17 1.6576 -1.14863e-17 6.05195e-35)
(0.430239 0.143408 5.26449e-17 -0.750567 9.47365e-18 -2.68365e-34)
(-0.271335 0.926518 2.7594e-17 -0.137857 7.09646e-19 1.77287e-35)
(0.0842598 0.422997 -2.32569e-17 -0.175875 -5.35978e-18 1.31467e-34)
(0.0265193 0.419205 -7.56213e-17 -0.286204 -5.32768e-19 8.10294e-35)
(0.0724202 0.287547 -9.0491e-18 -0.244178 1.00154e-18 -1.33479e-34)
(0.0726212 0.223354 7.61229e-17 -0.262455 7.14679e-18 1.04322e-34)
(0.0781708 0.155423 -1.47221e-17 -0.255731 -2.03689e-18 1.09289e-34)
(0.0781834 0.0997213 4.4336e-17 -0.255851 9.52432e-19 6.85131e-34)
(0.0771755 0.0486133 4.54712e-17 -0.254189 -9.04746e-18 4.96554e-34)
(0.0751616 0.00222477 -2.01988e-17 -0.254788 -1.49474e-17 3.78259e-34)
(0.0762693 -0.0461596 7.55335e-17 -0.257033 9.75079e-18 -3.7347e-34)
(-1.68144 2.31615 5.20132e-19 2.14078 2.16646e-18 0)
(0.4295 0.462102 1.21805e-19 -0.867476 -3.50412e-18 0)
(-0.4359 1.00374 -5.16874e-17 -0.125075 -1.69346e-17 3.70994e-34)
(0.0461776 0.54049 1.03904e-16 -0.171082 1.92661e-17 -1.73855e-34)
(-0.0395269 0.550504 -7.34184e-20 -0.317096 7.60056e-18 1.46459e-34)
(0.0342371 0.404161 -9.16283e-18 -0.270911 1.62133e-17 1.35065e-34)
(0.0376113 0.337202 -9.34998e-17 -0.299885 -6.04296e-18 -7.64162e-34)
(0.0511381 0.260924 2.88046e-17 -0.297096 1.72498e-17 4.24925e-34)
(0.0558323 0.198659 -8.63617e-18 -0.302249 6.87213e-18 1.05028e-34)
(0.0591515 0.140823 7.64834e-18 -0.304812 -1.78821e-17 1.02373e-35)
(0.0605897 0.0885763 -4.91961e-18 -0.309941 -1.05373e-17 2.18806e-34)
(0.0658724 0.0352095 1.14143e-16 -0.316917 -1.55573e-17 4.69311e-34)
(-1.89177 1.81834 3.47441e-18 2.47099 -5.42349e-18 0)
(0.291231 0.798493 -1.55325e-17 -0.839366 -1.28646e-17 2.13676e-34)
(-0.643325 1.07371 5.39748e-17 -0.0598443 2.48364e-17 -2.21566e-34)
(-0.0484977 0.659605 -8.51055e-17 -0.107574 -1.55058e-17 -8.33505e-36)
(-0.166248 0.684395 1.00251e-16 -0.281226 1.96267e-17 -8.09164e-35)
(-0.05728 0.524224 -3.82703e-17 -0.240273 -6.92808e-19 -5.66188e-35)
(-0.0483795 0.455247 1.50207e-17 -0.281859 1.34339e-17 0)
(-0.0223696 0.371028 -6.09388e-17 -0.287789 6.93296e-18 1.60511e-34)
(-0.00929605 0.302504 -1.22269e-16 -0.301662 -7.17255e-18 -1.1935e-33)
(0.00204198 0.238169 -1.04689e-16 -0.312153 1.53418e-18 -1.18065e-33)
(0.0102096 0.180316 4.14978e-17 -0.325025 1.80112e-17 4.35864e-34)
(0.0225847 0.122315 -1.91045e-16 -0.339618 -1.83265e-17 -4.69311e-34)
(-1.95353 1.31293 3.27343e-18 2.64273 -5.95256e-18 0)
(0.017916 1.09507 2.5959e-17 -0.666831 5.94544e-18 -1.66501e-34)
(-0.890021 1.11524 2.8036e-17 0.0566882 2.52599e-18 -2.4474e-34)
(-0.198051 0.756128 1.69244e-18 0.0134773 8.3937e-18 0)
(-0.351396 0.794199 -4.77743e-17 -0.179279 -1.07748e-17 5.09442e-35)
(-0.200509 0.62471 5.40209e-17 -0.15284 7.75253e-18 -4.19235e-35)
(-0.183856 0.55545 -6.89222e-17 -0.208704 -1.72598e-17 6.41007e-34)
(-0.141087 0.465713 1.25697e-16 -0.227971 2.62893e-17 -6.95851e-34)
(-0.116077 0.392843 6.03975e-17 -0.254107 1.13742e-17 4.03312e-34)
(-0.0931603 0.323842 -4.09399e-17 -0.2761 -2.30935e-18 -4.80726e-35)
(-0.0751073 0.262041 9.40718e-18 -0.299789 3.31716e-18 0)
(-0.0528576 0.201026 8.72383e-18 -0.324741 1.88504e-17 0)
(-1.88351 0.851236 8.28589e-19 2.67092 -2.46042e-18 0)
(-0.365859 1.29897 -2.81928e-17 -0.372727 -1.908e-17 4.113e-35)
(-1.16408 1.10913 5.3266e-17 0.214847 1.46517e-17 1.62538e-34)
(-0.391353 0.807957 3.81668e-18 0.181435 -4.60395e-19 0)
(-0.582398 0.855538 4.9841e-17 -0.0224008 1.18212e-17 -1.4793e-34)
(-0.384926 0.684549 -3.36864e-17 -0.0181756 -1.0155e-17 1.21687e-34)
(-0.358818 0.617614 5.08557e-17 -0.0893488 1.99477e-17 3.87397e-34)
(-0.296037 0.526606 3.988e-17 -0.125608 6.18336e-18 1.52865e-33)
(-0.256308 0.452769 -9.63607e-17 -0.166771 -2.74519e-17 -7.21857e-34)
(-0.219017 0.382391 6.89307e-17 -0.203075 3.6437e-18 6.22691e-34)
(-0.188599 0.319578 4.63454e-18 -0.239963 1.18288e-17 0)
(-0.15433 0.258315 -2.45978e-18 -0.277372 1.25062e-17 0)
(-1.71571 0.473745 -1.50641e-18 2.58786 -6.88244e-19 0)
(-0.816852 1.37018 6.06074e-18 0.00123865 8.91747e-18 1.52337e-34)
(-1.44666 1.04138 -3.82185e-17 0.397765 -2.31479e-17 -1.83142e-34)
(-0.609358 0.798587 -1.18681e-17 0.377691 -1.22844e-17 1.84361e-34)
(-0.838007 0.850173 -3.25065e-18 0.169435 -4.05047e-18 1.01093e-34)
(-0.592512 0.687928 3.22414e-17 0.146556 1.97914e-17 -1.16701e-34)
(-0.556105 0.626537 -2.6375e-17 0.0600001 5.41206e-18 0)
(-0.471741 0.539846 -4.46713e-17 0.00472263 -3.96468e-18 -9.5584e-34)
(-0.415822 0.469499 -7.8265e-17 -0.0529114 -9.53474e-18 5.49082e-34)
(-0.362657 0.402119 1.37819e-17 -0.105044 -2.34654e-18 1.1924e-34)
(-0.318537 0.342167 -3.60759e-17 -0.156357 3.37547e-18 6.75329e-34)
(-0.271163 0.284264 9.97016e-17 -0.207254 1.61941e-17 3.55121e-34)
(-1.49579 0.204471 -6.30023e-19 2.43777 6.76631e-18 5.13789e-35)
(-1.27948 1.28777 -4.1412e-18 0.400806 -7.63308e-18 -3.97485e-35)
(-1.71442 0.905499 -3.13441e-17 0.583823 -1.02848e-17 -1.80064e-34)
(-0.82782 0.719768 6.89827e-17 0.578372 2.12561e-17 -1.46325e-34)
(-1.0913 0.768933 -6.97686e-17 0.370396 -2.06132e-17 2.64071e-34)
(-0.80033 0.626813 5.86271e-17 0.319153 9.2054e-18 -2.78632e-34)
(-0.753846 0.574426 7.0734e-17 0.218293 2.69592e-17 7.25232e-35)
(-0.648439 0.498269 -5.30793e-17 0.144041 9.28114e-19 2.16942e-34)
(-0.576522 0.436392 1.99423e-17 0.070156 -3.41616e-19 1.83821e-34)
(-0.507629 0.376906 1.41698e-18 0.00232379 4.06911e-18 7.83535e-35)
(-0.449918 0.324139 -1.55239e-17 -0.0631794 -4.96839e-18 -3.03239e-34)
(-0.389682 0.273589 1.44986e-17 -0.12726 -1.20635e-17 -3.55121e-34)
(-1.27375 0.0478712 -5.09106e-18 2.26946 -3.12561e-18 0)
(-1.69408 1.05324 1.60314e-18 0.767374 5.50551e-18 5.20621e-35)
(-1.94278 0.703841 2.26291e-17 0.749836 4.43325e-18 3.30894e-35)
(-1.02083 0.57293 -4.66412e-17 0.757876 -1.94034e-17 4.95043e-35)
(-1.31356 0.613276 5.02956e-17 0.552664 9.77385e-18 -8.7294e-35)
(-0.983861 0.502294 -3.26191e-17 0.4757 -1.58471e-17 9.69402e-35)
(-0.928645 0.462188 -6.84048e-18 0.362812 -6.91769e-18 2.65131e-34)
(-0.804975 0.402589 7.19221e-17 0.271831 7.75521e-18 -5.96378e-34)
(-0.719028 0.354021 5.34476e-17 0.183697 -8.86946e-18 -8.5922e-34)
(-0.636312 0.307197 3.76876e-17 0.102053 -1.83471e-18 -7.39712e-34)
(-0.566664 0.265811 1.31083e-16 0.0241459 7.26276e-18 6.10726e-35)
(-0.495223 0.226467 -6.90423e-17 -0.0513954 -4.60828e-18 -4.2399e-34)
(-1.09606 -0.0112054 -5.20082e-18 2.12845 2.43658e-18 0)
(-2.00575 0.690521 -6.12562e-18 1.04688 -7.09741e-18 -9.9416e-35)
(-2.10937 0.447527 -1.355e-17 0.874489 -6.10653e-18 -1.83714e-35)
(-1.16464 0.36914 1.82196e-17 0.892677 6.97099e-18 -7.82474e-36)
(-1.47848 0.395255 -2.50398e-17 0.690622 -7.86266e-18 6.71175e-36)
(-1.12061 0.324565 6.37667e-18 0.59417 3.23075e-18 0)
(-1.05903 0.299416 -2.73322e-17 0.472603 -9.2336e-18 1.47595e-34)
(-0.921921 0.261383 1.0597e-17 0.369158 -1.36567e-17 -5.19502e-35)
(-0.82554 0.230164 -1.8853e-17 0.270408 -1.13799e-17 5.68621e-35)
(-0.732524 0.199991 -1.64161e-17 0.178456 -1.44818e-17 1.03043e-34)
(-0.654004 0.173479 -1.2901e-17 0.0913523 6.41498e-19 5.85954e-35)
(-0.574302 0.148538 3.40602e-17 0.00736485 1.53078e-17 -1.69555e-34)
(-0.998347 -0.00454708 -1.70559e-18 2.04978 5.49464e-18 0)
(-2.17263 0.242482 1.19693e-18 1.19801 2.88877e-18 2.47835e-35)
(-2.1972 0.155103 1.6807e-19 0.941516 -3.80076e-19 6.65892e-36)
(-1.24115 0.127616 5.52918e-18 0.964847 -2.16114e-18 -2.87052e-36)
(-1.56606 0.135884 1.2152e-17 0.764718 4.46652e-18 -5.62998e-36)
(-1.19346 0.111518 -3.29671e-18 0.657743 -1.31384e-19 4.41346e-36)
(-1.12863 0.103053 9.22369e-18 0.531648 -1.45435e-18 -1.33406e-35)
(-0.984455 0.0898843 -2.14242e-17 0.421535 -3.80212e-18 6.3046e-35)
(-0.882481 0.0787017 -1.18225e-18 0.317051 -1.12398e-18 1.49586e-35)
(-0.783921 0.0678351 -2.3401e-17 0.219529 -3.52873e-18 3.35819e-35)
(-0.70067 0.0585091 -2.05859e-17 0.127517 -3.84718e-18 6.80253e-35)
(-0.616628 0.0500691 3.75788e-18 0.039077 -3.91087e-18 -2.54386e-35)
(-0.999856 0.0249578 -9.74852e-19 2.05233 3.17651e-18 2.86606e-36)
(-2.17215 -0.235343 2.14659e-18 1.19846 -4.88052e-18 4.07573e-35)
(-2.19712 -0.149942 4.89349e-18 0.942132 -4.42736e-18 1.52418e-37)
(-1.24065 -0.126999 -1.87683e-19 0.964733 -2.26313e-18 -3.46573e-36)
(-1.56552 -0.13785 4.75199e-18 0.764411 8.3902e-19 -1.54398e-35)
(-1.19317 -0.11382 3.99956e-18 0.657349 5.31631e-19 -5.83408e-36)
(-1.12861 -0.10505 -6.42835e-18 0.531291 2.43058e-18 1.80285e-35)
(-0.984568 -0.0922216 -8.89754e-18 0.421127 8.58961e-18 7.62946e-35)
(-0.882518 -0.0824083 -1.61916e-17 0.316469 4.59658e-18 5.0518e-35)
(-0.783843 -0.0730172 -1.34462e-17 0.218788 -1.29052e-18 -7.32989e-36)
(-0.700581 -0.0643524 -1.91727e-19 0.126738 -7.06763e-18 -2.67408e-35)
(-0.616638 -0.05558 -9.39125e-18 0.0383597 -4.99152e-18 -1.21196e-36)
(-1.10042 0.0305651 -1.07842e-18 2.13594 -1.91075e-18 1.00249e-35)
(-2.00441 -0.683008 -1.53982e-17 1.04832 9.89703e-18 -1.06974e-34)
(-2.10917 -0.442381 -1.49524e-17 0.87634 3.37504e-18 -9.06343e-35)
(-1.16322 -0.368178 -8.44313e-18 0.892411 -4.42685e-18 2.45788e-35)
(-1.47693 -0.396885 9.32624e-18 0.689769 -5.73737e-18 2.58115e-36)
(-1.11978 -0.326633 -5.20066e-19 0.593033 7.73208e-18 0)
(-1.05898 -0.301324 -2.33244e-17 0.471551 1.37323e-17 2.09519e-34)
(-0.922254 -0.263689 1.79914e-17 0.36794 4.44947e-18 -9.14077e-35)
(-0.825654 -0.233781 2.81327e-17 0.268678 4.49581e-18 -1.13308e-34)
(-0.732302 -0.205017 2.69866e-17 0.176259 -1.01919e-18 2.37474e-34)
(-0.653746 -0.179174 -1.25293e-17 0.0890377 4.77134e-18 7.71959e-35)
(-0.574327 -0.153964 -3.25439e-17 0.0052229 9.13822e-18 -1.7308e-34)
(-1.28049 -0.0304878 -3.94956e-18 2.28135 3.60088e-18 7.55023e-37)
(-1.69219 -1.04506 1.15279e-17 0.770055 -1.0875e-17 8.66538e-35)
(-1.9425 -0.698735 3.67852e-18 0.752938 -3.48858e-18 7.02241e-35)
(-1.01872 -0.571338 -1.75273e-17 0.757666 1.13334e-17 7.87858e-36)
(-1.31119 -0.61429 -3.22709e-17 0.551452 5.32149e-18 2.31251e-35)
(-0.982611 -0.503928 1.18637e-17 0.473954 2.83029e-19 -2.49578e-35)
(-0.928601 -0.463926 6.73859e-17 0.361116 -9.98815e-18 -4.8935e-34)
(-0.805517 -0.404833 6.04145e-18 0.26982 2.59706e-19 -8.23276e-36)
(-0.71923 -0.357464 5.32464e-17 0.180863 -4.98033e-18 -5.36768e-34)
(-0.635986 -0.311924 4.23334e-17 0.0984761 5.02246e-18 -3.55565e-34)
(-0.566266 -0.271217 -2.56971e-17 0.0203623 1.6138e-17 1.81033e-34)
(-0.495255 -0.231721 6.24229e-17 -0.0549312 8.81948e-18 -4.76648e-34)
(-1.50419 -0.189755 8.2369e-19 2.45327 -1.06508e-18 0)
(-1.27751 -1.27878 -2.94959e-18 0.405111 -9.89998e-19 0)
(-1.71412 -0.90048 -3.99976e-17 0.58819 1.83529e-17 -1.48557e-34)
(-0.825362 -0.717374 5.97984e-17 0.578532 -2.18783e-17 3.48204e-36)
(-1.08842 -0.769147 -8.43182e-18 0.369107 8.99034e-19 1.25026e-34)
(-0.798855 -0.627878 2.16962e-17 0.316998 -1.19843e-17 -3.20701e-34)
(-0.753855 -0.575935 -4.97533e-17 0.216033 3.51686e-18 3.93112e-34)
(-0.649172 -0.500417 4.79282e-17 0.141263 -2.29571e-17 -8.6254e-35)
(-0.576827 -0.439588 1.64309e-17 0.0662889 -1.93824e-17 6.43985e-34)
(-0.507256 -0.381213 8.53138e-18 -0.0025161 -2.27852e-19 7.04357e-35)
(-0.449425 -0.329135 1.37278e-17 -0.0683269 -5.76311e-18 2.6383e-34)
(-0.38971 -0.278585 1.08303e-16 -0.132138 -3.11598e-17 -4.1976e-35)
(-1.72493 -0.462081 -1.68576e-18 2.60599 1.52977e-18 0)
(-0.815316 -1.36043 -2.42985e-17 0.00759554 1.3804e-17 -4.01209e-35)
(-1.44644 -1.03652 3.23476e-17 0.403404 -1.04045e-17 1.79522e-34)
(-0.606961 -0.795367 -4.78456e-17 0.378581 1.8612e-17 1.06467e-34)
(-0.834977 -0.849531 6.5834e-17 0.168398 -2.39422e-17 3.75803e-34)
(-0.591036 -0.688373 -4.55698e-17 0.144227 2.78781e-18 -1.68797e-34)
(-0.556224 -0.627784 -2.86092e-18 0.057272 -1.29261e-17 0)
(-0.472641 -0.541866 -6.73901e-17 0.00121964 -3.82004e-18 -6.30086e-34)
(-0.416247 -0.472387 -9.37215e-17 -0.0577193 8.84916e-18 -7.99784e-34)
(-0.362307 -0.405918 -9.17928e-17 -0.110997 -7.23454e-18 2.83684e-34)
(-0.318 -0.346655 3.6803e-17 -0.162732 -2.62185e-17 3.87426e-34)
(-0.271171 -0.288916 -1.84372e-16 -0.2134 -2.88305e-18 4.1976e-35)
(-1.89269 -0.84267 2.59942e-18 2.69067 4.68661e-18 0)
(-0.3653 -1.28873 1.92558e-17 -0.363923 -6.39528e-18 -9.35923e-35)
(-1.16404 -1.10454 9.28481e-18 0.221744 -5.1372e-19 8.29504e-35)
(-0.389425 -0.80405 -2.50968e-18 0.183403 -2.43416e-18 0)
(-0.579572 -0.854121 -4.66687e-17 -0.0228634 1.10084e-17 -1.17889e-34)
(-0.38367 -0.684415 2.77542e-17 -0.020443 -8.9531e-18 9.71271e-35)
(-0.359098 -0.618596 -8.45523e-17 -0.0924419 2.16914e-17 -3.75912e-34)
(-0.297075 -0.528465 1.15616e-16 -0.129787 -1.83782e-17 9.44656e-34)
(-0.256866 -0.455305 4.28777e-17 -0.172412 -7.37122e-18 6.92882e-34)
(-0.218756 -0.385629 -4.82853e-17 -0.209974 1.31376e-17 -3.14679e-34)
(-0.188069 -0.323487 3.05716e-19 -0.24741 7.98637e-18 0)
(-0.154302 -0.262536 3.43929e-18 -0.284693 1.42287e-17 0)
(-1.96192 -1.30719 4.93549e-18 2.66319 3.6788e-18 0)
(0.0170529 -1.08479 -1.60535e-17 -0.655298 2.15461e-17 2.76098e-34)
(-0.890227 -1.11105 6.94601e-17 0.0647938 -2.40465e-17 -7.86968e-34)
(-0.196933 -0.751818 -1.08031e-17 0.0167934 -6.22045e-18 0)
(-0.34908 -0.792219 3.93867e-17 -0.178907 -1.11721e-17 7.20123e-35)
(-0.199657 -0.624122 -4.1517e-17 -0.154845 1.10893e-17 -5.91428e-35)
(-0.184333 -0.55619 8.61024e-17 -0.212067 -1.26008e-17 3.16486e-36)
(-0.142228 -0.467377 7.90363e-17 -0.232767 -7.8918e-18 2.39222e-35)
(-0.11677 -0.394998 -1.29093e-16 -0.260468 2.26768e-17 4.16211e-34)
(-0.0930387 -0.326497 4.12519e-17 -0.283773 2.19625e-18 3.46084e-36)
(-0.0746249 -0.265326 -9.87942e-18 -0.308142 -1.74303e-18 0)
(-0.0527772 -0.204729 -5.776e-18 -0.333122 1.20077e-17 0)
(-1.89885 -1.81491 1.24221e-18 2.49141 2.59082e-18 0)
(0.288662 -0.788786 3.86556e-17 -0.82501 -6.42724e-18 -1.83442e-34)
(-0.643825 -1.07007 -3.56923e-17 -0.0506252 6.93593e-18 6.59594e-34)
(-0.0484117 -0.655285 -3.31577e-17 -0.102771 1.06096e-17 -1.11881e-35)
(-0.164645 -0.682155 -1.60489e-18 -0.279865 -3.12378e-18 -5.71875e-35)
(-0.0569465 -0.523367 2.50115e-17 -0.241886 -1.79335e-17 -6.04294e-35)
(-0.0490648 -0.455783 3.15635e-18 -0.285417 -8.50423e-19 0)
(-0.0235762 -0.372459 -6.11747e-17 -0.293137 2.41723e-19 -7.27504e-35)
(-0.0101136 -0.304256 -1.16978e-16 -0.308627 1.52777e-17 -8.01519e-34)
(0.00199627 -0.240242 1.41006e-17 -0.320438 7.97975e-18 -2.17447e-34)
(0.0106193 -0.182948 -4.20175e-17 -0.334117 3.68255e-18 -6.7159e-35)
(0.02273 -0.125414 1.13047e-16 -0.348922 -4.80352e-18 2.98678e-34)
(-1.68696 -2.31437 1.73006e-17 2.16068 -4.7608e-18 -2.26027e-35)
(0.42516 -0.453637 -1.75352e-17 -0.850438 2.54171e-18 1.75001e-35)
(-0.4367 -1.0008 -4.94239e-17 -0.114896 1.40466e-17 1.60243e-34)
(0.0451704 -0.536604 1.083e-16 -0.164822 -2.477e-17 -3.16083e-34)
(-0.0387096 -0.548351 -1.00628e-16 -0.314733 2.32803e-17 2.65525e-34)
(0.0340244 -0.403248 8.51799e-17 -0.272085 -1.25389e-17 -3.96271e-34)
(0.0367345 -0.337576 6.45742e-17 -0.303585 -3.27732e-17 6.98327e-34)
(0.0499027 -0.262076 -1.22015e-16 -0.302921 2.39404e-18 -8.784e-34)
(0.054911 -0.199989 -6.66349e-18 -0.309703 1.03276e-17 2.71693e-34)
(0.0589361 -0.142326 -1.03344e-18 -0.313555 2.96509e-18 4.21829e-35)
(0.0609167 -0.0905359 8.92743e-18 -0.319605 1.20754e-17 -7.62097e-35)
(0.0660846 -0.0376135 5.10867e-17 -0.32698 -5.44026e-18 -2.98678e-34)
(-1.33003 -2.75077 3.12526e-18 1.6768 4.71033e-18 0)
(0.424305 -0.136843 1.13487e-17 -0.731251 -4.79814e-18 -3.42193e-35)
(-0.272392 -0.92441 4.21797e-17 -0.12693 -2.20649e-18 -5.04959e-35)
(0.0822686 -0.419972 -8.38317e-17 -0.168361 1.73864e-17 3.2261e-34)
(0.0266147 -0.417471 8.18258e-17 -0.282963 -8.50678e-18 -2.31358e-34)
(0.07172 -0.286774 -3.53082e-17 -0.244957 1.40596e-17 1.3312e-34)
(0.0715905 -0.223596 -5.25267e-17 -0.266263 -1.44128e-18 1.77076e-34)
(0.0769317 -0.156244 5.36314e-17 -0.261941 -6.55673e-18 2.21433e-34)
(0.0771808 -0.100603 5.23861e-17 -0.263673 1.05084e-17 3.25178e-34)
(0.0768052 -0.0495563 4.4161e-17 -0.263247 1.56768e-18 2.60099e-35)
(0.0754037 -0.00349434 1.58263e-16 -0.264851 -9.49999e-18 5.73103e-35)
(0.076531 0.0445346 -8.04163e-17 -0.267657 2.06863e-18 -7.58347e-35)
(-0.851961 -3.07398 4.51354e-18 1.06585 -2.8802e-19 0)
(0.306008 0.108391 -3.25341e-17 -0.48939 9.1605e-18 3.31131e-35)
(-0.146057 -0.860694 -3.34081e-17 -0.0941831 1.52309e-18 3.09174e-35)
(0.0707789 -0.327837 3.75773e-17 -0.121865 -4.06532e-18 -3.89598e-36)
(0.0395728 -0.314256 -3.98206e-17 -0.194469 6.80281e-18 1.38489e-35)
(0.0635305 -0.195292 6.83692e-18 -0.169007 -3.69102e-18 0)
(0.062551 -0.134278 -3.57035e-17 -0.181742 1.14968e-17 1.50647e-34)
(0.0639611 -0.0735273 1.74137e-17 -0.17782 1.08234e-17 -8.0162e-35)
(0.0626595 -0.023166 -1.66505e-17 -0.177677 7.36996e-18 2.17337e-34)
(0.0610816 0.0224931 -1.09368e-17 -0.176163 8.45551e-18 3.28929e-34)
(0.0591146 0.0639098 -1.596e-17 -0.176077 -1.13551e-17 -1.49982e-34)
(0.0587091 0.107942 3.58606e-17 -0.176783 -1.45714e-17 -2.78055e-34)
(-0.293738 -3.24585 4.52193e-19 0.371054 -5.09335e-18 0)
(0.108957 0.241342 6.63557e-18 -0.165666 -2.80239e-18 1.51269e-35)
(-0.0457185 -0.824875 -5.61792e-18 -0.0313614 6.23979e-18 1.29138e-35)
(0.0266035 -0.277413 -4.18863e-19 -0.0418383 5.27779e-19 -3.70294e-36)
(0.0172021 -0.257684 2.30547e-17 -0.0680273 -4.31463e-18 -7.91331e-36)
(0.0244241 -0.145179 -6.45065e-18 -0.0603657 2.62052e-19 -2.15381e-36)
(0.0239053 -0.0853104 1.21716e-17 -0.0656107 2.43358e-18 -7.29123e-36)
(0.024008 -0.0281818 -1.84334e-17 -0.0648024 2.95703e-18 8.62754e-35)
(0.0233337 0.0192233 1.37787e-17 -0.064935 -4.27463e-19 4.39005e-35)
(0.0227258 0.061873 -1.48143e-17 -0.0644904 1.09686e-18 1.08356e-34)
(0.0220944 0.10073 -1.2505e-17 -0.0645701 -1.17079e-19 1.25121e-34)
(0.0218462 0.142566 9.186e-18 -0.0648341 -6.11052e-18 -2.63731e-35)
(0.29231 -3.24584 3.25157e-18 -0.352937 3.12245e-18 -6.00828e-36)
(-0.115629 0.240015 1.50683e-17 0.186525 6.15964e-18 2.64272e-36)
(0.0453764 -0.825221 4.67412e-18 0.0419862 2.52069e-18 -1.45205e-35)
(-0.0290098 -0.278002 -6.13459e-18 0.0498579 3.23239e-19 1.90024e-35)
(-0.0175804 -0.258029 8.82092e-20 0.0716649 -3.21215e-18 -3.26896e-35)
(-0.025559 -0.145309 5.62599e-18 0.0597383 -1.05783e-18 -6.78656e-36)
(-0.0252036 -0.0852101 -7.24336e-18 0.0616608 -4.92943e-18 -1.25524e-35)