/*--------------------------------*- C++ -*----------------------------------*\
| =========                 |                                                 |
| \\      /  F ield         | foam-extend: Open Source CFD                    |
|  \\    /   O peration     | Version:  3.0                                   |
|   \\  /    A nd           | Web:         http://www.extend-project.de       |
|    \\/     M anipulation  |                                                 |
\*---------------------------------------------------------------------------*/
FoamFile
{
    version     2.0;
    format      ascii;
    class       volScalarField;
    location    "1.6";
    object      p;
}
// * * * * * * * * * * * * * * * * * * * * * * * * * * * * * * * * * * * * * //

dimensions      [0 0 0 0 0 0 0];

internalField   nonuniform List<scalar> 
400
(
0.972931
0.942209
0.940191
0.924816
0.940113
0.933181
0.958105
0.955347
0.985033
0.984068
1.0152
1.01439
1.0441
1.0417
1.06657
1.0599
1.07492
1.05942
1.05671
1.02558
0.995232
0.962468
0.963516
0.948686
0.963652
0.954443
0.9756
0.968079
0.991952
0.984943
1.00954
1.00256
1.02623
1.01877
1.03959
1.03038
1.04498
1.03001
1.03073
0.997595
0.985023
0.949713
0.950201
0.93434
0.951064
0.942911
0.967064
0.96194
0.989365
0.985398
1.0138
1.01001
1.03756
1.03285
1.0572
1.04937
1.06621
1.05021
1.05045
1.01439
0.980129
0.942236
0.943297
0.92721
0.944841
0.937146
0.96156
0.956823
0.983835
0.980089
1.00781
1.00428
1.03145
1.0272
1.05187
1.04454
1.06227
1.04585
1.04636
1.00726
0.964149
0.922542
0.925068
0.909285
0.930272
0.924887
0.953219
0.951759
0.982897
0.982892
1.015
1.01539
1.04734
1.04682
1.07658
1.07198
1.09434
1.07808
1.08056
1.03646
0.949575
0.904414
0.908419
0.893529
0.916524
0.913097
0.942477
0.942873
0.97415
0.975801
1.0077
1.00983
1.04193
1.04352
1.07446
1.0721
1.09671
1.0811
1.08483
1.03538
0.929822
0.879581
0.887618
0.874546
0.902279
0.902238
0.93555
0.939513
0.974197
0.979452
1.01489
1.02087
1.05739
1.06323
1.10014
1.102
1.13408
1.1203
1.12991
1.07207
0.911101
0.857117
0.868783
0.858523
0.888823
0.891862
0.925721
0.931936
0.965786
0.972753
1.00678
1.01457
1.04999
1.05845
1.09574
1.1013
1.13635
1.12545
1.13905
1.07351
0.887401
0.830303
0.848361
0.842177
0.877152
0.88435
0.920928
0.930529
0.966156
0.976122
1.01195
1.02302
1.0613
1.07401
1.11652
1.12767
1.17159
1.16554
1.18976
1.11553
0.867509
0.812654
0.835053
0.83414
0.870152
0.880784
0.916097
0.927449
0.960473
0.971311
1.00377
1.0157
1.0504
1.06501
1.10482
1.12009
1.16429
1.16432
1.19339
1.11661
0.838912
0.791536
0.82017
0.826017
0.86431
0.879209
0.914895
0.928861
0.961492
0.97422
1.00623
1.02025
1.0552
1.07319
1.11531
1.13657
1.18743
1.19649
1.23851
1.16472
0.816352
0.786869
0.817393
0.831003
0.867144
0.885036
0.91726
0.931868
0.96025
0.972538
0.999421
1.01277
1.04148
1.05963
1.09452
1.11882
1.16318
1.18166
1.22351
1.16758
0.77903
0.775024
0.809873
0.833031
0.868555
0.890406
0.920753
0.936864
0.962944
0.975756
1.00017
1.01406
1.04034
1.0603
1.09366
1.12343
1.16982
1.20213
1.25639
1.23004
0.750552
0.782459
0.817175
0.850007
0.881462
0.905374
0.931029
0.946453
0.967493
0.978556
0.997055
1.00873
1.02722
1.04522
1.06781
1.09835
1.13102
1.1749
1.21981
1.24143
0.707181
0.777492
0.816663
0.860964
0.890669
0.917819
0.940283
0.955906
0.973462
0.983705
0.998458
1.00915
1.0233
1.04122
1.05919
1.09383
1.12451
1.18622
1.2439
1.32472
0.682825
0.794265
0.835222
0.888251
0.914144
0.94146
0.959012
0.972503
0.985124
0.99264
1.00185
1.00925
1.01579
1.02978
1.03608
1.06815
1.08129
1.15229
1.19098
1.33971
0.658544
0.802481
0.847598
0.910218
0.933685
0.962164
0.975637
0.987766
0.996388
1.002
1.00709
1.01231
1.01371
1.02561
1.02533
1.0585
1.06627
1.15411
1.20388
1.4283
0.6775
0.839652
0.887824
0.95139
0.970305
0.995235
1.0036
1.01213
1.01651
1.01897
1.01984
1.02146
1.01698
1.0236
1.01345
1.03949
1.03014
1.11583
1.13608
1.4126
0.718415
0.880693
0.925771
0.99029
1.00387
1.02591
1.02921
1.03473
1.03522
1.03516
1.03243
1.03129
1.02205
1.02482
1.00727
1.0291
1.00993
1.1006
1.1158
1.45556
0.865766
0.965884
1.0023
1.05104
1.05552
1.06881
1.06685
1.06765
1.06523
1.06217
1.05732
1.05304
1.04101
1.03811
1.01502
1.0244
0.993465
1.05819
1.03949
1.33099
)
;

boundaryField
{
    cavity
    {
        type            implicitExtrapolation;
    }
    lid
    {
        type            implicitExtrapolation;
    }
    frontAndBack
    {
        type            empty;
    }
}


// ************************************************************************* //
