/*--------------------------------*- C++ -*----------------------------------*\
| =========                 |                                                 |
| \\      /  F ield         | foam-extend: Open Source CFD                    |
|  \\    /   O peration     | Version:  3.0                                   |
|   \\  /    A nd           | Web:         http://www.extend-project.de       |
|    \\/     M anipulation  |                                                 |
\*---------------------------------------------------------------------------*/
FoamFile
{
    version     2.0;
    format      ascii;
    class       volScalarField;
    location    "4.8";
    object      p;
}
// * * * * * * * * * * * * * * * * * * * * * * * * * * * * * * * * * * * * * //

dimensions      [0 0 0 0 0 0 0];

internalField   nonuniform List<scalar> 
400
(
1.11813
0.916704
0.904915
0.834441
0.88471
0.861785
0.933105
0.930249
1.00915
1.01399
1.09523
1.09956
1.17868
1.1735
1.24252
1.21428
1.25672
1.18043
1.15842
0.964276
1.33852
1.17362
1.14117
1.05392
1.07272
1.02118
1.05745
1.02154
1.06287
1.03194
1.07316
1.04015
1.07776
1.03609
1.06493
1.00575
1.01416
0.921954
0.880747
0.726032
1.22422
1.07426
1.0568
0.986
1.01795
0.98095
1.03033
1.00721
1.06282
1.04411
1.10235
1.0821
1.14038
1.11249
1.16454
1.11942
1.14948
1.06986
1.04421
0.900742
1.22299
1.0847
1.06471
0.999468
1.02428
0.988606
1.02623
1.00153
1.04205
1.02079
1.06261
1.04086
1.08395
1.0572
1.09785
1.05676
1.08016
1.005
0.974365
0.833758
1.13213
0.980128
0.979509
0.92461
0.968973
0.947619
1.00377
0.993468
1.05432
1.04738
1.11424
1.10733
1.18227
1.1709
1.25048
1.22285
1.28814
1.21474
1.21314
1.03084
1.09242
0.935109
0.939015
0.892423
0.934404
0.920141
0.966512
0.961122
1.00712
1.00482
1.05446
1.05432
1.11316
1.1126
1.1819
1.16848
1.23326
1.16749
1.16879
0.948485
1.0374
0.875356
0.893971
0.857609
0.911105
0.907663
0.965091
0.969452
1.02999
1.03682
1.10781
1.11718
1.20729
1.21749
1.33025
1.32731
1.44546
1.37815
1.42206
1.13728
0.980009
0.837256
0.857295
0.832869
0.878055
0.881236
0.923626
0.931999
0.97194
0.982642
1.02851
1.04428
1.10707
1.12909
1.21722
1.23272
1.33604
1.28538
1.32492
1.01231
0.935941
0.826838
0.851491
0.841843
0.884482
0.895639
0.937786
0.951011
0.996318
1.01005
1.06928
1.08764
1.17511
1.20129
1.32964
1.35227
1.51306
1.46664
1.56572
1.21246
0.856517
0.802444
0.826617
0.833183
0.863001
0.87918
0.90264
0.91702
0.937109
0.95103
0.977065
0.997455
1.04331
1.07742
1.15808
1.1998
1.3149
1.30072
1.37179
1.04862
0.810763
0.823051
0.84241
0.86885
0.885643
0.908912
0.923742
0.939614
0.957064
0.968704
0.999245
1.0152
1.07606
1.10666
1.21953
1.26416
1.43799
1.43929
1.5973
1.28738
0.713447
0.796609
0.822423
0.867247
0.874987
0.902299
0.900263
0.914663
0.906451
0.914029
0.907302
0.91921
0.927596
0.958983
1.00148
1.06171
1.15115
1.20076
1.28823
1.09271
0.673591
0.831052
0.844385
0.911914
0.903202
0.938227
0.924206
0.938245
0.922201
0.923504
0.913403
0.914706
0.927255
0.947127
1.01041
1.06759
1.21468
1.29104
1.50516
1.38854
0.578772
0.796313
0.830457
0.914858
0.906361
0.944433
0.918724
0.929099
0.890591
0.884177
0.838248
0.82954
0.786773
0.798394
0.777927
0.841518
0.869109
1.00108
1.08124
1.16801
0.56553
0.841258
0.856457
0.962975
0.939849
0.98579
0.948135
0.956703
0.907698
0.892456
0.837282
0.813661
0.764577
0.757348
0.742627
0.794381
0.870142
1.03372
1.28165
1.51362
0.513543
0.819606
0.867195
0.98409
0.967448
1.01343
0.968072
0.970626
0.904054
0.878848
0.794461
0.756833
0.659349
0.634969
0.538783
0.581146
0.520201
0.72626
0.764273
1.26445
0.557551
0.885084
0.91036
1.04379
1.01542
1.0663
1.00953
1.00817
0.930277
0.895388
0.798871
0.745098
0.633329
0.585114
0.476971
0.49555
0.455529
0.682577
0.895893
1.59138
0.618163
0.92856
0.978924
1.10835
1.08137
1.12494
1.06036
1.05003
0.96006
0.915071
0.800172
0.732135
0.587957
0.516712
0.347232
0.33492
0.173739
0.395112
0.343675
1.28817
0.761858
1.03399
1.06392
1.19556
1.15603
1.19606
1.11951
1.1022
1.002
0.948367
0.822578
0.741026
0.580289
0.484688
0.2886
0.239124
0.0522214
0.256855
0.283487
1.40815
1.04276
1.21399
1.22784
1.32744
1.27119
1.28912
1.20278
1.17208
1.06743
1.00521
0.876479
0.784156
0.615815
0.495765
0.27676
0.169921
-0.0768995
0.0185165
-0.15572
0.948658
)
;

boundaryField
{
    cavity
    {
        type            implicitExtrapolation;
    }
    lid
    {
        type            implicitExtrapolation;
    }
    frontAndBack
    {
        type            empty;
    }
}


// ************************************************************************* //
