/*--------------------------------*- C++ -*----------------------------------*\
| =========                 |                                                 |
| \\      /  F ield         | foam-extend: Open Source CFD                    |
|  \\    /   O peration     | Version:  3.0                                   |
|   \\  /    A nd           | Web:         http://www.extend-project.de       |
|    \\/     M anipulation  |                                                 |
\*---------------------------------------------------------------------------*/
FoamFile
{
    version     2.0;
    format      ascii;
    class       volVectorField;
    location    "4.8";
    object      s;
}
// * * * * * * * * * * * * * * * * * * * * * * * * * * * * * * * * * * * * * //

dimensions      [0 0 0 0 0 0 0];

internalField   nonuniform List<vector> 
400
(
(-0.00472131 0.00615522 5.12294e-318)
(-0.00761134 0.00900202 8.75908e-318)
(-0.0149541 0.00955254 9.80222e-318)
(-0.0192138 0.00800425 9.77293e-318)
(-0.0246838 0.00668814 9.31996e-318)
(-0.0281898 0.00498805 8.71579e-318)
(-0.0316312 0.00355412 8.05169e-318)
(-0.0338186 0.00214976 7.42222e-318)
(-0.0354791 0.000852386 6.78889e-318)
(-0.0362577 -0.000427541 6.23094e-318)
(-0.0362592 -0.00175404 5.6727e-318)
(-0.0355286 -0.00314663 5.19226e-318)
(-0.0337374 -0.00469244 4.71076e-318)
(-0.0313183 -0.00633783 4.29197e-318)
(-0.027458 -0.00807895 3.87796e-318)
(-0.0233638 -0.00991761 3.48889e-318)
(-0.017335 -0.0113263 3.09753e-318)
(-0.0123808 -0.0127107 2.63527e-318)
(-0.00489086 -0.0117529 2.03007e-318)
(-0.00186258 -0.00786937 9.93818e-319)
(-0.00481809 0.00411774 5.66661e-318)
(-0.0108218 0.00955238 1.10851e-317)
(-0.0195328 0.01201 1.3407e-317)
(-0.0263532 0.0120243 1.41486e-317)
(-0.0339015 0.0108112 1.40514e-317)
(-0.0395262 0.00881892 1.35848e-317)
(-0.0447732 0.00651055 1.28793e-317)
(-0.0483421 0.00408516 1.21331e-317)
(-0.0509771 0.0015802 1.13073e-317)
(-0.0521689 -0.00091285 1.05344e-317)
(-0.0520904 -0.00349403 9.72743e-318)
(-0.0507264 -0.00606721 8.99912e-318)
(-0.047798 -0.00871548 8.2509e-318)
(-0.0437967 -0.0112348 7.57659e-318)
(-0.0379951 -0.0135577 6.8814e-318)
(-0.031682 -0.0152989 6.21413e-318)
(-0.0236113 -0.0160195 5.47874e-318)
(-0.0162796 -0.0151287 4.61323e-318)
(-0.00786262 -0.0115544 3.42367e-318)
(-0.00208783 -0.00481702 1.57472e-318)
(-0.00470859 0.012023 4.32653e-318)
(-0.01063 0.0228547 9.25853e-318)
(-0.0194374 0.0265634 1.18857e-317)
(-0.0262791 0.0260444 1.31604e-317)
(-0.033711 0.0232763 1.35721e-317)
(-0.0392864 0.0192991 1.35093e-317)
(-0.044479 0.0146942 1.31104e-317)
(-0.0480609 0.00986547 1.25661e-317)
(-0.0507586 0.00483629 1.18804e-317)
(-0.052056 -0.000241446 1.1179e-317)
(-0.0521085 -0.00550775 1.04145e-317)
(-0.0509031 -0.0108044 9.68665e-318)
(-0.048111 -0.0162431 8.92928e-318)
(-0.0442469 -0.0214229 8.22163e-318)
(-0.0385263 -0.0262764 7.49203e-318)
(-0.0322138 -0.0299516 6.78133e-318)
(-0.0240897 -0.0319663 5.9975e-318)
(-0.0165092 -0.0308555 5.08919e-318)
(-0.00780866 -0.0252216 3.82027e-318)
(-0.00187844 -0.0123622 1.84286e-318)
(-0.00403404 0.0132077 2.43466e-318)
(-0.00886606 0.0265623 6.06071e-318)
(-0.0160586 0.0314506 8.48851e-318)
(-0.0215334 0.0313546 1.00477e-317)
(-0.0277167 0.0281977 1.09063e-317)
(-0.0322516 0.0235739 1.13064e-317)
(-0.0366682 0.0180317 1.13368e-317)
(-0.0397023 0.0121736 1.11502e-317)
(-0.0421246 0.00600653 1.07721e-317)
(-0.0433929 -0.000267843 1.0307e-317)
(-0.043658 -0.00680294 9.74416e-318)
(-0.0429237 -0.0134069 9.16011e-318)
(-0.0407847 -0.020197 8.52231e-318)
(-0.0378238 -0.0266369 7.88438e-318)
(-0.0330734 -0.032668 7.19416e-318)
(-0.0279178 -0.0370009 6.46937e-318)
(-0.0208627 -0.0392707 5.62381e-318)
(-0.0143777 -0.0370232 4.60089e-318)
(-0.00668586 -0.0294347 3.23571e-318)
(-0.00139822 -0.0130593 1.33657e-318)
(-0.0039655 0.0169784 1.12809e-318)
(-0.00726095 0.0334177 3.61126e-318)
(-0.013525 0.039141 5.67772e-318)
(-0.0174925 0.0388842 7.27489e-318)
(-0.0225438 0.0349834 8.35272e-318)
(-0.0259206 0.0293507 9.02418e-318)
(-0.0295212 0.0226564 9.33798e-318)
(-0.0319457 0.0155441 9.40561e-318)
(-0.034089 0.00805472 9.25964e-318)
(-0.0353748 0.000356381 8.98708e-318)
(-0.035949 -0.00770271 8.59318e-318)
(-0.0358522 -0.0159551 8.14156e-318)
(-0.0345337 -0.0245185 7.61588e-318)
(-0.0327133 -0.032787 7.05583e-318)
(-0.0290344 -0.040679 6.42477e-318)
(-0.0252431 -0.0465772 5.72839e-318)
(-0.0189945 -0.0500645 4.90217e-318)
(-0.0137204 -0.0478076 3.90044e-318)
(-0.0059405 -0.0388868 2.62379e-318)
(-0.00176476 -0.0179252 9.90419e-319)
(-0.0037295 0.0185398 1.05814e-319)
(-0.00553829 0.0362284 1.60207e-318)
(-0.0104462 0.0424452 3.2775e-318)
(-0.0127507 0.0419765 4.80049e-318)
(-0.0164422 0.0377993 5.98392e-318)
(-0.0185439 0.0317074 6.83876e-318)
(-0.0212002 0.024616 7.37277e-318)
(-0.02294 0.0170349 7.65703e-318)
(-0.0247356 0.00909357 7.72518e-318)
(-0.0260146 0.00084062 7.64202e-318)
(-0.0269057 -0.00784995 7.42841e-318)
(-0.0275056 -0.0169158 7.1316e-318)
(-0.0271245 -0.0264588 6.75323e-318)
(-0.0266192 -0.0359251 6.31935e-318)
(-0.0242447 -0.0451667 5.80768e-318)
(-0.0220994 -0.0524124 5.21367e-318)
(-0.0169452 -0.0570416 4.48357e-318)
(-0.0131624 -0.0550481 3.57338e-318)
(-0.00546068 -0.0450971 2.40899e-318)
(-0.00233399 -0.0206139 9.17707e-319)
(-0.00339958 0.0204198 -2.55872e-319)
(-0.00381978 0.0391201 6.56376e-319)
(-0.00750065 0.0457098 1.97204e-318)
(-0.0083572 0.0448628 3.30556e-318)
(-0.0108574 0.0404949 4.42923e-318)
(-0.0118569 0.0339729 5.29764e-318)
(-0.0136762 0.0266335 5.89949e-318)
(-0.0148076 0.0186928 6.27504e-318)
(-0.0162723 0.0104567 6.45131e-318)
(-0.0175237 0.00177393 6.47721e-318)
(-0.0186716 -0.00740958 6.37455e-318)
(-0.0198886 -0.0172134 6.18073e-318)
(-0.0203473 -0.0276761 5.90182e-318)
(-0.0210879 -0.038444 5.55638e-318)
(-0.0199191 -0.0491814 5.13075e-318)
(-0.0194336 -0.0582831 4.61346e-318)
(-0.0152315 -0.0645625 3.96397e-318)
(-0.0130551 -0.063905 3.13407e-318)
(-0.00506071 -0.0535677 2.06886e-318)
(-0.00322072 -0.0257706 7.2725e-319)
(-0.00263577 0.0210912 -4.81655e-319)
(-0.00207803 0.0397465 1.97379e-320)
(-0.00411307 0.0464479 1.04484e-318)
(-0.00372661 0.0452244 2.18994e-318)
(-0.00490283 0.0409333 3.22373e-318)
(-0.00489198 0.0343018 4.073e-318)
(-0.00580433 0.0271404 4.70524e-318)
(-0.00631714 0.0192874 5.14115e-318)
(-0.00735637 0.0112585 5.39878e-318)
(-0.00848462 0.00266296 5.51484e-318)
(-0.00976879 -0.00646628 5.51266e-318)
(-0.0114622 -0.0164794 5.42287e-318)
(-0.0126767 -0.0273429 5.25764e-318)
(-0.0145426 -0.0390037 5.03197e-318)
(-0.0146481 -0.0509155 4.73827e-318)
(-0.0157802 -0.0618018 4.36503e-318)
(-0.0128784 -0.0698217 3.8718e-318)
(-0.0122882 -0.0708401 3.20129e-318)
(-0.00465807 -0.060518 2.26825e-318)
(-0.0037427 -0.0297494 9.3747e-319)
(-0.00172799 0.0211066 -3.5841e-319)
(-0.000406463 0.0394877 -1.92636e-320)
(-0.000728651 0.0462168 7.70377e-319)
(0.000664613 0.0447556 1.69951e-318)
(0.000767237 0.0406805 2.5775e-318)
(0.00164604 0.0341003 3.32428e-318)
(0.00162278 0.0272841 3.90754e-318)
(0.00171953 0.0196849 4.33014e-318)
(0.00118461 0.0120512 4.60514e-318)
(0.000308812 0.00374137 4.75767e-318)
(-0.000928703 -0.00509571 4.8073e-318)
(-0.0028698 -0.0150765 4.77764e-318)
(-0.00461554 -0.0260499 4.68187e-318)
(-0.00739466 -0.0383892 4.53058e-318)
(-0.00864326 -0.0512207 4.32211e-318)
(-0.0113873 -0.0639496 4.04156e-318)
(-0.00986976 -0.0737311 3.65641e-318)
(-0.0111975 -0.0771818 3.09776e-318)
(-0.00406275 -0.0674118 2.26116e-318)
(-0.00457107 -0.0347948 9.71185e-319)
(-0.000637938 0.0203236 -2.92344e-319)
(0.00107082 0.0377349 -6.11752e-320)
(0.00264764 0.0442924 5.63927e-319)
(0.00482962 0.0427025 1.33133e-318)
(0.00628952 0.0389828 2.08461e-318)
(0.00794718 0.0326795 2.74942e-318)
(0.00888195 0.0264169 3.28714e-318)
(0.00961847 0.0193202 3.69412e-318)
(0.00971428 0.0123347 3.97743e-318)
(0.00925122 0.00460777 4.15624e-318)
(0.00827042 -0.00361435 4.24805e-318)
(0.00637204 -0.0131875 4.27361e-318)
(0.00433818 -0.0238748 4.24714e-318)
(0.00102125 -0.0364685 4.17988e-318)
(-0.00127837 -0.0498651 4.07291e-318)
(-0.00526741 -0.0641393 3.91562e-318)
(-0.00553227 -0.0757124 3.67117e-318)
(-0.00845778 -0.0817009 3.26672e-318)
(-0.00306183 -0.0732203 2.55385e-318)
(-0.00437164 -0.0391006 1.25384e-318)
(0.000453246 0.0189082 -9.7494e-320)
(0.00237546 0.0352789 1.27711e-319)
(0.0057388 0.0414601 6.26535e-319)
(0.00850923 0.0399431 1.24058e-318)
(0.0112383 0.0365838 1.85793e-318)
(0.0135651 0.0307054 2.41431e-318)
(0.015433 0.0250586 2.87753e-318)
(0.0168124 0.0185825 3.23871e-318)
(0.0176144 0.0123473 3.50155e-318)
(0.0177025 0.0053551 3.67902e-318)
(0.0171842 -0.0020611 3.78526e-318)
(0.015602 -0.0109617 3.83624e-318)
(0.0135882 -0.0210036 3.84512e-318)
(0.0100404 -0.033425 3.81982e-318)
(0.00695542 -0.0468203 3.76319e-318)
(0.0017746 -0.0621882 3.66272e-318)
(-0.000265821 -0.0749313 3.48671e-318)
(-0.00538799 -0.0835729 3.15944e-318)
(-0.0017612 -0.0762889 2.51701e-318)
(-0.00509612 -0.0423981 1.26948e-318)
(0.001192 0.0168616 -3.14275e-320)
(0.00327909 0.0317499 1.84583e-319)
(0.00822115 0.0375568 6.11876e-319)
(0.011532 0.0361881 1.13312e-318)
(0.0154799 0.0332739 1.65864e-318)
(0.0184338 0.0279447 2.1401e-318)
(0.0212252 0.0229907 2.54597e-318)
(0.0232509 0.017244 2.86966e-318)
(0.0248173 0.0118414 3.11245e-318)
(0.0255797 0.00571241 3.28449e-318)
(0.0257112 -0.000761052 3.39827e-318)
(0.0247652 -0.00875734 3.4683e-318)
(0.0230995 -0.017893 3.50573e-318)
(0.0198864 -0.0297204 3.51915e-318)
(0.0163278 -0.0427512 3.51036e-318)
(0.01075 -0.0586704 3.46966e-318)
(0.0067172 -0.0725437 3.36006e-318)
(0.000363001 -0.0837349 3.1123e-318)
(0.000460795 -0.0789686 2.545e-318)
(-0.00351107 -0.0462968 1.34929e-318)
(0.00215781 0.014994 3.29591e-320)
(0.00400818 0.0282655 2.79681e-319)
(0.010284 0.0332556 6.62542e-319)
(0.0138442 0.0321034 1.107e-318)
(0.0187859 0.0294907 1.54759e-318)
(0.0221875 0.024789 1.9503e-318)
(0.025755 0.0204955 2.29377e-318)
(0.0283292 0.0155241 2.5717e-318)
(0.0306077 0.0109536 2.78547e-318)
(0.0320549 0.00573965 2.94192e-318)
(0.0329299 0.000275888 3.05134e-318)
(0.0327788 -0.00664896 3.12401e-318)
(0.0317455 -0.0146108 3.16932e-318)
(0.0291347 -0.025392 3.19242e-318)
(0.0255417 -0.0373772 3.19307e-318)
(0.0196332 -0.0530017 3.15664e-318)
(0.014045 -0.06672 3.04848e-318)
(0.00556205 -0.0795825 2.80145e-318)
(0.00286462 -0.0758307 2.25091e-318)
(-0.00420008 -0.0455847 1.15174e-318)
(0.00208763 0.0120663 5.45844e-320)
(0.00426464 0.0238693 3.34759e-319)
(0.0113485 0.0283856 6.89483e-319)
(0.0153774 0.0274889 1.07943e-318)
(0.0211435 0.0252894 1.4513e-318)
(0.0249767 0.0212417 1.79025e-318)
(0.0291823 0.0176336 2.07868e-318)
(0.0322183 0.0134447 2.31412e-318)
(0.0351179 0.0096877 2.4971e-318)
(0.037236 0.00538148 2.63342e-318)
(0.0388973 0.000911977 2.73218e-318)
(0.0397406 -0.00488163 2.80116e-318)
(0.0396046 -0.0115892 2.84804e-318)
(0.0381917 -0.0210455 2.87681e-318)
(0.0350202 -0.0317435 2.8837e-318)
(0.0300069 -0.0465099 2.85573e-318)
(0.0229557 -0.0600842 2.75273e-318)
(0.0144597 -0.0745407 2.51581e-318)
(0.00666682 -0.0739986 1.99671e-318)
(-9.60902e-05 -0.0486962 9.95587e-319)
(0.00276643 0.0106649 -3.8216e-320)
(0.0041419 0.0202296 2.88149e-319)
(0.0118499 0.0236039 6.39306e-319)
(0.0157662 0.0228338 9.91165e-319)
(0.0219798 0.0208688 1.31135e-318)
(0.0258997 0.0175205 1.59696e-318)
(0.0304233 0.0145403 1.84051e-318)
(0.0336619 0.011135 2.04044e-318)
(0.0369438 0.0081212 2.19814e-318)
(0.0395256 0.00467922 2.31812e-318)
(0.041845 0.00113559 2.40701e-318)
(0.0435481 -0.00351887 2.47086e-318)
(0.0443878 -0.00891321 2.51444e-318)
(0.0441288 -0.0167609 2.53895e-318)
(0.0418438 -0.0256682 2.53778e-318)
(0.0375488 -0.0385995 2.49295e-318)
(0.0301228 -0.0504154 2.36606e-318)
(0.020231 -0.0642779 2.09955e-318)
(0.00988588 -0.0634743 1.58332e-318)
(-0.00111792 -0.0413536 6.96213e-319)
(0.00183961 0.0073822 1.85102e-319)
(0.00388479 0.0159287 5.14841e-319)
(0.0116275 0.018701 7.79542e-319)
(0.0159303 0.0181763 1.03302e-318)
(0.0224201 0.0165573 1.26414e-318)
(0.0263913 0.0138582 1.47539e-318)
(0.0310215 0.0115096 1.65804e-318)
(0.0342798 0.00882553 1.80917e-318)
(0.0377272 0.00650474 1.92878e-318)
(0.0406191 0.00383977 2.01933e-318)
(0.0434496 0.00114069 2.08595e-318)
(0.0460237 -0.00245891 2.13342e-318)
(0.0478722 -0.00659738 2.16483e-318)
(0.0492166 -0.0128192 2.18066e-318)
(0.0481376 -0.0198942 2.1724e-318)
(0.0460458 -0.0307968 2.12402e-318)
(0.0384221 -0.0410606 1.99625e-318)
(0.0308078 -0.0549553 1.74132e-318)
(0.0147847 -0.0571634 1.27375e-318)
(0.00709261 -0.0440821 5.12845e-319)
(0.00186824 0.0068154 -6.51574e-320)
(0.00254837 0.0123495 2.80022e-319)
(0.0100079 0.0139862 5.46274e-319)
(0.0136929 0.0134359 7.7757e-319)
(0.0197348 0.0121463 9.82049e-319)
(0.0232379 0.010193 1.16485e-318)
(0.0274252 0.00844946 1.32334e-318)
(0.0303267 0.00649351 1.45501e-318)
(0.0335165 0.0047591 1.56086e-318)
(0.0362791 0.00278565 1.64304e-318)
(0.0392143 0.000761635 1.70515e-318)
(0.0420485 -0.00189621 1.75127e-318)
(0.0445703 -0.00495813 1.78289e-318)
(0.0467168 -0.00950481 1.7988e-318)
(0.0470056 -0.0146949 1.78982e-318)
(0.0460247 -0.0226916 1.73796e-318)
(0.0400218 -0.0301996 1.60926e-318)
(0.0321151 -0.0403666 1.35944e-318)
(0.0167886 -0.0405797 9.37628e-319)
(0.00402801 -0.0276077 3.07852e-319)
(0.000528189 0.00396698 6.52226e-319)
(0.00216415 0.00897936 7.85663e-319)
(0.00932025 0.00983627 8.29882e-319)
(0.0129507 0.00953799 8.80469e-319)
(0.0187203 0.00852361 9.63902e-319)
(0.0216274 0.0071226 1.05343e-318)
(0.0253478 0.00594141 1.13905e-318)
(0.0276848 0.0045697 1.21184e-318)
(0.0304725 0.00342201 1.26953e-318)
(0.0329692 0.00204564 1.31193e-318)
(0.0357895 0.000715686 1.3416e-318)
(0.0388957 -0.00111852 1.36111e-318)
(0.041833 -0.00308934 1.37225e-318)
(0.0452037 -0.00621113 1.37361e-318)
(0.0466228 -0.00951746 1.3574e-318)
(0.0484384 -0.0152924 1.31209e-318)
(0.0434287 -0.0203364 1.20799e-318)
(0.0406172 -0.0297234 1.01226e-318)
(0.0207149 -0.0317678 6.87418e-319)
(0.0177942 -0.0320624 2.1185e-319)
(-0.000253757 0.00376994 -1.08408e-319)
(-0.000179809 0.00501144 8.60514e-320)
(0.00482455 0.00531406 2.15867e-319)
(0.00703623 0.00504282 3.25209e-319)
(0.0106972 0.0045956 4.28523e-319)
(0.0125333 0.00401556 5.22983e-319)
(0.0147613 0.00338119 6.06466e-319)
(0.0162154 0.00268639 6.76791e-319)
(0.0179293 0.00195512 7.34266e-319)
(0.0194943 0.00113272 7.79907e-319)
(0.0214405 0.000217644 8.16266e-319)
(0.0234516 -0.0009003 8.44516e-319)
(0.0258322 -0.00220941 8.65786e-319)
(0.0280987 -0.00391776 8.77742e-319)
(0.0300471 -0.00592135 8.75134e-319)
(0.0311806 -0.00852835 8.47693e-319)
(0.0295655 -0.0112818 7.77654e-319)
(0.0261567 -0.013927 6.39914e-319)
(0.0152936 -0.0138118 4.24427e-319)
(0.00636309 -0.00488806 1.24287e-319)
(-0.000584776 0.00180594 9.73858e-319)
(0.000613678 0.00339877 6.74671e-319)
(0.00480121 0.00300468 5.24189e-319)
(0.00589266 0.00292519 4.32139e-319)
(0.00875841 0.0025711 4.12159e-319)
(0.00927426 0.00215445 4.07145e-319)
(0.0108158 0.00197541 4.11517e-319)
(0.0112885 0.00162274 4.13992e-319)
(0.0123401 0.00150936 4.14393e-319)
(0.013207 0.00119167 4.11655e-319)
(0.0143807 0.00108892 4.0668e-319)
(0.0159841 0.000686485 4.00361e-319)
(0.0175051 0.000560901 3.94082e-319)
(0.0200686 -0.000143531 3.87772e-319)
(0.0214454 -0.000304536 3.79857e-319)
(0.0248485 -0.00187815 3.67585e-319)
(0.0234997 -0.00198265 3.40026e-319)
(0.0270292 -0.0063469 2.85936e-319)
(0.0143222 -0.00583226 1.91243e-319)
(0.0222503 -0.0178185 4.30875e-320)
)
;

boundaryField
{
    cavity
    {
        type            myHeatFlux;
        ThetaWall       uniform 0;
        value           nonuniform List<vector> 
60
(
(0.001 0 0)
(0.001 0 0)
(0.001 0 0)
(0.001 0 0)
(0.001 0 0)
(0.001 0 0)
(0.001 0 0)
(0.001 0 0)
(0.001 0 0)
(0.001 0 0)
(0.001 0 0)
(0.001 0 0)
(0.001 0 0)
(0.001 0 0)
(0.001 0 0)
(0.001 0 0)
(0.001 0 0)
(0.001 0 0)
(0.001 0 0)
(0.001 0 0)
(0 -0.001 0)
(0 -0.001 0)
(0 -0.001 0)
(0 -0.001 0)
(0 -0.001 0)
(0 -0.001 0)
(0 -0.001 0)
(0 -0.001 0)
(0 -0.001 0)
(0 -0.001 0)
(0 -0.001 0)
(0 -0.001 0)
(0 -0.001 0)
(0 -0.001 0)
(0 -0.001 0)
(0 -0.001 0)
(0 -0.001 0)
(0 -0.001 0)
(0 -0.001 0)
(0 -0.001 0)
(-0.001 0 0)
(-0.001 0 0)
(-0.001 0 0)
(-0.001 0 0)
(-0.001 0 0)
(-0.001 0 0)
(-0.001 0 0)
(-0.001 0 0)
(-0.001 0 0)
(-0.001 0 0)
(-0.001 0 0)
(-0.001 0 0)
(-0.001 0 0)
(-0.001 0 0)
(-0.001 0 0)
(-0.001 0 0)
(-0.001 0 0)
(-0.001 0 0)
(-0.001 0 0)
(-0.001 0 0)
)
;
    }
    lid
    {
        type            myHeatFlux;
        ThetaWall       uniform 0;
        value           nonuniform List<vector> 
20
(
(0.000135815 0.0009 0)
(0.000135815 0.0009 0)
(0.000135815 0.0009 0)
(0.000135815 0.0009 0)
(0.000135815 0.0009 0)
(0.000135815 0.0009 0)
(0.000135815 0.0009 0)
(0.000135815 0.0009 0)
(0.000135815 0.0009 0)
(0.000135815 0.0009 0)
(0.000135815 0.0009 0)
(0.000135815 0.0009 0)
(0.000135815 0.0009 0)
(0.000135815 0.0009 0)
(0.000135815 0.0009 0)
(0.000135815 0.0009 0)
(0.000135815 0.0009 0)
(0.000135815 0.0009 0)
(0.000135815 0.0009 0)
(0.000135815 0.0009 0)
)
;
    }
    frontAndBack
    {
        type            empty;
    }
}


// ************************************************************************* //
