/*--------------------------------*- C++ -*----------------------------------*\
| =========                 |                                                 |
| \\      /  F ield         | foam-extend: Open Source CFD                    |
|  \\    /   O peration     | Version:  3.0                                   |
|   \\  /    A nd           | Web:         http://www.extend-project.de       |
|    \\/     M anipulation  |                                                 |
\*---------------------------------------------------------------------------*/
FoamFile
{
    version     2.0;
    format      ascii;
    class       volVectorField;
    location    "4.8";
    object      u;
}
// * * * * * * * * * * * * * * * * * * * * * * * * * * * * * * * * * * * * * //

dimensions      [0 0 0 0 0 0 0];

internalField   nonuniform List<vector> 
400
(
(-0.29655 0.803761 1.29992e-315)
(-0.492869 0.606616 1.16209e-315)
(-0.897725 0.659488 1.00627e-315)
(-1.11307 0.524774 9.23476e-316)
(-1.37949 0.511015 7.71385e-316)
(-1.55986 0.427659 7.28345e-316)
(-1.73139 0.387725 5.85499e-316)
(-1.85383 0.308635 5.67546e-316)
(-1.94033 0.263857 4.36612e-316)
(-1.9982 0.175036 4.34807e-316)
(-1.9979 0.124485 3.1532e-316)
(-1.9811 0.0279254 3.24278e-316)
(-1.89202 -0.0316454 2.15011e-316)
(-1.78496 -0.127841 2.29885e-316)
(-1.60926 -0.188251 1.31942e-316)
(-1.40402 -0.282281 1.45291e-316)
(-1.14311 -0.304794 6.48533e-317)
(-0.871646 -0.428766 6.42801e-317)
(-0.502468 -0.35706 1.04566e-317)
(-0.257677 -0.529514 -2.45655e-317)
(-0.0436366 0.495727 6.48271e-316)
(-0.327012 0.397493 6.49606e-316)
(-0.490893 0.377032 6.0475e-316)
(-0.679099 0.288093 5.90918e-316)
(-0.848863 0.239055 5.3095e-316)
(-0.97148 0.168474 5.12372e-316)
(-1.09515 0.106351 4.45777e-316)
(-1.16874 0.0468785 4.2646e-316)
(-1.22918 -0.0213039 3.58636e-316)
(-1.25774 -0.0745463 3.41029e-316)
(-1.25168 -0.153404 2.75292e-316)
(-1.23276 -0.202431 2.60604e-316)
(-1.16279 -0.297683 1.98718e-316)
(-1.08897 -0.343278 1.86302e-316)
(-0.96467 -0.449945 1.29436e-316)
(-0.824266 -0.494352 1.15211e-316)
(-0.671691 -0.583972 6.43656e-317)
(-0.446758 -0.634237 3.78839e-317)
(-0.328499 -0.658898 -8.96458e-318)
(-0.00359428 -0.714656 -6.97137e-317)
(-0.0601351 1.31653 5.32191e-316)
(-0.374812 1.2535 5.43924e-316)
(-0.544638 1.16027 5.1295e-316)
(-0.755409 1.04453 4.95994e-316)
(-0.926644 0.927456 4.45875e-316)
(-1.06127 0.780689 4.22999e-316)
(-1.18999 0.661979 3.66394e-316)
(-1.27884 0.493174 3.44426e-316)
(-1.34365 0.37526 2.87556e-316)
(-1.3978 0.192447 2.67972e-316)
(-1.39039 0.0648642 2.13002e-316)
(-1.40316 -0.120889 1.95532e-316)
(-1.32302 -0.268733 1.42762e-316)
(-1.27183 -0.438929 1.25959e-316)
(-1.13063 -0.605094 7.56748e-317)
(-0.978323 -0.732898 5.69304e-317)
(-0.814378 -0.887963 1.15057e-317)
(-0.518195 -0.948242 -1.05146e-317)
(-0.413159 -1.03037 -4.4854e-317)
(0.0247968 -1.01738 -5.67807e-317)
(-0.0559348 1.14243 7.62482e-317)
(-0.253025 1.12826 1.86966e-316)
(-0.39744 0.955681 2.29855e-316)
(-0.491801 0.872667 2.69657e-316)
(-0.627254 0.708097 2.73694e-316)
(-0.66384 0.576363 2.79189e-316)
(-0.759319 0.441619 2.62077e-316)
(-0.778816 0.28821 2.51541e-316)
(-0.824437 0.163204 2.24281e-316)
(-0.845521 0.00299636 2.07266e-316)
(-0.839366 -0.142307 1.76508e-316)
(-0.863737 -0.299265 1.58201e-316)
(-0.80485 -0.493318 1.2808e-316)
(-0.817223 -0.629191 1.11736e-316)
(-0.708594 -0.887522 8.55312e-317)
(-0.67015 -0.964612 7.41435e-317)
(-0.534966 -1.26572 5.56705e-317)
(-0.379453 -1.22661 5.40086e-317)
(-0.288805 -1.45562 4.88431e-317)
(0.0276341 -1.27699 6.71295e-317)
(-0.179017 1.70279 1.96672e-316)
(-0.290518 1.69447 2.46094e-316)
(-0.572315 1.45986 2.58758e-316)
(-0.611134 1.33854 2.65422e-316)
(-0.815578 1.13955 2.55866e-316)
(-0.839428 0.943492 2.4686e-316)
(-0.967715 0.798451 2.26104e-316)
(-1.00929 0.566884 2.10718e-316)
(-1.06649 0.447947 1.84835e-316)
(-1.1355 0.200189 1.66412e-316)
(-1.12338 0.0731309 1.38042e-316)
(-1.21253 -0.178454 1.17594e-316)
(-1.12624 -0.347938 8.72876e-317)
(-1.20881 -0.579492 6.39285e-317)
(-1.04118 -0.821762 3.07758e-317)
(-1.06216 -0.978407 1.33814e-318)
(-0.820878 -1.30045 -3.67701e-317)
(-0.69334 -1.29003 -7.80501e-317)
(-0.431871 -1.59474 -1.24925e-316)
(-0.0917191 -1.36822 -1.86032e-316)
(-0.289627 1.75659 -7.28926e-317)
(-0.18297 1.65398 3.06928e-317)
(-0.544665 1.38538 8.50862e-317)
(-0.411518 1.20569 1.30193e-316)
(-0.62409 1.0175 1.49862e-316)
(-0.525812 0.788091 1.62432e-316)
(-0.641294 0.671743 1.61092e-316)
(-0.599252 0.42615 1.56659e-316)
(-0.648799 0.332278 1.44092e-316)
(-0.671123 0.0816446 1.31703e-316)
(-0.666337 -0.041604 1.14227e-316)
(-0.755818 -0.29552 9.91434e-317)
(-0.688032 -0.501523 8.08886e-317)
(-0.839008 -0.743393 6.68194e-317)
(-0.680214 -1.0841 5.11145e-317)
(-0.865556 -1.25599 4.19492e-317)
(-0.578285 -1.75076 3.22411e-317)
(-0.728594 -1.73394 3.29545e-317)
(-0.290601 -2.23699 3.30527e-317)
(-0.293553 -1.94657 4.71857e-317)
(-0.436933 2.26078 1.47578e-316)
(-0.161874 1.99321 1.6497e-316)
(-0.68179 1.72503 1.71995e-316)
(-0.458116 1.42485 1.72076e-316)
(-0.740347 1.26658 1.68507e-316)
(-0.627161 0.954651 1.61478e-316)
(-0.767806 0.876451 1.50897e-316)
(-0.760662 0.567339 1.39495e-316)
(-0.814048 0.524489 1.24517e-316)
(-0.905643 0.213683 1.09918e-316)
(-0.891045 0.164474 9.19425e-317)
(-1.07789 -0.160624 7.45463e-317)
(-0.981369 -0.261816 5.36953e-317)
(-1.25424 -0.600981 3.24422e-317)
(-1.02657 -0.811335 7.13656e-318)
(-1.35061 -1.12038 -2.19322e-317)
(-0.910462 -1.49728 -5.56374e-317)
(-1.19638 -1.66258 -1.00857e-316)
(-0.454976 -2.15453 -1.50241e-316)
(-0.542134 -2.09162 -2.24974e-316)
(-0.482631 2.45314 -4.60745e-317)
(-0.0345852 1.94692 1.93437e-317)
(-0.587843 1.73563 5.75713e-317)
(-0.238045 1.28309 8.93861e-317)
(-0.510668 1.21922 1.04677e-316)
(-0.302606 0.827036 1.13714e-316)
(-0.424216 0.829889 1.13813e-316)
(-0.336307 0.483911 1.09996e-316)
(-0.381744 0.501108 1.01488e-316)
(-0.403721 0.172055 9.13547e-317)
(-0.400621 0.156371 7.88324e-317)
(-0.541146 -0.192411 6.63735e-317)
(-0.472191 -0.30063 5.3011e-317)
(-0.755121 -0.694514 4.12763e-317)
(-0.547995 -0.976404 2.9898e-317)
(-1.00201 -1.39391 2.24602e-317)
(-0.514938 -1.93132 1.61239e-317)
(-1.13734 -2.2602 1.75318e-317)
(-0.168595 -2.98912 1.92063e-317)
(-0.804475 -3.08451 2.96687e-317)
(-0.511671 2.81816 1.80977e-316)
(0.0311519 2.10131 1.62547e-316)
(-0.559388 1.94061 1.53681e-316)
(-0.190153 1.33457 1.4153e-316)
(-0.470529 1.33151 1.33633e-316)
(-0.296329 0.855672 1.23893e-316)
(-0.408936 0.908718 1.14412e-316)
(-0.38505 0.517908 1.03963e-316)
(-0.417377 0.593883 9.23991e-317)
(-0.526753 0.231815 8.02323e-317)
(-0.511965 0.308605 6.67139e-317)
(-0.767078 -0.0867701 5.25875e-317)
(-0.683137 -0.0397344 3.69448e-317)
(-1.11352 -0.528308 1.97744e-317)
(-0.865101 -0.56466 4.69585e-319)
(-1.49361 -1.17696 -2.36792e-317)
(-0.883396 -1.38825 -5.0608e-317)
(-1.66508 -2.07204 -9.08267e-317)
(-0.400726 -2.56444 -1.33318e-316)
(-1.07013 -3.1778 -2.04957e-316)
(-0.387164 2.95364 8.48725e-318)
(0.11739 2.00148 4.55862e-317)
(-0.33719 1.9669 6.73485e-317)
(0.0302324 1.19509 8.61602e-317)
(-0.168187 1.32964 9.33852e-317)
(0.0443494 0.765373 9.65938e-317)
(-0.0202831 0.920645 9.38987e-317)
(0.0744904 0.492858 8.84099e-317)
(0.0602022 0.645129 8.01965e-317)
(0.0502287 0.268303 7.06841e-317)
(0.0518634 0.401078 6.00748e-317)
(-0.0815459 -0.0185437 4.93651e-317)
(-0.0441429 0.0533902 3.87027e-317)
(-0.354935 -0.510108 2.92753e-317)
(-0.180154 -0.585699 2.11893e-317)
(-0.765261 -1.37648 1.68838e-317)
(-0.218673 -1.74944 1.52831e-317)
(-1.19423 -2.75143 2.25698e-317)
(0.106365 -3.58429 3.27926e-317)
(-1.16385 -4.5726 5.69952e-317)
(-0.255104 3.08257 2.10092e-316)
(0.197537 2.0478 1.71143e-316)
(-0.124949 2.02384 1.51937e-316)
(0.141207 1.16602 1.32297e-316)
(0.0205353 1.31738 1.201e-316)
(0.134228 0.710727 1.07795e-316)
(0.122181 0.88089 9.7308e-317)
(0.126411 0.441528 8.66443e-317)
(0.144609 0.620536 7.59515e-317)
(0.0410686 0.243821 6.50072e-317)
(0.0544412 0.439686 5.36826e-317)
(-0.193175 0.0100325 4.20453e-317)
(-0.164768 0.224563 2.99533e-317)
(-0.628175 -0.398023 1.68995e-317)
(-0.472289 -0.180121 3.17026e-318)
(-1.24642 -1.15473 -1.41892e-317)
(-0.682282 -1.01004 -3.21436e-317)
(-1.80048 -2.42392 -6.08154e-317)
(-0.329976 -2.65911 -8.84431e-317)
(-1.43844 -4.25285 -1.36829e-316)
(-0.0250217 3.01403 4.19357e-317)
(0.170598 1.88573 7.08376e-317)
(0.141506 2.01838 8.32313e-317)
(0.310576 1.06102 9.44701e-317)
(0.342248 1.33306 9.48588e-317)
(0.460821 0.670061 9.28759e-317)
(0.522884 0.923869 8.67103e-317)
(0.593967 0.469617 7.89971e-317)
(0.639929 0.718949 6.98914e-317)
(0.660903 0.34788 6.02407e-317)
(0.663762 0.611291 5.03521e-317)
(0.612534 0.178996 4.07392e-317)
(0.58132 0.448648 3.17946e-317)
(0.401147 -0.231255 2.43455e-317)
(0.420196 -0.0180666 1.90218e-317)
(-0.0116225 -1.18361 1.82561e-317)
(0.30307 -1.2279 2.1836e-317)
(-0.602805 -3.06079 3.82205e-317)
(0.472779 -3.87557 6.04688e-317)
(-1.04364 -6.14043 1.13536e-316)
(0.257354 2.96072 2.00423e-316)
(0.283093 1.89809 1.67369e-316)
(0.485262 1.90518 1.47302e-316)
(0.452088 0.989732 1.27344e-316)
(0.61536 1.19114 1.13324e-316)
(0.592263 0.556239 9.98791e-317)
(0.736789 0.771807 8.84725e-317)
(0.709145 0.346334 7.74464e-317)
(0.800693 0.572074 6.69612e-317)
(0.736591 0.233436 5.66722e-317)
(0.750824 0.494254 4.6618e-317)
(0.598639 0.0944389 3.67457e-317)
(0.537021 0.420455 2.71445e-317)
(0.204425 -0.247199 1.74067e-317)
(0.13914 0.180978 8.05689e-318)
(-0.525648 -1.05416 -3.21014e-318)
(-0.323388 -0.523942 -1.36247e-317)
(-1.4679 -2.60297 -3.06369e-317)
(-0.324656 -2.35951 -4.50624e-317)
(-1.59974 -4.83503 -6.63609e-317)
(0.360113 2.58563 5.50738e-317)
(0.140405 1.70335 1.02474e-316)
(0.665734 1.87613 1.07654e-316)
(0.585657 0.950859 1.12627e-316)
(0.920531 1.21196 1.05313e-316)
(0.921412 0.565828 9.73723e-317)
(1.14122 0.821876 8.69878e-317)
(1.18155 0.412549 7.64174e-317)
(1.30112 0.689965 6.56973e-317)
(1.3671 0.383868 5.52193e-317)
(1.37897 0.717091 4.5179e-317)
(1.46285 0.348703 3.58277e-317)
(1.3528 0.763884 2.75679e-317)
(1.43647 0.0888497 2.10329e-317)
(1.21131 0.575129 1.69655e-317)
(1.2344 -0.806883 1.80361e-317)
(1.01111 -0.443887 2.39071e-317)
(0.770328 -3.03885 4.56626e-317)
(0.878073 -3.69891 7.33364e-317)
(-0.125481 -7.60184 1.44631e-316)
(0.885326 2.56998 1.48071e-316)
(0.295853 1.65779 1.46647e-316)
(1.04886 1.56945 1.32085e-316)
(0.687284 0.794903 1.16067e-316)
(1.13986 0.93997 1.02821e-316)
(0.992331 0.390997 8.99834e-317)
(1.29154 0.580435 7.90555e-317)
(1.24514 0.232218 6.869e-317)
(1.40886 0.442959 5.9119e-317)
(1.40528 0.188673 4.99759e-317)
(1.42825 0.441647 4.13635e-317)
(1.42427 0.136929 3.32142e-317)
(1.27942 0.469624 2.57e-317)
(1.20074 -0.110878 1.85803e-317)
(0.862813 0.366916 1.21751e-317)
(0.545323 -0.878425 4.81769e-318)
(0.147125 -0.16044 -2.03186e-318)
(-0.716085 -2.51969 -1.40584e-317)
(-0.39067 -1.75773 -2.58741e-317)
(-1.76497 -4.42211 -4.37919e-317)
(0.508708 1.75407 1.71577e-316)
(0.20195 1.58332 2.04594e-316)
(1.18175 1.58072 1.78599e-316)
(1.00434 0.874897 1.59206e-316)
(1.6189 0.979328 1.35686e-316)
(1.54347 0.447307 1.16137e-316)
(1.90332 0.629315 9.84636e-317)
(1.91748 0.320482 8.27323e-317)
(2.10194 0.565135 6.85415e-317)
(2.21418 0.363513 5.5509e-317)
(2.24887 0.693822 4.35755e-317)
(2.48471 0.450129 3.27252e-317)
(2.33378 0.914573 2.32211e-317)
(2.74232 0.383544 1.55787e-317)
(2.29077 1.03811 1.04733e-317)
(2.95868 -0.293029 1.05673e-317)
(2.01507 0.472471 1.52122e-317)
(3.01466 -2.62336 3.59683e-317)
(1.32533 -2.8511 6.11059e-317)
(2.10438 -8.95151 1.26106e-316)
(1.51332 2.05418 6.52598e-317)
(0.226363 1.204 7.45488e-317)
(1.27384 1.03411 7.36171e-317)
(0.72691 0.505647 6.69987e-317)
(1.29806 0.581347 6.28245e-317)
(1.11116 0.203361 5.70366e-317)
(1.4738 0.333975 5.2258e-317)
(1.42929 0.106223 4.71347e-317)
(1.62481 0.255253 4.22557e-317)
(1.66421 0.105973 3.74286e-317)
(1.70204 0.283223 3.2864e-317)
(1.80884 0.1084 2.86464e-317)
(1.64244 0.336301 2.49244e-317)
(1.78872 -0.038497 2.15343e-317)
(1.296 0.279553 1.84636e-317)
(1.36527 -0.64204 1.40985e-317)
(0.478031 -0.14005 8.32873e-318)
(-0.00696083 -2.04836 -5.53941e-318)
(-0.45075 -1.19536 -2.37124e-317)
(-2.59417 -2.38726 -6.44392e-317)
(0.302809 0.679389 6.70799e-316)
(0.688789 1.71018 4.86304e-316)
(2.06021 1.23307 3.64669e-316)
(2.00875 0.835474 2.75673e-316)
(2.93067 0.712889 2.18161e-316)
(2.79992 0.320864 1.74807e-316)
(3.29022 0.411774 1.42111e-316)
(3.26701 0.21396 1.14812e-316)
(3.50635 0.402194 9.14739e-317)
(3.66897 0.305037 7.05823e-317)
(3.75076 0.586581 5.16829e-317)
(4.17374 0.478307 3.44313e-317)
(4.06544 0.907363 1.90018e-317)
(4.87373 0.59364 5.85484e-318)
(4.3291 1.28044 -4.185e-318)
(5.77799 0.222341 -8.44173e-318)
(4.07214 1.32219 -7.04938e-318)
(6.7506 -1.98905 1.06546e-317)
(2.10262 -1.12005 3.3444e-317)
(6.72036 -10.4991 8.68835e-317)
(2.02208 1.38899 -2.90117e-316)
(0.0642936 0.187642 -2.16928e-316)
(0.585226 0.259834 -1.47018e-316)
(0.125329 0.0042681 -1.01766e-316)
(0.293433 0.116633 -7.03231e-317)
(0.209761 -0.00591288 -4.89013e-317)
(0.371798 0.0600568 -3.28199e-317)
(0.357696 -0.0157376 -2.04827e-317)
(0.463412 0.027229 -1.03548e-317)
(0.459858 -0.0232437 -1.74493e-318)
(0.481705 0.00817033 5.92714e-318)
(0.471992 -0.0468913 1.29965e-317)
(0.371216 -0.0324581 1.95812e-317)
(0.334455 -0.141365 2.55015e-317)
(0.0382495 -0.177681 3.01608e-317)
(-0.105443 -0.4159 3.14611e-317)
(-0.549429 -0.604501 2.80841e-317)
(-1.35897 -0.851144 1.0724e-317)
(-0.609149 -1.14494 -1.49381e-317)
(-5.60264 2.39122 -8.07712e-317)
(-0.363193 -0.449317 1.80995e-315)
(1.98649 2.42395 1.05704e-315)
(4.55358 1.14008 7.49532e-316)
(4.60045 0.94688 5.37052e-316)
(6.34337 0.628017 4.22704e-316)
(5.98886 0.254893 3.37678e-316)
(6.80672 0.306894 2.75393e-316)
(6.67138 0.148929 2.22703e-316)
(7.05738 0.324984 1.7708e-316)
(7.33595 0.279843 1.3568e-316)
(7.55084 0.553345 9.7719e-317)
(8.40861 0.520095 6.2639e-317)
(8.46855 0.944543 3.07886e-317)
(10.1633 0.755884 2.83893e-318)
(9.67942 1.46644 -1.96282e-317)
(12.6653 0.540902 -3.33318e-317)
(10.0105 1.94508 -3.74216e-317)
(15.3312 -1.86316 -2.11478e-317)
(5.01967 1.27977 1.00689e-318)
(15.7786 -13.243 4.77515e-317)
)
;

boundaryField
{
    cavity
    {
        type            myImplicitVelocity;
    }
    lid
    {
        type            fixedValue;
        value           uniform (1 0 0);
    }
    frontAndBack
    {
        type            empty;
    }
}


// ************************************************************************* //
