/*--------------------------------*- C++ -*----------------------------------*\
| =========                 |                                                 |
| \\      /  F ield         | foam-extend: Open Source CFD                    |
|  \\    /   O peration     | Version:  3.0                                   |
|   \\  /    A nd           | Web:         http://www.extend-project.de       |
|    \\/     M anipulation  |                                                 |
\*---------------------------------------------------------------------------*/
FoamFile
{
    version     2.0;
    format      ascii;
    class       volVectorField;
    location    "8";
    object      u;
}
// * * * * * * * * * * * * * * * * * * * * * * * * * * * * * * * * * * * * * //

dimensions      [0 0 0 0 0 0 0];

internalField   nonuniform List<vector> 
2688
(
(0.1217794143 -0.05131783758 1.242644516e-18)
(0.2911550427 -0.04195939824 -3.634698929e-18)
(0.4266299818 -0.03478156452 -1.281025081e-18)
(0.5278466062 -0.02906257139 2.012010786e-18)
(0.6128247163 -0.02455211966 -6.688422404e-19)
(0.6770713708 -0.02085243734 -1.599345985e-19)
(0.73350536 -0.0178557666 -1.427764998e-18)
(0.7761421888 -0.01533585702 -3.652056539e-18)
(0.8153207654 -0.01323826334 -2.753457401e-18)
(0.8445139895 -0.0114406624 -1.228481221e-18)
(0.8726676082 -0.009902642484 -9.653133759e-19)
(0.8930425529 -0.008564224541 -8.797379964e-19)
(0.9138158674 -0.007381829742 -4.966988252e-19)
(0.9281188033 -0.006341418732 -5.307319951e-18)
(0.9437421561 -0.005387442974 1.641076085e-18)
(0.9536583085 -0.004543151357 3.080937763e-18)
(0.9655468336 -0.003734077853 1.758458231e-18)
(0.9721308722 -0.003017559162 8.535783963e-19)
(0.9812058612 -0.002294526255 3.665775381e-18)
(0.9851211961 -0.00165796406 2.26291148e-18)
(0.9919857028 -0.0009794736822 -2.571475598e-19)
(0.993643127 -0.0003886329426 -1.451219365e-18)
(0.998675978 0.0002724532516 -2.031733028e-19)
(0.9983433373 0.0008757986727 -1.928213165e-18)
(0.1332686429 -0.1532907147 3.454991898e-18)
(0.3005496064 -0.1253347054 -1.631673654e-19)
(0.4344156263 -0.1038924404 -8.959713629e-18)
(0.5343525673 -0.08680772488 -1.866516272e-18)
(0.6183210543 -0.07333061967 -2.55790134e-18)
(0.6817405764 -0.06228076402 7.039838117e-19)
(0.7375035733 -0.05332493765 -1.949274499e-18)
(0.7795757302 -0.04579996461 -9.325049613e-19)
(0.8182840299 -0.03953325588 3.926726333e-18)
(0.8470748235 -0.0341659409 4.660038205e-18)
(0.8748840492 -0.02956993355 -1.924686571e-18)
(0.8949595379 -0.02557364665 -3.66698458e-18)
(0.9154680431 -0.02204027822 1.406124697e-19)
(0.9295380563 -0.01893421796 -2.498001792e-18)
(0.9449475926 -0.01608272757 -2.352168126e-18)
(0.9546746282 -0.013561469 -1.424636549e-19)
(0.9663817789 -0.01114202716 -3.88906525e-18)
(0.9728054932 -0.009002491223 -4.230220334e-18)
(0.9817185275 -0.006841503433 6.174682138e-18)
(0.9854914908 -0.004941565362 -1.177194616e-17)
(0.9922036327 -0.002912776376 5.994014339e-18)
(0.9937290095 -0.001146885817 7.159152656e-19)
(0.9986137988 0.0008284130016 4.948060266e-18)
(0.9981461279 0.002630886651 5.135471103e-18)
(0.1561043284 -0.2533352232 6.456540518e-18)
(0.3192199939 -0.2071311328 -1.744277272e-18)
(0.4498888535 -0.1716966615 -4.636260149e-18)
(0.5472825556 -0.143462285 -9.717403272e-19)
(0.6292436323 -0.1211891797 -2.646217759e-18)
(0.6910189474 -0.102927691 4.522429269e-18)
(0.7454470924 -0.08812368698 -4.843969574e-18)
(0.7863977753 -0.0756883587 5.631779352e-18)
(0.8241720098 -0.06533188241 -5.25114454e-18)
(0.8521635459 -0.05646297877 7.93318263e-18)
(0.8792882869 -0.04886670316 5.106342826e-18)
(0.8987687903 -0.0422625181 3.135439999e-18)
(0.9187509498 -0.036422158 4.182629054e-18)
(0.9323583293 -0.03128929398 -6.102484513e-18)
(0.947342994 -0.02657607669 4.047513784e-18)
(0.956694512 -0.02240968803 -9.713372398e-18)
(0.968041215 -0.01841037414 1.947926403e-17)
(0.9741462733 -0.01487466568 -1.623631012e-17)
(0.9827371844 -0.01130268672 -1.250104708e-17)
(0.9862269564 -0.008163271901 1.18686565e-17)
(0.9926367155 -0.004810195574 2.961811839e-18)
(0.9938994168 -0.001891688745 -1.879187952e-17)
(0.9984899824 0.001373697118 -7.750618678e-18)
(0.9977535572 0.004352810991 1.120355006e-17)
(0.1899981079 -0.3501955165 -9.756528685e-21)
(0.3469320667 -0.2863237523 -5.435523894e-18)
(0.4728595751 -0.2373410329 -5.726320646e-18)
(0.5664768344 -0.1983124658 3.497005577e-19)
(0.6454581829 -0.1675223752 -7.300227955e-18)
(0.7047903033 -0.1422789258 4.01482569e-18)
(0.7572373792 -0.1218128588 -6.339842283e-18)
(0.7965240553 -0.1046232321 -1.356837644e-18)
(0.8329124565 -0.0903072205 -3.083808627e-18)
(0.8597173321 -0.0780483155 -5.276230474e-18)
(0.8858256447 -0.06754761356 -1.500819502e-17)
(0.9044225504 -0.05841881969 -5.295680792e-18)
(0.923623305 -0.05034517868 1.105991706e-17)
(0.9365439843 -0.04325016086 1.647523729e-18)
(0.9508980807 -0.03673454162 2.038691886e-18)
(0.9596921843 -0.03097534837 -8.31227401e-18)
(0.9705037562 -0.02544642078 -1.176763511e-17)
(0.9761357413 -0.02055895616 5.066375279e-18)
(0.9842486329 -0.01562098565 -3.329633653e-18)
(0.9873184448 -0.0112815931 -1.811138918e-17)
(0.9932795073 -0.006646480683 9.752758349e-18)
(0.9941518913 -0.002612095353 1.785911357e-17)
(0.9983053862 0.001902087756 -1.848275988e-17)
(0.9971706502 0.006020528624 2.191313684e-17)
(0.2345223015 -0.442650966 -4.463641067e-19)
(0.383334368 -0.3619146491 5.968257458e-18)
(0.5030343247 -0.3000013651 1.08379208e-17)
(0.5916902712 -0.2506694838 8.030309415e-19)
(0.6667567581 -0.2117503092 -1.065644641e-18)
(0.7228797352 -0.1798421282 1.116329759e-18)
(0.772724097 -0.1539713174 -5.247948034e-18)
(0.8098254882 -0.132243607 -5.866226474e-18)
(0.8443936978 -0.1141480757 -8.406667593e-19)
(0.8696403112 -0.09865332959 1.360969816e-17)
(0.8944135701 -0.0853801039 -7.389146565e-19)
(0.9118500188 -0.07384136142 5.933000472e-18)
(0.9300242469 -0.06363578296 -4.555798011e-18)
(0.9420429428 -0.05466775224 9.091960286e-18)
(0.9555685826 -0.04643161551 -2.644050914e-17)
(0.9636304979 -0.03915207869 -8.173885469e-18)
(0.9737390329 -0.03216305929 2.023653172e-17)
(0.9787496161 -0.02598529498 1.840404387e-18)
(0.9862345637 -0.0197433172 1.072271185e-17)
(0.9887526304 -0.01425852297 9.123805907e-18)
(0.9941243056 -0.008399614971 -1.496352123e-18)
(0.9944836929 -0.003300157006 5.370802477e-18)
(0.9980631193 0.002406106755 -2.954994715e-17)
(0.9964047244 0.007612066132 3.246954824e-17)
(0.2891187134 -0.5295405438 -1.679592595e-17)
(0.4279731024 -0.432955414 -1.4296262e-20)
(0.5400370574 -0.3588889609 2.707514875e-18)
(0.6226086701 -0.2998740822 -5.108115475e-19)
(0.6928745117 -0.2533144971 -1.083091854e-17)
(0.7450616796 -0.2151430096 1.356673689e-18)
(0.7917147651 -0.1841927395 2.075007421e-18)
(0.826136263 -0.158200188 -2.63145387e-17)
(0.858472583 -0.136552618 -1.606130505e-17)
(0.8818081132 -0.1180169007 2.489706421e-18)
(0.9049441887 -0.1021381714 -1.428910361e-18)
(0.9209573927 -0.08833470352 2.917329708e-18)
(0.9378728056 -0.07612564584 -2.609540032e-19)
(0.9487853332 -0.06539743319 1.502758087e-17)
(0.9612950857 -0.05554438471 -8.793962514e-18)
(0.9684590791 -0.04683603354 3.464484311e-17)
(0.9777054923 -0.03847483243 1.418949957e-17)
(0.981954057 -0.03108444991 2.466605996e-19)
(0.9886690165 -0.0236170218 -9.147046575e-18)
(0.990510683 -0.01705577099 1.30789073e-18)
(0.9951596439 -0.01004679845 4.551936459e-18)
(0.9948901645 -0.003946327809 2.104005386e-17)
(0.9977655986 0.002880138839 1.587569184e-17)
(0.9954652951 0.009108265585 -2.692926849e-17)
(0.3531000432 -0.6097700479 -8.210245128e-18)
(0.4802837835 -0.4985508335 -7.130571808e-18)
(0.5833991671 -0.4132635076 1.425531116e-17)
(0.6588403452 -0.3453076425 -1.146413387e-17)
(0.7234803349 -0.2916938163 -8.896477705e-18)
(0.7710555872 -0.2477389615 1.005939493e-17)
(0.8139687948 -0.2120987046 6.866618434e-19)
(0.8452500822 -0.1821681218 -6.348056433e-18)
(0.8749708981 -0.1572407364 3.352742852e-17)
(0.8960671891 -0.1358970179 -2.145491383e-17)
(0.9172847215 -0.117612382 -5.861931783e-18)
(0.9316302867 -0.1017176662 1.123219884e-17)
(0.9470705024 -0.08765858751 -3.211299613e-18)
(0.9566868873 -0.07530504809 1.924198175e-20)
(0.9680061047 -0.06395896191 -1.651563939e-17)
(0.9741179592 -0.05393130122 -1.497190371e-17)
(0.9823540492 -0.04430305082 -2.207077025e-17)
(0.9857096747 -0.03579299584 -4.458672343e-18)
(0.9915222935 -0.02719397848 -5.269686214e-18)
(0.9925712313 -0.0196387705 -9.231831646e-18)
(0.9963732697 -0.01156778244 -2.512334113e-17)
(0.9953666282 -0.00454305935 -2.77794174e-17)
(0.9974171538 0.003317752204 -1.89711862e-17)
(0.9943643102 0.01048958806 -4.063790481e-17)
(0.4256623554 -0.6823319746 -1.862721477e-18)
(0.5396112568 -0.5578776417 -9.134648306e-18)
(0.6325777323 -0.4624413219 -6.593001441e-18)
(0.6999321296 -0.3863989159 3.722267237e-18)
(0.7581917416 -0.3264046037 6.517720172e-18)
(0.8005363302 -0.2772193035 -1.520602112e-17)
(0.839208124 -0.2373371126 -2.480610354e-18)
(0.8669277621 -0.2038449686 6.958569364e-18)
(0.8936822545 -0.1759511341 2.039109252e-18)
(0.9122387139 -0.152067873 7.971902518e-18)
(0.9312803287 -0.1316072763 8.965567184e-18)
(0.9437343694 -0.1138212819 -7.009684794e-18)
(0.9575014866 -0.09808902206 -1.537851041e-17)
(0.9656477246 -0.08426555703 3.569058657e-18)
(0.9756166983 -0.07156912653 2.01016379e-17)
(0.9805351767 -0.06034826693 -5.173390401e-18)
(0.9876254069 -0.04957406358 2.103316451e-17)
(0.989968283 -0.04005135703 3.259386771e-18)
(0.9947575298 -0.03042893586 2.565961275e-18)
(0.9949075072 -0.02197472661 3.777918838e-18)
(0.9977490381 -0.01294321547 5.051400194e-17)
(0.9959065816 -0.005082452548 -2.184028715e-17)
(0.997021553 0.003713818072 -9.614215542e-18)
(0.9931154499 0.01173931909 -2.30636403e-17)
(0.5058924534 -0.7463125156 -2.084300297e-17)
(0.6052070604 -0.6101880932 -1.673015489e-17)
(0.6869521691 -0.5058034548 3.409916127e-18)
(0.7453651148 -0.422630741 1.603881123e-17)
(0.796570283 -0.3570109065 1.207410341e-17)
(0.8331317004 -0.3032136438 -1.39928879e-17)
(0.8671138859 -0.2595913342 -8.3068334e-18)
(0.8908957067 -0.222958701 1.32322771e-17)
(0.9143704225 -0.1924492419 -3.441894577e-18)
(0.930118898 -0.1663266321 -4.014420605e-18)
(0.9467546949 -0.143947349 -7.556124413e-18)
(0.957117551 -0.1244936307 2.056528775e-17)
(0.9690347887 -0.1072859986 -1.519460252e-17)
(0.97555571 -0.09216637489 -1.417324099e-18)
(0.9840317607 -0.07827924399 -8.779758542e-18)
(0.9876309003 -0.06600626115 -5.833286006e-18)
(0.9934541874 -0.05422159078 -1.260136335e-17)
(0.9946773619 -0.0438059991 2.019745019e-17)
(0.9983350949 -0.03328119524 1.853336862e-17)
(0.997491042 -0.02403435308 -3.620691373e-18)
(0.999270558 -0.01415587516 -1.074482127e-17)
(0.9965037674 -0.005557992581 7.341709758e-18)
(0.9965843775 0.004063088627 3.199927925e-17)
(0.9917346002 0.01284116963 -4.819939187e-17)
(0.5927819661 -0.8009084577 1.111704245e-17)
(0.6762483653 -0.6548259308 -2.290128298e-17)
(0.745840603 -0.5428053053 4.157528325e-17)
(0.794570066 -0.4535481062 -1.429553961e-17)
(0.8381352261 -0.3831276301 1.055570538e-17)
(0.8684333741 -0.3253950349 -1.237267126e-17)
(0.8973366311 -0.2785810254 -6.124050455e-18)
(0.9168535638 -0.2392686726 2.318866172e-18)
(0.9367761874 -0.2065271556 8.402284971e-18)
(0.9494833785 -0.1784937834 -1.510391115e-17)
(0.9635135886 -0.1544772193 6.996854544e-18)
(0.9716114769 -0.1336005066 3.57297406e-18)
(0.9815252249 -0.1151339028 -1.828465403e-17)
(0.9862857442 -0.0989083172 -1.062714406e-17)
(0.9931449024 -0.08400511997 -4.800277464e-18)
(0.9953150503 -0.07083437389 -2.232794793e-17)
(0.9997661962 -0.05818742911 8.746463159e-18)
(0.9997766697 -0.04700992716 -3.322733783e-17)
(1.002208964 -0.03571511022 -4.054469301e-18)
(1.000288438 -0.0257918674 -1.909235416e-19)
(1.000917783 -0.01519064989 2.237504985e-17)
(0.9971501106 -0.005963633621 -2.855861711e-17)
(0.9961105016 0.00436128359 2.99684689e-17)
(0.9902389175 0.01378174375 2.340763173e-17)
(0.6852374834 -0.8454318773 1.159754957e-17)
(0.7518398239 -0.6912282549 9.014457034e-18)
(0.8085007225 -0.5729806673 1.513225761e-17)
(0.8469262568 -0.4787614874 -1.399335319e-17)
(0.8823621289 -0.4044262995 9.756661221e-18)
(0.905995865 -0.3434843568 -6.73064313e-18)
(0.9294948592 -0.2940675957 -1.314065316e-17)
(0.9444738078 -0.2525697918 -1.025578522e-17)
(0.9606168136 -0.2180080339 -1.194956224e-17)
(0.9700880701 -0.1884162904 -2.846036852e-17)
(0.9813458229 -0.1630644707 -1.299017455e-17)
(0.9870338445 -0.1410271771 1.243946747e-17)
(0.9948157989 -0.1215338114 -1.464207406e-19)
(0.9977033328 -0.1044062172 2.664656827e-17)
(1.002842047 -0.08867434915 2.456667135e-17)
(1.00349182 -0.07477141274 1.877439739e-17)
(1.006482942 -0.0614212317 -4.48644656e-18)
(1.005203113 -0.04962238267 5.373166094e-17)
(1.006331478 -0.03769962064 -1.53970704e-17)
(1.003265471 -0.02722484336 -5.64691237e-18)
(1.002670953 -0.01603424693 -1.804875022e-17)
(0.9978380861 -0.006294252811 -6.934444637e-17)
(0.9956065185 0.00460460253 1.801855484e-17)
(0.9886474359 0.01454878221 -9.641673119e-18)
(0.7820971229 -0.8793242263 9.479291924e-18)
(0.8310326833 -0.7189387912 -2.788772273e-18)
(0.8741462463 -0.5959510485 7.50420425e-18)
(0.9017771711 -0.4979546435 -1.513653809e-17)
(0.9286964664 -0.4206393196 5.081642036e-18)
(0.945348315 -0.3572544524 1.961862216e-17)
(0.9631855145 -0.3058562505 -5.162092428e-18)
(0.973410169 -0.2626949444 2.895402211e-17)
(0.985593421 -0.2267474941 2.746366063e-17)
(0.9916744281 -0.1959696109 1.717659074e-17)
(1.000027574 -0.1696013252 -9.584941318e-18)
(1.003190761 -0.1466806868 1.407650201e-18)
(1.008739306 -0.1264057062 -7.947778267e-18)
(1.009664468 -0.1085915778 1.108159629e-19)
(1.013000728 -0.09222888184 -3.146022564e-17)
(1.012057551 -0.07776863982 -5.817103338e-17)
(1.013519054 -0.06388309796 -1.219540439e-17)
(1.010887376 -0.05161126996 -3.167698549e-18)
(1.010649684 -0.03921046398 -2.716063875e-17)
(1.006383681 -0.02831579392 -3.036277528e-17)
(1.004507004 -0.01667649557 3.549144032e-17)
(0.9985583685 -0.006545847424 -1.680758639e-18)
(0.9950780742 0.004789950819 3.911384571e-17)
(0.9869798949 0.01513302556 1.086334818e-18)
(0.8821419196 -0.9021579504 7.243224765e-18)
(0.912829225 -0.7376076197 -9.350261738e-18)
(0.9419499693 -0.611426566 1.071277404e-18)
(0.9584311663 -0.5108853949 -1.878286958e-17)
(0.9765539051 -0.4315624747 8.235796608e-19)
(0.9859942781 -0.3665317682 9.109153351e-18)
(0.9979835266 -0.3137986781 -9.792314599e-18)
(1.00329761 -0.2695165611 -1.530826984e-17)
(1.011390935 -0.2326355557 2.550424699e-18)
(1.013970334 -0.2010584518 -9.543910578e-20)
(1.019323407 -0.1740053076 6.104880928e-18)
(1.019878888 -0.1504894357 -3.74805015e-18)
(1.023120621 -0.1296877854 -3.346792104e-17)
(1.022019048 -0.1114110291 3.400068295e-17)
(1.023493613 -0.09462323649 -1.190605759e-17)
(1.020905266 -0.07978744425 3.302954247e-17)
(1.020786873 -0.06554113623 8.509696255e-18)
(1.016759007 -0.05295062475 2.827230472e-17)
(1.015110358 -0.04022774712 3.117705759e-17)
(1.009604893 -0.02905026262 1.398609802e-18)
(1.006403893 -0.01710871939 4.469508466e-18)
(0.9993026208 -0.00671498921 6.123532541e-18)
(0.9945325498 0.004915086699 -4.066721794e-20)
(0.9852575798 0.01552674173 -2.83517826e-17)
(0.9841147087 -0.9136472086 1.161090053e-18)
(0.9962025695 -0.7470013343 -5.459542043e-18)
(1.011060873 -0.6192136075 -1.870278875e-17)
(1.016177592 -0.5173919359 8.137830276e-18)
(1.025334202 -0.4370587811 1.05302371e-18)
(1.027424135 -0.3712000418 -1.407155931e-18)
(1.033452634 -0.3177951101 3.047596319e-18)
(1.033761429 -0.2729491329 9.048810839e-18)
(1.037685918 -0.2355983115 -4.426341752e-19)
(1.036696111 -0.2036191912 -1.275509635e-17)
(1.03899122 -0.1762213908 -3.334929856e-18)
(1.036888612 -0.1524061314 -8.622676887e-18)
(1.037779019 -0.1313394345 1.122934769e-17)
(1.034611516 -0.1128300098 -1.207547999e-17)
(1.034188454 -0.09582828327 8.435828812e-18)
(1.029923083 -0.08080360553 -1.403238127e-17)
(1.028194296 -0.06637572309 -5.889670261e-18)
(1.022743211 -0.0536248891 -2.84513179e-18)
(1.019656385 -0.04073991583 -3.009592867e-17)
(1.012887558 -0.02942008564 1.160991065e-17)
(1.008336707 -0.01732637087 9.223993111e-19)
(1.000060713 -0.006800049716 2.131699948e-18)
(0.993976012 0.004978198434 2.125155176e-18)
(0.9835017963 0.01572530304 3.246707148e-19)
(1.086732072 -0.9136462732 -2.288544932e-18)
(1.080102507 -0.7470005432 -2.261688294e-18)
(1.080608211 -0.6192132917 -2.168291187e-17)
(1.07428849 -0.5173917002 1.088618061e-17)
(1.074422354 -0.4370587322 1.442332225e-18)
(1.069115376 -0.3712001682 3.931269651e-18)
(1.069145488 -0.317795141 -2.718544206e-18)
(1.064417398 -0.2729491983 7.599553544e-18)
(1.064146752 -0.2355983331 -4.233217003e-18)
(1.05956527 -0.2036192354 -1.461774019e-17)
(1.058783129 -0.1762213283 -1.616766466e-17)
(1.054005738 -0.1524060446 5.049434917e-18)
(1.052529982 -0.1313391891 1.545015602e-17)
(1.047283613 -0.1128297268 -1.965359442e-17)
(1.044950944 -0.09582780045 -1.504788034e-17)
(1.038998086 -0.08080304782 1.348715042e-17)
(1.035648733 -0.06637495075 -2.25309839e-18)
(1.028765564 -0.05362405415 -7.840764787e-19)
(1.024231475 -0.04073898705 -6.557860011e-18)
(1.016191353 -0.02941918859 -1.538435635e-17)
(1.010282099 -0.01732545959 -5.682423951e-18)
(1.000823837 -0.006799120376 -2.900437757e-18)
(0.9934161822 0.004979013788 -2.566771287e-17)
(0.9817348799 0.01572607075 2.380526692e-17)
(1.188704679 -0.9021563136 -5.681538362e-18)
(1.163475662 -0.7376063751 5.882068819e-18)
(1.14971901 -0.6114264704 -1.487951308e-17)
(1.132034801 -0.5108853301 -5.631437343e-18)
(1.123202575 -0.4315626531 -1.221288338e-18)
(1.110545188 -0.3665324598 -4.165250901e-18)
(1.104614514 -0.3137988605 2.584812216e-18)
(1.094881143 -0.2695169785 -1.836502466e-17)
(1.090441645 -0.2326357385 -1.916158339e-17)
(1.082290987 -0.201058915 4.336310921e-19)
(1.078450875 -0.174005451 2.315674701e-17)
(1.07101543 -0.1504897542 1.08321504e-18)
(1.067188343 -0.1296877139 3.833626867e-18)
(1.059876083 -0.1114111191 -2.830713684e-18)
(1.05564578 -0.09462288695 1.189127654e-18)
(1.048015929 -0.07978714826 1.872318359e-17)
(1.043056173 -0.06554038941 4.744913482e-18)
(1.034749806 -0.05294988334 1.62921958e-17)
(1.028777554 -0.04022683792 7.73603036e-18)
(1.019474067 -0.0290494025 2.797420463e-17)
(1.012214979 -0.01710771661 4.274546192e-18)
(1.00158193 -0.006713529866 1.49565821e-17)
(0.9928596738 0.004916543288 -5.99459022e-18)
(0.9799790772 0.0155288118 -1.447658772e-17)
(1.288748968 -0.879320789 -4.11605359e-18)
(1.245271878 -0.7189359775 7.837566621e-18)
(1.217522569 -0.5959503089 -6.08819468e-18)
(1.188688684 -0.4979540889 3.06062391e-18)
(1.17105997 -0.4206393648 -5.152304605e-19)
(1.151191168 -0.3572553329 1.441965932e-18)
(1.13941247 -0.3058564272 9.397677614e-18)
(1.124768501 -0.2626954191 1.100259717e-17)
(1.116239034 -0.226747656 1.554649133e-17)
(1.10458675 -0.1959701063 1.769555633e-17)
(1.097746518 -0.1696013048 5.512218735e-18)
(1.087703344 -0.146680808 -1.00333638e-17)
(1.081569389 -0.1264051453 2.430492687e-19)
(1.072230371 -0.1085911266 -7.782956008e-18)
(1.0661383 -0.09222762678 -1.810229182e-17)
(1.056863242 -0.07776732108 -1.760918502e-17)
(1.050323503 -0.06388094011 -8.457217327e-18)
(1.040620926 -0.05160901842 -2.982513544e-17)
(1.03323766 -0.0392078779 6.797738669e-18)
(1.02269475 -0.02831330885 -2.499612039e-17)
(1.014111274 -0.01667382324 -2.089159686e-18)
(1.002325593 -0.00654264038 2.80924878e-18)
(0.9923135099 0.004792961191 -2.018069136e-17)
(0.9782560723 0.01513658399 4.474096509e-17)
(1.385608011 -0.8454278215 -1.35060777e-18)
(1.324464145 -0.6912250111 1.36210941e-17)
(1.283167764 -0.5729800641 2.669428271e-18)
(1.243539256 -0.4787610313 -1.572274806e-19)
(1.217394095 -0.4044264323 -3.437141518e-18)
(1.190543504 -0.3434856283 -1.395824859e-17)
(1.173102896 -0.2940677345 5.499907719e-18)
(1.15370465 -0.2525704229 -8.601309231e-18)
(1.14121537 -0.2180081729 -9.791211732e-18)
(1.126172914 -0.1884170198 -9.784575555e-18)
(1.11642804 -0.1630644861 4.973729145e-18)
(1.103860129 -0.1410275276 -1.117771327e-17)
(1.095492733 -0.1215332547 2.155109613e-18)
(1.084191451 -0.1044059563 -9.107321698e-18)
(1.076296884 -0.08867304763 3.932097852e-17)
(1.06542896 -0.07477016725 1.870684414e-17)
(1.057359558 -0.06141892481 1.588620412e-17)
(1.046305188 -0.04962005393 -1.238005766e-18)
(1.037555893 -0.03769691717 4.610698692e-18)
(1.025813007 -0.02722228214 -4.543603319e-18)
(1.015947408 -0.01603144732 -1.527070173e-17)
(1.003045812 -0.006290564416 -6.323124215e-18)
(0.9917850812 0.004608117993 -3.952026165e-17)
(0.9765883978 0.0145534048 1.000062419e-19)
(1.478062584 -0.8009028181 -2.580217981e-18)
(1.400055025 -0.6548212315 1.529569843e-18)
(1.345827592 -0.5428040811 1.308476429e-17)
(1.295895258 -0.4535471771 -4.136963978e-18)
(1.261620966 -0.3831275953 -7.110705877e-18)
(1.228106075 -0.3253963772 -3.786773145e-18)
(1.205261059 -0.2785810325 6.265287014e-18)
(1.181324751 -0.2392692225 -3.608646437e-18)
(1.165055761 -0.2065271638 -7.311846752e-18)
(1.146777329 -0.1784944575 1.879592852e-17)
(1.134259911 -0.1544770288 -5.79595657e-18)
(1.119282101 -0.133600654 -1.344444025e-17)
(1.108782815 -0.1151329098 1.947772852e-17)
(1.095608527 -0.09890762046 5.851219023e-19)
(1.085993393 -0.08400310192 -1.882229442e-17)
(1.07360505 -0.07083236889 7.062400708e-18)
(1.064075483 -0.05818406938 -1.54552253e-17)
(1.051730784 -0.04700650522 -2.627980667e-17)
(1.041677495 -0.03571118515 2.737522742e-19)
(1.028789177 -0.02578811405 1.582390989e-18)
(1.017699642 -0.01518657685 1.171140432e-17)
(1.003732812 -0.005958536056 2.113596911e-17)
(0.9912800818 0.004366087338 2.653539559e-18)
(0.9749958346 0.01378766366 -1.441656597e-17)
(1.564951179 -0.7463064083 -9.513655885e-18)
(1.471095391 -0.6101830349 2.156817628e-18)
(1.404715464 -0.5058022455 -2.908673445e-18)
(1.34509966 -0.4226298508 6.09112766e-18)
(1.303185612 -0.3570107707 -5.184624034e-18)
(1.26340765 -0.3032151172 1.680710239e-18)
(1.235483518 -0.2595910184 5.33908091e-18)
(1.20728234 -0.222959115 -6.578364823e-18)
(1.187461139 -0.1924489769 -6.658108371e-19)
(1.16614153 -0.1663273009 4.512037799e-18)
(1.151018447 -0.1439470021 -6.37041914e-18)
(1.133775802 -0.1244938149 6.558407319e-19)
(1.121272951 -0.1072848494 3.123764574e-18)
(1.106338402 -0.09216569768 -9.992367059e-18)
(1.09510628 -0.07827703727 3.055723118e-18)
(1.081289047 -0.06600418212 4.526571624e-18)
(1.070387238 -0.05421796365 9.750437765e-18)
(1.056829918 -0.04380237063 5.660038682e-18)
(1.045551205 -0.03327702677 -8.724476102e-18)
(1.031586469 -0.02403037189 -2.050229468e-18)
(1.019346788 -0.01415155648 -1.086111404e-17)
(1.004378897 -0.005552373369 4.945863664e-18)
(0.9908060575 0.004068372262 -7.226751545e-18)
(0.9734997501 0.01284799381 2.664100832e-18)
(1.64518 -0.6823246123 1.154416872e-18)
(1.536690478 -0.5578713136 1.487237229e-18)
(1.459089516 -0.4624395861 -3.743439531e-18)
(1.390532403 -0.386397699 -3.193755843e-19)
(1.341564207 -0.3264043764 -1.444953275e-19)
(1.296003233 -0.2772207809 -4.384188471e-18)
(1.263389309 -0.2373365797 2.590831278e-18)
(1.231250169 -0.2038452087 6.482891505e-18)
(1.208149054 -0.1759507011 -6.712511525e-18)
(1.184021395 -0.1520684915 6.408869206e-18)
(1.166492375 -0.1316067869 3.594447132e-18)
(1.147158518 -0.1138213625 -1.034417963e-17)
(1.132805662 -0.09808759709 1.76925489e-18)
(1.1162458 -0.08426465125 9.010915237e-18)
(1.103520599 -0.07156650043 7.719402556e-19)
(1.088383998 -0.06034579926 -8.34510342e-19)
(1.076215074 -0.0495698544 1.012086572e-17)
(1.061538034 -0.04004716068 1.546001106e-18)
(1.049127753 -0.030424095 3.311697824e-19)
(1.034169029 -0.02197009098 -2.648145048e-18)
(1.020867261 -0.01293815842 2.118787047e-17)
(1.004974938 -0.005075987224 1.628574963e-17)
(0.990367743 0.003719889979 2.437213153e-17)
(0.9721176744 0.01174701637 -3.294492043e-18)
(1.717741193 -0.6097625127 3.920235749e-19)
(1.596016689 -0.4985442916 2.485555314e-18)
(1.508267183 -0.4132616286 -2.477088785e-18)
(1.431623317 -0.3453064629 -1.285576721e-18)
(1.376275141 -0.2916932855 -3.455010757e-18)
(1.325483872 -0.2477402405 5.094388987e-18)
(1.288628312 -0.2120974846 2.746014035e-18)
(1.252927565 -0.1821678487 4.707321365e-18)
(1.226859963 -0.1572397457 5.724409534e-18)
(1.200192617 -0.135897376 -1.632612858e-18)
(1.180487567 -0.1176115719 5.887703443e-18)
(1.159262341 -0.1017176254 1.040415815e-18)
(1.14323626 -0.08765691333 -8.224534649e-18)
(1.125206396 -0.0753040644 -5.158233265e-19)
(1.111130792 -0.06395610848 -5.64170626e-18)
(1.094800908 -0.05392872381 1.118357719e-18)
(1.081485965 -0.04429857852 -1.582288081e-17)
(1.065796247 -0.03578857042 -1.27486334e-18)
(1.052362576 -0.02718883222 -1.511308151e-18)
(1.036504936 -0.01963379134 -2.165375037e-18)
(1.022242647 -0.01156238222 -6.80783986e-18)
(1.005514306 -0.004536060086 -6.722211567e-18)
(0.9899716771 0.003324290671 -6.400147887e-18)
(0.9708680206 0.01049805699 -2.457878305e-18)
(1.781721278 -0.5295322485 -1.100919092e-18)
(1.648326765 -0.4329477707 7.895643296e-19)
(1.551628894 -0.3588866921 -3.639264066e-18)
(1.467854573 -0.2998728573 2.179021847e-18)
(1.406880948 -0.2533140761 -2.723493733e-18)
(1.351477935 -0.215144289 1.764173457e-18)
(1.310882365 -0.1841912412 2.468447833e-18)
(1.272041223 -0.1581996825 -3.902377808e-18)
(1.243357972 -0.1365514853 -5.372601794e-18)
(1.214451315 -0.1180172948 -8.062015096e-19)
(1.19282758 -0.1021373587 2.229575432e-18)
(1.169934699 -0.08833471185 1.028938519e-18)
(1.152433267 -0.07612388565 6.543707267e-18)
(1.13310729 -0.06539642644 -2.045904651e-18)
(1.117840963 -0.05554138811 3.575749414e-18)
(1.100458937 -0.04683338739 4.723557716e-18)
(1.086133465 -0.03847017437 1.07876708e-18)
(1.069550811 -0.03107987175 -9.014168583e-20)
(1.055214738 -0.02361162561 -3.598124488e-18)
(1.038564425 -0.01705058448 3.307245142e-20)
(1.023455158 -0.01004118961 -3.064469883e-18)
(1.005989565 -0.003939127144 1.563114559e-17)
(0.9896221033 0.002886897587 2.089113189e-18)
(0.9697657944 0.009117078733 7.708447281e-18)
(1.836316577 -0.4426430478 2.744739799e-18)
(1.692963981 -0.361906863 3.480785386e-18)
(1.588630394 -0.2999986425 6.157792398e-19)
(1.498771535 -0.2506682373 1.630897478e-18)
(1.432997619 -0.2117493097 2.917758028e-18)
(1.37365935 -0.179842776 4.970356206e-19)
(1.329872314 -0.153968682 -1.994011038e-18)
(1.288351421 -0.1322420851 -7.026515532e-19)
(1.257436161 -0.114146024 2.819415035e-18)
(1.226618657 -0.09865312577 6.616988701e-19)
(1.203357643 -0.08537875242 4.261620785e-18)
(1.179041702 -0.07384102988 -1.278598191e-18)
(1.160281294 -0.06363364434 -5.243779812e-19)
(1.139849291 -0.05466653253 -4.108098111e-18)
(1.123566872 -0.04642833464 1.197370345e-18)
(1.105287004 -0.03914926541 3.745427698e-18)
(1.090099213 -0.03215813483 3.015046024e-19)
(1.072754593 -0.02598047149 6.162462535e-19)
(1.057648489 -0.01973760687 2.325883544e-18)
(1.040321813 -0.01425301163 2.251062819e-18)
(1.024489817 -0.008393779895 -1.360003481e-18)
(1.006395144 -0.003292638735 -3.908811069e-18)
(0.989323833 0.002413141315 2.36243277e-18)
(0.9688252315 0.007621400245 2.631317862e-18)
(1.880839693 -0.3501874038 2.612832282e-18)
(1.729365983 -0.2863148384 -1.02113097e-18)
(1.618805401 -0.2373380273 -4.466507589e-19)
(1.52398448 -0.1983114293 1.097018198e-18)
(1.454295893 -0.1675218015 2.027700133e-18)
(1.391748392 -0.1422797293 -1.812628896e-18)
(1.345358667 -0.1218099922 1.48346592e-19)
(1.301652419 -0.1046215423 -1.067183425e-19)
(1.268916935 -0.09030519026 8.868605052e-19)
(1.236541146 -0.07804836372 -1.520162775e-18)
(1.211944912 -0.06754648503 -1.130338064e-18)
(1.186468494 -0.05841872394 8.668513179e-19)
(1.166681365 -0.05034313991 3.267924924e-19)
(1.145347439 -0.04324908717 -9.185976469e-19)
(1.128236356 -0.03673133984 3.769788008e-18)
(1.109224331 -0.03097270976 -2.733221092e-18)
(1.093333263 -0.02544162082 -3.16550758e-18)
(1.075367272 -0.02055430063 1.99899731e-18)
(1.059633171 -0.01561538528 3.066638136e-19)
(1.041754905 -0.0112762752 4.34548819e-19)
(1.025333497 -0.006640927493 -1.657355517e-18)
(1.006725745 -0.002604943958 3.384188661e-18)
(0.9890804687 0.001908901019 -3.377861954e-18)
(0.9680580602 0.006029754013 -3.040414209e-18)
(1.914731509 -0.2533281074 2.725429769e-18)
(1.757075942 -0.2071223613 2.927823397e-21)
(1.641775349 -0.1716928078 -2.351925661e-19)
(1.543177201 -0.1434607848 7.549858072e-19)
(1.470508707 -0.1211876228 1.213466825e-18)
(1.405518318 -0.1029274396 2.673756919e-19)
(1.357147327 -0.08811947937 8.520563858e-19)
(1.311777556 -0.0756853537 -4.201745347e-19)
(1.277656457 -0.06532874572 5.851086875e-19)
(1.244094483 -0.0564621594 -5.303153981e-19)
(1.218481822 -0.04886484762 2.046650754e-18)
(1.192122019 -0.04226188422 2.567422137e-19)
(1.171553299 -0.03641966496 1.830694806e-19)
(1.149532794 -0.03128794005 1.773920768e-18)
(1.131790888 -0.02657260636 1.52523636e-18)
(1.112221498 -0.02240687726 -3.948601857e-19)
(1.095795061 -0.01840536239 -8.108559045e-19)
(1.077356036 -0.01486984383 -2.769246063e-19)
(1.061143892 -0.01129693574 8.83045382e-19)
(1.042845734 -0.00815780099 -7.97620609e-19)
(1.025975643 -0.004804597636 -1.483845279e-18)
(1.006977287 -0.001884432681 -1.183834023e-18)
(0.9888950585 0.001380639065 1.003088905e-18)
(0.9674738597 0.004362283188 -2.538174123e-18)
(1.937565097 -0.153283158 1.582710098e-18)
(1.77574451 -0.1253253184 4.203184504e-19)
(1.657250531 -0.1038885857 -6.076508224e-19)
(1.556107522 -0.08680618054 1.966717423e-19)
(1.481431431 -0.07332959146 8.925107973e-19)
(1.414795246 -0.0622808943 3.974804615e-19)
(1.365089393 -0.05332094486 6.66384688e-19)
(1.318598889 -0.04579747312 -8.401008655e-20)
(1.283544267 -0.03953084598 1.046048976e-18)
(1.249183173 -0.03416595101 4.207912568e-20)
(1.222885708 -0.02956873451 6.050432929e-19)
(1.195930794 -0.02557354702 6.685154363e-19)
(1.174835467 -0.022038145 3.243711891e-19)
(1.152352451 -0.0189332234 3.821606924e-19)
(1.134185492 -0.01607959747 1.060438562e-18)
(1.114240636 -0.01355911512 -8.284337712e-20)
(1.097453438 -0.01113752824 -9.331657117e-19)
(1.078695757 -0.008998272891 -5.096166116e-19)
(1.062161506 -0.006836370391 2.773795523e-19)