/*--------------------------------*- C++ -*----------------------------------*\
| =========                 |                                                 |
| \\      /  F ield         | foam-extend: Open Source CFD                    |
|  \\    /   O peration     | Version:  3.0                                   |
|   \\  /    A nd           | Web:         http://www.extend-project.de       |
|    \\/     M anipulation  |                                                 |
\*---------------------------------------------------------------------------*/
FoamFile
{
    version     2.0;
    format      ascii;
    class       volScalarField;
    location    "73";
    object      p;
}
// * * * * * * * * * * * * * * * * * * * * * * * * * * * * * * * * * * * * * //

dimensions      [0 0 0 0 0 0 0];

internalField   nonuniform List<scalar> 
2688
(
-0.2351943251
-0.2158885587
-0.2043643174
-0.1911891207
-0.1839692495
-0.1746482616
-0.1701894764
-0.1634614333
-0.160841595
-0.1559318347
-0.1545453874
-0.1509332302
-0.1503447379
-0.1476476854
-0.1475125205
-0.1454221407
-0.1454386739
-0.1436809392
-0.143558401
-0.1418657865
-0.1412998178
-0.1393885769
-0.1380399009
-0.1355885265
-0.2344729339
-0.2152278235
-0.2037400838
-0.1906065301
-0.1834098356
-0.1741186345
-0.169674468
-0.1629682476
-0.1603573156
-0.1554638327
-0.1540824934
-0.1504826654
-0.1498968368
-0.1472093187
-0.1470754431
-0.1449927195
-0.1450101009
-0.1432589366
-0.1431376933
-0.1414513051
-0.1408880041
-0.138983482
-0.1376399638
-0.1351968468
-0.2330218053
-0.2138970407
-0.2024815278
-0.1894302311
-0.1822791092
-0.1730461554
-0.1686304648
-0.1619662831
-0.1593724451
-0.1545095972
-0.1531377019
-0.149560325
-0.1489789568
-0.1463080882
-0.1461758038
-0.1441058794
-0.1441238388
-0.1423833958
-0.1422635104
-0.1405875438
-0.1400282774
-0.1381358859
-0.1368012796
-0.1343746103
-0.2308285698
-0.2118853536
-0.2005783403
-0.187651177
-0.180568223
-0.1714233426
-0.167049966
-0.1604496042
-0.1578808525
-0.1530648458
-0.1517065035
-0.1481638661
-0.1475885996
-0.1449439321
-0.1448135282
-0.1427641264
-0.142782574
-0.1410594945
-0.1409414346
-0.1392821162
-0.1387288905
-0.1368550674
-0.1355339297
-0.1331308731
-0.2279187075
-0.2092156111
-0.1980523413
-0.1852892148
-0.1782967177
-0.1692680099
-0.1649509192
-0.1584344819
-0.1558992605
-0.1511445319
-0.149804456
-0.1463068995
-0.145740001
-0.1431289591
-0.1430012634
-0.1409778721
-0.1409970696
-0.1392958199
-0.1391801102
-0.1375418195
-0.1369962683
-0.1351463103
-0.1338423145
-0.1314702458
-0.2242814347
-0.2058783273
-0.1948942253
-0.1823360073
-0.1754558814
-0.1665723293
-0.162324762
-0.1559132802
-0.1534190331
-0.1487410858
-0.1474228413
-0.1439819698
-0.1434245219
-0.140855996
-0.1407307282
-0.1387404614
-0.1387597642
-0.1370864859
-0.1369731024
-0.1353617633
-0.1348255317
-0.1330058959
-0.1317234957
-0.1293901633
-0.2199494227
-0.2019031685
-0.1911325512
-0.178818093
-0.1720721816
-0.1633612701
-0.1591970974
-0.1529103774
-0.1504656959
-0.1458789133
-0.1445875572
-0.1412138459
-0.1406686052
-0.1381502809
-0.138028852
-0.136077521
-0.136097802
-0.1344572706
-0.1343473001
-0.1327674868
-0.1322426439
-0.1304585312
-0.1292016153
-0.1269134711
-0.2149138582
-0.1972822768
-0.186759235
-0.17472789
-0.1681371345
-0.1596266355
-0.1555583217
-0.1494163692
-0.1470280324
-0.1425470018
-0.1412854784
-0.1379896794
-0.137457113
-0.1349970756
-0.1348785777
-0.1329725458
-0.1329925195
-0.1313902199
-0.1312829856
-0.1297401488
-0.129227666
-0.1274854003
-0.1262577714
-0.1240229536
-0.2092141374
-0.1920516522
-0.1818091521
-0.1700982242
-0.1636837498
-0.1554001847
-0.1514413209
-0.1454633942
-0.1431400333
-0.138778903
-0.1375525537
-0.1343451419
-0.1338284717
-0.131434565
-0.1313209883
-0.1294662975
-0.1294874554
-0.1279283614
-0.1278255414
-0.1263242966
-0.1258268143
-0.1241313928
-0.1229376071
-0.120762171
-0.2028436469
-0.186205312
-0.1762756798
-0.1649225161
-0.1587040354
-0.1506736276
-0.1468357623
-0.141040604
-0.1387882619
-0.1345605356
-0.1333716617
-0.1302624206
-0.1297615077
-0.1274409258
-0.1273307603
-0.1255329405
-0.12555338
-0.1240421907
-0.1239424545
-0.1224875197
-0.1220052525
-0.1203624059
-0.1192053158
-0.1170974405
-0.1958478255
-0.1797849334
-0.170199364
-0.1592392378
-0.1532368753
-0.1454848277
-0.1417810739
-0.1361871245
-0.1340143306
-0.1299337101
-0.1287878311
-0.125787065
-0.1253055124
-0.1230661168
-0.12296186
-0.1212270582
-0.1212488108
-0.1197905517
-0.1196960247
-0.1182918001
-0.1178275437
-0.1162415132
-0.1151252052
-0.1130894518
-0.1882225968
-0.1727867417
-0.1635754028
-0.1530431995
-0.1472752156
-0.1398259003
-0.1362667817
-0.1308913224
-0.1288033543
-0.1248821381
-0.1237809419
-0.1208974032
-0.1204345396
-0.1182826185
-0.1181822665
-0.1165152049
-0.1165358975
-0.1151345462
-0.115043459
-0.1136940339
-0.1132476289
-0.111723696
-0.1106507772
-0.1086956846
-0.1800185538
-0.165257255
-0.1564491603
-0.1463776598
-0.1408628911
-0.1337398396
-0.1303377758
-0.1251981478
-0.1232032597
-0.1194544693
-0.1184035025
-0.1156471272
-0.1152067991
-0.1131500705
-0.1130565025
-0.1114633251
-0.1114854208
-0.1101460313
-0.1100608779
-0.1087705588
-0.1083449465
-0.1068869315
-0.1058611998
-0.1039901348
-0.1712345776
-0.1571953153
-0.1488181154
-0.1392393246
-0.1339943887
-0.127219856
-0.1239842706
-0.1190961337
-0.1171988467
-0.1136334943
-0.1126339034
-0.110012393
-0.1095935164
-0.1076373963
-0.1075482729
-0.1060329905
-0.1060538375
-0.1047798719
-0.1046986641
-0.1034712937
-0.1030661704
-0.1016793803
-0.1007033637
-0.09892490121
-0.1619253691
-0.1486512952
-0.1407314329
-0.1316752006
-0.1267173626
-0.1203128657
-0.1172552602
-0.112634571
-0.1108426684
-0.1074728464
-0.10653002
-0.1040527199
-0.1036592006
-0.1018110709
-0.1017294682
-0.1002980741
-0.1003203976
-0.09911687479
-0.09904236614
-0.09788225582
-0.09750076569
-0.09618889891
-0.09526646393
-0.0935829643
-0.1520932193
-0.1396271004
-0.1321893905
-0.12368447
-0.1190285469
-0.1130139939
-0.1101426462
-0.1058033167
-0.1041206011
-0.1009559845
-0.100070629
-0.09774419267
-0.09737468146
-0.09563912326
-0.09556254476
-0.09421840168
-0.09423946063
-0.09310941617
-0.09303956706
-0.09195042527
-0.09159220944
-0.09036071679
-0.08949425337
-0.08791438016
-0.1417957912
-0.1301758713
-0.1232438222
-0.1153167272
-0.1109781406
-0.1053727092
-0.1026979783
-0.09865430205
-0.09708788141
-0.09413938026
-0.09331652269
-0.09114946499
-0.09080770989
-0.08919153318
-0.08912301208
-0.08787172125
-0.08789424329
-0.08684241301
-0.08677998945
-0.08576589075
-0.08543413066
-0.08428636572
-0.08347980017
-0.08200468581
-0.1310392292
-0.120303021
-0.113898332
-0.1065742312
-0.1025658679
-0.09738692474
-0.09491591931
-0.09117996274
-0.089732978
-0.08700890229
-0.08624892593
-0.08424686795
-0.0839314143
-0.08243839338
-0.08237545324
-0.0812197247
-0.08124102992
-0.08026991179
-0.08021287748
-0.07927710566
-0.07897125964
-0.07791244514
-0.07716768587
-0.07580644896
-0.1198829602
-0.1100633198
-0.1042062368
-0.0975079447
-0.09384313246
-0.08910721848
-0.08684894428
-0.08343307752
-0.08211176486
-0.07962160026
-0.07892897124
-0.07709935849
-0.07681357803
-0.0754496985
-0.07539507914
-0.07433983494
-0.07436236807
-0.07347606937
-0.0734268962
-0.07257284842
-0.0722958466
-0.07132848191
-0.0706493302
-0.06940165349
-0.1083373656
-0.09946608142
-0.09417494986
-0.08812376509
-0.08481335565
-0.08053513407
-0.07849552165
-0.07540989254
-0.07421679574
-0.0719674793
-0.07134237974
-0.06968983532
-0.06943233055
-0.06820060471
-0.06815202442
-0.06719931748
-0.06722059275
-0.06642091851
-0.06637758326
-0.06560771397
-0.06535862083
-0.06448713752
-0.06387455515
-0.06275015191
-0.09646245018
-0.08856657483
-0.08385809116
-0.07847281284
-0.07552782053
-0.07172093516
-0.06990745079
-0.0671622771
-0.06610258824
-0.06410196772
-0.06354813043
-0.06207882078
-0.06185240519
-0.06075777907
-0.06071749091
-0.05987134062
-0.05989332319
-0.05918351791
-0.0591480123
-0.05846477917
-0.05824611703
-0.05747189817
-0.056929473
-0.05592667397
-0.0842731131
-0.07737831327
-0.07326727012
-0.06856508853
-0.06599424545
-0.06267052363
-0.06108791796
-0.05869137512
-0.05776710354
-0.05602075135
-0.05553827276
-0.05425588156
-0.05405937181
-0.05310418916
-0.0530702836
-0.05233217988
-0.05235274041
-0.05173394889
-0.05170435553
-0.05110926438
-0.05091964109
-0.05024594443
-0.04977336143
-0.04890162135
-0.0718288065
-0.06595598851
-0.06245529579
-0.05845073256
-0.05626255759
-0.05343253103
-0.05208657869
-0.050046544
-0.04926170067
-0.04777565439
-0.04736740458
-0.04627665809
-0.04611218858
-0.0453002124
-0.04527435802
-0.04464731857
-0.0446678922
-0.04414248861
-0.04412034058
-0.04361505771
-0.04345669859
-0.04288416468
-0.04248499025
-0.04174224586
-0.05914909033
-0.05431748041
-0.05143821823
-0.04814416412
-0.04634520161
-0.04401775622
-0.04291202602
-0.04123466229
-0.04059077223
-0.03936925556
-0.03903533987
-0.03813905431
-0.03800578837
-0.03733882897
-0.03731965281
-0.03680481709
-0.03682382908
-0.03639260714
-0.03637633421
-0.03596178163
-0.03583309607
-0.0353638556
-0.03503656812
-0.03442982834
-0.04629183912
-0.04251592922
-0.04026703731
-0.03769353401
-0.03628966922
-0.0344720599
-0.03361052229
-0.03230122435
-0.03180102062
-0.03084813423
-0.03059047633
-0.02989182598
-0.02979115563
-0.0292717089
-0.02926026746
-0.02885962873
-0.02887800184
-0.02854257079
-0.0285332952
-0.02821070946
-0.02811366324
-0.02774840959
-0.02749658646
-0.0270251276
-0.03328124675
-0.03057358637
-0.02896231185
-0.02711780628
-0.02611334138
-0.02481143123
-0.02419646563
-0.02325935031
-0.02290390273
-0.02222253093
-0.02204130451
-0.02154229307
-0.02147381369
-0.02110327199
-0.0210988462
-0.02081341047
-0.02083031675
-0.02059151533
-0.02058839932
-0.02035874336
-0.02029236155
-0.02003263057
-0.01985492588
-0.01952181856
-0.02017272114
-0.0185412017
-0.01757238881
-0.01646230412
-0.01586039906
-0.01507805515
-0.01471175685
-0.01414964291
-0.01394034955
-0.01353257361
-0.01342871132
-0.01313088823
-0.0130952208
-0.01287475168
-0.01287776923
-0.01270845711
-0.01272425501
-0.01258290297
-0.01258640833
-0.01245054839
-0.01241569599
-0.01226244822
-0.01216053342
-0.011966222
-0.006994885499
-0.006445225104
-0.006122205715
-0.00575044796
-0.005553120255
-0.005293123781
-0.005176667163
-0.004991593909
-0.004929072783
-0.004796428148
-0.004770188218
-0.004674752828
-0.00467194805
-0.004602549211
-0.004612980653
-0.004560708487
-0.004575413367
-0.004532472746
-0.004542831999
-0.00450191065
-0.004499348343
-0.004453936522
-0.004429526092
-0.004375026342
0.00620005132
0.005666664135
0.005343206188
0.004975905595
0.004768264452
0.004505489648
0.004371913534
0.004179747883
0.004095453016
0.003952942664
0.003901630115
0.003794790078
0.003764888167
0.003683425023
0.003665792602
0.003601271738
0.003587922099
0.003532649167
0.003515847933
0.003461853401
0.003433061541
0.00337042028
0.003319387218
0.003233895826
0.01937942818
0.017764176
0.0167948673
0.01568919198
0.01507687949
0.01429167093
0.01390811684
0.01333878081
0.0131075265
0.01268970494
0.01256052442
0.01225105581
0.01218798184
0.01195512984
0.01192970629
0.01174772251
0.01173501447
0.0115807791
0.01155659833
0.01140705605
0.01134542859
0.01117480472
0.01104601704
0.01082317398
0.03249479643
0.02980321013
0.02819153086
0.02635144776
0.02533683575
0.02403221197
0.02340038038
0.0224562903
0.02207936857
0.02138826032
0.02118226218
0.02067192871
0.02057659343
0.02019393226
0.02016154947
0.01986353323
0.01985229199
0.01960036865
0.01956982138
0.0193257556
0.0192329796
0.01895480722
0.01875120595
0.018389183
0.04551002752
0.04175017456
0.03950071272
0.03693149462
0.0355172122
0.03369664221
0.03281784752
0.03150120589
0.03097899352
0.03001586469
0.02973273979
0.02902210358
0.02889371335
0.02836129816
0.02832086938
0.02790657663
0.02789560332
0.02754572881
0.02750763157
0.02716924053
0.02704415566
0.02666003277
0.02638062257
0.02588515016
0.0583808199
0.05356488255
0.05068522586
0.04739547864
0.04558660832
0.04325649649
0.04213427694
0.0404500577
0.03978512528
0.03855398879
0.03819570767
0.03728811862
0.03712827963
0.03644898579
0.03640190512
0.03587384822
0.03586445214
0.0354188141
0.03537458117
0.03494363158
0.03478811932
0.03429893316
0.03394639817
0.0333150704
0.07106831503
0.06521114292
0.0617098014
0.05770933554
0.05551083831
0.05267777101
0.0513147334
0.04926728986
0.04846059687
0.04696418678
0.0465305368
0.04542754541
0.04523524844
0.04440980994
0.0443546205
0.04371308762
0.04370371666
0.04316260592
0.04311094002
0.04258835966
0.04240168978
0.04180999909
0.04138460409
0.04062422778
0.08353257745
0.07665285227
0.07254140676
0.06784334358
0.06526291509
0.06193657238
0.06033799997
0.05793475791
0.05699005841
0.05523426876
0.05472804025
0.05343446919
0.05321191164
0.05224437443
0.05218292781
0.05143136561
0.05142370659
0.05079004007
0.05073263893
0.0501207346
0.04990485107
0.0492119732
0.04871607911
0.0478250187
0.0957328967
0.08785206133
0.08314286032
0.07776144423
0.07480635718
0.07099639818
0.06916621977
0.0664136854
0.06533259324
0.06332166566
0.06274284936
0.06126130427
0.06100739183
0.05989924396
0.05982984576
0.05896912369
0.05896136698
0.05823594943
0.0581713935
0.05747159589
0.05722598649
0.05643494359
0.05586958483
0.05485477299
0.107633768
0.09877677293
0.09348522204
0.08743790574
0.08411833054
0.07983755153
0.07778266814
0.07469056988
0.07347789507
0.07121945761
0.07057152919
0.06890815716
0.06862553624
0.06738184654
0.06730666091
0.06634102078
0.06633510019
0.06552146739
0.06545167052
0.06466678615
0.06439356749
0.06350621286
0.06287387085
0.0617350195
0.1191936193
0.1093882255
0.1035303817
0.09683568559
0.09316116236
0.08842221682
0.08614789898
0.08272487755
0.08138295986
0.07888278965
0.07816605646
0.07632457712
0.07601220965
0.07463528862
0.07455253153
0.0734834727
0.07347743754
0.07257690085
0.07250033068
0.07163219952
0.07133083217
0.07035044345
0.06965222667
0.06839590187
0.1303813126
0.1196584316
0.113253307
0.1059327753
0.1019157755
0.09673437239
0.09424898489
0.09050688581
0.08904144096
0.08630872216
0.08552718973
0.08351490205
0.08317571956
0.08167149834
0.08158347856
0.08041590837
0.08041178574
0.07942843972
0.07934714034
0.07839913576
0.07807202399
0.07700122802
0.07624026862
0.07486777254
0.1411554695
0.1295488245
0.1226160076
0.1146922243
0.1103444823
0.1047361541
0.1020463117
0.09799586629
0.09641002153
0.09345207703
0.09260647736
0.09042826311
0.09006142557
0.0884331057
0.08833811128
0.08707423096
0.08707009576
0.08600582585
0.08591831322
0.08489276801
0.08453951855
0.08338202169
0.08255976859
0.0810777526
0.1514891608
0.1390352442
0.131597091
0.1230954018
0.1184314878
0.1124146158
0.1095299749
0.1051849323
0.1034851478
0.1003125187
0.09940722514
0.09707134588
0.09667990195
0.09493410044
0.09483440994
0.0934796396
0.09347743243
0.09233677808
0.09224503426
0.09114581688
0.09076886057
0.0895279508
0.08864770802
0.08705842911
0.1613422818
0.148080343
0.1401597481
0.1311065337
0.1261402709
0.1197331114
0.1166616092
0.1120347166
0.1102249492
0.1068464897
0.1058827497
0.1033952791
0.1029787141
0.1011195829
0.1010137098
0.09957102661
0.09956902065
0.09835451414
0.09825729803
0.09708728538
0.09668661127
0.09536643463
0.0944302789
0.09274059836
0.1706918881
0.1566635549
0.148285918
0.1387099907
0.1334578251
0.1266811614
0.123433565
0.1185402429
0.1166275361
0.1130549338
0.1120373344
0.1094072996
0.1089686238
0.1070032794
0.1068933121
0.1053684737
0.105368359
0.1040848211
0.1039838852
0.1027472874
0.1023251742
0.1009295584
0.09994077376
0.0981539492
0.1795002042
0.1647497456
0.1559409946
0.1458722126
0.1403499152
0.1332245301
0.1298100485
0.1246649495
0.1226541036
0.1188976978
0.1178280637
0.1150627325
0.1146018532
0.1125354346
0.1124202324
0.1108170488
0.1108174279
0.1094680956
0.1093625656
0.1080628288
0.1076197328
0.1061531969
0.1051144732
0.1032372737
0.1877480269
0.1723216963
0.1631099421
0.1525802108
0.1468058658
0.139354653
0.1357849822
0.1304049558
0.1283034481
0.1243758615
0.1232588595
0.1203678323
0.1198875934
0.1177275366
0.1176088699
0.1159332662
0.1159354521
0.1145252711
0.1144165545
0.1130581054
0.1125960736
0.1110629472
0.1099775518
0.1080145083
0.195400894
0.1793474065
0.1697612913
0.1588035774
0.1527947261
0.1450407556
0.1413262915
0.1357277465
0.1335411997
0.1294541735
0.1282922291
0.1252839328
0.1247847181
0.1225371502
0.1224142966
0.1206709414
0.1206739442
0.1192068918
0.1190945485
0.1176814259
0.1172014163
0.115606564
0.1144777759
0.1124353638
0.2024431036
0.185812775
0.1758827622
0.1645316586
0.1583077786
0.1502757467
0.1464289401
0.1406299107
0.1383661062
0.1341329951
0.1329307527
0.1298151854
0.1292995847
0.1269721037
0.1268464351
0.1250412776
0.1250459575
0.1235269793
0.1234120081
0.1219487668
0.1214525615
0.1198007989
0.1186318933
0.1165160394
0.2088443824
0.1916897438
0.1814468295
0.1697379956
0.1633181849
0.1550331688
0.1510654822
0.145083945
0.1427492687
0.1383830914
0.1371435575
0.1339302276
0.1333991048
0.1309987811
0.13087001
0.129008556
0.1290143502
0.1274481614
0.127330572
0.1258218576
0.1253109262
0.1236074884
0.1224023387
0.1202192243
0.2145923323
0.1969671451
0.1864437649
0.1744140493
0.1678189304
0.1593071118
0.1552315889
0.149086522
0.1466889561
0.1422036119
0.1409313447
0.1376304977
0.1370861513
0.1346206206
0.1344896973
0.1325778132
0.1325851124
0.1309765643
0.130856932
0.1293073474
0.1287831985
0.1270333231
0.1257952206
0.123552072
0.2196615959
0.2016215304
0.1908506359
0.1785379348
0.1717879157
0.1630760608
0.1589050768
0.1526157979
0.1501623945
0.1455720154
0.144270539
0.140892642
0.1403363693
0.1378135497
0.1376805795
0.13572453
0.1357331536
0.1340876355
0.1339663727
0.1323811366
0.1318457111
0.1300550449
0.1287884499
0.1264914125
0.224042938
0.2056445422
0.1946601441
0.1821031075
0.1752197081
0.1663351613
0.1620822051
0.1556684037
0.1531672702
0.1484861321
0.1471598964
0.1437153218
0.1431491458
0.1405766239
0.1404421753
0.138447677
0.1384575934
0.1367797978
0.1366570926
0.1350407643
0.1344953064
0.1326693439
0.1313775317
0.1290346937
0.227716481
0.2090178479
0.1978544244
0.1850926961
0.1780973579
0.1690682246
0.1647463999
0.1582284752
0.1556871997
0.150930348
0.1495832925
0.1460833048
0.145508865
0.1428952664
0.1427597444
0.1407336867
0.1407449945
0.1390408487
0.1389173965
0.1372756462
0.136722439
0.1348672261
0.1335551533
0.131173192
0.2306760794
0.2117358469
0.2004285729
0.1875021333
0.1804170273
0.1712714884
0.1668945964
0.1602927247
0.1577194905
0.1529014286
0.1515379104
0.1479929175
0.1474120267
0.1447648404
0.1446285324
0.1425764613
0.1425888259
0.1408628421
0.1407385645
0.1390758308
0.1385159503
0.1366369962
0.1353079334
0.1328950289
0.2329077192
0.2137856607
0.2023700885
0.1893198137
0.1821671168
0.1729342414
0.1685159062
0.1618512828
0.1592540577
0.1543905177
0.1530147615
0.1494366357
0.1488511537
0.1461795438
0.1460430275
0.1439722919
0.143985944
0.1422444087
0.1421200888
0.1404422926
0.1398780611
0.1379816606
0.1366406083
0.1342043333
0.2344083419
0.2151644579
0.2036765057
0.1905432219
0.1833455105
0.1740539884
0.1696082007
0.1629012717
0.1602882843
0.1553938635
0.1540101765
0.1504092927
0.1498209252
0.1471322667
0.1469956999
0.1449116985
0.144926195
0.1431734839
0.143049027
0.1413605023
0.1407931917
0.1388847577
0.1375355062
0.1350838165
0.2351700062
0.2158649897
0.2043408149
0.1911660983
0.1839459711
0.1746254424
0.1701661239
0.1634385772
0.1608180033
0.155908876
0.1545216217
0.1509102562
0.1503209445
0.1476247647
0.1474887552
0.1453991437
0.1454146839
0.1436573092
0.143533353
0.1418401504
0.1412716623
0.1393575554
0.13800417
0.1355448921
0.2351927907
0.2158872578
0.2043630929
0.1911881212
0.183968315
0.1746476481
0.1701888609
0.163461199
0.1608412911
0.1559320227
0.1545455143
0.1509339516
0.1503454129
0.1476489709
0.1475137158
0.1454237903
0.1454400304
0.1436823216
0.1435590019
0.1418654971
0.1412976422
0.1393833906
0.1380307627
0.1355718216
0.2344748733
0.215229669
0.203741801
0.1906083101
0.1834115246
0.1741205289
0.1696762635
0.1629703547
0.1603593199
0.1554662751
0.1540848647
0.1504855765
0.1498996951
0.1472127101
0.1470787139
0.1449963085
0.1450132974
0.1432619305
0.1431396731
0.1414520952
0.1408864559
0.1389786985
0.1376304431
0.1351802678
0.2330195594
0.2138951552
0.2024796964
0.1894287156
0.1822776
0.1730449908
0.1686292608
0.16196545
0.1593715401
0.1545091255
0.1531371827
0.1495603017
0.1489789156
0.1463085152
0.1461761628
0.1441064817
0.1441241256
0.1423833967
0.1422626354
0.1405853792
0.1400240811
0.1381282904
0.1367895307
0.1343552308
0.23083105
0.211887677
0.2005805692
0.1876534534
0.1805704895
0.1714258433
0.1670524824
0.160452506
0.1578837892
0.1530683083
0.1517100339
0.1481680203
0.1475928313
0.1449487571
0.1448183333
0.1427692573
0.1427873592
0.1410640153
0.1409449366
0.1392843392
0.1387287909
0.1368517739
0.1355260973
0.1331165179
0.227915977
0.2092132006
0.1980499995
0.1852871287
0.1782946257
0.1692661708
0.1649490164
0.1584328432
0.1558975325
0.1511430987
0.1498029474
0.146305706
0.1457387503
0.1431279569
0.1430001404
0.1409767458
0.1409955648
0.1392938018
0.1391771798
0.137537524
0.1369900483
0.1351370631
0.1338294551
0.1314510995
0.2242843527
0.2058810361
0.1948968717
0.182338688
0.1754586001
0.1665752853
0.1623278009
0.1559167309
0.1534226017
0.1487452142
0.1474271174
0.143986898
0.1434295957
0.140861682
0.1407364472
0.1387465222
0.1387655284
0.1370920374
0.1369777381
0.1353653201
0.1348270824
0.1330048546
0.1317187952
0.129380274
0.2199462223
0.2019002708
0.191129708
0.1788154442
0.1720694844
0.1633587161
0.1591944229
0.1529078257
0.1504629925
0.1458763258
0.1445848194
0.1412112058
0.1406658235
0.1381475069
0.1380258752
0.1360743086
0.1360941589
0.134452958
0.1343421132
0.1327610048
0.1322344975
0.130448019
0.129188305
0.1268959242
0.2149171109
0.1972852841
0.1867621899
0.1747308585
0.1681401588
0.1596298781
0.1555616747
0.1494201231
0.1470319394
0.1425514602
0.1412901191
0.1379949668
0.1374625824
0.1350031669
0.1348847549
0.13297911
0.1329988947
0.1313964921
0.1312885879
0.1297449026
0.1292309646
0.1274866986
0.1262565937
0.1240183908
0.2092105194
0.1920483297
0.1818058502
0.1700950498
0.1636804671
0.1553969263
0.1514378644
0.1454599016
0.1431362992
0.1387750886
0.1375484891
0.1343409547
0.1338240478
0.1314299357
0.1313160975
0.12946101
0.1294817685
0.1279219424
0.1278184422
0.1263159865
0.1258172519
0.1241199051
0.1229240114
0.1207462087
0.2028471273
0.1862085223
0.1762788314
0.1649256507
0.1587072209
0.1506769928
0.1468392348
0.1410444353
0.1387922445
0.1345650277
0.1333763376
0.1302677179
0.1297670086
0.1274470761
0.1273370768
0.1255397726
0.1255602295
0.1240492027
0.1239492186
0.1224938241
0.1220107857
0.1203664683
0.1192077793
0.11709778
0.1958438757
0.1797812708
0.1701956805
0.1592356122
0.1532330763
0.1454809339
0.1417768974
0.1361827505
0.1340096141
0.1299287181
0.1287824799
0.1257813899
0.1252995099
0.1230597603
0.1229552263
0.1212200237
0.1212415353
0.1197827967
0.1196880569
0.1182832294
0.1178186116
0.1162317158
0.1151146231
0.1130784759
0.1882261966
0.1727900542
0.1635786415
0.153046384
0.1472784316
0.1398292426
0.1362702069
0.1308950395
0.1288071927
0.1248864137
0.123785372
0.1209024068
0.1204397451
0.1182885155
0.1181884173
0.1165221153
0.116543113
0.1151425233
0.1150518342
0.1137030571
0.1132570444
0.1117332791
0.1106604812
0.1087049718
0.1800143836
0.1652533589
0.1564452046
0.1463736969
0.1408586976
0.1337354431
0.1303330203
0.1251930452
0.1231977183
0.119448469
0.1183970329
0.1156401486
0.1151993964
0.1131422045
0.1130483445
0.1114548808
0.1114769355
0.1101376501
0.1100529057
0.1087633521
0.1083386811
0.1068820803
0.1058577197
0.1039885745
0.1712381936
0.1571986324
0.1488213423
0.1392424588
0.1339975303
0.1272230629
0.1239875264
0.1190995965
0.1172023827
0.1136373636
0.1126378674
0.110016834
0.1095981088
0.1076426607
0.1075538095
0.1060394849
0.1060608487
0.1047883081
0.1047081186
0.1034828725
0.1030794899
0.1016953183
0.1007217877
0.09894517332
0.1619211094
0.1486472914
0.1407273433
0.131671051
0.126712947
0.1203081612
0.1172501465
0.1126289859
0.1108365718
0.1074661261
0.1065227308
0.1040447313
0.1036506712
0.1018019152
0.1017199328
0.1002882438
0.1003105788
0.0991075615
0.09903386679
0.09787573402
0.09749629139
0.09618817645
0.09526930995
0.0935904967
0.1520967594
0.1396303347
0.132192523
0.1236874751
0.1190315412
0.1130169933
0.1101456651
0.1058064503
0.1041237591
0.1009593443
0.1000740057
0.09774787801
0.09737840944
0.09564334187
0.09556691462
0.09422360446
0.09424511775
0.09311659491
0.09304793672
0.0919615555
0.09160584569
0.09037855802
0.08951643867
0.08794093812
0.1417915851
0.1301718993
0.123239758
0.1153125689
0.1109737146
0.1053679427
0.1026927958
0.09864856642
0.09708160973
0.09413235601
0.09330886934
0.0911409177
0.09079850708
0.08918142928
0.08911235
0.08786041773
0.08788273195
0.08683106408
0.08676930158
0.08575707496
0.08542755778
0.08428427259
0.08348235593
0.08201488218
0.1310426146
0.1203060977
0.1139013049
0.1065770502
0.1025686728
0.09738968527
0.09491869085
0.09118276604
0.08973578176
0.08701177294
0.08625175588
0.08424979083
0.08393425923
0.08244138777
0.082378378
0.08122295503
0.08124436817
0.08027401056
0.08021774463
0.07928381808
0.07898021724
0.07792515554
0.0771852163
0.07583056733
0.1198789524
0.1100595221
0.1042023649
0.09750396821
0.09383892838
0.08910266712
0.08684402935
0.0834275909
0.08210579421
0.0796148211
0.07892159172
0.07709094712
0.07680447792
0.07543940136
0.07538406904
0.0743276101
0.0743495827
0.07346244294
0.07341333159
0.07255967415
0.07228415377
0.07131999966
0.07064504258
0.06940730571
0.1083405294
0.0994689377
0.09417771173
0.08812635824
0.08481595239
0.08053765707
0.07849808137
0.075412432
0.07421936514
0.07197002139
0.07134489889
0.06969227121
0.06943465873
0.06820274721
0.06815395576
0.06720092648
0.06722196752
0.066421937
0.06637875237
0.0656089679
0.06536125735
0.06449162571
0.06388312148
0.06276631595
0.09645877481
0.08856308559
0.08385457046
0.07846920283
0.07552406654
0.07171687808
0.06990314924
0.06715746614
0.06609744348
0.06409607554
0.06354180638
0.06207148561
0.06184453647
0.06074861631
0.0607076915
0.05985996955
0.05988127632
0.05916978626
0.05913388537
0.05844948666
0.05823136575
0.05745841964
0.05691885657
0.05592639199
0.08427599733
0.07738089542
0.07326977787
0.06856742563
0.06599662451
0.0626728248
0.06109032038
0.05869375159
0.05776960935
0.05602321707
0.05554085208
0.05425833994
0.05406188315
0.05310641192
0.05307244171
0.05233376953
0.05235415371
0.05173447873
0.05170488917
0.05110888685
0.05092014615
0.05024683978
0.04977738714
0.04891244488
0.07182557542
0.06595292123
0.06245226015
0.05844764691
0.05625944832
0.05342921159
0.05208319401
0.05004279594
0.04925786613
0.04777127171
0.04736291409
0.04627140498
0.04610680192
0.04529381377
0.04526777302
0.04463943655
0.04465976246
0.04413285026
0.04411055942
0.04360400124
0.04344597325
0.04287392925
0.04247650779
0.04174177965
0.0591516423
0.05431974049
0.05144043004
0.04814621414
0.0463473452
0.04401983969
0.04291430421
0.04123695339
0.0405933517
0.03937187008
0.03903831858
0.03814204436
0.03800919715
0.03734217094
0.0373234243
0.0368083813
0.03682781954
0.03639626975
0.03638061019
0.03596585891
0.03583842548
0.03536988716
0.03504536148
0.03444314572
0.04628913236
0.04251336662
0.04026458111
0.03769108468
0.03628733767
0.03446964671
0.0336082598
0.03229880812
0.03179882932
0.0308457051
0.03058837473
0.02988940487
0.02978919015
0.02926935787
0.02925849294
0.02885744146
0.02887648924
0.0285407757
0.02853233238
0.02820997628
0.02811399042
0.02775003066
0.02749972147
0.0270319576
0.03328341675
0.03057547979
0.02896418192
0.02711952886
0.0261152078
0.02481326498
0.02419859187
0.02326155006
0.02290656908
0.02222535491
0.02204479243
0.02154602118
0.02147842794
0.02110822593
0.0211049044
0.02081995509
0.02083816238
0.0206001495
0.02059857475
0.02037027442
0.02030571388
0.02004782184
0.01987227918
0.01954035502
0.02017058101
0.01853918878
0.01757055695
0.01646054352
0.0158588966
0.01507661316
0.01471068164
0.01414864712
0.01393989471
0.01353223081
0.01342914596
0.01313150981
0.01309691956
0.01287678526
0.01288120277
0.01271248446
0.01272998081
0.01258969117
0.01259516816
0.01246106881
0.01242830346
0.01227700074
0.01217693095
0.01198200257
0.006996627154
0.006446710647
0.006123683003
0.005751790137
0.005554637142
0.005294627484
0.005178532428
0.00499357976
0.004931664117
0.00479927916
0.004773950883
0.004678949061
0.004677427623
0.004608698233
0.004620804427
0.00456952377
0.004586227066
0.004544735019
0.004557221218
0.004518234251
0.00451732202
0.004473312062
0.004448936964
0.004391473493
-0.00620162196
-0.005668122377
-0.005344421216
-0.004976988787
-0.004768973813
-0.004506007827
-0.004371889006
-0.004179433583
-0.004094344489
-0.003951415722
-0.003898972771
-0.003791525678
-0.003760074859
-0.00367773549
-0.003658113451
-0.003592369171
-0.003576669023
-0.003519763819
-0.003500459546
-0.003444611853
-0.003413765686
-0.003350511054
-0.003299099502
-0.003218753373
-0.01937815434
-0.01776313298
-0.01679383496
-0.01568829123
-0.01507580903
-0.01429061848
-0.01390669314
-0.01333723524
-0.01310533054
-0.01268722691
-0.01255703226
-0.01224707558
-0.01218254179
-0.01194893973
-0.01192159928
-0.01173857175
-0.01172362708
-0.01156808134
-0.01154173379
-0.01139092072
-0.01132820732
-0.01115778472
-0.01103070614
-0.0108129895
-0.03249583162
-0.02980414618
-0.0281921843
-0.02635192228
-0.02533686486
-0.02403195134
-0.023399474
-0.02245494305
-0.02207708968
-0.02138535892
-0.02117805714
-0.02066687054
-0.02056978592
-0.02018600059
-0.02015143486
-0.01985204721
-0.01983835646
-0.01958496582
-0.01955209273
-0.01930699733
-0.01921294202
-0.01893592922
-0.0187336962
-0.01837909961
-0.04550924764
-0.04174959601
-0.03950016935
-0.03693109237
-0.03551669077
-0.0336961772
-0.03281707899
-0.03150037662
-0.03097759388
-0.03001426543
-0.0297302175
-0.02901920584
-0.028889466
-0.02835647481
-0.02831428568
-0.02789925515
-0.02788630097
-0.02753567558
-0.02749583899
-0.02715712288
-0.02703160427
-0.02664889242
-0.02637197614
-0.02588181908
-0.0583813844
-0.05356535963
-0.05068540951
-0.04739545546
-0.04558612285
-0.04325566627