/*--------------------------------*- C++ -*----------------------------------*\
| =========                 |                                                 |
| \\      /  F ield         | foam-extend: Open Source CFD                    |
|  \\    /   O peration     | Version:  3.0                                   |
|   \\  /    A nd           | Web:         http://www.extend-project.de       |
|    \\/     M anipulation  |                                                 |
\*---------------------------------------------------------------------------*/
FoamFile
{
    version     2.0;
    format      ascii;
    class       volScalarField;
    location    "0.9";
    object      p;
}
// * * * * * * * * * * * * * * * * * * * * * * * * * * * * * * * * * * * * * //

dimensions      [0 0 0 0 0 0 0];

internalField   nonuniform List<scalar> 
400
(
0.8983
0.894036
0.897195
0.899625
0.908764
0.916892
0.92996
0.942106
0.957364
0.971648
0.987581
1.00198
1.01716
1.02959
1.0425
1.05092
1.0599
1.06246
1.06556
1.06105
0.912782
0.907743
0.912792
0.915392
0.924498
0.931466
0.942932
0.952925
0.965765
0.977433
0.990688
1.00243
1.01512
1.02527
1.03644
1.0435
1.05219
1.05467
1.05923
1.05397
0.890485
0.883299
0.889011
0.892002
0.903504
0.912548
0.927172
0.940149
0.956437
0.971498
0.988324
1.00351
1.01982
1.0331
1.04771
1.05701
1.06841
1.07137
1.07679
1.06931
0.89495
0.885676
0.891879
0.894873
0.907638
0.917524
0.933355
0.947381
0.964647
0.980753
0.998457
1.01466
1.03196
1.04622
1.06209
1.07216
1.08487
1.08774
1.09363
1.08388
0.863382
0.851592
0.859328
0.863265
0.879321
0.892066
0.911902
0.929768
0.95138
0.971761
0.994073
1.01462
1.03675
1.05504
1.07576
1.08894
1.1059
1.10983
1.11789
1.10522
0.861192
0.846896
0.855807
0.860514
0.878696
0.893429
0.915259
0.9354
0.95871
0.981344
1.00524
1.02798
1.05185
1.07231
1.09515
1.11023
1.12957
1.13411
1.14344
1.12758
0.826459
0.809281
0.821183
0.827761
0.850271
0.868564
0.894735
0.918893
0.946503
0.973243
1.00167
1.02859
1.05748
1.08218
1.11068
1.12968
1.15493
1.1615
1.17492
1.15515
0.817949
0.798297
0.812805
0.82145
0.846758
0.867953
0.896074
0.922951
0.951881
0.981069
1.01058
1.03987
1.07002
1.09731
1.1278
1.1497
1.17808
1.18667
1.20303
1.1794
0.779818
0.757874
0.777766
0.789976
0.820627
0.846158
0.878523
0.909329
0.941914
0.974648
1.00787
1.04078
1.07525
1.10677
1.14279
1.16968
1.20527
1.21804
1.24162
1.21394
0.76723
0.744787
0.76903
0.785159
0.818461
0.847344
0.880706
0.913907
0.946657
0.981229
1.01426
1.04891
1.08319
1.11695
1.15349
1.18387
1.22208
1.23915
1.26778
1.23784
0.726135
0.705344
0.737179
0.759037
0.797482
0.831033
0.867608
0.904218
0.939336
0.976615
1.01188
1.04931
1.08618
1.12373
1.16405
1.20012
1.24488
1.26929
1.30816
1.27862
0.712502
0.698447
0.734558
0.762127
0.801324
0.837836
0.87363
0.911647
0.945457
0.983473
1.01708
1.0551
1.08985
1.12851
1.16655
1.20556
1.24957
1.28061
1.32386
1.30108
0.670233
0.668364
0.711785
0.746886
0.789134
0.829746
0.866858
0.90723
0.941773
0.981403
1.01554
1.05523
1.09036
1.13172
1.17045
1.21478
1.26168
1.30322
1.35629
1.34862
0.657342
0.675856
0.720107
0.761685
0.80161
0.843904
0.878395
0.918847
0.950931
0.99013
1.02159
1.06065
1.09216
1.13305
1.16655
1.21203
1.25256
1.3017
1.35264
1.37141
0.615003
0.660272
0.709917
0.75992
0.800383
0.845483
0.879391
0.920831
0.952206
0.991852
1.02245
1.06197
1.09203
1.13413
1.16538
1.21483
1.25356
1.31558
1.37263
1.43098
0.606094
0.683384
0.730672
0.786042
0.822152
0.867021
0.89726
0.937455
0.965909
1.00421
1.03188
1.06984
1.09585
1.13602
1.16064
1.20879
1.23696
1.30502
1.35106
1.45702
0.573153
0.683004
0.735543
0.798191
0.833226
0.878936
0.907184
0.946923
0.973703
1.01141
1.03742
1.07477
1.09833
1.13814
1.15879
1.20874
1.23202
1.31295
1.36177
1.529
0.590401
0.72213
0.772277
0.835063
0.86502
0.90795
0.932273
0.969665
0.993671
1.02948
1.05296
1.08826
1.10839
1.14528
1.16004
1.20593
1.21849
1.29871
1.32982
1.54158
0.604767
0.747444
0.799831
0.86363
0.890307
0.931183
0.952431
0.988022
1.00986
1.04428
1.06582
1.09972
1.11721
1.15227
1.1626
1.20684
1.21266
1.29845
1.32398
1.59347
0.718415
0.814557
0.860388
0.913003
0.933161
0.968471
0.986076
1.01861
1.03824
1.07049
1.09025
1.12194
1.13735
1.16905
1.17589
1.21326
1.21204
1.28256
1.2875
1.52167
)
;

boundaryField
{
    cavity
    {
        type            implicitExtrapolation;
    }
    lid
    {
        type            implicitExtrapolation;
    }
    frontAndBack
    {
        type            empty;
    }
}


// ************************************************************************* //
