/*--------------------------------*- C++ -*----------------------------------*\
| =========                 |                                                 |
| \\      /  F ield         | foam-extend: Open Source CFD                    |
|  \\    /   O peration     | Version:  3.0                                   |
|   \\  /    A nd           | Web:         http://www.extend-project.de       |
|    \\/     M anipulation  |                                                 |
\*---------------------------------------------------------------------------*/
FoamFile
{
    version     2.0;
    format      ascii;
    class       volVectorField;
    location    "0.9";
    object      s;
}
// * * * * * * * * * * * * * * * * * * * * * * * * * * * * * * * * * * * * * //

dimensions      [0 0 0 0 0 0 0];

internalField   nonuniform List<vector> 
400
(
(-0.00108835 -0.000307333 3.78193e-318)
(-0.00122737 0.000276594 6.69365e-318)
(-0.00158434 0.000711105 7.43218e-318)
(-0.00216636 0.000967985 7.01209e-318)
(-0.00284695 0.000958622 6.04718e-318)
(-0.00353427 0.000787733 5.0173e-318)
(-0.00414619 0.000495015 3.91705e-318)
(-0.00463271 0.000137485 3.04596e-318)
(-0.00496348 -0.000259929 2.21262e-318)
(-0.00511984 -0.000676616 1.62542e-318)
(-0.00509275 -0.0011011 1.046e-318)
(-0.00487741 -0.00152524 6.69716e-319)
(-0.00447253 -0.00193731 2.62917e-319)
(-0.00388636 -0.00232138 3.34038e-320)
(-0.00313122 -0.00265307 -2.40551e-319)
(-0.00224753 -0.00289005 -3.44976e-319)
(-0.00127761 -0.00298255 -4.96516e-319)
(-0.000335542 -0.00283629 -5.11284e-319)
(0.000508138 -0.002341 -4.44545e-319)
(0.000972708 -0.00118121 -3.96112e-319)
(-0.00159251 -5.30256e-05 3.54586e-318)
(-0.00220852 0.000735529 7.63619e-318)
(-0.00307814 0.00142194 9.41113e-318)
(-0.00397554 0.00186516 9.83433e-318)
(-0.00494632 0.00196863 9.19638e-318)
(-0.00588106 0.00180064 8.18196e-318)
(-0.00671505 0.00141985 6.82593e-318)
(-0.00737987 0.000895105 5.58481e-318)
(-0.00783038 0.000276037 4.29456e-318)
(-0.00803481 -0.000396582 3.26576e-318)
(-0.0079754 -0.00109365 2.23926e-318)
(-0.0076472 -0.00178574 1.47113e-318)
(-0.00705542 -0.00244378 6.79454e-319)
(-0.0062235 -0.00302533 1.16723e-319)
(-0.00518763 -0.00347912 -4.94965e-319)
(-0.00401707 -0.00373192 -8.95489e-319)
(-0.0027837 -0.00370267 -1.35215e-318)
(-0.00162015 -0.00328705 -1.56685e-318)
(-0.00052943 -0.00240852 -1.66401e-318)
(0.000293672 -0.00094966 -1.16456e-318)
(-0.0016483 0.000826249 3.41274e-318)
(-0.00242849 0.00242953 7.51681e-318)
(-0.00353712 0.00355429 9.47475e-318)
(-0.00459473 0.00417058 1.00439e-317)
(-0.00567927 0.00425379 9.62697e-318)
(-0.00666697 0.00391079 8.74918e-318)
(-0.00752018 0.003239 7.52229e-318)
(-0.00818296 0.00234013 6.28668e-318)
(-0.00862471 0.0012916 4.98393e-318)
(-0.0088227 0.000155934 3.83162e-318)
(-0.0087634 -0.00102012 2.68493e-318)
(-0.00844354 -0.0021896 1.70719e-318)
(-0.00786475 -0.00330364 7.24508e-319)
(-0.00704492 -0.0042916 -1.09248e-319)
(-0.0060085 -0.00506638 -9.62331e-319)
(-0.00481424 -0.0055049 -1.65925e-318)
(-0.00350859 -0.00547836 -2.31268e-318)
(-0.00222562 -0.00482376 -2.65779e-318)
(-0.000907128 -0.00347272 -2.54455e-318)
(0.00014419 -0.00131627 -1.44089e-318)
(-0.00165273 0.0015775 2.39163e-318)
(-0.00242004 0.00406236 5.78034e-318)
(-0.00358892 0.00559336 7.75883e-318)
(-0.00463277 0.0063205 8.62411e-318)
(-0.00566858 0.00631406 8.60769e-318)
(-0.00655726 0.00576045 8.03776e-318)
(-0.00729572 0.00480305 7.10457e-318)
(-0.00784829 0.00357573 6.01749e-318)
(-0.00820781 0.00217362 4.85028e-318)
(-0.00836745 0.000670834 3.70792e-318)
(-0.0083219 -0.000881707 2.58635e-318)
(-0.0080697 -0.00243024 1.54044e-318)
(-0.00760471 -0.00392018 5.39806e-319)
(-0.006931 -0.00526383 -3.6504e-319)
(-0.00604825 -0.00635171 -1.18799e-318)
(-0.00499173 -0.0070193 -1.84215e-318)
(-0.00376449 -0.00709324 -2.2895e-318)
(-0.00250158 -0.00633816 -2.36672e-318)
(-0.00107574 -0.00464762 -1.97593e-318)
(5.98388e-05 -0.00181604 -9.17297e-319)
(-0.001607 0.00259958 2.5274e-318)
(-0.00224147 0.00621554 5.67028e-318)
(-0.00338398 0.00820969 7.36862e-318)
(-0.00430713 0.00900756 8.01973e-318)
(-0.00519313 0.00882036 7.95504e-318)
(-0.00588241 0.00795921 7.41667e-318)
(-0.00641696 0.00663187 6.57094e-318)
(-0.00678679 0.00501353 5.56724e-318)
(-0.00701403 0.00321568 4.47678e-318)
(-0.00711295 0.00131686 3.37415e-318)
(-0.00708801 -0.00063644 2.27371e-318)
(-0.00693966 -0.00259579 1.21142e-318)
(-0.00664999 -0.00451013 1.80932e-319)
(-0.00620307 -0.00628488 -7.84878e-319)
(-0.00556355 -0.00779111 -1.67959e-318)
(-0.00473602 -0.00881812 -2.43883e-318)
(-0.00366561 -0.00912925 -2.9962e-318)
(-0.00250302 -0.00836908 -3.20842e-318)
(-0.00103662 -0.00633142 -2.81699e-318)
(4.66598e-05 -0.00259313 -1.45896e-318)
(-0.00154469 0.00374075 1.93272e-318)
(-0.00196822 0.00858926 4.61762e-318)
(-0.0029829 0.0110129 6.23779e-318)
(-0.00364496 0.0117997 6.99348e-318)
(-0.00424042 0.0113395 7.0645e-318)
(-0.00459228 0.0101035 6.65997e-318)
(-0.00480541 0.00837135 5.93754e-318)
(-0.00489837 0.00636138 5.02921e-318)
(-0.00492863 0.0041937 4.0175e-318)
(-0.00493243 0.00194208 2.96531e-318)
(-0.00492608 -0.00036372 1.90334e-318)
(-0.0049118 -0.00269299 8.60109e-319)
(-0.00485945 -0.00501179 -1.48738e-319)
(-0.00473153 -0.00723116 -1.09088e-318)
(-0.00445116 -0.00921297 -1.92908e-318)
(-0.00398857 -0.0107016 -2.58936e-318)
(-0.00320967 -0.0113864 -2.97693e-318)
(-0.00228313 -0.0107459 -2.94314e-318)
(-0.000868697 -0.00841175 -2.35388e-318)
(7.03004e-05 -0.00360067 -1.04444e-318)
(-0.00150727 0.00504679 2.1505e-318)
(-0.0016131 0.0111569 4.74951e-318)
(-0.00238217 0.0139117 6.14506e-318)
(-0.00260744 0.01457 6.67609e-318)
(-0.00274713 0.013741 6.63086e-318)
(-0.00260546 0.0120762 6.18083e-318)
(-0.0023694 0.00992607 5.464e-318)
(-0.00208626 0.00754571 4.58253e-318)
(-0.00185092 0.00505447 3.60657e-318)
(-0.00172138 0.00251075 2.58632e-318)
(-0.00172576 -8.19484e-05 1.5516e-318)
(-0.00186911 -0.00272244 5.25977e-319)
(-0.00211049 -0.00540466 -4.7244e-319)
(-0.00239276 -0.00805943 -1.41688e-318)
(-0.00259581 -0.010551 -2.27099e-318)
(-0.00265633 -0.0125876 -2.97527e-318)
(-0.0023383 -0.013781 -3.43642e-318)
(-0.00183462 -0.0134082 -3.52566e-318)
(-0.000593177 -0.0108713 -2.98668e-318)
(6.64568e-05 -0.00486545 -1.4957e-318)
(-0.00149343 0.00643475 1.77955e-318)
(-0.00116691 0.0137054 4.14178e-318)
(-0.00152816 0.0166189 5.51657e-318)
(-0.00111409 0.0170092 6.11781e-318)
(-0.000617557 0.0157347 6.12484e-318)
(0.000174905 0.0136266 5.72058e-318)
(0.00098054 0.0110925 5.04245e-318)
(0.00172979 0.00840981 4.19603e-318)
(0.00229152 0.00568522 3.25364e-318)
(0.00259122 0.00295185 2.26376e-318)
(0.00258914 0.000179878 1.25845e-318)
(0.00227695 -0.00266774 2.60763e-319)
(0.00170198 -0.00562126 -7.07206e-319)
(0.000934288 -0.00864532 -1.6159e-318)
(0.000133093 -0.0116216 -2.41888e-318)
(-0.000613335 -0.0142416 -3.044e-318)
(-0.000948777 -0.0160506 -3.38862e-318)
(-0.00109439 -0.0161145 -3.30272e-318)
(-0.000194648 -0.0135464 -2.63189e-318)
(4.2682e-05 -0.00634958 -1.18319e-318)
(-0.0015404 0.00785217 1.97782e-318)
(-0.000591399 0.0160174 4.32974e-318)
(-0.000355003 0.0188654 5.55784e-318)
(0.000915161 0.0188475 5.99011e-318)
(0.00221393 0.0170919 5.89832e-318)
(0.00378582 0.0145732 5.44049e-318)
(0.00524892 0.0117355 4.74527e-318)
(0.00652459 0.0088562 3.90183e-318)
(0.0074532 0.00601858 2.97517e-318)
(0.00795097 0.00322295 2.00761e-318)
(0.00796919 0.000403004 1.02819e-318)
(0.00749531 -0.00251993 5.73017e-320)
(0.006577 -0.00561691 -8.8542e-319)
(0.00528734 -0.00889704 -1.77343e-318)
(0.0038121 -0.0122742 -2.56718e-318)
(0.00224751 -0.0154524 -3.20754e-318)
(0.00107302 -0.0179303 -3.60114e-318)
(2.01318e-05 -0.0185993 -3.6243e-318)
(0.000360125 -0.016225 -3.03019e-318)
(-7.59389e-05 -0.0080171 -1.5016e-318)
(-0.00158362 0.0091809 1.73713e-318)
(0.000185184 0.0178242 3.96781e-318)
(0.00123384 0.0203859 5.20811e-318)
(0.00353362 0.0198644 5.69491e-318)
(0.00575188 0.0176608 5.6232e-318)
(0.00817084 0.0148217 5.17627e-318)
(0.0103251 0.011804 4.48873e-318)
(0.0121425 0.00886137 3.65782e-318)
(0.0134472 0.00604687 2.74951e-318)
(0.0141555 0.00332491 1.80724e-318)
(0.0142133 0.00059581 8.57481e-319)
(0.0136042 -0.00225886 -7.95001e-320)
(0.0123693 -0.00534832 -9.8407e-319)
(0.010574 -0.00873224 -1.82955e-318)
(0.00841169 -0.0123654 -2.57409e-318)
(0.00596703 -0.0159993 -3.15121e-318)
(0.00381952 -0.0191091 -3.46335e-318)
(0.00164279 -0.0205036 -3.36785e-318)
(0.00116526 -0.018557 -2.70067e-318)
(-0.000207797 -0.00973404 -1.2426e-318)
(-0.00158172 0.0102595 1.89707e-318)
(0.0012421 0.0188323 4.14366e-318)
(0.00329544 0.0209638 5.28171e-318)
(0.00672385 0.0199171 5.63926e-318)
(0.00989874 0.0173757 5.48853e-318)
(0.0131495 0.0143517 4.99451e-318)
(0.0159607 0.0113041 4.2882e-318)
(0.018281 0.00843973 3.45846e-318)
(0.0199346 0.00578169 2.56589e-318)
(0.020847 0.00326042 1.64927e-318)
(0.0209638 0.000749776 7.32793e-319)
(0.020265 -0.00190056 -1.65477e-319)
(0.0187797 -0.00483089 -1.0294e-318)
(0.0165569 -0.00815022 -1.836e-318)
(0.013773 -0.0118545 -2.5489e-318)
(0.0104849 -0.0157763 -3.1144e-318)
(0.00731849 -0.0193764 -3.4482e-318)
(0.00388147 -0.021528 -3.4405e-318)
(0.00232652 -0.0201542 -2.86597e-318)
(-0.000324544 -0.0113043 -1.42799e-318)
(-0.00133403 0.0108781 1.74125e-318)
(0.00262402 0.0188214 3.92479e-318)
(0.00583159 0.0204947 5.0725e-318)
(0.0103423 0.0189967 5.45606e-318)
(0.0144181 0.0162931 5.29963e-318)
(0.0183955 0.0132498 4.79848e-318)
(0.0217662 0.010329 4.09066e-318)
(0.0245013 0.00767456 3.27214e-318)
(0.0264439 0.00528623 2.40235e-318)
(0.0275344 0.00306653 1.51849e-318)
(0.0277238 0.000873882 6.42863e-319)
(0.026991 -0.0014627 -2.09316e-319)
(0.0253485 -0.00410224 -1.02231e-318)
(0.0228258 -0.00719575 -1.77461e-318)
(0.0195562 -0.0107709 -2.42905e-318)
(0.0155702 -0.014766 -2.93016e-318)
(0.0114495 -0.01862 -3.19421e-318)
(0.00679389 -0.0214404 -3.09807e-318)
(0.00393466 -0.0206493 -2.49282e-318)
(-0.000144821 -0.0124421 -1.17561e-318)
(-0.000792289 0.0107273 1.86836e-318)
(0.0042565 0.0176146 4.06476e-318)
(0.00866574 0.0189689 5.11502e-318)
(0.0140962 0.0171847 5.37885e-318)
(0.0189348 0.0145326 5.1489e-318)
(0.0234617 0.0116388 4.60782e-318)
(0.027241 0.00898605 3.88996e-318)
(0.0302614 0.00664804 3.08384e-318)
(0.0324038 0.00461182 2.24288e-318)
(0.0336277 0.00276087 1.39985e-318)
(0.0338957 0.000949981 5.7321e-319)
(0.0331879 -0.000999191 -2.24963e-319)
(0.0314988 -0.00325063 -9.80903e-319)
(0.0288391 -0.00598485 -1.67592e-318)
(0.025275 -0.00924536 -2.27839e-318)
(0.020824 -0.0130865 -2.74081e-318)
(0.0159138 -0.0168975 -2.99189e-318)
(0.0102345 -0.0201722 -2.94687e-318)
(0.00593577 -0.0197596 -2.42574e-318)
(0.000395156 -0.0127417 -1.21172e-318)
(0.000213211 0.00981604 1.77957e-318)
(0.00594363 0.0154584 3.91875e-318)
(0.0115196 0.0166326 4.93344e-318)
(0.0175621 0.0147496 5.17556e-318)
(0.0229617 0.0123329 4.91488e-318)
(0.027805 0.0097312 4.36091e-318)
(0.0318073 0.00745247 3.65002e-318)
(0.0349563 0.0055021 2.86972e-318)
(0.0371899 0.0038629 2.07037e-318)
(0.0384871 0.00240933 1.28012e-318)
(0.0388283 0.00100386 5.13275e-319)
(0.0381967 -0.000526309 -2.21159e-319)
(0.0365705 -0.00233662 -9.11141e-319)
(0.0339467 -0.0046214 -1.53867e-318)
(0.0303045 -0.00742527 -2.07303e-318)
(0.0256812 -0.0109105 -2.46483e-318)
(0.0202261 -0.0144031 -2.64294e-318)
(0.0139189 -0.0178644 -2.51428e-318)
(0.00814557 -0.017604 -1.96994e-318)
(0.00161341 -0.0121087 -9.08898e-319)
(0.00130714 0.00787563 1.89396e-318)
(0.00729689 0.0124499 3.98398e-318)
(0.013872 0.0136342 4.85519e-318)
(0.0202202 0.0118782 4.96022e-318)
(0.0259483 0.00984984 4.62899e-318)
(0.0308572 0.00765637 4.05275e-318)
(0.034875 0.00582111 3.35706e-318)
(0.0379799 0.00429493 2.6165e-318)
(0.0401822 0.00306279 1.87354e-318)
(0.0414803 0.00200086 1.14897e-318)
(0.0418775 0.000989026 4.53908e-319)
(0.0413604 -0.000128494 -2.06534e-319)
(0.0398971 -0.00148732 -8.2301e-319)
(0.0374729 -0.00327783 -1.37943e-318)
(0.033974 -0.00553555 -1.84817e-318)
(0.0294776 -0.00849922 -2.18521e-318)
(0.0237592 -0.0114415 -2.32806e-318)
(0.0172454 -0.0147463 -2.21373e-318)
(0.0101097 -0.014316 -1.7216e-318)
(0.0030675 -0.0101737 -7.88717e-319)
(0.00245642 0.00581696 1.86233e-318)
(0.00800471 0.00945136 3.79603e-318)
(0.0153161 0.0105222 4.54062e-318)
(0.0215732 0.00899639 4.57372e-318)
(0.0273315 0.00740476 4.20827e-318)
(0.0320206 0.00568122 3.64117e-318)
(0.0358233 0.00431194 2.98632e-318)
(0.0387019 0.00320922 2.30882e-318)
(0.040744 0.0023612 1.64148e-318)
(0.0419627 0.00165493 1.00001e-318)
(0.042387 0.000995102 3.89926e-319)
(0.0420048 0.000250833 -1.85403e-319)
(0.0407841 -0.000685049 -7.18969e-319)
(0.0386998 -0.00198366 -1.19707e-318)
(0.0355589 -0.00366792 -1.59319e-318)
(0.0314899 -0.0060148 -1.86274e-318)
(0.0258558 -0.00830547 -1.94357e-318)
(0.019682 -0.0112411 -1.76068e-318)
(0.0114735 -0.0106907 -1.24783e-318)
(0.00496797 -0.00785849 -4.42436e-319)
(0.00280415 0.00323354 1.91264e-318)
(0.00777354 0.00636379 3.61842e-318)
(0.0153914 0.00727176 4.14815e-318)
(0.0212723 0.00615705 4.04568e-318)
(0.0267276 0.00503875 3.64884e-318)
(0.0309153 0.00382951 3.11162e-318)
(0.0342637 0.00291574 2.52516e-318)
(0.0367366 0.00220579 1.93619e-318)
(0.0384903 0.0016919 1.36747e-318)
(0.0395468 0.00128191 8.27357e-319)
(0.0399611 0.000909448 3.18317e-319)
(0.039715 0.000473746 -1.58882e-319)
(0.0387937 -0.000100547 -6.00458e-319)
(0.0371524 -0.000948842 -9.95315e-319)
(0.0345607 -0.00208608 -1.32026e-318)
(0.0311606 -0.00375751 -1.53731e-318)
(0.0259646 -0.00535496 -1.59208e-318)
(0.0204901 -0.00759 -1.43173e-318)
(0.0117055 -0.00684776 -9.78601e-319)
(0.00598607 -0.00448517 -2.75758e-319)
(0.00238471 0.00187817 1.85205e-318)
(0.00641136 0.00415441 3.15222e-318)
(0.0136469 0.0046098 3.46103e-318)
(0.0186558 0.00384631 3.28772e-318)
(0.0233167 0.00314829 2.90882e-318)
(0.0266711 0.00241956 2.44572e-318)
(0.0293129 0.00190659 1.96386e-318)
(0.0312148 0.00152383 1.49336e-318)
(0.0325645 0.00127334 1.0477e-318)
(0.0333859 0.00108407 6.29148e-319)
(0.0337449 0.000923508 2.38026e-319)
(0.0336207 0.000716455 -1.27489e-319)
(0.0330182 0.000426309 -4.65449e-319)
(0.0318856 -4.97257e-05 -7.67926e-319)
(0.0300004 -0.000707089 -1.01641e-318)
(0.0275077 -0.00174753 -1.17754e-318)
(0.0232311 -0.00272371 -1.20272e-318)
(0.0190348 -0.00430805 -1.03215e-318)
(0.0105917 -0.00376431 -6.21223e-319)
(0.00699692 -0.00254816 -3.20797e-320)
(0.00171487 0.000748075 1.36557e-318)
(0.0046514 0.0021407 2.24458e-318)
(0.0104914 0.00220171 2.39181e-318)
(0.0141338 0.00192423 2.21267e-318)
(0.0174595 0.0016185 1.92755e-318)
(0.019669 0.00132282 1.60263e-318)
(0.0213655 0.00112399 1.27667e-318)
(0.0225444 0.000984802 9.64332e-319)
(0.0233888 0.000911733 6.72799e-319)
(0.0238969 0.000864966 4.01181e-319)
(0.0241606 0.000833202 1.48551e-319)
(0.0241157 0.000773794 -8.70544e-320)
(0.0238398 0.000671051 -3.05901e-319)
(0.0232085 0.000473308 -5.02712e-319)
(0.0221506 0.000178649 -6.66831e-319)
(0.0206419 -0.000288122 -7.76859e-319)
(0.0177539 -0.000753721 -8.01251e-319)
(0.0149403 -0.00141522 -7.08619e-319)
(0.00818382 -0.00108875 -4.54456e-319)
(0.00567334 0.000544795 -3.63484e-320)
(-0.000994114 0.000500064 1.27072e-318)
(0.0017483 0.00148583 1.39065e-318)
(0.00499909 0.00116872 1.25094e-318)
(0.00663597 0.00105728 1.05059e-318)
(0.00804884 0.000981113 8.61626e-319)
(0.00883194 0.000922887 6.87986e-319)
(0.00942188 0.000908056 5.32341e-319)
(0.0098216 0.000886592 3.93553e-319)
(0.010096 0.000895162 2.69928e-319)
(0.0102942 0.000893792 1.57933e-319)
(0.0103878 0.000910578 5.49352e-320)
(0.0104414 0.00090329 -4.09235e-320)
(0.0103799 0.000906953 -1.31337e-319)
(0.0103075 0.000859599 -2.14672e-319)
(0.00998441 0.000828756 -2.87596e-319)
(0.00970842 0.000695742 -3.40169e-319)
(0.00847214 0.000635933 -3.55599e-319)
(0.00782194 0.000271948 -3.07931e-319)
(0.00366553 0.000452958 -1.72523e-319)
(0.00429975 0.000128787 6.13382e-320)
)
;

boundaryField
{
    cavity
    {
        type            myHeatFlux;
        ThetaWall       uniform 0;
        value           nonuniform List<vector> 
60
(
(0.001 0 0)
(0.001 0 0)
(0.001 0 0)
(0.001 0 0)
(0.001 0 0)
(0.001 0 0)
(0.001 0 0)
(0.001 0 0)
(0.001 0 0)
(0.001 0 0)
(0.001 0 0)
(0.001 0 0)
(0.001 0 0)
(0.001 0 0)
(0.001 0 0)
(0.001 0 0)
(0.001 0 0)
(0.001 0 0)
(0.001 0 0)
(0.001 0 0)
(0 -0.001 0)
(0 -0.001 0)
(0 -0.001 0)
(0 -0.001 0)
(0 -0.001 0)
(0 -0.001 0)
(0 -0.001 0)
(0 -0.001 0)
(0 -0.001 0)
(0 -0.001 0)
(0 -0.001 0)
(0 -0.001 0)
(0 -0.001 0)
(0 -0.001 0)
(0 -0.001 0)
(0 -0.001 0)
(0 -0.001 0)
(0 -0.001 0)
(0 -0.001 0)
(0 -0.001 0)
(-0.001 0 0)
(-0.001 0 0)
(-0.001 0 0)
(-0.001 0 0)
(-0.001 0 0)
(-0.001 0 0)
(-0.001 0 0)
(-0.001 0 0)
(-0.001 0 0)
(-0.001 0 0)
(-0.001 0 0)
(-0.001 0 0)
(-0.001 0 0)
(-0.001 0 0)
(-0.001 0 0)
(-0.001 0 0)
(-0.001 0 0)
(-0.001 0 0)
(-0.001 0 0)
(-0.001 0 0)
)
;
    }
    lid
    {
        type            myHeatFlux;
        ThetaWall       uniform 0;
        value           nonuniform List<vector> 
20
(
(0.000135815 0.0009 0)
(0.000135815 0.0009 0)
(0.000135815 0.0009 0)
(0.000135815 0.0009 0)
(0.000135815 0.0009 0)
(0.000135815 0.0009 0)
(0.000135815 0.0009 0)
(0.000135815 0.0009 0)
(0.000135815 0.0009 0)
(0.000135815 0.0009 0)
(0.000135815 0.0009 0)
(0.000135815 0.0009 0)
(0.000135815 0.0009 0)
(0.000135815 0.0009 0)
(0.000135815 0.0009 0)
(0.000135815 0.0009 0)
(0.000135815 0.0009 0)
(0.000135815 0.0009 0)
(0.000135815 0.0009 0)
(0.000135815 0.0009 0)
)
;
    }
    frontAndBack
    {
        type            empty;
    }
}


// ************************************************************************* //
