/*--------------------------------*- C++ -*----------------------------------*\
| =========                 |                                                 |
| \\      /  F ield         | foam-extend: Open Source CFD                    |
|  \\    /   O peration     | Version:  3.0                                   |
|   \\  /    A nd           | Web:         http://www.extend-project.de       |
|    \\/     M anipulation  |                                                 |
\*---------------------------------------------------------------------------*/
FoamFile
{
    version     2.0;
    format      ascii;
    class       volScalarField;
    location    "0.9";
    object      Theta;
}
// * * * * * * * * * * * * * * * * * * * * * * * * * * * * * * * * * * * * * //

dimensions      [0 0 0 0 0 0 0];

internalField   nonuniform List<scalar> 
400
(
0.0854256
0.0840366
0.0829801
0.0826835
0.0830537
0.0840811
0.0856323
0.0875918
0.0898363
0.0922441
0.094701
0.0970865
0.0992813
0.101142
0.102537
0.103261
0.103227
0.102054
0.0999807
0.0960498
0.092356
0.0899083
0.0894046
0.089189
0.0894422
0.0899566
0.0907111
0.0916524
0.0927297
0.0938818
0.0950499
0.0961586
0.0971483
0.0979384
0.0984777
0.0986747
0.0985208
0.0977898
0.0966839
0.0938956
0.0920832
0.0884406
0.0876113
0.0872759
0.0877198
0.088494
0.0895634
0.0908067
0.0921728
0.0935978
0.0950383
0.0964357
0.0977439
0.0988858
0.0998041
0.100353
0.100496
0.0997818
0.0984998
0.0945684
0.091023
0.086313
0.0853373
0.0849982
0.0857227
0.0868197
0.0882487
0.0898301
0.0915146
0.0932402
0.0949816
0.0966971
0.0983593
0.0998945
0.101247
0.102216
0.102755
0.102161
0.100862
0.0958592
0.0878467
0.0817769
0.080777
0.0805702
0.081821
0.0835061
0.0855895
0.0878104
0.0901214
0.0924578
0.0948147
0.0971676
0.0995092
0.101763
0.103873
0.105544
0.106734
0.106343
0.10507
0.0985196
0.0830217
0.075628
0.0748767
0.0750378
0.0770862
0.0795717
0.082491
0.0854911
0.0885422
0.0915861
0.0946511
0.0977423
0.100887
0.104015
0.10709
0.109707
0.111857
0.111913
0.110937
0.102725
0.0763727
0.0674935
0.0674269
0.0682604
0.0714629
0.0750041
0.0789702
0.0829017
0.0868114
0.0906584
0.0945201
0.0984465
0.102515
0.106681
0.110951
0.1148
0.118313
0.119142
0.118927
0.108705
0.0677568
0.0576717
0.0588315
0.0607365
0.0654518
0.07027
0.0754286
0.0803637
0.0851617
0.0898143
0.094466
0.0992271
0.104247
0.109524
0.11515
0.120484
0.125787
0.127835
0.129009
0.116849
0.0573274
0.0462406
0.0494246
0.052852
0.0594461
0.0657147
0.0721459
0.0780859
0.0837308
0.0891215
0.0944829
0.1
0.105909
0.112276
0.119324
0.126328
0.133841
0.137642
0.14117
0.127099
0.0450732
0.0339939
0.0399555
0.0453844
0.0540836
0.0618644
0.0695258
0.0763699
0.0827282
0.0887055
0.0946132
0.100716
0.107345
0.114656
0.123031
0.131743
0.141706
0.147826
0.15466
0.139689
0.0314079
0.0215596
0.0311825
0.0390353
0.0499243
0.0591516
0.0678788
0.0754333
0.0822951
0.0886436
0.0948705
0.101318
0.108401
0.116388
0.125821
0.136101
0.148525
0.157486
0.168724
0.154305
0.0167051
0.0107155
0.0242376
0.0348076
0.0476268
0.0580708
0.0675552
0.0755437
0.0826396
0.0891028
0.0953844
0.101891
0.109093
0.117387
0.127422
0.138909
0.15334
0.165491
0.181429
0.170939
0.00140863
0.00203263
0.0197088
0.0331788
0.0475196
0.0588515
0.0687025
0.0768013
0.0838331
0.0901393
0.0962007
0.102466
0.109421
0.117596
0.12766
0.139851
0.155551
0.17111
0.191917
0.189314
-0.013153
-0.00186221
0.0187946
0.0350795
0.0501479
0.0619162
0.0716637
0.079529
0.0862004
0.0920957
0.0976862
0.103435
0.109797
0.117425
0.126876
0.139135
0.154897
0.173724
0.197742
0.208968
-0.0275262
-0.00269806
0.0208734
0.0399987
0.0552133
0.066999
0.0762062
0.0835107
0.08955
0.0948076
0.0997105
0.104704
0.110167
0.116857
0.125111
0.136844
0.151615
0.173698
0.200251
0.230545
-0.0370838
0.00370839
0.0279426
0.0492072
0.0636216
0.074864
0.0830871
0.0895299
0.0947162
0.0991667
0.103232
0.107307
0.111663
0.117109
0.12369
0.134229
0.146743
0.171132
0.196776
0.250975
-0.0454568
0.0113822
0.0374707
0.0607738
0.0740665
0.0843437
0.0912397
0.0965589
0.100708
0.10421
0.107319
0.110345
0.113434
0.117389
0.121952
0.130817
0.14048
0.167075
0.192186
0.273926
-0.0378361
0.0297879
0.0549334
0.0778168
0.0889817
0.0975024
0.102741
0.106712
0.109725
0.112208
0.114338
0.116279
0.118101
0.12043
0.12289
0.12931
0.135422
0.160904
0.180706
0.284004
-0.0253536
0.0488235
0.074201
0.0961742
0.104947
0.11133
0.114697
0.117166
0.118956
0.120362
0.121472
0.122292
0.122808
0.123424
0.123668
0.127343
0.129782
0.153957
0.169508
0.296611
0.0306537
0.085284
0.106846
0.122296
0.127337
0.130432
0.131775
0.132543
0.133149
0.133398
0.13359
0.133251
0.132728
0.131542
0.130056
0.129772
0.128871
0.143665
0.150839
0.257427
)
;

boundaryField
{
    cavity
    {
        type            implicitExtrapolation;
    }
    lid
    {
        type            implicitExtrapolation;
    }
    frontAndBack
    {
        type            empty;
    }
}


// ************************************************************************* //
