/*--------------------------------*- C++ -*----------------------------------*\
| =========                 |                                                 |
| \\      /  F ield         | foam-extend: Open Source CFD                    |
|  \\    /   O peration     | Version:  3.0                                   |
|   \\  /    A nd           | Web:         http://www.extend-project.de       |
|    \\/     M anipulation  |                                                 |
\*---------------------------------------------------------------------------*/
FoamFile
{
    version     2.0;
    format      ascii;
    class       volScalarField;
    location    "17";
    object      p;
}
// * * * * * * * * * * * * * * * * * * * * * * * * * * * * * * * * * * * * * //

dimensions      [0 0 0 0 0 0 0];

internalField   nonuniform List<scalar> 
728
(
0.0270115
-0.027003
0.0617179
-0.0619043
-0.0214179
0.0214436
-0.192891
0.192381
-0.0658481
0.0781542
0.06592
-0.0783768
-0.0685249
-0.0804728
0.0688632
0.0804733
0.00390886
0.0951148
-0.0949977
-0.00388693
0.0386231
0.112333
-0.112751
-0.0386027
0.0285192
0.169794
-0.168294
-0.0287799
0.00147244
0.105745
-0.105329
-0.00142157
0.0383604
0.122479
-0.123069
-0.0383704
0.0847749
0.0351569
-0.0849473
-0.0353783
-0.0419772
0.094143
0.0419037
-0.0944052
-0.0400933
-0.0964971
0.0399924
0.0963161
-0.0747556
-0.123614
0.12467
0.0749708
0.227187
0.005554
-0.227394
-0.00547946
-0.0332832
0.086245
-0.0862299
0.0332771
-0.028105
-0.0963614
0.0960754
0.0280536
0.0703402
0.0402275
-0.0704624
-0.0399304
0.0209462
-0.0210857
0.137372
-0.135847
0.0745667
0.0350686
-0.035195
-0.0746364
-0.0164304
0.106802
0.0165002
-0.106777
0.0908475
-0.0907503
-0.0986341
0.0987949
-0.0104925
0.0694911
0.0105763
-0.0695574
0.0858531
0.244087
-0.0858345
-0.245161
0.0925187
-0.0924379
-0.11599
0.115798
0.0719998
0.0837269
-0.0719395
-0.0834703
-0.0296805
0.0298704
0.0737511
-0.074202
0.0427766
-0.077878
0.0777752
-0.0426365
-0.0117266
0.081969
0.0118317
-0.0819843
-0.0104678
0.0896264
0.0103993
-0.0896092
-0.035468
0.03551
0.068001
-0.0680911
-0.0313209
0.076756
-0.0766257
0.031413
-0.0663404
-0.0681979
0.0663662
0.0684067
-0.0655406
0.0656455
-0.0644673
0.0642792
-0.0215262
0.079202
-0.0794692
0.0216187
-0.0586775
-0.0623498
0.0588404
0.0624802
0.0341535
0.113884
-0.113727
-0.0342118
0.0391445
0.0907896
-0.0390973
-0.0907036
-0.0336296
0.0865737
-0.0867199
0.0334019
0.0579371
-0.0577555
0.0509994
-0.0509946
-0.0145177
-0.0981329
0.0145488
0.0980481
-0.18705
-0.0639804
0.18888
0.0640873
-0.0196099
-0.137787
0.139029
0.0198198
0.102475
-0.0284727
-0.10222
0.028483
-0.0677641
0.0678492
-0.0641093
0.0641343
-0.0533418
0.0534362
-0.0415079
0.0413903
0.106433
-0.106044
0.0522815
-0.0518714
-0.0492569
-0.14985
0.150426
0.049414
0.0452765
0.0984511
-0.0449384
-0.0987395
0.0560593
-0.0938412
0.0936608
-0.0560829
0.0153148
-0.0715067
0.0714841
-0.0152992
-0.0292465
-0.081309
0.0811642
0.0291232
0.0446973
-0.0775943
-0.044517
0.0775301
-0.0499958
-0.0670463
0.0670754
0.0500455
-0.086779
0.0865867
0.0356571
-0.0357641
-0.0239914
-0.162004
0.161332
0.0238034
-0.0275775
-0.0784258
0.0783249
0.027506
-0.0167291
0.0167107
0.107523
-0.1077
0.0652991
-0.0455397
0.0453248
-0.0650574
-0.0107414
0.0864901
0.0107072
-0.0865167
0.102678
0.0454167
-0.0452942
-0.102368
0.0298505
-0.0299002
0.148141
-0.149591
0.0912467
-0.177157
-0.0914121
0.177331
-0.0802105
-0.0462382
0.08002
0.0461632
0.110065
0.150506
-0.110299
-0.149903
-0.0130582
-0.0842578
0.0131239
0.0842875
-0.105058
0.043805
0.104727
-0.0435606
-0.0869896
-0.0503895
0.0505934
0.0867526
-0.0581154
0.0580039
-0.13705
0.137491
0.0853125
-0.00394958
0.00393947
-0.0852602
0.0528563
0.0599077
-0.059513
-0.0527527
0.0310541
0.105991
-0.030759
-0.106234
0.0013864
0.0980857
-0.0979032
-0.00139034
0.0870739
0.0541713
-0.0538923
-0.0863364
-0.0461458
0.0554605
-0.0554231
0.0460483
-0.0748071
0.00286386
0.0748223
-0.00286057
-0.0488001
-0.0650815
0.0651399
0.0487376
0.00924287
-0.00924294
0.128431
-0.128779
-0.0253032
0.096111
-0.0962468
0.0252834
-0.0673812
0.0672262
0.159217
-0.159423
-0.05416
0.054259
-0.0876184
0.087356
-0.136458
-0.0988308
0.0988868
0.136651
-0.0793598
0.0791731
-0.108774
0.108908
0.0353247
0.0635302
-0.0353553
-0.0635636
0.0350092
-0.0349582
0.090854
-0.0907055
-0.0736432
0.0735947
-0.14088
0.141013
-0.00563906
0.112798
-0.112499
0.00577726
-0.0632053
-0.0943144
0.0634629
0.0942759
0.082262
0.0804074
-0.0824376
-0.080973
-0.00388678
0.00391928
0.10378
-0.103597
-0.0553168
-0.0748387
0.0552881
0.0748774
0.0332412
0.105573
-0.0331085
-0.10546
0.021347
0.0802286
-0.0800285
-0.0212399
0.0970872
0.091638
-0.096897
-0.0917238
-0.0670099
-0.107822
0.107815
0.0673091
-0.0578359
-0.0759377
0.0577777
0.0759536
0.0922139
-0.0241225
-0.0921039
0.0241187
0.01134
0.0855623
-0.0855594
-0.0114263
-0.00320461
0.0852899
0.00317495
-0.0852652
-0.0145013
-0.0878554
0.0146049
0.0878699
-0.0733095
0.115714
0.073116
-0.115688
-0.17435
0.201191
-0.201662
0.174564
0.0653052
0.251576
-0.0653174
-0.251194
-0.0571402
0.0575015
0.070536
-0.0708979
0.0155492
-0.0155578
0.0969656
-0.0971883
-0.0566201
0.106958
-0.107018
0.0564855
0.00636456
-0.090962
-0.0063554
0.0910748
-0.00153418
0.0908788
0.00155645
-0.0908058
0.0183838
-0.0184897
0.0894008
-0.0894799
0.0184355
-0.0658428
0.0657218
-0.0184109
0.0200983
0.0842435
-0.0843395
-0.0202245
0.0436149
-0.0621424
-0.0436135
0.0622305
-0.0977853
0.0634253
0.0983811
-0.0637578
-0.114906
0.0199409
-0.0198301
0.114767
0.034833
-0.0582033
-0.0349298
0.058235
0.0213389
-0.0213077
-0.110496
0.110577
-0.0929711
-0.0261051
0.0928688
0.0261215
0.0164523
0.129013
-0.0164247
-0.129737
-0.102997
0.102904
0.018896
-0.01893
0.082083
0.0696137
-0.0811108
-0.0692923
0.0422209
-0.0703515
0.0702749
-0.0422955
-0.0803381
-0.0686878
0.0696092
0.0801371
-0.0231949
0.0714549
0.0231633
-0.0715403
-0.10241
0.102481
0.00836824
-0.00832624
0.113683
0.0178379
-0.0177947
-0.114521
-0.104753
-0.0496529
0.0499212
0.104997
-0.029122
-0.0684378
0.0290753
0.0683604
0.11745
-0.12012
-0.118013
0.120399
-0.0916926
0.0841042
0.0919986
-0.0843581
-0.141797
5.44697e-05
0.14209
0.000141221
-0.0761238
0.0761407
0.00836995
-0.00838465
-0.0824178
-0.0454814
0.082296
0.0453562
0.119255
0.0198458
-0.118832
-0.0198481
0.00384467
0.0739603
-0.00378862
-0.0740193
-0.0526884
-0.0697825
0.052738
0.070025
-0.0542847
0.0618194
0.0544209
-0.0616854
0.0871535
0.0545982
-0.0872901
-0.0546359
-0.0790098
0.0585508
-0.0585941
0.0790517
-0.0110062
0.0110434
0.13748
-0.136486
-0.000805157
0.116866
0.000898826
-0.11669
0.0736215
-0.0353486
0.0351433
-0.0737465
0.0930395
-0.0929588
-0.130831
0.131494
-0.123245
0.12404
-0.0990812
0.0992308
0.042972
-0.0696414
0.0696157
-0.0431587
-0.0423775
-0.0803591
0.0802012
0.0422282
-0.0177326
-0.122425
0.0180215
0.122883
0.124241
-0.123986
-0.0230221
0.0233151
0.0608057
-0.0607993
0.041853
-0.0419105
0.00324487
-0.0833325
0.0834348
-0.00322462
-0.10138
-0.179684
0.179587
0.101688
0.000166269
0.124213
-0.000179732
-0.124437
-0.0551394
0.0550617
-0.0689352
0.0689832
-0.0509356
0.0496965
0.0508163
-0.0496862
0.0351297
0.112429
-0.0352184
-0.112273
-0.0856103
-0.00426272
0.0857301
0.00430592
0.128793
-0.0445282
-0.128463
0.0445838
0.113917
0.0362538
-0.0361174
-0.113853
-0.0735901
-0.0492494
0.0491076
0.0735703
-0.0570268
-0.0736048
0.0566551
0.0739722
-0.0587474
0.128689
-0.128535
0.0590312
-0.061658
0.140574
-0.139784
0.0617994
0.031852
0.107056
-0.107516
-0.0315986
0.169506
-0.126844
-0.169759
0.127041
0.0628802
0.0572499
-0.0626997
-0.0572333
0.0356337
0.147779
-0.146568
-0.0354404
0.0413784
0.115162
-0.114479
-0.040919
-0.00639851
0.0064109
-0.0930764
0.0932622
0.111278
0.00881489
-0.111255
-0.00871795
-0.0538914
0.0539796
-0.0588913
0.0590331
0.046854
-0.0717898
-0.0469302
0.0717621
0.0562406
0.060285
-0.060178
-0.0563554
-0.0147076
0.0147707
0.0944255
-0.0945158
0.0923693
-0.0923464
-0.0733783
0.0732932
-0.0950166
0.0706682
0.0949158
-0.0706875
-0.00819781
-0.0990404
0.00802723
0.0992351
-0.0964458
0.0965518
0.0602791
-0.0602447
0.00811152
0.108155
-0.1077
-0.00803629
-0.114037
-0.0594134
0.113956
0.0593217
-0.0824973
0.0196171
0.0824217
-0.0198043
0.0162387
-0.0983054
0.0982307
-0.0163779
0.0851274
0.0263611
-0.0266337
-0.0852564
0.0945417
-0.0260586
0.0260154
-0.0947644
0.0276895
0.0884679
-0.0278368
-0.088601
)
;

boundaryField
{
    insideCircle
    {
        type            zeroGradient;
    }
    outsideCircle
    {
        type            zeroGradient;
    }
    topAndBottom
    {
        type            empty;
    }
}


// ************************************************************************* //
