/*--------------------------------*- C++ -*----------------------------------*\
| =========                 |                                                 |
| \\      /  F ield         | foam-extend: Open Source CFD                    |
|  \\    /   O peration     | Version:  3.0                                   |
|   \\  /    A nd           | Web:         http://www.extend-project.de       |
|    \\/     M anipulation  |                                                 |
\*---------------------------------------------------------------------------*/
FoamFile
{
    version     2.0;
    format      ascii;
    class       volScalarField;
    location    "15";
    object      Theta;
}
// * * * * * * * * * * * * * * * * * * * * * * * * * * * * * * * * * * * * * //

dimensions      [0 2 -2 0 0 0 0];

internalField   nonuniform List<scalar> 
728
(
1.13617
1.13639
1.13632
1.13586
1.56534
1.56506
1.56408
1.55362
1.27312
1.26988
1.27482
1.27647
1.23336
1.23307
1.23343
1.23
1.18274
1.18384
1.18099
1.18239
1.11007
1.11126
1.11
1.10841
0.205243
0.200864
0.199464
0.204719
1.21799
1.21765
1.2171
1.21799
1.32313
1.31723
1.31889
1.32725
1.12063
1.12214
1.12021
1.12118
1.2165
1.21406
1.21451
1.21342
1.15689
1.15889
1.15915
1.15941
1.29837
1.29434
1.30199
1.30461
0.59717
0.599473
0.588596
0.59878
1.14136
1.14208
1.13998
1.13876
1.18042
1.17731
1.1777
1.17826
1.13069
1.13111
1.1306
1.12989
0.892717
0.893369
0.887951
0.886228
1.0735
1.07403
1.07523
1.07314
1.16278
1.16144
1.16233
1.16188
1.16391
1.16291
1.16091
1.15319
1.13953
1.13985
1.13938
1.13936
2.03102
2.03019
2.03134
2.02788
1.02326
1.02165
1.02354
1.01361
1.16612
1.17066
1.16654
1.17071
1.15765
1.15848
1.15658
1.15835
1.19585
1.19447
1.19419
1.19348
1.14981
1.14973
1.14989
1.14969
1.12785
1.1283
1.12766
1.128
1.13242
1.13101
1.13255
1.13045
1.15703
1.15613
1.15776
1.1586
1.09764
1.0975
1.09841
1.09819
1.13987
1.1429
1.14387
1.13977
1.11889
1.12044
1.11766
1.11741
1.05909
1.06088
1.06105
1.05922
1.04966
1.03218
1.03338
1.04965
1.18071
1.18034
1.18041
1.1797
1.21475
1.21456
1.21416
1.21366
1.14893
1.14994
1.14954
1.15076
1.12379
1.12336
1.12389
1.1238
1.82498
1.85385
1.85326
1.84847
1.11507
1.1085
1.1192
1.11731
1.16057
1.16078
1.16174
1.16165
1.19429
1.19731
1.19714
1.19538
1.13588
1.13591
1.13639
1.13635
1.14508
1.14378
1.14343
1.14329
1.49315
1.47097
1.49367
1.49455
1.19717
1.19627
1.20102
1.1962
1.20252
1.19956
1.19997
1.20329
1.13805
1.13759
1.13788
1.1378
1.16426
1.16382
1.16414
1.1651
1.17633
1.17299
1.17604
1.17652
1.16701
1.16703
1.1672
1.16844
1.14642
1.14657
1.14629
1.14609
1.21787
1.23031
1.2238
1.21872
1.17521
1.17497
1.17534
1.17671
1.12537
1.12569
1.12679
1.12429
1.097
1.09731
1.09776
1.09849
1.19845
1.19855
1.19763
1.19833
1.19229
1.191
1.18982
1.19208
1.21582
1.21156
1.21389
1.22076
0.360464
0.370314
0.36369
0.363993
1.13558
1.13419
1.13582
1.13586
0.504153
0.503093
0.50371
0.51846
1.20068
1.19985
1.20033
1.20188
1.05641
1.05533
1.05622
1.05033
1.16401
1.16352
1.16473
1.16384
1.24608
1.24344
1.22693
1.22827
1.14827
1.1482
1.14814
1.14787
1.20261
1.20821
1.20311
1.20458
1.23229
1.23242
1.23275
1.23099
1.21119
1.2117
1.2101
1.21106
1.14966
1.14981
1.14725
1.15345
1.13772
1.13785
1.1377
1.13869
1.13404
1.13434
1.13439
1.13428
1.1813
1.18132
1.18144
1.18182
1.07379
1.07217
1.08396
1.08069
1.2206
1.22116
1.22059
1.22165
1.53651
1.53455
1.54348
1.54667
1.2009
1.20173
1.20135
1.19937
1.41154
1.40538
1.4106
1.40878
0.997426
1.00209
1.00617
1.00786
1.13856
1.13832
1.13816
1.13809
1.21324
1.21369
1.2138
1.21238
1.63725
1.63507
1.63358
1.64277
1.13109
1.13234
1.12794
1.12956
1.15836
1.15396
1.1546
1.15696
1.18442
1.19092
1.18772
1.18736
1.22217
1.22116
1.22303
1.22009
1.18288
1.18292
1.18429
1.18297
1.18282
1.18253
1.18247
1.17982
1.1546
1.15663
1.155
1.15511
1.31653
1.32401
1.32001
1.32116
1.30781
1.30395
1.31165
1.30909
1.21312
1.21322
1.21437
1.21341
1.15209
1.15124
1.15002
1.15112
1.13941
1.14018
1.13991
1.14013
1.17064
1.17066
1.17055
1.17027
1.16735
1.16612
1.16685
1.16785
1.29026
1.2919
1.28924
1.29541
1.90829
1.90549
1.90616
1.90637
1.93576
1.93384
1.93522
1.94265
1.18732
1.18183
1.1878
1.18182
1.17761
1.17608
1.17525
1.17693
1.26797
1.26955
1.27207
1.26676
1.14794
1.14769
1.14682
1.1471
1.11838
1.11777
1.11759
1.11801
1.09246
1.09288
1.09321
1.09182
1.14224
1.14218
1.14235
1.14218
1.15997
1.15853
1.15823
1.15851
1.13893
1.13709
1.13795
1.13718
1.23969
1.23802
1.24239
1.24019
1.21216
1.21316
1.2116
1.2139
1.13264
1.13199
1.13279
1.13276
1.18433
1.18541
1.1824
1.18033
1.18318
1.18103
1.1839
1.18152
1.18509
1.18922
1.18703
1.18904
1.19614
1.19692
1.19892
1.19925
1.2202
1.21691
1.21257
1.21951
1.15544
1.15465
1.15487
1.15357
1.23074
1.23075
1.23791
1.2338
1.14412
1.14417
1.14474
1.14388
1.15997
1.16008
1.16174
1.16024
1.1313
1.13269
1.13525
1.1328
1.27079
1.27102
1.2731
1.27088
1.14051
1.14006
1.14066
1.14033
1.47525
1.47787
1.47602
1.47515
1.29789
1.28813
1.29543
1.30113
1.3097
1.317
1.32636
1.31786
1.13572
1.13605
1.13585
1.13595
1.2256
1.22587
1.22593
1.22561
1.23814
1.23253
1.23462
1.23595
1.13531
1.13536
1.13534
1.1351
1.15052
1.15111
1.14935
1.15091
1.19145
1.19623
1.19041
1.19127
1.17199
1.17237
1.17174
1.17156
1.16469
1.16526
1.16379
1.16441
1.18906
1.18646
1.18499
1.18517
1.31605
1.31403
1.31623
1.3159
1.14138
1.14233
1.14174
1.14112
1.30731
1.30365
1.30846
1.31002
1.03403
1.03811
1.03474
1.03637
1.16079
1.15938
1.15964
1.15843
1.12673
1.12478
1.12503
1.12639
1.1709
1.17048
1.17283
1.16861
1.27535
1.26845
1.27177
1.27318
1.14432
1.14412
1.14476
1.14391
1.13508
1.13482
1.13514
1.13513
1.44678
1.44614
1.44353
1.44663
1.35839
1.35517
1.35864
1.35989
1.12073
1.12198
1.12122
1.1209
1.13467
1.13471
1.13518
1.13488
1.21852
1.21701
1.21686
1.21558
1.167
1.16754
1.16767
1.16742
1.29469
1.29397
1.29473
1.28749
1.17302
1.17191
1.17262
1.16974
1.10728
1.1073
1.10753
1.10778
1.25672
1.25322
1.25333
1.25652
1.26036
1.26165
1.25953
1.2509
1.28784
1.28838
1.28474
1.28423
1.24294
1.24373
1.24123
1.2375
0.710726
0.71388
0.710153
0.71225
1.13792
1.1357
1.13816
1.13722
1.28453
1.27807
1.28237
1.27759
1.08714
1.08305
1.0907
1.08487
1.14625
1.1473
1.14738
1.1468
1.11533
1.11123
1.11444
1.11378
1.12956
1.13152
1.12952
1.12964
1.13113
1.13085
1.13067
1.13109
1.17466
1.17486
1.17482
1.17456
1.14611
1.14789
1.14711
1.14772
1.1573
1.15729
1.16831
1.16938
1.19647
1.20515
1.20308
1.20327
1.17259
1.16936
1.16999
1.17124
1.14132
1.14536
1.14486
1.14469
1.21595
1.217
1.21506
1.21378
1.38676
1.37709
1.38699
1.37971
1.19603
1.19751
1.19659
1.19647
1.19524
1.19469
1.19654
1.1936
1.13406
1.1333
1.13389
1.13367
1.17586
1.17552
1.17617
1.17459
1.14882
1.14957
1.14941
1.14915
)
;

boundaryField
{
    insideCircle
    {
        type            myTemperature;
        value           nonuniform List<scalar> 
12
(
3.35833
3.35804
3.35853
3.36001
3.3457
3.3454
3.34586
3.34554
3.35748
3.35781
3.35764
3.35745
)
;
    }
    outsideCircle
    {
        type            myTemperature;
        value           nonuniform List<scalar> 
60
(
1.12708
1.12716
1.12742
1.12691
1.12575
1.12573
1.12567
1.12552
1.12734
1.12779
1.12747
1.12752
1.1254
1.12502
1.12532
1.12519
1.12763
1.12778
1.12762
1.12779
1.12616
1.12647
1.1265
1.12635
1.12782
1.12785
1.12764
1.12762
1.12772
1.1274
1.12784
1.12764
1.13036
1.13023
1.13039
1.13065
1.12772
1.12786
1.12776
1.12758
1.12774
1.12765
1.12797
1.12791
1.12815
1.12846
1.12849
1.12833
1.12872
1.1289
1.12881
1.12854
1.12853
1.12834
1.1286
1.12842
1.13017
1.13037
1.13051
1.13024
)
;
    }
    topAndBottom
    {
        type            empty;
    }
}


// ************************************************************************* //
