/*--------------------------------*- C++ -*----------------------------------*\
| =========                 |                                                 |
| \\      /  F ield         | foam-extend: Open Source CFD                    |
|  \\    /   O peration     | Version:  3.0                                   |
|   \\  /    A nd           | Web:         http://www.extend-project.de       |
|    \\/     M anipulation  |                                                 |
\*---------------------------------------------------------------------------*/
FoamFile
{
    version     2.0;
    format      ascii;
    class       volVectorField;
    location    "25";
    object      u;
}
// * * * * * * * * * * * * * * * * * * * * * * * * * * * * * * * * * * * * * //

dimensions      [0 0 0 0 0 0 0];

internalField   nonuniform List<vector> 
672
(
(0.2399626059 -0.09235765121 8.526009995e-19)
(0.4868959824 -0.06519671545 3.788235611e-18)
(0.6610059249 -0.04761686289 1.158581153e-17)
(0.7628015028 -0.03525693187 -4.698750729e-18)
(0.8463516157 -0.02661896767 5.676833951e-18)
(0.8922440839 -0.02019818866 2.46686651e-18)
(0.9375299069 -0.01523942054 2.779495893e-18)
(0.957099339 -0.01143456029 -7.149407426e-19)
(0.9833427719 -0.008029718767 6.227813894e-18)
(0.98777993 -0.005433379758 9.383034196e-18)
(1.003002213 -0.00262555793 -2.4928857e-18)
(0.9967616548 -0.0002599432576 2.024663862e-18)
(0.281003199 -0.272090637 -5.782877772e-19)
(0.5158577989 -0.1920351113 3.961706163e-18)
(0.6821516345 -0.1402283961 1.301933563e-17)
(0.7784530291 -0.10381105 -5.78926613e-18)
(0.8581647028 -0.07836299323 -9.360861768e-19)
(0.9012047734 -0.05945244078 -2.604539308e-18)
(0.9442884932 -0.0448478121 -1.780884949e-17)
(0.9621688436 -0.03364569007 1.190938794e-17)
(0.9869008684 -0.02361788125 1.036734507e-17)
(0.9901860183 -0.01597388446 -3.806716213e-18)
(1.004161936 -0.007702259324 -1.01766003e-17)
(0.996866315 -0.0007044123538 2.114468217e-17)
(0.3610090361 -0.4381841381 -5.901168506e-18)
(0.5723177794 -0.3092481865 3.158639118e-18)
(0.7233749291 -0.2258119397 4.826489309e-18)
(0.8089671266 -0.1671625054 1.141369812e-17)
(0.8811953378 -0.1261798302 -5.302745503e-18)
(0.9186757197 -0.09572706795 1.51126457e-17)
(0.9574654724 -0.07220845155 1.498969998e-17)
(0.9720534986 -0.05417017828 3.274898508e-17)
(0.9938376781 -0.03802180702 -7.851141214e-18)
(0.9948769582 -0.025712639 1.229971763e-17)
(1.006421278 -0.01239133954 -4.100946147e-18)
(0.9970667516 -0.00111167089 1.340069093e-17)
(0.4759686718 -0.5823097899 5.19854165e-18)
(0.6534441359 -0.4109584642 -1.967358374e-18)
(0.7826087722 -0.300075861 -2.569530989e-18)
(0.8528124629 -0.2221348255 1.629274894e-18)
(0.9142885768 -0.1676718431 -1.428432628e-17)
(0.9437797338 -0.1272033866 9.674980121e-18)
(0.9764001327 -0.09594933384 -2.367480427e-17)
(0.9862566274 -0.07197890821 2.077473339e-17)
(1.003805335 -0.0505190171 6.864330246e-18)
(1.001616312 -0.03416151669 2.685322546e-17)
(1.009666804 -0.01645786632 3.239680065e-18)
(0.9973515139 -0.001461724318 4.262005232e-17)
(0.6201161348 -0.6972405419 1.924577867e-17)
(0.7551687467 -0.4920655267 2.835771416e-18)
(0.8568817745 -0.3592964423 7.654310923e-19)
(0.9077905106 -0.2659713708 4.128541277e-18)
(0.9557838994 -0.2007587691 5.422962959e-18)
(0.975257895 -0.1523030944 1.88952836e-17)
(1.000141771 -0.1148804721 -1.527070216e-17)
(1.004065771 -0.08617905453 7.188940364e-18)
(1.016302708 -0.06048337937 1.667297725e-17)
(1.010065893 -0.04089690645 -3.775498806e-17)
(1.013734359 -0.01969828717 -5.035969829e-18)
(0.9977059052 -0.001737072203 8.244727923e-18)
(0.7862240755 -0.7772132815 3.086872041e-18)
(0.8723904235 -0.5485028591 4.371388622e-18)
(0.9424703662 -0.4005041213 -1.726960465e-17)
(0.9711440376 -0.296474443 1.483958816e-18)
(1.003601094 -0.2237814367 -1.396406268e-17)
(1.011531166 -0.1697679791 1.128914773e-17)
(1.027500194 -0.1280524789 -2.720917311e-17)
(1.024587118 -0.09605893601 -1.813737768e-17)
(1.030703233 -0.06741516124 1.139522325e-17)
(1.019801003 -0.04558157923 4.956582084e-17)
(1.01841992 -0.02195020201 -5.03418433e-17)
(0.9981108975 -0.001924573179 3.63712264e-17)
(0.9659620995 -0.8182181117 -8.610306048e-19)
(0.9992311332 -0.5774400639 2.910266419e-18)
(1.0350816 -0.4216328851 -1.329501656e-17)
(1.039696058 -0.3121142963 -1.607548897e-17)
(1.055341232 -0.2355859 2.292952512e-17)
(1.050780422 -0.1787222945 9.582453049e-18)
(1.057102341 -0.1348055521 1.885491907e-17)
(1.04679135 -0.1011232988 -2.538833428e-18)
(1.046283564 -0.07096757626 -1.004764938e-18)
(1.030333169 -0.04798081472 -2.338651467e-17)
(1.023487261 -0.02310150496 2.841773214e-17)
(0.9985458225 -0.00201505161 1.072553061e-17)
(1.15031804 -0.8181987671 5.633703533e-18)
(1.129330224 -0.5774268364 -3.153092887e-18)
(1.130072208 -0.4216231948 -8.718921626e-19)
(1.110008734 -0.3121073161 -7.431573087e-18)
(1.108410329 -0.2355801273 3.283617807e-18)
(1.091037065 -0.1787176086 7.57887649e-18)
(1.087464144 -0.1348009357 2.195280176e-17)
(1.06956441 -0.101118786 3.127024471e-18)
(1.062262543 -0.07096239856 7.028908376e-18)
(1.041133378 -0.04797498209 2.94893211e-17)
(1.028682136 -0.02309447755 -2.191660072e-17)
(0.998987709 -0.002004801804 5.344104863e-18)
(1.330046613 -0.7771566892 8.737059083e-18)
(1.256163897 -0.5484634039 -4.368652275e-18)
(1.222677941 -0.4004760435 -7.339167283e-18)
(1.178556116 -0.2964536251 8.601237006e-18)
(1.16014629 -0.2237650881 -2.066039932e-17)
(1.130282265 -0.169754134 5.0299316e-18)
(1.11706217 -0.1280397225 -9.722728474e-18)
(1.091764179 -0.09604576248 1.33591033e-17)
(1.077837987 -0.06740089893 -4.416298975e-18)
(1.051659936 -0.04556461858 -3.515263771e-17)
(1.033743149 -0.02193057692 1.090674054e-17)
(0.9994142045 -0.001894715285 -2.207377749e-17)
(1.496136044 -0.6971496745 6.137642863e-18)
(1.37337198 -0.4920029373 9.673268467e-19)
(1.308255722 -0.3592516829 1.491619431e-17)
(1.241900708 -0.2659389116 3.207012122e-18)
(1.207955257 -0.2007330718 3.721267292e-18)
(1.166547729 -0.1522820506 -2.150160236e-17)
(1.144412458 -0.114860795 3.656925253e-18)
(1.112276892 -0.08615938009 2.092861495e-19)
(1.09222885 -0.0604616084 -1.43681318e-17)
(1.061384171 -0.04087149646 -1.525160728e-17)
(1.038416286 -0.01966825749 1.398798269e-17)
(0.9998029358 -0.001691372691 -5.428796426e-18)
(1.640257164 -0.5821902657 -6.869417474e-19)
(1.475077023 -0.410876185 -3.665260263e-19)
(1.38251349 -0.300017984 1.433170735e-18)
(1.296865957 -0.2220931069 -4.816922247e-18)
(1.249439111 -0.1676398566 4.998753923e-18)
(1.198014794 -0.1271774598 -1.050626533e-17)
(1.168142856 -0.09592599434 -7.312668407e-19)
(1.130073878 -0.07195547123 -5.484815772e-18)
(1.10471291 -0.05049357371 -1.706960089e-18)
(1.069818454 -0.03413112049 4.767871681e-18)
(1.042466596 -0.0164221444 1.86158262e-18)
(1.000134284 -0.001405341402 -3.542126254e-18)
(1.755183623 -0.4380426503 -6.547195855e-18)
(1.556179062 -0.3091520253 -1.514008451e-18)
(1.441728108 -0.2257449085 3.447505104e-18)
(1.340695558 -0.1671156302 3.945204223e-18)
(1.282517979 -0.1261446598 4.264330141e-18)
(1.223105306 -0.09570004689 -4.567837206e-18)
(1.187063526 -0.07218467126 1.007661549e-17)
(1.144262267 -0.05414724984 -1.087395872e-17)
(1.114664083 -0.03799668896 -5.736509658e-18)
(1.076539257 -0.02568262349 -3.12281961e-18)
(1.04569082 -0.01235522975 1.202943393e-17)
(1.000390974 -0.001052254283 -1.015246646e-17)
(1.835151953 -0.2719358227 -3.849462523e-18)
(1.612611105 -0.1919309789 -1.159875942e-18)
(1.482929702 -0.1401576997 1.825138214e-18)
(1.371191522 -0.1037631184 1.482122207e-18)
(1.305532623 -0.07832921297 4.044665068e-19)
(1.240561002 -0.05942819552 -1.487661316e-18)
(1.200225281 -0.04482838225 7.605310418e-19)
(1.15413055 -0.03362773513 -6.247849178e-18)
(1.121583002 -0.02359871749 -6.234606134e-19)
(1.081209526 -0.01594978107 -2.740776376e-18)
(1.047926847 -0.00767268631 4.800117013e-18)
(1.000559997 -0.0006501771204 -3.660827005e-18)
(1.876152598 -0.09219858723 -1.891193783e-18)
(1.641543518 -0.06509181466 -6.533244441e-19)
(1.504052595 -0.04754769959 5.810730692e-19)
(1.386824675 -0.03521315978 1.016646328e-18)
(1.317329196 -0.02659093587 5.423465355e-19)
(1.249506472 -0.02018164856 -7.211228689e-19)
(1.206968196 -0.01522880399 -2.119950268e-19)
(1.159183672 -0.01142695384 -3.134762851e-18)
(1.125122703 -0.008021744642 -1.988554383e-18)
(1.083594817 -0.005421883317 -1.924510517e-18)
(1.049062531 -0.002609577272 1.825841973e-18)
(1.000632605 -0.0002206800598 -2.611654404e-18)
(1.876129249 0.09215533216 -1.448080984e-19)
(1.641525275 0.06500551587 -1.583177771e-20)
(1.504037246 0.04744024745 -5.725111325e-19)
(1.386810928 0.03509699335 1.4488019e-18)
(1.317315912 0.02647473694 6.898874281e-19)
(1.249493058 0.02007163181 -3.323141335e-19)
(1.206953976 0.01512870619 5.756368194e-19)
(1.159168196 0.0113418039 -2.967969934e-18)
(1.125105524 0.007951951599 -2.569050127e-18)
(1.083575451 0.005372976406 -1.90702619e-18)
(1.049040713 0.002578886157 9.955590019e-19)
(1.000605043 0.0002143049802 -3.558772581e-18)
(1.835083321 0.2718822253 1.724378244e-18)
(1.612557535 0.1918366159 7.317949504e-19)
(1.482884639 0.140043469 -1.196965704e-18)
(1.371151136 0.103640878 1.405245723e-18)
(1.305493551 0.07820713759 1.642292591e-18)
(1.240521511 0.0593122392 -8.031054964e-19)
(1.200183378 0.04472198118 2.893764429e-18)
(1.154084937 0.03353572503 -5.994780911e-18)
(1.121532362 0.02352130288 -3.018792008e-18)
(1.081152446 0.01589227917 -1.098560729e-18)
(1.047862545 0.007632301952 1.003890757e-18)
(1.00047876 0.0006315495908 -7.377691578e-18)
(1.755072916 0.4379688314 3.951684337e-18)
(1.556092608 0.3090418889 1.501193968e-18)
(1.441655369 0.2256174197 7.129460993e-19)
(1.340630381 0.1669815216 -2.581577362e-18)
(1.282454952 0.1260111121 3.214114964e-18)
(1.223041629 0.09557249453 -5.216142517e-18)
(1.186995991 0.07206596153 -2.606788067e-18)
(1.144188764 0.05404181945 -9.385900589e-18)
(1.114582493 0.03790436626 1.763507147e-18)
(1.076447288 0.02560830437 -4.989703895e-18)
(1.045587213 0.01229590601 -1.049372024e-18)
(1.000260083 0.00100970862 -7.102257298e-18)
(1.640110172 0.5820874808 4.569452452e-20)
(1.474962257 0.4107434624 2.899808821e-18)
(1.382416931 0.2998715077 3.265893235e-18)
(1.296779418 0.2219419811 8.098261715e-19)
(1.249355395 0.167489841 5.642940453e-18)
(1.197930189 0.1270332567 -3.838036789e-18)
(1.168053094 0.09578960835 1.353854689e-17)
(1.12997617 0.07183079805 -3.082582567e-18)
(1.104604441 0.05037987146 -2.258516049e-18)
(1.069696195 0.03403269634 -7.110760517e-18)
(1.042328879 0.01633564101 -4.320609652e-19)
(0.9999603225 0.001328453666 -1.569316573e-17)
(1.495959928 0.6970104713 -6.864633083e-18)
(1.373234418 0.4918418002 -1.351645487e-19)
(1.308139957 0.3590813175 1.725119046e-18)
(1.241796953 0.2657663962 -5.964089433e-19)
(1.207854904 0.2005623777 -4.039348638e-18)
(1.166446332 0.152116949 -9.043262243e-18)
(1.144304916 0.1147022329 9.997183073e-18)
(1.11215986 0.08601053513 2.996170671e-18)
(1.092098957 0.06032105977 -6.36086583e-18)
(1.061237778 0.0407427838 2.087311078e-17)
(1.038251386 0.01954764103 6.834511128e-18)
(0.9995946401 0.001571401027 -7.823789265e-19)
(1.329850418 0.7769756674 1.504871215e-18)
(1.25601066 0.5482696528 -1.767199499e-18)
(1.222548974 0.4002782523 1.275216734e-17)
(1.178440506 0.2962565186 5.708269649e-19)
(1.160034444 0.2235705863 8.088934898e-18)
(1.130169234 0.1695649465 -5.884161958e-18)
(1.116942261 0.1278555779 1.624888728e-17)
(1.091633673 0.09586905674 1.505796063e-17)
(1.07769313 0.06722939526 -3.243409348e-18)
(1.05149668 0.04540101825 -3.256900977e-17)
(1.033559275 0.02177063917 3.318980481e-17)
(0.9991819806 0.00172509684 -2.215409076e-17)
(1.150111422 0.8179723756 3.301740527e-19)
(1.129168764 0.5771976639 -1.868298348e-18)
(1.129936275 0.4213956054 8.233550105e-18)
(1.109886863 0.3118835142 1.296310266e-17)
(1.108292433 0.2353598075 -1.992808308e-17)
(1.090917936 0.1785023257 -6.210164274e-18)
(1.0873378 0.1345891056 -2.101040134e-17)
(1.069426942 0.1009119182 1.244458868e-19)
(1.062110004 0.07075741629 5.187083117e-18)
(1.040961506 0.04777362327 2.788544248e-17)
(1.028488575 0.02289202195 -2.504278625e-17)
(0.9987432694 0.001781487921 -3.480992543e-19)
(0.9657555933 0.8179453736 -9.743177571e-18)
(0.9990697447 0.5771747253 2.560895455e-18)
(1.034945711 0.4213748613 -4.033169006e-18)
(1.039574205 0.3118631811 3.625372585e-18)
(1.055223337 0.2353391192 1.829981717e-18)
(1.050661282 0.1784802241 -2.543797174e-18)
(1.056975978 0.1345652589 -2.058584459e-17)
(1.046653862 0.1008854287 -2.73423871e-18)
(1.046131006 0.07072816381 -1.55587134e-18)
(1.030161268 0.04774067783 -2.305387184e-17)
(1.023293679 0.0228553687 2.794566709e-17)
(0.9983013804 0.001736638669 4.778033018e-18)
(0.7860278729 0.7768952366 -1.524905371e-17)
(0.8722369789 0.5482021044 2.2227253e-18)
(0.9423411113 0.4002162632 4.076880599e-18)
(0.9710281165 0.2961965723 -1.582678925e-17)
(1.003488949 0.2235087602 2.719076258e-17)
(1.01141786 0.1694997275 9.791942019e-19)
(1.027380048 0.1277844109 1.695302731e-17)
(1.024456441 0.09579083109 -1.330577256e-17)
(1.030558268 0.06714223086 1.365043444e-17)
(1.019637705 0.04530367504 5.708600556e-17)
(1.018236047 0.02166156311 -2.052257831e-17)
(0.9978787627 0.0015925034 3.228002857e-17)
(0.6199402164 0.6968808345 -1.235685003e-17)
(0.7550311168 0.4917322162 -5.589305702e-18)
(0.8567658304 0.3589811451 -2.909175973e-17)
(0.9076865199 0.2656688344 -5.85796239e-18)
(0.9556833085 0.2004621772 -1.545897226e-17)
(0.9751562677 0.1520106207 3.837569177e-17)
(1.000034021 0.1145866758 -1.070999116e-17)
(1.003948589 0.085882953 5.923846246e-18)
(1.016172725 0.06017940516 2.2166407e-17)
(1.009919458 0.04058407318 1.329374691e-17)
(1.013569475 0.01937033031 -2.827954647e-17)
(0.9974977226 0.001355442175 1.548176067e-18)
(0.4758217046 0.5819138038 4.650955089e-19)
(0.653329017 0.4105967418 -9.815329207e-19)
(0.7825117455 0.2997365638 3.859629958e-19)
(0.8527254426 0.2218107379 8.670302458e-18)
(0.9142044373 0.1673543807 -1.741773883e-17)
(0.9436947675 0.1268898283 1.240268753e-17)
(0.9763100796 0.09563319238 -7.316586793e-18)
(0.9861587328 0.07165852439 1.411054978e-17)
(1.003696765 0.05018814889 -6.449553413e-18)
(1.001494028 0.03381838783 -2.290105267e-17)
(1.009529102 0.0160958191 -8.912742742e-18)
(0.997177702 0.001037094971 4.826143456e-18)
(0.3608985841 0.437759417 1.574344287e-17)
(0.5722312246 0.3088639302 1.313929769e-18)
(0.7233019565 0.2254535907 -9.022899323e-18)
(0.808901669 0.1668212556 -1.757089421e-17)
(0.8811320667 0.1258457402 -1.268375341e-17)
(0.918611835 0.09539668529 3.039275854e-18)
(0.9573977691 0.07187447477 -3.960708089e-17)
(0.97197989 0.0538304121 2.689744619e-17)
(0.993756046 0.03766948196 7.182503387e-18)
(0.9947849907 0.02534539416 4.727232283e-18)
(1.006317748 0.01200216152 -4.334295112e-17)
(0.9969360358 0.000652848287 2.912817985e-17)
(0.2809344731 0.2716457509 5.436522562e-18)
(0.515804002 0.1916350596 -1.050584329e-18)
(0.6821064009 0.1398566229 -5.391911679e-18)
(0.7784125424 0.103457721 -2.81588217e-18)
(0.8581255649 0.07801721813 3.750526417e-18)
(0.9011652104 0.05911030732 -1.241456925e-18)
(0.9442465014 0.04450143525 1.245385138e-18)
(0.9621231511 0.03329249431 6.441236934e-18)
(0.9868502045 0.02325068129 -1.577811983e-17)
(0.990128986 0.01558983923 1.747125137e-18)
(1.00409772 0.007294138125 -1.551722827e-17)
(0.9967852221 0.0002217867138 4.361785059e-18)
(0.2399385773 0.09190266147 1.213491409e-18)
(0.4868776463 0.06478842591 -2.732331776e-18)
(0.6609904149 0.04723807601 -8.573010967e-18)
(0.7627877429 0.03489738362 1.793365287e-18)
(0.8463383238 0.026267308 -5.293020954e-18)
(0.8922306398 0.01985013559 -1.505654832e-18)
(0.9375156247 0.01488677947 3.823860907e-20)
(0.9570837855 0.01107446532 -6.893986614e-18)
(0.9833255717 0.007654814324 -1.508814064e-18)
(0.9877606441 0.005040693427 -4.073275953e-18)
(1.002980559 0.00220782502 -4.920454731e-18)
(0.9967342056 -0.0002347441647 1.094686385e-18)
(0.2399675666 -0.09245698776 -8.515476496e-19)
(0.4869023445 -0.06531543775 -3.787099532e-18)
(0.6610138456 -0.04775800973 -1.158457542e-17)
(0.762810634 -0.03542195698 4.699860021e-18)
(0.8463624805 -0.0268092628 -5.675698172e-18)
(0.892256153 -0.02041525466 -2.465813858e-18)
(0.9375438135 -0.0154847009 -2.778507662e-18)
(0.9571146267 -0.01170965262 7.163083006e-19)
(0.9833601429 -0.008336276472 -6.226609637e-18)
(0.9877989793 -0.005773143787 -9.381919596e-18)
(1.003023647 -0.003001927553 2.493905628e-18)
(0.9967859603 -0.0006939447105 -2.022998208e-18)
(0.281019423 -0.2721885508 5.793102238e-19)
(0.5158776452 -0.1921524707 -3.960599393e-18)
(0.682175083 -0.1403680129 -1.30179647e-17)
(0.7784808737 -0.1039740805 5.790352613e-18)
(0.8581965231 -0.07855090381 9.372418814e-19)
(0.9012413553 -0.05966669238 2.605502852e-18)
(0.9443295046 -0.04508996838 1.780981342e-17)
(0.9622151357 -0.03391729831 -1.190790366e-17)
(0.9869522027 -0.02392067109 -1.036616961e-17)
(0.9902432356 -0.01630937181 3.807877738e-18)
(1.004225034 -0.008073838707 1.01774974e-17)
(0.9969392976 -0.001132751214 -2.114285739e-17)
(0.3610366245 -0.4382794963 5.902078278e-18)
(0.5723503363 -0.3093626605 -3.15765958e-18)
(0.7234140573 -0.2259480711 -4.825195424e-18)
(0.8090125992 -0.167321612 -1.141229203e-17)
(0.8812481572 -0.1263630498 5.303949073e-18)
(0.9187357366 -0.09593603256 -1.511165586e-17)
(0.9575336263 -0.07244443878 -1.498838817e-17)
(0.9721297151 -0.05443493748 -3.274829073e-17)
(0.9939229074 -0.03831681777 7.852097874e-18)
(0.9949711207 -0.02603967762 -1.229859453e-17)
(1.006525851 -0.0127534671 4.102339792e-18)
(0.9971869553 -0.001529148526 -1.339926681e-17)
(0.4760062145 -0.5824014083 -5.197577602e-18)
(0.6534893873 -0.4110683461 1.968301988e-18)
(0.7826624179 -0.3002068481 2.571025545e-18)
(0.8528755744 -0.2222877681 -1.627909459e-18)
(0.9143611492 -0.1678481714 1.428502733e-17)
(0.9438628868 -0.1274042942 -9.673829351e-18)
(0.9764938939 -0.09617639776 2.367538061e-17)
(0.9863621663 -0.07223343766 -2.07735754e-17)
(1.003922716 -0.0508027711 -6.863203743e-18)
(1.001746683 -0.03447583657 -2.685222849e-17)
(1.009810921 -0.01680607242 -3.238796921e-18)
(0.9975178811 -0.001862917919 -4.261747946e-17)
(0.6201640772 -0.6973271159 -1.924497823e-17)
(0.7552259015 -0.4921697282 -2.834544729e-18)
(0.8569502158 -0.3594204258 -7.63666994e-19)
(0.9078702648 -0.2661164276 -4.12738875e-18)
(0.9558761617 -0.2009257479 -5.421742691e-18)
(0.9753628954 -0.1524935951 -1.889484821e-17)
(1.000260716 -0.1150955088 1.527196868e-17)
(1.004198989 -0.08642032208 -7.188241459e-18)
(1.016451424 -0.06075206957 -1.667247124e-17)
(1.010230437 -0.04119478363 3.775654287e-17)
(1.013916833 -0.02002802311 5.036383301e-18)
(0.9979158928 -0.002117211841 -8.242893621e-18)
(0.786281022 -0.7772940009 -3.086024553e-18)
(0.8724590713 -0.5485996736 -4.370048588e-18)
(0.9425519164 -0.4006197312 1.727095284e-17)
(0.971239681 -0.2966094298 -1.483080322e-18)
(1.00371113 -0.2239371926 1.39653699e-17)
(1.011656962 -0.1699453976 -1.128807546e-17)
(1.027642139 -0.128253082 2.721044544e-17)
(1.024746636 -0.09628369865 1.813778121e-17)
(1.030880773 -0.06766574651 -1.139433964e-17)
(1.019997998 -0.04585904612 -4.956310292e-17)
(1.018637869 -0.02225762627 5.034192018e-17)
(0.9983622906 -0.002278640277 -3.636864319e-17)
(0.9660280952 -0.8182916512 8.623496069e-19)
(0.999310117 -0.577528702 -2.909236695e-18)
(1.035176006 -0.4217383295 1.329676791e-17)
(1.039806176 -0.3122378242 1.607675961e-17)
(1.055468404 -0.2357280813 -2.292880262e-17)
(1.050925238 -0.1788846392 -9.581396041e-18)
(1.057266206 -0.1349887769 -1.885335467e-17)
(1.046974942 -0.1013289583 2.540042373e-18)
(1.046488338 -0.07119650325 1.005705807e-18)
(1.030559839 -0.04823465092 2.338831735e-17)
(1.023738491 -0.02338239055 -2.841753204e-17)
(0.998835069 -0.002338913442 -1.072371666e-17)
(1.150391591 -0.818264659 -5.632398681e-18)
(1.129418798 -0.5775057245 3.154096648e-18)
(1.130177551 -0.4217175215 8.737256242e-19)
(1.110132113 -0.3122174188 7.433070565e-18)
(1.108552354 -0.2357073216 -3.283314971e-18)
(1.091199265 -0.1788624704 -7.577958026e-18)
(1.087647249 -0.1349648746 -2.195180302e-17)
(1.069770009 -0.1013024237 -3.125894647e-18)
(1.062491445 -0.07116722239 -7.027961863e-18)
(1.041387213 -0.0482016906 -2.948734444e-17)
(1.028963058 -0.0233457382 2.191633978e-17)
(0.9993115999 -0.002294096016 -5.34239478e-18)
(1.330127435 -0.7772136246 -8.736372218e-18)
(1.25626072 -0.5485320449 4.369979946e-18)
(1.222793527 -0.4005575934 7.340713458e-18)
(1.178691026 -0.2965493091 -8.600078125e-18)
(1.160301975 -0.2238751913 2.066155237e-17)
(1.130459634 -0.1698800135 -5.029199752e-18)
(1.117262758 -0.1281817807 9.723587245e-18)
(1.091988981 -0.09620536849 -1.335859169e-17)
(1.078088607 -0.06757852465 4.41714115e-18)
(1.051937434 -0.04576168626 3.515459688e-17)
(1.034050617 -0.02214857866 -1.090620357e-17)
(0.9997683215 -0.002146169637 2.207591238e-17)
(1.496222617 -0.6971975255 -6.137029759e-18)
(1.373476018 -0.4920599782 -9.660704715e-19)
(1.30837951 -0.3593199823 -1.491420861e-17)
(1.242045552 -0.2660185589 -3.205909959e-18)
(1.208122074 -0.2008252448 -3.719783536e-18)
(1.166738136 -0.1523869846 2.150168256e-17)
(1.144627501 -0.1149797209 -3.655393646e-18)
(1.112518246 -0.08629255743 -2.084871776e-19)
(1.092497639 -0.06061030696 1.43687302e-17)
(1.061682128 -0.04103602733 1.525347993e-17)
(1.03874612 -0.01985073618 -1.398649888e-17)
(1.000183171 -0.001901413503 5.430419856e-18)
(1.640348877 -0.582227789 6.876899304e-19)
(1.475186812 -0.4109214263 3.67619745e-19)
(1.382644381 -0.3000715728 -1.431869341e-18)
(1.297018782 -0.2221561526 4.818217526e-18)
(1.249615386 -0.1677123421 -4.997943184e-18)
(1.198215703 -0.1272605231 1.050756241e-17)
(1.168370014 -0.09601970327 7.324278854e-19)
(1.130328552 -0.07206094872 5.486083101e-18)
(1.104996785 -0.05061092883 1.708313287e-18)
(1.070132875 -0.03426148988 -4.76626941e-18)
(1.042814921 -0.0165662976 -1.860268579e-18)
(1.000535614 -0.001571769168 3.543553599e-18)
(1.755279005 -0.4380700578 6.547897349e-18)
(1.556293351 -0.3091843949 1.515017716e-18)
(1.441864069 -0.2257838034 -3.446047743e-18)
(1.340854498 -0.1671608774 -3.943918057e-18)
(1.282701108 -0.1261972256 -4.26309817e-18)
(1.223314247 -0.09575981228 4.568798922e-18)
(1.187299605 -0.07225262087 -1.007509224e-17)
(1.144527167 -0.05422327469 1.087461129e-17)
(1.114959201 -0.0380817861 5.73776718e-18)
(1.076866345 -0.02577670837 3.123742328e-18)
(1.046053012 -0.01245975423 -1.202780828e-17)
(1.000808546 -0.001172475186 1.015352787e-17)
(1.835250062 -0.2719520065 3.850385022e-18)
(1.612728351 -0.1919505879 1.160957324e-18)
(1.483069273 -0.1401807109 -1.823803433e-18)
(1.371354498 -0.1037904529 -1.481228332e-18)
(1.305720537 -0.07836053057 -4.033389406e-19)
(1.24077526 -0.05946435288 1.488608775e-18)
(1.200467512 -0.04486909589 -7.59718698e-19)
(1.154402231 -0.03367382131 6.249329536e-18)
(1.121885827 -0.02364991588 6.248351207e-19)
(1.081545049 -0.01600689205 2.741946231e-18)
(1.048298536 -0.00773572112 -4.799404712e-18)
(1.00098845 -0.0007231616079 3.662375952e-18)
(1.876252096 -0.09220407987 1.892145275e-18)
(1.641662337 -0.06509790307 6.543895105e-19)
(1.504193878 -0.04755530485 -5.79900427e-19)
(1.386989678 -0.03522183666 -1.015616113e-18)
(1.317519375 -0.02660136198 -5.411907965e-19)
(1.249723382 -0.02019335229 7.221490315e-19)
(1.207213388 -0.01524245834 2.130207009e-19)
(1.159458757 -0.01144208436 3.136149606e-18)
(1.125429292 -0.008039017039 1.989652176e-18)
(1.083934595 -0.005440822614 1.925645283e-18)
(1.049438903 -0.002630895531 -1.824878692e-18)
(1.001066608 -0.000244986746 2.613079983e-18)
(1.876228881 0.09216141172 1.457466617e-19)
(1.641644102 0.06501250354 1.687143928e-20)
(1.504178474 0.04744888546 5.736814411e-19)
(1.386975841 0.03510661817 -1.447755277e-18)
(1.317505994 0.02648602793 -6.888015895e-19)
(1.249709869 0.02008406495 3.333128596e-19)
(1.207199082 0.01514292165 -5.746807903e-19)
(1.159443207 0.01135733543 2.969293128e-18)
(1.125412065 0.007969425985 2.570197383e-18)
(1.083915203 0.005391963361 1.908069652e-18)
(1.049417091 0.002600139979 -9.945730857e-19)
(1.001039128 0.0002384991749 3.560302389e-18)
(1.835181962 0.2718990667 -1.723490396e-18)
(1.612674933 0.1918571201 -7.307936763e-19)
(1.483024156 0.1400674728 1.198274096e-18)
(1.37131392 0.1036690961 -1.40424274e-18)
(1.305681236 0.07823925031 -1.64118487e-18)
(1.240735503 0.05934905435 8.040246793e-19)
(1.200425378 0.04476319369 -2.892824185e-18)
(1.154356403 0.03358215699 5.996196417e-18)
(1.121835043 0.02357266571 3.019900615e-18)
(1.081487873 0.01594941202 1.099670831e-18)
(1.048234226 0.007695268985 -1.003022539e-18)
(1.000907438 0.0007044564807 7.3793435e-18)
(1.75516905 0.4379969944 -3.95094237e-18)
(1.556207058 0.3090751103 -1.50031893e-18)
(1.441791188 0.2256571957 -7.117472925e-19)
(1.340788985 0.1670274997 2.582938716e-18)
(1.2826377 0.1260643127 -3.212975244e-18)
(1.22325015 0.09563276102 5.217054403e-18)
(1.187231707 0.07213427722 2.608041433e-18)
(1.144453337 0.05411809181 9.386478862e-18)
(1.114877394 0.03798956991 -1.762587446e-18)
(1.076774243 0.02570239479 4.990749288e-18)
(1.045949412 0.01240037619 1.050737588e-18)
(1.000678024 0.001129935668 7.103517268e-18)
(1.640202943 0.5821259386 -4.486292312e-20)
(1.475072342 0.4107895333 -2.898987359e-18)
(1.382547715 0.2999258634 -3.264493015e-18)
(1.296931868 0.2220055808 -8.085304837e-19)
(1.249531235 0.167562775 -5.64229794e-18)
(1.198130599 0.1271166342 3.839136338e-18)
(1.168279827 0.09588352514 -1.353799232e-17)
(1.130230459 0.07193638938 3.083657317e-18)
(1.104888077 0.05049725089 2.259579125e-18)
(1.07001048 0.0341630231 7.111649684e-18)
(1.042677245 0.01647975195 4.328970055e-19)
(1.000362161 0.001494996295 1.569557133e-17)
(1.496047653 0.6970593875 6.865341926e-18)
(1.373338756 0.4918995673 1.362891303e-19)
(1.308263607 0.3591501758 -1.723428886e-18)
(1.241941374 0.2658463269 5.974916115e-19)
(1.208021247 0.2006547272 4.040525048e-18)
(1.166636206 0.1522219387 9.043631885e-18)
(1.144519513 0.1148211494 -9.995944448e-18)
(1.112400815 0.08614366662 -2.995538435e-18)
(1.092367506 0.06046968902 6.361306239e-18)
(1.061535604 0.04090725028 -2.087155759e-17)
(1.038581288 0.01973010774 -6.834123918e-18)
(0.9999754702 0.001781701346 7.84057221e-19)
(1.329932546 0.7770338684 -1.504147069e-18)
(1.256107907 0.5483389635 1.768452711e-18)
(1.222664518 0.4003602005 -1.27509054e-17)
(1.178575067 0.2963522552 -5.700011394e-19)
(1.160189726 0.2236806404 -8.087683512e-18)
(1.130346124 0.1696906686 5.885185309e-18)
(1.117142459 0.1279974594 -1.624763399e-17)
(1.091858126 0.09602849254 -1.505758422e-17)
(1.077943567 0.06740689945 3.244225709e-18)
(1.051774109 0.04559801405 3.257163195e-17)
(1.033866876 0.0219886953 -3.318971989e-17)
(0.9995367853 0.001976982089 2.215654126e-17)
(1.150186219 0.8180395939 -3.289543915e-19)
(1.129257772 0.5772770509 1.869253761e-18)
(1.130041628 0.4214900726 -8.231851629e-18)
(1.110009969 0.3119933621 -1.296188754e-17)
(1.108434148 0.2354866736 1.992877303e-17)
(1.091079754 0.1786467885 6.211169758e-18)
(1.087520608 0.134752681 2.101193683e-17)
(1.069632272 0.1010952628 -1.23267324e-19)
(1.062338788 0.07096205727 -5.186184199e-18)
(1.041215308 0.04800026497 -2.788368867e-17)
(1.028769653 0.02314338856 2.504295364e-17)
(0.9990678423 0.002071369425 3.497962616e-19)
(0.9658228363 0.8180203577 9.744409151e-18)
(0.9991492841 0.5772637772 -2.559945123e-18)
(1.035040282 0.4214802957 4.034957051e-18)
(1.039684225 0.3119862741 -3.623892442e-18)
(1.055350372 0.2354808352 -1.829723593e-18)
(1.05080587 0.1786420661 2.544690189e-18)
(1.057139668 0.1347480679 2.05868144e-17)
(1.046837274 0.1010907832 2.735352347e-18)
(1.046335716 0.07095694531 1.556787602e-18)
(1.030387941 0.04799450334 2.305580974e-17)
(1.023545075 0.0231364633 -2.794595647e-17)
(0.9985912779 0.002061241551 -4.776412654e-18)
(0.7860858959 0.776977299 1.524968857e-17)
(0.8723062051 0.5482991214 -2.221423536e-18)
(0.9424229583 0.4003316311 -4.075322317e-18)
(0.9711238361 0.2963308971 1.582790607e-17)
(1.003599016 0.2236638882 -2.71895997e-17)
(1.011543574 0.1696765411 -9.785132919e-19)
(1.027521927 0.1279845519 -1.695218366e-17)
(1.024615848 0.09601528676 1.330627895e-17)
(1.030735782 0.06739268653 -1.364962981e-17)
(1.019834706 0.04558116425 -5.70841279e-17)
(1.018454138 0.0219692359 2.052312262e-17)
(0.9981306875 0.001947389884 -3.227795231e-17)
(0.6199891519 0.6969687187 1.235743289e-17)
(0.7550889473 0.491836548 5.590553177e-18)
(0.8568347453 0.3591048048 2.909368175e-17)
(0.9077665472 0.2658132131 5.859062228e-18)
(0.9557757736 0.2006285873 1.546043194e-17)
(0.975261336 0.1522006164 -3.837561524e-17)
(1.000152993 0.1148013743 1.071151899e-17)
(1.004081743 0.08612402676 -5.923070156e-18)
(1.016321406 0.06044804557 -2.216584828e-17)
(1.010083968 0.04088200994 -1.32918997e-17)
(1.013752008 0.01970033968 2.828105562e-17)
(0.9977080824 0.001736395965 -1.546581696e-18)
(0.4758600289 0.5820064593 -4.643384543e-19)
(0.6533749689 0.4107065502 9.82638553e-19)
(0.7825660232 0.2998670939 -3.84627577e-19)
(0.8527890114 0.2219629573 -8.668957536e-18)
(0.914277346 0.1675301481 1.741855876e-17)
(0.9437780805 0.1270902805 -1.240140718e-17)
(0.9764039065 0.0958599794 7.317786921e-18)
(0.9862641989 0.07191290507 -1.410930543e-17)
(1.003814068 0.05047186751 6.450926857e-18)
(1.0016243 0.034132763 2.290269453e-17)
(1.009673207 0.01644427764 8.914081542e-18)
(0.9973442615 0.001439037108 -4.824715762e-18)
(0.3609267935 0.4378556824 -1.574264744e-17)
(0.5722644014 0.3089783339 -1.312873945e-18)
(0.7233417519 0.225589315 9.024377843e-18)
(0.8089476838 0.1669798251 1.75721723e-17)
(0.8811852963 0.1260286297 1.268501013e-17)
(0.9186721022 0.09560542503 -3.038273407e-18)
(0.9574660433 0.0721103783 3.960865933e-17)
(0.9720560907 0.05409515457 -2.689682121e-17)
(0.9938412145 0.03796449947 -7.18124994e-18)
(0.9948790568 0.02567246349 -4.726301612e-18)
(1.006422236 0.01236448653 4.334466791e-17)
(0.9970562827 0.001070921624 -2.91270727e-17)
(0.2809511666 0.2717442773 -5.435524474e-18)
(0.5158246647 0.1917521266 1.051724361e-18)
(0.6821303586 0.1399958056 5.393295515e-18)