/*--------------------------------*- C++ -*----------------------------------*\
| =========                 |                                                 |
| \\      /  F ield         | foam-extend: Open Source CFD                    |
|  \\    /   O peration     | Version:  3.0                                   |
|   \\  /    A nd           | Web:         http://www.extend-project.de       |
|    \\/     M anipulation  |                                                 |
\*---------------------------------------------------------------------------*/
FoamFile
{
    version     2.0;
    format      ascii;
    class       volVectorField;
    location    "3.5";
    object      s;
}
// * * * * * * * * * * * * * * * * * * * * * * * * * * * * * * * * * * * * * //

dimensions      [0 0 0 0 0 0 0];

internalField   nonuniform List<vector> 
400
(
(-0.00296433 0.00216286 3.42979e-318)
(-0.00446147 0.00338922 5.89979e-318)
(-0.00766774 0.0037855 6.6682e-318)
(-0.00970684 0.00351179 6.73514e-318)
(-0.0120952 0.00301758 6.50884e-318)
(-0.0137989 0.00244188 6.17189e-318)
(-0.0153706 0.00173421 5.75097e-318)
(-0.0164491 0.00103033 5.33977e-318)
(-0.0172385 0.000246621 4.86975e-318)
(-0.0176211 -0.000546533 4.43717e-318)
(-0.0176209 -0.00139879 3.95092e-318)
(-0.0172435 -0.00225104 3.51147e-318)
(-0.0163755 -0.00315741 3.0293e-318)
(-0.015149 -0.00400392 2.59985e-318)
(-0.0133084 -0.0048901 2.15007e-318)
(-0.0112322 -0.00561368 1.74198e-318)
(-0.00839281 -0.0062429 1.34895e-318)
(-0.00583694 -0.00658246 9.55908e-319)
(-0.0022186 -0.00600403 5.93704e-319)
(-0.000538441 -0.00394948 1.8189e-319)
(-0.00289041 0.00208901 3.45389e-318)
(-0.00578272 0.00468617 7.00974e-318)
(-0.010088 0.00596765 8.70405e-318)
(-0.0133839 0.00612566 9.42959e-318)
(-0.0170088 0.00559727 9.55996e-318)
(-0.0197252 0.00468112 9.41879e-318)
(-0.0222094 0.00348415 9.02914e-318)
(-0.0239203 0.00219817 8.56854e-318)
(-0.025156 0.000799152 7.96055e-318)
(-0.0257128 -0.000618286 7.35014e-318)
(-0.0256545 -0.00210453 6.63574e-318)
(-0.0249675 -0.00358605 5.9543e-318)
(-0.0235321 -0.00510203 5.20057e-318)
(-0.0215388 -0.00651584 4.50479e-318)
(-0.0186803 -0.00782465 3.76764e-318)
(-0.0155169 -0.00876608 3.09267e-318)
(-0.0114743 -0.00920164 2.40317e-318)
(-0.00780567 -0.00875739 1.73704e-318)
(-0.0034706 -0.00688214 1.05806e-318)
(-0.000635678 -0.00320433 3.37803e-319)
(-0.00259349 0.00536378 2.56512e-318)
(-0.00550632 0.0109192 5.84871e-318)
(-0.0098442 0.0131885 7.78392e-318)
(-0.0132938 0.0135078 8.87084e-318)
(-0.0170385 0.0124134 9.33092e-318)
(-0.0198573 0.0106324 9.42159e-318)
(-0.0224642 0.00826699 9.1975e-318)
(-0.0242572 0.00568396 8.81911e-318)
(-0.0255916 0.00284904 8.26181e-318)
(-0.0262153 -6.88941e-05 7.65119e-318)
(-0.0262078 -0.0031255 6.93153e-318)
(-0.025554 -0.00618339 6.21608e-318)
(-0.0240975 -0.00927483 5.44161e-318)
(-0.0220792 -0.012134 4.71329e-318)
(-0.0191128 -0.0147393 3.97109e-318)
(-0.0158348 -0.0165434 3.30305e-318)
(-0.0116231 -0.0174094 2.65934e-318)
(-0.00773012 -0.0164136 2.07887e-318)
(-0.00330114 -0.0131043 1.47297e-318)
(-0.000328269 -0.00611154 7.23065e-319)
(-0.00249949 0.0064116 1.37655e-318)
(-0.00484253 0.0136774 3.83057e-318)
(-0.00870389 0.0166329 5.63882e-318)
(-0.0114934 0.0171351 6.89088e-318)
(-0.0147098 0.0157331 7.62311e-318)
(-0.0169616 0.0134684 7.98604e-318)
(-0.0191518 0.0104858 8.02041e-318)
(-0.0205981 0.00724218 7.84564e-318)
(-0.021747 0.0037159 7.47306e-318)
(-0.022317 8.39943e-05 6.99614e-318)
(-0.0224082 -0.00371739 6.40697e-318)
(-0.0220087 -0.0075522 5.78486e-318)
(-0.0209144 -0.011453 5.1116e-318)
(-0.0194034 -0.0151064 4.45677e-318)
(-0.0169502 -0.0184597 3.79569e-318)
(-0.0142894 -0.0207721 3.18278e-318)
(-0.0105381 -0.0218773 2.58222e-318)
(-0.00716715 -0.0203685 2.00915e-318)
(-0.00295521 -0.016007 1.38267e-318)
(-0.00029341 -0.00690142 6.04825e-319)
(-0.00257186 0.00852479 8.35104e-319)
(-0.00421048 0.0177759 2.68374e-318)
(-0.00772751 0.0213427 4.22925e-318)
(-0.00978658 0.0218247 5.41278e-318)
(-0.0124678 0.0199816 6.1899e-318)
(-0.0141143 0.0171058 6.63533e-318)
(-0.0158875 0.0134012 6.78161e-318)
(-0.0169945 0.00938464 6.71391e-318)
(-0.0179883 0.00504157 6.45496e-318)
(-0.0185461 0.000548423 6.07806e-318)
(-0.0187868 -0.00416847 5.5896e-318)
(-0.0187057 -0.00897694 5.05183e-318)
(-0.0180316 -0.0139154 4.46051e-318)
(-0.0171071 -0.018626 3.86698e-318)
(-0.0152054 -0.0230383 3.26027e-318)
(-0.0132362 -0.0262227 2.67737e-318)
(-0.00988139 -0.0279644 2.09998e-318)
(-0.0070692 -0.0263534 1.53884e-318)
(-0.00274045 -0.0211043 9.55449e-319)
(-0.0005335 -0.00933229 3.34863e-319)
(-0.00275932 0.0100249 3.44087e-319)
(-0.00360529 0.0204545 1.63931e-318)
(-0.00665953 0.0242833 2.92167e-318)
(-0.00778871 0.0245358 4.00553e-318)
(-0.0097623 0.0223116 4.79291e-318)
(-0.0106351 0.0189958 5.30354e-318)
(-0.0118467 0.0148907 5.54998e-318)
(-0.012503 0.0104877 5.58834e-318)
(-0.0132609 0.00578849 5.44657e-318)
(-0.0137718 0.000916054 5.17893e-318)
(-0.0141712 -0.0042179 4.80712e-318)
(-0.0144708 -0.00953606 4.37607e-318)
(-0.0143304 -0.015093 3.8983e-318)
(-0.0141591 -0.0205559 3.40897e-318)
(-0.0130078 -0.0258373 2.90958e-318)
(-0.0119768 -0.0299057 2.42249e-318)
(-0.00921502 -0.0324498 1.93408e-318)
(-0.00720326 -0.0311083 1.44844e-318)
(-0.00274664 -0.025364 9.34599e-319)
(-0.00104565 -0.0113692 3.61859e-319)
(-0.00284763 0.011829 3.30984e-319)
(-0.00280217 0.023138 1.36621e-318)
(-0.00535856 0.0271204 2.4029e-318)
(-0.0055724 0.026964 3.30119e-318)
(-0.00688939 0.0244033 3.9794e-318)
(-0.00705566 0.0206692 4.43222e-318)
(-0.00776542 0.0162683 4.67052e-318)
(-0.00801922 0.0115651 4.72908e-318)
(-0.00856249 0.00661939 4.63254e-318)
(-0.00902388 0.00146159 4.4213e-318)
(-0.00955462 -0.00399095 4.11664e-318)
(-0.01019 -0.00974697 3.75233e-318)
(-0.0105286 -0.0158605 3.3416e-318)
(-0.0110678 -0.0220875 2.90852e-318)
(-0.0106234 -0.0282826 2.45804e-318)
(-0.0105581 -0.0334589 2.00028e-318)
(-0.00836675 -0.0370547 1.53203e-318)
(-0.00730917 -0.0365377 1.05227e-318)
(-0.00263405 -0.0306216 5.65246e-319)
(-0.00171851 -0.0145768 1.13329e-319)
(-0.00263216 0.0130476 2.16337e-319)
(-0.00179895 0.0246419 1.02769e-318)
(-0.00357415 0.0286402 1.8907e-318)
(-0.00292225 0.028009 2.66364e-318)
(-0.00350162 0.0252489 3.26833e-318)
(-0.00299571 0.0212438 3.69138e-318)
(-0.00316898 0.0167829 3.93203e-318)
(-0.00301525 0.0120254 4.01498e-318)
(-0.00329948 0.0071225 3.96202e-318)
(-0.00366683 0.00197672 3.8049e-318)
(-0.00427163 -0.00347627 3.56655e-318)
(-0.00517945 -0.00936604 3.27498e-318)
(-0.00595731 -0.0157365 2.94666e-318)
(-0.0071627 -0.0225022 2.60187e-318)
(-0.00745958 -0.0294274 2.24634e-318)
(-0.00837625 -0.0357092 1.88834e-318)
(-0.00692863 -0.0404175 1.51815e-318)
(-0.00689976 -0.0410453 1.12932e-318)
(-0.00235176 -0.0352269 7.08223e-319)
(-0.00216751 -0.0174747 2.44088e-319)
(-0.00213897 0.0137581 3.50559e-319)
(-0.000637759 0.0253099 1.10118e-318)
(-0.00144435 0.0293262 1.81625e-318)
(-4.11754e-05 0.0282666 2.43646e-318)
(0.000121365 0.0254691 2.92086e-318)
(0.00121331 0.0213072 3.2568e-318)
(0.00155968 0.0169373 3.44836e-318)
(0.0020992 0.0122485 3.51068e-318)
(0.0021049 0.00752891 3.46281e-318)
(0.00189089 0.00253108 3.32771e-318)
(0.00130607 -0.00276462 3.12564e-318)
(0.000253052 -0.00863004 2.87837e-318)
(-0.000838893 -0.0150709 2.60038e-318)
(-0.00257456 -0.022226 2.30692e-318)
(-0.00353952 -0.029705 2.00355e-318)
(-0.00540157 -0.0370784 1.69041e-318)
(-0.00477881 -0.0428516 1.36323e-318)
(-0.00593517 -0.0449738 1.00232e-318)
(-0.0017623 -0.0394785 6.00161e-319)
(-0.00255946 -0.0206389 1.58798e-319)
(-0.00133045 0.0138004 3.23909e-319)
(0.000535383 0.0249408 9.94994e-319)
(0.000967348 0.0288924 1.62602e-318)
(0.00294219 0.0275164 2.16822e-318)
(0.00392055 0.0248105 2.58847e-318)
(0.0055087 0.0206392 2.88193e-318)
(0.00640311 0.0165076 3.0488e-318)
(0.00731716 0.0120391 3.10427e-318)
(0.00766651 0.00766321 3.06456e-318)
(0.00767495 0.0029886 2.9513e-318)
(0.00721473 -0.00195437 2.78387e-318)
(0.00616213 -0.00757903 2.58231e-318)
(0.00488828 -0.0138482 2.36186e-318)
(0.0028139 -0.0211505 2.13783e-318)
(0.00124271 -0.028937 1.91653e-318)
(-0.00138676 -0.037232 1.70068e-318)
(-0.00178725 -0.0439792 1.47787e-318)
(-0.00398818 -0.0476717 1.22257e-318)
(-0.000880291 -0.0428089 8.89249e-319)
(-0.00234021 -0.023251 3.9086e-319)
(-0.000465697 0.0130977 4.29348e-319)
(0.00158048 0.0236814 1.0983e-318)
(0.00330175 0.0275265 1.65355e-318)
(0.00571839 0.0260121 2.10199e-318)
(0.00751696 0.0235078 2.43792e-318)
(0.00953695 0.0194623 2.66142e-318)
(0.0109807 0.0156682 2.7811e-318)
(0.0122636 0.0115191 2.80914e-318)
(0.0129976 0.00757762 2.76121e-318)
(0.0132991 0.00333015 2.65372e-318)
(0.013073 -0.00113635 2.50508e-318)
(0.012177 -0.00636041 2.33169e-318)
(0.0108855 -0.012248 2.14834e-318)
(0.00867086 -0.0194453 1.96619e-318)
(0.00662046 -0.0272181 1.79353e-318)
(0.00333143 -0.0361457 1.62757e-318)
(0.00183647 -0.0435241 1.45982e-318)
(-0.00156861 -0.0487469 1.25268e-318)
(0.000201356 -0.0445228 9.49263e-319)
(-0.00230115 -0.0250998 4.37312e-319)
(0.000369941 0.0120323 3.85015e-319)
(0.00236775 0.0217955 1.02512e-318)
(0.00541044 0.0254172 1.55182e-318)
(0.00812217 0.0238894 1.96582e-318)
(0.0107582 0.0216284 2.26148e-318)
(0.0131265 0.0178254 2.45165e-318)
(0.0151145 0.0144298 2.54479e-318)
(0.0167351 0.0106832 2.55777e-318)
(0.0178735 0.00723733 2.50502e-318)
(0.0185146 0.00349892 2.40432e-318)
(0.0186146 -0.00040241 2.27281e-318)
(0.0180317 -0.00509108 2.12613e-318)
(0.0168964 -0.0104327 1.97909e-318)
(0.0148208 -0.0172827 1.84427e-318)
(0.012463 -0.0247917 1.73058e-318)
(0.00888935 -0.0340268 1.63837e-318)
(0.00620778 -0.0418945 1.55508e-318)
(0.00202918 -0.0485198 1.44314e-318)
(0.00164218 -0.0454938 1.20832e-318)
(-0.00127616 -0.0268142 6.64484e-319)
(0.00109974 0.0105689 4.13864e-319)
(0.00295467 0.0194587 1.07074e-318)
(0.00710697 0.0226808 1.56397e-318)
(0.0100139 0.0212799 1.92383e-318)
(0.0133839 0.0192609 2.16304e-318)
(0.016028 0.0158089 2.30215e-318)
(0.0184941 0.0128439 2.35854e-318)
(0.0204047 0.00956038 2.3477e-318)
(0.0219233 0.006635 2.28422e-318)
(0.022914 0.00345035 2.18427e-318)
(0.0233935 0.000161184 2.06219e-318)
(0.0232268 -0.00389085 1.93203e-318)
(0.0224002 -0.00853909 1.8075e-318)
(0.020654 -0.0147791 1.69896e-318)
(0.0182001 -0.0216727 1.61487e-318)
(0.0144884 -0.0307222 1.55198e-318)
(0.0107582 -0.038479 1.4997e-318)
(0.00556975 -0.0459905 1.41588e-318)
(0.00314867 -0.0436334 1.20131e-318)
(-0.00109461 -0.026376 6.73115e-319)
(0.00135283 0.00887158 3.70638e-319)
(0.00313906 0.0167639 1.0319e-318)
(0.008187 0.019622 1.50767e-318)
(0.011275 0.0183825 1.83779e-318)
(0.0152903 0.0166293 2.03834e-318)
(0.0181264 0.0135887 2.14421e-318)
(0.0209739 0.0110722 2.17385e-318)
(0.0230859 0.00827964 2.14594e-318)
(0.0249159 0.00587134 2.07483e-318)
(0.0262249 0.00324415 1.97549e-318)
(0.0270986 0.000563721 1.86105e-318)
(0.0274357 -0.00281503 1.74491e-318)
(0.0270656 -0.00671415 1.63986e-318)
(0.0259314 -0.0121808 1.55619e-318)
(0.023657 -0.0182907 1.50042e-318)
(0.0203675 -0.0268118 1.47375e-318)
(0.0157498 -0.0343485 1.45906e-318)
(0.0104537 -0.0425853 1.42159e-318)
(0.00517953 -0.0417802 1.24549e-318)
(0.000975913 -0.0271562 7.36178e-319)
(0.00184504 0.00755781 3.56834e-319)
(0.0031882 0.0141745 1.03618e-318)
(0.00880724 0.0163144 1.47689e-318)
(0.0118637 0.0152763 1.753e-318)
(0.0162675 0.0137295 1.90437e-318)
(0.01914 0.0111808 1.9705e-318)
(0.0221861 0.00910814 1.97416e-318)
(0.0243679 0.00683134 1.93171e-318)
(0.0263826 0.00491243 1.85554e-318)
(0.0279125 0.00282583 1.75902e-318)
(0.0291233 0.000718223 1.65272e-318)
(0.0299277 -0.00197939 1.54844e-318)
(0.0300709 -0.00510152 1.45698e-318)
(0.0296005 -0.00963077 1.38607e-318)
(0.0277426 -0.0147132 1.34111e-318)
(0.0249387 -0.0221717 1.31783e-318)
(0.0199055 -0.028763 1.29957e-318)
(0.0141075 -0.0366518 1.24837e-318)
(0.00695264 -0.0360049 1.06198e-318)
(0.00101634 -0.0234474 5.95305e-319)
(0.00119311 0.00551353 4.82929e-319)
(0.00285262 0.0113262 1.13389e-318)
(0.00872005 0.0130483 1.48894e-318)
(0.0119288 0.0121969 1.68378e-318)
(0.0165688 0.010916 1.77218e-318)
(0.0193788 0.00884965 1.79494e-318)
(0.022444 0.00722502 1.77087e-318)
(0.0245493 0.00544116 1.71303e-318)
(0.0265951 0.00397908 1.6306e-318)
(0.0282347 0.0023824 1.5343e-318)
(0.0296912 0.000794098 1.43336e-318)
(0.0309396 -0.00127332 1.33679e-318)
(0.0316282 -0.00365435 1.2546e-318)
(0.0320069 -0.007229 1.19344e-318)
(0.0308128 -0.011245 1.15662e-318)
(0.0291449 -0.0174885 1.14187e-318)
(0.0240343 -0.0231361 1.12867e-318)
(0.0193005 -0.0308112 1.08571e-318)
(0.00934466 -0.0316015 9.15271e-319)
(0.00479632 -0.0236113 4.98068e-319)
(0.00146273 0.00498572 3.94215e-319)
(0.00211304 0.00879133 9.91985e-319)
(0.00788892 0.00971138 1.28729e-318)
(0.0106714 0.00902614 1.42804e-318)
(0.0150663 0.00800856 1.48655e-318)
(0.0175296 0.00651804 1.49355e-318)
(0.0203109 0.00532852 1.46711e-318)
(0.0221477 0.00404268 1.41468e-318)
(0.0240193 0.00297536 1.34458e-318)
(0.0255631 0.00181459 1.26367e-318)
(0.0270824 0.00065009 1.18082e-318)
(0.0285085 -0.000855526 1.10206e-318)
(0.029602 -0.00259391 1.0359e-318)
(0.0305158 -0.00519649 9.87657e-319)
(0.0300812 -0.00813034 9.57934e-319)
(0.0291942 -0.0127365 9.40044e-319)
(0.0248419 -0.0169045 9.14298e-319)
(0.0203096 -0.0226555 8.46058e-319)
(0.0103097 -0.0227455 6.6273e-319)
(0.00383205 -0.0155723 2.96192e-319)
(6.90077e-05 0.00293657 8.64758e-319)
(0.00167784 0.00646869 1.24514e-318)
(0.00721049 0.00688175 1.33683e-318)
(0.00992761 0.00639704 1.33504e-318)
(0.0140539 0.00562495 1.31101e-318)
(0.0160484 0.00457482 1.26908e-318)
(0.0184229 0.00378967 1.21543e-318)
(0.019844 0.00291554 1.14925e-318)
(0.0213996 0.00222423 1.07441e-318)
(0.0227457 0.00143434 9.94579e-319)
(0.0241724 0.00067799 9.15612e-319)
(0.0257355 -0.000343643 8.42441e-319)
(0.0270867 -0.0014598 7.8053e-319)
(0.0286731 -0.00321921 7.34102e-319)
(0.0289476 -0.00509265 7.04597e-319)
(0.0295494 -0.0083476 6.87265e-319)
(0.0259197 -0.0111415 6.64237e-319)
(0.0239422 -0.0161601 6.11214e-319)
(0.0120333 -0.0171069 4.66719e-319)
(0.0101405 -0.0163149 1.83195e-319)
(6.64761e-06 0.00304881 2.66845e-319)
(2.73824e-05 0.00361854 5.58106e-319)
(0.00411076 0.0037378 6.68491e-319)
(0.00569741 0.00346666 7.05832e-319)
(0.008412 0.00313215 7.2137e-319)
(0.0096379 0.00270613 7.19241e-319)
(0.0111015 0.00230234 7.05303e-319)
(0.0119666 0.00186873 6.80052e-319)
(0.0129397 0.00145012 6.47093e-319)
(0.0137807 0.000989015 6.09257e-319)
(0.014798 0.000491726 5.7071e-319)
(0.0158359 -0.000119704 5.35389e-319)
(0.0170062 -0.000832695 5.06724e-319)
(0.0181417 -0.00179118 4.86497e-319)
(0.0188759 -0.00289285 4.74772e-319)
(0.0193662 -0.00440682 4.66121e-319)
(0.0177546 -0.0059197 4.46028e-319)
(0.015893 -0.00754257 3.92456e-319)
(0.008821 -0.00755711 2.72369e-319)
(0.00462391 -0.0031243 6.31663e-320)
(-0.000699617 0.00136371 9.93759e-319)
(0.00057448 0.00271158 8.15772e-319)
(0.00376839 0.00225385 6.74009e-319)
(0.00454214 0.00212343 5.64826e-319)
(0.00650174 0.00185923 5.05246e-319)
(0.00680104 0.0015627 4.57396e-319)
(0.00767828 0.00145116 4.17145e-319)
(0.00790999 0.00124432 3.7757e-319)
(0.00841467 0.0011814 3.3843e-319)
(0.00885619 0.00100974 2.99843e-319)
(0.00941312 0.000952583 2.62789e-319)
(0.0102612 0.000737596 2.28861e-319)
(0.0109882 0.000659509 1.99756e-319)
(0.0123547 0.00028053 1.77078e-319)
(0.0129037 0.000165683 1.61703e-319)
(0.0147079 -0.000678421 1.53481e-319)
(0.0134989 -0.000788747 1.46036e-319)
(0.0153592 -0.00298317 1.32375e-319)
(0.00782656 -0.00279683 8.57599e-320)
(0.0119204 -0.00823469 -9.66886e-321)
)
;

boundaryField
{
    cavity
    {
        type            myHeatFlux;
        ThetaWall       uniform 0;
        value           nonuniform List<vector> 
60
(
(0.001 0 0)
(0.001 0 0)
(0.001 0 0)
(0.001 0 0)
(0.001 0 0)
(0.001 0 0)
(0.001 0 0)
(0.001 0 0)
(0.001 0 0)
(0.001 0 0)
(0.001 0 0)
(0.001 0 0)
(0.001 0 0)
(0.001 0 0)
(0.001 0 0)
(0.001 0 0)
(0.001 0 0)
(0.001 0 0)
(0.001 0 0)
(0.001 0 0)
(0 -0.001 0)
(0 -0.001 0)
(0 -0.001 0)
(0 -0.001 0)
(0 -0.001 0)
(0 -0.001 0)
(0 -0.001 0)
(0 -0.001 0)
(0 -0.001 0)
(0 -0.001 0)
(0 -0.001 0)
(0 -0.001 0)
(0 -0.001 0)
(0 -0.001 0)
(0 -0.001 0)
(0 -0.001 0)
(0 -0.001 0)
(0 -0.001 0)
(0 -0.001 0)
(0 -0.001 0)
(-0.001 0 0)
(-0.001 0 0)
(-0.001 0 0)
(-0.001 0 0)
(-0.001 0 0)
(-0.001 0 0)
(-0.001 0 0)
(-0.001 0 0)
(-0.001 0 0)
(-0.001 0 0)
(-0.001 0 0)
(-0.001 0 0)
(-0.001 0 0)
(-0.001 0 0)
(-0.001 0 0)
(-0.001 0 0)
(-0.001 0 0)
(-0.001 0 0)
(-0.001 0 0)
(-0.001 0 0)
)
;
    }
    lid
    {
        type            myHeatFlux;
        ThetaWall       uniform 0;
        value           nonuniform List<vector> 
20
(
(0.000135815 0.0009 0)
(0.000135815 0.0009 0)
(0.000135815 0.0009 0)
(0.000135815 0.0009 0)
(0.000135815 0.0009 0)
(0.000135815 0.0009 0)
(0.000135815 0.0009 0)
(0.000135815 0.0009 0)
(0.000135815 0.0009 0)
(0.000135815 0.0009 0)
(0.000135815 0.0009 0)
(0.000135815 0.0009 0)
(0.000135815 0.0009 0)
(0.000135815 0.0009 0)
(0.000135815 0.0009 0)
(0.000135815 0.0009 0)
(0.000135815 0.0009 0)
(0.000135815 0.0009 0)
(0.000135815 0.0009 0)
(0.000135815 0.0009 0)
)
;
    }
    frontAndBack
    {
        type            empty;
    }
}


// ************************************************************************* //
