/*--------------------------------*- C++ -*----------------------------------*\
| =========                 |                                                 |
| \\      /  F ield         | foam-extend: Open Source CFD                    |
|  \\    /   O peration     | Version:  3.0                                   |
|   \\  /    A nd           | Web:         http://www.extend-project.de       |
|    \\/     M anipulation  |                                                 |
\*---------------------------------------------------------------------------*/
FoamFile
{
    version     2.0;
    format      ascii;
    class       volScalarField;
    location    "3.5";
    object      Theta;
}
// * * * * * * * * * * * * * * * * * * * * * * * * * * * * * * * * * * * * * //

dimensions      [0 0 0 0 0 0 0];

internalField   nonuniform List<scalar> 
400
(
0.101435
0.0528458
0.0408047
0.0280392
0.0310826
0.0342865
0.0446873
0.0554217
0.069368
0.0831787
0.0982135
0.111991
0.12586
0.136219
0.145947
0.147816
0.148933
0.133569
0.11833
0.0668169
0.149305
0.106682
0.0937509
0.0790284
0.0777503
0.0753028
0.0785475
0.0809727
0.0856718
0.0895443
0.0943048
0.0977891
0.1017
0.102954
0.1046
0.100273
0.0966762
0.0799562
0.0646818
0.0223579
0.130735
0.0909024
0.079075
0.06552
0.066163
0.065092
0.0706453
0.0749277
0.0821617
0.0883164
0.0958775
0.101874
0.10884
0.112505
0.117238
0.114758
0.113577
0.0978857
0.0833399
0.0433018
0.1261
0.0854431
0.0760669
0.0634588
0.0660694
0.0656168
0.0719524
0.0761521
0.0833325
0.0890355
0.0963857
0.102112
0.109441
0.1135
0.119727
0.118337
0.119701
0.10474
0.0922219
0.0499259
0.106334
0.0603504
0.0539714
0.0426951
0.0492188
0.0513644
0.0612234
0.0682397
0.0787276
0.0874534
0.0983184
0.107418
0.118872
0.126658
0.137861
0.13996
0.146674
0.13242
0.122659
0.0701276
0.0930982
0.0421574
0.0395801
0.0299753
0.0401629
0.0443104
0.0564735
0.064886
0.0768511
0.086716
0.0990546
0.109655
0.123462
0.133668
0.148904
0.154225
0.166648
0.153688
0.147851
0.0837685
0.0753787
0.019073
0.0211354
0.0133659
0.027506
0.0339203
0.0487421
0.059054
0.0730675
0.0847581
0.0992747
0.112124
0.129046
0.142399
0.162617
0.171819
0.191534
0.179873
0.180299
0.0993065
0.0596406
0.00378504
0.00982939
0.00469134
0.0213287
0.0293812
0.0453513
0.056403
0.0709002
0.0829956
0.098025
0.111628
0.129933
0.145164
0.168695
0.181323
0.207011
0.19816
0.204501
0.112625
0.0402518
-0.0103096
-0.000126911
-0.00216173
0.0161636
0.0255723
0.042059
0.0535441
0.0680613
0.0802461
0.0953126
0.109279
0.128378
0.145058
0.171364
0.187223
0.219204
0.213782
0.229079
0.127184
0.0199181
-0.0164979
-0.00401994
-0.00172414
0.0163045
0.0266931
0.0422275
0.0533043
0.0665414
0.0777119
0.0913594
0.104351
0.122333
0.139016
0.165382
0.183623
0.21809
0.218462
0.238945
0.142491
-0.00516654
-0.0219718
-0.00686344
0.000493325
0.0177057
0.028972
0.0430457
0.053389
0.0647898
0.0744389
0.0859368
0.0972502
0.113146
0.129025
0.154501
0.174669
0.212031
0.219383
0.250783
0.163809
-0.0312826
-0.0222057
-0.00587655
0.0078279
0.0230402
0.0352035
0.0469415
0.0560688
0.0647909
0.0721375
0.0803951
0.0889019
0.100931
0.114484
0.135802
0.156613
0.190736
0.207489
0.240151
0.184787
-0.0600556
-0.0235846
-0.00529472
0.0152311
0.0288303
0.0420333
0.0514412
0.0591965
0.0649489
0.0696047
0.0740921
0.0791789
0.0866164
0.0970636
0.113819
0.134757
0.168008
0.195149
0.241772
0.218711
-0.0868775
-0.0226046
-0.00145074
0.0264475
0.0385568
0.0527597
0.059565
0.0655901
0.0679873
0.0694511
0.0695876
0.0704308
0.0719987
0.0778458
0.0868024
0.105872
0.129806
0.168126
0.208348
0.242667
-0.108877
-0.0193738
0.00288753
0.0380618
0.0489168
0.0641788
0.0684765
0.0726593
0.0716064
0.0696908
0.0652786
0.0615528
0.0570021
0.0576685
0.0592556
0.0757429
0.0954142
0.144719
0.202479
0.287344
-0.123304
-0.0146975
0.0138785
0.05481
0.0653221
0.0806927
0.0823938
0.0841866
0.079649
0.0741079
0.0651838
0.0565072
0.0454051
0.0396068
0.0312749
0.0421834
0.0472235
0.104238
0.142324
0.30034
-0.121619
0.00136857
0.0280368
0.0744748
0.0832577
0.0985168
0.0972454
0.0965076
0.0884318
0.0793373
0.0660121
0.0524852
0.0350138
0.0225237
0.00515833
0.00948596
0.00645712
0.0691667
0.124041
0.34046
-0.0973586
0.0245473
0.057602
0.103634
0.110815
0.123204
0.118693
0.114523
0.103282
0.0906815
0.0738097
0.0556635
0.0326971
0.0127798
-0.0143319
-0.0206417
-0.0413343
0.015993
0.0328304
0.310614
-0.051304
0.0638
0.0907872
0.13686
0.139744
0.149008
0.140482
0.132862
0.118407
0.102656
0.0825078
0.0602736
0.0321804
0.00515766
-0.0310471
-0.0487462
-0.0822574
-0.0331858
-0.0156284
0.304927
0.0589355
0.133519
0.153961
0.186818
0.182555
0.183003
0.170411
0.157796
0.14156
0.122857
0.101844
0.0762749
0.0464335
0.0120643
-0.0295037
-0.0648145
-0.112045
-0.0984192
-0.124376
0.165352
)
;

boundaryField
{
    cavity
    {
        type            implicitExtrapolation;
    }
    lid
    {
        type            implicitExtrapolation;
    }
    frontAndBack
    {
        type            empty;
    }
}


// ************************************************************************* //
