/*--------------------------------*- C++ -*----------------------------------*\
| =========                 |                                                 |
| \\      /  F ield         | foam-extend: Open Source CFD                    |
|  \\    /   O peration     | Version:  3.0                                   |
|   \\  /    A nd           | Web:         http://www.extend-project.de       |
|    \\/     M anipulation  |                                                 |
\*---------------------------------------------------------------------------*/
FoamFile
{
    version     2.0;
    format      ascii;
    class       volSymmTensorField;
    location    "44";
    object      sigma;
}
// * * * * * * * * * * * * * * * * * * * * * * * * * * * * * * * * * * * * * //

dimensions      [0 0 0 0 0 0 0];

internalField   nonuniform List<symmTensor> 
7680
(
(-0.1801 -0.00285541 -1.30195e-20 0.180094 8.45187e-21 5.64596e-06)
(-0.179374 -0.00320999 4.59595e-20 0.179358 1.35805e-19 1.59466e-05)
(-0.176634 -0.00342488 2.22485e-21 0.176609 -6.27058e-20 2.55864e-05)
(-0.172439 -0.00353412 -3.45437e-21 0.172404 6.99203e-20 3.46487e-05)
(-0.167411 -0.0035712 1.26201e-20 0.167368 -9.38523e-21 4.31992e-05)
(-0.161748 -0.00355151 -6.91822e-21 0.161697 2.32455e-20 5.12873e-05)
(-0.155808 -0.00349271 2.38298e-20 0.155749 -4.7617e-20 5.8952e-05)
(-0.149646 -0.00340297 9.12752e-21 0.14958 -2.31634e-20 6.62207e-05)
(-0.143472 -0.00329165 8.20582e-21 0.143399 -7.42722e-20 7.3114e-05)
(-0.137285 -0.00316317 1.62071e-20 0.137206 -1.32367e-20 7.96442e-05)
(-0.131213 -0.00302272 -3.35636e-20 0.131127 -9.52242e-20 8.58193e-05)
(-0.125232 -0.00287261 1.84565e-20 0.12514 3.73978e-20 9.16408e-05)
(-0.119422 -0.00271584 3.9239e-21 0.119325 -8.21175e-20 9.71071e-05)
(-0.113755 -0.00255351 -3.04053e-20 0.113652 4.01006e-20 0.000102211)
(-0.10828 -0.00238739 -2.5487e-20 0.108173 7.33623e-21 0.000106944)
(-0.10297 -0.00221792 6.17535e-21 0.102859 9.15142e-20 0.000111291)
(-0.0978565 -0.00204612 -9.14074e-21 0.0977413 -7.86337e-20 0.000115236)
(-0.0929165 -0.00187208 -6.14275e-21 0.0927978 1.79824e-19 0.000118757)
(-0.0881687 -0.00169636 2.40208e-20 0.0880469 -9.29108e-20 0.000121831)
(-0.0835958 -0.00151884 -8.733e-21 0.0834714 1.64476e-19 0.000124429)
(-0.0792076 -0.0013398 -2.97382e-20 0.079081 -4.68709e-20 0.000126521)
(-0.0749929 -0.00115896 -3.11734e-20 0.0748648 1.38679e-19 0.000128071)
(-0.0709549 -0.00097651 -3.78021e-20 0.0708258 -1.70656e-20 0.000129044)
(-0.0670889 -0.00079196 -2.18171e-20 0.0669595 1.8085e-19 0.000129396)
(-0.0633926 -0.000605565 -6.13712e-21 0.0632635 -2.89058e-20 0.000129087)
(-0.0598678 -0.000416627 -5.93393e-20 0.0597397 1.46266e-19 0.00012807)
(-0.0565077 -0.000225535 5.29899e-21 0.0563814 7.7805e-20 0.000126299)
(-0.0533207 -3.15157e-05 -5.69671e-21 0.053197 1.20527e-19 0.000123722)
(-0.0502958 0.00016495 1.3465e-20 0.0501755 7.01555e-20 0.00012029)
(-0.0474481 0.000364298 -4.25769e-20 0.0473321 4.09253e-20 0.000115948)
(-0.0447625 0.000566184 -1.12799e-20 0.0446518 2.997e-20 0.000110643)
(-0.042261 0.000770054 -2.79402e-20 0.0421567 -1.23466e-20 0.000104314)
(-0.0399254 0.00097515 1.62668e-20 0.0398285 1.02735e-20 9.6904e-05)
(-0.0377795 0.00118167 -4.60623e-20 0.0376911 -1.87476e-20 8.83465e-05)
(-0.0358166 0.00138089 2.46972e-21 0.035738 6.12556e-21 7.85778e-05)
(-0.0340252 0.00158841 -6.92306e-20 0.0339577 1.16098e-20 6.75269e-05)
(-0.0324816 0.00175839 2.28354e-21 0.0324264 -1.04553e-19 5.51264e-05)
(-0.0310214 0.00198369 -2.54507e-21 0.0309801 2.86172e-20 4.13019e-05)
(-0.0299326 0.00201413 -2.44456e-20 0.0299066 -7.03157e-20 2.59881e-05)
(-0.0288299 0.00245726 9.09136e-21 0.0288208 -6.47798e-20 9.11487e-06)
(-0.179966 -0.00826679 2.17673e-20 0.17996 -2.38984e-21 5.63792e-06)
(-0.179134 -0.00943646 -3.29766e-20 0.179118 5.94752e-20 1.59213e-05)
(-0.176319 -0.0101857 -3.06446e-20 0.176294 -6.41651e-21 2.55449e-05)
(-0.172072 -0.0106151 4.09621e-20 0.172037 -2.13151e-20 3.45922e-05)
(-0.167008 -0.0108259 -1.13861e-20 0.166965 -3.79607e-20 4.31285e-05)
(-0.161323 -0.0108666 -5.89969e-21 0.161272 5.50798e-20 5.12034e-05)
(-0.15537 -0.0107903 -3.01235e-20 0.155311 4.91199e-20 5.88557e-05)
(-0.149202 -0.010623 -1.79005e-20 0.149136 2.74354e-20 6.61128e-05)
(-0.143028 -0.0103932 -4.97678e-21 0.142955 1.35347e-19 7.29953e-05)
(-0.136845 -0.0101151 9.12094e-21 0.136765 1.18036e-19 7.95155e-05)
(-0.130779 -0.00980463 4.89092e-20 0.130694 -1.95522e-20 8.56812e-05)
(-0.124808 -0.00946961 4.92775e-21 0.124716 7.08794e-20 9.14941e-05)
(-0.119009 -0.00911921 2.06299e-20 0.118912 -7.11221e-20 9.69526e-05)
(-0.113355 -0.00875769 4.87695e-20 0.113252 6.18689e-20 0.00010205)
(-0.107893 -0.00839034 3.01262e-20 0.107787 -1.42932e-19 0.000106776)
(-0.102598 -0.00801956 -6.56303e-20 0.102487 -1.79342e-20 0.000111118)
(-0.0975001 -0.00764826 6.72096e-20 0.097385 8.84641e-21 0.000115058)
(-0.0925758 -0.00727793 -1.78034e-20 0.0924572 -5.46075e-20 0.000118574)
(-0.0878441 -0.00690991 -1.33443e-20 0.0877224 1.00001e-19 0.000121645)
(-0.0832874 -0.00654532 9.07908e-21 0.0831631 -4.6398e-20 0.00012424)
(-0.0789155 -0.00618444 -6.1317e-20 0.0787892 1.83296e-20 0.000126331)
(-0.0747172 -0.00582824 2.94035e-20 0.0745894 -8.03907e-20 0.00012788)
(-0.0706957 -0.00547634 -1.63184e-21 0.0705668 5.08833e-20 0.000128853)
(-0.066846 -0.00512967 4.11482e-22 0.0667168 -1.33078e-19 0.000129207)
(-0.063166 -0.0047874 -8.72868e-20 0.0630371 3.285e-21 0.000128901)
(-0.0596573 -0.0044505 7.26015e-20 0.0595294 -7.73782e-20 0.000127888)
(-0.0563132 -0.00411786 -3.73992e-20 0.0561871 1.22374e-20 0.000126122)
(-0.0531418 -0.00379064 -8.0207e-21 0.0530182 -4.07014e-20 0.000123552)
(-0.0501326 -0.00346745 -7.15511e-20 0.0500125 -5.0203e-20 0.000120129)
(-0.0472999 -0.00315006 -4.46124e-20 0.0471841 2.41501e-20 0.000115797)
(-0.0446303 -0.00283679 -4.47215e-20 0.0445198 -1.31685e-20 0.000110503)
(-0.0421434 -0.00252994 -3.96998e-20 0.0420392 5.24888e-21 0.000104188)
(-0.0398261 -0.00223037 2.62824e-20 0.0397293 -8.00701e-22 9.6792e-05)
(-0.0376951 -0.00193279 2.15589e-20 0.0376068 -5.96599e-20 8.82509e-05)
(-0.0357563 -0.00166222 2.13222e-21 0.0356778 3.86161e-20 7.85e-05)
(-0.0339838 -0.00136281 -1.19857e-19 0.0339163 -6.73238e-22 6.74681e-05)
(-0.032468 -0.00115777 -5.42207e-20 0.0324129 8.45996e-21 5.50872e-05)
(-0.0310497 -0.000828925 3.16407e-20 0.0310085 3.18402e-20 4.12819e-05)
(-0.0299587 -0.000786933 -1.20165e-19 0.0299327 -2.45232e-20 2.5985e-05)
(-0.0289527 -0.000305925 2.33364e-20 0.0289436 4.10845e-20 9.12152e-06)
(-0.179702 -0.0136783 2.98824e-20 0.179696 -2.61926e-20 5.62149e-06)
(-0.178655 -0.0156461 5.25954e-20 0.178639 6.93102e-20 1.58779e-05)
(-0.175687 -0.0169168 -1.45426e-20 0.175661 -1.88356e-19 2.54765e-05)
(-0.171332 -0.0176572 -2.8503e-20 0.171298 1.53396e-19 3.45001e-05)
(-0.166195 -0.018035 7.45861e-20 0.166152 -1.10758e-19 4.3014e-05)
(-0.160461 -0.0181313 5.44184e-20 0.16041 -1.15115e-20 5.10677e-05)
(-0.154478 -0.0180344 2.23748e-20 0.15442 -9.78525e-20 5.86997e-05)
(-0.148294 -0.0177874 6.68182e-20 0.148229 1.01016e-20 6.59376e-05)
(-0.142116 -0.0174378 8.35513e-20 0.142043 -4.3718e-21 7.28018e-05)
(-0.135936 -0.0170095 -8.46972e-20 0.135857 -1.20294e-20 7.93047e-05)
(-0.12988 -0.0165289 -5.37187e-20 0.129795 -1.46682e-19 8.54542e-05)
(-0.123923 -0.0160093 -2.47419e-20 0.123832 6.62762e-20 9.12519e-05)
(-0.118143 -0.0154659 4.01734e-21 0.118046 -4.7306e-20 9.66963e-05)
(-0.112509 -0.014906 -8.82346e-20 0.112407 4.58355e-20 0.00010178)
(-0.10707 -0.0143384 -9.43145e-20 0.106964 8.94424e-20 0.000106495)
(-0.101799 -0.0137675 1.1771e-19 0.101688 8.829e-20 0.000110825)
(-0.0967262 -0.0131979 -3.11511e-20 0.0966114 7.41035e-20 0.000114755)
(-0.0918276 -0.0126327 5.70984e-20 0.0917093 1.4947e-19 0.000118263)
(-0.0871219 -0.0120738 6.34713e-20 0.0870006 -1.40219e-19 0.000121325)
(-0.0825915 -0.0115236 -9.27897e-20 0.0824676 1.21575e-19 0.000123914)
(-0.0782459 -0.0109824 -4.92634e-20 0.0781199 -3.35233e-20 0.000125998)
(-0.0740738 -0.0104524 -1.8682e-20 0.0739463 1.25362e-19 0.000127543)
(-0.0700782 -0.00993277 -7.22694e-20 0.0699496 -1.41912e-20 0.000128512)
(-0.0662542 -0.00942567 -7.50913e-20 0.0661253 6.4441e-20 0.000128865)
(-0.0625992 -0.00892947 3.94985e-20 0.0624707 1.81678e-19 0.000128559)
(-0.0591154 -0.00844644 -5.37848e-20 0.0589878 1.09828e-19 0.000127549)
(-0.0557953 -0.00797455 5.13742e-20 0.0556695 1.75715e-19 0.000125788)
(-0.0526476 -0.00751609 -6.06416e-20 0.0525244 4.97668e-20 0.000123225)
(-0.0496611 -0.00706893 7.8136e-20 0.0495413 1.38325e-19 0.000119812)
(-0.046851 -0.00663528 5.34463e-21 0.0467355 3.91958e-21 0.000115493)
(-0.0442028 -0.00621372 -2.60514e-20 0.0440926 5.71855e-20 0.000110215)
(-0.0417372 -0.00580439 -1.43518e-20 0.0416333 9.09545e-20 0.000103918)
(-0.0394401 -0.00541324 -7.33671e-20 0.0393435 1.61732e-19 9.65432e-05)
(-0.0373287 -0.00502285 1.1896e-20 0.0372407 -2.81514e-19 8.80259e-05)
(-0.0354113 -0.00468105 5.57221e-20 0.035333 1.95944e-19 7.83018e-05)
(-0.0336544 -0.00429443 -9.1667e-20 0.0335871 -1.06817e-19 6.72996e-05)
(-0.0321703 -0.00403817 2.32222e-20 0.0321153 8.35736e-21 5.49511e-05)
(-0.0307666 -0.00364638 -5.10128e-20 0.0307254 1.02282e-19 4.11806e-05)
(-0.0297179 -0.00355581 -1.70005e-20 0.0296919 -4.46605e-20 2.59202e-05)
(-0.0287897 -0.00305096 -2.46426e-20 0.0287806 1.53751e-19 9.09523e-06)
(-0.179306 -0.0190907 7.28897e-20 0.1793 4.72116e-20 5.602e-06)
(-0.177939 -0.0218274 -9.28548e-20 0.177923 1.24475e-20 1.58201e-05)
(-0.17474 -0.0235985 -1.09822e-20 0.174715 2.66092e-19 2.53827e-05)
(-0.170225 -0.0246346 1.2914e-19 0.170191 -2.57194e-19 3.43725e-05)
(-0.164976 -0.0251683 -1.21732e-19 0.164933 5.80305e-20 4.28545e-05)
(-0.159168 -0.0253125 6.80413e-21 0.159117 6.92838e-20 5.08779e-05)
(-0.15314 -0.0251895 -2.06258e-20 0.153081 6.79319e-20 5.84811e-05)
(-0.146931 -0.0248593 5.05997e-20 0.146865 -2.58981e-20 6.56917e-05)
(-0.140744 -0.0243879 1.55552e-20 0.140671 -1.09188e-19 7.253e-05)
(-0.134568 -0.0238083 -6.9376e-20 0.134489 -5.58747e-20 7.90086e-05)
(-0.128524 -0.0231575 9.186e-20 0.128439 4.93618e-20 8.51353e-05)
(-0.122587 -0.0224537 7.56939e-20 0.122496 1.179e-20 9.09118e-05)
(-0.116831 -0.0217181 2.95207e-20 0.116735 -1.61918e-19 9.63364e-05)
(-0.111225 -0.0209612 1.47928e-19 0.111124 1.18139e-19 0.000101402)
(-0.105818 -0.0201949 6.49665e-20 0.105712 -7.39556e-22 0.0001061)
(-0.10058 -0.0194256 -1.15092e-19 0.10047 3.18407e-19 0.000110415)
(-0.0955419 -0.0186597 1.71137e-19 0.0954275 -1.94749e-19 0.000114331)
(-0.0906786 -0.0179015 -2.24284e-19 0.0905608 2.13756e-19 0.000117827)
(-0.0860089 -0.0171537 -1.59878e-20 0.085888 -1.26876e-19 0.000120878)
(-0.0815144 -0.01642 1.00995e-19 0.0813909 1.25371e-19 0.000123458)
(-0.0772048 -0.0157005 -5.22801e-20 0.0770792 -1.26543e-19 0.000125535)
(-0.0730681 -0.0149988 5.16891e-20 0.0729411 -1.22309e-21 0.000127074)
(-0.0691076 -0.0143133 -5.65183e-20 0.0689796 3.07059e-20 0.000128041)
(-0.065318 -0.0136477 1.60842e-19 0.0651896 1.59979e-19 0.000128392)
(-0.0616968 -0.0129993 -1.13618e-20 0.0615687 -1.02975e-19 0.000128089)
(-0.0582457 -0.012372 7.48218e-20 0.0581186 8.13023e-20 0.000127083)
(-0.0549576 -0.0117622 -6.98166e-20 0.0548323 2.62151e-20 0.00012533)
(-0.0518408 -0.0111744 -4.92238e-20 0.0517181 1.04963e-19 0.000122779)
(-0.0488841 -0.0106042 -9.39162e-20 0.0487647 -1.28492e-19 0.00011938)
(-0.0461029 -0.0100566 -1.30541e-19 0.0459878 1.09343e-19 0.000115079)
(-0.0434818 -0.00952772 6.16424e-20 0.0433719 -5.058e-21 0.000109823)
(-0.0410433 -0.00901945 1.09822e-19 0.0409398 4.90814e-20 0.000103552)
(-0.0387694 -0.00853935 -3.6475e-19 0.0386732 1.32925e-19 9.62077e-05)
(-0.0366862 -0.0080601 1.03067e-20 0.0365984 -1.7629e-20 8.77247e-05)
(-0.0347833 -0.00765738 2.16282e-19 0.0347053 1.21388e-19 7.80393e-05)
(-0.0330664 -0.00717153 -3.31691e-19 0.0329993 4.49378e-20 6.70803e-05)
(-0.0315773 -0.00689898 1.77201e-19 0.0315225 8.91874e-20 5.47794e-05)
(-0.0302423 -0.00637436 -1.62855e-20 0.0302012 9.44578e-20 4.10606e-05)
(-0.0291711 -0.00627435 -5.3096e-20 0.0291453 -9.26102e-20 2.58541e-05)
(-0.0283326 -0.00567989 -4.30541e-20 0.0283235 -1.63936e-19 9.08075e-06)
(-0.178777 -0.0245034 4.94667e-20 0.178771 -1.17199e-19 5.57243e-06)
(-0.176987 -0.0279694 2.14679e-19 0.176971 -2.1893e-19 1.57397e-05)
(-0.173484 -0.0302112 -1.11728e-19 0.173459 -2.96468e-19 2.52549e-05)
(-0.168756 -0.0315218 -1.42472e-19 0.168722 -1.86185e-20 3.42001e-05)
(-0.163359 -0.0321959 2.71287e-19 0.163316 3.73893e-20 4.264e-05)
(-0.157453 -0.0323771 8.41397e-20 0.157403 -1.65355e-19 5.06234e-05)
(-0.151363 -0.0322204 -1.85933e-20 0.151305 -1.53193e-19 5.81887e-05)
(-0.145121 -0.031802 -6.2345e-20 0.145056 8.98364e-20 6.53632e-05)
(-0.138922 -0.0312056 6.29842e-20 0.13885 5.81172e-20 7.21673e-05)
(-0.132749 -0.0304733 -7.69633e-21 0.13267 1.16384e-19 7.86136e-05)
(-0.126721 -0.0296517 9.60694e-21 0.126637 -1.91077e-19 8.47099e-05)
(-0.120808 -0.0287641 -1.95315e-19 0.120718 1.26968e-19 9.04578e-05)
(-0.115084 -0.0278376 8.54567e-20 0.114988 -1.22308e-19 9.58558e-05)
(-0.109514 -0.0268851 1.756e-20 0.109413 1.93209e-19 0.000100897)
(-0.104147 -0.0259222 1.16444e-19 0.104041 -5.17182e-21 0.000105572)
(-0.0989513 -0.0249567 -3.22522e-20 0.0988414 1.85641e-19 0.000109866)
(-0.0939569 -0.0239969 -7.10761e-20 0.0938431 -2.73726e-19 0.000113763)
(-0.0891386 -0.0230483 1.45251e-19 0.0890214 1.05266e-19 0.000117242)
(-0.0845145 -0.0221144 -6.71251e-20 0.0843942 5.48409e-20 0.000120278)
(-0.0800655 -0.0211999 -6.08875e-20 0.0799427 -3.95389e-20 0.000122845)
(-0.0758013 -0.020305 -1.98761e-19 0.0756764 2.13453e-19 0.000124911)
(-0.0717095 -0.0194344 1.13628e-19 0.071583 1.86402e-19 0.000126443)
(-0.067793 -0.0185859 6.7829e-20 0.0676656 9.81644e-20 0.000127403)
(-0.0640466 -0.0177648 -1.46932e-19 0.0639188 -1.74394e-19 0.000127753)
(-0.0604675 -0.016967 -5.49884e-20 0.06034 2.80284e-19 0.000127449)
(-0.0570573 -0.0161984 1.16702e-19 0.0569308 -3.75465e-20 0.000126448)
(-0.0538085 -0.0154538 1.12585e-19 0.0536838 1.42707e-19 0.000124703)
(-0.05073 -0.0147395 -1.84003e-19 0.0506079 6.21787e-20 0.000122164)
(-0.0478095 -0.0140495 6.55876e-20 0.0476907 2.98891e-19 0.000118782)
(-0.0450637 -0.0133904 1.24467e-19 0.0449492 2.15722e-19 0.000114503)
(-0.042475 -0.0127572 -1.22637e-19 0.0423657 2.64964e-19 0.000109273)
(-0.0400699 -0.0121519 2.31492e-19 0.0399669 -5.88736e-20 0.000103033)
(-0.0378228 -0.0115829 -1.01531e-19 0.0377271 1.71675e-19 9.57244e-05)
(-0.0357757 -0.0110196 -9.2936e-20 0.0356884 1.26893e-19 8.72833e-05)
(-0.0338858 -0.0105424 1.77721e-19 0.0338081 2.87341e-19 7.76451e-05)
(-0.0322226 -0.00998905 -9.04461e-20 0.0321558 -7.17673e-20 6.67397e-05)
(-0.0307117 -0.00964501 6.46337e-20 0.0306572 1.12044e-20 5.44984e-05)
(-0.0294604 -0.00909288 -2.13361e-19 0.0294196 6.11529e-20 4.08463e-05)
(-0.0283281 -0.00890944 -3.54905e-19 0.0283024 -3.82235e-20 2.57132e-05)
(-0.0275583 -0.00830604 1.02898e-19 0.0275493 1.07122e-19 9.02536e-06)
(-0.178114 -0.0299171 2.73896e-20 0.178108 5.02226e-20 5.54021e-06)
(-0.175803 -0.034061 -2.1148e-19 0.175787 3.03504e-19 1.56455e-05)
(-0.171926 -0.0367363 1.73734e-19 0.1719 -7.52809e-20 2.51026e-05)
(-0.166935 -0.0382943 2.06481e-19 0.166901 3.45501e-19 3.39931e-05)
(-0.161355 -0.0390893 -2.05309e-19 0.161313 -2.56102e-20 4.23813e-05)
(-0.155329 -0.0392936 -6.5972e-20 0.155278 -8.95849e-20 5.03158e-05)
(-0.149163 -0.0390936 1.35136e-19 0.149105 1.06075e-19 5.78347e-05)
(-0.142879 -0.0385806 2.03816e-19 0.142814 -9.52709e-20 6.49652e-05)
(-0.136664 -0.0378555 4.58891e-20 0.136592 -1.13443e-19 7.17278e-05)
(-0.130495 -0.0369683 -2.58242e-19 0.130417 1.36797e-19 7.81348e-05)
(-0.124486 -0.0359754 8.07722e-20 0.124401 2.20692e-19 8.41941e-05)
(-0.118602 -0.0349047 1.11067e-19 0.118512 1.04355e-19 8.99075e-05)
(-0.112915 -0.0337885 2.90598e-20 0.11282 4.05828e-21 9.52733e-05)
(-0.10739 -0.0326426 2.99721e-19 0.107289 -2.2024e-19 0.000100285)
(-0.102071 -0.0314855 7.29959e-20 0.101966 3.726e-20 0.000104932)
(-0.096926 -0.0303267 -2.36838e-19 0.0968168 -1.10687e-19 0.000109201)
(-0.0919849 -0.029176 8.2221e-21 0.0918718 2.06127e-19 0.000113076)
(-0.0872209 -0.0280403 5.2662e-20 0.0871043 1.72021e-19 0.000116534)
(-0.0826517 -0.0269234 -1.16483e-19 0.0825322 7.15211e-20 0.000119554)
(-0.0782575 -0.0258315 2.39829e-19 0.0781354 2.0483e-19 0.000122105)
(-0.074048 -0.0247644 1.11096e-19 0.0739238 2.37781e-19 0.00012416)
(-0.0700098 -0.0237281 -8.09351e-20 0.0698842 1.70267e-19 0.000125682)
(-0.0661464 -0.0227198 -3.11812e-19 0.0660198 -1.69621e-19 0.000126638)
(-0.0624515 -0.0217461 3.13806e-19 0.0623245 2.34781e-19 0.000126985)
(-0.0589228 -0.0208018 1.02686e-19 0.0587962 9.34323e-20 0.000126684)
(-0.0555614 -0.0198947 -1.16257e-19 0.0554358 2.96979e-19 0.00012569)
(-0.0523599 -0.0190176 1.18834e-19 0.052236 -1.14019e-19 0.000123956)
(-0.049327 -0.0181795 1.30061e-19 0.0492055 1.33548e-19 0.000121433)
(-0.0464498 -0.0173715 5.42715e-20 0.0463317 -8.36815e-20 0.000118073)
(-0.0437459 -0.0166042 -6.6331e-20 0.0436321 -1.00633e-19 0.000113821)
(-0.0411955 -0.0158674 -1.18497e-19 0.0410869 -5.48993e-19 0.000108624)
(-0.0388288 -0.01517 -1.76437e-20 0.0387264 2.04958e-20 0.000102423)
(-0.0366118 -0.0145118 -2.22745e-20 0.0365167 -3.04299e-19 9.51599e-05)
(-0.0346021 -0.0138724 1.1887e-19 0.0345153 6.10724e-20 8.67712e-05)
(-0.0327249 -0.0133194 1.21275e-19 0.0326477 -2.92295e-19 7.71928e-05)
(-0.0311085 -0.0127026 -6.03822e-19 0.0310422 -1.52472e-19 6.63551e-05)
(-0.0295808 -0.0122975 3.78702e-19 0.0295266 -1.64128e-19 5.41896e-05)
(-0.028392 -0.0116862 3.67844e-21 0.0283514 -4.85069e-20 4.06223e-05)
(-0.0272363 -0.0114605 -5.22455e-21 0.0272108 -4.90031e-19 2.55814e-05)
(-0.026513 -0.0108394 -2.2536e-19 0.026504 1.06472e-19 8.98859e-06)
(-0.177313 -0.0353304 2.08603e-19 0.177308 -8.42996e-20 5.49758e-06)
(-0.174389 -0.0400917 1.21435e-19 0.174374 6.98884e-20 1.55285e-05)
(-0.170071 -0.0431554 -1.81946e-19 0.170046 2.56785e-21 2.4916e-05)
(-0.164772 -0.0449283 4.61829e-21 0.164738 -2.83485e-19 3.37411e-05)
(-0.158977 -0.0458205 2.79303e-20 0.158935 1.46989e-19 4.20674e-05)
(-0.152808 -0.0460311 4.15953e-21 0.152758 4.60461e-19 4.99434e-05)
(-0.146553 -0.0457762 -6.53278e-20 0.146495 2.2578e-20 5.74067e-05)
(-0.140221 -0.0451609 -2.21476e-19 0.140156 1.56588e-19 6.44845e-05)
(-0.133987 -0.0443022 2.85209e-19 0.133915 -1.32086e-20 7.1197e-05)
(-0.127822 -0.0432577 2.30533e-19 0.127744 1.13271e-19 7.75568e-05)
(-0.121834 -0.0420928 -6.03349e-20 0.121751 -5.20116e-23 8.35716e-05)
(-0.115986 -0.0408395 -3.566e-19 0.115896 1.8162e-19 8.92432e-05)
(-0.110343 -0.0395353 -1.91579e-19 0.110248 6.58624e-21 9.45699e-05)
(-0.104869 -0.0381983 -3.14148e-20 0.104769 3.32943e-19 9.9545e-05)
(-0.0996059 -0.0368499 3.31473e-19 0.0995017 -1.66744e-19 0.000104159)
(-0.0945211 -0.035501 1.18212e-19 0.0944127 7.60271e-21 0.000108398)
(-0.0896421 -0.0341631 1.06035e-19 0.0895299 5.3729e-21 0.000112244)
(-0.0849414 -0.032844 7.93197e-20 0.0848257 -1.00258e-21 0.000115678)
(-0.0804363 -0.0315482 -1.89903e-20 0.0803176 -1.37686e-19 0.000118675)
(-0.0761058 -0.0302828 1.04012e-19 0.0759846 -2.00474e-19 0.000121208)
(-0.0719597 -0.0290474 -1.09935e-19 0.0718364 -7.3505e-21 0.000123248)
(-0.0679838 -0.0278495 -6.5408e-20 0.0678591 -3.18381e-19 0.000124759)
(-0.0641817 -0.0266852 6.28594e-21 0.064056 1.967e-19 0.000125706)
(-0.0605463 -0.0255628 5.02772e-20 0.0604203 -1.24682e-19 0.000126051)
(-0.0570757 -0.0244757 1.68017e-19 0.05695 -1.23605e-19 0.000125751)
(-0.0537702 -0.0234337 -2.88483e-20 0.0536454 -6.24682e-20 0.000124763)
(-0.0506227 -0.0224275 -9.13611e-20 0.0504996 -1.96215e-20 0.00012304)
(-0.0476412 -0.0214689 -2.40476e-20 0.0475207 -3.20396e-19 0.000120535)
(-0.0448132 -0.020546 -2.11472e-19 0.044696 6.22737e-19 0.000117198)
(-0.0421558 -0.019673 -2.60011e-19 0.0420429 -4.68073e-20 0.000112976)
(-0.0396489 -0.0188355 -1.1752e-19 0.0395411 3.4245e-19 0.000107816)
(-0.0373236 -0.0180482 4.39837e-19 0.0372219 1.46923e-19 0.000101659)
(-0.0351427 -0.0173023 -4.21529e-20 0.0350483 -2.14266e-19 9.44483e-05)
(-0.0331712 -0.0165923 -1.24703e-19 0.0330851 2.46224e-19 8.612e-05)
(-0.0313158 -0.0159592 1.32775e-19 0.0312392 -1.83247e-19 7.66104e-05)
(-0.0297442 -0.0153043 -2.98744e-20 0.0296784 -4.04866e-20 6.58515e-05)
(-0.0282026 -0.0148126 2.4513e-20 0.0281489 1.25328e-20 5.37743e-05)
(-0.0270837 -0.0142162 -5.19505e-19 0.0270434 -1.11529e-19 4.03068e-05)
(-0.0258573 -0.013898 -2.17977e-19 0.0258319 -1.37958e-19 2.53767e-05)
(-0.0252314 -0.013315 2.44943e-19 0.0252225 5.67071e-19 8.91135e-06)
(-0.176373 -0.0407436 9.92217e-20 0.176368 1.26243e-19 5.45272e-06)
(-0.172751 -0.0460509 -2.45639e-20 0.172735 -8.98159e-20 1.53982e-05)
(-0.16793 -0.0494511 -1.66114e-20 0.167905 9.31268e-20 2.47056e-05)
(-0.16228 -0.0514012 1.39871e-19 0.162247 7.07628e-19 3.34553e-05)
(-0.15624 -0.0523634 2.29703e-19 0.156199 5.00583e-20 4.17105e-05)
(-0.14991 -0.052561 -9.56201e-22 0.149861 -4.48591e-19 4.9519e-05)
(-0.143553 -0.0522377 7.79368e-21 0.143496 -8.02954e-20 5.69185e-05)
(-0.137166 -0.0515113 1.67157e-19 0.137102 -1.58297e-19 6.39357e-05)
(-0.130911 -0.0505136 -7.01643e-20 0.13084 -3.83349e-20 7.0591e-05)
(-0.124751 -0.049309 -1.25513e-19 0.124674 -1.56363e-19 7.68967e-05)
(-0.118789 -0.0479713 2.90644e-19 0.118706 -1.25692e-19 8.28606e-05)
(-0.11298 -0.046536 2.43647e-19 0.112891 -2.63889e-19 8.84845e-05)
(-0.107388 -0.0450457 6.81582e-20 0.107294 9.5467e-20 9.37668e-05)
(-0.101972 -0.0435202 7.85834e-20 0.101873 -5.44457e-20 9.87006e-05)
(-0.0967733 -0.0419839 -1.39637e-19 0.09667 -3.74671e-19 0.000103277)
(-0.0917565 -0.0404488 -1.11085e-19 0.091649 5.48448e-20 0.000107481)
(-0.0869483 -0.0389278 1.2238e-19 0.086837 -3.00615e-19 0.000111296)
(-0.0823194 -0.0374296 -2.33353e-20 0.0822047 2.11422e-20 0.000114702)
(-0.0778871 -0.0359593 -1.93501e-19 0.0777694 -4.58715e-19 0.000117675)
(-0.0736289 -0.0345249 3.72789e-19 0.0735087 4.55007e-20 0.000120188)
(-0.0695548 -0.0331258 1.01506e-19 0.0694326 -7.71382e-20 0.000122211)
(-0.0656494 -0.0317706 6.8969e-20 0.0655257 3.97458e-20 0.00012371)
(-0.0619167 -0.0304546 -2.00792e-19 0.0617921 1.7144e-19 0.000124651)
(-0.0583486 -0.0291877 1.22318e-20 0.0582236 6.4125e-20 0.000124993)
(-0.0549437 -0.0279617 1.34399e-19 0.054819 1.43532e-19 0.000124696)
(-0.0517012 -0.0267888 1.79073e-19 0.0515775 -3.12385e-19 0.000123716)
(-0.0486148 -0.0256571 -2.6259e-19 0.0484928 2.42232e-19 0.000122009)
(-0.0456914 -0.0245818 9.23915e-19 0.0455719 -5.50862e-19 0.000119526)
(-0.0429189 -0.0235472 3.20203e-19 0.0428027 4.91445e-19 0.000116218)
(-0.0403138 -0.0225726 -2.39046e-19 0.0402018 -5.70065e-19 0.000112032)
(-0.0378556 -0.0216372 -2.62315e-19 0.0377487 4.95237e-19 0.000106916)
(-0.0355756 -0.0207648 -5.86952e-19 0.0354748 -5.101e-20 0.000100813)
(-0.0334343 -0.0199336 7.51952e-20 0.0333406 2.01097e-19 9.36643e-05)
(-0.0315007 -0.019159 1.17274e-19 0.0314153 2.7912e-19 8.5408e-05)
(-0.0296703 -0.0184472 -3.42554e-19 0.0295943 1.58165e-19 7.59808e-05)
(-0.0281327 -0.0177581 -3.97518e-19 0.0280674 1.79385e-20 6.53152e-05)
(-0.0265927 -0.0171873 3.43812e-19 0.0265394 2.98734e-19 5.33429e-05)
(-0.0255124 -0.0165929 -1.86816e-19 0.0254724 2.8598e-19 3.99925e-05)
(-0.0242676 -0.0162194 6.08264e-19 0.0242424 -1.87714e-19 2.51898e-05)
(-0.0236779 -0.0156588 -4.87989e-19 0.023669 1.154e-19 8.85647e-06)
(-0.175291 -0.0461547 1.22146e-19 0.175286 -8.96506e-20 5.39717e-06)
(-0.170892 -0.0519287 1.32331e-19 0.170876 -6.58844e-20 1.52449e-05)
(-0.165513 -0.0556066 2.3905e-19 0.165488 -6.58491e-20 2.44609e-05)
(-0.159473 -0.0576916 1.24317e-19 0.15944 -6.99078e-19 3.31246e-05)
(-0.153162 -0.0586928 -4.63737e-19 0.153121 -4.89607e-19 4.12985e-05)
(-0.146653 -0.0588557 -2.25468e-20 0.146604 1.87135e-19 4.90302e-05)
(-0.140184 -0.0584488 3.16157e-20 0.140128 2.46213e-19 5.63566e-05)
(-0.133736 -0.0576012 -1.59475e-19 0.133673 3.90997e-20 6.33047e-05)
(-0.127459 -0.0564583 2.43165e-19 0.127389 3.37434e-19 6.98944e-05)
(-0.121306 -0.0550903 2.62112e-19 0.12123 -4.49818e-19 7.61382e-05)
(-0.115372 -0.0535788 -3.20055e-19 0.11529 3.17892e-19 8.20437e-05)
(-0.109608 -0.0519623 -6.21622e-20 0.10952 -2.64243e-19 8.76127e-05)
(-0.104072 -0.0502879 -1.14021e-20 0.10398 8.408e-20 9.28437e-05)
(-0.0987221 -0.048577 -2.66381e-19 0.0986244 -5.59027e-20 9.77298e-05)
(-0.0935956 -0.0468565 3.17827e-19 0.0934934 2.4869e-19 0.000102262)
(-0.0886548 -0.0451395 1.89267e-19 0.0885484 -1.81323e-19 0.000106426)
(-0.0839256 -0.04344 -9.71008e-20 0.0838154 4.35413e-19 0.000110205)
(-0.0793768 -0.0417677 7.63883e-20 0.0792632 -2.25049e-19 0.000113578)
(-0.0750255 -0.0401279 -2.47422e-19 0.074909 2.48009e-19 0.000116523)
(-0.0708477 -0.0385295 3.07866e-19 0.0707287 8.16401e-21 0.000119012)
(-0.0668535 -0.0369718 -2.3413e-20 0.0667325 -2.00882e-19 0.000121015)
(-0.0630262 -0.0354643 1.60166e-19 0.0629037 -5.65274e-20 0.0001225)
(-0.0593705 -0.0340014 1.50795e-19 0.0592471 -1.4813e-19 0.000123431)
(-0.0558766 -0.0325947 -5.9609e-20 0.0557528 -2.77948e-20 0.000123769)
(-0.0525442 -0.0312344 -3.31776e-19 0.0524208 1.99136e-19 0.000123475)
(-0.049371 -0.0299347 2.54628e-19 0.0492485 -5.42826e-19 0.000122503)
(-0.0463517 -0.0286816 -5.78203e-19 0.0462308 1.50923e-19 0.000120812)
(-0.0434914 -0.0274932 -1.05695e-19 0.043373 1.81537e-19 0.000118351)
(-0.0407797 -0.0263503 2.33602e-19 0.0406647 4.08321e-20 0.000115074)
(-0.0382305 -0.025277 -8.89855e-20 0.0381196 -2.81934e-19 0.000110928)
(-0.035826 -0.0242467 6.23585e-19 0.0357202 1.7926e-19 0.000105861)
(-0.0335933 -0.0232918 1.94165e-19 0.0334935 -2.69284e-19 9.98165e-05)
(-0.0314975 -0.022378 -5.43519e-20 0.0314047 5.96407e-19 9.27367e-05)
(-0.0296005 -0.0215431 2.84674e-19 0.029516 -7.49533e-19 8.45604e-05)
(-0.0278058 -0.0207552 -1.66431e-19 0.0277306 5.41586e-19 7.52247e-05)
(-0.0262937 -0.0200447 3.61852e-20 0.026229 -1.82281e-19 6.46634e-05)
(-0.0247725 -0.0193911 2.4745e-19 0.0247197 4.93609e-19 5.28079e-05)
(-0.0237202 -0.0188311 -9.53189e-19 0.0236806 -3.53215e-19 3.95884e-05)
(-0.0224552 -0.0183774 -3.54025e-19 0.0224302 1.52516e-19 2.49302e-05)
(-0.021943 -0.0178772 4.54862e-19 0.0219343 3.64121e-19 8.75945e-06)
(-0.174064 -0.051563 -8.68115e-20 0.174058 6.59572e-19 5.33985e-06)
(-0.168818 -0.0577155 -1.52994e-19 0.168802 2.94683e-19 1.50791e-05)
(-0.162831 -0.0616065 -3.58285e-19 0.162807 8.41819e-20 2.41934e-05)
(-0.156367 -0.0637796 2.32883e-21 0.156334 5.08774e-19 3.27613e-05)
(-0.149762 -0.064786 5.63426e-19 0.149722 6.58173e-19 4.08448e-05)
(-0.143059 -0.0648901 1.93525e-19 0.143011 2.4505e-19 4.84909e-05)
(-0.13647 -0.0643832 -3.70569e-20 0.136414 -1.15499e-19 5.57364e-05)
(-0.129957 -0.0634032 2.51618e-19 0.129894 -3.10146e-19 6.26077e-05)
(-0.123657 -0.0621084 -3.95026e-19 0.123587 -2.93654e-19 6.91249e-05)
(-0.117512 -0.0605735 -1.75421e-19 0.117437 2.19924e-19 7.53e-05)
(-0.111611 -0.0588873 3.42183e-19 0.11153 4.83242e-19 8.11409e-05)
(-0.105896 -0.0570904 -1.91521e-19 0.105809 4.20012e-19 8.66494e-05)
(-0.100424 -0.0552343 2.10331e-19 0.100332 2.85683e-19 9.18238e-05)
(-0.0951459 -0.0533413 4.43551e-20 0.0950493 2.69947e-19 9.66575e-05)
(-0.0900987 -0.0514409 -4.44772e-19 0.0899976 5.71074e-20 0.000101141)
(-0.0852415 -0.0495466 1.55577e-19 0.0851362 -1.00323e-19 0.000105261)
(-0.080599 -0.0476739 6.36342e-20 0.08049 3.09869e-21 0.000109)
(-0.0761382 -0.0458327 -9.20789e-20 0.0760258 -2.94984e-19 0.000112339)
(-0.0718757 -0.044029 -8.69419e-20 0.0717604 -2.25362e-19 0.000115253)
(-0.0677858 -0.0422722 -1.87969e-19 0.0676681 3.75219e-19 0.000117716)
(-0.0638792 -0.0405614 3.65262e-20 0.0637595 1.97342e-20 0.0001197)
(-0.0601373 -0.038907 -3.53284e-20 0.0600161 3.48724e-19 0.00012117)
(-0.0565656 -0.0373028 -6.1925e-20 0.0564435 -9.6778e-20 0.000122092)
(-0.0531527 -0.0357615 4.773e-19 0.0530302 1.11026e-19 0.000122427)
(-0.0498995 -0.034272 -4.65603e-19 0.0497773 2.43707e-19 0.000122137)
(-0.0468015 -0.0328504 8.17498e-20 0.0466803 -1.12118e-19 0.000121178)
(-0.0438553 -0.0314806 4.47325e-19 0.0437358 5.92487e-19 0.000119506)
(-0.0410634 -0.0301838 4.90394e-19 0.0409464 1.73138e-19 0.000117073)
(-0.0384178 -0.0289372 -1.51934e-19 0.038304 4.20846e-19 0.000113833)
(-0.0359289 -0.0277698 -5.14753e-19 0.0358192 4.76248e-19 0.000109733)
(-0.0335822 -0.0266491 -2.24196e-19 0.0334775 8.12328e-20 0.000104723)
(-0.0313997 -0.0256162 4.71522e-20 0.031301 -2.05943e-20 9.87461e-05)
(-0.0293525 -0.0246248 -3.13161e-19 0.0292608 -4.40045e-21 9.17457e-05)
(-0.0274925 -0.023733 1.32428e-19 0.0274089 -2.14889e-19 8.3661e-05)
(-0.0257383 -0.0228751 3.94064e-19 0.0256638 2.97497e-19 7.44299e-05)
(-0.0242449 -0.022142 -4.21339e-19 0.0241809 -3.51237e-19 6.39869e-05)
(-0.0227585 -0.0214173 6.6605e-19 0.0227062 3.99691e-20 5.22638e-05)
(-0.0217116 -0.0208784 -2.08354e-19 0.0216724 -1.27394e-19 3.91907e-05)
(-0.0204631 -0.0203703 9.66334e-19 0.0204384 5.29525e-19 2.46916e-05)
(-0.0199786 -0.0199005 -5.70975e-19 0.0199699 -3.24862e-19 8.68642e-06)
(-0.172687 -0.0569659 6.453e-20 0.172682 -4.25686e-19 5.27161e-06)
(-0.166534 -0.063402 -1.91974e-21 0.166519 -5.22535e-19 1.48903e-05)
(-0.159897 -0.067436 2.15692e-19 0.159873 1.99308e-19 2.38917e-05)
(-0.152981 -0.0696466 1.17019e-19 0.152948 -2.79201e-20 3.23535e-05)
(-0.146062 -0.0706216 -7.50301e-19 0.146022 -1.0453e-19 4.03367e-05)
(-0.139153 -0.0706409 -1.95042e-20 0.139105 -8.23958e-19 4.78879e-05)
(-0.132436 -0.0700157 -2.68258e-19 0.132381 -3.32446e-20 5.50434e-05)
(-0.125855 -0.0688916 -1.25771e-19 0.125794 -2.55667e-19 6.18296e-05)
(-0.119532 -0.0674375 5.46672e-19 0.119464 6.06038e-19 6.8266e-05)
(-0.113399 -0.0657319 5.63566e-19 0.113324 -3.75888e-21 7.43648e-05)
(-0.107533 -0.0638698 -5.20616e-20 0.107453 -3.62493e-20 8.01338e-05)
(-0.101874 -0.0618936 6.54853e-20 0.101788 -7.73151e-19 8.55747e-05)
(-0.0964707 -0.0598582 -2.08128e-19 0.09638 1.33942e-19 9.06859e-05)
(-0.0912716 -0.0577868 -4.21159e-20 0.0911762 -6.76345e-19 9.54608e-05)
(-0.0863107 -0.055711 1.03937e-19 0.0862108 -9.33068e-20 9.98903e-05)
(-0.0815442 -0.0536445 -2.7378e-21 0.0814403 -1.26867e-19 0.00010396)
(-0.0769959 -0.0516041 -1.33246e-19 0.0768882 1.63446e-19 0.000107655)