/*--------------------------------*- C++ -*----------------------------------*\
| =========                 |                                                 |
| \\      /  F ield         | foam-extend: Open Source CFD                    |
|  \\    /   O peration     | Version:  3.0                                   |
|   \\  /    A nd           | Web:         http://www.extend-project.de       |
|    \\/     M anipulation  |                                                 |
\*---------------------------------------------------------------------------*/
FoamFile
{
    version     2.0;
    format      ascii;
    class       volSymmTensorField;
    location    "78";
    object      sigma;
}
// * * * * * * * * * * * * * * * * * * * * * * * * * * * * * * * * * * * * * //

dimensions      [0 0 0 0 0 0 0];

internalField   nonuniform List<symmTensor> 
7680
(
(-0.176315 -0.00281845 -2.04971e-20 0.176308 -3.31542e-20 6.19802e-06)
(-0.175498 -0.00346651 6.07506e-20 0.17547 1.03489e-19 2.80928e-05)
(-0.172633 -0.00396849 -1.11333e-21 0.172572 -1.13421e-19 6.0425e-05)
(-0.168312 -0.0043595 6.17724e-22 0.168208 5.43015e-20 0.000103642)
(-0.163156 -0.0046805 1.1747e-20 0.162998 -4.99396e-20 0.000158015)
(-0.157352 -0.00494767 -8.27537e-21 0.157128 2.08652e-20 0.000223691)
(-0.15129 -0.00518468 2.5796e-20 0.150989 -8.04265e-20 0.000300451)
(-0.144985 -0.00539952 9.63598e-21 0.144597 -1.50272e-20 0.000388246)
(-0.138695 -0.00560619 8.21288e-21 0.138209 -1.02119e-19 0.000486446)
(-0.132372 -0.00580907 2.02129e-20 0.131777 1.14495e-21 0.000594636)
(-0.12619 -0.00601666 -3.83069e-20 0.125478 -1.21628e-19 0.000711938)
(-0.120082 -0.00623174 1.89214e-20 0.119245 6.18292e-20 0.000837449)
(-0.114169 -0.00645961 7.96852e-22 0.113199 -1.06644e-19 0.000970027)
(-0.108385 -0.00670233 -3.47492e-20 0.107276 7.52821e-20 0.0011085)
(-0.102812 -0.00696354 -2.56167e-20 0.101561 -2.11902e-20 0.00125106)
(-0.0973936 -0.00724467 4.62727e-21 0.0959967 1.35387e-19 0.00139687)
(-0.0921854 -0.00754858 -1.30084e-20 0.0906424 -1.13592e-19 0.00154298)
(-0.0871436 -0.00787615 -2.26659e-22 0.0854542 2.27394e-19 0.00168939)
(-0.0823027 -0.00822991 1.73461e-20 0.0804705 -1.29687e-19 0.00183221)
(-0.0776321 -0.00861055 -2.84454e-21 0.0756606 2.08324e-19 0.00197158)
(-0.0731518 -0.00902012 -3.04717e-20 0.0710476 -7.38643e-20 0.0021042)
(-0.0688421 -0.00945979 -3.19328e-20 0.0666135 1.74803e-19 0.00222856)
(-0.064713 -0.00993082 -2.98156e-20 0.0623693 -2.79978e-20 0.00234371)
(-0.0607546 -0.010435 -2.99372e-20 0.0583089 2.07578e-19 0.00244565)
(-0.0569688 -0.0109735 6.44782e-21 0.0544336 -1.99338e-20 0.0025352)
(-0.0533567 -0.0115473 -6.76841e-20 0.0507486 1.66008e-19 0.00260809)
(-0.0499109 -0.0121595 1.6957e-20 0.0472475 1.01739e-19 0.00266335)
(-0.0466456 -0.0128077 -1.44848e-20 0.0439452 1.31886e-19 0.00270038)
(-0.0435437 -0.0135 2.31422e-20 0.0408307 1.06348e-19 0.00271291)
(-0.0406314 -0.0142281 -5.17605e-20 0.0379256 4.71176e-20 0.0027058)
(-0.0378854 -0.0150079 -9.14006e-22 0.0352184 6.84387e-20 0.00266705)
(-0.035337 -0.0158245 -4.30056e-20 0.0327321 -6.02375e-21 0.00260486)
(-0.0329649 -0.0167019 2.91741e-20 0.0304614 3.86926e-20 0.00250354)
(-0.0307915 -0.0176205 -6.51378e-20 0.0284203 -4.29337e-21 0.00237113)
(-0.0288122 -0.0186091 1.7358e-20 0.0266227 1.29235e-20 0.00218954)
(-0.0270164 -0.019645 -8.16194e-20 0.0250524 4.33548e-20 0.00196393)
(-0.0254436 -0.0207552 8.88623e-21 0.0237698 -1.22539e-19 0.00167378)
(-0.0240004 -0.0219169 2.1518e-21 0.022682 8.29432e-20 0.00131839)
(-0.0228517 -0.0231022 -3.62974e-20 0.021977 -1.15155e-19 0.000874711)
(-0.0216862 -0.0244816 4.19723e-20 0.0213554 1.05177e-20 0.00033082)
(-0.176163 -0.00802817 1.99531e-20 0.176155 4.00488e-20 7.91265e-06)
(-0.17522 -0.00950156 -3.94064e-20 0.175188 8.9125e-20 3.26425e-05)
(-0.17226 -0.0105459 -3.53582e-20 0.172193 4.64877e-20 6.76121e-05)
(-0.167868 -0.011261 4.90503e-20 0.167755 -7.21992e-21 0.000113137)
(-0.162657 -0.0117609 -1.71577e-20 0.162488 4.09589e-21 0.000169658)
(-0.156812 -0.01209 5.71655e-21 0.156574 5.57249e-20 0.000237258)
(-0.150716 -0.0123132 -3.63118e-20 0.1504 7.91602e-20 0.000315822)
(-0.144385 -0.0124512 -1.0899e-20 0.14398 2.31343e-20 0.000405244)
(-0.138073 -0.012542 -7.35821e-21 0.137568 1.5179e-19 0.000504989)
(-0.131731 -0.012596 8.96008e-21 0.131116 1.16553e-19 0.000614571)
(-0.125532 -0.0126356 5.56926e-20 0.124799 -1.26877e-20 0.000733199)
(-0.119409 -0.0126669 7.23829e-21 0.118549 7.25508e-20 0.000859931)
(-0.113481 -0.0127033 2.80069e-20 0.112487 -7.74482e-20 0.00099362)
(-0.107681 -0.0127487 5.3614e-20 0.106548 6.57457e-20 0.00113317)
(-0.102093 -0.0128113 3.52123e-20 0.100816 -1.56572e-19 0.00127663)
(-0.0966582 -0.0128939 -6.33897e-20 0.0952348 -1.29928e-20 0.00142335)
(-0.0914325 -0.0130017 7.27282e-20 0.0898623 -5.69449e-21 0.00157019)
(-0.0863718 -0.013137 -1.91948e-20 0.0846546 -5.23954e-20 0.00171723)
(-0.0815105 -0.0133031 -9.60801e-21 0.0796499 8.7798e-20 0.0018606)
(-0.0768175 -0.0135022 1.44129e-20 0.0748173 -4.81453e-20 0.0020002)
(-0.0723129 -0.0137361 -6.41593e-20 0.0701798 8.22945e-21 0.00213307)
(-0.0679763 -0.0140079 4.52595e-20 0.0657191 -8.72633e-20 0.00225715)
(-0.0638182 -0.0143176 -1.42585e-20 0.0614462 3.87207e-20 0.00237195)
(-0.0598278 -0.0146693 2.50932e-20 0.0573547 -1.45237e-19 0.00247306)
(-0.0560074 -0.0150624 -1.00131e-19 0.0534461 -1.20428e-20 0.00256136)
(-0.0523575 -0.0155004 9.30473e-20 0.0497248 -9.64694e-20 0.00263274)
(-0.0488709 -0.0159845 -4.68857e-20 0.0461851 -9.34164e-21 0.00268574)
(-0.0455615 -0.0165144 6.74903e-21 0.0428412 -6.03745e-20 0.00272033)
(-0.0424124 -0.0170971 -7.19494e-20 0.0396827 -7.62221e-20 0.00272976)
(-0.0394497 -0.0177245 -3.7516e-20 0.0367307 8.05072e-21 0.00271895)
(-0.0366509 -0.0184145 -3.75808e-20 0.0339744 -4.19776e-20 0.00267652)
(-0.0340464 -0.0191479 -3.79957e-20 0.0314371 -4.00812e-21 0.00260926)
(-0.0316178 -0.019959 3.68616e-20 0.0291138 -2.66719e-20 0.00250393)
(-0.0293857 -0.0208117 1.58776e-20 0.0270204 -6.16256e-20 0.00236532)
(-0.0273503 -0.0217646 2.07369e-20 0.0251703 1.79984e-20 0.00217997)
(-0.0254986 -0.0227501 -1.29946e-19 0.0235505 -5.77958e-21 0.00194815)
(-0.0238751 -0.0238702 -2.53836e-20 0.0222192 -2.57531e-21 0.00165585)
(-0.0223776 -0.0249965 3.4531e-21 0.0210804 1.83126e-20 0.00129727)
(-0.0211748 -0.0262579 -7.99733e-20 0.0203185 -2.41779e-20 0.0008563)
(-0.0199519 -0.0276832 -2.15413e-20 0.0196318 1.57883e-20 0.000320185)
(-0.175896 -0.0132418 1.86989e-20 0.175886 -7.27273e-20 9.49068e-06)
(-0.174718 -0.0155182 7.24762e-20 0.174681 3.14654e-20 3.7081e-05)
(-0.171583 -0.0170903 -2.24225e-20 0.171508 -2.39117e-19 7.46077e-05)
(-0.167064 -0.0181187 -2.99902e-20 0.166941 1.27582e-19 0.00012241)
(-0.161759 -0.0187895 6.94092e-20 0.161577 -1.49929e-19 0.000181027)
(-0.155844 -0.0191745 4.4709e-20 0.155594 -1.83787e-20 0.000250495)
(-0.149698 -0.0193792 2.46194e-20 0.149367 -1.28545e-19 0.000330782)
(-0.14333 -0.0194369 5.64853e-20 0.142908 1.56262e-20 0.000421737)
(-0.13699 -0.019409 8.8584e-20 0.136468 -3.07701e-20 0.000522917)
(-0.130628 -0.019312 -8.96238e-20 0.129995 -1.99474e-21 0.00063378)
(-0.124415 -0.019182 -5.34326e-20 0.123661 -1.72398e-19 0.000753601)
(-0.11828 -0.0190282 -3.61099e-20 0.117399 8.17039e-20 0.00088141)
(-0.112343 -0.0188719 5.13924e-21 0.111327 -7.20406e-20 0.00101605)
(-0.106536 -0.018719 -1.00678e-19 0.10538 6.80496e-20 0.00115647)
(-0.10094 -0.018582 -9.07708e-20 0.0996394 6.44434e-20 0.00130063)
(-0.0954979 -0.0184653 1.12748e-19 0.0940499 1.13303e-19 0.00144798)
(-0.0902637 -0.0183763 -3.44279e-20 0.0886684 4.81677e-20 0.00159529)
(-0.0851931 -0.0183185 6.23824e-20 0.0834505 1.73616e-19 0.00174261)
(-0.0803205 -0.018296 5.5204e-20 0.0784343 -1.59257e-19 0.00188625)
(-0.075614 -0.0183129 -8.69502e-20 0.0735883 1.41622e-19 0.00202569)
(-0.0710939 -0.0183701 -5.35088e-20 0.0689354 -4.45006e-20 0.00215854)
(-0.0667391 -0.0184729 -2.22686e-20 0.064457 1.38261e-19 0.00228207)
(-0.0625601 -0.0186203 -6.96668e-20 0.0601638 -9.25203e-21 0.00239633)
(-0.058546 -0.0188182 -8.64108e-20 0.0560495 7.04672e-20 0.00249655)
(-0.0546982 -0.019065 4.42511e-20 0.0521147 2.00904e-19 0.0025835)
(-0.0510183 -0.0193656 -6.78609e-20 0.0483647 1.07915e-19 0.00265354)
(-0.0474967 -0.0197204 5.93635e-20 0.0447924 2.12038e-19 0.0027043)
(-0.0441503 -0.0201299 -7.28637e-20 0.0414136 4.35393e-20 0.00273668)
(-0.0409583 -0.0206012 8.73161e-20 0.0382152 1.87608e-19 0.00274318)
(-0.0379512 -0.0211256 -4.67723e-21 0.0352223 -5.50091e-21 0.00272885)
(-0.0351017 -0.0217227 -1.30634e-20 0.0324186 1.11021e-19 0.00268304)
(-0.0324457 -0.0223702 -2.33066e-20 0.0298348 7.75026e-20 0.00261086)
(-0.0299598 -0.0231071 -5.58058e-20 0.0274577 2.03444e-19 0.0025021)
(-0.02767 -0.0238908 -7.99067e-23 0.0253121 -2.75913e-19 0.00235785)
(-0.025575 -0.0247894 6.68182e-20 0.0234051 2.1938e-19 0.00216996)
(-0.0236569 -0.025726 -9.27138e-20 0.0217233 -8.87535e-20 0.00193354)
(-0.0219875 -0.0268235 2.44707e-20 0.0203462 9.38957e-21 0.00164132)
(-0.0203906 -0.0279343 -3.5469e-20 0.0191084 1.41603e-19 0.00128214)
(-0.0192058 -0.0292309 -3.63613e-20 0.0183597 -7.38266e-20 0.000846104)
(-0.017788 -0.0307165 2.32346e-20 0.0174713 2.20149e-19 0.000316667)
(-0.175514 -0.0184527 7.12043e-20 0.175502 9.58558e-20 1.11477e-05)
(-0.173992 -0.021505 -1.01829e-19 0.173951 5.33808e-20 4.15854e-05)
(-0.170604 -0.0235825 -1.25337e-20 0.170523 3.17264e-19 8.16603e-05)
(-0.165904 -0.0249074 1.41669e-19 0.165772 -2.25344e-19 0.00013171)
(-0.160465 -0.0257367 -1.19991e-19 0.160273 9.875e-20 0.000192368)
(-0.154456 -0.0261684 2.36776e-20 0.154193 7.73917e-20 0.000263639)
(-0.148242 -0.0263477 -2.23211e-20 0.147896 9.68638e-20 0.000345569)
(-0.141827 -0.0263201 6.14738e-20 0.141389 -2.69234e-20 0.000437967)
(-0.135456 -0.0261698 1.33213e-20 0.134916 -9.01006e-20 0.00054047)
(-0.129074 -0.0259191 -6.83594e-20 0.128421 -5.20353e-20 0.000652494)
(-0.122848 -0.0256175 1.01339e-19 0.122074 5.93173e-20 0.000773357)
(-0.116706 -0.0252772 7.83098e-20 0.115804 2.02925e-20 0.00090211)
(-0.110766 -0.0249273 4.11572e-20 0.109729 -1.60548e-19 0.00103753)
(-0.104958 -0.0245752 1.51456e-19 0.10378 1.31142e-19 0.0011787)
(-0.0993628 -0.0242381 7.23705e-20 0.0980393 -1.41607e-20 0.00132341)
(-0.0939214 -0.0239215 -1.1476e-19 0.0924501 3.33906e-19 0.00147128)
(-0.0886877 -0.023635 1.76013e-19 0.0870687 -2.11799e-19 0.00161896)
(-0.0836163 -0.0233836 -2.21994e-19 0.0818499 2.34599e-19 0.00176648)
(-0.0787417 -0.0231718 -1.4115e-20 0.0768314 -1.48746e-19 0.00191029)
(-0.0740306 -0.0230055 1.10378e-19 0.071981 1.47804e-19 0.00204953)
(-0.069504 -0.0228851 -5.87742e-20 0.0673217 -1.48846e-19 0.00218223)
(-0.0651393 -0.022818 7.89112e-20 0.0628341 1.75719e-20 0.00230514)
(-0.0609477 -0.0228017 -7.22701e-20 0.0585291 4.13279e-21 0.00241863)
(-0.0569172 -0.0228447 1.97063e-19 0.0543994 1.66351e-19 0.00251782)
(-0.0530492 -0.0229432 -2.93326e-20 0.050446 -1.27666e-19 0.00260318)
(-0.0493453 -0.0231051 1.09695e-19 0.0466736 8.0404e-20 0.00267164)
(-0.0457947 -0.0233282 -8.04609e-20 0.0430747 -4.76153e-21 0.00272003)
(-0.0424156 -0.0236161 -2.29729e-20 0.0396656 9.69167e-20 0.00275)
(-0.0391846 -0.023973 -9.36004e-20 0.0364311 -1.60263e-19 0.00275357)
(-0.0361352 -0.0243928 -1.20472e-19 0.0333995 1.0084e-19 0.00273564)
(-0.0332354 -0.0248943 6.98716e-20 0.0305488 -4.32215e-20 0.00268654)
(-0.0305275 -0.025453 9.56772e-20 0.0279182 4.78343e-20 0.00260933)
(-0.0279796 -0.0261161 -3.27156e-19 0.0254824 9.21549e-20 0.00249718)
(-0.0256312 -0.0268224 -1.55357e-20 0.0232846 -1.42601e-20 0.00234662)
(-0.0234663 -0.0276773 2.52966e-19 0.0213105 8.46926e-20 0.00215584)
(-0.0214915 -0.0285332 -3.64972e-19 0.0195784 4.5743e-20 0.00191313)
(-0.0197549 -0.0296424 2.33316e-19 0.018135 6.17813e-20 0.00161993)
(-0.0181217 -0.0306348 -7.21371e-20 0.0168636 8.19969e-20 0.00125808)
(-0.0168504 -0.0320094 1.99829e-20 0.0160241 -9.79106e-20 0.000826295)
(-0.0154483 -0.0334697 -1.10401e-19 0.0151423 -1.87409e-19 0.000305934)
(-0.175013 -0.0236705 3.80239e-20 0.175 -1.70863e-19 1.2741e-05)
(-0.173045 -0.0274535 2.37059e-19 0.172999 -2.66532e-19 4.59842e-05)
(-0.16933 -0.0300048 -1.22484e-19 0.169241 -3.46193e-19 8.85591e-05)
(-0.164395 -0.0316034 -1.45801e-19 0.164254 -6.3374e-20 0.0001408)
(-0.158785 -0.0325738 2.55067e-19 0.158582 -1.76326e-21 0.000203421)
(-0.152657 -0.0330396 6.85023e-20 0.152381 -1.8452e-19 0.000276409)
(-0.146358 -0.0331843 -1.94192e-20 0.145999 -1.79089e-19 0.000359881)
(-0.139888 -0.0330647 -7.90134e-20 0.139434 8.30932e-20 0.000453616)
(-0.13348 -0.0327872 7.40085e-20 0.132923 3.69404e-20 0.000557316)
(-0.127077 -0.0323795 -1.91517e-20 0.126407 1.11107e-19 0.000670376)
(-0.120841 -0.0319041 1.49333e-20 0.120049 -2.12419e-19 0.000792132)
(-0.114697 -0.031376 -2.12303e-19 0.113776 1.22862e-19 0.000921673)
(-0.10876 -0.0308315 9.19306e-20 0.107703 -1.45071e-19 0.0010577)
(-0.102959 -0.03028 -4.80451e-21 0.10176 1.90192e-19 0.00119942)
(-0.0973722 -0.0297426 1.23037e-19 0.0960277 -2.3769e-20 0.0013445)
(-0.0919402 -0.0292262 -3.82306e-20 0.0904476 1.80926e-19 0.00149263)
(-0.0867159 -0.0287424 -7.14777e-20 0.0850754 -2.79647e-19 0.00164049)
(-0.0816527 -0.0282975 1.49857e-19 0.0798648 9.72467e-20 0.00178794)
(-0.076785 -0.0278966 -7.61741e-20 0.0748532 5.0462e-20 0.00193178)
(-0.0720783 -0.0275473 -5.10637e-20 0.0700077 -4.9936e-20 0.00207063)
(-0.067554 -0.0272492 -2.09801e-19 0.065351 2.14025e-19 0.00220309)
(-0.0631883 -0.0270121 1.11972e-19 0.0608629 1.6618e-19 0.00232541)
(-0.0589924 -0.0268318 5.4759e-20 0.0565542 1.13046e-19 0.00243817)
(-0.0549539 -0.0267194 -1.53365e-19 0.0524173 -1.87462e-19 0.00253657)
(-0.0510733 -0.0266694 -6.02875e-20 0.0484528 3.03151e-19 0.0026205)
(-0.0473532 -0.0266919 9.87281e-20 0.0446655 -5.41482e-20 0.00268774)
(-0.0437803 -0.0267829 1.09247e-19 0.0410463 1.83404e-19 0.00273398)
(-0.0403755 -0.0269484 -1.94624e-19 0.0376137 4.33143e-20 0.00276181)
(-0.0371109 -0.0271907 7.14054e-20 0.0343482 3.46072e-19 0.00276267)
(-0.0340254 -0.0275059 1.11372e-19 0.0312841 1.90976e-19 0.00274131)
(-0.0310788 -0.0279107 -1.05539e-19 0.0283897 3.17451e-19 0.00268915)
(-0.0283248 -0.0283823 2.19546e-19 0.0257174 -7.38906e-20 0.00260732)
(-0.0257144 -0.0289656 -8.25883e-20 0.0232223 2.21813e-19 0.00249209)
(-0.0233119 -0.029599 -9.5185e-20 0.0209754 1.11789e-19 0.0023365)
(-0.0210667 -0.0303901 1.82317e-19 0.0189234 3.18422e-19 0.00214337)
(-0.0190311 -0.0311774 -8.12586e-20 0.0171343 -5.94813e-20 0.00189679)
(-0.0172111 -0.0322488 5.26936e-20 0.0156077 2.6087e-20 0.00160341)
(-0.0154889 -0.0331843 -1.75853e-19 0.0142474 1.04038e-19 0.00124149)
(-0.014209 -0.0345526 -3.80559e-19 0.0133949 -6.00513e-20 0.000814104)
(-0.0127051 -0.0360755 1.69125e-19 0.0124041 1.88979e-19 0.000300928)
(-0.174394 -0.0288888 2.26439e-20 0.17438 1.049e-19 1.43766e-05)
(-0.17188 -0.0333528 -2.19946e-19 0.17183 3.54054e-19 5.03968e-05)
(-0.167765 -0.0363388 1.716e-19 0.167669 -2.15951e-20 9.5426e-05)
(-0.162545 -0.0381824 2.20681e-19 0.162396 3.93126e-19 0.000149807)
(-0.15673 -0.0392727 -1.91336e-19 0.156516 1.76265e-20 0.000214324)
(-0.150459 -0.0397571 -4.45517e-20 0.15017 -6.54865e-20 0.000288954)
(-0.144061 -0.0398559 1.386e-19 0.143687 1.34756e-19 0.000373876)
(-0.137526 -0.0396362 2.15909e-19 0.137057 -8.61321e-20 0.000468853)
(-0.131079 -0.0392259 4.19095e-20 0.130505 -9.33336e-20 0.000573627)
(-0.124655 -0.0386575 -2.57915e-19 0.123967 1.47664e-19 0.000687608)
(-0.118411 -0.0380059 8.99562e-20 0.117601 2.34691e-19 0.000810113)
(-0.11227 -0.0372883 1.09815e-19 0.111329 1.25118e-19 0.000940317)
(-0.106342 -0.0365487 4.06269e-20 0.105265 1.32187e-20 0.00107681)
(-0.100555 -0.0357974 3.00929e-19 0.0993357 -1.84738e-19 0.00121896)
(-0.0949846 -0.0350599 7.75106e-20 0.0936203 2.87895e-20 0.00136428)
(-0.0895705 -0.0343439 -2.33276e-19 0.0880579 -6.52609e-20 0.00151257)
(-0.0843646 -0.0336631 1.41411e-20 0.0827041 1.7596e-19 0.00166052)
(-0.0793186 -0.0330252 4.88226e-20 0.0775108 2.20742e-19 0.00180782)
(-0.0744672 -0.0324355 -1.11244e-19 0.0725156 3.27787e-20 0.00195158)
(-0.0697739 -0.0319032 2.45176e-19 0.0676839 2.55401e-19 0.00208999)
(-0.0652609 -0.0314276 1.04206e-19 0.0630388 1.94026e-19 0.00222206)
(-0.0609026 -0.0310201 -4.87254e-20 0.0585589 2.13429e-19 0.00234371)
(-0.0567109 -0.0306754 -3.16235e-19 0.0542553 -1.99664e-19 0.00245556)
(-0.0526723 -0.0304069 3.51175e-19 0.0501192 2.61247e-19 0.00255313)
(-0.0487871 -0.0302068 8.66308e-20 0.0461515 6.19827e-20 0.00263554)
(-0.0450579 -0.0300889 -6.76937e-20 0.0423562 3.03194e-19 0.00270163)
(-0.0414698 -0.0300451 1.06536e-19 0.0387239 -1.36879e-19 0.0027459)
(-0.0380456 -0.0300868 1.58697e-19 0.0352737 1.31894e-19 0.00277191)
(-0.0347536 -0.0302104 5.20049e-20 0.031983 -1.12153e-19 0.00277053)
(-0.0316373 -0.0304192 -5.74269e-20 0.028891 -9.83786e-20 0.0027463)
(-0.0286484 -0.030722 -9.85101e-20 0.0259567 -5.67936e-19 0.00269171)
(-0.0258518 -0.0311049 -3.79331e-20 0.023246 2.43433e-20 0.00260579)
(-0.02318 -0.0316052 1.7952e-20 0.020692 -3.33689e-19 0.00248802)
(-0.0207254 -0.0321643 7.02687e-20 0.0183979 6.91056e-20 0.00232754)
(-0.0183916 -0.0329003 1.89107e-19 0.0162594 -3.18743e-19 0.00213217)
(-0.0163089 -0.0336035 -6.55467e-19 0.0144275 -1.38482e-19 0.00188142)
(-0.0143526 -0.0346854 4.69095e-19 0.0127653 -1.86875e-19 0.0015873)
(-0.0126372 -0.0354345 -8.84844e-20 0.0114125 -5.08033e-20 0.00122471)
(-0.0111812 -0.0368683 1.15167e-19 0.0103804 -4.8071e-19 0.000800842)
(-0.0096977 -0.038185 -3.24449e-19 0.00940317 6.84603e-20 0.000294535)
(-0.173652 -0.0341158 1.98741e-19 0.173636 -1.43142e-19 1.59483e-05)
(-0.170499 -0.0391947 1.45566e-19 0.170445 1.09207e-20 5.46962e-05)
(-0.165917 -0.0425678 -1.93743e-19 0.165815 -4.79777e-20 0.000102121)
(-0.160366 -0.0446221 7.14186e-22 0.160208 -3.46213e-19 0.000158578)
(-0.154312 -0.0458066 -2.25184e-22 0.154087 1.05857e-19 0.000224911)
(-0.147877 -0.0462913 -1.2639e-20 0.147576 4.14414e-19 0.000301097)
(-0.141365 -0.0463305 -7.30829e-20 0.140978 -1.43904e-21 0.000387363)
(-0.134759 -0.0460014 -2.38636e-19 0.134275 1.28506e-19 0.000483471)
(-0.128268 -0.0454516 2.98818e-19 0.127679 -2.64936e-20 0.000589187)
(-0.121824 -0.0447181 2.17896e-19 0.12112 8.36164e-20 0.000703956)
(-0.115575 -0.0438875 -4.69696e-20 0.114748 -1.85582e-20 0.000827053)
(-0.109441 -0.0429792 -3.70577e-19 0.108484 1.44e-19 0.000957753)
(-0.103529 -0.0420438 -1.73526e-19 0.102434 -1.33138e-20 0.00109454)
(-0.0977628 -0.041093 -5.68879e-20 0.0965259 2.88082e-19 0.0012369)
(-0.0922174 -0.0401559 3.43008e-19 0.0908351 -1.7267e-19 0.0013823)
(-0.0868297 -0.0392413 1.0447e-19 0.0852991 -3.51571e-20 0.00153053)
(-0.0816508 -0.0383647 1.04741e-19 0.0799724 1.17245e-20 0.00167842)
(-0.0766308 -0.0375347 8.72031e-20 0.0748054 -4.61234e-20 0.0018254)
(-0.0718044 -0.0367573 -3.55824e-20 0.0698354 -1.18991e-19 0.00196902)
(-0.0671333 -0.0360431 1.20477e-19 0.0650263 -2.39213e-19 0.00210696)
(-0.0626403 -0.0353906 -1.38538e-19 0.0604016 7.23976e-21 0.00223869)
(-0.0582979 -0.0348134 -5.00011e-20 0.0559381 -3.45185e-19 0.00235988)
(-0.0541187 -0.0343047 -2.4662e-20 0.0516477 2.04171e-19 0.002471)
(-0.050088 -0.0338802 4.80303e-20 0.0475199 -1.46086e-19 0.00256809)
(-0.0462056 -0.0335301 1.37883e-19 0.0435564 -1.06081e-19 0.00264928)
(-0.0424745 -0.0332712 -3.91879e-20 0.03976 -7.36112e-20 0.00271456)
(-0.0388781 -0.0330923 -9.91804e-20 0.0361209 1.31679e-21 0.0027572)
(-0.0354403 -0.0330094 -4.57591e-20 0.0326586 -3.1643e-19 0.00278162)
(-0.0321266 -0.033013 -1.95612e-19 0.0293483 6.35083e-19 0.00277836)
(-0.0289838 -0.0331149 -2.68305e-19 0.0262323 -5.22999e-20 0.00275152)
(-0.0259574 -0.0333129 -9.17466e-20 0.0232626 3.7016e-19 0.00269488)
(-0.0231216 -0.0336078 4.15524e-19 0.0205161 1.31717e-19 0.00260551)
(-0.0203923 -0.0340163 -1.88684e-20 0.0179068 -1.65398e-19 0.00248547)
(-0.0178904 -0.0345071 -1.26261e-19 0.0155691 2.29278e-19 0.00232132)
(-0.0154694 -0.0351587 1.37822e-19 0.0133458 -1.41207e-19 0.00212357)
(-0.0133528 -0.0358157 -1.66588e-20 0.0114829 -3.26876e-20 0.00186997)
(-0.0112368 -0.0368051 -2.66493e-22 0.00966255 2.72649e-20 0.00157423)
(-0.00955249 -0.0375685 -4.51714e-19 0.00834109 -6.77057e-20 0.00121141)
(-0.00779037 -0.0388537 -2.79694e-19 0.00700096 -1.57217e-19 0.000789407)
(-0.00629089 -0.0402715 3.36682e-19 0.00600196 6.33688e-19 0.000288927)
(-0.172786 -0.0393454 8.79914e-20 0.172768 1.80917e-19 1.75421e-05)
(-0.168907 -0.0449688 -3.16258e-20 0.168848 -3.03983e-20 5.89761e-05)
(-0.163796 -0.0486752 -1.98019e-20 0.163687 1.43e-19 0.000108741)
(-0.157871 -0.0509006 1.5497e-19 0.157704 7.66428e-19 0.000167213)
(-0.151547 -0.0521501 2.51424e-19 0.151312 9.74721e-20 0.000235287)
(-0.144929 -0.0526139 2.09743e-20 0.144616 -4.02175e-19 0.000312947)
(-0.138291 -0.0525783 1.94929e-20 0.13789 -4.6351e-20 0.000400455)
(-0.131606 -0.052129 1.78626e-19 0.131109 -1.3145e-19 0.000497594)
(-0.12507 -0.0514324 -7.76771e-20 0.124465 -1.64022e-20 0.000604127)
(-0.118606 -0.050529 -1.34719e-19 0.117886 -1.26133e-19 0.000719564)
(-0.112356 -0.0495166 2.91091e-19 0.111513 -1.00206e-19 0.000843116)
(-0.106234 -0.048416 2.30923e-19 0.10526 -2.14311e-19 0.000974181)
(-0.100344 -0.0472846 7.48398e-20 0.0992329 1.11964e-19 0.00111113)
(-0.0946063 -0.0461345 8.06423e-20 0.0933527 7.54269e-21 0.00125358)
(-0.0890937 -0.0449988 -1.35252e-19 0.0876948 -3.73353e-19 0.00139894)
(-0.0837406 -0.0438867 -1.08111e-19 0.0821936 1.28303e-19 0.00154698)
(-0.0785977 -0.0428156 1.27044e-19 0.076903 -3.28694e-19 0.0016947)
(-0.0736125 -0.041795 -2.98569e-20 0.0717712 1.03677e-19 0.00184125)
(-0.0688201 -0.0408312 -1.76938e-19 0.0668356 -4.99049e-19 0.00198456)
(-0.0641799 -0.0399362 3.61957e-19 0.062058 1.25631e-19 0.00212193)
(-0.0597156 -0.0391079 1.12534e-19 0.0574625 -1.22938e-19 0.0022531)
(-0.0553976 -0.0383616 8.41366e-20 0.0530239 1.05357e-19 0.00237374)
(-0.0512392 -0.0376891 -1.89983e-19 0.0487553 1.30965e-19 0.00248394)
(-0.0472244 -0.0371087 5.08544e-20 0.0446439 1.0488e-19 0.00258053)
(-0.0433531 -0.0366077 1.31867e-19 0.0406926 1.16655e-19 0.00266049)
(-0.0396275 -0.0362072 2.19344e-19 0.0369024 -2.86498e-19 0.0027251)
(-0.0360305 -0.0358909 -2.55064e-19 0.0332642 2.20628e-19 0.00276637)
(-0.0325862 -0.0356821 9.34094e-19 0.0297967 -5.36039e-19 0.00278952)
(-0.0292587 -0.035562 3.07794e-19 0.0264738 4.61297e-19 0.00278487)
(-0.0260958 -0.0355552 -2.20163e-19 0.02334 -5.56078e-19 0.00275581)
(-0.0230391 -0.0356431 -2.40175e-19 0.0203415 4.53572e-19 0.00269762)
(-0.0201684 -0.0358478 -5.88438e-19 0.0175631 -4.82246e-20 0.00260528)
(-0.0173872 -0.0361585 1.16011e-19 0.0149038 1.58552e-19 0.00248335)
(-0.014835 -0.0365792 6.07906e-20 0.0125186 2.80336e-19 0.00231641)
(-0.0123288 -0.0371396 -2.42143e-19 0.0102122 1.16757e-19 0.00211668)
(-0.0101526 -0.0377485 -4.75166e-19 0.00829078 2.2564e-20 0.00186183)
(-0.00788765 -0.0386457 4.68835e-19 0.00632258 2.6245e-19 0.00156507)
(-0.00616389 -0.0393763 -3.04112e-19 0.00496029 2.64152e-19 0.00120359)
(-0.00419221 -0.0406002 7.53802e-19 0.00340876 -1.82474e-19 0.000783449)
(-0.0025788 -0.0419978 -6.16943e-19 0.0022919 7.45623e-20 0.000286902)
(-0.171789 -0.044584 1.16059e-19 0.17177 -1.46936e-19 1.90718e-05)
(-0.167107 -0.0506674 1.53813e-19 0.167044 -1.22204e-19 6.31352e-05)
(-0.16141 -0.0546455 2.25149e-19 0.161295 -1.13161e-19 0.000115178)
(-0.155072 -0.0569977 1.21171e-19 0.154897 -7.64946e-19 0.000175596)
(-0.148453 -0.0582791 -4.99013e-19 0.148207 -5.30233e-19 0.000245325)
(-0.141633 -0.0586984 -3.73345e-20 0.141308 1.24138e-19 0.000324365)
(-0.134859 -0.0585707 1.53937e-20 0.134446 2.17366e-19 0.000413003)
(-0.12809 -0.0579893 -1.73378e-19 0.127579 -1.06467e-20 0.000511054)
(-0.121506 -0.0571376 2.64073e-19 0.120888 3.20501e-19 0.000618266)
(-0.115025 -0.0560592 2.57508e-19 0.114291 -4.95106e-19 0.000734224)
(-0.108777 -0.054862 -2.90884e-19 0.107919 2.976e-19 0.000858068)
(-0.102673 -0.0535678 -7.16543e-20 0.101684 -3.30686e-19 0.000989315)
(-0.0968109 -0.05224 1.23393e-20 0.0956847 6.75327e-20 0.00112625)
(-0.0911088 -0.0508915 -2.87892e-19 0.0898402 -1.39146e-19 0.00126858)
(-0.0856367 -0.0495584 3.36047e-19 0.084223 2.44642e-19 0.00141373)
(-0.0803263 -0.0482506 1.68573e-19 0.0787649 -2.64614e-19 0.00156139)
(-0.0752276 -0.0469869 -9.44247e-20 0.0735188 4.46586e-19 0.00170884)
(-0.0702855 -0.0457776 8.73978e-20 0.0684307 -2.99443e-19 0.00185485)
(-0.0655357 -0.0446295 -2.70562e-19 0.0635378 2.66747e-19 0.00199785)
(-0.0609347 -0.0435554 3.34887e-19 0.0587999 -5.35267e-20 0.00213473)
(-0.0565073 -0.042553 -7.64779e-20 0.0542419 -1.87206e-19 0.00226545)
(-0.0522218 -0.0416388 1.8759e-19 0.049836 -8.85228e-20 0.00238579)
(-0.048092 -0.0408035 9.05205e-20 0.0455967 -1.52916e-19 0.0024953)
(-0.0441004 -0.0400676 -4.74615e-20 0.0415087 -3.26277e-20 0.00259172)
(-0.0402473 -0.0394159 -3.66732e-19 0.0375766 1.71024e-19 0.00267079)
(-0.0365335 -0.0388732 2.36224e-19 0.0337985 -5.10627e-19 0.00273501)
(-0.0329427 -0.0384185 -5.76624e-19 0.0301673 1.22425e-19 0.00277539)
(-0.0294964 -0.038082 -1.37093e-19 0.0266989 2.00625e-19 0.00279757)
(-0.0261611 -0.0378358 2.50694e-19 0.0233689 2.72533e-20 0.00279215)
(-0.0229803 -0.0377169 -1.27583e-19 0.0202188 -2.50147e-19 0.00276144)
(-0.0198987 -0.0376898 6.48148e-19 0.0171963 1.77621e-19 0.00270238)
(-0.0169918 -0.0378007 1.54349e-19 0.0143839 -2.47342e-19 0.00260791)
(-0.0141641 -0.0380045 -1.05693e-20 0.0116797 5.93895e-19 0.0024845)
(-0.0115554 -0.0383548 2.55502e-19 0.00923997 -7.2316e-19 0.00231538)
(-0.0089739 -0.0388092 -1.46989e-19 0.0068606 5.47278e-19 0.00211329)
(-0.00672345 -0.0393902 4.93829e-20 0.00486664 -1.77419e-19 0.00185681)
(-0.00433105 -0.040161 2.00927e-19 0.00277351 4.90166e-19 0.00155754)
(-0.00254846 -0.0409607 -8.4585e-19 0.00135257 -3.18539e-19 0.0011959)
(-0.000337121 -0.0420203 -4.40768e-19 -0.000438448 1.28319e-19 0.000775569)
(0.00125967 -0.0435791 5.75377e-19 -0.00154223 4.08938e-19 0.000282564)
(-0.17066 -0.0498256 -1.00661e-19 0.17064 7.03109e-19 2.06113e-05)
(-0.165104 -0.0562808 -1.52432e-19 0.165037 3.45587e-19 6.72539e-05)
(-0.158772 -0.0604639 -3.64278e-19 0.158651 1.29811e-19 0.000121513)
(-0.151987 -0.0628943 2.01905e-20 0.151804 5.68672e-19 0.000183805)
(-0.145048 -0.0641715 5.86643e-19 0.144793 7.06208e-19 0.000255107)
(-0.138013 -0.0645204 2.13493e-19 0.137677 2.98505e-19 0.000335437)
(-0.131093 -0.064282 -2.09839e-20 0.130668 -7.40082e-20 0.000425099)
(-0.124237 -0.0635556 2.56448e-19 0.123714 -2.65979e-19 0.000523952)
(-0.117605 -0.0625401 -4.06096e-19 0.116974 -2.59766e-19 0.000631719)
(-0.111108 -0.0612812 -1.92354e-19 0.11036 2.54586e-19 0.000748069)
(-0.104866 -0.059896 3.27699e-19 0.103994 5.0879e-19 0.000872077)
(-0.0987855 -0.0584069 -2.07991e-19 0.0977821 4.76845e-19 0.00100336)
(-0.092958 -0.0568829 2.05843e-19 0.0918178 3.08407e-19 0.00114017)
(-0.0872987 -0.0553368 4.29856e-20 0.0860165 3.53968e-19 0.00128223)
(-0.081875 -0.0538081 -4.36819e-19 0.0804479 5.65447e-20 0.00142705)
(-0.0766154 -0.0523065 1.55931e-19 0.0750412 2.88183e-21 0.00157418)
(-0.0715693 -0.0508526 7.70736e-20 0.0698482 -3.08003e-20 0.00172118)
(-0.0666787 -0.0494571 -1.05069e-19 0.0648122 -1.86044e-19 0.00186651)
(-0.0619798 -0.048127 -5.19725e-20 0.0599708 -2.72616e-19 0.00200894)
(-0.0574263 -0.0468761 -2.08502e-19 0.0552811 4.58886e-19 0.00214518)
(-0.0530441 -0.0457015 8.35393e-20 0.0507689 -2.96066e-20 0.00227515)
(-0.0487989 -0.0446211 -4.29548e-20 0.0464038 4.11112e-19 0.00239506)
(-0.0447057 -0.0436243 -1.78289e-20 0.042202 -1.30706e-19 0.00250365)
(-0.0407448 -0.0427337 4.81802e-19 0.038145 1.54193e-19 0.00259979)
(-0.0369176 -0.0419316 -4.19821e-19 0.0342397 2.12672e-19 0.0026779)
(-0.0332225 -0.0412467 1.12435e-19 0.0304808 -8.76309e-20 0.00274164)
(-0.0296452 -0.0406529 4.51857e-19 0.0268639 5.54564e-19 0.00278123)
(-0.0262031 -0.0401879 5.10862e-19 0.0234007 1.78951e-19 0.00280231)
(-0.0228665 -0.0398139 -1.45866e-19 0.0200703 3.79914e-19 0.0027962)
(-0.0196727 -0.0395818 -4.79839e-19 0.0169089 4.70951e-19 0.00276374)
(-0.016572 -0.0394382 -2.10902e-19 0.0138682 3.97829e-20 0.00270377)
(-0.0136314 -0.0394535 3.37611e-20 0.0110238 -7.1724e-21 0.00260752)
(-0.0107622 -0.0395509 -2.69323e-19 0.00827952 -4.5637e-20 0.00248269)
(-0.00809339 -0.0398287 8.23218e-20 0.00578055 -1.90822e-19 0.00231284)
(-0.00544264 -0.0401819 4.62604e-19 0.00333361 2.51284e-19 0.00210903)
(-0.0030987 -0.0407286 -5.03058e-19 0.00124519 -3.28695e-19 0.00185351)
(-0.000601722 -0.0413863 7.89517e-19 -0.00095137 2.31327e-20 0.00155309)
(0.00129882 -0.0422247 -3.48052e-19 -0.00249254 -1.2972e-19 0.00119372)
(0.0036636 -0.0431763 1.12344e-18 -0.00443748 5.1488e-19 0.000773884)
(0.00538438 -0.0447772 -7.27333e-19 -0.00566704 -3.37335e-19 0.000282652)
(-0.169393 -0.0550745 5.88896e-20 0.169371 -4.72806e-19 2.20928e-05)
(-0.162904 -0.0618019 1.5031e-20 0.162832 -5.62624e-19 7.12518e-05)
(-0.155894 -0.0661171 2.05787e-19 0.155766 1.51808e-19 0.000127658)
(-0.148633 -0.0685728 1.12946e-19 0.148441 -8.82893e-20 0.000191747)
(-0.141355 -0.0698069 -7.84253e-19 0.14109 -1.57496e-19 0.000264531)
(-0.134091 -0.0700575 -3.3544e-20 0.133745 -8.82409e-19 0.000346048)
(-0.12702 -0.0696882 -2.83666e-19 0.126583 -6.98986e-20 0.000436618)
(-0.120074 -0.0688029 -1.32465e-19 0.119538 -3.11305e-19 0.000536142)
(-0.113395 -0.0676143 5.71984e-19 0.11275 5.75349e-19 0.000644317)
(-0.106884 -0.066169 5.60586e-19 0.106123 -5.94676e-20 0.000760895)
(-0.100652 -0.0645926 -6.92695e-21 0.0997675 -5.59823e-20 0.000884896)
(-0.0946006 -0.0629074 5.87874e-20 0.0935846 -8.44785e-19 0.00101602)
(-0.0888143 -0.0611874 -1.66608e-19 0.0876618 1.13262e-19 0.00115251)
(-0.0832049 -0.059445 -7.17933e-20 0.0819108 -7.73565e-19 0.00129408)
(-0.0778369 -0.0577226 1.31933e-19 0.0763985 -9.1326e-20 0.00143842)
(-0.0726358 -0.0560298 -3.32929e-20 0.071051 -2.34888e-19 0.00158483)
(-0.0676503 -0.0543885 -1.29973e-19 0.065919 1.78784e-19 0.00173129)
(-0.0628189 -0.0528094 -1.05997e-19 0.0609431 -2.54449e-19 0.00187587)
(-0.0581788 -0.0513003 2.22145e-19 0.0561611 3.82712e-19 0.00201773)
(-0.0536805 -0.0498749 6.28239e-19 0.0515271 -1.92866e-19 0.00215342)
(-0.0493511 -0.0485308 -2.62691e-19 0.0470684 1.40729e-19 0.00228275)