/*--------------------------------*- C++ -*----------------------------------*\
| =========                 |                                                 |
| \\      /  F ield         | foam-extend: Open Source CFD                    |
|  \\    /   O peration     | Version:  3.0                                   |
|   \\  /    A nd           | Web:         http://www.extend-project.de       |
|    \\/     M anipulation  |                                                 |
\*---------------------------------------------------------------------------*/
FoamFile
{
    version     2.0;
    format      ascii;
    class       volSymmTensorField;
    location    "9";
    object      sigma;
}
// * * * * * * * * * * * * * * * * * * * * * * * * * * * * * * * * * * * * * //

dimensions      [0 0 0 0 0 0 0];

internalField   nonuniform List<symmTensor> 
3012
(
(-0.103117 -0.0506886 0.00215559 0.141844 -0.00641189 6.29842e-18)
(-0.0890559 -0.061428 -0.073353 0.0818797 -0.0725596 6.9478e-17)
(-0.0865946 -0.102694 -0.00257996 0.0457578 -0.0187224 -2.44432e-19)
(-0.105843 -0.0951973 -0.0782808 0.115235 -0.076645 -2.5957e-18)
(-0.0976397 -0.16795 -0.190911 0.0961523 -0.272949 3.51742e-18)
(-0.195921 0.0213634 -0.00105064 0.212597 -0.0115912 3.81359e-18)
(-0.139601 0.110043 -0.199531 0.141737 -0.282997 4.48694e-16)
(-0.0378326 -0.102244 -0.00744764 0.0205449 -0.0194555 4.92473e-18)
(-0.0625473 -0.0423233 -0.0185065 0.0905448 -0.00513016 2.80354e-17)
(-0.0791936 -0.0529831 -0.0321283 0.0499575 -0.0189231 2.16452e-17)
(-0.0934376 -0.104577 -0.0293669 0.123393 -0.0165311 4.7281e-20)
(-0.0983942 -0.10857 -0.0337264 0.0696335 -0.0318817 -4.36547e-18)
(-0.0526642 -0.0546294 -0.0341188 0.0509792 -0.0395081 9.95126e-18)
(-0.0336746 -0.0294522 -0.0101521 0.0665597 -0.0164837 -1.24315e-18)
(-0.064262 -0.0322958 -0.0129323 0.0299136 -0.0228688 -1.83631e-18)
(-0.043476 -0.00224812 -0.0531121 0.046618 -0.0577831 -6.13082e-18)
(-0.0629542 -0.147121 -0.169048 0.059981 -0.234314 2.20893e-18)
(-0.195951 0.030021 -0.000820486 0.212982 -0.00765143 3.47073e-18)
(-0.137719 0.115446 -0.177409 0.141121 -0.243032 3.66336e-16)
(0.00154763 -0.0762101 -0.00694782 -0.0190274 -0.0148422 6.14216e-18)
(0.0740747 -0.340832 -0.0838842 -0.0816916 -0.0531598 -4.22245e-17)
(0.138634 -0.463569 -0.0325286 -0.122209 -0.0371587 4.70678e-18)
(-0.0442877 -0.0154574 -0.0335719 0.0277698 -0.0384415 -4.6735e-17)
(0.0304819 -0.147771 0.00629537 -0.0228148 0.0190269 -2.18527e-17)
(-0.0887369 -0.10787 0.00778388 0.0499844 -0.0148532 1.49965e-18)
(-0.0961983 -0.0465764 -0.0858838 0.095051 -0.100698 1.03652e-16)
(-0.13098 -0.116098 -0.0912092 0.134116 -0.105857 -2.64453e-18)
(-0.137874 -0.0549148 0.0114142 0.17472 -0.00574829 5.24626e-18)
(-0.00747704 -0.0438126 -0.016151 0.037889 -0.0139243 -8.40892e-19)
(-0.0646674 -0.0824994 -0.0308129 0.0320685 -0.036747 -2.2147e-18)
(-0.0149874 -0.054487 -0.0369292 0.0337972 -0.0221025 -2.85681e-18)
(-0.0608695 -0.0693051 -0.0352963 0.0443043 -0.0223197 9.67015e-18)
(-0.0147088 -0.0417605 -0.0357306 0.0306381 -0.0221222 -2.7452e-18)
(-0.0652891 -0.077109 -0.0259849 0.0335005 -0.0324366 -1.72577e-18)
(-0.0110934 -0.0397416 -0.0142082 0.0405983 -0.0135022 -8.96014e-19)
(-0.0635277 -0.0722067 -0.0329474 0.04995 -0.021547 9.89737e-18)
(-0.0998721 -0.0409238 -0.0972714 0.0981391 -0.110824 1.18869e-16)
(-0.0890807 -0.117132 0.0118513 0.0522948 -0.0118907 1.71342e-18)
(-0.149688 -0.0548401 0.0156364 0.184631 -0.00270919 5.94266e-18)
(-0.139849 -0.131557 -0.100426 0.14346 -0.113749 -2.03577e-18)
(-0.0404161 -0.0410346 -0.0273635 0.0394792 -0.0304274 -2.4956e-18)
(-0.0522995 -0.011742 -0.012703 0.0276228 -0.0194243 -1.81363e-18)
(-0.0315149 0.0243769 -0.0485968 0.0332772 -0.0489928 -6.08987e-18)
(-0.0209099 -0.0115868 -0.0109456 0.0447567 -0.0155545 -2.57825e-18)
(-0.0223126 -0.0368217 -0.0383001 0.0364137 -0.0257895 -2.68236e-18)
(-0.0652039 -0.0722023 -0.0338161 0.0534573 -0.0239021 1.32383e-17)
(-0.017483 -0.0388957 -0.0126445 0.0484877 -0.0130457 1.59606e-19)
(-0.0685043 -0.0727629 -0.0218494 0.035207 -0.0289319 -1.46783e-18)
(-0.0525239 -0.0560711 -0.0171957 0.0460746 -0.0111512 3.33907e-18)
(-0.0517853 -0.0504148 -0.0181968 0.032919 -0.0218186 -8.21305e-19)
(-0.00522404 -0.0240237 -0.0108425 0.0224508 -0.0110882 -1.31993e-18)
(-0.00314265 -0.0156362 -0.0199926 0.0112839 -0.0120603 -1.70013e-18)
(-0.0958348 -0.0500332 0.000193895 0.135292 -0.00841122 5.48251e-18)
(-0.0867151 -0.0622455 -0.0684698 0.0799311 -0.0685914 6.30503e-17)
(-0.0985153 -0.0873557 -0.0744779 0.107568 -0.0735953 -2.93492e-18)
(-0.0852889 -0.0972778 -0.00444224 0.0436744 -0.020524 -3.75576e-19)
(-0.156688 0.0480487 -0.0647071 0.166524 -0.0775025 1.05603e-16)
(-0.256909 -0.0151966 0.00892733 0.275683 0.00417602 3.87418e-18)
(-0.0906054 -0.113592 -0.0630951 0.0805371 -0.0768953 -2.3587e-18)
(-0.0274334 -0.0493849 0.00414129 0.00879485 -3.70616e-05 1.53085e-17)
(-0.150051 0.0734836 -0.10295 0.157656 -0.130318 1.45546e-16)
(-0.243555 0.0147255 0.00836984 0.261485 0.00527112 3.4481e-18)
(-0.0869216 -0.10706 -0.0983133 0.0792298 -0.12545 -1.43649e-18)
(-0.016643 -0.0452957 0.00342243 -0.00129481 0.000267633 1.16858e-17)
(-0.0526747 -0.0515163 -0.0362338 0.0530003 -0.0469688 1.10326e-17)
(-0.040605 -0.0336122 -0.0102637 0.0754543 -0.0176425 -1.62593e-18)
(-0.0683149 -0.0298241 -0.0126832 0.0318684 -0.0235267 -2.25564e-18)
(-0.0537682 -0.00757165 -0.0586708 0.0550367 -0.0715392 -7.43859e-18)
(-0.0705814 0.0266675 -0.0185842 0.0432365 -0.0229363 -6.08408e-18)
(-0.0554913 0.0442308 -0.0916505 0.0519209 -0.129191 -1.47992e-17)
(-0.0291607 -0.018733 -0.039903 0.0346104 -0.0619044 -2.11739e-17)
(-0.016785 -0.00874902 -0.0180415 0.0422343 -0.0206944 -6.5969e-18)
(-0.0635064 -0.0532343 -0.0536374 0.0422279 -0.0574275 -3.24028e-18)
(-0.0535338 -0.0407096 -0.0275974 0.0366612 -0.020786 -9.92034e-18)
(0.00430906 -0.0406921 -0.0265939 0.0135374 -0.0189179 -4.74012e-18)
(0.0157741 -0.030118 -0.0249077 0.00449734 -0.0240398 -1.2614e-17)
(0.0260348 -0.0247855 -0.0179601 -0.0101653 -0.0162011 -1.33567e-17)
(-0.044329 -0.0528137 -0.0378343 0.026766 -0.0387697 -2.0128e-18)
(-0.054837 -0.0557943 -0.0263548 0.044573 -0.0180793 -1.25847e-17)
(0.0395214 -0.0175973 -0.0256281 -0.0275998 -0.0163765 -5.15524e-18)
(-0.0599669 -0.0583562 -0.0406463 0.0609395 -0.0533902 2.24853e-17)
(-0.0563155 -0.0461444 -0.00832846 0.0946378 -0.0173102 -4.58821e-19)
(-0.0676683 -0.0306881 -0.0612301 0.0685975 -0.07615 -6.99162e-18)
(-0.0740726 -0.0460048 -0.0110651 0.0339166 -0.0240128 -1.92735e-18)
(-0.0534367 0.0619874 -0.0165328 0.0334259 -0.0212443 -3.53911e-18)
(-0.0477212 0.111977 -0.0820582 0.0468124 -0.108372 -1.42134e-17)
(-0.0314651 0.0107464 -0.0388771 0.0329057 -0.0539154 -3.17993e-17)
(-0.0267399 0.0495527 -0.0160755 0.0462625 -0.0194322 -8.73562e-18)
(-0.00120493 -0.0258642 -0.0250951 0.0133985 -0.0143406 -2.62138e-18)
(-0.0569846 -0.060102 -0.0253495 0.034007 -0.0304072 -1.36216e-18)
(-0.00332347 -0.0302757 -0.0134322 0.0242806 -0.0133375 -3.61643e-18)
(-0.0579318 -0.0615749 -0.0234912 0.04784 -0.0145296 1.40877e-18)
(-0.0816892 -0.0544365 -0.0288948 0.0516762 -0.0175253 2.05434e-17)
(-0.0672523 -0.0407505 -0.019177 0.0938736 -0.00695303 3.25296e-17)
(-0.101782 -0.101803 -0.0259395 0.13239 -0.0149468 3.33927e-19)
(-0.104123 -0.10793 -0.0344698 0.0768451 -0.0330609 -4.49552e-18)
(-0.171055 -0.0466214 0.00417153 0.20283 -0.00508257 2.8293e-18)
(-0.12868 -0.0965695 -0.0626226 0.117522 -0.0939083 -3.32788e-18)
(-0.100591 -0.000655768 -0.0540279 0.112189 -0.0836008 1.12259e-16)
(-0.0673254 -0.0529397 0.000305569 0.0350129 -0.00985609 9.54292e-18)
(-0.0685642 0.0426153 -0.0195921 0.0441242 -0.0225352 -6.1005e-18)
(-0.0538217 0.067073 -0.101561 0.050676 -0.141391 -1.58755e-17)
(-0.0275767 -0.00486463 -0.0436739 0.0325404 -0.066116 -2.84419e-17)
(-0.0147808 0.0108365 -0.0193334 0.0373777 -0.0207227 -7.92519e-18)
(-0.0573441 -0.045348 -0.0540678 0.038407 -0.0558813 -3.01498e-18)
(0.0141776 -0.0307367 -0.0249775 0.00175289 -0.0192215 -5.23432e-18)
(-0.0508504 -0.0370893 -0.0261403 0.0357877 -0.0211912 -1.29313e-17)
(0.0209003 -0.0246247 -0.0250972 -0.00282547 -0.023935 -1.48039e-17)
(-0.0510165 -0.00993329 -0.0564731 0.0368373 -0.0472243 -7.61433e-17)
(0.0675203 -0.0303873 0.00101672 -0.060293 0.0397324 -4.70064e-17)
(0.326754 -0.0552768 -0.0552339 -0.310953 -0.0455298 6.05892e-18)
(0.22377 -0.0390077 -0.136645 -0.232616 -0.116311 -6.34119e-17)
(-0.02101 -0.0355278 -0.011251 0.0516986 -0.013178 2.89264e-19)
(-0.0684969 -0.0627811 -0.0179574 0.0357066 -0.0253298 -1.22876e-18)
(-0.0632877 -0.0693217 -0.0322134 0.0545348 -0.0254113 1.37467e-17)
(-0.0266226 -0.0261742 -0.0392488 0.0375308 -0.0293386 -2.9269e-18)
(-0.0554261 -0.0065949 -0.0145572 0.0527744 -0.013612 -4.08087e-18)
(0.00555431 -0.00756932 -0.0135377 -0.00282544 -0.0125767 -1.28611e-18)
(-0.059103 -0.00746944 -0.0297492 0.0563145 -0.0286574 -6.64935e-19)
(0.00581581 -0.00728123 -0.0154532 -0.00311319 -0.0146607 -5.03935e-18)
(0.00449314 -0.00312722 -0.0175248 -0.00100409 -0.0184464 -1.54034e-18)
(0.0150091 -0.0222071 -0.0181121 -0.0138558 -0.01664 -7.64752e-18)
(-0.0325188 0.0499131 -0.0428457 0.0317626 -0.0368449 -3.94335e-18)
(-0.0176453 0.0211982 -0.016357 0.013757 -0.0174968 -2.55643e-18)
(-0.114598 -0.051562 -0.105033 0.104562 -0.0769662 1.00933e-16)
(-0.170804 -0.0717363 0.0305674 0.198325 0.0307234 1.26859e-17)
(-0.123431 -0.163773 0.0266749 0.09473 0.0186462 -5.68723e-19)
(-0.204999 -0.193042 -0.101521 0.216277 -0.0741248 2.97834e-19)
(-0.102323 -0.047994 -0.0399324 0.0925377 -0.0178283 5.09045e-17)
(-0.366322 -0.269529 -0.0336619 0.376316 -0.013925 4.24217e-18)
(-0.175661 -0.211196 0.0836024 0.160591 0.112565 -3.13596e-18)
(-0.239275 -0.109978 0.0879606 0.254123 0.125723 1.4275e-17)
(-0.121826 -0.048092 -0.125084 0.114372 -0.0990294 1.25076e-16)
(-0.186895 -0.0802194 0.0413361 0.213138 0.0307371 1.0559e-17)
(-0.214493 -0.221629 -0.120902 0.223281 -0.0952861 2.2621e-19)
(-0.129524 -0.178133 0.0375724 0.102025 0.0200862 2.09008e-19)
(-0.0608661 -0.0439752 -0.016284 0.050433 -0.00411345 4.03642e-17)
(-0.153273 -0.171178 0.0831064 0.139895 0.11898 -4.51818e-18)
(-0.354679 -0.212766 -0.0103847 0.365282 -0.000516243 6.47395e-18)
(-0.213784 -0.0737297 0.0892245 0.226999 0.133941 1.62953e-17)
(-0.086913 -0.103098 0.00503791 0.0470118 -0.0168651 1.04102e-18)
(-0.125118 -0.108308 -0.0863605 0.129152 -0.0990168 -2.88107e-18)
(-0.128606 -0.054938 0.00882158 0.1665 -0.00724148 5.13784e-18)
(-0.091134 -0.05034 -0.0803667 0.089177 -0.0933191 9.20274e-17)
(-0.110738 -0.160706 0.0187268 0.0970701 0.0431283 -3.89404e-18)
(-0.299929 -0.139499 0.00389081 0.314879 0.00225111 5.50826e-18)
(-0.17284 -0.0147896 0.0220881 0.18626 0.0532268 3.66467e-17)
(-0.0397662 -0.062927 -0.0013115 0.0250712 -0.00113367 2.91245e-17)
(-0.125797 -0.165645 0.0360871 0.110308 0.0695019 -3.89124e-18)
(-0.291515 -0.163122 -0.0081195 0.305796 -0.00202381 5.25158e-18)
(-0.178373 -0.0349773 0.0407079 0.193581 0.0827275 2.84563e-17)
(-0.0549771 -0.0561041 -0.0137295 0.0409659 -0.00541356 3.67538e-17)
(-0.0050958 -0.00712023 -0.0147044 0.0090019 -0.0107382 -1.13548e-18)
(-0.00948853 -0.0225458 -0.00884726 0.0203264 -0.0090501 -3.67268e-19)
(-0.039487 -0.0549424 -0.0111776 0.0365321 -0.00881768 2.79857e-18)
(-0.0368382 -0.0425562 -0.0123951 0.0250759 -0.0139187 -4.11357e-19)
(-0.0562557 -0.0607584 -0.0207379 0.0482916 -0.0133923 4.09154e-18)
(-0.0561941 -0.056073 -0.0201582 0.0340543 -0.0248907 -1.00573e-18)
(-0.00618612 -0.0270069 -0.0116429 0.0264047 -0.0120171 -1.63211e-18)
(-0.00511265 -0.0194598 -0.023669 0.0150179 -0.0142889 -2.04115e-18)
(-0.0206875 -0.0357101 -0.0590025 0.00793358 -0.0482998 -4.63707e-17)
(-0.0595813 0.12078 -0.0567858 0.0740585 -0.0457316 -1.35398e-17)
(-0.0456442 0.0608051 -0.232314 0.0364367 -0.250111 -1.55956e-17)
(-0.0182284 0.0128589 -0.0912491 0.0256944 -0.0832718 -1.0072e-16)
(-0.175325 -0.0537552 0.0247548 0.205294 0.00195965 5.81941e-18)
(-0.10755 -0.0189876 -0.123605 0.10761 -0.146862 1.72167e-16)
(-0.0851451 -0.127903 0.0207979 0.0536433 -0.00610108 3.02706e-18)
(-0.152473 -0.158086 -0.123636 0.153999 -0.146326 -9.30762e-19)
(-0.0123392 -0.0458844 -0.03513 0.0292658 -0.0210836 -2.84175e-18)
(-0.0640667 -0.0779567 -0.0283481 0.03274 -0.0344627 -1.90887e-18)
(-0.00794999 -0.0409528 -0.015131 0.037015 -0.013859 -1.42766e-18)
(-0.0617356 -0.0701178 -0.0330306 0.0471143 -0.0210339 8.42185e-18)
(-0.108494 -0.144275 -0.00673325 0.0944294 0.00863433 -3.44929e-18)
(-0.0484757 -0.0610846 -0.00154242 0.0310792 -0.00200622 2.51799e-17)
(-0.158681 -0.00402602 -0.00304374 0.172443 0.0174765 5.21042e-17)
(-0.270313 -0.106657 0.00335469 0.287986 0.0014367 4.49082e-18)
(-0.156847 -0.0405259 0.0234597 0.175861 0.0634301 3.02214e-17)
(-0.124712 -0.161456 0.0183535 0.10529 0.0484068 -3.2447e-18)
(-0.243314 -0.163226 -0.0240792 0.260003 -0.00988345 3.66613e-18)
(-0.0708332 -0.0483693 -0.029272 0.054515 -0.0130411 4.2567e-17)
(-0.177463 -0.0563935 0.0302016 0.20677 0.00780549 6.70566e-18)
(-0.111896 -0.0260397 -0.130164 0.109974 -0.141552 1.65301e-16)
(-0.0956589 -0.140694 0.026305 0.0647949 -0.000871428 2.20591e-18)
(-0.162032 -0.171783 -0.129283 0.165581 -0.13996 -8.59873e-19)
(-0.109719 -0.0322803 -0.0681834 0.0911187 -0.078317 -1.17229e-17)
(-0.0579962 -0.034919 -0.0217784 0.0942278 -0.0208682 -1.03434e-18)
(-0.0418375 -0.044049 -0.0293598 0.0605666 -0.0318192 9.17096e-18)
(-0.0954542 -0.04497 -0.0238186 0.059018 -0.0236988 -6.60997e-18)
(-0.0293651 -0.0444689 -0.0275134 0.0508054 -0.028455 5.9701e-18)
(-0.0935141 -0.0419891 -0.027202 0.0589541 -0.022396 -5.01397e-18)
(-0.084566 -0.0381193 -0.0642231 0.0627474 -0.0775841 -1.04437e-17)
(-0.0234673 -0.0460778 -0.0251764 0.0583272 -0.0198173 -1.43262e-18)
(-0.0438539 -0.0234316 -0.0557628 0.0287561 -0.0451267 -5.3333e-17)
(0.10455 0.0429949 -0.0540631 -0.087638 -0.0429251 -5.05861e-18)
(0.0578662 0.020368 -0.177895 -0.068167 -0.180958 -3.26753e-17)
(0.0158602 -0.00717152 -0.0489407 -0.00741258 -0.0288109 -7.10667e-17)
(-0.0649784 -0.0680542 -0.0401204 0.0459754 -0.0253953 1.60598e-17)
(-0.0685004 -0.0914465 -0.0308449 0.0330374 -0.0364785 -2.50915e-18)
(-0.0171331 -0.0469524 -0.016291 0.0505553 -0.0122017 2.44858e-18)
(-0.0270051 -0.0691161 -0.0413883 0.0481024 -0.0250786 -2.5199e-18)
(-0.0502726 -0.0489467 -0.0361672 0.0515826 -0.0485576 7.92613e-18)
(-0.0405021 -0.0323688 -0.0109158 0.0747798 -0.0181123 -2.19104e-18)
(-0.055239 -0.00277063 -0.0611035 0.0555024 -0.0773495 -8.27225e-18)
(-0.0678555 -0.0240647 -0.0130668 0.032004 -0.0234703 -2.59861e-18)
(-0.0556221 -0.057972 -0.035143 0.0531291 -0.0395509 1.32444e-17)
(-0.0663334 -0.038713 -0.0129146 0.0308719 -0.0232486 -1.67349e-18)
(-0.0352591 -0.0323479 -0.00974558 0.0691745 -0.0161091 -7.0651e-19)
(-0.0444383 -0.00885493 -0.0522334 0.0485177 -0.0554096 -5.5598e-18)
(-0.0278435 -0.0517685 -0.00999752 0.0265708 -0.0104042 3.3217e-18)
(-0.025155 -0.0345747 -0.00969216 0.0183069 -0.0106895 -1.66107e-19)
(-0.00326649 0.00377592 -0.0140129 0.00500843 -0.013646 -9.74872e-19)
(-0.00749175 -0.0169674 -0.00789591 0.013875 -0.00830393 1.30838e-19)
(0.0224343 -0.0357841 -0.0102159 -0.0207438 -0.00915492 -5.53881e-18)
(0.0150617 -0.0187293 -0.0170345 -0.0103178 -0.0183358 -7.42978e-19)
(-0.0107871 0.00428312 -0.0163565 0.00554162 -0.0178358 -3.312e-18)
(-0.022265 0.0305938 -0.0256832 0.0210715 -0.0195349 -3.74383e-18)
(-0.0753501 -0.0431728 -0.0112129 0.0352494 -0.0239551 -2.1856e-18)
(-0.0717244 -0.0319504 -0.0625446 0.0713715 -0.0808697 -7.60717e-18)
(-0.0582707 -0.0571161 -0.0400275 0.0605293 -0.0548755 2.12162e-17)
(-0.0576233 -0.048977 -0.00873842 0.0958423 -0.0177656 -7.93569e-19)
(-0.0663625 -0.00601499 -0.0142274 0.0626436 -0.0128335 -3.5837e-18)
(-0.0104245 -0.00773934 -0.0189981 0.0140153 -0.0194826 -5.25284e-18)
(-0.0108163 -0.00871483 -0.0133727 0.0146071 -0.0118558 -1.1028e-18)
(-0.0712612 -0.0075417 -0.0359274 0.0675863 -0.0370189 -6.53493e-19)
(-0.0114295 -0.0555358 -0.035539 0.0307947 -0.0209567 -3.00028e-18)
(-0.00370331 -0.0434428 -0.017153 0.0330999 -0.0147303 -1.79258e-18)
(-0.0596337 -0.067792 -0.0344125 0.0423862 -0.0215313 7.2357e-18)
(-0.0636953 -0.0823484 -0.0334654 0.0322154 -0.0390197 -2.43531e-18)
(0.0122434 -0.0372523 -0.0207162 -0.00727232 -0.0217779 -1.12684e-17)
(0.0458452 -0.0447376 -0.0187972 -0.0321135 -0.0217227 -1.888e-18)
(-0.00177585 0.0120211 -0.0647641 -0.00191709 -0.0571598 -1.1485e-17)
(-0.0365269 0.0107271 -0.0187498 0.0215069 -0.0221999 -9.18853e-18)
(-0.044671 -0.0120938 -0.0193292 0.0557222 -0.0149929 -3.07765e-18)
(-0.0924161 -0.0258272 -0.0746011 0.0819582 -0.0859302 -2.24704e-18)
(-0.0117874 -0.0236778 -0.0374801 0.0220422 -0.0436088 -1.35333e-17)
(-0.0594886 -0.0333597 -0.0203801 0.0486066 -0.016327 -8.01787e-18)
(-0.0687523 -0.0913291 -0.0335357 0.0342148 -0.0391013 -2.80462e-18)
(-0.0632533 -0.0651173 -0.0390739 0.0429941 -0.0241714 1.38537e-17)
(-0.0257808 -0.0727901 -0.0397951 0.0479839 -0.0234686 -2.54456e-18)
(-0.0136914 -0.0475392 -0.0173576 0.0463265 -0.0128784 2.18715e-18)
(0.0174816 -0.272029 -0.0862865 -0.0260063 -0.0599842 -3.32184e-17)
(0.0741438 -0.37112 -0.0302445 -0.0549291 -0.0343029 2.48364e-18)
(-0.0492489 -0.0216384 -0.0312844 0.0297021 -0.0357426 -3.65788e-17)
(0.0138141 -0.128791 -0.00735185 -0.00497861 0.00417749 -1.91988e-17)
(0.0220949 -0.039714 -0.0139746 -0.0131774 0.0180738 -3.58272e-17)
(-0.0573463 -0.0224291 -0.0456697 0.0395347 -0.042867 -5.48142e-17)
(0.0688238 -0.0403313 -0.11646 -0.0788458 -0.0933177 -4.58086e-17)
(0.13883 -0.0548513 -0.0442738 -0.119925 -0.0412293 3.24538e-18)
(-0.107339 -0.0376058 -0.064989 0.0877359 -0.0763664 -1.0819e-17)
(-0.0551505 -0.0413332 -0.0214965 0.0916408 -0.0198885 -9.78193e-19)
(-0.0422754 -0.0455735 -0.028693 0.0619245 -0.0313662 1.18471e-17)
(-0.0968707 -0.0459616 -0.0236056 0.0602572 -0.0227445 -4.75183e-18)
(-0.036813 -0.0444822 -0.0275885 0.0578841 -0.0293813 1.07401e-17)
(-0.097001 -0.0398181 -0.0626671 0.0757334 -0.0750739 -1.01529e-17)
(-0.0957774 -0.0443584 -0.0251675 0.0600111 -0.0220377 -3.6823e-18)
(-0.0411106 -0.0451676 -0.0230419 0.0769913 -0.0192925 -1.12683e-18)
(-0.0838104 -0.0532106 -0.00746792 0.0497283 -0.0126631 1.10847e-17)
(-0.0918714 -0.0225052 -0.0352266 0.108329 -0.0492644 7.37662e-17)
(-0.152361 -0.0648321 -0.00390902 0.18619 -0.00869051 1.82996e-18)
(-0.131925 -0.0908524 -0.0488638 0.115618 -0.0673548 -4.57711e-18)
(0.008726 -0.00797235 -0.0135348 -0.00150638 -0.0072029 -1.95895e-18)
(0.000579224 -0.0161383 -0.0114992 0.0112945 -0.0116924 -3.81396e-18)
(-0.0531244 -0.047958 -0.013288 0.0473033 -0.00806107 -2.88695e-18)
(-0.0465499 -0.0415276 -0.0229323 0.033276 -0.0256709 -8.79726e-19)
(-0.0231565 -0.0339966 -0.0201456 0.0226794 -0.0208202 -7.67808e-18)
(-0.0320191 -0.00122514 -0.0108348 0.017828 -0.0148853 -1.34538e-18)
(-0.0177473 0.0436479 -0.0380978 0.0186137 -0.0347138 -4.1529e-18)
(-0.00965335 0.00287312 -0.0102142 0.0234535 -0.0131415 -2.56016e-18)
(-0.102931 -0.0491116 -0.0583242 0.0809933 -0.0706208 -9.09577e-18)
(-0.0410893 -0.0443304 -0.0269565 0.0628654 -0.0290112 1.64747e-17)
(-0.0520601 -0.0531858 -0.0216662 0.0883937 -0.0180286 -8.52163e-19)
(-0.0960176 -0.0459751 -0.0239149 0.0597582 -0.0208418 -5.35951e-19)
(-0.0450944 -0.0472425 -0.0297369 0.043954 -0.0336193 1.37387e-18)
(-0.0575591 -0.0185042 -0.0129155 0.0291346 -0.020836 -1.885e-18)
(-0.0359641 0.016486 -0.0505102 0.038167 -0.0526564 -6.25674e-18)
(-0.0251271 -0.0185255 -0.010739 0.0525321 -0.0160756 -2.20938e-18)
(-0.0508199 -0.0510647 -0.0342937 0.0500709 -0.0416754 8.12877e-18)
(-0.0347443 -0.0283153 -0.0104739 0.0675991 -0.0170616 -1.69064e-18)
(-0.0645504 -0.0273878 -0.0129533 0.0302534 -0.0229278 -2.06055e-18)
(-0.0461633 0.000572142 -0.055336 0.0483466 -0.0630702 -6.82361e-18)
(-0.117065 -0.0527235 0.00622028 0.155004 -0.00521518 6.38418e-18)
(-0.0931535 -0.0566359 -0.0804225 0.0874964 -0.0823627 8.13853e-17)
(-0.115575 -0.105557 -0.0851094 0.123362 -0.0862425 -2.46256e-18)
(-0.0872532 -0.10626 0.00189276 0.047256 -0.0165284 2.13095e-19)
(-0.00480107 -0.00381222 -0.01434 0.00807289 -0.011159 -1.08745e-18)
(-0.0337478 -0.0406157 -0.0116835 0.023127 -0.0130873 -3.58201e-19)
(-0.0096944 -0.020224 -0.00866129 0.019514 -0.00893547 -2.4861e-19)
(-0.0368627 -0.0539161 -0.0105595 0.0344152 -0.00887897 2.77137e-18)
(-0.127235 -0.0162753 -0.17558 0.124694 -0.175922 2.19362e-16)
(-0.208976 -0.0702168 0.050699 0.231539 0.0246365 6.90078e-18)
(-0.202994 -0.23348 -0.170314 0.206867 -0.170314 7.12258e-19)
(-0.120036 -0.176306 0.0465909 0.0962219 0.0164098 1.92656e-18)
(-0.13114 0.021538 -0.195138 0.130298 -0.219866 2.86443e-16)
(-0.200138 -0.224977 -0.188883 0.202186 -0.212791 1.28167e-18)
(-0.222321 -0.0500855 0.047324 0.242535 0.0197404 5.73698e-18)
(-0.11336 -0.159623 0.0428247 0.092008 0.0119843 2.70298e-18)
(-0.0189165 -0.033232 -0.0356157 0.0320987 -0.0236094 -2.59758e-18)
(-0.0153737 -0.0370778 -0.0124987 0.0444972 -0.0130414 -2.92829e-19)
(-0.0638213 -0.070717 -0.0311453 0.0529314 -0.0218155 1.1095e-17)
(-0.0665953 -0.0698105 -0.0213675 0.0352438 -0.0281491 -1.36412e-18)
(-0.100881 -0.057027 -0.0551538 0.0777668 -0.067217 -8.29041e-18)
(-0.0413625 -0.0451837 -0.0259883 0.0642204 -0.027084 1.83231e-17)
(-0.0525598 -0.061566 -0.0219971 0.0885098 -0.0172412 -7.95707e-19)
(-0.0945104 -0.0469561 -0.0242626 0.0587203 -0.0200093 1.68297e-18)
(-0.060647 -0.0690338 -0.0298335 0.0519928 -0.022726 1.14938e-17)
(-0.0179293 -0.0344779 -0.0113866 0.0465997 -0.0129772 -3.58433e-20)
(-0.0652623 -0.0622586 -0.0182738 0.0345247 -0.0251611 -1.17851e-18)
(-0.0226721 -0.0246817 -0.0361743 0.0334396 -0.0260811 -2.66971e-18)
(-0.12006 -0.0541383 0.00653806 0.158369 -0.00708805 5.61552e-18)
(-0.0911647 -0.0557845 -0.0788945 0.087251 -0.0857852 8.31937e-17)
(-0.117517 -0.103574 -0.0844259 0.123567 -0.0909693 -2.77836e-18)
(-0.086137 -0.103265 0.00245657 0.0457738 -0.0176046 5.03374e-19)
(-0.083187 -0.0536294 -0.0061787 0.0477111 -0.0131581 9.06687e-18)
(-0.0891496 -0.0232963 -0.0385029 0.104407 -0.0571137 7.59195e-17)
(-0.148245 -0.0608029 -0.00265482 0.183262 -0.00895571 1.83145e-18)
(-0.132447 -0.0871372 -0.0527396 0.117565 -0.0752882 -4.76963e-18)
(-0.073958 -0.0296497 -0.0329089 0.0456547 -0.0226679 -1.00166e-17)
(-0.0493016 -0.0697554 -0.0742991 0.0273008 -0.0996678 -9.6256e-18)
(-0.00633615 -0.0517516 -0.03043 0.0275621 -0.0354685 -1.15421e-17)
(0.0119214 -0.0974917 -0.0312235 0.0170895 -0.020555 -2.9968e-18)
(-0.0324493 -0.00753528 -0.0337412 0.0332984 -0.0435237 -2.18625e-17)
(-0.0539286 0.0392414 -0.0144863 0.0337084 -0.0200764 -2.87758e-18)
(-0.0258331 0.0292186 -0.0138413 0.0455492 -0.0179662 -6.49864e-18)
(-0.0465093 0.0859012 -0.0689866 0.0461394 -0.0836258 -1.09972e-17)
(-0.0409665 -0.0602183 -0.0303016 0.0554154 -0.0304521 -2.22803e-18)
(-0.0761737 -0.0812191 -0.0227929 0.109069 -0.0252276 -1.14538e-18)
(-0.115095 -0.0611454 -0.0813441 0.101379 -0.0819811 -1.60956e-17)
(-0.0819364 -0.0395235 -0.0243908 0.0482658 -0.0277722 -1.38173e-17)
(-0.160463 -0.0506278 0.00375632 0.194214 -0.00665688 2.62983e-18)
(-0.129855 -0.0924764 -0.0626275 0.118999 -0.094637 -3.77789e-18)
(-0.0955267 -0.0118651 -0.05233 0.106986 -0.0826627 1.03822e-16)
(-0.0718814 -0.0564643 5.57289e-05 0.037423 -0.0115913 8.08263e-18)
(-0.0590523 0.0471633 -0.0173315 0.035661 -0.022082 -4.00959e-18)
(-0.0347925 0.00102887 -0.038833 0.0370667 -0.0581887 -2.81297e-17)
(-0.0510978 0.0904229 -0.0825773 0.0497297 -0.117371 -1.43811e-17)
(-0.0286572 0.0346245 -0.0167357 0.0511377 -0.019879 -8.25646e-18)
(-0.0434472 -0.0571161 -0.0407761 0.023445 -0.041396 -2.31836e-18)
(0.0264948 -0.0292648 -0.0193212 -0.00813411 -0.0170892 -1.2795e-17)
(-0.0485224 -0.0561184 -0.0277058 0.0360615 -0.0195752 -1.1159e-17)
(0.0328107 -0.0264579 -0.0270568 -0.0187139 -0.017862 -5.09881e-18)
(-0.0516344 -0.0534091 -0.0336415 0.0335005 -0.0362764 -1.68418e-18)
(0.0158233 -0.0266744 -0.0162107 0.000489271 -0.0153257 -9.7934e-18)
(-0.0600958 -0.0553865 -0.0240948 0.0502657 -0.0155671 -8.26844e-18)
(0.0268953 -0.0212674 -0.0238873 -0.0152651 -0.0141865 -4.09549e-18)
(0.0670973 -0.00178926 -0.0255532 -0.0566018 -0.0226616 -8.50861e-18)
(-0.0236568 -0.0301449 -0.047191 0.0100064 -0.0408384 -2.61179e-18)
(0.0471988 -0.00937005 -0.0215189 -0.0345813 -0.0171581 -2.49075e-17)
(-0.0391159 -0.0343219 -0.0274889 0.0295941 -0.0253291 -2.71365e-17)
(-0.0358647 0.0547186 -0.0593407 0.0384188 -0.0907922 -6.51377e-17)
(-0.0653849 0.108927 -0.0236659 0.0486977 -0.022467 -5.37285e-18)
(-0.0629603 0.165568 -0.134444 0.0614252 -0.199102 -2.3484e-17)
(-0.0328369 0.0985505 -0.0238837 0.0484977 -0.0214474 -1.60837e-17)
(-0.0267523 -0.0534032 -0.0108511 0.0256152 -0.0114148 3.20886e-18)
(-0.0263159 -0.0367849 -0.0096662 0.0194053 -0.0105942 -1.87723e-19)
(-0.00628384 0.00306747 -0.0155639 0.00786882 -0.015301 -1.113e-18)
(-0.00816458 -0.0171918 -0.00800332 0.0146414 -0.00841995 7.63762e-20)
(0.000743084 -0.00260771 -0.0087824 0.00167062 -0.00639584 -6.8466e-19)
(-0.00835223 -0.0179361 -0.00789095 0.0140689 -0.00739251 -3.21739e-19)
(-0.0304161 -0.0341038 -0.0113164 0.0241148 -0.0112916 -2.66363e-19)
(-0.0378735 -0.047127 -0.00716379 0.036059 -0.00558717 1.59864e-18)
(0.0479447 -0.0127777 -0.0255646 -0.0353287 -0.021126 -7.02055e-18)
(-0.0345681 -0.0368501 -0.0481343 0.0182913 -0.0439459 -2.64064e-18)
(-0.0422002 -0.0370246 -0.027064 0.0306532 -0.0234542 -2.04913e-17)
(0.0380582 -0.0160229 -0.0222254 -0.022902 -0.018545 -2.00327e-17)
(-0.0329833 0.0275119 -0.0514847 0.0361348 -0.0795673 -4.87995e-17)
(-0.0654003 0.0771547 -0.021693 0.0453725 -0.0223356 -5.27734e-18)
(-0.0265517 0.0631731 -0.0216407 0.0453788 -0.0209147 -1.24895e-17)
(-0.0584182 0.12367 -0.115899 0.056513 -0.171454 -1.96881e-17)
(-0.0208457 -0.0496617 -0.0206223 0.0516618 -0.0140959 7.53575e-18)
(-0.069649 -0.0528605 -0.0362045 0.0425023 -0.021304 1.1624e-17)
(-0.0352007 -0.0952791 -0.0350154 0.0635111 -0.019538 -1.87483e-18)
(-0.0755114 -0.0954905 -0.041601 0.0435129 -0.0481757 -4.52651e-18)
(-0.0253267 -0.0498208 -0.0191632 0.0573108 -0.0111839 8.81134e-18)
(-0.0694082 -0.054188 -0.0385217 0.0433985 -0.0224819 1.56294e-17)
(-0.0753943 -0.0978088 -0.0376333 0.0420962 -0.0423664 -4.05276e-18)
(-0.0403973 -0.0957662 -0.0375276 0.0677141 -0.0208607 -1.74922e-18)
(-0.0842319 -0.0375109 -0.0190363 0.0471463 -0.0252447 -8.41909e-18)
(-0.113125 -0.0672027 -0.0755311 0.101366 -0.0862117 -1.3076e-17)
(-0.080086 -0.0943693 -0.0173416 0.115693 -0.0221494 -1.32872e-18)
(-0.0478376 -0.0641124 -0.0323795 0.0610329 -0.0410147 7.30191e-18)
(-0.0150578 -0.103979 -0.0299976 0.0445286 -0.0185682 -2.62071e-18)
(-0.0106918 -0.0520152 -0.0265543 0.0355783 -0.0291471 -3.48754e-18)
(-0.0684605 -0.0838819 -0.0609496 0.0428195 -0.0804989 -7.11031e-18)
(-0.0712014 -0.0371069 -0.031583 0.0424224 -0.020629 -3.11926e-18)
(-0.0260523 -0.0390235 -0.040891 0.0403626 -0.0283872 -2.76452e-18)
(-0.0205081 -0.0397732 -0.0124632 0.0531388 -0.0129618 7.02195e-19)
(-0.0697068 -0.0746596 -0.0214674 0.0347789 -0.028799 -1.48994e-18)
(-0.0662723 -0.072977 -0.0360273 0.0543291 -0.026141 1.57044e-17)
(-0.115907 -0.0642934 -0.0527005 0.0946784 -0.0657109 -7.59856e-18)
(-0.0822167 -0.062921 -0.0170412 0.119187 -0.0154161 -1.48785e-19)
(-0.0561749 -0.0432778 -0.0271486 0.0774254 -0.0314164 3.00222e-17)
(-0.0957958 -0.0504754 -0.0196283 0.0587186 -0.0185474 3.99959e-18)
(-0.121412 -0.0703342 -0.0508621 0.100749 -0.0640265 -6.95172e-18)
(-0.0940387 -0.0664378 -0.0150565 0.130891 -0.0144018 1.94994e-19)
(-0.061217 -0.0411983 -0.0278097 0.0819313 -0.0330192 3.69546e-17)
(-0.0954797 -0.0509462 -0.0178052 0.0584634 -0.0176661 5.85047e-18)
(0.0586211 0.0560883 -0.0373133 -0.0317279 -0.0305042 -2.13533e-18)
(-0.0144309 0.038877 -0.103577 -0.0013002 -0.105863 -2.12839e-17)
(0.000200636 -0.0191184 -0.0342725 0.0143085 -0.0221943 -2.66707e-17)
(-0.0768101 -0.0368025 -0.0389662 0.0510958 -0.0326034 -2.73008e-17)
(-0.104872 -0.0580161 -0.0660076 0.0980556 -0.0893016 -8.53194e-18)
(-0.0630104 -0.0592778 -0.0394451 0.0716855 -0.0588649 3.17871e-17)
(-0.087411 -0.0689056 -0.00813627 0.127247 -0.0178356 -2.30107e-19)
(-0.0839623 -0.0503313 -0.0104555 0.0422405 -0.0228473 -2.07317e-18)
(-0.0580983 -0.0626456 -0.0339726 0.0536131 -0.0343509 1.44543e-17)
(-0.0300436 -0.0337304 -0.00978182 0.0630501 -0.0150014 -1.06917e-19)
(-0.0378048 -0.013657 -0.0473797 0.0440272 -0.0451752 -4.40454e-18)
(-0.0667075 -0.0462852 -0.0137684 0.0320226 -0.0233167 -1.39432e-18)
(-0.104256 -0.0533566 -0.0746836 0.0888245 -0.0468058 6.75879e-17)
(-0.129168 -0.055127 0.00936661 0.158903 0.0246074 1.72616e-17)
(-0.109393 -0.148066 0.00390242 0.0785448 0.00862664 -1.61793e-18)
(-0.160387 -0.1527 -0.0717858 0.176978 -0.0445106 3.76822e-19)
(-0.103236 -0.0601181 -0.0653854 0.0980883 -0.0888225 -7.68988e-18)
(-0.0883577 -0.0642266 -0.0062406 0.128659 -0.0169976 2.27815e-19)
(-0.0649366 -0.0573521 -0.0421515 0.0719974 -0.0622049 3.73327e-17)
(-0.0831461 -0.0552578 -0.00873773 0.0409176 -0.0226192 -1.36322e-18)
(-0.274071 -0.24253 -0.083419 0.28522 -0.0490912 1.52988e-18)
(-0.152732 -0.200999 0.0474012 0.130428 0.0534862 -1.23816e-18)
(-0.201682 -0.0940381 0.0509842 0.223311 0.0651897 1.4514e-17)
(-0.119561 -0.0567604 -0.0891379 0.109117 -0.0530011 8.41027e-17)
(-0.0197617 -0.0401204 -0.0243622 0.0371253 -0.017759 -4.32752e-18)
(0.00372201 -0.0300151 -0.0291668 0.0142653 -0.0326158 -1.37124e-17)
(-0.0594795 -0.0375737 -0.0255205 0.0426632 -0.0195551 -1.01698e-17)
(-0.0810376 -0.0498075 -0.0628814 0.0624951 -0.0734895 -3.4951e-18)
(-0.042719 -0.031355 -0.00441474 0.0414426 -0.00302984 -1.6116e-18)
(0.00597419 -0.00281784 -0.00695021 -0.00309779 -0.00631817 -1.23641e-18)
(0.0155972 0.00406204 -0.00400743 -0.0139348 -0.00241503 -5.71245e-19)
(-0.0345389 -0.0259097 -0.0145492 0.0312558 -0.0136199 -2.36539e-19)
(-0.00589141 0.00545331 -0.00934689 0.00927312 -0.00976484 -6.99561e-19)
(-0.013007 0.000416879 -0.00992232 0.00950434 -0.0103047 -4.21002e-19)
(-0.00846408 0.0492079 -0.0137513 0.00881025 -0.0153665 -8.73672e-19)
(-0.00978025 -0.0364841 -0.00776013 0.00955892 -0.00982633 -2.55957e-18)