/*--------------------------------*- C++ -*----------------------------------*\
| =========                 |                                                 |
| \\      /  F ield         | foam-extend: Open Source CFD                    |
|  \\    /   O peration     | Version:  3.0                                   |
|   \\  /    A nd           | Web:         http://www.extend-project.de       |
|    \\/     M anipulation  |                                                 |
\*---------------------------------------------------------------------------*/
FoamFile
{
    version     2.0;
    format      ascii;
    class       volVectorField;
    location    "9";
    object      u;
}
// * * * * * * * * * * * * * * * * * * * * * * * * * * * * * * * * * * * * * //

dimensions      [0 0 0 0 0 0 0];

internalField   nonuniform List<vector> 
3012
(
(1.11224 0.0342468 -0.0718691)
(1.94856 0.11554 0.269608)
(1.16139 0.256218 0.0770761)
(1.68781 0.128742 -0.208563)
(-0.146069 1.99543 -2.12297)
(1.77113 -0.891297 1.02692)
(0.514003 2.27018 2.2586)
(1.58163 0.148889 -1.04484)
(1.93845 -0.140941 -0.265372)
(1.79932 0.130116 -0.156789)
(0.866891 -0.830956 0.183577)
(0.957038 0.838129 0.305664)
(1.10607 -0.0839091 0.140932)
(1.02695 0.344705 -0.00115944)
(1.39566 -0.23075 0.0273272)
(1.68922 0.278485 -0.190402)
(3.23638 -1.58631 -0.973131)
(0.77285 -1.12161 0.116124)
(4.3631 1.14737 1.14573)
(-3.07722 0.666158 -0.140264)
(5.26834 -17.0578 -1.35325)
(22.0534 4.58669 0.200881)
(-0.132288 -0.699937 -0.20195)
(-0.363646 6.04914 0.62126)
(1.72835 0.445007 -0.119923)
(1.409 -0.217572 0.376161)
(1.03889 0.422378 -0.313689)
(0.911184 -0.0443619 0.103616)
(1.41588 0.133084 -0.14101)
(1.10648 0.2327 0.214486)
(1.18577 -0.333786 -0.0356267)
(1.24638 -0.00830479 0.0426472)
(1.34956 -0.387014 -0.0852587)
(1.17585 -0.0318263 0.193108)
(1.38448 0.210284 -0.12066)
(1.06911 -0.164017 0.0775915)
(2.41431 -0.118895 0.558992)
(1.40566 0.122784 -0.0650422)
(1.01606 -0.357045 0.0587648)
(1.86654 0.230375 -0.471826)
(0.647154 0.0799354 0.251975)
(1.26136 -0.516746 0.0143245)
(1.96889 0.30142 -0.382204)
(1.03456 0.801002 0.00669862)
(1.40076 -0.274748 -0.122351)
(1.20897 -0.113245 0.116151)
(1.35254 0.215617 -0.111193)
(1.18547 0.0435593 0.160756)
(0.696909 0.0612529 0.133937)
(0.921783 -0.338109 0.16473)
(1.34803 0.544255 -0.0976981)
(1.56532 -0.365756 -0.151423)
(1.134 0.112109 -0.0629984)
(1.25454 -0.280479 0.147069)
(1.20803 0.0261327 -0.0843756)
(1.49425 0.196905 0.0534806)
(3.4215 -0.632778 -0.327251)
(1.33378 -1.41965 0.555435)
(1.29034 1.79019 0.474375)
(4.06324 0.236816 -0.545066)
(1.29046 0.80996 -0.0597728)
(1.47765 -0.668201 0.365842)
(0.542337 1.48777 0.195173)
(1.71365 -0.404509 -0.37205)
(1.08094 -0.0977269 0.142968)
(0.982298 0.258975 0.0159809)
(1.38874 -0.336478 0.00224823)
(1.69677 0.282904 -0.159554)
(1.03038 -0.425918 -0.0529049)
(1.67576 0.0129591 0.307429)
(0.877777 0.0186306 -0.0970089)
(1.01392 0.347573 0.0718339)
(0.821295 0.286586 0.171584)
(1.34733 0.245423 -0.026864)
(1.14294 -0.399117 0.031308)
(1.4866 0.0160641 -0.103568)
(0.955419 0.98921 -0.127568)
(1.47136 -0.988962 0.222995)
(-0.0337325 -0.452256 -0.076004)
(1.87613 0.00461945 0.0792141)
(1.25766 -0.0540892 0.156261)
(1.06988 0.315443 0.0204189)
(1.76081 0.221828 -0.183437)
(1.3689 -0.154078 -0.00268633)
(1.2988 -0.399986 -0.0792361)
(1.62109 0.0642208 -0.0763882)
(0.653397 0.147809 0.0840641)
(1.44696 0.594878 0.0990862)
(1.69404 -0.451363 -0.0684252)
(0.989896 -0.595504 0.223981)
(1.38664 0.653897 -0.132377)
(0.457375 -0.0568983 0.0652649)
(1.97726 0.558273 -0.114552)
(1.82393 -0.325032 -0.284201)
(0.770939 -0.479755 0.133785)
(0.813757 0.888156 0.307563)
(0.81851 -0.620386 0.290569)
(1.83021 0.637013 -0.0940016)
(2.14286 -0.229192 0.171374)
(1.7071 -0.378228 -0.281505)
(0.886065 -0.27003 -0.0667457)
(1.82883 -0.219374 0.66054)
(0.739998 -0.0353932 -0.272547)
(1.03097 0.772033 0.0850252)
(0.461549 0.002524 0.128827)
(1.4334 -0.468813 0.073232)
(1.32605 0.534167 -0.0626306)
(1.47436 0.0221914 -0.0825447)
(-0.410549 0.24498 -0.715589)
(2.34589 -2.02491 2.35285)
(-9.05734 -4.20786 0.740485)
(-2.16937 6.45036 -1.30742)
(1.29269 0.373077 -0.069324)
(1.04736 -0.187874 0.105833)
(0.958706 0.0205366 0.149588)
(1.52947 -0.229379 -0.171157)
(1.15724 1.10157 0.156843)
(0.703338 -0.448054 -0.151483)
(-0.53203 0.4705 0.200432)
(1.11536 -0.0383739 -0.121556)
(0.548826 0.364696 -0.215702)
(0.336253 -0.502901 -0.416318)
(1.09941 -0.510489 1.00098)
(0.63346 -0.384015 0.198275)
(3.01682 -0.746347 0.420109)
(0.954024 0.36863 -0.460663)
(1.22957 0.731063 0.403515)
(2.34228 -0.274419 -0.327946)
(-0.00150173 -2.29207 -1.06128)
(1.89383 -2.74295 1.1596)
(0.850023 2.24557 1.77228)
(2.26539 2.0929 -1.96932)
(1.13619 -0.111149 0.221789)
(1.47945 -0.497434 -0.214348)
(0.595089 1.00918 -0.12988)
(2.67843 0.0442947 0.196735)
(3.18545 1.75447 -0.663226)
(-0.298809 1.09165 2.21806)
(1.87509 1.15874 0.723782)
(-0.245245 -0.493412 -2.41519)
(1.02891 -0.372841 -0.0718952)
(1.46742 0.146209 -0.516997)
(0.987205 -0.356208 0.0804857)
(1.39431 0.188419 0.647052)
(-0.102016 1.61188 1.64194)
(0.268225 -2.07692 0.453047)
(2.13987 -0.725704 -1.69079)
(3.53323 1.36633 -0.43076)
(1.4414 0.620892 1.67875)
(1.52429 -2.93699 0.864603)
(2.74168 1.54346 -1.83488)
(0.347828 -1.51298 -0.814206)
(1.91408 -0.258735 -0.179395)
(1.25121 0.808906 -0.0475622)
(0.464984 0.139676 0.150154)
(0.848472 -0.676805 0.0919128)
(0.610673 0.19414 0.0968275)
(0.796736 -0.625809 0.180466)
(1.31007 0.461265 -0.105125)
(1.68868 -0.3171 -0.110839)
(0.601966 0.596446 -0.622484)
(-9.29319 -6.81737 0.609006)
(-4.39891 7.45165 -0.640834)
(3.1857 -2.44742 1.02398)
(1.07688 -0.348289 0.0829111)
(2.06835 -0.00988641 1.06662)
(1.7054 0.416601 -0.100473)
(1.44825 0.515851 -0.948515)
(1.70067 -0.321089 -0.0480104)
(1.22221 -0.310964 0.207391)
(1.33102 0.371623 -0.131733)
(1.00349 -0.198083 0.044679)
(2.31615 2.64724 1.08659)
(2.55781 0.405359 -0.616513)
(3.43423 0.486979 -1.11506)
(-0.287074 -0.650672 0.648086)
(1.45596 -0.792933 -1.09228)
(-0.0768677 1.06205 1.0122)
(1.06346 -0.197071 0.342077)
(2.84104 1.7969 -0.302136)
(0.309168 -0.505511 0.0476071)
(2.41263 -0.516592 0.656347)
(1.88056 0.179492 -0.0754132)
(1.73262 0.671899 -0.58237)
(0.722496 0.665962 0.0174123)
(0.234951 -0.755815 0.13934)
(1.62564 -0.330366 0.0615535)
(1.27055 0.148573 -0.125138)
(1.60351 -0.335604 -0.00535383)
(1.47502 0.133986 -0.124674)
(0.539262 1.1473 0.0933457)
(-0.0452715 -0.886823 0.136661)
(-0.485341 -0.390984 -0.443481)
(-16.7722 -10.1359 0.439878)
(-5.86053 12.0779 -2.11316)
(3.78058 -3.92669 2.27503)
(1.25742 -0.113896 0.0314824)
(1.05277 0.190549 0.242528)
(1.38003 0.0233918 -0.161795)
(1.15133 -0.450712 -0.0166554)
(1.11713 -0.191691 0.0869684)
(1.08732 0.445254 0.0463313)
(1.81748 0.117582 -0.107897)
(1.40754 -0.228022 -0.0165878)
(1.07973 -0.0187334 0.150091)
(1.1999 -0.145789 0.031514)
(1.15967 0.485204 -0.00819493)
(1.7334 0.00816928 -0.166238)
(0.374589 0.0765491 0.122923)
(0.836174 -1.12325 0.0403105)
(2.46929 -0.396932 -0.16407)
(1.30934 0.984275 -0.0193383)
(0.315404 0.491412 -0.509876)
(0.894947 0.561229 -0.00718675)
(1.38514 -0.749785 -0.00556276)
(1.62817 1.03289 1.29735)
(1.34814 -0.214878 -0.0175866)
(1.72717 0.109503 -0.14488)
(1.28619 -0.150275 0.150436)
(1.07156 0.190223 0.0397039)
(0.524394 -0.405402 0.113619)
(1.5231 0.0410043 -0.185878)
(0.980769 -0.553934 -0.113901)
(1.45527 -0.463879 0.325544)
(1.53874 -0.386384 -0.0189019)
(1.37614 0.190995 -0.14572)
(1.29077 0.0308087 0.0163998)
(0.979107 -0.00854863 0.255581)
(0.622211 0.101308 -0.0695555)
(0.776977 0.999566 -0.00147397)
(2.00396 0.364019 -0.121543)
(1.0472 -0.324888 0.00269229)
(1.25676 -0.448294 -0.0514022)
(0.942886 -0.101605 0.643684)
(1.38342 0.121446 -0.341061)
(0.981955 0.0378652 0.0620061)
(1.0279 0.272199 0.267638)
(1.52132 0.119173 0.0214774)
(1.41754 -0.405623 -0.0156899)
(1.57627 0.102929 -0.172173)
(6.31573 -5.95054 -0.611597)
(8.21703 5.37755 0.369779)
(0.822447 -1.22648 -0.363617)
(-0.792343 1.72955 0.0434751)
(5.6284 -1.81957 0.584255)
(1.31278 -1.55559 -0.445197)
(-12.5296 4.53255 -1.1788)
(-4.9786 -19.7826 0.445625)
(0.691262 0.45668 0.0394659)
(0.71361 -0.794417 0.145998)
(1.58134 -0.201285 0.0515909)
(1.44851 0.0878913 -0.131329)
(2.00755 -0.429267 -0.00151058)
(0.700467 0.731204 0.0636203)
(1.45461 0.496555 -0.139401)
(0.28545 -0.771727 0.150707)
(1.64589 0.0976072 -0.181081)
(1.92838 -0.451697 0.0809494)
(0.445558 -0.699839 0.201507)
(1.10625 0.707939 -0.00673669)
(1.62043 -0.42088 -0.077198)
(1.44361 0.590322 -0.152198)
(0.587912 -0.00833756 0.0583839)
(1.00568 -0.457861 0.27855)
(0.5728 0.210616 0.349845)
(1.1506 -0.647264 0.0466423)
(1.79463 0.299402 -0.678571)
(1.07376 0.588337 -0.0140754)
(0.54438 0.820502 0.10822)
(1.60352 -0.338445 0.00201322)
(0.410853 -0.954341 0.15676)
(1.59487 0.0830232 -0.138543)
(0.721542 -0.0195067 0.229705)
(1.33531 -0.325658 0.0431607)
(1.53325 0.224342 -0.326774)
(1.10299 0.506594 -0.0193122)
(1.07456 0.0539872 0.172099)
(1.1925 0.468468 0.0121736)
(1.27637 -0.285201 0.0128783)
(1.85222 0.135787 -0.206018)
(1.02737 -0.0777376 -0.0637585)
(1.37239 -0.151439 0.235468)
(1.28177 0.222334 -0.183648)
(1.50125 0.0593872 0.0606044)
(2.02029 -0.527407 -0.193115)
(0.595691 -0.585942 0.0979029)
(1.40123 0.823491 -0.0505427)
(0.621522 0.252257 0.150561)
(3.86306 -0.417609 2.18292)
(-0.074476 0.36765 0.271562)
(3.3776 0.400839 -2.00629)
(1.23372 0.539403 -0.322377)
(1.32497 0.806053 1.97476)
(0.671045 -0.647804 -1.80247)
(1.52633 -0.757705 0.628586)
(1.13989 0.203004 -0.631708)
(1.45911 -0.247233 -0.0997399)
(1.25212 0.366851 -0.106273)
(0.79351 0.121938 0.0979674)
(0.884254 -0.294701 0.144957)
(0.963153 0.744311 0.136378)
(1.85681 -0.348602 -0.037715)
(0.46824 -0.50152 0.121657)
(1.58145 0.364824 -0.108835)
(0.853878 0.255859 0.17052)
(1.26334 0.287688 -0.0763824)
(0.747678 -0.426586 0.113113)
(1.57558 -0.253055 -0.197916)
(1.05704 0.0395607 -0.0480665)
(1.91058 -0.499393 0.441652)
(1.83773 0.160817 -0.43503)
(1.69628 0.112261 0.0719015)
(1.79018 -0.071083 -0.176202)
(1.85913 -0.364609 0.109954)
(0.718352 -0.600965 0.19569)
(1.30953 0.647581 -0.0219266)
(1.33204 0.548576 -0.106132)
(1.05503 2.25114 0.251236)
(1.48592 -0.649889 -0.0519438)
(-1.54193 0.215381 0.116352)
(1.15247 -0.173345 0.346619)
(1.32538 0.0229067 -0.0388033)
(1.01048 0.25161 0.0606576)
(1.36024 0.150871 -0.719761)
(2.18613 -0.228861 0.106891)
(0.672777 -2.99747 0.131354)
(-0.779621 0.233984 -0.0957951)
(1.2154 -0.0423772 -0.122409)
(0.824374 -0.348066 0.252962)
(1.15733 0.423101 -0.374198)
(1.66448 -0.268536 0.500029)
(1.47552 0.179503 -0.236978)
(1.51986 -0.498395 -0.044196)
(0.772516 -0.214131 0.1328)
(1.9169 0.271819 -0.20725)
(1.04496 0.597692 0.0585902)
(1.25416 -0.0720511 0.217913)
(1.10294 0.170213 -0.134836)
(1.12413 -0.294462 -0.00916921)
(1.41958 -0.192403 0.0101211)
(0.933898 -0.377494 0.298749)
(1.26841 0.466897 -0.163704)
(0.745146 0.0773082 -0.00474109)
(1.53881 -0.265312 0.00379403)
(0.880384 -0.214414 0.100918)
(1.24621 0.979535 -0.0623261)
(1.0529 -0.414303 0.000525905)
(2.14173 -0.336229 -0.106311)
(0.604612 -0.171097 -0.23466)
(1.13722 -1.2272 -0.129047)
(2.23206 0.211568 0.659266)
(0.7527 0.304087 0.153182)
(0.483611 0.112662 0.136474)
(0.865976 -0.654921 0.0285387)
(1.98873 -0.299889 -0.191255)
(1.29157 0.880524 -0.0102686)
(1.96308 -0.158055 -0.0793775)
(1.23129 0.769465 -0.074146)
(1.03617 -0.784767 0.108489)
(0.421701 0.0390347 0.0676207)
(1.40708 -0.125847 0.170368)
(0.918735 -0.0512853 0.0600819)
(1.16814 0.197421 -0.165087)
(1.21513 0.129139 -0.0591348)
(0.773699 0.0702479 -0.517619)
(0.920048 -0.337422 -0.136729)
(1.31393 0.573887 0.165809)
(1.72424 -0.344024 1.22236)
(1.61849 -0.256286 -0.17197)
(1.83508 0.343883 -0.0672008)
(1.02506 -0.446093 0.0858623)
(0.810419 0.629784 0.247439)
(1.64596 -0.05692 -0.184842)
(1.58302 0.265841 -0.0365392)
(0.934053 0.637165 0.274121)
(0.980532 -0.422286 0.055835)
(1.32199 0.00148318 -0.111478)
(1.43396 -0.0157666 -0.0386971)
(1.01216 -0.053206 0.120798)
(1.42086 -0.231813 0.0806723)
(0.745848 -0.425301 0.111281)
(1.68293 -0.30037 -0.106585)
(0.756036 0.824389 0.241324)
(1.78721 0.440069 -0.0979647)
(1.54861 -0.199294 -0.136879)
(1.24196 0.261442 -0.0951002)
(1.022 -0.243096 0.127651)
(1.03001 0.0316733 0.129793)
(0.85705 0.55935 0.066205)
(0.49665 -0.532136 0.165537)
(1.7968 -0.497511 0.0188796)
(1.56843 0.39011 -0.153166)
(0.893038 0.794997 0.0814892)
(0.548029 -0.681079 0.196424)
(1.82569 -0.303517 -0.0207153)
(1.70017 0.235547 -0.180372)
(-4.56818 -4.25345 0.275958)
(-1.89059 3.77171 -0.11291)
(2.37742 -1.23243 0.287859)
(0.56441 -0.0362046 -0.267579)
(1.40172 0.0574084 -0.0598146)
(1.36017 -0.355526 0.143343)
(0.935351 0.0504915 0.0939528)
(1.41157 0.0556109 -0.0826085)
(0.964907 -0.00513886 0.148523)
(1.17168 0.463603 -0.0227392)
(1.61376 0.0363166 -0.185689)
(1.2124 -0.181016 0.0530728)
(1.33128 0.0933384 0.0683042)
(1.25204 -0.051641 -0.46113)
(1.20103 0.338998 0.420607)
(1.01895 0.199088 -0.0123327)
(1.54974 -0.0185846 -0.122972)
(1.05914 -0.109494 0.07269)
(1.45375 -0.262456 0.170089)
(1.35161 -0.147682 -0.0601809)
(3.02185 -1.34744 0.108785)
(0.837107 0.671438 0.917419)
(1.84677 0.579794 -1.0306)
(3.38355 -0.86289 0.00875911)
(1.36342 -0.585766 0.0462155)
(1.68904 -0.0125676 -0.179186)
(1.39702 0.742587 -0.0343923)
(0.329714 0.111197 0.324225)
(0.274564 0.689245 0.053332)
(0.750117 0.549798 -0.0436052)
(1.35021 -0.00451849 -0.0492514)
(0.0599431 -0.548777 0.157017)
(1.16279 0.476419 -0.0822857)
(0.115883 -0.161758 0.0989952)
(0.828078 -0.934912 -0.314973)
(0.185687 0.145977 0.237924)
(0.827789 0.693437 0.0621897)
(0.854293 -0.204449 -0.254033)
(1.70802 0.0235972 0.566782)
(1.09636 -0.113974 -0.0502346)
(1.0882 -0.461075 0.129705)
(1.28435 0.348466 -0.0800227)
(1.53357 0.0449772 -0.113207)
(1.7736 -0.0303303 0.141379)
(0.901252 -0.387536 0.129821)
(1.18321 0.21812 -0.0429059)
(1.37977 0.0570801 -0.122758)
(1.61097 -0.209392 0.103642)
(0.605872 -0.645151 0.0897603)
(1.92169 -0.102334 -0.0782144)
(1.7778 -0.7421 0.510273)
(1.16441 0.592171 -0.290491)
(1.47465 -0.148022 -0.163251)
(1.42651 0.370826 -0.163931)
(0.961953 -0.530712 0.172709)
(1.73076 -0.107158 0.282628)
(2.07536 0.197876 0.466629)
(0.770823 0.420198 -0.134797)
(1.54951 0.640856 -0.0729985)
(1.29539 -0.674495 0.0661572)
(-3.04884 -1.61955 0.163681)
(5.63921 0.144815 3.8221)
(4.46602 2.80476 -3.3714)
(-1.76321 -0.942673 -0.176625)
(1.25299 -0.328618 -0.113793)
(1.85163 -0.737981 -0.0371524)
(0.75597 0.252311 0.113245)
(2.14285 0.698105 0.127218)
(1.02146 -0.706172 0.0939473)
(2.27855 -0.171506 -0.146247)
(0.491702 -0.105603 0.119303)
(1.09197 1.10411 -0.051475)
(1.07408 0.0629878 0.137367)
(1.09269 0.405398 0.731547)
(1.16327 0.0402867 -0.797247)
(1.14222 -0.0844126 -0.0941786)
(1.24034 0.232465 -0.188342)
(1.36894 0.206851 -0.141149)
(0.865765 -0.273888 0.151899)
(1.69537 -0.250347 0.270765)
(1.09086 3.23216 -0.0666093)
(-3.26697 0.257904 0.162264)
(1.26688 -1.07458 0.257382)
(1.06531 0.364318 -0.15339)
(1.0865 0.119287 0.103455)
(1.54006 -0.249933 -0.117875)
(1.07241 0.434337 0.260126)
(1.62086 0.531954 -0.0918433)
(1.15918 -0.0452786 0.156844)
(1.27892 0.304007 0.014773)
(1.70289 0.075366 -0.148437)
(1.40853 -0.221535 0.0100765)
(1.24293 -0.638032 0.716961)
(3.57723 0.680242 0.34862)
(2.87422 1.66584 -0.0556774)
(1.82021 -0.692272 -0.705957)
(1.91615 0.703202 -0.066458)
(1.56056 0.358987 0.292403)
(1.52573 -0.230279 -0.117811)
(1.48794 0.86255 0.0721153)
(0.984586 0.70605 0.11216)
(3.62538 0.635738 0.10125)
(1.94241 -1.97904 -0.11182)
(1.1037 -0.265816 -0.0897911)
(1.53489 -0.260654 -0.0765488)
(1.08332 0.23198 0.201625)
(1.56552 0.0282983 0.0922403)
(1.4036 0.16799 -0.156253)
(1.52752 -0.264921 -0.097719)
(1.09584 -0.390968 0.200393)
(1.42541 0.413224 -0.132975)
(0.719727 0.0643111 0.0899968)
(-0.491565 -1.25706 0.436707)
(2.89332 0.30686 -2.40395)
(4.49445 -1.6335 2.6126)
(1.46307 0.735005 -0.479072)
(-7.91921 1.99962 -0.439684)
(1.68538 -3.20501 -0.560799)
(25.4993 -7.20364 -1.59839)
(10.7809 28.7992 0.570512)
(1.15901 0.128874 0.219125)
(1.25615 -0.422814 -0.00285612)
(1.30862 -0.112673 0.0309817)
(1.48902 0.0230923 -0.174699)
(1.25979 4.80366 -2.77198)
(5.91085 -1.31835 -0.23112)
(24.9338 -1.89382 0.231373)
(1.20495 -12.7152 4.60228)
(-1.11785 1.66139 -0.26482)
(3.97783 2.55981 -0.132205)
(11.7164 12.569 0.133944)
(8.25213 -5.27704 0.974056)
(1.28975 -0.134894 0.0971126)
(1.67682 -0.0311136 -0.119859)
(1.24006 0.300718 -0.0613589)
(1.21687 -0.0816014 0.111249)
(4.72994 -1.26614 -1.50872)
(0.983875 0.576821 1.63993)
(1.59797 0.00564602 -1.33086)
(2.99491 2.31391 1.11412)
(0.903888 0.499719 0.325365)
(1.54616 0.348011 -0.0595913)
(1.49826 -0.219159 -0.146723)
(0.924979 -0.238631 0.0733114)
(1.06236 -0.0165722 0.142777)
(1.43662 -0.216237 -0.0741038)
(1.01992 0.00210071 0.082082)
(1.28804 0.388373 -0.107595)
(1.48886 -0.147458 -0.109632)
(1.13378 -0.0345526 0.12235)
(1.33116 0.310281 -0.0732656)
(1.21657 -0.0370039 0.100559)
(1.62805 -0.329251 -0.188015)
(1.1953 0.591432 -0.0771326)
(0.84214 -0.485622 0.129965)
(0.574189 0.0174512 0.161805)
(0.872659 0.610476 0.290501)
(1.93364 0.304454 -0.0783741)
(1.1924 -0.388849 0.0918425)
(1.5827 -0.274081 -0.138105)
(1.03774 -0.104664 -0.00304152)
(1.6743 0.0450898 0.0534512)
(1.13393 0.354825 0.0958336)
(1.33659 -0.209707 -0.0835715)
(1.1812 -0.129718 0.0634379)
(2.11456 -0.175434 -0.0331699)
(1.26095 0.594942 0.108743)
(1.27554 -0.215774 -0.0991834)
(1.54901 -0.0685541 -0.177385)
(1.23293 0.155585 -0.075854)
(1.34578 -0.0484828 0.175175)
(1.21748 -0.0358779 0.107901)
(1.76028 0.45021 -0.00342301)
(1.60265 -0.292173 -0.1505)
(0.950493 -0.301838 0.00754851)
(0.823638 0.615941 0.266913)
(1.20976 0.147509 0.171304)
(1.41709 -0.0729907 0.0800389)
(1.46911 -0.246262 -0.0662235)
(1.3917 0.17721 -0.127738)
(1.10989 0.0147584 0.149192)
(1.23985 0.359619 -0.0210788)
(1.72873 0.0520823 -0.197432)
(1.28267 -0.245332 0.0595668)
(1.05002 0.198204 0.0552412)
(1.11076 0.0229357 -0.242167)
(1.57237 -0.0821741 0.567701)
(0.987956 -0.218594 -0.0386109)
(1.28181 2.64591 -0.246546)
(3.23244 -2.08496 -0.778114)
(2.04503 -6.71182 1.1584)
(-2.81028 5.07969 0.391517)
(1.58356 -0.0550647 -0.151092)
(1.26561 0.0108931 0.158289)
(1.18762 0.240437 -0.0596167)
(1.13092 -0.0556382 0.0856927)
(1.14392 0.172554 0.22356)
(1.26893 0.00895406 0.0313113)
(1.42944 0.153939 -0.161502)
(1.30505 -0.261186 -0.0140046)
(0.682051 -0.450967 0.136417)
(0.79612 0.700984 0.259071)
(1.72166 -0.468733 -0.200941)
(1.78489 0.484375 -0.112234)
(3.07594 0.00112761 0.0104716)
(1.20625 2.01218 0.0987097)
(-0.740334 -2.09728 -0.775721)
(0.947966 -0.476593 0.665177)
(1.62837 -0.168354 0.594771)
(0.66518 1.28369 1.1902)
(1.44961 0.299608 -0.605358)
(0.532378 0.818246 -1.05135)
(1.59634 0.0972503 -0.206199)
(1.50026 -0.0185309 0.0123693)
(1.12191 0.27828 0.246065)
(1.35722 -0.444837 0.0165428)
(1.70055 -0.133311 -0.079837)
(0.93816 -0.36558 0.163199)
(1.00955 0.17315 0.0751578)
(1.25323 0.311216 -0.107354)
(1.75725 -0.0440322 -0.325198)
(1.75461 0.0489786 0.174895)
(1.41942 -0.445737 -0.128121)
(1.1824 0.294872 0.340323)
(0.602124 0.292011 0.189176)
(1.25898 0.648869 -0.0369985)
(1.94094 -0.363656 -0.246285)
(0.600102 -0.703975 0.0612063)
(0.578109 -0.242305 0.000877327)
(1.8619 0.889094 -0.121202)
(1.15103 -0.810597 0.273694)
(2.25309 -0.921328 -0.0180718)
(1.43084 0.0444929 -0.348429)
(2.04371 -0.120825 -0.0104746)
(1.07432 0.405381 0.348566)
(1.72102 -0.358174 0.0493451)
(0.599196 0.200895 0.20077)
(0.793703 -0.452352 0.0783432)
(1.21217 0.642104 -0.0529738)
(1.68715 -0.218404 -0.26614)
(0.823455 1.20918 -0.0174164)
(2.90017 0.815408 -0.577529)
(1.65469 -1.24414 0.0474803)
(0.4514 -0.0649292 0.413702)
(1.07406 0.198798 0.21701)
(1.53314 -0.382729 -0.0602339)
(1.54915 -0.0213918 0.068274)
(1.45217 0.138954 -0.153179)
(0.577734 0.585851 -0.0494758)
(0.734974 0.217694 -0.374584)
(1.40209 0.643421 0.375749)
(0.196282 1.00104 0.151599)
(1.41543 0.0108267 -0.172809)
(1.37148 0.0283167 0.00102762)
(1.22528 -0.272681 0.0266412)
(1.09271 0.222181 0.209983)
(1.20233 -0.0858526 -0.62423)
(0.649655 -0.459282 0.2347)
(1.92722 -0.456487 0.745698)
(1.02518 0.333195 -0.229285)
(-1.18479 -1.9101 0.443882)
(2.14645 -1.25813 -0.229709)
(0.891724 1.361 0.424206)
(1.84793 -0.740314 -0.42262)
(1.0591 1.13617 0.633564)
(1.69162 -1.26305 0.167323)
(2.9895 -0.759576 -0.0831231)
(1.89725 -0.193834 -0.684548)
(1.05207 0.166736 0.109557)
(1.07852 -0.217636 -0.573573)
(0.877866 0.207345 0.51317)
(1.30476 0.0749145 -0.0332474)
(2.25087 0.0544936 0.752846)
(1.48702 0.285692 -0.659643)
(1.54861 0.385393 -0.136484)
(1.24207 -0.414896 0.133544)
(1.71012 -0.539686 -0.117224)
(1.5463 0.678595 -0.146577)
(0.547848 -0.0112048 0.106303)
(0.994042 -0.492796 0.284883)
(1.62479 -0.466968 -0.0825932)
(1.03559 -0.560108 0.238626)
(1.50612 0.518404 -0.124892)
(0.547476 0.00614401 0.0748183)
(2.45091 0.225157 3.68618)
(0.129012 -5.29759 -0.76418)
(-3.39201 5.17731 -2.74719)
(5.36788 1.65833 0.757203)
(1.5232 0.286223 -0.140509)
(1.2339 -0.0661735 0.208136)
(1.57687 -0.268016 -0.046375)
(1.18004 -0.000131438 0.0489564)
(1.14741 0.127789 0.185598)
(1.40824 0.127699 -0.149835)
(1.34506 -0.0394789 0.0848831)
(1.38904 -0.279574 -0.0499599)
(2.05056 0.221646 0.534241)
(0.493072 0.0246616 -0.248371)
(0.96932 1.1304 0.00939279)
(1.17768 -0.391564 0.00235411)
(1.53248 -0.390174 -0.00132471)
(1.78487 0.521797 0.757267)
(0.746757 0.745571 0.00428269)
(0.648835 -0.242661 -0.363137)
(0.75849 -0.337422 0.527818)
(0.888153 0.321424 0.0600174)
(1.56302 0.227132 -0.289391)
(1.49695 -0.492863 -0.0526834)
(4.90712 3.26679 -1.06782)
(-1.89094 -1.86138 -1.56547)
(2.52136 1.90724 1.25397)
(-0.697502 0.240751 2.04999)
(0.408145 0.368436 0.130157)
(0.659954 -0.740495 0.138708)
(1.21963 0.504998 -0.0815627)
(1.64587 -0.190331 -0.147474)
(0.423317 -0.371084 0.501782)
(2.02786 0.25686 -0.286294)
(1.55466 -0.83659 -0.00687532)
(0.906107 0.741586 0.0180105)
(0.565157 -0.61336 0.082746)
(2.02704 -0.333754 -0.211061)
(0.483111 0.291484 0.165126)
(1.18585 0.96309 -0.0478135)
(0.406005 0.492825 0.0732304)
(1.16349 0.793929 0.102456)
(1.90568 -0.578142 -0.0673348)
(0.0924291 -0.66747 -0.0920821)
(0.360609 1.05535 1.11226)
(0.137256 -0.431979 -0.0781357)
(1.07483 -0.502029 -0.476391)
(1.71111 0.25541 0.0861632)
(2.21662 0.1122 0.665272)
(0.507123 -0.298536 -0.363592)
(-1.6881 -0.199334 -0.57921)
(0.649534 -4.18918 0.372345)
(0.331348 -0.787148 0.346703)
(2.65484 -0.835108 1.5831)
(1.08128 0.234186 -0.352238)
(1.65268 -0.167821 -1.41258)
(1.42269 -0.0941423 -0.157652)
(1.47812 0.127899 0.138135)
(1.35998 -0.264913 0.177302)
(1.32311 0.183178 -0.11652)
(1.19508 -0.00134127 -0.0362285)
(1.92157 -0.188665 0.398811)
(0.990727 0.624876 0.0323789)
(1.2588 -0.441328 -0.304993)
(0.665597 -0.61694 0.208649)
(1.7331 -0.376146 -0.221096)
(2.00629 0.41571 -0.193942)
(0.737655 0.936054 0.260661)
(2.35193 -0.269121 0.516179)
(1.04805 -0.253857 -0.0764559)
(1.44087 0.0126317 0.0599956)
(1.94358 0.0754667 -0.42814)
(1.64021 0.185137 0.369009)
(0.980641 -0.0178553 0.00182704)
(1.7055 0.662731 -0.0152816)
(1.01246 0.654284 -0.319995)
(0.948008 -0.575484 0.157629)
(1.39685 -0.26406 -0.0993912)
(1.15764 0.569478 0.337345)
(1.6045 0.0181002 -0.357772)
(0.983534 0.292011 0.25676)
(1.35056 -0.0320806 -0.143986)
(1.46207 0.163489 -0.0484705)
(1.23113 -0.202653 0.0591306)
(1.47286 -0.107315 -0.0865684)
(1.44001 -0.0962045 -0.0235229)
(1.4553 -0.113631 0.064047)
(1.35973 -0.180826 0.101219)
(0.340898 -0.911994 0.229289)
(2.14204 -0.447248 -0.0839994)
(1.66272 0.0565928 -0.205108)
(1.15957 0.837573 0.133691)
(1.01008 0.759559 0.237375)
(1.80159 -0.261674 -0.128692)
(0.84483 -0.333907 0.0815084)
(1.7792 0.408883 -0.0694444)
(0.710628 -0.723999 0.159285)
(0.911926 0.450392 -0.0018081)
(1.5666 0.0497467 -0.146686)
(1.70553 -0.373302 0.0724163)
(1.06244 -0.24406 -0.0689939)
(0.975972 0.0337712 -0.133649)
(1.7311 -0.129443 0.370639)
(1.19973 0.448877 0.0844503)
(1.1784 0.267229 0.159929)
(1.38056 -0.228595 -0.0909359)
(1.58779 -0.175307 0.127115)
(1.25351 0.0377601 -0.135897)
(1.28935 0.069054 0.15655)
(1.35223 -0.0870442 0.0982264)
(1.36716 0.232712 -0.12601)
(1.52463 -0.146546 -0.0821832)
(1.49943 -0.128507 0.10828)
(1.33397 0.200549 -0.0391835)
(0.881647 -0.17837 0.149804)
(1.26765 0.0276551 -0.141546)
(1.14612 1.16775 0.0266837)
(2.22978 -0.295961 -0.0540794)
(0.250362 -0.705235 -0.010828)
(0.384615 0.589022 0.0475111)
(0.341051 0.203251 -0.0982808)
(2.21023 -0.777422 0.113168)
(0.320143 -0.92128 0.0688231)
(1.27379 0.981154 -0.0415588)
(1.69293 0.241074 -0.112248)
(1.50332 -0.338606 -0.0986304)
(0.650557 -0.469538 0.134131)
(0.770075 0.782886 0.215624)
(1.02148 0.446172 0.0609397)
(0.691333 -0.60962 0.151555)
(1.50647 0.218633 -0.14332)
(1.82956 -0.301905 -0.026129)
(1.42473 -0.114469 -0.107494)
(1.00551 -0.148238 0.127407)
(1.00635 0.145266 0.113439)
(1.25774 0.259819 -0.0886965)
(1.2729 0.266322 -0.0946105)
(1.08998 -0.137962 0.135545)
(1.06328 -0.00622789 0.159243)
(1.46326 -0.190641 -0.168791)
(1.42657 -0.221821 0.0433106)
(1.10782 0.252561 -0.0167385)
(1.11374 -0.0515804 0.190459)
(1.59531 0.264268 -0.212994)
(1.65227 -0.450055 -0.112596)
(1.70838 0.386212 -0.0805071)
(0.924865 0.968732 0.234576)
(0.318594 -0.29724 0.0920872)
(0.919706 -0.0287069 0.0764984)
(2.31083 -0.446349 -0.142266)
(1.31367 -0.336414 -0.0703346)
(1.65798 0.930106 0.0787232)
(2.37728 1.51314 0.16044)
(2.19642 -1.67893 -0.716853)
(-0.839136 -1.13432 -0.460055)
(-0.410932 1.44902 0.771985)
(1.27966 0.92899 0.87373)
(1.64933 0.0240624 -0.891719)
(0.11656 -1.19919 0.624752)
(0.907507 -0.837542 -0.558453)
(1.16061 0.260872 0.0541933)
(1.22706 0.606303 0.364743)
(1.76322 0.498272 -0.046039)
(1.52462 -0.141434 -0.138312)
(0.0340663 -0.838937 0.4052)
(2.14698 0.208046 -0.374745)
(0.721774 1.32558 0.543107)
(1.78502 -0.420297 -0.47986)
(1.18144 0.771264 0.832195)
(1.15591 -1.1036 0.339071)
(1.75284 -0.171144 -0.837252)
(1.78925 -0.671059 -0.268127)
(1.0604 -1.55696 0.44766)
(-0.699306 -0.33558 -0.79189)
(0.188505 2.27299 -0.417516)
(3.12837 0.505229 1.77096)
(0.427995 -0.242949 -0.761675)
(1.37193 -0.343054 0.293026)
(1.63414 0.0833539 0.935867)
(1.49074 0.820771 -0.300949)
(0.997996 1.36063 0.382656)
(-0.245607 -0.953985 0.396664)
(1.97582 -0.856844 -0.329482)
(2.36977 0.224243 -0.364324)
(0.848857 -0.482244 0.343841)
(1.25088 1.13054 0.609882)
(2.90704 0.472433 -0.338641)
(2.35475 -0.765884 -0.577165)
(1.40847 -0.209042 -0.245824)
(1.52457 -0.0538513 0.0056149)
(1.10037 0.373028 0.273181)
(1.02304 -0.30714 0.0423094)
(1.15513 0.607849 -0.122561)
(1.42627 -0.564476 0.321763)
(1.20543 -0.774481 0.243175)
(0.136025 -0.483123 -0.323883)
(1.31397 1.51378 0.156461)
(0.216098 0.356239 0.344118)
(2.32333 -0.109287 -0.299583)
(0.874167 -0.703344 -0.0474349)
(0.992346 -0.232708 -0.33161)
(2.18824 -0.777497 0.449098)
(1.48681 0.0766067 0.318466)
(1.75905 -0.188469 -0.394106)
(0.87739 -0.381392 -0.135147)
(2.6398 -3.6111 -0.302416)
(5.43865 1.52851 0.142704)
(0.620026 1.22616 0.163124)
(1.97567 0.0484368 0.452629)
(2.08609 1.82359 0.125637)
(1.12356 -0.0719624 -0.146031)
(1.99419 0.796249 -0.117057)
(1.37721 -0.169112 -0.315201)
(1.38781 -0.145472 0.0140466)
(1.18158 -0.00285498 0.0854264)
(1.47885 0.0927758 0.285827)
(1.2283 0.0227369 0.141257)
(1.32064 -0.0186235 0.0921024)
(1.46817 0.0237356 -0.0452529)
(1.38331 -0.213941 -0.0814483)
(0.839057 -0.349345 0.12944)
(1.15719 0.169849 -0.0187415)
(1.47101 0.0877747 -0.120711)
(1.55975 -0.406047 0.0370917)
(1.64657 -0.140674 -0.149747)
(1.06432 0.533282 0.23227)
(0.884876 -0.335365 0.0739565)
(1.47171 0.219365 -0.0548812)
(1.1052 -0.455264 -0.145439)
(1.70212 -1.37132 -0.154866)
(1.23335 0.20396 0.0820946)
(2.50053 -0.126336 0.152207)
(0.643463 0.720517 0.13154)
(2.00226 0.647765 -0.120259)
(1.41473 -0.370975 -0.175612)
(1.40401 1.21293 0.520894)
(1.24723 0.614218 -0.045713)
(0.938821 -0.495942 0.175113)
(1.7124 -0.0455027 0.107102)
(1.6658 -0.0182513 -0.165033)
(1.05736 0.252681 0.249697)
(1.12138 -0.262323 0.0220767)
(1.56266 -0.169099 -0.134745)
(1.47964 0.223599 -0.0156605)
(0.729859 0.0932965 0.255628)
(1.24141 0.713934 0.0366394)
(1.21102 -0.542412 -0.0153762)
(1.97422 0.0841892 -0.406123)
(1.42236 -0.126682 0.0363506)
(1.23674 0.222921 -0.0109766)
(1.67545 0.108603 -0.153475)
(1.30619 -0.0562364 0.159123)
(0.881875 -0.531709 0.161589)
(1.30378 0.350389 -0.0241711)
(1.81092 -0.0262629 0.0587492)
(1.33239 -0.020899 -0.148178)
(0.763328 0.452361 0.35739)
(1.20078 -0.321299 0.0445262)
(1.55711 -0.150893 -0.17496)
(1.68469 0.462317 -0.0346626)
(0.659785 0.0840337 0.146073)
(1.59764 -0.313009 -0.170137)
(0.887605 -0.414506 0.111608)
(1.2805 0.536164 -0.0698581)
(1.90836 -0.408319 -0.0780662)
(0.332709 -0.48945 0.114594)
(1.7134 0.522408 -0.10465)
(0.831621 0.993375 0.171423)
(1.81626 -0.285825 -0.153218)
(0.685479 0.203266 0.126485)
(0.736165 -0.554282 0.134127)
(1.24045 0.583819 -0.0709814)
(1.47293 0.0119509 0.193066)
(1.29648 0.162099 0.063328)
(1.15914 0.0994953 -0.0642007)
(1.2373 -0.129821 -0.0473588)
(1.27081 -0.226406 -0.253637)
(1.67646 0.018412 0.0375058)
(1.18792 -0.206869 0.00837003)
(0.98814 0.30572 0.271069)
(1.3391 0.0238169 -0.103641)
(0.77143 0.260023 -0.0393518)
(1.71386 -0.0991316 0.0800788)
(0.91858 -0.9184 0.119869)
(1.23812 -0.356804 0.0107721)
(1.32028 0.112933 0.00223903)
(0.939392 0.118567 0.25251)
(1.4049 -0.0328226 -0.160358)
(0.765573 -0.0611263 0.00233266)
(1.2488 -0.939859 0.1289)
(1.77581 0.0185341 0.0402745)
(1.29917 0.0757549 -0.116749)
(1.05271 0.529275 -0.1244)
(0.979077 -0.716513 0.242572)
(1.32681 0.0648187 0.10109)
(0.199866 0.155196 -0.0986678)
(1.76425 0.407131 -0.0972187)
(1.69707 -0.345266 -0.136987)
(0.882729 -0.419951 0.114586)
(0.843563 0.628459 0.242905)
(1.42493 -0.0268149 -0.068448)
(1.00289 0.19697 0.149724)
(1.2015 -0.321798 0.145875)
(1.34788 0.046318 -0.137771)
(2.04143 -0.101789 0.239387)
(1.08497 0.741556 0.0742103)
(0.938982 -0.143445 -0.100881)
(1.17741 -0.256321 -0.0612238)
(1.09322 -0.581325 0.246126)
(0.463683 -0.0529078 0.0209652)
(1.82462 -0.3482 -0.0182118)
(1.36921 0.791945 -0.145774)