/*--------------------------------*- C++ -*----------------------------------*\
| =========                 |                                                 |
| \\      /  F ield         | foam-extend: Open Source CFD                    |
|  \\    /   O peration     | Version:  3.0                                   |
|   \\  /    A nd           | Web:         http://www.extend-project.de       |
|    \\/     M anipulation  |                                                 |
\*---------------------------------------------------------------------------*/
FoamFile
{
    version     2.0;
    format      ascii;
    class       volScalarField;
    location    "4.0003";
    object      p;
}
// * * * * * * * * * * * * * * * * * * * * * * * * * * * * * * * * * * * * * //

dimensions      [0 0 0 0 0 0 0];

internalField   nonuniform List<scalar> 
168
(
150872
148980
206143
98050.3
152125
-108920
143307
141510
195807
93133.9
144497
-103458
128556
126944
175652
83547.3
129624
-92809
107359
106012
146689
69771.3
108250
-77506
80778
79765
110371
52496.6
81449
-58316.5
50146.8
49517.9
68517.9
32589.6
50563.5
-36202.8
17000.9
16787.6
23229.3
11048.4
17142.5
-12273.7
-16997.4
-16784.4
-23224.1
-11046.8
-17138
12270.8
-50143.5
-49514.7
-68513
-32588.1
-50559.2
36200.1
-80775.1
-79762.2
-110366
-52495.3
-81445.2
58314.1
-107356
-106010
-146685
-69770.1
-108247
77503.9
-128554
-126942
-175649
-83546.4
-129621
92807.5
-143306
-141509
-195805
-93133.3
-144495
103457
-150872
-148980
-206142
-98050.2
-152124
108919
-150872
-148980
-206143
-98050.3
-152125
108920
-143307
-141510
-195807
-93133.9
-144497
103458
-128556
-126944
-175652
-83547.3
-129624
92809
-107359
-106012
-146689
-69771.3
-108250
77506
-80778
-79765
-110371
-52496.6
-81449
58316.5
-50146.8
-49517.9
-68517.9
-32589.6
-50563.5
36202.8
-17000.9
-16787.6
-23229.3
-11048.4
-17142.5
12273.7
16997.4
16784.4
23224.1
11046.8
17138
-12270.8
50143.5
49514.7
68513
32588.1
50559.2
-36200.1
80775.1
79762.2
110366
52495.3
81445.2
-58314.1
107356
106010
146685
69770.1
108247
-77503.9
128554
126942
175649
83546.4
129621
-92807.5
143306
141509
195805
93133.3
144495
-103457
150872
148980
206142
98050.2
152124
-108919
)
;

boundaryField
{
    out
    {
        type            implicitExtrapolation;
    }
    in
    {
        type            implicitExtrapolation;
    }
    frontAndBack
    {
        type            empty;
    }
}


// ************************************************************************* //
