/*--------------------------------*- C++ -*----------------------------------*\
| =========                 |                                                 |
| \\      /  F ield         | foam-extend: Open Source CFD                    |
|  \\    /   O peration     | Version:  3.0                                   |
|   \\  /    A nd           | Web:         http://www.extend-project.de       |
|    \\/     M anipulation  |                                                 |
\*---------------------------------------------------------------------------*/
FoamFile
{
    version     2.0;
    format      ascii;
    class       volSymmTensorField;
    location    "4.0003";
    object      sigma;
}
// * * * * * * * * * * * * * * * * * * * * * * * * * * * * * * * * * * * * * //

dimensions      [0 0 0 0 0 0 0];

internalField   nonuniform List<symmTensor> 
168
(
(-10.5701 -3.43907 -2.32208e-16 141.278 -6.59832e-16 -130.707)
(110.11 -14.9161 3.01469e-16 200.805 -2.8236e-15 -310.916)
(328.191 13.2629 1.87073e-15 122.892 -3.6946e-15 -451.083)
(468.832 9.59311 -1.21245e-15 195.865 1.10134e-15 -664.696)
(-35.1031 -49.172 -1.69688e-15 210.456 3.75019e-16 -175.353)
(-589.679 -118.314 -1.47671e-16 358.322 3.42658e-16 231.357)
(-18.3702 -13.0554 -3.03391e-16 142.524 -1.57536e-15 -124.154)
(120.553 -38.4152 -1.06889e-15 174.772 -3.95198e-15 -295.326)
(308.974 38.1552 3.60927e-15 119.491 -3.14524e-15 -428.465)
(454.743 31.5902 4.55169e-15 176.624 -6.48941e-15 -631.368)
(24.1853 -124.925 -3.58414e-15 142.376 -1.60528e-15 -166.561)
(-454.453 -312.04 -1.2902e-15 234.696 -1.3841e-15 219.757)
(-29.9449 -29.4902 1.91266e-16 141.319 -2.36197e-15 -111.374)
(133.95 -45.667 -3.16345e-15 130.977 2.33428e-15 -264.927)
(272.708 58.6579 -2.27704e-15 111.654 1.06254e-15 -384.362)
(423.163 60.4541 3.59494e-15 143.217 7.08157e-15 -566.379)
(114.688 -142.808 3.45789e-15 34.7287 2.74634e-15 -149.417)
(-236.88 -395.337 -1.25572e-15 39.7427 8.57745e-16 197.137)
(-39.03 -53.217 -5.36629e-16 132.04 1.69484e-15 -93.0099)
(138.737 -33.8217 4.91861e-16 82.5073 3.29997e-15 -221.244)
(223.095 73.3131 6.01565e-17 97.8913 2.57484e-15 -320.986)
(369.245 96.2044 -6.04804e-16 103.745 1.38344e-15 -472.991)
(192.616 -92.9634 2.11505e-16 -67.8361 -3.00472e-15 -124.78)
(-19.961 -347.572 9.27106e-16 -144.671 -2.15695e-16 164.632)
(-39.9171 -80.5163 -1.93668e-15 109.899 1.58234e-15 -69.9818)
(124.607 -8.32065 8.84502e-16 41.8599 -3.31657e-16 -166.467)
(164.362 82.224 -2.10277e-15 77.1516 -5.14318e-16 -241.514)
(289.755 134.188 2.24171e-15 66.1292 -1.83232e-15 -355.884)
(217.789 4.64026 2.06961e-15 -123.902 2.30031e-15 -93.8869)
(118.805 -203.222 1.98151e-15 -242.677 7.09195e-16 123.872)
(-30.0319 -104.767 2.29696e-16 73.4765 2.90334e-16 -43.4446)
(87.4215 19.4916 -4.91033e-16 15.9206 2.17389e-16 -103.342)
(100.294 86.6845 -7.45265e-16 49.6371 3.39686e-16 -149.931)
(185.817 166.56 -3.05757e-15 35.1149 -1.15602e-15 -220.932)
(171.476 108.836 -1.89248e-15 -113.19 -2.87844e-16 -58.2856)
(140.377 -36.1472 -8.41018e-16 -217.277 -2.0469e-16 76.9001)
(-11.1674 -119.068 7.89704e-16 25.8962 7.62774e-17 -14.7288)
(31.5314 37.328 3.39942e-16 3.50412 -3.46836e-17 -35.0355)
(33.6733 88.3542 1.50975e-15 17.1572 -4.38666e-16 -50.8305)
(64.1109 185.271 5.85274e-16 10.7906 -7.63876e-16 -74.9014)
(64.9562 175.148 -2.62763e-16 -45.1945 -7.36362e-17 -19.7616)
(60.125 73.1853 -2.88466e-16 -86.1972 -2.76186e-17 26.0722)
(11.1722 -119.067 6.55809e-16 -25.8978 1.75431e-16 14.7256)
(-31.5262 37.3284 -2.52646e-16 -3.5017 -1.04363e-16 35.0279)
(-33.6701 88.3539 5.7228e-16 -17.149 -9.26711e-16 50.8191)
(-64.1066 185.27 1.29057e-15 -10.7784 -1.22348e-16 74.885)
(-64.951 175.148 1.41246e-16 45.1978 5.65394e-16 19.7533)
(-60.1155 73.1889 -2.34945e-16 86.1786 1.58833e-16 -26.0631)
(30.0367 -104.766 2.82496e-17 -73.4782 1.81151e-16 43.4415)
(-87.417 19.4926 -1.65284e-15 -15.9179 1.18387e-16 103.335)
(-100.291 86.6837 -1.04065e-15 -49.6293 -1.98643e-15 149.92)
(-185.813 166.559 -2.26509e-15 -35.1032 -1.90209e-15 220.916)
(-171.472 108.838 -1.61933e-16 113.194 1.82521e-15 58.2777)
(-140.371 -36.1379 -7.7022e-16 217.263 8.05998e-16 -76.8915)
(39.9218 -80.5149 -1.69256e-15 -109.901 -7.4655e-16 69.9791)
(-124.603 -8.31939 1.55164e-15 -41.8569 1.42056e-15 166.46)
(-164.359 82.2227 -1.64837e-16 -77.1447 6.02862e-16 241.504)
(-289.751 134.186 3.71101e-15 -66.1186 -2.4075e-15 355.87)
(-217.788 4.64221 2.77984e-15 123.908 -1.85148e-15 93.8798)
(-118.805 -203.211 1.23428e-15 242.67 7.41235e-16 -123.864)
(39.0343 -53.2147 5.19906e-16 -132.042 -9.3849e-16 93.0077)
(-138.735 -33.8207 3.14278e-15 -82.5041 -3.33734e-16 221.239)
(-223.092 73.3113 6.12856e-16 -97.8855 -7.33068e-16 320.978)
(-369.242 96.2016 7.39252e-16 -103.736 1.49184e-15 472.979)
(-192.617 -92.9626 -2.57723e-15 67.8424 3.63325e-17 124.774)
(19.9557 -347.561 5.28933e-16 144.67 -5.21128e-16 -164.626)
(29.9484 -29.487 1.59862e-15 -141.321 2.32031e-15 111.372)
(-133.949 -45.6666 -1.2549e-15 -130.974 -6.60783e-16 264.923)
(-272.706 58.6558 -2.97122e-15 -111.65 3.56618e-15 384.356)
(-423.161 60.4505 -4.2174e-15 -143.21 -4.16913e-15 566.371)
(-114.69 -142.809 2.76012e-15 -34.7225 -4.78513e-15 149.412)
(236.872 -395.331 8.14958e-16 -39.7395 -2.91386e-15 -197.132)
(18.3725 -13.0514 6.27908e-16 -142.525 6.60889e-16 124.153)
(-120.553 -38.4155 5.68537e-16 -174.77 1.63805e-15 295.323)
(-308.973 38.1528 6.08511e-16 -119.488 4.31461e-15 428.462)
(-454.742 31.5861 -3.07588e-15 -176.62 6.39205e-15 631.362)
(-24.187 -124.929 -6.04719e-16 -142.371 2.58542e-15 166.558)
(454.446 -312.039 -3.42277e-16 -234.692 7.57337e-16 -219.754)
(10.5709 -3.43467 6.03137e-17 -141.278 -6.99373e-16 130.707)
(-110.11 -14.9168 6.03029e-16 -200.805 -7.87834e-16 310.915)
(-328.191 13.2604 4.58234e-16 -122.891 -1.02167e-15 451.082)
(-468.831 9.58866 -2.28125e-15 -195.863 1.39245e-15 664.694)
(35.1024 -49.1766 -6.40063e-16 -210.454 1.17407e-15 175.352)
(589.676 -118.316 -3.16273e-16 -358.32 8.94089e-16 -231.356)
(10.5701 3.43908 -2.32208e-16 -141.278 -6.59831e-16 130.707)
(-110.11 14.9161 3.01469e-16 -200.805 -2.8236e-15 310.916)
(-328.191 -13.2629 1.87073e-15 -122.892 -3.6946e-15 451.083)
(-468.832 -9.59313 -1.21245e-15 -195.865 1.10134e-15 664.696)
(35.1031 49.172 -1.69688e-15 -210.456 3.75019e-16 175.353)
(589.679 118.314 -1.47671e-16 -358.322 3.42658e-16 -231.357)
(18.3701 13.0554 -3.03392e-16 -142.524 -1.57536e-15 124.154)
(-120.553 38.4152 -1.06889e-15 -174.772 -3.95198e-15 295.326)
(-308.974 -38.1552 3.60927e-15 -119.491 -3.14524e-15 428.465)
(-454.743 -31.5902 4.55169e-15 -176.624 -6.48941e-15 631.368)
(-24.1853 124.925 -3.58414e-15 -142.376 -1.60528e-15 166.561)
(454.453 312.04 -1.2902e-15 -234.696 -1.3841e-15 -219.757)
(29.9449 29.4902 1.91266e-16 -141.319 -2.36197e-15 111.374)
(-133.95 45.667 -3.16345e-15 -130.977 2.33428e-15 264.927)
(-272.708 -58.6579 -2.27704e-15 -111.654 1.06254e-15 384.362)
(-423.163 -60.4541 3.59494e-15 -143.217 7.08157e-15 566.379)
(-114.688 142.808 3.45789e-15 -34.7287 2.74634e-15 149.417)
(236.88 395.337 -1.25572e-15 -39.7427 8.57745e-16 -197.137)
(39.03 53.217 -5.36629e-16 -132.04 1.69484e-15 93.0099)
(-138.737 33.8217 4.91861e-16 -82.5073 3.29997e-15 221.244)
(-223.095 -73.3131 6.01565e-17 -97.8913 2.57484e-15 320.986)
(-369.245 -96.2044 -6.04804e-16 -103.745 1.38344e-15 472.991)
(-192.616 92.9634 2.11505e-16 67.8361 -3.00472e-15 124.78)
(19.961 347.572 9.27106e-16 144.671 -2.15695e-16 -164.632)
(39.9171 80.5163 -1.93668e-15 -109.899 1.58234e-15 69.9818)
(-124.607 8.32065 8.84502e-16 -41.8599 -3.31657e-16 166.467)
(-164.362 -82.224 -2.10277e-15 -77.1516 -5.14318e-16 241.514)
(-289.755 -134.188 2.24171e-15 -66.1292 -1.83232e-15 355.884)
(-217.789 -4.64026 2.06961e-15 123.902 2.30031e-15 93.8869)
(-118.805 203.222 1.98151e-15 242.677 7.09195e-16 -123.872)
(30.0319 104.767 2.29696e-16 -73.4765 2.90334e-16 43.4446)
(-87.4215 -19.4916 -4.91033e-16 -15.9206 2.17389e-16 103.342)
(-100.294 -86.6845 -7.45265e-16 -49.6371 3.39686e-16 149.931)
(-185.817 -166.56 -3.05757e-15 -35.1149 -1.15602e-15 220.932)
(-171.476 -108.836 -1.89248e-15 113.19 -2.87844e-16 58.2856)
(-140.377 36.1472 -8.41018e-16 217.277 -2.0469e-16 -76.9001)
(11.1674 119.068 7.89704e-16 -25.8962 7.62774e-17 14.7288)
(-31.5314 -37.328 3.39942e-16 -3.50412 -3.46836e-17 35.0355)
(-33.6733 -88.3542 1.50975e-15 -17.1572 -4.38666e-16 50.8305)
(-64.1109 -185.271 5.85274e-16 -10.7906 -7.63876e-16 74.9014)
(-64.9562 -175.148 -2.62763e-16 45.1945 -7.36362e-17 19.7616)
(-60.125 -73.1853 -2.88466e-16 86.1972 -2.76186e-17 -26.0722)
(-11.1722 119.067 6.55809e-16 25.8978 1.75431e-16 -14.7256)
(31.5262 -37.3284 -2.52646e-16 3.5017 -1.04363e-16 -35.0279)
(33.6701 -88.3539 5.7228e-16 17.149 -9.26711e-16 -50.8191)
(64.1066 -185.27 1.29057e-15 10.7784 -1.22348e-16 -74.885)
(64.951 -175.148 1.41246e-16 -45.1978 5.65394e-16 -19.7533)
(60.1155 -73.1889 -2.34945e-16 -86.1786 1.58833e-16 26.0631)
(-30.0367 104.766 2.82496e-17 73.4782 1.81151e-16 -43.4415)
(87.417 -19.4926 -1.65284e-15 15.9179 1.18387e-16 -103.335)
(100.291 -86.6837 -1.04065e-15 49.6293 -1.98643e-15 -149.92)
(185.813 -166.559 -2.26509e-15 35.1032 -1.90209e-15 -220.916)
(171.472 -108.838 -1.61933e-16 -113.194 1.82521e-15 -58.2777)
(140.371 36.1379 -7.7022e-16 -217.263 8.05998e-16 76.8915)
(-39.9218 80.5149 -1.69256e-15 109.901 -7.4655e-16 -69.9791)
(124.603 8.31939 1.55164e-15 41.8569 1.42056e-15 -166.46)
(164.359 -82.2227 -1.64837e-16 77.1447 6.02862e-16 -241.504)
(289.751 -134.186 3.71101e-15 66.1186 -2.4075e-15 -355.87)
(217.788 -4.64221 2.77984e-15 -123.908 -1.85148e-15 -93.8798)
(118.805 203.211 1.23428e-15 -242.67 7.41235e-16 123.864)
(-39.0343 53.2147 5.19906e-16 132.042 -9.3849e-16 -93.0076)
(138.735 33.8207 3.14278e-15 82.5041 -3.33734e-16 -221.239)
(223.092 -73.3113 6.12856e-16 97.8855 -7.33068e-16 -320.978)
(369.242 -96.2016 7.39252e-16 103.736 1.49184e-15 -472.979)
(192.617 92.9626 -2.57723e-15 -67.8424 3.63325e-17 -124.774)
(-19.9557 347.561 5.28933e-16 -144.67 -5.21128e-16 164.626)
(-29.9485 29.4871 1.59862e-15 141.321 2.32031e-15 -111.372)
(133.949 45.6666 -1.2549e-15 130.974 -6.60783e-16 -264.923)
(272.706 -58.6558 -2.97122e-15 111.65 3.56618e-15 -384.356)
(423.161 -60.4505 -4.2174e-15 143.21 -4.16913e-15 -566.371)
(114.69 142.809 2.76012e-15 34.7225 -4.78513e-15 -149.412)
(-236.872 395.331 8.14958e-16 39.7395 -2.91386e-15 197.132)
(-18.3725 13.0514 6.27908e-16 142.525 6.60888e-16 -124.152)
(120.553 38.4155 5.68537e-16 174.77 1.63805e-15 -295.323)
(308.973 -38.1528 6.08511e-16 119.488 4.31461e-15 -428.462)
(454.742 -31.5861 -3.07588e-15 176.62 6.39205e-15 -631.362)
(24.187 124.929 -6.04719e-16 142.371 2.58542e-15 -166.558)
(-454.446 312.039 -3.42277e-16 234.692 7.57337e-16 219.754)
(-10.571 3.43472 6.03136e-17 141.278 -6.99374e-16 -130.707)
(110.11 14.9169 6.03029e-16 200.805 -7.87834e-16 -310.915)
(328.191 -13.2604 4.58234e-16 122.891 -1.02167e-15 -451.082)
(468.831 -9.58867 -2.28125e-15 195.863 1.39245e-15 -664.694)
(-35.1023 49.1766 -6.40063e-16 210.454 1.17407e-15 -175.352)
(-589.676 118.316 -3.16273e-16 358.32 8.94089e-16 231.356)
)
;

boundaryField
{
    out
    {
        type            mySigma;
    }
    in
    {
        type            mySigma;
    }
    frontAndBack
    {
        type            empty;
    }
}


// ************************************************************************* //
