/*--------------------------------*- C++ -*----------------------------------*\
| =========                 |                                                 |
| \\      /  F ield         | foam-extend: Open Source CFD                    |
|  \\    /   O peration     | Version:  3.0                                   |
|   \\  /    A nd           | Web:         http://www.extend-project.de       |
|    \\/     M anipulation  |                                                 |
\*---------------------------------------------------------------------------*/
FoamFile
{
    version     2.0;
    format      ascii;
    class       volScalarField;
    location    "15";
    object      p;
}
// * * * * * * * * * * * * * * * * * * * * * * * * * * * * * * * * * * * * * //

dimensions      [0 0 0 0 0 0 0];

internalField   nonuniform List<scalar> 
576
(
-6.79493
-6.82373
-5.35001
-5.34478
-4.61288
-4.59377
-4.29881
-4.22901
-4.23927
-4.13853
-4.31779
-4.29479
-6.67713
-6.70568
-5.25749
-5.25273
-4.53359
-4.51505
-4.2252
-4.15677
-4.16683
-4.06798
-4.24418
-4.22157
-6.4486
-6.47568
-5.07723
-5.07217
-4.37771
-4.35964
-4.07954
-4.01353
-4.02309
-3.9276
-4.09772
-4.07588
-6.10606
-6.1322
-4.80781
-4.80352
-4.14588
-4.12893
-3.86384
-3.80133
-3.81049
-3.7201
-3.88123
-3.86055
-5.66253
-5.68622
-4.4585
-4.45383
-3.84422
-3.82826
-3.58238
-3.52438
-3.53282
-3.44894
-3.59835
-3.57916
-5.11883
-5.1407
-4.03066
-4.02681
-3.47575
-3.46141
-3.23922
-3.18684
-3.19453
-3.11872
-3.25383
-3.23649
-4.49067
-4.5093
-3.53578
-3.53199
-3.04867
-3.03595
-2.84104
-2.79502
-2.80178
-2.73522
-2.85375
-2.83851
-3.78276
-3.79892
-2.97879
-2.97579
-2.56867
-2.55805
-2.39387
-2.35515
-2.36088
-2.30481
-2.4047
-2.39187
-3.01273
-3.02514
-2.37211
-2.36953
-2.04533
-2.03681
-1.90606
-1.87518
-1.87976
-1.83509
-1.91463
-1.9044
-2.18899
-2.19829
-1.72381
-1.72204
-1.48649
-1.48035
-1.38537
-1.36295
-1.36631
-1.33385
-1.39168
-1.38425
-1.32945
-1.33486
-1.04679
-1.04563
-0.902623
-0.898864
-0.841198
-0.827565
-0.829611
-0.809912
-0.84501
-0.840502
-0.44599
-0.447823
-0.351289
-0.350894
-0.303002
-0.301762
-0.282449
-0.277896
-0.278603
-0.272034
-0.283809
-0.282312
0.444344
0.446358
0.349816
0.349546
0.301573
0.300329
0.281007
0.276421
0.2771
0.270433
0.282202
0.280665
1.32752
1.33324
1.0452
1.04421
0.901144
0.897394
0.839752
0.826069
0.828119
0.808312
0.843416
0.838867
2.18774
2.19711
1.72253
1.72088
1.48521
1.47903
1.38408
1.36154
1.36494
1.33233
1.39018
1.3827
3.01065
3.02351
2.37048
2.36818
2.04391
2.03539
1.90477
1.87373
1.87843
1.83357
1.91317
1.90288
3.782
3.79811
2.97783
2.97492
2.56763
2.5569
2.39285
2.35384
2.35977
2.30343
2.40342
2.39051
4.48866
4.50776
3.53426
3.53077
3.04743
3.03467
2.84
2.79369
2.80073
2.73389
2.85255
2.83723
5.1185
5.14026
4.0302
4.0262
3.47508
3.4605
3.23856
3.18573
3.19378
3.11756
3.25287
3.2354
5.66078
5.68482
4.45719
4.45275
3.84328
3.82713
3.5817
3.52327
3.53218
3.4479
3.59753
3.57822
6.1062
6.1321
4.80792
4.8031
4.14573
4.12827
3.86357
3.80052
3.81014
3.71924
3.88064
3.85982
6.44714
6.47447
5.07639
5.07127
4.37724
4.35878
4.07933
4.01275
4.02291
3.92695
4.09735
4.07537
6.67777
6.70605
5.258
5.25267
4.53386
4.51471
4.22529
4.15632
4.16685
4.06746
4.24395
4.2212
6.79415
6.82289
5.34964
5.34419
4.6129
4.59339
4.29896
4.22877
4.23949
4.13839
4.31794
4.2948
6.79427
6.82299
5.34976
5.34427
4.61302
4.59347
4.29907
4.22887
4.2396
4.1385
4.31805
4.29491
6.67815
6.70635
5.25834
5.25292
4.53421
4.51497
4.22563
4.15661
4.16716
4.06781
4.24428
4.22155
6.44776
6.47496
5.07695
5.07168
4.37782
4.35921
4.07989
4.01324
4.02343
3.92752
4.09789
4.07595
6.10705
6.13278
4.80869
4.80367
4.14652
4.12886
3.86434
3.8012
3.81086
3.72003
3.88139
3.86061
5.66185
5.68568
4.45816
4.45347
3.84429
3.82787
3.58267
3.52412
3.53309
3.44889
3.59848
3.57922
5.11977
5.14129
4.03135
4.02706
3.47627
3.46139
3.23971
3.18674
3.19486
3.11874
3.254
3.23659
4.4901
4.50893
3.53557
3.53176
3.04878
3.03568
2.84132
2.79484
2.80197
2.73522
2.85384
2.83858
3.78359
3.79942
2.97929
2.97602
2.56913
2.55803
2.39431
2.35512
2.36115
2.30491
2.40485
2.392
3.01236
3.02492
2.37205
2.36938
2.04552
2.03662
1.90634
1.8751
1.87992
1.83517
1.91472
1.9045
2.18957
2.19863
1.72419
1.72217
1.48691
1.48034
1.38574
1.363
1.36652
1.33401
1.39183
1.38441
1.32936
1.33478
1.04689
1.04553
0.902883
0.898766
0.841462
0.827586
0.829762
0.81005
0.845124
0.840638
0.446312
0.44801
0.351598
0.350949
0.303359
0.301766
0.282745
0.277984
0.278777
0.272204
0.283947
0.282471
-0.444204
-0.446294
-0.349586
-0.349549
-0.301262
-0.300327
-0.280739
-0.276322
-0.276929
-0.270262
-0.282057
-0.280502
-1.32737
-1.33315
-1.04496
-1.0442
-0.900855
-0.897384
-0.839513
-0.825978
-0.827963
-0.80816
-0.843277
-0.838714
-2.18749
-2.19693
-1.72223
-1.7208
-1.48485
-1.47895
-1.38378
-1.36139
-1.36472
-1.33214
-1.38999
-1.38251
-3.01055
-3.02344
-2.37027
-2.36819
-2.04365
-2.03539
-1.90454
-1.87366
-1.87826
-1.83346
-1.91302
-1.90274
-3.78181
-3.79786
-2.97757
-2.97477
-2.56726
-2.55679
-2.39249
-2.35368
-2.35946
-2.30323
-2.40315
-2.39027
-4.48841
-4.50764
-3.53394
-3.53081
-3.04711
-3.0347
-2.83974
-2.79367
-2.80053
-2.73382
-2.85237
-2.83708
-5.11854
-5.14005
-4.0301
-4.02605
-3.47477
-3.46041
-3.23816
-3.18559
-3.19339
-3.11737
-3.25251
-3.23511
-5.6603
-5.68456
-4.45664
-4.45278
-3.84285
-3.82723
-3.5814
-3.52335
-3.53196
-3.44793
-3.59738
-3.57813
-6.10647
-6.13209
-4.80804
-4.80307
-4.14553
-4.12826
-3.86321
-3.80047
-3.80977
-3.71913
-3.88033
-3.8596
-6.44642
-6.47397
-5.07567
-5.07118
-4.37675
-4.35886
-4.07904
-4.01289
-4.02271
-3.92708
-4.09729
-4.07538
-6.67824
-6.7064
-5.25818
-5.25288
-4.53371
-4.51481
-4.22496
-4.15633
-4.16649
-4.06742
-4.24361
-4.22098
-6.79324
-6.82213
-5.34888
-5.34389
-4.61235
-4.59337
-4.29863
-4.22887
-4.23922
-4.13857
-4.31779
-4.29479
)
;

boundaryField
{
    out
    {
        type            implicitExtrapolation;
    }
    in
    {
        type            implicitExtrapolation;
    }
    frontAndBack
    {
        type            empty;
    }
}


// ************************************************************************* //
