/*--------------------------------*- C++ -*----------------------------------*\
| =========                 |                                                 |
| \\      /  F ield         | foam-extend: Open Source CFD                    |
|  \\    /   O peration     | Version:  3.0                                   |
|   \\  /    A nd           | Web:         http://www.extend-project.de       |
|    \\/     M anipulation  |                                                 |
\*---------------------------------------------------------------------------*/
FoamFile
{
    version     2.0;
    format      ascii;
    class       volSymmTensorField;
    location    "15";
    object      sigma;
}
// * * * * * * * * * * * * * * * * * * * * * * * * * * * * * * * * * * * * * //

dimensions      [0 0 0 0 0 0 0];

internalField   nonuniform List<symmTensor> 
576
(
(1.94657 -0.0579658 2.73633e-18 -1.83267 2.83266e-18 4.09248e-36)
(1.99756 0.14478 7.77469e-18 -1.87899 -2.97748e-17 -1.4984e-34)
(2.28365 0.21822 4.70269e-19 -2.20525 -1.48451e-17 -1.67703e-35)
(2.07657 0.236272 -1.39541e-18 -1.96761 -5.11327e-18 1.45276e-35)
(1.8761 0.236052 8.58689e-18 -1.82265 -2.6161e-18 2.29371e-35)
(1.64293 0.218372 6.51172e-18 -1.52573 1.4837e-19 3.72251e-36)
(1.33543 0.198398 -9.78708e-18 -1.30799 -4.20398e-18 -1.24644e-35)
(1.16711 0.179042 -1.41631e-17 -1.02982 2.21202e-17 -1.72384e-34)
(0.811645 0.150299 -2.04463e-17 -0.79736 1.21831e-17 -1.1631e-34)
(0.692946 0.136586 -1.34671e-17 -0.561411 6.13903e-18 -1.4584e-35)
(0.365847 0.105227 5.39005e-19 -0.315875 -1.12639e-17 5.54673e-35)
(0.204664 0.0943252 -1.16657e-17 -0.119916 -1.14548e-17 -5.79856e-36)
(2.09815 -0.137717 -1.68469e-17 -1.98582 -1.04503e-17 -8.71841e-35)
(1.94562 0.427705 -4.2257e-17 -1.82901 2.28276e-17 3.65025e-34)
(2.17284 0.636261 -4.7835e-18 -2.09546 1.20199e-17 2.10714e-34)
(1.93579 0.68388 1.0408e-18 -1.82881 -1.31053e-17 -1.83219e-35)
(1.72769 0.680964 1.41783e-17 -1.6751 -1.47303e-17 -1.25434e-35)
(1.49868 0.628586 -1.07632e-17 -1.38337 1.25292e-17 0)
(1.19924 0.569549 -1.96694e-17 -1.17233 4.04639e-17 -4.12897e-34)
(1.03855 0.512829 4.15088e-17 -0.903561 7.89492e-18 1.82794e-34)
(0.69873 0.429079 2.59083e-17 -0.68475 1.7347e-17 3.89659e-34)
(0.58413 0.38864 1.56993e-17 -0.454904 1.14544e-19 -4.1894e-34)
(0.275371 0.297701 -2.90079e-17 -0.226305 1.30705e-18 -2.7102e-34)
(0.116076 0.265056 -2.95285e-17 -0.032843 2.75534e-17 4.03813e-34)
(2.3705 -0.11034 3.6614e-18 -2.26236 4.52303e-18 -7.28211e-35)
(1.84527 0.693622 1.83155e-17 -1.73282 1.0673e-17 -4.02899e-35)
(1.96365 1.00271 -2.23606e-17 -1.88919 -1.7057e-17 -2.54902e-34)
(1.67298 1.06035 -4.62741e-17 -1.56967 4.0766e-17 -4.06987e-34)
(1.45098 1.04845 -2.01659e-17 -1.40029 7.76906e-18 2.42706e-34)
(1.23022 0.962231 3.57714e-17 -1.119 1.36025e-17 -1.33127e-34)
(0.946398 0.866764 8.26966e-17 -0.920452 -2.42145e-17 9.84226e-34)
(0.800063 0.776321 5.84681e-18 -0.66977 9.0195e-18 9.69143e-35)
(0.489855 0.644365 7.75661e-17 -0.476419 -8.92286e-18 1.39107e-33)
(0.383113 0.579121 3.06819e-17 -0.258353 3.03318e-18 9.26234e-34)
(0.108756 0.437335 -1.58393e-17 -0.0614169 3.01367e-17 -8.79065e-34)
(-0.0466542 0.383118 4.35321e-17 0.126989 3.57886e-17 1.08713e-33)
(2.70757 0.0757051 2.41092e-18 -2.60487 3.37801e-18 0)
(1.7036 0.932297 -7.57024e-19 -1.59695 -2.56011e-17 0)
(1.68037 1.29114 -3.69363e-17 -1.60971 5.30626e-17 3.04041e-34)
(1.32188 1.32945 8.10072e-17 -1.22401 -4.20213e-17 4.83948e-34)
(1.08357 1.29921 -3.90714e-17 -1.03556 1.4602e-17 -4.13397e-34)
(0.874932 1.18094 4.77206e-17 -0.769568 -3.28476e-17 7.59807e-34)
(0.613062 1.05299 -3.91424e-17 -0.588501 7.37101e-18 -1.00182e-33)
(0.486344 0.934414 9.9774e-17 -0.362966 -5.36887e-17 2.62645e-34)
(0.216461 0.764676 4.17959e-17 -0.203751 -6.79721e-17 -2.11698e-33)
(0.120531 0.677464 1.65079e-17 -0.00239776 -2.45988e-17 -6.93582e-34)
(-0.107461 0.498068 4.49768e-17 0.152282 3.20705e-18 -3.81294e-34)
(-0.25682 0.422407 1.01409e-16 0.332876 -1.05264e-16 -1.24144e-34)
(3.03453 0.4455 -9.32903e-18 -2.93956 3.66251e-19 0)
(1.52893 1.13742 -3.16973e-17 -1.43014 2.62326e-17 7.73056e-35)
(1.35387 1.48555 4.04973e-17 -1.28838 -1.86805e-17 -4.02944e-34)
(0.9273 1.47071 -4.43961e-17 -0.836591 1.83926e-17 -4.80939e-34)
(0.674418 1.41144 7.58212e-17 -0.629893 -5.39001e-17 -6.47809e-34)
(0.481543 1.26322 -8.38171e-17 -0.383893 -2.7963e-18 3.24378e-34)
(0.246718 1.10782 -1.50061e-17 -0.223969 -3.6879e-17 0)
(0.142701 0.967893 -1.21016e-16 -0.0283402 -2.06443e-17 1.53758e-33)
(-0.0803292 0.772827 -1.14032e-16 0.0920784 2.24616e-17 2.64118e-33)
(-0.163385 0.66723 -7.43217e-17 0.272869 -9.28728e-18 5.83623e-35)
(-0.338605 0.466037 1.69692e-17 0.380127 -5.47686e-17 -1.49378e-33)
(-0.479535 0.369387 -1.32391e-16 0.550015 -1.82924e-18 1.24144e-34)
(3.27343 0.992742 3.5169e-18 -3.18735 1.14219e-17 0)
(1.3319 1.30542 2.74694e-17 -1.2425 -1.47555e-17 1.30117e-34)
(1.01853 1.58273 -1.4143e-17 -0.959335 -1.15206e-17 -7.84596e-35)
(0.537683 1.4817 -1.07484e-17 -0.455684 3.72332e-18 0)
(0.27687 1.38313 -5.86334e-17 -0.236626 2.35499e-17 2.44156e-34)
(0.102963 1.20772 2.12247e-17 -0.0147228 -1.90663e-17 -2.00843e-34)
(-0.10136 1.0303 -1.22592e-16 0.121908 6.37355e-17 7.05975e-34)
(-0.181824 0.876148 1.49588e-16 0.285173 -1.03295e-17 -2.12723e-33)
(-0.35609 0.668674 1.9108e-17 0.366688 -2.12514e-17 -1.91527e-33)
(-0.425259 0.548557 -6.82423e-17 0.524209 5.01411e-17 1.35602e-33)
(-0.54722 0.34176 8.41775e-18 0.584739 2.12281e-17 0)
(-0.677124 0.224894 -1.47426e-17 0.740824 4.43229e-17 0)
(3.35099 1.67972 3.18979e-18 -3.27563 4.5309e-18 0)
(1.12198 1.43595 -1.57432e-17 -1.04361 4.72711e-17 -5.83892e-34)
(0.706526 1.59178 1.02842e-16 -0.654539 -3.79207e-17 1.94392e-33)
(0.198474 1.37818 -1.50058e-17 -0.126576 -2.2297e-17 0)
(-0.0594588 1.23247 4.18928e-17 0.0947803 -1.75903e-17 -8.11996e-35)
(-0.211506 1.03302 -5.40444e-17 0.288883 2.01717e-17 6.67951e-35)
(-0.383432 0.839009 1.33672e-16 0.401444 -1.33433e-17 5.45239e-34)
(-0.441665 0.677311 1.11363e-16 0.532264 -3.24407e-17 2.44784e-34)
(-0.569623 0.469101 -1.69113e-16 0.578902 3.39892e-17 -1.54857e-33)
(-0.624902 0.33828 4.3736e-17 0.711615 1.4782e-17 -3.6525e-34)
(-0.698754 0.14022 -1.34395e-17 0.731628 -2.02155e-17 0)
(-0.814926 0.00439655 -1.79637e-17 0.870744 3.54665e-17 0)
(3.21485 2.44299 4.21918e-18 -3.1513 5.49634e-18 0)
(0.907876 1.53203 5.87733e-17 -0.841833 -1.88805e-18 4.29028e-34)
(0.443281 1.53295 -4.12893e-17 -0.399515 -1.24344e-17 -1.6546e-33)
(-0.0551056 1.19155 -6.17143e-17 0.115639 3.37691e-17 -2.69726e-36)
(-0.296191 0.994822 1.92449e-17 0.325923 -1.1929e-17 -2.2055e-36)
(-0.423922 0.774824 1.54911e-17 0.489073 -4.63873e-17 1.94582e-34)
(-0.562861 0.569111 2.11356e-17 0.578004 1.15362e-17 0)
(-0.601882 0.405315 -7.76992e-17 0.678162 -2.61711e-17 -4.33391e-34)
(-0.689442 0.205354 -1.59425e-16 0.697241 3.40024e-17 3.12219e-33)
(-0.731636 0.0672397 3.71311e-17 0.804631 2.17119e-17 5.60761e-34)
(-0.766914 -0.111473 -3.55944e-17 0.794588 8.99668e-18 6.25204e-34)
(-0.86663 -0.26442 9.23746e-17 0.913616 -6.64111e-18 -1.08245e-33)
(2.83842 3.20104 2.24052e-17 -2.78779 -1.41563e-18 6.53874e-35)
(0.695996 1.59826 -3.22472e-17 -0.643407 -6.57369e-18 -5.06061e-35)
(0.244423 1.43353 -6.5186e-17 -0.209543 4.06281e-17 -2.11212e-34)
(-0.202551 0.963585 1.54829e-16 0.250732 -4.58186e-17 8.93852e-34)
(-0.411436 0.716971 -1.5021e-16 0.435095 4.52126e-17 -3.90538e-34)
(-0.512858 0.480241 1.31132e-16 0.564698 -8.90737e-18 9.65594e-34)
(-0.619241 0.266911 7.10781e-17 0.631273 -9.09751e-17 -1.86616e-33)
(-0.643146 0.104768 -1.94464e-16 0.70381 -9.02886e-18 2.39275e-33)
(-0.698391 -0.08162 -2.97947e-17 0.704589 4.19118e-17 -1.21728e-33)
(-0.728852 -0.224246 -2.7293e-18 0.786878 5.14372e-19 -2.60357e-35)
(-0.737704 -0.378026 9.80416e-18 0.759706 4.31449e-17 -2.35724e-34)
(-0.818373 -0.545648 8.06741e-17 0.855722 -1.77662e-17 1.08245e-33)
(2.22852 3.86785 6.81859e-18 -2.19181 1.35395e-17 0)
(0.489814 1.64076 2.56926e-17 -0.451622 -7.82081e-18 5.59454e-35)
(0.113167 1.32392 5.60076e-17 -0.0878646 1.1284e-18 1.7579e-34)
(-0.241469 0.740046 -1.19537e-16 0.276432 2.78207e-17 -1.06643e-33)
(-0.40332 0.449993 1.18996e-16 0.420459 -1.21601e-17 5.88067e-34)
(-0.476861 0.20053 -4.11822e-17 0.514476 3.72243e-17 -3.39595e-34)
(-0.551645 -0.0173189 -8.56165e-17 0.560344 -8.40592e-18 -6.17391e-34)
(-0.56477 -0.175985 5.75285e-17 0.608765 -1.24603e-17 -5.88167e-34)
(-0.596322 -0.347513 6.28523e-17 0.600803 3.11206e-17 -8.25181e-34)
(-0.616595 -0.492618 5.47667e-17 0.658655 6.37208e-18 3.71273e-35)
(-0.611618 -0.621377 1.68733e-16 0.627563 -2.63199e-17 1.11657e-34)
(-0.670998 -0.80063 -8.42749e-17 0.698065 -2.31891e-18 1.28569e-35)
(1.42364 4.36344 6.96862e-18 -1.40128 -1.88317e-18 0)
(0.290373 1.66513 -4.4009e-17 -0.267139 1.48604e-17 -5.23235e-35)
(0.0410045 1.23233 -5.07351e-17 -0.0256349 -1.71482e-18 -1.09554e-34)
(-0.187061 0.56336 6.57218e-17 0.20826 -9.60341e-18 -4.20389e-35)
(-0.289584 0.241217 -6.24283e-17 0.29995 1.88096e-17 2.14884e-35)
(-0.334164 -0.0168104 1.47707e-17 0.356931 -1.71447e-17 0)
(-0.378447 -0.237031 -4.1424e-17 0.383685 2.86879e-17 -3.73734e-34)
(-0.384601 -0.392195 2.55371e-17 0.411187 2.7896e-17 1.96718e-34)
(-0.400045 -0.551357 -1.62562e-17 0.402742 8.36071e-18 -4.5552e-34)
(-0.411539 -0.69762 -2.10584e-18 0.436925 2.24549e-17 -8.05576e-34)
(-0.403624 -0.806384 -7.98208e-18 0.413245 -2.97184e-17 2.39982e-34)
(-0.439958 -0.993691 3.43628e-17 0.456289 -2.94328e-17 5.87204e-34)
(0.489485 4.62777 1.32525e-18 -0.482068 -1.18267e-17 0)
(0.0958824 1.67608 4.00297e-18 -0.0880954 -1.0183e-17 -5.38331e-35)
(0.0087752 1.18063 -8.69069e-18 -0.00367997 1.87852e-17 -3.71965e-35)
(-0.0699577 0.466163 -1.18357e-17 0.0769761 9.59142e-19 8.58235e-36)
(-0.105005 0.126972 4.06572e-17 0.108384 -1.20368e-17 -2.0861e-37)
(-0.119953 -0.135369 -1.1776e-17 0.127448 1.34323e-18 1.06537e-35)
(-0.134552 -0.356559 9.09786e-18 0.136218 3.19314e-18 -8.63304e-37)
(-0.13631 -0.509594 -1.8603e-17 0.145014 5.99149e-18 -1.95997e-34)
(-0.140804 -0.661789 2.56682e-17 0.141653 -2.48257e-18 -9.91675e-35)
(-0.144497 -0.808458 -1.28764e-17 0.152763 2.42306e-18 -1.86325e-34)
(-0.140989 -0.906179 -3.71996e-18 0.144108 4.26458e-19 -2.57848e-34)
(-0.153171 -1.0976 6.89796e-18 0.158476 -9.5102e-18 4.23763e-35)
(-0.489764 4.62777 2.50539e-18 0.482282 8.71804e-18 1.8469e-35)
(-0.0966162 1.67599 2.17402e-17 0.0889188 1.41298e-17 2.98296e-35)
(-0.00921757 1.18058 3.00496e-18 0.0040264 4.10713e-18 3.24443e-35)
(0.069324 0.466098 -8.56846e-18 -0.0765577 2.86873e-20 -4.67697e-35)
(0.10458 0.126924 -1.0477e-17 -0.108201 -7.90048e-18 9.02824e-35)
(0.11947 -0.135424 1.00661e-17 -0.12735 2.50928e-18 1.6227e-35)
(0.134237 -0.356595 -7.64072e-18 -0.136148 -9.81125e-18 7.92011e-36)
(0.135958 -0.509626 -1.68795e-18 -0.145267 -2.1501e-17 1.3474e-34)
(0.140582 -0.661833 -9.72011e-18 -0.141586 -4.11816e-18 1.88719e-34)
(0.144333 -0.808461 -7.65719e-18 -0.153313 9.75027e-18 1.54095e-34)
(0.140844 -0.906215 -8.34698e-19 -0.144274 1.56055e-17 5.89452e-36)
(0.153184 -1.0976 -5.54125e-19 -0.158987 -2.42099e-18 -1.40101e-35)
(-1.42396 4.36366 1.34503e-17 1.40159 -3.11121e-18 -2.0009e-35)
(-0.291054 1.66495 -4.68357e-17 0.267931 -1.01515e-17 3.91257e-34)
(-0.0414069 1.23222 -4.57578e-17 0.0259652 3.66509e-18 4.85861e-35)
(0.186474 0.563182 -2.47009e-17 -0.207882 1.92702e-17 -2.4452e-34)
(0.289204 0.241083 2.50615e-17 -0.299791 2.50149e-18 8.90945e-35)
(0.333727 -0.0169677 9.25582e-18 -0.356874 -3.21047e-17 0)
(0.378163 -0.237136 -7.51593e-17 -0.383639 -2.67748e-17 1.12989e-34)
(0.384287 -0.392287 2.2005e-17 -0.411463 -6.29496e-18 -1.41355e-34)
(0.399861 -0.551481 6.58098e-17 -0.402716 -7.2227e-18 -6.32906e-34)
(0.411398 -0.69763 4.20231e-17 -0.437478 1.9315e-17 -7.86554e-35)
(0.40352 -0.806488 -2.399e-17 -0.413449 -8.38824e-19 6.49746e-35)
(0.439993 -0.993697 -3.57843e-17 -0.456811 1.31801e-17 1.56453e-34)
(-2.22895 3.868 -8.58773e-18 2.19216 -2.22661e-17 1.68064e-34)
(-0.490468 1.64042 7.56916e-17 0.452365 9.33772e-18 -6.88674e-34)
(-0.113551 1.32373 5.28823e-17 0.0881677 2.49642e-18 8.68497e-35)
(0.240933 0.739755 -3.63146e-17 -0.276121 -6.40947e-18 3.93917e-34)
(0.402997 0.449782 -1.08592e-16 -0.420342 6.58691e-18 1.42607e-34)
(0.476492 0.200294 -2.07654e-17 -0.514491 -3.58414e-18 -2.95469e-34)
(0.551412 -0.0174825 1.03647e-16 -0.560345 1.18184e-17 1.00406e-34)
(0.56452 -0.176116 -2.89503e-17 -0.609084 -7.80372e-18 1.75515e-34)
(0.596203 -0.347696 4.37785e-17 -0.600854 -6.51396e-19 1.55889e-33)
(0.61649 -0.492624 4.80412e-17 -0.659216 -1.35988e-17 9.82546e-34)
(0.611585 -0.621518 -5.90205e-18 -0.627839 -3.02261e-17 8.73542e-34)
(0.671063 -0.800619 8.27783e-17 -0.698606 2.60456e-17 -9.27042e-34)
(-2.83904 3.20135 1.94556e-18 2.78841 9.46107e-18 0)
(-0.696519 1.59785 -1.05975e-17 0.644055 -1.45235e-17 0)
(-0.244711 1.4333 -6.34045e-17 0.209799 -3.64541e-17 1.09954e-33)
(0.202143 0.963222 1.52471e-16 -0.250531 1.58739e-17 -1.37771e-34)
(0.41123 0.716711 5.48853e-18 -0.435049 2.36543e-17 4.93746e-34)
(0.5126 0.479958 -3.69975e-17 -0.564814 5.25196e-17 4.75647e-34)
(0.619094 0.266708 -1.47486e-16 -0.631343 -2.49501e-17 -1.83445e-33)
(0.642986 0.104622 3.45268e-17 -0.704182 3.35056e-17 1.17845e-33)
(0.698362 -0.0818293 -3.40318e-17 -0.704737 1.3827e-17 6.22858e-34)
(0.728803 -0.224239 1.0483e-17 -0.787446 -6.04083e-17 4.17954e-34)
(0.737763 -0.378171 -9.33356e-19 -0.760069 -2.24928e-17 2.48211e-34)
(0.818492 -0.545618 8.62036e-17 -0.856291 -3.37954e-17 1.42199e-33)
(-3.21553 2.44308 4.25401e-18 3.15196 -9.35593e-18 0)
(-0.908327 1.53148 -8.08281e-18 0.842416 -2.9354e-17 5.39136e-34)
(-0.443546 1.53265 7.35974e-17 0.39972 5.70528e-17 -6.44175e-34)
(0.0547897 1.19114 -1.3894e-16 -0.115539 -2.25172e-17 -4.56386e-34)
(0.296067 0.994539 1.49839e-16 -0.325943 2.78527e-17 -5.34706e-34)
(0.423757 0.774544 -5.13592e-17 -0.489283 8.96939e-18 -1.07201e-34)
(0.5628 0.568905 3.51075e-17 -0.578151 3.42948e-17 0)
(0.601809 0.405197 -7.46491e-17 -0.678583 3.52614e-17 9.08601e-34)
(0.689509 0.205164 -1.71436e-16 -0.697496 -1.01071e-17 -3.30639e-33)
(0.73165 0.0672857 -1.12735e-16 -0.805204 -1.20941e-17 -2.96833e-33)
(0.767066 -0.111574 3.43645e-17 -0.79504 4.68737e-17 1.46616e-33)
(0.866795 -0.264338 -1.7315e-16 -0.914202 -5.1664e-17 -1.42199e-33)
(-3.35201 1.67977 7.03827e-18 3.27657 -1.28267e-17 0)
(-1.1223 1.43539 3.60246e-17 1.04406 1.02032e-17 -2.89819e-34)
(-0.70668 1.59149 3.47824e-17 0.654683 2.79477e-18 -6.94281e-34)
(-0.198629 1.37778 1.57267e-17 0.12655 2.8454e-17 0)
(0.0594606 1.23221 -7.04283e-17 -0.094887 -2.45478e-17 1.47981e-34)
(0.211464 1.03278 9.03627e-17 -0.289185 1.3371e-17 -1.2173e-34)
(0.383481 0.838824 -7.19531e-17 -0.401675 -5.03538e-17 2.09948e-33)
(0.441682 0.677239 1.82211e-16 -0.532721 5.47706e-17 -2.66217e-33)
(0.569783 0.468958 6.80143e-17 -0.57925 3.1555e-17 1.12464e-33)
(0.624978 0.338371 -3.82345e-17 -0.712185 4.68108e-18 -1.81002e-34)
(0.698983 0.140192 4.30073e-18 -0.732148 -7.5642e-18 0)
(0.815141 0.00454205 3.03083e-17 -0.871346 5.46387e-17 0)
(-3.27427 0.992486 -3.85552e-18 3.18827 -1.32501e-18 0)
(-1.33209 1.30473 -3.83713e-17 1.24285 -3.11205e-17 3.80853e-35)
(-1.01866 1.5824 6.29407e-17 0.959388 1.94181e-17 6.79633e-34)
(-0.537773 1.48131 6.66831e-18 0.4556 -8.81756e-18 0)
(-0.276824 1.3829 6.6948e-17 0.236455 2.52465e-17 -2.99423e-34)
(-0.10296 1.20755 -4.6078e-17 0.0143758 -2.73655e-17 2.46306e-34)
(0.101464 1.03017 5.47365e-17 -0.122191 5.08131e-17 8.0779e-34)
(0.181883 0.876161 -2.10419e-17 -0.285628 1.90386e-17 4.83033e-33)
(0.356311 0.668627 -1.11284e-16 -0.367095 -8.26158e-17 -2.61432e-33)
(0.425376 0.548729 1.01368e-16 -0.524745 -3.19087e-18 2.12944e-33)
(0.547499 0.341847 -1.69329e-18 -0.585287 1.80555e-17 0)
(0.67737 0.225134 1.28309e-17 -0.741411 1.97027e-17 0)
(-3.0357 0.445025 6.84287e-18 2.9406 -9.85475e-19 0)
(-1.52911 1.13675 -6.58614e-18 1.43042 3.12473e-17 4.22392e-34)
(-1.35394 1.48529 -6.47747e-17 1.2884 -4.56324e-17 -6.11867e-34)
(-0.927277 1.4704 -7.65058e-18 0.836415 -8.63624e-18 8.67737e-34)
(-0.674302 1.41127 -1.10856e-17 0.62968 -2.54367e-17 4.99755e-34)
(-0.481457 1.26316 6.50133e-17 0.383525 5.37361e-17 -1.17897e-34)
(-0.246531 1.10777 -7.30718e-17 0.223625 1.91057e-17 0)
(-0.142584 0.96799 -5.79563e-17 0.0279081 -5.97901e-18 -2.5925e-33)
(0.0806068 0.772879 -6.53169e-17 -0.0925247 -9.3558e-18 -1.16051e-34)
(0.163545 0.667469 1.43705e-17 -0.273374 -8.53679e-18 -6.19384e-35)
(0.338903 0.466234 -2.941e-18 -0.380668 2.81004e-18 1.01619e-33)
(0.479783 0.369716 7.94443e-17 -0.550564 3.40774e-17 1.09304e-33)
(-2.70833 0.0749387 -1.08737e-18 2.60577 1.04449e-17 7.51844e-35)
(-1.70351 0.93162 -9.47428e-18 1.59704 -1.20451e-17 -5.81889e-35)
(-1.68035 1.29089 -4.06727e-18 1.60967 -1.11698e-17 -7.28238e-34)
(-1.32184 1.3292 8.50338e-17 1.22385 3.19746e-17 -6.17422e-34)
(-1.0834 1.29913 -7.89304e-17 1.03529 -2.45212e-17 1.5162e-34)
(-0.874847 1.18097 8.29839e-17 0.769244 2.05542e-18 -6.55096e-34)
(-0.612876 1.05303 7.51774e-17 0.588183 6.88725e-17 2.52822e-34)
(-0.486235 0.93461 -4.38907e-17 0.362591 1.81249e-17 3.78278e-34)
(-0.216202 0.764842 4.84384e-17 0.203354 1.51084e-17 8.49123e-34)
(-0.120386 0.677793 1.05459e-17 0.00197556 2.33563e-17 5.93179e-34)
(0.107729 0.49839 -2.71213e-18 -0.152756 2.17718e-17 4.14244e-34)
(0.257044 0.422851 -2.41711e-17 -0.333354 -4.80699e-17 -1.09304e-33)
(-2.37139 -0.111425 -3.41176e-18 2.26311 -1.11548e-17 0)
(-1.84526 0.692846 8.93638e-18 1.73283 -7.35554e-18 2.91581e-34)
(-1.96373 1.00252 3.44398e-18 1.88912 9.19958e-18 5.46705e-36)
(-1.6729 1.06014 -5.95718e-17 1.56944 -5.35459e-17 5.84756e-35)
(-1.45083 1.04839 6.96395e-17 1.40005 1.97267e-17 -2.27446e-34)
(-1.23017 0.962376 -6.63658e-17 1.11871 -3.80616e-17 5.31382e-34)
(-0.946195 0.86688 2.45644e-17 0.920136 -3.90271e-17 6.94654e-34)
(-0.799967 0.776588 1.18952e-16 0.669472 1.98761e-17 -1.35252e-33)
(-0.489625 0.644644 6.5154e-17 0.476067 -2.14209e-17 -1.92737e-33)
(-0.38297 0.57952 6.69312e-17 0.258005 -6.91473e-18 -1.51095e-33)
(-0.108547 0.437757 9.75811e-17 0.0610285 2.37641e-17 -1.44722e-33)
(0.0468293 0.383626 -7.93178e-17 -0.127363 -7.29842e-19 -3.48421e-34)
(-2.09863 -0.139024 -2.23903e-17 1.98648 4.82971e-18 0)
(-1.94541 0.427202 -2.60381e-17 1.82895 -1.36461e-17 -3.89612e-34)
(-2.17279 0.636059 3.39181e-18 2.09552 -2.2289e-17 -3.73937e-35)
(-1.9358 0.683815 2.12015e-17 1.82866 2.94173e-17 5.5053e-35)
(-1.72753 0.681043 -3.90523e-17 1.67495 -2.49661e-17 -7.62172e-35)
(-1.49865 0.6288 1.41129e-17 1.38323 1.23514e-17 0)
(-1.1991 0.569759 -3.95929e-17 1.17213 -1.50334e-17 9.08698e-35)
(-1.03848 0.513163 7.12071e-18 0.903364 -4.01097e-17 -5.70222e-35)
(-0.698568 0.429418 -2.80265e-17 0.684532 -2.7634e-17 -7.42845e-36)
(-0.584062 0.389096 -1.87871e-17 0.45468 -4.18293e-17 2.10546e-34)
(-0.275255 0.298194 -3.4894e-18 0.226057 -2.93916e-17 7.35656e-34)
(-0.115977 0.265668 2.97525e-17 0.0325974 4.56646e-17 -4.63075e-34)
(-1.94677 -0.0594148 -4.9042e-19 1.83267 7.05658e-18 0)
(-1.99728 0.14421 6.19824e-18 1.87878 2.80121e-17 1.34636e-34)
(-2.28374 0.217991 -1.38827e-19 2.20514 5.3629e-18 3.45846e-36)
(-2.07647 0.236225 1.13318e-17 1.96747 -1.25702e-17 -3.89036e-37)
(-1.87602 0.236118 1.50903e-17 1.82255 1.68257e-17 1.81215e-35)
(-1.64299 0.218631 -7.47049e-18 1.52558 -2.26351e-18 1.09143e-35)
(-1.33538 0.198647 1.46429e-17 1.30794 4.06791e-18 -2.23375e-35)
(-1.16712 0.179402 -2.4408e-17 1.0297 -7.04224e-18 7.5679e-35)
(-0.811583 0.15071 -4.72522e-18 0.797308 1.84815e-18 5.29907e-36)
(-0.692935 0.137063 -3.31517e-17 0.56135 -4.29527e-18 1.47685e-35)
(-0.365834 0.105784 -2.00383e-17 0.315799 -4.51419e-18 7.93296e-35)
(-0.204641 0.0949381 2.80168e-18 0.119843 -1.55538e-17 -2.91161e-35)
(-1.94659 0.0580534 2.73574e-18 1.8325 2.83529e-18 -4.09274e-36)
(-1.99728 -0.144784 7.77363e-18 1.87876 -2.97779e-17 1.49868e-34)
(-2.28374 -0.218111 4.72742e-19 2.20515 -1.48465e-17 1.67642e-35)
(-2.07649 -0.236335 -1.39453e-18 1.9675 -5.11404e-18 -1.45239e-35)
(-1.87604 -0.236007 8.58583e-18 1.82259 -2.61811e-18 -2.29375e-35)
(-1.64302 -0.218409 6.51014e-18 1.52565 1.47935e-19 -3.72345e-36)
(-1.33541 -0.198433 -9.78761e-18 1.30799 -4.20512e-18 1.24582e-35)
(-1.16714 -0.179052 -1.41632e-17 1.02977 2.21195e-17 1.72381e-34)
(-0.811645 -0.150303 -2.04459e-17 0.797376 1.21837e-17 1.16306e-34)
(-0.692955 -0.136616 -1.34665e-17 0.561419 6.1391e-18 1.45825e-35)
(-0.3659 -0.105215 5.39099e-19 0.315884 -1.12635e-17 -5.5466e-35)
(-0.204684 -0.0943584 -1.16653e-17 0.119917 -1.14543e-17 5.79677e-36)
(-2.09811 0.137774 -1.68475e-17 1.98598 -1.04502e-17 8.71829e-35)
(-1.9454 -0.427793 -4.22597e-17 1.8289 2.2826e-17 -3.65089e-34)
(-2.17278 -0.63619 -4.78364e-18 2.09555 1.2023e-17 -2.10709e-34)
(-1.93586 -0.683958 1.04116e-18 1.82874 -1.31045e-17 1.82932e-35)
(-1.7276 -0.68096 1.4179e-17 1.67507 -1.47295e-17 1.25684e-35)
(-1.49875 -0.628619 -1.07632e-17 1.38341 1.25297e-17 0)
(-1.19921 -0.569577 -1.96692e-17 1.17226 4.04651e-17 4.12888e-34)
(-1.03855 -0.512844 4.15087e-17 0.903568 7.89618e-18 -1.82787e-34)
(-0.698747 -0.429058 2.5908e-17 0.684728 1.73478e-17 -3.89658e-34)
(-0.584119 -0.388671 1.56986e-17 0.454882 1.14939e-19 4.18939e-34)
(-0.275444 -0.297673 -2.90069e-17 0.226304 1.30816e-18 2.71017e-34)
(-0.116099 -0.265119 -2.95292e-17 0.0328158 2.7553e-17 -4.03797e-34)
(-2.37059 0.110383 3.66272e-18 2.26234 4.52184e-18 7.28345e-35)
(-1.84521 -0.693466 1.83154e-17 1.73272 1.06745e-17 4.031e-35)
(-1.96371 -1.00267 -2.23589e-17 1.88915 -1.70593e-17 2.54904e-34)
(-1.67297 -1.06035 -4.62723e-17 1.56957 4.07642e-17 4.06914e-34)
(-1.45093 -1.04835 -2.01658e-17 1.40023 7.7706e-18 -2.4265e-34)
(-1.23032 -0.96227 3.57709e-17 1.11899 1.36001e-17 1.33066e-34)
(-0.946348 -0.866758 8.26966e-17 0.920343 -2.42154e-17 -9.84219e-34)
(-0.800068 -0.776327 5.84755e-18 0.669792 9.02019e-18 -9.69158e-35)
(-0.489894 -0.644369 7.75665e-17 0.476366 -8.92416e-18 -1.39108e-33)
(-0.383054 -0.579138 3.06814e-17 0.258328 3.03303e-18 -9.2623e-34)
(-0.108835 -0.437327 -1.58404e-17 0.0614108 3.01358e-17 8.79039e-34)
(0.04664 -0.383133 4.35322e-17 -0.127016 3.57875e-17 -1.08714e-33)
(-2.70734 -0.0757064 2.41023e-18 2.60482 3.37595e-18 0)
(-1.70342 -0.932275 -7.60221e-19 1.59686 -2.56015e-17 0)
(-1.68031 -1.29107 -3.69363e-17 1.60971 5.30622e-17 -3.04118e-34)
(-1.3219 -1.32948 8.10065e-17 1.22397 -4.20201e-17 -4.83846e-34)
(-1.0835 -1.29916 -3.90713e-17 1.0355 1.46009e-17 4.13441e-34)
(-0.875001 -1.18096 4.772e-17 0.769586 -3.2847e-17 -7.5981e-34)
(-0.613052 -1.05299 -3.91394e-17 0.588433 7.37239e-18 1.0018e-33)
(-0.486343 -0.934427 9.97733e-17 0.363002 -5.36891e-17 -2.62632e-34)
(-0.216524 -0.76468 4.17956e-17 0.203718 -6.79727e-17 2.117e-33)
(-0.120484 -0.67747 1.65091e-17 0.00240265 -2.45992e-17 6.93602e-34)
(0.107381 -0.498079 4.49769e-17 -0.152277 3.20572e-18 3.81325e-34)
(0.256808 -0.422436 1.01409e-16 -0.3329 -1.05263e-16 1.24147e-34)
(-3.03461 -0.44549 -9.32769e-18 2.93957 3.66104e-19 0)
(-1.52894 -1.13743 -3.17007e-17 1.43014 2.62346e-17 -7.73152e-35)
(-1.35386 -1.48549 4.04966e-17 1.28842 -1.86803e-17 4.02987e-34)
(-0.927285 -1.47075 -4.4396e-17 0.83651 1.83962e-17 4.80875e-34)
(-0.674379 -1.41137 7.58213e-17 0.629897 -5.39016e-17 6.4779e-34)
(-0.481581 -1.26326 -8.38183e-17 0.383885 -2.79401e-18 -3.24361e-34)
(-0.246698 -1.10781 -1.5006e-17 0.223886 -3.68793e-17 0)
(-0.142672 -0.967892 -1.21015e-16 0.0283763 -2.06431e-17 -1.53755e-33)
(0.0802763 -0.772842 -1.14033e-16 -0.0921422 2.24617e-17 -2.6412e-33)
(0.16345 -0.667214 -7.43217e-17 -0.272865 -9.2872e-18 -5.8441e-35)
(0.338539 -0.466056 1.69701e-17 -0.380139 -5.47681e-17 1.49382e-33)
(0.479524 -0.36939 -1.32391e-16 -0.550031 -1.82887e-18 -1.24147e-34)
(-3.2732 -0.992658 3.51784e-18 3.18728 1.14221e-17 0)
(-1.33181 -1.30542 2.74674e-17 1.24245 -1.4756e-17 -1.30116e-34)
(-1.01853 -1.58262 -1.41438e-17 0.959376 -1.15228e-17 7.85068e-35)
(-0.537694 -1.48173 -1.0748e-17 0.455625 3.72278e-18 0)
(-0.276851 -1.38307 -5.86324e-17 0.236649 2.35507e-17 -2.44168e-34)
(-0.103014 -1.20774 2.12246e-17 0.0147091 -1.90676e-17 2.00854e-34)
(0.101338 -1.03029 -1.2259e-16 -0.121951 6.37361e-17 -7.0598e-34)
(0.181841 -0.876146 1.49587e-16 -0.285136 -1.03314e-17 2.12721e-33)
(0.356018 -0.668706 1.91081e-17 -0.366739 -2.1252e-17 1.91528e-33)
(0.425302 -0.548543 -6.8242e-17 -0.524178 5.01407e-17 -1.35603e-33)
(0.547165 -0.341798 8.4171e-18 -0.584756 2.12284e-17 0)
(0.677115 -0.2249 -1.47419e-17 -0.740829 4.4323e-17 0)
(-3.35103 -1.6797 3.19045e-18 3.27569 4.53097e-18 0)
(-1.12191 -1.43606 -1.57438e-17 1.04353 4.72714e-17 5.83902e-34)
(-0.706492 -1.59172 1.02842e-16 0.654627 -3.79221e-17 -1.94392e-33)
(-0.198434 -1.37823 -1.50069e-17 0.126476 -2.22964e-17 0)
(0.0595068 -1.23243 4.18928e-17 -0.0947403 -1.75911e-17 8.11984e-35)
(0.211512 -1.03305 -5.40454e-17 -0.288916 2.01722e-17 -6.67942e-35)
(0.383422 -0.839004 1.3367e-16 -0.401484 -1.33436e-17 -5.452e-34)
(0.44171 -0.677294 1.11362e-16 -0.532236 -3.24428e-17 -2.44713e-34)
(0.569566 -0.469131 -1.69113e-16 -0.57896 3.399e-17 1.54847e-33)
(0.624938 -0.338251 4.37368e-17 -0.711585 1.47816e-17 3.65262e-34)
(0.698718 -0.140251 -1.34395e-17 -0.731657 -2.02143e-17 0)
(0.814912 -0.00439322 -1.79643e-17 -0.870743 3.54668e-17 0)
(-3.21472 -2.44284 4.22063e-18 3.15125 5.49706e-18 0)
(-0.907806 -1.53209 5.87713e-17 0.841743 -1.88777e-18 -4.29039e-34)
(-0.443292 -1.53287 -4.1285e-17 0.399612 -1.24359e-17 1.65469e-33)
(0.0551147 -1.19159 -6.17135e-17 -0.115729 3.37682e-17 2.71053e-36)
(0.296202 -0.994778 1.92465e-17 -0.325862 -1.19288e-17 2.23502e-36)
(0.423927 -0.774839 1.54913e-17 -0.489103 -4.63864e-17 -1.94581e-34)
(0.562827 -0.569118 2.11332e-17 -0.578028 1.15349e-17 0)
(0.601922 -0.405299 -7.76987e-17 -0.67813 -2.61695e-17 4.33331e-34)
(0.689395 -0.205393 -1.59424e-16 -0.697299 3.40027e-17 -3.12216e-33)
(0.731656 -0.0672208 3.71303e-17 -0.80459 2.17122e-17 -5.60742e-34)
(0.766897 0.111441 -3.55934e-17 -0.794621 8.99887e-18 -6.2518e-34)
(0.866608 0.264416 9.23737e-17 -0.913602 -6.64245e-18 1.08247e-33)
(-2.83841 -3.20102 2.24055e-17 2.7879 -1.41572e-18 -6.53916e-35)
(-0.695874 -1.59837 -3.2246e-17 0.643258 -6.57642e-18 5.06095e-35)
(-0.24439 -1.43349 -6.51886e-17 0.209638 4.06294e-17 2.11138e-34)
(0.202599 -0.963625 1.54829e-16 -0.250835 -4.58184e-17 -8.9384e-34)
(0.411458 -0.716944 -1.50211e-16 -0.435041 4.5213e-17 3.90491e-34)
(0.512897 -0.480243 1.31133e-16 -0.564733 -8.90741e-18 -9.65569e-34)
(0.619212 -0.266924 7.10794e-17 -0.631295 -9.09747e-17 1.86612e-33)
(0.643188 -0.104743 -1.94465e-16 -0.703775 -9.0283e-18 -2.3927e-33)
(0.698361 0.0815866 -2.97945e-17 -0.704643 4.19118e-17 1.21728e-33)
(0.728859 0.224263 -2.7307e-18 -0.786833 5.15407e-19 2.60814e-35)
(0.737701 0.378007 9.80344e-18 -0.759735 4.31452e-17 2.35742e-34)
(0.818357 0.545645 8.06745e-17 -0.855709 -1.7767e-17 -1.08247e-33)
(-2.22851 -3.86768 6.81865e-18 2.19183 1.3539e-17 0)
(-0.489732 -1.64081 2.5693e-17 0.45147 -7.81959e-18 -5.59348e-35)
(-0.113179 -1.32386 5.60069e-17 0.087958 1.12821e-18 -1.75784e-34)
(0.241498 -0.740068 -1.19537e-16 -0.276524 2.78204e-17 1.06639e-33)
(0.403308 -0.449977 1.18995e-16 -0.420404 -1.21595e-17 -5.88064e-34)
(0.476898 -0.200525 -4.11825e-17 -0.514501 3.72235e-17 3.39613e-34)
(0.551613 0.0172961 -8.56144e-17 -0.560366 -8.40498e-18 6.17384e-34)
(0.564801 0.176006 5.75289e-17 -0.608727 -1.24588e-17 5.88157e-34)
(0.596306 0.347484 6.28524e-17 -0.600855 3.11208e-17 8.25156e-34)
(0.616593 0.492623 5.47674e-17 -0.658613 6.37329e-18 -3.71536e-35)
(0.611622 0.621364 1.68733e-16 -0.627589 -2.63216e-17 -1.1176e-34)
(0.670977 0.800616 -8.42751e-17 -0.698048 -2.32001e-18 -1.28154e-35)
(-1.42364 -4.36341 6.96888e-18 1.40141 -1.88331e-18 0)
(-0.290239 -1.66519 -4.40092e-17 0.266974 1.48582e-17 5.23182e-35)
(-0.0409852 -1.2323 -5.07339e-17 0.025716 -1.71425e-18 1.09546e-34)
(0.187126 -0.563379 6.57213e-17 -0.208352 -9.60241e-18 4.20387e-35)
(0.289586 -0.241217 -6.24284e-17 -0.299911 1.88087e-17 -2.14903e-35)
(0.334217 0.0168241 1.4771e-17 -0.356951 -1.71441e-17 0)
(0.378433 0.237004 -4.14251e-17 -0.383713 2.86875e-17 3.73713e-34)
(0.384629 0.392212 2.55381e-17 -0.411149 2.78954e-17 -1.96714e-34)
(0.400044 0.551337 -1.6256e-17 -0.402787 8.36063e-18 4.55514e-34)
(0.411537 0.697617 -2.10494e-18 -0.436889 2.24548e-17 8.05572e-34)
(0.403633 0.806381 -7.98078e-18 -0.413262 -2.97179e-17 -2.39955e-34)
(0.439946 0.99368 3.43624e-17 -0.456275 -2.94331e-17 -5.87209e-34)
(-0.489556 -4.62765 1.32513e-18 0.482169 -1.18266e-17 0)
(-0.0957993 -1.67607 4.0033e-18 0.08795 -1.01827e-17 5.38317e-35)
(-0.00879211 -1.18058 -8.69208e-18 0.00375543 1.87849e-17 3.71946e-35)
(0.0700054 -0.466156 -1.18348e-17 -0.0770541 9.59329e-19 -8.58096e-36)
(0.104995 -0.126974 4.06568e-17 -0.108358 -1.20365e-17 2.10687e-37)
(0.119995 0.135392 -1.17759e-17 -0.127459 1.34298e-18 -1.06538e-35)
(0.134545 0.356537 9.09823e-18 -0.136252 3.1932e-18 8.64089e-37)
(0.13633 0.509606 -1.86032e-17 -0.14498 5.99177e-18 1.95992e-34)
(0.140808 0.661779 2.56682e-17 -0.141691 -2.48241e-18 9.91669e-35)
(0.144494 0.808447 -1.28765e-17 -0.152738 2.42274e-18 1.86324e-34)
(0.140996 0.906179 -3.71994e-18 -0.144119 4.26701e-19 2.57846e-34)
(0.153161 1.09758 6.89833e-18 -0.158464 -9.51027e-18 -4.23763e-35)
(0.489722 -4.62774 2.50524e-18 -0.482171 8.71753e-18 -1.84681e-35)
(0.0967184 -1.67599 2.17411e-17 -0.0890438 1.41295e-17 -2.9823e-35)
(0.00922304 -1.18055 3.0061e-18 -0.0039628 4.10738e-18 -3.24436e-35)
(-0.0692597 -0.466081 -8.5683e-18 0.0764921 2.88739e-20 4.6768e-35)
(-0.104572 -0.126931 -1.04762e-17 0.108212 -7.90036e-18 -9.02796e-35)
(-0.119427 0.135451 1.00659e-17 0.127349 2.50907e-18 -1.6226e-35)
(-0.13423 0.356579 -7.64034e-18 0.136113 -9.81115e-18 -7.922e-36)
(-0.135939 0.509635 -1.6883e-18 0.145296 -2.15006e-17 -1.34738e-34)
(-0.140575 0.66183 -9.72039e-18 0.141558 -4.11837e-18 -1.88715e-34)
(-0.144331 0.808449 -7.65767e-18 0.153328 9.7502e-18 -1.54093e-34)
(-0.140839 0.906221 -8.34644e-19 0.144268 1.56056e-17 -5.89456e-36)
(-0.153189 1.09758 -5.53961e-19 0.158996 -2.42086e-18 1.40096e-35)
(1.42389 -4.3636 1.3451e-17 -1.40148 -3.11156e-18 2.00107e-35)
(0.291115 -1.66491 -4.68374e-17 -0.268014 -1.01529e-17 -3.91258e-34)