/*--------------------------------*- C++ -*----------------------------------*\
| =========                 |                                                 |
| \\      /  F ield         | foam-extend: Open Source CFD                    |
|  \\    /   O peration     | Version:  3.0                                   |
|   \\  /    A nd           | Web:         http://www.extend-project.de       |
|    \\/     M anipulation  |                                                 |
\*---------------------------------------------------------------------------*/
FoamFile
{
    version     2.0;
    format      ascii;
    class       volVectorField;
    location    "2.6";
    object      s;
}
// * * * * * * * * * * * * * * * * * * * * * * * * * * * * * * * * * * * * * //

dimensions      [0 0 0 0 0 0 0];

internalField   nonuniform List<vector> 
400
(
(-0.00216129 0.000510771 2.70914e-318)
(-0.00338817 0.00111986 4.7496e-318)
(-0.00522797 0.00137971 5.46008e-318)
(-0.0067559 0.00154278 5.59681e-318)
(-0.008407 0.00138323 5.45845e-318)
(-0.00976197 0.00121193 5.19419e-318)
(-0.0109969 0.000841753 4.79789e-318)
(-0.0119095 0.000432409 4.38068e-318)
(-0.0125643 -8.95797e-05 3.86537e-318)
(-0.012877 -0.000646889 3.37508e-318)
(-0.0128478 -0.00125192 2.81923e-318)
(-0.0124739 -0.00184166 2.32202e-318)
(-0.0117145 -0.00242826 1.7891e-318)
(-0.0106523 -0.00292033 1.33671e-318)
(-0.00919118 -0.00339482 8.73241e-319)
(-0.00754035 -0.00367637 4.89649e-319)
(-0.00551109 -0.00395597 1.39252e-319)
(-0.00355012 -0.00389738 -1.54297e-319)
(-0.00127745 -0.00354257 -3.08257e-319)
(0.000136843 -0.00222178 -2.94196e-319)
(-0.00234585 0.000952099 2.60478e-318)
(-0.00453624 0.00225694 5.51213e-318)
(-0.00761089 0.00294783 7.01827e-318)
(-0.0101561 0.00314335 7.75936e-318)
(-0.0128982 0.0028889 7.9477e-318)
(-0.015077 0.00243109 7.85994e-318)
(-0.0170453 0.00174931 7.47267e-318)
(-0.0184553 0.000987035 6.97494e-318)
(-0.0194466 0.00012176 6.2824e-318)
(-0.019889 -0.00078042 5.5681e-318)
(-0.0198053 -0.00172817 4.73342e-318)
(-0.0191859 -0.00267178 3.94456e-318)
(-0.0179761 -0.00361317 3.09457e-318)
(-0.0162969 -0.00446896 2.33846e-318)
(-0.0139986 -0.00524421 1.56483e-318)
(-0.0114488 -0.00576397 9.09669e-319)
(-0.00834238 -0.00601521 2.87349e-319)
(-0.00548983 -0.00568546 -1.95734e-319)
(-0.00232107 -0.00455633 -4.9745e-319)
(-0.00018301 -0.00222346 -4.52925e-319)
(-0.00208547 0.00279926 2.05482e-318)
(-0.00441072 0.00611227 4.83199e-318)
(-0.00768034 0.00766708 6.51938e-318)
(-0.0105233 0.00814334 7.48239e-318)
(-0.0135835 0.00764897 7.86556e-318)
(-0.0160142 0.00666313 7.88877e-318)
(-0.0182335 0.00520083 7.58064e-318)
(-0.0198132 0.00351418 7.10292e-318)
(-0.0209462 0.00160435 6.42598e-318)
(-0.0214635 -0.000407819 5.68916e-318)
(-0.021403 -0.00251185 4.84221e-318)
(-0.0207529 -0.00461114 4.01304e-318)
(-0.0194347 -0.0066784 3.14119e-318)
(-0.0176076 -0.0085464 2.346e-318)
(-0.0150623 -0.0101685 1.56627e-318)
(-0.0122575 -0.0112007 9.13414e-319)
(-0.00882042 -0.0115702 3.50796e-319)
(-0.00566048 -0.0106656 -2.32557e-320)
(-0.00228308 -0.00832278 -1.96322e-319)
(5.11513e-05 -0.00371151 -1.05681e-319)
(-0.0021128 0.00374275 1.21831e-318)
(-0.00418506 0.00839688 3.38128e-318)
(-0.00733931 0.0104835 4.96096e-318)
(-0.00987956 0.0110542 6.02061e-318)
(-0.0126972 0.0103042 6.58579e-318)
(-0.0148114 0.00890474 6.78749e-318)
(-0.0167866 0.00693952 6.66317e-318)
(-0.0181455 0.00471684 6.32448e-318)
(-0.0191543 0.0022566 5.79061e-318)
(-0.0196291 -0.00031689 5.15492e-318)
(-0.0196275 -0.00299909 4.42241e-318)
(-0.0191371 -0.00569796 3.67504e-318)
(-0.0180498 -0.00838537 2.90679e-318)
(-0.016539 -0.0108676 2.19106e-318)
(-0.0143021 -0.01306 1.51706e-318)
(-0.011849 -0.0145069 9.52825e-319)
(-0.00862808 -0.0150572 4.89239e-319)
(-0.00569571 -0.0138356 1.8526e-319)
(-0.00228099 -0.0107028 2.92882e-320)
(-2.69063e-05 -0.00451264 1.79247e-320)
(-0.0021345 0.00528652 9.99603e-319)
(-0.00385677 0.0115184 2.7797e-318)
(-0.00685257 0.0141498 4.12637e-318)
(-0.00900045 0.0147434 5.06187e-318)
(-0.0115163 0.013658 5.59594e-318)
(-0.0132625 0.0117686 5.80689e-318)
(-0.0149734 0.00921373 5.73493e-318)
(-0.0161065 0.00636298 5.4616e-318)
(-0.017005 0.00324377 5.01429e-318)
(-0.0174616 -1.17045e-05 4.46341e-318)
(-0.0175515 -0.00340809 3.82405e-318)
(-0.0172626 -0.00685377 3.15787e-318)
(-0.0164493 -0.0103244 2.47058e-318)
(-0.0153108 -0.0135944 1.81566e-318)
(-0.0134264 -0.0165547 1.1954e-318)
(-0.0113881 -0.0186213 6.58703e-319)
(-0.00839692 -0.019576 2.14899e-319)
(-0.0057401 -0.0182188 -9.16492e-320)
(-0.00222181 -0.0143288 -2.40664e-319)
(-0.000136305 -0.00617134 -1.74489e-319)
(-0.00229501 0.00660333 6.48609e-319)
(-0.00358199 0.0140241 2.0224e-318)
(-0.0063362 0.0169055 3.16897e-318)
(-0.00789259 0.0173324 4.02119e-318)
(-0.00992776 0.0158641 4.55175e-318)
(-0.0111254 0.0135502 4.80295e-318)
(-0.012422 0.010579 4.80298e-318)
(-0.0132125 0.00734323 4.61008e-318)
(-0.0139219 0.00386484 4.25928e-318)
(-0.0143246 0.000253092 3.80209e-318)
(-0.0145145 -0.00352222 3.2673e-318)
(-0.0144837 -0.00740085 2.69996e-318)
(-0.014048 -0.0113828 2.121e-318)
(-0.0134346 -0.0152504 1.56934e-318)
(-0.0120881 -0.0188915 1.05985e-318)
(-0.0106892 -0.0216331 6.27305e-319)
(-0.00811943 -0.0231912 2.82363e-319)
(-0.00594926 -0.0220096 5.79144e-320)
(-0.00233579 -0.0177135 -4.47871e-320)
(-0.000460207 -0.00778 -2.39424e-320)
(-0.00247635 0.00823327 7.11667e-319)
(-0.00313827 0.0166203 1.92629e-318)
(-0.00559601 0.0196045 2.8747e-318)
(-0.00646285 0.0197031 3.55716e-318)
(-0.00799275 0.0178403 3.97891e-318)
(-0.0086233 0.0151143 4.16604e-318)
(-0.00950922 0.0117971 4.15071e-318)
(-0.00996112 0.00825237 3.97188e-318)
(-0.0104824 0.00450664 3.6614e-318)
(-0.0108248 0.000627013 3.25802e-318)
(-0.011101 -0.00343764 2.78783e-318)
(-0.0113115 -0.00767366 2.28488e-318)
(-0.0112388 -0.012104 1.76927e-318)
(-0.0111534 -0.0165515 1.26837e-318)
(-0.0103587 -0.0208959 7.97684e-319)
(-0.00967283 -0.0244445 3.78405e-319)
(-0.00757539 -0.0267985 3.01034e-320)
(-0.00607966 -0.0261547 -2.23115e-319)
(-0.00235666 -0.0217196 -3.41567e-319)
(-0.000968627 -0.010116 -2.46227e-319)
(-0.00252367 0.00961221 5.68526e-319)
(-0.00247873 0.0185179 1.59831e-318)
(-0.00445069 0.0214657 2.42921e-318)
(-0.00456999 0.0211338 3.03813e-318)
(-0.00552155 0.0189466 3.41915e-318)
(-0.00556979 0.0159021 3.59593e-318)
(-0.00601497 0.0124046 3.59177e-318)
(-0.00611412 0.00873065 3.4406e-318)
(-0.00641985 0.00492797 3.17233e-318)
(-0.006674 0.000998461 2.82016e-318)
(-0.00700426 -0.00312581 2.41155e-318)
(-0.00742351 -0.00749777 1.97488e-318)
(-0.00769542 -0.0121626 1.53229e-318)
(-0.00812995 -0.0170259 1.10779e-318)
(-0.00792207 -0.0219479 7.17443e-319)
(-0.00800747 -0.0263097 3.8172e-319)
(-0.00651013 -0.0295308 1.11476e-319)
(-0.00583508 -0.0297147 -7.15901e-320)
(-0.00220327 -0.0254014 -1.51204e-319)
(-0.00142209 -0.0124614 -9.9737e-320)
(-0.00234827 0.010698 6.74143e-319)
(-0.00154707 0.0197318 1.66054e-318)
(-0.00286792 0.0226337 2.37477e-318)
(-0.00225102 0.0218532 2.86184e-318)
(-0.00261214 0.0194766 3.15038e-318)
(-0.00212044 0.0162084 3.26176e-318)
(-0.00213952 0.0126665 3.22492e-318)
(-0.00190301 0.0089782 3.06521e-318)
(-0.00197968 0.00524621 2.80965e-318)
(-0.00211318 0.00139008 2.48452e-318)
(-0.00244137 -0.0026577 2.1138e-318)
(-0.00299144 -0.00702935 1.72051e-318)
(-0.0035289 -0.0117763 1.32404e-318)
(-0.00439824 -0.0169271 9.41408e-319)
(-0.00473251 -0.0222868 5.86728e-319)
(-0.00557559 -0.0274323 2.70343e-319)
(-0.0047455 -0.0314802 6.6353e-321)
(-0.00504215 -0.0327419 -1.96011e-319)
(-0.00170719 -0.0287146 -2.99572e-319)
(-0.00181032 -0.0149422 -2.3314e-319)
(-0.00181937 0.0112169 5.85502e-319)
(-0.000436559 0.0200434 1.4876e-318)
(-0.000860853 0.0228981 2.15188e-318)
(0.000373879 0.021736 2.60462e-318)
(0.000641761 0.0193137 2.86403e-318)
(0.00159795 0.01594 2.9592e-318)
(0.00200302 0.0124902 2.91537e-318)
(0.00255263 0.00891117 2.76044e-318)
(0.00272558 0.00538258 2.52079e-318)
(0.00274883 0.00173592 2.2215e-318)
(0.0024862 -0.00208481 1.88622e-318)
(0.00189756 -0.0062945 1.53623e-318)
(0.00118692 -0.0109401 1.19052e-318)
(7.60189e-06 -0.0161989 8.66443e-319)
(-0.000810233 -0.0217974 5.7783e-319)
(-0.00230337 -0.0276018 3.36261e-319)
(-0.0022416 -0.0323542 1.47607e-319)
(-0.00346047 -0.0347833 1.76777e-320)
(-0.000866688 -0.031189 -5.00291e-320)
(-0.0017345 -0.0170112 -5.21931e-320)
(-0.0010837 0.0110069 6.59973e-319)
(0.000683316 0.0194165 1.55598e-318)
(0.00128365 0.0222758 2.15766e-318)
(0.00302182 0.0208701 2.53494e-318)
(0.00393272 0.0185584 2.73173e-318)
(0.00529131 0.0152014 2.77732e-318)
(0.00611419 0.0119577 2.70398e-318)
(0.00695808 0.00858174 2.53635e-318)
(0.00739918 0.00534697 2.29931e-318)
(0.00761766 0.00200055 2.01437e-318)
(0.00749007 -0.00148893 1.70339e-318)
(0.00696791 -0.00541322 1.38478e-318)
(0.00619756 -0.00979925 1.07523e-318)
(0.00485639 -0.0149845 7.89482e-319)
(0.00364781 -0.0205878 5.39559e-319)
(0.00161756 -0.0268464 3.30975e-319)
(0.000854426 -0.032045 1.70448e-319)
(-0.00131475 -0.035599 4.8201e-320)
(0.000227702 -0.0324212 -2.95204e-320)
(-0.00152533 -0.0184185 -6.32108e-320)
(-0.000176909 0.010355 5.80532e-319)
(0.00164885 0.0182046 1.43857e-318)
(0.00341382 0.0209841 2.02611e-318)
(0.00547721 0.0194672 2.39184e-318)
(0.00705927 0.017335 2.5685e-318)
(0.0087312 0.0140982 2.59876e-318)
(0.00996067 0.0111323 2.5135e-318)
(0.0110614 0.00803243 2.34275e-318)
(0.0117747 0.00515226 2.11132e-318)
(0.0122105 0.00217315 1.84094e-318)
(0.0122747 -0.000911019 1.55241e-318)
(0.0119185 -0.00444997 1.26376e-318)
(0.0112046 -0.00844861 9.91698e-319)
(0.00988158 -0.0133873 7.51459e-319)
(0.00840185 -0.0187919 5.55952e-319)
(0.00607025 -0.0252714 4.14185e-319)
(0.0044319 -0.0307341 3.27798e-319)
(0.00158481 -0.0352922 2.86212e-319)
(0.00153806 -0.0327827 2.56252e-319)
(-0.000659793 -0.0193886 1.59124e-319)
(0.000588527 0.00909278 6.16737e-319)
(0.00234512 0.0163461 1.48724e-318)
(0.00518368 0.0189861 2.03702e-318)
(0.00749592 0.0175214 2.34815e-318)
(0.00972267 0.0156347 2.47633e-318)
(0.0116593 0.0126319 2.46713e-318)
(0.0132647 0.0100055 2.35772e-318)
(0.0145859 0.00724613 2.17588e-318)
(0.0155563 0.00475986 1.94542e-318)
(0.0162142 0.00219142 1.68561e-318)
(0.0165071 -0.000442548 1.41527e-318)
(0.0163925 -0.00352053 1.1509e-318)
(0.0158395 -0.00702419 9.07683e-319)
(0.014683 -0.0115357 6.99187e-319)
(0.0130647 -0.0165047 5.37751e-319)
(0.0105855 -0.0228692 4.27851e-319)
(0.00810995 -0.0282225 3.74309e-319)
(0.00457579 -0.0334175 3.5469e-319)
(0.00283568 -0.0313498 3.31765e-319)
(-0.000112208 -0.0189948 2.11332e-319)
(0.0011528 0.00783411 5.65384e-319)
(0.00267311 0.0143501 1.42644e-318)
(0.00651544 0.0167065 1.95896e-318)
(0.00896273 0.0153541 2.24708e-318)
(0.0117892 0.0137026 2.34638e-318)
(0.0138952 0.0110044 2.31591e-318)
(0.0158067 0.00874133 2.19268e-318)
(0.0172732 0.00635852 2.00717e-318)
(0.0184492 0.00427573 1.78138e-318)
(0.0193014 0.0021294 1.53384e-318)
(0.0198307 -4.7591e-05 1.28205e-318)
(0.0200108 -0.00263327 1.04118e-318)
(0.0197163 -0.00559243 8.25895e-319)
(0.0188995 -0.00955688 6.49825e-319)
(0.0173255 -0.0139534 5.26002e-319)
(0.0150294 -0.0199495 4.61897e-319)
(0.0118408 -0.0250632 4.5914e-319)
(0.0081354 -0.0307069 5.01175e-319)
(0.00429921 -0.0295509 5.20898e-319)
(0.00136692 -0.0189411 3.77916e-319)
(0.00153417 0.00640552 6.00329e-319)
(0.0027879 0.0121115 1.46692e-318)
(0.00730805 0.0140056 1.94446e-318)
(0.00983356 0.0128713 2.16613e-318)
(0.0131051 0.0114568 2.21544e-318)
(0.0152992 0.0091597 2.15122e-318)
(0.0174047 0.00728522 2.01234e-318)
(0.018931 0.00531613 1.82403e-318)
(0.0202321 0.00363378 1.6061e-318)
(0.0212195 0.00190699 1.37394e-318)
(0.0219551 0.000171513 1.14218e-318)
(0.0224239 -0.0019112 9.24105e-319)
(0.0224366 -0.00430112 7.3306e-319)
(0.0220308 -0.00760172 5.80359e-319)
(0.0206538 -0.0112692 4.7872e-319)
(0.0186579 -0.0165344 4.31601e-319)
(0.0150014 -0.0210007 4.39832e-319)
(0.0110392 -0.0264133 4.8244e-319)
(0.00554744 -0.0255118 4.9534e-319)
(0.00178976 -0.0164389 3.5803e-319)
(0.00120651 0.00498898 6.73431e-319)
(0.00244488 0.00989979 1.492e-318)
(0.00744109 0.0113758 1.88766e-318)
(0.0100383 0.010417 2.04016e-318)
(0.0136032 0.00924247 2.04169e-318)
(0.0157587 0.00736638 1.95204e-318)
(0.0179036 0.00588492 1.80386e-318)
(0.0193693 0.00432838 1.61909e-318)
(0.0206814 0.00302742 1.41344e-318)
(0.0217213 0.00169038 1.19985e-318)
(0.022602 0.000361507 9.90216e-319)
(0.0233347 -0.00124921 7.95609e-319)
(0.0236822 -0.0030905 6.27829e-319)
(0.0237868 -0.00570499 4.97574e-319)
(0.0227987 -0.00860714 4.16399e-319)
(0.0214672 -0.013006 3.89294e-319)
(0.017677 -0.0167877 4.14546e-319)
(0.0143077 -0.0219473 4.77949e-319)
(0.00695669 -0.0219453 5.04075e-319)
(0.00400643 -0.0157809 3.7467e-319)
(0.00137544 0.00419216 6.63466e-319)
(0.00198164 0.00769884 1.40052e-318)
(0.00702865 0.00851357 1.7062e-318)
(0.0094166 0.00780919 1.78937e-318)
(0.0129307 0.00688967 1.75876e-318)
(0.0148778 0.00552118 1.66018e-318)
(0.0168655 0.0044351 1.52135e-318)
(0.0181478 0.00330024 1.35634e-318)
(0.0193464 0.00234642 1.17763e-318)
(0.0203202 0.00136468 9.94633e-319)
(0.021245 0.00038566 8.17007e-319)
(0.0221055 -0.000796345 6.53441e-319)
(0.0227218 -0.00214585 5.13665e-319)
(0.0232019 -0.00405987 4.06685e-319)
(0.0226776 -0.00618468 3.40678e-319)
(0.021902 -0.00945248 3.17729e-319)
(0.018446 -0.0122584 3.33677e-319)
(0.0153505 -0.0161815 3.69107e-319)
(0.00759007 -0.0159913 3.62456e-319)
(0.00379503 -0.0107761 2.4058e-319)
(-1.45287e-05 0.00268927 9.56936e-319)
(0.00134909 0.00574443 1.47461e-318)
(0.00628395 0.00610387 1.59822e-318)
(0.00858772 0.00556935 1.56974e-318)
(0.0118891 0.00489467 1.48514e-318)
(0.0134701 0.00395138 1.36752e-318)
(0.0151358 0.00323797 1.23194e-318)
(0.0161118 0.00247375 1.08366e-318)
(0.017075 0.00184571 9.29634e-319)
(0.017902 0.00117429 7.75233e-319)
(0.0187573 0.00052232 6.27399e-319)
(0.0196913 -0.000285051 4.92144e-319)
(0.0204803 -0.00116973 3.76572e-319)
(0.0213748 -0.00245945 2.87843e-319)
(0.0213398 -0.00383184 2.32858e-319)
(0.0214824 -0.00610228 2.1442e-319)
(0.0185757 -0.00798137 2.2814e-319)
(0.0170124 -0.011248 2.63337e-319)
(0.00831254 -0.0116122 2.6146e-319)
(0.00716056 -0.0102644 1.6526e-319)
(0.000183411 0.00272096 4.73236e-319)
(0.000122578 0.00330132 8.30682e-319)
(0.00392472 0.00338322 9.32633e-319)
(0.00533698 0.00315924 9.29352e-319)
(0.00762602 0.00285368 8.91008e-319)
(0.00863182 0.00244907 8.28731e-319)
(0.00969317 0.00208108 7.53485e-319)
(0.0102889 0.00168571 6.67596e-319)
(0.0108971 0.0013171 5.76886e-319)
(0.0114126 0.000921563 4.84481e-319)
(0.0120417 0.000511735 3.9591e-319)
(0.0126783 2.80399e-05 3.15421e-319)
(0.0134023 -0.000517338 2.47235e-319)
(0.0140837 -0.00122807 1.96154e-319)
(0.0144107 -0.00201721 1.65878e-319)
(0.0146214 -0.00311114 1.56125e-319)
(0.0130644 -0.00412473 1.61258e-319)
(0.0118237 -0.00529406 1.65482e-319)
(0.00616811 -0.00528756 1.32464e-319)
(0.00403053 -0.00239183 3.45846e-320)
(-0.00089175 0.00122354 9.40582e-319)
(0.000513066 0.00251202 8.53795e-319)
(0.00341711 0.00204589 7.29671e-319)
(0.00418845 0.0018901 6.17809e-319)
(0.00576312 0.00167265 5.38739e-319)
(0.00605738 0.00143634 4.68256e-319)
(0.00664322 0.00133514 4.04556e-319)
(0.00680302 0.00117026 3.42664e-319)
(0.00708171 0.00109621 2.83065e-319)
(0.00734668 0.000951309 2.25571e-319)
(0.00765735 0.000876753 1.71179e-319)
(0.00817599 0.000704937 1.21466e-319)
(0.00859166 0.000615086 7.79981e-320)
(0.00942432 0.000347257 4.28256e-320)
(0.00966508 0.000231634 1.84978e-320)
(0.0107272 -0.000316424 6.96138e-321)
(0.00960656 -0.000428636 7.49498e-321)
(0.0106898 -0.00176801 1.8567e-320)
(0.00512391 -0.001669 1.48813e-320)
(0.00776195 -0.00447747 -1.70057e-320)
)
;

boundaryField
{
    cavity
    {
        type            myHeatFlux;
        ThetaWall       uniform 0;
        value           nonuniform List<vector> 
60
(
(0.001 0 0)
(0.001 0 0)
(0.001 0 0)
(0.001 0 0)
(0.001 0 0)
(0.001 0 0)
(0.001 0 0)
(0.001 0 0)
(0.001 0 0)
(0.001 0 0)
(0.001 0 0)
(0.001 0 0)
(0.001 0 0)
(0.001 0 0)
(0.001 0 0)
(0.001 0 0)
(0.001 0 0)
(0.001 0 0)
(0.001 0 0)
(0.001 0 0)
(0 -0.001 0)
(0 -0.001 0)
(0 -0.001 0)
(0 -0.001 0)
(0 -0.001 0)
(0 -0.001 0)
(0 -0.001 0)
(0 -0.001 0)
(0 -0.001 0)
(0 -0.001 0)
(0 -0.001 0)
(0 -0.001 0)
(0 -0.001 0)
(0 -0.001 0)
(0 -0.001 0)
(0 -0.001 0)
(0 -0.001 0)
(0 -0.001 0)
(0 -0.001 0)
(0 -0.001 0)
(-0.001 0 0)
(-0.001 0 0)
(-0.001 0 0)
(-0.001 0 0)
(-0.001 0 0)
(-0.001 0 0)
(-0.001 0 0)
(-0.001 0 0)
(-0.001 0 0)
(-0.001 0 0)
(-0.001 0 0)
(-0.001 0 0)
(-0.001 0 0)
(-0.001 0 0)
(-0.001 0 0)
(-0.001 0 0)
(-0.001 0 0)
(-0.001 0 0)
(-0.001 0 0)
(-0.001 0 0)
)
;
    }
    lid
    {
        type            myHeatFlux;
        ThetaWall       uniform 0;
        value           nonuniform List<vector> 
20
(
(0.000135815 0.0009 0)
(0.000135815 0.0009 0)
(0.000135815 0.0009 0)
(0.000135815 0.0009 0)
(0.000135815 0.0009 0)
(0.000135815 0.0009 0)
(0.000135815 0.0009 0)
(0.000135815 0.0009 0)
(0.000135815 0.0009 0)
(0.000135815 0.0009 0)
(0.000135815 0.0009 0)
(0.000135815 0.0009 0)
(0.000135815 0.0009 0)
(0.000135815 0.0009 0)
(0.000135815 0.0009 0)
(0.000135815 0.0009 0)
(0.000135815 0.0009 0)
(0.000135815 0.0009 0)
(0.000135815 0.0009 0)
(0.000135815 0.0009 0)
)
;
    }
    frontAndBack
    {
        type            empty;
    }
}


// ************************************************************************* //
