/*--------------------------------*- C++ -*----------------------------------*\
| =========                 |                                                 |
| \\      /  F ield         | foam-extend: Open Source CFD                    |
|  \\    /   O peration     | Version:  3.0                                   |
|   \\  /    A nd           | Web:         http://www.extend-project.de       |
|    \\/     M anipulation  |                                                 |
\*---------------------------------------------------------------------------*/
FoamFile
{
    version     2.0;
    format      ascii;
    class       volSymmTensorField;
    location    "2.6";
    object      sigma;
}
// * * * * * * * * * * * * * * * * * * * * * * * * * * * * * * * * * * * * * //

dimensions      [0 0 0 0 0 0 0];

internalField   nonuniform List<symmTensor> 
400
(
(0.0304249 -0.0267064 4.09049e-317 -0.0415999 5.71153e-317 0.0111749)
(0.0684782 -0.0261589 4.63907e-317 -0.0496455 6.65042e-317 -0.0188327)
(0.0877087 -0.0233697 4.67645e-317 -0.0508281 6.36732e-317 -0.0368806)
(0.0976771 -0.0252855 4.6031e-317 -0.0508057 5.81494e-317 -0.0468714)
(0.0961865 -0.0270168 4.29464e-317 -0.0463655 4.95458e-317 -0.0498211)
(0.0890631 -0.0318982 3.94867e-317 -0.0412672 4.32375e-317 -0.0477959)
(0.075221 -0.0365185 3.54137e-317 -0.0337139 3.52891e-317 -0.0415071)
(0.0578438 -0.0415826 3.13767e-317 -0.0255771 3.05106e-317 -0.0322667)
(0.0369674 -0.045262 2.74783e-317 -0.0162258 2.42776e-317 -0.0207416)
(0.01445 -0.0475081 2.39341e-317 -0.00651991 2.12616e-317 -0.00793009)
(-0.00921516 -0.0476958 2.0837e-317 0.00367453 1.67011e-317 0.00554064)
(-0.0324416 -0.0458538 1.82474e-317 0.0137196 1.52099e-317 0.0187219)
(-0.0547159 -0.0424989 1.61787e-317 0.0237846 1.19804e-317 0.0309313)
(-0.0737391 -0.0377418 1.45569e-317 0.0327213 1.15781e-317 0.0410178)
(-0.0894711 -0.0333877 1.33647e-317 0.0412866 9.18636e-318 0.0481846)
(-0.0979498 -0.028768 1.21731e-317 0.047062 9.22858e-318 0.0508878)
(-0.100453 -0.0273229 1.12825e-317 0.0521266 7.0913e-318 0.0483267)
(-0.0903607 -0.0256172 9.00673e-318 0.0520853 6.53016e-318 0.0382754)
(-0.0705066 -0.0285031 6.89851e-318 0.0506901 3.91503e-318 0.0198166)
(-0.0310974 -0.0289084 6.40097e-319 0.0420338 6.05221e-319 -0.0109364)
(0.0304095 -0.0144593 8.55954e-318 -0.0768957 2.58983e-317 0.0464863)
(0.0636212 -0.0102462 1.58645e-317 -0.0831333 4.22794e-317 0.0195121)
(0.0798448 -0.00604928 2.13629e-317 -0.0831193 4.57067e-317 0.00327446)
(0.0845539 -0.0040737 2.47985e-317 -0.0784083 4.43582e-317 -0.00614563)
(0.0813635 -0.00272997 2.63615e-317 -0.0703283 3.9329e-317 -0.0110352)
(0.0730819 -0.00356153 2.66011e-317 -0.060361 3.49182e-317 -0.012721)
(0.0607831 -0.00448616 2.58276e-317 -0.0486617 2.90809e-317 -0.0121214)
(0.0460979 -0.00613659 2.4441e-317 -0.0361881 2.51743e-317 -0.00990976)
(0.0294749 -0.00710933 2.27056e-317 -0.0229046 2.03611e-317 -0.00657027)
(0.0118012 -0.00754313 2.08668e-317 -0.00920636 1.77248e-317 -0.00259485)
(-0.00653915 -0.00708561 1.91025e-317 0.00486179 1.42279e-317 0.00167735)
(-0.024813 -0.00564351 1.75492e-317 0.0190332 1.28646e-317 0.00577988)
(-0.0426387 -0.00400621 1.63036e-317 0.0332903 1.05456e-317 0.0093484)
(-0.0587789 -0.00185512 1.54121e-317 0.0469364 1.0241e-317 0.0118425)
(-0.0728248 -0.00100355 1.49366e-317 0.0601081 8.87683e-318 0.0127168)
(-0.0824478 -0.000641339 1.47855e-317 0.0712215 9.41403e-318 0.0112262)
(-0.0867605 -0.00302983 1.51575e-317 0.0803652 8.94596e-318 0.00639533)
(-0.0821079 -0.00645383 1.54731e-317 0.0852674 1.02807e-317 -0.00315948)
(-0.0653911 -0.012054 1.6426e-317 0.0851332 1.11913e-317 -0.0197421)
(-0.0308837 -0.0177576 1.56872e-317 0.0782062 1.35021e-317 -0.0473224)
(0.0291562 -0.0186267 5.57867e-318 -0.0899856 1.60618e-317 0.0608293)
(0.0639579 -0.00658745 9.80722e-318 -0.100355 2.80414e-317 0.0363972)
(0.0789346 0.00361903 1.39101e-317 -0.0998286 3.22442e-317 0.020894)
(0.0830011 0.0110207 1.71211e-317 -0.0942596 3.25265e-317 0.0112585)
(0.0782887 0.0169829 1.89932e-317 -0.0836098 3.01361e-317 0.00532113)
(0.0691941 0.0197331 1.99283e-317 -0.0710641 2.72526e-317 0.00186995)
(0.056953 0.022046 2.0018e-317 -0.0569827 2.35635e-317 2.97668e-05)
(0.0429564 0.0227026 1.95791e-317 -0.042213 2.0501e-317 -0.000743342)
(0.028078 0.0237041 1.8802e-317 -0.0272564 1.7207e-317 -0.000821655)
(0.0122348 0.0244986 1.78892e-317 -0.0116939 1.48433e-317 -0.000540928)
(-0.00381725 0.0256295 1.69966e-317 0.00392058 1.23705e-317 -0.000103327)
(-0.0204956 0.0271094 1.62561e-317 0.0202962 1.08468e-317 0.000199353)
(-0.037069 0.0278373 1.57743e-317 0.0369211 9.16399e-318 0.000147905)
(-0.0532107 0.0284355 1.56185e-317 0.0538107 8.33318e-318 -0.00059999)
(-0.0681526 0.026284 1.58751e-317 0.0706131 7.22847e-318 -0.0024605)
(-0.0794983 0.0228208 1.64781e-317 0.0854852 6.84425e-318 -0.00598693)
(-0.0863424 0.0148592 1.76043e-317 0.0984473 6.19726e-318 -0.0121049)
(-0.082659 0.00459232 1.87462e-317 0.104694 6.38871e-318 -0.0220348)
(-0.067297 -0.00877611 2.03859e-317 0.105267 7.60795e-318 -0.03797)
(-0.0301187 -0.0240735 2.12551e-317 0.0930918 1.26998e-317 -0.0629731)
(0.0303212 -0.0152617 -4.02726e-318 -0.104634 5.79167e-318 0.074313)
(0.0630966 0.00251472 -9.23705e-320 -0.110614 1.65293e-317 0.0475178)
(0.0746807 0.0175841 4.67985e-318 -0.105228 2.11381e-317 0.0305472)
(0.0755051 0.0268266 8.63523e-318 -0.0953061 2.26276e-317 0.019801)
(0.0689929 0.0341102 1.16617e-317 -0.0818271 2.18495e-317 0.0128342)
(0.0591356 0.0368664 1.3639e-317 -0.0674242 2.03757e-317 0.00828862)
(0.0480139 0.0392756 1.47677e-317 -0.0532428 1.80974e-317 0.0052289)
(0.0359384 0.039819 1.52424e-317 -0.0390196 1.60583e-317 0.00308117)
(0.0243313 0.0410223 1.52726e-317 -0.0258334 1.37607e-317 0.00150203)
(0.0118979 0.0422659 1.50422e-317 -0.0120702 1.20227e-317 0.000172309)
(-0.000179237 0.0440934 1.47026e-317 0.00122729 1.0191e-317 -0.00104805)
(-0.0136129 0.0466677 1.43685e-317 0.0160336 8.98981e-318 -0.00242072)
(-0.0271894 0.0484251 1.41174e-317 0.0312885 7.70927e-318 -0.00409915)
(-0.0419976 0.0503587 1.39865e-317 0.0484004 7.04681e-318 -0.00640279)
(-0.0565512 0.0486913 1.39724e-317 0.0662636 6.30099e-318 -0.00971242)
(-0.0696765 0.0454831 1.40201e-317 0.0842806 6.2043e-318 -0.0146041)
(-0.0793906 0.0353463 1.40276e-317 0.101453 6.18644e-318 -0.0220625)
(-0.0796371 0.0216735 1.38559e-317 0.113081 7.09365e-318 -0.0334435)
(-0.0680219 0.000788408 1.33227e-317 0.119213 8.71191e-318 -0.0511908)
(-0.0318092 -0.0234894 1.25085e-317 0.110591 1.14356e-317 -0.0787813)
(0.0332808 -0.00875 5.075e-318 -0.122895 7.43876e-318 0.0896143)
(0.0658528 0.0124137 5.65782e-318 -0.123755 1.17356e-317 0.0579027)
(0.0749187 0.0300883 7.34267e-318 -0.112868 1.44564e-317 0.0379496)
(0.0728745 0.0393027 9.2407e-318 -0.0982228 1.56865e-317 0.0253483)
(0.0647043 0.0463753 1.07887e-317 -0.0818351 1.56219e-317 0.0171308)
(0.0539066 0.0478144 1.19716e-317 -0.0655529 1.48938e-317 0.0116463)
(0.0435651 0.0492935 1.27122e-317 -0.0513473 1.36269e-317 0.00778211)
(0.0327119 0.0488186 1.31161e-317 -0.0375834 1.22804e-317 0.00487159)
(0.023606 0.0496242 1.32665e-317 -0.0261279 1.07969e-317 0.00252189)
(0.0135256 0.0508274 1.32759e-317 -0.0139249 9.50047e-318 0.000399283)
(0.00440976 0.0532766 1.32436e-317 -0.00275853 8.2314e-318 -0.00165123)
(-0.00696212 0.057013 1.32605e-317 0.0108422 7.24326e-318 -0.00388005)
(-0.0186158 0.0603872 1.34035e-317 0.0250848 6.33227e-318 -0.00646896)
(-0.0332218 0.0644747 1.37238e-317 0.042959 5.7325e-318 -0.00973723)
(-0.0484443 0.0646012 1.42749e-317 0.0626023 5.24917e-318 -0.0141579)
(-0.064352 0.0633578 1.50247e-317 0.0847344 5.15665e-318 -0.0203824)
(-0.0779573 0.0529358 1.60486e-317 0.107609 5.38188e-318 -0.0296517)
(-0.0826936 0.0382744 1.71075e-317 0.126309 6.38363e-318 -0.0436149)
(-0.0747801 0.0119346 1.83857e-317 0.14014 8.6485e-318 -0.0653603)
(-0.0369158 -0.0188568 1.94983e-317 0.136161 1.37529e-317 -0.099245)
(0.0353514 0.00601787 1.80772e-318 -0.142309 5.10085e-318 0.106958)
(0.0647373 0.0278085 2.76941e-318 -0.133059 8.2966e-318 0.0683212)
(0.0698192 0.0452451 4.74317e-318 -0.114092 1.0141e-317 0.0442725)
(0.0635796 0.0507543 6.69583e-318 -0.0928905 1.11191e-317 0.029311)
(0.0539781 0.0546307 8.45344e-318 -0.073698 1.12776e-317 0.0197199)
(0.0425976 0.0521264 9.77016e-318 -0.0559898 1.09584e-317 0.0133922)
(0.0340454 0.0506086 1.06918e-317 -0.0430176 1.02278e-317 0.00897221)
(0.0255132 0.0476787 1.1268e-317 -0.0311405 9.36866e-318 0.00562732)
(0.0201717 0.0470679 1.15965e-317 -0.0230818 8.37175e-318 0.0029101)
(0.0138518 0.0478645 1.17719e-317 -0.0142665 7.44494e-318 0.000414697)
(0.00920548 0.050998 1.18794e-317 -0.00719177 6.51622e-318 -0.00201371)
(0.00152241 0.0566613 1.19862e-317 0.00316046 5.74953e-318 -0.00468287)
(-0.00635184 0.0629579 1.21363e-317 0.014134 5.04818e-318 -0.00778213)
(-0.0191707 0.0713384 1.23465e-317 0.0308953 4.57247e-318 -0.0117246)
(-0.0331693 0.0759552 1.25984e-317 0.0502412 4.2508e-318 -0.0170719)
(-0.051276 0.0803127 1.2855e-317 0.0759749 4.30387e-318 -0.0246989)
(-0.0680092 0.0732104 1.30014e-317 0.104194 4.77075e-318 -0.0361851)
(-0.0791637 0.0617991 1.30279e-317 0.132922 6.01608e-318 -0.053758)
(-0.0766642 0.0322484 1.27111e-317 0.158109 8.19806e-318 -0.0814447)
(-0.0409048 -0.00376408 1.22827e-317 0.165689 1.13286e-317 -0.124784)
(0.0388731 0.0318187 1.02346e-317 -0.165623 8.40952e-318 0.12675)
(0.0632966 0.0481239 9.09953e-318 -0.141943 7.40305e-318 0.0786463)
(0.0645855 0.0603603 8.81302e-318 -0.114269 7.61204e-318 0.0496831)
(0.0536637 0.0588088 9.11355e-318 -0.0858423 7.952e-318 0.0321786)
(0.0433772 0.0568921 9.51465e-318 -0.0646521 8.06316e-318 0.0212748)
(0.0316283 0.0491496 9.97113e-318 -0.0458853 7.92807e-318 0.014257)
(0.0253428 0.0435339 1.03273e-317 -0.0348062 7.54371e-318 0.00946346)
(0.0192248 0.0375597 1.05938e-317 -0.0251116 7.0205e-318 0.00588686)
(0.0177718 0.034973 1.07763e-317 -0.0207712 6.38253e-318 0.00299935)
(0.0151541 0.0347954 1.09199e-317 -0.0154988 5.73186e-318 0.000344648)
(0.0150097 0.0382487 1.10739e-317 -0.0127408 5.07176e-318 -0.00226885)
(0.0110181 0.0452471 1.129e-317 -0.00584683 4.48606e-318 -0.00517131)
(0.00711615 0.0545537 1.16179e-317 0.00150054 3.96899e-318 -0.00861668)
(-0.00378614 0.0671954 1.20956e-317 0.016859 3.61241e-318 -0.0130729)
(-0.0162461 0.0777171 1.27725e-317 0.0355271 3.44167e-318 -0.019281)
(-0.0368061 0.0895431 1.36412e-317 0.0651438 3.61055e-318 -0.0283377)
(-0.0568919 0.0897505 1.47904e-317 0.0992561 4.25643e-318 -0.0423642)
(-0.0764215 0.0870863 1.60531e-317 0.140823 5.70118e-318 -0.0644016)
(-0.0807279 0.0610169 1.7592e-317 0.180914 8.4469e-318 -0.100186)
(-0.0490518 0.0286889 1.89785e-317 0.207248 1.36828e-317 -0.158196)
(0.0389776 0.0684133 7.02049e-318 -0.182191 7.28362e-318 0.143213)
(0.0548202 0.073444 6.93608e-318 -0.141052 6.44712e-318 0.0862317)
(0.0527033 0.0754284 7.47742e-318 -0.105655 6.09978e-318 0.052952)
(0.0372177 0.0639024 8.10414e-318 -0.0706543 6.05209e-318 0.0334367)
(0.0273799 0.0538256 8.76932e-318 -0.0490462 6.01507e-318 0.0216663)
(0.0161019 0.0397609 9.28015e-318 -0.0303946 5.90005e-318 0.0142927)
(0.0127713 0.0290553 9.65424e-318 -0.0221696 5.65275e-318 0.00939833)
(0.00980349 0.0196471 9.89855e-318 -0.0156067 5.30528e-318 0.00580321)
(0.0126169 0.0146512 1.00582e-317 -0.0155672 4.86383e-318 0.00295034)
(0.0144169 0.0133924 1.01828e-317 -0.0147301 4.38338e-318 0.000313177)
(0.0192927 0.0170738 1.03185e-317 -0.0170088 3.87493e-318 -0.00228387)
(0.0200502 0.0256124 1.05051e-317 -0.0148127 3.39312e-318 -0.00523751)
(0.0213425 0.038392 1.0771e-317 -0.0125427 2.95338e-318 -0.0087998)
(0.0140382 0.0562154 1.11304e-317 -0.000478175 2.62922e-318 -0.0135601)
(0.00548303 0.0743287 1.15771e-317 0.0148757 2.47938e-318 -0.0203587)
(-0.0156505 0.0960925 1.20973e-317 0.0462702 2.65754e-318 -0.0306197)
(-0.0359767 0.107585 1.26039e-317 0.0829445 3.34984e-318 -0.0469678)
(-0.0640019 0.118689 1.31098e-317 0.137513 4.89968e-318 -0.0735108)
(-0.0739421 0.102714 1.33686e-317 0.191834 7.64745e-318 -0.117892)
(-0.0525182 0.0806251 1.34732e-317 0.244365 1.17854e-317 -0.191847)
(0.0380065 0.112901 1.29226e-317 -0.190248 9.57456e-318 0.152241)
(0.043871 0.100253 1.14856e-317 -0.132405 6.29757e-318 0.0885336)
(0.0392553 0.0865948 1.0533e-317 -0.0920858 5.01404e-318 0.0528305)
(0.0198865 0.063666 1.01241e-317 -0.0524677 4.53494e-318 0.0325812)
(0.0114538 0.0437574 9.88094e-318 -0.0322088 4.37222e-318 0.0207551)
(0.00112067 0.0235329 9.8045e-318 -0.0146429 4.28551e-318 0.0135223)
(0.000998414 0.0074061 9.75278e-318 -0.00983301 4.15594e-318 0.0088346)
(0.00118756 -0.00531494 9.72432e-318 -0.00661464 3.95168e-318 0.00542708)
(0.00811762 -0.0129684 9.70793e-318 -0.0108657 3.66183e-318 0.00274807)
(0.0141316 -0.0158145 9.72737e-318 -0.0143878 3.31102e-318 0.000256223)
(0.0238261 -0.012523 9.81005e-318 -0.0216051 2.91502e-318 -0.00222104)
(0.029255 -0.00372913 9.98864e-318 -0.0241682 2.51247e-318 -0.0050868)
(0.0358069 0.0117223 1.02998e-317 -0.0271828 2.13253e-318 -0.00862414)
(0.0324145 0.0330581 1.07785e-317 -0.0189586 1.83815e-318 -0.0134559)
(0.0282586 0.0589221 1.1482e-317 -0.0077072 1.707e-318 -0.0205514)
(0.0070683 0.0901476 1.24301e-317 0.0244649 1.88809e-318 -0.0315332)
(-0.0129639 0.116649 1.37451e-317 0.0625145 2.59981e-318 -0.0495506)
(-0.0501564 0.145937 1.5303e-317 0.129859 4.22283e-318 -0.0797029)
(-0.0666146 0.150632 1.72983e-317 0.198517 7.38748e-318 -0.131902)
(-0.0583126 0.152922 1.91442e-317 0.280993 1.33982e-317 -0.222681)
(0.0308228 0.15813 9.3819e-318 -0.177013 8.38711e-318 0.14619)
(0.0259507 0.125252 9.19184e-318 -0.108618 5.78419e-318 0.0826669)
(0.020333 0.0932337 9.34682e-318 -0.0685863 4.28976e-318 0.0482533)
(-0.000857151 0.0589621 9.46098e-318 -0.0284361 3.59557e-318 0.0292933)
(-0.00699652 0.0286431 9.58498e-318 -0.0115268 3.31795e-318 0.0185233)
(-0.0153368 0.00267204 9.59646e-318 0.0032997 3.20815e-318 0.0120371)
(-0.0124226 -0.0189189 9.54447e-318 0.0045197 3.11882e-318 0.00790289)
(-0.00890083 -0.0346954 9.45007e-318 0.00401417 2.98319e-318 0.00488666)
(0.00141295 -0.0450346 9.35361e-318 -0.0039472 2.77266e-318 0.00253425)
(0.0114322 -0.049417 9.29127e-318 -0.0117348 2.49187e-318 0.000302595)
(0.0251132 -0.0466792 9.29374e-318 -0.0231989 2.15119e-318 -0.00191436)
(0.035258 -0.0377444 9.38811e-318 -0.0307064 1.77524e-318 -0.00455151)
(0.0468287 -0.0197877 9.59487e-318 -0.0389943 1.39119e-318 -0.00783442)
(0.0484795 0.00504778 9.93107e-318 -0.03603 1.05066e-318 -0.0124494)
(0.0501767 0.0391438 1.04077e-317 -0.0308466 8.31764e-319 -0.0193301)
(0.0318196 0.0805982 1.10362e-317 -0.00154688 8.8331e-319 -0.0302728)
(0.0163708 0.12471 1.17849e-317 0.0322399 1.45162e-318 -0.0486107)
(-0.0264693 0.174906 1.26978e-317 0.106677 2.98019e-318 -0.0802079)
(-0.0443794 0.206801 1.35904e-317 0.180807 6.07725e-318 -0.136427)
(-0.0534075 0.23863 1.44304e-317 0.290381 1.15138e-317 -0.236974)
(0.0212377 0.19441 1.33677e-317 -0.144055 9.61696e-318 0.122817)
(0.00701032 0.142096 1.22435e-317 -0.0745589 5.45892e-318 0.0675486)
(0.000642871 0.0910268 1.13923e-317 -0.0395654 3.4952e-318 0.0389226)
(-0.02052 0.0477391 1.08843e-317 -0.00306483 2.63317e-318 0.0235848)
(-0.0241045 0.00755876 1.04191e-317 0.00904858 2.35168e-318 0.0150559)
(-0.0298984 -0.022684 1.00469e-317 0.0199915 2.30155e-318 0.00990691)
(-0.0241455 -0.0490737 9.692e-318 0.0175219 2.29402e-318 0.00662357)
(-0.0174585 -0.0672298 9.38236e-318 0.0133 2.23897e-318 0.00415846)
(-0.00425761 -0.080012 9.12446e-318 0.00203791 2.09947e-318 0.0022197)
(0.00925576 -0.0861304 8.94134e-318 -0.00957954 1.8747e-318 0.000323786)
(0.026322 -0.0845144 8.85056e-318 -0.0247476 1.57394e-318 -0.00157444)
(0.0407133 -0.076835 8.8728e-318 -0.0368339 1.21696e-318 -0.00387934)
(0.0568768 -0.0578615 9.03185e-318 -0.0500968 8.28998e-319 -0.00678)
(0.0636172 -0.0323772 9.35403e-318 -0.0527064 4.54007e-319 -0.0109108)
(0.0711245 0.00822404 9.8967e-318 -0.0539807 1.64203e-319 -0.0171438)
(0.0565122 0.0560767 1.06978e-317 -0.029338 9.83487e-320 -0.0271743)
(0.0456192 0.118362 1.19238e-317 -0.00135253 5.02326e-319 -0.0442666)
(-0.00161078 0.187785 1.35186e-317 0.0759599 1.84327e-318 -0.0743491)
(-0.023141 0.254606 1.58193e-317 0.152633 4.97683e-318 -0.129492)
(-0.0501427 0.325774 1.82207e-317 0.282504 1.16888e-317 -0.232361)
(0.00486905 0.215526 9.9222e-318 -0.0850137 8.34103e-318 0.0801447)
(-0.0155561 0.148333 1.0094e-317 -0.0281856 4.79958e-318 0.0437418)
(-0.0223626 0.0814809 1.04504e-317 -0.00330174 2.81955e-318 0.0256644)
(-0.0400805 0.0316228 1.04765e-317 0.0239473 1.95597e-318 0.0161333)
(-0.0411833 -0.0169317 1.03384e-317 0.0303556 1.7074e-318 0.0108277)
(-0.0431864 -0.0504286 1.00084e-317 0.0357265 1.70629e-318 0.00745995)
(-0.0352886 -0.0809103 9.60985e-318 0.0300624 1.74947e-318 0.00522611)
(-0.02557 -0.100902 9.20324e-318 0.0221626 1.73794e-318 0.00340739)
(-0.0107891 -0.11576 8.84126e-318 0.0088444 1.63515e-318 0.00194473)
(0.00532819 -0.123351 8.5565e-318 -0.00575797 1.43665e-318 0.000429783)
(0.0240054 -0.122876 8.36596e-318 -0.0229279 1.15103e-318 -0.0010775)
(0.0417066 -0.116502 8.28092e-318 -0.038736 7.92368e-319 -0.00297054)
(0.0607038 -0.0969507 8.30791e-318 -0.0553789 3.77856e-319 -0.00532487)
(0.0727213 -0.0710732 8.45237e-318 -0.0639841 -6.23906e-320 -0.00873723)
(0.0855091 -0.0245589 8.72438e-318 -0.0716781 -4.72673e-319 -0.013831)
(0.0778543 0.0295299 9.13972e-318 -0.0557644 -7.34656e-319 -0.0220898)
(0.0746169 0.109851 9.71357e-318 -0.0384727 -6.16515e-319 -0.0361443)
(0.0306303 0.198272 1.05334e-317 0.0306152 3.6587e-319 -0.0612456)
(0.0130818 0.30019 1.15778e-317 0.0949879 3.06467e-318 -0.10807)
(-0.0297217 0.406774 1.29479e-317 0.226971 8.95115e-318 -0.197249)
(-0.0114862 0.211894 1.29409e-317 -0.0131624 8.82423e-318 0.0246486)
(-0.0365114 0.138442 1.24414e-317 0.0222659 4.02991e-318 0.0142455)
(-0.0445921 0.0609936 1.20559e-317 0.0344754 1.91261e-318 0.0101167)
(-0.0572573 0.00854256 1.16014e-317 0.0494417 1.16784e-318 0.00781559)
(-0.0559232 -0.0455913 1.097e-317 0.0496355 1.08512e-318 0.0062877)
(-0.0535541 -0.0804851 1.03075e-317 0.0486597 1.2172e-318 0.0048944)
(-0.0436382 -0.113305 9.64502e-318 0.0398688 1.34777e-318 0.00376943)
(-0.0310514 -0.134036 9.05021e-318 0.0284402 1.38953e-318 0.00261113)
(-0.0151707 -0.150056 8.54597e-318 0.0135505 1.31901e-318 0.00162018)
(0.00290429 -0.158754 8.15055e-318 -0.0033956 1.14056e-318 0.000491303)
(0.0225043 -0.159608 7.86609e-318 -0.0218773 8.67377e-319 -0.000627033)
(0.0427831 -0.155354 7.69111e-318 -0.0407068 5.12297e-319 -0.00207635)
(0.0640447 -0.136966 7.62688e-318 -0.0601974 9.03152e-320 -0.00384725)
(0.0811087 -0.113581 7.67297e-318 -0.0747015 -3.77417e-319 -0.0064072)
(0.0989707 -0.0648019 7.86155e-318 -0.0888489 -8.52387e-319 -0.0101217)
(0.0991931 -0.0107201 8.20936e-318 -0.0832051 -1.24255e-318 -0.0159881)
(0.102912 0.0830239 8.88101e-318 -0.0772138 -1.35367e-318 -0.0256979)
(0.0636662 0.180885 9.86956e-318 -0.0208273 -7.60906e-319 -0.0428389)
(0.0443585 0.316761 1.16591e-317 0.0310156 1.47718e-318 -0.0753741)
(-0.0165923 0.4567 1.39927e-317 0.157832 7.41958e-318 -0.141239)
(-0.0321624 0.187934 1.06415e-317 0.0705945 7.70768e-318 -0.0384321)
(-0.0568169 0.113703 1.1209e-317 0.0735843 3.16422e-318 -0.0167673)
(-0.0673305 0.0325199 1.17764e-317 0.0726491 1.20452e-318 -0.00531863)
(-0.0712973 -0.0201254 1.15522e-317 0.0713612 6.91885e-319 -6.39554e-05)
(-0.0678283 -0.0770143 1.09986e-317 0.065708 7.68702e-319 0.00212037)
(-0.0599334 -0.112097 1.02332e-317 0.057344 9.90364e-319 0.00258939)
(-0.0486372 -0.145844 9.45334e-318 0.0461657 1.15867e-318 0.00247153)
(-0.0336282 -0.166452 8.74087e-318 0.03172 1.21198e-318 0.00190824)
(-0.0179952 -0.182829 8.13849e-318 0.0166462 1.14254e-318 0.00134903)
(0.000704838 -0.1921 7.65885e-318 -0.00128492 9.64293e-319 0.000580084)
(0.0191646 -0.194051 7.29494e-318 -0.019012 6.92196e-319 -0.000152624)
(0.040316 -0.19177 7.03137e-318 -0.0391533 3.38489e-319 -0.00116271)
(0.0611003 -0.175049 6.85092e-318 -0.0587828 -8.75534e-320 -0.00231751)
(0.0820883 -0.154343 6.72821e-318 -0.0780994 -5.76832e-319 -0.00398888)
(0.102197 -0.104747 6.64467e-318 -0.0960189 -1.10856e-318 -0.00617825)
(0.112422 -0.0507885 6.57936e-318 -0.103055 -1.62466e-318 -0.00936642)
(0.122867 0.0537183 6.52651e-318 -0.108994 -1.97163e-318 -0.0138725)
(0.098773 0.161131 6.56807e-318 -0.0778483 -1.79701e-318 -0.0209247)
(0.0863862 0.325111 6.74796e-318 -0.0531463 -2.85402e-319 -0.0332399)
(0.0206282 0.490773 7.64374e-318 0.0375412 4.05903e-318 -0.0581693)
(-0.049609 0.137918 1.4392e-317 0.146296 7.67395e-318 -0.0966875)
(-0.0734052 0.0719368 1.39634e-317 0.117486 1.97385e-318 -0.0440804)
(-0.0852628 -0.00548708 1.34291e-317 0.103533 2.51316e-319 -0.0182703)
(-0.0807258 -0.05581 1.24692e-317 0.0872007 1.41575e-319 -0.00647496)
(-0.0747109 -0.111011 1.12984e-317 0.0759481 4.76808e-319 -0.00123723)
(-0.0613285 -0.144388 1.01685e-317 0.0606295 8.29176e-319 0.000698954)
(-0.048709 -0.17633 9.14932e-318 0.0473414 1.04435e-318 0.00136764)
(-0.0317067 -0.195374 8.29552e-318 0.030434 1.10736e-318 0.00127269)
(-0.0167651 -0.210674 7.60291e-318 0.0157005 1.03603e-318 0.00106462)
(0.00181465 -0.219635 7.06086e-318 -0.0024177 8.58419e-319 0.000603051)
(0.0185674 -0.222391 6.64469e-318 -0.0187683 5.94623e-319 0.000200911)
(0.0397209 -0.221981 6.32613e-318 -0.039306 2.59276e-319 -0.000414902)
(0.0596346 -0.208355 6.07656e-318 -0.058603 -1.40705e-319 -0.00103159)
(0.0839002 -0.192104 5.86191e-318 -0.0820044 -6.00804e-319 -0.00189584)
(0.106478 -0.146541 5.66635e-318 -0.103758 -1.11226e-318 -0.00272063)
(0.126844 -0.0992381 5.45545e-318 -0.123452 -1.6402e-318 -0.00339244)
(0.144379 0.00574546 5.31577e-318 -0.141509 -2.08106e-318 -0.00286937)
(0.134428 0.106369 5.22779e-318 -0.134928 -2.20078e-318 0.000500662)
(0.122279 0.285382 5.60643e-318 -0.13217 -1.30172e-318 0.00989112)
(0.0369652 0.457399 6.75709e-318 -0.0635834 2.0406e-318 0.0266182)
(-0.06553 0.0705984 1.46459e-317 0.207411 7.64333e-318 -0.141881)
(-0.0848858 0.0153065 1.43164e-317 0.147834 1.94726e-318 -0.0629485)
(-0.0983285 -0.0518634 1.37392e-317 0.124913 3.65386e-319 -0.0265844)
(-0.0826495 -0.09736 1.24128e-317 0.0931199 4.16453e-319 -0.0104703)
(-0.0737968 -0.14764 1.09963e-317 0.0771766 7.58198e-319 -0.00337977)
(-0.0550142 -0.177678 9.66559e-318 0.0555906 1.04598e-318 -0.000576468)
(-0.0418282 -0.206055 8.53124e-318 0.0412633 1.17788e-318 0.000564866)
(-0.024025 -0.222488 7.61118e-318 0.0232481 1.16534e-318 0.000776859)
(-0.01102 -0.235789 6.88455e-318 0.0101972 1.03994e-318 0.00082272)
(0.00589974 -0.243794 6.32254e-318 -0.00649977 8.29739e-319 0.000600038)
(0.0192197 -0.246977 5.88703e-318 -0.0196903 5.54282e-319 0.000470579)
(0.0383295 -0.248044 5.54035e-318 -0.0385069 2.25536e-319 0.000177441)
(0.0545065 -0.237841 5.23951e-318 -0.0545179 -1.53373e-319 1.1459e-05)
(0.0793628 -0.225948 4.93259e-318 -0.0791545 -5.82479e-319 -0.000208213)
(0.0996336 -0.186193 4.56487e-318 -0.099699 -1.05997e-318 6.53937e-05)
(0.128909 -0.145231 4.06644e-318 -0.130276 -1.57229e-318 0.00136681)
(0.14789 -0.0437204 3.36099e-318 -0.153911 -2.04546e-318 0.00602096)
(0.162291 0.0538847 2.47928e-318 -0.180747 -2.3318e-318 0.0184556)
(0.155614 0.242108 1.31157e-318 -0.20504 -1.95087e-318 0.0494264)
(0.0891034 0.427594 8.71403e-319 -0.208968 -3.14068e-319 0.119865)
(-0.0798282 -0.00253103 1.90924e-317 0.243675 6.03311e-318 -0.163847)
(-0.0848132 -0.0524107 1.6899e-317 0.154487 1.36654e-319 -0.0696738)
(-0.0968658 -0.104136 1.44264e-317 0.125929 -6.74118e-319 -0.0290628)
(-0.0733591 -0.14509 1.21985e-317 0.0851001 -7.0518e-320 -0.011741)
(-0.0623757 -0.185898 1.02398e-317 0.0666212 5.01116e-319 -0.00424552)
(-0.0401916 -0.210634 8.71269e-318 0.0414463 8.72125e-319 -0.00125472)
(-0.0272338 -0.232851 7.51333e-318 0.0271963 1.02426e-318 3.74454e-05)
(-0.00977582 -0.245454 6.59927e-318 0.00938552 1.02168e-318 0.000390302)
(0.00083215 -0.255553 5.90232e-318 -0.00141984 9.13275e-319 0.000587686)
(0.0153642 -0.26186 5.37311e-318 -0.0158924 7.33668e-319 0.000528225)
(0.0251145 -0.264864 4.96426e-318 -0.0257035 5.05429e-319 0.00058908)
(0.0414344 -0.266799 4.63243e-318 -0.0419618 2.41761e-319 0.000527467)
(0.0539798 -0.260368 4.33434e-318 -0.0546454 -5.23463e-320 0.000665656)
(0.078183 -0.253136 4.01722e-318 -0.0790521 -3.76942e-319 0.000869101)
(0.0969667 -0.223042 3.63342e-318 -0.0987614 -7.3179e-319 0.00179469)
(0.132954 -0.192939 3.11301e-318 -0.137175 -1.11532e-318 0.00422115)
(0.156471 -0.107992 2.45524e-318 -0.167664 -1.49447e-318 0.0111924)
(0.187971 -0.0330219 1.62123e-318 -0.217127 -1.81712e-318 0.0291556)
(0.188355 0.137012 7.94759e-319 -0.263015 -1.81279e-318 0.0746599)
(0.0981733 0.283653 5.34045e-319 -0.278576 -1.16497e-318 0.180403)
(-0.0736582 -0.105949 1.98644e-317 0.22461 1.02648e-317 -0.150952)
(-0.0792833 -0.131496 1.69798e-317 0.141403 4.12697e-318 -0.0621197)
(-0.0816714 -0.158195 1.36718e-317 0.10717 2.40768e-318 -0.0254981)
(-0.0515511 -0.189236 1.09668e-317 0.0619176 2.11613e-318 -0.0103666)
(-0.0376345 -0.21659 8.85232e-318 0.0415574 2.00195e-318 -0.00392299)
(-0.0143009 -0.234801 7.31487e-318 0.015667 1.86225e-318 -0.00136615)
(-0.00307042 -0.249494 6.17838e-318 0.00328879 1.6578e-318 -0.000218375)
(0.0121469 -0.257902 5.34824e-318 -0.0122785 1.40695e-318 0.000131565)
(0.0192492 -0.264425 4.73373e-318 -0.0196322 1.12715e-318 0.000382973)
(0.030189 -0.268361 4.27668e-318 -0.0306008 8.29195e-319 0.00041185)
(0.035433 -0.270905 3.9274e-318 -0.0360126 5.21358e-319 0.000579619)
(0.0474184 -0.272202 3.64312e-318 -0.0480684 2.05497e-319 0.000650094)
(0.054231 -0.269343 3.37936e-318 -0.0551802 -1.16441e-319 0.000949205)
(0.0743382 -0.264408 3.08149e-318 -0.0756804 -4.47396e-319 0.00134216)
(0.0861328 -0.245204 2.68509e-318 -0.0886149 -7.81172e-319 0.0024821)
(0.123384 -0.222736 2.10513e-318 -0.128483 -1.11237e-318 0.00509868)
(0.139278 -0.159966 1.22345e-318 -0.151574 -1.39544e-318 0.0122955)
(0.194054 -0.0976554 4.54343e-320 -0.22509 -1.58139e-318 0.031036)
(0.188814 0.0465516 -1.68356e-318 -0.270879 -1.52363e-318 0.0820653)
(0.162308 0.207892 -2.97773e-318 -0.38351 -1.45505e-318 0.221201)
(-0.0670761 -0.15954 1.72739e-317 0.176128 4.78236e-319 -0.109052)
(-0.0273835 -0.21075 1.36539e-317 0.0697358 -2.14421e-318 -0.0423523)
(-0.0331781 -0.227119 9.84837e-318 0.0502803 -1.60169e-318 -0.0171023)
(-0.00569478 -0.249904 7.52794e-318 0.0126887 -6.62567e-319 -0.00699391)
(0.00456621 -0.266784 5.86087e-318 -0.00184995 -1.02029e-319 -0.00271626)
(0.0228578 -0.276524 4.76904e-318 -0.0218094 2.16564e-319 -0.00104844)
(0.0306591 -0.284347 3.99241e-318 -0.0304006 3.65441e-319 -0.000258513)
(0.0414453 -0.288319 3.44317e-318 -0.0414282 4.1502e-319 -1.70868e-05)
(0.0454569 -0.29141 3.04139e-318 -0.0456597 4.05895e-319 0.000202816)
(0.0523588 -0.293815 2.74399e-318 -0.0526122 3.62432e-319 0.00025333)
(0.0545813 -0.295311 2.51533e-318 -0.0550188 3.00683e-319 0.000437499)
(0.0620147 -0.297596 2.32601e-318 -0.0625572 2.31677e-319 0.000542552)
(0.0652103 -0.296936 2.14659e-318 -0.0660579 1.62721e-319 0.000847619)
(0.0792192 -0.29728 1.94279e-318 -0.080432 9.64466e-320 0.0012128)
(0.0867495 -0.287701 1.68004e-318 -0.088894 3.34977e-320 0.0021445)
(0.116576 -0.279173 1.30931e-318 -0.120682 -3.58247e-320 0.0041064)
(0.131554 -0.241002 8.18296e-319 -0.140978 -1.30241e-319 0.00942416)
(0.180887 -0.212068 1.94015e-319 -0.20436 -2.86346e-319 0.0234727)
(0.196299 -0.11397 -4.68172e-319 -0.26047 -5.66851e-319 0.0641714)
(0.138699 -0.058675 -9.42825e-319 -0.323188 -1.13368e-318 0.184489)
(0.0229677 -0.300291 1.26202e-317 0.00512699 1.82614e-317 -0.0280947)
(0.0047217 -0.281448 9.70525e-318 0.00935013 1.14435e-317 -0.0140718)
(0.0289539 -0.243716 6.30373e-318 -0.023042 7.9949e-318 -0.00591188)
(0.0485368 -0.251979 4.43981e-318 -0.046062 5.81396e-318 -0.00247483)
(0.0573513 -0.244313 3.21365e-318 -0.0563643 4.49731e-318 -0.000986982)
(0.0700289 -0.24919 2.49226e-318 -0.0696029 3.50911e-318 -0.00042604)
(0.0723922 -0.247407 2.0139e-318 -0.0722612 2.73895e-318 -0.00013095)
(0.0780393 -0.248966 1.69674e-318 -0.0779881 2.09056e-318 -5.12052e-05)
(0.0776029 -0.248551 1.47591e-318 -0.0776575 1.52696e-318 5.45745e-05)
(0.0803377 -0.24745 1.32043e-318 -0.0804147 1.02037e-318 7.70243e-05)
(0.078463 -0.247725 1.20799e-318 -0.0786416 5.54851e-319 0.000178581)
(0.0811841 -0.243679 1.12062e-318 -0.0814166 1.19633e-319 0.000232558)
(0.0786011 -0.24443 1.04057e-318 -0.0789912 -2.88628e-319 0.000390072)
(0.0852619 -0.235741 9.43957e-319 -0.085815 -6.69237e-319 0.000553117)
(0.0829293 -0.236829 7.9761e-319 -0.0838795 -1.00549e-318 0.000950177)
(0.103499 -0.220055 5.50409e-319 -0.105193 -1.27348e-318 0.00169378)
(0.101319 -0.22284 1.15508e-319 -0.105008 -1.40958e-318 0.00368882)
(0.158451 -0.193575 -5.13067e-319 -0.167425 -1.32955e-318 0.0089732)
(0.140301 -0.205439 -1.56738e-318 -0.166554 -1.00862e-318 0.0262532)
(0.195537 -0.106165 -2.42229e-318 -0.294761 -5.33655e-319 0.0992234)
)
;

boundaryField
{
    cavity
    {
        type            mySigma;
    }
    lid
    {
        type            fixedValue;
        value           uniform (0.1 -0.3 0 -0.1 0 0);
    }
    frontAndBack
    {
        type            empty;
    }
}


// ************************************************************************* //
