/*--------------------------------*- C++ -*----------------------------------*\
| =========                 |                                                 |
| \\      /  F ield         | foam-extend: Open Source CFD                    |
|  \\    /   O peration     | Version:  3.0                                   |
|   \\  /    A nd           | Web:         http://www.extend-project.de       |
|    \\/     M anipulation  |                                                 |
\*---------------------------------------------------------------------------*/
FoamFile
{
    version     2.0;
    format      ascii;
    class       volScalarField;
    location    "2.6";
    object      Theta;
}
// * * * * * * * * * * * * * * * * * * * * * * * * * * * * * * * * * * * * * //

dimensions      [0 0 0 0 0 0 0];

internalField   nonuniform List<scalar> 
400
(
0.0855256
0.0605346
0.0525994
0.0454704
0.0469613
0.0497112
0.0565993
0.0644472
0.0740652
0.0840285
0.0944781
0.104419
0.11399
0.121622
0.128144
0.130099
0.130479
0.121533
0.111408
0.0831894
0.1126
0.0889807
0.0825908
0.0755188
0.0758063
0.0758002
0.0786654
0.0813658
0.0850065
0.0884406
0.0921066
0.0953422
0.0985956
0.100685
0.102745
0.101692
0.100729
0.0923224
0.0844249
0.0601788
0.103808
0.0807243
0.0743092
0.0670528
0.0682775
0.0688536
0.0731602
0.0771377
0.0825377
0.0876739
0.093298
0.0983516
0.1036
0.107248
0.111101
0.110888
0.11111
0.102511
0.0945146
0.0705476
0.100589
0.0759697
0.0709783
0.0641826
0.0667886
0.0679308
0.072971
0.0771757
0.0828046
0.0879551
0.0936918
0.0988515
0.104524
0.108643
0.113566
0.114181
0.116069
0.107899
0.10118
0.0750737
0.0883837
0.0603229
0.0565819
0.0503301
0.0552264
0.0580391
0.0654077
0.0716192
0.0795486
0.08689
0.0950415
0.102566
0.110914
0.117496
0.125403
0.128147
0.132941
0.125084
0.119441
0.0877891
0.0780258
0.0463891
0.0447932
0.0395992
0.0470874
0.0515213
0.0608005
0.068359
0.077688
0.0862174
0.0957208
0.104621
0.114793
0.123255
0.133899
0.138914
0.147244
0.140329
0.13679
0.0986574
0.0648055
0.0285776
0.0300872
0.0261772
0.036755
0.0430805
0.0545977
0.0638161
0.0748857
0.0849679
0.0962014
0.106873
0.119292
0.130067
0.144048
0.151837
0.164801
0.159066
0.159286
0.111315
0.0516705
0.0133693
0.0183162
0.0163157
0.0296017
0.0375918
0.0506956
0.0609696
0.0729921
0.0838517
0.095957
0.107599
0.121434
0.133901
0.150595
0.161072
0.178573
0.174971
0.17966
0.123915
0.0366406
-0.00131042
0.0076676
0.00794161
0.0236314
0.0331065
0.0473989
0.0584483
0.0710501
0.0823661
0.0949425
0.107189
0.121975
0.135782
0.154776
0.167839
0.190046
0.189153
0.200262
0.137174
0.0204869
-0.0109849
0.00104624
0.00439575
0.0212512
0.0318871
0.0464416
0.0576801
0.070066
0.0811374
0.0933357
0.105375
0.120057
0.134336
0.154232
0.169342
0.194506
0.197598
0.213891
0.151877
0.0010863
-0.01911
-0.00380227
0.00323762
0.020714
0.0323527
0.0466424
0.0577152
0.0693659
0.0797199
0.0909277
0.102167
0.115939
0.130032
0.149861
0.166634
0.194193
0.202277
0.225916
0.169798
-0.0196625
-0.0217497
-0.00492233
0.00678991
0.0235774
0.0360552
0.0492741
0.0597416
0.0700205
0.0790994
0.0886062
0.0983154
0.11012
0.123062
0.140996
0.158556
0.185297
0.199708
0.226272
0.189895
-0.0442061
-0.0253528
-0.00581877
0.0112631
0.0275592
0.0409624
0.0529287
0.0625751
0.0711296
0.0785572
0.0858733
0.0935351
0.102684
0.113859
0.129102
0.147123
0.173102
0.1951
0.22942
0.217527
-0.067084
-0.0238413
-0.00294367
0.020111
0.0351569
0.0492971
0.059499
0.0679625
0.074402
0.0797952
0.0844962
0.0895721
0.0952977
0.103763
0.114581
0.13173
0.152782
0.182578
0.215336
0.242818
-0.0898823
-0.0240278
-0.000235504
0.0289931
0.043525
0.0584629
0.0669542
0.0740814
0.0782396
0.0813818
0.0832232
0.085411
0.0873588
0.0926852
0.0988288
0.114835
0.132498
0.170977
0.212377
0.27932
-0.104173
-0.0176464
0.00920221
0.0436326
0.0571719
0.0720619
0.0784107
0.0837159
0.0854216
0.0861019
0.0850378
0.0840727
0.081983
0.0833077
0.0834983
0.0961834
0.105533
0.149618
0.182066
0.299009
-0.109177
-0.00765083
0.0203118
0.0594297
0.0719259
0.086515
0.0905841
0.0938985
0.0930728
0.0912636
0.0872866
0.0831587
0.0770036
0.0741632
0.0685501
0.0776065
0.0811464
0.130913
0.170393
0.332473
-0.0918992
0.0136079
0.0450238
0.0843216
0.0947469
0.106868
0.108115
0.108731
0.105473
0.101165
0.0947283
0.0875399
0.0778105
0.0701815
0.0584604
0.0606507
0.0537353
0.0999168
0.119166
0.319594
-0.0579965
0.0447295
0.0723605
0.111422
0.118404
0.127699
0.125715
0.123568
0.117852
0.111224
0.102469
0.0925029
0.0793584
0.0671404
0.0494868
0.0446656
0.0291435
0.0714113
0.0870476
0.320515
0.0348151
0.102349
0.124295
0.152334
0.153181
0.155496
0.149985
0.144059
0.136656
0.12784
0.118123
0.105806
0.0911552
0.0740098
0.052522
0.0359654
0.0115025
0.0296572
0.0186969
0.220789
)
;

boundaryField
{
    cavity
    {
        type            implicitExtrapolation;
    }
    lid
    {
        type            implicitExtrapolation;
    }
    frontAndBack
    {
        type            empty;
    }
}


// ************************************************************************* //
