/*--------------------------------*- C++ -*----------------------------------*\
| =========                 |                                                 |
| \\      /  F ield         | foam-extend: Open Source CFD                    |
|  \\    /   O peration     | Version:  3.0                                   |
|   \\  /    A nd           | Web:         http://www.extend-project.de       |
|    \\/     M anipulation  |                                                 |
\*---------------------------------------------------------------------------*/
FoamFile
{
    version     2.0;
    format      ascii;
    class       volVectorField;
    location    "42";
    object      u;
}
// * * * * * * * * * * * * * * * * * * * * * * * * * * * * * * * * * * * * * //

dimensions      [0 0 0 0 0 0 0];

internalField   nonuniform List<vector> 
7680
(
(0.120492 -0.026306 4.3855e-17)
(0.155279 -0.0209859 5.03596e-17)
(0.334684 -0.0185075 -4.45404e-17)
(0.349219 -0.014031 3.99766e-17)
(0.488048 -0.0125637 -2.37259e-17)
(0.491859 -0.00890854 2.25417e-17)
(0.601685 -0.00784179 -1.10653e-17)
(0.598969 -0.00489839 -8.66168e-18)
(0.688122 -0.0039844 -2.0193e-17)
(0.680927 -0.00159486 -1.35221e-17)
(0.755193 -0.000755195 -2.29346e-17)
(0.7447 0.00122517 2.87524e-17)
(0.808054 0.00202176 -3.80144e-17)
(0.795029 0.00370174 3.20357e-17)
(0.850245 0.00447701 -1.53731e-17)
(0.835195 0.00593299 4.42887e-17)
(0.88427 0.00670405 -3.63251e-17)
(0.867516 0.00799041 6.15767e-17)
(0.911931 0.00876731 -4.22546e-17)
(0.893667 0.00992579 4.95357e-17)
(0.934549 0.0107108 -4.71752e-17)
(0.914874 0.0117773 4.99354e-17)
(0.953099 0.0125668 -4.19043e-17)
(0.932055 0.0135752 5.92243e-17)
(0.968317 0.0143622 -4.35307e-17)
(0.945904 0.015343 4.39878e-17)
(0.980761 0.0161202 -2.21315e-17)
(0.956955 0.0170916 3.08147e-17)
(0.990871 0.017856 -2.25685e-17)
(0.965621 0.0188029 1.63185e-17)
(0.99901 0.0195616 -1.30383e-17)
(0.972226 0.0204107 1.09445e-17)
(1.00545 0.0211474 -8.3273e-18)
(0.977113 0.0219055 4.96945e-18)
(1.01006 0.0221519 9.15646e-18)
(0.981303 0.0240141 -6.32816e-18)
(1.01102 0.0214926 2.09089e-17)
(0.988446 0.0289148 -1.90054e-17)
(1.00439 0.016205 2.29196e-17)
(1.00173 0.0604242 -1.88063e-17)
(0.124587 -0.0916447 -4.94526e-17)
(0.158694 -0.0766695 -7.18903e-17)
(0.337995 -0.0702899 5.25156e-17)
(0.351962 -0.0576778 -4.83017e-17)
(0.490803 -0.0540311 -2.09793e-18)
(0.494147 -0.043839 1.93341e-18)
(0.604008 -0.0413248 1.46692e-17)
(0.600914 -0.0333215 3.44405e-17)
(0.690108 -0.0313037 4.65945e-17)
(0.682601 -0.0250106 5.16165e-17)
(0.756909 -0.023263 1.86651e-17)
(0.746151 -0.0182353 -4.98516e-18)
(0.809543 -0.0166665 2.10145e-17)
(0.796284 -0.0125735 -1.04313e-17)
(0.85153 -0.0111257 -2.69965e-17)
(0.836269 -0.00774136 -4.41718e-17)
(0.88536 -0.00636632 4.6101e-17)
(0.868414 -0.00353612 -9.97064e-17)
(0.912827 -0.00219367 7.96384e-17)
(0.894385 0.000193064 -9.078e-17)
(0.935241 0.0015325 6.38039e-17)
(0.915403 0.00355957 -7.49004e-17)
(0.953572 0.00491421 4.80249e-17)
(0.932376 0.00664607 -8.99704e-17)
(0.968539 0.0080245 4.164e-17)
(0.945986 0.00950687 -5.10778e-17)
(0.980679 0.0109153 -8.54598e-19)
(0.956746 0.0121683 -2.70051e-17)
(0.990392 0.0136297 -8.91844e-18)
(0.965045 0.0146367 2.0149e-18)
(0.997973 0.0162187 -7.08308e-18)
(0.971205 0.0169631 7.06193e-18)
(1.00361 0.0186736 -2.08283e-19)
(0.975709 0.0196578 -7.33741e-18)
(1.00719 0.0201042 -4.45006e-18)
(0.979941 0.0253378 -1.15213e-17)
(1.00761 0.0163056 1.58051e-17)
(0.986746 0.039401 -3.43363e-18)
(1.00434 0.000188458 -9.74863e-18)
(0.994303 0.0752362 3.10683e-17)
(0.132892 -0.156411 4.84795e-17)
(0.165702 -0.131282 6.3577e-17)
(0.344319 -0.121081 -9.98576e-17)
(0.357212 -0.100218 1.06402e-16)
(0.495601 -0.0944884 -2.43125e-17)
(0.498108 -0.0779053 -7.91529e-18)
(0.60764 -0.074056 -6.22442e-17)
(0.603911 -0.0611544 -1.30486e-17)
(0.692837 -0.058122 -9.5703e-17)
(0.684852 -0.04808 -7.00442e-17)
(0.758927 -0.0454889 -3.56206e-17)
(0.747809 -0.0375712 2.11123e-18)
(0.810998 -0.0352666 -1.21998e-17)
(0.797467 -0.0289297 -1.63508e-18)
(0.852538 -0.0268079 6.92164e-17)
(0.837071 -0.0216786 6.22931e-17)
(0.886014 -0.0196525 -4.54037e-17)
(0.868909 -0.015473 1.35044e-16)
(0.913201 -0.0134736 -1.22466e-16)
(0.894633 -0.010057 1.13223e-16)
(0.935401 -0.00803587 -7.58895e-17)
(0.915454 -0.00523641 1.17413e-16)
(0.953573 -0.00316354 -8.38607e-17)
(0.932274 -0.000859281 1.40027e-16)
(0.968437 0.00128124 -5.09737e-17)
(0.94577 0.00319487 9.99071e-17)
(0.980527 0.00541052 -1.5753e-17)
(0.956454 0.00701426 5.71686e-17)
(0.990248 0.009309 9.10375e-18)
(0.964715 0.010642 6.0839e-18)
(0.997895 0.0129875 -1.81648e-19)
(0.970878 0.0140927 1.39372e-17)
(1.00361 0.0161216 1.41593e-19)
(0.975423 0.0177307 5.83772e-18)
(1.00693 0.0170671 5.95877e-18)
(0.979971 0.0235896 -9.77599e-18)
(1.00533 0.0127494 1.399e-17)
(0.988531 0.0334915 -2.02267e-17)
(0.99684 0.00492615 2.7299e-17)
(0.997454 0.0629582 -3.02675e-17)
(0.145481 -0.220644 -1.44686e-17)
(0.176325 -0.185966 -1.12317e-16)
(0.354323 -0.171915 2.58235e-16)
(0.365588 -0.143052 -2.42838e-16)
(0.503697 -0.135173 8.52937e-17)
(0.504894 -0.112177 2.18887e-17)
(0.614267 -0.1069 9.41781e-17)
(0.609505 -0.0890353 2.38159e-17)
(0.698322 -0.0849144 5.57422e-17)
(0.68952 -0.0710449 5.38101e-17)
(0.763513 -0.067559 9.8609e-17)
(0.751736 -0.0566581 -4.1751e-17)
(0.814856 -0.0535927 1.6923e-17)
(0.800783 -0.0449003 -5.54655e-18)
(0.85579 -0.0421149 -8.19823e-17)
(0.839869 -0.0351112 -1.97954e-17)
(0.888746 -0.0324864 4.48582e-18)
(0.871261 -0.0268162 -1.44455e-16)
(0.91548 -0.024252 1.61493e-16)
(0.896591 -0.0196621 -1.50579e-16)
(0.937274 -0.0170821 8.71664e-17)
(0.917057 -0.0133821 -1.37542e-16)
(0.95508 -0.0107331 7.80466e-17)
(0.933551 -0.00777475 -9.97333e-17)
(0.969607 -0.00502286 -1.67409e-17)
(0.946739 -0.002692 -6.26394e-17)
(0.981387 0.000188065 -4.20873e-17)
(0.957131 0.0019681 -1.37948e-17)
(0.990826 0.00501323 -6.21247e-17)
(0.965106 0.00628285 2.91092e-17)
(0.99822 0.00953156 -1.8479e-17)
(0.97096 0.0104613 -6.25619e-19)
(1.00373 0.0134981 -5.79946e-17)
(0.975012 0.0157656 1.07794e-16)
(1.00713 0.0145639 -8.65079e-17)
(0.978245 0.0272356 4.15759e-17)
(1.00684 0.00569332 2.04294e-17)
(0.983602 0.049388 -2.96445e-17)
(1.00173 -0.013001 1.77349e-17)
(0.989256 0.0745192 -3.71053e-17)
(0.162171 -0.283767 -2.14363e-17)
(0.190436 -0.239242 2.29601e-17)
(0.367269 -0.22149 -4.13986e-16)
(0.376399 -0.184589 3.44127e-16)
(0.513793 -0.174688 -1.07335e-16)
(0.51332 -0.145457 -7.95003e-17)
(0.622195 -0.138883 -1.49713e-16)
(0.616159 -0.11624 1.94343e-17)
(0.70458 -0.111133 -3.48847e-17)
(0.69481 -0.0936068 -3.07928e-17)
(0.768467 -0.0893 -1.14492e-16)
(0.75595 -0.0755779 2.45653e-17)
(0.81878 -0.0717948 4.89864e-17)
(0.804137 -0.0609089 -2.7508e-17)
(0.858889 -0.0574657 1.21994e-16)
(0.842528 -0.0487534 -6.99254e-17)
(0.891179 -0.0454936 7.35482e-17)
(0.873349 -0.0385003 3.16398e-17)
(0.917366 -0.0352955 -4.90636e-17)
(0.898203 -0.0296947 5.65778e-17)
(0.938707 -0.0264482 5.05151e-18)
(0.918265 -0.0219909 1.45957e-16)
(0.956134 -0.0186351 -7.78764e-17)
(0.934406 -0.0151201 7.20324e-17)
(0.97034 -0.0116104 5.03071e-17)
(0.947277 -0.00887207 7.35267e-17)
(0.98184 -0.00517741 1.43006e-17)
(0.957359 -0.00308948 2.31392e-17)
(0.991018 0.000817054 1.05436e-16)
(0.965004 0.00233335 -3.01284e-17)
(0.998173 0.00641835 4.41073e-17)
(0.970469 0.00755268 1.67913e-17)
(1.0036 0.0111247 -2.98223e-17)
(0.973954 0.0135854 2.61666e-17)
(1.00777 0.0121546 1.21151e-17)
(0.975684 0.0244033 -3.1606e-17)
(1.01124 0.00454029 8.55948e-18)
(0.976644 0.0402384 -3.8146e-17)
(1.01379 -0.00287085 4.47228e-17)
(0.975157 0.0578326 3.68291e-17)
(0.183025 -0.345797 8.55849e-17)
(0.20807 -0.292005 1.26818e-16)
(0.38377 -0.270518 4.64047e-16)
(0.390235 -0.225891 -2.57712e-16)
(0.527062 -0.213907 8.96872e-17)
(0.52446 -0.178493 1.11523e-16)
(0.632988 -0.170538 2.04645e-16)
(0.625287 -0.143112 -6.8891e-17)
(0.713454 -0.136952 3.78893e-18)
(0.702382 -0.115739 3.94524e-18)
(0.775834 -0.110567 2.59256e-16)
(0.762283 -0.0939759 -1.3154e-16)
(0.824939 -0.0894575 8.54886e-17)
(0.809461 -0.0763116 -1.32918e-16)
(0.864058 -0.0722253 -3.6808e-17)
(0.847013 -0.061721 -9.55801e-17)
(0.895518 -0.0578766 1.42243e-16)
(0.877129 -0.0494656 -1.46566e-16)
(0.921001 -0.0457033 1.35141e-16)
(0.901383 -0.0389964 -7.9071e-17)
(0.941741 -0.0351909 1.49591e-17)
(0.92093 -0.0298981 -1.5673e-16)
(0.958655 -0.0259564 3.71284e-17)
(0.936629 -0.0218534 2.32001e-17)
(0.972433 -0.017706 -1.42716e-16)
(0.949128 -0.0146205 2.9511e-17)
(0.983607 -0.0102043 -9.15597e-17)
(0.958916 -0.00802107 1.01877e-17)
(0.992599 -0.00325096 -1.519e-16)
(0.96636 -0.00191817 1.37417e-17)
(0.999768 0.00329261 -1.45879e-16)
(0.971675 0.00394385 7.38742e-17)
(1.0055 0.00910845 -1.21621e-16)
(0.974731 0.0109046 1.02818e-16)
(1.01054 0.0114405 -1.75583e-16)
(0.974568 0.0239759 8.29859e-17)
(1.01612 0.0033306 1.24897e-17)
(0.971116 0.0458297 -5.2914e-17)
(1.02074 -0.0116381 -7.84588e-18)
(0.967938 0.0675182 -6.87364e-17)
(0.207817 -0.406193 -9.99359e-17)
(0.22904 -0.343021 -2.6884e-16)
(0.403115 -0.318013 -3.53271e-16)
(0.406421 -0.265699 7.90687e-17)
(0.542283 -0.251791 -6.59271e-17)
(0.537206 -0.210408 3.51139e-17)
(0.645074 -0.201216 -2.34322e-16)
(0.635479 -0.169214 1.45686e-16)
(0.72313 -0.162113 3.12519e-17)
(0.710613 -0.137398 -8.52666e-17)
(0.783631 -0.131441 -2.24828e-16)
(0.768972 -0.112147 6.6218e-17)
(0.83125 -0.106941 1.91001e-17)
(0.814914 -0.0916931 1.80734e-16)
(0.869175 -0.0869767 4.497e-17)
(0.851463 -0.0748347 5.10342e-18)
(0.899661 -0.0703833 -4.26075e-17)
(0.880748 -0.0607057 -1.86423e-18)
(0.924334 -0.0563315 -6.86816e-17)
(0.904303 -0.0486616 -8.02653e-18)
(0.944389 -0.0442181 -2.43425e-17)
(0.923248 -0.0382143 6.77377e-17)
(0.96071 -0.0335915 2.6218e-17)
(0.938415 -0.0289887 -2.44032e-17)
(0.973963 -0.0241026 7.75e-17)
(0.950421 -0.0206985 -5.78198e-17)
(0.984646 -0.0154717 1.10288e-16)
(0.959724 -0.0131386 -5.50438e-17)
(0.993148 -0.00746872 2.18306e-16)
(0.96665 -0.00618196 -3.91614e-17)
(0.999798 4.45968e-05 2.64129e-16)
(0.971387 0.000333563 -6.36966e-17)
(1.00504 0.00672766 6.88865e-17)
(0.97377 0.00742285 -7.68088e-18)
(1.01012 0.0100986 1.09232e-16)
(0.972401 0.019063 -6.95781e-17)
(1.018 0.00513603 7.11451e-17)
(0.96505 0.0357835 -7.90606e-17)
(1.0297 -0.000792612 1.89789e-16)
(0.951864 0.0512752 -2.08636e-17)
(0.236576 -0.464961 2.27827e-16)
(0.253381 -0.392971 1.56593e-16)
(0.425829 -0.364411 4.11773e-16)
(0.425479 -0.304776 1.6431e-16)
(0.560498 -0.288887 2.17155e-17)
(0.552508 -0.241656 -2.5672e-16)
(0.659846 -0.231152 2.33807e-16)
(0.647985 -0.194629 -2.47712e-16)
(0.73524 -0.186529 3.87283e-17)
(0.720959 -0.158331 -2.44803e-17)
(0.793654 -0.151554 2.80477e-16)
(0.777604 -0.129552 -2.91736e-16)
(0.839606 -0.123649 1.25546e-16)
(0.822158 -0.106271 -3.58752e-16)
(0.876175 -0.100943 5.27918e-17)
(0.857564 -0.0871166 -1.08923e-16)
(0.905536 -0.0821051 1.3099e-16)
(0.885898 -0.0711 -1.3216e-16)
(0.929265 -0.0661862 1.31928e-16)
(0.908653 -0.0574873 1.15137e-17)
(0.948521 -0.0524957 -2.44894e-17)
(0.926921 -0.0457234 8.71565e-19)
(0.964169 -0.0405167 -6.23402e-17)
(0.941516 -0.0353844 9.81556e-17)
(0.976867 -0.0298476 -8.21043e-17)
(0.95305 -0.0261464 3.09635e-17)
(0.987123 -0.020158 -1.0829e-16)
(0.961984 -0.0177727 1.20923e-16)
(0.99535 -0.0111549 -3.77388e-16)
(0.968652 -0.010102 4.98074e-17)
(1.00191 -0.00260105 -2.55182e-16)
(0.973219 -0.00294141 7.75767e-17)
(1.00729 0.00536049 -3.54748e-17)
(0.975344 0.00461541 2.16957e-18)
(1.01274 0.0107255 -9.36778e-17)
(0.972961 0.0159361 8.09976e-17)
(1.02159 0.00877302 6.99319e-18)
(0.962627 0.0320483 -4.24944e-17)
(1.03499 0.00270808 1.27882e-17)
(0.945624 0.0528058 -2.41329e-16)
(0.269044 -0.521594 -2.5228e-16)
(0.280848 -0.440845 -2.09566e-16)
(0.451238 -0.409001 -3.89164e-16)
(0.446758 -0.342164 -5.69178e-16)
(0.580576 -0.32448 -9.79378e-17)
(0.56935 -0.271649 4.26767e-16)
(0.675876 -0.259989 -1.81611e-16)
(0.661534 -0.219172 3.01686e-16)
(0.748158 -0.210191 5.15159e-17)
(0.731984 -0.178706 -1.18453e-16)
(0.804149 -0.171195 -9.36831e-17)
(0.786641 -0.146656 2.17788e-16)
(0.848184 -0.140109 -2.94172e-17)
(0.829602 -0.120759 2.44193e-16)
(0.883207 -0.11484 1.86934e-16)
(0.863711 -0.0994789 -1.18878e-16)
(0.9113 -0.0938998 1.63622e-16)
(0.890971 -0.0817109 -1.0738e-16)
(0.933969 -0.0762256 1.17451e-16)
(0.912818 -0.0666333 -6.21887e-17)
(0.952321 -0.061045 -8.39302e-18)
(0.930306 -0.0536267 3.02924e-17)
(0.967182 -0.0477795 -5.18085e-17)
(0.944213 -0.0422202 -3.09932e-17)
(0.979172 -0.0359813 2.2988e-17)
(0.955122 -0.0320618 4.417e-17)
(0.98877 -0.0252863 -6.87379e-17)
(0.963467 -0.0229092 2.69933e-16)
(0.996353 -0.0153776 1.8447e-17)
(0.969566 -0.014629 1.93206e-16)
(1.00226 -0.0059901 7.42105e-17)
(0.973586 -0.00711942 -5.23493e-17)
(1.00694 0.002866 7.20456e-17)
(0.97523 0.000201612 -8.96842e-17)
(1.01172 0.00995561 8.91643e-17)
(0.97241 0.0095607 -7.95481e-17)
(1.02034 0.0127674 7.40201e-17)
(0.960557 0.020915 -1.91904e-16)
(1.03602 0.0143837 3.42663e-16)
(0.936793 0.0395353 -9.11969e-17)
(0.305215 -0.576096 5.34574e-16)
(0.311474 -0.487136 2.7234e-16)
(0.479776 -0.451988 5.05188e-16)
(0.470709 -0.378359 8.50583e-16)
(0.603425 -0.358832 3.01339e-16)
(0.588551 -0.300586 -4.31359e-16)
(0.694375 -0.287707 8.58524e-17)
(0.677202 -0.242706 -3.66367e-16)
(0.763298 -0.232798 -1.72629e-16)
(0.744926 -0.198092 3.19047e-16)
(0.816658 -0.18982 4.55426e-17)
(0.797425 -0.162778 -1.1215e-16)
(0.858597 -0.155584 1.11014e-16)
(0.838645 -0.134267 -3.2385e-16)
(0.89192 -0.12778 -5.37003e-17)
(0.871326 -0.110865 3.33964e-17)
(0.918609 -0.104762 -1.48151e-16)
(0.897401 -0.0913518 2.62049e-18)
(0.940101 -0.085358 -9.20674e-17)
(0.918255 -0.0748222 9.22945e-17)
(0.957458 -0.0687132 2.71591e-17)
(0.934902 -0.0605938 4.50776e-17)
(0.971473 -0.0541871 1.46462e-17)
(0.948095 -0.0481481 1.12913e-16)
(0.982746 -0.0412794 -1.96537e-16)
(0.9584 -0.037094 2.57039e-16)
(0.991743 -0.0295744 -1.84485e-16)
(0.966241 -0.0271557 1.14566e-17)
(0.998829 -0.0186946 -3.02526e-16)
(0.971922 -0.0181709 1.46552e-16)
(1.00431 -0.00829389 -2.49896e-16)
(0.975591 -0.0100419 2.37913e-16)
(1.00858 0.00178618 -3.04902e-16)
(0.976937 -0.00245173 3.55955e-16)
(1.01271 0.0109433 -3.25735e-16)
(0.973967 0.00560378 2.14582e-16)
(1.02006 0.0180971 -1.38254e-16)
(0.961913 0.0133344 4.97331e-17)
(1.03468 0.0238757 -4.74339e-17)
(0.935359 0.0344537 -3.01408e-16)
(0.344799 -0.627995 -9.0816e-16)
(0.344971 -0.531042 -5.41033e-16)
(0.51081 -0.492899 -4.54583e-16)
(0.496715 -0.412678 -1.00912e-15)
(0.628011 -0.391515 -3.68766e-16)
(0.609196 -0.328134 2.20773e-16)
(0.714068 -0.314201 -8.42175e-17)
(0.69387 -0.265261 4.65585e-16)
(0.779229 -0.25455 2.53155e-16)
(0.758545 -0.216829 -3.5659e-16)
(0.82966 -0.207885 -1.48333e-16)
(0.808645 -0.178518 -1.20492e-16)
(0.869279 -0.170735 -2.49923e-17)
(0.84794 -0.147611 7.55503e-17)
(0.90073 -0.140584 1.08725e-16)
(0.879052 -0.122265 -8.07691e-17)
(0.92588 -0.115644 2.15687e-16)
(0.903827 -0.101154 -5.73873e-17)
(0.946084 -0.0946393 2.79992e-16)
(0.923586 -0.0832945 -2.93272e-16)
(0.962339 -0.0766419 5.74541e-17)
(0.939294 -0.067948 -1.24539e-16)
(0.97539 -0.0609564 -2.44294e-17)
(0.951665 -0.0545569 -1.28076e-17)
(0.9858 -0.0470427 -1.13184e-16)
(0.961239 -0.0427091 1.21306e-16)
(0.993998 -0.0344555 -2.1219e-16)
(0.968422 -0.0321258 3.57038e-16)
(1.00032 -0.0227899 -1.36204e-16)
(0.973517 -0.0226615 4.76812e-18)
(1.00505 -0.0116522 5.53495e-17)
(0.976693 -0.0142671 -1.03212e-17)
(1.0085 -0.000703109 8.72294e-18)
(0.977748 -0.00686627 -1.87916e-17)
(1.01152 0.0102946 3.6649e-17)
(0.975069 -0.000521947 -1.33513e-17)
(1.01684 0.0224132 1.40949e-16)
(0.963992 0.00304665 -1.65244e-16)
(1.02957 0.035091 3.2138e-16)
(0.93501 0.023985 -2.41669e-17)
(0.387761 -0.677299 8.16147e-16)
(0.38135 -0.572888 5.46225e-16)
(0.54468 -0.53175 4.19734e-16)
(0.525145 -0.445383 8.72009e-16)
(0.655101 -0.422547 2.24214e-16)
(0.631966 -0.354277 2.383e-16)
(0.735978 -0.339238 -6.02241e-17)
(0.712431 -0.286524 -2.05063e-16)
(0.79714 -0.274972 -3.61336e-16)
(0.773864 -0.234345 3.99854e-16)
(0.844444 -0.224713 2.03541e-17)
(0.8214 -0.193088 4.43227e-16)
(0.881576 -0.18472 -2.57288e-17)
(0.85863 -0.159822 1.16596e-16)
(0.91101 -0.152281 4.92982e-17)
(0.888052 -0.132561 1.55777e-16)
(0.934497 -0.125465 -2.58417e-16)
(0.911425 -0.109874 1.30436e-16)
(0.953305 -0.102897 -2.53726e-16)
(0.930007 -0.0907019 3.79449e-16)
(0.968374 -0.083575 -1.11433e-16)
(0.944714 -0.0742473 1.20999e-16)
(0.980405 -0.0667468 1.96542e-17)
(0.956227 -0.0599089 1.94691e-16)
(0.989924 -0.0518257 -1.85328e-16)
(0.965056 -0.0472386 1.8356e-16)
(0.99733 -0.0383222 -1.40774e-16)
(0.971588 -0.0359293 -1.20975e-17)
(1.00292 -0.0257854 -1.42139e-16)
(0.976104 -0.0258155 1.71381e-16)
(1.00691 -0.0137665 -1.69082e-16)
(0.978764 -0.0168645 3.37798e-17)
(1.00951 -0.00180429 -3.52378e-17)
(0.979462 -0.00924605 2.11997e-16)
(1.01118 0.0108935 -3.44954e-16)
(0.977169 -0.00413865 2.12644e-16)
(1.01371 0.0269095 -1.9911e-16)
(0.968124 -0.00426244 1.02041e-16)
(1.02265 0.0443512 -2.40851e-16)
(0.939334 0.0173371 -1.87218e-16)
(0.433782 -0.723576 -2.93845e-16)
(0.420306 -0.612072 -3.23623e-16)
(0.580806 -0.568276 -4.04528e-16)
(0.555432 -0.476037 -5.84572e-16)
(0.683771 -0.451751 -4.07643e-16)
(0.656054 -0.378901 -4.35347e-16)
(0.758987 -0.362927 4.01556e-17)
(0.731925 -0.306698 1.23009e-16)
(0.8158 -0.294433 4.03735e-17)
(0.789833 -0.251117 -2.06074e-17)
(0.859717 -0.240888 -1.2654e-16)
(0.834597 -0.20719 -5.36655e-16)
(0.894165 -0.198299 -1.13449e-16)
(0.869602 -0.171791 -3.80043e-16)
(0.921434 -0.16377 -5.03948e-17)
(0.897212 -0.142801 -4.41001e-16)
(0.943139 -0.135246 3.71947e-16)
(0.919085 -0.118697 -4.18523e-16)
(0.960454 -0.111259 3.5767e-16)
(0.936404 -0.0983487 -5.70204e-16)
(0.974247 -0.090742 1.9855e-16)
(0.950032 -0.0809112 -1.82654e-16)
(0.985162 -0.0728953 -3.06534e-17)
(0.960608 -0.065748 -2.15038e-17)
(0.993683 -0.0570967 -7.35889e-17)
(0.968613 -0.0523909 2.70874e-16)
(1.00017 -0.0428286 -1.91032e-16)
(0.974419 -0.0405227 2.29853e-16)
(1.00489 -0.0296101 6.40704e-17)
(0.978308 -0.0299759 -5.70219e-17)
(1.00802 -0.0169415 1.50449e-16)
(0.980467 -0.0207237 -2.12417e-17)
(1.00969 -0.00421013 4.01647e-18)
(0.980921 -0.0130619 -1.24457e-16)
(1.01 0.00999511 3.51808e-16)
(0.979266 -0.00890276 -3.3766e-16)
(1.00958 0.0298029 3.34258e-16)
(0.972782 -0.0117035 -2.86292e-16)
(1.01412 0.0523443 3.75119e-16)
(0.945078 0.0101889 2.58738e-17)
(0.482797 -0.76684 1.70047e-16)
(0.461808 -0.648763 2.74202e-16)
(0.619425 -0.602334 3.22062e-16)
(0.587848 -0.504703 4.69074e-16)
(0.714636 -0.478943 5.58954e-16)
(0.682002 -0.401812 4.18067e-16)
(0.783934 -0.384866 3.72006e-17)
(0.753064 -0.325334 2.04075e-16)
(0.836182 -0.31233 -1.59644e-17)
(0.807271 -0.266472 4.90956e-17)
(0.876529 -0.255639 1.25861e-16)
(0.84911 -0.219965 5.29097e-16)
(0.908139 -0.210561 3.83879e-16)
(0.88176 -0.182501 5.2583e-16)
(0.933109 -0.17403 4.80681e-17)
(0.907443 -0.151834 6.22779e-16)
(0.952917 -0.143863 -4.99215e-16)
(0.927718 -0.126349 6.57867e-16)
(0.968639 -0.118507 -2.86173e-16)
(0.943693 -0.104848 4.8639e-16)
(0.981071 -0.0968302 -1.42596e-16)
(0.956173 -0.0864346 1.62975e-16)
(0.990804 -0.0779831 -9.95307e-17)
(0.965755 -0.0704335 8.43984e-17)
(0.998276 -0.0613057 2.37284e-17)
(0.972886 -0.056345 -3.0178e-16)
(1.0038 -0.0462466 2.43742e-16)
(0.977911 -0.043829 -3.05867e-16)
(1.0076 -0.0322946 5.80281e-17)
(0.981095 -0.0327045 -1.99041e-16)
(1.00978 -0.0189182 6.92126e-17)
(0.982632 -0.0229553 -2.16821e-16)
(1.01037 -0.00544021 1.36296e-16)
(0.982686 -0.01502 1.51393e-17)
(1.00911 0.00986631 -1.68188e-16)
(0.981594 -0.0114622 2.86761e-16)
(1.00551 0.0320569 -2.54304e-16)
(0.978119 -0.016392 2.04746e-16)
(1.005 0.0577017 -1.50574e-16)
(0.953055 0.00559574 -2.27938e-16)
(0.534465 -0.806703 -6.17555e-16)
(0.505558 -0.682549 -7.13607e-17)
(0.660024 -0.633842 -4.58339e-16)
(0.621898 -0.53116 -3.33236e-16)
(0.746895 -0.504162 -5.36046e-16)
(0.709118 -0.423084 -3.67918e-16)
(0.80986 -0.405338 -2.78039e-16)
(0.775041 -0.342777 -1.32994e-16)
(0.857241 -0.329164 -5.58902e-16)
(0.825307 -0.280988 2.59804e-16)
(0.893799 -0.269646 -3.96556e-16)
(0.864045 -0.232185 -3.14322e-16)
(0.922408 -0.222334 -7.76844e-16)
(0.894209 -0.192887 -5.12269e-16)
(0.944956 -0.184007 -2.23751e-16)
(0.917868 -0.160737 -3.52242e-16)
(0.962772 -0.152374 4.17273e-16)
(0.936468 -0.134035 -6.27296e-16)
(0.976825 -0.125802 4.56789e-16)
(0.951037 -0.111528 -5.93434e-16)
(0.987832 -0.103103 3.24287e-16)
(0.962318 -0.0922748 -2.82882e-16)
(0.996322 -0.0833883 2.0119e-16)
(0.970862 -0.0755683 -1.06078e-16)
(1.00269 -0.0659657 9.29436e-17)
(0.977084 -0.0608876 9.44496e-17)
(1.0072 -0.0502591 3.81768e-17)
(0.981312 -0.0478764 2.63648e-17)
(1.01004 -0.0357296 2.19718e-16)
(0.983809 -0.0363382 -2.83287e-17)
(1.01128 -0.0218072 1.95136e-16)
(0.984786 -0.026236 -1.10133e-16)
(1.01086 -0.00773086 2.28202e-16)
(0.984528 -0.0180207 -2.02231e-16)
(1.0082 0.00850613 2.15404e-16)
(0.983989 -0.0145085 -2.48154e-16)
(1.00167 0.032618 1.53969e-16)
(0.983344 -0.0201075 -2.02641e-16)
(0.996118 0.060743 8.13773e-17)
(0.96129 0.00229839 -2.79385e-17)
(0.588693 -0.843187 7.88012e-16)
(0.551466 -0.713464 8.73098e-17)
(0.702727 -0.662535 3.35095e-16)
(0.657742 -0.555307 5.18279e-16)
(0.781006 -0.52706 3.54445e-16)
(0.737798 -0.442382 5.87137e-16)
(0.837418 -0.423813 1.57642e-16)
(0.798397 -0.358475 3.27806e-16)
(0.879746 -0.344238 4.63401e-16)
(0.844567 -0.293925 -7.7649e-17)
(0.912355 -0.282073 1.99838e-16)
(0.88007 -0.242952 4.45057e-16)
(0.937825 -0.232669 7.31614e-16)
(0.90763 -0.201918 6.42161e-16)
(0.95783 -0.192659 2.47712e-16)
(0.929158 -0.168356 1.66232e-16)
(0.973547 -0.159646 -4.47666e-16)
(0.94599 -0.140491 5.45106e-16)
(0.985835 -0.131924 -4.49332e-16)
(0.959069 -0.117012 2.77975e-16)
(0.995331 -0.108251 -7.1997e-18)
(0.969074 -0.0969328 3.41543e-17)
(1.0025 -0.0876985 6.86121e-17)
(0.976506 -0.0795134 -1.29071e-16)
(1.00769 -0.0695436 1.06585e-16)
(0.981745 -0.0642061 -3.44707e-16)
(1.01111 -0.0531866 2.09664e-16)
(0.985089 -0.0506361 -3.54371e-16)
(1.01291 -0.038071 5.56287e-17)
(0.986789 -0.0385959 -2.27369e-16)
(1.0131 -0.0236146 9.98406e-17)
(0.987071 -0.0280477 -2.00011e-16)
(1.01155 -0.00905187 1.09971e-16)
(0.986339 -0.0194658 -3.64561e-16)
(1.00745 0.00764425 2.74409e-16)
(0.986155 -0.015777 -1.21832e-16)
(0.998251 0.0323079 -3.08781e-18)
(0.988186 -0.0215014 2.20597e-16)
(0.987991 0.0611204 -1.25082e-16)
(0.969747 0.000942346 2.15912e-16)
(0.645119 -0.875953 -8.29549e-16)
(0.599264 -0.74127 1.88251e-16)
(0.747101 -0.688481 -6.82868e-16)
(0.694971 -0.577108 -2.72499e-16)
(0.816298 -0.547855 -7.05253e-16)
(0.767473 -0.459931 -2.69282e-16)
(0.865809 -0.440714 -1.96614e-16)
(0.822474 -0.372884 -4.47606e-17)
(0.902835 -0.358154 -7.65518e-16)
(0.864351 -0.305934 3.99525e-16)
(0.931316 -0.293669 -3.45865e-16)
(0.896478 -0.253079 -3.56151e-16)
(0.953518 -0.242433 -6.30836e-16)
(0.921332 -0.210542 -7.65766e-16)
(0.970886 -0.200951 -2.86337e-16)
(0.940658 -0.175765 -1.26371e-16)
(0.984435 -0.166737 3.78313e-16)
(0.95567 -0.146906 -4.10516e-16)
(0.99491 -0.13802 2.93898e-16)
(0.967223 -0.122603 -2.46473e-16)
(1.00286 -0.113512 1.86249e-16)
(0.975928 -0.101834 -2.45264e-16)
(1.00869 -0.0922509 8.07294e-17)
(0.982238 -0.0838328 -9.45124e-17)
(1.01268 -0.073488 2.3169e-16)
(0.986495 -0.0680284 -2.13727e-17)
(1.01502 -0.0566031 1.8879e-16)
(0.988976 -0.0540277 2.72072e-17)
(1.0158 -0.0410192 3.59344e-16)
(0.989921 -0.0416031 -2.02013e-16)
(1.015 -0.0261337 4.38397e-16)
(0.989566 -0.0306845 -2.81798e-16)
(1.01244 -0.0111682 4.00305e-16)
(0.98838 -0.0216661 -9.33132e-17)
(1.00712 0.00586263 3.04953e-16)
(0.988317 -0.0172674 -5.07839e-16)
(0.995727 0.030618 4.39014e-16)
(0.992285 -0.0218367 -4.81187e-16)
(0.981335 0.0594036 1.63097e-16)
(0.977147 0.000965273 -1.54383e-16)
(0.703629 -0.905034 8.57871e-16)
(0.648786 -0.765887 1.4735e-16)
(0.793156 -0.711323 2.84528e-16)
(0.733625 -0.59633 6.66643e-16)
(0.853069 -0.566076 7.31662e-16)
(0.798393 -0.475294 3.28029e-16)
(0.895507 -0.455417 -7.30115e-17)
(0.847648 -0.385383 1.60029e-16)
(0.927081 -0.370153 5.43893e-16)
(0.885107 -0.316238 -2.82946e-16)
(0.951303 -0.303566 2.92239e-16)
(0.913744 -0.261658 3.68361e-16)
(0.970119 -0.250671 5.3499e-16)
(0.935789 -0.217743 5.01742e-16)
(0.984745 -0.207853 4.58839e-16)
(0.952818 -0.181845 4.2744e-17)
(0.99603 -0.172546 -2.07605e-16)
(0.965922 -0.152062 1.64834e-16)
(1.0046 -0.142919 -3.1133e-17)
(0.975865 -0.126985 3.38549e-18)
(1.01092 -0.117642 6.83683e-17)
(0.98319 -0.105557 -9.65862e-17)
(1.01532 -0.0957188 2.49726e-16)
(0.988295 -0.086981 -3.90894e-16)
(1.01804 -0.0763806 1.77655e-16)
(0.991483 -0.0706677 -3.94187e-16)
(1.01922 -0.0589899 6.71361e-17)
(0.993001 -0.0562071 -2.90712e-16)
(1.01889 -0.0429614 -2.08955e-17)
(0.993083 -0.0433626 -1.73444e-16)
(1.01702 -0.0276943 -1.96038e-16)
(0.991972 -0.0320552 3.95601e-17)
(1.01338 -0.0124552 -1.79308e-16)
(0.990195 -0.0226125 -2.06538e-16)
(1.00693 0.00451548 4.82351e-17)
(0.989995 -0.017444 2.30501e-16)
(0.993923 0.0283275 -1.26741e-16)
(0.995359 -0.0205919 3.04538e-16)
(0.976332 0.055817 -2.08938e-16)
(0.983402 0.00207001 2.88674e-16)
(0.763845 -0.930144 -8.71277e-16)
(0.699813 -0.787233 -4.77482e-16)
(0.840544 -0.731259 -4.09969e-16)
(0.773394 -0.613098 -2.77638e-16)
(0.890788 -0.582088 -1.15484e-15)
(0.830116 -0.488817 -1.52129e-16)
(0.925873 -0.468455 -1.61532e-16)
(0.873407 -0.396511 -9.37171e-18)
(0.951797 -0.380911 -4.77023e-16)
(0.906293 -0.325535 2.14943e-16)
(0.97162 -0.312553 -6.42867e-17)
(0.931334 -0.269519 -5.85077e-16)
(0.986955 -0.258258 -2.50574e-16)
(0.950498 -0.224458 -4.03827e-16)
(0.998774 -0.214318 -2.29523e-16)
(0.965184 -0.187634 -1.17928e-16)
(1.00775 -0.178094 4.12166e-16)
(0.976354 -0.157092 -3.32072e-16)
(1.0144 -0.147708 3.60144e-16)
(0.984676 -0.131386 -4.44969e-16)
(1.01908 -0.121793 2.77738e-16)
(0.990624 -0.109429 -1.58834e-16)
(1.02207 -0.0993283 4.76739e-17)
(0.994542 -0.0904034 7.4916e-17)
(1.02354 -0.0795243 2.17403e-16)
(0.99669 -0.0736977 1.23204e-16)
(1.02359 -0.0617287 1.28556e-16)
(0.997292 -0.0588863 1.2623e-16)
(1.02222 -0.045343 1.20929e-16)
(0.996562 -0.0457146 1.74195e-16)
(1.01935 -0.0297621 2.12989e-16)
(0.994738 -0.0340703 -4.98244e-17)
(1.01475 -0.0142897 2.08869e-16)
(0.992336 -0.0241493 2.01624e-16)
(1.00737 0.00258032 9.90397e-17)
(0.991649 -0.0178638 -4.24559e-16)
(0.993245 0.0252548 4.20039e-16)
(0.997399 -0.0188192 -3.79368e-16)
(0.973294 0.0511459 1.93308e-16)
(0.9878 0.00378794 -2.58944e-16)
(0.825634 -0.951326 1.09925e-15)
(0.752099 -0.805138 9.53817e-16)
(0.889158 -0.747868 3.3717e-16)
(0.814194 -0.627075 3.14196e-16)
(0.929588 -0.595327 9.35827e-16)
(0.862745 -0.499989 1.22284e-16)
(0.957203 -0.479139 2.38533e-16)
(0.89997 -0.405603 1.51661e-16)
(0.977372 -0.389635 2.16008e-16)
(0.92819 -0.333034 -1.38054e-16)
(0.9927 -0.319755 -1.25106e-17)
(0.949549 -0.27577 4.40364e-16)
(1.00446 -0.264261 3.14044e-16)
(0.965749 -0.22971 2.85474e-16)
(1.01339 -0.219358 4.08052e-17)
(0.978011 -0.192076 3.69065e-17)
(1.01998 -0.182347 -3.75349e-16)
(0.987168 -0.160867 1.42186e-16)
(1.02461 -0.151307 -4.78741e-17)
(0.993791 -0.134601 1.16529e-16)
(1.02757 -0.12484 3.17066e-17)
(0.99828 -0.112164 -5.94272e-17)
(1.02906 -0.101902 1.55589e-16)
(1.00092 -0.0927178 -2.25282e-16)
(1.0292 -0.081686 -1.10512e-17)
(1.00194 -0.0756341 -3.54305e-16)
(1.02804 -0.063529 1.39523e-16)
(1.00153 -0.0604743 -3.47339e-16)
(1.02555 -0.0468287 1.21698e-16)
(0.999888 -0.0469774 -3.84581e-16)
(1.02162 -0.0309883 -8.38396e-17)
(0.997258 -0.035021 -6.23378e-17)
(1.01604 -0.0153826 -2.37752e-16)
(0.994133 -0.0246979 -2.2187e-16)
(1.00788 0.00114613 -2.12537e-16)
(0.992735 -0.0174262 1.97826e-16)
(0.993289 0.0221424 -2.56852e-16)
(0.998259 -0.0163891 1.6934e-16)
(0.972088 0.0458861 -1.26302e-16)
(0.990483 0.00550928 3.7207e-16)
(0.888607 -0.96835 -1.23661e-15)
(0.805482 -0.819654 -9.48926e-16)
(0.938746 -0.76145 -6.0637e-16)
(0.855821 -0.638519 2.65495e-17)
(0.969084 -0.606278 -8.28616e-16)
(0.895969 -0.509253 1.28871e-16)
(0.989018 -0.488089 -4.71564e-16)
(0.926964 -0.413257 -1.24463e-16)
(1.00328 -0.397051 -3.89491e-17)
(0.950408 -0.339459 1.98602e-16)
(1.01402 -0.325979 6.84568e-17)
(0.96801 -0.28123 -2.40871e-16)
(1.02214 -0.269544 -1.36745e-16)
(0.981202 -0.234403 -5.26933e-16)
(1.02814 -0.223885 1.33974e-16)
(0.991018 -0.196147 -4.37637e-17)
(1.03233 -0.186258 3.78159e-16)
(0.998157 -0.164428 -3.15545e-16)
(1.03496 -0.154706 1.86502e-16)
(1.00309 -0.137738 -2.28653e-16)
(1.03622 -0.127808 7.55523e-17)
(1.00615 -0.114944 -1.12972e-17)
(1.03624 -0.104502 -1.67771e-16)
(1.00757 -0.0951893 2.08462e-17)
(1.0351 -0.0839673 3.03228e-16)
(1.00751 -0.0778322 2.28419e-17)
(1.03279 -0.065531 8.12807e-17)
(1.00615 -0.0624229 1.5538e-16)
(1.02926 -0.0485836 3.49358e-17)
(1.00366 -0.0486881 1.79656e-16)
(1.02436 -0.032533 9.601e-17)
(1.00026 -0.0364794 2.3595e-16)
(1.01788 -0.0168087 9.74399e-17)
(0.996366 -0.0257569 3.75291e-16)
(1.00905 -0.000564111 2.31347e-16)
(0.993925 -0.0173969 -8.25892e-17)
(0.994307 0.0189381 2.03874e-16)
(0.998276 -0.0141937 -6.13152e-17)
(0.972566 0.0408256 -2.69924e-17)
(0.991266 0.0068638 -1.81569e-16)
(0.952613 -0.981272 1.2372e-15)
(0.859632 -0.830546 8.83151e-16)
(0.989088 -0.771547 4.97895e-16)
(0.898066 -0.647019 1.44468e-16)
(1.00925 -0.614318 3.88123e-16)
(0.929748 -0.516047 -4.14684e-18)
(1.02145 -0.49458 4.00878e-16)
(0.95446 -0.418791 8.33513e-17)
(1.02975 -0.402357 -8.66102e-17)
(0.973075 -0.34403 -1.66872e-16)
(1.03583 -0.330369 1.31712e-16)
(0.986867 -0.285048 -4.67902e-17)
(1.04026 -0.273215 -5.45206e-17)
(0.996992 -0.237621 7.17526e-16)
(1.04326 -0.226981 -3.95671e-16)
(1.0043 -0.198881 1.46115e-16)
(1.04498 -0.188887 -1.54054e-16)
(1.00936 -0.166764 2.44094e-17)
(1.04553 -0.15695 2.00105e-16)
(1.01254 -0.139741 -1.06504e-16)
(1.04502 -0.129728 9.32491e-17)
(1.01409 -0.11666 5.94568e-17)
(1.0435 -0.106145 1.0594e-16)
(1.01418 -0.0966509 -2.01773e-16)
(1.04099 -0.0853685 1.28883e-16)
(1.01296 -0.0790611 -2.98842e-16)
(1.03745 -0.0667166 3.61047e-17)
(1.01055 -0.06343 2.70841e-17)
(1.03281 -0.0495767 -3.6179e-16)
(1.00713 -0.0494809 7.06245e-17)