/*--------------------------------*- C++ -*----------------------------------*\
| =========                 |                                                 |
| \\      /  F ield         | foam-extend: Open Source CFD                    |
|  \\    /   O peration     | Version:  3.0                                   |
|   \\  /    A nd           | Web:         http://www.extend-project.de       |
|    \\/     M anipulation  |                                                 |
\*---------------------------------------------------------------------------*/
FoamFile
{
    version     2.0;
    format      ascii;
    class       volVectorField;
    location    "5.3";
    object      s;
}
// * * * * * * * * * * * * * * * * * * * * * * * * * * * * * * * * * * * * * //

dimensions      [0 0 0 0 0 0 0];

internalField   nonuniform List<vector> 
400
(
(-0.00579462 0.00849697 5.96517e-318)
(-0.00941172 0.0124828 1.02249e-317)
(-0.0191347 0.0132086 1.14465e-317)
(-0.0245963 0.0110582 1.13999e-317)
(-0.0318625 0.00932432 1.0852e-317)
(-0.0363972 0.00695597 1.01226e-317)
(-0.0409766 0.00506569 9.33139e-318)
(-0.0438311 0.00313587 8.57797e-318)
(-0.0460368 0.00141937 7.83585e-318)
(-0.0470518 -0.000309259 7.17961e-318)
(-0.0470376 -0.0020641 6.54116e-318)
(-0.0460664 -0.00393422 5.99184e-318)
(-0.0436715 -0.00597187 5.4597e-318)
(-0.0405115 -0.00818929 4.99881e-318)
(-0.0354157 -0.0104543 4.5575e-318)
(-0.0301525 -0.0129235 4.14479e-318)
(-0.0222933 -0.0146998 3.73052e-318)
(-0.0160332 -0.0164859 3.23175e-318)
(-0.0064011 -0.0151988 2.53726e-318)
(-0.0026436 -0.0100422 1.28663e-318)
(-0.0060685 0.00542128 6.83288e-318)
(-0.0136774 0.0126889 1.32888e-317)
(-0.0249748 0.0159297 1.59936e-317)
(-0.0336649 0.015975 1.67807e-317)
(-0.0433814 0.014407 1.65803e-317)
(-0.0505586 0.0117987 1.59424e-317)
(-0.0573164 0.00880466 1.5052e-317)
(-0.0618836 0.00562191 1.41223e-317)
(-0.0652845 0.00235312 1.31318e-317)
(-0.0668135 -0.00092064 1.22111e-317)
(-0.0667141 -0.00429019 1.12809e-317)
(-0.0649704 -0.00764867 1.04473e-317)
(-0.0612102 -0.0110686 9.61639e-318)
(-0.0561157 -0.0143097 8.87103e-318)
(-0.048708 -0.017245 8.11977e-318)
(-0.0407112 -0.0194124 7.39514e-318)
(-0.0304469 -0.0202353 6.59342e-318)
(-0.0211817 -0.0189481 5.623e-318)
(-0.0103988 -0.0143191 4.23513e-318)
(-0.00309769 -0.00572278 1.99556e-318)
(-0.00601191 0.0162627 5.37493e-318)
(-0.0133986 0.0304199 1.12896e-317)
(-0.024801 0.0351282 1.43254e-317)
(-0.0333764 0.0341674 1.57001e-317)
(-0.0428076 0.030473 1.60633e-317)
(-0.0497988 0.0251663 1.58817e-317)
(-0.0563473 0.0191953 1.53404e-317)
(-0.0608483 0.0129084 1.46494e-317)
(-0.0642548 0.00643885 1.38269e-317)
(-0.0659016 -0.000108954 1.30012e-317)
(-0.0659878 -0.0068616 1.21299e-317)
(-0.0645045 -0.013667 1.13087e-317)
(-0.061022 -0.0206252 1.04726e-317)
(-0.0562121 -0.0272838 9.69142e-318)
(-0.0490517 -0.0334891 8.88976e-318)
(-0.0411741 -0.0382676 8.09238e-318)
(-0.0309426 -0.0408863 7.19272e-318)
(-0.0214612 -0.0396423 6.11106e-318)
(-0.0102884 -0.0325497 4.57093e-318)
(-0.0028866 -0.016167 2.16864e-318)
(-0.00487767 0.0174363 3.19575e-318)
(-0.010907 0.0345741 7.58896e-318)
(-0.0198732 0.0407931 1.03803e-317)
(-0.026669 0.0404012 1.20793e-317)
(-0.0343415 0.0362951 1.29573e-317)
(-0.0399918 0.0302627 1.33153e-317)
(-0.0454956 0.0231857 1.32744e-317)
(-0.0493042 0.0156786 1.30064e-317)
(-0.0523535 0.00783246 1.25464e-317)
(-0.0539794 -0.000165994 1.20043e-317)
(-0.0543532 -0.00846934 1.13706e-317)
(-0.0534916 -0.0168642 1.07224e-317)
(-0.0508759 -0.0254696 1.0023e-317)
(-0.0472428 -0.0336391 9.31957e-318)
(-0.0413842 -0.0412618 8.55187e-318)
(-0.0350129 -0.046783 7.72191e-318)
(-0.0262836 -0.0496628 6.72853e-318)
(-0.0182381 -0.0469441 5.49008e-318)
(-0.0086506 -0.0373622 3.82548e-318)
(-0.0020629 -0.0167036 1.5321e-318)
(-0.00464183 0.0222057 1.51643e-318)
(-0.00866967 0.0430981 4.49446e-318)
(-0.0162804 0.050297 6.86404e-318)
(-0.0211119 0.0496628 8.64321e-318)
(-0.0272589 0.0446336 9.81914e-318)
(-0.0314131 0.0373502 1.05376e-317)
(-0.0358351 0.0288648 1.08642e-317)
(-0.0388608 0.0198199 1.09254e-317)
(-0.0415396 0.0103596 1.07613e-317)
(-0.0431967 0.000614417 1.04653e-317)
(-0.0439749 -0.00956076 1.00447e-317)
(-0.0439492 -0.0199939 9.56444e-318)
(-0.0424084 -0.0308022 9.00563e-318)
(-0.0402589 -0.0412607 8.4029e-318)
(-0.0358022 -0.0512281 7.71188e-318)
(-0.0312006 -0.0587497 6.92655e-318)
(-0.0235478 -0.0632121 5.96674e-318)
(-0.0170917 -0.0605815 4.76642e-318)
(-0.00750964 -0.0494278 3.21191e-318)
(-0.00240112 -0.0230727 1.20556e-318)
(-0.00406571 0.0236498 1.72523e-319)
(-0.0062754 0.0458367 1.91683e-318)
(-0.0118888 0.0536748 3.82937e-318)
(-0.0146488 0.0528868 5.55766e-318)
(-0.0189911 0.0476594 6.89758e-318)
(-0.0215719 0.0399315 7.86949e-318)
(-0.0247918 0.0310651 8.48604e-318)
(-0.026987 0.0215256 8.82864e-318)
(-0.0292372 0.0115762 8.93499e-318)
(-0.0309075 0.00119834 8.87776e-318)
(-0.0320945 -0.00971346 8.67901e-318)
(-0.0329544 -0.0211155 8.38919e-318)
(-0.0325997 -0.0331011 8.00717e-318)
(-0.0321014 -0.0450036 7.55664e-318)
(-0.0292999 -0.0565985 7.00739e-318)
(-0.0267593 -0.0657267 6.34625e-318)
(-0.0205467 -0.0715252 5.5056e-318)
(-0.0159657 -0.0691173 4.42083e-318)
(-0.00669655 -0.0566091 3.00038e-318)
(-0.00289734 -0.0259603 1.14567e-318)
(-0.00351748 0.0255229 -4.34254e-319)
(-0.00405838 0.0488388 5.25399e-319)
(-0.00798779 0.0571388 2.01781e-318)
(-0.00897494 0.0560368 3.56571e-318)
(-0.0117667 0.0506807 4.88548e-318)
(-0.0129888 0.0425343 5.92188e-318)
(-0.0151396 0.0334414 6.65875e-318)
(-0.0165858 0.023522 7.1412e-318)
(-0.0184173 0.0132579 7.39997e-318)
(-0.0200654 0.00238355 7.49007e-318)
(-0.0215803 -0.00910976 7.43582e-318)
(-0.0232291 -0.0214105 7.27819e-318)
(-0.0239395 -0.0345236 7.02379e-318)
(-0.0250188 -0.048038 6.68895e-318)
(-0.0237431 -0.0614839 6.25564e-318)
(-0.0232903 -0.0729086 5.70508e-318)
(-0.0182918 -0.0807422 4.98449e-318)
(-0.015707 -0.0799556 4.02296e-318)
(-0.00613985 -0.0669844 2.73558e-318)
(-0.00390708 -0.0322544 1.02429e-318)
(-0.0025139 0.0258367 -7.90144e-319)
(-0.00192211 0.0488848 -3.7718e-319)
(-0.00371114 0.0573051 7.6557e-319)
(-0.00319415 0.0559068 2.10914e-318)
(-0.00428417 0.0507708 3.34959e-318)
(-0.00426376 0.0426354 4.38937e-318)
(-0.00526 0.0338631 5.18542e-318)
(-0.00594132 0.0241409 5.75832e-318)
(-0.00723261 0.0141969 6.12796e-318)
(-0.00873071 0.00348132 6.33581e-318)
(-0.0104147 -0.0079062 6.40812e-318)
(-0.0126617 -0.0204354 6.37854e-318)
(-0.0143239 -0.0340226 6.2592e-318)
(-0.0168114 -0.0486179 6.06603e-318)
(-0.0171483 -0.0635065 5.78799e-318)
(-0.0187089 -0.0770949 5.4085e-318)
(-0.0153735 -0.0870677 4.87582e-318)
(-0.0147314 -0.0882341 4.11056e-318)
(-0.00567667 -0.0752718 2.98734e-318)
(-0.00452224 -0.0368091 1.29127e-318)
(-0.00144624 0.0254883 -7.22403e-319)
(5.2445e-05 0.0480821 -5.55765e-319)
(0.000357046 0.056481 3.02576e-319)
(0.00208606 0.0549544 1.40521e-318)
(0.00259628 0.0501496 2.48346e-318)
(0.00368574 0.042205 3.42614e-318)
(0.00381437 0.033922 4.18444e-318)
(0.00389558 0.0245856 4.75901e-318)
(0.00324763 0.0151744 5.16231e-318)
(0.00206799 0.00485197 5.42243e-318)
(0.000449185 -0.00614496 5.56127e-318)
(-0.00211258 -0.0186126 5.6059e-318)
(-0.00444116 -0.0323206 5.57007e-318)
(-0.00808986 -0.0477476 5.46562e-318)
(-0.00986359 -0.063777 5.28899e-318)
(-0.0134692 -0.0796443 5.02209e-318)
(-0.0118511 -0.0918199 4.62117e-318)
(-0.0136227 -0.0959846 3.99904e-318)
(-0.00507269 -0.0837529 3.00061e-318)
(-0.00570503 -0.0430287 1.3603e-318)
(-0.000259122 0.0242151 -6.41495e-319)
(0.00174224 0.045449 -6.20428e-319)
(0.00426468 0.0535953 2.88337e-320)
(0.00697593 0.0520206 9.32317e-319)
(0.00914758 0.0477138 1.86303e-318)
(0.0112205 0.0402229 2.7114e-318)
(0.0125538 0.0326837 3.42114e-318)
(0.0134529 0.0240402 3.98254e-318)
(0.0136118 0.0154745 4.40077e-318)
(0.0129671 0.00591734 4.69506e-318)
(0.011686 -0.00428832 4.88483e-318)
(0.00919169 -0.016221 4.99261e-318)
(0.00651014 -0.0295611 5.03297e-318)
(0.0021961 -0.0452822 5.01909e-318)
(-0.00089643 -0.0620325 4.9492e-318)
(-0.00605164 -0.0798019 4.81031e-318)
(-0.00666025 -0.0942789 4.55548e-318)
(-0.010403 -0.101568 4.09696e-318)
(-0.00395041 -0.091042 3.23768e-318)
(-0.00555 -0.0483764 1.61979e-318)
(0.000968279 0.0224114 -4.08923e-319)
(0.00324418 0.0422406 -4.0792e-319)
(0.00781022 0.0498404 8.19161e-320)
(0.0112346 0.048418 7.98455e-319)
(0.0149199 0.0445568 1.56755e-318)
(0.0178241 0.0376674 2.29059e-318)
(0.0203124 0.0309126 2.91667e-318)
(0.0220274 0.0230874 3.42764e-318)
(0.0230831 0.0154759 3.82418e-318)
(0.0231451 0.00686188 4.11835e-318)
(0.0224634 -0.00232051 4.32381e-318)
(0.0203744 -0.013394 4.45796e-318)
(0.0177386 -0.0259139 4.53405e-318)
(0.0131235 -0.0414053 4.56075e-318)
(0.00907483 -0.0581528 4.53796e-318)
(0.00237755 -0.077291 4.45094e-318)
(-0.000377449 -0.0932524 4.25768e-318)
(-0.00697217 -0.103899 3.87147e-318)
(-0.00246938 -0.0948797 3.08757e-318)
(-0.0067772 -0.052545 1.56268e-318)
(0.00168082 0.0197452 -2.80451e-319)
(0.00427272 0.0376784 -2.83623e-319)
(0.0105461 0.0448028 1.06901e-319)
(0.0146827 0.0435851 6.96203e-319)
(0.0197843 0.0402871 1.34476e-318)
(0.0234982 0.0341195 1.97164e-318)
(0.0271202 0.0282403 2.52582e-318)
(0.0296742 0.0213526 2.99049e-318)
(0.0317029 0.0147916 3.36095e-318)
(0.0326427 0.00727466 3.6462e-318)
(0.0328034 -0.000719791 3.85694e-318)
(0.0315449 -0.0106456 4.00729e-318)
(0.0293762 -0.0220292 4.10868e-318)
(0.0252136 -0.0367628 4.16887e-318)
(0.0206029 -0.0530818 4.18506e-318)
(0.0134423 -0.0729183 4.1448e-318)
(0.00822985 -0.0903993 4.00148e-318)
(0.000131005 -0.104313 3.67663e-318)
(0.000275701 -0.0986114 2.9633e-318)
(-0.00478648 -0.0578009 1.53347e-318)
(0.00278116 0.0175867 -1.81742e-319)
(0.00507498 0.0334201 -1.4733e-319)
(0.0128258 0.0394982 1.85818e-319)
(0.0172501 0.0385081 6.78288e-319)
(0.0234875 0.035559 1.2225e-318)
(0.0277534 0.0301729 1.75439e-318)
(0.0323133 0.0251033 2.23321e-318)
(0.0355668 0.0191878 2.64245e-318)
(0.0384956 0.0136623 2.9763e-318)
(0.0403157 0.00729489 3.23998e-318)
(0.0414356 0.000567628 3.44156e-318)
(0.0411931 -0.00800905 3.59009e-318)
(0.0398593 -0.0179141 3.69363e-318)
(0.036454 -0.0313313 3.7561e-318)
(0.0318694 -0.0463319 3.77156e-318)
(0.0242457 -0.0658159 3.72293e-318)
(0.0172147 -0.0830888 3.56502e-318)
(0.00628468 -0.0991616 3.22505e-318)
(0.0032278 -0.094629 2.5271e-318)
(-0.00603311 -0.0568285 1.23225e-318)
(0.00262106 0.0139629 -1.06945e-319)
(0.00539437 0.0280077 -2.34879e-320)
(0.0139284 0.0334924 2.70679e-319)
(0.018955 0.0327923 6.89582e-319)
(0.0260996 0.0303348 1.14487e-318)
(0.0309239 0.0257386 1.59472e-318)
(0.0362502 0.0215026 2.00296e-318)
(0.0401126 0.0165504 2.35657e-318)
(0.0438336 0.0120296 2.64939e-318)
(0.0465326 0.00679369 2.88446e-318)
(0.0486712 0.00130723 3.06762e-318)
(0.0497206 -0.0058502 3.20562e-318)
(0.0495563 -0.0141863 3.30394e-318)
(0.0477129 -0.0259422 3.3645e-318)
(0.0437096 -0.0393494 3.37813e-318)
(0.037293 -0.0577878 3.32755e-318)
(0.0284591 -0.0749688 3.16383e-318)
(0.0176338 -0.0931861 2.8235e-318)
(0.00808156 -0.0928868 2.16159e-318)
(-0.000605185 -0.0614476 1.00063e-318)
(0.00332915 0.012362 -2.20299e-319)
(0.00514484 0.0236403 -7.35614e-320)
(0.0143174 0.0277569 2.26929e-319)
(0.0191827 0.0271242 6.08906e-319)
(0.0267933 0.0249313 1.00635e-318)
(0.0317169 0.0211482 1.39366e-318)
(0.0374064 0.0176619 1.74661e-318)
(0.0415326 0.0136568 2.0549e-318)
(0.0457348 0.0100445 2.31354e-318)
(0.0490317 0.00587578 2.52375e-318)
(0.0520162 0.00154018 2.69028e-318)
(0.0541586 -0.00419575 2.81667e-318)
(0.0552601 -0.0108859 2.90631e-318)
(0.0548689 -0.0206293 2.95649e-318)
(0.0520644 -0.0317782 2.95688e-318)
(0.0465098 -0.0479234 2.8849e-318)
(0.0373676 -0.0628401 2.6957e-318)
(0.0246047 -0.0803025 2.32917e-318)
(0.0121522 -0.0794461 1.6861e-318)
(-0.00232379 -0.0517733 6.71974e-319)
(0.00233825 0.00847976 5.63581e-320)
(0.00487162 0.0184979 2.22092e-319)
(0.0139868 0.0218523 4.34447e-319)
(0.0192848 0.0214847 7.08139e-319)
(0.0271593 0.0196753 1.00324e-318)
(0.0321512 0.0166404 1.2998e-318)
(0.0379621 0.0138984 1.57609e-318)
(0.0421381 0.0107525 1.82047e-318)
(0.0465663 0.00798098 2.02715e-318)
(0.0502836 0.00476457 2.19586e-318)
(0.053937 0.00147496 2.32992e-318)
(0.0572141 -0.00294977 2.43088e-318)
(0.0596177 -0.00807117 2.50109e-318)
(0.0613086 -0.0157906 2.53689e-318)
(0.0600615 -0.024648 2.52667e-318)
(0.0574015 -0.0382904 2.4508e-318)
(0.0480073 -0.0512993 2.26631e-318)
(0.0383424 -0.0689732 1.92229e-318)
(0.0184544 -0.0720981 1.35018e-318)
(0.00859377 -0.0562066 4.91921e-319)
(0.00217591 0.00772969 -2.62127e-319)
(0.00320862 0.0142567 -4.18721e-320)
(0.011859 0.0162815 2.00551e-319)
(0.0164134 0.0157917 4.65568e-319)
(0.023678 0.0143497 7.32467e-319)
(0.0280893 0.0121518 9.92395e-319)
(0.0333198 0.0101175 1.23312e-318)
(0.0370511 0.00783137 1.44568e-318)
(0.0411425 0.00576306 1.62669e-318)
(0.044695 0.00338858 1.7758e-318)
(0.0484728 0.000925825 1.89577e-318)
(0.0520678 -0.00233288 1.98803e-318)
(0.0553259 -0.00611816 2.05312e-318)
(0.058007 -0.011747 2.08551e-318)
(0.058533 -0.0182404 2.0744e-318)
(0.0572189 -0.0282192 1.99914e-318)
(0.0500081 -0.0377071 1.8248e-318)
(0.0397846 -0.0505386 1.50629e-318)
(0.0210845 -0.0508759 1.0092e-318)
(0.00426166 -0.0345586 3.12101e-319)
(0.000829259 0.00453464 5.45849e-319)
(0.00270704 0.0102866 5.62187e-319)
(0.0109914 0.0113706 5.8109e-319)
(0.0153961 0.0111419 6.52656e-319)
(0.0223058 0.00999682 7.83835e-319)
(0.0259782 0.00842171 9.32089e-319)
(0.0306442 0.00704163 1.08186e-318)
(0.0336825 0.00543667 1.21648e-318)
(0.0372925 0.00407343 1.33216e-318)
(0.0405238 0.00242001 1.42625e-318)
(0.0441763 0.000812548 1.50003e-318)
(0.0481336 -0.00143278 1.55528e-318)
(0.0519328 -0.0038558 1.59133e-318)
(0.0561997 -0.00772605 1.60585e-318)
(0.0581651 -0.01185 1.58817e-318)
(0.0604811 -0.0190983 1.52492e-318)
(0.0545004 -0.0254748 1.38615e-318)
(0.0509656 -0.0375246 1.13995e-318)
(0.0261547 -0.0402699 7.61711e-319)
(0.0224082 -0.0413774 2.37715e-319)
(-0.000292022 0.00410971 -2.70906e-319)
(-4.2277e-05 0.00570048 -1.21599e-319)
(0.00562229 0.00607412 1.27271e-320)
(0.0083575 0.00580059 1.50779e-319)
(0.0127023 0.00528504 2.90609e-319)
(0.0150393 0.00462757 4.26403e-319)
(0.0178209 0.00388111 5.52336e-319)
(0.019721 0.00307116 6.63258e-319)
(0.0219309 0.00219772 7.58806e-319)
(0.0239571 0.00121355 8.38227e-319)
(0.0264539 0.000100467 9.02954e-319)
(0.0290047 -0.00126439 9.54515e-319)
(0.032049 -0.00288444 9.91837e-319)
(0.034892 -0.0049944 1.01224e-318)
(0.0374694 -0.00750911 1.00834e-318)
(0.038861 -0.0107477 9.69797e-319)
(0.0371268 -0.0142367 8.78785e-319)
(0.0326726 -0.0175041 7.15254e-319)
(0.0194173 -0.0173524 4.75197e-319)
(0.00753981 -0.00583357 1.57108e-319)
(-0.000561644 0.00203049 9.3203e-319)
(0.000702375 0.003743 5.9115e-319)
(0.00545956 0.003366 4.4171e-319)
(0.00679611 0.00329483 3.59522e-319)
(0.0101782 0.00289549 3.58731e-319)
(0.0108816 0.00242995 3.74018e-319)
(0.0128151 0.00222019 3.99462e-319)
(0.0134702 0.00180883 4.217e-319)
(0.0148543 0.00167854 4.40628e-319)
(0.0159827 0.00130035 4.53888e-319)
(0.0175251 0.00118496 4.6289e-319)
(0.0195535 0.000696453 4.68162e-319)
(0.0215432 0.000554706 4.70242e-319)
(0.0247665 -0.000318686 4.69234e-319)
(0.0266434 -0.000501159 4.62119e-319)
(0.0309289 -0.00249151 4.45983e-319)
(0.0295269 -0.00258975 4.09185e-319)
(0.0339937 -0.00827018 3.41884e-319)
(0.0182218 -0.00756674 2.34577e-319)
(0.0283842 -0.023488 7.71879e-320)
)
;

boundaryField
{
    cavity
    {
        type            myHeatFlux;
        ThetaWall       uniform 0;
        value           nonuniform List<vector> 
60
(
(0.001 0 0)
(0.001 0 0)
(0.001 0 0)
(0.001 0 0)
(0.001 0 0)
(0.001 0 0)
(0.001 0 0)
(0.001 0 0)
(0.001 0 0)
(0.001 0 0)
(0.001 0 0)
(0.001 0 0)
(0.001 0 0)
(0.001 0 0)
(0.001 0 0)
(0.001 0 0)
(0.001 0 0)
(0.001 0 0)
(0.001 0 0)
(0.001 0 0)
(0 -0.001 0)
(0 -0.001 0)
(0 -0.001 0)
(0 -0.001 0)
(0 -0.001 0)
(0 -0.001 0)
(0 -0.001 0)
(0 -0.001 0)
(0 -0.001 0)
(0 -0.001 0)
(0 -0.001 0)
(0 -0.001 0)
(0 -0.001 0)
(0 -0.001 0)
(0 -0.001 0)
(0 -0.001 0)
(0 -0.001 0)
(0 -0.001 0)
(0 -0.001 0)
(0 -0.001 0)
(-0.001 0 0)
(-0.001 0 0)
(-0.001 0 0)
(-0.001 0 0)
(-0.001 0 0)
(-0.001 0 0)
(-0.001 0 0)
(-0.001 0 0)
(-0.001 0 0)
(-0.001 0 0)
(-0.001 0 0)
(-0.001 0 0)
(-0.001 0 0)
(-0.001 0 0)
(-0.001 0 0)
(-0.001 0 0)
(-0.001 0 0)
(-0.001 0 0)
(-0.001 0 0)
(-0.001 0 0)
)
;
    }
    lid
    {
        type            myHeatFlux;
        ThetaWall       uniform 0;
        value           nonuniform List<vector> 
20
(
(0.000135815 0.0009 0)
(0.000135815 0.0009 0)
(0.000135815 0.0009 0)
(0.000135815 0.0009 0)
(0.000135815 0.0009 0)
(0.000135815 0.0009 0)
(0.000135815 0.0009 0)
(0.000135815 0.0009 0)
(0.000135815 0.0009 0)
(0.000135815 0.0009 0)
(0.000135815 0.0009 0)
(0.000135815 0.0009 0)
(0.000135815 0.0009 0)
(0.000135815 0.0009 0)
(0.000135815 0.0009 0)
(0.000135815 0.0009 0)
(0.000135815 0.0009 0)
(0.000135815 0.0009 0)
(0.000135815 0.0009 0)
(0.000135815 0.0009 0)
)
;
    }
    frontAndBack
    {
        type            empty;
    }
}


// ************************************************************************* //
