/*--------------------------------*- C++ -*----------------------------------*\
| =========                 |                                                 |
| \\      /  F ield         | foam-extend: Open Source CFD                    |
|  \\    /   O peration     | Version:  3.0                                   |
|   \\  /    A nd           | Web:         http://www.extend-project.de       |
|    \\/     M anipulation  |                                                 |
\*---------------------------------------------------------------------------*/
FoamFile
{
    version     2.0;
    format      ascii;
    class       volSymmTensorField;
    location    "5.3";
    object      sigma;
}
// * * * * * * * * * * * * * * * * * * * * * * * * * * * * * * * * * * * * * //

dimensions      [0 0 0 0 0 0 0];

internalField   nonuniform List<symmTensor> 
400
(
(0.187298 0.00627999 1.12147e-316 -0.253318 1.41235e-316 0.0660202)
(0.352211 -0.0636562 1.17994e-316 -0.23581 1.59693e-316 -0.116402)
(0.426675 -0.148943 1.14844e-316 -0.222837 1.55472e-316 -0.203839)
(0.423264 -0.205703 1.09499e-316 -0.192998 1.43324e-316 -0.230266)
(0.39565 -0.264119 1.01301e-316 -0.1689 1.27025e-316 -0.22675)
(0.341088 -0.306113 9.34715e-317 -0.138289 1.12492e-316 -0.202799)
(0.279831 -0.341686 8.52039e-317 -0.110775 9.71441e-317 -0.169056)
(0.208006 -0.368083 7.77457e-317 -0.0803291 8.55298e-317 -0.127677)
(0.134205 -0.386079 7.06948e-317 -0.051468 7.33791e-317 -0.0827373)
(0.054212 -0.396793 6.44044e-317 -0.0201301 6.50349e-317 -0.034082)
(-0.0268827 -0.398861 5.87486e-317 0.0109927 5.58357e-317 0.01589)
(-0.111567 -0.393292 5.36885e-317 0.0442661 5.00902e-317 0.0673007)
(-0.195773 -0.3789 4.93063e-317 0.0783076 4.31562e-317 0.117465)
(-0.277742 -0.356218 4.52063e-317 0.112878 3.92641e-317 0.164864)
(-0.35219 -0.323405 4.19236e-317 0.147292 3.40824e-317 0.204897)
(-0.412549 -0.283739 3.83652e-317 0.179631 3.14962e-317 0.232918)
(-0.444828 -0.227762 3.60459e-317 0.206232 2.79855e-317 0.238596)
(-0.441594 -0.172412 3.26617e-317 0.23039 2.64947e-317 0.211204)
(-0.359273 -0.0878012 3.09407e-317 0.236664 2.48732e-317 0.12261)
(-0.18515 -0.0159213 2.64546e-317 0.24312 2.39991e-317 -0.0579704)
(0.127001 0.0166063 3.95109e-317 -0.301573 7.86664e-317 0.174572)
(0.274457 -0.0128601 5.15471e-317 -0.319679 1.16576e-316 0.0452225)
(0.331597 -0.0551598 5.78761e-317 -0.302363 1.2554e-316 -0.0292332)
(0.345253 -0.0885557 6.10065e-317 -0.279174 1.21482e-316 -0.0660796)
(0.323369 -0.123901 6.14584e-317 -0.243153 1.10674e-316 -0.0802157)
(0.283538 -0.15189 6.06135e-317 -0.204181 9.92882e-317 -0.079357)
(0.233063 -0.176021 5.86422e-317 -0.162883 8.65666e-317 -0.0701805)
(0.173908 -0.19301 5.61989e-317 -0.118857 7.6265e-317 -0.0550508)
(0.112409 -0.20416 5.3378e-317 -0.0753241 6.56168e-317 -0.0370849)
(0.0453981 -0.207619 5.04612e-317 -0.0287806 5.78323e-317 -0.0166176)
(-0.0218259 -0.205491 4.75441e-317 0.0174975 4.96367e-317 0.00432844)
(-0.0922516 -0.195788 4.47023e-317 0.0664946 4.41264e-317 0.025757)
(-0.161369 -0.182156 4.20818e-317 0.1159 3.79709e-317 0.0454696)
(-0.228144 -0.16286 3.95504e-317 0.165431 3.42036e-317 0.0627129)
(-0.288822 -0.141638 3.74695e-317 0.214787 2.96589e-317 0.0740347)
(-0.333494 -0.119372 3.53313e-317 0.256867 2.71539e-317 0.0766271)
(-0.360027 -0.09452 3.40171e-317 0.296077 2.40447e-317 0.0639491)
(-0.341607 -0.0762422 3.23789e-317 0.3129 2.26432e-317 0.0287074)
(-0.279619 -0.048019 3.1989e-317 0.321908 2.18893e-317 -0.0422896)
(-0.124661 -0.0359292 3.07178e-317 0.288456 2.42727e-317 -0.163795)
(0.118655 0.0547846 -3.85804e-318 -0.341518 3.6763e-317 0.222864)
(0.24401 0.0460404 1.00924e-317 -0.351985 8.02338e-317 0.107975)
(0.288791 0.031985 2.13563e-317 -0.328269 9.56645e-317 0.0394775)
(0.297486 0.0104139 2.96778e-317 -0.298498 9.71318e-317 0.00101202)
(0.276917 -0.011632 3.51425e-317 -0.257762 9.13056e-317 -0.0191557)
(0.243216 -0.0342782 3.8603e-317 -0.216133 8.33734e-317 -0.0270829)
(0.202109 -0.0521432 4.02972e-317 -0.173985 7.39634e-317 -0.028124)
(0.15398 -0.0656602 4.08932e-317 -0.129801 6.56162e-317 -0.024179)
(0.105364 -0.0721025 4.06085e-317 -0.0873516 5.71402e-317 -0.0180125)
(0.0506768 -0.0713424 3.98023e-317 -0.0407896 5.03549e-317 -0.00988722)
(-0.00383584 -0.0645953 3.8647e-317 0.00555841 4.35743e-317 -0.00172256)
(-0.0635047 -0.0503312 3.7283e-317 0.0569068 3.84305e-317 0.00659791)
(-0.123734 -0.0344462 3.58555e-317 0.110674 3.31474e-317 0.0130595)
(-0.184083 -0.0138152 3.42902e-317 0.166775 2.92767e-317 0.0173081)
(-0.24331 0.00146901 3.27835e-317 0.226898 2.51312e-317 0.0164116)
(-0.287801 0.0155294 3.09085e-317 0.279296 2.20911e-317 0.00850486)
(-0.32202 0.0178672 2.89979e-317 0.33358 1.8816e-317 -0.0115599)
(-0.309731 0.0120534 2.61763e-317 0.358764 1.63074e-317 -0.0490327)
(-0.26214 -0.00452143 2.28201e-317 0.37599 1.43103e-317 -0.11385)
(-0.119103 -0.0304813 1.88301e-317 0.337939 1.40384e-317 -0.218835)
(0.092322 0.0845147 -4.12713e-317 -0.334144 -1.29791e-320 0.241822)
(0.193565 0.0917075 -2.60089e-317 -0.329231 4.59433e-317 0.135666)
(0.22698 0.0931291 -1.07998e-317 -0.29634 6.56905e-317 0.0693607)
(0.231547 0.075404 1.56793e-318 -0.261491 7.19336e-317 0.0299446)
(0.214148 0.0601055 1.13169e-317 -0.221401 7.06135e-317 0.00725323)
(0.187391 0.0385893 1.84226e-317 -0.183056 6.63519e-317 -0.00433411)
(0.158126 0.0238971 2.34138e-317 -0.148489 6.01162e-317 -0.00963695)
(0.123437 0.0127957 2.67016e-317 -0.112936 5.40925e-317 -0.0105002)
(0.0912621 0.00946381 2.86877e-317 -0.0818307 4.76691e-317 -0.00943147)
(0.0528088 0.0150584 2.9707e-317 -0.0460402 4.22933e-317 -0.00676856)
(0.0161616 0.0260586 3.00182e-317 -0.0119058 3.68764e-317 -0.00425578)
(-0.0281712 0.0472879 2.98114e-317 0.0300431 3.26543e-317 -0.00187183)
(-0.0728479 0.0673734 2.92434e-317 0.0742865 2.84396e-317 -0.00143858)
(-0.123323 0.0948172 2.8361e-317 0.126692 2.54219e-317 -0.00336889)
(-0.174363 0.109477 2.72588e-317 0.184712 2.24898e-317 -0.0103484)
(-0.218979 0.124155 2.58155e-317 0.243232 2.08061e-317 -0.0242527)
(-0.257071 0.111411 2.40728e-317 0.306972 1.9472e-317 -0.0499011)
(-0.255355 0.0883844 2.17509e-317 0.34773 1.94285e-317 -0.0923755)
(-0.223381 0.0321186 1.88087e-317 0.383856 1.95665e-317 -0.160476)
(-0.0986867 -0.0416735 1.51026e-317 0.362366 1.85981e-317 -0.263679)
(0.0966303 0.140395 -4.57926e-317 -0.37915 -1.53201e-317 0.282519)
(0.178168 0.147949 -3.3994e-317 -0.338781 2.2665e-317 0.160613)
(0.202476 0.153454 -2.03796e-317 -0.290233 4.18096e-317 0.0877576)
(0.195369 0.1301 -8.45479e-318 -0.240368 5.01261e-317 0.0449993)
(0.180895 0.113437 1.39339e-318 -0.200892 5.19036e-317 0.0199971)
(0.156144 0.0870764 9.02282e-318 -0.162451 5.04853e-317 0.0063063)
(0.137788 0.0709384 1.46783e-317 -0.136611 4.7064e-317 -0.00117652)
(0.112713 0.0576901 1.87504e-317 -0.108325 4.31344e-317 -0.00438811)
(0.0949591 0.0550742 2.15455e-317 -0.089081 3.87173e-317 -0.00587808)
(0.0686983 0.0617427 2.33931e-317 -0.0627418 3.46563e-317 -0.00595657)
(0.0462733 0.0764774 2.45389e-317 -0.0398409 3.05661e-317 -0.00643244)
(0.0121223 0.102524 2.51908e-317 -0.00489074 2.7077e-317 -0.00723154)
(-0.02293 0.129105 2.55391e-317 0.0332555 2.36953e-317 -0.0103256)
(-0.0707105 0.165028 2.56752e-317 0.0868286 2.09976e-317 -0.016118)
(-0.122253 0.186006 2.57855e-317 0.149919 1.85296e-317 -0.0276659)
(-0.177336 0.210068 2.58115e-317 0.224484 1.68705e-317 -0.0471477)
(-0.229872 0.195138 2.59955e-317 0.310374 1.57382e-317 -0.0805011)
(-0.251467 0.173877 2.6051e-317 0.385942 1.57136e-317 -0.134475)
(-0.238621 0.094472 2.62211e-317 0.4606 1.68364e-317 -0.221979)
(-0.120858 0.00234826 2.56287e-317 0.481895 2.02372e-317 -0.361038)
(0.0856099 0.225425 -4.99287e-317 -0.396333 -2.49233e-317 0.310723)
(0.140269 0.21162 -4.04495e-317 -0.316304 6.33527e-318 0.176035)
(0.15653 0.200388 -2.81278e-317 -0.253757 2.37158e-317 0.0972265)
(0.139043 0.161901 -1.67308e-317 -0.190815 3.28449e-317 0.0517717)
(0.128928 0.134019 -6.75157e-318 -0.154483 3.65096e-317 0.025554)
(0.10812 0.0999466 1.24356e-318 -0.119137 3.717e-317 0.0110176)
(0.101401 0.0779861 7.48663e-318 -0.104229 3.57933e-317 0.00282854)
(0.0881326 0.0626177 1.21477e-317 -0.0868613 3.35779e-317 -0.00127131)
(0.0862009 0.0588204 1.5532e-317 -0.0824855 3.06808e-317 -0.00371547)
(0.0753149 0.0683199 1.78932e-317 -0.0703063 2.77844e-317 -0.00500851)
(0.0708491 0.0868887 1.94693e-317 -0.0640404 2.47145e-317 -0.00680869)
(0.0515852 0.121612 2.04549e-317 -0.0423037 2.19604e-317 -0.00928149)
(0.0335446 0.157785 2.10162e-317 -0.0192239 1.92455e-317 -0.0143206)
(-0.00591704 0.209079 2.12847e-317 0.0286649 1.70161e-317 -0.0227479)
(-0.0469676 0.244095 2.13759e-317 0.0848184 1.50312e-317 -0.0378508)
(-0.108937 0.287714 2.13865e-317 0.171751 1.3792e-317 -0.062814)
(-0.16457 0.284103 2.13784e-317 0.2695 1.32165e-317 -0.10493)
(-0.213836 0.276087 2.13838e-317 0.387745 1.39246e-317 -0.173909)
(-0.216606 0.191658 2.13116e-317 0.504124 1.59225e-317 -0.287518)
(-0.125535 0.0890419 2.05979e-317 0.597041 1.9218e-317 -0.471507)
(0.0831565 0.327344 -3.56771e-317 -0.406213 -2.22153e-317 0.323057)
(0.115764 0.281549 -3.06018e-317 -0.294389 -1.76529e-318 0.178625)
(0.127392 0.24232 -2.23454e-317 -0.224761 1.17562e-317 0.0973695)
(0.100584 0.18509 -1.39498e-317 -0.152366 2.00859e-317 0.0517824)
(0.096654 0.140779 -6.2858e-318 -0.122679 2.4468e-317 0.0260253)
(0.0785254 0.0967383 2.04464e-319 -0.0904076 2.63257e-317 0.0118822)
(0.083005 0.0661391 5.43065e-318 -0.0868627 2.63891e-317 0.00385769)
(0.0788412 0.0450451 9.52162e-318 -0.0785127 2.54583e-317 -0.000328495)
(0.0908332 0.0376016 1.26164e-317 -0.0877243 2.37946e-317 -0.00310896)
(0.0921476 0.044424 1.49118e-317 -0.087225 2.18519e-317 -0.00492265)
(0.102854 0.0645389 1.65828e-317 -0.095349 1.96512e-317 -0.00750523)
(0.0953813 0.1013 1.77976e-317 -0.0844105 1.74892e-317 -0.0109708)
(0.0904854 0.14657 1.87289e-317 -0.0730249 1.52937e-317 -0.0174605)
(0.0562091 0.208279 1.95082e-317 -0.0283297 1.33173e-317 -0.0278794)
(0.0195689 0.262525 2.03407e-317 0.026615 1.1509e-317 -0.0461839)
(-0.0535353 0.32886 2.13002e-317 0.129787 1.01908e-317 -0.0762513)
(-0.121972 0.353621 2.26768e-317 0.249383 9.51147e-318 -0.127412)
(-0.204575 0.38114 2.43638e-317 0.417097 1.012e-317 -0.212522)
(-0.231683 0.325885 2.66282e-317 0.588229 1.2898e-317 -0.356546)
(-0.157357 0.265028 2.84995e-317 0.756836 2.01251e-317 -0.599478)
(0.0633571 0.434947 -2.95435e-317 -0.359242 -1.97925e-317 0.295885)
(0.07353 0.346623 -2.62809e-317 -0.234403 -5.72891e-318 0.160873)
(0.0795699 0.269868 -2.00376e-317 -0.165836 4.53638e-318 0.0862661)
(0.0485837 0.191632 -1.32844e-317 -0.0938197 1.16803e-317 0.045236)
(0.0488937 0.126652 -6.75883e-318 -0.071494 1.6047e-317 0.0226003)
(0.035466 0.0733201 -1.10864e-318 -0.045862 1.84302e-317 0.010396)
(0.0480792 0.0319135 3.5998e-318 -0.0517072 1.92783e-317 0.003628)
(0.0536228 0.00647533 7.3294e-318 -0.0537272 1.91491e-317 0.000104457)
(0.0769602 -0.00599749 1.01989e-317 -0.0746889 1.82721e-317 -0.00227122)
(0.0915175 0.000248538 1.23276e-317 -0.0875011 1.69903e-317 -0.00401632)
(0.117058 0.0214544 1.38544e-317 -0.110424 1.53674e-317 -0.00663337)
(0.124515 0.064017 1.49068e-317 -0.114057 1.36251e-317 -0.0104579)
(0.137138 0.120013 1.56057e-317 -0.119646 1.17488e-317 -0.0174923)
(0.114526 0.198842 1.60666e-317 -0.0854449 9.92329e-318 -0.0290812)
(0.0941965 0.278134 1.64007e-317 -0.044865 8.15151e-318 -0.0493314)
(0.0189788 0.377315 1.6746e-317 0.0641995 6.707e-318 -0.0831783)
(-0.0426878 0.442415 1.72203e-317 0.183935 5.80503e-318 -0.141247)
(-0.153486 0.51563 1.79847e-317 0.393043 6.14939e-318 -0.239557)
(-0.189965 0.504567 1.91542e-317 0.598136 8.69682e-318 -0.408172)
(-0.153831 0.48261 2.03819e-317 0.848834 1.51931e-317 -0.695003)
(0.0435332 0.520676 -1.46932e-317 -0.277434 -1.27209e-317 0.233901)
(0.0351199 0.399024 -1.42826e-317 -0.158403 -6.20084e-318 0.123283)
(0.0389915 0.287532 -1.13161e-317 -0.103156 5.00454e-319 0.0641643)
(0.00809902 0.192568 -7.28636e-318 -0.0406282 6.00043e-318 0.0325292)
(0.0143632 0.10786 -3.08725e-318 -0.0299217 9.8998e-318 0.0155586)
(0.00587119 0.0452012 8.64822e-319 -0.0125652 1.23953e-317 0.00669403)
(0.0260431 -0.0076072 4.27626e-318 -0.0279483 1.36935e-317 0.00190523)
(0.0393289 -0.0405891 7.10821e-318 -0.0388705 1.41106e-317 -0.000458373)
(0.0724772 -0.060157 9.34595e-318 -0.0703059 1.3825e-317 -0.0021713)
(0.0977491 -0.0608049 1.10587e-317 -0.0942251 1.30702e-317 -0.00352401)
(0.136338 -0.0420072 1.23212e-317 -0.130353 1.1934e-317 -0.00598465)
(0.156746 -0.00351034 1.32224e-317 -0.146987 1.0569e-317 -0.00975833)
(0.184627 0.0594502 1.38676e-317 -0.16763 8.9992e-318 -0.0169964)
(0.172954 0.143056 1.43402e-317 -0.143974 7.34041e-318 -0.0289792)
(0.164245 0.247549 1.4797e-317 -0.114002 5.61883e-318 -0.0502437)
(0.0870514 0.370956 1.52958e-317 -0.00106794 4.01314e-318 -0.0859835)
(0.0206429 0.489326 1.61269e-317 0.127534 2.75939e-318 -0.148176)
(-0.119166 0.620082 1.72788e-317 0.373984 2.48818e-318 -0.254818)
(-0.184282 0.689959 1.92311e-317 0.625863 4.58e-318 -0.441581)
(-0.178767 0.767378 2.1698e-317 0.948181 1.21571e-317 -0.769413)
(0.0124621 0.580743 -1.03474e-317 -0.148699 -8.88166e-318 0.136237)
(-0.0109318 0.427358 -1.02102e-317 -0.0575015 -5.50454e-318 0.0684333)
(-0.0146729 0.285673 -8.07777e-318 -0.0188489 -1.22002e-318 0.0335218)
(-0.0402372 0.17859 -4.98988e-318 0.0246574 2.8512e-318 0.0155798)
(-0.0332016 0.0766734 -1.57401e-318 0.0267407 6.08561e-318 0.00646087)
(-0.035215 0.0078625 1.62355e-318 0.0331673 8.39245e-318 0.00204772)
(-0.0124758 -0.0558805 4.44078e-318 0.01257 9.79808e-318 -9.41973e-05)
(0.00806644 -0.0943053 6.7515e-318 -0.00715221 1.04589e-317 -0.000914229)
(0.0458961 -0.121395 8.56685e-318 -0.0443291 1.04912e-317 -0.001567)
(0.0809046 -0.126724 9.91157e-318 -0.07867 1.00523e-317 -0.00223465)
(0.127858 -0.111017 1.08374e-317 -0.123808 9.21918e-318 -0.00405053)
(0.161892 -0.0728996 1.13922e-317 -0.154556 8.10042e-318 -0.00733647)
(0.203627 -0.00311875 1.16229e-317 -0.189674 6.72462e-318 -0.0139525)
(0.208508 0.0923331 1.15717e-317 -0.183092 5.16807e-318 -0.0254159)
(0.219292 0.224109 1.12717e-317 -0.17334 3.4557e-318 -0.0459521)
(0.153811 0.38346 1.07826e-317 -0.0726436 1.71264e-318 -0.0811669)
(0.107341 0.56073 1.01505e-317 0.0355971 1.38501e-319 -0.142938)
(-0.043006 0.758986 9.56915e-318 0.293361 -7.53416e-319 -0.250355)
(-0.102528 0.912241 9.2514e-318 0.542495 1.67029e-319 -0.439967)
(-0.142482 1.06457 9.84703e-318 0.914464 4.9273e-318 -0.771982)
(-0.0209158 0.595473 -1.19434e-318 0.00366831 -3.82675e-318 0.0172475)
(-0.0562733 0.433733 -2.20338e-318 0.0533308 -4.32053e-318 0.0029425)
(-0.0623016 0.275783 -1.73427e-318 0.0645628 -2.22364e-318 -0.00226121)
(-0.0796277 0.162579 -1.5696e-319 0.0834838 5.32702e-319 -0.00385606)
(-0.070124 0.048937 1.79247e-318 0.0740452 3.16823e-318 -0.00392118)
(-0.0656226 -0.0260193 3.8211e-318 0.0689584 5.28424e-318 -0.00333576)
(-0.0405456 -0.0989053 5.65395e-318 0.0431817 6.75703e-318 -0.00263609)
(-0.0142592 -0.144735 7.21719e-318 0.0160402 7.60809e-318 -0.00178098)
(0.0275715 -0.179765 8.45112e-318 -0.0262117 7.8973e-318 -0.0013598)
(0.0701067 -0.19429 9.35915e-318 -0.0688903 7.72958e-318 -0.00121643)
(0.125014 -0.184814 9.95077e-318 -0.122671 7.17488e-318 -0.0023429)
(0.170815 -0.156724 1.02444e-317 -0.16596 6.31772e-318 -0.0048552)
(0.226438 -0.0864625 1.02689e-317 -0.215849 5.19278e-318 -0.0105886)
(0.247734 0.00328993 1.00288e-317 -0.226975 3.85166e-318 -0.0207586)
(0.276316 0.154975 9.57696e-318 -0.236816 2.31463e-318 -0.0394994)
(0.224222 0.325899 8.8768e-318 -0.152426 6.43101e-319 -0.0717964)
(0.185435 0.56266 8.06778e-318 -0.0562303 -1.02534e-318 -0.129205)
(0.0225419 0.814292 7.13129e-318 0.207411 -2.40996e-318 -0.229953)
(-0.0676942 1.07823 6.45471e-318 0.479394 -2.50802e-318 -0.4117)
(-0.157545 1.35895 6.84751e-318 0.901107 7.03021e-319 -0.743562)
(-0.0520338 0.571054 -1.76522e-318 0.160867 -2.07763e-318 -0.108833)
(-0.0990851 0.405988 -1.52872e-318 0.164096 -3.20692e-318 -0.0650113)
(-0.117517 0.243005 -3.22383e-319 0.155939 -2.35993e-318 -0.038422)
(-0.124402 0.132213 1.35495e-318 0.147338 -5.36881e-319 -0.0229362)
(-0.117373 0.0129503 3.19304e-318 0.131179 1.56262e-318 -0.0138068)
(-0.105202 -0.0635305 4.83603e-318 0.113476 3.41608e-318 -0.00827433)
(-0.0813672 -0.143101 6.26512e-318 0.0861483 4.80927e-318 -0.00478108)
(-0.0501862 -0.193641 7.40146e-318 0.0524884 5.6875e-318 -0.00230222)
(-0.00968408 -0.235582 8.25511e-318 0.010418 6.07538e-318 -0.000733938)
(0.0378065 -0.256911 8.8187e-318 -0.0380846 6.04468e-318 0.000278166)
(0.0927398 -0.253703 9.09458e-318 -0.0928372 5.65391e-318 9.73641e-05)
(0.147864 -0.232188 9.07439e-318 -0.146453 4.96869e-318 -0.00141085)
(0.208647 -0.162666 8.74195e-318 -0.202975 4.02424e-318 -0.00567238)
(0.248495 -0.07139 8.06593e-318 -0.234615 2.85833e-318 -0.0138791)
(0.292333 0.0984695 6.98806e-318 -0.263002 1.49522e-318 -0.0293304)
(0.26827 0.296202 5.4666e-318 -0.211764 -3.00491e-320 -0.0565055)
(0.257479 0.591129 3.37005e-318 -0.152586 -1.62399e-318 -0.104893)
(0.116289 0.91538 8.38395e-319 0.0742382 -3.17577e-318 -0.190527)
(0.0538408 1.28114 -2.2104e-318 0.291215 -4.23049e-318 -0.345056)
(-0.0714131 1.65543 -4.25971e-318 0.693058 -4.49321e-318 -0.621645)
(-0.0911033 0.514192 1.65697e-318 0.324074 -8.98177e-319 -0.232971)
(-0.139831 0.364521 2.1858e-318 0.268418 -3.82459e-318 -0.128587)
(-0.161328 0.209465 3.2785e-318 0.23243 -3.71386e-318 -0.0711024)
(-0.15711 0.100481 4.46395e-318 0.196848 -2.24323e-318 -0.039738)
(-0.151105 -0.0184251 5.53901e-318 0.173474 -2.25254e-319 -0.0223689)
(-0.132238 -0.097261 6.46054e-318 0.144783 1.6531e-318 -0.0125457)
(-0.10971 -0.179659 7.2143e-318 0.116425 3.11976e-318 -0.00671486)
(-0.0749888 -0.234276 7.81111e-318 0.0778589 4.10185e-318 -0.00287004)
(-0.0357891 -0.281067 8.23122e-318 0.0361577 4.61968e-318 -0.00036861)
(0.0145185 -0.309608 8.46159e-318 -0.0159653 4.74345e-318 0.00144675)
(0.0703771 -0.313929 8.47882e-318 -0.0724792 4.53478e-318 0.00210213)
(0.132387 -0.304502 8.25779e-318 -0.134064 4.0584e-318 0.00167769)
(0.201204 -0.242751 7.77544e-318 -0.200105 3.35633e-318 -0.00109961)
(0.25825 -0.167195 6.98524e-318 -0.251287 2.46867e-318 -0.006963)
(0.321583 0.00612827 5.86065e-318 -0.302937 1.42486e-318 -0.0186458)
(0.325275 0.192834 4.30974e-318 -0.286089 2.43485e-319 -0.039186)
(0.336528 0.528174 2.30613e-318 -0.260664 -1.02564e-318 -0.0758639)
(0.205511 0.869952 -1.96663e-319 -0.0651234 -2.45169e-318 -0.140387)
(0.117318 1.34114 -3.17919e-318 0.142076 -3.92626e-318 -0.259394)
(-0.0865599 1.82349 -5.45103e-318 0.57728 -5.69557e-318 -0.49072)
(-0.109827 0.409783 -8.90148e-319 0.441178 -5.65947e-319 -0.331351)
(-0.175144 0.286799 1.60391e-318 0.354102 -3.46108e-318 -0.178958)
(-0.209493 0.153569 4.24914e-318 0.305561 -3.71739e-318 -0.0960679)
(-0.195103 0.0585994 5.75625e-318 0.24712 -2.42241e-318 -0.0520168)
(-0.189725 -0.0530236 6.79067e-318 0.218087 -5.77405e-319 -0.0283621)
(-0.16284 -0.128731 7.35721e-318 0.178236 1.14336e-318 -0.0153956)
(-0.141668 -0.21033 7.74523e-318 0.14955 2.46843e-318 -0.00788171)
(-0.10438 -0.265986 7.98141e-318 0.107443 3.34966e-318 -0.00306228)
(-0.0704728 -0.315098 8.09915e-318 0.0702834 3.81791e-318 0.000189372)
(-0.0209666 -0.348434 8.07575e-318 0.0182964 3.94196e-318 0.00267025)
(0.0267098 -0.358964 7.88016e-318 -0.0308853 3.78227e-318 0.00417548)
(0.0902485 -0.35878 7.47088e-318 -0.0950555 3.39614e-318 0.00480703)
(0.152194 -0.305694 6.79858e-318 -0.155891 2.82727e-318 0.00369736)
(0.222991 -0.239733 5.80383e-318 -0.223283 2.11334e-318 0.000292015)
(0.288221 -0.0669085 4.39456e-318 -0.281155 1.29817e-318 -0.00706522)
(0.329983 0.126717 2.51101e-318 -0.309734 4.07535e-319 -0.0202486)
(0.362845 0.496454 -6.11752e-320 -0.319948 -5.09639e-319 -0.0428974)
(0.294446 0.89643 -3.19256e-318 -0.213327 -1.56301e-318 -0.0811194)
(0.253252 1.46259 -7.26202e-318 -0.10612 -3.08161e-318 -0.147132)
(0.0647755 2.04961 -1.09593e-317 0.195286 -6.52911e-318 -0.260061)
(-0.14815 0.320429 2.87854e-318 0.55862 -3.704e-318 -0.41047)
(-0.195712 0.212016 5.10891e-318 0.40831 -7.8259e-318 -0.212598)
(-0.234138 0.0986851 7.3075e-318 0.345071 -7.16541e-318 -0.110933)
(-0.209261 0.0065951 8.07272e-318 0.267986 -4.80386e-318 -0.0587246)
(-0.206294 -0.0950478 8.26606e-318 0.237721 -2.32439e-318 -0.0314272)
(-0.17396 -0.167781 8.18275e-318 0.190764 -2.43965e-319 -0.0168048)
(-0.155301 -0.243799 8.04142e-318 0.163763 1.25974e-318 -0.00846167)
(-0.117136 -0.296765 7.90442e-318 0.120289 2.26021e-318 -0.00315259)
(-0.0882304 -0.344342 7.74806e-318 0.0877285 2.83732e-318 0.000501841)
(-0.0414701 -0.378848 7.5341e-318 0.0380335 3.09094e-318 0.00343652)
(0.000123234 -0.394595 7.20831e-318 -0.00566739 3.09314e-318 0.00554416)
(0.0623601 -0.40338 6.72205e-318 -0.069438 2.9063e-318 0.00707787)
(0.123031 -0.364271 6.03015e-318 -0.130371 2.57769e-318 0.00733995)
(0.203774 -0.318598 5.08281e-318 -0.209969 2.14937e-318 0.00619511)
(0.282792 -0.164604 3.84444e-318 -0.285459 1.66599e-318 0.00266763)
(0.356023 -0.00477676 2.26395e-318 -0.352528 1.15532e-318 -0.00349472)
(0.422468 0.361682 3.02867e-319 -0.409715 6.41352e-319 -0.0127533)
(0.383961 0.717598 -2.03151e-318 -0.359584 -2.48268e-320 -0.0243778)
(0.338495 1.3371 -4.83938e-318 -0.299276 -1.32867e-318 -0.0392195)
(0.0261778 1.93249 -7.61425e-318 0.0505941 -4.64453e-318 -0.076772)
(-0.148276 0.161686 7.19405e-318 0.584959 9.22747e-319 -0.436683)
(-0.223803 0.105284 9.00484e-318 0.44609 -4.42663e-318 -0.222286)
(-0.261911 0.0359639 1.05096e-317 0.37541 -4.46063e-318 -0.113499)
(-0.229603 -0.0367947 1.01774e-317 0.288633 -2.46133e-318 -0.059031)
(-0.219582 -0.118923 9.51584e-318 0.250783 -5.10622e-319 -0.0312011)
(-0.179911 -0.183832 8.77569e-318 0.196462 1.03012e-318 -0.016551)
(-0.161081 -0.249408 8.1923e-318 0.169335 2.05012e-318 -0.00825433)
(-0.123093 -0.297428 7.74651e-318 0.126059 2.66021e-318 -0.00296578)
(-0.101814 -0.339864 7.37988e-318 0.101031 2.94747e-318 0.000782627)
(-0.0614045 -0.373226 7.02305e-318 0.0574935 2.99668e-318 0.00391103)
(-0.0338723 -0.391112 6.60379e-318 0.0274383 2.86853e-318 0.00643402)
(0.020644 -0.405519 6.06005e-318 -0.029257 2.6106e-318 0.00861296)
(0.0631444 -0.378814 5.33407e-318 -0.0731728 2.26467e-318 0.0100284)
(0.145437 -0.347403 4.37696e-318 -0.156134 1.86723e-318 0.010697)
(0.207092 -0.215135 3.12072e-318 -0.217555 1.46926e-318 0.0104625)
(0.314092 -0.0706942 1.56288e-318 -0.324172 1.11285e-318 0.0100798)
(0.375335 0.283816 -4.31789e-319 -0.387882 8.40178e-319 0.0125476)
(0.439374 0.664178 -2.67332e-318 -0.46471 5.77014e-319 0.0253357)
(0.432028 1.33559 -5.44744e-318 -0.500672 -2.7054e-319 0.0686442)
(0.261707 2.06251 -8.35486e-318 -0.455479 -3.27519e-318 0.193773)
(-0.173681 0.0869388 1.53326e-317 0.60503 -8.43537e-318 -0.431349)
(-0.197751 0.010644 1.39509e-317 0.406429 -1.29444e-317 -0.208678)
(-0.242443 -0.0499896 1.25673e-317 0.346228 -1.02871e-317 -0.103785)
(-0.20278 -0.120078 1.07664e-317 0.255996 -6.18655e-318 -0.0532163)
(-0.196443 -0.190267 9.1855e-318 0.224398 -3.25477e-318 -0.0279551)
(-0.156446 -0.243705 8.03372e-318 0.171289 -1.17388e-318 -0.0148439)
(-0.140912 -0.2972 7.21952e-318 0.148345 1.55314e-319 -0.00743248)
(-0.106412 -0.33473 6.67038e-318 0.109066 1.01606e-318 -0.0026543)
(-0.0914843 -0.369482 6.25279e-318 0.0906627 1.54719e-318 0.000821591)
(-0.0586073 -0.397555 5.88433e-318 0.0547557 1.85909e-318 0.00385164)
(-0.0403346 -0.416114 5.48433e-318 0.0338832 2.01643e-318 0.00645139)
(0.00465551 -0.434119 4.99712e-318 -0.0135954 2.06683e-318 0.00893987)
(0.0382088 -0.422194 4.37919e-318 -0.049205 2.04581e-318 0.0109963)
(0.11533 -0.409872 3.60273e-318 -0.128179 1.9826e-318 0.012849)
(0.178595 -0.314333 2.66315e-318 -0.193283 1.90761e-318 0.0146882)
(0.297834 -0.21755 1.58368e-318 -0.315916 1.84595e-318 0.0180823)
(0.392838 0.0778545 4.23637e-319 -0.420758 1.79651e-318 0.0279207)
(0.478717 0.348094 -7.34014e-319 -0.53545 1.67709e-318 0.0567328)
(0.518948 0.968067 -1.77514e-318 -0.655179 1.00799e-318 0.136232)
(0.149787 1.48688 -3.08083e-318 -0.465166 -1.13849e-318 0.315379)
(-0.150905 -0.0955064 2.77308e-317 0.506867 1.15286e-317 -0.355962)
(-0.217808 -0.0973278 2.23474e-317 0.386735 2.2184e-318 -0.168927)
(-0.229913 -0.0876629 1.66457e-317 0.312517 9.44071e-319 -0.0826043)
(-0.186677 -0.137587 1.25389e-317 0.228709 1.87587e-318 -0.0420323)
(-0.166502 -0.171129 9.63511e-318 0.188596 2.65538e-318 -0.0220934)
(-0.121368 -0.213595 7.86245e-318 0.133198 3.11579e-318 -0.0118296)
(-0.10721 -0.245406 6.72889e-318 0.113205 3.28489e-318 -0.00599453)
(-0.075789 -0.273456 6.02335e-318 0.0779462 3.25835e-318 -0.00215718)
(-0.0702918 -0.295137 5.52787e-318 0.0695692 3.10385e-318 0.000722611)
(-0.0467341 -0.314534 5.13084e-318 0.0433972 2.86379e-318 0.00333695)
(-0.0444379 -0.327779 4.7394e-318 0.0387446 2.56891e-318 0.00569322)
(-0.0131909 -0.339308 4.29283e-318 0.00510583 2.24303e-318 0.00808505)
(-0.00394951 -0.334662 3.74181e-318 -0.00635671 1.90906e-318 0.0103062)
(0.0603026 -0.323568 3.05617e-318 -0.0729088 1.59082e-318 0.0126062)
(0.0883818 -0.260825 2.20341e-318 -0.103774 1.32281e-318 0.0153918)
(0.220464 -0.181488 1.22547e-318 -0.240726 1.14029e-318 0.0202615)
(0.26713 0.0421898 9.37984e-320 -0.299929 1.06093e-318 0.0327985)
(0.476788 0.298509 -9.62544e-319 -0.544273 1.08668e-318 0.0674857)
(0.479664 0.858707 -1.98021e-318 -0.650499 8.02674e-319 0.170835)
(0.496881 1.58512 -3.17412e-318 -0.986174 -5.0078e-319 0.489293)
(-0.12051 -0.120266 2.19662e-317 0.364097 -1.42508e-317 -0.243587)
(-0.0880803 -0.199226 1.60008e-317 0.197863 -1.39135e-317 -0.109783)
(-0.118216 -0.231582 1.04375e-317 0.171096 -9.98494e-318 -0.0528796)
(-0.0827238 -0.268679 7.3757e-318 0.109631 -6.1044e-318 -0.0269067)
(-0.0747639 -0.30679 5.45512e-318 0.0890317 -3.94221e-318 -0.0142679)
(-0.0461161 -0.327012 4.3986e-318 0.0538936 -2.49882e-318 -0.00777748)
(-0.0374324 -0.350938 3.75932e-318 0.0414659 -1.56701e-318 -0.00403352)
(-0.0178443 -0.364066 3.38213e-318 0.0193405 -8.83765e-319 -0.00149617)
(-0.0149804 -0.379001 3.12039e-318 0.0145141 -3.61498e-319 0.000466241)
(-0.0011953 -0.392207 2.90703e-318 -0.00113815 6.23906e-320 0.00233345)
(-0.00103691 -0.404129 2.68739e-318 -0.00302497 4.1629e-319 0.00406188)
(0.0172693 -0.420162 2.42982e-318 -0.0231797 7.20644e-319 0.00591038)
(0.0226625 -0.425966 2.11348e-318 -0.0303712 9.83561e-319 0.00770875)
(0.0635608 -0.438014 1.73453e-318 -0.0732582 1.21146e-318 0.00969747)
(0.0874401 -0.413109 1.31005e-318 -0.099614 1.39941e-318 0.0121739)
(0.176347 -0.394154 8.8621e-319 -0.192672 1.54213e-318 0.0163249)
(0.241184 -0.263048 5.71639e-319 -0.267563 1.61539e-318 0.0263785)
(0.36841 -0.162397 4.28622e-319 -0.422023 1.57574e-318 0.0536125)
(0.496014 0.217336 7.29206e-319 -0.631451 1.30658e-318 0.135437)
(0.174652 0.386884 8.38691e-319 -0.536512 6.42438e-319 0.361859)
(-0.0228293 -0.31967 2.81251e-317 0.0980212 3.21313e-317 -0.075192)
(-0.0888486 -0.27149 1.98412e-317 0.126107 1.72222e-317 -0.0372588)
(-0.0483148 -0.17461 1.08758e-317 0.0665707 1.18848e-317 -0.0182559)
(-0.0156446 -0.193496 6.88673e-318 0.0250936 8.9193e-318 -0.00944899)
(0.0012135 -0.159912 4.46553e-318 0.00391595 7.54874e-318 -0.00512945)
(0.0323909 -0.176184 3.35249e-318 -0.029498 6.52133e-318 -0.00289294)
(0.0329918 -0.163334 2.7042e-318 -0.0314268 5.75201e-318 -0.00156499)
(0.0483253 -0.170348 2.35757e-318 -0.0477079 5.04682e-318 -0.00061748)
(0.0401956 -0.163422 2.12809e-318 -0.0403322 4.39805e-318 0.000136595)
(0.0463335 -0.160665 1.96136e-318 -0.0472359 3.77564e-318 0.000902402)
(0.0322423 -0.155565 1.80843e-318 -0.0338584 3.18512e-318 0.00161611)
(0.0382935 -0.140555 1.64313e-318 -0.0407199 2.63049e-318 0.00242639)
(0.0199251 -0.135197 1.44298e-318 -0.0231506 2.12653e-318 0.00322553)
(0.0414895 -0.100963 1.19353e-318 -0.0456385 1.68907e-318 0.00414896)
(0.0216136 -0.0923501 8.73375e-319 -0.0268908 1.33515e-318 0.0052772)
(0.0978844 -0.0254492 5.1164e-319 -0.104922 1.085e-318 0.00703744)
(0.0776822 -0.00667855 8.71729e-320 -0.0887257 9.04644e-319 0.0110436)
(0.305706 0.114065 -2.20309e-319 -0.32755 7.72289e-319 0.0218436)
(0.242628 0.18525 -3.86512e-319 -0.303913 4.52327e-319 0.0612849)
(0.626873 0.653951 -5.87676e-319 -0.891205 -3.90984e-319 0.264332)
)
;

boundaryField
{
    cavity
    {
        type            mySigma;
    }
    lid
    {
        type            fixedValue;
        value           uniform (0.1 -0.3 0 -0.1 0 0);
    }
    frontAndBack
    {
        type            empty;
    }
}


// ************************************************************************* //
