/*--------------------------------*- C++ -*----------------------------------*\
| =========                 |                                                 |
| \\      /  F ield         | foam-extend: Open Source CFD                    |
|  \\    /   O peration     | Version:  3.0                                   |
|   \\  /    A nd           | Web:         http://www.extend-project.de       |
|    \\/     M anipulation  |                                                 |
\*---------------------------------------------------------------------------*/
FoamFile
{
    version     2.0;
    format      ascii;
    class       volVectorField;
    location    "5.3";
    object      u;
}
// * * * * * * * * * * * * * * * * * * * * * * * * * * * * * * * * * * * * * //

dimensions      [0 0 0 0 0 0 0];

internalField   nonuniform List<vector> 
400
(
(-0.444408 1.18813 1.53997e-315)
(-0.629129 0.86107 1.37239e-315)
(-1.2424 0.942842 1.19368e-315)
(-1.46781 0.693478 1.08977e-315)
(-1.85558 0.695334 9.19815e-316)
(-2.05649 0.548852 8.61482e-316)
(-2.29269 0.513485 7.0385e-316)
(-2.43429 0.399932 6.74942e-316)
(-2.54829 0.35906 5.31529e-316)
(-2.6187 0.244874 5.21837e-316)
(-2.61673 0.196811 3.91984e-316)
(-2.60077 0.0719681 3.95044e-316)
(-2.48106 0.00959098 2.77539e-316)
(-2.35685 -0.127078 2.87551e-316)
(-2.11568 -0.192527 1.83828e-316)
(-1.87396 -0.351525 1.92733e-316)
(-1.49982 -0.363647 1.09316e-316)
(-1.1877 -0.591933 1.0522e-316)
(-0.638265 -0.484999 5.09399e-317)
(-0.376862 -0.766098 1.48374e-317)
(-0.0545092 0.57613 8.20491e-316)
(-0.422348 0.465931 8.0002e-316)
(-0.630803 0.45274 7.38669e-316)
(-0.864233 0.33498 7.12235e-316)
(-1.091 0.286272 6.39613e-316)
(-1.23786 0.186732 6.13001e-316)
(-1.40675 0.116232 5.36026e-316)
(-1.4942 0.0324399 5.11199e-316)
(-1.57729 -0.0517875 4.34424e-316)
(-1.61086 -0.124809 4.12834e-316)
(-1.60244 -0.226389 3.39276e-316)
(-1.57825 -0.292117 3.21579e-316)
(-1.48261 -0.415142 2.53019e-316)
(-1.39099 -0.47562 2.38132e-316)
(-1.2238 -0.610068 1.76014e-316)
(-1.04855 -0.667294 1.59546e-316)
(-0.850845 -0.774462 1.05345e-316)
(-0.562722 -0.831126 7.73175e-317)
(-0.42476 -0.850084 2.96083e-317)
(0.00427614 -0.891978 -2.87814e-317)
(-0.114944 1.82659 6.42762e-316)
(-0.493181 1.67893 6.48533e-316)
(-0.734464 1.55464 6.10599e-316)
(-0.980775 1.35074 5.88827e-316)
(-1.20232 1.21614 5.31563e-316)
(-1.35884 0.993422 5.03959e-316)
(-1.51994 0.862081 4.40108e-316)
(-1.62632 0.62872 4.13916e-316)
(-1.70527 0.499565 3.50027e-316)
(-1.77513 0.25763 3.26917e-316)
(-1.76322 0.115036 2.65514e-316)
(-1.78629 -0.129846 2.45215e-316)
(-1.68375 -0.301307 1.86943e-316)
(-1.62836 -0.53305 1.68046e-316)
(-1.45044 -0.731716 1.13772e-316)
(-1.26547 -0.921869 9.41404e-317)
(-1.05934 -1.11111 4.72195e-317)
(-0.686898 -1.22904 2.74838e-317)
(-0.547323 -1.33866 -4.24556e-318)
(0.012282 -1.37043 -5.31548e-318)
(-0.066101 1.4795 1.1464e-316)
(-0.300611 1.39876 2.34448e-316)
(-0.469127 1.19136 2.79921e-316)
(-0.579027 1.04841 3.23323e-316)
(-0.741622 0.862889 3.26919e-316)
(-0.78329 0.676494 3.33198e-316)
(-0.900634 0.525959 3.13946e-316)
(-0.924272 0.322859 3.02777e-316)
(-0.980527 0.178514 2.72455e-316)
(-1.00831 -0.02705 2.54171e-316)
(-0.99898 -0.203329 2.20001e-316)
(-1.03225 -0.401684 2.0026e-316)
(-0.956602 -0.644904 1.66794e-316)
(-0.97596 -0.815731 1.49065e-316)
(-0.841021 -1.14359 1.19808e-316)
(-0.796843 -1.24148 1.0697e-316)
(-0.637313 -1.62381 8.55877e-317)
(-0.44339 -1.58067 8.16825e-317)
(-0.352646 -1.87021 7.28852e-317)
(0.0484946 -1.66411 8.54779e-317)
(-0.234582 2.26711 1.96937e-316)
(-0.349049 2.18229 2.66878e-316)
(-0.704521 1.88762 2.88295e-316)
(-0.739743 1.68573 3.02873e-316)
(-0.9902 1.45495 2.9592e-316)
(-1.01853 1.1794 2.89118e-316)
(-1.17195 1.02008 2.677e-316)
(-1.23078 0.712502 2.52116e-316)
(-1.29564 0.585055 2.23985e-316)
(-1.3942 0.26344 2.04393e-316)
(-1.37316 0.123162 1.7311e-316)
(-1.49972 -0.20178 1.51073e-316)
(-1.38708 -0.399172 1.17668e-316)
(-1.50519 -0.700841 9.2491e-317)
(-1.29287 -0.995033 5.62924e-317)
(-1.32964 -1.20669 2.47924e-317)
(-1.02824 -1.60946 -1.63208e-317)
(-0.870878 -1.61859 -6.02615e-317)
(-0.546606 -2.01406 -1.10724e-316)
(-0.114524 -1.76993 -1.77545e-316)
(-0.351299 2.24008 -1.08179e-316)
(-0.181004 2.02434 1.97243e-317)
(-0.617965 1.7113 8.71208e-317)
(-0.438167 1.43706 1.43563e-316)
(-0.691624 1.23723 1.69575e-316)
(-0.568597 0.927364 1.87402e-316)
(-0.704713 0.810946 1.8854e-316)
(-0.657193 0.494539 1.86167e-316)
(-0.713955 0.396794 1.73903e-316)
(-0.748644 0.0809035 1.61904e-316)
(-0.739113 -0.0632412 1.43629e-316)
(-0.858999 -0.379716 1.28208e-316)
(-0.771573 -0.637119 1.08734e-316)
(-0.971189 -0.936663 9.4108e-317)
(-0.770587 -1.37198 7.70857e-317)
(-1.01966 -1.58399 6.71524e-317)
(-0.658041 -2.21855 5.58056e-317)
(-0.87588 -2.20042 5.45823e-317)
(-0.321975 -2.84426 5.17828e-317)
(-0.373568 -2.50282 5.99628e-317)
(-0.516612 2.88236 1.10644e-316)
(-0.156412 2.47906 1.52072e-316)
(-0.776843 2.17249 1.71987e-316)
(-0.502608 1.75107 1.82635e-316)
(-0.836516 1.5886 1.85102e-316)
(-0.712206 1.17474 1.82438e-316)
(-0.874143 1.10619 1.74061e-316)
(-0.887561 0.707564 1.64153e-316)
(-0.943061 0.677748 1.49373e-316)
(-1.08214 0.28172 1.34838e-316)
(-1.05371 0.240249 1.15998e-316)
(-1.3128 -0.173017 9.78786e-317)
(-1.18202 -0.281945 7.55613e-317)
(-1.54818 -0.714918 5.30017e-317)
(-1.25285 -0.961936 2.58193e-317)
(-1.67989 -1.3623 -5.18443e-318)
(-1.118 -1.81895 -4.12448e-317)
(-1.49109 -2.05071 -8.94377e-317)
(-0.554317 -2.65834 -1.4219e-316)
(-0.67344 -2.62671 -2.23041e-316)
(-0.538342 3.02002 -8.99363e-317)
(0.00470645 2.33287 -5.05679e-318)
(-0.623418 2.11669 4.5641e-317)
(-0.207802 1.51404 8.79639e-317)
(-0.517627 1.48347 1.10373e-316)
(-0.276553 0.977047 1.25115e-316)
(-0.412493 1.01589 1.28856e-316)
(-0.317958 0.578553 1.2781e-316)
(-0.365645 0.62269 1.2082e-316)
(-0.405083 0.211616 1.11802e-316)
(-0.395297 0.203792 9.96619e-317)
(-0.580994 -0.229733 8.7569e-317)
(-0.490016 -0.36424 7.41911e-317)
(-0.854876 -0.853452 6.27067e-317)
(-0.590476 -1.21706 5.14067e-317)
(-1.17572 -1.73682 4.4445e-317)
(-0.558964 -2.42974 3.84545e-317)
(-1.3688 -2.84244 4.01587e-317)
(-0.150918 -3.77327 4.22156e-317)
(-0.997425 -3.89552 5.12499e-317)
(-0.546845 3.44749 1.52024e-316)
(0.0743825 2.55274 1.48441e-316)
(-0.569206 2.38693 1.48932e-316)
(-0.16195 1.61868 1.4435e-316)
(-0.466824 1.64886 1.41594e-316)
(-0.293234 1.04753 1.35601e-316)
(-0.409558 1.14006 1.28641e-316)
(-0.417332 0.648684 1.19945e-316)
(-0.441237 0.764218 1.09371e-316)
(-0.612451 0.309662 9.78224e-317)
(-0.579624 0.423617 8.44112e-317)
(-0.932435 -0.0740843 7.02261e-317)
(-0.812937 0.00299055 5.41838e-317)
(-1.38504 -0.615338 3.65169e-317)
(-1.05919 -0.638965 1.66419e-317)
(-1.8749 -1.41898 -8.18513e-318)
(-1.09881 -1.6551 -3.5423e-317)
(-2.0872 -2.53213 -7.58007e-317)
(-0.507705 -3.12033 -1.17581e-316)
(-1.31766 -3.90761 -1.87257e-316)
(-0.378523 3.51006 -1.80309e-317)
(0.157036 2.35886 2.80603e-317)
(-0.29405 2.36008 5.75795e-317)
(0.100783 1.40945 8.31673e-317)
(-0.0935045 1.61629 9.56784e-317)
(0.134387 0.917727 1.03316e-316)
(0.0781393 1.14036 1.03772e-316)
(0.173797 0.610389 1.0073e-316)
(0.168791 0.82034 9.41401e-317)
(0.142623 0.353324 8.58435e-317)
(0.152747 0.53101 7.60131e-317)
(-0.0216252 0.0100867 6.59828e-317)
(0.0306418 0.102084 5.5915e-317)
(-0.361933 -0.598986 4.7339e-317)
(-0.140295 -0.706803 4.03126e-317)
(-0.875264 -1.69094 3.77705e-317)
(-0.193969 -2.19427 3.84936e-317)
(-1.42003 -3.43459 4.94234e-317)
(0.185665 -4.53084 6.44029e-317)
(-1.4192 -5.73133 9.69717e-317)
(-0.198525 3.65732 1.98902e-316)
(0.250224 2.45543 1.64776e-316)
(-0.0205128 2.4323 1.50273e-316)
(0.222014 1.41117 1.34627e-316)
(0.13343 1.60984 1.25724e-316)
(0.214853 0.874412 1.15956e-316)
(0.230398 1.09973 1.07493e-316)
(0.191133 0.560526 9.83287e-317)
(0.233643 0.796559 8.87395e-317)
(0.0663922 0.330077 7.8582e-317)
(0.100573 0.587106 6.77609e-317)
(-0.246442 0.0508871 5.64498e-317)
(-0.193104 0.33342 4.45601e-317)
(-0.813594 -0.448282 3.1637e-317)
(-0.601116 -0.156209 1.81657e-317)
(-1.61071 -1.38226 1.22499e-318)
(-0.892647 -1.17388 -1.56439e-317)
(-2.30961 -2.94397 -4.18175e-317)
(-0.470445 -3.20512 -6.56827e-317)
(-1.80418 -5.16639 -1.03429e-316)
(0.0417257 3.46953 3.30248e-317)
(0.188672 2.19764 6.32886e-317)
(0.259134 2.38193 7.93307e-317)
(0.404533 1.26458 9.43013e-317)
(0.497411 1.61556 9.79363e-317)
(0.607328 0.823789 9.89575e-317)
(0.709933 1.1545 9.50185e-317)
(0.776888 0.602802 8.9117e-317)
(0.8487 0.927819 8.12972e-317)
(0.863836 0.471612 7.26421e-317)
(0.877648 0.812433 6.3497e-317)
(0.811439 0.276721 5.4563e-317)
(0.779037 0.619948 4.63291e-317)
(0.560389 -0.225466 3.98536e-317)
(0.584359 0.0301535 3.58e-317)
(0.0604671 -1.41785 3.7195e-317)
(0.441446 -1.5271 4.34714e-317)
(-0.669442 -3.79567 6.47592e-317)
(0.639124 -4.92797 9.25775e-317)
(-1.25731 -7.73384 1.57809e-316)
(0.4106 3.45366 1.94956e-316)
(0.331001 2.25267 1.63305e-316)
(0.685409 2.24259 1.46119e-316)
(0.560878 1.19663 1.28971e-316)
(0.812512 1.43497 1.17378e-316)
(0.728048 0.689775 1.05965e-316)
(0.933246 0.958386 9.62659e-317)
(0.858705 0.447104 8.66093e-317)
(0.99197 0.73278 7.72355e-317)
(0.878091 0.318914 6.7816e-317)
(0.915326 0.649861 5.844e-317)
(0.689734 0.155555 4.90992e-317)
(0.634231 0.569873 3.995e-317)
(0.173262 -0.261106 3.059e-317)
(0.11513 0.284483 2.1651e-317)
(-0.777474 -1.25488 1.08975e-317)
(-0.497247 -0.573674 1.19136e-318)
(-1.99567 -3.15348 -1.38495e-317)
(-0.510724 -2.80554 -2.62493e-317)
(-2.11079 -5.81957 -3.96553e-317)
(0.437998 2.88005 5.53383e-317)
(0.150677 1.97581 1.0441e-316)
(0.833049 2.18541 1.10713e-316)
(0.70838 1.15285 1.17652e-316)
(1.15077 1.46708 1.11703e-316)
(1.13 0.716281 1.05366e-316)
(1.42078 1.03672 9.6112e-317)
(1.45687 0.547192 8.65218e-317)
(1.62019 0.901913 7.6493e-317)
(1.69696 0.527907 6.65422e-317)
(1.72525 0.956974 5.69004e-317)
(1.83448 0.500914 4.79183e-317)
(1.70763 1.03396 4.00586e-317)
(1.8301 0.194256 3.41548e-317)
(1.55064 0.805407 3.08838e-317)
(1.61658 -0.915599 3.34609e-317)
(1.32095 -0.506978 4.08546e-317)
(1.07483 -3.75031 6.55927e-317)
(1.16252 -4.72957 9.55693e-317)
(-0.0751372 -9.71111 1.70753e-316)
(1.10607 2.98258 1.23773e-316)
(0.323052 1.93662 1.32659e-316)
(1.27847 1.8171 1.23639e-316)
(0.784646 0.950727 1.12546e-316)
(1.35435 1.11691 1.02596e-316)
(1.1354 0.486309 9.24113e-317)
(1.5166 0.716878 8.3607e-317)
(1.43104 0.304982 7.49702e-317)
(1.64985 0.565902 6.68381e-317)
(1.6202 0.258978 5.887e-317)
(1.66905 0.573183 5.12506e-317)
(1.63452 0.200957 4.39366e-317)
(1.47911 0.614125 3.71265e-317)
(1.33556 -0.10026 3.05446e-317)
(0.947746 0.492779 2.44853e-317)
(0.468718 -1.04457 1.71888e-317)
(0.0324666 -0.145391 9.88744e-318)
(-1.19606 -3.05326 -2.92579e-318)
(-0.620351 -2.03959 -1.66496e-317)
(-2.5129 -5.21238 -3.783e-317)
(0.566621 1.87703 1.94628e-316)
(0.249632 1.84595 2.27498e-316)
(1.40855 1.83315 1.97248e-316)
(1.20295 1.08146 1.75654e-316)
(1.96129 1.19459 1.50506e-316)
(1.86296 0.584974 1.30202e-316)
(2.3209 0.807644 1.11997e-316)
(2.3331 0.439976 9.58947e-317)
(2.57937 0.751544 8.13395e-317)
(2.72042 0.505245 6.79209e-317)
(2.7833 0.933015 5.55959e-317)
(3.09031 0.630403 4.43732e-317)
(2.92082 1.23518 3.45679e-317)
(3.4625 0.570698 2.68404e-317)
(2.9074 1.41791 2.17223e-317)
(3.8061 -0.256895 2.23095e-317)
(2.60322 0.70495 2.71917e-317)
(3.97061 -3.23749 4.83807e-317)
(1.74874 -3.64677 7.27969e-317)
(2.85861 -11.6738 1.3233e-316)
(1.72749 2.37715 9.80157e-319)
(0.203942 1.36562 3.59181e-317)
(1.41121 1.17792 4.7171e-317)
(0.735492 0.58403 5.01136e-317)
(1.39882 0.677026 5.19215e-317)
(1.15515 0.248958 5.06784e-317)
(1.59263 0.40719 4.94409e-317)
(1.52402 0.141549 4.71947e-317)
(1.77395 0.321755 4.47687e-317)
(1.80636 0.14435 4.20399e-317)
(1.87031 0.357363 3.93256e-317)
(1.97787 0.148479 3.67188e-317)
(1.79567 0.419823 3.43677e-317)
(1.93213 -0.0305559 3.20536e-317)
(1.36136 0.343023 2.96208e-317)
(1.34999 -0.768783 2.51785e-317)
(0.347004 -0.17524 1.8449e-317)
(-0.492209 -2.46759 1.96114e-318)
(-0.715589 -1.36247 -1.97903e-317)
(-3.86173 -2.49562 -6.91457e-317)
(0.361867 0.690216 7.78829e-316)
(0.831907 2.01182 5.56506e-316)
(2.4493 1.45642 4.16283e-316)
(2.39569 1.05463 3.13913e-316)
(3.53309 0.896264 2.50025e-316)
(3.37205 0.439947 2.0225e-316)
(4.00389 0.550642 1.66748e-316)
(3.97537 0.309327 1.37102e-316)
(4.30358 0.55219 1.11753e-316)
(4.51477 0.430732 8.89564e-317)
(4.65057 0.802011 6.82719e-317)
(5.20332 0.664454 4.93734e-317)
(5.10316 1.23579 3.24899e-317)
(6.1654 0.832889 1.82258e-317)
(5.50974 1.7499 7.31418e-318)
(7.4239 0.381826 2.72558e-318)
(5.26181 1.84431 3.61202e-318)
(8.82554 -2.49916 2.04911e-317)
(2.76398 -1.38146 4.11331e-317)
(8.97563 -14.0338 8.6778e-317)
(2.12134 1.57137 -4.19969e-316)
(-0.0475212 0.157866 -2.97798e-316)
(0.434547 0.260142 -2.04517e-316)
(-0.101807 -0.0390559 -1.42089e-316)
(0.0276313 0.104633 -1.01052e-316)
(-0.0702069 -0.0241637 -7.24683e-317)
(0.0920379 0.0545943 -5.10846e-317)
(0.0726808 -0.0269377 -3.42965e-317)
(0.190159 0.0171496 -2.02972e-317)
(0.172905 -0.0389772 -8.22189e-318)
(0.19753 -0.0161406 2.59619e-318)
(0.155404 -0.0759771 1.24705e-317)
(0.0362451 -0.085093 2.14878e-317)
(-0.0677603 -0.197821 2.93333e-317)
(-0.405995 -0.29268 3.52631e-317)
(-0.700924 -0.521788 3.68532e-317)
(-1.13923 -0.851131 3.3018e-317)
(-2.42533 -0.951321 1.37739e-317)
(-1.02696 -1.41261 -1.31627e-317)
(-8.0738 3.82409 -8.06714e-317)
(-0.289376 -0.424959 2.0624e-315)
(2.27821 2.8431 1.18426e-315)
(5.36119 1.41191 8.39498e-316)
(5.40096 1.21241 6.00762e-316)
(7.57028 0.827013 4.77605e-316)
(7.13917 0.371886 3.86205e-316)
(8.21826 0.43869 3.20406e-316)
(8.05799 0.234085 2.64401e-316)
(8.60874 0.466991 2.15803e-316)
(8.97308 0.405171 1.714e-316)
(9.31377 0.774041 1.30547e-316)
(10.424 0.726545 9.27736e-317)
(10.5775 1.30441 5.8603e-317)
(12.7753 1.04658 2.89017e-317)
(12.2507 2.01937 5.19657e-318)
(16.1347 0.776874 -9.03939e-318)
(12.8584 2.69855 -1.42197e-317)
(19.8094 -2.43505 -2.99903e-319)
(6.62759 1.81493 1.62902e-317)
(20.8174 -18.1086 5.0349e-317)
)
;

boundaryField
{
    cavity
    {
        type            myImplicitVelocity;
    }
    lid
    {
        type            fixedValue;
        value           uniform (1 0 0);
    }
    frontAndBack
    {
        type            empty;
    }
}


// ************************************************************************* //
