/*--------------------------------*- C++ -*----------------------------------*\
| =========                 |                                                 |
| \\      /  F ield         | foam-extend: Open Source CFD                    |
|  \\    /   O peration     | Version:  3.0                                   |
|   \\  /    A nd           | Web:         http://www.extend-project.de       |
|    \\/     M anipulation  |                                                 |
\*---------------------------------------------------------------------------*/
FoamFile
{
    version     2.0;
    format      ascii;
    class       volScalarField;
    location    "17";
    object      p;
}
// * * * * * * * * * * * * * * * * * * * * * * * * * * * * * * * * * * * * * //

dimensions      [0 0 0 0 0 0 0];

internalField   nonuniform List<scalar> 
2688
(
-0.2418399591
-0.2223629483
-0.2107300996
-0.1975874664
-0.1902391223
-0.1811079193
-0.1764878634
-0.1700594424
-0.1672525223
-0.1627119554
-0.1611247706
-0.1579183451
-0.157128455
-0.1548461867
-0.1545222601
-0.1528317131
-0.1526861559
-0.151290808
-0.151047945
-0.1496575563
-0.1490296497
-0.1473371579
-0.1460041709
-0.1436640056
-0.2410811812
-0.2216651505
-0.2100685309
-0.1969671351
-0.1896416625
-0.1805390976
-0.1759334667
-0.1695251685
-0.1667269892
-0.1622006598
-0.1606184345
-0.1574220805
-0.1566346677
-0.1543595617
-0.1540366429
-0.1523513655
-0.1522062289
-0.150815195
-0.1505730773
-0.1491870321
-0.1485611429
-0.146873917
-0.145545122
-0.1432122858
-0.239559894
-0.2202664216
-0.2087432854
-0.1957245922
-0.1884455286
-0.1794004191
-0.1748239494
-0.1684560928
-0.1656756342
-0.1611778666
-0.159605685
-0.1564295018
-0.15564712
-0.1533863708
-0.1530655411
-0.1513908872
-0.1512466957
-0.1498644267
-0.1496238708
-0.1482465772
-0.1476246642
-0.1459480405
-0.1446276443
-0.1423095236
-0.2372886273
-0.2181780512
-0.2067640114
-0.1938687176
-0.186658545
-0.1776991605
-0.1731660053
-0.1668584824
-0.1641043138
-0.1596491632
-0.1580918446
-0.1549457615
-0.1541707771
-0.1519314502
-0.1516136557
-0.1499548602
-0.1498120322
-0.1484428329
-0.1482045505
-0.146840267
-0.1462242615
-0.1445635002
-0.1432556758
-0.1409595229
-0.2342670754
-0.2153999312
-0.2041314496
-0.1914003886
-0.1842821845
-0.1754369066
-0.1709615801
-0.1647343787
-0.1620153428
-0.1576169182
-0.1560794852
-0.1529734615
-0.1522084052
-0.1499975967
-0.1496839084
-0.1480462426
-0.1479052817
-0.1465535203
-0.1463182973
-0.1449713717
-0.1443632066
-0.1427235789
-0.1414324192
-0.1391654915
-0.2305119771
-0.2119472299
-0.2008592866
-0.1883322592
-0.1813280665
-0.172624543
-0.1682208869
-0.1620934676
-0.1594179512
-0.1550900028
-0.1535771691
-0.1505209126
-0.1497680954
-0.1475927076
-0.147284043
-0.1456726136
-0.1455339226
-0.1442038098
-0.1439723668
-0.1426469966
-0.142048582
-0.1404352087
-0.139164772
-0.1369341707
-0.226028197
-0.2078246293
-0.1969525249
-0.1846692035
-0.1778013837
-0.1692671832
-0.1649492818
-0.1589410542
-0.1563176389
-0.1520738721
-0.1505905172
-0.1475937067
-0.1468555879
-0.1447225157
-0.1444199096
-0.1428398311
-0.1427038853
-0.1413996537
-0.141172743
-0.1398731497
-0.1392863762
-0.1377043712
-0.136458646
-0.1342714191
-0.2208365355
-0.203051058
-0.1924286252
-0.1804274091
-0.173717273
-0.1653790696
-0.161160293
-0.1552900373
-0.1527268231
-0.148580506
-0.1471311813
-0.1442031825
-0.1434819941
-0.1413978952
-0.141102234
-0.1395584288
-0.1394256176
-0.1381513265
-0.1379296522
-0.1366598885
-0.1360866123
-0.1345409161
-0.1333238259
-0.1311868239
-0.2149468649
-0.197635785
-0.1872967824
-0.1756156818
-0.1690846154
-0.1609688226
-0.1568626477
-0.1511489591
-0.1486541602
-0.1446184256
-0.1432078048
-0.140357895
-0.1396559924
-0.1376274745
-0.1373397446
-0.1358371093
-0.1357078745
-0.1344675692
-0.1342518348
-0.1330159399
-0.1324579644
-0.1309534794
-0.1297688501
-0.1276888283
-0.2083839696
-0.1916014151
-0.1815780606
-0.1702535877
-0.1639218866
-0.1560538675
-0.1520730237
-0.1465337598
-0.1441150853
-0.1402025474
-0.1388349606
-0.1360720428
-0.1353915517
-0.133424946
-0.1331459974
-0.1316892168
-0.1315639402
-0.1303614848
-0.1301523729
-0.1289541999
-0.1284133012
-0.1269547214
-0.1258062867
-0.1237897539
-0.2011624333
-0.1849615351
-0.1752856542
-0.1643536792
-0.1582414999
-0.1506461822
-0.1468033732
-0.1414560842
-0.1391212801
-0.1353443368
-0.1340241942
-0.1313570288
-0.1307001715
-0.1288017166
-0.1285324753
-0.1271261673
-0.1270052515
-0.1258444529
-0.1256425984
-0.1244859479
-0.1239637975
-0.1225557578
-0.1214471234
-0.1195004666
-0.1933108782
-0.1777422903
-0.1684440546
-0.157938741
-0.1520650942
-0.1447662081
-0.1410733557
-0.1359347476
-0.1336910304
-0.1300614789
-0.1287928315
-0.1262297438
-0.1255985101
-0.1237741293
-0.1235153978
-0.1221639545
-0.1220477746
-0.1209322662
-0.1207383383
-0.1196268338
-0.1191251364
-0.1177720401
-0.1167067402
-0.1148360445
-0.184848249
-0.1699612677
-0.1610701881
-0.1510248183
-0.1454083893
-0.1384290655
-0.1348979477
-0.1299843088
-0.127838864
-0.1243682155
-0.123155158
-0.1207042839
-0.1201007381
-0.118356223
-0.1181088584
-0.1168165588
-0.116705476
-0.1156387693
-0.1154533223
-0.1143904524
-0.1139106903
-0.1126167992
-0.1115980999
-0.1098092903
-0.1758068126
-0.1616479692
-0.153191774
-0.1436377292
-0.138295993
-0.1316580273
-0.1282996013
-0.1236262716
-0.121585728
-0.1182848106
-0.1171310607
-0.1148000397
-0.1142260064
-0.1125667944
-0.1123315344
-0.1111024174
-0.110996785
-0.1099822365
-0.1098059102
-0.1087950423
-0.1083388373
-0.1071082476
-0.1061394688
-0.1044381427
-0.1662094793
-0.1528236222
-0.1448291504
-0.1357967111
-0.1307466583
-0.1244710981
-0.1212960754
-0.116877881
-0.1149487776
-0.1118280737
-0.1107373608
-0.108533604
-0.107990965
-0.1064223317
-0.1061999589
-0.1050379189
-0.1049380665
-0.1039788611
-0.1038121502
-0.1028564212
-0.1024250792
-0.1012616063
-0.1003456553
-0.09873718879
-0.1560918933
-0.143520843
-0.1360130211
-0.1275303881
-0.1227877294
-0.116894158
-0.1139123872
-0.1097631068
-0.1079513976
-0.105020629
-0.1039962895
-0.1019266532
-0.1014170441
-0.09994386811
-0.09973504109
-0.09864370266
-0.09854994262
-0.09764909835
-0.09749257595
-0.09659503273
-0.09619002065
-0.09509738148
-0.09423725214
-0.09272668561
-0.1454805127
-0.1337641134
-0.1267667807
-0.1188608577
-0.1144406845
-0.1089478056
-0.1061688039
-0.1023016169
-0.1006131153
-0.09788160364
-0.0969269541
-0.09499803115
-0.09452312569
-0.09315010282
-0.09295551969
-0.09193835407
-0.09185098753
-0.09101134685
-0.0908654673
-0.09002890129
-0.08965140458
-0.08863298771
-0.08783130672
-0.08642341267
-0.134414044
-0.123588868
-0.1171238263
-0.1098192741
-0.1057353273
-0.1006602629
-0.09809264077
-0.09451958997
-0.09295949856
-0.09043573769
-0.08955369224
-0.08777147104
-0.0873326971
-0.08606408602
-0.08588432028
-0.08494448605
-0.0848637796
-0.08408796564
-0.08395321473
-0.0831802682
-0.08283152762
-0.0818905525
-0.08114986926
-0.07984905372
-0.1229220335
-0.1130224282
-0.1071102262
-0.1004302388
-0.09669552817
-0.09205440611
-0.08970637155
-0.08643882485
-0.08501215928
-0.0827041915
-0.0818976114
-0.08026778062
-0.07986658078
-0.07870643546
-0.07854208795
-0.07768258839
-0.07760880438
-0.07689928818
-0.07677607227
-0.07606919224
-0.07575028603
-0.07488973626
-0.07421240549
-0.07302279267
-0.1110458706
-0.1021026974
-0.09676173168
-0.09072711553
-0.08735323336
-0.08316049604
-0.08103930956
-0.07808742182
-0.07679856676
-0.07471355267
-0.0739848934
-0.07251250099
-0.07215007941
-0.07110198838
-0.07095354415
-0.07017703591
-0.07011039949
-0.06946937543
-0.06935809346
-0.06871946373
-0.06843139009
-0.06765391547
-0.06704201704
-0.06596731441
-0.09881772496
-0.09085940605
-0.08610668231
-0.0807366338
-0.07773435018
-0.07400334927
-0.07211580919
-0.0694889941
-0.06834210587
-0.06648670583
-0.06583833835
-0.06452809502
-0.06420564553
-0.06327296585
-0.06314091956
-0.06244989266
-0.06239061758
-0.06182014541
-0.06172114079
-0.06115283187
-0.06089652377
-0.06020465863
-0.05966019356
-0.05870382441
-0.08628124124
-0.0793325317
-0.07518280352
-0.07049400949
-0.06787261738
-0.06461493195
-0.06296685465
-0.06067325116
-0.05967183966
-0.05805179177
-0.05748568064
-0.05634163173
-0.0560601182
-0.05524572588
-0.0551304677
-0.05452704961
-0.05447531967
-0.05397714682
-0.05389073419
-0.05339445919
-0.0531706918
-0.05256651303
-0.05209112395
-0.05125605487
-0.07347071539
-0.06755376208
-0.06402028363
-0.06002770481
-0.0577956029
-0.05502164231
-0.05361833345
-0.0516652832
-0.05081259522
-0.04943309452
-0.04895109331
-0.04797691262
-0.04773726863
-0.04704378095
-0.04694569679
-0.04643182894
-0.04638780898
-0.04596354945
-0.04589000163
-0.04546740286
-0.04527691629
-0.04476242881
-0.04435767704
-0.04364657844
-0.06043158165
-0.05556471838
-0.0526584105
-0.04937440124
-0.04753846289
-0.04525679553
-0.04410255187
-0.04249607488
-0.04179469927
-0.04065998855
-0.04026354328
-0.03946222184
-0.0392651547
-0.03869469868
-0.03861407405
-0.03819133007
-0.03815515495
-0.03780609504
-0.03774563985
-0.03739796696
-0.03724133221
-0.03681806055
-0.0364851732
-0.03590024166
-0.04719975974
-0.04339858007
-0.0411287817
-0.03856388133
-0.03713003087
-0.03534799445
-0.03444656437
-0.03319183898
-0.03264407446
-0.03175781976
-0.03144824654
-0.03082237747
-0.03066855329
-0.03022297612
-0.03016008887
-0.02982983902
-0.02980162973
-0.02952891347
-0.02948174974
-0.02921016946
-0.02908790328
-0.02875725797
-0.02849731278
-0.02804042565
-0.03382196806
-0.03109815211
-0.02947181131
-0.02763388369
-0.0266064861
-0.02532952918
-0.02468363376
-0.02378448419
-0.0233919638
-0.02275685771
-0.02253506273
-0.02208654288
-0.02197639924
-0.02165704953
-0.02161207122
-0.021375313
-0.02135514649
-0.02115958599
-0.02112585081
-0.02093115404
-0.02084362606
-0.02060658557
-0.02042038514
-0.02009294571
-0.02033522832
-0.01869762587
-0.01772005177
-0.01661508515
-0.01599751778
-0.01522981554
-0.0148416004
-0.01430097824
-0.01406502574
-0.01368316122
-0.01354990924
-0.01328022119
-0.01321415168
-0.01302208692
-0.01299518827
-0.01285270762
-0.01284066501
-0.01272291931
-0.0127027351
-0.01258558635
-0.01253308224
-0.0123904354
-0.01227856919
-0.01208163724
-0.006787030095
-0.006240514092
-0.005914591578
-0.005545857769
-0.00533992036
-0.005083731492
-0.004954306241
-0.004773790304
-0.004695060552
-0.00456754438
-0.004523188087
-0.004433108354
-0.004411272718
-0.004347043175
-0.004338276297
-0.004290478694
-0.004286574641
-0.004246971636
-0.004240382773
-0.004201108669
-0.004183786504
-0.004135951713
-0.004098772064
-0.004032939135
0.006785038892
0.006238470343
0.005911526445
0.005542663436
0.005336181261
0.005079894921
0.004950012994
0.00476973348
0.00469090672
0.004563579257
0.004518834357
0.00442895032
0.004406434478
0.004342571963
0.004333144081
0.004286064247
0.004281789074
0.004243083711
0.004236033857
0.004197277313
0.00417935714
0.004132211047
0.004094590243
0.004029091907
0.02033325203
0.01869559621
0.01771700258
0.01661190619
0.01599379416
0.01522599388
0.01483732194
0.01429693484
0.01406088455
0.01367920791
0.01354556837
0.01327607567
0.01320932924
0.01301763104
0.01299007637
0.01284831171
0.01283590284
0.01271904866
0.01269840626
0.01258176506
0.0125286654
0.01238669817
0.01227439464
0.0120777959
0.03381998915
0.03109612214
0.02946877131
0.0276307169
0.02660278157
0.0253257293
0.02467938352
0.02378046928
0.02338785461
0.02275293615
0.02253075735
0.02208243121
0.02197161377
0.02165262659
0.02160699181
0.02137094297
0.02135040508
0.02115573448
0.02112154019
0.02092736463
0.0208392466
0.02060290001
0.02041626691
0.02008916281
0.04719782619
0.04339659297
0.04112579015
0.03856076132
0.03712637344
0.03534424002
0.03444235914
0.03318786501
0.03264000371
0.03175393411
0.03144397992
0.03081830331
0.0306638147
0.03021859825
0.0301550685
0.02982552188
0.02979695461
0.02952510996
0.02947749441
0.02920640486
0.02908355177
0.02875357007
0.02849319711
0.02803664035
0.06042964134
0.05556272949
0.05265543622
0.04937130448
0.04753484256
0.04525308351
0.04409840192
0.04249215681
0.04179069166
0.04065616592
0.04025934749
0.03945821616
0.03926049126
0.03869038947
0.03860912252
0.03818707143
0.03815052999
0.03780234042
0.03774143279
0.03739427885
0.03723707316
0.03681449812
0.03648120222
0.03589660652
0.07346885264
0.06755184664
0.06401739206
0.06002468812
0.05779206321
0.05501800834
0.05361426068
0.05166143558
0.05080865339
0.04942933328
0.04894696268
0.04797296949
0.04773268177
0.04703954433
0.04694083829
0.04642765178
0.04638328476
0.04595986745
0.04588587835
0.04546375186
0.04527269294
0.0447588496
0.04435368408
0.04364291183
0.08627936456
0.07933061054
0.07517993514
0.07049102514
0.06786913086
0.0646113589
0.06296286211
0.06066948476
0.05966799037
0.05804812357
0.05748165578
0.05633779236
0.05605564658
0.05524159738
0.05512572015
0.05452297162
0.05447088567
0.05397355282
0.05388669734
0.05339092823
0.05316661214
0.05256312161
0.05208735504
0.05125261995
0.09881596094
0.09085759186
0.08610393369
0.08073376572
0.07773098084
0.0739998901
0.07211192909
0.06948533086
0.06833835231
0.06648312689
0.06583440614
0.06452434387
0.06420127874
0.06326893557
0.06313629426
0.06244592056
0.06238631206
0.0618166484
0.06171721884
0.06114936827
0.0608925107
0.06020127196
0.05965641324
0.05870036494
0.1110440808
0.1021008698
0.09675900903
0.09072428604
0.08734993077
0.08315711355
0.08103553194
0.07808386198
0.07679493243
0.07471009398
0.07398110022
0.07250888754
0.0721458686
0.07109810659
0.07094907545
0.0701732061
0.07010622914
0.0694660036
0.06935429072
0.06871613764
0.06842753045
0.06765071143
0.06703845619
0.06596407929
0.1229203956
0.1130207452
0.1071076641
0.1004275656
0.0966923832
0.09205117751
0.08970274584
0.08643540535
0.08500865467
0.08270085393
0.08189394107
0.08026428352
0.07986250353
0.07870267814
0.07853776923
0.07767888955
0.07760478971
0.07689604457
0.07677242692
0.07606599535
0.07574657172
0.07488663177
0.07420893336
0.07301963215
0.1344123617
0.1235871585
0.1171212886
0.1098166421
0.1057322598
0.1006571236
0.09808913678
0.09451629216
0.09295613594
0.09043254246
0.08955018966
0.08776813976
0.08732881214
0.08606051108
0.08588019915
0.08494096304
0.08485993599
0.08408486587
0.08394969913
0.08317718446
0.08282791445
0.08188753383
0.08114648859
0.07984598059
0.1454790272
0.1337625914
0.1267644491
0.1188584269
0.1144378197
0.1089448653
0.1061654964
0.1022985023
0.100609922
0.09787856738
0.09692360998
0.09499484998
0.09451940766
0.09314668401
0.09295158116
0.0919349947
0.09184733544
0.09100841974
0.09086216833
0.09002603638
0.08964806177
0.08863023127
0.08782821272
0.08642061386
0.1560903355
0.1435192734
0.1360107062
0.1275279958
0.1227849494
0.1168913162
0.1139092176
0.1097601278
0.1079483641
0.1050177499
0.1039931334
0.101923655
0.1014135428
0.09994065026
0.0997313245
0.09864053095
0.09854647261
0.09764630314
0.09748938283
0.09659222011
0.09618668042
0.09509456317
0.09423404756
0.09272376236
0.1662081708
0.1528222906
0.1448270931
0.1357945708
0.1307441311
0.1244685055
0.121293152
0.1168751339
0.1149459594
0.1118253986
0.1107344061
0.1085307977
0.1079876722
0.1064193111
0.106196468
0.105034956
0.1049348394
0.1039762985
0.1038092505
0.1028539267
0.1024221498
0.1012592226
0.1003429646
0.09873476815
0.1758053914
0.1616465576
0.1531897167
0.1436356167
0.1382935523
0.1316555372
0.1282968277
0.123623669
0.1215830812
0.1182822992
0.1171283036
0.11479742
0.1142229378
0.1125639748
0.1123282677
0.1110996328
0.1109937271
0.1099797775
0.1098030789
0.1087925502
0.1083358428
0.1071057228
0.1061365594
0.1044354888
0.1848471401
0.169960154
0.161068447
0.1510230146
0.1454062555
0.1384268784
0.1348954729
0.1299819898
0.1278364819
0.1243659571
0.1231526498
0.1207019034
0.1200979251
0.1183536475
0.1181058665
0.1168140327
0.1167027174
0.1156366012
0.1154508555
0.1143883483
0.1139081954
0.1126147914
0.1115958129
0.1098072421
0.1933095994
0.1777410491
0.1684422843
0.1579369422
0.1520630388
0.144764118
0.1410710349
0.135932574
0.1336888232
0.1300593817
0.1287905189
0.1262275411
0.1255959134
0.1237717412
0.1235126175
0.1221615911
0.122045171
0.1209301919
0.1207359389
0.1196247517
0.1191226213
0.1177699675
0.1167043445
0.1148338798
0.2011615438
0.184960664
0.175284266
0.1643522515
0.1582398072
0.1506444487
0.1468014009
0.1414542424
0.1391193824
0.1353425368
0.1340221726
0.1313551065
0.1306978706
0.1287996103
0.1285300074
0.1271240957
0.1270029814
0.1258426952
0.1256405872
0.1244842565
0.1239617654
0.1225541491
0.1214452641
0.1194988113
0.2083828339
0.1916003507
0.1815765985
0.1702521249
0.1639202499
0.1560522108
0.1520711964
0.1465320518
0.1441133542
0.1402008947
0.138833121
0.1360702795
0.1353894492
0.1334230073
0.1331437259
0.1316872975
0.1315618279
0.13035984
0.1301504759
0.1289526032
0.1284113642
0.1269531861
0.1258045034
0.1237881664
0.2149462134
0.1976351779
0.1872957766
0.1756146572
0.1690833958
0.1609675723
0.1568612106
0.1511476203
0.14865277
0.1446170991
0.1432062818
0.1403564353
0.1396542061
0.1376258345
0.1373377995
0.1358354902
0.1357060999
0.1344662356
0.1342503078
0.1330146966
0.1324564399
0.1309523146
0.1297674703
0.1276876137
0.2208355408
0.2030501732
0.192427488
0.1804262941
0.1737160741
0.1653778615
0.161158979
0.1552888081
0.1527255799
0.1485793034
0.1471298194
0.144201858
0.143480387
0.1413964043
0.1411004773
0.1395569624
0.1394240208
0.1381501398
0.1379282965
0.1366588018
0.1360852591
0.1345398934
0.1333225951
0.1311857423
0.2260278012
0.207824307
0.1969519267
0.1846685999
0.1778006559
0.1692664288
0.1649483932
0.1589402227
0.1563167558
0.1520730102
0.1505894808
0.1475926921
0.1468542997
0.1447213249
0.1444184792
0.1428386657
0.1427026262
0.1413987778
0.1411717462
0.1398723956
0.1392853952
0.1377036782
0.1364577766
0.1342706721
0.2305111181
0.2119465281
0.2008584961
0.1883315037
0.1813273232
0.1726237944
0.1682200985
0.1620927218
0.1594171967
0.1550892448
0.1535762782
0.1505200177
0.1497669784
0.1475916626
0.1472828108
0.1456716205
0.1455328778
0.1442031242
0.1439715904
0.1426464389
0.1420478038
0.1404346849
0.1391640783
0.136933582
0.2342669484
0.215399916
0.2041312839
0.1914002203
0.1842819624
0.1754366549
0.170961247
0.1647340526
0.1620149603
0.1576165077
0.1560789217
0.1529728774
0.1522076066
0.1499968527
0.1496830038
0.1480455545
0.1479045758
0.1465531417
0.1463178608
0.1449711125
0.1443627501
0.1427233337
0.1414320428
0.1391651948
0.2372878928
0.2181775394
0.2067635981
0.1938683408
0.1866582811
0.1776988877
0.1731657569
0.1668582292
0.1641040533
0.1596488522
0.1580914288
0.1549453036
0.154170165
0.1519308723
0.1516129787
0.1499543756
0.1498115751
0.1484426727
0.1482043588
0.1468402167
0.1462240165
0.1445634317
0.1432554954
0.1409594054
0.2395600401
0.220266736
0.2087435627
0.1957248638
0.1884458086
0.1794006562
0.1748241569
0.1684562496
0.1656757259
0.1611778797
0.1596055729
0.1564293341
0.155646808
0.1533860776
0.1530651716
0.1513906797
0.1512465335
0.1498645101
0.1496239372
0.1482467286
0.1476246532
0.1459481546
0.1446277121
0.1423096276
0.2410806397
0.2216648469
0.2100685333
0.1969671762
0.1896419075
0.1805393187
0.1759337593
0.1695254012
0.166727209
0.1622007853
0.1606184897
0.157422064
0.1566345729
0.154359464
0.1540365247
0.1523513672
0.1522063032
0.1508154678
0.1505733691
0.1491873927
0.1485613758
0.1468742091
0.145545391
0.1432125823
0.2418405157
0.2223635645
0.210730761
0.1975881455
0.1902398317
0.181108583
0.1764885446
0.1700600052
0.167253017
0.1627123411
0.1611250864
0.157918597
0.1571286566
0.1548463807
0.1545224532
0.1528319773
0.1526864759
0.1512912439
0.1510484036
0.1496580547
0.1490300884
0.1473375911
0.1460046018
0.1436644322
0.2418416647
0.2223645966
0.2107317405
0.1975890401
0.1902406815
0.1811093672
0.176489296
0.170060696
0.1672536756
0.1627129513
0.1611256809
0.1579191513
0.1571292096
0.154846895
0.1545229696
0.1528324496
0.1526869444
0.1512916668
0.151048826
0.1496584453
0.1490304828
0.1473379518
0.146004962
0.1436647711
0.2410796942
0.221664032
0.2100678885
0.1969666334
0.1896414706
0.1805389574
0.1759334799
0.1695251518
0.166726999
0.162200596
0.1606183546
0.1574219391
0.1566345191
0.1543593997
0.1540365247
0.1523513243
0.1522062977
0.1508154037
0.1505733498
0.149187346
0.148561386
0.146874175
0.1455454022
0.1432125766
0.2395613962
0.2202679881
0.2087448791
0.1957261123
0.1884470729
0.1794018644
0.1748253809
0.1684573819
0.1656768323
0.1611789094
0.1596066239
0.1564303141
0.1556478545
0.1533870353
0.1530661958
0.1513915721
0.1512474537
0.14986528
0.1496247493
0.148247449
0.1476254365
0.1459488257
0.1446284266
0.1423102829
0.2372871449
0.2181769359
0.2067632813
0.1938681433
0.1866582502
0.1776989426
0.1731659428
0.1668584155
0.1641042868
0.1596490799
0.1580917499
0.1549456063
0.1541706096
0.1519312584
0.1516134968
0.149954765
0.1498120372
0.1484429729
0.1482047496
0.1468405212
0.1462244397
0.1445637333
0.1432558875
0.1409597425
0.2342685121
0.2154013883
0.2041329353
0.1914018201
0.1842836376
0.1754382832
0.1709629386
0.1647356216
0.1620165091
0.1576179513
0.1560804223
0.1529742759
0.1522091374
0.1499982445
0.1496845246
0.1480468562
0.147905936
0.1465542473
0.1463190507
0.1449721508
0.1443639101
0.1427243038
0.1414331
0.1391661555
0.2305105595
0.2119461279
0.2008584965
0.1883316408
0.1813276863
0.1726242536
0.1682207367
0.1620933317
0.1594178619
0.1550898787
0.1535770448
0.1505207384
0.1497679114
0.1475924902
0.1472838383
0.1456724346
0.1455338007
0.1442037827
0.1439723856
0.1426470882
0.1420486325
0.1404353149
0.1391648429
0.1369342537
0.2260295704
0.2078259965
0.1969539067
0.1846705441
0.1778027333
0.1692684682
0.1649505419
0.1589422189
0.1563187373
0.1520748588
0.150591421
0.1475944996
0.1468563037
0.1447231403
0.1444204849
0.1428403663
0.1427044164
0.141400211
0.1411733064
0.139873745
0.1392869256
0.1377049431
0.1364591729
0.1342719356
0.220835161
0.2030499655
0.1924277911
0.1804267508
0.1737168139
0.1653787075
0.1611600502
0.1552898236
0.1527266581
0.1485803261
0.1471310125
0.1442029787
0.1434817883
0.1413976549
0.1411019938
0.1395581829
0.1394253858
0.1381511394
0.1379294782
0.1366597775
0.1360864731
0.1345408317
0.13332371
0.1311867276
0.2149481829
0.1976370785
0.1872980744
0.1756169341
0.1690858613
0.1609700085
0.1568638005
0.1511500293
0.14865517
0.14461934
0.1432086482
0.1403586399
0.1396566699
0.1376280618
0.1373402772
0.1358375795
0.1357083097
0.1344679888
0.1342522303
0.1330163501
0.1324583326
0.130953868
0.1297691985
0.127689174
0.2083826207
0.1916003231
0.1815771864
0.1702528826
0.1639213447
0.1560534216
0.1520726757
0.1465334493
0.1441148207
0.1402022825
0.1388347144
0.1360717751
0.13539129
0.1334246538
0.1331457013
0.1316888977
0.1315636073
0.1303611571
0.1301520196
0.1289538825
0.1284129397
0.1269544116
0.1258059467
0.1237894448
0.2011637053
0.1849627664
0.1752868661
0.1643548449
0.1582426416
0.1506472621
0.1468044101
0.1414570444
0.1391221814
0.1353451524
0.134024947
0.131357692
0.1307007758
0.1288022339
0.1285329397
0.12712656
0.1270055969
0.1258447574
0.1256428589
0.1244862007
0.1239640029
0.1225559748
0.1214473039
0.1195006493
0.1933095392
0.1777411874
0.168443136
0.157937979
0.1520644632
0.1447656674
0.1410728927
0.1359343256
0.133690649
0.1300611068
0.1287924814
0.1262293819
0.1255981586
0.1237737512
0.1235150149
0.1221635393
0.1220473317
0.1209317998
0.1207378175
0.1196263119
0.1191245359
0.1177714635
0.1167061003
0.1148354379
0.1848494821
0.1699624458
0.1610713296
0.1510259035
0.1454094339
0.1384300436
0.1348988732
0.1299851587
0.127839654
0.124368924
0.1231558072
0.1207048474
0.1201012465
0.1183566455
0.118109229
0.1168168526
0.1167057181
0.1156389573
0.1154534582
0.1143905658
0.1139107545
0.1126168676
0.111598137
0.1098093322
0.1758054696
0.1616468463
0.153190809
0.1436369082
0.1382952775
0.1316573958
0.1282990313
0.1236257437
0.1215852343
0.1182843312
0.1171306016
0.1147995737
0.1142255499
0.1125663135
0.1123310472
0.1111018948
0.1109962318
0.1099816472
0.1098052607
0.1087943655
0.1083380687
0.1071074687
0.1061386073
0.1044373092
0.1662106788
0.1528247562
0.1448302339
0.1357977294
0.1307476232
0.1244719914
0.1212969087
0.1168786373
0.1149494718
0.1118286862
0.1107379136
0.1085340702
0.1079913755
0.1064226538
0.1062002273
0.1050381057
0.1049381983
0.1039789303
0.1038121641
0.1028564025
0.1024250116
0.1012615358
0.1003455559
0.09873709571
0.1560905368
0.1435196962
0.1360120137
0.1275295153
0.1227869445
0.1168934523
0.1139117316
0.1097624925
0.1079508112
0.1050200571
0.1039957324
0.1019260887
0.1014164832
0.09994328228
0.09973444467
0.0986430714
0.09854928185
0.09764840205
0.09749182927
0.09659425576
0.09618917599
0.09509652319
0.09423634749
0.09272580859
0.1454816838
0.1337652123
0.1267678198
0.1188618254
0.1144415904
0.1089486358
0.1061695691
0.102302302
0.1006137356
0.09788213875
0.09692742738
0.09499841349
0.09452344979
0.09315033356
0.09295569459
0.09193844112
0.09185101839
0.09101130581
0.09086537073
0.09002875886
0.0896512139
0.08863278005
0.08783106995
0.086423181
0.1344126702
0.1235876982
0.1171227844
0.1098183613
0.1057344915
0.100659503
0.09809192365
0.09451891178
0.09295884217
0.09043509204
0.0895530544
0.08777082032
0.08733204231
0.08606340101
0.08588361871
0.08494374655
0.08486300947
0.08408716029
0.08395236772
0.0831793996
0.08283062666
0.08188965843
0.08114898182
0.07984819729
0.1229231809
0.1130235004
0.1071112331
0.1004311705
0.09669639324
0.09205519196
0.08970708906
0.08643945822
0.08501272521
0.08270466708
0.0818980225
0.08026809492
0.07986683483
0.07870659001
0.07854218632
0.07768259199
0.07760875384
0.07689915602
0.07677588796
0.07606894693
0.07574999625
0.07488941198
0.07421205365
0.07302244034
0.11104448
0.1021015087
0.09676066464
0.09072617485
0.08735236381
0.08315970009
0.08103855163
0.07808669934
0.07679786086
0.0747128516
0.07398419369
0.07251178051
0.07214934823
0.07110121835
0.07095275241
0.07017619805
0.07010952829
0.06946846295
0.06935714291
0.0687184961
0.06843041035
0.06765295548
0.06704108668
0.06596641364
0.09881885342
0.09086045855
0.08610766658
0.08073754098
0.07773518789
0.07400410487
0.07211649405
0.06948959061
0.06834263242
0.06648713663
0.06583870228
0.06452835646
0.06420584536
0.06327306066
0.06314095894
0.06244983165
0.06239050598
0.06181994525
0.06172089364
0.06115251345
0.0608961669
0.06020425486
0.05965976564
0.05870338773
0.08627983744
0.07933132987
0.07518172037
0.07049305164
0.06787172777
0.06461411415
0.0629660719
0.06067250018
0.05967110125
0.05805105227
0.05748493766
0.05634086063
0.05605933186
0.05524489266
0.05512960984
0.05452613731
0.05447437312
0.05397615208
0.05388970336
0.05339340787
0.05316962873
0.05256546263
0.05209009235
0.05125504511
0.07347182936
0.06755480083
0.06402125279
0.06002859577
0.05779642284
0.05502237774
0.05361899636
0.05166585399
0.05081309384
0.0494334929
0.04895142257
0.04797713508
0.04773742787
0.04704383144
0.04694569153
0.04643172025
0.04638765125
0.04596330075
0.0458897087
0.0454670363
0.04527651437
0.044761976
0.04435720087
0.04364608585
0.06043016977
0.05556350957
0.05265731928
0.04937343503
0.04753756366
0.04525596673
0.04410175624
0.04249530792
0.04179394199
0.04065922569
0.04026277349
0.03946141904
0.03926433361
0.03869382613
0.03861317535
0.03819037336
0.03815416568
0.0378050561
0.03774456683
0.03739686767
0.03724020968
0.03681693395
0.03648404031
0.03589912111
0.04720086372
0.04339961008
0.04112974163
0.03856476242
0.03713084009
0.0353487173
0.03444721339
0.03319239307
0.03264455453
0.03175819651
0.03144855201
0.03082257359
0.03066868384
0.03022299628
0.03016005079
0.02982969695
0.02980143649
0.02952863084
0.02948142085
0.02920977112
0.02908746596
0.02875677289
0.02849679945
0.02803989124
0.033820554
0.03109694219
0.02947071879
0.02763291613
0.02660558508
0.02532869756
0.02468283418
0.02378371116
0.02339119838
0.02275608409
0.02253427957
0.02208572449
0.02197556006
0.02165615795
0.02161115216
0.0213743376
0.02135414113
0.02115853571
0.02112476809
0.02093004363
0.0208424791
0.02060542331
0.02041919461
0.02009176111
0.02033632694
0.01869865162
0.01772100741
0.01661596157
0.01599832195
0.01523053207
0.01484224228
0.01430152344
0.01406549562
0.01368352621
0.01355020111
0.01328040285
0.01321426522
0.0130220902
0.0129951297
0.01285254653
0.01284044846
0.01272261758
0.01270238182
0.01258517158
0.01253261954
0.0123899327
0.01227802909
0.01208107505
0.006785619812
0.006239308347
0.00591350338
0.005544894373
0.0053390235
0.00508290336
0.004953509591
0.004773019094
0.004694295611
0.004566770187
0.004522402335
0.004432287054
0.004410428246
0.004346147393
0.004337351116
0.004289500934
0.004285567774
0.004245926367
0.004239304959
0.004200006961
0.00418263776
0.00413478743
0.004097565724
0.004031737274
-0.006783940784
-0.006237444603
-0.005910570501
-0.005541787028
-0.005335377007
-0.005079179068
-0.004949372031
-0.00476918991
-0.004690439123
-0.004563216715
-0.004518546088
-0.004428771579
-0.004406325752
-0.004342571697
-0.004333208597
-0.004286227957
-0.00428201208
-0.004243386057
-0.004236392912
-0.004197688316
-0.004179825587
-0.004132709172
-0.004095134945
-0.004029656742
-0.02033465286
-0.01869679303
-0.01771808161
-0.01661286082
-0.01599468191
-0.0152268133
-0.01483810986
-0.01429769752
-0.01406164159
-0.01367997397
-0.01354634743
-0.01327688943
-0.01321016849
-0.01301851998
-0.01299099776
-0.01284928314
-0.01283690685
-0.01272008784
-0.01269948211
-0.01258285965
-0.01252981539
-0.01238785644
-0.01227560354
-0.01207899761
-0.03381888658
-0.03109509212
-0.0294678104
-0.02762983581
-0.02660197199
-0.02532500846
-0.02467873717
-0.02377992019
-0.02338738143
-0.02275256702
-0.02253046284
-0.02208224417
-0.02197149768
-0.02165261563
-0.02160704722
-0.02137109252
-0.02135061648
-0.02115601823
-0.02112188425
-0.02092775067
-0.02083969684
-0.02060336826
-0.02041678772
-0.02008969949
-0.04719921231
-0.04339777648
-0.0411268554
-0.03856170281
-0.03712724728
-0.03534504572
-0.03444313269
-0.03318861271
-0.03264074559
-0.03175468357
-0.03144474312
-0.03081909921
-0.03066463829
-0.03021946937
-0.03015597631
-0.02982647852
-0.02979795202
-0.02952614254
-0.02947857208
-0.02920749498
-0.02908470212
-0.02875471477
-0.02849439412
-0.02803782365
-0.06042852935
-0.05556169069
-0.05265446521
-0.04937041353
-0.04753402168
-0.04525235141
-0.04409774322