/*--------------------------------*- C++ -*----------------------------------*\
| =========                 |                                                 |
| \\      /  F ield         | foam-extend: Open Source CFD                    |
|  \\    /   O peration     | Version:  3.0                                   |
|   \\  /    A nd           | Web:         http://www.extend-project.de       |
|    \\/     M anipulation  |                                                 |
\*---------------------------------------------------------------------------*/
FoamFile
{
    version     2.0;
    format      ascii;
    class       volVectorField;
    location    "26";
    object      u;
}
// * * * * * * * * * * * * * * * * * * * * * * * * * * * * * * * * * * * * * //

dimensions      [0 0 0 0 0 0 0];

internalField   nonuniform List<vector> 
7680
(
(0.107357 -0.0350384 3.47796e-17)
(0.168732 -0.030024 3.80924e-17)
(0.321899 -0.0282743 -2.56808e-17)
(0.361868 -0.0243922 2.51199e-17)
(0.476699 -0.0232614 -8.32437e-18)
(0.50309 -0.0204456 1.35069e-17)
(0.592017 -0.0196006 -2.94257e-18)
(0.608815 -0.0175632 -1.01742e-17)
(0.67991 -0.016912 -1.45062e-17)
(0.689696 -0.0154032 -1.4676e-17)
(0.748098 -0.0149125 -1.07363e-17)
(0.752701 -0.0137723 1.65924e-17)
(0.80179 -0.0134084 -2.38262e-17)
(0.802493 -0.0125441 1.53161e-17)
(0.844603 -0.0122713 -4.9772e-18)
(0.842285 -0.0116248 2.83208e-17)
(0.879094 -0.0114125 -2.52704e-17)
(0.874351 -0.0109423 4.23165e-17)
(0.907103 -0.0107676 -2.46543e-17)
(0.900337 -0.0104417 2.4951e-17)
(0.929974 -0.0102887 -2.54145e-17)
(0.921452 -0.0100822 2.42951e-17)
(0.948705 -0.00994017 -2.18664e-17)
(0.938601 -0.00983352 3.84159e-17)
(0.964046 -0.00969537 -2.97884e-17)
(0.952464 -0.00967408 2.89224e-17)
(0.976568 -0.00953385 -1.22122e-17)
(0.963559 -0.009589 1.97911e-17)
(0.986708 -0.00943763 -1.49234e-17)
(0.972273 -0.00957053 7.61566e-18)
(0.994818 -0.00938608 -7.09881e-18)
(0.978879 -0.00962013 4.69904e-18)
(1.00121 -0.00935042 -6.51603e-18)
(0.983519 -0.00974727 2.99001e-18)
(1.00622 -0.00932172 4.85145e-18)
(0.98622 -0.00983274 -3.14818e-18)
(1.01013 -0.00965122 1.06341e-17)
(0.98705 -0.00950604 -1.25554e-17)
(1.01293 -0.00820299 1.11065e-17)
(0.986618 -0.0208469 -1.45684e-17)
(0.111753 -0.100584 -4.8236e-17)
(0.172397 -0.0851647 -6.2489e-17)
(0.325367 -0.0796267 2.12669e-17)
(0.364793 -0.0678179 -3.15025e-17)
(0.479482 -0.0640269 -2.03171e-17)
(0.505482 -0.0553883 6.07859e-18)
(0.594293 -0.0524246 5.74399e-18)
(0.610806 -0.0460847 3.02743e-17)
(0.681805 -0.0437145 4.30456e-17)
(0.691375 -0.0389475 4.5273e-17)
(0.749699 -0.037065 1.04286e-17)
(0.754134 -0.0333942 4.50993e-19)
(0.803159 -0.031891 1.60689e-17)
(0.803731 -0.029024 6.11307e-19)
(0.845785 -0.0277959 -2.87892e-17)
(0.843366 -0.0255477 -3.08447e-17)
(0.880125 -0.0245082 3.78242e-17)
(0.875304 -0.0227534 -7.91026e-17)
(0.908009 -0.0218353 6.23708e-17)
(0.901184 -0.0204841 -6.51906e-17)
(0.930778 -0.0196369 4.49616e-17)
(0.922212 -0.0186222 -5.07217e-17)
(0.949423 -0.0178082 3.51794e-17)
(0.939286 -0.0170785 -7.38622e-17)
(0.964692 -0.0162695 3.88519e-17)
(0.953086 -0.0157857 -4.27228e-17)
(0.977151 -0.0149582 3.08362e-18)
(0.964125 -0.0146943 -2.44611e-17)
(0.987236 -0.0138197 -9.83064e-19)
(0.972792 -0.0137743 1.40026e-18)
(0.995295 -0.0127935 1.47108e-18)
(0.979359 -0.0130262 4.68209e-18)
(1.00164 -0.0117962 8.06768e-18)
(0.98397 -0.0124812 -1.10138e-17)
(1.0066 -0.010765 3.78319e-18)
(0.986646 -0.0120161 -1.52182e-17)
(1.01047 -0.0100826 2.37583e-17)
(0.987438 -0.0111201 -4.53069e-18)
(1.01319 -0.0078142 -6.01401e-18)
(0.987336 -0.0215918 3.60861e-17)
(0.120362 -0.165714 5.90768e-17)
(0.179733 -0.14004 5.49959e-17)
(0.332152 -0.130609 -4.83235e-17)
(0.370574 -0.110946 8.1636e-17)
(0.48489 -0.104491 8.52608e-18)
(0.510145 -0.0900759 -2.12426e-17)
(0.598668 -0.0850307 -3.93172e-17)
(0.614632 -0.0744255 -1.84626e-17)
(0.685401 -0.0703683 -8.12978e-17)
(0.694557 -0.0623572 -6.98716e-17)
(0.752698 -0.0591069 -1.92891e-17)
(0.756813 -0.0529021 -8.12672e-18)
(0.805689 -0.0502779 -6.7853e-18)
(0.806011 -0.0454054 -1.43494e-17)
(0.847942 -0.0432315 6.70865e-17)
(0.845325 -0.0393895 4.97375e-17)
(0.881979 -0.0375217 -3.92967e-17)
(0.877002 -0.0345005 1.1347e-16)
(0.909614 -0.0328299 -1.04422e-16)
(0.902666 -0.0304762 8.3493e-17)
(0.932174 -0.0289222 -5.29047e-17)
(0.923513 -0.0271205 8.55717e-17)
(0.950642 -0.0256229 -6.48971e-17)
(0.940433 -0.024286 1.13162e-16)
(0.965758 -0.0227986 -4.04683e-17)
(0.954099 -0.0218608 7.96445e-17)
(0.978081 -0.0203445 -1.35014e-17)
(0.965022 -0.0197627 4.32775e-17)
(0.988044 -0.0181702 5.59629e-18)
(0.973587 -0.0179417 -2.87887e-18)
(0.995991 -0.016176 -5.62032e-18)
(0.980065 -0.0163984 9.81145e-18)
(1.00223 -0.0142248 -5.41761e-18)
(0.984604 -0.0151856 5.68286e-18)
(1.00707 -0.0121988 -1.47388e-18)
(0.987221 -0.0141746 -6.35858e-18)
(1.01084 -0.0105098 3.82185e-18)
(0.987937 -0.012714 -1.52011e-17)
(1.01341 -0.00742612 1.73768e-17)
(0.988108 -0.0223073 -2.81176e-17)
(0.133286 -0.230132 -3.83605e-17)
(0.190558 -0.194246 -1.13899e-16)
(0.342277 -0.181066 1.94255e-16)
(0.379132 -0.153622 -2.25149e-16)
(0.492959 -0.144543 4.80626e-17)
(0.517072 -0.12441 3.55577e-17)
(0.605207 -0.117278 6.79328e-17)
(0.620327 -0.102448 3.24045e-17)
(0.690779 -0.0966991 3.85431e-17)
(0.699295 -0.0854882 5.55666e-17)
(0.75718 -0.0808689 7.69628e-17)
(0.760797 -0.0721789 -2.39526e-17)
(0.809464 -0.0684336 4.5182e-18)
(0.809391 -0.0615947 1.92107e-17)
(0.851149 -0.0584802 -8.80767e-17)
(0.848217 -0.0530656 5.93127e-18)
(0.884719 -0.0503829 -1.19264e-17)
(0.879492 -0.0461008 -1.11856e-16)
(0.911967 -0.0436975 1.36142e-16)
(0.904821 -0.0403372 -1.15576e-16)
(0.934199 -0.0380992 6.30332e-17)
(0.925384 -0.0355035 -1.07946e-16)
(0.952386 -0.0333445 6.68857e-17)
(0.942061 -0.0313946 -8.14667e-17)
(0.967259 -0.0292478 -1.251e-17)
(0.955517 -0.0278541 -5.62855e-17)
(0.979369 -0.0256629 -2.37172e-17)
(0.966254 -0.0247654 -1.60032e-17)
(0.989141 -0.0224631 -3.57875e-17)
(0.974655 -0.0220571 2.0674e-17)
(0.996912 -0.0195096 9.56285e-18)
(0.980991 -0.0197287 -1.26829e-17)
(1.00297 -0.0166117 -3.63434e-17)
(0.985413 -0.0178546 9.98256e-17)
(1.00763 -0.0135988 -7.22607e-17)
(0.987933 -0.016302 3.70347e-17)
(1.01123 -0.0109132 2.9931e-17)
(0.988536 -0.0142818 -2.59073e-17)
(1.01361 -0.00702605 1.47839e-17)
(0.988922 -0.0229947 -1.99425e-17)
(0.15032 -0.293581 2.0942e-17)
(0.20499 -0.247686 3.56413e-17)
(0.355669 -0.230741 -3.31683e-16)
(0.390496 -0.195636 3.32907e-16)
(0.503609 -0.18397 -5.66437e-17)
(0.526225 -0.158204 -1.0324e-16)
(0.613802 -0.149047 -1.12723e-16)
(0.627819 -0.130057 -5.46862e-19)
(0.697824 -0.122665 -1.26494e-17)
(0.705506 -0.10829 -3.51608e-17)
(0.763029 -0.102338 -9.19941e-17)
(0.766 -0.0911775 7.32348e-18)
(0.814372 -0.0863403 5.5978e-17)
(0.813791 -0.0775454 -4.59994e-17)
(0.855299 -0.0735101 1.14237e-16)
(0.851966 -0.0665402 -8.29918e-17)
(0.888252 -0.0630517 7.34391e-17)
(0.882708 -0.0575329 1.29671e-17)
(0.914987 -0.054398 -3.65838e-17)
(0.907593 -0.050058 3.21152e-17)
(0.93679 -0.0471327 2.28118e-17)
(0.927781 -0.0437682 1.21162e-16)
(0.954611 -0.0409438 -6.70604e-17)
(0.944138 -0.0384011 4.94616e-17)
(0.969165 -0.0355933 5.19469e-17)
(0.957314 -0.0337572 5.74471e-17)
(0.980994 -0.0308941 3.05513e-18)
(0.967806 -0.0296877 1.24906e-17)
(0.990512 -0.0266846 8.82061e-17)
(0.975988 -0.0261012 -3.42786e-17)
(0.998044 -0.0227875 2.42243e-17)
(0.982133 -0.0229974 1.96476e-17)
(1.00387 -0.0189596 -4.95373e-17)
(0.986397 -0.0204715 3.37979e-17)
(1.00829 -0.0149767 -5.72072e-18)
(0.988787 -0.0183857 -2.28946e-17)
(1.01165 -0.0113084 -1.08588e-17)
(0.989242 -0.0158148 -3.12516e-17)
(1.01378 -0.00662934 3.15287e-17)
(0.989787 -0.0236458 3.52302e-17)
(0.171541 -0.355769 2.23828e-17)
(0.222809 -0.300033 9.32837e-17)
(0.372286 -0.279442 3.7055e-16)
(0.404551 -0.236831 -2.68014e-16)
(0.516831 -0.222622 3.47137e-17)
(0.537573 -0.19134 1.34984e-16)
(0.624491 -0.180165 1.66175e-16)
(0.637123 -0.157101 -4.21232e-17)
(0.706593 -0.148075 -1.95762e-17)
(0.713223 -0.130613 1.37297e-17)
(0.770313 -0.123339 2.28585e-16)
(0.772464 -0.109779 -1.00583e-16)
(0.820485 -0.103859 6.11256e-17)
(0.819254 -0.0931661 -9.33162e-17)
(0.860469 -0.0882216 -4.89311e-17)
(0.856618 -0.0797346 -6.29186e-17)
(0.89265 -0.0754575 1.28055e-16)
(0.886692 -0.0687231 -1.14563e-16)
(0.918742 -0.0648787 1.1306e-16)
(0.911019 -0.059569 -5.00807e-17)
(0.94 -0.055981 -3.51675e-18)
(0.930735 -0.0518519 -1.39438e-16)
(0.957354 -0.0483868 3.73627e-17)
(0.946685 -0.0452534 2.84959e-17)
(0.971501 -0.0418075 -1.21992e-16)
(0.959506 -0.0395309 2.12205e-17)
(0.98297 -0.0360155 -5.05459e-17)
(0.969685 -0.034503 -7.54547e-18)
(0.992164 -0.0308146 -1.02055e-16)
(0.977588 -0.0300579 -1.22501e-17)
(0.999397 -0.0259899 -9.67379e-17)
(0.983489 -0.0261945 4.76376e-17)
(1.00493 -0.0212467 -8.10057e-17)
(0.987551 -0.0230293 8.21899e-17)
(1.00904 -0.0163097 -1.49792e-16)
(0.989774 -0.0204203 7.42872e-17)
(1.0121 -0.011677 2.81209e-17)
(0.990043 -0.0173098 -4.32642e-17)
(1.01394 -0.00622455 -1.9621e-17)
(0.990692 -0.0242639 -2.81891e-17)
(0.196719 -0.416451 -1.11851e-17)
(0.244081 -0.351124 -2.14651e-16)
(0.392056 -0.326955 -2.42055e-16)
(0.421304 -0.277012 1.08494e-16)
(0.532546 -0.260335 2.86736e-18)
(0.551065 -0.223663 6.62524e-18)
(0.637168 -0.210551 -1.86984e-16)
(0.648163 -0.183503 1.07851e-16)
(0.716973 -0.172905 5.5207e-17)
(0.722365 -0.152415 -9.41747e-17)
(0.778922 -0.143866 -1.98056e-16)
(0.780112 -0.127942 4.49852e-17)
(0.827695 -0.120978 3.39635e-17)
(0.825708 -0.108413 1.59534e-16)
(0.866553 -0.102588 3.61086e-17)
(0.862102 -0.0926113 -1.72178e-18)
(0.897812 -0.0875646 -5.6774e-17)
(0.891379 -0.0796446 -4.71315e-18)
(0.923139 -0.0751017 -7.30002e-17)
(0.915041 -0.0688519 -1.28103e-17)
(0.943753 -0.064608 -2.05107e-17)
(0.934194 -0.0597406 5.89901e-17)
(0.960555 -0.0556404 2.95341e-17)
(0.949661 -0.051938 -3.73519e-17)
(0.974222 -0.0478604 7.25091e-17)
(0.962062 -0.04516 -7.26577e-17)
(0.985266 -0.0410016 9.6015e-17)
(0.971868 -0.0391938 -6.82521e-17)
(0.994076 -0.0348343 1.98213e-16)
(0.979441 -0.0339086 -4.2063e-17)
(1.00095 -0.0291066 2.40827e-16)
(0.985051 -0.0293029 -5.80504e-17)
(1.00613 -0.023473 3.93495e-17)
(0.988871 -0.0255132 8.31264e-18)
(1.00987 -0.017607 7.81737e-17)
(0.990897 -0.022393 -5.06062e-17)
(1.01257 -0.0120327 3.53506e-17)
(0.990947 -0.0187553 -6.56697e-17)
(1.01406 -0.00582566 1.70197e-16)
(0.991645 -0.0248383 -2.93678e-17)
(0.225867 -0.475346 1.15018e-16)
(0.268595 -0.400714 7.2411e-17)
(0.414884 -0.37307 2.95242e-16)
(0.440618 -0.316021 9.94075e-17)
(0.550696 -0.29693 -4.64521e-17)
(0.566637 -0.255035 -2.43175e-16)
(0.651822 -0.240012 1.92656e-16)
(0.660912 -0.209108 -2.13651e-16)
(0.728979 -0.196962 2.2599e-17)
(0.732923 -0.173549 -2.06948e-17)
(0.788881 -0.163748 2.50592e-16)
(0.788943 -0.145552 -2.70214e-16)
(0.836037 -0.137561 9.39091e-17)
(0.833157 -0.123198 -3.25346e-16)
(0.873595 -0.116511 3.90967e-17)
(0.868431 -0.105098 -8.65493e-17)
(0.903788 -0.099303 1.29085e-16)
(0.896786 -0.0902331 -1.21656e-16)
(0.928227 -0.0850161 1.28524e-16)
(0.919679 -0.0778499 1.53061e-17)
(0.94809 -0.0729759 -2.71535e-17)
(0.938178 -0.0673862 -2.77511e-18)
(0.964247 -0.0626768 -4.98961e-17)
(0.953083 -0.0584162 8.43146e-17)
(0.977351 -0.0537323 -4.5647e-17)
(0.964992 -0.0506148 8.2607e-18)
(0.987898 -0.0458376 -5.5049e-17)
(0.974363 -0.0437389 9.56999e-17)
(0.996259 -0.0387301 -3.19343e-16)
(0.981548 -0.0376387 1.28704e-17)
(1.00271 -0.0321225 -1.90791e-16)
(0.986818 -0.0323122 3.59474e-17)
(1.00748 -0.0256208 2.79811e-17)
(0.990354 -0.0279159 -3.70432e-17)
(1.01079 -0.01885 -4.64305e-17)
(0.992147 -0.0242997 6.18033e-17)
(1.01307 -0.0123599 3.5052e-17)
(0.991942 -0.0201512 -2.96839e-17)
(1.01416 -0.00542248 -1.18241e-18)
(0.992634 -0.0253751 -1.83574e-16)
(0.25876 -0.532223 -1.14093e-16)
(0.296342 -0.448585 -1.05448e-16)
(0.440691 -0.417605 -2.56827e-16)
(0.462473 -0.353682 -4.83354e-16)
(0.571205 -0.332281 -1.39325e-17)
(0.58424 -0.285331 4.15919e-16)
(0.668365 -0.268492 -1.30141e-16)
(0.675312 -0.233851 2.62412e-16)
(0.742521 -0.220231 7.10106e-17)
(0.744842 -0.193977 -1.17136e-16)
(0.800105 -0.18298 -6.65049e-17)
(0.798906 -0.162567 2.19069e-16)
(0.84543 -0.153597 -8.09862e-18)
(0.841556 -0.137478 2.42793e-16)
(0.881512 -0.129967 1.79755e-16)
(0.87556 -0.117156 -1.03308e-16)
(0.910497 -0.11064 1.33126e-16)
(0.902869 -0.100456 -7.67694e-17)
(0.933931 -0.0945861 8.92906e-17)
(0.924886 -0.0865359 -3.22718e-17)
(0.952945 -0.0810484 -2.39379e-17)
(0.942645 -0.0747641 4.4638e-17)
(0.968374 -0.0694604 -5.64663e-17)
(0.956912 -0.0646646 -3.54497e-17)
(0.980845 -0.0593891 2.10718e-17)
(0.968266 -0.0558734 2.50027e-17)
(0.99083 -0.0504934 -7.61525e-17)
(0.977146 -0.0481177 2.52671e-16)
(0.998683 -0.0424791 2.31114e-18)
(0.983892 -0.0412294 1.87757e-16)
(1.00467 -0.035024 4.76245e-17)
(0.988777 -0.0352061 -4.67717e-17)
(1.00897 -0.0276865 3.57838e-17)
(0.991993 -0.0302231 -6.77811e-17)
(1.01179 -0.0200435 4.06323e-17)
(0.993523 -0.0261268 -4.56307e-17)
(1.01359 -0.012669 1.78139e-17)
(0.993032 -0.0214841 -1.72519e-16)
(1.01424 -0.00502747 3.17149e-16)
(0.993666 -0.0258618 -1.09188e-16)
(0.29534 -0.586817 3.79205e-16)
(0.327132 -0.494564 1.4349e-16)
(0.469346 -0.460348 3.74988e-16)
(0.486717 -0.389837 7.25237e-16)
(0.593976 -0.366193 2.25684e-16)
(0.603773 -0.314404 -4.53477e-16)
(0.686737 -0.295792 5.0265e-17)
(0.691291 -0.257578 -3.51736e-16)
(0.757561 -0.242523 -1.79964e-16)
(0.758066 -0.213562 2.99582e-16)
(0.812569 -0.201403 2.15075e-17)
(0.809957 -0.178883 -1.31539e-16)
(0.855862 -0.168961 7.93367e-17)
(0.850867 -0.151175 -3.3253e-16)
(0.890307 -0.142864 -6.10238e-17)
(0.883461 -0.128721 1.52345e-17)
(0.91795 -0.12151 -1.26581e-16)
(0.909609 -0.110262 -3.34442e-17)
(0.940267 -0.103764 -6.49753e-17)
(0.930657 -0.0948657 5.34629e-17)
(0.958335 -0.0887919 5.02319e-17)
(0.947593 -0.0818392 1.33725e-17)
(0.972953 -0.0759688 3.87279e-17)
(0.961152 -0.0706561 8.92052e-17)
(0.984716 -0.064817 -1.65625e-16)
(0.971886 -0.0609146 2.44326e-16)
(0.994074 -0.0549599 -1.42089e-16)
(0.980217 -0.0523139 -7.3559e-18)
(1.00136 -0.0460729 -2.48963e-16)
(0.986473 -0.0446683 1.18481e-16)
(1.00681 -0.037801 -1.86234e-16)
(0.990927 -0.0379754 2.00566e-16)
(1.01059 -0.0296576 -2.43095e-16)
(0.993782 -0.032429 3.18804e-16)
(1.01287 -0.0211743 -2.70091e-16)
(0.995017 -0.027872 1.83791e-16)
(1.01414 -0.0129483 -9.55746e-17)
(0.994207 -0.0227559 5.51233e-17)
(1.01429 -0.00463203 -5.42926e-17)
(0.994731 -0.026306 -2.39228e-16)
(0.335384 -0.638915 -7.35922e-16)
(0.360883 -0.538403 -4.07942e-16)
(0.500743 -0.50114 -3.06176e-16)
(0.5133 -0.424331 -8.75126e-16)
(0.618925 -0.398575 -2.68289e-16)
(0.625183 -0.342153 2.45015e-16)
(0.70686 -0.321876 -2.99885e-17)
(0.708803 -0.280236 4.49156e-16)
(0.77403 -0.26383 2.79485e-16)
(0.772557 -0.232264 -3.35203e-16)
(0.826215 -0.21901 -1.15658e-16)
(0.822063 -0.194458 -7.82693e-17)
(0.867276 -0.183639 6.76206e-18)
(0.861067 -0.164244 1.22947e-16)
(0.899922 -0.155177 9.61648e-17)
(0.892112 -0.139753 -1.28497e-17)
(0.926091 -0.131883 1.55481e-16)
(0.916983 -0.119612 3.10785e-17)
(0.947181 -0.112517 2.15282e-16)
(0.936963 -0.102807 -2.1825e-16)
(0.964212 -0.0961715 1.481e-17)
(0.952993 -0.0885806 -8.26079e-17)
(0.977939 -0.0821664 -4.06973e-17)
(0.965772 -0.0763618 -8.05859e-18)
(0.988926 -0.0699811 -1.14425e-16)
(0.975825 -0.0657126 9.61074e-17)
(0.997595 -0.0592056 -2.11631e-16)
(0.983553 -0.0563051 3.29409e-16)
(1.00426 -0.0494865 -1.46755e-16)
(0.989272 -0.0479367 -1.44807e-17)
(1.00913 -0.0404368 2.97945e-17)
(0.993254 -0.0406044 -1.59543e-18)
(1.01234 -0.0315264 -3.87873e-17)
(0.995715 -0.0345192 1.77253e-17)
(1.01403 -0.0222429 -3.08383e-17)
(0.996626 -0.0295214 4.16943e-17)
(1.0147 -0.0132046 6.7662e-17)
(0.995468 -0.0239526 -1.31822e-16)
(1.01432 -0.0042467 2.87319e-16)
(0.995833 -0.0266947 -4.19927e-17)
(0.378774 -0.688274 6.33966e-16)
(0.397419 -0.579977 4.00013e-16)
(0.534738 -0.53978 2.77253e-16)
(0.542062 -0.457016 7.04029e-16)
(0.645932 -0.429227 1.33103e-16)
(0.648345 -0.36843 1.71115e-16)
(0.72864 -0.34655 -9.45926e-17)
(0.727744 -0.301682 -2.2635e-16)
(0.791852 -0.283977 -3.7819e-16)
(0.788223 -0.249964 3.51602e-16)
(0.840978 -0.235658 -1.21212e-17)
(0.835149 -0.209202 3.74603e-16)
(0.879624 -0.197521 -6.77995e-17)
(0.872086 -0.176619 4.74647e-17)
(0.910324 -0.166827 5.23846e-17)
(0.901455 -0.150199 7.63817e-17)
(0.934898 -0.141698 -2.03334e-16)
(0.924945 -0.128465 3.43512e-17)
(0.95466 -0.120801 -1.88117e-16)
(0.943772 -0.110324 2.98822e-16)
(0.970567 -0.103157 -6.59867e-17)
(0.958823 -0.0949625 6.96589e-17)
(0.98333 -0.0880339 4.5662e-17)
(0.970759 -0.0817626 1.80045e-16)
(0.993475 -0.0748705 -1.72675e-16)
(0.980076 -0.0702527 1.96578e-16)
(1.0014 -0.0632248 -1.26706e-16)
(0.98715 -0.0600794 3.36775e-18)
(1.00739 -0.0527157 -1.15986e-16)
(0.992286 -0.0510247 1.77484e-16)
(1.01163 -0.0429264 -1.29547e-16)
(0.995753 -0.0430855 1.4712e-17)
(1.01422 -0.033286 1.78886e-17)
(0.997784 -0.0364895 1.8136e-16)
(1.01525 -0.0232411 -2.93428e-16)
(0.998342 -0.0310742 1.76581e-16)
(1.01528 -0.01343 -1.49963e-16)
(0.996806 -0.0250773 9.54096e-17)
(1.01433 -0.00386475 -2.42177e-16)
(0.996964 -0.0270358 -1.35396e-16)
(0.425279 -0.734701 -9.55746e-17)
(0.436602 -0.619038 -1.86872e-16)
(0.571188 -0.576132 -2.37782e-16)
(0.572918 -0.487752 -4.28694e-16)
(0.674894 -0.458084 -2.78604e-16)
(0.673197 -0.393154 -3.7599e-16)
(0.751998 -0.369791 1.10075e-16)
(0.748067 -0.321867 1.30896e-16)
(0.810965 -0.302958 9.72667e-17)
(0.805036 -0.266621 1.45e-17)
(0.856811 -0.251339 -6.14001e-17)
(0.84919 -0.22307 -4.6017e-16)
(0.892862 -0.21059 -5.5115e-17)
(0.88391 -0.188252 -2.84261e-16)
(0.921472 -0.177787 -5.94333e-17)
(0.911478 -0.160016 -3.2518e-16)
(0.944333 -0.150927 2.8794e-16)
(0.933484 -0.136782 -2.80155e-16)
(0.962666 -0.128585 2.54125e-16)
(0.951068 -0.117384 -4.52456e-16)
(0.977366 -0.109717 1.25277e-16)
(0.965065 -0.100952 -1.10973e-16)
(0.989091 -0.0935392 -6.73263e-17)
(0.976092 -0.0868277 -5.0014e-18)
(0.998331 -0.0794532 -8.47505e-17)
(0.984615 -0.0745076 2.5081e-16)
(1.00545 -0.0669873 -1.96585e-16)
(0.990986 -0.0636142 1.98789e-16)
(1.01072 -0.0557348 4.95264e-17)
(0.995494 -0.0539139 -7.30523e-17)
(1.01428 -0.0452507 1.14268e-16)
(0.99841 -0.0454035 -2.44186e-18)
(1.0162 -0.0349251 -5.80033e-17)
(0.99998 -0.0383259 -7.88435e-17)
(1.01654 -0.0241654 2.80794e-16)
(1.00016 -0.0325166 -2.77107e-16)
(1.01588 -0.0136278 2.55425e-16)
(0.99822 -0.0261163 -2.39021e-16)
(1.01432 -0.00349456 3.29875e-16)
(0.998125 -0.0273173 3.27258e-17)
(0.474742 -0.77798 -3.56368e-17)
(0.478256 -0.655494 1.29443e-16)
(0.609944 -0.610006 1.62785e-16)
(0.605706 -0.516406 2.90337e-16)
(0.705678 -0.484951 4.4163e-16)
(0.699595 -0.416188 3.1229e-16)
(0.776818 -0.391417 -1.21955e-17)
(0.769649 -0.340663 1.57762e-16)
(0.831268 -0.320614 -6.69955e-17)
(0.822882 -0.282132 -7.64615e-18)
(0.873624 -0.265926 5.77779e-17)
(0.864091 -0.235988 4.28074e-16)
(0.906919 -0.22275 3.17691e-16)
(0.896454 -0.199091 4.14143e-16)
(0.933308 -0.187988 4.05787e-17)
(0.922108 -0.169162 5.07979e-16)
(0.954348 -0.159519 -4.33347e-16)
(0.942536 -0.144529 5.32674e-16)
(0.971164 -0.135832 -1.99184e-16)
(0.958803 -0.123959 3.84737e-16)
(0.984581 -0.115824 -8.9221e-17)
(0.971681 -0.10653 1.14377e-16)
(0.995205 -0.0986641 -8.65124e-17)
(0.981746 -0.0915438 9.33719e-17)
(1.00348 -0.0837192 1.66726e-17)
(0.989427 -0.0784674 -2.60662e-16)
(1.00975 -0.070489 2.35045e-16)
(0.995051 -0.0669007 -2.52985e-16)
(1.01424 -0.0585426 5.5063e-17)
(0.998891 -0.056597 -1.59177e-16)
(1.01709 -0.0474086 8.12069e-17)
(1.00122 -0.0475526 -2.01068e-16)
(1.0183 -0.0364414 1.6096e-16)
(1.0023 -0.0400254 1.24849e-17)
(1.0179 -0.0250123 -1.37629e-16)
(1.00207 -0.0338488 2.68879e-16)
(1.0165 -0.0137939 -2.16662e-16)
(0.999702 -0.0270732 1.9009e-16)
(1.01428 -0.00313143 -1.31788e-16)
(0.999309 -0.0275465 -2.20337e-16)
(0.526912 -0.817942 -3.96084e-16)
(0.522205 -0.689109 6.13891e-17)
(0.650825 -0.641298 -2.69254e-16)
(0.64031 -0.542858 -1.86862e-16)
(0.738157 -0.509788 -3.68337e-16)
(0.727462 -0.437464 -2.87363e-16)
(0.80301 -0.411416 -1.80624e-16)
(0.792435 -0.358028 -1.13998e-16)
(0.852698 -0.336943 -4.58792e-16)
(0.841728 -0.296458 2.85683e-16)
(0.891371 -0.279413 -2.89107e-16)
(0.879826 -0.247912 -2.20984e-16)
(0.921755 -0.233987 -6.91387e-16)
(0.909699 -0.20909 -3.89894e-16)
(0.945797 -0.197409 -2.1633e-16)
(0.933331 -0.177595 -2.11541e-16)
(0.964912 -0.167447 3.30395e-16)
(0.952093 -0.151671 -4.70272e-16)
(0.980126 -0.142516 3.39517e-16)
(0.966965 -0.130017 -4.57577e-16)
(0.992186 -0.121451 2.364e-16)
(0.978659 -0.111665 -2.02391e-16)
(1.00164 -0.103382 1.52756e-16)
(0.987703 -0.0958812 -8.52821e-17)
(1.0089 -0.0876413 6.60616e-17)
(0.99449 -0.0821057 7.85749e-17)
(1.01427 -0.0737031 1.2966e-17)
(0.999324 -0.0699175 3.70079e-18)
(1.01795 -0.0611148 1.79678e-16)
(1.00246 -0.0590565 -2.68952e-17)
(1.02003 -0.0493807 1.32129e-16)
(1.00416 -0.0495188 -8.27587e-17)
(1.02049 -0.0378217 1.55129e-16)
(1.00472 -0.0415754 -1.50445e-16)
(1.01931 -0.0257754 1.29152e-16)
(1.00407 -0.0350583 -1.73301e-16)
(1.01713 -0.0139285 5.93286e-17)
(1.00125 -0.0279356 -1.28335e-16)
(1.01423 -0.00278135 2.78535e-18)
(1.00052 -0.0277128 2.53326e-17)
(0.581602 -0.854399 5.54297e-16)
(0.568261 -0.719821 -6.18226e-17)
(0.693677 -0.669823 1.54322e-16)
(0.676563 -0.566992 3.57533e-16)
(0.772191 -0.53241 1.97178e-16)
(0.756647 -0.45686 4.74047e-16)
(0.830446 -0.429622 7.7811e-17)
(0.816291 -0.373854 2.75995e-16)
(0.875137 -0.351804 3.74126e-16)
(0.861452 -0.309514 -1.18027e-16)
(0.909949 -0.291688 9.5755e-17)
(0.896291 -0.258782 3.41132e-16)
(0.937284 -0.244216 6.4038e-16)
(0.923556 -0.218206 5.21153e-16)
(0.958868 -0.205986 2.21404e-16)
(0.945069 -0.185284 4.49141e-17)
(0.975968 -0.174666 -3.95475e-16)
(0.962085 -0.158179 4.28201e-16)
(0.989502 -0.1486 -3.78976e-16)
(0.975496 -0.135536 1.91436e-16)
(1.00014 -0.126574 3.03961e-17)
(0.985952 -0.116342 1.22461e-17)
(1.00838 -0.107676 6.3556e-17)
(0.993929 -0.0998306 -8.92732e-17)
(1.01458 -0.0912095 8.05509e-17)
(0.999783 -0.0854161 -2.6943e-16)
(1.019 -0.0766259 1.83891e-16)
(1.00379 -0.0726588 -2.72713e-16)
(1.02182 -0.0634515 4.15829e-17)
(1.00618 -0.0612874 -1.62342e-16)
(1.0231 -0.0511684 1.0299e-16)
(1.00724 -0.0512979 -1.57138e-16)
(1.02277 -0.0390672 1.21982e-16)
(1.00725 -0.0429737 -3.58351e-16)
(1.02077 -0.0264549 3.10092e-16)
(1.00615 -0.0361456 -1.47071e-16)
(1.01777 -0.0140308 4.44301e-17)
(1.00285 -0.0287065 1.83315e-16)
(1.01416 -0.00244183 -7.62987e-17)
(1.00174 -0.0278224 1.77634e-16)
(0.638544 -0.887213 -5.70111e-16)
(0.616227 -0.747417 3.36745e-16)
(0.738293 -0.69552 -4.73338e-16)
(0.714325 -0.588706 -1.49185e-16)
(0.807635 -0.552802 -5.01524e-16)
(0.787053 -0.474321 -1.95722e-16)
(0.859026 -0.446038 -6.83455e-17)
(0.84115 -0.388102 -2.49251e-17)
(0.898517 -0.365203 -6.40174e-16)
(0.882008 -0.321264 4.11216e-16)
(0.929308 -0.30275 -2.21439e-16)
(0.913451 -0.268557 -2.66627e-16)
(0.953463 -0.253427 -5.32694e-16)
(0.937997 -0.226399 -6.43768e-16)
(0.972485 -0.213704 -2.69737e-16)
(0.957302 -0.19219 8.07252e-18)
(0.987483 -0.181157 3.03414e-16)
(0.972498 -0.164022 -2.66415e-16)
(0.999266 -0.154067 1.86156e-16)
(0.984386 -0.140487 -1.21806e-16)
(1.00842 -0.131171 1.03275e-16)
(0.993547 -0.120533 -1.77775e-16)
(1.01539 -0.111525 2.85519e-17)
(1.00041 -0.103365 -7.99375e-17)
(1.02047 -0.0944028 1.95409e-16)
(1.00529 -0.0883743 -3.77809e-17)
(1.02391 -0.0792357 1.45562e-16)
(1.00843 -0.0751046 1.16077e-17)
(1.02583 -0.0655318 2.98665e-16)
(1.01005 -0.0632736 -2.00153e-16)
(1.02628 -0.0527535 3.61378e-16)
(1.01042 -0.052877 -2.59643e-16)
(1.02513 -0.040164 3.17624e-16)
(1.00987 -0.0442091 -3.93736e-17)
(1.02228 -0.0270424 2.13396e-16)
(1.0083 -0.0370999 -4.39171e-16)
(1.01843 -0.0140984 3.46617e-16)
(1.00451 -0.0293759 -3.93858e-16)
(1.01407 -0.00211635 5.9907e-17)
(1.00299 -0.027867 -4.75027e-17)
(0.697528 -0.916223 5.81126e-16)
(0.665899 -0.771857 -2.63637e-17)
(0.784505 -0.718209 8.60089e-17)
(0.753422 -0.607906 5.32405e-16)
(0.844336 -0.570792 5.46314e-16)
(0.818526 -0.489748 2.36515e-16)
(0.88861 -0.460513 -1.81328e-16)
(0.866874 -0.400684 1.15773e-16)
(0.922711 -0.377014 4.42545e-16)
(0.903274 -0.331641 -3.09346e-16)
(0.949336 -0.312501 1.89602e-16)
(0.9312 -0.277191 2.75813e-16)
(0.9702 -0.261549 4.46479e-16)
(0.952931 -0.233636 3.86791e-16)
(0.98657 -0.220509 4.33103e-16)
(0.969949 -0.198288 -5.65502e-17)
(0.999392 -0.18688 -1.71903e-16)
(0.98326 -0.169179 7.77254e-17)
(1.00936 -0.158885 1.66408e-17)
(0.993571 -0.144855 -4.8314e-17)
(1.01699 -0.135221 7.9254e-17)
(1.00139 -0.124228 -8.62948e-17)
(1.02263 -0.114912 2.28297e-16)
(1.0071 -0.106479 -3.30442e-16)
(1.02657 -0.097211 1.42918e-16)
(1.01097 -0.0909773 -3.03352e-16)
(1.02898 -0.0815281 3.85012e-17)
(1.01322 -0.0772525 -1.98671e-16)
(1.02998 -0.0673557 -2.82503e-17)
(1.01404 -0.0650128 -1.01165e-16)
(1.02957 -0.0541385 -1.88758e-16)
(1.01371 -0.0542541 9.46203e-17)
(1.02757 -0.0411152 -1.6323e-16)
(1.01256 -0.0452806 -1.94668e-16)
(1.02383 -0.0275408 8.88495e-17)
(1.01052 -0.0379219 2.08267e-16)
(1.01909 -0.014133 -6.68225e-17)
(1.00621 -0.029946 2.39231e-16)
(1.01397 -0.0018045 -1.26631e-16)
(1.00424 -0.027851 1.8965e-16)
(0.758269 -0.941327 -5.73902e-16)
(0.717061 -0.792963 -3.01533e-16)
(0.832097 -0.737869 -1.93393e-16)
(0.793697 -0.624509 -1.77326e-16)
(0.88214 -0.586389 -9.41152e-16)
(0.850952 -0.503096 -1.04166e-16)
(0.919089 -0.473063 -2.42455e-17)
(0.893381 -0.41157 6.29853e-18)
(0.947641 -0.387252 -3.64156e-16)
(0.92519 -0.340614 2.24042e-16)
(0.969975 -0.320948 3.2491e-17)
(0.949493 -0.284651 -5.01672e-16)
(0.987447 -0.268577 -1.84469e-16)
(0.968322 -0.239882 -2.76876e-16)
(1.00108 -0.226391 -2.36004e-16)
(0.982984 -0.203547 1.2202e-18)
(1.01166 -0.191821 3.44141e-16)
(0.994352 -0.173622 -2.18304e-16)
(1.01976 -0.16304 2.75378e-16)
(1.00304 -0.148613 -3.57099e-16)
(1.0258 -0.138709 2.16575e-16)
(1.00948 -0.127403 -1.14121e-16)
(1.03009 -0.117825 7.01592e-18)
(1.014 -0.109148 7.67955e-17)
(1.03284 -0.0996194 1.87393e-16)
(1.01683 -0.0932036 9.98476e-17)
(1.0342 -0.0834874 8.6216e-17)
(1.01815 -0.079084 1.02336e-16)
(1.03425 -0.0689072 5.86388e-17)
(1.01815 -0.0664901 1.66245e-16)
(1.03295 -0.0553081 1.41928e-16)
(1.01709 -0.0554173 -4.9462e-17)
(1.03007 -0.0419084 1.3662e-16)
(1.01533 -0.0461783 2.36494e-16)
(1.02541 -0.0279412 1.86897e-17)
(1.01278 -0.0386027 -3.73558e-16)
(1.01976 -0.0141307 3.39469e-16)
(1.00795 -0.030409 -2.8987e-16)
(1.01385 -0.0015076 8.88252e-17)
(1.0055 -0.0277688 -1.32207e-16)
(0.820536 -0.962395 8.02142e-16)
(0.769499 -0.810711 7.60609e-16)
(0.880877 -0.754334 1.44712e-16)
(0.834971 -0.638447 2.08347e-16)
(0.92088 -0.599439 7.49041e-16)
(0.884176 -0.514289 6.98151e-17)
(0.950316 -0.483557 1.27044e-16)
(0.920535 -0.420694 1.25376e-16)
(0.973177 -0.39581 1.30124e-16)
(0.947635 -0.348131 -1.5546e-16)
(0.991113 -0.328008 -8.41855e-17)
(0.968223 -0.290901 3.63816e-16)
(1.00511 -0.274451 2.6504e-16)
(0.98408 -0.245114 1.7797e-16)
(1.01594 -0.231307 3.84894e-17)
(0.996326 -0.20795 -4.35902e-17)
(1.02422 -0.195948 -3.46757e-16)
(1.0057 -0.177339 8.77985e-17)
(1.03041 -0.166507 -2.14946e-17)
(1.01272 -0.151753 9.76015e-17)
(1.03483 -0.141615 2.50287e-17)
(1.01775 -0.130051 -3.08583e-17)
(1.03772 -0.120247 1.2439e-16)
(1.02105 -0.111372 -1.55783e-16)
(1.03925 -0.101618 -4.9008e-17)
(1.02281 -0.0950532 -2.70195e-16)
(1.03953 -0.0851088 1.24451e-16)
(1.02319 -0.0806001 -2.71388e-16)
(1.03861 -0.0701855 1.33914e-16)
(1.02234 -0.0677062 -3.28862e-16)
(1.0364 -0.0562648 -6.23212e-17)
(1.02054 -0.0563672 -1.33208e-17)
(1.03262 -0.0425471 -2.16916e-16)
(1.01815 -0.0469029 -2.09773e-16)
(1.02702 -0.0282476 -1.75113e-16)
(1.0151 -0.0391436 1.68863e-16)
(1.02043 -0.0140946 -1.88783e-16)
(1.00972 -0.0307668 7.51086e-17)
(1.01371 -0.0012267 -1.35153e-17)
(1.00677 -0.0276232 2.28343e-16)
(0.884038 -0.979357 -9.50581e-16)
(0.822983 -0.824965 -7.64308e-16)
(0.930634 -0.767618 -4.22936e-16)
(0.877071 -0.649655 1.02285e-16)
(0.9604 -0.609972 -6.40488e-16)
(0.918069 -0.523293 1.47596e-16)
(0.982175 -0.492027 -3.57075e-16)
(0.948239 -0.428032 -1.16421e-16)
(0.999232 -0.402713 3.67807e-17)
(0.970538 -0.354173 2.16258e-16)
(1.01268 -0.333695 1.12251e-16)
(0.987337 -0.295916 -1.59937e-16)
(1.02313 -0.279176 -1.27848e-16)
(1.00016 -0.249305 -4.07801e-16)
(1.0311 -0.235253 9.25076e-17)
(1.00994 -0.21147 6.43016e-17)
(1.03704 -0.199254 3.08393e-16)
(1.01729 -0.180304 -2.31092e-16)
(1.04127 -0.169278 1.1961e-16)
(1.02261 -0.154252 -1.68278e-16)
(1.04403 -0.143932 3.20967e-17)
(1.02619 -0.132154 1.3065e-17)
(1.0455 -0.122172 -1.91484e-16)
(1.02824 -0.113129 3.44093e-18)
(1.04579 -0.103199 2.95676e-16)
(1.02891 -0.0965077 -1.21628e-17)
(1.04497 -0.0863826 5.27448e-17)
(1.02832 -0.0817843 1.27211e-16)
(1.04305 -0.0711799 -1.18555e-17)
(1.02661 -0.0686475 1.57462e-16)
(1.0399 -0.0569975 5.08104e-17)
(1.02405 -0.0570927 2.14688e-16)
(1.03521 -0.0430214 6.16196e-17)
(1.02103 -0.0474455 3.77845e-16)
(1.02865 -0.0284525 1.92911e-16)
(1.01745 -0.039537 -4.77826e-17)
(1.02111 -0.0140205 1.36999e-16)
(1.01151 -0.0310133 3.82654e-17)
(1.01357 -0.000961785 -1.44808e-16)
(1.00804 -0.0274107 -2.17174e-17)
(0.948524 -0.992124 9.88003e-16)
(0.877292 -0.835717 7.07681e-16)
(0.981147 -0.77758 3.54191e-16)
(0.919816 -0.658091 7.98059e-17)
(1.00052 -0.617859 2.34125e-16)
(0.952476 -0.530059 -1.18355e-17)
(1.01451 -0.498361 3.0583e-16)
(0.976357 -0.433539 8.31055e-17)
(1.02567 -0.40787 -1.49285e-16)
(0.99378 -0.358702 -1.76383e-16)
(1.03457 -0.337942 9.94565e-17)
(1.00673 -0.299673 -1.03094e-16)
(1.04141 -0.2827 -6.40556e-17)
(1.01647 -0.252442 6.39401e-16)
(1.04648 -0.238193 -3.74836e-16)
(1.02375 -0.214101 8.34472e-17)
(1.05004 -0.201713 -1.20593e-16)
(1.02903 -0.182515 -1.05767e-17)
(1.05228 -0.171333 2.21713e-16)
(1.03262 -0.15611 -1.1685e-16)
(1.05337 -0.145644 8.68732e-17)
(1.03474 -0.133709 8.63268e-17)
(1.05339 -0.123587 8.15946e-17)
(1.03553 -0.114423 -1.50111e-16)
(1.05242 -0.104353 1.07598e-16)
(1.0351 -0.0975705 -2.46686e-16)
(1.05049 -0.0873036 3.87243e-17)
(1.03353 -0.0826408 7.15153e-17)
(1.04755 -0.071889 -3.45124e-16)
(1.03094 -0.0693179 1.06313e-16)