/*--------------------------------*- C++ -*----------------------------------*\
| =========                 |                                                 |
| \\      /  F ield         | foam-extend: Open Source CFD                    |
|  \\    /   O peration     | Version:  3.0                                   |
|   \\  /    A nd           | Web:         http://www.extend-project.de       |
|    \\/     M anipulation  |                                                 |
\*---------------------------------------------------------------------------*/
FoamFile
{
    version     2.0;
    format      ascii;
    class       volScalarField;
    location    "14";
    object      p;
}
// * * * * * * * * * * * * * * * * * * * * * * * * * * * * * * * * * * * * * //

dimensions      [0 0 0 0 0 0 0];

internalField   nonuniform List<scalar> 
1920
(
-0.233173
-0.210291
-0.19794
-0.183357
-0.176211
-0.166551
-0.162492
-0.155991
-0.153843
-0.14944
-0.14845
-0.145424
-0.145036
-0.142825
-0.142563
-0.140665
-0.140056
-0.137959
-0.13648
-0.133606
-0.232183
-0.209398
-0.197099
-0.182578
-0.175461
-0.165842
-0.1618
-0.155327
-0.153187
-0.148803
-0.147817
-0.144804
-0.144418
-0.142216
-0.141954
-0.140065
-0.139458
-0.13737
-0.135897
-0.133035
-0.230181
-0.207593
-0.1954
-0.181004
-0.17395
-0.164414
-0.160407
-0.153989
-0.151869
-0.147523
-0.146545
-0.143558
-0.143175
-0.140993
-0.140734
-0.13886
-0.138259
-0.136189
-0.134728
-0.131891
-0.227211
-0.204914
-0.192878
-0.178668
-0.171704
-0.162291
-0.158336
-0.152
-0.149907
-0.145617
-0.144652
-0.141703
-0.141325
-0.13917
-0.138915
-0.137065
-0.136471
-0.134429
-0.132987
-0.130186
-0.223251
-0.201343
-0.189517
-0.175555
-0.168712
-0.159464
-0.155577
-0.149353
-0.147296
-0.143081
-0.142133
-0.139236
-0.138864
-0.136747
-0.136496
-0.134679
-0.134096
-0.132089
-0.130672
-0.12792
-0.218352
-0.196924
-0.185358
-0.171702
-0.165009
-0.155963
-0.152162
-0.146074
-0.144062
-0.139939
-0.139011
-0.136178
-0.135814
-0.133744
-0.133498
-0.131721
-0.13115
-0.129187
-0.127801
-0.12511
-0.212501
-0.191648
-0.180391
-0.167101
-0.160588
-0.151785
-0.148086
-0.142161
-0.140203
-0.136191
-0.135289
-0.132531
-0.132177
-0.130162
-0.129923
-0.128194
-0.127638
-0.125728
-0.124379
-0.12176
-0.205757
-0.185565
-0.174666
-0.161797
-0.155491
-0.146967
-0.143385
-0.137647
-0.135752
-0.131866
-0.130993
-0.128322
-0.12798
-0.126029
-0.125797
-0.124122
-0.123584
-0.121735
-0.120429
-0.117893
-0.198115
-0.178673
-0.168179
-0.155789
-0.149717
-0.141509
-0.138061
-0.132537
-0.130711
-0.126971
-0.126129
-0.123558
-0.123229
-0.12135
-0.121127
-0.119515
-0.118997
-0.117216
-0.115959
-0.113517
-0.189641
-0.171031
-0.160985
-0.149125
-0.143312
-0.135456
-0.132154
-0.126866
-0.125119
-0.121538
-0.120732
-0.118271
-0.117956
-0.116157
-0.115944
-0.1144
-0.113904
-0.112199
-0.110996
-0.108658
-0.180339
-0.162642
-0.153089
-0.141811
-0.136283
-0.128812
-0.125673
-0.120645
-0.118983
-0.115578
-0.114812
-0.112472
-0.112172
-0.110462
-0.110259
-0.108791
-0.10832
-0.106698
-0.105554
-0.103331
-0.170281
-0.153571
-0.144551
-0.133901
-0.128681
-0.121627
-0.118662
-0.113914
-0.112345
-0.10913
-0.108407
-0.106197
-0.105913
-0.104298
-0.104107
-0.10272
-0.102275
-0.100744
-0.0996636
-0.097565
-0.159477
-0.143828
-0.13538
-0.125406
-0.120518
-0.113911
-0.111135
-0.106688
-0.105219
-0.102208
-0.10153
-0.0994607
-0.0991955
-0.0976833
-0.0975037
-0.0962056
-0.0957889
-0.0943552
-0.093343
-0.0913775
-0.148007
-0.133483
-0.125642
-0.116386
-0.111849
-0.105717
-0.10314
-0.0990133
-0.0976494
-0.0948546
-0.0942259
-0.0923049
-0.0920585
-0.0906549
-0.0904882
-0.0892833
-0.0888965
-0.0875658
-0.0866263
-0.0848022
-0.135887
-0.122552
-0.115354
-0.106855
-0.10269
-0.097061
-0.0946953
-0.0909064
-0.0896544
-0.0870886
-0.0865115
-0.0847479
-0.0845219
-0.0832333
-0.0830803
-0.0819742
-0.0816192
-0.0803975
-0.079535
-0.0778603
-0.123201
-0.111111
-0.104585
-0.0968791
-0.0931028
-0.0879986
-0.0858536
-0.0824182
-0.0812829
-0.0789564
-0.078433
-0.0768339
-0.0766288
-0.0754604
-0.0753216
-0.0743186
-0.0739966
-0.0728889
-0.0721069
-0.0705885
-0.109972
-0.0991797
-0.0933544
-0.0864765
-0.0831059
-0.07855
-0.0766355
-0.0735692
-0.0725559
-0.0704793
-0.0700123
-0.068585
-0.0684021
-0.0673593
-0.0672354
-0.0663403
-0.0660529
-0.0650642
-0.0643662
-0.0630109
-0.0962874
-0.0868381
-0.0817375
-0.0757151
-0.0727637
-0.0687745
-0.067098
-0.064413
-0.0635256
-0.0617073
-0.0612982
-0.0600484
-0.059888
-0.0589748
-0.0588662
-0.0580824
-0.0578307
-0.0569649
-0.0563537
-0.055167
-0.0821744
-0.0741103
-0.0697575
-0.064618
-0.0620994
-0.058695
-0.0572644
-0.0549731
-0.0542159
-0.0526642
-0.0523152
-0.0512487
-0.051112
-0.0503327
-0.0502401
-0.0495712
-0.0493565
-0.0486177
-0.0480961
-0.0470834
-0.067726
-0.0610796
-0.0574918
-0.0532558
-0.0511797
-0.0483737
-0.0471944
-0.0453057
-0.0446815
-0.0434024
-0.0431146
-0.0422354
-0.0421226
-0.0414802
-0.0414038
-0.0408524
-0.0406753
-0.0400663
-0.0396364
-0.0388017
-0.0529711
-0.0477729
-0.044967
-0.0416539
-0.0400303
-0.0378357
-0.0369134
-0.0354364
-0.0349482
-0.0339479
-0.033723
-0.0330354
-0.0329473
-0.0324449
-0.0323853
-0.0319541
-0.0318156
-0.0313394
-0.0310031
-0.0303503
-0.038006
-0.034276
-0.0322626
-0.0298852
-0.0287201
-0.0271452
-0.0264833
-0.0254233
-0.0250729
-0.024355
-0.0241934
-0.0236999
-0.0236365
-0.023276
-0.023233
-0.0229235
-0.022824
-0.0224823
-0.022241
-0.0217726
-0.0228615
-0.0206179
-0.019407
-0.017977
-0.0172762
-0.016329
-0.0159309
-0.0152933
-0.0150826
-0.0146509
-0.0145537
-0.014257
-0.0142189
-0.0140021
-0.0139763
-0.0137902
-0.0137304
-0.0135248
-0.0133797
-0.013098
-0.00763569
-0.00688606
-0.00648138
-0.00600342
-0.00576911
-0.00545241
-0.00531919
-0.00510597
-0.00503536
-0.00489092
-0.00485828
-0.00475897
-0.00474607
-0.00467349
-0.00466472
-0.00460243
-0.00458233
-0.00451361
-0.00446506
-0.00437097
0.00763942
0.0068898
0.00648509
0.00600749
0.00577341
0.0054571
0.0053242
0.00511134
0.00504102
0.00489687
0.00486447
0.00476539
0.00475272
0.00468034
0.00467178
0.00460963
0.00458971
0.00452105
0.00447259
0.00437842
0.0228651
0.0206216
0.0194106
0.017981
0.0172805
0.0163336
0.0159359
0.0152987
0.0150882
0.0146568
0.0145599
0.0142633
0.0142255
0.0140089
0.0139833
0.0137973
0.0137377
0.0135322
0.0133872
0.0131054
0.0380096
0.0342797
0.0322662
0.0298892
0.0287243
0.0271498
0.0264882
0.0254286
0.0250784
0.0243608
0.0241994
0.0237062
0.023643
0.0232826
0.0232399
0.0229305
0.0228313
0.0224896
0.0222483
0.0217799
0.0529747
0.0477764
0.0449705
0.0416577
0.0400343
0.0378401
0.0369182
0.0354414
0.0349536
0.0339536
0.0337288
0.0330415
0.0329536
0.0324515
0.032392
0.0319609
0.0318226
0.0313465
0.0310103
0.0303574
0.0677296
0.0610831
0.0574953
0.0532596
0.0511837
0.048378
0.047199
0.0453107
0.0446867
0.0434079
0.0431203
0.0422414
0.0421288
0.0414866
0.0414103
0.0408591
0.0406821
0.0400732
0.0396434
0.0388087
0.0821777
0.0741136
0.0697607
0.0646216
0.0621031
0.0586991
0.0572687
0.0549778
0.0542208
0.0526694
0.0523206
0.0512543
0.0511178
0.0503387
0.0502464
0.0495776
0.049363
0.0486243
0.0481028
0.04709
0.0962907
0.0868414
0.0817407
0.0757186
0.0727674
0.0687785
0.0671022
0.0644175
0.0635304
0.0617123
0.0613034
0.0600538
0.0598936
0.0589806
0.0588722
0.0580885
0.0578369
0.0569712
0.0563601
0.0551734
0.109975
0.0991827
0.0933573
0.0864797
0.0831092
0.0785536
0.0766393
0.0735733
0.0725603
0.070484
0.0700171
0.0685901
0.0684073
0.0673646
0.067241
0.0663459
0.0660587
0.0650701
0.0643722
0.0630168
0.123204
0.111114
0.104587
0.0968822
0.093106
0.0880021
0.0858573
0.0824222
0.0812871
0.0789608
0.0784376
0.0768387
0.0766337
0.0754655
0.0753268
0.074324
0.0740021
0.0728944
0.0721125
0.0705941
0.13589
0.122555
0.115356
0.106858
0.102693
0.097064
0.0946986
0.0909099
0.0896581
0.0870925
0.0865156
0.0847522
0.0845263
0.0832379
0.083085
0.081979
0.0816241
0.0804025
0.0795401
0.0778653
0.14801
0.133485
0.125645
0.116388
0.111852
0.10572
0.103143
0.0990166
0.0976529
0.0948582
0.0942297
0.0923088
0.0920626
0.0906591
0.0904925
0.0892878
0.088901
0.0875704
0.086631
0.0848069
0.159479
0.143829
0.135382
0.125408
0.12052
0.113914
0.111137
0.106691
0.105222
0.102211
0.101534
0.0994641
0.0991989
0.0976868
0.0975074
0.0962094
0.0957928
0.0943591
0.093347
0.0913815
0.170283
0.153573
0.144552
0.133903
0.128683
0.121629
0.118665
0.113917
0.112348
0.109133
0.108409
0.1062
0.105916
0.104302
0.10411
0.102724
0.102279
0.100748
0.0996672
0.0975686
0.180341
0.162643
0.153091
0.141812
0.136285
0.128814
0.125675
0.120647
0.118985
0.11558
0.114814
0.112474
0.112174
0.110464
0.110261
0.108794
0.108322
0.106701
0.105557
0.103334
0.189643
0.171032
0.160987
0.149126
0.143313
0.135457
0.132156
0.126868
0.125121
0.12154
0.120734
0.118273
0.117958
0.116159
0.115946
0.114402
0.113907
0.112202
0.110998
0.108661
0.198116
0.178674
0.16818
0.15579
0.149717
0.14151
0.138061
0.132538
0.130713
0.126972
0.126131
0.12356
0.12323
0.121352
0.121129
0.119516
0.118999
0.117218
0.11596
0.113519
0.205758
0.185566
0.174666
0.161798
0.155491
0.146967
0.143385
0.137648
0.135752
0.131867
0.130993
0.128323
0.127981
0.12603
0.125798
0.124123
0.123586
0.121736
0.12043
0.117894
0.212501
0.191648
0.180391
0.167101
0.160588
0.151785
0.148086
0.142161
0.140203
0.136191
0.135289
0.132531
0.132178
0.130163
0.129924
0.128194
0.127639
0.125728
0.12438
0.121761
0.218352
0.196924
0.185357
0.171701
0.165009
0.155963
0.152162
0.146073
0.144062
0.139939
0.139011
0.136177
0.135814
0.133744
0.133498
0.13172
0.13115
0.129187
0.127801
0.12511
0.223251
0.201342
0.189516
0.175554
0.168712
0.159463
0.155577
0.149352
0.147295
0.14308
0.142132
0.139235
0.138863
0.136747
0.136495
0.134678
0.134095
0.132088
0.130671
0.12792
0.22721
0.204913
0.192877
0.178667
0.171703
0.16229
0.158335
0.151999
0.149906
0.145616
0.144651
0.141702
0.141324
0.139169
0.138913
0.137064
0.13647
0.134428
0.132985
0.130185
0.23018
0.207592
0.195399
0.181003
0.173948
0.164412
0.160405
0.153988
0.151867
0.147521
0.146543
0.143556
0.143173
0.140991
0.140732
0.138858
0.138257
0.136187
0.134726
0.13189
0.232181
0.209396
0.197097
0.182576
0.175459
0.16584
0.161798
0.155325
0.153185
0.148801
0.147815
0.144802
0.144415
0.142214
0.141952
0.140062
0.139456
0.137368
0.135895
0.133033
0.233171
0.210289
0.197938
0.183355
0.176208
0.166549
0.162489
0.155988
0.15384
0.149437
0.148447
0.145421
0.145033
0.142822
0.14256
0.140662
0.140053
0.137957
0.136477
0.133603
0.233179
0.210296
0.197944
0.183361
0.176213
0.166553
0.162494
0.155992
0.153844
0.14944
0.14845
0.145424
0.145036
0.142825
0.142562
0.140664
0.140055
0.137958
0.136478
0.133605
0.232172
0.209388
0.19709
0.182569
0.175453
0.165835
0.161793
0.15532
0.153181
0.148797
0.147811
0.144798
0.144412
0.14221
0.141949
0.140059
0.139453
0.137365
0.135892
0.13303
0.230188
0.207598
0.195405
0.181008
0.173953
0.164416
0.160409
0.153991
0.15187
0.147523
0.146545
0.143558
0.143175
0.140992
0.140733
0.138859
0.138258
0.136188
0.134727
0.13189
0.227201
0.204905
0.192869
0.17866
0.171696
0.162284
0.158329
0.151994
0.1499
0.14561
0.144646
0.141697
0.141319
0.139165
0.138909
0.13706
0.136466
0.134424
0.132982
0.130182
0.223258
0.201348
0.189522
0.175558
0.168715
0.159466
0.155579
0.149354
0.147297
0.143081
0.142133
0.139236
0.138864
0.136747
0.136496
0.134678
0.134095
0.132088
0.130671
0.127919
0.218342
0.196915
0.185349
0.171694
0.165001
0.155956
0.152155
0.146067
0.144055
0.139933
0.139006
0.136172
0.135809
0.133738
0.133493
0.131716
0.131145
0.129182
0.127796
0.125105
0.212508
0.191653
0.180396
0.167105
0.160592
0.151788
0.148088
0.142163
0.140205
0.136192
0.135289
0.132531
0.132178
0.130162
0.129923
0.128193
0.127638
0.125727
0.124379
0.12176
0.205747
0.185556
0.174657
0.161789
0.155483
0.14696
0.143378
0.137641
0.135746
0.131861
0.130987
0.128317
0.127975
0.126024
0.125792
0.124117
0.12358
0.12173
0.120424
0.117889
0.198122
0.178679
0.168184
0.155793
0.14972
0.141512
0.138063
0.132539
0.130713
0.126972
0.12613
0.123559
0.123229
0.121351
0.121127
0.119515
0.118997
0.117216
0.115958
0.113517
0.189631
0.171022
0.160977
0.149117
0.143305
0.135449
0.132147
0.12686
0.125113
0.121532
0.120727
0.118266
0.117951
0.116153
0.115939
0.114396
0.1139
0.112195
0.110992
0.108655
0.180346
0.162648
0.153094
0.141815
0.136287
0.128815
0.125675
0.120647
0.118985
0.115579
0.114813
0.112473
0.112173
0.110462
0.110259
0.108791
0.10832
0.106699
0.105554
0.103331
0.170271
0.153562
0.144542
0.133893
0.128674
0.12162
0.118656
0.113908
0.11234
0.109125
0.108401
0.106192
0.105909
0.104294
0.104102
0.102716
0.102272
0.100741
0.0996602
0.0975617
0.159484
0.143833
0.135385
0.12541
0.120522
0.113914
0.111138
0.106691
0.105221
0.102209
0.101532
0.099462
0.0991966
0.0976843
0.0975046
0.0962064
0.0957897
0.0943558
0.0933435
0.091378
0.147998
0.133474
0.125634
0.116378
0.111842
0.105711
0.103134
0.0990076
0.097644
0.0948495
0.0942211
0.0923004
0.0920543
0.0906509
0.0904844
0.0892798
0.0888931
0.0875626
0.0866233
0.0847993
0.135894
0.122558
0.115359
0.10686
0.102694
0.0970642
0.0946982
0.0909089
0.0896567
0.0870905
0.0865133
0.0847495
0.0845234
0.0832347
0.0830816
0.0819754
0.0816203
0.0803985
0.079536
0.0778612
0.123192
0.111102
0.104577
0.0968719
0.093096
0.0879924
0.0858477
0.0824128
0.0812777
0.0789516
0.0784285
0.0768297
0.0766249
0.0754568
0.0753181
0.0743154
0.0739936
0.0728861
0.0721043
0.070586
0.109979
0.0991856
0.0933596
0.0864809
0.0831098
0.0785534
0.0766385
0.0735718
0.0725584
0.0704815
0.0700144
0.0685869
0.0684039
0.067361
0.0672371
0.0663418
0.0660544
0.0650657
0.0643676
0.0630122
0.0962778
0.0868296
0.0817296
0.075708
0.0727571
0.0687684
0.0670923
0.0644077
0.0635207
0.0617027
0.0612939
0.0600445
0.0598844
0.0589715
0.0588632
0.0580795
0.057828
0.0569625
0.0563514
0.0551649
0.0821814
0.0741163
0.0697627
0.0646225
0.0621034
0.0586985
0.0572676
0.0549759
0.0542186
0.0526666
0.0523175
0.0512508
0.0511141
0.0503347
0.0502421
0.0495731
0.0493583
0.0486195
0.0480978
0.047085
0.0677165
0.0610711
0.0574841
0.0532487
0.0511732
0.0483677
0.0471888
0.0453006
0.0446767
0.0433981
0.0431106
0.0422318
0.0421192
0.0414771
0.041401
0.0408498
0.0406729
0.0400642
0.0396344
0.0387998
0.0529782
0.0477788
0.0449723
0.0416585
0.0400344
0.0378393
0.0369168
0.0354394
0.0349511
0.0339506
0.0337255
0.0330378
0.0329496
0.0324471
0.0323874
0.0319562
0.0318177
0.0313414
0.0310051
0.0303521
0.0379964
0.0342676
0.0322548
0.0298783
0.0287136
0.0271394
0.0264778
0.0254183
0.0250683
0.0243508
0.0241895
0.0236964
0.0236333
0.023273
0.0232303
0.0229211
0.0228219
0.0224803
0.0222392
0.0217709
0.0228685
0.0206239
0.0194123
0.0179816
0.0172805
0.0163327
0.0159344
0.0152964
0.0150856
0.0146536
0.0145564
0.0142594
0.0142214
0.0140044
0.0139786
0.0137924
0.0137326
0.013527
0.0133818
0.0131
0.00762617
0.00687764
0.00647367
0.00599649
0.0057627
0.00544659
0.00531379
0.00510105
0.0050308
0.00488677
0.00485446
0.00475551
0.00474292
0.00467064
0.00466215
0.00460011
0.00458026
0.00451171
0.00446334
0.00436933
-0.00763241
-0.00688383
-0.00647975
-0.00600286
-0.00576919
-0.00545337
-0.00532074
-0.00510822
-0.00503806
-0.00489414
-0.00486182
-0.00476289
-0.00475025
-0.00467797
-0.00466941
-0.00460735
-0.00458743
-0.00451886
-0.00447044
-0.0043764
-0.0228747
-0.0206301
-0.0194184
-0.017988
-0.0172869
-0.0163395
-0.0159413
-0.0153036
-0.0150928
-0.0146609
-0.0145637
-0.0142668
-0.0142287
-0.0140117
-0.0139859
-0.0137996
-0.0137398
-0.0135341
-0.0133889
-0.013107
-0.0380027
-0.0342738
-0.0322609
-0.0298846
-0.0287201
-0.0271461
-0.0264848
-0.0254255
-0.0250755
-0.0243581
-0.0241968
-0.0237038
-0.0236406
-0.0232803
-0.0232376
-0.0229283
-0.022829
-0.0224874
-0.0222462
-0.0217779
-0.0529842
-0.0477849
-0.0449782
-0.0416647
-0.0400408
-0.037846
-0.0369237
-0.0354465
-0.0349583
-0.0339578
-0.0337328
-0.0330451
-0.0329569
-0.0324544
-0.0323947
-0.0319634
-0.0318248
-0.0313485
-0.0310121
-0.0303592
-0.0677226
-0.0610772
-0.0574901
-0.053255
-0.0511796
-0.0483744
-0.0471957
-0.0453077
-0.0446839
-0.0434054
-0.0431179
-0.0422391
-0.0421265
-0.0414844
-0.0414082
-0.040857
-0.0406801
-0.0400713
-0.0396415
-0.0388069
-0.0821873
-0.0741222
-0.0697686
-0.0646287
-0.0621097
-0.0587051
-0.0572743
-0.0549829
-0.0542256
-0.0526738
-0.0523247
-0.0512581
-0.0511213
-0.0503419
-0.0502492
-0.0495802
-0.0493654
-0.0486265
-0.0481048
-0.047092
-0.0962838
-0.0868356
-0.0817355
-0.0757142
-0.0727634
-0.068775
-0.0670991
-0.0644148
-0.0635278
-0.06171
-0.0613012
-0.0600517
-0.0598916
-0.0589787
-0.0588703
-0.0580867
-0.0578351
-0.0569695
-0.0563584
-0.0551718
-0.109984
-0.0991913
-0.0933653
-0.0864869
-0.0831159
-0.0785598
-0.0766451
-0.0735786
-0.0725653
-0.0704886
-0.0700215
-0.0685941
-0.068411
-0.0673681
-0.0672441
-0.0663489
-0.0660614
-0.0650726
-0.0643745
-0.063019
-0.123197
-0.111108
-0.104582
-0.0968779
-0.0931022
-0.0879988
-0.0858543
-0.0824196
-0.0812847
-0.0789587
-0.0784356
-0.0768369
-0.076632
-0.0754639
-0.0753252
-0.0743225
-0.0740006
-0.0728931
-0.0721112
-0.0705929
-0.135899
-0.122563
-0.115365
-0.106865
-0.1027
-0.0970704
-0.0947045
-0.0909155
-0.0896633
-0.0870973
-0.0865202
-0.0847564
-0.0845303
-0.0832416
-0.0830885
-0.0819823
-0.0816272
-0.0804054
-0.0795428
-0.0778679
-0.148003
-0.13348
-0.12564
-0.116384
-0.111848
-0.105717
-0.103141
-0.0990142
-0.0976508
-0.0948564
-0.094228
-0.0923073
-0.0920612
-0.0906579
-0.0904913
-0.0892867
-0.0889
-0.0875694
-0.0866301
-0.084806
-0.159489
-0.143838
-0.13539
-0.125415
-0.120527
-0.11392
-0.111144
-0.106697
-0.105227
-0.102216
-0.101539
-0.0994687
-0.0992033
-0.097691
-0.0975113
-0.0962131
-0.0957963
-0.0943624
-0.0933501
-0.0913845
-0.170276
-0.153567
-0.144548
-0.133899
-0.12868
-0.121626
-0.118662
-0.113915
-0.112346
-0.109131
-0.108408
-0.106198
-0.105915
-0.104301
-0.104109
-0.102723
-0.102278
-0.100747
-0.0996667
-0.0975682
-0.18035
-0.162652
-0.153099
-0.14182
-0.136292
-0.128821
-0.125681
-0.120653
-0.118991
-0.115586
-0.11482
-0.112479
-0.112179
-0.110469
-0.110266
-0.108798
-0.108326
-0.106705
-0.10556
-0.103338
-0.189636
-0.171027
-0.160982
-0.149122
-0.14331
-0.135454
-0.132153
-0.126866
-0.125119
-0.121538
-0.120733
-0.118272
-0.117957
-0.116159
-0.115945
-0.114402
-0.113907
-0.112202
-0.110998
-0.108661
-0.198126
-0.178683
-0.168188
-0.155797
-0.149725
-0.141517
-0.138068
-0.132544
-0.130718
-0.126977
-0.126136
-0.123565
-0.123235
-0.121357
-0.121133
-0.119521
-0.119003
-0.117222
-0.115964
-0.113522
-0.205751
-0.18556
-0.174662
-0.161794
-0.155488
-0.146965
-0.143383
-0.137647
-0.135751
-0.131866
-0.130993
-0.128323
-0.12798
-0.12603
-0.125798
-0.124123
-0.123586
-0.121736
-0.12043
-0.117894
-0.212511
-0.191657
-0.1804
-0.167109
-0.160596
-0.151792
-0.148093
-0.142168
-0.14021
-0.136197
-0.135294
-0.132536
-0.132183
-0.130168
-0.129929
-0.128199
-0.127643
-0.125733
-0.124384
-0.121765
-0.218345
-0.196919
-0.185353
-0.171698
-0.165006
-0.155961
-0.15216
-0.146072
-0.14406
-0.139938
-0.139011
-0.136177
-0.135814
-0.133744
-0.133498
-0.131721
-0.13115
-0.129187
-0.127802
-0.125111
-0.223261
-0.201352
-0.189525
-0.175562
-0.168719
-0.15947
-0.155584
-0.149359
-0.147302
-0.143086
-0.142138
-0.13924
-0.138869
-0.136752
-0.136501
-0.134683
-0.1341
-0.132093
-0.130676
-0.127924
-0.227204
-0.204908
-0.192873
-0.178664
-0.1717
-0.162288
-0.158333
-0.151998
-0.149905
-0.145615
-0.14465
-0.141702
-0.141324
-0.13917
-0.138914
-0.137065
-0.136471
-0.134428
-0.132986
-0.130186
-0.230191
-0.207601
-0.195408
-0.181011
-0.173956
-0.16442
-0.160412
-0.153994
-0.151873
-0.147527
-0.146549
-0.143562
-0.143179
-0.140996
-0.140737
-0.138863
-0.138262
-0.136192
-0.134731
-0.131894
-0.232174
-0.209391
-0.197093
-0.182572
-0.175456
-0.165838
-0.161797
-0.155323
-0.153184
-0.148801
-0.147815
-0.144802
-0.144416
-0.142214
-0.141953
-0.140063
-0.139456
-0.137369
-0.135896
-0.133034
-0.233182
-0.210299
-0.197947
-0.183363
-0.176216
-0.166556
-0.162497
-0.155995
-0.153847
-0.149444
-0.148453
-0.145427
-0.145039
-0.142828
-0.142565
-0.140667
-0.140058
-0.137962
-0.136482
-0.133608
)
;

boundaryField
{
    out
    {
        type            implicitExtrapolation;
    }
    in
    {
        type            implicitExtrapolation;
    }
    frontAndBack
    {
        type            empty;
    }
}


// ************************************************************************* //
