/*--------------------------------*- C++ -*----------------------------------*\
| =========                 |                                                 |
| \\      /  F ield         | foam-extend: Open Source CFD                    |
|  \\    /   O peration     | Version:  3.0                                   |
|   \\  /    A nd           | Web:         http://www.extend-project.de       |
|    \\/     M anipulation  |                                                 |
\*---------------------------------------------------------------------------*/
FoamFile
{
    version     2.0;
    format      ascii;
    class       volVectorField;
    location    "32";
    object      u;
}
// * * * * * * * * * * * * * * * * * * * * * * * * * * * * * * * * * * * * * //

dimensions      [0 0 0 0 0 0 0];

internalField   nonuniform List<vector> 
7680
(
(0.110361 -0.0334902 3.93672e-17)
(0.157913 -0.0239907 4.28856e-17)
(0.318284 -0.0221653 -3.36132e-17)
(0.345999 -0.0180569 3.15977e-17)
(0.46794 -0.0172092 -1.42364e-17)
(0.484063 -0.0142661 1.63639e-17)
(0.579427 -0.0137752 -5.85119e-18)
(0.587738 -0.011681 -1.04376e-17)
(0.66462 -0.011386 -1.66984e-17)
(0.667304 -0.00989297 -1.51921e-17)
(0.731051 -0.0097528 -1.55589e-17)
(0.729598 -0.00868559 2.14094e-17)
(0.783777 -0.00867667 -2.96831e-17)
(0.779243 -0.00792153 2.26664e-17)
(0.826333 -0.00801557 -8.92578e-18)
(0.819463 -0.00749075 3.48854e-17)
(0.861262 -0.00765456 -2.97908e-17)
(0.852584 -0.00728826 5.04857e-17)
(0.890449 -0.00748343 -3.27288e-17)
(0.88035 -0.00719899 3.54845e-17)
(0.915339 -0.00737351 -3.43658e-17)
(0.904127 -0.00707339 3.47635e-17)
(0.937091 -0.00714444 -3.02475e-17)
(0.925041 -0.00668986 4.69775e-17)
(0.956677 -0.00651363 -3.49853e-17)
(0.944064 -0.00569929 3.51983e-17)
(0.974942 -0.00502321 -1.69198e-17)
(0.962058 -0.00355541 2.44555e-17)
(0.992601 -0.00194975 -1.80278e-17)
(0.979743 0.000542457 1.11173e-17)
(1.01016 0.00377273 -1.00581e-17)
(0.997512 0.00761142 7.37419e-18)
(1.02761 0.0134722 -7.72296e-18)
(1.01492 0.0184333 4.24612e-18)
(1.04379 0.0280664 6.10267e-18)
(1.02949 0.0316026 -4.26291e-18)
(1.05491 0.0458956 1.41088e-17)
(1.03349 0.0373706 -1.52487e-17)
(1.0518 0.0575451 1.5844e-17)
(1.0071 -0.00762361 -1.68037e-17)
(0.114269 -0.0954151 -5.03329e-17)
(0.161473 -0.0828607 -6.69358e-17)
(0.321919 -0.0771398 3.46229e-17)
(0.349265 -0.0645989 -4.0861e-17)
(0.471254 -0.060983 -1.30409e-17)
(0.487084 -0.0515733 5.49535e-18)
(0.582467 -0.0489756 9.63719e-18)
(0.590548 -0.0420201 3.25721e-17)
(0.667428 -0.0400268 4.40177e-17)
(0.669921 -0.0348308 4.86028e-17)
(0.733641 -0.033296 1.42857e-17)
(0.73201 -0.0293518 -1.29283e-18)
(0.786136 -0.0281838 1.71187e-17)
(0.781418 -0.0251616 -3.25439e-18)
(0.828422 -0.0242804 -2.89099e-17)
(0.821349 -0.0219666 -3.59463e-17)
(0.863024 -0.0213024 4.04062e-17)
(0.854111 -0.0195446 -8.76962e-17)
(0.891813 -0.0190361 7.05526e-17)
(0.881437 -0.0177066 -7.58944e-17)
(0.916225 -0.017295 5.2978e-17)
(0.904686 -0.0162652 -6.15625e-17)
(0.937418 -0.0158805 4.12037e-17)
(0.924988 -0.0149974 -8.03002e-17)
(0.956377 -0.0145354 3.92378e-17)
(0.943345 -0.0135898 -4.71857e-17)
(0.973989 -0.0128673 2.2903e-18)
(0.960699 -0.0115533 -2.58447e-17)
(0.991063 -0.0102216 -3.55608e-18)
(0.977925 -0.00810192 1.11611e-18)
(1.00824 -0.00549521 -1.10843e-18)
(0.995651 -0.00201762 4.48057e-18)
(1.02558 0.00308729 4.90543e-18)
(1.01363 0.00838106 -8.75178e-18)
(1.04141 0.0181872 1.20223e-18)
(1.02915 0.0245172 -1.34252e-17)
(1.04984 0.0437501 2.0714e-17)
(1.0345 0.0444252 -4.01781e-18)
(1.03882 0.0818064 -7.55214e-18)
(1.01789 0.0719859 3.42429e-17)
(0.122814 -0.160002 5.69683e-17)
(0.168005 -0.130986 6.07151e-17)
(0.327541 -0.121918 -7.05755e-17)
(0.353626 -0.10206 9.55454e-17)
(0.475024 -0.0966823 -3.83105e-18)
(0.489894 -0.0818316 -1.74475e-17)
(0.584842 -0.0779736 -4.81768e-17)
(0.592192 -0.0669822 -1.80269e-17)
(0.668723 -0.0639856 -8.46013e-17)
(0.670643 -0.0557582 -7.04302e-17)
(0.734076 -0.0534188 -2.64933e-17)
(0.731983 -0.0471602 -5.19884e-18)
(0.785866 -0.0453504 -6.75805e-18)
(0.780768 -0.0405498 -1.0675e-17)
(0.827564 -0.0391473 6.84802e-17)
(0.820168 -0.0354747 5.12498e-17)
(0.861659 -0.0343718 -3.98729e-17)
(0.852461 -0.0315956 1.20206e-16)
(0.889991 -0.0307073 -1.10336e-16)
(0.879351 -0.0286451 9.54524e-17)
(0.913972 -0.0279037 -6.18059e-17)
(0.902175 -0.0263898 9.89189e-17)
(0.934745 -0.0257295 -7.23942e-17)
(0.922059 -0.0245805 1.22672e-16)
(0.953307 -0.0239106 -4.43206e-17)
(0.940034 -0.0228827 8.75105e-17)
(0.970599 -0.0220406 -1.45006e-17)
(0.957142 -0.0207697 4.81309e-17)
(0.987588 -0.0194287 7.33325e-18)
(0.974545 -0.017345 7.34403e-19)
(1.00532 -0.0148283 -3.67575e-18)
(0.99365 -0.0110263 1.16597e-17)
(1.02492 -0.0059859 -4.82693e-18)
(1.01627 0.000941212 5.33902e-18)
(1.04712 0.0108843 6.94267e-19)
(1.04467 0.0222404 -7.66629e-18)
(1.06977 0.0403553 6.50435e-18)
(1.08065 0.0512957 -1.74845e-17)
(1.07146 0.0773087 2.14346e-17)
(1.14553 0.0772188 -2.96226e-17)
(0.134821 -0.220868 -3.14701e-17)
(0.178831 -0.188586 -1.13996e-16)
(0.337892 -0.175659 2.20466e-16)
(0.362534 -0.147544 -2.35026e-16)
(0.483641 -0.139442 6.1122e-17)
(0.497407 -0.118258 3.1294e-17)
(0.592121 -0.112327 7.88076e-17)
(0.598622 -0.0965709 2.91481e-17)
(0.674938 -0.091903 4.57475e-17)
(0.676183 -0.0800475 5.51986e-17)
(0.739408 -0.0763369 8.67328e-17)
(0.73675 -0.0672634 -3.09691e-17)
(0.790422 -0.064316 8.91033e-18)
(0.784822 -0.0573034 8.66242e-18)
(0.831389 -0.0549447 -8.55675e-17)
(0.823521 -0.0495324 -4.96159e-18)
(0.864753 -0.0476166 -2.3357e-18)
(0.855086 -0.0434929 -1.24807e-16)
(0.892318 -0.0419119 1.45339e-16)
(0.881186 -0.0388472 -1.29769e-16)
(0.915462 -0.0375288 7.27243e-17)
(0.903122 -0.0353353 -1.21717e-16)
(0.935294 -0.0342353 7.11295e-17)
(0.921978 -0.0327326 -8.91191e-17)
(0.952775 -0.0318208 -1.35899e-17)
(0.938746 -0.0307951 -5.89835e-17)
(0.968821 -0.0300307 -2.95082e-17)
(0.954439 -0.0291768 -1.63383e-17)
(0.984402 -0.0284596 -4.60404e-17)
(0.970223 -0.027304 2.12539e-17)
(1.00063 -0.0264043 -3.14422e-18)
(0.987577 -0.0241607 -5.82096e-18)
(1.01883 -0.0226776 -4.39308e-17)
(1.00849 -0.0177553 9.92142e-17)
(1.04012 -0.0151781 -7.66558e-17)
(1.03537 -0.0032524 3.94828e-17)
(1.06293 0.00116569 2.5344e-17)
(1.0683 0.0409431 -2.63314e-17)
(1.06961 0.00643931 1.59185e-17)
(1.1008 0.349144 -2.59798e-17)
(0.151629 -0.283619 7.12845e-18)
(0.191971 -0.235594 3.20627e-17)
(0.349716 -0.219448 -3.61393e-16)
(0.372122 -0.184202 3.36098e-16)
(0.492395 -0.17439 -7.45483e-17)
(0.504474 -0.147892 -9.21576e-17)
(0.598569 -0.140726 -1.2659e-16)
(0.603801 -0.121021 6.49369e-18)
(0.679624 -0.115361 -2.08404e-17)
(0.679895 -0.100532 -3.66412e-17)
(0.742714 -0.0960145 -1.01632e-16)
(0.739287 -0.0846592 1.31654e-17)
(0.792614 -0.0810535 5.32097e-17)
(0.786389 -0.0722728 -3.75227e-17)
(0.83265 -0.0693618 1.2017e-16)
(0.824255 -0.0625828 -7.60588e-17)
(0.865197 -0.0601829 7.08788e-17)
(0.85506 -0.0550181 2.06196e-17)
(0.891994 -0.0529952 -4.24893e-17)
(0.880406 -0.049164 4.23801e-17)
(0.914351 -0.0474326 1.25559e-17)
(0.90152 -0.0447132 1.29485e-16)
(0.933302 -0.043227 -6.89642e-17)
(0.919395 -0.0414184 5.8898e-17)
(0.949708 -0.0401571 4.95546e-17)
(0.934888 -0.0390338 6.13375e-17)
(0.964343 -0.0379812 1.07949e-17)
(0.948804 -0.0372309 1.63834e-17)
(0.977939 -0.0363272 9.48644e-17)
(0.961916 -0.0354503 -3.08851e-17)
(0.991159 -0.0344975 3.47115e-17)
(0.974852 -0.0325847 1.86172e-17)
(1.00432 -0.0311561 -3.92249e-17)
(0.987557 -0.0261954 2.93681e-17)
(1.01649 -0.0237803 1.75545e-18)
(0.997757 -0.0106173 -2.50393e-17)
(1.02346 -0.007811 -2.97528e-18)
(0.997402 0.03296 -3.20643e-17)
(1.02227 -0.00692038 3.71683e-17)
(0.945687 0.30329 3.29181e-17)
(0.171557 -0.342375 4.4185e-17)
(0.209833 -0.291009 1.01255e-16)
(0.366596 -0.271113 4.05629e-16)
(0.386531 -0.227912 -2.64606e-16)
(0.50618 -0.215463 5.52426e-17)
(0.516367 -0.182866 1.1848e-16)
(0.609977 -0.173696 1.79912e-16)
(0.613764 -0.149403 -5.43076e-17)
(0.689166 -0.142127 -8.17046e-18)
(0.688302 -0.123804 1.02844e-17)
(0.75074 -0.11796 2.40183e-16)
(0.746385 -0.103895 -1.15645e-16)
(0.799355 -0.0991867 6.96663e-17)
(0.792338 -0.0882771 -1.12985e-16)
(0.838247 -0.0844338 -4.17982e-17)
(0.829146 -0.0759786 -7.58471e-17)
(0.86972 -0.0727733 1.31774e-16)
(0.858923 -0.066305 -1.28008e-16)
(0.895454 -0.0635743 1.24119e-16)
(0.883214 -0.0587629 -6.36169e-17)
(0.916704 -0.0564067 7.69417e-18)
(0.903181 -0.0530066 -1.4242e-16)
(0.934436 -0.0509827 3.51486e-17)
(0.919739 -0.0487923 2.37224e-17)
(0.949436 -0.0471073 -1.26141e-16)
(0.933645 -0.0459233 2.44531e-17)
(0.962385 -0.044612 -6.82681e-17)
(0.945571 -0.0441657 1.17647e-18)
(0.97391 -0.043234 -1.23914e-16)
(0.956125 -0.043081 1.03326e-19)
(0.98459 -0.0423619 -1.1712e-16)
(0.965761 -0.0416066 5.63231e-17)
(0.994833 -0.0404729 -9.53231e-17)
(0.974382 -0.0368864 8.93343e-17)
(1.00443 -0.0337383 -1.53368e-16)
(0.980161 -0.0213022 7.71136e-17)
(1.01143 -0.0126147 1.90647e-17)
(0.975144 0.0293505 -4.36291e-17)
(1.0168 0.0130207 -1.38264e-17)
(0.900141 0.335216 -4.69554e-17)
(0.196303 -0.402231 -4.44711e-17)
(0.22937 -0.33602 -2.30187e-16)
(0.38442 -0.313083 -2.87158e-16)
(0.40118 -0.26307 9.48551e-17)
(0.519764 -0.248994 -2.22646e-17)
(0.527559 -0.211306 2.34322e-17)
(0.620379 -0.200948 -2.03146e-16)
(0.622377 -0.172863 1.24422e-16)
(0.697146 -0.164623 4.52701e-17)
(0.69492 -0.143434 -8.90323e-17)
(0.756838 -0.136795 -2.05098e-16)
(0.751416 -0.120521 5.87789e-17)
(0.803945 -0.11515 2.71792e-17)
(0.796069 -0.102515 1.67533e-16)
(0.841581 -0.0980987 4.3905e-17)
(0.831764 -0.0882937 1.20221e-18)
(0.871956 -0.0845665 -4.72982e-17)
(0.86053 -0.0770505 -1.23216e-18)
(0.896662 -0.0738179 -6.90457e-17)
(0.88382 -0.0682109 -9.24355e-18)
(0.916856 -0.0653496 -2.00154e-17)
(0.902692 -0.0613732 6.28297e-17)
(0.933393 -0.0588233 2.54463e-17)
(0.91792 -0.0562595 -3.27186e-17)
(0.946903 -0.0540144 7.55149e-17)
(0.930058 -0.0526653 -6.27435e-17)
(0.957844 -0.0507494 1.00686e-16)
(0.939473 -0.0503844 -5.83006e-17)
(0.966511 -0.0487879 2.06225e-16)
(0.946302 -0.0490615 -3.95261e-17)
(0.973009 -0.0475693 2.41247e-16)
(0.950312 -0.0478202 -6.0205e-17)
(0.977154 -0.0456828 5.08728e-17)
(0.95057 -0.0442436 -3.3331e-19)
(0.978399 -0.0396478 8.60738e-17)
(0.945027 -0.0319174 -5.85718e-17)
(0.976196 -0.0207367 5.03781e-17)
(0.929534 0.00943241 -7.26383e-17)
(0.979964 0.00792886 1.75149e-16)
(0.85973 0.263929 -2.81115e-17)
(0.223806 -0.457875 1.57416e-16)
(0.253938 -0.388383 1.05705e-16)
(0.40753 -0.361872 3.4202e-16)
(0.420841 -0.304329 1.27241e-16)
(0.538489 -0.287745 -1.68705e-17)
(0.543643 -0.244289 -2.51551e-16)
(0.635745 -0.232027 2.06985e-16)
(0.635732 -0.199604 -2.31463e-16)
(0.709892 -0.189829 2.56953e-17)
(0.7061 -0.165337 -1.99291e-17)
(0.767483 -0.157435 2.60463e-16)
(0.7608 -0.138596 -2.79797e-16)
(0.812846 -0.132172 1.07778e-16)
(0.803919 -0.117519 -3.4166e-16)
(0.848976 -0.1122 4.29612e-17)
(0.838257 -0.100799 -9.90448e-17)
(0.877995 -0.0962736 1.27465e-16)
(0.865766 -0.087502 -1.25873e-16)
(0.901421 -0.0835359 1.27395e-16)
(0.88783 -0.0769595 9.57755e-18)
(0.920344 -0.0733981 -2.16762e-17)
(0.905437 -0.0687047 -2.19768e-18)
(0.935545 -0.0654618 -5.18031e-17)
(0.919274 -0.0624158 8.90063e-17)
(0.947569 -0.0594568 -6.48227e-17)
(0.929794 -0.0578586 2.46073e-17)
(0.956771 -0.0551632 -8.33096e-17)
(0.937231 -0.0548 9.95434e-17)
(0.963332 -0.0522622 -3.33711e-16)
(0.941578 -0.05284 3.30531e-17)
(0.967257 -0.0500164 -2.14283e-16)
(0.942491 -0.0509985 5.38242e-17)
(0.968375 -0.0466283 -6.49459e-18)
(0.939108 -0.0466757 -1.21823e-17)
(0.966462 -0.0379582 -6.55428e-17)
(0.929962 -0.0334533 6.62348e-17)
(0.961949 -0.0149213 1.9927e-17)
(0.913114 0.00557261 -3.5021e-17)
(0.966532 0.0203189 4.45101e-18)
(0.855134 0.205423 -2.06505e-16)
(0.256047 -0.513829 -1.71824e-16)
(0.279549 -0.430563 -1.49581e-16)
(0.431056 -0.401235 -3.08972e-16)
(0.440304 -0.337324 -5.17072e-16)
(0.556666 -0.319224 -4.77362e-17)
(0.558764 -0.270994 4.19399e-16)
(0.649911 -0.257613 -1.48626e-16)
(0.647616 -0.221623 2.84136e-16)
(0.721013 -0.21093 6.76289e-17)
(0.715488 -0.183733 -1.18757e-16)
(0.776244 -0.175065 -7.89554e-17)
(0.768214 -0.154131 2.15791e-16)
(0.819729 -0.147054 -1.60505e-17)
(0.80973 -0.130753 2.4516e-16)
(0.854314 -0.124858 1.79444e-16)
(0.842716 -0.112151 -1.03975e-16)
(0.882005 -0.107082 1.45004e-16)
(0.869027 -0.0972768 -8.4352e-17)
(0.904219 -0.0927652 9.7501e-17)
(0.889952 -0.0853773 -4.6765e-17)
(0.92195 -0.0812357 -1.88181e-17)
(0.906372 -0.0759179 3.69367e-17)
(0.935868 -0.0720262 -5.42836e-17)
(0.918852 -0.0685259 -3.1096e-17)
(0.946382 -0.0648118 1.76803e-17)
(0.927684 -0.0629369 3.4548e-17)
(0.95368 -0.0593342 -7.50996e-17)
(0.93291 -0.0589265 2.53172e-16)
(0.957755 -0.0552663 7.66795e-18)
(0.93433 -0.0561842 1.82165e-16)
(0.958464 -0.051929 5.76688e-17)
(0.931539 -0.0540024 -4.3546e-17)
(0.955737 -0.0477692 4.80791e-17)
(0.924109 -0.0504489 -7.15952e-17)
(0.950188 -0.039395 5.88474e-17)
(0.912393 -0.0406957 -6.02077e-17)
(0.944813 -0.019648 4.97019e-17)
(0.899471 -0.0124978 -1.76154e-16)
(0.955164 0.0118792 3.19543e-16)
(0.867072 0.121773 -1.01427e-16)
(0.290658 -0.565416 4.41375e-16)
(0.310381 -0.479056 1.98171e-16)
(0.459994 -0.44639 4.23445e-16)
(0.46488 -0.375491 7.72059e-16)
(0.580022 -0.355053 2.50157e-16)
(0.578782 -0.301475 -4.41566e-16)
(0.668998 -0.286322 6.35338e-17)
(0.664171 -0.246312 -3.60545e-16)
(0.736788 -0.234188 -1.82608e-16)
(0.729304 -0.203929 3.02873e-16)
(0.789389 -0.194082 3.14765e-17)
(0.779799 -0.170768 -1.22106e-16)
(0.830723 -0.162702 9.02622e-17)
(0.819449 -0.144522 -3.27767e-16)
(0.863494 -0.137768 -5.64832e-17)
(0.850833 -0.123566 1.59799e-17)
(0.889606 -0.117719 -1.32676e-16)
(0.875725 -0.106719 -2.1136e-17)
(0.9104 -0.101463 -7.50163e-17)
(0.895347 -0.093123 6.91684e-17)
(0.926804 -0.0882233 3.97297e-17)
(0.91052 -0.0821513 2.6598e-17)
(0.939427 -0.0774391 2.68001e-17)
(0.92175 -0.0733477 1.0421e-16)
(0.948624 -0.068687 -1.75019e-16)
(0.929274 -0.0663635 2.42682e-16)
(0.954524 -0.0615974 -1.61016e-16)
(0.933085 -0.060891 6.72578e-18)
(0.957081 -0.0557142 -2.64843e-16)
(0.932982 -0.0565634 1.31982e-16)
(0.956167 -0.05024 -2.15587e-16)
(0.928684 -0.052735 2.14439e-16)
(0.951877 -0.0436458 -2.61149e-16)
(0.920191 -0.0479218 3.24109e-16)
(0.945355 -0.0332063 -2.86542e-16)
(0.908908 -0.0389024 1.95432e-16)
(0.940778 -0.014433 -1.15852e-16)
(0.9004 -0.0192408 5.07887e-17)
(0.954297 0.0109348 -5.3453e-17)
(0.88989 0.0501513 -2.61937e-16)
(0.329822 -0.616535 -7.9323e-16)
(0.341645 -0.517627 -4.56123e-16)
(0.488822 -0.482413 -3.62536e-16)
(0.488827 -0.405704 -9.24205e-16)
(0.602475 -0.38389 -3.01597e-16)
(0.597563 -0.325941 2.3449e-16)
(0.68667 -0.309761 -4.82779e-17)
(0.679104 -0.266475 4.5311e-16)
(0.750834 -0.253501 2.69238e-16)
(0.741276 -0.220749 -3.37422e-16)
(0.800635 -0.210182 -1.20515e-16)
(0.78944 -0.184928 -9.58069e-17)
(0.839757 -0.176241 -5.77863e-18)
(0.827218 -0.156524 1.03593e-16)
(0.87073 -0.149209 9.88375e-17)
(0.857057 -0.133775 -4.1701e-17)
(0.895336 -0.127388 1.8209e-16)
(0.880629 -0.115396 -1.01656e-17)
(0.914816 -0.109582 2.36137e-16)
(0.899071 -0.100439 -2.46576e-16)
(0.930014 -0.0949276 3.27849e-17)
(0.913129 -0.0882039 -9.59438e-17)
(0.941464 -0.0827853 -4.0234e-17)
(0.923235 -0.078171 -8.87741e-18)
(0.949445 -0.07266 -1.12396e-16)
(0.929566 -0.0699426 1.09809e-16)
(0.954034 -0.0641265 -2.11529e-16)
(0.932089 -0.0631995 3.35184e-16)
(0.955173 -0.0567128 -1.36425e-16)
(0.93068 -0.0576587 5.11584e-18)
(0.952853 -0.0497165 3.747e-17)
(0.925371 -0.0529786 -3.39757e-18)
(0.947556 -0.0419995 -2.21157e-17)
(0.91693 -0.0484655 -5.57576e-19)
(0.941325 -0.0319384 3.68245e-18)
(0.908243 -0.0426755 9.5752e-18)
(0.939831 -0.0176011 9.97756e-17)
(0.907188 -0.033689 -1.4419e-16)
(0.958256 0.000448773 2.99253e-16)
(0.920675 -0.0218248 -3.22692e-17)
(0.370958 -0.663192 6.95508e-16)
(0.378193 -0.561493 4.52098e-16)
(0.523088 -0.52323 3.30253e-16)
(0.517898 -0.440187 7.73117e-16)
(0.630074 -0.416237 1.70932e-16)
(0.621191 -0.353447 1.92438e-16)
(0.709179 -0.335651 -8.5727e-17)
(0.698609 -0.288727 -2.16835e-16)
(0.769412 -0.274448 -3.72304e-16)
(0.757542 -0.238924 3.67656e-16)
(0.816113 -0.22728 -4.82838e-18)
(0.803094 -0.19987 3.99667e-16)
(0.85273 -0.190274 -4.56059e-17)
(0.838724 -0.168849 7.66941e-17)
(0.881632 -0.160738 4.70495e-17)
(0.866766 -0.143936 1.11254e-16)
(0.904487 -0.136812 -2.25995e-16)
(0.88881 -0.123714 8.0372e-17)
(0.922464 -0.117176 -2.13495e-16)
(0.905937 -0.107126 3.28012e-16)
(0.936353 -0.100853 -8.14655e-17)
(0.918854 -0.0933707 9.462e-17)
(0.946656 -0.0870955 3.01693e-17)
(0.927978 -0.081828 1.83768e-16)
(0.953639 -0.0752978 -1.73462e-16)
(0.933491 -0.0719998 1.83202e-16)
(0.957386 -0.0649192 -1.2772e-16)
(0.935412 -0.0634867 -2.22925e-18)
(0.957888 -0.0553979 -1.28139e-16)
(0.933735 -0.0560005 1.66724e-16)
(0.955246 -0.0460525 -1.42282e-16)
(0.928747 -0.0494195 2.89634e-17)
(0.950166 -0.0360928 -1.25394e-17)
(0.921662 -0.0438027 1.88796e-16)
(0.945074 -0.0250779 -3.03552e-16)
(0.916013 -0.0395895 1.96474e-16)
(0.946126 -0.0139624 -1.78592e-16)
(0.920582 -0.0395982 1.02012e-16)
(0.966501 -0.00427196 -2.32273e-16)
(0.954472 -0.0789925 -1.60103e-16)
(0.416359 -0.708631 -1.78503e-16)
(0.41459 -0.595747 -2.38535e-16)
(0.556732 -0.555247 -3.01495e-16)
(0.545922 -0.467055 -4.95609e-16)
(0.656413 -0.441897 -3.28208e-16)
(0.643299 -0.375218 -3.90812e-16)
(0.730038 -0.356511 8.19786e-17)
(0.716313 -0.306663 1.29361e-16)
(0.786116 -0.291622 7.64617e-17)
(0.771863 -0.253864 -3.18127e-18)
(0.829619 -0.241569 -8.81839e-17)
(0.814765 -0.212412 -4.85064e-16)
(0.863725 -0.202246 -8.52205e-17)
(0.848287 -0.17943 -3.20708e-16)
(0.890617 -0.170796 -5.34793e-17)
(0.874628 -0.15287 -3.65809e-16)
(0.911832 -0.145238 3.22833e-16)
(0.895279 -0.131219 -3.381e-16)
(0.928447 -0.124153 2.96401e-16)
(0.91125 -0.11334 -4.94547e-16)
(0.941191 -0.106484 1.54096e-16)
(0.923206 -0.0983609 -1.41183e-16)
(0.950531 -0.0914114 -4.98087e-17)
(0.931552 -0.085594 -1.06164e-17)
(0.956725 -0.0782572 -8.32831e-17)
(0.936495 -0.074489 2.52523e-16)
(0.959894 -0.0664289 -1.93908e-16)
(0.938148 -0.0646242 2.10605e-16)
(0.96013 -0.0553558 4.86606e-17)
(0.936709 -0.05578 -6.08229e-17)
(0.957732 -0.0444709 1.22455e-16)
(0.932822 -0.0481042 -1.04047e-17)
(0.953725 -0.033388 -2.56056e-17)
(0.928224 -0.0423452 -1.01593e-16)
(0.950939 -0.0226798 2.93818e-16)
(0.926966 -0.0403784 -2.96443e-16)
(0.955675 -0.0153369 2.86824e-16)
(0.937976 -0.0481264 -2.54762e-16)
(0.977736 -0.0118794 3.37988e-16)
(0.990463 -0.126306 3.25287e-17)
(0.463332 -0.749567 5.06294e-17)
(0.456215 -0.634304 1.80896e-16)
(0.595736 -0.591092 2.22168e-16)
(0.578991 -0.497319 3.67201e-16)
(0.687792 -0.470256 4.78224e-16)
(0.67015 -0.399319 3.57371e-16)
(0.755607 -0.379173 1.26674e-18)
(0.738465 -0.326127 1.73136e-16)
(0.807214 -0.309926 -4.6447e-17)
(0.790341 -0.269732 1.85536e-17)
(0.847212 -0.256479 8.39985e-17)
(0.830306 -0.225424 4.70291e-16)
(0.878513 -0.214448 3.4442e-16)
(0.861444 -0.190127 4.59919e-16)
(0.903118 -0.180781 4.45241e-17)
(0.88583 -0.161642 5.43934e-16)
(0.922448 -0.153348 -4.59464e-16)
(0.904875 -0.13834 5.76143e-16)
(0.937508 -0.130616 -2.4455e-16)
(0.919543 -0.11898 4.2482e-16)
(0.94899 -0.111428 -1.11524e-16)
(0.930484 -0.102595 1.35966e-16)
(0.957352 -0.0948642 -8.52213e-17)
(0.938119 -0.0884078 8.51013e-17)
(0.962876 -0.0801547 2.09751e-17)
(0.942713 -0.0757789 -2.69259e-16)
(0.965742 -0.0666207 2.31947e-16)
(0.944485 -0.0642299 -2.72682e-16)
(0.966138 -0.053655 5.88546e-17)
(0.943798 -0.0535651 -1.72682e-16)
(0.964482 -0.0407744 7.93556e-17)
(0.941519 -0.0441603 -2.01267e-16)
(0.961918 -0.0279648 1.4641e-16)
(0.939599 -0.0373855 8.89535e-18)
(0.961285 -0.0167551 -1.43841e-16)
(0.942064 -0.0364053 2.64661e-16)
(0.968508 -0.0120245 -2.26821e-16)
(0.957422 -0.0498133 1.92131e-16)
(0.990176 -0.0146987 -1.338e-16)
(1.02448 -0.157084 -2.17261e-16)
(0.514183 -0.78858 -4.75181e-16)
(0.49714 -0.663612 1.74302e-17)
(0.633628 -0.618511 -3.41234e-16)
(0.610614 -0.520342 -2.45723e-16)
(0.717562 -0.492266 -4.36132e-16)
(0.695196 -0.417993 -3.20746e-16)
(0.779278 -0.397075 -2.13561e-16)
(0.758615 -0.341512 -1.14905e-16)
(0.826264 -0.324658 -4.92615e-16)
(0.806735 -0.282535 2.7641e-16)
(0.862713 -0.268716 -3.33552e-16)
(0.843769 -0.236146 -2.61614e-16)
(0.891243 -0.224671 -7.20102e-16)
(0.872595 -0.199134 -4.39177e-16)
(0.913655 -0.189329 -2.20882e-16)
(0.89515 -0.169202 -2.68805e-16)
(0.931237 -0.16046 3.66489e-16)
(0.912748 -0.144638 -5.31143e-16)
(0.944909 -0.136453 3.87943e-16)
(0.926297 -0.124135 -5.08007e-16)
(0.955319 -0.116086 2.67241e-16)
(0.936429 -0.10667 -2.36579e-16)
(0.96292 -0.0983823 1.66672e-16)
(0.943588 -0.0914103 -9.41002e-17)
(0.968029 -0.0825197 7.61162e-17)
(0.948117 -0.0776753 8.64881e-17)
(0.970909 -0.0677862 2.18232e-17)
(0.950366 -0.0649607 1.85021e-17)
(0.971872 -0.0535706 1.92704e-16)
(0.950902 -0.053107 -3.37652e-17)
(0.971487 -0.0394722 1.60006e-16)
(0.95082 -0.042645 -9.53003e-17)
(0.970999 -0.0257366 1.80271e-16)
(0.952208 -0.0353224 -1.64251e-16)
(0.973119 -0.0144688 1.63051e-16)
(0.958825 -0.0350163 -2.06216e-16)
(0.98302 -0.0115799 1.04511e-16)
(0.978087 -0.0515723 -1.602e-16)
(1.00348 -0.0175948 3.83257e-17)
(1.05516 -0.174164 6.87942e-18)
(0.566206 -0.823104 6.36368e-16)
(0.543117 -0.696264 -1.09677e-17)
(0.6767 -0.648828 2.22296e-16)
(0.647118 -0.545916 4.21315e-16)
(0.752192 -0.516193 2.62433e-16)
(0.724822 -0.438312 5.17334e-16)
(0.807489 -0.416152 1.00098e-16)
(0.783058 -0.357881 2.92688e-16)
(0.849548 -0.340026 4.06772e-16)
(0.827141 -0.295841 -1.06794e-16)
(0.882153 -0.281199 1.43344e-16)
(0.860965 -0.247024 3.83653e-16)
(0.907629 -0.234854 6.74705e-16)
(0.887212 -0.208044 5.67237e-16)
(0.927577 -0.19763 2.36322e-16)
(0.907682 -0.176477 1.02816e-16)
(0.943162 -0.167172 -4.12072e-16)
(0.923607 -0.150512 4.7177e-16)
(0.955232 -0.141777 -3.96919e-16)
(0.935853 -0.128761 2.28292e-16)
(0.964405 -0.120142 1.11674e-17)
(0.945046 -0.110125 2.06304e-17)
(0.971138 -0.101222 6.83523e-17)
(0.951667 -0.0937069 -1.07858e-16)
(0.975794 -0.0841346 9.31571e-17)
(0.956129 -0.078766 -2.99602e-16)
(0.978705 -0.0681205 1.92665e-16)
(0.958898 -0.0647637 -3.05187e-16)
(0.980283 -0.0525636 4.93873e-17)
(0.960671 -0.0515541 -1.90638e-16)
(0.98116 -0.0371253 9.61411e-17)
(0.962653 -0.03978 -1.77818e-16)
(0.982523 -0.022245 1.22483e-16)
(0.966855 -0.0314452 -3.51648e-16)
(0.986741 -0.0104447 2.87615e-16)
(0.976485 -0.0308503 -1.25273e-16)
(0.998005 -0.00832281 2.70786e-17)
(0.997618 -0.0484418 1.94863e-16)
(1.01601 -0.0171021 -9.55953e-17)
(1.07938 -0.176012 1.90621e-16)
(0.621633 -0.855054 -6.69416e-16)
(0.587888 -0.720085 2.78626e-16)
(0.718199 -0.671143 -5.47094e-16)
(0.681801 -0.564666 -1.97569e-16)
(0.784879 -0.534147 -5.86324e-16)
(0.752367 -0.453546 -2.25868e-16)
(0.833551 -0.430772 -1.19585e-16)
(0.805286 -0.370441 -3.07114e-17)
(0.870591 -0.352061 -6.86576e-16)
(0.845295 -0.306289 4.0724e-16)
(0.899347 -0.291186 -2.76437e-16)
(0.875948 -0.255758 -3.04863e-16)
(0.921828 -0.243178 -5.75133e-16)
(0.899708 -0.215358 -6.79414e-16)
(0.939426 -0.204566 -2.80049e-16)
(0.918232 -0.182589 -4.88584e-17)
(0.953165 -0.172921 3.30308e-16)
(0.932653 -0.155582 -3.22657e-16)
(0.963812 -0.146484 2.34494e-16)
(0.943785 -0.132901 -1.79354e-16)
(0.971947 -0.123912 1.36777e-16)
(0.952247 -0.113416 -2.00688e-16)
(0.978034 -0.104132 5.38491e-17)
(0.958553 -0.0962008 -8.15697e-17)
(0.982474 -0.0862369 2.0673e-16)
(0.963191 -0.0804917 -2.66926e-17)
(0.985689 -0.0694627 1.6522e-16)
(0.966741 -0.0657358 1.26581e-17)
(0.988174 -0.0531897 3.19308e-16)
(0.970025 -0.0517794 -1.95953e-16)
(0.990619 -0.0371017 3.90464e-16)
(0.974305 -0.0392695 -2.64584e-16)
(0.994096 -0.0216768 3.47019e-16)
(0.981414 -0.0302125 -6.91001e-17)
(1.00048 -0.009478 2.45762e-16)
(0.993789 -0.0288113 -4.59871e-16)
(1.01275 -0.00710502 3.74476e-16)
(1.01568 -0.0450014 -4.22358e-16)
(1.02749 -0.0160648 1.03904e-16)
(1.09587 -0.165439 -9.4248e-17)
(0.677839 -0.882579 6.88401e-16)
(0.637422 -0.746332 4.42998e-17)
(0.7646 -0.695463 1.62976e-16)
(0.721116 -0.585156 5.7777e-16)
(0.822174 -0.553268 6.1759e-16)
(0.784272 -0.469762 2.77651e-16)
(0.863934 -0.445959 -1.34102e-16)
(0.831617 -0.383451 1.3396e-16)
(0.895682 -0.364246 4.78709e-16)
(0.867297 -0.316818 -2.99423e-16)
(0.920323 -0.301039 2.28243e-16)
(0.894525 -0.264325 3.15995e-16)
(0.93955 -0.251179 4.85911e-16)
(0.915547 -0.222342 4.29733e-16)
(0.954539 -0.21106 4.37061e-16)
(0.931875 -0.188269 -2.04878e-17)
(0.966182 -0.178158 -1.87924e-16)
(0.94455 -0.160159 1.11682e-16)
(0.975165 -0.150645 -8.29126e-18)
(0.954344 -0.136526 -2.35994e-17)
(0.982037 -0.127131 7.78515e-17)
(0.96186 -0.11619 -9.34875e-17)
(0.987261 -0.106505 2.36247e-16)
(0.96764 -0.0981936 -3.49809e-16)
(0.99128 -0.0878433 1.54584e-16)
(0.972231 -0.0817526 -3.40297e-16)
(0.994565 -0.0703701 5.6184e-17)
(0.976287 -0.0662968 -2.39252e-16)
(0.997675 -0.0534774 -2.52856e-17)
(0.980697 -0.0516629 -1.31194e-16)
(1.00128 -0.0368524 -1.86935e-16)
(0.986694 -0.0384648 6.4654e-17)
(1.00626 -0.020942 -1.63708e-16)
(0.995813 -0.0285807 -1.96278e-16)
(1.01392 -0.0081792 6.91509e-17)
(1.00962 -0.0258447 2.0766e-16)
(1.02597 -0.00481753 -9.46035e-17)
(1.03043 -0.0390877 2.6363e-16)
(1.0369 -0.0133711 -1.5512e-16)
(1.10333 -0.144432 2.31488e-16)
(0.736893 -0.90695 -6.97649e-16)
(0.685294 -0.764221 -3.68127e-16)
(0.80901 -0.712261 -2.82027e-16)
(0.758269 -0.599283 -2.13576e-16)
(0.857214 -0.566838 -1.02091e-15)
(0.813833 -0.481279 -1.18226e-16)
(0.891924 -0.457038 -8.2412e-17)
(0.855523 -0.392968 -4.69214e-19)
(0.918331 -0.37338 -4.06516e-16)
(0.88687 -0.324741 2.25398e-16)
(0.938879 -0.30862 -9.68904e-18)
(0.910728 -0.270942 -5.27401e-16)
(0.954927 -0.257488 -2.19216e-16)
(0.929114 -0.22787 -3.33599e-16)
(0.967427 -0.216306 -2.30902e-16)
(0.943387 -0.192875 -4.27667e-17)
(0.977127 -0.182499 3.6885e-16)
(0.954487 -0.163978 -2.63463e-16)
(0.984629 -0.154215 3.06334e-16)
(0.963123 -0.139669 -3.83414e-16)
(0.99043 -0.130047 2.35842e-16)
(0.969885 -0.118767 -1.32791e-16)
(0.994995 -0.10889 2.28984e-17)
(0.975327 -0.100314 7.19419e-17)
(0.998785 -0.0898301 1.96951e-16)
(0.980042 -0.0835327 1.06015e-16)
(1.00232 -0.0721163 1.04409e-16)
(0.984741 -0.0678608 1.1381e-16)
(1.0062 -0.0551483 8.51805e-17)
(0.990332 -0.0531052 1.64116e-16)
(1.01103 -0.03858 1.72693e-16)
(0.997965 -0.039764 -4.12528e-17)
(1.01745 -0.0227069 1.67183e-16)
(1.0088 -0.0294047 2.1406e-16)
(1.02612 -0.00955295 6.27958e-17)
(1.02341 -0.0251184 -3.81805e-16)
(1.03739 -0.00452975 3.64949e-16)
(1.04189 -0.0338509 -3.22536e-16)
(1.044 -0.0106605 1.26796e-16)
(1.10149 -0.116192 -1.80812e-16)
(0.796344 -0.927007 9.22234e-16)
(0.737531 -0.783668 8.32822e-16)
(0.857937 -0.730213 2.20231e-16)
(0.79972 -0.614375 2.50739e-16)
(0.896536 -0.580855 8.18565e-16)
(0.847476 -0.493137 9.09023e-17)
(0.923968 -0.468093 1.6876e-16)
(0.883301 -0.402408 1.34689e-16)
(0.944811 -0.382179 1.60878e-16)
(0.910104 -0.332317 -1.53013e-16)
(0.961043 -0.315676 -5.36795e-17)
(0.930376 -0.277053 3.87241e-16)
(0.973686 -0.26317 2.81342e-16)
(0.945902 -0.232809 2.30601e-16)
(0.983466 -0.220882 4.26052e-17)
(0.957886 -0.196866 -1.23735e-17)
(0.990979 -0.186177 -3.49656e-16)
(0.967164 -0.167195 1.0736e-16)
(0.996735 -0.157157 -3.14366e-17)
(0.974381 -0.142257 9.91474e-17)
(1.00119 -0.132401 3.0323e-17)
(0.9801 -0.120858 -4.42305e-17)
(1.00478 -0.110798 1.40374e-16)
(0.984867 -0.102043 -1.86961e-16)
(1.00799 -0.0914553 -2.77149e-17)
(0.9893 -0.0850498 -3.03591e-16)
(1.01135 -0.073645 1.28009e-16)
(0.994123 -0.0693242 -3.0218e-16)
(1.01544 -0.0567889 1.21001e-16)
(1.00023 -0.0546533 -3.40103e-16)
(1.02083 -0.0405063 -7.41938e-17)
(1.00865 -0.0414097 -4.15623e-17)
(1.02785 -0.0248978 -2.21947e-16)
(1.02013 -0.0307724 -2.14262e-16)
(1.03656 -0.0114699 -1.86614e-16)
(1.0343 -0.0249264 1.75152e-16)
(1.0461 -0.00456174 -2.11874e-16)
(1.0491 -0.0285999 1.15496e-16)
(1.04851 -0.00801567 -5.80553e-17)
(1.09124 -0.0845818 2.81435e-16)
(0.85802 -0.943408 -1.06881e-15)
(0.787706 -0.795284 -8.3588e-16)
(0.904515 -0.741174 -4.93468e-16)
(0.838715 -0.623611 6.9291e-17)
(0.933332 -0.589787 -7.18917e-16)
(0.878541 -0.500728 1.3848e-16)
(0.953395 -0.475435 -3.96475e-16)
(0.908458 -0.408718 -1.16449e-16)
(0.968657 -0.388261 7.60079e-18)
(0.930732 -0.337588 2.06449e-16)
(0.980608 -0.320734 9.14892e-17)
(0.947481 -0.281458 -1.93811e-16)
(0.989928 -0.267379 -1.25655e-16)
(0.96025 -0.236483 -4.55383e-16)
(0.997105 -0.224376 1.14491e-16)
(0.970078 -0.199919 1.35786e-17)
(1.00258 -0.189067 3.35132e-16)
(0.977691 -0.169729 -2.5989e-16)
(1.00677 -0.159555 1.47745e-16)
(0.983662 -0.14438 -1.93221e-16)
(1.01005 -0.13443 5.00469e-17)
(0.988512 -0.122696 -2.33582e-18)
(1.01285 -0.112612 -1.70652e-16)
(0.992772 -0.103756 1.56451e-17)
(1.01563 -0.0932533 2.82579e-16)
(0.99704 -0.0868407 8.35402e-18)
(1.01892 -0.0756782 6.46664e-17)
(1.00203 -0.0714332 1.37435e-16)
(1.02327 -0.0593411 1.46899e-17)
(1.00858 -0.0573078 1.69866e-16)
(1.02911 -0.0438171 6.97182e-17)
(1.01753 -0.0446788 2.2384e-16)
(1.03651 -0.0289612 7.5493e-17)
(1.02923 -0.0342672 3.75507e-16)
(1.0449 -0.0156207 1.97801e-16)
(1.04233 -0.0271596 -5.69509e-17)
(1.05229 -0.00676161 1.56711e-16)
(1.05263 -0.0254508 8.66371e-19)
(1.05041 -0.00629278 -9.97297e-17)
(1.07374 -0.0526787 -8.24812e-17)
(0.919722 -0.955649 1.09022e-15)
(0.841744 -0.807644 7.82954e-16)
(0.955124 -0.752492 4.06405e-16)
(0.881588 -0.63308 1.05343e-16)
(0.974006 -0.598486 3.03019e-16)
(0.913345 -0.508043 -9.865e-18)
(0.986554 -0.482179 3.38405e-16)
(0.937211 -0.414433 8.55202e-17)
(0.996077 -0.393527 -1.23012e-16)
(0.954803 -0.34208 -1.7117e-16)
(1.00358 -0.324868 1.06309e-16)
(0.967863 -0.285 -7.13317e-17)
(1.0094 -0.270633 -5.67956e-17)
(0.977691 -0.239279 6.61678e-16)
(1.01378 -0.226938 -3.81886e-16)
(0.985159 -0.202132 1.08588e-16)
(1.01699 -0.191095 -1.36271e-16)
(0.990875 -0.1715 1.41042e-18)
(1.01934 -0.161187 2.05406e-16)
(0.99532 -0.145844 -1.09087e-16)
(1.02116 -0.135813 8.81802e-17)
(0.998963 -0.124 6.58305e-17)
(1.0228 -0.113915 9.82785e-17)
(1.00229 -0.105079 -1.70342e-16)
(1.02469 -0.0946868 1.13929e-16)
(1.00588 -0.088408 -2.62565e-16)
(1.02734 -0.0775104 3.40474e-17)
(1.01037 -0.0735092 4.36949e-17)