/*--------------------------------*- C++ -*----------------------------------*\
| =========                 |                                                 |
| \\      /  F ield         | foam-extend: Open Source CFD                    |
|  \\    /   O peration     | Version:  3.0                                   |
|   \\  /    A nd           | Web:         http://www.extend-project.de       |
|    \\/     M anipulation  |                                                 |
\*---------------------------------------------------------------------------*/
FoamFile
{
    version     2.0;
    format      ascii;
    class       volScalarField;
    location    "22";
    object      p;
}
// * * * * * * * * * * * * * * * * * * * * * * * * * * * * * * * * * * * * * //

dimensions      [0 0 0 0 0 0 0];

internalField   nonuniform List<scalar> 
120
(
-0.285239
-0.212462
-0.222041
-0.212178
-0.212326
-0.265872
-0.198026
-0.206946
-0.197744
-0.197878
-0.228245
-0.170012
-0.177678
-0.169787
-0.169907
-0.175209
-0.1305
-0.136376
-0.130311
-0.1304
-0.110092
-0.0820108
-0.0857107
-0.0819087
-0.0819686
-0.0376175
-0.0280205
-0.0292784
-0.0279749
-0.0279941
0.0375615
0.0279626
0.029219
0.0279117
0.0279267
0.110036
0.0819529
0.0856514
0.0818459
0.0819019
0.175153
0.130442
0.136317
0.130249
0.130335
0.228188
0.169954
0.177619
0.169726
0.169843
0.265814
0.197968
0.206887
0.197684
0.197816
0.28518
0.212403
0.221982
0.212119
0.212266
0.285253
0.212447
0.22202
0.212146
0.212289
0.265741
0.197925
0.206853
0.197664
0.197802
0.22826
0.169999
0.177659
0.169757
0.169873
0.175078
0.130399
0.136283
0.130231
0.130324
0.110106
0.0819959
0.0856896
0.0818763
0.0819323
0.0374849
0.0279173
0.0291822
0.0278907
0.0279139
-0.0375494
-0.0279803
-0.0292437
-0.0279491
-0.0279681
-0.11017
-0.0820586
-0.0857508
-0.0819346
-0.0819866
-0.175141
-0.130461
-0.136344
-0.13029
-0.130379
-0.228322
-0.17006
-0.177719
-0.169815
-0.169928
-0.265802
-0.197986
-0.206912
-0.197722
-0.197858
-0.285313
-0.212507
-0.222079
-0.212204
-0.212347
)
;

boundaryField
{
    out
    {
        type            implicitExtrapolation;
    }
    in
    {
        type            implicitExtrapolation;
    }
    frontAndBack
    {
        type            empty;
    }
}


// ************************************************************************* //
