/*--------------------------------*- C++ -*----------------------------------*\
| =========                 |                                                 |
| \\      /  F ield         | foam-extend: Open Source CFD                    |
|  \\    /   O peration     | Version:  3.0                                   |
|   \\  /    A nd           | Web:         http://www.extend-project.de       |
|    \\/     M anipulation  |                                                 |
\*---------------------------------------------------------------------------*/
FoamFile
{
    version     2.0;
    format      ascii;
    class       volScalarField;
    location    "18";
    object      p;
}
// * * * * * * * * * * * * * * * * * * * * * * * * * * * * * * * * * * * * * //

dimensions      [0 0 0 0 0 0 0];

internalField   nonuniform List<scalar> 
400
(
0.83076
0.82214
0.820059
0.817991
0.820598
0.822959
0.828626
0.833794
0.841131
0.847738
0.855495
0.862278
0.869253
0.874935
0.879903
0.883046
0.884702
0.883451
0.880464
0.872465
0.839787
0.831173
0.828502
0.825641
0.827204
0.828465
0.832935
0.836919
0.843011
0.848415
0.854908
0.860495
0.866197
0.870718
0.874423
0.876533
0.877057
0.875223
0.871771
0.863688
0.842745
0.83467
0.831995
0.829051
0.83038
0.831207
0.835271
0.838595
0.844206
0.848816
0.854841
0.859561
0.8649
0.868533
0.872091
0.873363
0.874059
0.871557
0.868362
0.860381
0.846422
0.83893
0.836133
0.833156
0.833958
0.834411
0.837738
0.840498
0.84527
0.849231
0.854393
0.858461
0.862984
0.866052
0.868938
0.869849
0.870172
0.867679
0.864653
0.857208
0.84462
0.838005
0.83581
0.833221
0.834373
0.834874
0.838359
0.840939
0.845759
0.849406
0.8546
0.858309
0.862945
0.865697
0.868853
0.869589
0.870357
0.867955
0.86544
0.858746
0.844955
0.839229
0.83709
0.834899
0.835792
0.836399
0.839434
0.841919
0.846181
0.849632
0.854241
0.857754
0.861864
0.864527
0.867309
0.868172
0.868826
0.866892
0.864668
0.858975
0.839651
0.834892
0.83388
0.832375
0.834113
0.835101
0.838746
0.841395
0.846123
0.849612
0.854648
0.858175
0.862778
0.865532
0.868956
0.870081
0.871556
0.870146
0.868889
0.864088
0.838009
0.834292
0.833395
0.832562
0.834176
0.835588
0.838942
0.84181
0.846137
0.849732
0.854336
0.857967
0.862196
0.865167
0.868366
0.869923
0.871412
0.870738
0.869841
0.866201
0.830196
0.827524
0.82818
0.828235
0.831093
0.8331
0.837402
0.84064
0.845723
0.849559
0.854859
0.858721
0.863721
0.867029
0.871183
0.873277
0.875955
0.87607
0.876548
0.873861
0.827627
0.826152
0.826908
0.827828
0.830592
0.833216
0.837261
0.840882
0.845588
0.84967
0.854551
0.858653
0.86329
0.866964
0.870907
0.873605
0.876305
0.87733
0.878139
0.876769
0.818187
0.817874
0.820591
0.822552
0.826871
0.830194
0.83539
0.83944
0.845033
0.849397
0.855083
0.859468
0.865011
0.869115
0.874224
0.877612
0.881823
0.883828
0.886425
0.886092
0.8157
0.816796
0.819525
0.822494
0.826643
0.830655
0.835499
0.839936
0.845031
0.849606
0.854739
0.859324
0.864366
0.868825
0.873589
0.877628
0.881735
0.884767
0.887565
0.888774
0.805618
0.808035
0.813171
0.817297
0.823209
0.8279
0.833917
0.838676
0.844586
0.849303
0.855145
0.859881
0.865773
0.870583
0.876568
0.881322
0.887192
0.891355
0.89642
0.898784
0.804392
0.808519
0.813473
0.81868
0.824214
0.829498
0.834921
0.839873
0.845023
0.84972
0.854734
0.859436
0.864541
0.869499
0.874849
0.880127
0.88561
0.890834
0.895838
0.900067
0.795056
0.800723
0.808569
0.814968
0.822266
0.828016
0.834369
0.839331
0.84497
0.849476
0.85486
0.859388
0.865032
0.870054
0.876422
0.882248
0.889564
0.896002
0.903817
0.909376
0.796669
0.804498
0.811762
0.819097
0.82558
0.83155
0.836884
0.841613
0.84611
0.850176
0.854369
0.858439
0.862903
0.867632
0.872904
0.878842
0.885259
0.892556
0.899828
0.907724
0.790483
0.800286
0.810607
0.818887
0.826622
0.832505
0.838134
0.842331
0.846719
0.850102
0.854094
0.857499
0.861908
0.866171
0.871848
0.877824
0.885622
0.893947
0.904255
0.913894
0.797712
0.809897
0.818696
0.826995
0.833094
0.838358
0.842405
0.84573
0.848602
0.851029
0.853526
0.855959
0.858822
0.862149
0.86617
0.871392
0.877446
0.885663
0.894449
0.906612
0.799751
0.814571
0.824618
0.832666
0.838466
0.842632
0.845909
0.848028
0.850029
0.851271
0.852892
0.854149
0.856176
0.858341
0.861685
0.865917
0.871817
0.879879
0.889935
0.904537
0.822693
0.83285
0.838837
0.84431
0.847376
0.849765
0.851067
0.851754
0.852152
0.852102
0.852228
0.852187
0.852602
0.853306
0.854644
0.857035
0.860149
0.865572
0.871582
0.881599
)
;

boundaryField
{
    cavity
    {
        type            implicitExtrapolation;
    }
    lid
    {
        type            implicitExtrapolation;
    }
    frontAndBack
    {
        type            empty;
    }
}


// ************************************************************************* //
