/*--------------------------------*- C++ -*----------------------------------*\
| =========                 |                                                 |
| \\      /  F ield         | foam-extend: Open Source CFD                    |
|  \\    /   O peration     | Version:  3.0                                   |
|   \\  /    A nd           | Web:         http://www.extend-project.de       |
|    \\/     M anipulation  |                                                 |
\*---------------------------------------------------------------------------*/
FoamFile
{
    version     2.0;
    format      ascii;
    class       volVectorField;
    location    "18";
    object      u;
}
// * * * * * * * * * * * * * * * * * * * * * * * * * * * * * * * * * * * * * //

dimensions      [0 0 0 0 0 0 0];

internalField   nonuniform List<vector> 
400
(
(-0.0808907 -0.0851369 0)
(-0.0816343 0.0430612 0)
(-0.264196 0.0458339 0)
(-0.234993 0.0467743 0)
(-0.384697 0.0425315 0)
(-0.342 0.0292867 0)
(-0.46103 0.0251547 0)
(-0.40508 0.0161867 0)
(-0.503438 0.012117 0)
(-0.430156 0.00701387 0)
(-0.516041 0.000632495 0)
(-0.418309 -0.00115222 0)
(-0.500747 -0.0139307 0)
(-0.365921 -0.011052 0)
(-0.458319 -0.0398093 0)
(-0.261058 -0.0222601 0)
(-0.389677 -0.0922244 0)
(-0.0744744 -0.0100784 0)
(-0.301165 -0.133745 0)
(0.201438 0.121574 0)
(-0.110263 0.247791 0)
(-0.0927876 0.14051 0)
(-0.216922 0.107718 0)
(-0.210073 0.0739316 0)
(-0.304357 0.0646715 0)
(-0.295923 0.0472472 0)
(-0.369866 0.0381333 0)
(-0.351925 0.02643 0)
(-0.407444 0.0131783 0)
(-0.375756 0.00580478 0)
(-0.415685 -0.0122571 0)
(-0.366887 -0.0139298 0)
(-0.394683 -0.0382423 0)
(-0.325097 -0.0311808 0)
(-0.345134 -0.06486 0)
(-0.253277 -0.0462149 0)
(-0.267933 -0.0941972 0)
(-0.170813 -0.0782946 0)
(-0.148225 -0.142025 0)
(-0.107416 -0.221152 0)
(-0.04793 0.117844 0)
(-0.077258 0.147685 0)
(-0.178196 0.162748 0)
(-0.202067 0.133411 0)
(-0.281487 0.128501 0)
(-0.292149 0.0943289 0)
(-0.349906 0.0815021 0)
(-0.347532 0.0534795 0)
(-0.386154 0.0364227 0)
(-0.3717 0.0150447 0)
(-0.392822 -0.00771183 0)
(-0.366132 -0.0223818 0)
(-0.369915 -0.0552212 0)
(-0.329934 -0.0609158 0)
(-0.314713 -0.111211 0)
(-0.260248 -0.0999072 0)
(-0.222467 -0.174363 0)
(-0.154826 -0.130323 0)
(-0.0941079 -0.196823 0)
(-0.0240909 -0.133919 0)
(-0.0577501 0.373206 0)
(-0.0775578 0.270853 0)
(-0.157676 0.232729 0)
(-0.166178 0.177313 0)
(-0.226221 0.155032 0)
(-0.229284 0.115835 0)
(-0.274215 0.0938369 0)
(-0.27089 0.062878 0)
(-0.300437 0.0376705 0)
(-0.289675 0.0126577 0)
(-0.303492 -0.0175346 0)
(-0.285466 -0.0367029 0)
(-0.283056 -0.0742142 0)
(-0.260012 -0.0863152 0)
(-0.239481 -0.1344 0)
(-0.218156 -0.138412 0)
(-0.171951 -0.199545 0)
(-0.167235 -0.206466 0)
(-0.0704662 -0.272721 0)
(-0.0877779 -0.339225 0)
(-0.0368001 0.253429 0)
(-0.0706889 0.24595 0)
(-0.138957 0.251089 0)
(-0.163753 0.201957 0)
(-0.218418 0.191778 0)
(-0.232379 0.142506 0)
(-0.271359 0.123352 0)
(-0.275834 0.0799154 0)
(-0.298889 0.0554486 0)
(-0.2956 0.0182971 0)
(-0.302474 -0.0117146 0)
(-0.292699 -0.0426652 0)
(-0.28207 -0.0805286 0)
(-0.267042 -0.104388 0)
(-0.235864 -0.152982 0)
(-0.217882 -0.167352 0)
(-0.161067 -0.225222 0)
(-0.14488 -0.231681 0)
(-0.0594069 -0.276186 0)
(-0.0472187 -0.292054 0)
(-0.028351 0.480948 0)
(-0.0539746 0.373078 0)
(-0.108677 0.325952 0)
(-0.120826 0.25697 0)
(-0.164306 0.223906 0)
(-0.168468 0.169023 0)
(-0.200023 0.13755 0)
(-0.198642 0.0906488 0)
(-0.217733 0.0576673 0)
(-0.212215 0.0164483 0)
(-0.218169 -0.02025 0)
(-0.210052 -0.0569495 0)
(-0.201559 -0.0997436 0)
(-0.193256 -0.132413 0)
(-0.167599 -0.183486 0)
(-0.163106 -0.213123 0)
(-0.114775 -0.2725 0)
(-0.11893 -0.308017 0)
(-0.0404318 -0.370336 0)
(-0.0479719 -0.44577 0)
(-0.0324786 0.335994 0)
(-0.0619239 0.324297 0)
(-0.114014 0.317552 0)
(-0.131627 0.257571 0)
(-0.171959 0.239548 0)
(-0.180736 0.178397 0)
(-0.208643 0.15372 0)
(-0.211263 0.0978139 0)
(-0.22683 0.0692044 0)
(-0.225508 0.0188971 0)
(-0.22847 -0.0137322 0)
(-0.224751 -0.0591521 0)
(-0.213696 -0.0972252 0)
(-0.20854 -0.138266 0)
(-0.180632 -0.183073 0)
(-0.174748 -0.220119 0)
(-0.126334 -0.269358 0)
(-0.120154 -0.30596 0)
(-0.0507366 -0.3471 0)
(-0.0407328 -0.380388 0)
(-0.0170306 0.5756 0)
(-0.0298837 0.45467 0)
(-0.0709564 0.395767 0)
(-0.0768725 0.315078 0)
(-0.108879 0.273217 0)
(-0.109344 0.205917 0)
(-0.131327 0.168287 0)
(-0.128253 0.109035 0)
(-0.140808 0.0720952 0)
(-0.136219 0.0182533 0)
(-0.13933 -0.020866 0)
(-0.135114 -0.0716051 0)
(-0.127498 -0.115863 0)
(-0.125528 -0.165403 0)
(-0.104415 -0.21723 0)
(-0.106642 -0.267382 0)
(-0.068193 -0.327074 0)
(-0.075752 -0.383584 0)
(-0.0189963 -0.449731 0)
(-0.0284689 -0.537198 0)
(-0.0328051 0.383117 0)
(-0.0513161 0.375982 0)
(-0.0953006 0.364089 0)
(-0.101462 0.295449 0)
(-0.131339 0.272119 0)
(-0.131403 0.200993 0)
(-0.150173 0.172792 0)
(-0.147911 0.107453 0)
(-0.157831 0.0773208 0)
(-0.155877 0.0175533 0)
(-0.157618 -0.014721 0)
(-0.157539 -0.0708892 0)
(-0.149753 -0.106738 0)
(-0.151949 -0.161295 0)
(-0.131341 -0.201926 0)
(-0.134889 -0.256321 0)
(-0.0973553 -0.300244 0)
(-0.0995233 -0.355147 0)
(-0.0434955 -0.394373 0)
(-0.0376982 -0.427812 0)
(-0.0106779 0.659948 0)
(-0.00415996 0.517321 0)
(-0.0361786 0.446023 0)
(-0.0302907 0.351261 0)
(-0.0520244 0.303332 0)
(-0.0453577 0.224935 0)
(-0.0581926 0.184975 0)
(-0.0512587 0.116863 0)
(-0.0580924 0.0802144 0)
(-0.0526655 0.018176 0)
(-0.0546403 -0.0190907 0)
(-0.0525039 -0.0793785 0)
(-0.0485049 -0.121389 0)
(-0.0511881 -0.183773 0)
(-0.0380003 -0.234275 0)
(-0.046795 -0.301368 0)
(-0.0201984 -0.362459 0)
(-0.0357918 -0.43746 0)
(0.00477269 -0.511563 0)
(-0.0170322 -0.618377 0)
(-0.036071 0.398131 0)
(-0.0403192 0.399055 0)
(-0.0786844 0.389742 0)
(-0.0689762 0.311239 0)
(-0.088335 0.287269 0)
(-0.0760771 0.207291 0)
(-0.0851282 0.178833 0)
(-0.0755458 0.107489 0)
(-0.0798958 0.0788527 0)
(-0.0758904 0.0142102 0)
(-0.0775967 -0.0147927 0)
(-0.080689 -0.0769556 0)
(-0.0784804 -0.108009 0)
(-0.0888152 -0.171777 0)
(-0.0782113 -0.206321 0)
(-0.0939253 -0.27414 0)
(-0.0680056 -0.311281 0)
(-0.0837039 -0.380146 0)
(-0.0359918 -0.41315 0)
(-0.0397006 -0.44005 0)
(-0.0025049 0.736541 0)
(0.0267005 0.560292 0)
(0.00560713 0.474824 0)
(0.0259254 0.361046 0)
(0.0168795 0.310585 0)
(0.0324864 0.221888 0)
(0.0305511 0.184596 0)
(0.0424412 0.111774 0)
(0.0417887 0.0806828 0)
(0.0488791 0.0159825 0)
(0.0471347 -0.0142122 0)
(0.0480933 -0.0784375 0)
(0.046209 -0.113235 0)
(0.0397137 -0.184038 0)
(0.0416213 -0.229189 0)
(0.0261027 -0.311614 0)
(0.0378539 -0.372738 0)
(0.0112295 -0.469523 0)
(0.0356648 -0.555595 0)
(-0.00490327 -0.694073 0)
(-0.0438281 0.374081 0)
(-0.0292499 0.388406 0)
(-0.0605164 0.39005 0)
(-0.0285239 0.299919 0)
(-0.0330469 0.280782 0)
(-0.00426795 0.193731 0)
(-0.000566731 0.168992 0)
(0.0185437 0.0963579 0)
(0.0208031 0.0725061 0)
(0.0279943 0.00893764 0)
(0.0254999 -0.0139558 0)
(0.0196508 -0.0760007 0)
(0.0134524 -0.0996266 0)
(-0.00596503 -0.167207 0)
(-0.0102224 -0.192753 0)
(-0.0419279 -0.270427 0)
(-0.0324825 -0.296473 0)
(-0.0693933 -0.378011 0)
(-0.0287595 -0.397053 0)
(-0.0486944 -0.409279 0)
(0.0139761 0.8098 0)
(0.0680979 0.577632 0)
(0.0677959 0.474288 0)
(0.101704 0.333701 0)
(0.112207 0.286453 0)
(0.135184 0.189535 0)
(0.147659 0.161897 0)
(0.163051 0.0905052 0)
(0.169627 0.0713087 0)
(0.177774 0.0113417 0)
(0.175669 -0.00584133 0)
(0.176203 -0.0663858 0)
(0.1662 -0.0876448 0)
(0.158077 -0.160409 0)
(0.144198 -0.193298 0)
(0.124919 -0.289435 0)
(0.114917 -0.345361 0)
(0.0788486 -0.473314 0)
(0.0787973 -0.576333 0)
(0.0157083 -0.771538 0)
(-0.0660754 0.292127 0)
(-0.0140004 0.332016 0)
(-0.0315625 0.356034 0)
(0.0336028 0.255492 0)
(0.0540611 0.247374 0)
(0.102692 0.158371 0)
(0.124606 0.141203 0)
(0.153561 0.0744522 0)
(0.164355 0.0578224 0)
(0.175066 0.00291324 0)
(0.171615 -0.0123927 0)
(0.164439 -0.0665619 0)
(0.147104 -0.0815566 0)
(0.120232 -0.145276 0)
(0.0935662 -0.159687 0)
(0.0443577 -0.24124 0)
(0.0240193 -0.250498 0)
(-0.0442841 -0.341962 0)
(-0.0189635 -0.33396 0)
(-0.0732437 -0.314768 0)
(0.0564326 0.890033 0)
(0.12125 0.544143 0)
(0.169959 0.426875 0)
(0.203369 0.248169 0)
(0.245504 0.217437 0)
(0.265393 0.119064 0)
(0.295527 0.111078 0)
(0.307604 0.050788 0)
(0.321675 0.0498065 0)
(0.327744 0.00406081 0)
(0.325172 0.00473445 0)
(0.325935 -0.0419476 0)
(0.307285 -0.0435375 0)
(0.302329 -0.106984 0)
(0.269369 -0.11755 0)
(0.255906 -0.22001 0)
(0.213806 -0.256833 0)
(0.181988 -0.430409 0)
(0.13491 -0.547409 0)
(0.0592814 -0.863756 0)
(-0.0993847 0.114539 0)
(0.0374783 0.215989 0)
(0.0696349 0.273678 0)
(0.17551 0.180004 0)
(0.240023 0.185437 0)
(0.303074 0.108416 0)
(0.348417 0.0990235 0)
(0.381072 0.0483074 0)
(0.40137 0.0376525 0)
(0.413265 -0.000638952 0)
(0.409896 -0.0106688 0)
(0.404231 -0.0487782 0)
(0.37647 -0.0580752 0)
(0.349885 -0.107492 0)
(0.295133 -0.113403 0)
(0.237785 -0.185803 0)
(0.16239 -0.176692 0)
(0.0621997 -0.263141 0)
(0.0230872 -0.211301 0)
(-0.101198 -0.120567 0)
(0.165904 0.95207 0)
(0.14839 0.376452 0)
(0.303223 0.288905 0)
(0.286415 0.0777984 0)
(0.370944 0.0898585 0)
(0.362392 0.010661 0)
(0.407366 0.0330406 0)
(0.403741 -0.00222842 0)
(0.422511 0.0175159 0)
(0.421937 -0.00458627 0)
(0.419989 0.0136194 0)
(0.422114 -0.00868666 0)
(0.399849 0.0106276 0)
(0.405477 -0.0258272 0)
(0.359094 -0.00563095 0)
(0.369789 -0.0874244 0)
(0.290628 -0.0813756 0)
(0.304259 -0.291179 0)
(0.167528 -0.384025 0)
(0.157197 -0.941862 0)
(0.129466 -0.199688 0)
(0.305121 0.0765613 0)
(0.513935 0.135781 0)
(0.615068 0.112454 0)
(0.724975 0.109584 0)
(0.774359 0.0720331 0)
(0.826447 0.0576493 0)
(0.847591 0.0330932 0)
(0.867178 0.0193452 0)
(0.874227 0.00174663 0)
(0.87148 -0.0110074 0)
(0.869354 -0.0288113 0)
(0.843415 -0.0416226 0)
(0.828924 -0.0669143 0)
(0.766959 -0.0778839 0)
(0.727514 -0.117473 0)
(0.6001 -0.111266 0)
(0.514027 -0.140097 0)
(0.281884 -0.0642638 0)
(0.133019 0.204188 0)
(0.244079 0.517581 0)
(0.0738565 -0.00692214 0)
(0.313836 -0.0210668 0)
(0.188673 -0.133365 0)
(0.293012 -0.0695769 0)
(0.228734 -0.0909378 0)
(0.274141 -0.0403427 0)
(0.246045 -0.0431293 0)
(0.264092 -0.0093178 0)
(0.256036 -0.009102 0)
(0.256689 0.01826 0)
(0.263226 0.0191436 0)
(0.246957 0.0508214 0)
(0.272358 0.0504097 0)
(0.230397 0.0955815 0)
(0.290011 0.079279 0)
(0.192183 0.132004 0)
(0.310754 0.0269966 0)
(0.0791105 -0.00298395 0)
(0.243538 -0.526918 0)
)
;

boundaryField
{
    cavity
    {
        type            myImplicitVelocity;
    }
    lid
    {
        type            fixedValue;
        value           uniform (1 0 0);
    }
    frontAndBack
    {
        type            empty;
    }
}


// ************************************************************************* //
