/*--------------------------------*- C++ -*----------------------------------*\
| =========                 |                                                 |
| \\      /  F ield         | foam-extend: Open Source CFD                    |
|  \\    /   O peration     | Version:  3.0                                   |
|   \\  /    A nd           | Web:         http://www.extend-project.de       |
|    \\/     M anipulation  |                                                 |
\*---------------------------------------------------------------------------*/
FoamFile
{
    version     2.0;
    format      ascii;
    class       volVectorField;
    location    "9.3";
    object      s;
}
// * * * * * * * * * * * * * * * * * * * * * * * * * * * * * * * * * * * * * //

dimensions      [0 0 0 0 0 0 0];

internalField   nonuniform List<vector> 
400
(
(-0.0409704 0.0864461 1.43132e-317)
(-0.0683588 0.12217 2.58153e-317)
(-0.1537 0.124912 2.9873e-317)
(-0.196909 0.101716 3.0516e-317)
(-0.259686 0.0856502 2.96168e-317)
(-0.294735 0.0624517 2.80188e-317)
(-0.333548 0.0471193 2.61565e-317)
(-0.355021 0.0290533 2.42428e-317)
(-0.37274 0.0154484 2.23681e-317)
(-0.379285 -3.57697e-05 2.06002e-317)
(-0.377527 -0.0137558 1.89327e-317)
(-0.368163 -0.0295353 1.73904e-317)
(-0.346696 -0.0447102 1.59418e-317)
(-0.320807 -0.0623419 1.45807e-317)
(-0.278812 -0.0784747 1.32644e-317)
(-0.238154 -0.0973002 1.19423e-317)
(-0.176725 -0.110329 1.05226e-317)
(-0.129669 -0.123593 8.86174e-318)
(-0.056435 -0.115742 6.62708e-318)
(-0.0278565 -0.0766394 3.1908e-318)
(-0.0445987 0.0481685 1.96676e-317)
(-0.102239 0.107153 3.9313e-317)
(-0.195541 0.130833 4.79943e-317)
(-0.262758 0.127502 5.06646e-317)
(-0.341053 0.113021 5.02034e-317)
(-0.396347 0.0908641 4.81727e-317)
(-0.449907 0.0676644 4.54137e-317)
(-0.484523 0.0430257 4.24161e-317)
(-0.510786 0.0191639 3.93757e-317)
(-0.521552 -0.00497018 3.64568e-317)
(-0.5199 -0.0287237 3.3655e-317)
(-0.505512 -0.0525499 3.10269e-317)
(-0.475637 -0.0759541 2.85028e-317)
(-0.436345 -0.0982036 2.60767e-317)
(-0.379403 -0.1179 2.36365e-317)
(-0.319264 -0.132402 2.10938e-317)
(-0.241152 -0.13784 1.82425e-317)
(-0.172253 -0.128642 1.48373e-317)
(-0.0877891 -0.096419 1.0426e-317)
(-0.0337971 -0.0371084 4.37175e-318)
(-0.0437952 0.147011 1.94941e-317)
(-0.0976303 0.257549 3.98937e-317)
(-0.188808 0.289591 4.95604e-317)
(-0.252408 0.270493 5.30338e-317)
(-0.325848 0.237759 5.3135e-317)
(-0.378436 0.190561 5.14598e-317)
(-0.428807 0.144403 4.89018e-317)
(-0.462807 0.0944179 4.59981e-317)
(-0.488617 0.0468013 4.29801e-317)
(-0.500745 -0.00248368 4.00324e-317)
(-0.500897 -0.0508405 3.71682e-317)
(-0.489157 -0.100501 3.44482e-317)
(-0.462335 -0.149311 3.18045e-317)
(-0.425936 -0.197459 2.92232e-317)
(-0.372012 -0.240737 2.65729e-317)
(-0.31376 -0.276979 2.37337e-317)
(-0.237219 -0.296653 2.04572e-317)
(-0.168293 -0.293719 1.6432e-317)
(-0.0833254 -0.245763 1.124e-317)
(-0.030097 -0.129488 4.33812e-318)
(-0.0266087 0.139538 1.70813e-317)
(-0.0733435 0.264983 3.5162e-317)
(-0.133847 0.309313 4.40739e-317)
(-0.184963 0.297275 4.76341e-317)
(-0.239568 0.265055 4.82138e-317)
(-0.283081 0.216166 4.7181e-317)
(-0.323877 0.164773 4.52895e-317)
(-0.353814 0.108932 4.30221e-317)
(-0.377043 0.0535066 4.05826e-317)
(-0.39012 -0.00379207 3.81469e-317)
(-0.393352 -0.0614399 3.57343e-317)
(-0.38718 -0.120206 3.34073e-317)
(-0.368263 -0.178905 3.1111e-317)
(-0.341189 -0.235351 2.88368e-317)
(-0.299165 -0.286492 2.64654e-317)
(-0.252235 -0.325229 2.38754e-317)
(-0.190981 -0.343895 2.08287e-317)
(-0.132641 -0.327898 1.69738e-317)
(-0.0673139 -0.260462 1.18566e-317)
(-0.019136 -0.118381 4.76413e-318)
(-0.0210645 0.172155 1.34966e-317)
(-0.0531814 0.320624 2.80328e-317)
(-0.0985493 0.370117 3.55685e-317)
(-0.134897 0.35683 3.90055e-317)
(-0.175761 0.319087 4.00757e-317)
(-0.208397 0.262486 3.98173e-317)
(-0.240319 0.202231 3.87812e-317)
(-0.264986 0.136308 3.7352e-317)
(-0.285409 0.0702045 3.56935e-317)
(-0.299309 0.00104188 3.39604e-317)
(-0.305827 -0.0693319 3.21821e-317)
(-0.306279 -0.142169 3.0425e-317)
(-0.29572 -0.215974 2.86604e-317)
(-0.279766 -0.28832 2.68949e-317)
(-0.24869 -0.35551 2.50431e-317)
(-0.214731 -0.408334 2.30118e-317)
(-0.162978 -0.438055 2.05834e-317)
(-0.116199 -0.424034 1.74148e-317)
(-0.0553238 -0.34762 1.28728e-317)
(-0.0174086 -0.168372 5.87277e-318)
(-0.0105762 0.164241 9.09856e-318)
(-0.0328086 0.313989 1.96275e-317)
(-0.0557425 0.368232 2.56879e-317)
(-0.0789166 0.35884 2.90497e-317)
(-0.103445 0.324078 3.07021e-317)
(-0.126104 0.269247 3.13203e-317)
(-0.148502 0.209673 3.124e-317)
(-0.168269 0.143501 3.07419e-317)
(-0.185724 0.0760316 2.99477e-317)
(-0.200452 0.00448837 2.89892e-317)
(-0.210306 -0.0696966 2.79064e-317)
(-0.217407 -0.147634 2.67657e-317)
(-0.215878 -0.228411 2.55625e-317)
(-0.211519 -0.308689 2.43136e-317)
(-0.193291 -0.385385 2.29604e-317)
(-0.173266 -0.445809 2.14279e-317)
(-0.13437 -0.481805 1.95142e-317)
(-0.0996299 -0.463955 1.68793e-317)
(-0.0470626 -0.376325 1.2805e-317)
(-0.016116 -0.170115 6.06931e-318)
(-0.00564365 0.166858 4.71477e-318)
(-0.0170543 0.32005 1.14094e-317)
(-0.0264981 0.37589 1.61214e-317)
(-0.0379914 0.369202 1.94682e-317)
(-0.0507012 0.335769 2.17048e-317)
(-0.0643371 0.282061 2.3158e-317)
(-0.0788614 0.222724 2.39702e-317)
(-0.0937912 0.156077 2.43277e-317)
(-0.108284 0.0873749 2.43184e-317)
(-0.123288 0.0133786 2.40547e-317)
(-0.135618 -0.0644163 2.35851e-317)
(-0.148737 -0.148048 2.29772e-317)
(-0.15495 -0.23636 2.22441e-317)
(-0.162143 -0.327114 2.14099e-317)
(-0.154879 -0.416153 2.0436e-317)
(-0.149768 -0.491087 1.92625e-317)
(-0.119555 -0.540593 1.77078e-317)
(-0.0984405 -0.53241 1.54702e-317)
(-0.043824 -0.4434 1.1847e-317)
(-0.0229405 -0.2122 5.69985e-318)
(0.000743375 0.154565 6.77903e-319)
(-0.0033497 0.299564 3.95994e-318)
(0.00211692 0.355594 7.50627e-318)
(0.000482039 0.351876 1.08518e-317)
(-6.64696e-05 0.32321 1.36092e-317)
(-0.00543395 0.274259 1.57953e-317)
(-0.0117435 0.219693 1.73909e-317)
(-0.0215623 0.157237 1.84992e-317)
(-0.0322563 0.0921773 1.91785e-317)
(-0.0463266 0.0208384 1.95239e-317)
(-0.0598962 -0.0555186 1.95875e-317)
(-0.0771945 -0.13961 1.94359e-317)
(-0.090215 -0.230788 1.9091e-317)
(-0.107049 -0.327502 1.85787e-317)
(-0.111348 -0.426056 1.78679e-317)
(-0.119692 -0.513068 1.69072e-317)
(-0.101487 -0.576637 1.55319e-317)
(-0.0926898 -0.577088 1.34957e-317)
(-0.0419417 -0.488366 1.02118e-317)
(-0.0271137 -0.231417 4.80993e-318)
(0.00556753 0.144942 -2.46763e-318)
(0.00801101 0.282584 -1.92242e-318)
(0.0244512 0.337017 6.40734e-319)
(0.0307411 0.33642 3.91424e-318)
(0.0397981 0.31164 7.02499e-318)
(0.041608 0.267651 9.73888e-318)
(0.0426789 0.217795 1.19142e-317)
(0.0381128 0.15999 1.35842e-317)
(0.0318833 0.0992669 1.47826e-317)
(0.0199489 0.0315186 1.55861e-317)
(0.00694456 -0.0419003 1.60463e-317)
(-0.0128856 -0.125132 1.62241e-317)
(-0.0303503 -0.217026 1.61455e-317)
(-0.05604 -0.318988 1.5831e-317)
(-0.0697346 -0.425209 1.52535e-317)
(-0.0935481 -0.527111 1.43619e-317)
(-0.0851709 -0.605584 1.30138e-317)
(-0.094676 -0.626081 1.10192e-317)
(-0.0412898 -0.543179 7.9813e-318)
(-0.0412243 -0.27337 3.42563e-318)
(0.00986915 0.128142 -4.68028e-318)
(0.0173057 0.252947 -6.17875e-318)
(0.043717 0.305162 -4.44189e-318)
(0.0570799 0.307221 -1.34479e-318)
(0.0752494 0.287561 1.92927e-318)
(0.084144 0.249604 4.96252e-318)
(0.092855 0.206169 7.52302e-318)
(0.0943937 0.15486 9.58581e-318)
(0.0938044 0.100591 1.11588e-317)
(0.0860536 0.0389994 1.23019e-317)
(0.0756794 -0.0287987 1.30615e-317)
(0.0567431 -0.107761 1.3491e-317)
(0.0371506 -0.197302 1.36155e-317)
(0.00729242 -0.300583 1.34521e-317)
(-0.0151174 -0.412498 1.29721e-317)
(-0.0489409 -0.526442 1.21284e-317)
(-0.0549733 -0.6225 1.08005e-317)
(-0.0767905 -0.663118 8.84895e-318)
(-0.0356811 -0.594501 6.06482e-318)
(-0.0408795 -0.310059 2.28434e-318)
(0.0143912 0.11395 -5.9576e-318)
(0.0246328 0.226292 -8.85249e-318)
(0.0591297 0.274605 -7.7994e-318)
(0.0772854 0.279098 -4.97892e-318)
(0.102914 0.263369 -1.72281e-318)
(0.117633 0.231223 1.42672e-318)
(0.133363 0.193706 4.17995e-318)
(0.140891 0.148941 6.463e-318)
(0.146549 0.101405 8.26264e-318)
(0.143996 0.0466502 9.61836e-318)
(0.138226 -0.0140856 1.05696e-317)
(0.122012 -0.0870265 1.11607e-317)
(0.103498 -0.170905 1.1414e-317)
(0.0707191 -0.272619 1.13423e-317)
(0.0432284 -0.384406 1.09206e-317)
(-0.00333619 -0.508114 1.01037e-317)
(-0.0204362 -0.613921 8.80101e-318)
(-0.0658733 -0.678654 6.91223e-318)
(-0.0287061 -0.618713 4.38735e-318)
(-0.0591916 -0.337195 1.29741e-318)
(0.0167308 0.0942342 -6.30815e-318)
(0.0300306 0.192987 -1.0029e-317)
(0.0700955 0.237732 -9.56878e-318)
(0.0931201 0.244446 -7.13253e-318)
(0.125127 0.232841 -4.06639e-318)
(0.145833 0.206381 -9.80172e-319)
(0.168357 0.174956 1.79891e-318)
(0.182503 0.136985 4.158e-318)
(0.195059 0.0965679 6.06126e-318)
(0.199494 0.0494844 7.53024e-318)
(0.200149 -0.0032883 8.59382e-318)
(0.190553 -0.0682688 9.2892e-318)
(0.175991 -0.144762 9.63674e-318)
(0.147331 -0.241288 9.64778e-318)
(0.116789 -0.351285 9.30247e-318)
(0.0685586 -0.480405 8.56604e-318)
(0.0354004 -0.599594 7.37405e-318)
(-0.0177156 -0.689102 5.65846e-318)
(-0.0106648 -0.656563 3.45736e-318)
(-0.0421778 -0.38596 9.04437e-319)
(0.0195964 0.0796688 -6.37341e-318)
(0.0324655 0.164452 -1.05062e-317)
(0.0766154 0.20377 -1.04595e-317)
(0.10184 0.211522 -8.38227e-318)
(0.13864 0.202611 -5.55898e-318)
(0.163575 0.181076 -2.62384e-318)
(0.1917 0.154923 8.31661e-320)
(0.211371 0.123274 2.42177e-318)
(0.230368 0.0896534 4.34156e-318)
(0.241466 0.0501908 5.84801e-318)
(0.249418 0.00593669 6.96139e-318)
(0.246959 -0.0500263 7.71115e-318)
(0.239254 -0.116413 8.1165e-318)
(0.215118 -0.204297 8.18708e-318)
(0.186852 -0.305046 7.91386e-318)
(0.133121 -0.432617 7.27035e-318)
(0.0918248 -0.549242 6.22291e-318)
(0.0136871 -0.654446 4.72682e-318)
(0.00857582 -0.6253 2.85478e-318)
(-0.0623068 -0.3719 7.32778e-319)
(0.0193928 0.0600929 -5.5721e-318)
(0.0333387 0.132999 -9.79334e-318)
(0.0788205 0.167664 -1.01496e-317)
(0.106976 0.176588 -8.51902e-318)
(0.147387 0.170067 -6.05744e-318)
(0.176506 0.152928 -3.39636e-318)
(0.209393 0.131594 -8.79679e-319)
(0.23434 0.10578 1.333e-318)
(0.259327 0.0784539 3.17624e-318)
(0.277637 0.0463022 4.64122e-318)
(0.293396 0.0101877 5.74028e-318)
(0.300939 -0.0363528 6.49652e-318)
(0.302083 -0.092387 6.92799e-318)
(0.290123 -0.169391 7.04745e-318)
(0.26655 -0.260166 6.85265e-318)
(0.223667 -0.382096 6.33195e-318)
(0.16963 -0.500815 5.47071e-318)
(0.0970949 -0.625476 4.24287e-318)
(0.0423694 -0.631214 2.70464e-318)
(-0.0157454 -0.426845 8.93676e-319)
(0.0188608 0.0481242 -5.45507e-318)
(0.0298079 0.107387 -9.44569e-318)
(0.0744804 0.135504 -9.89392e-318)
(0.10263 0.143577 -8.50473e-318)
(0.144279 0.138325 -6.3157e-318)
(0.17506 0.124736 -3.9025e-318)
(0.210208 0.107532 -1.59047e-318)
(0.237942 0.0869388 4.64002e-319)
(0.266633 0.0652133 2.19152e-318)
(0.289672 0.0397193 3.5777e-318)
(0.311775 0.0111993 4.62938e-318)
(0.326887 -0.0260356 5.36596e-318)
(0.337564 -0.07093 5.80441e-318)
(0.334891 -0.134646 5.95772e-318)
(0.321437 -0.209804 5.83308e-318)
(0.282267 -0.316473 5.42863e-318)
(0.230218 -0.418136 4.74766e-318)
(0.138235 -0.536116 3.7752e-318)
(0.0723672 -0.531358 2.5351e-318)
(-0.0391553 -0.343572 9.87657e-319)
(0.0154061 0.0321619 -4.03774e-318)
(0.0257619 0.0819282 -7.79824e-318)
(0.0687902 0.104361 -8.49158e-318)
(0.0979798 0.112079 -7.51354e-318)
(0.140527 0.107727 -5.72004e-318)
(0.172387 0.097217 -3.66738e-318)
(0.208868 0.0836897 -1.655e-318)
(0.238199 0.0676584 1.54232e-319)
(0.269372 0.0509358 1.68936e-318)
(0.296362 0.0312898 2.929e-318)
(0.32382 0.00959642 3.8764e-318)
(0.347595 -0.019143 4.54674e-318)
(0.367733 -0.0535564 4.95558e-318)
(0.380614 -0.104214 5.11864e-318)
(0.378102 -0.164169 5.04661e-318)
(0.361656 -0.255602 4.74686e-318)
(0.306509 -0.345715 4.22929e-318)
(0.24231 -0.471049 3.48621e-318)
(0.116547 -0.498952 2.49957e-318)
(0.050014 -0.404044 1.14505e-318)
(0.0104312 0.0247572 -4.23322e-318)
(0.0162369 0.0607099 -7.25552e-318)
(0.0533762 0.075895 -7.72177e-318)
(0.0799196 0.0811873 -6.80817e-318)
(0.118464 0.0775235 -5.2621e-318)
(0.147794 0.0697978 -3.50638e-318)
(0.180826 0.0596588 -1.79461e-318)
(0.207905 0.0478801 -2.5432e-319)
(0.236935 0.0353284 1.05455e-318)
(0.263005 0.0207594 2.11581e-318)
(0.291127 0.00447562 2.93142e-318)
(0.316771 -0.0166957 3.51469e-318)
(0.342552 -0.0422062 3.8796e-318)
(0.361334 -0.0789902 4.04065e-318)
(0.371448 -0.122972 4.01261e-318)
(0.362173 -0.188994 3.80597e-318)
(0.324381 -0.253954 3.43657e-318)
(0.250623 -0.341011 2.90292e-318)
(0.139573 -0.343114 2.15944e-318)
(0.0103163 -0.229089 1.05165e-318)
(0.00360399 0.0146605 -2.32417e-318)
(0.00937454 0.0429447 -5.07719e-318)
(0.0442675 0.0522129 -5.67573e-318)
(0.0691801 0.0561255 -5.14042e-318)
(0.105788 0.052861 -3.98855e-318)
(0.131488 0.0473519 -2.64551e-318)
(0.16175 0.0403345 -1.30718e-318)
(0.185242 0.032069 -9.8739e-320)
(0.211944 0.0236841 9.32257e-319)
(0.236339 0.0135101 1.76863e-318)
(0.264178 0.00284151 2.41155e-318)
(0.29243 -0.011816 2.87196e-318)
(0.322171 -0.0281086 3.16257e-318)
(0.352051 -0.0536828 3.29558e-318)
(0.372099 -0.0814774 3.28476e-318)
(0.389214 -0.130796 3.14207e-318)
(0.358954 -0.174474 2.88057e-318)
(0.336783 -0.262718 2.50176e-318)
(0.175374 -0.284365 1.95159e-318)
(0.15163 -0.308542 1.04227e-318)
(-0.0026852 0.0114199 -2.58383e-318)
(-0.00211137 0.0231032 -4.0169e-318)
(0.0199031 0.0263884 -4.17278e-318)
(0.0365308 0.0278918 -3.64728e-318)
(0.0596666 0.0260725 -2.84209e-318)
(0.0766312 0.0235026 -1.94386e-318)
(0.0949678 0.0195324 -1.07947e-318)
(0.109986 0.0150882 -3.05426e-319)
(0.12629 0.00973267 3.50386e-319)
(0.141687 0.0035811 8.82406e-319)
(0.160112 -0.00374146 1.29189e-318)
(0.178207 -0.0126978 1.58686e-318)
(0.200814 -0.0236913 1.7761e-318)
(0.220338 -0.0376373 1.86721e-318)
(0.241936 -0.0549581 1.87176e-318)
(0.251256 -0.0761832 1.79879e-318)
(0.247399 -0.100392 1.66008e-318)
(0.214614 -0.120277 1.45878e-318)
(0.13406 -0.118316 1.14879e-318)
(0.0412782 -0.0311498 6.01555e-319)
(-0.00760236 0.0047141 -4.52702e-319)
(-0.00165332 0.013834 -1.56188e-318)
(0.0167793 0.013568 -1.72899e-318)
(0.0269421 0.0141577 -1.56585e-318)
(0.0444505 0.0126747 -1.17057e-318)
(0.0524244 0.0111549 -7.38505e-319)
(0.0652949 0.00989455 -3.11202e-319)
(0.072341 0.00795292 6.49696e-320)
(0.0832798 0.00692725 3.82718e-319)
(0.092196 0.00470078 6.3728e-319)
(0.104513 0.00374823 8.31858e-319)
(0.118254 0.000636553 9.70656e-319)
(0.13414 -0.000391786 1.05876e-318)
(0.155138 -0.00610479 1.10032e-318)
(0.172333 -0.00712645 1.10007e-318)
(0.2004 -0.0210359 1.06315e-318)
(0.198825 -0.0207244 9.97074e-319)
(0.229409 -0.0645875 9.08725e-319)
(0.126999 -0.058295 7.86162e-319)
(0.201313 -0.185825 5.42331e-319)
)
;

boundaryField
{
    cavity
    {
        type            myHeatFlux;
        ThetaWall       uniform 0;
        value           nonuniform List<vector> 
60
(
(0.001 0 0)
(0.001 0 0)
(0.001 0 0)
(0.001 0 0)
(0.001 0 0)
(0.001 0 0)
(0.001 0 0)
(0.001 0 0)
(0.001 0 0)
(0.001 0 0)
(0.001 0 0)
(0.001 0 0)
(0.001 0 0)
(0.001 0 0)
(0.001 0 0)
(0.001 0 0)
(0.001 0 0)
(0.001 0 0)
(0.001 0 0)
(0.001 0 0)
(0 -0.001 0)
(0 -0.001 0)
(0 -0.001 0)
(0 -0.001 0)
(0 -0.001 0)
(0 -0.001 0)
(0 -0.001 0)
(0 -0.001 0)
(0 -0.001 0)
(0 -0.001 0)
(0 -0.001 0)
(0 -0.001 0)
(0 -0.001 0)
(0 -0.001 0)
(0 -0.001 0)
(0 -0.001 0)
(0 -0.001 0)
(0 -0.001 0)
(0 -0.001 0)
(0 -0.001 0)
(-0.001 0 0)
(-0.001 0 0)
(-0.001 0 0)
(-0.001 0 0)
(-0.001 0 0)
(-0.001 0 0)
(-0.001 0 0)
(-0.001 0 0)
(-0.001 0 0)
(-0.001 0 0)
(-0.001 0 0)
(-0.001 0 0)
(-0.001 0 0)
(-0.001 0 0)
(-0.001 0 0)
(-0.001 0 0)
(-0.001 0 0)
(-0.001 0 0)
(-0.001 0 0)
(-0.001 0 0)
)
;
    }
    lid
    {
        type            myHeatFlux;
        ThetaWall       uniform 0;
        value           nonuniform List<vector> 
20
(
(0.000135815 0.0009 0)
(0.000135815 0.0009 0)
(0.000135815 0.0009 0)
(0.000135815 0.0009 0)
(0.000135815 0.0009 0)
(0.000135815 0.0009 0)
(0.000135815 0.0009 0)
(0.000135815 0.0009 0)
(0.000135815 0.0009 0)
(0.000135815 0.0009 0)
(0.000135815 0.0009 0)
(0.000135815 0.0009 0)
(0.000135815 0.0009 0)
(0.000135815 0.0009 0)
(0.000135815 0.0009 0)
(0.000135815 0.0009 0)
(0.000135815 0.0009 0)
(0.000135815 0.0009 0)
(0.000135815 0.0009 0)
(0.000135815 0.0009 0)
)
;
    }
    frontAndBack
    {
        type            empty;
    }
}


// ************************************************************************* //
