/*--------------------------------*- C++ -*----------------------------------*\
| =========                 |                                                 |
| \\      /  F ield         | foam-extend: Open Source CFD                    |
|  \\    /   O peration     | Version:  3.0                                   |
|   \\  /    A nd           | Web:         http://www.extend-project.de       |
|    \\/     M anipulation  |                                                 |
\*---------------------------------------------------------------------------*/
FoamFile
{
    version     2.0;
    format      ascii;
    class       volVectorField;
    location    "1.8";
    object      u;
}
// * * * * * * * * * * * * * * * * * * * * * * * * * * * * * * * * * * * * * //

dimensions      [0 0 0 0 0 0 0];

internalField   nonuniform List<vector> 
300
(
(-2.62725e+20 1.52583e+20 672.743)
(-1.31595e+19 -1.94926e+20 2.65494)
(3.72715e+19 4.35275e+19 -138.999)
(-6.70611e+19 -2.00559e+19 -74.2489)
(2.44304e+18 -6.50715e+19 59.4373)
(-2.75033e+19 -4.78016e+18 -13.7014)
(6.83251e+18 2.4698e+18 -0.0992592)
(-8.435e+18 -1.27116e+18 1.80706)
(2.84834e+18 7.56195e+17 -0.41303)
(-3.76139e+18 -4.6017e+16 3.17134)
(8.98134e+18 -2.75071e+19 10.2397)
(1.67466e+18 1.22231e+19 -48.5541)
(1.17399e+18 1.68898e+19 -59.6122)
(-8.15261e+18 2.2183e+19 -14.9826)
(-2.50427e+18 -2.21231e+19 -16.6074)
(2.20448e+18 6.27635e+18 33.5263)
(-1.08891e+18 -7.29904e+18 -4.83003)
(1.57285e+18 2.10208e+18 -6.48064)
(-7.51883e+17 -1.96424e+18 0.254257)
(1.07459e+18 2.15018e+16 1.05817)
(2.13143e+19 -7.15516e+18 17.986)
(-4.18407e+19 -1.29321e+19 48.1741)
(-1.14517e+19 -5.69818e+18 50.4033)
(3.21541e+17 -7.07227e+18 40.6148)
(2.6179e+18 6.64147e+18 40.4233)
(-4.79948e+18 -3.40825e+18 13.163)
(1.64053e+18 2.6105e+18 15.1398)
(-2.4922e+18 -1.26323e+18 -17.4387)
(9.88181e+17 8.59741e+17 1.70628)
(-1.49558e+18 -3.22771e+17 5.55841)
(1.3239e+19 -1.88208e+19 60.9751)
(7.16277e+18 -2.66348e+18 -100.033)
(3.1167e+18 -1.3149e+18 -0.814611)
(-2.67329e+18 6.53723e+18 -45.601)
(1.07071e+18 -7.06411e+18 -52.7144)
(4.20784e+17 2.71693e+18 -17.6607)
(1.78254e+17 -2.75535e+18 4.32463)
(4.1763e+17 9.42911e+17 0.414727)
(-9.74561e+16 -8.50219e+17 5.94713)
(4.03003e+17 4.43678e+16 -1.30737)
(-8.42096e+18 8.65823e+18 -1.42056)
(-9.63829e+18 -3.1394e+18 115.055)
(-5.32412e+18 -2.23866e+18 0.952013)
(-9.93872e+17 -2.62369e+18 -32.4647)
(-1.79899e+17 1.82086e+18 11.8344)
(-1.5195e+18 -1.58472e+18 -1.94512)
(2.79998e+17 9.26953e+17 -2.57237)
(-8.14342e+17 -6.54648e+17 0.218451)
(2.81421e+17 3.74114e+17 1.22545)
(-5.29862e+17 -2.39676e+17 0.970409)
(8.37143e+18 -8.89259e+18 0.227772)
(5.54202e+18 -1.78956e+18 -111.307)
(2.96775e+18 -1.50966e+18 0.520309)
(-3.05555e+17 1.92493e+18 18.5036)
(1.18265e+18 -2.27895e+18 -4.15568)
(3.46029e+16 9.86202e+17 -6.31331)
(3.41791e+17 -9.53265e+17 -0.438856)
(7.91912e+16 3.62433e+17 0.175432)
(5.35977e+16 -3.21893e+17 0.696093)
(1.41163e+17 3.28622e+16 2.45435)
(-5.49169e+18 4.23256e+18 -0.0842681)
(-4.52337e+18 -1.34605e+18 19.5438)
(-2.91874e+18 -1.12347e+18 -25.9931)
(-9.96001e+17 -1.22563e+18 -0.194126)
(-5.2986e+17 3.78935e+17 4.10603)
(-5.929e+17 -7.43332e+17 5.30966)
(-4.53692e+16 2.75579e+17 -4.40485)
(-2.80392e+17 -3.16838e+17 -0.633309)
(5.83265e+16 1.39413e+17 3.32528)
(-1.79876e+17 -1.34345e+17 2.48848)
(5.26832e+18 -4.11453e+18 -0.111504)
(3.73048e+18 -6.89689e+17 -1.53935)
(2.21803e+18 -6.7215e+17 42.9473)
(3.46479e+17 6.55121e+17 0.331457)
(8.23902e+17 -6.84402e+17 -0.523096)
(5.39131e+16 3.61303e+17 -0.605621)
(2.51822e+17 -3.00272e+17 -0.648062)
(2.21981e+16 1.3554e+17 -0.0140302)
(5.90588e+16 -1.1029e+17 -0.835336)
(5.22378e+16 1.85635e+16 2.5044)
(-3.42913e+18 1.93691e+18 -0.252392)
(-2.52642e+18 -7.86597e+17 24.1008)
(-1.68833e+18 -7.2866e+17 -3.53449)
(-6.95957e+17 -7.01102e+17 0.55005)
(-4.15507e+17 -2.91866e+16 5.62239)
(-2.67138e+17 -3.74048e+17 -0.904975)
(-8.50224e+16 5.19755e+16 -0.635822)
(-1.03593e+17 -1.54326e+17 0.602335)
(3.85663e+14 4.39535e+16 1.26929)
(-5.95837e+16 -6.74787e+16 2.51805)
(3.27181e+18 -1.77081e+18 -0.233707)
(2.34574e+18 -8.75953e+16 -33.2689)
(1.46191e+18 -1.12727e+17 0.137313)
(4.06019e+17 3.15131e+17 -0.207112)
(5.01918e+17 -1.48603e+17 -10.3894)
(7.18198e+16 1.56735e+17 2.22025)
(1.51813e+17 -7.49346e+16 -0.741661)
(1.5581e+16 5.63104e+16 -0.326845)
(3.91836e+16 -3.24179e+16 0.780793)
(2.1629e+16 1.04761e+16 2.49164)
(-2.11608e+18 7.97602e+17 -0.0716403)
(-1.46752e+18 -5.67459e+17 14.1471)
(-9.63043e+17 -5.39594e+17 -0.19786)
(-4.18164e+17 -4.4623e+17 0.373249)
(-2.59071e+17 -1.25868e+17 0.0266528)
(-1.27735e+17 -2.05392e+17 -0.652588)
(-6.21945e+16 -1.58284e+16 -1.61082)
(-4.05845e+16 -7.87942e+16 -0.251371)
(-9.15707e+15 9.08743e+15 0.903946)
(-1.94696e+16 -3.2655e+16 2.43489)
(1.98424e+18 -6.54331e+17 -9.23487)
(1.41136e+18 1.79023e+17 -9.10901)
(8.80682e+17 1.36193e+17 3.28042)
(3.02964e+17 2.10993e+17 -0.139913)
(2.83877e+17 2.18605e+16 -3.5887)
(5.98802e+16 8.63225e+16 -0.0322236)
(8.33979e+16 -3.08152e+15 0.525755)
(1.21868e+16 2.83122e+16 -0.315057)
(2.21689e+16 -6.00015e+15 1.20463)
(9.90821e+15 6.40005e+15 2.54722)
(-1.28309e+18 2.54013e+17 3.10657)
(-8.41721e+17 -4.36697e+17 8.11396)
(-5.24641e+17 -4.02415e+17 -2.19318)
(-2.2759e+17 -2.92303e+17 0.349632)
(-1.41979e+17 -1.24582e+17 0.0327343)
(-5.96001e+16 -1.19654e+17 -0.224526)
(-3.54392e+16 -2.94842e+16 -0.918661)
(-1.58001e+16 -4.23892e+16 -0.0901879)
(-7.10912e+15 -1.9447e+15 1.16795)
(-6.16549e+15 -1.58546e+16 2.31606)
(1.17012e+18 -1.5699e+17 -1.38722)
(8.1213e+17 2.5568e+17 -5.06053)
(4.91264e+17 2.00646e+17 -1.85489)
(1.88107e+17 1.58134e+17 -1.13989)
(1.50178e+17 6.30264e+16 0.472496)
(3.90141e+16 5.57393e+16 -1.28634)
(4.26963e+16 1.53734e+16 -0.693054)
(7.93476e+15 1.67625e+16 -0.477307)
(1.14728e+16 1.77538e+15 0.729682)
(4.76145e+15 4.1414e+15 1.82387)
(-7.59309e+17 1.55304e+16 -0.892585)
(-4.65505e+17 -3.3033e+17 0.045714)
(-2.67783e+17 -2.8777e+17 0.22462)
(-1.12977e+17 -1.89936e+17 -0.206272)
(-6.90984e+16 -9.64157e+16 0.2556)
(-2.51899e+16 -7.12512e+16 -0.280126)
(-1.68983e+16 -2.59392e+16 -0.591888)
(-5.37483e+15 -2.35663e+16 -0.545845)
(-3.80465e+15 -4.23147e+15 0.825865)
(-1.71905e+15 -7.85271e+15 2.83166)
(6.69191e+17 3.84036e+16 -0.774609)
(4.44208e+17 2.39785e+17 0.0137954)
(2.53847e+17 1.82042e+17 0.0215878)
(1.02802e+17 1.16389e+17 -0.110433)
(7.34183e+16 6.01501e+16 0.187332)
(2.12427e+16 3.76489e+16 -0.203302)
(2.01535e+16 1.63453e+16 -0.570846)
(4.23063e+15 1.06853e+16 -0.768657)
(5.47607e+15 3.21885e+15 0.00849131)
(2.26019e+15 2.721e+15 0.305494)
(-4.35929e+17 -7.16374e+16 -0.68646)
(-2.44137e+17 -2.39217e+17 -1.22647)
(-1.24966e+17 -1.95488e+17 -0.135638)
(-4.97796e+16 -1.2071e+17 -0.658382)
(-2.8731e+16 -6.64531e+16 0.398885)
(-8.45505e+15 -4.2295e+16 -0.633197)
(-6.3911e+15 -1.86178e+16 -0.378602)
(-1.02633e+15 -1.32276e+16 -0.867016)
(-1.52353e+15 -3.70908e+15 -0.291606)
(-2.55975e+14 -3.968e+15 0.012453)
(3.69966e+17 9.52724e+16 0.677591)
(2.28677e+17 1.89718e+17 1.62329)
(1.19861e+17 1.37776e+17 0.912438)
(4.94955e+16 8.11709e+16 0.115844)
(3.21061e+16 4.53809e+16 0.131921)
(9.54561e+15 2.49786e+16 0.227642)
(8.40986e+15 1.25892e+16 -0.0726947)
(1.74172e+15 6.84672e+15 -0.325416)
(2.34235e+15 2.76359e+15 -0.119717)
(9.96254e+14 1.76111e+15 0.00737604)
(-2.41364e+17 -8.89014e+16 -1.71816)
(-1.18934e+17 -1.65145e+17 0.141005)
(-5.05092e+16 -1.26452e+17 0.768319)
(-1.76126e+16 -7.46302e+16 -0.0995263)
(-8.63933e+15 -4.25037e+16 -0.634662)
(-1.00966e+15 -2.46963e+16 0.202704)
(-1.27855e+15 -1.2019e+16 0.14368)
(5.95599e+14 -7.36995e+15 -0.0773012)
(-3.2129e+14 -2.59726e+15 -0.0997469)
(1.76175e+14 -2.03094e+15 0.0342399)
(1.96748e+17 9.49493e+16 0.0159693)
(1.08794e+17 1.35736e+17 1.49489)
(4.96321e+16 9.40105e+16 -0.0225957)
(1.99308e+16 5.34766e+16 0.456276)
(1.14871e+16 3.04647e+16 -0.437711)
(3.04249e+15 1.5912e+16 -0.0308116)
(2.73076e+15 8.45892e+15 0.00137703)
(3.64741e+14 4.26511e+15 0.00989112)
(8.16331e+14 1.93943e+15 -0.028381)
(3.70207e+14 1.10442e+15 -0.0405667)
(-1.27961e+17 -7.81455e+16 -0.00684876)
(-5.17525e+16 -1.08939e+17 -0.228649)
(-1.47463e+16 -7.82115e+16 -0.00599415)
(-2.79363e+15 -4.47712e+16 0.120875)
(1.10885e+14 -2.56673e+16 -0.315261)
(1.77698e+15 -1.40817e+16 0.214077)
(7.8534e+14 -7.21678e+15 0.0429799)
(1.01718e+15 -4.03187e+15 0.00943401)
(1.83477e+14 -1.62077e+15 -0.00245228)
(2.54835e+14 -1.04388e+15 -0.00302687)
(9.98205e+16 7.57455e+16 -0.00457688)
(4.59418e+16 9.04814e+16 1.01585)
(1.57665e+16 5.96852e+16 0.0936183)
(5.30437e+15 3.34149e+16 -0.0186685)
(2.18611e+15 1.89126e+16 0.159799)
(-2.33567e+13 9.67194e+15 -0.0506957)
(2.69531e+14 5.21496e+15 0.156052)
(-2.53412e+14 2.54833e+15 0.0691129)
(1.42553e+14 1.22247e+15 -0.00396376)
(8.19696e+13 6.65862e+14 0.000974102)
(-6.42642e+16 -5.96438e+16 -0.00321164)
(-1.81278e+16 -6.89769e+16 -0.0144536)
(4.5268e+14 -4.64275e+16 -0.00820002)
(2.9804e+15 -2.60225e+16 -0.0163463)
(3.1052e+15 -1.47481e+16 0.00116856)
(2.40472e+15 -7.80063e+15 0.0197241)
(1.34124e+15 -4.08431e+15 0.034445)
(9.59105e+14 -2.14823e+15 0.0419132)
(3.23674e+14 -9.34118e+14 0.0326237)
(2.23036e+14 -5.3416e+14 0.0131275)
(4.75954e+16 5.41777e+16 -0.00410306)
(1.53096e+16 5.71223e+16 -0.134751)
(1.19922e+15 3.58109e+16 -0.32174)
(-9.28634e+14 1.9891e+16 -0.0149501)
(-1.36266e+15 1.10326e+16 0.00301285)
(-1.14869e+15 5.60207e+15 0.0394313)
(-6.00739e+14 3.0042e+15 0.0735514)
(-4.41687e+14 1.4517e+15 0.0695932)
(-1.07662e+14 7.13157e+14 0.103136)
(-3.27625e+13 3.84579e+14 0.0510714)
(-2.9929e+16 -4.21786e+16 -0.00542348)
(-2.91275e+15 -4.22825e+16 -0.0354727)
(5.51604e+15 -2.6598e+16 -0.00776992)
(4.41578e+15 -1.46856e+16 -0.07168)
(3.49225e+15 -8.10404e+15 0.145511)
(2.15473e+15 -4.18766e+15 0.0309883)
(1.25703e+15 -2.19046e+15 0.134404)
(7.50926e+14 -1.10772e+15 0.162636)
(3.0517e+14 -5.04169e+14 0.0969776)
(1.67163e+14 -2.69977e+14 0.0991593)
(2.0569e+16 3.62441e+16 -0.0119243)
(1.79609e+15 3.46131e+16 0.234011)
(-3.93162e+15 2.053e+16 -0.012134)
(-2.92988e+15 1.13562e+16 0.106648)
(-2.25384e+15 6.10269e+15 0.0818486)
(-1.32911e+15 3.09728e+15 0.167257)
(-7.59549e+14 1.62948e+15 0.208349)
(-4.26547e+14 7.86704e+14 0.142902)
(-1.65273e+14 3.89711e+14 -0.0599899)
(-6.51107e+13 2.12831e+14 -0.455912)
(-1.20835e+16 -2.87129e+16 0.169916)
(2.92288e+15 -2.57232e+16 -0.056328)
(6.12205e+15 -1.50052e+16 -0.0989067)
(4.03663e+15 -8.24177e+15 0.0530189)
(2.89954e+15 -4.35173e+15 0.219582)
(1.63989e+15 -2.22205e+15 0.258788)
(9.66347e+14 -1.13448e+15 0.288395)
(5.30525e+14 -5.60727e+14 0.0541558)
(2.3442e+14 -2.61118e+14 -0.603646)
(1.15508e+14 -1.37198e+14 -1.79188)
(6.89526e+15 2.31586e+16 -0.0628668)
(-3.39931e+15 2.05982e+16 -0.106208)
(-5.03753e+15 1.14812e+16 0.0409062)
(-3.13533e+15 6.39263e+15 0.0299491)
(-2.12236e+15 3.2841e+15 0.227766)
(-1.15206e+15 1.67963e+15 0.376143)
(-6.58777e+14 8.53037e+14 0.424135)
(-3.42875e+14 4.16226e+14 0.139623)
(-1.49274e+14 2.06658e+14 -0.400521)
(-6.70681e+13 1.17884e+14 -1.17186)
(-2.70102e+15 -1.93694e+16 -0.0354953)
(4.6191e+15 -1.67278e+16 0.00834255)
(5.21588e+15 -9.01423e+15 0.0036653)
(3.15764e+15 -5.19654e+15 0.122271)
(2.10807e+15 -2.60911e+15 0.28813)
(1.13426e+15 -1.37812e+15 0.501309)
(6.60009e+14 -6.73404e+14 0.35504)
(3.46495e+14 -3.42275e+14 -0.332919)
(1.59045e+14 -1.60784e+14 -0.866253)
(7.93109e+13 -1.00896e+14 -1.63875)
(-6.35811e+14 1.39834e+16 0.0223082)
(-1.77448e+15 1.24059e+16 -0.00455173)
(-1.30378e+15 6.3043e+15 0.146626)
(-9.41704e+14 3.8025e+15 0.531466)
(-5.13264e+14 1.84754e+15 0.969776)
(-3.12525e+14 1.01463e+15 1.00317)
(-1.53311e+14 4.91892e+14 -0.313402)
(-8.56664e+13 2.59505e+14 -3.64006)
(-3.32524e+13 1.30369e+14 -6.40973)
(-1.44199e+13 9.45123e+13 -2.1249)
)
;

boundaryField
{
    frontAndBack
    {
        type            empty;
    }
    symm
    {
        type            symmetryPlane;
    }
    in
    {
        type            myVelocity;
    }
    out
    {
        type            fixedValue;
        value           uniform (1 0 0);
    }
}


// ************************************************************************* //
