/*--------------------------------*- C++ -*----------------------------------*\
| =========                 |                                                 |
| \\      /  F ield         | foam-extend: Open Source CFD                    |
|  \\    /   O peration     | Version:  3.0                                   |
|   \\  /    A nd           | Web:         http://www.extend-project.de       |
|    \\/     M anipulation  |                                                 |
\*---------------------------------------------------------------------------*/
FoamFile
{
    version     2.0;
    format      ascii;
    class       volScalarField;
    location    "2";
    object      p;
}
// * * * * * * * * * * * * * * * * * * * * * * * * * * * * * * * * * * * * * //

dimensions      [0 0 0 0 0 0 0];

internalField   nonuniform List<scalar> 
400
(
0.368051
0.119143
0.255462
0.125384
0.200667
0.152367
0.172216
0.166277
0.172953
0.182865
-3.68337
-2.38
-1.71938
-0.969324
-0.714047
-0.301897
-0.221477
-0.0488731
-0.00952495
0.0374853
0.451603
0.198639
0.332295
0.197583
0.270586
0.218703
0.238196
0.229648
0.235959
0.244643
-2.486
-1.87752
-1.32686
-0.688973
-0.457802
-0.134131
-0.0576854
0.0790259
0.116345
0.155353
0.788788
0.451788
0.48163
0.356744
0.398837
0.358474
0.370883
0.364968
0.369337
0.376321
-1.4722
-0.99506
-0.611647
-0.204409
-0.0432636
0.153482
0.212729
0.303348
0.333459
0.360885
0.957627
0.691849
0.671642
0.580388
0.595668
0.566519
0.570533
0.565286
0.566652
0.571003
-0.483858
-0.150548
0.0664623
0.284365
0.380465
0.489099
0.529438
0.583302
0.604118
0.620571
1.1182
0.945707
0.913189
0.848757
0.84664
0.821243
0.819219
0.811258
0.810099
0.810998
0.322991
0.513319
0.622467
0.727652
0.779586
0.833218
0.858059
0.883846
0.896076
0.903081
1.33536
1.22515
1.19111
1.13719
1.12359
1.09575
1.09068
1.07745
1.0747
1.07154
0.939579
1.03114
1.08143
1.12134
1.14336
1.15973
1.173
1.17719
1.18275
1.18188
1.5895
1.50901
1.47371
1.41921
1.3974
1.36357
1.35734
1.33738
1.33362
1.32616
1.41201
1.44338
1.45953
1.4574
1.4578
1.44726
1.45242
1.44019
1.44106
1.43384
1.83463
1.76539
1.72802
1.66823
1.64021
1.59913
1.59249
1.5656
1.56108
1.54961
1.76363
1.75817
1.75227
1.72143
1.70637
1.67673
1.67659
1.65246
1.65028
1.63823
2.02957
1.96406
1.92476
1.85921
1.82672
1.77919
1.77233
1.73968
1.73455
1.71991
1.99525
1.96769
1.94783
1.89872
1.87373
1.83192
1.82861
1.79686
1.79287
1.77765
2.14479
2.08109
2.04092
1.97184
1.93686
1.88539
1.87844
1.84229
1.83679
1.82024
2.10154
2.06317
2.03631
1.9785
1.94872
1.9013
1.89647
1.86128
1.85645
1.83981
2.16306
2.10173
2.06227
1.99351
1.95841
1.9066
1.89977
1.86308
1.85755
1.84064
2.08056
2.04128
2.01386
1.9564
1.92668
1.87991
1.87487
1.84035
1.8355
1.81922
2.07973
2.02219
1.98524
1.92119
1.88846
1.84032
1.83389
1.79985
1.79468
1.779
1.93692
1.90604
1.88417
1.83565
1.81056
1.77039
1.76633
1.73638
1.73226
1.71806
1.90296
1.85025
1.81736
1.76194
1.73385
1.69303
1.68723
1.65877
1.65432
1.64135
1.68209
1.66878
1.6584
1.62698
1.61092
1.5829
1.58107
1.55928
1.55664
1.54606
1.65291
1.6045
1.57656
1.53227
1.5105
1.47958
1.4745
1.45384
1.45034
1.44127
1.33252
1.34669
1.35384
1.34735
1.34461
1.33396
1.33587
1.32545
1.32514
1.31947
1.36003
1.31232
1.28924
1.25623
1.24174
1.22157
1.21717
1.20541
1.20294
1.1985
0.905109
0.959538
0.991045
1.01754
1.03246
1.04426
1.05187
1.05575
1.05884
1.0591
1.06343
1.00678
0.987298
0.962479
0.955659
0.945017
0.941282
0.938081
0.936613
0.936943
0.406489
0.522283
0.588697
0.658722
0.69605
0.735919
0.751811
0.772958
0.78087
0.787882
0.809333
0.722952
0.704707
0.680452
0.681824
0.67718
0.674609
0.678151
0.677699
0.682332
-0.184063
0.0293031
0.153715
0.287552
0.354045
0.43005
0.457438
0.499377
0.513888
0.52839
0.643744
0.492717
0.474429
0.436763
0.448118
0.44364
0.44386
0.451029
0.451944
0.459874
-0.915216
-0.562238
-0.332335
-0.0900469
0.0183627
0.146049
0.188557
0.256176
0.27896
0.301795
0.581235
0.332438
0.323497
0.253475
0.279425
0.266843
0.272618
0.279351
0.282352
0.292276
-1.78584
-1.29414
-0.90135
-0.476372
-0.306364
-0.0957855
-0.0350233
0.0655636
0.0970846
0.129142
0.547384
0.221204
0.258191
0.146874
0.195777
0.166005
0.179541
0.181295
0.186716
0.197276
-2.65157
-2.03491
-1.4793
-0.831913
-0.596081
-0.265121
-0.187914
-0.0459917
-0.00796956
0.0334679
)
;

boundaryField
{
    up
    {
        type            implicitExtrapolation;
    }
    hole
    {
        type            implicitExtrapolation;
    }
    frontAndBack
    {
        type            empty;
    }
}


// ************************************************************************* //
