/*--------------------------------*- C++ -*----------------------------------*\
| =========                 |                                                 |
| \\      /  F ield         | foam-extend: Open Source CFD                    |
|  \\    /   O peration     | Version:  3.0                                   |
|   \\  /    A nd           | Web:         http://www.extend-project.de       |
|    \\/     M anipulation  |                                                 |
\*---------------------------------------------------------------------------*/
FoamFile
{
    version     2.0;
    format      ascii;
    class       volVectorField;
    location    "2";
    object      u;
}
// * * * * * * * * * * * * * * * * * * * * * * * * * * * * * * * * * * * * * //

dimensions      [0 0 0 0 0 0 0];

internalField   nonuniform List<vector> 
400
(
(-0.482957 5.70448 -6.16314e-17)
(0.75628 1.27392 4.59114e-17)
(0.659144 0.772931 -4.30785e-17)
(0.991139 0.20754 9.73269e-18)
(0.913272 0.146551 -1.75726e-17)
(1.00226 0.0253784 6.85704e-18)
(0.996415 0.0178648 -5.12168e-18)
(1.01269 -0.0108197 -1.76571e-18)
(1.02124 -0.0136875 2.97677e-18)
(0.998295 -0.017141 -2.02096e-18)
(-5.88559 -1.9733 1.26152e-16)
(-3.20783 -1.2303 6.64115e-17)
(-0.963367 -0.660335 2.99127e-17)
(-0.476075 -0.504265 -2.55855e-17)
(0.313248 -0.303312 3.18916e-17)
(0.421015 -0.257723 4.62636e-19)
(0.781722 -0.164477 -4.96318e-17)
(0.791337 -0.151243 1.31069e-16)
(0.986739 -0.102001 -5.1914e-17)
(0.943911 -0.0948087 -2.41531e-18)
(2.55022 -6.30637 -1.10227e-16)
(1.54625 -1.62661 6.63942e-17)
(1.20072 -1.17299 5.38487e-18)
(1.20592 -0.451179 -1.06845e-16)
(1.09603 -0.413648 7.56171e-17)
(1.10581 -0.230511 2.6185e-16)
(1.08794 -0.216391 -2.83869e-16)
(1.08274 -0.163587 9.60266e-17)
(1.08409 -0.154496 1.32448e-16)
(1.05198 -0.12913 -1.44965e-16)
(-1.48895 -1.47558 -2.09926e-16)
(-0.631702 -1.3881 -1.43304e-18)
(-0.114098 -0.992127 -9.31354e-17)
(0.223042 -0.818163 2.00473e-16)
(0.634371 -0.529291 -2.8304e-16)
(0.719103 -0.46361 9.45873e-17)
(0.938951 -0.308583 -2.64631e-17)
(0.9464 -0.285834 2.86291e-16)
(1.0798 -0.196955 -4.18078e-17)
(1.03535 -0.178016 -1.05811e-16)
(3.3515 -3.57784 1.89728e-16)
(2.23827 -1.64519 1.54259e-16)
(1.77305 -1.1877 -1.02597e-16)
(1.49045 -0.590637 1.51514e-16)
(1.36663 -0.516766 1.3818e-16)
(1.27624 -0.329997 -2.41107e-16)
(1.24924 -0.297449 4.56313e-17)
(1.20917 -0.235154 -3.87126e-16)
(1.20443 -0.217389 3.01665e-16)
(1.15257 -0.18311 -1.41266e-16)
(0.265419 -1.19934 2.76032e-16)
(0.628367 -1.18553 -9.93721e-17)
(0.766998 -0.93489 7.35479e-17)
(0.908084 -0.771622 -1.68115e-16)
(1.04724 -0.549485 1.37888e-16)
(1.07361 -0.476031 1.8559e-17)
(1.15993 -0.337928 8.02499e-18)
(1.15271 -0.307913 2.86118e-16)
(1.21567 -0.221195 -3.52248e-16)
(1.16243 -0.19552 3.65801e-16)
(3.47961 -1.84274 -4.19954e-16)
(2.45965 -0.977944 -7.78062e-18)
(2.02662 -0.733113 2.40596e-16)
(1.68956 -0.430003 7.18413e-18)
(1.56822 -0.381643 -1.70106e-16)
(1.44018 -0.273454 -1.78462e-16)
(1.40028 -0.245072 7.70481e-18)
(1.34103 -0.20489 -3.55144e-16)
(1.3285 -0.189176 -1.1439e-16)
(1.25955 -0.162266 3.55552e-16)
(1.33116 -0.850401 3.68955e-16)
(1.37395 -0.794912 -7.27539e-17)
(1.36984 -0.643886 3.0456e-19)
(1.35678 -0.529104 -2.23238e-16)
(1.36863 -0.399163 3.25054e-17)
(1.34113 -0.341227 -5.11151e-17)
(1.35096 -0.249879 6.06213e-16)
(1.3254 -0.223206 -3.39568e-16)
(1.34077 -0.162885 -1.61958e-16)
(1.27503 -0.141205 5.7636e-16)
(3.28235 -0.63527 -5.00975e-16)
(2.41121 -0.3349 1.12872e-16)
(2.07261 -0.267582 -9.42674e-17)
(1.76998 -0.164915 2.84723e-16)
(1.66364 -0.157927 -7.11686e-17)
(1.53477 -0.118261 -3.12151e-17)
(1.48888 -0.111726 1.7699e-16)
(1.42638 -0.0961296 -4.38451e-16)
(1.4097 -0.092392 2.99184e-16)
(1.33204 -0.0796418 -1.20631e-16)
(1.91639 -0.302965 1.81507e-16)
(1.73854 -0.315191 -7.27724e-17)
(1.66511 -0.259719 -2.95075e-17)
(1.56789 -0.215494 -1.72698e-17)
(1.53369 -0.1593 -5.8883e-17)
(1.47413 -0.130063 2.38401e-19)
(1.45154 -0.0896072 -1.96646e-18)
(1.41329 -0.0738771 5.91717e-18)
(1.40683 -0.0469001 -1.56994e-17)
(1.33299 -0.0369428 -9.36684e-18)
(2.90479 0.249506 1.22621e-16)
(2.21532 0.185292 1.0509e-16)
(1.9692 0.132663 -1.51821e-16)
(1.72295 0.108607 1.703e-17)
(1.64135 0.0764544 -7.07435e-17)
(1.52953 0.0681806 1.58767e-17)
(1.49103 0.0473231 -2.0554e-17)
(1.43438 0.0453249 -1.4319e-17)
(1.42129 0.0330526 -3.1896e-18)
(1.34325 0.0316299 -3.58909e-17)
(2.01087 0.312417 -4.2089e-16)
(1.77239 0.147566 -1.37126e-16)
(1.69004 0.114693 3.16544e-16)
(1.5737 0.0845455 -3.41192e-16)
(1.53482 0.085635 2.13833e-16)
(1.46673 0.083336 8.67345e-18)
(1.44252 0.0796398 -2.89959e-16)
(1.40021 0.0826986 8.58708e-16)
(1.39263 0.080236 -4.62734e-16)
(1.3186 0.0770041 -6.70986e-17)
(2.33505 0.858454 2.43704e-16)
(1.87676 0.555463 1.58778e-16)
(1.72775 0.424556 1.83614e-17)
(1.55674 0.320945 -3.69413e-16)
(1.51064 0.260691 3.18279e-16)
(1.42632 0.22318 9.56514e-16)
(1.40873 0.179997 -1.16938e-15)
(1.36172 0.168094 3.45265e-16)
(1.36062 0.142122 8.27837e-16)
(1.28865 0.130128 -1.53557e-15)
(1.69166 0.773458 -6.60824e-16)
(1.54617 0.475694 -2.12008e-18)
(1.50539 0.380108 -5.12501e-16)
(1.42182 0.293783 8.47865e-16)
(1.40351 0.258686 -1.137e-15)
(1.34678 0.232214 4.37675e-16)
(1.3419 0.199017 -5.84357e-17)
(1.30293 0.192481 1.44427e-15)
(1.30812 0.170819 -1.96148e-16)
(1.24079 0.158106 -8.76164e-16)
(1.62196 1.11848 9.35557e-16)
(1.43702 0.712523 3.31904e-16)
(1.39446 0.550903 -2.3355e-16)
(1.3131 0.414843 4.08829e-16)
(1.30922 0.344702 4.08039e-16)
(1.25719 0.29619 -7.31437e-16)
(1.26932 0.243657 9.69546e-17)
(1.23286 0.2284 -1.60878e-15)
(1.24966 0.19635 1.25226e-15)
(1.18757 0.179454 -9.23347e-16)
(1.14838 0.904668 6.32889e-16)
(1.1829 0.574655 -3.47091e-16)
(1.21206 0.460163 2.7361e-16)
(1.19041 0.356113 -4.98618e-16)
(1.20545 0.308252 4.23608e-16)
(1.17135 0.27293 4.82499e-17)
(1.19574 0.230296 1.57406e-17)
(1.16409 0.21991 1.10767e-15)
(1.18822 0.192416 -1.32062e-15)
(1.13101 0.176756 1.58535e-15)
(0.927734 0.979403 -1.12729e-15)
(1.00457 0.620522 -1.29142e-18)
(1.06061 0.481803 5.21054e-16)
(1.06455 0.362908 2.14693e-17)
(1.10036 0.304096 -4.16635e-16)
(1.0783 0.262203 -4.39153e-16)
(1.12051 0.217144 -9.90819e-20)
(1.09341 0.204105 -1.02787e-15)
(1.12875 0.176431 -4.0609e-16)
(1.07703 0.161135 1.13647e-15)
(0.630489 0.658375 7.90562e-16)
(0.841183 0.422704 -1.85577e-16)
(0.937529 0.338828 2.86021e-18)
(0.976694 0.262227 -4.9429e-16)
(1.0233 0.225796 6.48086e-17)
(1.01156 0.199012 -1.02102e-16)
(1.06283 0.167163 1.49757e-15)
(1.03842 0.158963 -8.25065e-16)
(1.0797 0.138612 -4.15213e-16)
(1.0318 0.126835 1.73182e-15)
(0.45385 0.50132 -9.5775e-16)
(0.70884 0.315944 1.89725e-16)
(0.830657 0.244844 -1.61786e-16)
(0.892162 0.183959 5.20611e-16)
(0.954446 0.154363 -1.28326e-16)
(0.952333 0.133117 -5.63245e-17)
(1.01532 0.110472 3.88343e-16)
(0.994343 0.103882 -9.46351e-16)
(1.04262 0.090069 6.90321e-16)
(0.998257 0.0819605 -2.52847e-16)
(0.361616 0.136124 3.14854e-16)
(0.663362 0.0897181 -1.38586e-16)
(0.794823 0.0730785 -5.95133e-17)
(0.865996 0.0574746 -2.31407e-17)
(0.929271 0.0497722 -1.10842e-16)
(0.929444 0.0441887 3.29314e-18)
(0.994657 0.0372058 9.55691e-18)
(0.974135 0.0354225 1.29819e-17)
(1.02421 0.0310706 -7.91424e-18)
(0.981215 0.0279836 2.07888e-17)
(0.34682 -0.142534 1.83056e-16)
(0.643418 -0.0926658 1.49968e-16)
(0.780116 -0.0749203 -2.27596e-16)
(0.854635 -0.0581706 2.57458e-17)
(0.922507 -0.0500309 -1.09597e-16)
(0.924777 -0.0439768 2.13364e-17)
(0.992154 -0.0367615 -2.06137e-17)
(0.972507 -0.0349243 -2.42851e-17)
(1.0235 -0.0300909 9.3345e-18)
(0.980892 -0.0281594 -2.74313e-17)
(0.457726 -0.451453 -5.94857e-16)
(0.722884 -0.286525 -2.0734e-16)
(0.841714 -0.227023 4.5073e-16)
(0.901583 -0.173402 -4.93489e-16)
(0.959856 -0.148028 3.1545e-16)
(0.95625 -0.129205 9.88468e-18)
(1.01721 -0.107961 -4.21637e-16)
(0.995604 -0.102225 1.28044e-15)
(1.0429 -0.088537 -7.00083e-16)
(0.99858 -0.0817355 -6.09472e-17)
(0.633835 -0.721096 3.07466e-16)
(0.825957 -0.459661 1.88328e-16)
(0.92386 -0.362277 2.21432e-17)
(0.963977 -0.275836 -4.54127e-16)
(1.01526 -0.233959 3.96368e-16)
(1.00544 -0.203447 1.22562e-15)
(1.05937 -0.169442 -1.53577e-15)
(1.03601 -0.160064 4.46741e-16)
(1.07849 -0.138505 1.09421e-15)
(1.03145 -0.12743 -2.07163e-15)
(0.884497 -0.868087 -7.1194e-16)
(0.99728 -0.552816 -5.82585e-19)
(1.06016 -0.439736 -5.93938e-16)
(1.06935 -0.337268 1.00022e-15)
(1.10299 -0.288776 -1.34543e-15)
(1.08135 -0.252814 5.02209e-16)
(1.12165 -0.21162 -7.07075e-17)
(1.09444 -0.200624 1.70417e-15)
(1.12857 -0.174165 -2.6117e-16)
(1.07723 -0.160223 -1.0497e-15)
(1.20861 -1.02718 1.05087e-15)
(1.18905 -0.654412 3.61676e-16)
(1.20849 -0.513702 -2.4581e-16)
(1.17945 -0.390127 4.34282e-16)
(1.1979 -0.329705 4.27139e-16)
(1.16392 -0.286059 -7.64248e-16)
(1.1915 -0.237822 9.51686e-17)
(1.16073 -0.224351 -1.72367e-15)
(1.18666 -0.194051 1.31543e-15)
(1.13067 -0.17814 -1.02133e-15)
(1.47143 -0.945176 5.69682e-16)
(1.37722 -0.599076 -3.35422e-16)
(1.36363 -0.477392 2.58427e-16)
(1.30345 -0.366877 -4.69627e-16)
(1.30287 -0.315606 4.0242e-16)
(1.25636 -0.277346 4.23003e-17)
(1.26771 -0.232935 5.19318e-18)
(1.2327 -0.221409 1.0552e-15)
(1.24839 -0.192752 -1.25626e-15)
(1.18707 -0.177317 1.42597e-15)
(1.87058 -0.950899 -1.00477e-15)
(1.6053 -0.608482 -7.05077e-18)
(1.53241 -0.475507 4.52098e-16)
(1.42304 -0.360635 1.06149e-18)
(1.40332 -0.302643 -3.3777e-16)
(1.34124 -0.261719 -3.65028e-16)
(1.33906 -0.21655 -1.1544e-17)
(1.29961 -0.203805 -8.52085e-16)
(1.30703 -0.175737 -3.27358e-16)
(1.24088 -0.161105 8.95975e-16)
(1.97747 -0.649345 6.22558e-16)
(1.70786 -0.400672 -1.4719e-16)
(1.62943 -0.319434 8.13355e-18)
(1.51064 -0.245508 -4.11351e-16)
(1.48058 -0.214442 6.86274e-17)
(1.41308 -0.190514 -6.67724e-17)
(1.39876 -0.16197 1.13235e-15)
(1.35716 -0.155397 -6.17433e-16)
(1.35637 -0.136645 -2.93248e-16)
(1.286 -0.126221 1.24593e-15)
(2.40197 -0.514037 -7.04432e-16)
(1.93659 -0.337521 1.4241e-16)
(1.78536 -0.261527 -1.19863e-16)
(1.61014 -0.199385 3.72576e-16)
(1.55849 -0.16339 -9.79253e-17)
(1.47302 -0.140495 -4.11233e-17)
(1.44776 -0.113962 2.66024e-16)
(1.4009 -0.106656 -6.23694e-16)
(1.39437 -0.0905553 4.60297e-16)
(1.32053 -0.082927 -1.46855e-16)
(2.18291 -0.0986391 2.1686e-16)
(1.84698 -0.0281456 -8.35581e-17)
(1.74393 -0.0203747 -4.00503e-17)
(1.60413 -0.0126996 -1.46375e-17)
(1.5627 -0.018888 -7.3077e-17)
(1.48825 -0.0210202 4.07904e-18)
(1.46251 -0.0230494 1.36214e-17)
(1.41896 -0.0256569 7.64465e-18)
(1.41057 -0.0263693 5.7371e-18)
(1.33583 -0.0260133 3.11665e-17)
(2.65343 0.151756 9.20739e-17)
(2.08762 0.0724624 9.61649e-17)
(1.89073 0.0580811 -1.31481e-16)
(1.68211 0.037465 2.07681e-17)
(1.61251 0.0391258 -6.02538e-17)
(1.51445 0.0329268 1.26999e-17)
(1.47953 0.0323863 -4.96831e-18)
(1.42822 0.0304931 -1.16765e-17)
(1.41657 0.0296993 1.56449e-17)
(1.34017 0.0268005 6.55737e-18)
(1.9708 0.479747 -3.03767e-16)
(1.71642 0.381535 -1.06031e-16)
(1.64296 0.311539 2.43372e-16)
(1.53374 0.251569 -2.54403e-16)
(1.50687 0.202482 1.63054e-16)
(1.44536 0.172639 1.38496e-18)
(1.42939 0.134465 -1.92347e-16)
(1.39093 0.121445 5.77251e-16)
(1.38858 0.0971517 -3.00919e-16)
(1.31653 0.0856444 3.29623e-18)
(2.60474 0.886062 1.70605e-16)
(2.04277 0.513362 1.00797e-16)
(1.832 0.393984 1.34287e-17)
(1.62586 0.276348 -2.12389e-16)
(1.5534 0.240624 1.65844e-16)
(1.45589 0.19872 5.3278e-16)
(1.42573 0.17193 -6.44224e-16)
(1.37394 0.1577 1.93168e-16)
(1.36631 0.141269 3.99393e-16)
(1.29356 0.127213 -6.78445e-16)
(1.36157 0.834764 -3.59478e-16)
(1.31942 0.682707 -5.21652e-18)
(1.32664 0.558054 -2.55187e-16)
(1.29751 0.458406 4.39946e-16)
(1.3139 0.370956 -5.51755e-16)
(1.28469 0.323158 1.94322e-16)
(1.30186 0.253519 -4.036e-17)
(1.27599 0.232926 5.68913e-16)
(1.29543 0.187482 -1.11192e-16)
(1.23332 0.166545 -2.92775e-16)
(2.35248 1.62727 3.93114e-16)
(1.86181 0.926433 1.56739e-16)
(1.6479 0.687131 -1.15312e-16)
(1.47135 0.457109 1.71759e-16)
(1.4054 0.387766 1.54691e-16)
(1.32229 0.304608 -2.71233e-16)
(1.30691 0.260394 4.32163e-17)
(1.2603 0.230648 -5.0325e-16)
(1.26244 0.204947 3.63425e-16)
(1.19931 0.181748 -2.37005e-16)
(0.481178 0.790946 2.30979e-16)
(0.706397 0.774954 -1.04815e-16)
(0.833278 0.632096 7.75307e-17)
(0.92435 0.539394 -1.52364e-16)
(1.02154 0.422408 1.2812e-16)
(1.03861 0.37478 1.20175e-17)
(1.11298 0.287131 -2.94625e-18)
(1.10491 0.265996 2.40035e-16)
(1.16228 0.208819 -2.94702e-16)
(1.11449 0.185143 2.10875e-16)
(1.95739 2.50621 -3.42466e-16)
(1.59822 1.33857 7.63737e-19)
(1.38393 0.936145 1.73443e-16)
(1.27029 0.546041 -2.03957e-17)
(1.21125 0.449559 -8.65704e-17)
(1.16093 0.317765 -1.02166e-16)
(1.162 0.270443 -3.81855e-18)
(1.12974 0.223968 -1.78552e-16)
(1.14174 0.198177 -3.49916e-17)
(1.0932 0.170678 1.13877e-16)
(-0.559988 0.338273 1.6056e-16)
(-0.0917352 0.605592 -1.27995e-17)
(0.198096 0.476098 6.83642e-18)
(0.44051 0.443565 -1.33194e-16)
(0.688994 0.318228 3.87886e-17)
(0.75825 0.293077 -1.60761e-17)
(0.918804 0.211726 2.26753e-16)
(0.927743 0.199739 -1.26413e-16)
(1.03744 0.149051 -3.82202e-17)
(1.00171 0.132018 8.43948e-17)
(1.20573 3.74903 -1.90845e-16)
(1.19308 1.67586 6.6536e-17)
(1.02739 1.10249 -6.77437e-17)
(1.07778 0.503965 1.39363e-16)
(1.01951 0.397852 -4.58381e-17)
(1.03202 0.223324 -1.62085e-17)
(1.03943 0.189892 5.5308e-17)
(1.03228 0.135645 -1.17896e-16)
(1.0478 0.118918 6.97408e-17)
(1.01553 0.0965518 -1.45104e-17)
(-2.03021 -0.398615 1.85022e-17)
(-1.1688 0.0954023 6.80204e-18)
(-0.503014 0.0321973 -1.87653e-17)
(-0.107057 0.101822 -9.32447e-18)
(0.402108 0.0513275 -1.87907e-17)
(0.510568 0.0674008 5.07521e-19)
(0.787607 0.0404847 1.81539e-18)
(0.803288 0.0439231 2.65893e-19)
(0.97033 0.0287132 -2.14077e-18)
(0.935818 0.025007 9.07634e-19)
)
;

boundaryField
{
    up
    {
        type            fixedValue;
        value           uniform (1 0 0);
    }
    hole
    {
        type            myImplicitVelocity;
    }
    frontAndBack
    {
        type            empty;
    }
}


// ************************************************************************* //
