/*--------------------------------*- C++ -*----------------------------------*\
| =========                 |                                                 |
| \\      /  F ield         | foam-extend: Open Source CFD                    |
|  \\    /   O peration     | Version:  3.0                                   |
|   \\  /    A nd           | Web:         http://www.extend-project.de       |
|    \\/     M anipulation  |                                                 |
\*---------------------------------------------------------------------------*/
FoamFile
{
    version     2.0;
    format      ascii;
    class       volScalarField;
    location    "5";
    object      Theta;
}
// * * * * * * * * * * * * * * * * * * * * * * * * * * * * * * * * * * * * * //

dimensions      [0 2 -2 0 0 0 0];

internalField   nonuniform List<scalar> 
728
(
1.1363
1.13653
1.13646
1.13599
1.57182
1.57162
1.57068
1.56016
1.27305
1.26996
1.2749
1.27645
1.23373
1.23346
1.23381
1.23051
1.18138
1.18248
1.17972
1.18105
1.11308
1.11415
1.11313
1.11156
0.2322
0.227849
0.226349
0.231588
1.21643
1.21606
1.21559
1.21643
1.32578
1.31998
1.32188
1.32995
1.12186
1.12335
1.12146
1.12233
1.21575
1.21338
1.21381
1.21277
1.15752
1.15943
1.15972
1.15987
1.2959
1.29216
1.29937
1.3021
0.615974
0.618278
0.607483
0.617474
1.14227
1.14298
1.14088
1.13969
1.17941
1.17648
1.17685
1.17737
1.13185
1.1322
1.13169
1.13109
0.89538
0.896021
0.89072
0.889245
1.075
1.07551
1.07664
1.07466
1.16307
1.16186
1.16272
1.16229
1.16541
1.16448
1.16215
1.15459
1.13965
1.13995
1.13949
1.13947
2.03874
2.03792
2.03904
2.03567
1.02641
1.025
1.02656
1.01663
1.16614
1.1705
1.16644
1.17059
1.15767
1.15849
1.1566
1.15836
1.19665
1.19527
1.19504
1.19438
1.1495
1.14941
1.14957
1.14937
1.12948
1.12992
1.1293
1.12963
1.13264
1.1312
1.13274
1.13065
1.15775
1.15683
1.1584
1.15928
1.09827
1.09808
1.09888
1.09884
1.14249
1.14529
1.14617
1.14245
1.12037
1.12188
1.11914
1.1189
1.06062
1.06219
1.06245
1.0608
1.05456
1.03747
1.03883
1.05458
1.18053
1.18018
1.18027
1.17949
1.21594
1.21577
1.2154
1.21488
1.14831
1.14937
1.14898
1.15016
1.12609
1.12565
1.1262
1.12608
1.8061
1.83429
1.83352
1.82904
1.10001
1.09385
1.10394
1.10219
1.1607
1.16094
1.16185
1.16179
1.19593
1.19877
1.19854
1.19698
1.13598
1.136
1.13648
1.13645
1.14364
1.14249
1.14205
1.14193
1.48319
1.46159
1.48371
1.48476
1.19743
1.19663
1.20122
1.19658
1.20264
1.19984
1.20022
1.20332
1.13809
1.13763
1.13791
1.13783
1.16417
1.16374
1.16404
1.16501
1.17635
1.17306
1.17604
1.17649
1.167
1.16706
1.1672
1.16845
1.14748
1.14761
1.14738
1.1472
1.20961
1.22223
1.21543
1.21051
1.17558
1.17536
1.1757
1.17708
1.12837
1.12866
1.12969
1.12734
1.09879
1.09911
1.09947
1.10015
1.19929
1.1994
1.1985
1.19919
1.19343
1.19216
1.19102
1.19304
1.22577
1.22155
1.22402
1.231
0.382169
0.391844
0.385493
0.385759
1.136
1.1347
1.13618
1.13632
0.521953
0.521026
0.521693
0.536153
1.20009
1.19927
1.19973
1.20127
1.05749
1.05653
1.05717
1.05168
1.16401
1.16345
1.16479
1.16376
1.24573
1.24319
1.22697
1.22836
1.14839
1.14832
1.14827
1.14801
1.20108
1.20642
1.20155
1.20293
1.23076
1.23091
1.23112
1.22957
1.21061
1.21107
1.20957
1.21048
1.15106
1.15125
1.1487
1.15465
1.13792
1.13805
1.13792
1.1389
1.13422
1.13452
1.13456
1.13445
1.18168
1.18172
1.18183
1.18223
1.07593
1.07432
1.0859
1.08284
1.22081
1.22142
1.22091
1.22193
1.53115
1.52921
1.53821
1.5415
1.20104
1.20192
1.20158
1.1996
1.40257
1.39663
1.40189
1.39979
0.985657
0.990317
0.994131
0.995695
1.13878
1.13854
1.13838
1.13832
1.21304
1.21347
1.21361
1.21223
1.62594
1.62385
1.6223
1.63139
1.13197
1.13315
1.1289
1.13044
1.1566
1.15234
1.15289
1.15511
1.18383
1.19015
1.18706
1.18661
1.22195
1.22096
1.22271
1.21993
1.18234
1.18238
1.1837
1.18245
1.18344
1.18323
1.18309
1.18047
1.1551
1.1571
1.15549
1.1556
1.32063
1.32781
1.32397
1.32474
1.30732
1.30353
1.31091
1.30846
1.21296
1.21314
1.21423
1.21328
1.15327
1.15246
1.15122
1.15232
1.13929
1.14006
1.1398
1.14001
1.17107
1.1711
1.17101
1.17071
1.16735
1.16612
1.16684
1.16782
1.29025
1.29193
1.28924
1.29528
1.9169
1.91412
1.91485
1.91503
1.94667
1.94481
1.9462
1.95349
1.18604
1.18081
1.18651
1.18078
1.17797
1.17636
1.17562
1.17728
1.26846
1.27017
1.27254
1.26732
1.14882
1.14856
1.14775
1.148
1.11858
1.11796
1.11783
1.11821
1.09407
1.0945
1.09478
1.09343
1.14244
1.14238
1.14254
1.14238
1.15999
1.15854
1.15827
1.15852
1.13959
1.13775
1.13862
1.13786
1.24056
1.23899
1.24328
1.24121
1.21382
1.21479
1.21324
1.21536
1.13293
1.13228
1.13309
1.13306
1.18439
1.18551
1.18255
1.18051
1.18362
1.18156
1.18434
1.18202
1.18348
1.18743
1.18536
1.18732
1.19616
1.19693
1.19883
1.19923
1.21963
1.2166
1.21236
1.21907
1.15544
1.15466
1.15487
1.15359
1.23121
1.23118
1.23828
1.23413
1.14418
1.14423
1.1448
1.14395
1.16062
1.16075
1.16232
1.16089
1.12931
1.13088
1.13336
1.13093
1.27121
1.27156
1.27359
1.27133
1.1407
1.14026
1.14085
1.14052
1.47888
1.48106
1.47948
1.47852
1.29694
1.28732
1.29457
1.30019
1.30743
1.31457
1.32381
1.31551
1.13581
1.13613
1.13594
1.13602
1.22596
1.22621
1.22623
1.22597
1.23762
1.23213
1.23423
1.23557
1.13537
1.13543
1.13542
1.13517
1.15153
1.15202
1.15032
1.15188
1.19049
1.19513
1.18953
1.19032
1.17302
1.17348
1.17284
1.17269
1.16509
1.16563
1.16417
1.16476
1.19179
1.1891
1.18786
1.18788
1.31465
1.31285
1.3149
1.31456
1.14194
1.14288
1.14231
1.14169
1.31655
1.31296
1.3173
1.31923
1.03916
1.04348
1.04005
1.04161
1.16132
1.15993
1.16016
1.15895
1.12775
1.12589
1.12612
1.12746
1.17325
1.17271
1.17496
1.17104
1.27479
1.26812
1.27134
1.27272
1.14439
1.14422
1.14484
1.14399
1.13533
1.13508
1.13539
1.13539
1.44217
1.44152
1.43889
1.44195
1.35732
1.35418
1.35756
1.35887
1.12096
1.12221
1.12141
1.12113
1.13474
1.13478
1.13524
1.13496
1.21927
1.21776
1.21762
1.21632
1.16726
1.1678
1.16791
1.16766
1.29614
1.29531
1.29595
1.28896
1.17343
1.17248
1.17307
1.17022
1.10712
1.10711
1.10736
1.1076
1.25625
1.25283
1.253
1.25605
1.25946
1.26078
1.25848
1.25021
1.29227
1.29277
1.28886
1.28872
1.24306
1.24373
1.24142
1.23764
0.722677
0.725825
0.722174
0.724178
1.13896
1.13683
1.13923
1.13827
1.28499
1.27884
1.28283
1.27837
1.09407
1.09012
1.09718
1.09188
1.14753
1.14854
1.14858
1.14806
1.11494
1.11098
1.11409
1.11348
1.13004
1.132
1.13002
1.13012
1.13152
1.13124
1.13104
1.13146
1.17492
1.17514
1.1751
1.17486
1.14671
1.14846
1.14767
1.14825
1.16124
1.16117
1.1718
1.17298
1.19876
1.20728
1.2052
1.20537
1.17296
1.16973
1.17033
1.17164
1.14233
1.14616
1.14576
1.14557
1.21658
1.21759
1.21569
1.21446
1.38516
1.37581
1.38535
1.37839
1.19677
1.19824
1.1973
1.19718
1.19529
1.19475
1.19659
1.19372
1.13436
1.13364
1.1342
1.134
1.17662
1.17629
1.17695
1.17543
1.14942
1.15014
1.14998
1.14976
)
;

boundaryField
{
    insideCircle
    {
        type            myTemperature;
        value           nonuniform List<scalar> 
12
(
3.35914
3.35884
3.35933
3.36084
3.34631
3.34601
3.3465
3.34615
3.3581
3.35843
3.35827
3.35807
)
;
    }
    outsideCircle
    {
        type            myTemperature;
        value           nonuniform List<scalar> 
60
(
1.12724
1.12733
1.12759
1.12707
1.12592
1.12588
1.12582
1.12567
1.1275
1.12796
1.12765
1.12769
1.12553
1.12516
1.12544
1.12531
1.12779
1.12794
1.12779
1.12795
1.12633
1.12663
1.12666
1.12651
1.12798
1.128
1.12779
1.12778
1.12788
1.12756
1.128
1.12781
1.13052
1.13039
1.13056
1.13081
1.12786
1.128
1.12791
1.12773
1.12788
1.1278
1.12812
1.12805
1.12831
1.12861
1.12865
1.12848
1.12889
1.12906
1.12898
1.12871
1.12869
1.1285
1.12876
1.12858
1.13033
1.13054
1.13068
1.13042
)
;
    }
    topAndBottom
    {
        type            empty;
    }
}


// ************************************************************************* //
