/*--------------------------------*- C++ -*----------------------------------*\
| =========                 |                                                 |
| \\      /  F ield         | foam-extend: Open Source CFD                    |
|  \\    /   O peration     | Version:  3.0                                   |
|   \\  /    A nd           | Web:         http://www.extend-project.de       |
|    \\/     M anipulation  |                                                 |
\*---------------------------------------------------------------------------*/
FoamFile
{
    version     2.0;
    format      ascii;
    class       volSymmTensorField;
    location    "9";
    object      sigma;
}
// * * * * * * * * * * * * * * * * * * * * * * * * * * * * * * * * * * * * * //

dimensions      [0 0 0 0 0 0 0];

internalField   nonuniform List<symmTensor> 
168
(
(-0.143846 -0.0200813 -6.88745e-19 0.144504 1.14029e-19 -0.000657755)
(-0.111006 -0.0205422 2.76758e-19 0.112464 5.89754e-19 -0.00145841)
(-0.0772006 -0.0172064 6.86819e-19 0.0791889 -3.56024e-19 -0.00198833)
(-0.0472462 -0.0133754 -6.50223e-19 0.0494147 3.07827e-18 -0.0021685)
(-0.0238241 -0.00969121 6.71336e-19 0.0256966 5.17096e-19 -0.00187246)
(-0.011017 -0.00759383 -2.30459e-19 0.0118839 -1.65077e-18 -0.000866883)
(-0.130326 -0.0570969 2.13263e-20 0.130933 -1.25748e-19 -0.000607199)
(-0.0924041 -0.0561722 4.94875e-19 0.0937497 -3.59045e-18 -0.00134554)
(-0.0594279 -0.046271 2.13653e-18 0.0612605 -2.38714e-18 -0.00183259)
(-0.0315284 -0.0354968 3.19198e-18 0.0335235 -3.61337e-18 -0.00199508)
(-0.0105614 -0.0256973 -3.48884e-18 0.012282 2.40287e-19 -0.0017206)
(0.0014236 -0.0208045 -3.19312e-19 -0.000629199 2.83622e-18 -0.000794405)
(-0.106711 -0.0855879 1.14246e-18 0.107236 -5.55248e-18 -0.000524797)
(-0.0617891 -0.0772707 -4.46803e-18 0.0629515 4.93092e-19 -0.00116241)
(-0.0307679 -0.0604796 -7.71206e-19 0.0323499 -8.63954e-19 -0.00158205)
(-0.0065792 -0.0437562 -2.95361e-19 0.00830052 1.12066e-18 -0.00172132)
(0.0102648 -0.0294061 8.77734e-18 -0.00878187 4.01328e-18 -0.00148293)
(0.0209049 -0.0219858 1.34373e-18 -0.0202214 -4.52177e-18 -0.000683472)
(-0.0785091 -0.103131 1.25645e-18 0.0789257 2.494e-18 -0.000416587)
(-0.0296388 -0.0807239 2.9204e-18 0.0305609 5.14744e-18 -0.000922046)
(-0.00220877 -0.056933 4.55351e-19 0.00346217 -7.27596e-19 -0.00125341)
(0.0171468 -0.035618 -7.12958e-20 -0.0157849 2.99589e-18 -0.00136185)
(0.0292156 -0.0186786 -3.25693e-18 -0.0280449 -8.44698e-18 -0.00117072)
(0.0380598 -0.00907557 -4.32869e-19 -0.0375221 1.4259e-18 -0.000537711)
(-0.051099 -0.11077 -3.75573e-18 0.0513871 1.8935e-18 -0.000288067)
(-0.00578235 -0.0703368 8.2351e-19 0.00641895 -3.3446e-18 -0.000636602)
(0.0160018 -0.0400469 -1.49878e-18 -0.0151383 6.46739e-19 -0.000863519)
(0.0299422 -0.0155745 2.48742e-18 -0.0290065 -9.34835e-19 -0.000935664)
(0.0375496 0.00225369 -7.04052e-20 -0.0367482 2.04034e-18 -0.000801441)
(0.0442012 0.0135869 -2.38217e-18 -0.0438353 1.88797e-18 -0.000365932)
(-0.0277937 -0.112111 9.92364e-19 0.0279391 2.30689e-19 -0.000145399)
(0.00458678 -0.0548852 -9.10772e-19 -0.004267 8.80201e-19 -0.000319773)
(0.0186928 -0.019497 -1.01653e-18 -0.0182621 5.09987e-19 -0.000430679)
(0.027055 0.00686581 -1.22069e-18 -0.0265924 -7.18317e-19 -0.000462572)
(0.0310848 0.0245855 -1.27727e-18 -0.0306935 -4.28304e-19 -0.000391306)
(0.0352402 0.0371373 1.28924e-18 -0.0350651 -1.82674e-19 -0.000175104)
(-0.00876525 -0.111386 1.10698e-19 0.00876106 -9.68266e-20 4.19752e-06)
(0.00300388 -0.0440398 9.19876e-21 -0.00301628 -3.65123e-19 1.24018e-05)
(0.00790747 -0.00583356 9.20825e-19 -0.00793028 -3.96631e-19 2.2808e-05)
(0.010731 0.0213859 -2.89434e-20 -0.0107638 -5.85151e-19 3.28028e-05)
(0.0120371 0.0388072 -1.16294e-19 -0.0120743 6.37556e-19 3.72425e-05)
(0.0135486 0.0519679 2.36375e-20 -0.0135722 -4.55241e-22 2.36637e-05)
(0.00848518 -0.111409 8.18769e-20 -0.00863862 2.57886e-19 0.00015344)
(-0.00328854 -0.0440805 -4.50668e-21 0.0029449 2.11925e-19 0.000343648)
(-0.00814629 -0.00587423 1.9966e-19 0.00767136 -5.95801e-19 0.000474924)
(-0.010835 0.0213461 9.07689e-19 0.0103085 -8.71794e-19 0.000526458)
(-0.0119228 0.0387859 -5.78742e-20 0.0114584 -5.70876e-19 0.000464385)
(-0.013158 0.0519746 -2.97283e-19 0.0129361 -6.80046e-20 0.000221893)
(0.0275128 -0.112169 1.00516e-18 -0.0278076 -3.03053e-20 0.000294789)
(-0.00486134 -0.0549745 -1.9446e-18 0.0042041 -8.25823e-19 0.000657242)
(-0.0189261 -0.0195798 -1.16792e-18 0.0180235 -8.68822e-19 0.000902573)
(-0.0271539 0.00680254 -1.82452e-18 0.0261611 -1.8003e-18 0.000992868)
(-0.0310069 0.0245688 7.0976e-19 0.0301399 1.30033e-18 0.000867027)
(-0.0348258 0.0372647 1.52083e-18 0.0344176 4.48987e-20 0.000408158)
(0.0508391 -0.110867 -3.7772e-18 -0.0512603 -1.20309e-18 0.000421239)
(0.00557242 -0.070453 8.41957e-19 -0.00651003 3.4822e-18 0.000937615)
(-0.0161722 -0.0401567 -1.25662e-18 0.0148876 1.7114e-19 0.00128459)
(-0.0300003 -0.0156673 2.4019e-19 0.0285912 3.83906e-19 0.00140904)
(-0.037453 0.00218405 2.59693e-18 0.0362271 -5.26025e-18 0.00122589)
(-0.0438644 0.013675 -2.63785e-18 0.0432904 -1.03961e-18 0.000573988)
(0.0782773 -0.103269 1.82673e-18 -0.0788039 -2.21892e-18 0.00052656)
(0.0294778 -0.0808699 4.93561e-18 -0.0306487 -2.90665e-18 0.00117091)
(0.00208098 -0.0570739 -1.46561e-18 -0.003683 -4.73655e-19 0.00160202)
(-0.0171927 -0.0357083 2.39345e-18 0.0154385 1.37853e-18 0.00175417)
(-0.0291316 -0.0188579 -8.75058e-18 0.027609 4.13846e-18 0.00152258)
(-0.0378597 -0.00893416 6.98853e-19 0.0371492 -4.56783e-19 0.000710498)
(0.106515 -0.0857524 2.29825e-18 -0.107121 5.22268e-18 0.000605399)
(0.0616647 -0.0774002 -4.36479e-18 -0.0630101 -1.14126e-19 0.0013454)
(0.03069 -0.0606094 2.9393e-19 -0.032529 3.04603e-18 0.00183905)
(0.00652044 -0.0439044 -2.06773e-18 -0.00853175 -2.63892e-18 0.00201131)
(-0.0101648 -0.0296125 2.97668e-18 0.00842179 -4.19947e-19 0.00174298)
(-0.0208462 -0.022047 2.37311e-18 0.020035 3.59005e-18 0.000811245)
(0.13018 -0.0572714 8.22251e-20 -0.130834 -2.83466e-19 0.000654069)
(0.0923179 -0.0562732 1.41918e-18 -0.0937707 1.54068e-18 0.00145281)
(0.0593725 -0.0463802 1.93745e-18 -0.061357 3.6658e-18 0.00198453)
(0.0314433 -0.0356325 -2.2235e-18 -0.0336117 2.81155e-18 0.00216838)
(0.0107062 -0.0259779 3.79281e-20 -0.0125829 1.81972e-18 0.00187671)
(-0.00118589 -0.0210598 -8.71129e-19 0.000314281 -1.14602e-18 0.000871614)
(0.143768 -0.020256 -5.93925e-19 -0.144438 -7.04381e-19 0.000669864)
(0.110962 -0.0206259 -3.25156e-20 -0.11245 -1.20017e-18 0.00148743)
(0.0772062 -0.017219 5.50278e-19 -0.079237 -1.37742e-18 0.00203078)
(0.0471911 -0.01356 -8.33064e-19 -0.0494085 -6.05366e-19 0.00221741)
(0.0240114 -0.00994232 1.25725e-18 -0.0259287 4.20159e-19 0.00191721)
(0.011231 -0.00816956 -7.82598e-20 -0.0121197 -7.05901e-19 0.00088874)
(0.143847 0.0200013 -6.86071e-19 -0.1445 1.15741e-19 0.000652299)
(0.110975 0.0206341 2.80347e-19 -0.112423 5.8767e-19 0.00144794)
(0.0771185 0.017595 6.88889e-19 -0.0790947 -3.53868e-19 0.00197622)
(0.0471702 0.0138998 -6.54572e-19 -0.0493272 3.06997e-18 0.00215697)
(0.0236217 0.0107644 6.57848e-19 -0.025486 5.19774e-19 0.00186423)
(0.0106252 0.00963204 -2.28507e-19 -0.0114886 -1.64865e-18 0.000863404)
(0.130402 0.0570439 1.91967e-20 -0.131003 -1.28728e-19 0.000601775)
(0.0923722 0.0562535 4.88032e-19 -0.0937077 -3.58443e-18 0.00133548)
(0.0591956 0.0465735 2.13863e-18 -0.0610176 -2.3872e-18 0.00182199)
(0.0312 0.0358919 3.19104e-18 -0.0331876 -3.61133e-18 0.00198759)
(0.0098093 0.0265027 -3.45835e-18 -0.0115257 2.40747e-19 0.0017164)
(-0.00292183 0.0223075 -3.22879e-19 0.00212822 2.81032e-18 0.000793611)
(0.106838 0.0855729 1.14689e-18 -0.107359 -5.5468e-18 0.00052118)
(0.0617357 0.0772929 -4.46178e-18 -0.0628917 4.96512e-19 0.00115606)
(0.0304339 0.0605928 -7.75396e-19 -0.0320103 -8.55744e-19 0.00157643)
(0.00607094 0.043956 -3.03093e-19 -0.00778952 1.13275e-18 0.00171857)
(-0.0114229 0.0296703 8.74807e-18 0.00993995 3.98373e-18 0.001483)
(-0.023014 0.0227315 1.35138e-18 0.0223295 -4.50971e-18 0.000684533)
(0.0786576 0.103172 1.24699e-18 -0.0790716 2.48965e-18 0.000413993)
(0.0295757 0.080713 2.91925e-18 -0.0304935 5.13821e-18 0.000917769)
(0.00186498 0.0568765 4.52092e-19 -0.00311525 -7.16649e-19 0.00125027)
(-0.0177818 0.0355342 -5.74395e-20 0.0164206 2.98451e-18 0.00136118)
(-0.0305037 0.0183849 -3.23131e-18 0.0293315 -8.38491e-18 0.00117223)
(-0.0405483 0.00884909 -4.68798e-19 0.0400093 1.43902e-18 0.000538957)
(0.051254 0.110862 -3.75071e-18 -0.0515401 1.89557e-18 0.000286107)
(0.00575555 0.0702596 8.23455e-19 -0.00638886 -3.33155e-18 0.000633304)
(-0.0162809 0.0398042 -1.49652e-18 0.0154198 6.44946e-19 0.000861116)
(-0.0305315 0.0151522 2.48377e-18 0.0295965 -9.29174e-19 0.000935054)
(-0.0386711 -0.00307158 -9.25793e-20 0.0378686 2.01413e-18 0.000802495)
(-0.0465293 -0.0146711 -2.33342e-18 0.0461626 1.86642e-18 0.000366646)
(0.0279048 0.112244 9.92157e-19 -0.0280482 2.28389e-19 0.000143388)
(-0.00460316 0.054755 -9.06208e-19 0.00428693 8.72487e-19 0.000316231)
(-0.0188783 0.0191149 -1.00565e-18 0.0184508 5.04218e-19 0.000427483)
(-0.027485 -0.00757313 -1.21407e-18 0.0270245 -7.14156e-19 0.000460509)
(-0.031838 -0.0258053 -1.26961e-18 0.0314473 -4.16192e-19 0.000390713)
(-0.0369846 -0.0390867 1.27234e-18 0.0368097 -1.78424e-19 0.000174816)
(0.00881553 0.11156 1.11467e-19 -0.00880918 -9.47538e-20 -6.34851e-06)
(-0.00298262 0.043905 9.46318e-21 0.00299918 -3.61178e-19 -1.65567e-05)
(-0.007944 0.00538911 9.21517e-19 0.0079713 -3.97864e-19 -2.73042e-05)
(-0.0108559 -0.0222517 -2.71984e-20 0.0108926 -5.86597e-19 -3.66601e-05)
(-0.0122712 -0.0402018 -1.21536e-19 0.012311 6.22595e-19 -3.97955e-05)
(-0.0142597 -0.0544535 3.14956e-20 0.0142846 3.05621e-21 -2.48849e-05)
(-0.00851497 0.111575 8.41075e-20 0.00867114 2.56362e-19 -0.000156164)
(0.00335337 0.0439245 -5.6569e-21 -0.00300432 2.08431e-19 -0.000349054)
(0.00828425 0.00541334 2.06047e-19 -0.00780291 -5.97868e-19 -0.000481337)
(0.0110656 -0.0222348 9.04876e-19 -0.0105331 -8.70949e-19 -0.000532507)
(0.0122658 -0.0401599 -4.80125e-20 -0.0117971 -5.59389e-19 -0.000468789)
(0.0136421 -0.0544832 -2.99354e-19 -0.0134184 -6.83305e-20 -0.000223718)
(-0.0276278 0.112303 1.00247e-18 0.0279257 -2.74548e-20 -0.000297907)
(0.00492741 0.0548366 -1.94107e-18 -0.00426367 -8.19717e-19 -0.00066374)
(0.0191836 0.0191911 -1.17017e-18 -0.0182729 -8.69095e-19 -0.000910706)
(0.027687 -0.00753216 -1.80921e-18 -0.0266861 -1.79669e-18 -0.00100094)
(0.0318575 -0.025687 7.19312e-19 -0.030984 1.27771e-18 -0.000873453)
(0.0365226 -0.0391667 1.50506e-18 -0.0361118 4.87761e-20 -0.000410821)
(-0.051001 0.110943 -3.77292e-18 0.0514261 -1.20699e-18 -0.000425116)
(-0.0054714 0.0703592 8.37573e-19 0.00641704 3.47011e-18 -0.000945635)
(0.0165465 0.0399124 -1.26091e-18 -0.0152516 1.67399e-19 -0.00129484)
(0.0307534 0.0152127 2.21701e-19 -0.0293338 3.72997e-19 -0.00141952)
(0.038715 -0.00288633 2.58404e-18 -0.0374805 -5.22157e-18 -0.00123454)
(0.046281 -0.014718 -2.59172e-18 -0.0457035 -1.02151e-18 -0.000577543)
(-0.0784547 0.103274 1.81906e-18 0.0789856 -2.21268e-18 -0.000530892)
(-0.0293793 0.0807999 4.92967e-18 0.0305594 -2.89981e-18 -0.00118009)
(-0.00168125 0.056973 -1.46011e-18 0.00329517 -4.68672e-19 -0.00161392)
(0.0180017 0.0355996 2.38863e-18 -0.016235 1.38065e-18 -0.00176677)
(0.0305544 0.0186308 -8.70629e-18 -0.0290207 4.10413e-18 -0.00153362)
(0.040476 0.0090717 6.51179e-19 -0.0397607 -4.91808e-19 -0.000715314)
(-0.106685 0.0857032 2.30016e-18 0.107296 5.21815e-18 -0.000610669)
(-0.0615962 0.0773886 -4.35281e-18 0.0629523 -1.14759e-19 -0.00135618)
(-0.0303305 0.0606836 2.85065e-19 0.0321832 3.03869e-18 -0.00185269)
(-0.00583414 0.0440666 -2.06601e-18 0.00785997 -2.63785e-18 -0.00202583)
(0.0114958 0.0299601 2.94269e-18 -0.00974003 -4.1198e-19 -0.00175578)
(0.0231322 0.0230992 2.37079e-18 -0.0223151 3.57111e-18 -0.000817147)
(-0.130314 0.0571936 8.11385e-20 0.130974 -2.8106e-19 -0.00066014)
(-0.0922837 0.0563188 1.41382e-18 0.0937486 1.53962e-18 -0.00146497)
(-0.0591375 0.0465974 1.93572e-18 0.0611366 3.6678e-18 -0.00199907)
(-0.0310214 0.0360673 -2.21904e-18 0.033205 2.80794e-18 -0.0021836)
(-0.00969546 0.0267421 4.63027e-20 0.0115854 1.8098e-18 -0.00188999)
(0.00298484 0.0228291 -8.65193e-19 -0.00210662 -1.12845e-18 -0.000878216)
(-0.143843 0.020165 -5.91682e-19 0.14452 -7.04757e-19 -0.000677653)
(-0.110963 0.0207025 -2.69377e-20 0.112464 -1.20015e-18 -0.0015018)
(-0.0770992 0.0175985 5.51e-19 0.0791455 -1.37101e-18 -0.00204631)
(-0.0470659 0.0140895 -8.32271e-19 0.0492978 -6.06422e-19 -0.0022319)
(-0.023514 0.0110117 1.23802e-18 0.0254426 4.23287e-19 -0.00192855)
(-0.0104553 0.0101338 -7.2977e-20 0.0113492 -7.07079e-19 -0.000893948)
)
;

boundaryField
{
    out
    {
        type            mySigma;
    }
    in
    {
        type            mySigma;
    }
    frontAndBack
    {
        type            empty;
    }
}


// ************************************************************************* //
