/*--------------------------------*- C++ -*----------------------------------*\
| =========                 |                                                 |
| \\      /  F ield         | foam-extend: Open Source CFD                    |
|  \\    /   O peration     | Version:  3.0                                   |
|   \\  /    A nd           | Web:         http://www.extend-project.de       |
|    \\/     M anipulation  |                                                 |
\*---------------------------------------------------------------------------*/
FoamFile
{
    version     2.0;
    format      ascii;
    class       volVectorField;
    location    "8";
    object      u;
}
// * * * * * * * * * * * * * * * * * * * * * * * * * * * * * * * * * * * * * //

dimensions      [0 0 0 0 0 0 0];

internalField   nonuniform List<vector> 
168
(
(0.632625 -0.145215 -1.37001e-17)
(0.595394 -0.0770888 5.47509e-17)
(1.04838 -0.0476087 -7.65977e-17)
(0.84126 -0.0239255 9.68902e-17)
(1.15639 -0.00255067 -6.05673e-17)
(0.868178 0.00249821 7.38419e-17)
(0.759705 -0.410498 -5.74903e-17)
(0.665085 -0.223793 -1.22534e-16)
(1.09204 -0.140254 2.19393e-17)
(0.865413 -0.0765038 -2.3737e-16)
(1.16265 -0.0187413 5.48507e-17)
(0.869756 -0.00332661 1.869e-17)
(0.988929 -0.594338 -2.47833e-16)
(0.790908 -0.324141 3.37321e-16)
(1.17077 -0.203941 -7.53967e-18)
(0.909786 -0.112646 3.66486e-16)
(1.17481 -0.0302811 -1.35684e-16)
(0.873823 -0.00773588 -1.23202e-16)
(1.27543 -0.66029 5.54305e-16)
(0.948661 -0.361354 -3.74402e-16)
(1.27013 -0.227475 3.12036e-17)
(0.965566 -0.126479 -2.64802e-16)
(1.19104 -0.0351696 6.3751e-18)
(0.878992 -0.00980177 2.51402e-16)
(1.56181 -0.59533 -2.19302e-16)
(1.1057 -0.325289 1.583e-16)
(1.36871 -0.205317 1.18173e-16)
(1.0213 -0.114145 7.62782e-17)
(1.20715 -0.0326456 5.93819e-17)
(0.88451 -0.00907622 -1.30533e-16)
(1.79191 -0.412338 3.14285e-17)
(1.23272 -0.225479 -5.72377e-17)
(1.44883 -0.142309 -6.51078e-17)
(1.06644 -0.0792589 -2.96729e-17)
(1.22083 -0.022933 -8.50569e-19)
(0.888817 -0.00621742 2.7104e-17)
(1.91937 -0.147593 -1.65301e-17)
(1.30239 -0.0801452 3.05405e-17)
(1.49251 -0.0514196 1.35667e-17)
(1.09112 -0.028246 2.23508e-17)
(1.2283 -0.00901528 1.52292e-17)
(0.89099 -0.00186794 -2.40855e-17)
(1.91966 0.146448 1.20601e-17)
(1.30291 0.0810878 -4.52516e-17)
(1.49293 0.0507168 -1.41127e-17)
(1.09149 0.0288169 -3.47724e-17)
(1.22893 0.00791412 1.52185e-17)
(0.891847 0.00317866 -1.0087e-17)
(1.79194 0.411448 -3.8936e-17)
(1.23285 0.225989 7.5352e-17)
(1.4488 0.14105 -4.11509e-18)
(1.06652 0.0789707 9.40485e-17)
(1.22182 0.0218273 -1.75116e-17)
(0.88911 0.00548349 -1.8661e-17)
(1.5621 0.594797 2.27832e-16)
(1.10595 0.326696 -2.4424e-16)
(1.36857 0.205394 -7.04984e-18)
(1.02161 0.115492 -2.41865e-16)
(1.20768 0.0324756 7.32613e-17)
(0.888133 0.0119242 8.58304e-17)
(1.27538 0.660614 -5.52628e-16)
(0.949543 0.362424 3.84642e-16)
(1.27015 0.227213 -2.40229e-17)
(0.966112 0.126073 2.75503e-16)
(1.19059 0.0366522 -2.54447e-17)
(0.882603 0.00644141 -2.50538e-16)
(0.988797 0.594829 2.41738e-16)
(0.790865 0.325448 -1.81413e-16)
(1.17 0.204004 -1.78507e-16)
(0.910854 0.1155 -8.49092e-17)
(1.17283 0.0278337 -1.12518e-16)
(0.879617 0.0150207 2.24022e-16)
(0.758881 0.41203 7.84204e-17)
(0.665465 0.225779 5.45708e-17)
(1.09032 0.141238 2.09498e-16)
(0.865738 0.0765957 5.02917e-18)
(1.1578 0.0207843 4.43612e-17)
(0.873356 0.00255385 -4.8256e-17)
(0.631551 0.146878 8.3384e-18)
(0.595489 0.0789851 -3.16953e-17)
(1.0467 0.0477577 -2.05079e-17)
(0.842597 0.0301324 2.72541e-18)
(1.15032 -0.0013051 -5.03429e-17)
(0.872758 0.00433508 9.76379e-17)
(0.632694 -0.146885 1.37856e-17)
(0.595537 -0.0813444 -5.40913e-17)
(1.04842 -0.0536562 7.69301e-17)
(0.841185 -0.0296764 -9.61484e-17)
(1.1584 -0.015704 6.05184e-17)
(0.867682 -0.0106727 -7.43727e-17)
(0.760876 -0.412149 5.76055e-17)
(0.666985 -0.227845 1.215e-16)
(1.09556 -0.145364 -2.21635e-17)
(0.867518 -0.0804611 2.36378e-16)
(1.16963 -0.0323714 -5.48667e-17)
(0.873243 -0.00889526 -1.72639e-17)
(0.991788 -0.595463 2.47313e-16)
(0.793177 -0.328704 -3.35707e-16)
(1.17538 -0.208859 7.37499e-18)
(0.911941 -0.118486 -3.64855e-16)
(1.18645 -0.0407954 1.35357e-16)
(0.874551 -0.0171613 1.20989e-16)
(1.27899 -0.660946 -5.53663e-16)
(0.951494 -0.364306 3.72629e-16)
(1.276 -0.230077 -3.12535e-17)
(0.970428 -0.131604 2.63521e-16)
(1.20364 -0.0417625 -6.93658e-18)
(0.881199 -0.0166354 -2.47681e-16)
(1.56636 -0.595707 2.19108e-16)
(1.1098 -0.328587 -1.57222e-16)
(1.37543 -0.208228 -1.17222e-16)
(1.02726 -0.119035 -7.58287e-17)
(1.21951 -0.0382817 -5.82894e-17)
(0.887602 -0.0159598 1.27771e-16)
(1.79651 -0.412064 -3.1525e-17)
(1.23558 -0.227132 5.65678e-17)
(1.45499 -0.143548 6.42352e-17)
(1.07312 -0.0825426 2.92036e-17)
(1.23182 -0.0253827 5.01412e-19)
(0.895177 -0.0127419 -2.61799e-17)
(1.92453 -0.147066 1.66515e-17)
(1.30673 -0.0809588 -3.0041e-17)
(1.49987 -0.0515222 -1.30035e-17)
(1.09874 -0.0294875 -2.20811e-17)
(1.23895 -0.0096304 -1.47202e-17)
(0.899259 -0.0048615 2.30756e-17)
(1.92451 0.147394 -1.21214e-17)
(1.30578 0.0810705 4.47209e-17)
(1.49928 0.0510985 1.376e-17)
(1.0985 0.0289768 3.42397e-17)
(1.23854 0.00871511 -1.52892e-17)
(0.901062 0.0028844 1.05524e-17)
(1.79699 0.412595 3.87516e-17)
(1.2363 0.227755 -7.44968e-17)
(1.45537 0.143827 4.29974e-18)
(1.07344 0.0824037 -9.3138e-17)
(1.23107 0.0255406 1.75299e-17)
(0.898178 0.0107851 1.77609e-17)
(1.56682 0.596376 -2.27295e-16)
(1.10901 0.328726 2.42841e-16)
(1.37485 0.207896 7.04704e-18)
(1.02772 0.119161 2.40287e-16)
(1.21713 0.0376647 -7.31978e-17)
(0.89299 0.0161521 -8.40391e-17)
(1.27982 0.662154 5.51913e-16)
(0.951666 0.365863 -3.82959e-16)
(1.27527 0.23155 2.40965e-17)
(0.971026 0.133168 -2.74106e-16)
(1.1997 0.0429237 2.6036e-17)
(0.885902 0.0185533 2.47214e-16)
(0.992517 0.597071 -2.41479e-16)
(0.793249 0.329746 1.804e-16)
(1.17487 0.208994 1.77524e-16)
(0.913919 0.120785 8.45508e-17)
(1.1817 0.0400477 1.11291e-16)
(0.878921 0.0178575 -2.21077e-16)
(0.761855 0.413949 -7.83403e-17)
(0.666712 0.230001 -5.39208e-17)
(1.09447 0.146227 -2.08627e-16)
(0.868115 0.0855572 -4.52472e-18)
(1.16687 0.0301304 -4.39976e-17)
(0.873002 0.0142614 4.7339e-17)
(0.633485 0.149023 -8.49338e-18)
(0.595869 0.0838082 3.11658e-17)
(1.04922 0.0539762 1.98127e-17)
(0.842119 0.0335047 -2.92487e-18)
(1.15787 0.0146937 4.9655e-17)
(0.869236 0.0088938 -9.63284e-17)
)
;

boundaryField
{
    out
    {
        type            fixedValue;
        value           uniform (1 0 0);
    }
    in
    {
        type            myVelocity;
    }
    frontAndBack
    {
        type            empty;
    }
}


// ************************************************************************* //
