/*--------------------------------*- C++ -*----------------------------------*\
| =========                 |                                                 |
| \\      /  F ield         | foam-extend: Open Source CFD                    |
|  \\    /   O peration     | Version:  3.0                                   |
|   \\  /    A nd           | Web:         http://www.extend-project.de       |
|    \\/     M anipulation  |                                                 |
\*---------------------------------------------------------------------------*/
FoamFile
{
    version     2.0;
    format      ascii;
    class       volVectorField;
    location    "40";
    object      s;
}
// * * * * * * * * * * * * * * * * * * * * * * * * * * * * * * * * * * * * * //

dimensions      [0 1 -1 0 0 0 0];

internalField   nonuniform List<vector> 
1280
(
(0.24465 0.156583 0)
(0.247621 0.0489118 0)
(0.313927 0.0143755 0)
(0.299314 -0.00863407 0)
(0.292285 -0.0184586 0)
(0.271868 -0.0241362 0)
(0.254828 -0.0262683 0)
(0.23479 -0.0265868 0)
(0.216324 -0.0256035 0)
(0.196608 -0.0237941 0)
(0.177305 -0.0214691 0)
(0.156495 -0.0187783 0)
(0.134628 -0.0151591 0)
(0.109526 -0.0113001 0)
(0.0783359 -0.00394804 0)
(0.0359599 -0.000412593 0)
(0.275806 0.0340601 0)
(0.292238 0.0242032 0)
(0.319745 -0.00690467 0)
(0.303895 -0.00276212 0)
(0.28988 -0.0089913 0)
(0.26951 -0.00882157 0)
(0.250528 -0.00922724 0)
(0.229926 -0.00696298 0)
(0.209865 -0.00387646 0)
(0.188377 0.00115759 0)
(0.166095 0.0073885 0)
(0.141793 0.0168254 0)
(0.11454 0.0292813 0)
(0.0856362 0.0520757 0)
(0.050439 0.0901701 0)
(0.01977 0.175794 0)
(0.398854 0.0287924 0)
(0.375959 0.0441127 0)
(0.345766 0.0140477 0)
(0.31764 0.0144728 0)
(0.296292 0.0089114 0)
(0.273163 0.00938592 0)
(0.253433 0.00990072 0)
(0.232949 0.0133482 0)
(0.214301 0.0180969 0)
(0.194901 0.0253629 0)
(0.177309 0.0343005 0)
(0.158783 0.0466998 0)
(0.144761 0.0599055 0)
(0.131864 0.0773607 0)
(0.134944 0.0853601 0)
(0.154569 0.0815258 0)
(0.479283 0.115903 0)
(0.429392 0.0813345 0)
(0.377465 0.0447727 0)
(0.339842 0.039965 0)
(0.309842 0.0309668 0)
(0.283551 0.0307372 0)
(0.261074 0.0301455 0)
(0.240082 0.0333584 0)
(0.221527 0.0377456 0)
(0.203639 0.0441617 0)
(0.188881 0.0520304 0)
(0.174823 0.060222 0)
(0.167509 0.068998 0)
(0.161362 0.0735953 0)
(0.169062 0.0751151 0)
(0.17266 0.0610826 0)
(0.527277 0.186703 0)
(0.463841 0.133435 0)
(0.401481 0.090579 0)
(0.357615 0.0748855 0)
(0.322666 0.0610783 0)
(0.294181 0.0567263 0)
(0.270579 0.0539273 0)
(0.249936 0.0555489 0)
(0.232382 0.0589465 0)
(0.216557 0.0644467 0)
(0.203855 0.0712521 0)
(0.192718 0.0776829 0)
(0.185767 0.0839291 0)
(0.180646 0.0853647 0)
(0.179546 0.0844967 0)
(0.178933 0.0716873 0)
(0.551921 0.249977 0)
(0.482214 0.187022 0)
(0.418029 0.13776 0)
(0.371324 0.113796 0)
(0.333515 0.0938259 0)
(0.303873 0.0849724 0)
(0.27937 0.0784553 0)
(0.259071 0.0772575 0)
(0.242117 0.0781018 0)
(0.227556 0.0812341 0)
(0.216106 0.0856853 0)
(0.206104 0.0897116 0)
(0.199582 0.0937872 0)
(0.193405 0.094352 0)
(0.189951 0.0936644 0)
(0.184843 0.0873248 0)
(0.561035 0.31174 0)
(0.487632 0.243068 0)
(0.423874 0.188255 0)
(0.376771 0.155787 0)
(0.338578 0.129704 0)
(0.309193 0.115417 0)
(0.285042 0.104747 0)
(0.265716 0.100254 0)
(0.24965 0.0983981 0)
(0.236246 0.0994379 0)
(0.225258 0.102067 0)
(0.215665 0.104852 0)
(0.207827 0.107943 0)
(0.200498 0.108597 0)
(0.193595 0.108619 0)
(0.186571 0.1045 0)
(0.556751 0.370525 0)
(0.481825 0.296953 0)
(0.420949 0.236647 0)
(0.374944 0.197523 0)
(0.337924 0.16524 0)
(0.309703 0.145674 0)
(0.286619 0.130242 0)
(0.268594 0.121905 0)
(0.253682 0.116623 0)
(0.241323 0.115052 0)
(0.231003 0.115476 0)
(0.221438 0.117088 0)
(0.21309 0.119428 0)
(0.20418 0.120939 0)
(0.195519 0.122038 0)
(0.185595 0.121273 0)
(0.541607 0.426622 0)
(0.4662 0.34855 0)
(0.408733 0.283209 0)
(0.364971 0.238047 0)
(0.330199 0.199988 0)
(0.303944 0.175252 0)
(0.282587 0.155063 0)
(0.266199 0.142849 0)
(0.252691 0.134181 0)
(0.241426 0.130142 0)
(0.231781 0.12869 0)
(0.222303 0.129438 0)
(0.213332 0.131502 0)
(0.203227 0.133793 0)
(0.19259 0.136045 0)
(0.180558 0.137175 0)
(0.516766 0.478693 0)
(0.441732 0.396571 0)
(0.389011 0.326022 0)
(0.347877 0.275955 0)
(0.316308 0.232304 0)
(0.292468 0.202687 0)
(0.273494 0.177506 0)
(0.259134 0.16109 0)
(0.247606 0.148469 0)
(0.237724 0.141473 0)
(0.22937 0.13757 0)
(0.220021 0.137282 0)
(0.211028 0.138811 0)
(0.199258 0.14228 0)
(0.186873 0.145839 0)
(0.171514 0.149748 0)
(0.484205 0.526112 0)
(0.410178 0.439748 0)
(0.361961 0.36473 0)
(0.324186 0.310464 0)
(0.295746 0.261772 0)
(0.274506 0.227654 0)
(0.257802 0.197643 0)
(0.245295 0.176982 0)
(0.235657 0.160454 0)
(0.227066 0.15024 0)
(0.220257 0.144161 0)
(0.211487 0.142568 0)
(0.203104 0.144156 0)
(0.190739 0.148629 0)
(0.17709 0.153887 0)
(0.159567 0.160144 0)
(0.444528 0.567768 0)
(0.371439 0.479063 0)
(0.329748 0.399199 0)
(0.294756 0.34171 0)
(0.270344 0.288282 0)
(0.251658 0.249956 0)
(0.237857 0.214996 0)
(0.227554 0.189683 0)
(0.220687 0.168244 0)
(0.21385 0.153801 0)
(0.209865 0.143539 0)
(0.201565 0.139632 0)
(0.195142 0.138923 0)
(0.180442 0.144384 0)
(0.165788 0.150277 0)
(0.14224 0.160483 0)
(0.400982 0.603192 0)
(0.329387 0.511929 0)
(0.292063 0.428699 0)
(0.261116 0.369061 0)
(0.239168 0.311476 0)
(0.222803 0.269446 0)
(0.210567 0.229758 0)
(0.201357 0.199411 0)
(0.195873 0.173314 0)
(0.189746 0.15323 0)
(0.18768 0.139816 0)
(0.180401 0.131389 0)
(0.176101 0.13071 0)
(0.162542 0.135683 0)
(0.147746 0.144302 0)
(0.123738 0.159179 0)
(0.353616 0.630694 0)
(0.281506 0.542715 0)
(0.252663 0.455243 0)
(0.223478 0.394126 0)
(0.205436 0.333221 0)
(0.19078 0.287853 0)
(0.180961 0.243874 0)
(0.173266 0.208649 0)
(0.170595 0.176531 0)
(0.16589 0.150113 0)
(0.168752 0.128365 0)
(0.161741 0.113521 0)
(0.165185 0.10334 0)
(0.146739 0.105287 0)
(0.137853 0.108387 0)
(0.0974977 0.127676 0)
(0.310065 0.651411 0)
(0.236925 0.567198 0)
(0.208781 0.476812 0)
(0.184616 0.416556 0)
(0.166844 0.352167 0)
(0.153741 0.304288 0)
(0.143487 0.2562 0)
(0.135049 0.215117 0)
(0.131024 0.178344 0)
(0.124485 0.141505 0)
(0.126014 0.116063 0)
(0.118392 0.0858819 0)
(0.121928 0.0758697 0)
(0.107442 0.0647142 0)
(0.0990465 0.0720162 0)
(0.0673629 0.102094 0)
(0.275258 0.66219 0)
(0.18705 0.596914 0)
(0.167273 0.500282 0)
(0.14312 0.43857 0)
(0.127922 0.373141 0)
(0.115384 0.323075 0)
(0.105904 0.273014 0)
(0.097644 0.229209 0)
(0.0941076 0.187891 0)
(0.087538 0.146441 0)
(0.0926725 0.109728 0)
(0.0841393 0.0701979 0)
(0.103963 0.0361876 0)
(0.0792361 0.00646375 0)
(0.115099 -0.0187122 0)
(0.00881752 -0.00523192 0)
(0.176673 0.667397 0)
(0.151461 0.629233 0)
(0.118065 0.518376 0)
(0.102371 0.461038 0)
(0.0852494 0.391667 0)
(0.0739818 0.340897 0)
(0.0626078 0.288498 0)
(0.0524122 0.240302 0)
(0.043978 0.19766 0)
(0.0320822 0.143993 0)
(0.0261701 0.109698 0)
(0.00878062 0.0384689 0)
(0.00682258 0.0173833 0)
(-0.0219801 -0.0877854 0)
(-0.0144587 -0.0735492 0)
(-0.0619482 -0.221673 0)
(0.092672 0.741049 0)
(0.109471 0.644532 0)
(0.070648 0.548836 0)
(0.0597369 0.481851 0)
(0.0426157 0.415382 0)
(0.0324832 0.363379 0)
(0.0203108 0.312833 0)
(0.01032 0.268012 0)
(-0.00217392 0.227807 0)
(-0.0128876 0.185272 0)
(-0.0304304 0.153203 0)
(-0.0398385 0.110055 0)
(-0.0686372 0.0878329 0)
(-0.0625886 0.0425088 0)
(-0.101376 0.0381789 0)
(-0.0122979 -0.0147227 0)
(0.0536199 0.780473 0)
(0.0538421 0.669709 0)
(0.0238462 0.571855 0)
(0.0141413 0.504287 0)
(-0.000746759 0.435972 0)
(-0.00953248 0.384387 0)
(-0.0205898 0.334071 0)
(-0.0295651 0.290326 0)
(-0.0402367 0.252751 0)
(-0.0493501 0.212815 0)
(-0.0597834 0.187697 0)
(-0.0657594 0.151343 0)
(-0.0716125 0.140992 0)
(-0.0631181 0.114815 0)
(-0.0521454 0.115951 0)
(-0.00540665 0.11323 0)
(0.00113142 0.819836 0)
(0.00106968 0.696998 0)
(-0.0267479 0.599258 0)
(-0.0322651 0.525936 0)
(-0.0453416 0.45925 0)
(-0.0517448 0.407814 0)
(-0.0615151 0.360333 0)
(-0.0685193 0.321158 0)
(-0.0786035 0.287574 0)
(-0.084278 0.257241 0)
(-0.0947666 0.23558 0)
(-0.0932654 0.21391 0)
(-0.0998448 0.203114 0)
(-0.0797044 0.190723 0)
(-0.0701955 0.186256 0)
(-0.0173462 0.179847 0)
(-0.0606657 0.854192 0)
(-0.0620784 0.722483 0)
(-0.0792264 0.620906 0)
(-0.0819672 0.545867 0)
(-0.0899748 0.478594 0)
(-0.0933569 0.427954 0)
(-0.0991958 0.381914 0)
(-0.102711 0.345277 0)
(-0.107656 0.314661 0)
(-0.109 0.288516 0)
(-0.110973 0.271119 0)
(-0.105607 0.254814 0)
(-0.099505 0.248429 0)
(-0.0813295 0.241634 0)
(-0.0607225 0.239396 0)
(-0.0266077 0.238035 0)
(-0.129819 0.880782 0)
(-0.125358 0.74409 0)
(-0.135315 0.640371 0)
(-0.132568 0.562757 0)
(-0.136071 0.496441 0)
(-0.135591 0.446501 0)
(-0.137839 0.402731 0)
(-0.138022 0.369042 0)
(-0.139559 0.340991 0)
(-0.137389 0.319019 0)
(-0.135995 0.302832 0)
(-0.127012 0.290201 0)
(-0.11862 0.282139 0)
(-0.0984391 0.275874 0)
(-0.0788011 0.270457 0)
(-0.0468392 0.265365 0)
(-0.204727 0.899761 0)
(-0.193859 0.759084 0)
(-0.193038 0.653434 0)
(-0.185085 0.575021 0)
(-0.182114 0.50919 0)
(-0.177186 0.460149 0)
(-0.174377 0.417946 0)
(-0.170335 0.386085 0)
(-0.1669 0.359882 0)
(-0.160893 0.339921 0)
(-0.154451 0.325182 0)
(-0.143384 0.313807 0)
(-0.131091 0.306292 0)
(-0.112908 0.299908 0)
(-0.0932094 0.294339 0)
(-0.0688402 0.288304 0)
(-0.28285 0.909862 0)
(-0.262723 0.767359 0)
(-0.25252 0.660995 0)
(-0.238013 0.582145 0)
(-0.2289 0.517479 0)
(-0.219162 0.469358 0)
(-0.211679 0.428828 0)
(-0.203793 0.398501 0)
(-0.196521 0.373607 0)
(-0.18754 0.354905 0)
(-0.178222 0.340284 0)
(-0.165516 0.329098 0)
(-0.152052 0.320263 0)
(-0.134231 0.312804 0)
(-0.115825 0.305587 0)
(-0.0938154 0.298271 0)
(-0.36327 0.911248 0)
(-0.333187 0.767718 0)
(-0.312415 0.661554 0)
(-0.29129 0.583192 0)
(-0.275306 0.519833 0)
(-0.260478 0.472784 0)
(-0.247868 0.433704 0)
(-0.235862 0.404518 0)
(-0.22453 0.38069 0)
(-0.212592 0.362708 0)
(-0.200474 0.348436 0)
(-0.18663 0.337195 0)
(-0.172227 0.327995 0)
(-0.155608 0.319775 0)
(-0.13854 0.311959 0)
(-0.119711 0.303779 0)
(-0.444414 0.903553 0)
(-0.403212 0.760356 0)
(-0.372277 0.655436 0)
(-0.344081 0.57808 0)
(-0.321413 0.516474 0)
(-0.301437 0.470624 0)
(-0.283956 0.433047 0)
(-0.268071 0.404876 0)
(-0.253163 0.381941 0)
(-0.23865 0.364429 0)
(-0.224342 0.350226 0)
(-0.209524 0.338756 0)
(-0.194582 0.328894 0)
(-0.178662 0.319977 0)
(-0.16267 0.311279 0)
(-0.145668 0.302576 0)
(-0.525305 0.886919 0)
(-0.472395 0.745028 0)
(-0.431183 0.642189 0)
(-0.395884 0.566567 0)
(-0.366509 0.50692 0)
(-0.341381 0.462467 0)
(-0.319068 0.426341 0)
(-0.299316 0.399103 0)
(-0.28097 0.377038 0)
(-0.263936 0.359968 0)
(-0.247695 0.346108 0)
(-0.231978 0.334662 0)
(-0.216786 0.324714 0)
(-0.201587 0.315576 0)
(-0.186762 0.30649 0)
(-0.171417 0.297527 0)
(-0.604761 0.861283 0)
(-0.540061 0.721846 0)
(-0.488604 0.622324 0)
(-0.446278 0.548837 0)
(-0.41037 0.491664 0)
(-0.3802 0.448788 0)
(-0.353204 0.414315 0)
(-0.329672 0.388107 0)
(-0.307877 0.367053 0)
(-0.288315 0.350511 0)
(-0.269822 0.337183 0)
(-0.25315 0.325828 0)
(-0.237107 0.315996 0)
(-0.222698 0.306552 0)
(-0.208531 0.29705 0)
(-0.195149 0.287515 0)
(-0.681609 0.827254 0)
(-0.604926 0.691371 0)
(-0.543782 0.595645 0)
(-0.494614 0.525176 0)
(-0.452515 0.470461 0)
(-0.417492 0.429392 0)
(-0.386077 0.39641 0)
(-0.358825 0.371098 0)
(-0.333864 0.350908 0)
(-0.311575 0.334733 0)
(-0.291239 0.32205 0)
(-0.27311 0.310992 0)
(-0.256803 0.301747 0)
(-0.242698 0.292889 0)
(-0.229619 0.283429 0)
(-0.218106 0.274652 0)
(-0.754585 0.784872 0)
(-0.667422 0.653528 0)
(-0.596431 0.563299 0)
(-0.540849 0.495901 0)
(-0.492864 0.444374 0)
(-0.453249 0.405252 0)
(-0.417618 0.374145 0)
(-0.386786 0.349976 0)
(-0.358329 0.330991 0)
(-0.333218 0.315416 0)
(-0.309608 0.303848 0)
(-0.289749 0.292939 0)
(-0.270504 0.285095 0)
(-0.256752 0.275498 0)
(-0.242403 0.266947 0)
(-0.234134 0.25564 0)
(-0.822296 0.736336 0)
(-0.72548 0.610153 0)
(-0.64576 0.524721 0)
(-0.584326 0.461781 0)
(-0.530895 0.412958 0)
(-0.487045 0.376086 0)
(-0.447602 0.346409 0)
(-0.41318 0.322987 0)
(-0.381915 0.304565 0)
(-0.353175 0.288712 0)
(-0.327709 0.277466 0)
(-0.30394 0.265984 0)
(-0.284161 0.258867 0)
(-0.267905 0.249791 0)
(-0.25441 0.241809 0)
(-0.250208 0.233727 0)
(-0.882445 0.683256 0)
(-0.78167 0.560766 0)
(-0.69235 0.482196 0)
(-0.625289 0.423013 0)
(-0.5671 0.377862 0)
(-0.519386 0.343315 0)
(-0.476704 0.31562 0)
(-0.439459 0.293482 0)
(-0.405313 0.27605 0)
(-0.374085 0.26071 0)
(-0.344587 0.25031 0)
(-0.317919 0.238441 0)
(-0.290775 0.234113 0)
(-0.271191 0.221638 0)
(-0.246744 0.222138 0)
(-0.247117 0.195413 0)
(-0.94065 0.609182 0)
(-0.833989 0.509945 0)
(-0.734977 0.433406 0)
(-0.663405 0.380687 0)
(-0.600445 0.338337 0)
(-0.549397 0.30663 0)
(-0.503825 0.280497 0)
(-0.463672 0.259222 0)
(-0.427922 0.241992 0)
(-0.392838 0.225489 0)
(-0.36334 0.21385 0)
(-0.328908 0.19792 0)
(-0.304588 0.190898 0)
(-0.26703 0.170918 0)
(-0.25153 0.17024 0)
(-0.211093 0.139385 0)
(-1.00918 0.534613 0)
(-0.878519 0.452827 0)
(-0.776594 0.381787 0)
(-0.69812 0.334576 0)
(-0.632145 0.29606 0)
(-0.577962 0.267424 0)
(-0.530599 0.243458 0)
(-0.489303 0.224184 0)
(-0.452966 0.20743 0)
(-0.418766 0.192822 0)
(-0.389933 0.179078 0)
(-0.359283 0.166873 0)
(-0.337122 0.153184 0)
(-0.306609 0.144456 0)
(-0.292863 0.130975 0)
(-0.254859 0.138902 0)
(-1.0642 0.46482 0)
(-0.920858 0.388933 0)
(-0.813022 0.326643 0)
(-0.729911 0.284875 0)
(-0.660273 0.250747 0)
(-0.603589 0.225554 0)
(-0.55428 0.204319 0)
(-0.511683 0.187324 0)
(-0.474705 0.172661 0)
(-0.440358 0.159939 0)
(-0.412103 0.148973 0)
(-0.383263 0.139308 0)
(-0.362063 0.131268 0)
(-0.338037 0.127036 0)
(-0.321431 0.123307 0)
(-0.301774 0.133105 0)
(-1.11189 0.38993 0)
(-0.959258 0.322099 0)
(-0.846298 0.268108 0)
(-0.758101 0.232338 0)
(-0.68587 0.203026 0)
(-0.626926 0.181714 0)
(-0.576441 0.163624 0)
(-0.533392 0.149559 0)
(-0.496219 0.137086 0)
(-0.462964 0.127332 0)
(-0.434958 0.118082 0)
(-0.408482 0.112314 0)
(-0.387091 0.106078 0)
(-0.36561 0.106223 0)
(-0.347476 0.105033 0)
(-0.329011 0.113922 0)
(-1.15312 0.30827 0)
(-0.993036 0.250284 0)
(-0.874274 0.206194 0)
(-0.782373 0.176785 0)
(-0.707315 0.153065 0)
(-0.646535 0.136026 0)
(-0.594694 0.121757 0)
(-0.550929 0.110973 0)
(-0.513251 0.101769 0)
(-0.480115 0.0949343 0)
(-0.452037 0.0892451 0)
(-0.426298 0.0860542 0)
(-0.404748 0.0839306 0)
(-0.384328 0.0851485 0)
(-0.365841 0.0872363 0)
(-0.348456 0.0928133 0)
(-1.18705 0.22128 0)
(-1.0207 0.175559 0)
(-0.897489 0.141281 0)
(-0.802168 0.11899 0)
(-0.72507 0.101092 0)
(-0.662731 0.0886761 0)
(-0.609982 0.0783869 0)
(-0.565769 0.071039 0)
(-0.527719 0.0648941 0)
(-0.49476 0.0609495 0)
(-0.466309 0.0577665 0)
(-0.440864 0.0570214 0)
(-0.418576 0.0567391 0)
(-0.398035 0.0593657 0)
(-0.378852 0.0621434 0)
(-0.360899 0.0673681 0)
(-1.21293 0.130183 0)
(-1.04187 0.097456 0)
(-0.914805 0.0739287 0)
(-0.81707 0.0590703 0)
(-0.738154 0.0475368 0)
(-0.674613 0.0400258 0)
(-0.620987 0.0341058 0)
(-0.576239 0.030395 0)
(-0.537734 0.0276684 0)
(-0.504564 0.0265588 0)
(-0.475779 0.0262252 0)
(-0.450164 0.0274121 0)
(-0.42757 0.0292857 0)
(-0.406749 0.0324952 0)
(-0.387594 0.0362475 0)
(-0.369405 0.040478 0)
(-1.2305 0.0361179 0)
(-1.056 0.0174365 0)
(-0.926342 0.00466497 0)
(-0.826787 -0.00230377 0)
(-0.746702 -0.007368 0)
(-0.682298 -0.00979432 0)
(-0.628128 -0.0113266 0)
(-0.583018 -0.011416 0)
(-0.544188 -0.0109252 0)
(-0.510836 -0.00935546 0)
(-0.481686 -0.00733257 0)
(-0.455856 -0.00430668 0)
(-0.432816 -0.000953293 0)
(-0.41172 0.00321677 0)
(-0.392319 0.00753104 0)
(-0.374024 0.0120969 0)
(-1.23947 -0.0599498 0)
(-1.06292 -0.0642478 0)
(-0.93161 -0.065862 0)
(-0.831074 -0.0647678 0)
(-0.750268 -0.0631273 0)
(-0.685383 -0.0603361 0)
(-0.630878 -0.0573461 0)
(-0.585518 -0.0537404 0)
(-0.54648 -0.0499697 0)
(-0.512944 -0.0457336 0)
(-0.483616 -0.041338 0)
(-0.457584 -0.0365602 0)
(-0.434454 -0.0316774 0)
(-0.413159 -0.0266248 0)
(-0.39393 -0.0215749 0)
(-0.375543 -0.0167582 0)
(-1.23981 -0.157067 0)
(-1.06252 -0.146621 0)
(-0.930683 -0.137073 0)
(-0.829847 -0.127754 0)
(-0.74892 -0.119401 0)
(-0.683943 -0.111351 0)
(-0.629435 -0.103877 0)
(-0.584054 -0.096619 0)
(-0.545 -0.0896711 0)
(-0.511431 -0.0828421 0)
(-0.482038 -0.0761957 0)
(-0.455957 -0.0696669 0)
(-0.432764 -0.0632978 0)
(-0.411487 -0.0571889 0)
(-0.392298 -0.0512758 0)
(-0.374118 -0.045865 0)
(-1.2314 -0.254391 0)
(-1.05479 -0.229098 0)
(-0.923395 -0.208353 0)
(-0.823055 -0.190785 0)
(-0.74252 -0.175717 0)
(-0.677869 -0.162404 0)
(-0.623647 -0.150467 0)
(-0.57846 -0.139566 0)
(-0.53959 -0.129481 0)
(-0.506111 -0.120057 0)
(-0.476864 -0.111203 0)
(-0.450818 -0.10287 0)
(-0.427839 -0.0950438 0)
(-0.406608 -0.0877498 0)
(-0.387773 -0.0809801 0)
(-0.369697 -0.0747773 0)
(-1.21444 -0.351047 0)
(-1.03978 -0.31097 0)
(-0.909921 -0.279126 0)
(-0.810753 -0.25336 0)
(-0.731206 -0.231671 0)
(-0.667296 -0.213159 0)
(-0.613717 -0.196843 0)
(-0.569004 -0.182367 0)
(-0.530552 -0.169196 0)
(-0.497384 -0.157223 0)
(-0.468434 -0.146122 0)
(-0.442647 -0.13599 0)
(-0.419939 -0.126519 0)
(-0.399017 -0.118036 0)
(-0.380462 -0.11011 0)
(-0.362791 -0.103239 0)
(-1.18887 -0.446213 0)
(-1.01768 -0.391548 0)
(-0.890246 -0.348813 0)
(-0.793046 -0.314981 0)
(-0.714987 -0.28682 0)
(-0.652253 -0.263209 0)
(-0.599625 -0.242634 0)
(-0.555625 -0.224649 0)
(-0.517806 -0.2085 0)
(-0.48506 -0.193965 0)
(-0.456609 -0.180722 0)
(-0.43108 -0.168648 0)
(-0.408891 -0.15765 0)
(-0.388188 -0.147707 0)
(-0.370215 -0.138744 0)
(-0.352812 -0.130864 0)
(-1.15515 -0.539137 0)
(-0.988641 -0.470227 0)
(-0.864684 -0.416897 0)
(-0.77009 -0.375191 0)
(-0.694109 -0.340767 0)
(-0.632966 -0.312211 0)
(-0.581659 -0.287532 0)
(-0.538686 -0.266171 0)
(-0.501735 -0.247129 0)
(-0.46968 -0.230146 0)
(-0.441845 -0.214706 0)
(-0.416835 -0.200772 0)
(-0.395182 -0.187982 0)
(-0.374956 -0.176637 0)
(-0.357545 -0.166239 0)
(-0.340611 -0.157517 0)
(-1.11333 -0.628978 0)
(-0.953015 -0.546397 0)
(-0.833309 -0.482825 0)
(-0.742089 -0.433527 0)
(-0.668654 -0.393078 0)
(-0.60954 -0.35976 0)
(-0.559869 -0.331162 0)
(-0.518173 -0.306539 0)
(-0.482325 -0.284787 0)
(-0.451045 -0.265359 0)
(-0.424025 -0.247937 0)
(-0.399433 -0.231953 0)
(-0.378521 -0.217591 0)
(-0.358542 -0.20443 0)
(-0.34197 -0.192692 0)
(-0.325382 -0.182777 0)
(-1.06399 -0.715253 0)
(-0.911115 -0.619475 0)
(-0.796513 -0.546185 0)
(-0.709269 -0.489547 0)
(-0.638925 -0.443403 0)
(-0.582253 -0.405542 0)
(-0.534577 -0.373265 0)
(-0.494506 -0.345609 0)
(-0.459973 -0.321344 0)
(-0.429824 -0.299742 0)
(-0.403655 -0.280482 0)
(-0.379862 -0.262702 0)
(-0.359576 -0.246751 0)
(-0.340109 -0.231756 0)
(-0.324467 -0.21829 0)
(-0.307802 -0.206779 0)
(-1.00648 -0.79795 0)
(-0.86328 -0.68903 0)
(-0.754443 -0.606463 0)
(-0.671857 -0.542859 0)
(-0.605086 -0.491288 0)
(-0.551275 -0.449132 0)
(-0.505952 -0.413379 0)
(-0.467812 -0.382861 0)
(-0.434919 -0.356286 0)
(-0.406103 -0.332643 0)
(-0.381095 -0.311832 0)
(-0.3581 -0.292346 0)
(-0.338627 -0.275316 0)
(-0.319313 -0.258164 0)
(-0.304603 -0.243919 0)
(-0.287587 -0.228181 0)
(-0.942494 -0.877072 0)
(-0.809597 -0.754003 0)
(-0.707455 -0.663318 0)
(-0.630118 -0.59298 0)
(-0.567398 -0.53641 0)
(-0.516854 -0.490212 0)
(-0.474207 -0.451255 0)
(-0.438355 -0.418129 0)
(-0.407297 -0.389512 0)
(-0.3803 -0.364182 0)
(-0.356469 -0.342311 0)
(-0.335251 -0.321758 0)
(-0.316199 -0.304758 0)
(-0.299418 -0.286638 0)
(-0.284096 -0.273275 0)
(-0.272997 -0.254211 0)
(-0.874273 -0.949542 0)
(-0.749922 -0.814584 0)
(-0.656054 -0.716102 0)
(-0.584228 -0.639578 0)
(-0.526154 -0.578316 0)
(-0.479223 -0.528371 0)
(-0.439657 -0.48639 0)
(-0.406448 -0.450862 0)
(-0.377697 -0.4202 0)
(-0.35298 -0.393448 0)
(-0.331104 -0.370064 0)
(-0.31237 -0.34915 0)
(-0.295157 -0.330639 0)
(-0.281633 -0.313815 0)
(-0.267748 -0.298036 0)
(-0.26017 -0.283491 0)
(-0.799179 -1.01411 0)
(-0.685579 -0.870378 0)
(-0.600203 -0.76421 0)
(-0.534622 -0.682261 0)
(-0.481533 -0.616626 0)
(-0.438571 -0.563261 0)
(-0.402336 -0.51846 0)
(-0.371938 -0.480635 0)
(-0.345666 -0.448004 0)
(-0.323121 -0.419604 0)
(-0.303361 -0.394713 0)
(-0.286294 -0.372461 0)
(-0.271267 -0.352623 0)
(-0.258415 -0.334555 0)
(-0.247086 -0.3176 0)
(-0.237107 -0.302687 0)
(-0.718105 -1.07293 0)
(-0.616705 -0.920256 0)
(-0.540477 -0.807521 0)
(-0.481581 -0.720566 0)
(-0.433897 -0.651049 0)
(-0.395191 -0.594576 0)
(-0.362556 -0.547225 0)
(-0.335186 -0.50733 0)
(-0.31155 -0.472889 0)
(-0.291359 -0.443079 0)
(-0.273603 -0.416775 0)
(-0.258433 -0.393587 0)
(-0.244745 -0.372547 0)
(-0.233273 -0.353865 0)
(-0.222372 -0.336082 0)
(-0.213308 -0.320426 0)
(-0.632013 -1.12396 0)
(-0.543747 -0.964016 0)
(-0.477245 -0.845362 0)
(-0.425513 -0.754198 0)
(-0.383532 -0.681206 0)
(-0.349332 -0.622003 0)
(-0.320477 -0.572338 0)
(-0.296237 -0.530514 0)
(-0.275348 -0.494373 0)
(-0.257441 -0.463076 0)
(-0.241836 -0.43542 0)
(-0.228247 -0.410976 0)
(-0.216344 -0.388867 0)
(-0.20566 -0.369111 0)
(-0.196262 -0.350708 0)
(-0.187068 -0.33439 0)
(-0.541761 -1.16734 0)
(-0.467496 -1.00103 0)
(-0.411077 -0.877604 0)
(-0.366869 -0.782802 0)
(-0.330838 -0.706902 0)
(-0.301343 -0.645344 0)
(-0.27641 -0.593704 0)
(-0.255411 -0.550222 0)
(-0.2373 -0.512632 0)
(-0.221743 -0.480092 0)
(-0.208141 -0.451315 0)
(-0.196263 -0.425898 0)
(-0.185708 -0.402925 0)
(-0.17628 -0.382382 0)
(-0.16768 -0.363404 0)
(-0.159712 -0.346377 0)
(-0.448268 -1.20236 0)
(-0.388427 -1.03114 0)
(-0.342521 -0.903837 0)
(-0.306096 -0.806164 0)
(-0.276218 -0.727861 0)
(-0.25158 -0.664367 0)
(-0.230687 -0.611059 0)
(-0.213016 -0.566151 0)
(-0.197769 -0.527309 0)
(-0.184609 -0.493646 0)
(-0.173139 -0.463901 0)
(-0.162999 -0.437573 0)
(-0.154085 -0.413892 0)
(-0.145888 -0.392641 0)
(-0.138605 -0.373234 0)
(-0.131488 -0.355728 0)
(-0.352328 -1.22888 0)
(-0.307376 -1.05404 0)
(-0.272151 -0.923923 0)
(-0.243719 -0.824068 0)
(-0.220107 -0.743941 0)
(-0.200434 -0.678939 0)
(-0.183643 -0.624328 0)
(-0.169355 -0.578295 0)
(-0.156986 -0.53847 0)
(-0.146263 -0.503925 0)
(-0.136888 -0.473428 0)
(-0.12857 -0.446397 0)
(-0.12121 -0.422168 0)
(-0.114464 -0.400365 0)
(-0.108375 -0.380586 0)
(-0.102613 -0.36265 0)
(-0.254838 -1.24664 0)
(-0.224913 -1.0696 0)
(-0.200584 -0.937668 0)
(-0.180232 -0.836374 0)
(-0.162983 -0.754985 0)
(-0.148343 -0.68892 0)
(-0.135716 -0.633365 0)
(-0.124869 -0.586502 0)
(-0.115437 -0.545942 0)
(-0.107216 -0.510728 0)
(-0.100032 -0.47966 0)
(-0.0936127 -0.4521 0)
(-0.0879682 -0.427449 0)
(-0.0827106 -0.405263 0)
(-0.0780363 -0.385189 0)
(-0.0734385 -0.367014 0)
(-0.156609 -1.25549 0)
(-0.14187 -1.0777 0)
(-0.128409 -0.944958 0)
(-0.116199 -0.84297 0)
(-0.105313 -0.76089 0)
(-0.0957298 -0.694217 0)
(-0.0872648 -0.63809 0)
(-0.0798656 -0.590707 0)
(-0.073358 -0.549683 0)
(-0.0676489 -0.514025 0)
(-0.0626299 -0.4826 0)
(-0.0581561 -0.454661 0)
(-0.0541941 -0.429775 0)
(-0.0505459 -0.407276 0)
(-0.0472496 -0.387086 0)
(-0.0440944 -0.368659 0)
(-0.0585711 -1.25543 0)
(-0.0588546 -1.07828 0)
(-0.0562788 -0.945767 0)
(-0.0521452 -0.843794 0)
(-0.0476227 -0.76161 0)
(-0.043084 -0.694783 0)
(-0.0387902 -0.638473 0)
(-0.0348509 -0.590905 0)
(-0.0312945 -0.549691 0)
(-0.0281261 -0.513858 0)
(-0.025337 -0.482253 0)
(-0.0228389 -0.45417 0)
(-0.0206836 -0.42912 0)
(-0.0186314 -0.406533 0)
(-0.0168842 -0.386209 0)
(-0.0149639 -0.36777 0)
(0.0384611 -1.24637 0)
(0.0232629 -1.07138 0)
(0.0152054 -0.94001 0)
(0.0113333 -0.838818 0)
(0.00959562 -0.757066 0)
(0.00913955 -0.690548 0)
(0.00932432 -0.634421 0)
(0.00984812 -0.586981 0)
(0.0105241 -0.545849 0)
(0.0111862 -0.510047 0)
(0.0118495 -0.478496 0)
(0.0123584 -0.450365 0)
(0.0128532 -0.425402 0)
(0.0131808 -0.402703 0)
(0.0135292 -0.382557 0)
(0.013834 -0.363989 0)
(0.133545 -1.2286 0)
(0.103899 -1.05701 0)
(0.085374 -0.927832 0)
(0.0736959 -0.828044 0)
(0.0657796 -0.747326 0)
(0.060413 -0.681564 0)
(0.0565265 -0.626034 0)
(0.053678 -0.579097 0)
(0.0514775 -0.538353 0)
(0.0496747 -0.502934 0)
(0.0481641 -0.471617 0)
(0.0467555 -0.443792 0)
(0.0454455 -0.418926 0)
(0.0441811 -0.396462 0)
(0.0428858 -0.376363 0)
(0.0419073 -0.35797 0)
(0.225892 -1.20205 0)
(0.182146 -1.03537 0)
(0.15361 -0.909145 0)
(0.134316 -0.811525 0)
(0.120401 -0.73232 0)
(0.110234 -0.667773 0)
(0.102382 -0.613191 0)
(0.0962445 -0.567061 0)
(0.091294 -0.526989 0)
(0.0870964 -0.492136 0)
(0.0836419 -0.461333 0)
(0.0803286 -0.43386 0)
(0.0776126 -0.409434 0)
(0.0745796 -0.387106 0)
(0.0721075 -0.367483 0)
(0.0691827 -0.349131 0)
(0.314661 -1.16732 0)
(0.257456 -1.0065 0)
(0.21925 -0.884272 0)
(0.192635 -0.789311 0)
(0.172882 -0.712232 0)
(0.158056 -0.649324 0)
(0.146319 -0.596128 0)
(0.136996 -0.551225 0)
(0.129317 -0.512163 0)
(0.122866 -0.478367 0)
(0.117404 -0.448282 0)
(0.11245 -0.421785 0)
(0.10812 -0.397777 0)
(0.103733 -0.376263 0)
(0.0997135 -0.356877 0)
(0.0953912 -0.338864 0)
(0.399258 -1.12413 0)
(0.328912 -0.970687 0)
(0.28162 -0.853094 0)
(0.248009 -0.76154 0)
(0.222625 -0.687009 0)
(0.203305 -0.626189 0)
(0.187795 -0.574714 0)
(0.175373 -0.531311 0)
(0.165077 -0.49356 0)
(0.156414 -0.460932 0)
(0.149193 -0.431927 0)
(0.142602 -0.406353 0)
(0.137321 -0.383252 0)
(0.131453 -0.362443 0)
(0.127252 -0.343741 0)
(0.120128 -0.326484 0)
(0.478035 -1.07442 0)
(0.395849 -0.927847 0)
(0.340072 -0.81613 0)
(0.299819 -0.728321 0)
(0.269072 -0.656944 0)
(0.245447 -0.598607 0)
(0.226307 -0.54928 0)
(0.210943 -0.507793 0)
(0.198078 -0.471671 0)
(0.187411 -0.440766 0)
(0.17831 -0.413026 0)
(0.170501 -0.389368 0)
(0.163834 -0.367145 0)
(0.157569 -0.348967 0)
(0.152287 -0.330348 0)
(0.145546 -0.316982 0)
(0.549047 -1.01705 0)
(0.457872 -0.878753 0)
(0.393719 -0.773308 0)
(0.347458 -0.689916 0)
(0.311531 -0.62209 0)
(0.283844 -0.566657 0)
(0.26119 -0.519815 0)
(0.242974 -0.480457 0)
(0.227553 -0.446271 0)
(0.214819 -0.416993 0)
(0.203631 -0.390934 0)
(0.19436 -0.368496 0)
(0.185628 -0.347933 0)
(0.178761 -0.330443 0)
(0.171201 -0.313497 0)
(0.166595 -0.299311 0)
(0.61341 -0.952317 0)
(0.51372 -0.823937 0)
(0.442142 -0.725057 0)
(0.390218 -0.646623 0)
(0.349506 -0.582803 0)
(0.318 -0.530684 0)
(0.292098 -0.486687 0)
(0.271242 -0.449762 0)
(0.253523 -0.417687 0)
(0.238888 -0.390198 0)
(0.225999 -0.365679 0)
(0.215252 -0.344392 0)
(0.205286 -0.32487 0)
(0.197112 -0.30762 0)
(0.189011 -0.291423 0)
(0.182991 -0.276175 0)
(0.670217 -0.881778 0)
(0.562798 -0.763578 0)
(0.484511 -0.671785 0)
(0.42744 -0.59877 0)
(0.382277 -0.539392 0)
(0.347265 -0.491004 0)
(0.318368 -0.450208 0)
(0.295096 -0.415994 0)
(0.275293 -0.386302 0)
(0.258949 -0.36074 0)
(0.244546 -0.337984 0)
(0.232583 -0.317949 0)
(0.221519 -0.299653 0)
(0.212553 -0.283114 0)
(0.203822 -0.26763 0)
(0.197239 -0.25299 0)
(0.718197 -0.806092 0)
(0.604484 -0.698363 0)
(0.520285 -0.613903 0)
(0.458533 -0.546811 0)
(0.409367 -0.492314 0)
(0.371192 -0.448111 0)
(0.33967 -0.410881 0)
(0.314297 -0.379694 0)
(0.292764 -0.352592 0)
(0.274976 -0.329136 0)
(0.259423 -0.3082 0)
(0.246383 -0.289493 0)
(0.234585 -0.272449 0)
(0.224703 -0.256623 0)
(0.215565 -0.242114 0)
(0.208088 -0.227887 0)
(0.757077 -0.72644 0)
(0.638066 -0.628989 0)
(0.548627 -0.552059 0)
(0.482712 -0.491321 0)
(0.430023 -0.442173 0)
(0.389129 -0.402614 0)
(0.355415 -0.369342 0)
(0.32833 -0.341518 0)
(0.30545 -0.317281 0)
(0.286582 -0.296178 0)
(0.270225 -0.277245 0)
(0.256492 -0.260119 0)
(0.244241 -0.244404 0)
(0.233872 -0.229681 0)
(0.224445 -0.21602 0)
(0.216453 -0.202834 0)
(0.786121 -0.643507 0)
(0.663177 -0.55574 0)
(0.569148 -0.48655 0)
(0.499584 -0.43281 0)
(0.443929 -0.389546 0)
(0.400795 -0.355196 0)
(0.365389 -0.326283 0)
(0.337022 -0.302171 0)
(0.313218 -0.281043 0)
(0.293629 -0.262501 0)
(0.276818 -0.24571 0)
(0.262659 -0.230284 0)
(0.250218 -0.216025 0)
(0.239517 -0.202417 0)
(0.22997 -0.189808 0)
(0.221586 -0.177416 0)
(0.805129 -0.558437 0)
(0.678895 -0.479886 0)
(0.580607 -0.418498 0)
(0.508081 -0.372321 0)
(0.450197 -0.335511 0)
(0.405528 -0.306839 0)
(0.369101 -0.282667 0)
(0.340009 -0.262559 0)
(0.315794 -0.244764 0)
(0.29593 -0.22897 0)
(0.279059 -0.214442 0)
(0.264867 -0.200837 0)
(0.252533 -0.188034 0)
(0.241856 -0.175619 0)
(0.232364 -0.163906 0)
(0.223887 -0.15239 0)
(0.813473 -0.471425 0)
(0.68482 -0.400747 0)
(0.583049 -0.3477 0)
(0.508284 -0.310366 0)
(0.449067 -0.280686 0)
(0.40359 -0.258412 0)
(0.366816 -0.239314 0)
(0.337529 -0.223506 0)
(0.313367 -0.209193 0)
(0.293605 -0.196268 0)
(0.277015 -0.184065 0)
(0.263079 -0.172307 0)
(0.251133 -0.160963 0)
(0.240694 -0.149645 0)
(0.231511 -0.138783 0)
(0.223055 -0.127874 0)
(0.811102 -0.383542 0)
(0.679594 -0.320957 0)
(0.574216 -0.276778 0)
(0.498568 -0.248984 0)
(0.439422 -0.227139 0)
(0.394307 -0.211433 0)
(0.358214 -0.197621 0)
(0.329438 -0.186137 0)
(0.305906 -0.175355 0)
(0.28666 -0.165312 0)
(0.270689 -0.155436 0)
(0.257318 -0.145504 0)
(0.246005 -0.135526 0)
(0.236119 -0.125174 0)
(0.22742 -0.11491 0)
(0.219316 -0.104376 0)
(0.796325 -0.293056 0)
(0.661809 -0.237696 0)
(0.555215 -0.204131 0)
(0.480363 -0.188668 0)
(0.422919 -0.175173 0)
(0.37931 -0.166819 0)
(0.344654 -0.158207 0)
(0.316907 -0.15108 0)
(0.294321 -0.143664 0)
(0.275785 -0.136406 0)
(0.260577 -0.128756 0)
(0.24788 -0.120572 0)
(0.237373 -0.111888 0)
(0.22816 -0.10236 0)
(0.220202 -0.0925424 0)
(0.212465 -0.0820769 0)
(0.768262 -0.199301 0)
(0.629461 -0.157198 0)
(0.522145 -0.136713 0)
(0.451222 -0.133368 0)
(0.398404 -0.128741 0)
(0.35796 -0.126691 0)
(0.326211 -0.122994 0)
(0.300143 -0.119597 0)
(0.278968 -0.115277 0)
(0.261238 -0.11056 0)
(0.246764 -0.105035 0)
(0.234625 -0.0985383 0)
(0.224798 -0.0910413 0)
(0.216283 -0.0821409 0)
(0.209098 -0.0723506 0)
(0.202056 -0.0613932 0)
(0.718252 -0.0934243 0)
(0.576914 -0.0735607 0)
(0.479076 -0.0697759 0)
(0.416481 -0.0835958 0)
(0.370478 -0.0868809 0)
(0.334677 -0.091493 0)
(0.306001 -0.0915843 0)
(0.281798 -0.0913462 0)
(0.261716 -0.0893192 0)
(0.244445 -0.0866039 0)
(0.230213 -0.0828054 0)
(0.21815 -0.0778199 0)
(0.208639 -0.0715907 0)
(0.20054 -0.06349 0)
(0.194238 -0.0539896 0)
(0.18781 -0.0424812 0)
(0.633502 0.0356834 0)
(0.50233 -0.00340729 0)
(0.421792 -0.0213554 0)
(0.372649 -0.0457182 0)
(0.33879 -0.0558031 0)
(0.308677 -0.0633214 0)
(0.284843 -0.0660762 0)
(0.26262 -0.0674567 0)
(0.243833 -0.0670959 0)
(0.226478 -0.0658914 0)
(0.211645 -0.063689 0)
(0.198284 -0.0603672 0)
(0.187386 -0.055565 0)