/*--------------------------------*- C++ -*----------------------------------*\
| =========                 |                                                 |
| \\      /  F ield         | foam-extend: Open Source CFD                    |
|  \\    /   O peration     | Version:  3.0                                   |
|   \\  /    A nd           | Web:         http://www.extend-project.de       |
|    \\/     M anipulation  |                                                 |
\*---------------------------------------------------------------------------*/
FoamFile
{
    version     2.0;
    format      ascii;
    class       volVectorField;
    location    "2";
    object      u;
}
// * * * * * * * * * * * * * * * * * * * * * * * * * * * * * * * * * * * * * //

dimensions      [0 0 0 0 0 0 0];

internalField   nonuniform List<vector> 
1920
(
(0.149442 -0.0613529 4.56596e-18)
(0.344849 -0.0488837 7.5679e-19)
(0.495287 -0.0396386 1.04333e-18)
(0.601753 -0.0324611 -1.30105e-18)
(0.688795 -0.0270644 4.11187e-18)
(0.750869 -0.0227429 7.0341e-19)
(0.804732 -0.0194071 3.19988e-18)
(0.842431 -0.0166644 2.05172e-18)
(0.877521 -0.014487 3.56143e-19)
(0.900716 -0.0126764 -1.25487e-18)
(0.924613 -0.0111803 -2.44147e-18)
(0.93859 -0.00995269 4.35153e-19)
(0.955625 -0.00886662 1.96175e-18)
(0.963414 -0.0080217 -9.39868e-19)
(0.976197 -0.00718263 -3.65834e-19)
(0.979618 -0.00659925 1.20845e-18)
(0.98972 -0.00590615 -6.16614e-18)
(0.989875 -0.00551046 -1.79473e-18)
(0.998133 -0.00485773 -2.32559e-18)
(0.995481 -0.00544803 4.1893e-19)
(0.16547 -0.182986 8.97675e-18)
(0.357606 -0.145795 -2.44749e-20)
(0.505633 -0.118212 1.98183e-18)
(0.610241 -0.0968157 -6.77277e-18)
(0.695874 -0.0807405 -3.81253e-18)
(0.756826 -0.0678693 -5.04403e-19)
(0.809813 -0.0579355 -3.47732e-18)
(0.846798 -0.0497655 8.68068e-18)
(0.881314 -0.0432779 6.27714e-18)
(0.904038 -0.037884 6.31365e-18)
(0.927542 -0.0334276 3.30491e-18)
(0.941203 -0.0297756 5.26412e-18)
(0.957954 -0.0265449 7.93145e-19)
(0.965525 -0.024036 5.91149e-19)
(0.978088 -0.0215416 1.27081e-18)
(0.981358 -0.0198105 9.61737e-18)
(0.991277 -0.0177493 1.17797e-17)
(0.991329 -0.0165741 8.65354e-18)
(0.999416 -0.0146327 3.79695e-18)
(0.996919 -0.0164094 1.46324e-18)
(0.197217 -0.30148 3.52417e-18)
(0.382911 -0.2402 -6.30929e-19)
(0.526152 -0.194757 4.2205e-18)
(0.62705 -0.159507 4.8157e-18)
(0.709893 -0.133024 -2.74083e-18)
(0.768608 -0.111824 1.70116e-18)
(0.81987 -0.0954625 7.03185e-18)
(0.855434 -0.0820111 -9.17124e-18)
(0.888826 -0.0713299 -8.93253e-18)
(0.910616 -0.0624521 -5.85433e-18)
(0.933351 -0.0551136 -5.46909e-18)
(0.946381 -0.0490991 -1.12981e-18)
(0.962573 -0.043775 2.39944e-19)
(0.96971 -0.0396399 -1.6793e-18)
(0.981839 -0.0355287 -9.57839e-18)
(0.984809 -0.0326764 -8.71641e-18)
(0.994368 -0.0292818 -1.51169e-17)
(0.994215 -0.0273491 -6.67226e-18)
(1.00196 -0.0241543 -1.23442e-17)
(0.999776 -0.0270882 1.10236e-17)
(0.244173 -0.414851 6.61923e-18)
(0.420321 -0.330529 2.81357e-18)
(0.556485 -0.267995 3.98592e-18)
(0.651898 -0.219492 4.2407e-18)
(0.730617 -0.18305 1.95572e-18)
(0.786033 -0.153877 -1.20613e-17)
(0.834745 -0.131363 -7.6164e-18)
(0.868216 -0.112856 -9.15337e-18)
(0.899943 -0.0981592 -1.9122e-17)
(0.920351 -0.0859466 -1.74574e-18)
(0.941941 -0.0758499 -1.23045e-18)
(0.954034 -0.0675774 -9.67158e-18)
(0.969396 -0.0602525 9.40016e-18)
(0.975889 -0.0545656 5.99503e-19)
(0.987378 -0.0489096 4.79033e-18)
(0.989904 -0.0449869 -1.29903e-17)
(0.998935 -0.0403168 -6.97402e-18)
(0.998482 -0.0376583 3.21711e-18)
(1.00573 -0.033264 1.22775e-17)
(1.004 -0.0373023 1.18864e-18)
(0.305513 -0.521091 1.29226e-17)
(0.469201 -0.415175 7.33694e-18)
(0.59612 -0.336626 7.28579e-18)
(0.684361 -0.275702 1.23937e-17)
(0.757691 -0.229928 1.8014e-17)
(0.808792 -0.193287 1.16675e-17)
(0.854174 -0.165009 2.72082e-19)
(0.884908 -0.141766 1.06834e-17)
(0.914462 -0.123309 5.38704e-18)
(0.933066 -0.107973 8.09924e-18)
(0.953165 -0.0952915 1.12209e-18)
(0.964037 -0.0849013 -1.08448e-17)
(0.978317 -0.0757001 3.05809e-18)
(0.98397 -0.0685556 1.46789e-17)
(0.994622 -0.0614504 -1.22459e-17)
(0.996567 -0.0565225 2.90618e-17)
(1.00491 -0.0506569 -1.33059e-17)
(1.00406 -0.0473186 1.28255e-17)
(1.01066 -0.0418002 -1.13852e-17)
(1.00953 -0.0468748 -4.27105e-19)
(0.380212 -0.618446 1.92393e-17)
(0.528717 -0.492742 1.61263e-17)
(0.644376 -0.399516 1.32003e-17)
(0.723886 -0.327212 -2.24707e-17)
(0.790653 -0.272884 2.53738e-18)
(0.836502 -0.229397 -1.30459e-18)
(0.87783 -0.195836 2.96413e-17)
(0.905234 -0.168252 1.25118e-18)
(0.932142 -0.146348 2.52799e-19)
(0.948549 -0.128149 -2.22261e-17)
(0.96683 -0.113101 9.11374e-18)
(0.976213 -0.100771 -3.70225e-18)
(0.989174 -0.0898515 1.19803e-18)
(0.993803 -0.0813732 -1.6377e-17)
(1.00344 -0.072941 6.55437e-20)
(1.00468 -0.0670928 3.2429e-18)
(1.01217 -0.0601321 -1.62591e-18)
(1.01085 -0.0561702 1.08737e-18)
(1.01666 -0.0496222 -3.61183e-19)
(1.01625 -0.0556445 -2.22712e-17)
(0.466963 -0.705193 -7.28269e-18)
(0.59784 -0.561857 -1.29416e-17)
(0.700424 -0.455554 -1.10793e-17)
(0.769792 -0.373107 2.02197e-18)
(0.828938 -0.311159 2.92433e-18)
(0.868688 -0.261574 -2.30847e-18)
(0.905308 -0.223306 -7.44203e-18)
(0.928843 -0.191857 -1.21587e-17)
(0.95268 -0.166883 1.22632e-17)
(0.966536 -0.146133 -1.59667e-17)
(0.982706 -0.128974 -1.08949e-18)
(0.990361 -0.114916 -2.28315e-17)
(1.00179 -0.102464 -1.39187e-18)
(1.00523 -0.092796 -3.71434e-17)
(1.01368 -0.0831805 -1.50096e-17)
(1.0141 -0.0765115 7.64061e-20)
(1.02062 -0.0685747 -4.19843e-18)
(1.01874 -0.0640574 -2.21845e-17)
(1.02362 -0.0565915 1.88972e-17)
(1.02406 -0.0634591 -2.27082e-17)
(0.564313 -0.779898 -9.08168e-19)
(0.675405 -0.621378 -3.84277e-17)
(0.763314 -0.503812 -6.81794e-19)
(0.821302 -0.412632 5.63213e-18)
(0.871895 -0.34412 -2.15214e-17)
(0.9048 -0.289281 -5.20153e-18)
(0.936136 -0.24696 1.58741e-18)
(0.955331 -0.21218 1.61303e-18)
(0.97572 -0.184562 3.31858e-17)
(0.986712 -0.161616 -5.80112e-18)
(1.00051 -0.142641 1.80748e-17)
(1.00623 -0.127094 -1.08191e-18)
(1.01594 -0.113324 3.67654e-17)
(1.01804 -0.102632 -1.62662e-17)
(1.02516 -0.0919982 1.85048e-17)
(1.02466 -0.0846225 2.83065e-17)
(1.03009 -0.0758456 -2.05099e-17)
(1.02758 -0.0708489 4.93955e-17)
(1.03144 -0.0625934 5.87644e-19)
(1.03283 -0.0701868 4.14912e-17)
(0.670564 -0.841239 4.97272e-18)
(0.760063 -0.670251 -5.98477e-18)
(0.831956 -0.543436 -6.25943e-18)
(0.877522 -0.445084 4.2026e-18)
(0.918782 -0.371183 1.35992e-17)
(0.944217 -0.312032 -1.36032e-17)
(0.969788 -0.266383 1.19858e-17)
(0.984247 -0.22887 4.05268e-18)
(1.00087 -0.199081 6.98015e-18)
(1.00874 -0.174331 3.2355e-17)
(1.01996 -0.153865 -1.68277e-17)
(1.02356 -0.137096 -3.40567e-17)
(1.03139 -0.122243 3.17724e-17)
(1.03204 -0.110709 -1.7711e-17)
(1.03771 -0.0992388 -1.60209e-18)
(1.0362 -0.0912826 -1.8871e-17)
(1.04043 -0.0818155 2.33543e-17)
(1.03724 -0.0764258 2.65133e-17)
(1.03997 -0.0675212 -2.21653e-17)
(1.04239 -0.0757112 2.15292e-17)
(0.783931 -0.888205 1.54858e-17)
(0.850389 -0.70767 -7.27341e-19)
(0.905193 -0.573774 7.78913e-19)
(0.937507 -0.469931 6.66951e-18)
(0.968807 -0.391903 6.00226e-18)
(0.98627 -0.32945 1.38121e-17)
(1.00569 -0.281252 5.71653e-18)
(1.01509 -0.241645 1.87705e-17)
(1.0277 -0.210194 -8.13262e-18)
(1.03224 -0.184064 -9.33843e-18)
(1.0407 -0.162456 -4.45703e-18)
(1.04203 -0.144752 -2.07321e-17)
(1.04786 -0.12907 -1.27048e-17)
(1.04696 -0.116893 8.26733e-18)
(1.05108 -0.104783 -2.63429e-17)
(1.04851 -0.0963818 1.97385e-17)
(1.05146 -0.086387 -4.76836e-17)
(1.04755 -0.0806951 8.10541e-19)
(1.04908 -0.0712942 -2.13691e-17)
(1.0526 -0.0799388 2.10379e-17)
(0.902442 -0.919958 -1.46723e-17)
(0.944814 -0.732968 2.06927e-19)
(0.981753 -0.594285 6.0877e-18)
(1.00021 -0.486728 -4.33687e-18)
(1.0211 -0.405911 2.72775e-17)
(1.03023 -0.341225 -3.00232e-17)
(1.04322 -0.291305 -1.10508e-17)
(1.04734 -0.250283 -9.69343e-18)
(1.05576 -0.217709 -3.56797e-18)
(1.05681 -0.190646 -3.45562e-17)
(1.06238 -0.168266 -4.53396e-19)
(1.06136 -0.149929 2.60142e-17)
(1.0651 -0.133687 -4.48681e-18)
(1.06257 -0.121074 -2.51768e-17)
(1.06507 -0.108531 -5.00546e-18)
(1.06137 -0.0998296 4.1381e-18)
(1.06299 -0.0894776 1.99218e-17)
(1.05832 -0.083582 1.12619e-18)
(1.05859 -0.0738451 1.39181e-17)
(1.06327 -0.0827972 -6.96331e-17)
(1.0241 -0.935983 -1.66875e-17)
(1.04175 -0.745736 -1.52224e-17)
(1.06035 -0.604635 -3.2778e-20)
(1.06458 -0.495204 5.7245e-18)
(1.07478 -0.412979 -1.45586e-17)
(1.07536 -0.347165 -7.82165e-18)
(1.08175 -0.296376 6.64748e-18)
(1.08044 -0.25464 -6.26043e-18)
(1.08455 -0.221499 2.09795e-17)
(1.08202 -0.193965 1.41308e-17)
(1.08464 -0.171197 5.09147e-19)
(1.08119 -0.152541 3.22795e-18)
(1.08278 -0.136017 1.94227e-18)
(1.07858 -0.123184 4.58913e-17)
(1.07943 -0.110424 -2.52682e-17)
(1.07458 -0.10157 -8.4757e-19)
(1.07483 -0.0910385 -1.29016e-18)
(1.06937 -0.0850387 -2.54559e-18)
(1.06836 -0.0751328 -1.73746e-17)
(1.07421 -0.0842377 2.94485e-17)
(1.1468 -0.935983 -6.69588e-18)
(1.1395 -0.745734 -1.58321e-17)
(1.13961 -0.604632 -2.85717e-18)
(1.1295 -0.495201 1.19958e-17)
(1.12892 -0.412976 -2.66179e-17)
(1.12087 -0.347163 -5.97584e-18)
(1.1206 -0.296374 -5.76241e-18)
(1.11383 -0.254638 7.35859e-18)
(1.11359 -0.221498 1.98532e-17)
(1.10746 -0.193965 1.88933e-17)
(1.10709 -0.171197 1.12545e-18)
(1.10119 -0.152541 1.00848e-18)
(1.10062 -0.136017 -6.12588e-19)
(1.09474 -0.123185 5.0024e-18)
(1.09391 -0.110424 1.97758e-17)
(1.0879 -0.101571 2.70156e-19)
(1.08677 -0.0910394 1.00411e-18)
(1.08053 -0.0850393 1.03905e-18)
(1.07821 -0.0751335 1.61178e-17)
(1.08526 -0.0842366 -2.85327e-19)
(1.26845 -0.919976 -1.31518e-17)
(1.23644 -0.73298 1.22203e-17)
(1.2182 -0.59429 -8.59778e-18)
(1.19387 -0.486729 -6.61744e-18)
(1.1826 -0.40591 2.38128e-18)
(1.166 -0.341222 -5.83935e-18)
(1.15913 -0.291302 2.71386e-18)
(1.14693 -0.25028 -2.36847e-17)
(1.14239 -0.217708 -3.04325e-17)
(1.13267 -0.190646 4.10444e-18)
(1.12934 -0.168268 1.33573e-17)
(1.12102 -0.149932 1.27449e-17)
(1.11829 -0.133692 -2.71885e-18)
(1.11075 -0.121078 -2.03224e-17)
(1.10827 -0.108537 2.25564e-18)
(1.1011 -0.0998342 2.60026e-18)
(1.0986 -0.0894838 2.0334e-17)
(1.09158 -0.0835849 7.4722e-19)
(1.08798 -0.0738489 -1.17871e-17)
(1.0962 -0.0827933 2.9803e-17)
(1.38697 -0.88822 7.17655e-18)
(1.33087 -0.707677 4.25468e-18)
(1.29476 -0.573773 -1.0659e-17)
(1.25657 -0.469925 -1.61918e-18)
(1.2349 -0.391895 6.88758e-18)
(1.20996 -0.32944 1.8589e-17)
(1.19666 -0.281244 1.82292e-18)
(1.17918 -0.241639 9.21357e-18)
(1.17044 -0.210191 -2.33124e-17)
(1.15723 -0.184064 8.35193e-18)
(1.15102 -0.162459 -5.20057e-19)
(1.14034 -0.144756 -4.0953e-19)
(1.13553 -0.129076 -2.43163e-17)
(1.12635 -0.116898 2.75902e-18)
(1.12226 -0.10479 -2.20403e-17)
(1.11397 -0.0963878 -2.25291e-17)
(1.11013 -0.086395 -1.70123e-17)
(1.10235 -0.0806997 -1.77356e-17)
(1.09749 -0.0712998 1.08142e-17)
(1.10687 -0.0799341 -4.03261e-17)
(1.50034 -0.841272 3.1594e-18)
(1.4212 -0.67027 9.4833e-18)
(1.368 -0.543442 -1.40319e-17)
(1.31656 -0.445082 -1.96895e-18)
(1.28492 -0.371176 3.72939e-18)
(1.25201 -0.312023 1.57471e-17)
(1.23256 -0.266374 -6.42438e-18)
(1.21002 -0.228863 3.93802e-19)
(1.19727 -0.199078 -7.28798e-18)
(1.18073 -0.174333 6.11707e-18)
(1.17176 -0.153871 -8.39196e-18)
(1.15882 -0.137103 2.29533e-17)
(1.152 -0.122254 -3.42906e-18)
(1.14127 -0.110719 9.32919e-19)
(1.13563 -0.099252 2.0839e-17)
(1.12627 -0.0912932 -1.88049e-17)
(1.12116 -0.0818292 1.26708e-17)
(1.11265 -0.0764339 -1.66299e-17)
(1.10659 -0.0675313 1.56506e-17)
(1.11707 -0.0757069 8.65434e-18)
(1.60661 -0.779925 -2.00447e-18)
(1.50586 -0.621389 -1.23059e-17)
(1.43665 -0.503808 3.94723e-18)
(1.37278 -0.41262 -4.52284e-18)
(1.33181 -0.344104 -1.42844e-17)
(1.29143 -0.289265 3.22308e-18)
(1.26621 -0.246945 -1.23443e-18)
(1.23893 -0.21217 2.9997e-18)
(1.22242 -0.184558 2.40489e-17)
(1.20275 -0.161617 -1.26464e-17)
(1.1912 -0.142648 -8.45113e-18)
(1.17614 -0.127103 2.40942e-17)
(1.16745 -0.113336 2.37781e-18)
(1.15527 -0.102643 2.61535e-17)
(1.14817 -0.0920126 -3.72212e-18)
(1.13781 -0.0846345 1.31458e-17)
(1.1315 -0.0758611 1.42148e-17)
(1.12231 -0.0708595 -4.002e-18)
(1.11513 -0.0626064 1.16805e-18)
(1.12663 -0.0701851 -1.43733e-18)
(1.70397 -0.705235 -5.62279e-18)
(1.58343 -0.561879 -2.60052e-18)
(1.49954 -0.455556 -3.60696e-18)
(1.42429 -0.3731 4.6028e-18)
(1.37476 -0.311145 -5.94488e-18)
(1.32754 -0.261558 1.32054e-18)
(1.29703 -0.223292 9.02056e-20)
(1.26542 -0.191847 -1.17514e-18)
(1.24546 -0.16688 -1.17358e-17)
(1.22293 -0.146137 1.74562e-18)
(1.20901 -0.128985 -2.25004e-18)
(1.19201 -0.114929 -5.31379e-18)
(1.1816 -0.102482 -1.61095e-17)
(1.16808 -0.0928128 2.51959e-18)
(1.15966 -0.083201 -7.66285e-18)
(1.14838 -0.0765291 -7.5865e-19)
(1.14097 -0.0685966 -3.21417e-20)
(1.13116 -0.0640733 -1.19773e-17)
(1.12294 -0.056611 2.22653e-17)
(1.13539 -0.0634625 -1.96378e-17)
(1.79073 -0.618475 7.8945e-18)
(1.65256 -0.492751 7.41059e-18)
(1.55559 -0.399506 5.05188e-18)
(1.47019 -0.327194 -8.38202e-18)
(1.41305 -0.272861 -7.79735e-19)
(1.35972 -0.229374 4.28682e-18)
(1.32451 -0.195816 6.90891e-18)
(1.28902 -0.16824 -1.21001e-19)
(1.26599 -0.146345 -1.06616e-17)
(1.24091 -0.128154 6.68885e-19)
(1.22488 -0.113112 2.85235e-18)
(1.20615 -0.100786 5.66964e-19)
(1.19421 -0.0898704 -2.11385e-18)
(1.1795 -0.0813911 -2.79394e-18)
(1.1699 -0.0729623 1.19431e-17)
(1.1578 -0.0671117 1.42088e-18)
(1.14941 -0.0601558 9.89434e-18)
(1.13904 -0.0561895 -2.82591e-18)
(1.12991 -0.0496459 -1.55026e-17)
(1.1432 -0.0556545 5.56328e-18)
(1.86544 -0.521133 3.87417e-18)
(1.71209 -0.415194 3.87372e-18)
(1.60385 -0.336622 2.78144e-18)
(1.50972 -0.27569 3.08007e-18)
(1.44601 -0.229908 5.44381e-18)
(1.38743 -0.193265 4.74001e-18)
(1.34816 -0.16499 -3.13774e-18)
(1.30935 -0.141755 3.82837e-18)
(1.28367 -0.123307 3.30608e-18)
(1.25639 -0.107979 3.9218e-18)
(1.23854 -0.0953062 -5.36119e-18)
(1.21833 -0.0849203 3.24692e-18)
(1.20507 -0.0757236 1.08196e-19)
(1.18933 -0.068579 5.07235e-18)
(1.17871 -0.0614778 -2.78515e-18)
(1.1659 -0.0565478 6.29264e-19)
(1.15668 -0.0506876 5.77994e-18)
(1.14583 -0.0473452 -3.9095e-18)
(1.1359 -0.0418323 2.56188e-18)
(1.14992 -0.0468943 8.63186e-19)
(1.9268 -0.414872 2.19198e-18)
(1.76097 -0.33053 2.15133e-18)
(1.64348 -0.267977 1.4854e-18)
(1.54218 -0.219468 1.44437e-18)
(1.47308 -0.183021 1.45574e-18)
(1.41018 -0.153849 -3.94365e-18)
(1.36759 -0.131339 -1.36411e-18)
(1.32604 -0.112842 -3.99563e-18)
(1.29819 -0.0981564 -1.2926e-18)
(1.26911 -0.0859543 9.0737e-19)
(1.24977 -0.0758662 -6.54563e-19)
(1.22833 -0.067598 3.47256e-18)
(1.21399 -0.0602775 -1.18687e-18)
(1.19741 -0.0545899 2.55438e-18)
(1.18595 -0.0489377 1.04022e-17)
(1.17256 -0.0450134 -2.50388e-18)
(1.16265 -0.0403493 4.0476e-19)
(1.15141 -0.0376891 -3.16418e-19)
(1.14083 -0.0333016 -3.30586e-19)
(1.15544 -0.0373319 -2.2251e-18)
(1.97377 -0.301513 7.12499e-19)
(1.79839 -0.240211 1.1857e-18)
(1.67382 -0.194747 6.88054e-19)
(1.56702 -0.15949 2.17855e-18)
(1.4938 -0.133002 1.29018e-18)
(1.4276 -0.111801 -1.81104e-18)
(1.38246 -0.0954428 4.17339e-19)
(1.33881 -0.082 -2.33384e-18)
(1.3093 -0.0713284 -1.53947e-18)
(1.27884 -0.0624608 -7.68511e-19)
(1.25836 -0.0551306 4.76528e-19)
(1.23598 -0.0491219 -4.48182e-19)
(1.22081 -0.043803 1.28622e-19)
(1.20359 -0.0396696 1.12765e-18)
(1.19149 -0.0355631 8.50251e-19)
(1.17766 -0.0327112 -1.82906e-18)
(1.16722 -0.0293229 -2.82915e-18)
(1.15567 -0.0273894 -1.74153e-18)
(1.1446 -0.0242022 1.8277e-18)
(1.15966 -0.0271308 -2.59309e-18)
(2.00554 -0.182992 8.6246e-19)
(1.8237 -0.14578 6.93699e-19)
(1.69434 -0.118184 3.29298e-19)
(1.58383 -0.0967836 8.90173e-21)
(1.50781 -0.0807071 1.2183e-19)
(1.43938 -0.0678389 -8.24275e-19)
(1.39252 -0.0579119 -3.08145e-20)
(1.34746 -0.0497529 -4.573e-19)
(1.31682 -0.0432777 1.34163e-19)
(1.28543 -0.0378957 1.57982e-18)
(1.26417 -0.0334485 2.61462e-19)
(1.24116 -0.0298017 8.9353e-19)
(1.22543 -0.0265753 5.51782e-19)
(1.20777 -0.0240668 9.43939e-19)
(1.19524 -0.0215765 1.02701e-18)
(1.18111 -0.019846 1.05253e-18)
(1.17031 -0.0177919 9.40134e-19)
(1.15856 -0.016619 1.40252e-18)
(1.14715 -0.0146872 5.48488e-19)
(1.16252 -0.0164651 3.2617e-19)
(2.02157 -0.0613393 1.8907e-19)
(1.83647 -0.0488546 3.38995e-19)
(1.70469 -0.0395982 8.7994e-20)
(1.5923 -0.0324208 9.56889e-20)
(1.51488 -0.0270315 1.8776e-19)
(1.44532 -0.022717 -3.2114e-19)
(1.39759 -0.0193913 1.41609e-19)
(1.35181 -0.0166564 -2.72064e-19)
(1.32061 -0.0144887 1.98688e-19)
(1.28874 -0.0126849 7.70219e-19)
(1.2671 -0.0111971 7.12839e-19)
(1.24377 -0.00997481 7.12706e-19)
(1.22775 -0.00889624 5.0789e-19)
(1.20988 -0.00805555 9.49139e-19)
(1.19713 -0.00722387 9.9007e-19)
(1.18284 -0.00664403 9.01439e-19)
(1.17187 -0.00595882 1.1296e-18)
(1.16001 -0.00556587 1.34212e-18)
(1.14844 -0.00492188 4.67612e-19)
(1.16396 -0.0055178 5.67136e-19)
(2.02158 0.0613645 -5.70171e-19)
(1.83648 0.0489081 6.05378e-20)
(1.70469 0.0396654 -1.66327e-19)
(1.59231 0.0324972 2.75395e-19)
(1.51488 0.027107 1.18656e-19)
(1.44532 0.0227946 -1.98899e-20)
(1.39759 0.0194621 1.11914e-19)
(1.35181 0.0167269 -1.79558e-19)
(1.32061 0.0145503 2.41816e-19)
(1.28875 0.0127458 5.27214e-19)
(1.2671 0.0112489 7.50558e-19)
(1.24377 0.0100262 5.74612e-19)
(1.22776 0.00893849 5.30543e-19)
(1.20988 0.00809716 9.07632e-19)
(1.19713 0.00725573 9.73908e-19)
(1.18285 0.0066748 5.19716e-19)
(1.17187 0.00597887 7.62356e-19)
(1.16002 0.00558469 5.42867e-19)
(1.14844 0.00492913 3.69444e-19)
(1.16397 0.0055245 2.89631e-19)
(2.00558 0.18302 -1.5158e-18)
(1.82373 0.145835 -1.49051e-19)
(1.69435 0.118251 -5.54861e-19)
(1.58384 0.0968595 5.09884e-19)
(1.50782 0.0807817 3.46454e-19)
(1.43939 0.0679153 9.97355e-20)
(1.39252 0.0579814 2.33177e-19)
(1.34746 0.049822 -2.25578e-19)
(1.31682 0.043338 3.62709e-19)
(1.28543 0.0379555 2.70374e-19)
(1.26417 0.0334994 7.05533e-19)
(1.24116 0.0298523 4.46775e-19)
(1.22543 0.026617 7.62523e-19)
(1.20777 0.024108 9.12604e-19)
(1.19524 0.0216081 1.3753e-18)
(1.18111 0.0198767 5.7042e-19)
(1.17031 0.017812 5.09066e-19)
(1.15856 0.0166381 1.5227e-19)
(1.14715 0.0146949 6.77053e-19)
(1.16253 0.0164723 5.30007e-21)
(1.97383 0.301545 -1.46249e-18)
(1.79843 0.240268 -4.13483e-19)
(1.67384 0.194814 -1.12188e-18)
(1.56704 0.159565 -1.26289e-18)
(1.49381 0.133075 -3.03195e-19)
(1.42761 0.111875 1.2552e-20)
(1.38246 0.0955096 -1.35539e-18)
(1.33882 0.0820665 2.12959e-18)
(1.30931 0.0713863 2.6826e-18)
(1.27885 0.0625184 1.71297e-18)
(1.25836 0.0551795 1.88398e-18)
(1.23599 0.0491709 1.68276e-18)
(1.22081 0.0438432 5.20478e-19)
(1.20359 0.0397097 9.76287e-19)
(1.1915 0.0355939 2.66428e-18)
(1.17766 0.0327415 2.79655e-18)
(1.16722 0.0293429 4.35549e-18)
(1.15568 0.027409 1.66435e-18)
(1.14461 0.0242107 2.179e-18)
(1.15967 0.0271389 -1.40768e-18)
(1.92688 0.414912 -2.87629e-18)
(1.76102 0.33059 -1.39554e-18)
(1.64351 0.268045 -1.30813e-18)
(1.5422 0.219541 -1.24739e-18)
(1.47309 0.183091 -1.87381e-18)
(1.41019 0.15392 2.60244e-18)
(1.3676 0.131403 9.9754e-19)
(1.32605 0.112905 1.35301e-18)
(1.2982 0.0982111 3.92325e-18)
(1.26912 0.0860091 7.93346e-20)
(1.24977 0.0759128 3.83817e-19)
(1.22834 0.0676451 3.44449e-18)
(1.21399 0.0603164 -1.49053e-18)
(1.19741 0.054629 1.65237e-19)
(1.18596 0.048968 -1.00896e-18)
(1.17257 0.0450436 1.87194e-18)
(1.16265 0.0403698 1.99167e-18)
(1.15141 0.0377095 -1.75704e-18)
(1.14084 0.0333116 -2.8944e-18)
(1.15545 0.0373413 6.08303e-19)
(1.86553 0.52118 -5.14147e-18)
(1.71215 0.415257 -2.587e-18)
(1.60389 0.33669 -2.32232e-18)
(1.50974 0.275761 -2.76713e-18)
(1.44603 0.229975 -6.20568e-18)
(1.38744 0.193332 -3.5475e-18)
(1.34817 0.165049 -1.69701e-18)
(1.30936 0.141814 -4.02611e-18)
(1.28368 0.123357 -2.98624e-18)
(1.2564 0.108031 -2.30411e-18)
(1.23855 0.0953498 -3.3959e-19)
(1.21834 0.084965 3.7657e-18)
(1.20507 0.0757604 2.1833e-19)
(1.18934 0.0686167 -2.7383e-18)
(1.17872 0.061507 3.97149e-18)
(1.16591 0.0565778 -9.27502e-18)
(1.15669 0.0507082 4.14613e-18)
(1.14584 0.0473669 -4.25338e-18)
(1.13592 0.0418439 3.60427e-18)
(1.14993 0.0469056 1.33144e-18)
(1.79084 0.618532 -7.3517e-18)
(1.65264 0.49282 -4.69938e-18)
(1.55564 0.399575 -4.14302e-18)
(1.47022 0.327263 9.35852e-18)
(1.41307 0.272924 -9.91465e-19)
(1.35974 0.229436 1.53702e-18)
(1.32452 0.19587 -1.09551e-17)
(1.28904 0.168295 -1.82714e-19)
(1.266 0.146392 -1.28806e-18)
(1.24093 0.128202 8.19914e-18)
(1.22489 0.113153 -3.30722e-18)
(1.20617 0.100829 2.05156e-18)
(1.19422 0.089906 -1.26634e-19)
(1.17951 0.0814281 8.85995e-18)
(1.16991 0.0729917 3.94265e-20)
(1.1578 0.0671422 -5.17653e-19)
(1.14942 0.0601778 3.21711e-19)
(1.13905 0.0562128 -4.49608e-19)
(1.12992 0.04966 -1.19364e-18)
(1.14321 0.0556677 8.109e-18)
(1.70408 0.705302 3.12005e-18)
(1.58351 0.561951 8.03817e-18)
(1.49959 0.455623 5.40512e-18)
(1.42432 0.373166 -1.36821e-18)
(1.37479 0.311205 -1.1318e-18)
(1.32756 0.261616 2.06144e-18)
(1.29705 0.223341 4.14636e-18)
(1.26543 0.191898 4.93771e-18)
(1.24547 0.166923 -7.03754e-18)
(1.22295 0.146182 5.06208e-18)
(1.20902 0.129023 -4.92701e-19)
(1.19203 0.11497 1.04177e-17)
(1.18161 0.102516 -1.57317e-18)
(1.16809 0.092849 1.67543e-17)
(1.15967 0.0832298 4.45477e-18)
(1.14839 0.0765601 -1.88769e-18)
(1.14098 0.0686195 9.3925e-19)
(1.13117 0.0640987 6.6105e-18)
(1.12296 0.0566276 -9.68393e-18)
(1.1354 0.063478 6.67499e-18)
(1.60674 0.780004 -1.08748e-18)
(1.50595 0.621468 1.99602e-17)
(1.43671 0.503877 -7.59758e-19)
(1.37282 0.412685 -3.37623e-18)
(1.33184 0.344161 1.07393e-17)
(1.29145 0.289319 3.58406e-18)
(1.26623 0.246991 -1.398e-18)
(1.23895 0.212217 -2.1713e-18)
(1.22244 0.184597 -1.81707e-17)
(1.20278 0.16166 9.42438e-19)
(1.19122 0.142684 -9.26347e-18)
(1.17616 0.127143 1.29447e-18)
(1.16747 0.11337 -2.16126e-17)
(1.15528 0.10268 6.90897e-18)
(1.14819 0.0920427 -1.12029e-17)
(1.13782 0.0846669 -1.59821e-17)
(1.13152 0.0758866 9.25334e-18)
(1.12233 0.0708874 -2.84042e-17)
(1.11515 0.0626264 1.44182e-18)
(1.12665 0.0702028 -2.3817e-17)
(1.50047 0.84136 -4.90671e-18)
(1.42129 0.670352 1.29965e-18)
(1.36807 0.543509 2.36439e-18)
(1.3166 0.445144 -2.65545e-18)
(1.28496 0.371229 -9.68133e-18)
(1.25204 0.312073 8.06015e-18)
(1.23259 0.266416 -6.9813e-18)
(1.21005 0.228907 -3.11591e-18)
(1.19729 0.199115 -3.53005e-18)
(1.18076 0.174373 -1.84445e-17)
(1.17179 0.153906 1.21896e-17)
(1.15885 0.137142 2.09574e-17)
(1.15203 0.122287 -1.87789e-17)
(1.1413 0.110756 9.66119e-18)
(1.13565 0.0992827 1.62398e-18)
(1.12629 0.0913272 1.1495e-17)
(1.12118 0.0818567 -1.30929e-17)
(1.11267 0.0764647 -1.21053e-17)
(1.10662 0.0675546 1.73185e-17)
(1.11709 0.075727 -1.10734e-17)
(1.38711 0.888321 -1.08543e-17)
(1.33097 0.707766 -7.476e-19)
(1.29484 0.573843 -1.57135e-18)
(1.25663 0.469986 -3.80203e-18)
(1.23494 0.391945 -4.56778e-18)
(1.21 0.329487 -9.11719e-18)
(1.19669 0.281282 -1.65167e-18)
(1.17921 0.241679 -1.25407e-17)
(1.17047 0.210225 6.26244e-18)
(1.15727 0.184103 1.00408e-17)
(1.15105 0.162493 2.82587e-18)
(1.14037 0.144794 9.89132e-18)
(1.13555 0.129111 8.40038e-18)
(1.12638 0.116936 -7.17583e-18)
(1.12228 0.104823 1.67359e-17)
(1.11399 0.0964242 -1.58571e-17)
(1.11016 0.0864261 3.38166e-17)
(1.10237 0.0807336 1.98912e-18)
(1.09752 0.0713274 1.47631e-17)
(1.10689 0.0799563 -9.9746e-18)
(1.26859 0.920083 1.34483e-17)
(1.23654 0.733071 -1.48721e-19)
(1.21828 0.594358 -4.4484e-18)
(1.19392 0.486787 5.01696e-18)
(1.18265 0.405956 -2.05013e-17)
(1.16604 0.341265 2.53318e-17)
(1.15917 0.291336 1.01964e-17)
(1.14697 0.250318 9.15071e-18)
(1.14242 0.21774 1.92087e-18)
(1.13271 0.190684 2.61413e-17)
(1.12938 0.168302 -1.90817e-18)
(1.12106 0.149971 -2.54592e-17)
(1.11833 0.133727 8.04376e-20)
(1.11078 0.121118 1.62888e-17)
(1.1083 0.108572 1.09634e-18)
(1.10113 0.0998731 -4.10189e-18)
(1.09863 0.089518 -1.91106e-17)
(1.09161 0.0836224 -1.50556e-18)
(1.08801 0.0738805 -1.29896e-17)
(1.09622 0.0828181 5.63052e-17)
(1.14693 0.936101 1.51782e-17)
(1.13961 0.745832 1.39406e-17)
(1.13969 0.604704 1.6676e-18)
(1.12956 0.49526 -4.7314e-18)
(1.12898 0.413021 1.70956e-17)
(1.12092 0.347204 5.7205e-18)
(1.12065 0.296406 -6.28234e-18)
(1.11387 0.254674 5.92276e-18)
(1.11364 0.221529 -1.95933e-17)
(1.1075 0.194002 -1.76409e-17)
(1.10713 0.171232 -3.18149e-18)
(1.10123 0.152582 -4.0456e-18)
(1.10065 0.136055 -3.54935e-18)
(1.09477 0.123227 -4.50076e-17)
(1.09395 0.110463 1.94122e-17)
(1.08793 0.101613 -9.0451e-20)
(1.0868 0.0910785 7.39858e-19)
(1.08055 0.0850806 1.72802e-18)
(1.07824 0.0751701 1.41204e-17)
(1.08528 0.0842638 -3.27316e-17)
(1.02422 0.936103 6.22309e-18)
(1.04185 0.745833 1.42067e-17)
(1.06043 0.604704 4.81148e-18)
(1.06465 0.495259 -1.19413e-17)
(1.07484 0.413021 2.83315e-17)
(1.07541 0.347203 4.30749e-18)
(1.0818 0.296405 6.00788e-18)
(1.08049 0.254673 -5.2436e-18)
(1.0846 0.221529 -1.58128e-17)
(1.08207 0.194003 -2.04903e-17)
(1.08469 0.171233 -2.93879e-18)
(1.08124 0.152583 -2.53896e-18)
(1.08282 0.136057 2.03289e-18)
(1.07862 0.123229 -1.79713e-18)
(1.07947 0.110466 -2.22064e-17)
(1.07461 0.101616 1.48147e-19)
(1.07486 0.0910815 -2.39753e-18)
(1.06941 0.0850841 -8.63246e-19)
(1.0684 0.075174 -1.78922e-17)
(1.07423 0.0842681 -1.311e-18)
(0.902562 0.920087 1.499e-17)
(0.944918 0.733072 -1.70264e-17)
(0.98184 0.594357 1.19272e-17)
(1.00028 0.486785 8.4383e-18)
(1.02117 0.405953 -5.60191e-18)
(1.03029 0.341262 3.5615e-18)
(1.04328 0.291333 -4.69755e-18)
(1.0474 0.250316 3.00081e-17)
(1.05582 0.217739 4.1691e-17)
(1.05686 0.190684 -3.62805e-18)
(1.06244 0.168304 -1.62234e-17)
(1.06141 0.149974 -1.69695e-17)
(1.06515 0.133731 6.07557e-18)
(1.06261 0.121122 2.36973e-17)
(1.06512 0.108578 1.12695e-18)
(1.06141 0.0998801 1.03431e-18)
(1.06303 0.0895267 -2.30011e-17)
(1.05835 0.0836322 2.81202e-18)
(1.05863 0.0738925 1.50164e-17)
(1.06329 0.0828314 -3.26591e-17)
(0.784034 0.888328 -1.01333e-17)
(0.850484 0.707769 -5.74661e-18)
(0.905276 0.573841 1.53079e-17)
(0.937579 0.469982 1.49793e-18)
(0.968876 0.39194 -1.03362e-17)
(0.986335 0.329482 -2.81246e-17)
(1.00575 0.281277 -2.7313e-18)
(1.01516 0.241676 -1.47008e-17)
(1.02777 0.210224 3.10488e-17)
(1.0323 0.184104 -1.03777e-17)
(1.04076 0.162496 2.00766e-18)
(1.0421 0.1448 -2.91353e-18)
(1.04792 0.129117 3.29734e-17)
(1.04701 0.116945 -1.11496e-17)
(1.05113 0.104834 2.73595e-17)
(1.04855 0.0964363 3.06142e-17)
(1.0515 0.0864406 2.20256e-17)
(1.04758 0.08075 2.5325e-17)
(1.04911 0.071347 -1.93202e-17)
(1.05262 0.0799779 5.80295e-17)
(0.670665 0.841369 -2.38554e-18)
(0.76016 0.670355 -1.29017e-17)
(0.832045 0.543506 2.05552e-17)
(0.877602 0.445137 2.39798e-18)
(0.918859 0.371221 -3.34945e-18)
(0.944289 0.312065 -2.32529e-17)
(0.96986 0.266408 1.01753e-17)
(0.984318 0.228901 -1.28482e-18)
(1.00095 0.199112 7.68118e-18)
(1.00881 0.174374 -7.84745e-18)
(1.02003 0.153909 1.4921e-17)
(1.02362 0.137148 -3.94495e-17)
(1.03145 0.122296 2.0776e-18)
(1.03209 0.110767 -1.01959e-17)
(1.03776 0.0992964 -3.8072e-17)
(1.03625 0.0913431 2.14039e-17)
(1.04047 0.0818763 -2.81207e-17)
(1.03728 0.0764868 2.12417e-17)
(1.04001 0.0675816 -2.73493e-17)
(1.04242 0.0757567 -1.76555e-17)
(0.564395 0.780014 6.59083e-18)
(0.675492 0.621471 2.47746e-17)
(0.763399 0.503873 -9.66126e-18)
(0.821382 0.412677 5.77345e-18)
(0.871975 0.344151 2.836e-17)
(0.904877 0.289309 -3.3785e-18)
(0.936214 0.246982 1.15352e-18)
(0.95541 0.212211 -5.19155e-18)
(0.9758 0.184594 -4.3523e-17)
(0.986792 0.161661 2.35239e-17)
(1.00059 0.142689 1.66173e-17)
(1.0063 0.127151 -3.88884e-17)
(1.01601 0.113382 -1.09704e-18)
(1.01811 0.102694 -4.83523e-17)
(1.02522 0.0920604 1.00543e-17)
(1.02471 0.0846876 -2.7116e-17)
(1.03014 0.0759114 -2.73486e-17)
(1.02763 0.0709154 4.2566e-18)
(1.03148 0.06266 -2.53051e-18)
(1.03285 0.0702397 4.71456e-18)
(0.467042 0.705311 1.23127e-17)
(0.597927 0.561954 3.28595e-18)
(0.700513 0.455617 6.36913e-18)
(0.769878 0.373156 -1.24615e-17)
(0.829024 0.311193 1.14106e-17)
(0.868772 0.261604 -3.08148e-18)
(0.905391 0.22333 -7.65776e-19)
(0.928928 0.19189 3.63555e-18)
(0.952764 0.166919 2.95538e-17)
(0.966619 0.146183 -5.99956e-18)
(0.982786 0.129028 3.58487e-18)
(0.990437 0.114979 1.70714e-17)
(1.00186 0.102529 3.7558e-17)
(1.00529 0.0928655 1.05698e-18)
(1.01374 0.0832502 1.68464e-17)
(1.01415 0.0765839 4.17579e-18)
(1.02067 0.0686485 1.54468e-18)
(1.01878 0.0641313 2.60548e-17)
(1.02366 0.0566671 -4.35059e-17)
(1.02409 0.0635217 4.14224e-17)
(0.380272 0.618541 -1.99478e-17)
(0.528795 0.492821 -2.00276e-17)
(0.644463 0.399567 -1.46332e-17)
(0.723974 0.32725 1.9534e-17)
(0.790743 0.27291 -2.77691e-19)
(0.836592 0.229422 -1.13227e-17)
(0.87792 0.195857 -1.61017e-17)
(0.905324 0.168286 -3.93068e-19)
(0.932233 0.146387 2.25356e-17)
(0.948639 0.128204 -2.80223e-18)
(0.966917 0.11316 -7.88453e-18)
(0.976296 0.10084 -3.16032e-18)
(0.98925 0.089922 1.5779e-18)
(0.993873 0.0814479 8.94485e-18)
(1.0035 0.0730158 -3.04254e-17)
(1.00473 0.06717 -1.02084e-18)
(1.01222 0.0602112 -2.59935e-17)
(1.01089 0.0562503 7.60096e-18)
(1.0167 0.0497047 4.42971e-17)
(1.01628 0.055717 -1.84187e-17)
(0.305571 0.521187 -6.84557e-18)
(0.469278 0.415257 -8.48205e-18)
(0.596208 0.336679 -7.10756e-18)
(0.684453 0.275746 -1.34422e-17)
(0.757785 0.229959 -1.71728e-17)
(0.808886 0.193316 -1.12264e-17)
(0.854268 0.165034 1.35996e-17)
(0.885003 0.141804 -1.05539e-17)
(0.914556 0.123352 -1.56728e-17)
(0.933159 0.108032 -1.1896e-17)
(0.953253 0.0953566 1.71579e-17)
(0.964121 0.0849773 -1.11104e-17)
(0.978393 0.0757776 -3.98502e-19)
(0.98404 0.068638 -1.48187e-17)
(0.994684 0.0615331 1.2808e-17)
(0.996623 0.0566079 3.77023e-18)
(1.00496 0.0507446 -1.23034e-17)
(1.0041 0.0474076 1.36509e-17)
(1.0107 0.0418929 -1.35535e-17)
(1.00956 0.04696 -4.57563e-20)
(0.244215 0.414915 -2.23082e-18)
(0.420393 0.330586 -3.59266e-18)
(0.556574 0.268031 -2.57317e-18)
(0.651993 0.219523 -5.62112e-18)
(0.730716 0.183072 -2.5923e-18)
(0.786131 0.153902 1.98318e-17)
(0.834842 0.131387 4.96524e-18)
(0.868312 0.112895 1.88978e-17)
(0.900038 0.0982062 6.13455e-18)
(0.920445 0.0860118 -1.21847e-18)
(0.942031 0.0759216 2.181e-19)
(0.954121 0.0676601 -1.01567e-17)
(0.969476 0.0603365 7.96725e-18)
(0.975963 0.0546536 -4.00099e-18)
(0.987444 0.0489975 -3.73836e-17)
(0.989963 0.0450773 1.60492e-17)
(0.998985 0.0404099 5.76509e-18)
(0.998526 0.037754 1.7396e-18)
(1.00577 0.0333642 7.11246e-19)
(1.00403 0.0373996 1.251e-17)