/*--------------------------------*- C++ -*----------------------------------*\
| =========                 |                                                 |
| \\      /  F ield         | foam-extend: Open Source CFD                    |
|  \\    /   O peration     | Version:  3.0                                   |
|   \\  /    A nd           | Web:         http://www.extend-project.de       |
|    \\/     M anipulation  |                                                 |
\*---------------------------------------------------------------------------*/
FoamFile
{
    version     2.0;
    format      ascii;
    class       volVectorField;
    location    "69";
    object      u;
}
// * * * * * * * * * * * * * * * * * * * * * * * * * * * * * * * * * * * * * //

dimensions      [0 0 0 0 0 0 0];

internalField   nonuniform List<vector> 
7680
(
(0.138997 -0.0205267 4.7224e-17)
(0.132954 -0.0142243 6.32909e-17)
(0.3507 -0.011057 -6.54593e-17)
(0.325308 -0.00604013 5.56279e-17)
(0.501082 -0.00432032 -4.50707e-17)
(0.467867 7.57372e-05 3.61563e-17)
(0.611599 0.00121673 -2.56072e-17)
(0.575614 0.00498001 -3.75572e-19)
(0.695208 0.00591176 -3.27847e-17)
(0.658428 0.00911862 -5.47936e-18)
(0.759952 0.0100143 -3.97845e-17)
(0.723012 0.012758 4.39758e-17)
(0.811024 0.0136982 -5.65219e-17)
(0.774021 0.0160731 5.10962e-17)
(0.851914 0.0170969 -3.0463e-17)
(0.814738 0.0191916 6.38163e-17)
(0.885046 0.0203194 -5.11175e-17)
(0.847517 0.0222064 8.50443e-17)
(0.912164 0.023443 -6.26019e-17)
(0.874074 0.0251723 7.91075e-17)
(0.934555 0.0265051 -7.23006e-17)
(0.895679 0.0281078 8.13455e-17)
(0.953177 0.0295104 -6.58759e-17)
(0.913279 0.0310183 8.60858e-17)
(0.968746 0.0324574 -6.12883e-17)
(0.927587 0.0339385 6.35042e-17)
(0.981804 0.0353384 -3.38137e-17)
(0.939172 0.0369449 4.43575e-17)
(0.992749 0.0380669 -2.94171e-17)
(0.948515 0.0401348 2.56384e-17)
(1.00182 0.040445 -1.54786e-17)
(0.956084 0.0435969 1.60635e-17)
(1.00909 0.0423601 -4.37438e-18)
(0.962388 0.0472303 4.35755e-18)
(1.01448 0.0440411 2.09871e-17)
(0.968053 0.0505975 -1.30881e-17)
(1.01735 0.0464635 3.82283e-17)
(0.97477 0.0519581 -2.7725e-17)
(1.01564 0.0505181 3.81315e-17)
(0.98408 0.0862301 -2.11032e-17)
(0.142776 -0.084379 -3.25576e-17)
(0.136169 -0.0708543 -6.97244e-17)
(0.353667 -0.0633819 9.09999e-17)
(0.327675 -0.0502409 -5.38078e-17)
(0.50346 -0.0465908 2.66325e-17)
(0.469737 -0.0350821 -3.24654e-18)
(0.613577 -0.0331835 2.95667e-17)
(0.577163 -0.0235072 3.43272e-17)
(0.696881 -0.0222971 5.44068e-17)
(0.659724 -0.0143001 5.28183e-17)
(0.761372 -0.013279 2.83797e-17)
(0.724092 -0.0067054 -1.22511e-17)
(0.812228 -0.00566042 3.03069e-17)
(0.774917 -0.000233891 -2.32653e-17)
(0.852929 0.000929241 -2.07385e-17)
(0.815476 0.00545822 -5.95407e-17)
(0.885889 0.00678275 5.41158e-17)
(0.848112 0.0106095 -1.19829e-16)
(0.912835 0.0121163 9.35388e-17)
(0.874523 0.01538 -1.14955e-16)
(0.935028 0.0170741 7.91356e-17)
(0.895956 0.0198622 -9.75078e-17)
(0.953404 0.0217349 5.73291e-17)
(0.913344 0.0241092 -1.04298e-16)
(0.968668 0.0261457 3.97258e-17)
(0.927397 0.0281937 -5.55302e-17)
(0.981352 0.0303364 -1.23203e-17)
(0.938669 0.0322531 -2.34625e-17)
(0.991832 0.0342404 -2.62822e-17)
(0.947612 0.0364942 9.80405e-18)
(1.00033 0.0375904 -2.67247e-17)
(0.95465 0.0412044 1.6148e-17)
(1.00696 0.0400461 -2.05009e-17)
(0.960235 0.0467107 2.09064e-18)
(1.01177 0.0414209 -2.36742e-17)
(0.965069 0.0535549 -4.572e-18)
(1.01448 0.0413331 3.88558e-19)
(0.970948 0.0617518 -3.29253e-18)
(1.01494 0.038213 -1.46298e-17)
(0.975441 0.100249 1.80862e-17)
(0.150726 -0.147793 7.14296e-18)
(0.142822 -0.123554 5.21983e-17)
(0.359601 -0.112084 -1.68659e-16)
(0.33254 -0.0908449 1.16048e-16)
(0.507874 -0.0856077 -8.03395e-17)
(0.473249 -0.0672864 1.08473e-17)
(0.616786 -0.0648764 -1.01657e-16)
(0.579634 -0.0496075 3.89296e-18)
(0.699113 -0.0482944 -1.23546e-16)
(0.661376 -0.0358169 -5.64119e-17)
(0.762812 -0.0347809 -6.12707e-17)
(0.725092 -0.0246764 2.17462e-17)
(0.813024 -0.023561 -3.17613e-17)
(0.775381 -0.0153883 2.10873e-17)
(0.853194 -0.0140444 5.61211e-17)
(0.815493 -0.00741194 8.57039e-17)
(0.885716 -0.00577396 -5.98973e-17)
(0.847754 -0.000374499 1.64188e-16)
(0.912307 0.00158741 -1.44676e-16)
(0.873853 0.00598087 1.49039e-16)
(0.934225 0.00827527 -1.02444e-16)
(0.89504 0.011824 1.55193e-16)
(0.95241 0.0144418 -1.06994e-16)
(0.912247 0.0172729 1.73188e-16)
(0.967565 0.020189 -6.47145e-17)
(0.926173 0.0224546 1.25473e-16)
(0.980213 0.0255801 -1.94763e-17)
(0.937348 0.0275499 7.42887e-17)
(0.990727 0.0305662 1.35527e-17)
(0.94621 0.0327848 1.57682e-17)
(0.999342 0.0349276 9.97153e-18)
(0.953162 0.0383486 1.70634e-17)
(1.00613 0.0384667 1.46955e-17)
(0.958654 0.0441818 3.1073e-18)
(1.01086 0.0410625 2.46495e-17)
(0.963567 0.050216 -1.56065e-17)
(1.01221 0.0423563 3.26313e-17)
(0.97083 0.0547093 -2.33917e-17)
(1.00785 0.0462525 3.80572e-17)
(0.977442 0.0857916 -2.09442e-17)
(0.162844 -0.210631 5.0269e-17)
(0.153261 -0.179268 -7.93482e-17)
(0.369293 -0.163556 3.42759e-16)
(0.340564 -0.134301 -2.3452e-16)
(0.515683 -0.127159 1.46684e-16)
(0.479606 -0.101847 1.40811e-17)
(0.623156 -0.0986812 1.33603e-16)
(0.584783 -0.0776032 1.36759e-17)
(0.704364 -0.0760113 8.15773e-17)
(0.66562 -0.0588318 4.59731e-17)
(0.767181 -0.0576704 1.23255e-16)
(0.72863 -0.0438054 -5.95183e-17)
(0.81668 -0.0425811 3.75577e-17)
(0.778349 -0.0314118 -3.02445e-17)
(0.856256 -0.0299216 -6.68419e-17)
(0.817981 -0.0209039 -4.69787e-17)
(0.888265 -0.0190592 2.17533e-17)
(0.849822 -0.0117681 -1.7555e-16)
(0.914394 -0.00952203 1.82768e-16)
(0.875541 -0.00364867 -1.83252e-16)
(0.935878 -0.00097429 1.06066e-16)
(0.896369 0.00369315 -1.6535e-16)
(0.953643 0.00680805 8.45742e-17)
(0.913223 0.0104239 -1.15412e-16)
(0.968382 0.0139813 -2.82151e-17)
(0.926791 0.0167118 -6.44517e-17)
(0.980621 0.0206508 -6.9691e-17)
(0.937587 0.0227908 -4.03259e-18)
(0.990755 0.0267849 -1.0033e-16)
(0.946013 0.028988 4.59588e-17)
(0.99908 0.032107 -6.00391e-17)
(0.952403 0.035734 1.92835e-17)
(1.00576 0.0362089 -9.53088e-17)
(0.957061 0.0436307 1.21944e-16)
(1.01074 0.0383791 -1.15008e-16)
(0.960532 0.0544854 4.70707e-17)
(1.01318 0.0359787 5.53948e-18)
(0.965133 0.0691706 -4.08075e-17)
(1.01122 0.0311294 2.50846e-17)
(0.9687 0.0982769 -7.2418e-17)
(0.17899 -0.272358 -1.14763e-16)
(0.166866 -0.230576 -2.58921e-17)
(0.381637 -0.210992 -5.27316e-16)
(0.350808 -0.173882 3.30996e-16)
(0.525257 -0.165212 -1.95113e-16)
(0.487397 -0.133271 -6.12971e-17)
(0.630571 -0.129622 -2.11773e-16)
(0.590738 -0.1031 4.35312e-17)
(0.710065 -0.101421 -7.74323e-17)
(0.670157 -0.0798808 -1.46207e-17)
(0.771505 -0.0787146 -1.49626e-16)
(0.732044 -0.061415 4.45167e-17)
(0.819887 -0.0601301 2.55975e-17)
(0.780851 -0.0462907 -6.82547e-18)
(0.858548 -0.044632 1.12624e-16)
(0.819734 -0.03357 -5.21681e-17)
(0.889806 -0.0314288 6.61213e-17)
(0.850953 -0.0226086 5.16913e-17)
(0.915317 -0.0199292 -6.20248e-17)
(0.876154 -0.0129542 8.24522e-17)
(0.936295 -0.00970568 -1.19988e-17)
(0.89655 -0.00429206 1.75212e-16)
(0.953649 -0.000460237 -9.01344e-17)
(0.913045 0.0036081 1.00096e-16)
(0.968057 0.0080204 4.76542e-17)
(0.926299 0.0109632 9.54118e-17)
(0.980028 0.0158794 2.44629e-17)
(0.936791 0.0180357 3.71377e-17)
(0.989964 0.0231166 1.25238e-16)
(0.944866 0.0251392 -2.53872e-17)
(0.998195 0.0295334 7.19644e-17)
(0.950766 0.0325686 1.22347e-17)
(1.00499 0.03492 2.74956e-18)
(0.954672 0.040481 1.48929e-17)
(1.01067 0.0387606 4.57667e-17)
(0.956763 0.049871 -4.29204e-17)
(1.01579 0.038981 3.72034e-17)
(0.95793 0.0593149 -3.98398e-17)
(1.02012 0.043442 5.60708e-17)
(0.954753 0.0800372 5.61818e-17)
(0.199194 -0.333109 2.0593e-16)
(0.184358 -0.284437 2.03986e-16)
(0.397848 -0.260744 5.90763e-16)
(0.364321 -0.215869 -2.1627e-16)
(0.538315 -0.205349 1.7981e-16)
(0.498111 -0.166655 1.10337e-16)
(0.641201 -0.162267 2.63676e-16)
(0.59941 -0.130138 -8.27746e-17)
(0.718801 -0.12818 4.38474e-17)
(0.677291 -0.102102 -5.30394e-18)
(0.778741 -0.100806 2.96447e-16)
(0.737979 -0.0798768 -1.50384e-16)
(0.825914 -0.0784778 1.16796e-16)
(0.785822 -0.061748 -1.58091e-16)
(0.86358 -0.0599375 -1.61599e-17)
(0.823903 -0.0465788 -1.18495e-16)
(0.893993 -0.0442239 1.56806e-16)
(0.854439 -0.0335897 -1.68865e-16)
(0.918769 -0.0306172 1.49921e-16)
(0.879041 -0.0222354 -1.00177e-16)
(0.939092 -0.0185948 2.43439e-17)
(0.8989 -0.0121352 -1.7141e-16)
(0.955855 -0.00778697 3.03325e-17)
(0.914906 -0.00301113 1.84151e-17)
(0.969736 0.0020794 -1.69607e-16)
(0.92771 0.00539346 3.84537e-17)
(0.981263 0.0112035 -1.39088e-16)
(0.937776 0.01338 3.20151e-17)
(0.990884 0.0196332 -2.12946e-16)
(0.945414 0.0213249 4.49096e-17)
(0.999031 0.0271782 -2.10776e-16)
(0.950797 0.029675 1.06853e-16)
(1.00611 0.0335161 -1.80368e-16)
(0.953962 0.0389571 1.29358e-16)
(1.01257 0.037847 -2.18417e-16)
(0.954599 0.0508338 9.21614e-17)
(1.01918 0.0373106 -7.92636e-18)
(0.952705 0.0650078 -7.2437e-17)
(1.02485 0.036828 9.86878e-18)
(0.94766 0.0900311 -1.30336e-16)
(0.223256 -0.392091 -2.52448e-16)
(0.20466 -0.333467 -3.67372e-16)
(0.416384 -0.306095 -5.09566e-16)
(0.379752 -0.253737 2.52454e-17)
(0.552877 -0.241774 -1.81894e-16)
(0.510031 -0.196749 3.99869e-17)
(0.652684 -0.191915 -3.1487e-16)
(0.608723 -0.154587 1.68601e-16)
(0.727855 -0.15256 -2.346e-17)
(0.68461 -0.122319 -7.40764e-17)
(0.785854 -0.12103 -2.68483e-16)
(0.743728 -0.0968242 7.6504e-17)
(0.83146 -0.0953774 -9.67173e-18)
(0.790306 -0.076102 1.86176e-16)
(0.867847 -0.0741395 4.0278e-17)
(0.827353 -0.0588341 5.66154e-19)
(0.897209 -0.0562043 -3.31842e-17)
(0.857032 -0.0441161 -9.55521e-18)
(0.921112 -0.0407376 -5.91857e-17)
(0.880916 -0.0313114 -1.03311e-17)
(0.940702 -0.0271285 -1.92147e-17)
(0.900167 -0.0199697 7.49038e-17)
(0.956839 -0.0149372 3.01691e-17)
(0.915646 -0.00975844 -1.05974e-17)
(0.970172 -0.00383522 8.84324e-17)
(0.927974 -0.000388878 -4.12117e-17)
(0.981204 0.00641824 1.30672e-16)
(0.937578 0.00843936 -4.33645e-17)
(0.990384 0.0159157 2.50551e-16)
(0.944708 0.0170423 -3.93549e-17)
(0.998177 0.0245677 3.04939e-16)
(0.94944 0.025691 -7.72566e-17)
(1.00508 0.0323019 1.1928e-16)
(0.951666 0.0345013 -3.12318e-17)
(1.01181 0.0388084 1.6114e-16)
(0.950796 0.0443669 -9.2708e-17)
(1.02001 0.0422693 1.15145e-16)
(0.945728 0.0539237 -8.5414e-17)
(1.03036 0.0496078 2.04246e-16)
(0.932585 0.073177 9.65038e-18)
(0.251202 -0.449721 4.08241e-16)
(0.228908 -0.384566 2.90809e-16)
(0.438834 -0.353288 5.77317e-16)
(0.398516 -0.293553 2.56712e-16)
(0.570948 -0.279825 1.36525e-16)
(0.524911 -0.2284 -2.32241e-16)
(0.667382 -0.222855 3.0684e-16)
(0.620763 -0.180213 -2.51011e-16)
(0.739914 -0.177914 8.69826e-17)
(0.694503 -0.143371 -1.94684e-17)
(0.795821 -0.141951 3.26235e-16)
(0.751945 -0.114306 -2.91762e-16)
(0.839739 -0.112741 1.64481e-16)
(0.797177 -0.0907294 -3.6238e-16)
(0.87474 -0.0886128 7.05184e-17)
(0.833112 -0.0711353 -1.05247e-16)
(0.902938 -0.068291 1.30396e-16)
(0.861849 -0.0544923 -1.21723e-16)
(0.925839 -0.0508206 1.23494e-16)
(0.884919 -0.0400756 2.18884e-17)
(0.944554 -0.0355004 -3.64768e-17)
(0.903458 -0.0273712 1.00458e-17)
(0.959923 -0.0218203 -8.48053e-17)
(0.918309 -0.0160004 1.08641e-16)
(0.972589 -0.00938778 -1.22552e-16)
(0.930082 -0.00563782 4.82438e-17)
(0.983066 0.00210643 -1.66981e-16)
(0.939187 0.00403759 1.44814e-16)
(0.991829 0.0128337 -4.47952e-16)
(0.945836 0.0133605 8.69713e-17)
(0.999396 0.0227819 -3.34213e-16)
(0.950035 0.0226573 1.20079e-16)
(1.00633 0.0318687 -1.13897e-16)
(0.951592 0.0321896 4.17565e-17)
(1.01331 0.0396831 -1.54857e-16)
(0.949778 0.0428007 9.69637e-17)
(1.02183 0.0446491 -2.29759e-17)
(0.943048 0.0527015 -6.66254e-17)
(1.03247 0.0524607 3.44226e-17)
(0.927005 0.0755333 -3.21568e-16)
(0.28275 -0.504954 -4.65625e-16)
(0.255547 -0.430472 -3.65814e-16)
(0.463232 -0.395768 -5.83089e-16)
(0.418861 -0.329047 -6.7525e-16)
(0.590241 -0.313986 -2.39984e-16)
(0.540748 -0.256639 4.00656e-16)
(0.682729 -0.250693 -2.7789e-16)
(0.633269 -0.203189 3.09213e-16)
(0.752159 -0.200838 -1.3657e-17)
(0.704472 -0.162405 -1.27734e-16)
(0.805596 -0.161002 -1.47831e-16)
(0.759926 -0.130297 1.97898e-16)
(0.847525 -0.128698 -6.27267e-17)
(0.803564 -0.104311 2.14488e-16)
(0.880906 -0.102061 1.90074e-16)
(0.838198 -0.0827705 -1.66052e-16)
(0.90777 -0.0796764 1.98757e-16)
(0.865859 -0.0645276 -1.6379e-16)
(0.929556 -0.0604817 1.60786e-16)
(0.888026 -0.048774 -1.11001e-16)
(0.947324 -0.0436948 2.68663e-17)
(0.905794 -0.0349348 4.04933e-18)
(0.961867 -0.0287406 -2.68573e-17)
(0.919973 -0.0225874 -3.32899e-17)
(0.973791 -0.0151742 4.29714e-17)
(0.931144 -0.0113896 5.68213e-17)
(0.983575 -0.00264043 -4.46456e-17)
(0.93969 -0.00103849 2.82138e-16)
(0.991678 0.00909483 5.48094e-17)
(0.945803 0.00871734 1.91538e-16)
(0.998632 0.0201407 1.26646e-16)
(0.949452 0.0180442 -7.13222e-17)
(1.00505 0.0306627 1.38747e-16)
(0.950363 0.0269243 -1.25123e-16)
(1.01171 0.0408008 1.63187e-16)
(0.947677 0.0355393 -1.18309e-16)
(1.02024 0.0504334 1.39359e-16)
(0.939428 0.0411791 -2.06302e-16)
(1.03202 0.0656379 3.65967e-16)
(0.918146 0.0614989 -5.71681e-17)
(0.317965 -0.558476 7.7248e-16)
(0.286134 -0.477949 4.6163e-16)
(0.491531 -0.439611 7.04411e-16)
(0.442547 -0.36603 9.98029e-16)
(0.613009 -0.349317 4.36941e-16)
(0.55953 -0.28603 -3.66205e-16)
(0.701233 -0.279413 1.71033e-16)
(0.648458 -0.226979 -3.42347e-16)
(0.767322 -0.224365 -1.15377e-16)
(0.71694 -0.181939 3.5214e-16)
(0.818105 -0.180407 1.00454e-16)
(0.770268 -0.146508 -7.2686e-17)
(0.857894 -0.144793 1.53624e-16)
(0.812196 -0.117866 -2.81358e-16)
(0.88952 -0.115465 -4.5101e-17)
(0.845421 -0.0941609 8.70779e-17)
(0.914912 -0.0908593 -1.74892e-16)
(0.871894 -0.074127 6.52823e-17)
(0.935442 -0.0698 -1.33804e-16)
(0.893042 -0.0568736 1.48397e-16)
(0.952118 -0.0514198 -1.2522e-17)
(0.909924 -0.0417663 8.20894e-17)
(0.965707 -0.0350773 -2.169e-17)
(0.92333 -0.0283379 1.32564e-16)
(0.976793 -0.0202662 -2.35751e-16)
(0.933823 -0.016213 2.64435e-16)
(0.985844 -0.00656067 -2.34729e-16)
(0.941773 -0.00508399 2.3276e-17)
(0.993304 0.00635899 -3.65598e-16)
(0.947345 0.00528282 1.70382e-16)
(0.999681 0.0187047 -3.27182e-16)
(0.950461 0.0150331 2.74268e-16)
(1.00554 0.030696 -3.84507e-16)
(0.950812 0.0241662 3.94235e-16)
(1.01151 0.0424997 -3.96338e-16)
(0.947653 0.0325791 2.38317e-16)
(1.01878 0.0546648 -1.79271e-16)
(0.939406 0.0366567 2.9722e-17)
(1.0286 0.0728885 -3.15481e-17)
(0.916562 0.0585645 -3.84918e-16)
(0.356442 -0.609025 -1.17161e-15)
(0.318645 -0.519937 -7.43153e-16)
(0.521365 -0.478484 -6.83741e-16)
(0.467452 -0.398527 -1.16449e-15)
(0.636694 -0.380616 -5.36588e-16)
(0.579006 -0.311918 1.55667e-16)
(0.720173 -0.304952 -1.98192e-16)
(0.663936 -0.248076 4.43905e-16)
(0.782542 -0.24543 1.69766e-16)
(0.729384 -0.199453 -3.93085e-16)
(0.830369 -0.197948 -2.16359e-16)
(0.780341 -0.161261 -1.81848e-16)
(0.867783 -0.159523 -6.56653e-17)
(0.820374 -0.130435 -6.42225e-18)
(0.897476 -0.127919 1.22637e-16)
(0.852056 -0.104968 -1.8779e-16)
(0.921275 -0.101444 2.8327e-16)
(0.877253 -0.0834899 -1.7748e-16)
(0.940469 -0.0788248 3.65089e-16)
(0.897329 -0.0650352 -3.96276e-16)
(0.956003 -0.0591216 1.29789e-16)
(0.913296 -0.0489158 -1.86928e-16)
(0.968588 -0.0416353 2.20761e-17)
(0.925904 -0.0346292 -3.19006e-17)
(0.978762 -0.0258105 -8.27401e-17)
(0.935694 -0.0217894 1.33264e-16)
(0.98695 -0.0111742 -1.85545e-16)
(0.943023 -0.010108 3.74609e-16)
(0.993556 0.00266957 -9.59855e-17)
(0.948066 0.000579639 9.14474e-18)
(0.99906 0.0160625 1.15309e-16)
(0.950766 0.0103089 -3.48979e-17)
(1.00401 0.0294413 9.00228e-17)
(0.950813 0.018939 -6.89988e-17)
(1.00901 0.04342 1.32816e-16)
(0.947517 0.0258919 -7.22863e-17)
(1.01491 0.0598891 2.26678e-16)
(0.939579 0.0265805 -1.99004e-16)
(1.02296 0.0846798 3.65261e-16)
(0.914708 0.0472376 -4.50033e-18)
(0.398328 -0.657521 1.10075e-15)
(0.355042 -0.562996 7.74944e-16)
(0.555022 -0.518243 6.52784e-16)
(0.495645 -0.432064 1.06591e-15)
(0.663761 -0.412642 3.88462e-16)
(0.601359 -0.338565 3.43551e-16)
(0.742157 -0.330978 4.20983e-17)
(0.682003 -0.269638 -1.47769e-16)
(0.800538 -0.266744 -2.83864e-16)
(0.7442 -0.217151 4.64347e-16)
(0.845193 -0.21552 9.17695e-17)
(0.792613 -0.17594 5.26971e-16)
(0.880048 -0.17409 2.68536e-17)
(0.8306 -0.142701 2.1376e-16)
(0.907641 -0.140045 4.86566e-17)
(0.860598 -0.115268 2.68832e-16)
(0.929684 -0.111553 -3.12531e-16)
(0.884377 -0.092164 2.50421e-16)
(0.947381 -0.087243 -3.2812e-16)
(0.903239 -0.0723471 4.7755e-16)
(0.961616 -0.0660961 -1.73005e-16)
(0.918154 -0.055075 1.77911e-16)
(0.97306 -0.0473528 -2.16054e-17)
(0.929843 -0.039803 2.07267e-16)
(0.982218 -0.030404 -2.11827e-16)
(0.938826 -0.0261161 1.6647e-16)
(0.989478 -0.0147141 -1.67155e-16)
(0.94545 -0.0137256 -3.37007e-17)
(0.995195 0.000183369 -1.82052e-16)
(0.949893 -0.00250141 1.62121e-16)
(0.999766 0.0147222 -2.24612e-16)
(0.952107 0.00754416 4.80568e-17)
(1.00363 0.0294082 -1.05714e-16)
(0.95181 0.016238 2.39768e-16)
(1.0072 0.0449363 -4.1335e-16)
(0.948571 0.02273 2.39942e-16)
(1.01074 0.0638779 -2.50393e-16)
(0.941992 0.021637 9.65614e-17)
(1.01511 0.0919398 -2.38553e-16)
(0.917572 0.0429017 -2.52095e-16)
(0.443061 -0.702532 -6.07784e-16)
(0.392862 -0.600336 -5.5945e-16)
(0.589774 -0.552831 -6.69329e-16)
(0.524679 -0.460994 -7.74926e-16)
(0.691424 -0.440529 -6.09781e-16)
(0.624136 -0.361646 -5.32299e-16)
(0.76436 -0.353768 -1.00655e-16)
(0.700182 -0.288483 7.60863e-17)
(0.818464 -0.285576 -7.19761e-17)
(0.758898 -0.232832 -8.14951e-17)
(0.859728 -0.231238 -2.2244e-16)
(0.8046 -0.189186 -6.34487e-16)
(0.891862 -0.187327 -1.70196e-16)
(0.840425 -0.154025 -5.11453e-16)
(0.917244 -0.151274 -3.07244e-17)
(0.868663 -0.125046 -6.01449e-16)
(0.937463 -0.121137 4.65305e-16)
(0.890988 -0.100675 -5.93338e-16)
(0.953628 -0.0954553 4.79598e-16)
(0.908629 -0.0798082 -7.19123e-16)
(0.96655 -0.0731476 3.02847e-16)
(0.9225 -0.0616555 -2.75768e-16)
(0.976837 -0.0534051 3.90482e-17)
(0.933284 -0.0456436 -5.33956e-17)
(0.984939 -0.0355737 -3.20413e-17)
(0.941474 -0.0313445 2.79654e-16)
(0.991197 -0.0190762 -1.56477e-16)
(0.947414 -0.0184763 2.49803e-16)
(0.995905 -0.00337407 1.10708e-16)
(0.951311 -0.00694552 -5.44566e-17)
(0.999391 0.012079 2.21121e-16)
(0.953174 0.00317774 -5.1448e-17)
(1.00201 0.027951 1.01749e-16)
(0.952782 0.0116746 -1.86693e-16)
(1.00406 0.0452215 4.61689e-16)
(0.949892 0.0174268 -4.13583e-16)
(1.00527 0.0673612 4.42915e-16)
(0.944884 0.0143093 -3.48712e-16)
(1.00598 0.100176 4.48399e-16)
(0.920955 0.0349034 4.95574e-18)
(0.490905 -0.745169 5.01687e-16)
(0.434443 -0.638261 5.2939e-16)
(0.628209 -0.587847 5.89441e-16)
(0.55689 -0.490533 6.86145e-16)
(0.72232 -0.468723 7.55252e-16)
(0.649668 -0.385113 5.52172e-16)
(0.789439 -0.376676 1.67584e-16)
(0.720807 -0.307469 2.82795e-16)
(0.838976 -0.304333 9.33489e-17)
(0.775797 -0.248411 1.31883e-16)
(0.876604 -0.246699 2.26218e-16)
(0.818581 -0.202103 6.43855e-16)
(0.905802 -0.200141 4.53193e-16)
(0.852057 -0.164815 6.63487e-16)
(0.928775 -0.161939 4.96998e-17)
(0.878361 -0.134102 7.74283e-16)
(0.946979 -0.130029 -5.6616e-16)
(0.899061 -0.1083 8.10307e-16)
(0.961429 -0.102861 -3.78329e-16)
(0.915311 -0.0862331 6.0494e-16)
(0.972862 -0.0792883 -2.11672e-16)
(0.927977 -0.0670638 2.19095e-16)
(0.981837 -0.0584471 -1.31354e-16)
(0.937703 -0.050179 7.62288e-17)
(0.98876 -0.0396412 1.68294e-17)
(0.944962 -0.0351268 -3.50027e-16)
(0.993916 -0.0222458 2.42029e-16)
(0.950091 -0.0216198 -3.6614e-16)
(0.997538 -0.00567579 4.63444e-17)
(0.953319 -0.00958984 -2.43754e-16)
(0.999843 0.0106747 3.86126e-17)
(0.954713 0.000854978 -2.33582e-16)
(1.00105 0.0275204 8.56594e-17)
(0.954146 0.00947076 2.4187e-17)
(1.00129 0.0458988 -2.29583e-16)
(0.951679 0.0149991 3.10398e-16)
(0.99969 0.0696775 -3.11812e-16)
(0.948758 0.0108888 2.2144e-16)
(0.995898 0.104645 -1.80299e-16)
(0.92678 0.0317064 -2.41468e-16)
(0.541117 -0.783884 -9.67773e-16)
(0.476916 -0.670301 -3.25754e-16)
(0.667275 -0.617545 -7.55975e-16)
(0.589549 -0.515387 -5.32229e-16)
(0.753482 -0.492707 -7.75185e-16)
(0.67535 -0.404976 -4.81954e-16)
(0.814515 -0.396311 -4.49322e-16)
(0.74137 -0.323723 -1.91739e-16)
(0.859291 -0.320594 -7.04073e-16)
(0.792492 -0.261974 1.92005e-16)
(0.893149 -0.260308 -5.21029e-16)
(0.832268 -0.2136 -4.33384e-16)
(0.919328 -0.211639 -8.49108e-16)
(0.863349 -0.174682 -6.73644e-16)
(0.939849 -0.171732 -2.08134e-16)
(0.887707 -0.142661 -5.43391e-16)
(0.95603 -0.138424 5.19938e-16)
(0.906798 -0.115789 -8.27883e-16)
(0.968779 -0.110093 5.94293e-16)
(0.921698 -0.092836 -7.61663e-16)
(0.978753 -0.0855376 4.42877e-16)
(0.93321 -0.0729255 -3.86794e-16)
(0.986442 -0.0638524 2.81939e-16)
(0.941936 -0.0554192 -1.42002e-16)
(0.992193 -0.0443046 1.46678e-16)
(0.948318 -0.0398444 1.0339e-16)
(0.996242 -0.0262368 8.59328e-17)
(0.952692 -0.0259097 4.52176e-17)
(0.99875 -0.0090112 2.82153e-16)
(0.955313 -0.013546 -3.14878e-17)
(0.999846 0.0080503 2.82136e-16)
(0.956322 -0.00287051 -1.45437e-16)
(0.999634 0.0257564 3.36713e-16)
(0.955688 0.00588375 -2.70553e-16)
(0.998088 0.0452682 3.42579e-16)
(0.953702 0.0113895 -3.44048e-16)
(0.993832 0.0708251 2.87304e-16)
(0.952732 0.00677767 -3.02985e-16)
(0.985712 0.108323 1.9955e-16)
(0.932667 0.027296 -1.09082e-16)
(0.5941 -0.81993 1.15076e-15)
(0.522968 -0.702464 3.56323e-16)
(0.709828 -0.64724 6.31457e-16)
(0.625222 -0.540446 7.31516e-16)
(0.787672 -0.51661 5.88396e-16)
(0.703617 -0.424886 7.2226e-16)
(0.842253 -0.415732 3.18762e-16)
(0.764192 -0.339832 4.0927e-16)
(0.881961 -0.336497 6.02875e-16)
(0.811176 -0.275192 2.87148e-18)
(0.911782 -0.273418 3.25601e-16)
(0.847709 -0.224558 5.68088e-16)
(0.934698 -0.222508 8.15707e-16)
(0.876179 -0.183837 7.93874e-16)
(0.952541 -0.180782 2.584e-16)
(0.898387 -0.150347 3.30095e-16)
(0.966485 -0.145977 -5.08052e-16)
(0.915672 -0.122262 6.9821e-16)
(0.977328 -0.116396 -5.30008e-16)
(0.929028 -0.0982952 3.86015e-16)
(0.98565 -0.0907773 -6.40742e-17)
(0.9392 -0.0775228 6.87425e-17)
(0.991879 -0.0681739 5.3889e-17)
(0.946749 -0.0592723 -1.65104e-16)
(0.996315 -0.0478202 1.19276e-16)
(0.952091 -0.0430515 -4.24394e-16)
(0.999136 -0.0290272 2.26638e-16)
(0.955552 -0.0285539 -4.43393e-16)
(1.00043 -0.0111367 5.93939e-17)
(0.95742 -0.0157154 -2.99061e-16)
(1.00024 0.00654803 8.12504e-17)
(0.957904 -0.00466189 -2.40193e-16)
(0.998542 0.0248428 7.21864e-17)
(0.9571 0.0043722 -3.63942e-16)
(0.995147 0.0449005 2.11916e-16)
(0.955563 0.0100745 -8.47933e-17)
(0.98825 0.0709798 -7.83167e-17)
(0.956612 0.00556517 2.74376e-16)
(0.97581 0.109049 -2.00909e-16)
(0.939102 0.0261346 2.68126e-16)
(0.648926 -0.851697 -1.20883e-15)
(0.569359 -0.72864 -7.78034e-17)
(0.75253 -0.671525 -9.98929e-16)
(0.66094 -0.56078 -4.59871e-16)
(0.82179 -0.536263 -9.71651e-16)
(0.731757 -0.441175 -3.75778e-16)
(0.869765 -0.43186 -3.92557e-16)
(0.786779 -0.3532 -1.01906e-16)
(0.904307 -0.349892 -9.30082e-16)
(0.829571 -0.286387 3.34609e-16)
(0.930043 -0.284667 -4.81193e-16)
(0.862851 -0.234088 -4.7935e-16)
(0.94969 -0.23205 -7.07049e-16)
(0.888732 -0.192058 -9.32759e-16)
(0.964881 -0.188947 -2.7246e-16)
(0.908838 -0.157517 -3.18783e-16)
(0.976637 -0.153015 4.75432e-16)
(0.924387 -0.128575 -6.03449e-16)
(0.98564 -0.122496 4.24393e-16)
(0.936284 -0.103897 -4.04092e-16)
(0.992383 -0.0960855 2.98608e-16)
(0.945209 -0.0825318 -3.35477e-16)
(0.997226 -0.0728028 1.60068e-16)
(0.951676 -0.0637822 -1.20163e-16)
(1.0004 -0.0518545 2.88011e-16)
(0.956066 -0.0471333 -8.17553e-18)
(1.00204 -0.032532 2.46047e-16)
(0.958691 -0.0322594 4.38875e-17)
(1.00217 -0.0141503 4.31999e-16)
(0.959859 -0.0190732 -2.02994e-16)
(1.00074 0.00401785 5.32287e-16)
(0.959842 -0.00766934 -3.14521e-16)
(0.997603 0.0228145 5.12747e-16)
(0.958823 0.00176356 -1.65377e-16)
(0.99247 0.0433962 4.35475e-16)
(0.957547 0.00799841 -6.12029e-16)
(0.983182 0.0699384 5.83918e-16)
(0.960115 0.00425618 -6.13236e-16)
(0.966786 0.10855 3.20754e-16)
(0.944864 0.0246717 -3.02857e-16)
(0.706141 -0.880531 1.2396e-15)
(0.619094 -0.754517 4.205e-16)
(0.798474 -0.695415 5.91235e-16)
(0.699461 -0.580956 8.54576e-16)
(0.858688 -0.555491 9.8425e-16)
(0.76227 -0.457212 4.42028e-16)
(0.899684 -0.447487 1.10215e-16)
(0.811402 -0.36618 2.27576e-16)
(0.928745 -0.362694 6.95204e-16)
(0.849717 -0.297043 -2.13996e-16)
(0.950112 -0.295228 4.18376e-16)
(0.879486 -0.242929 4.84624e-16)
(0.966227 -0.240817 6.16192e-16)
(0.90254 -0.19945 6.47442e-16)
(0.978517 -0.19626 4.68466e-16)
(0.920318 -0.163733 1.89613e-16)
(0.98785 -0.159136 -2.56579e-16)
(0.933911 -0.133819 2.92745e-16)
(0.994795 -0.127624 -9.34915e-17)
(0.944138 -0.108331 8.13982e-17)
(0.999752 -0.100372 3.5323e-17)
(0.951615 -0.0862764 -9.1226e-17)
(1.00302 -0.0763668 2.53558e-16)
(0.956806 -0.0669267 -4.49067e-16)
(1.00478 -0.0547911 2.01957e-16)
(0.960064 -0.0497485 -4.89749e-16)
(1.0051 -0.0349183 9.11284e-17)
(0.961691 -0.0343993 -3.90264e-16)
(1.00397 -0.0160628 -1.56116e-17)
(0.962004 -0.0207737 -2.52261e-16)
(1.00126 0.00248661 -2.10797e-16)
(0.961341 -0.00895424 -7.22151e-18)
(0.99674 0.021543 -2.15881e-16)
(0.959997 0.00088624 -2.06257e-16)
(0.990007 0.0421854 -1.93812e-17)
(0.958871 0.00765451 2.79278e-16)
(0.978695 0.0682883 -2.27419e-16)
(0.962724 0.00488353 4.04553e-16)
(0.958922 0.106134 -3.35233e-16)
(0.949789 0.0250745 4.22192e-16)
(0.764636 -0.904819 -1.25234e-15)
(0.668598 -0.774365 -7.37076e-16)
(0.844069 -0.713854 -7.19507e-16)
(0.737618 -0.596405 -4.36482e-16)
(0.895166 -0.57046 -1.41923e-15)
(0.792378 -0.46963 -2.31828e-16)
(0.929147 -0.459814 -3.59235e-16)
(0.835615 -0.376416 -5.36892e-17)
(0.952726 -0.372975 -6.32662e-16)
(0.869484 -0.30566 1.58291e-16)
(0.96976 -0.303906 -1.79591e-16)
(0.895805 -0.25031 -7.00959e-16)
(0.982409 -0.248221 -3.0583e-16)
(0.916118 -0.205861 -5.6667e-16)
(0.99189 -0.202637 -2.03899e-16)
(0.931672 -0.169368 -2.91546e-16)
(0.998908 -0.164671 5.01505e-16)
(0.943429 -0.138823 -4.96477e-16)
(1.00391 -0.132459 4.69037e-16)
(0.952112 -0.112813 -5.6819e-16)
(1.0072 -0.104618 3.67758e-16)
(0.958269 -0.0903207 -2.23503e-16)
(1.009 -0.0801074 1.09327e-16)
(0.962316 -0.0706031 6.52978e-17)
(1.00944 -0.0580926 2.64399e-16)
(0.964562 -0.0531034 1.43715e-16)
(1.00855 -0.0378373 1.81175e-16)
(0.965282 -0.0374552 1.49454e-16)
(1.00623 -0.0186485 1.8945e-16)
(0.964798 -0.023517 1.78931e-16)
(1.00231 0.000178915 2.97223e-16)
(0.963466 -0.0113191 -6.87214e-17)
(0.996472 0.0194442 3.07422e-16)
(0.961645 -0.000976848 1.4096e-16)
(0.988246 0.0401586 2.21574e-16)
(0.960322 0.00659609 -5.26677e-16)
(0.975168 0.0658258 5.67222e-16)
(0.964737 0.00528876 -5.36889e-16)
(0.952469 0.102942 3.77232e-16)
(0.953586 0.025112 -4.6074e-16)
(0.825103 -0.925944 1.45985e-15)
(0.721169 -0.793536 1.20488e-15)
(0.892621 -0.731556 6.18806e-16)
(0.77833 -0.61138 4.62979e-16)
(0.934142 -0.58471 1.1767e-15)
(0.824615 -0.481545 1.94987e-16)
(0.960737 -0.471405 4.1689e-16)
(0.861619 -0.386072 1.91534e-16)
(0.978515 -0.382484 3.5499e-16)
(0.890747 -0.313599 -8.90694e-17)
(0.990924 -0.311766 9.14081e-17)
(0.913351 -0.25691 5.36359e-16)
(0.999836 -0.254764 3.69002e-16)
(0.930672 -0.211395 4.14394e-16)
(1.00625 -0.208117 3.94356e-17)
(0.943762 -0.174038 1.59191e-16)
(1.0107 -0.169285 -4.1527e-16)
(0.953448 -0.142783 2.37832e-16)
(1.01352 -0.136357 -9.05283e-17)
(0.960366 -0.116182 1.6306e-16)
(1.01492 -0.107912 1.57429e-17)
(0.964992 -0.0931865 -7.28694e-17)
(1.01507 -0.0828873 1.69681e-16)
(0.967687 -0.0730264 -2.90392e-16)
(1.01402 -0.0604273 1.5149e-17)
(0.968732 -0.0551298 -4.42748e-16)
(1.01176 -0.0397879 1.55499e-16)
(0.968377 -0.0391102 -4.32856e-16)
(1.00818 -0.0202897 1.18155e-16)
(0.966941 -0.0248022 -4.48608e-16)
(1.00305 -0.00125516 -1.03226e-16)
(0.964818 -0.0122179 -1.0153e-16)
(0.996013 0.0180639 -2.75016e-16)
(0.962427 -0.00145536 -2.12658e-16)
(0.98657 0.0385639 -2.83188e-16)
(0.960785 0.00674157 2.70143e-16)
(0.97228 0.0632874 -3.78035e-16)
(0.965424 0.00670033 3.19932e-16)
(0.947513 0.0990027 -3.06445e-16)
(0.955743 0.0257994 5.83612e-16)
(0.886265 -0.942347 -1.56688e-15)
(0.772927 -0.806701 -1.17577e-15)
(0.940316 -0.743818 -8.62892e-16)
(0.81826 -0.621662 -9.12061e-17)
(0.972342 -0.594721 -1.0571e-15)
(0.856162 -0.489863 8.48083e-17)
(0.991633 -0.479705 -6.40957e-16)
(0.887028 -0.392983 -1.46503e-16)
(1.0037 -0.38946 -1.62483e-16)
(0.911531 -0.319474 1.53638e-16)
(1.0116 -0.317707 -7.83054e-18)
(0.930549 -0.261997 -3.41256e-16)
(1.01691 -0.259884 -1.53553e-16)
(0.945019 -0.215868 -6.66708e-16)
(1.0204 -0.212577 1.77299e-16)
(0.955798 -0.178023 -1.88808e-16)
(1.02245 -0.173203 4.58392e-16)
(0.963579 -0.146373 -4.39854e-16)
(1.02325 -0.139825 2.71038e-16)
(0.968891 -0.119445 -3.15495e-16)
(1.02292 -0.111001 1.39141e-16)
(0.972149 -0.0961787 -4.83593e-17)
(1.02156 -0.0856496 -1.26771e-16)
(0.97366 -0.075793 2.89141e-17)
(1.01916 -0.062909 3.30234e-16)
(0.973654 -0.0576991 5.00817e-17)
(1.01567 -0.0420325 1.2019e-16)
(0.972349 -0.0414901 1.78432e-16)
(1.01092 -0.0223425 8.90346e-17)
(0.970035 -0.026966 1.91418e-16)
(1.00464 -0.00318377 1.56657e-16)
(0.967094 -0.0140876 2.27349e-16)
(0.996446 0.0161668 1.67877e-16)
(0.963965 -0.00290582 3.28848e-16)
(0.985802 0.0365216 3.26119e-16)
(0.961625 0.00603325 -1.88118e-16)
(0.9704 0.0604789 3.50839e-16)
(0.96577 0.00744205 -2.47014e-16)
(0.943853 0.0950962 1.87932e-16)
(0.956944 0.0256407 -4.42577e-16)
(0.948944 -0.955403 1.51944e-15)
(0.827442 -0.818864 1.08323e-15)
(0.990652 -0.755054 7.10014e-16)
(0.86047 -0.631203 2.36249e-16)
(1.01274 -0.603776 5.84517e-16)
(0.889576 -0.497477 1.68494e-17)
(1.02436 -0.487086 5.52172e-16)
(0.913972 -0.399174 8.61588e-17)
(1.03041 -0.395538 2.69927e-17)
(0.933555 -0.324585 -1.46185e-16)
(1.03351 -0.322758 2.02926e-16)
(0.948715 -0.26627 1.91532e-17)
(1.03493 -0.26412 -2.80085e-17)
(0.960082 -0.219476 8.10135e-16)
(1.03524 -0.216161 -4.12717e-16)
(0.968306 -0.181096 2.35547e-16)
(1.03463 -0.176263 -1.91626e-16)
(0.97394 -0.149012 8.92109e-17)
(1.03318 -0.142457 1.66907e-16)
(0.977425 -0.121727 -7.71326e-17)
(1.0309 -0.11328 8.13583e-17)
(0.979094 -0.0981559 4.41781e-17)
(1.02781 -0.0876321 1.1607e-16)
(0.979204 -0.0774988 -2.48056e-16)
(1.02388 -0.0646348 1.40621e-16)
(0.977945 -0.0591542 -3.54016e-16)
(1.019 -0.0435368 3.41911e-17)
(0.975509 -0.0426994 -2.24921e-17)
(1.01298 -0.0236733 -3.76343e-16)
(0.972169 -0.0279152 3.54313e-17)
(1.00557 -0.00441347 -2.23597e-16)
(0.968306 -0.0147568 -1.53591e-16)