/*--------------------------------*- C++ -*----------------------------------*\
| =========                 |                                                 |
| \\      /  F ield         | foam-extend: Open Source CFD                    |
|  \\    /   O peration     | Version:  3.0                                   |
|   \\  /    A nd           | Web:         http://www.extend-project.de       |
|    \\/     M anipulation  |                                                 |
\*---------------------------------------------------------------------------*/
FoamFile
{
    version     2.0;
    format      ascii;
    class       volSymmTensorField;
    location    "4.4";
    object      sigma;
}
// * * * * * * * * * * * * * * * * * * * * * * * * * * * * * * * * * * * * * //

dimensions      [0 0 0 0 0 0 0];

internalField   nonuniform List<symmTensor> 
400
(
(0.109791 -0.024128 7.78294e-317 -0.148222 1.03413e-316 0.0384318)
(0.212052 -0.0560571 8.4448e-317 -0.143516 1.19884e-316 -0.0685364)
(0.259707 -0.0924448 8.36288e-317 -0.13762 1.17059e-316 -0.122087)
(0.2658 -0.118749 8.10199e-317 -0.123976 1.0804e-316 -0.141823)
(0.251669 -0.143904 7.56982e-317 -0.109265 9.5287e-317 -0.142404)
(0.222552 -0.164931 7.04668e-317 -0.0922036 8.44629e-317 -0.130348)
(0.184224 -0.182106 6.46505e-317 -0.0740281 7.24931e-317 -0.110196)
(0.139202 -0.196496 5.92862e-317 -0.0547938 6.39858e-317 -0.084408)
(0.0897112 -0.20622 5.41293e-317 -0.0349225 5.45144e-317 -0.0547887)
(0.0365747 -0.212332 4.94633e-317 -0.014035 4.85272e-317 -0.0225397)
(-0.0185021 -0.213574 4.52354e-317 0.00742276 4.13187e-317 0.0110794)
(-0.0743494 -0.210359 4.14505e-317 0.0294817 3.73205e-317 0.0448676)
(-0.12965 -0.202811 3.8165e-317 0.0522572 3.18417e-317 0.0773925)
(-0.180728 -0.19057 3.51423e-317 0.0740955 2.92722e-317 0.106632)
(-0.226658 -0.17499 3.27459e-317 0.0962291 2.5129e-317 0.130429)
(-0.259954 -0.155278 3.01235e-317 0.114863 2.35234e-317 0.145091)
(-0.277416 -0.131145 2.84765e-317 0.131355 2.0617e-317 0.146061)
(-0.269069 -0.105291 2.55967e-317 0.142932 1.95967e-317 0.126136)
(-0.21769 -0.0682387 2.38731e-317 0.146018 1.78772e-317 0.0716721)
(-0.11036 -0.0344821 1.8547e-317 0.146215 1.63906e-317 -0.0358543)
(0.0798163 -0.00578066 2.02842e-317 -0.190998 5.24213e-317 0.111181)
(0.173598 -0.0167653 3.14932e-317 -0.205628 8.35862e-317 0.0320306)
(0.212304 -0.0332452 3.86073e-317 -0.198223 9.13372e-317 -0.014081)
(0.222584 -0.0464876 4.29016e-317 -0.184601 8.90001e-317 -0.0379831)
(0.210148 -0.0607589 4.47496e-317 -0.162203 8.10252e-317 -0.0479449)
(0.185735 -0.0734988 4.52093e-317 -0.137037 7.28877e-317 -0.0486984)
(0.153139 -0.0843455 4.45033e-317 -0.109461 6.33088e-317 -0.0436782)
(0.115104 -0.092933 4.31858e-317 -0.0803591 5.58995e-317 -0.0347453)
(0.0742027 -0.0983183 4.14142e-317 -0.0508111 4.78191e-317 -0.0233915)
(0.0303595 -0.100139 3.94476e-317 -0.0198697 4.22559e-317 -0.0104897)
(-0.0144689 -0.0988725 3.74111e-317 0.0114195 3.59951e-317 0.00304939)
(-0.0603962 -0.0935913 3.54116e-317 0.0439005 3.21385e-317 0.0164957)
(-0.105804 -0.0866443 3.35784e-317 0.0769618 2.74285e-317 0.0288426)
(-0.148634 -0.0767165 3.1881e-317 0.109635 2.49349e-317 0.0389985)
(-0.187437 -0.0672 3.05938e-317 0.142163 2.15104e-317 0.0452743)
(-0.215409 -0.0573257 2.93897e-317 0.169856 2.00918e-317 0.0455532)
(-0.231085 -0.0482521 2.89905e-317 0.194695 1.79648e-317 0.0363903)
(-0.218964 -0.0424837 2.84005e-317 0.205811 1.77084e-317 0.013152)
(-0.177762 -0.0325583 2.90096e-317 0.209542 1.80745e-317 -0.0317793)
(-0.0793729 -0.0295826 2.8294e-317 0.187614 2.17365e-317 -0.108241)
(0.0739334 0.00128913 -6.05649e-318 -0.216892 2.32908e-317 0.142958)
(0.159396 0.00977765 4.91908e-318 -0.232652 5.53478e-317 0.0732556)
(0.191482 0.0132022 1.44856e-317 -0.221946 6.71382e-317 0.0304637)
(0.200166 0.010171 2.17928e-317 -0.205719 6.88735e-317 0.00555263)
(0.187193 0.00557433 2.6709e-317 -0.179178 6.50278e-317 -0.00801464)
(0.165311 -0.00249036 2.99186e-317 -0.15124 5.96791e-317 -0.0140713)
(0.136948 -0.00842445 3.16093e-317 -0.121475 5.29922e-317 -0.0154731)
(0.104254 -0.0141356 3.23404e-317 -0.0904535 4.7145e-317 -0.0138009)
(0.0703063 -0.0161079 3.23247e-317 -0.0599769 4.09877e-317 -0.0103294)
(0.0330235 -0.0151995 3.18643e-317 -0.0272359 3.61627e-317 -0.00578754)
(-0.00458286 -0.0112626 3.11262e-317 0.00550005 3.11598e-317 -0.000917188)
(-0.0448341 -0.00364328 3.02512e-317 0.0410936 2.74744e-317 0.00374055)
(-0.0854413 0.00398743 2.93686e-317 0.0780511 2.35179e-317 0.00739026)
(-0.125512 0.0138947 2.84698e-317 0.116257 2.07239e-317 0.00925536)
(-0.164302 0.0189419 2.77165e-317 0.156345 1.75486e-317 0.00795686)
(-0.193053 0.0226931 2.68118e-317 0.191138 1.53159e-317 0.00191566)
(-0.21395 0.0172398 2.60737e-317 0.225622 1.27864e-317 -0.0116726)
(-0.204131 0.00609478 2.47173e-317 0.240439 1.11229e-317 -0.0363081)
(-0.170449 -0.0127537 2.32353e-317 0.248224 1.04766e-317 -0.0777752)
(-0.0751068 -0.0384417 2.11321e-317 0.218729 1.32203e-317 -0.143622)
(0.0647825 0.0157059 -2.93689e-317 -0.232674 -1.33307e-318 0.167892)
(0.13656 0.0371384 -1.84478e-317 -0.233763 3.03953e-317 0.0972035)
(0.160367 0.052744 -6.86372e-318 -0.213206 4.44919e-317 0.0528393)
(0.16338 0.052591 2.73623e-318 -0.189311 4.9462e-317 0.0259314)
(0.150371 0.0518881 1.03674e-317 -0.160444 4.89575e-317 0.0100731)
(0.130672 0.0435882 1.59408e-317 -0.13202 4.63714e-317 0.00134793)
(0.10883 0.0385309 1.98462e-317 -0.105837 4.21543e-317 -0.00299299)
(0.0838265 0.0332217 2.24074e-317 -0.0792431 3.80898e-317 -0.00458339)
(0.06032 0.0324214 2.39475e-317 -0.0557362 3.35546e-317 -0.00458377)
(0.033347 0.0356695 2.47379e-317 -0.0295851 2.98099e-317 -0.00376192)
(0.00740097 0.0421535 2.49909e-317 -0.00466964 2.58914e-317 -0.00273133)
(-0.0230792 0.0540504 2.4865e-317 0.0251388 2.28995e-317 -0.0020596)
(-0.0539308 0.0649181 2.44788e-317 0.0563333 1.97888e-317 -0.00240258)
(-0.0883687 0.0795948 2.38757e-317 0.0929332 1.76229e-317 -0.00456451)
(-0.122957 0.0854506 2.31007e-317 0.132763 1.54035e-317 -0.00980572)
(-0.153404 0.0903997 2.20527e-317 0.17318 1.41923e-317 -0.0197756)
(-0.17837 0.0765867 2.07042e-317 0.215609 1.31904e-317 -0.0372393)
(-0.177324 0.0551595 1.88199e-317 0.243171 1.33696e-317 -0.0658471)
(-0.153958 0.0109941 1.63109e-317 0.265277 1.40467e-317 -0.111319)
(-0.0685366 -0.0447582 1.33272e-317 0.249264 1.46908e-317 -0.180727)
(0.0692982 0.0470355 -2.50342e-317 -0.273574 -7.52759e-318 0.204276)
(0.130881 0.0709018 -1.80905e-317 -0.25086 1.56301e-317 0.119979)
(0.148221 0.0899933 -9.29862e-318 -0.216985 2.80255e-317 0.0687636)
(0.143295 0.0866845 -1.29662e-318 -0.181346 3.38298e-317 0.0380515)
(0.130493 0.0848514 5.37321e-318 -0.150233 3.53182e-317 0.0197395)
(0.111194 0.0730707 1.06031e-317 -0.120303 3.46342e-317 0.00910935)
(0.0952833 0.0665226 1.4472e-317 -0.0983369 3.24604e-317 0.00305368)
(0.0758377 0.0594405 1.72555e-317 -0.0755888 2.98819e-317 -0.000248895)
(0.061104 0.05867 1.91544e-317 -0.0590763 2.6861e-317 -0.00202766)
(0.0416261 0.0624544 2.04026e-317 -0.0385413 2.40631e-317 -0.00308487)
(0.024663 0.0711598 2.11777e-317 -0.0206022 2.11785e-317 -0.00406082)
(0.000545556 0.0862435 2.16338e-317 0.00497383 1.87211e-317 -0.00551938)
(-0.0241247 0.101376 2.19047e-317 0.0323151 1.63005e-317 -0.00819042)
(-0.0569216 0.121715 2.2057e-317 0.0698345 1.43938e-317 -0.0129128)
(-0.0918308 0.131954 2.22097e-317 0.113022 1.2636e-317 -0.0211914)
(-0.128947 0.142918 2.22916e-317 0.163892 1.1522e-317 -0.034945)
(-0.163295 0.128035 2.24588e-317 0.221011 1.08416e-317 -0.0577168)
(-0.176687 0.106778 2.24311e-317 0.271002 1.11466e-317 -0.0943155)
(-0.165328 0.0476014 2.24086e-317 0.318396 1.26275e-317 -0.153068)
(-0.0828295 -0.0222757 2.19137e-317 0.32872 1.65075e-317 -0.24589)
(0.0675603 0.103956 -2.62138e-317 -0.305284 -1.20433e-317 0.237724)
(0.112563 0.115473 -2.09198e-317 -0.250994 5.91355e-318 0.138431)
(0.122809 0.124936 -1.33343e-317 -0.202416 1.6418e-317 0.0796065)
(0.108813 0.110156 -6.0516e-318 -0.153856 2.22653e-317 0.0450427)
(0.0971696 0.100053 4.53962e-319 -0.121915 2.47436e-317 0.0247455)
(0.0791157 0.0811677 5.71259e-318 -0.0920165 2.53008e-317 0.0129008)
(0.0703575 0.0695015 9.82977e-318 -0.0763626 2.44528e-317 0.00600512)
(0.0582687 0.0594608 1.28961e-317 -0.0601764 2.3012e-317 0.0019077)
(0.0540757 0.0570685 1.51071e-317 -0.0534484 2.10452e-317 -0.000627302)
(0.0447428 0.0618248 1.66358e-317 -0.0421809 1.9059e-317 -0.00256194)
(0.0397912 0.0728543 1.76451e-317 -0.0353256 1.69133e-317 -0.00446564)
(0.0255563 0.0933803 1.82676e-317 -0.0184911 1.49903e-317 -0.00706513)
(0.0119249 0.115219 1.86104e-317 -0.00086674 1.30827e-317 -0.0110582)
(-0.0154704 0.145964 1.87506e-317 0.0330347 1.15519e-317 -0.0175643)
(-0.0443258 0.166263 1.87348e-317 0.0726038 1.02253e-317 -0.028278)
(-0.0862849 0.190985 1.86026e-317 0.132091 9.52174e-318 -0.045806)
(-0.124435 0.184425 1.83216e-317 0.199103 9.39935e-318 -0.0746684)
(-0.156294 0.173344 1.7913e-317 0.277988 1.0367e-317 -0.121694)
(-0.156838 0.110827 1.72142e-317 0.355443 1.23908e-317 -0.198605)
(-0.0896803 0.0349294 1.60684e-317 0.412432 1.52468e-317 -0.322752)
(0.0689986 0.181297 -1.30405e-317 -0.331128 -7.68976e-318 0.26213)
(0.0985775 0.168345 -1.11927e-317 -0.247621 2.00464e-318 0.149044)
(0.104617 0.157186 -7.07604e-318 -0.189117 9.27458e-318 0.0845001)
(0.0823468 0.126729 -2.45316e-318 -0.129957 1.40974e-317 0.0476097)
(0.0737663 0.103727 1.91742e-318 -0.100181 1.67558e-317 0.026415)
(0.0566964 0.0763042 5.74768e-318 -0.0708784 1.79232e-317 0.0141819)
(0.0551571 0.0576118 8.8699e-318 -0.0622209 1.79509e-317 0.00706381)
(0.0490979 0.0429944 1.13435e-317 -0.0518268 1.73218e-317 0.00272884)
(0.0543402 0.0375907 1.32225e-317 -0.0542355 1.61809e-317 -0.000104731)
(0.0533716 0.0405952 1.46255e-317 -0.0509426 1.48385e-317 -0.00242897)
(0.0588264 0.0525784 1.56606e-317 -0.0539744 1.33082e-317 -0.00485198)
(0.0527767 0.0750247 1.6439e-317 -0.0446603 1.18103e-317 -0.00811646)
(0.0483482 0.103151 1.70774e-317 -0.0352912 1.03094e-317 -0.0130571)
(0.0248475 0.141733 1.76639e-317 -0.00394687 9.01049e-318 -0.0209006)
(-0.000340785 0.175217 1.83359e-317 0.03411 7.90833e-318 -0.0337693)
(-0.0492142 0.216131 1.91239e-317 0.104022 7.27994e-318 -0.0548075)
(-0.0949116 0.228814 2.02226e-317 0.184838 7.27687e-318 -0.0899261)
(-0.148983 0.242175 2.14879e-317 0.297187 8.40562e-318 -0.148203)
(-0.165042 0.198691 2.30759e-317 0.411354 1.12894e-317 -0.246312)
(-0.110568 0.149151 2.42616e-317 0.52179 1.74954e-317 -0.411221)
(0.0592218 0.268608 -1.04956e-317 -0.319516 -6.07565e-318 0.260294)
(0.0717321 0.222564 -9.19259e-318 -0.217054 1.474e-319 0.145322)
(0.0739038 0.182656 -5.95337e-318 -0.155027 5.19625e-318 0.0811236)
(0.046249 0.133903 -2.20163e-318 -0.0914517 8.99098e-318 0.0452027)
(0.0406312 0.0944353 1.57062e-318 -0.065665 1.14083e-317 0.0250338)
(0.0259125 0.0581826 4.88663e-318 -0.0394688 1.27486e-317 0.0135563)
(0.0304226 0.0307753 7.67612e-318 -0.0374232 1.31841e-317 0.00700057)
(0.0309581 0.0118944 9.88837e-318 -0.0339279 1.30169e-317 0.00296984)
(0.044499 0.0025129 1.15882e-317 -0.0448358 1.23645e-317 0.000336843)
(0.0527067 0.00452868 1.28497e-317 -0.0507355 1.14429e-317 -0.00197123)
(0.0685937 0.0171907 1.37619e-317 -0.0641645 1.02923e-317 -0.00442923)
(0.072768 0.0432642 1.44096e-317 -0.0648385 9.07037e-318 -0.00792951)
(0.080167 0.0787952 1.48733e-317 -0.0669389 7.78338e-318 -0.0132282)
(0.0645527 0.128712 1.52288e-317 -0.0427109 6.58491e-318 -0.0218418)
(0.0498148 0.17933 1.55413e-317 -0.0137954 5.52075e-318 -0.0360194)
(-0.000585628 0.242539 1.59019e-317 0.0602157 4.84244e-318 -0.0596301)
(-0.0429163 0.283072 1.63476e-317 0.14246 4.77991e-318 -0.0995435)
(-0.116453 0.329077 1.69894e-317 0.283572 5.91539e-318 -0.167119)
(-0.140172 0.317449 1.77652e-317 0.423085 8.89412e-318 -0.282913)
(-0.111355 0.299311 1.83581e-317 0.591804 1.4668e-317 -0.480449)
(0.0472484 0.348217 1.38724e-319 -0.277475 -9.87049e-319 0.230226)
(0.0448512 0.270431 -4.89693e-319 -0.17036 2.485e-319 0.125509)
(0.0453744 0.199929 4.39531e-319 -0.114169 2.88703e-318 0.0687947)
(0.0156665 0.135097 2.2611e-318 -0.0534517 5.46437e-318 0.0377852)
(0.0143586 0.0786124 4.32329e-318 -0.0351318 7.45292e-318 0.0207732)
(0.00253401 0.0341469 6.39313e-318 -0.013763 8.77482e-318 0.011229)
(0.0127311 -0.00249042 8.21634e-318 -0.0186093 9.4471e-318 0.00587813)
(0.0188202 -0.0268448 9.75727e-318 -0.0213885 9.60224e-318 0.00256828)
(0.0395259 -0.0413903 1.09825e-317 -0.0399065 9.31792e-318 0.000380598)
(0.0554136 -0.0435464 1.19306e-317 -0.0537538 8.72972e-318 -0.00165973)
(0.0804537 -0.0323264 1.26481e-317 -0.0764784 7.8908e-318 -0.00397531)
(0.0936913 -0.0079983 1.3198e-317 -0.0862792 6.90711e-318 -0.00741211)
(0.111662 0.0325582 1.36597e-317 -0.0988782 5.81062e-318 -0.0127837)
(0.103652 0.0869991 1.41046e-317 -0.0820479 4.70498e-318 -0.0216039)
(0.0974799 0.15483 1.46639e-317 -0.0611165 3.65475e-318 -0.0363633)
(0.0459987 0.235835 1.53968e-317 0.0151612 2.85418e-318 -0.06116)
(0.0025146 0.312542 1.65538e-317 0.101239 2.56951e-318 -0.103754)
(-0.0906071 0.398743 1.80803e-317 0.267586 3.39709e-318 -0.176979)
(-0.130596 0.442569 2.03233e-317 0.435889 6.45275e-318 -0.305293)
(-0.124882 0.49132 2.26787e-317 0.656024 1.42025e-317 -0.531142)
(0.0251945 0.410281 3.85544e-319 -0.193175 3.97752e-319 0.167981)
(0.0106836 0.303086 3.16869e-319 -0.100434 5.22331e-319 0.0897506)
(0.00753924 0.204622 1.39816e-318 -0.0559188 1.80987e-318 0.0483796)
(-0.0196924 0.126883 3.04413e-318 -0.00653754 3.48053e-318 0.0262299)
(-0.0190321 0.0547728 4.92389e-318 0.00463551 4.99952e-318 0.0143966)
(-0.0264728 0.00395619 6.66496e-318 0.0186425 6.15382e-318 0.00783031)
(-0.0133521 -0.0416909 8.18832e-318 0.00907759 6.86086e-318 0.00427451)
(-0.00188647 -0.070495 9.41648e-318 -0.000138444 7.14857e-318 0.00202491)
(0.0229475 -0.090475 1.03649e-317 -0.0235203 7.05407e-318 0.00057277)
(0.0458445 -0.0958914 1.10574e-317 -0.0448625 6.65659e-318 -0.000981935)
(0.0772108 -0.0865287 1.1532e-317 -0.0743729 5.99791e-318 -0.00283789)
(0.0997924 -0.062468 1.18291e-317 -0.0938844 5.14821e-318 -0.00590806)
(0.127385 -0.0169643 1.19884e-317 -0.116575 4.1362e-318 -0.0108096)
(0.130329 0.0450167 1.20504e-317 -0.111138 3.03108e-318 -0.0191905)
(0.137024 0.131461 1.20579e-317 -0.1037 1.89024e-318 -0.0333239)
(0.0929205 0.235643 1.20818e-317 -0.0353813 8.72895e-319 -0.0575391)
(0.0618799 0.352696 1.21814e-317 0.0376335 2.36979e-319 -0.0995134)
(-0.0391619 0.484357 1.25253e-317 0.211961 5.72933e-319 -0.1728)
(-0.0773366 0.588004 1.32433e-317 0.379984 2.94517e-318 -0.302647)
(-0.103027 0.694143 1.44496e-317 0.635242 9.25529e-318 -0.532215)
(0.00112189 0.438763 6.43355e-318 -0.0840192 3.30182e-318 0.0828973)
(-0.0235925 0.317227 5.58416e-318 -0.0186876 9.27766e-319 0.0422801)
(-0.0284429 0.19922 5.56696e-318 0.00626219 9.07589e-319 0.0221807)
(-0.0503173 0.114046 6.24279e-318 0.038479 1.8015e-318 0.0118383)
(-0.0469613 0.0298078 7.12187e-318 0.0403619 2.98438e-318 0.00659948)
(-0.0494498 -0.0262204 8.07485e-318 0.045766 4.04943e-318 0.00368383)
(-0.0337463 -0.0795863 8.91801e-318 0.0315206 4.81765e-318 0.00222568)
(-0.0176469 -0.113349 9.62674e-318 0.0164396 5.23615e-318 0.00120728)
(0.010549 -0.138869 1.01654e-317 -0.0111105 5.30727e-318 0.000561471)
(0.0391189 -0.149772 1.05438e-317 -0.0387213 5.07761e-318 -0.000397661)
(0.0760606 -0.144171 1.07732e-317 -0.0743327 4.58448e-318 -0.00172789)
(0.106839 -0.125664 1.08737e-317 -0.102613 3.87917e-318 -0.00422668)
(0.14361 -0.079223 1.08773e-317 -0.135168 2.98874e-318 -0.00844204)
(0.157545 -0.0194813 1.08052e-317 -0.141711 1.95954e-318 -0.0158343)
(0.176158 0.0808398 1.07348e-317 -0.147628 8.32911e-319 -0.0285294)
(0.141045 0.194613 1.06778e-317 -0.0906307 -2.85861e-319 -0.0504143)
(0.116755 0.351999 1.08417e-317 -0.0279895 -1.18659e-318 -0.0887659)
(0.008408 0.520952 1.12116e-317 0.147973 -1.40923e-318 -0.156381)
(-0.0459976 0.699754 1.22576e-317 0.324637 2.19795e-319 -0.27864)
(-0.104775 0.890772 1.40878e-317 0.607641 6.23047e-318 -0.502866)
(-0.0258694 0.436187 3.88616e-318 0.0425853 3.17498e-318 -0.0167159)
(-0.0578038 0.306276 4.42393e-318 0.0689703 9.35009e-319 -0.0111665)
(-0.0699682 0.178102 5.49709e-318 0.0762993 3.48049e-319 -0.00633113)
(-0.0830157 0.0912 6.60691e-318 0.0863392 8.08889e-319 -0.00332345)
(-0.0799619 -0.000606838 7.68106e-318 0.0813467 1.75522e-318 -0.00138485)
(-0.0759975 -0.0590394 8.50573e-318 0.0764413 2.72095e-318 -0.000443805)
(-0.0599844 -0.118366 9.14588e-318 0.0597188 3.47858e-318 0.000265564)
(-0.0396351 -0.155534 9.59047e-318 0.0391349 3.93666e-318 0.000500178)
(-0.0113691 -0.18586 9.87318e-318 0.0106485 4.08103e-318 0.000720599)
(0.0211357 -0.201032 1.0006e-317 -0.0215439 3.94067e-318 0.00040825)
(0.0589094 -0.199197 9.99871e-318 -0.0586705 3.54589e-318 -0.000238836)
(0.0961667 -0.184774 9.85126e-318 -0.0941567 2.93268e-318 -0.00201)
(0.13703 -0.138191 9.55833e-318 -0.131864 2.12213e-318 -0.0051666)
(0.16318 -0.0777351 9.10602e-318 -0.152068 1.14157e-318 -0.0111118)
(0.192209 0.0352767 8.47454e-318 -0.170841 1.92043e-320 -0.0213682)
(0.175225 0.165055 7.65684e-318 -0.135866 -1.17731e-318 -0.0393581)
(0.16866 0.361622 6.61913e-318 -0.0978635 -2.28535e-318 -0.0707968)
(0.0739395 0.575563 5.50691e-318 0.0526996 -2.96832e-318 -0.126639)
(0.0339094 0.823806 4.39635e-318 0.19391 -2.36653e-318 -0.227819)
(-0.0506185 1.07949 4.23972e-318 0.462125 9.05449e-319 -0.411507)
(-0.0552766 0.399102 6.59793e-318 0.174084 3.62624e-318 -0.118807)
(-0.0909381 0.277763 7.16492e-318 0.155031 -5.10172e-320 -0.0640929)
(-0.105682 0.150426 8.04232e-318 0.139366 -1.00975e-318 -0.0336838)
(-0.109394 0.0640753 8.75356e-318 0.126881 -6.07548e-319 -0.0174878)
(-0.105728 -0.0301875 9.22141e-318 0.114428 4.26912e-319 -0.00869938)
(-0.0954426 -0.0904493 9.50993e-318 0.099645 1.50369e-318 -0.00420241)
(-0.0791415 -0.152638 9.65376e-318 0.0806962 2.36183e-318 -0.0015547)
(-0.055175 -0.192316 9.70742e-318 0.0553831 2.91243e-318 -0.00020811)
(-0.0271441 -0.225832 9.67537e-318 0.02638 3.14789e-318 0.000764059)
(0.00799313 -0.245221 9.56084e-318 -0.00905581 3.1047e-318 0.00106268)
(0.0464773 -0.247881 9.35191e-318 -0.0475209 2.81833e-318 0.0010436)
(0.0887314 -0.240543 9.0319e-318 -0.088783 2.32511e-318 5.16217e-05)
(0.134492 -0.198376 8.58617e-318 -0.132468 1.64828e-318 -0.00202408)
(0.172265 -0.146861 7.98359e-318 -0.165987 8.10292e-319 -0.00627757)
(0.213348 -0.0307587 7.22463e-318 -0.199593 -1.67627e-319 -0.0137547)
(0.215216 0.0939059 6.25122e-318 -0.188391 -1.24979e-318 -0.0268248)
(0.223092 0.317597 5.13094e-318 -0.173669 -2.33023e-318 -0.0494227)
(0.137893 0.545473 3.82331e-318 -0.0487699 -3.25863e-318 -0.0891233)
(0.0844349 0.862565 2.59081e-318 0.0777344 -3.39414e-318 -0.162169)
(-0.0470188 1.18741 2.2732e-318 0.351667 -1.65201e-318 -0.304648)
(-0.0760857 0.328182 3.98609e-318 0.284764 2.88793e-318 -0.208679)
(-0.119644 0.221859 6.10105e-318 0.229075 -6.82097e-319 -0.109431)
(-0.143823 0.106107 8.28288e-318 0.200053 -1.66818e-318 -0.0562304)
(-0.136429 0.0277373 9.31286e-318 0.165155 -1.13814e-318 -0.0287257)
(-0.132479 -0.0636596 9.82588e-318 0.146814 -4.29837e-320 -0.0143352)
(-0.114437 -0.122227 9.88867e-318 0.121468 1.04126e-318 -0.00703038)
(-0.0981861 -0.184554 9.78835e-318 0.101075 1.87107e-318 -0.00288929)
(-0.0712662 -0.22467 9.59109e-318 0.0719566 2.39168e-318 -0.000690339)
(-0.0460273 -0.259632 9.34463e-318 0.045127 2.61535e-318 0.000900315)
(-0.0108013 -0.281734 9.04546e-318 0.00908252 2.58501e-318 0.00171882)
(0.0230102 -0.288121 8.67248e-318 -0.0253312 2.33926e-318 0.00232101)
(0.0666099 -0.286505 8.19202e-318 -0.0686943 1.9116e-318 0.00208435)
(0.108807 -0.24953 7.56252e-318 -0.109986 1.32324e-318 0.00117969)
(0.155795 -0.204454 6.72834e-318 -0.154464 5.91402e-319 -0.00133147)
(0.199239 -0.0881221 5.61665e-318 -0.193508 -2.6143e-319 -0.00573085)
(0.225944 0.0391404 4.16258e-318 -0.212471 -1.21346e-318 -0.0134723)
(0.248101 0.285213 2.2164e-318 -0.222269 -2.17955e-318 -0.0258314)
(0.202561 0.544954 -1.21545e-319 -0.156445 -3.10726e-318 -0.0461154)
(0.174456 0.921784 -3.06903e-318 -0.0941977 -3.76439e-318 -0.0802587)
(0.0458978 1.30859 -5.2767e-318 0.0935263 -4.37274e-318 -0.139424)
(-0.10609 0.25111 7.98772e-318 0.388629 1.06246e-318 -0.282539)
(-0.140066 0.159212 9.46077e-318 0.282518 -3.85576e-318 -0.142452)
(-0.166778 0.0587448 1.08746e-317 0.238175 -4.18548e-318 -0.0713972)
(-0.149588 -0.0168487 1.11003e-317 0.185478 -2.80238e-318 -0.0358897)
(-0.145661 -0.101141 1.08078e-317 0.163477 -1.1767e-318 -0.017816)
(-0.121479 -0.157377 1.03056e-317 0.130264 2.05442e-319 -0.00878515)
(-0.10584 -0.215579 9.77515e-318 0.109596 1.17681e-318 -0.00375556)
(-0.0770197 -0.253532 9.29074e-318 0.0780664 1.77759e-318 -0.00104661)
(-0.0547655 -0.286995 8.84108e-318 0.053833 2.06672e-318 0.000932518)
(-0.0207609 -0.309504 8.40085e-318 0.018633 2.11332e-318 0.00212796)
(0.0088666 -0.318879 7.92578e-318 -0.0120612 1.96796e-318 0.00319456)
(0.0520402 -0.322717 7.37054e-318 -0.0556441 1.66983e-318 0.00360393)
(0.0927986 -0.294445 6.68917e-318 -0.0964674 1.24512e-318 0.00366887)
(0.147004 -0.261779 5.825e-318 -0.149733 7.14523e-319 0.00272832)
(0.198134 -0.157282 4.73685e-318 -0.199151 9.87736e-320 0.00101727)
(0.246976 -0.0500794 3.35152e-318 -0.245207 -5.83995e-319 -0.00176852)
(0.288918 0.193637 1.64584e-318 -0.284385 -1.28455e-318 -0.00453218)
(0.267617 0.428648 -4.08197e-319 -0.262094 -2.04781e-318 -0.00552275)
(0.237557 0.837586 -2.81474e-318 -0.235995 -2.88848e-318 -0.00156161)
(0.0398196 1.23172 -4.76303e-318 -0.0418324 -4.32207e-318 0.00201282)
(-0.111789 0.127779 1.09716e-317 0.43019 3.60378e-318 -0.318401)
(-0.161283 0.071572 1.20614e-317 0.318413 -2.1187e-318 -0.15713)
(-0.189247 0.00128724 1.28929e-317 0.266294 -2.7484e-318 -0.077047)
(-0.162088 -0.0606705 1.22444e-317 0.200214 -1.43851e-318 -0.0381257)
(-0.152946 -0.131702 1.13117e-317 0.171745 -7.76869e-320 -0.0187987)
(-0.121614 -0.18192 1.03236e-317 0.130906 9.88265e-319 -0.00929198)
(-0.105438 -0.232747 9.48073e-318 0.109479 1.657e-318 -0.0040413)
(-0.0759839 -0.266681 8.78794e-318 0.0771758 2.00989e-318 -0.00119184)
(-0.0585224 -0.296433 8.20409e-318 0.0575705 2.11644e-318 0.000951898)
(-0.0285093 -0.317783 7.67608e-318 0.026158 2.04056e-318 0.00235126)
(-0.00769962 -0.328556 7.14325e-318 0.00395021 1.82701e-318 0.00374941)
(0.0305438 -0.336033 6.54747e-318 -0.0351762 1.5066e-318 0.00463241)
(0.06041 -0.316081 5.82911e-318 -0.0659051 1.1019e-318 0.00549508)
(0.115808 -0.293072 4.92195e-318 -0.121598 6.31475e-319 0.00578924)
(0.1575 -0.203049 3.74535e-318 -0.163798 1.21471e-319 0.00629845)
(0.228003 -0.107555 2.24618e-318 -0.235451 -4.03839e-319 0.00744746)
(0.268837 0.127157 2.64226e-319 -0.281576 -8.8457e-319 0.0127391)
(0.310472 0.370524 -2.07234e-318 -0.339222 -1.34999e-318 0.0287494)
(0.30214 0.806909 -5.09499e-318 -0.375185 -2.03873e-318 0.0730453)
(0.180006 1.26789 -7.88198e-318 -0.36473 -4.10953e-318 0.184724)
(-0.135603 0.0534125 1.82871e-317 0.46149 -2.33812e-318 -0.325887)
(-0.146895 -0.0134655 1.64842e-317 0.299417 -7.91493e-318 -0.152522)
(-0.178458 -0.0704423 1.45847e-317 0.251199 -6.6509e-318 -0.0727412)
(-0.143959 -0.129572 1.25485e-317 0.179444 -3.85776e-318 -0.0354848)
(-0.135975 -0.188438 1.07515e-317 0.153385 -1.78834e-318 -0.0174108)
(-0.102582 -0.230025 9.39483e-318 0.111251 -3.447e-319 -0.00866894)
(-0.0882549 -0.270671 8.36697e-318 0.0920895 5.36101e-319 -0.0038346)
(-0.0604951 -0.297125 7.61099e-318 0.0616952 1.0565e-318 -0.0012001)
(-0.0476144 -0.320821 7.01174e-318 0.0467538 1.32548e-318 0.000860594)
(-0.0225596 -0.338537 6.49712e-318 0.0202857 1.42856e-318 0.00227391)
(-0.00853219 -0.349364 5.99586e-318 0.00474413 1.41522e-318 0.00378807)
(0.0235497 -0.359169 5.45077e-318 -0.0284749 1.31997e-318 0.00492523)
(0.0466616 -0.348736 4.81095e-318 -0.0529042 1.16586e-318 0.00624262)
(0.099509 -0.337918 4.02485e-318 -0.106828 9.69629e-319 0.00731906)
(0.140658 -0.271819 3.05738e-318 -0.149815 7.48322e-319 0.00915772)
(0.221749 -0.205917 1.8802e-318 -0.234447 5.15162e-319 0.0126987)
(0.280821 -0.0101132 4.9706e-319 -0.303544 2.83905e-319 0.0227229)
(0.344167 0.167371 -1.04201e-318 -0.393493 -7.33687e-321 0.0493253)
(0.362415 0.568503 -2.70573e-318 -0.481252 -6.60576e-319 0.118837)
(0.134052 0.909141 -4.3604e-318 -0.41057 -2.54777e-318 0.276518)
(-0.116581 -0.101788 2.60086e-317 0.391437 1.16018e-317 -0.274856)
(-0.158387 -0.110737 2.14785e-317 0.284353 3.16497e-318 -0.125966)
(-0.165465 -0.115583 1.6588e-317 0.224422 1.63317e-318 -0.0589564)
(-0.126066 -0.158204 1.29337e-317 0.154574 2.0894e-318 -0.0285078)
(-0.108367 -0.190466 1.02702e-317 0.122347 2.50848e-318 -0.0139802)
(-0.0713704 -0.222826 8.52914e-318 0.0784235 2.70968e-318 -0.00705316)
(-0.0583734 -0.248159 7.33816e-318 0.0615478 2.69924e-318 -0.00317435)
(-0.0333237 -0.267439 6.52691e-318 0.0343807 2.54811e-318 -0.00105703)
(-0.027017 -0.282594 5.92377e-318 0.0263199 2.30705e-318 0.000697114)
(-0.00868258 -0.29457 5.43589e-318 0.00675325 2.00848e-318 0.00192934)
(-0.00505029 -0.302748 4.98264e-318 0.00169965 1.67435e-318 0.00335064)
(0.0176676 -0.308909 4.5056e-318 -0.0221576 1.3192e-318 0.00449001)
(0.0256943 -0.304682 3.95074e-318 -0.0316333 9.58127e-319 0.00593905)
(0.0697305 -0.295694 3.26534e-318 -0.0770271 6.04534e-319 0.00729667)
(0.0900527 -0.253025 2.39213e-318 -0.0996878 2.83525e-319 0.00963504)
(0.177894 -0.200029 1.31391e-318 -0.191753 2.25541e-320 0.0138595)
(0.210046 -0.0542076 -5.7529e-320 -0.235079 -1.37251e-319 0.0250336)
(0.345672 0.108533 -1.53952e-318 -0.400012 -1.77404e-319 0.0543402)
(0.344529 0.460739 -3.28563e-318 -0.481811 -4.03904e-319 0.137282)
(0.335366 0.906154 -5.03256e-318 -0.713435 -1.65137e-318 0.378069)
(-0.100311 -0.134613 2.16767e-317 0.292065 -8.38959e-318 -0.191754)
(-0.059564 -0.204569 1.63114e-317 0.142373 -9.67863e-318 -0.0828091)
(-0.0813885 -0.23059 1.11107e-317 0.119432 -7.03764e-318 -0.0380431)
(-0.0479206 -0.262371 8.17992e-318 0.0662838 -4.22043e-318 -0.0183631)
(-0.0393753 -0.291662 6.255e-318 0.0484271 -2.58975e-318 -0.00905175)
(-0.0141647 -0.307589 5.12859e-318 0.0188415 -1.51701e-318 -0.00467678)
(-0.00594473 -0.324423 4.39213e-318 0.0080932 -8.36231e-319 -0.00214846)
(0.0105473 -0.333394 3.9113e-318 -0.00976773 -3.60421e-319 -0.000779585)
(0.0138281 -0.342627 3.55637e-318 -0.0142815 -1.29643e-320 0.000453365)
(0.0249801 -0.350623 3.26675e-318 -0.0262976 2.54953e-319 0.00131748)
(0.025846 -0.357187 2.99131e-318 -0.0282459 4.71353e-319 0.00239983)
(0.0395301 -0.366474 2.69587e-318 -0.0428109 6.53293e-319 0.00328076)
(0.0435163 -0.368523 2.3526e-318 -0.0479933 8.11088e-319 0.004477)
(0.0724823 -0.374703 1.9381e-318 -0.0781095 9.49792e-319 0.00562714)
(0.0879846 -0.355985 1.44568e-318 -0.0955751 1.06594e-318 0.00759049)
(0.150082 -0.341769 8.87668e-319 -0.161008 1.15005e-318 0.0109255)
(0.189817 -0.25371 3.25308e-319 -0.209277 1.17214e-318 0.01946)
(0.28184 -0.187336 -1.68778e-319 -0.323609 1.08101e-318 0.0417697)
(0.351802 0.0574042 -3.75604e-319 -0.458761 7.15699e-319 0.106959)
(0.164578 0.174428 -6.96978e-319 -0.45449 -2.6768e-319 0.289912)
(-0.00338163 -0.313776 2.26842e-317 0.0599973 2.81898e-317 -0.0566157)
(-0.0512196 -0.276416 1.64517e-317 0.0791456 1.60491e-317 -0.0279259)
(-0.0155651 -0.201448 9.57179e-318 0.0286518 1.11674e-317 -0.0130867)
(0.0127341 -0.217504 6.33253e-318 -0.00631258 8.32138e-318 -0.00642148)
(0.0263836 -0.194921 4.33415e-318 -0.0231662 6.83178e-318 -0.0032174)
(0.0506175 -0.207084 3.33696e-318 -0.0488763 5.69938e-318 -0.00174119)
(0.0519831 -0.199502 2.72696e-318 -0.0511598 4.82066e-318 -0.000823372)
(0.0634814 -0.20448 2.36616e-318 -0.0631365 4.03746e-318 -0.000344888)
(0.0587778 -0.200902 2.11705e-318 -0.0589332 3.32813e-318 0.000155424)
(0.0636046 -0.198973 1.93113e-318 -0.064091 2.66465e-318 0.000486388)
(0.0550773 -0.196818 1.76934e-318 -0.0560385 2.04488e-318 0.00096121)
(0.059832 -0.186631 1.60661e-318 -0.0611619 1.46776e-318 0.00132987)
(0.0488269 -0.184781 1.41989e-318 -0.050708 9.43181e-319 0.00188104)
(0.0639 -0.161884 1.18479e-318 -0.0662873 4.83913e-319 0.00238729)
(0.0523786 -0.159027 8.71463e-319 -0.055637 1.13057e-319 0.00325834)
(0.10331 -0.114715 4.73878e-319 -0.107893 -1.43714e-319 0.00458267)
(0.092013 -0.109362 -6.11307e-320 -0.0998998 -2.80921e-319 0.0078868)
(0.23845 -0.0306194 -5.78941e-319 -0.254939 -2.73772e-319 0.0164895)
(0.199096 -0.00877013 -1.12124e-318 -0.245346 -3.5093e-319 0.0462503)
(0.416927 0.276639 -1.62784e-318 -0.604834 -8.50317e-319 0.187908)
)
;

boundaryField
{
    cavity
    {
        type            mySigma;
    }
    lid
    {
        type            fixedValue;
        value           uniform (0.1 -0.3 0 -0.1 0 0);
    }
    frontAndBack
    {
        type            empty;
    }
}


// ************************************************************************* //
