/*--------------------------------*- C++ -*----------------------------------*\
| =========                 |                                                 |
| \\      /  F ield         | foam-extend: Open Source CFD                    |
|  \\    /   O peration     | Version:  3.0                                   |
|   \\  /    A nd           | Web:         http://www.extend-project.de       |
|    \\/     M anipulation  |                                                 |
\*---------------------------------------------------------------------------*/
FoamFile
{
    version     2.0;
    format      ascii;
    class       volScalarField;
    location    "4.4";
    object      Theta;
}
// * * * * * * * * * * * * * * * * * * * * * * * * * * * * * * * * * * * * * //

dimensions      [0 0 0 0 0 0 0];

internalField   nonuniform List<scalar> 
400
(
0.118031
0.0384213
0.0226382
0.00292706
0.00996132
0.0141222
0.0302961
0.0449058
0.0649744
0.0836543
0.104864
0.123439
0.143256
0.157074
0.171806
0.173532
0.176891
0.153287
0.132382
0.0515038
0.203067
0.137478
0.116718
0.0908983
0.087782
0.0806668
0.0841252
0.0850006
0.0906195
0.0940389
0.0996529
0.102306
0.106311
0.104938
0.105217
0.094705
0.0872025
0.058317
0.0336478
-0.0294497
0.169411
0.108882
0.0918941
0.070097
0.0705833
0.0665822
0.0734708
0.0771382
0.0861164
0.0924916
0.101822
0.107868
0.116305
0.118761
0.124065
0.117486
0.11456
0.0892397
0.0674099
0.00828267
0.163804
0.106266
0.0923488
0.072308
0.0747212
0.0710423
0.0781477
0.0809305
0.0890419
0.09403
0.102391
0.107388
0.115774
0.118233
0.125178
0.119794
0.120034
0.0959666
0.0765495
0.0170887
0.13221
0.0677757
0.0597703
0.0425297
0.0510229
0.0513367
0.0634444
0.0701444
0.0827927
0.0918836
0.105182
0.11493
0.129474
0.137528
0.152386
0.152594
0.161899
0.139273
0.125534
0.0490807
0.114773
0.0462111
0.0436397
0.0290792
0.0419408
0.044561
0.0590158
0.0669973
0.0809523
0.0910084
0.105788
0.117143
0.134627
0.145775
0.166232
0.170899
0.188539
0.167781
0.160099
0.0664641
0.0893564
0.0168428
0.0205575
0.00888853
0.0263566
0.0317656
0.0491663
0.0593709
0.0756674
0.0879429
0.105494
0.11982
0.141687
0.157247
0.185086
0.195273
0.223935
0.204677
0.206573
0.0869249
0.0684672
0.00205647
0.00994843
0.00219496
0.0214134
0.0284667
0.0461714
0.0567123
0.072732
0.0849464
0.102461
0.11731
0.140472
0.158269
0.190148
0.204949
0.241278
0.226098
0.23533
0.101956
0.0416521
-0.0121037
-6.64134e-05
-0.00330424
0.0165006
0.0249008
0.0421566
0.0527877
0.0680724
0.0799929
0.0970234
0.11205
0.135971
0.15557
0.191252
0.210431
0.255873
0.245226
0.267606
0.119532
0.0146075
-0.0159778
-0.00208883
0.000729563
0.0186678
0.0279814
0.0428227
0.0523866
0.0650146
0.0749887
0.0892047
0.102316
0.123756
0.142885
0.17753
0.199881
0.247259
0.245293
0.272705
0.135355
-0.0172251
-0.0193082
-0.00359919
0.00594147
0.0213669
0.0314894
0.043413
0.0515964
0.0610027
0.068478
0.0790777
0.0894176
0.107382
0.124968
0.158161
0.182904
0.2352
0.242676
0.288125
0.16121
-0.0498479
-0.0192588
-0.00162027
0.0159063
0.0283864
0.0394804
0.0477648
0.0540155
0.0591405
0.0630062
0.0683118
0.0741471
0.0856193
0.0993176
0.125175
0.150527
0.196081
0.217385
0.260927
0.180699
-0.0815997
-0.0173025
0.000503386
0.0262938
0.0356402
0.0478542
0.0524718
0.0566494
0.0572281
0.0570486
0.0565207
0.0570525
0.0614139
0.0700212
0.0891613
0.113831
0.159683
0.194468
0.263587
0.222585
-0.112549
-0.0186852
0.00469176
0.0388088
0.046964
0.060337
0.0615965
0.0633518
0.0590759
0.0541846
0.0469666
0.0409625
0.0359618
0.0372723
0.0435556
0.0649404
0.0943413
0.145313
0.198447
0.241542
-0.131925
-0.0101259
0.0111884
0.0537427
0.0594463
0.0741397
0.0718575
0.071112
0.061901
0.052131
0.0381247
0.0251655
0.0108498
0.00380313
-0.000877794
0.0151406
0.040027
0.104113
0.191155
0.298587
-0.145735
-0.00763153
0.0239236
0.0722484
0.0787027
0.0935384
0.0883235
0.0844991
0.0705825
0.0556784
0.0350007
0.0146009
-0.00990666
-0.0269522
-0.0476742
-0.0404751
-0.0407945
0.0346153
0.0820499
0.300772
-0.13553
0.0156905
0.0419427
0.0967229
0.100575
0.115561
0.106541
0.0995459
0.0808612
0.0610263
0.0339998
0.00636144
-0.0277079
-0.0553505
-0.089659
-0.0941655
-0.105146
-0.0254128
0.0572281
0.352793
-0.102587
0.0423479
0.077619
0.131069
0.133969
0.14561
0.133007
0.121789
0.0991274
0.0745688
0.0425834
0.00824161
-0.0340821
-0.07285
-0.122496
-0.142999
-0.183415
-0.111
-0.0971242
0.300362
-0.0416706
0.0907693
0.118206
0.171952
0.16977
0.178045
0.160599
0.145207
0.118499
0.0897949
0.0533553
0.013141
-0.0366441
-0.0862454
-0.149498
-0.188321
-0.247385
-0.190809
-0.166898
0.287907
0.0881476
0.175697
0.19553
0.233754
0.223296
0.22082
0.198745
0.177114
0.14863
0.116218
0.0791372
0.0344594
-0.0173762
-0.0774973
-0.148384
-0.213002
-0.293038
-0.288273
-0.334412
0.0947279
)
;

boundaryField
{
    cavity
    {
        type            implicitExtrapolation;
    }
    lid
    {
        type            implicitExtrapolation;
    }
    frontAndBack
    {
        type            empty;
    }
}


// ************************************************************************* //
