/*--------------------------------*- C++ -*----------------------------------*\
| =========                 |                                                 |
| \\      /  F ield         | foam-extend: Open Source CFD                    |
|  \\    /   O peration     | Version:  3.0                                   |
|   \\  /    A nd           | Web:         http://www.extend-project.de       |
|    \\/     M anipulation  |                                                 |
\*---------------------------------------------------------------------------*/
FoamFile
{
    version     2.0;
    format      ascii;
    class       volScalarField;
    location    "65";
    object      p;
}
// * * * * * * * * * * * * * * * * * * * * * * * * * * * * * * * * * * * * * //

dimensions      [0 0 0 0 0 0 0];

internalField   nonuniform List<scalar> 
2688
(
-0.236001394
-0.2166758231
-0.2051632268
-0.1919795355
-0.1847890972
-0.1754707794
-0.1710524819
-0.1643372916
-0.1617657033
-0.1568774156
-0.1555453483
-0.1519615779
-0.1514325154
-0.1487691989
-0.1486973263
-0.1466447653
-0.1467268564
-0.145010271
-0.144953559
-0.1433052868
-0.1428030425
-0.1409395005
-0.1396500616
-0.137250262
-0.2352596408
-0.2159977563
-0.2045235873
-0.1913833213
-0.1842177311
-0.1749302202
-0.1705281129
-0.1638351764
-0.1612739806
-0.1564018948
-0.1550763013
-0.1515043433
-0.1509790771
-0.1483244094
-0.1482545878
-0.1462085391
-0.1462917659
-0.1445805425
-0.1445250169
-0.142882113
-0.142382448
-0.1405256085
-0.1392416778
-0.1368513472
-0.2338434494
-0.2146984331
-0.2032943301
-0.1902343389
-0.1831128209
-0.1738824806
-0.1695077823
-0.1628564211
-0.1603116367
-0.1554701843
-0.1541538023
-0.1506046411
-0.15008415
-0.1474467238
-0.1473794152
-0.1453468694
-0.1454321238
-0.1437322344
-0.1436797575
-0.1420476433
-0.1415535163
-0.1397089127
-0.1384346154
-0.1360608058
-0.2316214862
-0.2126614497
-0.2013679071
-0.1884340129
-0.1813820767
-0.172240773
-0.1679094873
-0.1613221215
-0.1588032818
-0.1540081771
-0.1527059489
-0.1491904663
-0.1486763322
-0.1460635968
-0.1459979872
-0.1439841828
-0.1440692894
-0.142384986
-0.1423333793
-0.1407165127
-0.1402274996
-0.1384009321
-0.1371399697
-0.1347907302
-0.2287440867
-0.2100204978
-0.1988683408
-0.1860964217
-0.1791332928
-0.1701070848
-0.1658308916
-0.1593270475
-0.1568409345
-0.152107204
-0.1508228747
-0.147352938
-0.1468473098
-0.1442689038
-0.1442066734
-0.1422196537
-0.1423066308
-0.1406447642
-0.1405967756
-0.1390010702
-0.1385205454
-0.1367172417
-0.1354731628
-0.1331542385
-0.2250704788
-0.2066506799
-0.1956797507
-0.1831148459
-0.1762652676
-0.1673851353
-0.1631791815
-0.1567802772
-0.154335531
-0.149677789
-0.1484153775
-0.1450006974
-0.1445042556
-0.1419664704
-0.1419060167
-0.1399499942
-0.1400360788
-0.1384001296
-0.1383532785
-0.1367828528
-0.1363105384
-0.1345365727
-0.1333136038
-0.1310336856
-0.2207677612
-0.2027010295
-0.1919410636
-0.1796178122
-0.1729006029
-0.1641920279
-0.1600680326
-0.1537935003
-0.1513972004
-0.146830742
-0.1455944245
-0.142247394
-0.1417627228
-0.1392758608
-0.1392191815
-0.1373028762
-0.1373902054
-0.1357876074
-0.1357445803
-0.1342057508
-0.1337448949
-0.1320054705
-0.1308068793
-0.1285697312
-0.2156890358
-0.1980410805
-0.1875307398
-0.1754928337
-0.1689317702
-0.1604245138
-0.1563968149
-0.1502669174
-0.1479270535
-0.1434653702
-0.1422586964
-0.1389879353
-0.1385154729
-0.1360847992
-0.1360303207
-0.1341570415
-0.1342431563
-0.132676694
-0.1326355087
-0.13113207
-0.1306828651
-0.1289843698
-0.1278144283
-0.125630033
-0.2100147856
-0.1928321018
-0.1825996318
-0.1708800213
-0.1644931572
-0.156211731
-0.1522917078
-0.1463254117
-0.144048929
-0.139707214
-0.1385342592
-0.1353523083
-0.1348944164
-0.1325305155
-0.132479769
-0.1306585266
-0.1307448101
-0.1292221137
-0.129184569
-0.1277229799
-0.1272883117
-0.1256363841
-0.1245000777
-0.1223723386
-0.2035952169
-0.1869410126
-0.1770234385
-0.1656639265
-0.1594738974
-0.1514465418
-0.1476477643
-0.1418640455
-0.1396585057
-0.1354491196
-0.1343133558
-0.1312278148
-0.1307852282
-0.1284924324
-0.1284445077
-0.1266777505
-0.1267626656
-0.1252856843
-0.1252506685
-0.1238337922
-0.1234140575
-0.121814003
-0.1207143324
-0.118653721
-0.1966204075
-0.1805378657
-0.1709615593
-0.1599929783
-0.1540167332
-0.1462666071
-0.142599776
-0.1370167731
-0.1348886236
-0.1308263078
-0.1297312995
-0.1267545257
-0.1263289226
-0.124117789
-0.124073242
-0.1223699617
-0.1224535461
-0.1210296864
-0.1209972274
-0.1196307548
-0.1192265373
-0.117682292
-0.1166211835
-0.1146302053
-0.1889411923
-0.1734901552
-0.1642900654
-0.1537518117
-0.148010662
-0.1405641971
-0.1370421153
-0.1316773901
-0.1296339061
-0.1257298747
-0.1246792724
-0.1218179009
-0.1214106595
-0.1192846873
-0.1192436773
-0.117605585
-0.1176876674
-0.1163181779
-0.116288567
-0.1149746075
-0.1145874325
-0.113103548
-0.1120848868
-0.1101742614
-0.1807531187
-0.1659729875
-0.1571732632
-0.1470936562
-0.1416031491
-0.1344817946
-0.1311142124
-0.1259847418
-0.124031616
-0.1202998475
-0.1192964623
-0.1165623893
-0.1161742947
-0.1141437977
-0.1141057728
-0.1125417548
-0.1126210568
-0.1113133011
-0.1112851333
-0.110029297
-0.109658344
-0.1082385473
-0.1072630915
-0.1054352249
-0.1719113185
-0.1578577373
-0.1494908206
-0.1399063566
-0.1346862767
-0.1279143787
-0.1247132743
-0.1198350764
-0.117979332
-0.1144298651
-0.113477615
-0.1108765551
-0.1105097402
-0.1085774889
-0.1085437948
-0.1070549969
-0.1071328627
-0.1058876937
-0.1058629439
-0.1046671654
-0.1043155677
-0.1029643754
-0.1020370578
-0.1003012843
-0.1626125279
-0.1493206996
-0.1414082124
-0.1323443426
-0.1274085938
-0.1210055713
-0.1179795536
-0.1133681441
-0.1116145777
-0.1082603464
-0.1073612071
-0.1049043379
-0.1045586992
-0.1027345678
-0.1027036885
-0.1012988461
-0.1013730514
-0.1001980202
-0.1001745684
-0.09904499611
-0.0987116776
-0.09743342052
-0.09655510901
-0.09491266966
-0.1527198176
-0.1402404091
-0.1328118714
-0.1243017272
-0.1196683457
-0.1136561943
-0.1108163009
-0.1064860249
-0.1048413366
-0.1016911687
-0.1008492488
-0.09854139099
-0.09821968359
-0.09650576408
-0.09648000743
-0.09515973911
-0.09523282408
-0.09412841791
-0.09410954741
-0.09304799876
-0.09273730022
-0.09153652011
-0.09071265698
-0.08917164643
-0.1424268388
-0.1307904913
-0.1238647426
-0.1159305972
-0.1116116593
-0.1060074863
-0.1033610692
-0.09932571398
-0.09779376297
-0.0948592831
-0.09407576688
-0.09192711321
-0.09162849303
-0.09003396829
-0.09001111646
-0.08878378683
-0.08885294037
-0.08782669359
-0.08780996958
-0.08682288055
-0.08653384227
-0.08541510352
-0.08464695889
-0.08320707819
-0.1316080869
-0.1208597728
-0.1144630165
-0.1071342065
-0.103145767
-0.09796897109
-0.09552596733
-0.09179808519
-0.09038509728
-0.08767389187
-0.08695287424
-0.08496736833
-0.08469489062
-0.08322117277
-0.08320399563
-0.08206959377
-0.08213781977
-0.08118957038
-0.08117857634
-0.08026715976
-0.08000408446
-0.07897157113
-0.07826405348
-0.07693378257
-0.1204499841
-0.1106154753
-0.1047635612
-0.09805891771
-0.0944110935
-0.08967622828
-0.08744267996
-0.08403409281
-0.08274302443
-0.08026516077
-0.07960717201
-0.07779375177
-0.07754607507
-0.07620134931
-0.0761872405
-0.07515336907
-0.07521755605
-0.07435425728
-0.07434635876
-0.07351652959
-0.07327845204
-0.07233610556
-0.07169085053
-0.07046884813
-0.1088416642
-0.09995959882
-0.09467505163
-0.08861973085
-0.08532636454
-0.08105001265
-0.07903457549
-0.07595594423
-0.0747923544
-0.07255416953
-0.07196302669
-0.07032480363
-0.07010489304
-0.06888993307
-0.06888155746
-0.06794753322
-0.06801034334
-0.06723094074
-0.06722889671
-0.06648073992
-0.06627047745
-0.06542166578
-0.06484178743
-0.06373882679
-0.09695842442
-0.08904945217
-0.08434497014
-0.07895414311
-0.07602330241
-0.07221726125
-0.07042465716
-0.06768563505
-0.06665166224
-0.06466144803
-0.06413722441
-0.06268163828
-0.06248796304
-0.06140966565
-0.06140440785
-0.06057668801
-0.0606350769
-0.05994541584
-0.05994664305
-0.05928486731
-0.05910156269
-0.05834892001
-0.05783667136
-0.05685038337
-0.08470689138
-0.07780276131
-0.07369686954
-0.06899117911
-0.06643428249
-0.06311213284
-0.06154956215
-0.05915884616
-0.05825919212
-0.05652205967
-0.05606804588
-0.05479748379
-0.05463259208
-0.05369127684
-0.0536912918
-0.05296875788
-0.05302456089
-0.0524228966
-0.0524287149
-0.05185226295
-0.0516963598
-0.0510420676
-0.05059747815
-0.04974126771
-0.07224767153
-0.06636371675
-0.06286584121
-0.05885662671
-0.05667963279
-0.0538502533
-0.05252112938
-0.05048603848
-0.04972212606
-0.04824441478
-0.04786043909
-0.04678064807
-0.04664314633
-0.0458442031
-0.04584729774
-0.04523503209
-0.04528579583
-0.04477668598
-0.04478517959
-0.04429752571
-0.04416900479
-0.04361452542
-0.04324129534
-0.042511093
-0.05950730853
-0.05466792978
-0.05179232836
-0.04849544432
-0.04670716938
-0.04438098933
-0.04329091087
-0.04161812915
-0.04099364752
-0.03977928982
-0.03946793349
-0.03858073799
-0.03847256433
-0.03781618159
-0.03782386021
-0.03732085145
-0.03736760284
-0.03694937942
-0.03696070739
-0.03656040215
-0.03645771733
-0.03600385683
-0.03569835811
-0.03510688515
-0.046628566
-0.04284364181
-0.0405963823
-0.03801921118
-0.03662346287
-0.03480632002
-0.03395740466
-0.03265179012
-0.03216753053
-0.03122077669
-0.03098179194
-0.03029109369
-0.03021125128
-0.0297011489
-0.02971199702
-0.0293218342
-0.02936318133
-0.02903919431
-0.02905271345
-0.02874255506
-0.02866721369
-0.02831551595
-0.02808348962
-0.0276265223
-0.0335598345
-0.03084606092
-0.02923692803
-0.02739032294
-0.02639318298
-0.02509224027
-0.02448838213
-0.02355457038
-0.02321310915
-0.0225367578
-0.02237191428
-0.02187912756
-0.02182887048
-0.02146542505
-0.02148033507
-0.02120269466
-0.02123919988
-0.02100882506
-0.02102456343
-0.02080409769
-0.02075475182
-0.02050554556
-0.02034247035
-0.02002525855
-0.02042336106
-0.01878508342
-0.01781673287
-0.01670404115
-0.01610713327
-0.01532510654
-0.01496712401
-0.01440742498
-0.01420895573
-0.01380506677
-0.01371411303
-0.01342116489
-0.01339999399
-0.01318508566
-0.01320352479
-0.01304030016
-0.01307165481
-0.01293685367
-0.01295511199
-0.01282645994
-0.01280468938
-0.01266019046
-0.01256981997
-0.01239142225
-0.007190773195
-0.00663673257
-0.006314336619
-0.005941261233
-0.005747852136
-0.00548855543
-0.005378587705
-0.005195555785
-0.005141505692
-0.005011758372
-0.004995627527
-0.004903591439
-0.004912071922
-0.004846400951
-0.00486869458
-0.0048204675
-0.004846985142
-0.004808557506
-0.004830112218
-0.004794766503
-0.004802758005
-0.00476547844
-0.004752773483
-0.004713129763
0.006038332517
0.005509345064
0.005186567058
0.004820745372
0.004611243598
0.004348254328
0.004210716479
0.004017364848
0.003927430998
0.003783228392
0.003724837023
0.003616106038
0.003578058911
0.003494624069
0.00346830196
0.00340166814
0.003379634985
0.003321844123
0.003296870974
0.003239185776
0.003202836782
0.003133643299
0.00307440774
0.002974680395
0.01926829449
0.01765563001
0.01668718752
0.01558199864
0.01496916043
0.01418347171
0.01379803947
0.0132278652
0.01299363888
0.01257495306
0.01244189083
0.01213169559
0.01206415367
0.01183067903
0.01180059138
0.01161787276
0.01160056718
0.01144507165
0.01141635785
0.01126415504
0.01119745769
0.01102136727
0.01088528829
0.01065320615
0.03242369836
0.02973408465
0.02812418898
0.02628440261
0.02527104904
0.02396625728
0.02333481804
0.02239069574
0.02201333073
0.02132260958
0.02111536981
0.02060594583
0.02050878718
0.02012745979
0.02009298968
0.01979643394
0.0197830653
0.01953220835
0.01949951595
0.01925515255
0.01915984912
0.0188786392
0.01867114487
0.01830213251
0.04548468636
0.04172558795
0.03947842945
0.03690882379
0.03549734463
0.03367645719
0.03280031708
0.03148395668
0.03096416984
0.03000208492
0.02972117014
0.02901230163
0.02888608128
0.02835592089
0.02831780697
0.02790586342
0.02789730818
0.02754937225
0.02751342761
0.02717582962
0.02705186798
0.02666664108
0.02638631957
0.02588847361
0.05840090199
0.05358447734
0.0507076608
0.04741699194
0.04561244991
0.0432821601
0.0421646448
0.0404814554
0.03982124408
0.0385924325
0.03823872935
0.03733464995
0.03717930872
0.03650441146
0.03646188305
0.03593865679
0.03593384891
0.03549291071
0.03545305451
0.03502590719
0.03487405162
0.03438701978
0.03403677942
0.03340641388
0.07112880244
0.06527053122
0.06177285866
0.0577711004
0.05557862977
0.05274535309
0.05138936867
0.04934323796
0.04854420387
0.04705062019
0.04662508197
0.04552619764
0.04534251236
0.04452206165
0.04447602347
0.04383988843
0.04383999656
0.04330427686
0.04326191018
0.04274433591
0.04256603075
0.04197875787
0.04156000244
0.04080385737
0.08364326702
0.07676059934
0.07265299707
0.06795278011
0.06537967077
0.06205309303
0.06046345393
0.058062213
0.05712732623
0.05537565827
0.0548797804
0.05359213176
0.05338039543
0.05242011532
0.05236995904
0.05162646329
0.0516303971
0.05100514149
0.05095926709
0.05035569902
0.05015071307
0.04946579759
0.04897945692
0.04809610208
0.09587826928
0.08799448147
0.08329022997
0.07790660276
0.07496062732
0.0711505247
0.06933162039
0.06658135389
0.06551294143
0.06350651449
0.0629414736
0.06146624998
0.0612271504
0.06012661661
0.06007300848
0.05922070287
0.05922940217
0.0585129411
0.05846492575
0.05777462064
0.05754485873
0.05676405998
0.05621300209
0.05520912501
0.1078333812
0.0989710312
0.09368426824
0.08763357822
0.08432420494
0.08004310358
0.0780012567
0.07491205298
0.07371415846
0.07146151322
0.07082960379
0.06917439756
0.06890885557
0.06767508689
0.0676179228
0.06666338781
0.06667613004
0.06587444216
0.06582344485
0.06505125166
0.06479632239
0.06392248751
0.06330721495
0.06218250287
0.119421984
0.1096118061
0.1037600988
0.09706227967
0.09339979035
0.08866074379
0.08640171026
0.08298185583
0.08165738723
0.07916330905
0.07846572914
0.07663268767
0.0763410227
0.07497424174
0.07491358372
0.07385585701
0.07387289203
0.0729847246
0.07293145403
0.07207695552
0.07179812116
0.07083309903
0.0701555406
0.06891691706
0.1306670875
0.1199365196
0.113537065
0.1062119795
0.1022079268
0.09702610484
0.09455768434
0.09081931492
0.08937343118
0.08664807204
0.08588804007
0.0838860185
0.08356999285
0.08207817462
0.08201472926
0.08086106865
0.08088246353
0.07991425981
0.07985867313
0.07892716418
0.0786250508
0.07757249233
0.07683499994
0.07548303084
0.1414640181
0.1298508002
0.1229252086
0.1149974199
0.1106644538
0.1050560667
0.1023852841
0.09833887359
0.09677496691
0.09382465202
0.0930032589
0.09083553199
0.09049491541
0.0888791843
0.08881217433
0.08756244005
0.08758750194
0.08653885339
0.08648084093
0.08547283015
0.08514825689
0.0840110527
0.08321571546
0.08175834562
0.1518573018
0.1393934828
0.1319618154
0.1234544592
0.1188060708
0.1127886957
0.1099247305
0.1055842157
0.1039085175
0.1007447398
0.0998661485
0.0975425306
0.09718001997
0.09544897218
0.0953800826
0.09404186005
0.09407166665
0.09294913301
0.09288962079
0.09181044166
0.09146479727
0.09024665432
0.08939600649
0.08783368055
0.161727327
0.1484570906
0.1405447103
0.1314866595
0.1265377227
0.1201305672
0.1170816502
0.1124596523
0.1106760138
0.1073066949
0.1063718681
0.1038968999
0.1035116727
0.10166754
0.1015950763
0.1001692995
0.1002021099
0.09900638735
0.09894436245
0.09779564788
0.09742936292
0.09613420106
0.09523087318
0.09357192737
0.1711376211
0.1570973206
0.1487269148
0.1391442994
0.1339100423
0.1271328223
0.1239093407
0.1190213253
0.1171369068
0.1135745954
0.11258853
0.1099726842
0.1095683027
0.1076199897
0.1075465932
0.1060408582
0.106078772
0.1048162189
0.1047535635
0.1035403642
0.103155453
0.1017868081
0.1008332825
0.09907887751
0.179957218
0.1651968213
0.1563971746
0.1463227967
0.1408201747
0.1336948956
0.1303062641
0.1251669281
0.1231860962
0.1194403331
0.1184039669
0.1156531396
0.1152283094
0.1131792842
0.1131024502
0.1115189016
0.1115591949
0.110231713
0.1101665082
0.1088915801
0.1084879937
0.1070506297
0.1060498671
0.1042082989
0.1882656649
0.1728254833
0.1636216312
0.1530843035
0.1473300287
0.1398782508
0.1363358205
0.1309618697
0.1288924682
0.1249765711
0.123895486
0.1210205271
0.1205794303
0.1184386415
0.1183617412
0.1167077535
0.1167533598
0.1153669269
0.1153018831
0.1139699135
0.1135502722
0.112047683
0.1110023475
0.109075936
0.1959245463
0.1798595846
0.1702833636
0.1593193818
0.1533323476
0.145578634
0.1418930183
0.1363011176
0.1341481633
0.1300732732
0.1289486074
0.1259568006
0.1254979571
0.123270157
0.1231901853
0.1214691444
0.1215166437
0.120074356
0.1200068613
0.1186216599
0.1181855163
0.1166231734
0.1155364381
0.1135333022
0.2030261217
0.1863802662
0.1764587487
0.1650992697
0.1588973776
0.1508648221
0.1470480322
0.141255835
0.1390275226
0.1348074504
0.1336449988
0.1305473219
0.1300751262
0.1277691032
0.1276897402
0.1259086642
0.1259614355
0.1244688512
0.1244021566
0.1229681313
0.1225186124
0.1209001845
0.1197750549
0.1176988435
0.2094285822
0.1922610564
0.1820287258
0.1703130509
0.1639169831
0.1556324247
0.1516963108
0.145722302
0.1434244902
0.1390719123
0.1378733364
0.1346784345
0.1341916471
0.1318134083
0.1317316393
0.1298950927
0.129949521
0.1284108255
0.1283420745
0.1268639599
0.1264005477
0.1247320788
0.1235720528
0.1214304882
0.2152334517
0.197591292
0.1870769193
0.1750381893
0.1684667149
0.1599544632
0.1559113572
0.1497738512
0.1474146983
0.1429436641
0.1417145158
0.1384332824
0.137935982
0.1354940057
0.1354132411
0.1335278204
0.1335871529
0.1320075225
0.1319400151
0.1304220832
0.1299480986
0.1282336521
0.1270420008
0.1248402619
0.2202995359
0.2022453116
0.1914855871
0.1791655765
0.1724409995
0.1637298448
0.1595928719
0.1533119834
0.150898404
0.1463230142
0.1450658507
0.141708212
0.1411999083
0.1387013626
0.138619182
0.1366904885
0.1367515534
0.1351360699
0.1350673029
0.1335150185
0.1330303696
0.1312764514
0.1300573476
0.1278026024
0.2247342175
0.2063176508
0.1953426893
0.1827761464
0.1759177749
0.1670329271
0.1628143956
0.1564088316
0.1539485496
0.1492828677
0.1480025174
0.1445791095
0.144062989
0.1415159335
0.1414348162
0.1394689924
0.1395342027
0.1378877009
0.1378203562
0.1362379413
0.135745608
0.1339567642
0.1327134272
0.1304125466
0.2284006884
0.2096867836
0.1985350083
0.1857656088
0.1787971694
0.169769005
0.1654833244
0.1589745941
0.1564757716
0.1517351651
0.1504354416
0.1469573469
0.14643418
0.1438468054
0.1437655481
0.1417690397
0.1418363234
0.1401645169
0.140097027
0.1384903992
0.1379911394
0.1361742649
0.1349118969
0.1325719565
0.2314090134
0.212449671
0.2011521784
0.1882158903
0.1811569159
0.1720112405
0.1676703816
0.1610773437
0.158546914
0.1537452752
0.1524298501
0.148907317
0.1483788668
0.1457587424
0.1456782656
0.1436567444
0.1437269887
0.1420343802
0.1419681238
0.1403414072
0.1398372876
0.1379971703
0.1367185684
0.1343474781
0.2336301143
0.2144918463
0.2030882861
0.1900300839
0.1829054797
0.173673849
0.1692934572
0.1626387336
0.1600862272
0.1552399881
0.1539142125
0.1503593197
0.1498280469
0.147184234
0.1471050945
0.1450656649
0.145138467
0.1434311324
0.1433658932
0.1417250663
0.1412176909
0.1393612666
0.1380721804
0.1356783085
0.2351739624
0.2159102959
0.2044323844
0.1912890611
0.1841183033
0.1748268333
0.1704182892
0.1637206871
0.1611519808
0.1562747246
0.1549407983
0.1513633256
0.1508291822
0.1481687301
0.1480898283
0.1460377079
0.1461119361
0.1443940906
0.144329542
0.1426786355
0.1421691124
0.1403011549
0.1390046339
0.1365954774
0.2359219721
0.2165999996
0.2050880774
0.1919052805
0.1847141532
0.175395133
0.1709751863
0.1642581102
0.1616841113
0.1567930833
0.1554580335
0.1518708637
0.1513382661
0.148670962
0.148594992
0.1465378339
0.1466151815
0.1448931454
0.1448306897
0.1431754564
0.1426656927
0.1407923087
0.1394917627
0.1370760146
0.2359817714
0.2166560521
0.2051421012
0.1919570506
0.1847647384
0.1754443327
0.1710236077
0.1643056524
0.1617310431
0.1568394334
0.1555038458
0.1519162628
0.1513831811
0.1487155686
0.1486392053
0.1465818304
0.1466589473
0.1449367969
0.1448743677
0.1432191573
0.1427098856
0.1408368146
0.1395376769
0.1371228172
0.2352473376
0.215984637
0.2045091304
0.191367508
0.1842003154
0.1749110659
0.1705071871
0.1638121597
0.1612490891
0.1563746505
0.1550471758
0.1514726282
0.1509454653
0.1482878992
0.1482161028
0.1461666652
0.1462476074
0.1445320386
0.1444731792
0.1428239883
0.1423185531
0.1404521297
0.1391579968
0.1367534059
0.2338223208
0.2146775929
0.2032724333
0.1902114856
0.1830881238
0.1738560071
0.169478773
0.1628249398
0.1602769047
0.1554324053
0.1541120732
0.1505593752
0.1500341968
0.1473927605
0.1473200441
0.1452829923
0.1453621828
0.1436570782
0.1435977393
0.1419589587
0.1414566971
0.1396027646
0.1383182924
0.1359304949
0.2316145797
0.2126533903
0.2013586127
0.1884234155
0.1813702959
0.1722275991
0.1678951796
0.1613063239
0.158786429
0.1539897611
0.1526865811
0.1491694383
0.1486543876
0.1460397703
0.1459731458
0.1439570006
0.1440407151
0.142353113
0.1422989961
0.1406768644
0.140182918
0.1383478049
0.1370776981
0.1347152541
0.2287227897
0.2099998129
0.1988469042
0.1860743288
0.1791095572
0.1700818545
0.1658032465
0.1592972312
0.1568079391
0.1520714751
0.1507831755
0.1473100172
0.1467995829
0.1442174992
0.1441496687
0.1421585385
0.1422392631
0.1405727541
0.1405179099
0.138916578
0.1384285713
0.1366179204
0.1353653732
0.133035171
0.2250692623
0.2066480415
0.1956760298
0.1831099169
0.1762595584
0.16737836
0.1631718662
0.156771987
0.1543269368
0.1496682815
0.1484057714
0.14499017
0.1444937262
0.1419548609
0.1418943376
0.1399368401
0.1400225073
0.1383842667
0.1383360275
0.1367617742
0.136286219
0.1345060346
0.1332765686
0.1309857265
0.220747309
0.2026815315
0.1919211561
0.179597596
0.1728790575
0.1641693357
0.16004325
0.1537669225
0.1513678116
0.1467990146
0.1455591422
0.142209289
0.1417202926
0.1392301592
0.1391684521
0.1372484818
0.1373302512
0.1357236086
0.1356746293
0.1341313116
0.1336644547
0.1319201965
0.1307158231
0.1284719381
0.2156935825
0.1980440055
0.1875327361
0.1754937331
0.1689322617
0.1604242324
0.1563965238
0.1502660758
0.147926562
0.1434644732
0.1422584454
0.1389873203
0.138515674
0.1360845137
0.1360308472
0.1341567239
0.1342433514
0.1326752974
0.1326337419
0.1311274582
0.1306765218
0.1289737969
0.1278004566
0.1256095078
0.209996155
0.1928147519
0.182582247
0.1708626975
0.1644749278
0.1561927646
0.1522711658
0.146303535
0.1440248921
0.1396813393
0.1385056551
0.1353214099
0.1348602362
0.1324936138
0.1324391196
0.1306147762
0.130696951
0.1291707541
0.1291286778
0.1276631052
0.1272236019
0.1255676945
0.1244266274
0.122296569
0.2036053394
0.1869493863
0.1770310424
0.1656705558
0.1594804568
0.1514525915
0.1476542607
0.1418703397
0.1396656928
0.1354562968
0.1343217956
0.1312363229
0.1307952578
0.1285024623
0.128456169
0.1266891348
0.1267754819
0.1252975255
0.1252630338
0.1238438209
0.123422999
0.1218191104
0.1207163458
0.118652443
0.196604486
0.1805235034
0.1709475556
0.1599794108
0.1540027675
0.1462523648
0.1425846183
0.1370008229
0.1348713778
0.1308078418
0.1297112365
0.1267328661
0.1263054541
0.1240924093
0.124045981
0.1223405811
0.1224223003
0.1209961273
0.1209616072
0.1195924779
0.1191858444
0.1176390691
0.1165754118
0.1145854395
0.1889564601
0.1735036214
0.1643029328
0.1537638461
0.1480229318
0.1405762044
0.1370549492
0.1316903203
0.129648152
0.1257444338
0.124695558
0.1218346201
0.1214294503
0.1193039706
0.1192653328
0.1176277577
0.1177123743
0.1163432491
0.1163158365
0.115001621
0.1146157534
0.1131307991
0.1121120409
0.1102009099
0.180740644
0.1659622831
0.1571633077
0.147084503
0.1415941488
0.1344730109
0.1311052506
0.1259755934
0.1240221413
0.1202898672
0.1192861516
0.1165513315
0.116163076
0.1141317432
0.1140939731
0.112529332
0.1126095447
0.1113017019
0.1112750852
0.1100198761
0.1096510442
0.1082328571
0.1072597045
0.105434499
0.1719310889
0.1578757299
0.1495084048
0.1399232813
0.1347037177
0.1279318096
0.1247318449
0.1198540239
0.117999899
0.1144510296
0.1135007863
0.1109004712
0.110536023
0.1086047239
0.1085738565
0.1070864758
0.107167822
0.1059248571
0.1059043094
0.1047116517
0.1043650136
0.103017594
0.1020951817
0.1003607241
0.1626040452
0.1493141199
0.1414027444
0.1323400178
0.1274049717
0.1210026686
0.1179772119
0.1133662546
0.1116133118
0.1082593393
0.1073610645
0.1049043558
0.1045600402
0.1027362057
0.1027074369
0.1013035301
0.1013810603
0.1002083047
0.1001897234
0.09906445338
0.09873783304
0.09746611961
0.09659548092
0.09495777676
0.1527432716
0.1402621854
0.1328334569
0.1243228689
0.119690274
0.1136783924
0.1108399059
0.1065103058
0.1048674449
0.1017181574
0.1008783412
0.09857148538
0.09825210631
0.09653943063
0.09651638581
0.09519805236
0.09527466143
0.09417358893
0.09415963354
0.0931035489
0.09279995108
0.09160693601
0.09079203449
0.0892559539
0.1424226744
0.1307882778
0.1238639527
0.1159312488
0.1116135193
0.1060105523
0.1033653696
0.09933110579
0.09780060504
0.09486714883
0.09408545524
0.09193782784
0.09164157633
0.09004829636
0.09002863869
0.08880328198
0.08887687302
0.08785412861
0.08784353357
0.08686249454
0.0865819464
0.08547273987
0.08471538548
0.08328564752
0.1316342632
0.1208844442
0.114487745
0.1071587549
0.1031713756
0.0979951769
0.09555383282
0.09182698419
0.09041599235
0.08770601245
0.08698709665
0.08500286996
0.08473244166
0.08326011207
0.08324498334
0.08211245676
0.08218309773
0.08123789991
0.08123037947
0.08032419838
0.08006709826
0.07904343794
0.07834598401
0.07702747206
0.1204502308
0.1106176347
0.1047673854
0.09806442284
0.09441823413
0.08968502174
0.08745326821
0.08404638666
0.0827574157
0.08028132067
0.07962581652
0.0778142351
0.07756948218
0.07622675486
0.07621610239
0.07518467318
0.07525301046
0.0743931113
0.07439025631
0.07356575711
0.07333449953
0.07240171286
0.07176698181
0.07056313102
0.1088694887
0.09998615668
0.09470194268
0.08864675115
0.08535473017
0.08107935989
0.0790658532
0.0759887072
0.07482732205
0.07259085613
0.07200187926
0.07036540773
0.07014733404
0.06893407773
0.06892706108
0.06799481111
0.06805859632
0.06728136345
0.0672803537
0.06653560085
0.06632817603
0.06548674821
0.06491540328
0.06383088718
0.09696294216
0.0890557611
0.08435309972
0.07896412076
0.07603524053
0.0722312368
0.07044085172
0.06770410425
0.06667268921
0.06468497226
0.06416364512
0.06271073329
0.06252021867
0.06144473105
0.06144279986
0.06061803409
0.06067978404
0.05999329061
0.05999773073
0.05933990621
0.05916043827
0.05841564941
0.05791128181
0.05694845378
0.0847352066
0.07783010261
0.07372483669
0.06901961718
0.06646435814
0.06314362105
0.06158328434
0.05919460572
0.05829746577
0.05656274736
0.05611118788
0.054843209
0.05468035922
0.05374164134
0.05374301902
0.0530230145
0.05307940046
0.05248015734
0.05248596292
0.05191220229
0.05175731561
0.05110876482
0.05067081606
0.04983376127
0.07225610087
0.066373739
0.06287774657
0.05887046361
0.05669564003
0.05386859724
0.052541973
0.05050965288
0.04974858861
0.04827407276
0.04789323417
0.0468170244
0.0466828182
0.04588778133
0.04589418469
0.045286069
0.04533997231
0.04483509059
0.04484625672
0.0443629793
0.04423709639
0.04368941338
0.04332146553
0.04261179183
0.05953490578
0.05469488545
0.05182019795
0.04852413257
0.04673777128
0.04441344335
0.04332591458
0.0416557748
0.04103421065
0.03982311514
0.03951475624
0.03863131377
0.03852592217
0.03787368999
0.03788373392
0.03738521353
0.03743388531
0.03702037393
0.03703338208
0.03663800768
0.03653803421
0.03609058141
0.03579176289
0.03521252544
0.04664035441
0.0428567572
0.04061134767
0.03803609884
0.03664261094
0.03482799262
0.03398171413
0.03267924801
0.03219797002
0.03125500973
0.03101926563
0.03033302954
0.03025657771
0.02975164124
0.02976599215
0.02938174239
0.02942675393
0.02910935039
0.0291266984
0.02882358792
0.02875249375
0.02840850088
0.02818134946
0.0277337666
0.03358549344
0.03087143214
0.02926346715
0.0274179974
0.02642298972
0.02512428319
0.02452324243
0.02359262423
0.02325448534
0.02258222614
0.0224210287
0.02193322502
0.02188677384
0.02152923734
0.02154807127
0.02127733077
0.02131802162
0.02109548265
0.02111593544
0.02090395213
0.02086052674
0.02061978009
0.02046405205
0.0201497748
0.02043779813
0.01880052527
0.01783389926
0.01672302226
0.01612834702
0.01534889544
0.01499354767
0.01443719933
0.01424169074
0.01384197985
0.013754212
0.0134663538
0.01344851921
0.01323973774
0.01326173937
0.01310582659
0.01314124494
0.01301491024
0.01303807028
0.01291855638
0.0129029924
0.01276674939
0.01268313055
0.01250323374
0.007213311757
0.006659338704
0.006338297313
0.005966600946
0.00577543435
0.005518625719
0.005411610516
0.005232135757
0.005181667329
0.005056589113
0.005044597627
0.004958427853
0.004971554725
0.004913041649
0.00494052662
0.004900778713
0.004933116862
0.004904145278
0.004931945777
0.004905823623
0.004919629293
0.004888458167
0.004877830297
0.004832375888
-0.006022074168
-0.00549244668
-0.005168153297
-0.004800722951
-0.004589125383
-0.00432366551
-0.004183623277
-0.00398694084
-0.003894214068
-0.003745762426
-0.003684417664
-0.00357042509
-0.003529352133
-0.003439534528
-0.003410054566
-0.003335879585
-0.003310361041
-0.003244261607
-0.003215427065
-0.00315005389
-0.003109761734
-0.003036709136
-0.002975695737
-0.002885736389
-0.01924995967
-0.01763689108
-0.0166670049
-0.01556030416
-0.01494526868
-0.01415704054
-0.0137687337
-0.01319494595
-0.01295716454
-0.01253368444
-0.01239638292
-0.01208009797
-0.01200763405
-0.01176672187
-0.01173102488
-0.01153967753
-0.0115162164
-0.01135168795
-0.01131703499
-0.01115737405
-0.01108667143
-0.01090815609
-0.01077368298
-0.0105497704
-0.03240651964
-0.02971665677
-0.0281055251
-0.02626442722
-0.02524920818
-0.02394220841
-0.02330850193
-0.0223613078
-0.02198143566
-0.0212867433
-0.02107692447
-0.02056257359
-0.02046290508
-0.02007567413
-0.02003880238
-0.01973551872
-0.0197198655
-0.01946219701
-0.0194276629
-0.01917825667
-0.01908227451
-0.01880090419
-0.01859585625
-0.01823731083
-0.04547147198
-0.04171167005
-0.03946309687
-0.03689198246
-0.03547853593
-0.03365529924
-0.03277662481
-0.03145696776
-0.0309340194
-0.02996756075
-0.02968281924
-0.02896840117
-0.02883768658
-0.02830081699
-0.0282575941
-0.02783807636
-0.02782409288
-0.02746868914
-0.02742797988
-0.02708505175
-0.02695870001
-0.02657306832
-0.02629542888
-0.02580493768
-0.05838373367
-0.05356745792
-0.05068973729
-0.04739812947
-0.04559202456
-0.04325993251