/*--------------------------------*- C++ -*----------------------------------*\
| =========                 |                                                 |
| \\      /  F ield         | foam-extend: Open Source CFD                    |
|  \\    /   O peration     | Version:  3.0                                   |
|   \\  /    A nd           | Web:         http://www.extend-project.de       |
|    \\/     M anipulation  |                                                 |
\*---------------------------------------------------------------------------*/
FoamFile
{
    version     2.0;
    format      ascii;
    class       volVectorField;
    location    "19";
    object      u;
}
// * * * * * * * * * * * * * * * * * * * * * * * * * * * * * * * * * * * * * //

dimensions      [0 0 0 0 0 0 0];

internalField   nonuniform List<vector> 
576
(
(0.0504776 -0.0276892 3.25047e-20)
(0.139161 -0.0353592 3.5626e-19)
(0.252243 -0.0487173 -5.4386e-19)
(0.385241 -0.0516681 -7.3359e-19)
(0.492904 -0.0544165 -1.43222e-19)
(0.61527 -0.0528572 4.41204e-19)
(0.706035 -0.0506657 3.38941e-19)
(0.802705 -0.0454178 3.23901e-19)
(0.870797 -0.0393254 -9.28237e-20)
(0.934763 -0.0305219 -2.34711e-20)
(0.973338 -0.0202792 5.53826e-19)
(1.00007 -0.00763111 -9.76198e-20)
(0.0648196 -0.0812063 3.62784e-19)
(0.157468 -0.103712 -4.30718e-18)
(0.277478 -0.142881 -2.74641e-18)
(0.412004 -0.15156 -8.43023e-19)
(0.521096 -0.159626 1.46377e-18)
(0.642652 -0.155066 -2.45428e-19)
(0.732285 -0.148637 -4.14764e-19)
(0.826237 -0.133253 7.86475e-18)
(0.891171 -0.115367 6.24815e-18)
(0.950581 -0.0895541 1.25558e-18)
(0.983849 -0.0594925 -4.23973e-18)
(1.00403 -0.0223895 -4.52789e-18)
(0.0925144 -0.129192 -5.33379e-19)
(0.192843 -0.164996 2.22409e-18)
(0.326205 -0.227313 -7.75281e-19)
(0.463696 -0.241127 -6.01953e-18)
(0.575538 -0.253965 -2.86229e-18)
(0.695543 -0.246717 3.96637e-18)
(0.782986 -0.236487 8.16276e-18)
(0.871693 -0.212018 2.05006e-18)
(0.930528 -0.183555 1.01464e-17)
(0.981135 -0.142491 4.11309e-18)
(1.00414 -0.0946558 8.8079e-19)
(1.01167 -0.0356299 1.12798e-17)
(0.131695 -0.168372 -4.29991e-19)
(0.242881 -0.215039 1.06031e-18)
(0.395143 -0.296247 -2.99281e-18)
(0.536826 -0.314259 6.0998e-18)
(0.652561 -0.330987 -7.2333e-18)
(0.77037 -0.321545 -6.40543e-19)
(0.85471 -0.30821 -9.65825e-19)
(0.935999 -0.27632 1.08804e-17)
(0.986199 -0.239222 8.10986e-18)
(1.02435 -0.185705 1.09999e-17)
(1.03285 -0.12336 7.16574e-18)
(1.02248 -0.0464337 2.49638e-17)
(0.179671 -0.196077 -2.00805e-19)
(0.304157 -0.250424 -1.31295e-18)
(0.479556 -0.344999 4.59995e-19)
(0.626374 -0.365978 -8.35679e-19)
(0.746879 -0.385462 4.09076e-18)
(0.861998 -0.37447 -1.00186e-17)
(0.942542 -0.35894 -5.99598e-18)
(1.01474 -0.321804 -1.89762e-17)
(1.05437 -0.278599 -1.76916e-17)
(1.07728 -0.216274 -8.05875e-18)
(1.06801 -0.143666 -5.01538e-18)
(1.03571 -0.0540791 -2.83714e-17)
(0.233195 -0.210423 2.34242e-19)
(0.372516 -0.268747 1.72685e-18)
(0.57373 -0.37024 -1.0938e-19)
(0.726277 -0.392751 -3.93729e-18)
(0.852098 -0.413662 -9.24566e-19)
(0.964219 -0.401864 -2.13665e-18)
(1.04052 -0.385198 -7.67031e-18)
(1.10259 -0.345346 1.77833e-18)
(1.13042 -0.298979 -7.63917e-18)
(1.13632 -0.232095 -1.43956e-17)
(1.10722 -0.154175 2.24462e-18)
(1.05048 -0.0580342 -7.25733e-18)
(0.288594 -0.210425 5.78722e-19)
(0.443275 -0.268751 4.79274e-19)
(0.671209 -0.370248 7.73158e-18)
(0.829687 -0.392763 1.55837e-18)
(0.961016 -0.413674 5.32596e-19)
(1.07003 -0.401879 -1.61156e-18)
(1.14195 -0.385212 9.48311e-19)
(1.19352 -0.345358 4.62654e-18)
(1.20915 -0.29899 -2.25034e-18)
(1.19743 -0.232103 3.38019e-18)
(1.14782 -0.15418 -1.10274e-18)
(1.06576 -0.0580372 -4.79528e-18)
(0.342122 -0.196091 3.25294e-19)
(0.51164 -0.250442 1.06681e-18)
(0.765391 -0.345026 4.88815e-18)
(0.929596 -0.366003 -4.99572e-18)
(1.06624 -0.385491 8.21089e-18)
(1.17226 -0.374497 -5.93596e-18)
(1.23993 -0.358966 -4.07462e-18)
(1.28137 -0.321827 6.91958e-19)
(1.2852 -0.278618 -1.28692e-17)
(1.25647 -0.216288 5.8167e-18)
(1.18704 -0.143675 2.67994e-19)
(1.08052 -0.0540827 1.2099e-17)
(0.390101 -0.16839 4.83323e-19)
(0.57292 -0.215064 8.96766e-19)
(0.849817 -0.296289 -3.20515e-18)
(1.01916 -0.314304 5.35778e-18)
(1.16058 -0.331038 -5.31282e-18)
(1.2639 -0.321598 8.02576e-18)
(1.32778 -0.308259 -2.43121e-18)
(1.36013 -0.276366 -1.5787e-17)
(1.35338 -0.239261 -1.46205e-17)
(1.3094 -0.185734 -5.20008e-18)
(1.2222 -0.123379 -1.2496e-17)
(1.09376 -0.0464431 1.22648e-17)
(0.42929 -0.129216 8.3368e-19)
(0.622973 -0.165031 2.11433e-18)
(0.91877 -0.227362 4.64104e-20)
(1.0923 -0.241182 3.86035e-18)
(1.23762 -0.254023 3.62853e-19)
(1.33874 -0.246778 5.22192e-18)
(1.39951 -0.236542 7.94898e-18)
(1.42444 -0.212067 -2.94878e-18)
(1.40906 -0.183595 3.51417e-18)
(1.35262 -0.14252 5.97077e-18)
(1.25091 -0.0946742 5.33371e-18)
(1.10457 -0.0356375 -5.82849e-18)
(0.45699 -0.0812343 2.35164e-19)
(0.658354 -0.103751 -2.35141e-19)
(0.967516 -0.142939 1.83447e-18)
(1.14401 -0.151627 -3.01177e-18)
(1.29208 -0.159699 2.37389e-18)
(1.39166 -0.155143 -1.63128e-19)
(1.45023 -0.148706 -1.00295e-18)
(1.46991 -0.133317 7.23781e-18)
(1.44843 -0.115419 6.30394e-18)
(1.38318 -0.0895935 9.05824e-18)
(1.27121 -0.0595172 1.39052e-17)
(1.11221 -0.0224028 -2.02804e-18)
(0.471342 -0.0277178 -3.94121e-20)
(0.676683 -0.0353998 -2.15973e-18)
(0.992766 -0.0487759 -1.47807e-18)
(1.1708 -0.051736 2.43338e-18)
(1.32029 -0.0544883 -1.79784e-18)
(1.41906 -0.0529324 5.556e-19)
(1.4765 -0.0507332 -1.55582e-18)
(1.49346 -0.0454793 1.60443e-18)
(1.46882 -0.0393748 1.97871e-19)
(1.39901 -0.0305595 1.22198e-18)
(1.28172 -0.0203036 1.39193e-18)
(1.11617 -0.00764061 2.33639e-18)
(0.47134 0.0276882 -2.89636e-20)
(0.676685 0.0353624 1.70445e-18)
(0.992771 0.0487107 1.84355e-18)
(1.1708 0.0516783 2.07584e-18)
(1.3203 0.0544335 1.92134e-18)
(1.41907 0.0528838 1.80348e-20)
(1.47651 0.0506954 2.53432e-18)
(1.49347 0.0454567 -3.36157e-18)
(1.46882 0.0393516 -3.42939e-18)
(1.39901 0.0305566 -4.50049e-18)
(1.28173 0.0202933 8.78636e-20)
(1.11617 0.00764287 1.2117e-18)
(0.457009 0.0812076 4.16732e-19)
(0.658381 0.103717 -1.34618e-18)
(0.967554 0.14288 -2.88124e-19)
(1.14405 0.151574 1.51555e-18)
(1.29212 0.159649 3.70346e-18)
(1.3917 0.1551 7.56164e-19)
(1.45027 0.148673 -5.12342e-18)
(1.46994 0.133298 -3.00786e-18)
(1.44845 0.115399 -6.56162e-18)
(1.3832 0.0895929 -5.32396e-18)
(1.27122 0.0595084 7.87519e-19)
(1.11221 0.0224067 -4.46407e-18)
(0.429306 0.129192 1.26913e-19)
(0.623002 0.165002 -3.90537e-18)
(0.918815 0.22731 -5.26466e-19)
(1.09235 0.241139 -5.7693e-18)
(1.23767 0.253983 1.33619e-18)
(1.3388 0.246745 -6.88405e-19)
(1.39956 0.236517 3.00757e-18)
(1.42448 0.212055 9.07218e-19)
(1.4091 0.183582 3.38421e-18)
(1.35264 0.142523 2.35591e-18)
(1.25093 0.0946676 -6.93039e-20)
(1.10457 0.0356438 -1.02861e-17)
(0.390133 0.168373 -9.58149e-19)
(0.572973 0.215045 2.31425e-18)
(0.84989 0.296252 -3.28641e-18)
(1.01924 0.314274 -9.24791e-19)
(1.16066 0.331012 -7.57926e-18)
(1.26398 0.321578 5.80383e-18)
(1.32785 0.308247 1.01403e-17)
(1.36018 0.276364 6.75588e-18)
(1.35343 0.239256 1.74685e-17)
(1.30943 0.185744 1.26414e-17)
(1.22223 0.123377 -3.9711e-18)
(1.09377 0.0464532 5.16917e-18)
(0.34215 0.196079 -6.64852e-19)
(0.511692 0.250432 -1.37708e-18)
(0.765466 0.345003 -6.12269e-18)
(0.929681 0.365991 6.31482e-18)
(1.06633 0.385483 -1.21308e-18)
(1.17235 0.374496 3.22392e-18)
(1.24001 0.35897 2.83691e-18)
(1.28143 0.321839 5.76857e-18)
(1.28526 0.278625 1.14954e-17)
(1.2565 0.216306 9.68714e-18)
(1.18707 0.143678 3.81742e-18)
(1.08053 0.0540969 2.60007e-17)
(0.288633 0.210423 -6.98983e-19)
(0.443344 0.268754 -2.11651e-18)
(0.671304 0.370245 -1.64217e-18)
(0.829793 0.392769 -3.31451e-18)
(0.961122 0.413686 1.78325e-18)
(1.07014 0.401896 -4.07966e-18)
(1.14204 0.385233 -4.20902e-18)
(1.1936 0.345385 -1.63049e-17)
(1.20921 0.299009 3.62016e-18)
(1.19747 0.23213 -6.32522e-18)
(1.14786 0.154189 1.20459e-19)
(1.06577 0.058055 -8.94074e-18)
(0.233226 0.210427 -3.10533e-19)
(0.37258 0.268761 6.39091e-19)
(0.573815 0.370254 -1.29811e-18)
(0.726378 0.39278 -1.82848e-19)
(0.852198 0.413697 -4.13188e-18)
(0.96432 0.401908 4.93886e-19)
(1.04061 0.385243 -7.30153e-18)
(1.10266 0.345394 1.57548e-17)
(1.13049 0.299016 1.74632e-17)
(1.13635 0.232135 -8.72515e-18)
(1.10726 0.154192 5.48523e-18)
(1.05048 0.0580571 -4.91094e-18)
(0.179707 0.19609 -2.3069e-19)
(0.304227 0.250454 -1.10309e-18)
(0.479647 0.345032 7.31767e-18)
(0.626483 0.366026 -2.61981e-18)
(0.746983 0.385517 3.75533e-18)
(0.862106 0.374532 -5.89511e-18)
(0.942632 0.359001 5.13973e-18)
(1.01482 0.321867 1.31016e-17)
(1.05444 0.278647 -8.45183e-19)
(1.07732 0.216322 -6.57384e-18)
(1.06805 0.143688 -5.42202e-18)
(1.03572 0.0541033 -2.14693e-17)
(0.131721 0.16839 -6.84117e-19)
(0.242941 0.215079 2.42532e-18)
(0.395214 0.296296 -9.61648e-19)
(0.536917 0.314329 -4.3087e-18)
(0.652646 0.331065 1.25255e-18)
(0.770459 0.321634 -8.37359e-18)
(0.854785 0.308295 1.34993e-19)
(0.936063 0.276406 2.55136e-18)
(0.986258 0.23929 -1.33053e-17)
(1.02439 0.185768 -7.68216e-18)
(1.03289 0.123393 -1.25931e-17)
(1.02248 0.0464629 -3.3193e-18)
(0.0925399 0.129214 1.37506e-19)
(0.192899 0.165047 -2.00933e-19)
(0.326273 0.227369 -9.8887e-19)
(0.463783 0.241212 4.46221e-18)
(0.575618 0.254053 -6.20898e-18)
(0.695626 0.246819 4.77053e-18)
(0.783056 0.236581 -2.2027e-18)
(0.871754 0.212111 -1.55437e-17)
(0.930584 0.183627 -1.22297e-17)
(0.981166 0.142555 -1.59384e-17)
(1.00418 0.0946897 -1.45823e-17)
(1.01167 0.0356566 1.93837e-17)
(0.064833 0.081232 7.70171e-19)
(0.157512 0.103769 3.61385e-18)
(0.27752 0.142947 1.65677e-18)
(0.412065 0.151657 -2.0944e-18)
(0.521146 0.159729 3.53089e-18)
(0.642707 0.155185 -1.19629e-18)
(0.732332 0.148745 7.98087e-19)
(0.826278 0.133362 -1.93167e-18)
(0.891214 0.115451 1.1346e-18)
(0.950602 0.089629 -1.28547e-18)
(0.983876 0.0595338 -1.94206e-18)
(1.00403 0.0224209 -8.43649e-18)
(0.0504887 0.027714 6.64235e-20)
(0.13919 0.0354196 1.78702e-19)
(0.252279 0.0487832 2.25455e-19)
(0.385287 0.0517691 -1.71946e-19)
(0.492943 0.0545197 -1.82771e-18)
(0.615308 0.0529769 5.96184e-19)
(0.70607 0.0507737 -1.15784e-18)
(0.802732 0.045527 -4.87794e-19)
(0.870831 0.0394081 -2.23705e-18)
(0.934779 0.030596 1.3694e-18)
(0.973366 0.0203216 -1.31202e-18)
(1.00007 0.00765777 -1.23364e-18)
(0.0504847 -0.027693 -3.26092e-20)
(0.139183 -0.0353428 -3.56093e-19)
(0.252268 -0.0487048 5.43784e-19)
(0.385276 -0.0516459 7.33565e-19)
(0.492931 -0.0544037 1.43177e-19)
(0.615295 -0.05284 -4.41086e-19)
(0.70606 -0.0506563 -3.38819e-19)
(0.802723 -0.0454096 -3.23791e-19)
(0.870824 -0.0393188 9.2933e-20)
(0.934773 -0.030521 2.34224e-20)
(0.973362 -0.0202748 -5.53875e-19)
(1.00007 -0.00762674 9.7581e-20)
(0.0648211 -0.0812131 -3.62935e-19)
(0.15749 -0.103696 4.30744e-18)
(0.27749 -0.142874 2.74657e-18)
(0.41203 -0.15154 8.43424e-19)
(0.521111 -0.159619 -1.46363e-18)
(0.642671 -0.155054 2.45743e-19)
(0.732302 -0.148633 4.15069e-19)
(0.82625 -0.13325 -7.86464e-18)
(0.891193 -0.115365 -6.2483e-18)
(0.950586 -0.0895569 -1.25559e-18)
(0.983866 -0.0594888 4.23967e-18)
(1.00402 -0.022391 4.52794e-18)
(0.092521 -0.129199 5.33183e-19)
(0.192865 -0.164982 -2.22402e-18)
(0.326226 -0.227306 7.75089e-19)
(0.463727 -0.241106 6.01942e-18)
(0.575563 -0.253955 2.86211e-18)
(0.695568 -0.246701 -3.96643e-18)
(0.783008 -0.236479 -8.16289e-18)
(0.87171 -0.212008 -2.05001e-18)
(0.93055 -0.183548 -1.01467e-17)
(0.98114 -0.142488 -4.11303e-18)
(1.00416 -0.0946481 -8.80884e-19)
(1.01166 -0.0356289 -1.128e-17)
(0.131697 -0.168381 4.29911e-19)
(0.242897 -0.215023 -1.06029e-18)
(0.395153 -0.296247 2.99293e-18)
(0.536844 -0.31424 -6.0996e-18)
(0.652575 -0.330984 7.23344e-18)
(0.770383 -0.321533 6.40898e-19)
(0.854722 -0.308208 9.66166e-19)
(0.936005 -0.276317 -1.08804e-17)
(0.986213 -0.239221 -8.1098e-18)
(1.02435 -0.185708 -1.09998e-17)
(1.03286 -0.123357 -7.16576e-18)
(1.02247 -0.0464382 -2.49639e-17)
(0.179678 -0.196088 2.00743e-19)
(0.304175 -0.250411 1.31277e-18)
(0.479575 -0.345 -4.59828e-19)
(0.626398 -0.365958 8.35558e-19)
(0.746899 -0.385455 -4.09079e-18)
(0.862017 -0.374452 1.00185e-17)
(0.942558 -0.358932 5.99619e-18)
(1.01475 -0.321793 1.89763e-17)
(1.05439 -0.278591 1.76925e-17)
(1.07728 -0.216272 8.05903e-18)
(1.06802 -0.143658 5.0157e-18)
(1.0357 -0.0540824 2.83715e-17)
(0.233196 -0.210432 -2.34251e-19)
(0.372525 -0.268732 -1.72709e-18)
(0.573738 -0.370241 1.09524e-19)
(0.726287 -0.392735 3.93723e-18)
(0.852108 -0.413658 9.24796e-19)
(0.964225 -0.401851 2.13658e-18)
(1.04053 -0.385193 7.67062e-18)
(1.10259 -0.345338 -1.77842e-18)
(1.13043 -0.298974 7.63891e-18)
(1.13631 -0.232095 1.43955e-17)
(1.10723 -0.154168 -2.24458e-18)
(1.05047 -0.0580404 7.2573e-18)
(0.288603 -0.210436 -5.78749e-19)
(0.443288 -0.26874 -4.79451e-19)
(0.671226 -0.370252 -7.73157e-18)
(0.829702 -0.392747 -1.55842e-18)
(0.961032 -0.41367 -5.32569e-19)
(1.07004 -0.401864 1.61152e-18)
(1.14196 -0.385204 -9.48303e-19)
(1.19353 -0.345348 -4.62643e-18)
(1.20916 -0.298981 2.25027e-18)
(1.19743 -0.232101 -3.38043e-18)
(1.14783 -0.154172 1.10275e-18)
(1.06575 -0.0580428 4.79525e-18)
(0.342123 -0.1961 -3.25262e-19)
(0.51164 -0.250432 -1.06706e-18)
(0.765395 -0.345029 -4.88797e-18)
(0.929596 -0.365992 4.99554e-18)
(1.06625 -0.385489 -8.21086e-18)
(1.17226 -0.374488 5.93576e-18)
(1.23994 -0.358961 4.07469e-18)
(1.28137 -0.321821 -6.91874e-19)
(1.2852 -0.278612 1.28698e-17)
(1.25646 -0.216288 -5.81657e-18)
(1.18704 -0.143668 -2.67767e-19)
(1.08052 -0.0540889 -1.20992e-17)
(0.39011 -0.1684 -4.83278e-19)
(0.572927 -0.215057 -8.96857e-19)
(0.849827 -0.296294 3.20529e-18)
(1.01916 -0.314295 -5.35785e-18)
(1.16058 -0.331038 5.3129e-18)
(1.2639 -0.32159 -8.02573e-18)
(1.32778 -0.308255 2.43112e-18)
(1.36012 -0.276361 1.5787e-17)
(1.35339 -0.239254 1.46205e-17)
(1.3094 -0.185734 5.20007e-18)
(1.2222 -0.123373 1.24958e-17)
(1.09375 -0.0464489 -1.22649e-17)
(0.42929 -0.129224 -8.33687e-19)
(0.622968 -0.165025 -2.11433e-18)
(0.918768 -0.227366 -4.6481e-20)
(1.0923 -0.241177 -3.86025e-18)
(1.23761 -0.254025 -3.63059e-19)
(1.33874 -0.246774 -5.22201e-18)
(1.39951 -0.23654 -7.94894e-18)
(1.42443 -0.212065 2.94854e-18)
(1.40906 -0.18359 -3.51458e-18)
(1.35262 -0.142522 -5.97099e-18)
(1.25091 -0.0946685 -5.33448e-18)
(1.10456 -0.0356425 5.82873e-18)
(0.456998 -0.081242 -2.35141e-19)
(0.658356 -0.103746 2.35185e-19)
(0.967521 -0.142944 -1.83433e-18)
(1.14402 -0.151623 3.01175e-18)
(1.29208 -0.1597 -2.37377e-18)
(1.39166 -0.15514 1.6315e-19)
(1.45024 -0.148703 1.00309e-18)
(1.46991 -0.133317 -7.23778e-18)
(1.44843 -0.115414 -6.30396e-18)
(1.38318 -0.0895955 -9.05822e-18)
(1.27121 -0.0595125 -1.39052e-17)
(1.11221 -0.0224072 2.0279e-18)
(0.471342 -0.0277238 3.9417e-20)
(0.676677 -0.0353964 2.15974e-18)
(0.992761 -0.0487806 1.4781e-18)
(1.17079 -0.0517338 -2.43334e-18)
(1.32029 -0.0544904 1.79779e-18)
(1.41905 -0.0529312 -5.55573e-19)
(1.4765 -0.0507313 1.55583e-18)
(1.49346 -0.04548 -1.60442e-18)
(1.46881 -0.03937 -1.97888e-19)
(1.399 -0.0305615 -1.22195e-18)
(1.28172 -0.0202992 -1.39189e-18)
(1.11617 -0.00764384 -2.33641e-18)
(0.471347 0.0276838 2.89662e-20)
(0.676685 0.0353662 -1.70445e-18)
(0.992772 0.0487078 -1.84349e-18)
(1.1708 0.051682 -2.07582e-18)
(1.3203 0.0544336 -1.9213e-18)
(1.41907 0.0528866 -1.80343e-20)
(1.47651 0.0506998 -2.53426e-18)
(1.49347 0.0454576 3.36157e-18)
(1.46882 0.0393582 3.42944e-18)
(1.39901 0.030556 4.50051e-18)
(1.28173 0.0202981 -8.7838e-20)
(1.11617 0.00764052 -1.21168e-18)
(0.45701 0.0812044 -4.16759e-19)
(0.658376 0.103719 1.34627e-18)
(0.967548 0.142876 2.88236e-19)
(1.14405 0.151576 -1.51546e-18)
(1.29212 0.159648 -3.7034e-18)
(1.39169 0.155101 -7.5611e-19)
(1.45026 0.148676 5.12358e-18)
(1.46994 0.133298 3.0078e-18)
(1.44845 0.115405 6.56145e-18)
(1.3832 0.0895922 5.32386e-18)
(1.27122 0.0595127 -7.87528e-19)
(1.11221 0.0224046 4.46413e-18)
(0.429309 0.129191 -1.26908e-19)
(0.622999 0.165004 3.9053e-18)
(0.918811 0.227308 5.26436e-19)
(1.09235 0.241142 5.76931e-18)
(1.23766 0.253984 -1.33607e-18)
(1.33879 0.246748 6.88346e-19)
(1.39956 0.236523 -3.00775e-18)
(1.42448 0.212058 -9.07149e-19)
(1.4091 0.18359 -3.38436e-18)
(1.35265 0.142525 -2.35597e-18)
(1.25093 0.0946734 6.94127e-20)
(1.10458 0.0356426 1.02858e-17)
(0.390136 0.168374 9.58133e-19)
(0.572968 0.215045 -2.31427e-18)
(0.849885 0.296249 3.28654e-18)
(1.01923 0.314273 9.24724e-19)
(1.16065 0.331011 7.57942e-18)
(1.26398 0.321576 -5.80379e-18)
(1.32784 0.308249 -1.01401e-17)
(1.36018 0.276363 -6.75602e-18)
(1.35343 0.23926 -1.74685e-17)
(1.30943 0.185742 -1.26414e-17)
(1.22222 0.12338 3.97116e-18)
(1.09377 0.0464508 -5.16952e-18)
(0.342148 0.196081 6.64801e-19)
(0.511685 0.25043 1.37711e-18)
(0.765456 0.344999 6.12249e-18)
(0.929672 0.365991 -6.31471e-18)
(1.06632 0.385479 1.21277e-18)
(1.17234 0.374496 -3.22364e-18)
(1.24 0.358971 -2.83683e-18)
(1.28143 0.32184 -5.76813e-18)
(1.28525 0.278629 -1.14945e-17)
(1.25651 0.216306 -9.6864e-18)
(1.18707 0.143682 -3.81747e-18)
(1.08053 0.0540951 -2.59997e-17)
(0.288636 0.210428 6.98956e-19)
(0.443338 0.268751 2.11635e-18)
(0.671297 0.370241 1.64215e-18)
(0.829785 0.392763 3.31442e-18)
(0.961112 0.41368 -1.78312e-18)
(1.07013 0.401887 4.07951e-18)
(1.14203 0.385227 4.20927e-18)
(1.1936 0.345376 1.63047e-17)
(1.20921 0.299005 -3.62019e-18)
(1.19747 0.232123 6.32539e-18)
(1.14785 0.154188 -1.20365e-19)
(1.06577 0.0580506 8.94073e-18)
(0.233219 0.210429 3.10445e-19)
(0.372569 0.268752 -6.3908e-19)
(0.573799 0.370245 1.29782e-18)
(0.72636 0.392773 1.829e-19)
(0.852181 0.413686 4.13166e-18)
(0.964305 0.4019 -4.93725e-19)
(1.04059 0.385235 7.30136e-18)
(1.10266 0.345387 -1.57546e-17)
(1.13048 0.299012 -1.74625e-17)
(1.13635 0.232129 8.72483e-18)
(1.10725 0.154192 -5.48498e-18)
(1.05049 0.0580537 4.91091e-18)
(0.179707 0.196098 2.30682e-19)
(0.30422 0.250446 1.10292e-18)
(0.479637 0.345026 -7.31757e-18)
(0.626472 0.366016 2.61969e-18)
(0.74697 0.385506 -3.7554e-18)
(0.862096 0.374518 5.89501e-18)
(0.942618 0.358991 -5.13954e-18)
(1.01482 0.321855 -1.31015e-17)
(1.05443 0.278641 8.46027e-19)
(1.07732 0.216313 6.57381e-18)
(1.06804 0.143688 5.42244e-18)
(1.03573 0.0540998 2.1469e-17)
(0.131712 0.168391 6.84078e-19)
(0.242927 0.215063 -2.42529e-18)
(0.395195 0.296283 9.61809e-19)
(0.536892 0.314313 4.30864e-18)
(0.652626 0.33105 -1.25237e-18)
(0.770436 0.321619 8.37355e-18)
(0.854764 0.308285 -1.35036e-19)
(0.936049 0.276398 -2.55102e-18)
(0.986239 0.239287 1.33055e-17)
(1.02438 0.185765 7.68213e-18)
(1.03287 0.123397 1.25932e-17)
(1.02249 0.0464629 3.31914e-18)
(0.0925362 0.129223 -1.37515e-19)
(0.192887 0.165036 2.00965e-19)
(0.32626 0.227361 9.88736e-19)
(0.463766 0.241199 -4.46204e-18)
(0.575603 0.254041 6.20874e-18)
(0.695615 0.246806 -4.77049e-18)
(0.783038 0.236573 2.20262e-18)
(0.871747 0.212103 1.55437e-17)
(0.930567 0.183626 1.22294e-17)
(0.981167 0.142553 1.59381e-17)
(1.00416 0.0946944 1.45819e-17)
(1.01168 0.035657 -1.93837e-17)
(0.0648232 0.081234 -7.70266e-19)
(0.157493 0.103751 -3.61366e-18)
(0.277496 0.142932 -1.6567e-18)
(0.412035 0.151635 2.09448e-18)
(0.521121 0.159713 -3.53076e-18)
(0.642682 0.155166 1.1964e-18)
(0.732305 0.148735 -7.97801e-19)
(0.826259 0.133352 1.93173e-18)
(0.891189 0.115448 -1.13449e-18)
(0.950597 0.0896251 1.28547e-18)
(0.98386 0.0595347 1.94208e-18)
(1.00403 0.022419 8.43628e-18)
(0.0504835 0.0277216 -6.6426e-20)
(0.139166 0.0354048 -1.78649e-19)
(0.252261 0.0487753 -2.25438e-19)
(0.38526 0.0517539 1.72082e-19)
(0.492927 0.0545099 1.82762e-18)
(0.61529 0.0529653 -5.96116e-19)
(0.706047 0.0507677 1.15779e-18)
(0.802719 0.0455214 4.87864e-19)
(0.870807 0.0394053 2.2371e-18)
(0.934777 0.0305951 -1.36933e-18)
(0.973352 0.0203217 1.31215e-18)
(1.00008 0.00765804 1.23359e-18)
)
;

boundaryField
{
    out
    {
        type            fixedValue;
        value           uniform (1 0 0);
    }
    in
    {
        type            fixedValue;
        value           uniform (0 0 0);
    }
    frontAndBack
    {
        type            empty;
    }
}


// ************************************************************************* //
