/*--------------------------------*- C++ -*----------------------------------*\
| =========                 |                                                 |
| \\      /  F ield         | foam-extend: Open Source CFD                    |
|  \\    /   O peration     | Version:  3.0                                   |
|   \\  /    A nd           | Web:         http://www.extend-project.de       |
|    \\/     M anipulation  |                                                 |
\*---------------------------------------------------------------------------*/
FoamFile
{
    version     2.0;
    format      ascii;
    class       volScalarField;
    location    "28";
    object      p;
}
// * * * * * * * * * * * * * * * * * * * * * * * * * * * * * * * * * * * * * //

dimensions      [0 0 0 0 0 0 0];

internalField   nonuniform List<scalar> 
480
(
-0.243398
-0.201014
-0.191229
-0.171898
-0.171219
-0.161958
-0.163975
-0.158944
-0.159451
-0.153916
-0.239182
-0.197536
-0.187924
-0.168931
-0.168266
-0.159168
-0.161153
-0.156211
-0.15671
-0.151272
-0.230978
-0.190758
-0.181473
-0.163129
-0.162484
-0.153696
-0.155611
-0.150837
-0.151317
-0.146066
-0.218719
-0.180637
-0.171848
-0.15448
-0.153873
-0.145554
-0.14737
-0.142851
-0.143308
-0.138335
-0.202821
-0.167504
-0.159351
-0.143244
-0.142679
-0.134963
-0.136645
-0.132453
-0.132876
-0.128264
-0.183348
-0.151426
-0.14406
-0.129503
-0.128995
-0.122022
-0.123545
-0.119758
-0.120142
-0.115973
-0.160843
-0.132837
-0.126372
-0.1136
-0.113152
-0.107034
-0.108369
-0.105045
-0.105381
-0.101723
-0.135481
-0.111895
-0.106454
-0.0956984
-0.0953247
-0.0901737
-0.091301
-0.0885035
-0.0887885
-0.0857074
-0.107905
-0.0891182
-0.084782
-0.0762142
-0.0759148
-0.071811
-0.0727074
-0.0704784
-0.0707044
-0.0682498
-0.0783787
-0.0647368
-0.0615906
-0.0553706
-0.0551565
-0.0521783
-0.0528326
-0.0512154
-0.0513818
-0.0495988
-0.047615
-0.0393264
-0.0374137
-0.0336341
-0.0335028
-0.0316929
-0.0320896
-0.0311067
-0.0312072
-0.0301233
-0.0159322
-0.0131637
-0.0125274
-0.0112665
-0.0112262
-0.0106238
-0.0107601
-0.0104334
-0.0104696
-0.0101065
0.0159194
0.0131456
0.012505
0.0112395
0.0111942
0.0105872
0.0107178
0.0103881
0.0104202
0.0100593
0.047603
0.0393096
0.0373927
0.0336089
0.0334728
0.0316587
0.03205
0.0310642
0.0311608
0.0300791
0.0783683
0.0647222
0.0615724
0.0553488
0.0551303
0.0521485
0.052798
0.0511784
0.0513413
0.0495602
0.107897
0.0891069
0.0847678
0.0761971
0.0758942
0.0717875
0.0726801
0.0704491
0.0706723
0.0682193
0.135476
0.111888
0.106444
0.0956872
0.0953111
0.090158
0.0912826
0.0884837
0.0887668
0.0856867
0.160841
0.132834
0.126369
0.113595
0.113146
0.107027
0.10836
0.105036
0.105371
0.101714
0.18335
0.151429
0.144062
0.129505
0.128997
0.122024
0.123548
0.11976
0.120145
0.115975
0.202826
0.167511
0.159359
0.143254
0.142689
0.134974
0.136657
0.132467
0.13289
0.128278
0.218727
0.180648
0.171861
0.154496
0.153891
0.145574
0.147392
0.142875
0.143334
0.13836
0.23099
0.190774
0.181491
0.16315
0.162509
0.153723
0.155641
0.150869
0.151353
0.146099
0.239196
0.197555
0.187946
0.168957
0.168296
0.159201
0.16119
0.15625
0.156753
0.151313
0.243414
0.201035
0.191254
0.171928
0.171252
0.161995
0.164017
0.158988
0.159498
0.153962
0.243363
0.200997
0.191221
0.171901
0.171229
0.161975
0.163999
0.158974
0.159485
0.15395
0.239251
0.197597
0.187983
0.168987
0.168324
0.159224
0.161212
0.15627
0.156771
0.151329
0.230941
0.190738
0.181461
0.163127
0.162489
0.153708
0.155629
0.150859
0.151345
0.146092
0.218784
0.180693
0.171902
0.15453
0.153923
0.145601
0.147418
0.142899
0.143356
0.13838
0.20278
0.167478
0.159332
0.143234
0.142673
0.134963
0.136649
0.132461
0.132887
0.128275
0.18341
0.151476
0.144105
0.129542
0.129032
0.122055
0.123577
0.119788
0.120171
0.116
0.160797
0.132803
0.126344
0.113578
0.113133
0.107018
0.108354
0.105033
0.10537
0.101714
0.135538
0.111938
0.106489
0.0957259
0.0953478
0.0901911
0.0913147
0.0885136
0.0887956
0.0857137
0.107855
0.0890776
0.0847445
0.0761813
0.0758824
0.0717805
0.0726762
0.0704482
0.0706737
0.0682219
0.0784313
0.0647728
0.0616186
0.0553886
0.0551683
0.0521829
0.0528314
0.0512095
0.0513714
0.0495885
0.0475617
0.0392809
0.0373701
0.0335937
0.0334617
0.0316524
0.0320467
0.031064
0.0311629
0.0300824
0.0159828
0.0131965
0.0125515
0.0112797
0.0112323
0.0106218
0.0107513
0.0104193
0.0104503
0.0100877
-0.0159735
-0.0131924
-0.0125502
-0.0112818
-0.0112376
-0.0106304
-0.0107637
-0.010434
-0.0104681
-0.0101036
-0.047552
-0.039276
-0.0373678
-0.0335946
-0.0334654
-0.0316592
-0.032057
-0.0310764
-0.0311781
-0.030096
-0.0784207
-0.0647663
-0.0616143
-0.055387
-0.055169
-0.0521862
-0.0528376
-0.0512175
-0.0513817
-0.0495974
-0.107843
-0.0890689
-0.0847373
-0.0761761
-0.0758789
-0.0717788
-0.0726766
-0.07045
-0.0706772
-0.0682243
-0.135524
-0.111926
-0.106479
-0.0957164
-0.095339
-0.0901835
-0.0913081
-0.0885078
-0.0887907
-0.0857082
-0.160782
-0.132789
-0.12633
-0.113564
-0.113119
-0.107004
-0.10834
-0.105019
-0.105356
-0.1017
-0.183393
-0.151459
-0.144087
-0.129523
-0.129011
-0.122034
-0.123555
-0.119765
-0.120147
-0.115977
-0.202762
-0.167459
-0.159311
-0.143211
-0.142648
-0.134936
-0.136619
-0.13243
-0.132854
-0.128244
-0.218766
-0.180672
-0.171877
-0.154503
-0.153893
-0.145569
-0.147383
-0.142861
-0.143317
-0.138342
-0.230923
-0.190715
-0.181435
-0.163097
-0.162456
-0.153672
-0.155588
-0.150817
-0.151299
-0.146049
-0.239232
-0.197574
-0.187956
-0.168956
-0.168289
-0.159186
-0.161169
-0.156224
-0.156722
-0.151282
-0.243345
-0.200973
-0.191194
-0.17187
-0.171193
-0.161937
-0.163956
-0.158928
-0.159436
-0.153903
)
;

boundaryField
{
    out
    {
        type            implicitExtrapolation;
    }
    in
    {
        type            implicitExtrapolation;
    }
    frontAndBack
    {
        type            empty;
    }
}


// ************************************************************************* //
