/*--------------------------------*- C++ -*----------------------------------*\
| =========                 |                                                 |
| \\      /  F ield         | foam-extend: Open Source CFD                    |
|  \\    /   O peration     | Version:  3.0                                   |
|   \\  /    A nd           | Web:         http://www.extend-project.de       |
|    \\/     M anipulation  |                                                 |
\*---------------------------------------------------------------------------*/
FoamFile
{
    version     2.0;
    format      ascii;
    class       volSymmTensorField;
    location    "28";
    object      sigma;
}
// * * * * * * * * * * * * * * * * * * * * * * * * * * * * * * * * * * * * * //

dimensions      [0 0 0 0 0 0 0];

internalField   nonuniform List<symmTensor> 
480
(
(-0.163987 -0.0121861 2.36942e-20 0.163985 -3.79755e-21 1.75823e-06)
(-0.146661 -0.0137575 1.06173e-19 0.146657 -3.39798e-20 4.28783e-06)
(-0.124209 -0.0131092 1.04941e-19 0.124203 1.74915e-19 6.32438e-06)
(-0.10211 -0.0117463 -7.18467e-20 0.102102 1.21124e-19 7.92253e-06)
(-0.0820439 -0.0102262 1.18729e-19 0.0820348 -2.0508e-19 9.06964e-06)
(-0.0644183 -0.00877859 4.03295e-19 0.0644086 -8.81311e-20 9.6676e-06)
(-0.0493024 -0.00748971 3.90656e-19 0.0492928 -1.86281e-19 9.58234e-06)
(-0.0368524 -0.0064318 4.76393e-20 0.0368438 -4.50842e-20 8.5852e-06)
(-0.0271814 -0.00562856 4.88091e-19 0.027175 -7.3117e-19 6.41401e-06)
(-0.02086 -0.00513367 5.4518e-20 0.0208573 -1.84598e-19 2.68106e-06)
(-0.159713 -0.0360855 1.37864e-21 0.159711 -1.31486e-20 1.73405e-06)
(-0.13993 -0.040254 1.58806e-19 0.139926 -1.14693e-19 4.2291e-06)
(-0.117015 -0.0381856 3.48693e-19 0.117008 -1.86382e-19 6.23686e-06)
(-0.0951903 -0.0341422 -2.59158e-20 0.0951825 -1.63547e-19 7.8096e-06)
(-0.0756551 -0.029698 -2.1367e-19 0.0756462 -1.98534e-19 8.93608e-06)
(-0.0586019 -0.0254998 2.2231e-19 0.0585924 -1.8432e-20 9.51921e-06)
(-0.0440154 -0.0217904 3.36048e-19 0.044006 -2.28172e-19 9.43043e-06)
(-0.0319854 -0.0187755 7.74128e-20 0.031977 -1.81933e-19 8.4444e-06)
(-0.022606 -0.0165234 -5.34053e-19 0.0225997 -5.18204e-19 6.30445e-06)
(-0.0164122 -0.0152136 1.48748e-19 0.0164096 2.92286e-19 2.63369e-06)
(-0.151459 -0.0585344 -5.21445e-20 0.151457 -4.58417e-20 1.67858e-06)
(-0.127219 -0.0636673 -4.17166e-21 0.127214 -2.46402e-19 4.09349e-06)
(-0.10351 -0.0597326 1.99149e-20 0.103504 -2.14575e-19 6.03543e-06)
(-0.0822414 -0.0530173 -1.4568e-19 0.0822339 -2.20104e-20 7.55383e-06)
(-0.0637236 -0.0458286 -1.89627e-19 0.0637149 3.55354e-19 8.63791e-06)
(-0.0477563 -0.0391018 3.67945e-19 0.0477471 1.38798e-19 9.19509e-06)
(-0.0341688 -0.0331848 9.27083e-20 0.0341597 -3.73809e-20 9.10157e-06)
(-0.022928 -0.0283768 -1.77265e-19 0.0229199 -1.3058e-19 8.14222e-06)
(-0.0140935 -0.02478 -1.37371e-19 0.0140874 6.15017e-19 6.07181e-06)
(-0.00813057 -0.0226807 6.47059e-19 0.00812803 -4.77407e-19 2.5326e-06)
(-0.139779 -0.0787346 -1.61381e-19 0.139778 -1.24801e-20 1.5941e-06)
(-0.109934 -0.0824069 -4.18876e-19 0.10993 2.30369e-19 3.88577e-06)
(-0.0853542 -0.0759519 2.48043e-20 0.0853485 3.31301e-19 5.72592e-06)
(-0.0649438 -0.0665884 2.33996e-19 0.0649366 2.92725e-19 7.16086e-06)
(-0.0478614 -0.0569322 8.34757e-20 0.0478532 4.1262e-19 8.18118e-06)
(-0.0334008 -0.0480157 1.38029e-19 0.0333921 -1.06146e-19 8.70058e-06)
(-0.0211909 -0.0402146 2.62289e-19 0.0211823 -8.53521e-20 8.60351e-06)
(-0.0110402 -0.0338622 3.62338e-19 0.0110325 -1.22944e-20 7.68852e-06)
(-0.00296256 -0.0290787 1.92939e-19 0.00295683 -6.27241e-19 5.72686e-06)
(0.00267076 -0.026228 -8.79567e-19 -0.00267315 9.26834e-20 2.38555e-06)
(-0.125415 -0.0961163 3.15644e-20 0.125414 -1.56104e-20 1.48104e-06)
(-0.089926 -0.0955079 -3.35865e-19 0.0899224 5.58925e-19 3.60863e-06)
(-0.064726 -0.0857918 -2.5663e-19 0.0647207 5.99485e-19 5.31356e-06)
(-0.0455001 -0.0738326 -2.38096e-20 0.0454935 4.10479e-19 6.63832e-06)
(-0.0301803 -0.0620552 4.14602e-19 0.0301727 -1.28573e-19 7.57525e-06)
(-0.0175246 -0.0513648 3.39664e-20 0.0175166 -5.46783e-19 8.04641e-06)
(-0.00695142 -0.0420747 4.86647e-19 0.00694348 -8.99023e-19 7.94635e-06)
(0.00189901 -0.0344823 -2.66352e-19 -0.0019061 -7.6001e-19 7.09171e-06)
(0.00906198 -0.0287065 -1.76243e-19 -0.00906726 -7.16348e-19 5.27459e-06)
(0.0142729 -0.0251544 5.22614e-19 -0.0142751 3.28429e-19 2.19332e-06)
(-0.109198 -0.110382 6.88234e-20 0.109196 1.68099e-19 1.34283e-06)
(-0.0692198 -0.102746 3.48019e-19 0.0692165 3.84075e-19 3.26933e-06)
(-0.0439991 -0.0890836 3.19826e-19 0.0439943 3.08539e-19 4.80867e-06)
(-0.0263072 -0.074625 1.99162e-19 0.0263012 -6.18397e-20 5.99913e-06)
(-0.0129749 -0.0611089 -6.35472e-20 0.0129681 -7.50295e-19 6.83515e-06)
(-0.00228701 -0.0490904 -5.56304e-19 0.00227976 -1.10471e-18 7.24864e-06)
(0.00652231 -0.0387313 -1.1387e-18 -0.00652946 -5.49775e-19 7.14669e-06)
(0.013962 -0.0302238 9.36409e-20 -0.0139683 -4.78608e-19 6.3673e-06)
(0.0201126 -0.0236665 -1.11982e-18 -0.0201173 -2.78236e-19 4.72721e-06)
(0.0248155 -0.0194738 5.10694e-19 -0.0248174 -3.87246e-19 1.96189e-06)
(-0.0919449 -0.121512 -3.83006e-20 0.0919437 2.33337e-19 1.18141e-06)
(-0.0497237 -0.104641 5.93307e-19 0.0497209 5.04536e-20 2.87364e-06)
(-0.0253955 -0.0865438 8.21345e-19 0.0253913 -2.79993e-19 4.22058e-06)
(-0.00960076 -0.0697412 6.41206e-19 0.0095955 -7.59391e-19 5.25564e-06)
(0.00161946 -0.0548708 -4.0262e-19 -0.00162544 -9.05085e-19 5.97555e-06)
(0.010307 -0.0419523 -1.02185e-18 -0.0103133 -5.59115e-19 6.32355e-06)
(0.0173512 -0.0309224 -1.25179e-18 -0.0173574 2.29571e-19 6.22096e-06)
(0.0233652 -0.0218102 -6.9567e-19 -0.0233708 -3.66985e-19 5.53042e-06)
(0.028464 -0.0146777 -1.60133e-18 -0.0284681 3.26166e-19 4.09618e-06)
(0.0325817 -0.00991562 2.42219e-19 -0.0325834 -1.20574e-19 1.69556e-06)
(-0.0743663 -0.12973 9.50074e-20 0.0743653 -1.43381e-20 1.00079e-06)
(-0.0329612 -0.102349 2.70135e-19 0.0329588 -2.06352e-19 2.43107e-06)
(-0.0106629 -0.0796447 1.92753e-19 0.0106593 -3.95951e-19 3.56351e-06)
(0.00287351 -0.0607239 -1.15344e-19 -0.00287793 -4.96387e-19 4.42602e-06)
(0.0119439 -0.0448554 -6.63338e-19 -0.0119489 -2.37974e-19 5.01779e-06)
(0.0187063 -0.0314063 -6.57235e-19 -0.0187116 4.94874e-20 5.2943e-06)
(0.0240876 -0.0200414 -5.31451e-19 -0.0240928 1.58383e-19 5.19279e-06)
(0.0287401 -0.0105898 -5.75754e-19 -0.0287447 1.77378e-19 4.60261e-06)
(0.0327968 -0.00306643 -3.3891e-19 -0.0328002 -7.19648e-20 3.39815e-06)
(0.0362618 0.00218489 -1.10857e-18 -0.0362632 1.42338e-19 1.40181e-06)
(-0.0569862 -0.135435 -3.16175e-20 0.0569854 -6.472e-20 8.04256e-07)
(-0.0198629 -0.0974649 -2.59161e-19 0.019861 -1.50611e-19 1.95033e-06)
(-0.000826985 -0.0703713 -4.83229e-19 0.000824135 -1.02702e-19 2.85079e-06)
(0.0101117 -0.0496338 -4.11648e-19 -0.0101153 4.69269e-20 3.52746e-06)
(0.0170586 -0.033074 -2.969e-20 -0.0170626 3.27644e-20 3.98195e-06)
(0.0220441 -0.0193759 -4.05184e-19 -0.0220483 3.31603e-20 4.18278e-06)
(0.0259325 -0.00792129 -3.42078e-19 -0.0259366 6.73887e-20 4.08395e-06)
(0.0293402 0.00167044 -3.2367e-19 -0.0293438 1.94679e-19 3.60343e-06)
(0.0323989 0.0094352 -5.65075e-20 -0.0324015 -8.11764e-20 2.64742e-06)
(0.0351543 0.0150878 -5.71781e-19 -0.0351554 3.18467e-19 1.08614e-06)
(-0.040102 -0.139116 -5.10038e-20 0.0401014 -4.70153e-20 5.9637e-07)
(-0.0106531 -0.0917535 -1.40564e-19 0.0106516 -1.61984e-19 1.44207e-06)
(0.00394352 -0.0609031 -6.88489e-19 -0.00394561 -2.84661e-20 2.09814e-06)
(0.0119896 -0.0387246 -6.31959e-19 -0.0119922 1.47029e-19 2.57983e-06)
(0.0168754 -0.02172 -4.33924e-19 -0.0168783 2.01066e-19 2.89112e-06)
(0.0202621 -0.00795389 -6.11821e-20 -0.0202651 1.38214e-19 3.01388e-06)
(0.022853 0.00344747 -3.47734e-19 -0.0228559 1.42848e-19 2.91965e-06)
(0.0251535 0.0130554 -1.38107e-20 -0.0251561 3.34427e-19 2.55585e-06)
(0.0272748 0.0209528 5.54582e-19 -0.0272767 3.27104e-20 1.8617e-06)
(0.0292755 0.0269121 -1.098e-19 -0.0292762 -1.41145e-20 7.56489e-07)
(-0.0237783 -0.14125 -5.87624e-20 0.023778 -3.08399e-20 3.80663e-07)
(-0.00484556 -0.0868669 -1.03369e-19 0.00484464 -1.07541e-19 9.1547e-07)
(0.00434016 -0.0532692 -3.67816e-19 -0.00434148 -1.19933e-20 1.31934e-06)
(0.00926428 -0.0300897 -2.72318e-19 -0.00926588 1.18732e-19 1.6007e-06)
(0.0121591 -0.012828 -2.8033e-19 -0.0121609 1.22933e-19 1.76572e-06)
(0.0141123 0.000920475 -4.48803e-19 -0.0141141 9.98367e-20 1.80979e-06)
(0.0155831 0.0122227 -4.155e-19 -0.0155848 1.85246e-19 1.72207e-06)
(0.0169029 0.0217944 -1.14141e-19 -0.0169044 2.98774e-19 1.47986e-06)
(0.0181462 0.0297545 4.06144e-19 -0.0181473 5.40148e-20 1.05575e-06)
(0.0193592 0.0359212 -3.74636e-20 -0.0193596 -1.88418e-20 4.18627e-07)
(-0.00788063 -0.142214 -7.95289e-20 0.00788047 -1.6047e-20 1.61575e-07)
(-0.00135023 -0.0840782 -1.45827e-19 0.00134985 -7.37842e-20 3.80864e-07)
(0.00178498 -0.0490293 -2.90619e-19 -0.00178551 -1.24203e-20 5.29597e-07)
(0.00344159 -0.0253365 -3.85013e-19 -0.0034422 1.12445e-19 6.09211e-07)
(0.00439832 -0.00795883 -3.76291e-19 -0.00439894 1.06022e-19 6.27918e-07)
(0.00503362 0.00576069 -3.53046e-19 -0.00503422 8.71922e-20 5.94423e-07)
(0.0055072 0.016993 -1.6866e-19 -0.00550772 1.64396e-19 5.15405e-07)
(0.00593456 0.0265316 -1.13332e-19 -0.00593496 2.61031e-19 3.97645e-07)
(0.00634218 0.0345149 2.8672e-19 -0.00634243 9.72105e-20 2.46732e-07)
(0.00674752 0.0407861 1.5611e-19 -0.0067476 -2.32554e-20 8.03021e-08)
(0.00785982 -0.142215 -7.70232e-20 -0.00785976 -4.91768e-21 -5.74976e-08)
(0.0013272 -0.0840787 -2.12186e-19 -0.00132705 -6.22932e-20 -1.52932e-07)
(-0.00181135 -0.0490293 -1.80148e-19 0.00181161 -2.35184e-20 -2.57924e-07)
(-0.00347228 -0.0253362 -3.22926e-19 0.00347266 1.08677e-19 -3.77952e-07)
(-0.00443416 -0.00795826 -4.29492e-19 0.00443466 1.03543e-19 -5.03009e-07)
(-0.00507539 0.00576147 -3.09445e-19 0.005076 6.29518e-20 -6.11433e-07)
(-0.00555523 0.016994 -2.849e-20 0.00555591 1.14318e-19 -6.79656e-07)
(-0.00598891 0.0265328 -1.64211e-19 0.00598958 2.15021e-19 -6.72279e-07)
(-0.00640171 0.0345164 6.4107e-20 0.00640227 8.31533e-20 -5.51769e-07)
(-0.00681066 0.0407876 1.7101e-19 0.00681092 -2.58247e-20 -2.53239e-07)
(0.0237587 -0.141253 -9.14016e-20 -0.0237585 9.54948e-21 -2.72402e-07)
(0.00482302 -0.0868683 -2.52372e-19 -0.00482235 -5.45327e-20 -6.76298e-07)
(-0.00436651 -0.0532692 -3.04685e-20 0.00436754 -4.29344e-20 -1.02913e-06)
(-0.00929528 -0.0300889 -5.3302e-20 0.00929662 1.04207e-19 -1.34318e-06)
(-0.0121955 -0.0128264 -5.33226e-19 0.0121971 9.6002e-20 -1.60682e-06)
(-0.0141548 0.000922596 -3.34937e-19 0.0141566 4.82815e-20 -1.78611e-06)
(-0.0156321 0.0122254 -2.50039e-19 0.0156339 3.84808e-20 -1.8414e-06)
(-0.0169584 0.0217976 1.88333e-19 0.0169601 1.67928e-19 -1.71017e-06)
(-0.0182072 0.0297586 -4.13526e-19 0.0182085 7.20542e-20 -1.32455e-06)
(-0.0194237 0.0359252 7.61411e-20 0.0194243 -1.46395e-20 -5.7513e-07)
(0.0400845 -0.139121 -3.86508e-20 -0.040084 4.34302e-20 -4.80039e-07)
(0.0106314 -0.0917553 -2.82954e-19 -0.0106302 -1.68088e-20 -1.18122e-06)
(-0.00396983 -0.0609031 -3.92736e-19 0.0039716 -9.34269e-20 -1.77214e-06)
(-0.0120211 -0.0387234 -2.88996e-19 0.0120234 1.03378e-20 -2.27157e-06)
(-0.0169129 -0.0217178 -3.96755e-19 0.0169155 6.4797e-20 -2.66657e-06)
(-0.020306 -0.00795098 -1.10746e-19 0.0203089 5.53598e-20 -2.91166e-06)
(-0.0229037 0.00345119 -1.84465e-19 0.0229067 5.25982e-20 -2.95227e-06)
(-0.025211 0.0130598 -5.93118e-20 0.0252137 6.7534e-20 -2.7006e-06)
(-0.0273384 0.0209584 -1.79159e-19 0.0273405 -6.28249e-20 -2.06055e-06)
(-0.0293425 0.0269177 3.52904e-19 0.0293434 1.20135e-20 -8.81258e-07)
(0.0569711 -0.13544 -4.55618e-20 -0.0569705 5.355e-20 -6.76712e-07)
(0.0198422 -0.0974667 -4.50511e-19 -0.0198406 -5.39722e-20 -1.65923e-06)
(0.000800708 -0.0703713 -1.38697e-19 -0.000798233 -1.12618e-19 -2.47469e-06)
(-0.0101439 -0.0496326 1.12411e-19 0.010147 -2.31286e-20 -3.148e-06)
(-0.0170972 -0.0330718 1.47508e-19 0.0171009 2.05363e-19 -3.66511e-06)
(-0.0220896 -0.0193729 -2.87741e-19 0.0220935 1.63929e-19 -3.97e-06)
(-0.0259852 -0.00791752 -2.97764e-19 0.0259892 -9.54049e-20 -3.99445e-06)
(-0.0294001 0.00167491 4.50797e-21 0.0294037 -1.20175e-19 -3.6276e-06)
(-0.0324654 0.00944096 1.82208e-20 0.0324682 1.87275e-20 -2.74761e-06)
(-0.0352241 0.0150934 -6.91181e-19 0.0352253 7.99203e-20 -1.16611e-06)
(0.0743533 -0.129733 4.76541e-20 -0.0743524 -3.43271e-20 -8.59818e-07)
(0.0329413 -0.102351 2.20995e-19 -0.0329392 9.6003e-20 -2.10361e-06)
(0.0106366 -0.0796447 1.63195e-19 -0.0106335 1.11614e-19 -3.12694e-06)
(-0.00290624 -0.060723 3.89389e-20 0.0029102 9.4107e-20 -3.96035e-06)
(-0.0119835 -0.0448537 4.26679e-20 0.0119881 1.69678e-19 -4.58894e-06)
(-0.0187532 -0.031404 -5.69431e-19 0.0187581 2.20937e-19 -4.94718e-06)
(-0.0241421 -0.0200385 -8.02363e-19 0.024147 -3.15374e-19 -4.95465e-06)
(-0.028802 -0.0105864 -4.48891e-19 0.0288065 1.90383e-19 -4.47984e-06)
(-0.032866 -0.00306201 -1.43971e-18 0.0328693 -6.15358e-19 -3.37792e-06)
(-0.0363341 0.0021893 9.09324e-19 0.0363356 2.12325e-20 -1.42701e-06)
(0.0919331 -0.121513 -1.08068e-19 -0.0919321 -2.98755e-19 -1.02629e-06)
(0.0497043 -0.104641 4.91511e-19 -0.0497018 -1.35068e-19 -2.50748e-06)
(0.0253692 -0.0865437 5.37944e-19 -0.0253655 5.50295e-20 -3.71906e-06)
(0.00956766 -0.0697408 3.68389e-19 -0.00956296 3.62834e-19 -4.69669e-06)
(-0.00165972 -0.05487 -4.98304e-19 0.00166514 3.27443e-19 -5.4248e-06)
(-0.0103547 -0.0419513 -8.71775e-19 0.0103605 5.08287e-19 -5.82949e-06)
(-0.0174067 -0.0309211 -1.50462e-18 0.0174125 -7.58893e-21 -5.81962e-06)
(-0.0234284 -0.0218086 -1.86182e-19 0.0234336 -7.73069e-20 -5.24565e-06)
(-0.0285348 -0.0146757 -1.18271e-18 0.0285387 2.59436e-19 -3.9427e-06)
(-0.0326555 -0.00991346 -4.24221e-19 0.0326572 -6.46484e-19 -1.65992e-06)
(0.109186 -0.110381 -3.39793e-20 -0.109185 -1.95189e-19 -1.17417e-06)
(0.0692003 -0.102745 2.34993e-20 -0.0691974 -4.27362e-19 -2.86577e-06)
(0.0439728 -0.0890834 -6.21607e-20 -0.0439685 -5.03562e-19 -4.24373e-06)
(0.0262741 -0.0746251 -1.30664e-19 -0.0262687 -1.85477e-19 -5.34819e-06)
(0.0129345 -0.0611092 -5.7346e-19 -0.0129284 2.85967e-19 -6.16311e-06)
(0.0022392 -0.0490908 -4.68115e-19 -0.00223259 4.42178e-19 -6.60731e-06)
(-0.00657797 -0.0387319 1.54387e-19 0.00658456 7.69119e-19 -6.58056e-06)
(-0.0140253 -0.0302244 -3.87084e-19 0.0140312 4.45762e-19 -5.91789e-06)
(-0.0201835 -0.0236672 -4.28174e-19 0.0201879 1.05606e-18 -4.43736e-06)
(-0.0248894 -0.0194743 -5.04963e-19 0.0248913 -6.38831e-19 -1.86354e-06)
(0.125402 -0.0961129 -1.34351e-20 -0.125401 2.51011e-20 -1.30111e-06)
(0.089906 -0.0955064 -5.14999e-19 -0.0899029 -3.10014e-19 -3.17332e-06)
(0.0646996 -0.0857916 -8.32348e-19 -0.0646949 -6.38155e-19 -4.69371e-06)
(0.0454672 -0.0738332 -5.77871e-19 -0.0454613 -5.389e-19 -5.90626e-06)
(0.0301404 -0.0620565 7.62963e-20 -0.0301336 1.59343e-19 -6.79449e-06)
(0.0174774 -0.0513665 4.7964e-19 -0.0174702 3.45293e-19 -7.27121e-06)
(0.00689658 -0.0420768 5.76028e-19 -0.00688935 4.53253e-19 -7.22856e-06)
(-0.00196133 -0.0344848 4.02956e-19 0.00196782 3.58196e-19 -6.48887e-06)
(-0.00913156 -0.0287097 4.57991e-19 0.00913642 1.19661e-18 -4.85617e-06)
(-0.0143456 -0.0251571 -9.75785e-19 0.0143476 1.05351e-19 -2.03518e-06)
(0.139764 -0.0787299 -1.48011e-19 -0.139763 3.62672e-20 -1.40584e-06)
(0.109913 -0.0824049 -5.33777e-19 -0.10991 9.92468e-20 -3.42678e-06)
(0.0853277 -0.0759516 -5.91615e-19 -0.0853226 -1.38961e-19 -5.06423e-06)
(0.0649113 -0.0665893 1.51389e-19 -0.0649049 -2.29427e-19 -6.36524e-06)
(0.0478224 -0.0569339 7.66325e-19 -0.047815 -7.24359e-21 -7.31303e-06)
(0.0333548 -0.048018 3.35603e-19 -0.033347 2.66626e-19 -7.81549e-06)
(0.0211376 -0.0402176 2.80608e-19 -0.0211298 1.96198e-22 -7.75871e-06)
(0.0109797 -0.0338657 6.50104e-19 -0.0109727 2.31424e-19 -6.95492e-06)
(0.00289531 -0.0290832 3.53184e-19 -0.00289011 4.62077e-19 -5.19716e-06)
(-0.00274119 -0.0262319 2.73678e-19 0.00274336 6.95212e-19 -2.17458e-06)
(0.151441 -0.0585297 -2.53509e-20 -0.15144 1.15563e-19 -1.48669e-06)
(0.127197 -0.0636654 -1.57698e-19 -0.127193 4.50061e-19 -3.62266e-06)
(0.103483 -0.0597324 -3.05328e-19 -0.103478 4.92604e-19 -5.35048e-06)
(0.0822094 -0.0530182 1.15767e-19 -0.0822027 2.55498e-19 -6.71955e-06)
(0.0636855 -0.0458303 2.59513e-19 -0.0636778 -2.25932e-19 -7.71277e-06)
(0.0477117 -0.0391042 4.54085e-19 -0.0477034 -2.4038e-19 -8.23427e-06)
(0.0341172 -0.0331877 2.42196e-19 -0.034109 -2.10744e-19 -8.16559e-06)
(0.0228696 -0.0283802 1.0925e-18 -0.0228623 -3.03875e-19 -7.31144e-06)
(0.0140289 -0.0247844 9.15e-19 -0.0140235 9.02775e-20 -5.45688e-06)
(0.00806272 -0.0226845 -7.51609e-20 -0.00806044 2.13494e-19 -2.28003e-06)
(0.159693 -0.0360821 2.17082e-20 -0.159692 8.22976e-20 -1.54309e-06)
(0.139907 -0.0402526 1.56946e-20 -0.139903 2.40584e-19 -3.75919e-06)
(0.116988 -0.0381854 7.48649e-20 -0.116982 4.83089e-19 -5.54997e-06)
(0.0951587 -0.0341428 2.80451e-19 -0.0951518 2.86525e-19 -6.9663e-06)
(0.075618 -0.0296991 1.08603e-19 -0.07561 1.1149e-19 -7.99081e-06)
(0.0585585 -0.0255014 -1.39159e-19 -0.05855 -1.25488e-19 -8.52496e-06)
(0.0439654 -0.0217924 2.18943e-19 -0.043957 1.98774e-20 -8.4472e-06)
(0.0319288 -0.0187777 6.38088e-19 -0.0319212 -3.40668e-19 -7.55727e-06)
(0.0225438 -0.0165263 5.41212e-19 -0.0225382 -3.88494e-19 -5.63511e-06)
(0.0163465 -0.0152158 7.39513e-20 -0.0163442 9.0366e-20 -2.35197e-06)
(0.163966 -0.0121848 2.96531e-20 -0.163964 3.00203e-20 -1.57398e-06)
(0.146638 -0.0137569 5.59679e-20 -0.146634 4.61527e-20 -3.83438e-06)
(0.124182 -0.013109 2.41538e-20 -0.124177 2.29819e-19 -5.66e-06)
(0.102078 -0.0117464 3.09908e-20 -0.102071 9.57536e-21 -7.10239e-06)
(0.0820073 -0.0102264 1.59307e-19 -0.0819991 -9.46557e-20 -8.14387e-06)
(0.0643756 -0.00877884 2.77332e-19 -0.0643669 1.29525e-19 -8.68435e-06)
(0.0492532 -0.00748997 3.92751e-19 -0.0492446 2.20217e-19 -8.60057e-06)
(0.0367967 -0.006432 4.33606e-19 -0.036789 -1.24568e-19 -7.68985e-06)
(0.0271205 -0.00562877 6.0793e-19 -0.0271147 -2.70202e-19 -5.72985e-06)
(0.0207954 -0.0051333 7.44529e-20 -0.020793 1.59821e-19 -2.38925e-06)
(0.163962 0.0122127 2.37172e-20 -0.16396 -3.79347e-21 -1.57941e-06)
(0.14663 0.0138138 1.06226e-19 -0.146627 -3.39546e-20 -3.84789e-06)
(0.12417 0.0132 1.04963e-19 -0.124164 1.75015e-19 -5.68006e-06)
(0.102061 0.0118799 -7.18344e-20 -0.102054 1.21192e-19 -7.12727e-06)
(0.0819826 0.0104131 1.18854e-19 -0.0819744 -2.05082e-19 -8.17149e-06)
(0.0643421 0.00903185 4.03516e-19 -0.0643334 -8.80029e-20 -8.71217e-06)
(0.0492089 0.00782471 3.90845e-19 -0.0492003 -1.85993e-19 -8.6258e-06)
(0.0367393 0.00686678 4.78479e-20 -0.0367316 -4.4943e-20 -7.70965e-06)
(0.0270472 0.00618303 4.8831e-19 -0.0270415 -7.31218e-19 -5.74194e-06)
(0.0207007 0.00585114 5.44165e-20 -0.0206983 -1.84563e-19 -2.39269e-06)
(0.159682 0.036108 1.40454e-21 -0.159681 -1.31446e-20 -1.55892e-06)
(0.139885 0.0403055 1.58888e-19 -0.139881 -1.14684e-19 -3.79907e-06)
(0.116952 0.0382701 3.48745e-19 -0.116947 -1.86298e-19 -5.60929e-06)
(0.0951069 0.0342671 -2.59444e-20 -0.0950998 -1.63462e-19 -7.03995e-06)
(0.0755455 0.0298731 -2.13554e-19 -0.0755374 -1.9861e-19 -8.07256e-06)
(0.0584604 0.0257371 2.22547e-19 -0.0584518 -1.83503e-20 -8.60727e-06)
(0.0438357 0.0221042 3.36299e-19 -0.0438271 -2.2807e-19 -8.52167e-06)
(0.0317603 0.0191828 7.73748e-20 -0.0317527 -1.81608e-19 -7.61546e-06)
(0.0223292 0.0170427 -5.34098e-19 -0.0223235 -5.18734e-19 -5.67019e-06)
(0.0160688 0.0158847 1.48826e-19 -0.0160664 2.92314e-19 -2.36144e-06)
(0.151424 0.0585518 -5.21283e-20 -0.151422 -4.58285e-20 -1.51313e-06)
(0.127161 0.0637107 -4.09842e-21 -0.127158 -2.46427e-19 -3.68895e-06)
(0.103427 0.059805 1.99952e-20 -0.103421 -2.14629e-19 -5.44905e-06)
(0.0821269 0.0531249 -1.45656e-19 -0.0821201 -2.20286e-20 -6.84196e-06)
(0.0635702 0.0459796 -1.8947e-19 -0.0635624 3.5538e-19 -7.84878e-06)
(0.0475555 0.0393064 3.68149e-19 -0.0475472 1.39036e-19 -8.37138e-06)
(0.0339108 0.0334554 9.28415e-20 -0.0339025 -3.71882e-20 -8.28995e-06)
(0.0226016 0.0287278 -1.77303e-19 -0.0225942 -1.30458e-19 -7.409e-06)
(0.0136875 0.0252277 -1.37344e-19 -0.013682 6.15099e-19 -5.51621e-06)
(0.00762079 0.0232587 6.46866e-19 -0.00761849 -4.76984e-19 -2.29657e-06)
(0.139741 0.0787467 -1.61384e-19 -0.13974 -1.24648e-20 -1.44216e-06)
(0.109867 0.0824396 -4.18795e-19 -0.109863 2.30313e-19 -3.51817e-06)
(0.0852543 0.0760071 2.49109e-20 -0.0852491 3.31302e-19 -5.20026e-06)
(0.0648037 0.066671 2.34032e-19 -0.0647972 2.9283e-19 -6.53436e-06)
(0.047672 0.0570483 8.35364e-20 -0.0476645 4.12879e-19 -7.5011e-06)
(0.0331513 0.048173 1.38206e-19 -0.0331433 -1.05923e-19 -8.00528e-06)
(0.0208685 0.0404227 2.62467e-19 -0.0208606 -8.51368e-20 -7.93103e-06)
(0.0106303 0.0341322 3.62437e-19 -0.0106233 -1.19698e-20 -7.09025e-06)
(0.00245021 0.029423 1.92374e-19 -0.00244493 -6.2671e-19 -5.27952e-06)
(-0.00331722 0.0266723 -8.7939e-19 0.00331942 9.21215e-20 -2.19743e-06)
(0.125376 0.0961231 3.15526e-20 -0.125374 -1.55694e-20 -1.34723e-06)
(0.0898524 0.0955279 -3.35875e-19 -0.0898491 5.59001e-19 -3.28917e-06)
(0.0646141 0.0858262 -2.56587e-19 -0.0646092 5.99523e-19 -4.86622e-06)
(0.0453418 0.0738842 -2.3725e-20 -0.0453357 4.10525e-19 -6.12092e-06)
(0.0299652 0.062128 4.14679e-19 -0.0299582 -1.28335e-19 -7.03354e-06)
(0.0172404 0.0514635 3.41796e-20 -0.0172329 -5.4673e-19 -7.51289e-06)
(0.00658311 0.0422053 4.86998e-19 -0.00657566 -8.99223e-19 -7.44862e-06)
(-0.00236824 0.0346518 -2.66207e-19 0.00237491 -7.60234e-19 -6.66245e-06)
(-0.00965002 0.0289228 -1.75491e-19 0.00965499 -7.17731e-19 -4.9627e-06)
(-0.0150165 0.0254334 5.2245e-19 0.0150186 3.28498e-19 -2.06549e-06)
(0.109157 0.110384 6.88511e-20 -0.109156 1.68117e-19 -1.22905e-06)
(0.0691428 0.102752 3.47982e-19 -0.0691398 3.84196e-19 -3.00397e-06)
(0.043881 0.0890947 3.19759e-19 -0.0438765 3.08668e-19 -4.4498e-06)
(0.0261395 0.0746419 1.99125e-19 -0.0261339 -6.17309e-20 -5.60498e-06)
(0.0127466 0.0611329 -6.33983e-20 -0.0127401 -7.50357e-19 -6.44947e-06)
(0.00198471 0.0491231 -5.56089e-19 -0.00197781 -1.10512e-18 -6.89735e-06)
(-0.00691447 0.0387748 -1.13779e-18 0.00692131 -5.50878e-19 -6.84523e-06)
(-0.0144621 0.0302805 9.40502e-20 0.0144682 -4.79164e-19 -6.12726e-06)
(-0.02074 0.023739 -1.11898e-18 0.0207446 -2.79524e-19 -4.56634e-06)
(-0.0256096 0.0195676 5.11019e-19 0.0256115 -3.87518e-19 -1.90044e-06)
(0.0919049 0.121509 -3.82563e-20 -0.0919038 2.3334e-19 -1.08953e-06)
(0.0496468 0.104633 5.93351e-19 -0.0496441 5.04858e-20 -2.66659e-06)
(0.0252774 0.0865308 8.21323e-19 -0.0252734 -2.79968e-19 -3.95651e-06)
(0.00943308 0.0697222 6.41172e-19 -0.00942809 -7.59436e-19 -4.99296e-06)
(-0.00184779 0.0548442 -4.02389e-19 0.00185355 -9.054e-19 -5.7558e-06)
(-0.0106093 0.0419166 -1.0215e-18 0.0106154 -5.59767e-19 -6.16552e-06)
(-0.0177433 0.0308755 -1.25144e-18 0.0177495 2.28957e-19 -6.12729e-06)
(-0.0238653 0.0217497 -6.9524e-19 0.0238708 -3.67611e-19 -5.49024e-06)
(-0.0290915 0.014601 -1.60074e-18 0.0290956 3.25513e-19 -4.09472e-06)
(-0.0333759 0.00981733 2.42546e-19 0.0333777 -1.20677e-19 -1.70448e-06)
(0.074327 0.129722 9.50392e-20 -0.0743261 -1.43419e-20 -9.30004e-07)
(0.0328877 0.102328 2.70269e-19 -0.0328855 -2.06412e-19 -2.28062e-06)
(0.010551 0.0796085 1.92913e-19 -0.0105476 -3.96088e-19 -3.39149e-06)
(-0.00303171 0.0606701 -1.15182e-19 0.003036 -4.96688e-19 -4.29097e-06)
(-0.0121588 0.0447801 -6.63091e-19 0.0121638 -2.38401e-19 -4.95897e-06)
(-0.0189905 0.0313046 -6.57063e-19 0.0189958 4.90768e-20 -5.32367e-06)
(-0.0244559 0.0199073 -5.31526e-19 0.0244612 1.58175e-19 -5.30029e-06)
(-0.0292094 0.0104163 -5.75679e-19 0.0292141 1.77157e-19 -4.7556e-06)
(-0.033385 0.00284579 -3.39689e-19 0.0333886 -7.14265e-20 -3.55021e-06)
(-0.0370057 -0.00246853 -1.1083e-18 0.0370072 1.42284e-19 -1.47793e-06)
(0.0569486 0.135422 -3.15563e-20 -0.0569479 -6.47573e-20 -7.53117e-07)
(0.0197962 0.0974307 -2.58981e-19 -0.0197943 -1.507e-19 -1.85181e-06)
(0.000727152 0.0703141 -4.82978e-19 -0.000724389 -1.02873e-19 -2.76282e-06)
(-0.0102517 0.0495491 -4.11485e-19 0.0102552 4.6618e-20 -3.50863e-06)
(-0.0172479 0.0329552 -2.97942e-20 0.0172519 3.25408e-20 -4.06954e-06)
(-0.0222935 0.0192154 -4.05248e-19 0.0222979 3.30073e-20 -4.38256e-06)
(-0.0262549 0.00770953 -3.42249e-19 0.0262592 6.73286e-20 -4.37454e-06)
(-0.0297501 -0.00194457 -3.23923e-19 0.029754 1.94709e-19 -3.93237e-06)
(-0.0329114 -0.00978413 -5.69477e-20 0.0329143 -8.09326e-20 -2.93967e-06)
(-0.0358012 -0.0155369 -5.71851e-19 0.0358024 3.18604e-19 -1.22416e-06)
(0.0400672 0.139097 -5.09476e-20 -0.0400667 -4.70483e-20 -5.6088e-07)
(0.010596 0.0917086 -1.4047e-19 -0.0105947 -1.6203e-19 -1.38549e-06)
(-0.00402633 0.0608288 -6.8827e-19 0.00402841 -2.86005e-20 -2.0782e-06)
(-0.0121039 0.0386147 -6.31779e-19 0.0121066 1.46808e-19 -2.65529e-06)
(-0.0170286 0.0215662 -4.33892e-19 0.0170316 2.0089e-19 -3.09768e-06)
(-0.0204626 0.00774599 -6.14184e-20 0.020466 1.38182e-19 -3.35241e-06)
(-0.0231108 -0.00372191 -3.47895e-19 0.0231142 1.42821e-19 -3.35944e-06)
(-0.0254798 -0.0134109 -1.42789e-20 0.0254828 3.3443e-19 -3.02822e-06)
(-0.027681 -0.0214053 5.53723e-19 0.0276832 3.29583e-20 -2.26803e-06)
(-0.0297857 -0.0274952 -1.09978e-19 0.0297866 -1.38846e-20 -9.4445e-07)
(0.0237478 0.141226 -5.87235e-20 -0.0237475 -3.08604e-20 -3.56707e-07)
(0.00480072 0.086814 -1.03333e-19 -0.00479983 -1.07564e-19 -8.89239e-07)
(-0.00440211 0.0531828 -3.67734e-19 0.00440345 -1.20652e-20 -1.34851e-06)
(-0.00934742 0.0299624 -2.72308e-19 0.00934917 1.18617e-19 -1.74416e-06)
(-0.0122684 0.01265 -2.80377e-19 0.0122704 1.22903e-19 -2.0582e-06)
(-0.0142534 -0.00116118 -4.48773e-19 0.0142557 9.98543e-20 -2.24869e-06)
(-0.0157625 -0.0125405 -4.15474e-19 0.0157647 1.85272e-19 -2.2701e-06)
(-0.0171277 -0.0222063 -1.14313e-19 0.0171298 2.98762e-19 -2.05666e-06)
(-0.018423 -0.0302788 4.05604e-19 0.0184245 5.40892e-20 -1.54564e-06)
(-0.0197029 -0.0365976 -3.75259e-20 0.0197036 -1.87921e-20 -6.43752e-07)
(0.007856 0.142186 -7.95074e-20 -0.00785586 -1.60487e-20 -1.43268e-07)
(0.00131948 0.0840204 -1.45828e-19 -0.00131911 -7.37864e-20 -3.70102e-07)
(-0.00182362 0.0489365 -2.90598e-19 0.00182421 -1.24534e-20 -5.84077e-07)
(-0.00349021 0.0252005 -3.85013e-19 0.00349099 1.12398e-19 -7.88042e-07)
(-0.00445919 0.00776889 -3.76362e-19 0.00446015 1.06014e-19 -9.65343e-07)
(-0.00510927 -0.00601748 -3.53092e-19 0.00511035 8.71847e-20 -1.08609e-06)
(-0.00560007 -0.0173321 -1.68773e-19 0.00560119 1.64449e-19 -1.12045e-06)
(-0.00604717 -0.0269713 -1.1346e-19 0.0060482 2.61076e-19 -1.02944e-06)
(-0.00647606 -0.0350746 2.86241e-19 0.00647684 9.7198e-20 -7.80415e-07)
(-0.00690693 -0.0415091 1.55958e-19 0.00690726 -2.31482e-20 -3.24491e-07)
(-0.00787711 0.142185 -7.70168e-20 0.00787703 -4.90461e-21 7.53399e-08)
(-0.00134285 0.0840199 -2.12197e-19 0.00134269 -6.22757e-20 1.62612e-07)
(0.00179688 0.0489364 -1.80193e-19 -0.00179708 -2.35257e-20 2.01549e-07)
(0.0034591 0.0252007 -3.22949e-19 -0.0034593 1.08682e-19 1.96308e-07)
(0.00442281 0.0077694 -4.29557e-19 -0.00442297 1.03585e-19 1.61743e-07)
(0.00506675 -0.00601678 -3.09606e-19 -0.00506687 6.29812e-20 1.15023e-07)
(0.00555095 -0.0173312 -2.88628e-20 -0.00555102 1.14395e-19 6.92242e-08)
(0.00599124 -0.0269702 -1.64357e-19 -0.00599128 2.15173e-19 3.50029e-08)
(0.00641427 -0.0350732 6.36434e-20 -0.00641428 8.31111e-20 1.32984e-08)
(0.00684064 -0.0415078 1.7081e-19 -0.00684065 -2.57999e-20 6.51242e-09)
(-0.0237677 0.141223 -9.14085e-20 0.0237674 9.56982e-21 2.95895e-07)
(-0.00482358 0.0868125 -2.52397e-19 0.00482288 -5.44966e-20 7.00415e-07)
(0.00437541 0.0531825 -3.05857e-20 -0.00437641 -4.29333e-20 9.95751e-07)
(0.00931603 0.0299631 -5.34332e-20 -0.00931722 1.04222e-19 1.19303e-06)
(0.0122314 0.0126513 -5.33211e-19 -0.0122327 9.61266e-20 1.3051e-06)
(0.0142102 -0.00115927 -3.35035e-19 -0.0142115 4.84166e-20 1.33578e-06)
(0.0157124 -0.0125381 -2.50271e-19 -0.0157137 3.85647e-20 1.2807e-06)
(0.0170706 -0.0222033 1.87872e-19 -0.0170717 1.68073e-19 1.121e-06)
(0.0183597 -0.030275 -4.13387e-19 -0.0183605 7.21498e-20 8.24735e-07)
(0.0196352 -0.036594 7.62373e-20 -0.0196355 -1.46734e-20 3.45806e-07)
(-0.040085 0.139093 -3.86777e-20 0.0400845 4.34494e-20 5.13838e-07)
(-0.010618 0.0917066 -2.82977e-19 0.0106168 -1.67576e-20 1.2328e-06)
(0.00399973 0.0608284 -3.92738e-19 -0.00400151 -9.33814e-20 1.78302e-06)
(0.012072 0.0386156 -2.89e-19 -0.0120742 1.03813e-20 2.18265e-06)
(0.0169907 0.021568 -3.96669e-19 -0.0169931 6.49451e-20 2.44213e-06)
(0.020418 0.00774857 -1.10938e-19 -0.0204206 5.54967e-20 2.55173e-06)
(0.023059 -0.00371857 -1.84692e-19 -0.0230615 5.27529e-20 2.48922e-06)
(0.0254207 -0.0134069 -5.95889e-20 -0.0254229 6.77003e-20 2.20567e-06)
(0.0276151 -0.0214001 -1.78952e-19 -0.0276167 -6.28643e-20 1.63581e-06)
(0.0297155 -0.0274903 3.52264e-19 -0.0297162 1.18135e-20 6.84706e-07)
(-0.0569639 0.135417 -4.55899e-20 0.0569632 5.35589e-20 7.25648e-07)
(-0.0198171 0.0974286 -4.50465e-19 0.0198153 -5.39068e-20 1.75045e-06)
(-0.000753649 0.0703137 -1.38674e-19 0.0007511 -1.12563e-19 2.54941e-06)
(0.0102193 0.0495498 1.12345e-19 -0.0102224 -2.31413e-20 3.14743e-06)
(0.0172088 0.032957 1.47343e-19 -0.0172124 2.05432e-19 3.55249e-06)
(0.0222473 0.0192179 -2.88005e-19 -0.0222511 1.64106e-19 3.74127e-06)
(0.0262011 0.00771278 -2.98024e-19 -0.0262048 -9.52376e-20 3.67367e-06)
(0.0296886 -0.00194071 4.11144e-21 -0.0296919 -1.20066e-19 3.27071e-06)
(0.0328426 -0.00977912 1.74142e-20 -0.032845 1.84574e-20 2.43388e-06)
(0.0357281 -0.0155321 -6.90756e-19 -0.0357291 8.00208e-20 1.01916e-06)
(-0.0743402 0.129718 4.76117e-20 0.0743393 -3.43319e-20 9.26689e-07)
(-0.0329078 0.102326 2.20944e-19 0.0329055 9.59941e-20 2.2426e-06)
(-0.0105774 0.0796081 1.63182e-19 0.0105741 1.11629e-19 3.27889e-06)
(0.00299875 0.0606706 3.88982e-20 -0.00300282 9.41234e-20 4.06707e-06)
(0.0121188 0.0447812 4.23591e-20 -0.0121234 1.69685e-19 4.61237e-06)
(0.018943 0.0313063 -5.69638e-19 -0.0189479 2.21153e-19 4.87827e-06)
(0.0244004 0.0199095 -8.02393e-19 -0.0244052 -3.15056e-19 4.80716e-06)
(0.0291459 0.0104189 -4.49016e-19 -0.0291502 1.9076e-19 4.29085e-06)
(0.0333136 0.00284918 -1.43858e-18 -0.0333168 -6.14791e-19 3.19857e-06)
(0.0369302 -0.00246542 9.09543e-19 -0.0369315 2.12628e-20 1.33918e-06)