/*--------------------------------*- C++ -*----------------------------------*\
| =========                 |                                                 |
| \\      /  F ield         | foam-extend: Open Source CFD                    |
|  \\    /   O peration     | Version:  3.0                                   |
|   \\  /    A nd           | Web:         http://www.extend-project.de       |
|    \\/     M anipulation  |                                                 |
\*---------------------------------------------------------------------------*/
FoamFile
{
    version     2.0;
    format      ascii;
    class       volVectorField;
    location    "28";
    object      u;
}
// * * * * * * * * * * * * * * * * * * * * * * * * * * * * * * * * * * * * * //

dimensions      [0 0 0 0 0 0 0];

internalField   nonuniform List<vector> 
480
(
(0.282474 -0.102421 3.56931e-19)
(0.543624 -0.0689285 1.76656e-18)
(0.72305 -0.0482928 -3.59706e-18)
(0.817206 -0.0342978 3.98015e-18)
(0.89733 -0.0247369 2.55521e-18)
(0.932652 -0.0178762 -2.12184e-18)
(0.97391 -0.0123528 -1.29125e-17)
(0.981931 -0.00834693 9.93867e-18)
(1.00442 -0.00422746 -8.09982e-18)
(0.995398 -0.000691629 -8.42895e-18)
(0.335455 -0.300114 1.94784e-18)
(0.579254 -0.201833 2.57965e-18)
(0.747983 -0.141268 -1.90132e-17)
(0.834883 -0.100167 -1.63702e-17)
(0.910041 -0.0720577 1.39664e-17)
(0.941796 -0.0518509 3.94943e-18)
(0.980171 -0.0355493 6.46075e-18)
(0.986095 -0.0236767 -2.0413e-17)
(1.00641 -0.0114036 2.78207e-17)
(0.995604 -0.00125713 4.83444e-18)
(0.437801 -0.477359 -2.11543e-18)
(0.648066 -0.32099 2.8631e-18)
(0.796133 -0.224624 1.22175e-17)
(0.869006 -0.159221 1.13915e-17)
(0.93457 -0.11448 2.29895e-17)
(0.959422 -0.0823073 -7.04521e-18)
(0.992228 -0.0563403 3.13379e-18)
(0.994087 -0.0374135 1.01164e-18)
(1.0102 -0.0178273 2.86527e-17)
(0.995951 -0.00175529 -5.21952e-17)
(0.582531 -0.622077 1.15148e-18)
(0.745376 -0.418278 3.44697e-17)
(0.864216 -0.292682 1.23466e-17)
(0.917254 -0.207434 -6.3831e-18)
(0.969244 -0.149113 -8.03557e-18)
(0.984334 -0.107168 -1.53386e-18)
(1.00926 -0.0733088 -3.56118e-19)
(1.00537 -0.0486193 -8.96111e-18)
(1.01552 -0.023061 -4.08454e-17)
(0.996419 -0.00215065 6.50254e-17)
(0.759788 -0.724404 -8.25825e-18)
(0.86455 -0.487068 6.71922e-18)
(0.947597 -0.340801 1.18864e-17)
(0.976337 -0.241521 1.30405e-17)
(1.0117 -0.173595 -1.72651e-17)
(1.01483 -0.124739 -3.51732e-18)
(1.0301 -0.0852961 -1.23677e-17)
(1.01917 -0.0565305 -1.53688e-17)
(1.02202 -0.0267449 4.77056e-17)
(0.996975 -0.00241581 -6.84452e-17)
(0.957487 -0.77737 1.11676e-17)
(0.99747 -0.52267 -1.75017e-17)
(1.04059 -0.365704 -2.00468e-17)
(1.04223 -0.259157 -2.05213e-17)
(1.05906 -0.186258 -4.02665e-18)
(1.04885 -0.13382 -5.59556e-18)
(1.05334 -0.0914861 5.53039e-17)
(1.03455 -0.0606048 -2.72972e-17)
(1.02926 -0.0286283 3.34747e-17)
(0.997585 -0.00252994 -1.01893e-17)
(1.16216 -0.777361 1.12566e-17)
(1.13507 -0.522661 -1.18948e-17)
(1.13687 -0.36569 -2.21774e-17)
(1.11045 -0.259141 -2.90365e-17)
(1.10808 -0.186237 -1.83359e-19)
(1.08406 -0.133794 1.33249e-17)
(1.0774 -0.0914529 1.21558e-17)
(1.05047 -0.0605649 6.00087e-19)
(1.03675 -0.0285783 2.95303e-17)
(0.998205 -0.00248615 -2.9272e-18)
(1.35986 -0.724381 -5.09371e-18)
(1.26799 -0.487036 -8.91705e-19)
(1.22986 -0.340763 5.35141e-18)
(1.17635 -0.24147 7.89552e-18)
(1.15543 -0.173533 1.25521e-17)
(1.11807 -0.124658 3.3244e-18)
(1.10063 -0.0852 -6.58155e-18)
(1.06584 -0.0564094 6.76512e-18)
(1.04397 -0.0265988 -2.83931e-17)
(0.998798 -0.00228404 4.79926e-17)
(1.5371 -0.622036 1.82383e-18)
(1.38716 -0.418226 9.30011e-18)
(1.31323 -0.292616 1.4122e-17)
(1.23542 -0.20735 6.38682e-18)
(1.19788 -0.149007 -1.01947e-17)
(1.14856 -0.107035 6.86529e-19)
(1.12146 -0.0731481 -4.0758e-19)
(1.07962 -0.048422 3.46676e-18)
(1.05045 -0.022819 -3.10407e-18)
(0.999321 -0.00193913 1.07219e-17)
(1.68182 -0.477306 1.62367e-18)
(1.48446 -0.320916 2.4868e-19)
(1.38131 -0.224534 1.1038e-17)
(1.28366 -0.159103 8.16676e-18)
(1.23254 -0.114334 5.76101e-18)
(1.17345 -0.0821228 -5.79089e-18)
(1.13847 -0.0561201 1.03129e-18)
(1.09087 -0.0371418 -2.12429e-18)
(1.05573 -0.0174972 -1.2643e-17)
(0.999741 -0.00147088 2.67474e-18)
(1.78416 -0.300049 9.63407e-19)
(1.55326 -0.20174 -7.34975e-19)
(1.42945 -0.141149 3.13822e-18)
(1.31777 -0.100016 3.09932e-19)
(1.25705 -0.0718699 5.55311e-20)
(1.19106 -0.0516189 2.41655e-18)
(1.1505 -0.0352703 2.86595e-18)
(1.09882 -0.0233383 1.59593e-18)
(1.05947 -0.0109893 -5.70207e-18)
(1.00003 -0.000913058 3.02248e-18)
(1.83712 -0.102348 6.07747e-19)
(1.58888 -0.068816 -8.19587e-19)
(1.45437 -0.0481495 2.3313e-18)
(1.33543 -0.0341131 1.15156e-18)
(1.26974 -0.024511 -6.59393e-19)
(1.20017 -0.0175971 1.37709e-18)
(1.15673 -0.0120211 1.57398e-18)
(1.10294 -0.00794627 1.13465e-18)
(1.0614 -0.00373952 -4.01195e-18)
(1.00017 -0.000298687 5.60836e-19)
(1.83712 0.102329 2.30743e-19)
(1.58888 0.0687958 -1.14563e-18)
(1.45437 0.0481345 2.51385e-18)
(1.33544 0.0341137 1.78974e-18)
(1.26975 0.0245212 -1.68275e-18)
(1.20018 0.0176226 1.33042e-19)
(1.15673 0.0120494 7.49506e-19)
(1.10294 0.00798453 6.99574e-19)
(1.0614 0.00376536 -4.02174e-18)
(1.00015 0.000329063 6.14468e-19)
(1.78414 0.300028 -2.31436e-20)
(1.55327 0.201722 -2.01245e-18)
(1.42946 0.141137 2.80979e-18)
(1.31779 0.10002 3.46649e-18)
(1.25707 0.0718826 -4.1752e-18)
(1.19107 0.0516455 -8.55224e-19)
(1.15051 0.0352991 -2.1229e-18)
(1.09882 0.0233746 4.28856e-18)
(1.05946 0.0110133 -8.23237e-18)
(0.999983 0.00093344 1.95385e-18)
(1.6818 0.477283 1.1706e-18)
(1.48446 0.3209 -3.41086e-18)
(1.38133 0.224527 -6.64238e-18)
(1.28368 0.159111 -3.25412e-18)
(1.23257 0.114351 -5.56308e-18)
(1.17347 0.0821513 3.02107e-18)
(1.13849 0.0561498 -8.9509e-19)
(1.09087 0.0371746 -5.61338e-19)
(1.05573 0.0175177 -5.24905e-18)
(0.999668 0.00147285 1.66977e-17)
(1.53708 0.62201 7.89479e-19)
(1.38716 0.418214 -1.53009e-17)
(1.31325 0.292616 -5.68128e-18)
(1.23545 0.207365 5.08254e-18)
(1.19791 0.14903 8.26859e-18)
(1.14858 0.107066 7.38279e-19)
(1.12149 0.0731787 -1.24441e-18)
(1.07962 0.0484499 4.80137e-18)
(1.05044 0.0228349 1.81273e-17)
(0.999232 0.00191722 -2.82727e-17)
(1.35982 0.724352 6.18115e-18)
(1.26799 0.487028 2.27656e-18)
(1.22988 0.34077 -4.1362e-18)
(1.17637 0.241491 -5.6991e-18)
(1.15546 0.173561 1.14634e-17)
(1.1181 0.124691 1.60879e-19)
(1.10066 0.0852311 -4.87277e-19)
(1.06584 0.0564317 8.32504e-18)
(1.04397 0.0266094 -3.74591e-17)
(0.998704 0.00223658 4.82094e-17)
(1.16213 0.77733 -1.14773e-17)
(1.13507 0.522657 1.77247e-17)
(1.13688 0.365704 1.93597e-17)
(1.11048 0.259167 2.01527e-17)
(1.10811 0.18627 -1.22012e-18)
(1.08409 0.133828 -5.51576e-20)
(1.07743 0.0914838 -5.07607e-17)
(1.05048 0.0605814 1.96447e-17)
(1.03675 0.0285836 -2.4345e-17)
(0.998118 0.00241566 -2.57708e-18)
(0.957456 0.777339 -1.43785e-17)
(0.997464 0.52267 8.63019e-18)
(1.0406 0.365723 1.62489e-17)
(1.04226 0.259187 2.27576e-17)
(1.05909 0.186294 -6.30965e-18)
(1.04888 0.133854 -1.63174e-17)
(1.05337 0.0915156 -3.02309e-18)
(1.03456 0.0606158 -2.74306e-18)
(1.02926 0.028629 -1.97425e-17)
(0.997513 0.00244275 -7.79057e-18)
(0.759759 0.724375 4.53145e-18)
(0.86454 0.487071 -5.37759e-18)
(0.947602 0.340822 -2.06329e-17)
(0.976356 0.241552 -2.49816e-17)
(1.01173 0.173631 -1.73111e-17)
(1.01486 0.12477 5.13083e-19)
(1.03013 0.085323 1.51883e-17)
(1.01919 0.0565369 -6.60514e-18)
(1.02203 0.0267421 5.01881e-17)
(0.996925 0.00232126 -6.9709e-17)
(0.582505 0.622052 -6.34485e-18)
(0.745363 0.418282 -1.87462e-17)
(0.864214 0.292703 -3.07422e-17)
(0.917267 0.207463 -1.52165e-17)
(0.969264 0.149146 2.55653e-17)
(0.984363 0.107195 3.86066e-18)
(1.00928 0.0733316 -5.69449e-19)
(1.00539 0.0486222 -2.34962e-18)
(1.01553 0.023056 5.22454e-18)
(0.996395 0.00205957 -8.90036e-18)
(0.437778 0.477341 -2.12429e-18)
(0.648049 0.320995 7.05915e-18)
(0.796125 0.224643 -2.02087e-17)
(0.869013 0.159245 -1.5021e-17)
(0.934585 0.114506 -1.41426e-17)
(0.959448 0.0823285 1.51576e-17)
(0.992255 0.0563576 -6.7123e-18)
(0.994118 0.0374141 5.43748e-18)
(1.01022 0.0178216 3.61058e-17)
(0.99595 0.0016787 -6.8353e-18)
(0.335435 0.300105 -2.74281e-21)
(0.579234 0.201838 8.33782e-18)
(0.747969 0.141281 3.76491e-18)
(0.834885 0.100184 1.22248e-17)
(0.910052 0.0720752 7.7775e-18)
(0.94182 0.0518647 -1.39682e-17)
(0.980198 0.0355602 -1.09544e-17)
(0.98613 0.023676 -9.25834e-18)
(1.00643 0.0113984 9.36783e-18)
(0.995623 0.00120406 -1.27509e-17)
(0.282454 0.102422 -9.5219e-19)
(0.543603 0.0689333 2.989e-18)
(0.723033 0.0482995 -3.65397e-19)
(0.817205 0.0343048 -4.70905e-18)
(0.897338 0.0247437 -2.93604e-20)
(0.932676 0.0178811 1.12603e-20)
(0.973937 0.0123562 6.50418e-18)
(0.981968 0.00834553 -2.54737e-18)
(1.00445 0.00422368 1.19382e-17)
(0.995427 0.000668871 4.57769e-18)
(0.28244 -0.102237 -3.58045e-19)
(0.543586 -0.0686627 -1.7668e-18)
(0.72301 -0.0479655 3.59754e-18)
(0.817179 -0.033902 -3.98117e-18)
(0.897306 -0.0242618 -2.55629e-18)
(0.932639 -0.0173065 2.12227e-18)
(0.973891 -0.0116723 1.2916e-17)
(0.981916 -0.00753282 -9.94164e-18)
(1.00438 -0.00321273 8.10647e-18)
(0.995377 0.000108619 8.43555e-18)
(0.3354 -0.299923 -1.94945e-18)
(0.57918 -0.201573 -2.58043e-18)
(0.747905 -0.140953 1.90173e-17)
(0.834806 -0.0997882 1.63736e-17)
(0.909959 -0.0716013 -1.39716e-17)
(0.941708 -0.0513002 -3.95026e-18)
(0.980066 -0.0348878 -6.46251e-18)
(0.985971 -0.0228773 2.04225e-17)
(1.00624 -0.0104043 -2.78299e-17)
(0.995471 -0.000439582 -4.83986e-18)
(0.437717 -0.477166 2.11396e-18)
(0.647963 -0.320738 -2.86334e-18)
(0.796016 -0.224326 -1.22186e-17)
(0.868884 -0.158863 -1.13935e-17)
(0.93443 -0.114049 -2.29962e-17)
(0.959265 -0.081783 7.04635e-18)
(0.992035 -0.0557088 -3.13511e-18)
(0.993858 -0.0366422 -1.01114e-18)
(1.00989 -0.0168621 -2.86632e-17)
(0.995701 -0.000939195 5.22129e-17)
(0.582424 -0.621885 -1.15261e-18)
(0.745242 -0.41804 -3.44746e-17)
(0.864068 -0.292403 -1.23471e-17)
(0.917088 -0.207102 6.38512e-18)
(0.969053 -0.148712 8.03363e-18)
(0.984109 -0.106679 1.53468e-18)
(1.00898 -0.0727163 3.56986e-19)
(1.00503 -0.0478915 8.96459e-18)
(1.01509 -0.0221462 4.0865e-17)
(0.996049 -0.00135852 -6.50483e-17)
(0.759654 -0.724222 8.25831e-18)
(0.864391 -0.486845 -6.71999e-18)
(0.947416 -0.340545 -1.18878e-17)
(0.976134 -0.241217 -1.30426e-17)
(1.01146 -0.17323 1.72648e-17)
(1.01455 -0.124291 3.52139e-18)
(1.02975 -0.0847534 1.23738e-17)
(1.01874 -0.0558582 1.53747e-17)
(1.02147 -0.0258991 -4.77066e-17)
(0.996492 -0.001669 6.84531e-17)
(0.957334 -0.777198 -1.11679e-17)
(0.997285 -0.522468 1.75045e-17)
(1.04038 -0.365471 2.00477e-17)
(1.04199 -0.258885 2.05232e-17)
(1.05877 -0.185931 4.02809e-18)
(1.0485 -0.133421 5.60141e-18)
(1.05292 -0.0909993 -5.5316e-17)
(1.03403 -0.0600027 2.73056e-17)
(1.0286 -0.0278651 -3.34841e-17)
(0.996996 -0.00185249 1.01902e-17)
(1.16199 -0.777208 -1.12562e-17)
(1.13487 -0.522478 1.18974e-17)
(1.13663 -0.365485 2.21801e-17)
(1.11018 -0.258901 2.90373e-17)
(1.10775 -0.185952 1.83899e-19)
(1.08366 -0.133447 -1.33226e-17)
(1.07691 -0.0910321 -1.21644e-17)
(1.04987 -0.0600421 -6.00456e-19)
(1.03598 -0.0279146 -2.95416e-17)
(0.997529 -0.00189543 2.9269e-18)
(1.35967 -0.724247 5.09467e-18)
(1.26777 -0.486878 8.92047e-19)
(1.2296 -0.340584 -5.34977e-18)
(1.17604 -0.241268 -7.89419e-18)
(1.15506 -0.173292 -1.2556e-17)
(1.11762 -0.124371 -3.32594e-18)
(1.10009 -0.0848487 6.57677e-18)
(1.06517 -0.0559781 -6.76777e-18)
(1.04313 -0.0260438 2.83887e-17)
(0.99805 -0.00179837 -4.79939e-17)
(1.53691 -0.621929 -1.82315e-18)
(1.38692 -0.418093 -9.30217e-18)
(1.31296 -0.292469 -1.41198e-17)
(1.23509 -0.207186 -6.38452e-18)
(1.19748 -0.148817 1.01891e-17)
(1.14807 -0.10681 -6.88819e-19)
(1.12087 -0.0728755 4.0597e-19)
(1.07889 -0.0480869 -3.46811e-18)
(1.04953 -0.0223857 3.10496e-18)
(0.998525 -0.00156607 -1.0725e-17)
(1.68163 -0.477222 -1.62433e-18)
(1.48421 -0.320814 -2.50553e-19)
(1.38101 -0.224418 -1.10375e-17)
(1.28331 -0.158981 -8.16627e-18)
(1.23211 -0.114194 -5.76151e-18)
(1.17293 -0.081966 5.78922e-18)
(1.13784 -0.0559272 -1.03226e-18)
(1.0901 -0.0369116 2.12294e-18)
(1.05477 -0.0171892 1.26351e-17)
(0.99892 -0.00121843 -2.67746e-18)
(1.78396 -0.299993 -9.64963e-19)
(1.553 -0.201667 7.32218e-19)
(1.42914 -0.141072 -3.13868e-18)
(1.3174 -0.0999389 -3.12043e-19)
(1.2566 -0.0717883 -5.9423e-20)
(1.19051 -0.0515308 -2.41405e-18)
(1.14984 -0.0351649 -2.86471e-18)
(1.09802 -0.023213 -1.59074e-18)
(1.05847 -0.010815 5.70067e-18)
(0.999206 -0.000777232 -3.01983e-18)
(1.83693 -0.102314 -6.09718e-19)
(1.58861 -0.0687779 8.18197e-19)
(1.45404 -0.0481099 -2.33249e-18)
(1.33504 -0.0340865 -1.15242e-18)
(1.26927 -0.0244867 6.5781e-19)
(1.1996 -0.0175839 -1.37839e-18)
(1.15605 -0.0120018 -1.57837e-18)
(1.10212 -0.00793051 -1.1343e-18)
(1.06039 -0.00369683 4.00892e-18)
(0.999363 -0.000277532 -5.65824e-19)
(1.83694 0.102335 -2.33033e-19)
(1.58861 0.0688011 1.14468e-18)
(1.45404 0.0481288 -2.51506e-18)
(1.33503 0.0340902 -1.79063e-18)
(1.26927 0.0244807 1.68193e-18)
(1.1996 0.0175626 -1.33901e-19)
(1.15604 0.0119771 -7.53611e-19)
(1.10212 0.00789517 -6.98012e-19)
(1.06039 0.00367295 4.02298e-18)
(0.999379 0.000247926 -6.18257e-19)
(1.78397 0.300015 2.03783e-20)
(1.553 0.201689 2.01104e-18)
(1.42913 0.141089 -2.81051e-18)
(1.31738 0.09994 -3.46874e-18)
(1.25658 0.0717798 4.17449e-18)
(1.19049 0.0515083 8.56105e-19)
(1.14983 0.0351395 2.12461e-18)
(1.09802 0.0231794 -4.29306e-18)
(1.05847 0.0107927 8.24222e-18)
(0.999252 0.000757289 -1.95714e-18)
(1.68165 0.477247 -1.17342e-18)
(1.48421 0.320833 3.41018e-18)
(1.381 0.224429 6.64284e-18)
(1.28328 0.158978 3.25423e-18)
(1.23209 0.114181 5.56263e-18)
(1.17291 0.0819413 -3.0233e-18)
(1.13782 0.0559007 8.94936e-19)
(1.09009 0.0368812 5.60316e-19)
(1.05477 0.0171699 5.25636e-18)
(0.998989 0.00121621 -1.67133e-17)
(1.53694 0.621958 -7.91316e-19)
(1.38692 0.418109 1.52991e-17)
(1.31294 0.292474 5.68158e-18)
(1.23506 0.207175 -5.08312e-18)
(1.19745 0.148799 -8.27409e-18)
(1.14804 0.106783 -7.39246e-19)
(1.12085 0.0728477 1.24446e-18)
(1.07889 0.0480608 -4.80272e-18)
(1.04953 0.0223703 -1.81259e-17)
(0.998609 0.00158673 2.8284e-17)
(1.35971 0.72428 -6.18218e-18)
(1.26777 0.486891 -2.27755e-18)
(1.22958 0.340581 4.13448e-18)
(1.17601 0.241251 5.6974e-18)
(1.15503 0.173267 -1.14684e-17)
(1.11759 0.124341 -1.59065e-19)
(1.10006 0.0848197 4.90772e-19)
(1.06516 0.0559569 -8.32444e-18)
(1.04313 0.0260327 3.74819e-17)
(0.998137 0.00184322 -4.82282e-17)
(1.16202 0.777244 1.14764e-17)
(1.13487 0.522487 -1.77233e-17)
(1.13662 0.365476 -1.93609e-17)
(1.11015 0.258879 -2.01531e-17)
(1.10771 0.185923 1.22002e-18)
(1.08363 0.133416 5.97268e-20)
(1.07688 0.0910028 5.07571e-17)
(1.04985 0.060026 -1.96407e-17)
(1.03598 0.0279079 2.43471e-17)
(0.997609 0.00196175 2.57292e-18)
(0.957369 0.777236 1.4378e-17)
(0.997293 0.522474 -8.6278e-18)
(1.04037 0.365457 -1.62462e-17)
(1.04197 0.258859 -2.27565e-17)
(1.05874 0.185898 6.30912e-18)
(1.04847 0.13339 1.63177e-17)
(1.05289 0.0909706 3.01437e-18)
(1.03401 0.0599912 2.73847e-18)
(1.02859 0.0278619 1.97304e-17)
(0.997061 0.00193367 7.78061e-18)
(0.759687 0.724258 -4.53092e-18)
(0.864402 0.486849 5.37767e-18)
(0.947412 0.340529 2.0633e-17)
(0.976115 0.24119 2.49797e-17)
(1.01144 0.173197 1.73047e-17)
(1.01452 0.124261 -5.15201e-19)
(1.02972 0.0847269 -1.51911e-17)
(1.01871 0.0558506 6.59752e-18)
(1.02145 0.0258985 -5.0179e-17)
(0.996535 0.00175573 6.96792e-17)
(0.582453 0.621919 6.34488e-18)
(0.745257 0.418042 1.87426e-17)
(0.86407 0.292387 3.07407e-17)
(0.917076 0.207077 1.52158e-17)
(0.969031 0.148682 -2.55642e-17)
(0.984079 0.106653 -3.86119e-18)
(1.00895 0.0726934 5.67244e-19)
(1.005 0.0478866 2.34502e-18)
(1.01507 0.0221468 -5.22171e-18)
(0.996068 0.00143988 8.88641e-18)
(0.437743 0.477193 2.12376e-18)
(0.647981 0.32074 -7.05975e-18)
(0.796025 0.224313 2.0206e-17)
(0.868878 0.158843 1.50178e-17)
(0.934414 0.114026 1.4139e-17)
(0.959238 0.0817629 -1.51523e-17)
(0.992006 0.0556912 6.70948e-18)
(0.993825 0.0366393 -5.43723e-18)
(1.00987 0.0168629 -3.60907e-17)
(0.995697 0.0010046 6.82916e-18)
(0.335422 0.299942 1.79791e-21)
(0.579201 0.201575 -8.33863e-18)
(0.74792 0.140945 -3.7641e-18)
(0.834804 0.0997756 -1.22236e-17)
(0.909948 0.0715863 -7.77836e-18)
(0.941683 0.0512875 1.39655e-17)
(0.980038 0.0348764 1.09496e-17)
(0.985935 0.0228752 9.25581e-18)
(1.00621 0.010404 -9.36251e-18)
(0.995449 0.000480113 1.27466e-17)
(0.282461 0.102247 9.51094e-19)
(0.543608 0.0686662 -2.98906e-18)
(0.723027 0.0479646 3.64922e-19)
(0.817181 0.033899 4.70752e-18)
(0.897297 0.0242575 2.84888e-20)
(0.932615 0.0173027 -1.20492e-20)
(0.973864 0.0116685 -6.50465e-18)
(0.981879 0.00753125 2.54604e-18)
(1.00435 0.0032108 -1.19322e-17)
(0.995347 -9.91664e-05 -4.57518e-18)
)
;

boundaryField
{
    out
    {
        type            fixedValue;
        value           uniform (1 0 0);
    }
    in
    {
        type            myVelocity;
    }
    frontAndBack
    {
        type            empty;
    }
}


// ************************************************************************* //
