/*--------------------------------*- C++ -*----------------------------------*\
| =========                 |                                                 |
| \\      /  F ield         | foam-extend: Open Source CFD                    |
|  \\    /   O peration     | Version:  3.0                                   |
|   \\  /    A nd           | Web:         http://www.extend-project.de       |
|    \\/     M anipulation  |                                                 |
\*---------------------------------------------------------------------------*/
FoamFile
{
    version     2.0;
    format      ascii;
    class       volScalarField;
    location    "23";
    object      p;
}
// * * * * * * * * * * * * * * * * * * * * * * * * * * * * * * * * * * * * * //

dimensions      [0 0 0 0 0 0 0];

internalField   nonuniform List<scalar> 
672
(
-0.239709491
-0.2035474491
-0.191954681
-0.1736813618
-0.1704046465
-0.1606982067
-0.1609207576
-0.1556273884
-0.1566651843
-0.1530360353
-0.152533106
-0.1478846563
-0.236721412
-0.2010113403
-0.1895632661
-0.1715186743
-0.1682830187
-0.1586980935
-0.1589179462
-0.1536908096
-0.1547156747
-0.1511318899
-0.1506352248
-0.1460449615
-0.2307346327
-0.1959303098
-0.1847737599
-0.1671873042
-0.1640348974
-0.1546936279
-0.1549089713
-0.1498148926
-0.1508145727
-0.1473219185
-0.1468382536
-0.1423643963
-0.2218670177
-0.188401921
-0.1776747145
-0.160765183
-0.1577342972
-0.1487526421
-0.1489599019
-0.1440619074
-0.1450232322
-0.1416649616
-0.1411999321
-0.1368982802
-0.2101887394
-0.1784879321
-0.1683273261
-0.1523097512
-0.1494398495
-0.140932286
-0.1411297189
-0.1364904357
-0.1374019124
-0.1342209505
-0.1337808815
-0.129705995
-0.1958877707
-0.1663456725
-0.1568772212
-0.1419506411
-0.1392765314
-0.1313485366
-0.1315328391
-0.1272095999
-0.1280591848
-0.1250948476
-0.1246847927
-0.1208874568
-0.1791029082
-0.1520952426
-0.1434401572
-0.1297946772
-0.1273512456
-0.1201040462
-0.1202737379
-0.116321954
-0.117099583
-0.1143898689
-0.1140154952
-0.1105439353
-0.1600862323
-0.1359484231
-0.1282134613
-0.1160182617
-0.1138349925
-0.1073581781
-0.1075102874
-0.1039786072
-0.104673888
-0.1022521565
-0.1019176649
-0.09881506763
-0.1390358711
-0.1180756709
-0.111360154
-0.1007710219
-0.09887660335
-0.09325318098
-0.09338663808
-0.0903205307
-0.09092534783
-0.08882277215
-0.08853287593
-0.08583872388
-0.1162575427
-0.09873433614
-0.09312067942
-0.08426833071
-0.08268534519
-0.07798444786
-0.07809671056
-0.0755336582
-0.07603975619
-0.07428205242
-0.07403987237
-0.07178757799
-0.09199670174
-0.0781350518
-0.07369586842
-0.06669407428
-0.06544365513
-0.06172597743
-0.06181648369
-0.05978977867
-0.06019143408
-0.05880141254
-0.05861050974
-0.05682885098
-0.06659938807
-0.05656942122
-0.05335851535
-0.04829286191
-0.04738949097
-0.04470018039
-0.04476691536
-0.04330095586
-0.04359243971
-0.04258685274
-0.0424490742
-0.04115999345
-0.0403440809
-0.03427611584
-0.03233586934
-0.02927251416
-0.02872876752
-0.02710322654
-0.02714619233
-0.02626047367
-0.02643876623
-0.02583096157
-0.02574857389
-0.02496872997
-0.01360179534
-0.01156795975
-0.01092076054
-0.009895758478
-0.009717239259
-0.009174302581
-0.009192090344
-0.008896659672
-0.008958837232
-0.008755725302
-0.008729190799
-0.008467927806
0.01333195369
0.01130190888
0.01064593183
0.009617240819
0.009427088894
0.008879016801
0.008885810946
0.008586182803
0.008640271871
0.008435432258
0.008405242278
0.008144189366
0.04007773444
0.0340135092
0.03206460649
0.02899762214
0.02844240969
0.02681182086
0.02684395923
0.02595412555
0.02612446438
0.02551498489
0.02542902117
0.02464940166
0.06633986912
0.05631356083
0.05309426137
0.04802510944
0.04711063446
0.04441646536
0.04447274266
0.0430028433
0.04328667843
0.04227951601
0.04213833086
0.04084949493
0.09174747483
0.07788933318
0.07344211224
0.06643699577
0.06517596227
0.06145368335
0.06153422038
0.05950381604
0.05989822047
0.05850677332
0.05831269784
0.0565313215
0.116021605
0.09850174543
0.09288055557
0.08402512771
0.08243221596
0.07772706978
0.07783005806
0.07526363216
0.07576304056
0.0740040967
0.07375904953
0.07150707704
0.1388164537
0.1178593585
0.111136871
0.1005449431
0.09864137718
0.09301411612
0.09313907694
0.09006997238
0.09066873358
0.08856513943
0.08827274295
0.08557896046
0.1598858589
0.1357509193
0.1280097011
0.1158120315
0.1136205703
0.1071403884
0.1072849488
0.1037507045
0.1044406763
0.1020181699
0.1016815773
0.09857940036
0.1789243794
0.1519192614
0.1432586362
0.1296110614
0.1271604476
0.1199104142
0.1200735648
0.1161196898
0.1168928164
0.1141825835
0.1138065575
0.1103354602
0.1957330284
0.1661931848
0.156720092
0.1417917945
0.1391116611
0.1311813703
0.1313602488
0.1270353991
0.1278813349
0.1249167353
0.1245054744
0.1207086448
0.2100600058
0.1783610653
0.168196601
0.1521777507
0.149302978
0.1407937299
0.1409868871
0.1363465082
0.137255227
0.1340742565
0.1336334524
0.1295590958
0.221765518
0.1883019672
0.1775719812
0.1606615792
0.1576271295
0.1486443482
0.1488485376
0.1439499126
0.1449093574
0.141551292
0.1410859536
0.1367848421
0.2306619984
0.1958588007
0.1847001892
0.1671133254
0.1639585276
0.1546167423
0.1548301872
0.149735969
0.150734674
0.147242448
0.1467589353
0.1422856122
0.2366778937
0.200968579
0.189519693
0.1714750874
0.1682384225
0.158653525
0.158872721
0.153645899
0.1546706749
0.1510874792
0.1505913387
0.1460015917
0.2396972402
0.2035350086
0.1919417808
0.1736687814
0.1703921165
0.1606862021
0.1609091765
0.1556165225
0.1566550719
0.1530266631
0.1525246323
0.1478766315
0.2397223487
0.2035578245
0.191964072
0.1736900291
0.1704133769
0.1607069175
0.1609300458
0.1556370465
0.1566756802
0.1530469646
0.1525448247
0.1478965546
0.2367126468
0.20100475
0.189558225
0.1715153686
0.1682810976
0.1586977142
0.1589189725
0.1536932287
0.1547194724
0.1511367754
0.1506413367
0.1460517021
0.2307462147
0.195939861
0.1847825382
0.1671953277
0.1640429188
0.1547015447
0.1549173311
0.1498234896
0.1508238097
0.1473314641
0.1468484257
0.1423746786
0.2218578865
0.1883949115
0.1776690547
0.1607610816
0.1577313432
0.1487510098
0.1489593971
0.1440625579
0.1450249679
0.1416675884
0.141203526
0.1369023766
0.2101996147
0.1784967094
0.1683352342
0.1523166909
0.1494465354
0.1409385953
0.1411361459
0.1364968209
0.1374085907
0.1342276767
0.1337878949
0.1297129703
0.1958778773
0.1663378428
0.1568704908
0.141945242
0.1392719329
0.1313449415
0.1315299659
0.1272075473
0.1280578156
0.1250940738
0.124684615
0.1208876112
0.1791128906
0.1521030943
0.1434469605
0.1298002712
0.1273562444
0.1201083132
0.1202776725
0.1163254518
0.117102902
0.1143928831
0.1140183678
0.110546576
0.1600754209
0.1359396376
0.128205535
0.116011443
0.1138286089
0.1073524525
0.1075048209
0.1039735578
0.1046690291
0.102247527
0.1019131868
0.09881072052
0.1390449267
0.1180825703
0.1113658034
0.1007752351
0.09887986897
0.09325536178
0.09338801896
0.09032106291
0.09092519256
0.08882194405
0.08853146125
0.08583688162
0.1162458681
0.09872465931
0.09311165461
0.08426021655
0.08267733423
0.07797677899
0.07808886805
0.07552585167
0.07603166765
0.07427384244
0.07403139991
0.07177904925
0.09200496661
0.07814114018
0.07370053328
0.06669712177
0.06544546134
0.06172641164
0.06181572839
0.05978783388
0.0601883679
0.05879736394
0.05860549543
0.05682324843
0.06658707814
0.05655908815
0.05334868508
0.04828379829
0.04738028575
0.04469108502
0.04475732363
0.04329112096
0.04358196916
0.04257600443
0.04243766188
0.0411483901
0.04035184709
0.03428169354
0.0323399171
0.02927483575
0.02872966951
0.02710258332
0.02714412274
0.02625700803
0.02643391135
0.02582493382
0.02574134332
0.02496081354
0.0135891991
0.01155733004
0.01091056697
0.009886265919
0.009707494185
0.009164561616
0.009181704145
0.008885905269
0.008947282434
0.008743680107
0.008716445084
0.008454932546
-0.01332429372
-0.01129643781
-0.01064200718
-0.009615061735
-0.009426357909
-0.0088798616
-0.008888121716
-0.008589925334
-0.0086454516
-0.008441818992
-0.008412877574
-0.008152527955
-0.04009021497
-0.03402401975
-0.03207465146
-0.02900694009
-0.02845193212
-0.02682129767
-0.02685402178
-0.02596450558
-0.02613558108
-0.02552654389
-0.02544122508
-0.02466182956
-0.06633190129
-0.05630777013
-0.05308993875
-0.04802246097
-0.04710930643
-0.04441659799
-0.0444741777
-0.04300557047
-0.04329066305
-0.04228457856
-0.04214448789
-0.04085628914
-0.0917594619
-0.0778993337
-0.07345152575
-0.06644557035
-0.06518454132
-0.06146203585
-0.06154290229
-0.05951259952
-0.05990746102
-0.05851625739
-0.05832259107
-0.05654133442
-0.1160129767
-0.09849527269
-0.09287538962
-0.08402148925
-0.08242963575
-0.07772571119
-0.07782966806
-0.07526424764
-0.07576454392
-0.07400641132
-0.0737621376
-0.07151066474
-0.1388276658
-0.1178685589
-0.111145291
-0.1005523504
-0.09864847462
-0.09302069971
-0.09314559172
-0.09007624809
-0.09067503338
-0.08857136774
-0.08827901164
-0.08558518247
-0.1598763499
-0.1357435382
-0.1280034069
-0.115807072
-0.113616319
-0.1071370362
-0.1072821243
-0.1037485061
-0.1044388799
-0.1020168334
-0.1016805895
-0.09857872785
-0.1789346847
-0.1519275268
-0.1432658852
-0.1296170957
-0.1271658048
-0.1199149151
-0.1200775352
-0.1161230196
-0.1168956687
-0.1141849927
-0.1138085695
-0.1103372259
-0.1957225963
-0.166184849
-0.1567126005
-0.1417854313
-0.1391056394
-0.1311758996
-0.1313548425
-0.1270302186
-0.1278760503
-0.1249115438
-0.1245001851
-0.1207034728
-0.2100694523
-0.1783684437
-0.16820272
-0.1521824481
-0.1493066531
-0.1407962182
-0.1409884111
-0.1363470126
-0.1372547824
-0.1340730211
-0.1336314006
-0.1295566048
-0.2217543061
-0.1882928116
-0.1775634615
-0.1606539833
-0.1576195733
-0.1486370393
-0.1488409056
-0.1439421671
-0.1449010858
-0.1415428053
-0.1410769907
-0.1367758226
-0.2306708215
-0.1958655203
-0.1847054531
-0.1671169623
-0.1639608745
-0.154617641
-0.154829797
-0.149734278
-0.1507316888
-0.1472384216
-0.1467537891
-0.1422798809
-0.2366661501
-0.2009588431
-0.1895105247
-0.1714666632
-0.1682298751
-0.158645026
-0.1588636705
-0.153636528
-0.154660525
-0.151076923
-0.1505800646
-0.145990159
-0.2397058296
-0.2035414196
-0.1919466394
-0.1736718639
-0.1703937766
-0.1606862753
-0.1609078012
-0.1556137123
-0.1566508027
-0.1530212531
-0.1525179706
-0.1478693217
)
;

boundaryField
{
    out
    {
        type            implicitExtrapolation;
    }
    in
    {
        type            implicitExtrapolation;
    }
    frontAndBack
    {
        type            empty;
    }
}


// ************************************************************************* //
