/*--------------------------------*- C++ -*----------------------------------*\
| =========                 |                                                 |
| \\      /  F ield         | foam-extend: Open Source CFD                    |
|  \\    /   O peration     | Version:  3.0                                   |
|   \\  /    A nd           | Web:         http://www.extend-project.de       |
|    \\/     M anipulation  |                                                 |
\*---------------------------------------------------------------------------*/
FoamFile
{
    version     2.0;
    format      ascii;
    class       volSymmTensorField;
    location    "23";
    object      sigma;
}
// * * * * * * * * * * * * * * * * * * * * * * * * * * * * * * * * * * * * * //

dimensions      [0 0 0 0 0 0 0];

internalField   nonuniform List<symmTensor> 
672
(
(-0.1684027305 -0.01038585961 -1.225939771e-19 0.1683216654 -2.488089517e-20 8.106511872e-05)
(-0.1551732515 -0.01197163621 -2.833227416e-19 0.1549703229 -1.505003762e-20 0.0002029285834)
(-0.1365405866 -0.01180289377 -1.888408461e-19 0.1362372066 -5.970020777e-21 0.0003033800695)
(-0.1173089046 -0.01096322471 -7.988014784e-20 0.1169234505 -1.044693494e-21 0.0003854540774)
(-0.09919966192 -0.00990162094 -3.088481774e-19 0.0987496994 -3.446681018e-20 0.0004499625166)
(-0.08273247768 -0.008815376998 -3.003302092e-19 0.0822371618 -1.469243649e-19 0.0004953158806)
(-0.06804400224 -0.007791276493 -4.63371498e-19 0.06752494912 -1.542441438e-19 0.0005190531188)
(-0.05516038275 -0.006878480268 -5.693839965e-19 0.05464365886 -4.102005976e-19 0.0005167238889)
(-0.04406790175 -0.006095921562 -5.911289205e-19 0.04358469873 -2.711221761e-19 0.0004832030203)
(-0.03487801743 -0.005473489617 -3.315545072e-19 0.03446681803 -1.301796431e-20 0.0004111993997)
(-0.02768182598 -0.005023173908 -1.004322342e-19 0.02738924792 1.220004123e-19 0.0002925780575)
(-0.02281561468 -0.004774659101 -3.16509145e-20 0.02269888687 -2.030357974e-19 0.0001167278149)
(-0.1654953224 -0.03082440166 -1.014849941e-19 0.1654164569 7.852218075e-21 7.886557231e-05)
(-0.1503802206 -0.03523785568 -2.694782073e-19 0.1501827656 6.193833121e-20 0.0001974549952)
(-0.1312053484 -0.03461508307 -2.201411514e-19 0.1309101259 1.45816635e-19 0.0002952224251)
(-0.1119998396 -0.03207723829 -4.936527879e-20 0.1116247493 -4.970628434e-20 0.0003750903565)
(-0.09415403441 -0.02891547443 -2.984266696e-19 0.09371617441 2.200213063e-20 0.0004378599927)
(-0.07803345464 -0.02569516962 -2.960567418e-19 0.07755147788 -2.429503261e-19 0.0004819767628)
(-0.06370366999 -0.02266416144 -5.507849757e-19 0.06319862384 -3.678482899e-19 0.0005050461458)
(-0.05114883728 -0.01996222878 -8.891545781e-19 0.050646097 -5.597641057e-19 0.0005027402801)
(-0.04033839094 -0.01764273366 -4.905933564e-19 0.03986831348 -7.334387954e-20 0.0004700774596)
(-0.03136203135 -0.01579105194 -1.058157649e-19 0.03096205654 -1.079017212e-19 0.0003999748107)
(-0.02430411124 -0.01444132097 -3.307095813e-19 0.02401956842 -1.352515412e-19 0.0002845428269)
(-0.01948812344 -0.01367888981 -1.564510092e-19 0.0193746324 -1.658608548e-19 0.0001134910394)
(-0.159809733 -0.05049001509 -3.109566716e-20 0.15973403 -5.019786954e-20 7.570294624e-05)
(-0.1411753096 -0.05666848652 -2.077544745e-19 0.140985782 1.367103502e-19 0.0001895276409)
(-0.1210093015 -0.05521847116 -2.747097754e-19 0.120725934 2.571217383e-19 0.0002833674651)
(-0.1018798931 -0.05090858065 -2.235334469e-19 0.1015198714 7.778465891e-20 0.0003600216636)
(-0.08455383224 -0.04570403757 -3.464191065e-19 0.08413357065 5.60789559e-20 0.0004202615843)
(-0.06910681454 -0.04045873597 -6.8997982e-19 0.06864422698 -1.611227781e-19 0.0004625875603)
(-0.05547088134 -0.03554439752 -1.003087515e-18 0.05498618276 -4.60402423e-20 0.0004846985743)
(-0.04355140017 -0.03116920204 -9.384826993e-19 0.04306895735 -7.466477801e-20 0.0004824428139)
(-0.03328623512 -0.02741190533 -3.312025614e-19 0.03283518941 1.050832679e-20 0.0004510457093)
(-0.02472415876 -0.02440230186 -5.045327421e-19 0.02434043394 -2.552778375e-19 0.0003837248171)
(-0.01793686245 -0.0221935081 -3.644828877e-19 0.01766393016 -2.426850121e-19 0.0002729322908)
(-0.01322357729 -0.02092127482 -6.522439302e-20 0.01311474773 -1.767266636e-19 0.0001088295518)
(-0.1515838622 -0.06892680536 5.314718154e-20 0.1515122819 -5.174818122e-20 7.158028028e-05)
(-0.1282756305 -0.07523957053 -2.523106462e-20 0.1280964201 1.653403067e-19 0.000179210337)
(-0.1068465915 -0.07239294822 -1.89047937e-19 0.1065786438 2.642450247e-19 0.0002679476564)
(-0.08788796978 -0.06620210523 -2.147050142e-19 0.08754754087 1.850286549e-19 0.0003404289077)
(-0.07132384462 -0.05904740269 -2.600749258e-19 0.07092645994 -3.253730828e-20 0.0003973846837)
(-0.05683927497 -0.05194882433 -4.738945778e-19 0.05640188393 1.089519825e-19 0.0004373910389)
(-0.04418671377 -0.04534480975 -6.340454114e-19 0.04372844485 3.607368226e-19 0.0004582689159)
(-0.03316576603 -0.03947779518 -1.288793995e-18 0.03270967199 3.356297604e-19 0.000456094042)
(-0.02367202865 -0.03443806158 -7.129423578e-19 0.02324567056 1.220596516e-19 0.0004263580909)
(-0.01569900604 -0.0303827884 -8.856957781e-19 0.01533634334 6.041207387e-19 0.0003626626949)
(-0.009301144372 -0.02737920068 -7.244452845e-19 0.009043246013 2.228496631e-19 0.0002578983592)
(-0.004744021044 -0.02560534299 -1.881302607e-19 0.004641217667 2.750097243e-19 0.0001028033768)
(-0.1411470857 -0.08576103057 -2.717808819e-21 0.1410805276 1.392046649e-19 6.655803334e-05)
(-0.1126602072 -0.09020414924 6.439775556e-20 0.1124935666 2.273873326e-19 0.0001666406073)
(-0.08993568759 -0.08526854251 -1.787561038e-19 0.08968652606 3.180697311e-19 0.0002491615245)
(-0.07130245543 -0.07707247439 -3.138305648e-19 0.07098589479 1.593464579e-19 0.0003165606488)
(-0.05572254236 -0.0680912678 -4.342731244e-19 0.05535302432 5.443777312e-21 0.000369518037)
(-0.04243697257 -0.05935976909 -3.541597043e-19 0.04203026929 2.444452668e-19 0.0004067032799)
(-0.03099477359 -0.05131257779 -2.004630757e-19 0.03056868644 3.174145135e-19 0.000426087145)
(-0.02107614473 -0.04418427821 -1.008892842e-18 0.02065212224 4.641016016e-19 0.0004240224938)
(-0.01252914307 -0.03805959114 -4.349884229e-19 0.01213281975 4.717258746e-19 0.0003963233206)
(-0.00528421974 -0.03310204274 3.614512352e-19 0.004947164934 4.221019923e-19 0.0003370548062)
(0.000624212188 -0.02938693595 -7.251126152e-19 -0.000863845651 4.52978074e-19 0.000239633463)
(0.004970752679 -0.02712447689 -2.091389401e-19 -0.005066242643 2.250176626e-19 9.548996413e-05)
(-0.1288907614 -0.1007216749 -3.617475254e-22 0.1288300627 1.773871e-19 6.069864081e-05)
(-0.09546594996 -0.1011591721 9.508833685e-20 0.09531397422 3.028076828e-19 0.0001519757392)
(-0.07168724264 -0.09340961969 4.723745947e-20 0.07145999916 2.377142579e-19 0.0002272434763)
(-0.05360137308 -0.08309293567 -3.554338785e-19 0.05331265832 1.584065303e-19 0.0002887147601)
(-0.03920366937 -0.07243458168 -2.299025161e-19 0.03886666036 -1.148470519e-19 0.0003370090089)
(-0.02729222934 -0.06232167492 -2.894297992e-19 0.02692132276 2.327147307e-19 0.0003709065823)
(-0.01721437666 -0.05310921815 3.874626816e-19 0.01682582327 3.602924768e-20 0.0003885533888)
(-0.008532564629 -0.04497878285 -4.286331061e-19 0.00814593946 7.527045692e-20 0.0003866251687)
(-0.001048280245 -0.03799123753 -9.533187598e-19 0.0006869689397 1.17795599e-19 0.0003613113056)
(0.005371336531 -0.03229380009 -2.315151902e-19 -0.00567855074 4.501327693e-19 0.0003072142097)
(0.01071261015 -0.02796331988 7.805545834e-19 -0.01093096996 3.209111836e-21 0.0002183598127)
(0.01479355274 -0.02523101406 -3.728454102e-19 -0.01488053027 2.171149555e-20 8.697752753e-05)
(-0.1152341311 -0.1136505255 4.881776868e-20 0.1151800551 1.058362028e-19 5.407605917e-05)
(-0.07786780371 -0.1080747194 9.031567867e-20 0.07773240351 2.831049379e-19 0.0001354001975)
(-0.05355189262 -0.09685112339 2.249905994e-19 0.05334942332 7.680308981e-20 0.0002024693087)
(-0.03630132515 -0.08433328974 -1.891329899e-19 0.03604408418 -1.035887793e-19 0.0002572409672)
(-0.02325682057 -0.07216688468 -7.156586757e-19 0.02295655474 -9.7507205e-20 0.0003002658262)
(-0.01283011003 -0.06093617629 -4.696252215e-19 0.01249966013 1.519374311e-19 0.0003304498935)
(-0.004194503445 -0.05084444872 -1.571437954e-19 0.00384836588 6.01487837e-21 0.0003461375652)
(0.003188073994 -0.04197736153 2.607966193e-20 -0.003532443592 2.157403688e-19 0.0003443695973)
(0.009555412173 -0.03435458791 -1.670986119e-19 -0.009877170515 4.456143793e-19 0.0003217583418)
(0.01509627168 -0.02808537625 -4.986420839e-20 -0.01536978369 2.957472383e-19 0.0002735120072)
(0.01981630271 -0.02324178685 -4.589169533e-19 -0.02001064315 -1.963029061e-19 0.0001943404366)
(0.02357678315 -0.02006498557 -5.748242234e-20 -0.02365415376 4.71210789e-19 7.737061101e-05)
(-0.1005892725 -0.1245008075 2.399519269e-20 0.1005424999 1.152940841e-19 4.6772588e-05)
(-0.0609563651 -0.1112822625 1.167657404e-19 0.06083924432 1.888999823e-19 0.000117120777)
(-0.03686496209 -0.09608271877 1.024125359e-19 0.0366898145 4.192935041e-20 0.0001751475987)
(-0.0207931832 -0.08134267015 -2.626343194e-20 0.02057065227 -7.737525458e-20 0.000222530927)
(-0.009244835783 -0.06785099407 -6.471931922e-19 0.008985090485 2.156168431e-19 0.0002597452976)
(-0.000351922566 -0.05575955766 -7.17888423e-19 6.608622334e-05 2.356281641e-19 0.0002858363427)
(0.006835126405 -0.04505995171 -7.829398639e-19 -0.007134494414 4.857932152e-19 0.0002993680097)
(0.0129236784 -0.03570637189 -1.406961911e-19 -0.01322146133 4.42504548e-19 0.0002977829337)
(0.01817780517 -0.02766299358 -2.608347172e-19 -0.01845596486 4.581888783e-19 0.0002781596837)
(0.02282783663 -0.02098291009 -2.58208496e-19 -0.02306420805 7.104618066e-19 0.0002363714139)
(0.02689540521 -0.01572795092 4.879502414e-19 -0.02706328428 5.332421471e-19 0.0001678790635)
(0.03028180905 -0.01213929523 -1.73513184e-19 -0.03034860146 2.421015548e-19 6.679241025e-05)
(-0.08532895527 -0.1333247656 -5.77618656e-20 0.08529007428 1.505877371e-19 3.888098769e-05)
(-0.04562660693 -0.1114235331 1.281248647e-19 0.04552923853 1.204140119e-19 9.736840004e-05)
(-0.02270539854 -0.0919828091 1.437230075e-19 0.0225597755 -2.492419407e-20 0.0001456230422)
(-0.008192916457 -0.07507924966 -1.515869285e-19 0.008007894768 1.864770868e-19 0.0001850216883)
(0.001743786469 -0.06045312289 6.434681778e-20 -0.001959743198 2.477667082e-19 0.0002159567284)
(0.009106780959 -0.04773527033 -5.738467218e-19 -0.009344406425 3.916382893e-19 0.0002376254659)
(0.01489916021 -0.0366649454 -3.168997859e-19 -0.01514798967 4.357127675e-19 0.0002488294621)
(0.01975546274 -0.0270410058 -3.432010377e-19 -0.02000290884 6.0015262e-19 0.0002474461024)
(0.0239486375 -0.01876260857 3.562255287e-19 -0.0241796939 9.545482034e-19 0.0002310564008)
(0.02773084778 -0.01181411385 7.270291263e-19 -0.02792709953 3.978790795e-19 0.0001962517497)
(0.03113484911 -0.006243133083 3.105898984e-19 -0.03127414937 -1.892009513e-19 0.0001393002626)
(0.03409621062 -0.00228296757 3.357585288e-19 -0.03415158115 -5.17502745e-20 5.537052756e-05)
(-0.06976077017 -0.1402518273 -1.352236137e-19 0.06973027047 1.242595177e-19 3.049969489e-05)
(-0.0324900434 -0.1093658924 -4.800862362e-20 0.03241365335 6.735104594e-20 7.63900576e-05)
(-0.01178466071 -0.0857099865 -2.849740942e-19 0.01167039582 1.542123284e-19 0.0001142648917)
(0.0007758060807 -0.06679486149 -1.557367321e-19 -0.0009209886946 3.193942221e-19 0.0001451826138)
(0.009010967393 -0.05122837288 -5.918846003e-21 -0.009180415917 3.811512743e-19 0.0001694485241)
(0.0148878396 -0.03808347054 2.563676706e-19 -0.01507426133 3.184492875e-19 0.0001864217317)
(0.0193827743 -0.0268308578 -1.597316543e-19 -0.01957793115 2.196961662e-19 0.0001951568508)
(0.02310887658 -0.01710488671 9.914121447e-20 -0.02330286902 5.966565117e-19 0.0001939924413)
(0.0263279547 -0.008736212548 8.240171206e-19 -0.02650899804 3.734421773e-19 0.0001810433408)
(0.02929100576 -0.001634969007 8.493246778e-19 -0.02944466678 -4.062760519e-19 0.0001536610228)
(0.03203610715 0.004167554872 -9.674183515e-20 -0.03214507616 -2.345653508e-19 0.0001089690066)
(0.03452570621 0.008451155829 2.044594738e-19 -0.03456895961 -7.595668815e-20 4.325340469e-05)
(-0.05411029301 -0.1454599922 -9.402914549e-20 0.05408855863 5.049922949e-20 2.173437698e-05)
(-0.02182004688 -0.1060938803 -9.676020048e-20 0.02176559733 5.49129591e-20 5.444955599e-05)
(-0.004377910169 -0.07856421041 -1.600623984e-19 0.004296443084 1.753568026e-19 8.146708585e-05)
(0.005854150251 -0.0578876024 -2.547973022e-20 -0.005957663902 2.371581326e-19 0.0001035136514)
(0.01232066415 -0.04157452316 -1.486254263e-19 -0.01244146776 3.726477656e-19 0.0001208036091)
(0.01677927908 -0.02816006082 3.077614881e-19 -0.01691214522 2.542459793e-19 0.0001328661447)
(0.02009703104 -0.01685696325 6.941174905e-20 -0.02023605182 2.247523425e-19 0.0001390207751)
(0.02281567621 -0.007142059394 3.353510523e-19 -0.02295376494 2.950668404e-19 0.0001380887279)
(0.02516536235 0.001219382828 4.024732292e-19 -0.02529410423 -6.883019994e-20 0.0001287418807)
(0.02737217176 0.008389140019 4.34512689e-20 -0.02748129837 -2.769316656e-19 0.000109126614)
(0.02947343711 0.01435228951 -1.322754082e-19 -0.02955069416 -2.725745394e-20 7.725705273e-05)
(0.03145045888 0.01890393456 -1.65391299e-20 -0.03148104552 -2.505987964e-20 3.058663811e-05)
(-0.0385148899 -0.1491438313 7.041864835e-20 0.03850219509 -2.819844977e-20 1.2694802e-05)
(-0.01353627087 -0.1025892306 -7.856806616e-20 0.01350444894 -6.954081721e-22 3.182193418e-05)
(-0.0003050828745 -0.07183341214 -2.323551245e-19 0.0002574419213 1.229290274e-19 4.764095324e-05)
(0.007267757131 -0.04973901931 -2.780185947e-19 -0.00732829477 2.326615827e-19 6.053763958e-05)
(0.0119180666 -0.03287058927 -1.912675905e-19 -0.0119886994 3.559546819e-19 7.063279128e-05)
(0.01503359598 -0.01930106922 1.201384965e-19 -0.01511122758 2.251754428e-19 7.763160002e-05)
(0.01729611746 -0.008022092189 -2.952084533e-19 -0.01737724482 3.263178467e-19 8.112736069e-05)
(0.01913017039 0.00162427287 4.923344509e-19 -0.01921060919 2.887953954e-19 8.043879831e-05)
(0.02071541749 0.009928567761 3.056794038e-19 -0.02079022988 -1.17098914e-19 7.481239447e-05)
(0.02223113338 0.01711453171 -1.181634239e-19 -0.0222943457 -3.069496185e-19 6.321231579e-05)
(0.02370828248 0.02318161408 -6.471264999e-19 -0.02375285207 -2.635579514e-20 4.45695872e-05)
(0.02513941628 0.02793947559 1.596959861e-19 -0.02515695116 1.331432494e-21 1.753488545e-05)
(-0.02302867811 -0.1514828576 5.301181947e-20 0.02302518359 -2.405212255e-20 3.494517746e-06)
(-0.007229737875 -0.09971296353 -7.097544684e-20 0.007220946581 -4.425535153e-21 8.791294591e-06)
(0.001036181186 -0.06664283147 -2.084283542e-19 -0.001049392207 1.010400724e-19 1.321102078e-05)
(0.005691417729 -0.04355425346 -1.802751066e-19 -0.005708211459 2.094452025e-19 1.679372995e-05)
(0.008494326155 -0.0263183296 -5.640056257e-20 -0.008513891302 2.948103942e-19 1.956514717e-05)
(0.01033358223 -0.0126699062 -9.645321412e-23 -0.01035499265 2.598694686e-19 2.141042382e-05)
(0.01164461703 -0.00143908971 -1.944060976e-20 -0.01166681883 3.067234116e-19 2.220180579e-05)
(0.01269790288 0.008130357845 2.282583172e-19 -0.01271966733 1.640152397e-19 2.176445473e-05)
(0.01360750289 0.01636962376 -8.696368905e-20 -0.01362743174 -7.937245773e-20 1.992885501e-05)
(0.01448826878 0.02354783016 -1.939846672e-19 -0.01450475958 -1.901532865e-19 1.649079915e-05)
(0.01536025525 0.02967504948 -5.306781031e-19 -0.01537156654 -3.943968064e-20 1.131129023e-05)
(0.01622106358 0.0345721571 -3.817317255e-20 -0.01622532113 -1.966131627e-20 4.257549517e-06)
(-0.007637774456 -0.1526139092 4.781070058e-20 0.007643525262 -9.567236136e-21 -5.750806041e-06)
(-0.002225581759 -0.09810286184 -5.641448309e-20 0.002239934639 1.055600531e-20 -1.435288029e-05)
(0.0005896054497 -0.06382407482 -2.050297989e-19 -0.0005682155791 8.121723533e-20 -2.138987055e-05)
(0.002162845238 -0.04022312278 -7.47210957e-20 -0.00213567716 1.679201873e-19 -2.716807787e-05)
(0.003100852026 -0.02280453901 -8.962892649e-20 -0.003069094915 2.487141685e-19 -3.175711128e-05)
(0.003709551673 -0.009124658397 -1.421258007e-20 -0.00367446129 2.549284414e-19 -3.509038375e-05)
(0.004138501105 0.002071608794 4.321154857e-21 -0.004101486259 2.675878424e-19 -3.701484634e-05)
(0.00448026022 0.01159229448 -7.682359103e-20 -0.004443063755 1.618668977e-19 -3.719646468e-05)
(0.004773533793 0.01978995353 -1.864451473e-19 -0.004738315732 -1.462880728e-20 -3.521806081e-05)
(0.005057345731 0.02695764334 -3.181889623e-19 -0.005026896407 -1.159501625e-19 -3.044932367e-05)
(0.005337917994 0.0331110135 -3.682577876e-19 -0.005315821236 -3.935688269e-20 -2.209675812e-05)
(0.005613877475 0.03807692111 -1.11250881e-19 -0.005604801646 -3.177839761e-20 -9.075828827e-06)
(0.007716103251 -0.1526107789 4.505374713e-20 -0.007701178125 5.598224188e-21 -1.492512611e-05)
(0.002323823819 -0.09809793161 -3.523011942e-20 -0.002286503904 2.812310399e-20 -3.731991569e-05)
(-0.0004794036902 -0.06381864624 -1.846932285e-19 0.0005351308585 6.020921715e-20 -5.572716829e-05)
(-0.002044611168 -0.04021779193 7.618313896e-21 0.002115406829 1.300188325e-19 -7.079566092e-05)
(-0.002977083383 -0.0227996094 -4.904050565e-20 0.003059772838 2.111944539e-19 -8.268945511e-05)
(-0.003582614335 -0.009120344932 -1.971536084e-20 0.003673775454 2.297577695e-19 -9.116111884e-05)
(-0.00401120478 0.002075095564 -3.167580699e-20 0.004106983386 2.621528065e-19 -9.577860634e-05)
(-0.004356438607 0.01159469728 -1.581324008e-19 0.004452141502 1.849423238e-19 -9.57028947e-05)
(-0.004658330537 0.01979093561 -3.385464741e-19 0.004748265683 2.047893292e-20 -8.993514574e-05)
(-0.004957602277 0.0269567773 -4.023429848e-19 0.005034620433 -6.737789425e-20 -7.701815511e-05)
(-0.005262849275 0.033107728 -2.568757926e-19 0.005318084948 -9.752485867e-21 -5.523567308e-05)
(-0.005575747185 0.03807039464 -1.668676873e-19 0.005598045839 -5.421923619e-20 -2.229865412e-05)
(0.02310664102 -0.151473398 5.521267362e-20 -0.02308272821 1.53687795e-20 -2.391281537e-05)
(0.007326001919 -0.09969836135 -3.137821655e-21 -0.007266181324 3.551741164e-20 -5.982059494e-05)
(-0.0009285846766 -0.06662682302 -1.243116922e-19 0.001017953168 4.856737867e-20 -8.936849111e-05)
(-0.005575924901 -0.04353854417 4.165235689e-20 0.005689464596 9.315496944e-20 -0.0001135396944)
(-0.008373153385 -0.0263037835 5.543374942e-20 0.008505744 1.818792261e-19 -0.0001325906151)
(-0.01020887933 -0.01265713335 8.569387827e-21 0.01035497536 1.925000275e-19 -0.0001460960355)
(-0.01151898335 -0.001428689252 9.351889688e-20 0.01167233348 2.698820554e-19 -0.0001533501267)
(-0.01257492965 0.008137650742 -3.845489407e-19 0.01272794881 2.00672234e-19 -0.0001530191609)
(-0.01349203481 0.01637284309 -4.14718716e-19 0.01363556962 2.725489877e-20 -0.0001435348075)
(-0.01438678036 0.02354574779 -3.086041639e-19 0.01450941105 -2.056242398e-20 -0.0001226306954)
(-0.01528149361 0.02966601941 -1.99640499e-19 0.01536918266 5.637269442e-20 -8.768905048e-05)
(-0.01617663558 0.03455381535 -3.442307072e-19 0.01621188039 -8.863259364e-20 -3.524480832e-05)
(0.03859205573 -0.1491278575 6.293860217e-20 -0.03855945472 1.101272656e-20 -3.260100713e-05)
(0.01362868671 -0.1025655056 3.899941056e-20 -0.01354711463 1.408918811e-20 -8.1572073e-05)
(0.0004076386911 -0.07180762692 4.152663583e-20 -0.0002857478185 6.044213015e-20 -0.0001218908725)
(-0.00715757099 -0.04971375016 -4.992006301e-20 0.007312433646 5.665843039e-20 -0.0001548626558)
(-0.01180193546 -0.03284712692 1.454634854e-19 0.01198276842 1.500006446e-19 -0.000180832963)
(-0.01491326127 -0.01928031961 -9.089429024e-20 0.01511246519 1.528781497e-19 -0.0001992039213)
(-0.01717378033 -0.008004949187 -6.061258622e-20 0.01738278503 2.448917098e-19 -0.0002090047035)
(-0.01900896213 0.001636701177 -4.677626721e-19 0.01921738542 1.76434702e-19 -0.0002084232844)
(-0.02059961538 0.009934814156 -2.137353216e-19 0.02079495674 7.763279579e-20 -0.0001953413643)
(-0.02212651425 0.01711272122 -4.425128561e-19 0.02229322582 9.558324115e-20 -0.0001667115663)
(-0.02362270368 0.02316922065 -2.93278826e-19 0.02374175082 8.88718966e-20 -0.0001190471388)
(-0.02508323408 0.02791286816 -3.230661524e-19 0.02513098457 -1.157493692e-19 -4.775049161e-05)
(0.05418610538 -0.1454372329 -5.386747735e-20 -0.0541452253 -5.941700957e-20 -4.08800721e-05)
(0.02190694994 -0.1060618947 1.04640282e-19 -0.0218046498 -5.638762964e-20 -0.0001023001363)
(0.004473313616 -0.07852990144 1.723517328e-19 -0.004320429278 3.181386678e-20 -0.0001528843378)
(-0.005751499871 -0.05785405 9.924506602e-20 0.005945743521 4.495133491e-20 -0.0001942436501)
(-0.01221173158 -0.04154323911 1.719683124e-19 0.01243853994 7.052186397e-20 -0.0002268083621)
(-0.01666525012 -0.02813209403 2.700489116e-20 0.01691506552 -4.766220302e-20 -0.0002498154036)
(-0.01997956319 -0.01683335828 5.081649566e-19 0.02024160415 1.53930799e-19 -0.0002620409575)
(-0.02269727097 -0.007124135399 -1.030037505e-19 0.02295848828 3.453165457e-19 -0.0002612173085)
(-0.02504951814 0.0012298539 -2.246355319e-19 0.02529422063 1.572879394e-19 -0.0002447024949)
(-0.02726370676 0.008389874369 -1.324766433e-19 0.02747241279 1.873621477e-19 -0.000208706037)
(-0.02937898382 0.01434018112 -8.98417636e-20 0.02952789966 2.704407265e-19 -0.0001489158371)
(-0.03137865827 0.01887451736 -3.802566827e-19 0.03143831722 -7.579551369e-20 -5.965895795e-05)
(0.06983451231 -0.1402219899 -1.087688447e-19 -0.06978586639 -1.190287952e-19 -4.864592219e-05)
(0.03257005197 -0.1093267486 9.015821703e-20 -0.03244830804 -1.517075419e-19 -0.000121743927)
(0.01187124177 -0.08566873607 2.32545842e-19 -0.01168928303 -6.663729686e-21 -0.000181958733)
(-0.0006824634656 -0.06675463508 1.008368803e-19 0.0009136502652 5.111366087e-20 -0.0002311867996)
(-0.008910999026 -0.05119064967 -1.562766838e-20 0.00918093679 7.161512868e-21 -0.0002699377636)
(-0.01478178917 -0.03804925454 -3.705527183e-20 0.01507908197 -2.296851596e-19 -0.0002972928048)
(-0.01927166783 -0.02680116663 4.773593162e-19 0.01958345829 -1.272712342e-19 -0.0003117904599)
(-0.02299447974 -0.01708105159 2.241460197e-19 0.02330521526 2.655130432e-19 -0.0003107355188)
(-0.02621285372 -0.008720067247 -1.107591839e-19 0.02650384921 -2.073253312e-20 -0.0002909954916)
(-0.02917889163 -0.001628913179 4.317686768e-19 0.02942697566 -1.56622503e-19 -0.0002480840244)
(-0.03193217016 0.004160206042 3.660149044e-19 0.03210908783 4.118404654e-19 -0.0001769176625)
(-0.03443656893 0.008425629479 -1.049137654e-19 0.03450738836 9.925569353e-20 -7.081943171e-05)
(0.08539972697 -0.1332876003 3.002094485e-20 -0.08534392644 -8.484771667e-20 -5.580053147e-05)
(0.04569867261 -0.1113784812 1.058918077e-19 -0.04555901445 -2.300174189e-19 -0.0001396581641)
(0.02278200489 -0.0919363802 3.927841091e-19 -0.02257325763 -6.481767671e-20 -0.0002087472655)
(0.008275716742 -0.0750341379 1.607410824e-19 -0.008010490764 5.160233223e-20 -0.0002652259779)
(-0.001654084388 -0.0604105034 4.937173401e-20 0.001963761232 -5.255124152e-20 -0.0003096768441)
(-0.009010062463 -0.04769590076 -6.933877747e-20 0.009351099257 -2.810615788e-19 -0.000341036794)
(-0.014795798 -0.03662962663 2.950800568e-19 0.01515342296 -4.974267686e-19 -0.0003576249636)
(-0.0196464551 -0.0270108674 3.699260091e-19 0.02000280755 3.483586321e-20 -0.0003563524539)
(-0.0238356138 -0.01873928569 -4.388659097e-20 0.02416924923 3.478504948e-19 -0.000333635431)
(-0.02761631274 -0.01179980642 -2.303556997e-19 0.02790066066 -1.903273695e-19 -0.0002843479276)
(-0.03102246881 -0.006240966672 5.166043058e-19 0.03122516776 -1.842005563e-19 -0.0002026989493)
(-0.03399048687 -0.002297450636 -3.291284186e-19 0.03407157791 8.33970286e-20 -8.109103788e-05)
(0.1006560071 -0.1244561857 -3.144389985e-21 -0.1005937533 -1.573900822e-19 -6.225380109e-05)
(0.06101979188 -0.1112326013 1.002348679e-19 -0.06086397478 -2.682219382e-19 -0.0001558170994)
(0.03693098018 -0.09603289398 2.101760851e-19 -0.03669806793 -2.856187439e-19 -0.0002329122505)
(0.02086476405 -0.08129447575 2.058870497e-19 -0.02056883209 1.858290085e-20 -0.0002959319618)
(0.009323450446 -0.06780504305 -2.85902763e-19 -0.008977926092 -1.106877077e-21 -0.0003455243534)
(0.0004382893733 -0.05571617089 -1.195882737e-19 -5.779395765e-05 -1.277900536e-19 -0.0003804954157)
(-0.006740772617 -0.04501953306 -3.630865993e-19 0.007139738622 -5.520494186e-19 -0.0003989660045)
(-0.01282161097 -0.03566964629 2.841561736e-19 0.01321910319 -5.387306015e-19 -0.0003974922259)
(-0.01806874389 -0.02763114884 5.667486453e-19 0.01844082784 -1.743752193e-19 -0.0003720839558)
(-0.02271314903 -0.02095764516 6.02310383e-19 0.02303018883 2.974031919e-19 -0.0003170397944)
(-0.0267772901 -0.0157118196 -3.090540892e-19 0.02700322406 2.963201516e-19 -0.00022593396)
(-0.03016273551 -0.01213599647 2.585835098e-19 0.03025307955 1.055888144e-19 -9.034403477e-05)
(0.1152956224 -0.1135985064 -4.903435047e-20 -0.1152276981 -2.350494024e-19 -6.792429543e-05)
(0.07792223342 -0.1080216971 8.550575126e-20 -0.07775221659 -2.698014327e-19 -0.0001700168276)
(0.05360721723 -0.09679954813 -3.112228459e-20 -0.05335306854 -3.941992921e-19 -0.0002541486825)
(0.03636153641 -0.08428366739 8.719929997e-20 -0.03603861936 -3.606361813e-19 -0.000322917056)
(0.02332398686 -0.0721190529 3.390771165e-19 -0.02294695939 1.278321302e-19 -0.000377027473)
(0.01290543405 -0.06088986185 1.04933305e-19 -0.01249026408 1.773642643e-19 -0.0004151699744)
(0.004278721933 -0.0507995099 7.363251411e-20 -0.003843431192 9.677343681e-21 -0.000435290741)
(-0.003094620834 -0.04193394999 4.105482009e-19 0.003528255027 -3.995716644e-19 -0.000433634193)
(-0.009452663325 -0.03431323662 6.172345989e-19 0.009858517415 -1.54882625e-20 -0.0004058540898)
(-0.01498460887 -0.02804703088 6.068150601e-19 0.01533035419 1.068661429e-19 -0.000345745327)
(-0.01969663945 -0.02320810874 9.193165638e-19 0.01994296765 -7.624252037e-20 -0.0002463281973)
(-0.02344982744 -0.02003840694 2.050703159e-19 0.0235482885 4.296824737e-19 -9.846106358e-05)
(0.1289457295 -0.1006625609 -1.604199379e-20 -0.1288729891 -1.760741611e-19 -7.274044692e-05)
(0.09551131961 -0.1011039025 4.199409914e-21 -0.09532924149 -3.043116149e-19 -0.0001820781187)
(0.07173219757 -0.0933576684 -1.387140493e-19 -0.07146000914 -4.545829796e-19 -0.0002721884285)
(0.05365050982 -0.08304325654 1.263853223e-20 -0.05330466941 -5.841133772e-19 -0.0003458404152)
(0.0392594199 -0.07238609352 6.208336868e-19 -0.03885563179 -4.133182479e-19 -0.0004037881092)
(0.02735611211 -0.06227340543 4.530452576e-19 -0.02691149 1.439649758e-19 -0.0004446221062)
(0.0172874761 -0.05306038018 4.951073443e-19 -0.01682133635 7.759782583e-21 -0.0004661397497)
(0.008615670895 -0.04492883984 4.675433737e-19 -0.008151349836 -2.381641464e-19 -0.0004643210592)
(0.001142039491 -0.03793992503 1.325602917e-18 -0.000707521103 -4.171293445e-19 -0.0004345183884)
(-0.005266549889 -0.03224113597 9.867435245e-19 0.005636650882 1.24229156e-19 -0.0003701009925)
(-0.01059670613 -0.02790984984 -4.970240815e-19 0.01086032925 -3.932632436e-19 -0.0002636231174)
(-0.0146658864 -0.02517758475 2.185830812e-19 0.01477122553 -3.313997287e-20 -0.0001053391289)
(0.1411942426 -0.08569540108 1.884933105e-20 -0.1411176011 7.664023778e-21 -7.664154192e-05)
(0.1126966803 -0.09014754503 -1.588009928e-19 -0.1125048315 -1.741800358e-19 -0.0001918487908)
(0.08997090875 -0.08521722015 -3.102443344e-19 -0.08968410498 -4.026727408e-19 -0.0002868037697)
(0.07134113646 -0.07702372479 1.031964299e-19 -0.07097672394 -4.407475471e-19 -0.0003644125266)
(0.05576720607 -0.06804303521 2.150269898e-19 -0.05534173797 -9.128679368e-19 -0.0004254681084)
(0.04248925335 -0.05931034289 7.007003599e-19 -0.04202077394 -3.726786686e-19 -0.0004684794126)
(0.03105592183 -0.05126048668 2.548498405e-21 -0.0305647991 -4.509903475e-19 -0.0004911227274)
(0.02114720243 -0.04412825117 6.961635595e-19 -0.02065803809 -3.830840088e-19 -0.0004891643332)
(0.01261110542 -0.03799850597 4.401827987e-19 -0.01215339161 -7.303773383e-19 -0.0004577138175)
(0.005377935983 -0.03303491471 -6.64102034e-19 -0.004988137623 -8.193226367e-19 -0.0003897983598)
(-0.0005179911651 -0.02931309515 -6.888634974e-19 0.0007955911563 -3.777296397e-19 -0.0002775999912)
(-0.004850526371 -0.02704304269 1.015017496e-20 0.0049614179 -4.104414932e-19 -0.0001108915292)
(0.1516220022 -0.06885552266 2.079797968e-20 -0.151542424 1.503658559e-19 -7.95781775e-05)
(0.1283035142 -0.07518230699 -1.581166648e-19 -0.128104309 -4.463650553e-20 -0.0001992052364)
(0.1068728835 -0.07234283517 -1.030053097e-19 -0.1065750737 -1.622076829e-19 -0.0002978097608)
(0.08791699317 -0.06615483025 -6.044004734e-20 -0.0875385949 -4.048051791e-19 -0.0003783982704)
(0.07135792878 -0.05899997641 -9.290111999e-21 -0.07091613598 -6.307751894e-19 -0.0004417928075)
(0.05687996403 -0.05189882935 1.545960751e-19 -0.0563935246 -8.355359785e-19 -0.0004864394281)
(0.04423523283 -0.04529012012 1.876602265e-20 -0.0437253102 -7.828513337e-19 -0.000509922635)
(0.03322320102 -0.03941643327 3.662756973e-19 -0.03271535258 -4.010380187e-19 -0.0005078484357)
(0.02373947381 -0.03436807891 -5.818543596e-19 -0.0232643285 -5.00348776e-19 -0.000475145303)
(0.01577749046 -0.03030223045 -9.506911937e-19 -0.01537290412 -5.273942838e-19 -0.0004045863366)
(0.009391718283 -0.02728621673 -2.384238325e-19 -0.009103638325 -5.650383418e-19 -0.0002880799578)
(0.004848519117 -0.02549737243 1.172982708e-19 -0.004733472478 1.455259891e-21 -0.0001150466394)
(0.1598378004 -0.05041420835 -5.672397776e-20 -0.159756287 8.606059591e-20 -8.151343678e-05)
(0.1411949631 -0.05661098843 -2.863279799e-19 -0.1409909083 -3.326059483e-20 -0.0002040547236)
(0.121027491 -0.05516971408 -3.187004244e-19 -0.1207224234 -1.742911803e-19 -0.0003050675544)
(0.101900082 -0.05086287537 -2.638560036e-19 -0.1015124609 -3.138282664e-19 -0.0003876210855)
(0.08457789545 -0.04565759349 -1.239725421e-20 -0.08412533943 -3.084686011e-19 -0.0004525560232)
(0.06913601505 -0.04040853449 -1.987380673e-19 -0.06863773985 -5.555544765e-19 -0.0004982751978)