/*--------------------------------*- C++ -*----------------------------------*\
| =========                 |                                                 |
| \\      /  F ield         | foam-extend: Open Source CFD                    |
|  \\    /   O peration     | Version:  3.0                                   |
|   \\  /    A nd           | Web:         http://www.extend-project.de       |
|    \\/     M anipulation  |                                                 |
\*---------------------------------------------------------------------------*/
FoamFile
{
    version     2.0;
    format      ascii;
    class       volVectorField;
    location    "1.1";
    object      s;
}
// * * * * * * * * * * * * * * * * * * * * * * * * * * * * * * * * * * * * * //

dimensions      [0 0 0 0 0 0 0];

internalField   nonuniform List<vector> 
400
(
(-0.00144331 -0.000510877 3.77393e-318)
(-0.00166315 6.03322e-05 6.75165e-318)
(-0.00203013 0.00054302 7.63192e-318)
(-0.00255875 0.000914196 7.39342e-318)
(-0.00320869 0.000970279 6.57034e-318)
(-0.00388622 0.000841976 5.58803e-318)
(-0.00450482 0.000554602 4.45839e-318)
(-0.00500765 0.000184196 3.49939e-318)
(-0.00535373 -0.000242694 2.55332e-318)
(-0.00552137 -0.000695155 1.85092e-318)
(-0.00549617 -0.00116183 1.17298e-318)
(-0.00527352 -0.00162728 7.17625e-319)
(-0.00485207 -0.00208064 2.53209e-319)
(-0.00424428 -0.00249408 -2.3898e-320)
(-0.00346891 -0.00284235 -3.43514e-319)
(-0.00257742 -0.00306082 -5.06185e-319)
(-0.00161546 -0.00310848 -7.20199e-319)
(-0.000708819 -0.00285868 -8.10549e-319)
(0.000147041 -0.00229246 -7.47269e-319)
(0.000675988 -0.00106135 -5.59554e-319)
(-0.00197813 -0.000148574 3.57103e-318)
(-0.00269194 0.000671929 7.74383e-318)
(-0.00367373 0.00143724 9.68592e-318)
(-0.00448875 0.00200132 1.02994e-317)
(-0.00537237 0.00219281 9.82749e-318)
(-0.00620249 0.00208827 8.90115e-318)
(-0.00695075 0.00173386 7.5483e-318)
(-0.00755149 0.00120917 6.23215e-318)
(-0.00796084 0.000567056 4.82208e-318)
(-0.00814749 -0.000142161 3.64994e-318)
(-0.00809059 -0.000884128 2.48488e-318)
(-0.00778525 -0.00162135 1.59058e-318)
(-0.00723583 -0.00231863 6.94612e-319)
(-0.00646694 -0.002925 3.96982e-320)
(-0.00551291 -0.00338366 -6.54217e-319)
(-0.00444509 -0.00361315 -1.13735e-318)
(-0.00330309 -0.00354161 -1.66521e-318)
(-0.00223413 -0.00306266 -1.93549e-318)
(-0.00105459 -0.0021744 -1.99089e-318)
(-0.000132863 -0.000775998 -1.33565e-318)
(-0.00192206 0.00100902 3.34986e-318)
(-0.00273881 0.00288078 7.51196e-318)
(-0.00395537 0.00418722 9.62305e-318)
(-0.00491679 0.00494746 1.03734e-317)
(-0.00589946 0.0050991 1.01075e-317)
(-0.00674508 0.00477377 9.3147e-318)
(-0.0074706 0.0040612 8.102e-318)
(-0.00802621 0.00308025 6.81704e-318)
(-0.00839519 0.00191388 5.42248e-318)
(-0.00855963 0.000638433 4.15663e-318)
(-0.00850764 -0.000690111 2.89406e-318)
(-0.00823489 -0.00201283 1.8109e-318)
(-0.00773872 -0.00326954 7.41874e-319)
(-0.00703177 -0.00437703 -1.57671e-319)
(-0.00612453 -0.00523805 -1.05397e-318)
(-0.00507252 -0.00571622 -1.77223e-318)
(-0.00387038 -0.00568889 -2.4181e-318)
(-0.00268768 -0.00497987 -2.73045e-318)
(-0.00126757 -0.00357473 -2.55729e-318)
(-0.000168323 -0.00134564 -1.40696e-318)
(-0.00186365 0.00189153 2.33527e-318)
(-0.00259394 0.00476926 5.74587e-318)
(-0.00381848 0.00651551 7.81905e-318)
(-0.004706 0.00737608 8.81031e-318)
(-0.00559089 0.00740692 8.91052e-318)
(-0.00628192 0.00683645 8.42282e-318)
(-0.00684537 0.00580181 7.52035e-318)
(-0.00725006 0.00445565 6.41848e-318)
(-0.0075107 0.00289718 5.1977e-318)
(-0.00762573 0.00121348 3.98427e-318)
(-0.00759419 -0.000534055 2.78455e-318)
(-0.00741162 -0.00228048 1.67046e-318)
(-0.00706504 -0.0039574 6.15897e-319)
(-0.0065494 -0.005466 -3.19241e-319)
(-0.00584155 -0.00668531 -1.15437e-318)
(-0.00497332 -0.00743657 -1.80223e-318)
(-0.00387991 -0.00754979 -2.23739e-318)
(-0.00275387 -0.00675869 -2.30315e-318)
(-0.00125527 -0.00499185 -1.91117e-318)
(-0.00015028 -0.00197419 -8.77377e-319)
(-0.00175832 0.0030282 2.41132e-318)
(-0.00228706 0.00712306 5.53209e-318)
(-0.00343913 0.00934284 7.30801e-318)
(-0.00415467 0.0102539 8.08171e-318)
(-0.00485893 0.0100646 8.13114e-318)
(-0.0053178 0.00914443 7.67737e-318)
(-0.00565661 0.00769339 6.87592e-318)
(-0.00586158 0.00590808 5.88049e-318)
(-0.00598279 0.00390233 4.76639e-318)
(-0.00603572 0.00176748 3.62434e-318)
(-0.0060316 -0.000438729 2.47695e-318)
(-0.00596487 -0.00265668 1.37517e-318)
(-0.00580942 -0.00481957 3.17195e-319)
(-0.00553936 -0.00682077 -6.56673e-319)
(-0.00508961 -0.00851808 -1.54137e-318)
(-0.00446885 -0.00967961 -2.27329e-318)
(-0.00353802 -0.0100673 -2.79512e-318)
(-0.00253899 -0.00926556 -2.9753e-318)
(-0.0010233 -0.00708363 -2.59343e-318)
(-5.98837e-05 -0.00295818 -1.32665e-318)
(-0.00167279 0.00419997 1.83172e-318)
(-0.00194417 0.00952981 4.46239e-318)
(-0.00292656 0.0121436 6.1182e-318)
(-0.00332792 0.0130084 6.95761e-318)
(-0.00371311 0.0125111 7.12675e-318)
(-0.0038087 0.0111911 6.80968e-318)
(-0.00381767 0.00931352 6.14754e-318)
(-0.00374236 0.00711658 5.27004e-318)
(-0.00367154 0.00471977 4.26301e-318)
(-0.00363584 0.00220712 3.19947e-318)
(-0.00365895 -0.000379018 2.11927e-318)
(-0.00373434 -0.00299851 1.06308e-318)
(-0.0038229 -0.00559923 5.27415e-320)
(-0.00387975 -0.00808105 -8.74022e-319)
(-0.00379303 -0.0102914 -1.68152e-318)
(-0.00354995 -0.011948 -2.30134e-318)
(-0.00291338 -0.0127361 -2.6554e-318)
(-0.0021786 -0.0120439 -2.61601e-318)
(-0.0007314 -0.00950458 -2.07593e-318)
(2.85924e-05 -0.0041235 -9.06186e-319)
(-0.00164891 0.00549499 2.02009e-318)
(-0.00155905 0.0120222 4.54104e-318)
(-0.00226749 0.0149 5.9632e-318)
(-0.00218581 0.0155925 6.57845e-318)
(-0.00210352 0.0146995 6.63079e-318)
(-0.00169875 0.0129405 6.26877e-318)
(-0.00127282 0.0106411 5.61916e-318)
(-0.000837867 0.00807212 4.78079e-318)
(-0.000522428 0.00534837 3.82619e-318)
(-0.000367981 0.00253643 2.81322e-318)
(-0.00041068 -0.000347093 1.77903e-318)
(-0.000643885 -0.00329208 7.57734e-319)
(-0.00101846 -0.00627332 -2.27275e-319)
(-0.00147652 -0.00921014 -1.14485e-318)
(-0.00185923 -0.0119532 -1.96019e-318)
(-0.00214066 -0.0141791 -2.61891e-318)
(-0.00195804 -0.0154963 -3.04097e-318)
(-0.00167696 -0.0150663 -3.11918e-318)
(-0.000403133 -0.0122808 -2.63738e-318)
(2.73038e-05 -0.00555041 -1.31652e-318)
(-0.00166425 0.00683671 1.66167e-318)
(-0.0011041 0.0143947 3.92844e-318)
(-0.00139007 0.0173459 5.30502e-318)
(-0.0006413 0.0177282 5.96767e-318)
(6.60827e-05 0.0163824 6.06419e-318)
(0.00110395 0.0141926 5.75081e-318)
(0.00206211 0.0115307 5.14903e-318)
(0.00292728 0.0086819 4.35879e-318)
(0.00353448 0.00574566 3.45177e-318)
(0.00383678 0.0027607 2.48428e-318)
(0.00378701 -0.000288955 1.49468e-318)
(0.0033902 -0.00343159 5.14782e-319)
(0.00270085 -0.00667782 -4.26606e-319)
(0.00178093 -0.00998073 -1.29674e-318)
(0.000830518 -0.0132099 -2.05101e-318)
(-0.000123058 -0.0160246 -2.62504e-318)
(-0.000573734 -0.0179685 -2.93424e-318)
(-0.000964234 -0.0179816 -2.85529e-318)
(-1.8788e-05 -0.0151544 -2.26426e-318)
(-4.04744e-05 -0.00715407 -1.00826e-318)
(-0.00174507 0.00818824 1.84014e-318)
(-0.000514234 0.0164607 4.08455e-318)
(-0.000207281 0.0192735 5.31237e-318)
(0.00139592 0.0192193 5.80966e-318)
(0.00286012 0.0174102 5.80742e-318)
(0.00462666 0.0148401 5.44006e-318)
(0.00617701 0.0119118 4.82325e-318)
(0.0075112 0.0089017 4.0414e-318)
(0.00843636 0.00588523 3.15807e-318)
(0.00890781 0.00286692 2.22181e-318)
(0.00886989 -0.000204755 1.26688e-318)
(0.00832458 -0.00339948 3.21894e-319)
(0.00732496 -0.00676839 -5.87657e-319)
(0.00592579 -0.0103098 -1.43213e-318)
(0.00435426 -0.013925 -2.17424e-318)
(0.00262032 -0.0172912 -2.76298e-318)
(0.0013749 -0.0199011 -3.1191e-318)
(7.13602e-05 -0.0205366 -3.1443e-318)
(0.000492558 -0.0179124 -2.63132e-318)
(-0.000240236 -0.00891579 -1.30786e-318)
(-0.00178011 0.00940336 1.60493e-318)
(0.000297641 0.0179458 3.71794e-318)
(0.00138868 0.0204434 4.94473e-318)
(0.00396619 0.0198836 5.48468e-318)
(0.00626439 0.017673 5.50011e-318)
(0.00878965 0.0148247 5.14653e-318)
(0.0109418 0.0117637 4.54226e-318)
(0.0127433 0.00873157 3.77764e-318)
(0.013987 0.00577786 2.91884e-318)
(0.0146368 0.00287019 2.01328e-318)
(0.0146324 -7.58162e-05 1.09377e-318)
(0.0139719 -0.00316922 1.88066e-319)
(0.0126998 -0.00650004 -6.78135e-319)
(0.0108552 -0.0101186 -1.47478e-318)
(0.00867036 -0.0139637 -2.16184e-318)
(0.00612618 -0.0177714 -2.68277e-318)
(0.00398324 -0.0209926 -2.95826e-318)
(0.00159527 -0.0223728 -2.87296e-318)
(0.00125408 -0.0201773 -2.29779e-318)
(-0.000425416 -0.0106606 -1.05469e-318)
(-0.00170458 0.0102854 1.74893e-318)
(0.00140066 0.018567 3.87102e-318)
(0.00343384 0.0206797 4.99761e-318)
(0.00702473 0.0196242 5.4141e-318)
(0.0101602 0.0171461 5.35181e-318)
(0.0134001 0.0141572 4.951e-318)
(0.0161064 0.0111126 4.32798e-318)
(0.0183276 0.00819595 3.56559e-318)
(0.0198606 0.0054364 2.72373e-318)
(0.0206826 0.0027661 1.84598e-318)
(0.020734 7.51487e-05 9.61758e-319)
(0.0200096 -0.00277868 9.59723e-320)
(0.0185386 -0.00591669 -7.28124e-319)
(0.0163393 -0.00944311 -1.48483e-318)
(0.0136206 -0.0133286 -2.13989e-318)
(0.0103308 -0.01741 -2.64786e-318)
(0.00727167 -0.0210824 -2.94058e-318)
(0.00371481 -0.0232339 -2.93487e-318)
(0.00238044 -0.0215691 -2.4467e-318)
(-0.000539396 -0.0121583 -1.22726e-318)
(-0.00130447 0.010631 1.59237e-318)
(0.00279161 0.018188 3.64748e-318)
(0.0058933 0.0199468 4.77958e-318)
(0.0103901 0.0184877 5.2184e-318)
(0.0142932 0.015918 5.15009e-318)
(0.0181278 0.0129407 4.74299e-318)
(0.0212926 0.0100569 4.11979e-318)
(0.0238478 0.00737693 3.36839e-318)
(0.0256158 0.00491829 2.54915e-318)
(0.0265886 0.00258291 1.70363e-318)
(0.0267136 0.000245114 8.6001e-319)
(0.0259841 -0.00226046 4.04343e-320)
(0.0244084 -0.00507537 -7.32857e-319)
(0.0219865 -0.00835242 -1.43443e-318)
(0.0188708 -0.0120825 -2.02981e-318)
(0.0149988 -0.0162331 -2.46947e-318)
(0.0110969 -0.0201198 -2.68803e-318)
(0.00647437 -0.0229558 -2.59227e-318)
(0.00392763 -0.0218019 -2.0704e-318)
(-0.00025266 -0.0131222 -9.71936e-319)
(-0.000605959 0.0101427 1.70705e-318)
(0.00432001 0.0166913 3.77568e-318)
(0.00851798 0.0182569 4.81704e-318)
(0.0137377 0.0165613 5.14203e-318)
(0.0182875 0.0140961 5.00086e-318)
(0.0225526 0.01128 4.55123e-318)
(0.0260459 0.00868268 3.9154e-318)
(0.02882 0.0063346 3.17313e-318)
(0.0307467 0.00425219 2.38027e-318)
(0.0318333 0.00231465 1.57272e-318)
(0.0320418 0.000391577 7.75263e-319)
(0.0313661 -0.00169398 7.23312e-321)
(0.0297914 -0.00409052 -7.11677e-319)
(0.0273039 -0.00698897 -1.3587e-318)
(0.0239674 -0.0103844 -1.90364e-318)
(0.0197399 -0.0143881 -2.30484e-318)
(0.0151389 -0.0182028 -2.50566e-318)
(0.00966254 -0.0215133 -2.44855e-318)
(0.00576764 -0.0206597 -1.99579e-318)
(0.000399811 -0.0131526 -9.91313e-319)
(0.000479238 0.00901221 1.61859e-318)
(0.00574736 0.0144859 3.63529e-318)
(0.0110239 0.0159222 4.64332e-318)
(0.0166709 0.0141461 4.94558e-318)
(0.0217062 0.011924 4.77233e-318)
(0.0261971 0.0093876 4.30733e-318)
(0.0298629 0.00716444 3.67466e-318)
(0.0327198 0.00520916 2.9545e-318)
(0.0347126 0.00354091 2.19866e-318)
(0.0358619 0.00202554 1.4392e-318)
(0.0361517 0.000537596 6.97127e-319)
(0.035579 -0.00109873 -1.12894e-320)
(0.0341059 -0.00302687 -6.67952e-319)
(0.0317135 -0.00545971 -1.25108e-318)
(0.0283502 -0.00838715 -1.73001e-318)
(0.0240415 -0.012054 -2.06002e-318)
(0.0189456 -0.015557 -2.18504e-318)
(0.0130083 -0.0191061 -2.03906e-318)
(0.00768373 -0.0184322 -1.55114e-318)
(0.00170294 -0.0123585 -6.82196e-319)
(0.00145863 0.00701486 1.73114e-318)
(0.00670781 0.0116204 3.70981e-318)
(0.0129055 0.0130175 4.58141e-318)
(0.0187433 0.0113611 4.74931e-318)
(0.0240842 0.0094991 4.50275e-318)
(0.0285966 0.00734881 4.00932e-318)
(0.0322626 0.00555961 3.38492e-318)
(0.0350547 0.00403002 2.69796e-318)
(0.0370082 0.00278217 1.99209e-318)
(0.0381568 0.00168042 1.29284e-318)
(0.038513 0.000613045 6.16762e-319)
(0.038077 -0.000582055 -2.29543e-320)
(0.0367943 -0.00203277 -6.11722e-319)
(0.0346428 -0.00395251 -1.12996e-318)
(0.0314468 -0.00632334 -1.54802e-318)
(0.0273189 -0.00947931 -1.82831e-318)
(0.0219572 -0.012456 -1.9186e-318)
(0.0159052 -0.0158961 -1.77987e-318)
(0.00923116 -0.0151648 -1.33005e-318)
(0.00300623 -0.0103348 -5.62533e-319)
(0.00231808 0.00521091 1.71718e-318)
(0.00699199 0.00896565 3.5531e-318)
(0.0138858 0.0101003 4.29942e-318)
(0.0195822 0.00862884 4.39033e-318)
(0.0249708 0.00714317 4.10302e-318)
(0.029256 0.00543441 3.61094e-318)
(0.0327186 0.00409534 3.01873e-318)
(0.0352859 0.00298884 2.38669e-318)
(0.0370857 0.00213487 1.74924e-318)
(0.0381616 0.0014067 1.12612e-318)
(0.0385564 0.000713778 5.29436e-319)
(0.0382711 -8.32073e-05 -3.13682e-320)
(0.0372472 -0.00108744 -5.43774e-319)
(0.0354594 -0.00249455 -9.89954e-319)
(0.0326269 -0.00428174 -1.34213e-318)
(0.0289562 -0.00682477 -1.5615e-318)
(0.0236506 -0.00919539 -1.59389e-318)
(0.0179939 -0.0123414 -1.38831e-318)
(0.010207 -0.0117426 -9.12524e-319)
(0.00469234 -0.00831456 -2.44627e-319)
(0.00240121 0.00306486 1.77635e-318)
(0.00652286 0.00621496 3.40292e-318)
(0.0136703 0.00701626 3.94106e-318)
(0.0190077 0.00591289 3.89509e-318)
(0.024137 0.004843 3.56775e-318)
(0.0279527 0.0036337 3.09495e-318)
(0.0309972 0.0027384 2.56018e-318)
(0.0331824 0.00202825 2.00745e-318)
(0.0347147 0.00151661 1.46086e-318)
(0.0356423 0.00109962 9.3325e-319)
(0.0360382 0.000711677 4.31883e-319)
(0.0358952 0.000244839 -3.66399e-320)
(0.0351729 -0.000376452 -4.63443e-319)
(0.0338271 -0.00130608 -8.33805e-319)
(0.031528 -0.00252862 -1.12371e-318)
(0.0285154 -0.00436748 -1.30017e-318)
(0.0235986 -0.00606441 -1.31587e-318)
(0.0186022 -0.00851456 -1.13637e-318)
(0.0102297 -0.00791101 -7.20199e-319)
(0.00533808 -0.00511666 -1.3156e-319)
(0.00167755 0.00202701 1.78167e-318)
(0.00511646 0.00423274 3.01398e-318)
(0.0119158 0.00451635 3.32156e-318)
(0.0164602 0.00371947 3.18775e-318)
(0.0208644 0.00302354 2.86177e-318)
(0.0239067 0.00228184 2.44691e-318)
(0.0262992 0.00177718 2.00264e-318)
(0.0279596 0.00139565 1.55689e-318)
(0.029123 0.00115162 1.12461e-318)
(0.0298395 0.000962732 7.12383e-319)
(0.0301889 0.000797731 3.2341e-319)
(0.0301647 0.000573143 -3.88583e-320)
(0.0297442 0.000253875 -3.6886e-319)
(0.0288852 -0.000278971 -6.54884e-319)
(0.0272589 -0.00100008 -8.78419e-319)
(0.0251298 -0.00217501 -1.00926e-318)
(0.0210807 -0.00325416 -1.00566e-318)
(0.0173414 -0.0050748 -8.22614e-319)
(0.00921022 -0.00480072 -4.48691e-319)
(0.0063103 -0.00356069 4.44313e-320)
(0.0013162 0.00124235 1.2716e-318)
(0.00359931 0.00225738 2.10542e-318)
(0.00900168 0.00217136 2.26673e-318)
(0.012247 0.00185521 2.1287e-318)
(0.0153871 0.00153747 1.88841e-318)
(0.0173793 0.00123732 1.6006e-318)
(0.018909 0.00104302 1.3016e-318)
(0.0199218 0.000910546 1.00648e-318)
(0.0206377 0.00084482 7.23248e-319)
(0.0210725 0.000802353 4.54886e-319)
(0.0213345 0.000771046 2.02577e-319)
(0.0213606 0.000703482 -3.2134e-320)
(0.0212221 0.000584473 -2.46272e-319)
(0.0207831 0.000356748 -4.33093e-319)
(0.0199146 2.17091e-05 -5.81036e-319)
(0.0186596 -0.000518133 -6.70926e-319)
(0.0159493 -0.00105708 -6.76633e-319)
(0.0134605 -0.00185374 -5.76377e-319)
(0.0071052 -0.00174622 -3.56068e-319)
(0.00496319 -0.000214106 -2.18031e-320)
(-0.00107688 0.000695125 1.30168e-318)
(0.00141619 0.00163316 1.39467e-318)
(0.00451777 0.00121662 1.25201e-318)
(0.00598623 0.00105662 1.05937e-318)
(0.00736135 0.000951952 8.81206e-319)
(0.00803936 0.000879998 7.14987e-319)
(0.00856059 0.000866905 5.63625e-319)
(0.00887751 0.000850271 4.25736e-319)
(0.00909559 0.000868525 2.9976e-319)
(0.00926418 0.000873293 1.83634e-319)
(0.00936313 0.00089924 7.61652e-320)
(0.00946746 0.00089319 -2.39523e-320)
(0.00947932 0.000901182 -1.16708e-319)
(0.009534 0.000845794 -2.00482e-319)
(0.0093063 0.000810171 -2.70486e-319)
(0.00921098 0.000639184 -3.17976e-319)
(0.0080172 0.000558625 -3.27798e-319)
(0.00761443 5.92146e-05 -2.77581e-319)
(0.00344436 0.000153597 -1.57325e-319)
(0.00430086 -0.000456225 3.95203e-320)
)
;

boundaryField
{
    cavity
    {
        type            myHeatFlux;
        ThetaWall       uniform 0;
        value           nonuniform List<vector> 
60
(
(0.001 0 0)
(0.001 0 0)
(0.001 0 0)
(0.001 0 0)
(0.001 0 0)
(0.001 0 0)
(0.001 0 0)
(0.001 0 0)
(0.001 0 0)
(0.001 0 0)
(0.001 0 0)
(0.001 0 0)
(0.001 0 0)
(0.001 0 0)
(0.001 0 0)
(0.001 0 0)
(0.001 0 0)
(0.001 0 0)
(0.001 0 0)
(0.001 0 0)
(0 -0.001 0)
(0 -0.001 0)
(0 -0.001 0)
(0 -0.001 0)
(0 -0.001 0)
(0 -0.001 0)
(0 -0.001 0)
(0 -0.001 0)
(0 -0.001 0)
(0 -0.001 0)
(0 -0.001 0)
(0 -0.001 0)
(0 -0.001 0)
(0 -0.001 0)
(0 -0.001 0)
(0 -0.001 0)
(0 -0.001 0)
(0 -0.001 0)
(0 -0.001 0)
(0 -0.001 0)
(-0.001 0 0)
(-0.001 0 0)
(-0.001 0 0)
(-0.001 0 0)
(-0.001 0 0)
(-0.001 0 0)
(-0.001 0 0)
(-0.001 0 0)
(-0.001 0 0)
(-0.001 0 0)
(-0.001 0 0)
(-0.001 0 0)
(-0.001 0 0)
(-0.001 0 0)
(-0.001 0 0)
(-0.001 0 0)
(-0.001 0 0)
(-0.001 0 0)
(-0.001 0 0)
(-0.001 0 0)
)
;
    }
    lid
    {
        type            myHeatFlux;
        ThetaWall       uniform 0;
        value           nonuniform List<vector> 
20
(
(0.000135815 0.0009 0)
(0.000135815 0.0009 0)
(0.000135815 0.0009 0)
(0.000135815 0.0009 0)
(0.000135815 0.0009 0)
(0.000135815 0.0009 0)
(0.000135815 0.0009 0)
(0.000135815 0.0009 0)
(0.000135815 0.0009 0)
(0.000135815 0.0009 0)
(0.000135815 0.0009 0)
(0.000135815 0.0009 0)
(0.000135815 0.0009 0)
(0.000135815 0.0009 0)
(0.000135815 0.0009 0)
(0.000135815 0.0009 0)
(0.000135815 0.0009 0)
(0.000135815 0.0009 0)
(0.000135815 0.0009 0)
(0.000135815 0.0009 0)
)
;
    }
    frontAndBack
    {
        type            empty;
    }
}


// ************************************************************************* //
