/*--------------------------------*- C++ -*----------------------------------*\
| =========                 |                                                 |
| \\      /  F ield         | foam-extend: Open Source CFD                    |
|  \\    /   O peration     | Version:  3.0                                   |
|   \\  /    A nd           | Web:         http://www.extend-project.de       |
|    \\/     M anipulation  |                                                 |
\*---------------------------------------------------------------------------*/
FoamFile
{
    version     2.0;
    format      ascii;
    class       volVectorField;
    location    "120";
    object      s;
}
// * * * * * * * * * * * * * * * * * * * * * * * * * * * * * * * * * * * * * //

dimensions      [0 1 -1 0 0 0 0];

internalField   nonuniform List<vector> 
320
(
(1.22993 0.0948553 0)
(0.94716 0.0744068 0)
(0.767079 0.0604439 0)
(0.645678 0.0513845 0)
(0.556815 0.0447467 0)
(0.490128 0.0400012 0)
(0.437893 0.036367 0)
(0.395712 0.0333699 0)
(1.20125 0.291961 0)
(0.924069 0.221929 0)
(0.74876 0.180216 0)
(0.630375 0.151209 0)
(0.543928 0.130547 0)
(0.479527 0.114587 0)
(0.42876 0.102499 0)
(0.389172 0.0919268 0)
(1.13737 0.474793 0)
(0.875651 0.363056 0)
(0.710467 0.294413 0)
(0.598134 0.247078 0)
(0.515937 0.212596 0)
(0.454441 0.1864 0)
(0.405382 0.165494 0)
(0.366776 0.148989 0)
(1.04789 0.643163 0)
(0.807079 0.494304 0)
(0.655039 0.401121 0)
(0.551426 0.336948 0)
(0.475408 0.290234 0)
(0.418285 0.254768 0)
(0.372527 0.226709 0)
(0.336158 0.204389 0)
(0.933829 0.797436 0)
(0.718998 0.613452 0)
(0.583539 0.497654 0)
(0.491152 0.418306 0)
(0.423397 0.360289 0)
(0.372456 0.316598 0)
(0.33173 0.281867 0)
(0.299493 0.254514 0)
(0.797291 0.932515 0)
(0.61382 0.717509 0)
(0.498067 0.582101 0)
(0.419141 0.489432 0)
(0.361222 0.421715 0)
(0.317678 0.370664 0)
(0.28294 0.330161 0)
(0.255427 0.29809 0)
(0.641408 1.04503 0)
(0.493706 0.804032 0)
(0.400574 0.652179 0)
(0.337043 0.548462 0)
(0.290472 0.472589 0)
(0.255445 0.415518 0)
(0.227535 0.37016 0)
(0.205441 0.334291 0)
(0.469905 1.13194 0)
(0.361707 0.870867 0)
(0.29342 0.706357 0)
(0.246862 0.59405 0)
(0.212712 0.511917 0)
(0.187046 0.450107 0)
(0.166607 0.401023 0)
(0.150422 0.362141 0)
(0.286944 1.1911 0)
(0.220896 0.916331 0)
(0.179204 0.743174 0)
(0.150754 0.625039 0)
(0.129896 0.538619 0)
(0.114208 0.473625 0)
(0.101722 0.421986 0)
(0.0918334 0.381094 0)
(0.0970164 1.22098 0)
(0.0747692 0.939307 0)
(0.0606639 0.761783 0)
(0.0510383 0.640687 0)
(0.0439508 0.55211 0)
(0.0386298 0.485483 0)
(0.0343845 0.432564 0)
(0.0310257 0.390636 0)
(-0.0952296 1.22085 0)
(-0.0731405 0.93919 0)
(-0.0592852 0.761669 0)
(-0.0498607 0.640595 0)
(-0.0429914 0.552027 0)
(-0.0378293 0.485418 0)
(-0.0337353 0.432506 0)
(-0.0304909 0.390588 0)
(-0.285063 1.19068 0)
(-0.219187 0.91599 0)
(-0.177734 0.742846 0)
(-0.149484 0.624761 0)
(-0.128845 0.538382 0)
(-0.113321 0.473415 0)
(-0.100998 0.421814 0)
(-0.0912307 0.380928 0)
(-0.467826 1.13122 0)
(-0.359798 0.870256 0)
(-0.291764 0.705757 0)
(-0.245393 0.593569 0)
(-0.211488 0.511501 0)
(-0.185994 0.449778 0)
(-0.165747 0.400753 0)
(-0.149703 0.361909 0)
(-0.639023 1.04394 0)
(-0.491514 0.803119 0)
(-0.398587 0.651312 0)
(-0.335236 0.547779 0)
(-0.28891 0.472042 0)
(-0.254071 0.415079 0)
(-0.226403 0.369837 0)
(-0.204477 0.333987 0)
(-0.794449 0.930969 0)
(-0.611099 0.716222 0)
(-0.495571 0.580845 0)
(-0.416806 0.488515 0)
(-0.359201 0.420973 0)
(-0.31588 0.370173 0)
(-0.281474 0.329824 0)
(-0.254209 0.297853 0)
(-0.930283 0.7951 0)
(-0.715614 0.611705 0)
(-0.580337 0.496087 0)
(-0.4881 0.417232 0)
(-0.420639 0.359545 0)
(-0.369903 0.316157 0)
(-0.329607 0.281697 0)
(-0.297675 0.25439 0)
(-1.04319 0.639674 0)
(-0.802488 0.492138 0)
(-0.650796 0.399123 0)
(-0.547363 0.335682 0)
(-0.471708 0.289271 0)
(-0.41481 0.254363 0)
(-0.369619 0.226637 0)
(-0.333808 0.204668 0)
(-1.13038 0.468516 0)
(-0.869585 0.360463 0)
(-0.705218 0.292338 0)
(-0.593136 0.245871 0)
(-0.511154 0.211877 0)
(-0.449496 0.186308 0)
(-0.400524 0.166 0)
(-0.361717 0.149907 0)
(-1.18973 0.285837 0)
(-0.915256 0.219922 0)
(-0.742261 0.17836 0)
(-0.624295 0.15001 0)
(-0.538006 0.129269 0)
(-0.473108 0.113668 0)
(-0.421562 0.101276 0)
(-0.380716 0.0914572 0)
(-1.21977 0.0961316 0)
(-0.938377 0.0739732 0)
(-0.761016 0.0599957 0)
(-0.640071 0.0504585 0)
(-0.551601 0.0434797 0)
(-0.485063 0.0382298 0)
(-0.432214 0.03406 0)
(-0.390335 0.0307558 0)
(-1.21977 -0.0959314 0)
(-0.93838 -0.0737914 0)
(-0.761021 -0.0598423 0)
(-0.640076 -0.0503329 0)
(-0.551606 -0.0433782 0)
(-0.485067 -0.0381481 0)
(-0.432218 -0.033994 0)
(-0.390339 -0.0307021 0)
(-1.18973 -0.285627 0)
(-0.915266 -0.219735 0)
(-0.742277 -0.178203 0)
(-0.624311 -0.149883 0)
(-0.538021 -0.129166 0)
(-0.473121 -0.113585 0)
(-0.421574 -0.10121 0)
(-0.380726 -0.0914033 0)
(-1.13038 -0.468287 0)
(-0.869603 -0.360265 0)
(-0.705243 -0.292174 0)
(-0.593163 -0.245739 0)
(-0.511179 -0.211771 0)
(-0.449518 -0.186224 0)
(-0.400543 -0.165932 0)
(-0.361734 -0.149853 0)
(-1.04318 -0.639417 0)
(-0.802516 -0.491922 0)
(-0.650834 -0.398948 0)
(-0.5474 -0.335542 0)
(-0.471742 -0.28916 0)
(-0.414839 -0.254275 0)
(-0.369644 -0.226567 0)
(-0.333829 -0.204611 0)
(-0.930291 -0.794807 0)
(-0.715656 -0.611467 0)
(-0.580386 -0.495897 0)
(-0.488148 -0.417081 0)
(-0.420681 -0.359426 0)
(-0.369939 -0.316063 0)
(-0.329638 -0.281621 0)
(-0.297701 -0.254329 0)
(-0.794475 -0.930631 0)
(-0.611158 -0.715956 0)
(-0.495636 -0.580634 0)
(-0.416866 -0.488348 0)
(-0.359254 -0.42084 0)
(-0.315924 -0.370067 0)
(-0.28151 -0.329739 0)
(-0.254238 -0.297783 0)
(-0.639078 -1.04355 0)
(-0.491595 -0.802816 0)
(-0.398667 -0.651073 0)
(-0.335309 -0.547589 0)
(-0.288971 -0.47189 0)
(-0.254123 -0.414957 0)
(-0.226444 -0.369737 0)
(-0.204511 -0.333905 0)
(-0.467918 -1.13078 0)
(-0.359906 -0.869911 0)
(-0.291868 -0.70548 0)
(-0.245482 -0.593346 0)
(-0.211566 -0.51132 0)
(-0.186057 -0.449629 0)
(-0.165799 -0.40063 0)
(-0.149744 -0.361805 0)
(-0.285207 -1.19017 0)
(-0.219334 -0.915585 0)
(-0.177862 -0.742517 0)
(-0.149599 -0.624493 0)
(-0.128938 -0.53816 0)
(-0.113402 -0.473232 0)
(-0.101063 -0.42166 0)
(-0.0912846 -0.380799 0)
(-0.0954355 -1.22026 0)
(-0.0733311 -0.938721 0)
(-0.0594603 -0.761275 0)
(-0.050013 -0.640266 0)
(-0.0431266 -0.551753 0)
(-0.037943 -0.485184 0)
(-0.033832 -0.432311 0)
(-0.0305705 -0.390417 0)
(0.0967267 -1.22031 0)
(0.0745052 -0.938739 0)
(0.0604373 -0.761291 0)
(0.0508238 -0.640278 0)
(0.0437707 -0.551763 0)
(0.0384659 -0.485198 0)
(0.034248 -0.432321 0)
(0.0309095 -0.390433 0)
(0.28656 -1.19032 0)
(0.220555 -0.915655 0)
(0.178871 -0.742577 0)
(0.150443 -0.624531 0)
(0.129605 -0.5382 0)
(0.113948 -0.473265 0)
(0.101497 -0.421694 0)
(0.0916403 -0.380832 0)
(0.469392 -1.13103 0)
(0.361209 -0.870022 0)
(0.292959 -0.705579 0)
(0.246395 -0.593417 0)
(0.212299 -0.511381 0)
(0.186663 -0.449694 0)
(0.166283 -0.400681 0)
(0.150149 -0.361871 0)
(0.640737 -1.04388 0)
(0.493059 -0.802987 0)
(0.399882 -0.651248 0)
(0.33635 -0.547695 0)
(0.289801 -0.472 0)
(0.254822 -0.415038 0)
(0.227001 -0.369813 0)
(0.204977 -0.33398 0)
(0.796387 -0.931084 0)
(0.612818 -0.716188 0)
(0.497073 -0.580865 0)
(0.418106 -0.488497 0)
(0.360268 -0.420953 0)
(0.316794 -0.370166 0)
(0.282198 -0.329801 0)
(0.254837 -0.297873 0)
(0.932536 -0.795378 0)
(0.717682 -0.611784 0)
(0.582145 -0.496266 0)
(0.489709 -0.417252 0)
(0.421954 -0.359591 0)
(0.371031 -0.316122 0)
(0.330496 -0.281668 0)
(0.298419 -0.254364 0)
(1.04591 -0.640264 0)
(0.804966 -0.492355 0)
(0.653087 -0.399361 0)
(0.549419 -0.335712 0)
(0.473428 -0.289213 0)
(0.41632 -0.254234 0)
(0.370768 -0.226443 0)
(0.334824 -0.204531 0)
(1.1338 -0.469542 0)
(0.872875 -0.360781 0)
(0.70823 -0.292762 0)
(0.595859 -0.245819 0)
(0.513459 -0.21179 0)
(0.451464 -0.18593 0)
(0.402018 -0.165626 0)
(0.362874 -0.149475 0)
(1.19445 -0.287778 0)
(0.919524 -0.220386 0)
(0.746179 -0.178657 0)
(0.627873 -0.14977 0)
(0.541091 -0.128754 0)
(0.475866 -0.112822 0)
(0.42364 -0.10024 0)
(0.382493 -0.090346 0)
(1.22696 -0.100183 0)
(0.944482 -0.0741216 0)
(0.766231 -0.06025 0)
(0.64472 -0.0498687 0)
(0.555814 -0.0427343 0)
(0.488872 -0.0367713 0)
(0.435603 -0.0325612 0)
(0.393196 -0.0281985 0)
)
;

boundaryField
{
    up
    {
        type            myHeatFlux;
        alpha           uniform 1;
        Theta_wall      uniform 1;
        value           nonuniform List<vector> 
40
(
(0.379254 0.0318863 0)
(0.372934 0.0881552 0)
(0.350204 0.142373 0)
(0.320939 0.1952 0)
(0.286082 0.243168 0)
(0.244045 0.284846 0)
(0.196296 0.319448 0)
(0.143733 0.346076 0)
(0.0877471 0.36419 0)
(0.0296394 0.373314 0)
(-0.0291484 0.373269 0)
(-0.0871944 0.364039 0)
(-0.143074 0.345863 0)
(-0.195419 0.31918 0)
(-0.242946 0.284648 0)
(-0.284485 0.243111 0)
(-0.319015 0.195593 0)
(-0.345687 0.143261 0)
(-0.363843 0.0874018 0)
(-0.373036 0.0293913 0)
(-0.373039 -0.0293422 0)
(-0.363853 -0.0873525 0)
(-0.345702 -0.143211 0)
(-0.319035 -0.195541 0)
(-0.284509 -0.243056 0)
(-0.242973 -0.284584 0)
(-0.19545 -0.319104 0)
(-0.143111 -0.345767 0)
(-0.0872435 -0.363919 0)
(-0.0292215 -0.373111 0)
(0.0295322 -0.373124 0)
(0.0875699 -0.36395 0)
(0.143481 -0.345824 0)
(0.195877 -0.319173 0)
(0.243512 -0.284654 0)
(0.285156 -0.243078 0)
(0.319891 -0.195434 0)
(0.346644 -0.142823 0)
(0.365031 -0.0862789 0)
(0.375653 -0.02705 0)
)
;
    }
    hole
    {
        type            myHeatFlux;
        alpha           uniform 1;
        Theta_wall      uniform 4;
        value           nonuniform List<vector> 
40
(
(1.51372 0.117372 -2.62255e-18)
(1.48001 0.358565 0)
(1.38883 0.578612 2.07908e-17)
(1.27907 0.784736 0)
(1.14145 0.974775 -2.07423e-17)
(0.975018 1.14071 2.07366e-17)
(0.784524 1.27874 -0)
(0.574747 1.38529 -0)
(0.350873 1.45778 -0)
(0.118446 1.49438 2.58939e-18)
(-0.116823 1.49421 -2.58888e-18)
(-0.349138 1.45727 -0)
(-0.572794 1.38448 2.07044e-17)
(-0.782292 1.27763 -0)
(-0.972485 1.13935 -2.06997e-17)
(-1.1387 0.973054 2.06979e-17)
(-1.27685 0.782827 -0)
(-1.38354 0.573352 -0)
(-1.45616 0.349782 -0)
(-1.49291 0.117616 2.58675e-18)
(-1.4929 -0.117433 -2.58671e-18)
(-1.45613 -0.349584 -0)
(-1.3835 -0.573127 2.06937e-17)
(-1.2768 -0.782562 0)
(-1.13865 -0.972737 -2.06945e-17)
(-0.972447 -1.13897 2.06954e-17)
(-0.782283 -1.27718 0)
(-0.572828 -1.38395 0)
(-0.349233 -1.45666 0)
(-0.116995 -1.49352 2.58771e-18)
(0.118174 -1.49361 -2.58803e-18)
(0.350494 -1.45692 0)
(0.574242 -1.38436 2.07106e-17)
(0.78392 -1.2777 0)
(0.974336 -1.13957 -2.07186e-17)
(1.1408 -0.973361 2.07228e-17)
(1.27914 -0.783252 0)
(1.38592 -0.573987 0)
(1.4576 -0.350864 -0)
(1.50034 -0.121371 2.60005e-18)
)
;
    }
    frontAndBack
    {
        type            empty;
    }
}


// ************************************************************************* //
