/*--------------------------------*- C++ -*----------------------------------*\
| =========                 |                                                 |
| \\      /  F ield         | foam-extend: Open Source CFD                    |
|  \\    /   O peration     | Version:  3.0                                   |
|   \\  /    A nd           | Web:         http://www.extend-project.de       |
|    \\/     M anipulation  |                                                 |
\*---------------------------------------------------------------------------*/
FoamFile
{
    version     2.0;
    format      ascii;
    class       volSymmTensorField;
    location    "4.2";
    object      sigma;
}
// * * * * * * * * * * * * * * * * * * * * * * * * * * * * * * * * * * * * * //

dimensions      [0 0 0 0 0 0 0];

internalField   nonuniform List<symmTensor> 
400
(
(0.0974289 -0.0277758 7.1786e-317 -0.13063 9.64605e-317 0.0332006)
(0.190126 -0.0536034 7.84502e-317 -0.12819 1.12336e-316 -0.0619358)
(0.233653 -0.0822742 7.79983e-317 -0.123479 1.09704e-316 -0.110174)
(0.241236 -0.103916 7.58452e-317 -0.112428 1.0127e-316 -0.128808)
(0.229261 -0.124202 7.10156e-317 -0.0993331 8.91855e-317 -0.129928)
(0.20397 -0.142162 6.62187e-317 -0.0844006 7.90644e-317 -0.11957)
(0.169223 -0.156797 6.08128e-317 -0.0678242 6.7723e-317 -0.101399)
(0.128268 -0.169483 5.57862e-317 -0.0503669 5.97868e-317 -0.0779008)
(0.0825762 -0.178076 5.09291e-317 -0.032013 5.07982e-317 -0.0505632)
(0.0335837 -0.183513 4.65101e-317 -0.0128037 4.52299e-317 -0.0207799)
(-0.0174022 -0.184585 4.24939e-317 0.00703584 3.83712e-317 0.0103664)
(-0.068768 -0.181626 3.88952e-317 0.0272831 3.46804e-317 0.041485)
(-0.119509 -0.174914 3.57674e-317 0.0481683 2.94581e-317 0.0713411)
(-0.165801 -0.164073 3.29071e-317 0.067952 2.71261e-317 0.0978488)
(-0.207201 -0.150816 3.06371e-317 0.0879963 2.3167e-317 0.119205)
(-0.236292 -0.13399 2.81596e-317 0.104411 2.17372e-317 0.131881)
(-0.251292 -0.114564 2.65932e-317 0.119128 1.8919e-317 0.132164)
(-0.241983 -0.0932972 2.37594e-317 0.128559 1.79514e-317 0.113424)
(-0.195331 -0.0639841 2.19624e-317 0.130972 1.61409e-317 0.0643584)
(-0.0982023 -0.0365292 1.64225e-317 0.129698 1.4431e-317 -0.031496)
(0.0726477 -0.00872997 1.74499e-317 -0.173025 4.79427e-317 0.100377)
(0.157853 -0.0168395 2.83497e-317 -0.186463 7.75095e-317 0.0286101)
(0.193678 -0.0292984 3.54755e-317 -0.180443 8.48988e-317 -0.0132347)
(0.203344 -0.0395234 3.98727e-317 -0.168226 8.28386e-317 -0.0351174)
(0.192395 -0.0506452 4.18846e-317 -0.148083 7.53755e-317 -0.044312)
(0.17038 -0.061107 4.25039e-317 -0.125232 6.7836e-317 -0.0451483)
(0.140586 -0.0700037 4.19608e-317 -0.100027 5.88343e-317 -0.0405591)
(0.105823 -0.077331 4.07859e-317 -0.0734542 5.19518e-317 -0.0323693)
(0.0681269 -0.0818777 3.91481e-317 -0.0463248 4.43376e-317 -0.0218021)
(0.0278635 -0.0834526 3.73013e-317 -0.0180156 3.91746e-317 -0.00984788)
(-0.0134746 -0.0823171 3.53766e-317 0.0106934 3.3266e-317 0.00278119)
(-0.0555877 -0.0777008 3.34862e-317 0.0403784 2.97119e-317 0.0152093)
(-0.0972569 -0.0717281 3.17575e-317 0.0706146 2.52746e-317 0.0266423)
(-0.136302 -0.0631966 3.01794e-317 0.1004 2.30263e-317 0.0359018)
(-0.171601 -0.0553841 2.90052e-317 0.130007 1.98266e-317 0.0415938)
(-0.196888 -0.0473417 2.7946e-317 0.155219 1.86311e-317 0.0416693)
(-0.210789 -0.0406345 2.76779e-317 0.177615 1.67049e-317 0.0331747)
(-0.199697 -0.0367488 2.72427e-317 0.187855 1.66709e-317 0.0118422)
(-0.161752 -0.0298143 2.79713e-317 0.190836 1.72038e-317 -0.0290834)
(-0.0724707 -0.0284004 2.72897e-317 0.171244 2.09441e-317 -0.0987731)
(0.0672689 -0.00539827 -5.52266e-318 -0.196662 2.14276e-317 0.129393)
(0.146249 0.00500785 4.71824e-318 -0.212358 5.10215e-317 0.0661092)
(0.176409 0.0105997 1.3775e-317 -0.203541 6.197e-317 0.0271322)
(0.184882 0.01014 2.07337e-317 -0.189229 6.36671e-317 0.00434651)
(0.173147 0.00801929 2.54172e-317 -0.165101 6.01416e-317 -0.00804581)
(0.153057 0.0021689 2.84756e-317 -0.139454 5.52362e-317 -0.0136038)
(0.126702 -0.00199827 3.0083e-317 -0.111904 4.90314e-317 -0.0147975)
(0.0963961 -0.00648039 3.07701e-317 -0.0831979 4.36237e-317 -0.0131982)
(0.0647202 -0.0077957 3.07469e-317 -0.0548839 3.78817e-317 -0.0098363)
(0.0301374 -0.00686767 3.03011e-317 -0.0245925 3.34044e-317 -0.00554487)
(-0.00484503 -0.00339292 2.95989e-317 0.00571084 2.87264e-317 -0.000865811)
(-0.0420535 0.00315548 2.87806e-317 0.0385262 2.53081e-317 0.00352739)
(-0.0795661 0.00949723 2.79731e-317 0.0725187 2.16084e-317 0.00704737)
(-0.116417 0.0176975 2.71819e-317 0.107598 1.90287e-317 0.0088197)
(-0.151922 0.0212133 2.65617e-317 0.144198 1.60629e-317 0.00772393)
(-0.178185 0.0234135 2.58461e-317 0.175998 1.40155e-317 0.00218691)
(-0.196894 0.0169598 2.53461e-317 0.207119 1.16706e-317 -0.0102247)
(-0.187637 0.00529084 2.42998e-317 0.220439 1.0213e-317 -0.0328018)
(-0.156093 -0.0134378 2.32154e-317 0.226826 9.84673e-318 -0.0707322)
(-0.0685164 -0.0384152 2.14961e-317 0.199454 1.31215e-317 -0.130937)
(0.0604827 0.00678456 -2.6392e-317 -0.214486 -9.4034e-319 0.154003)
(0.127623 0.0293808 -1.63887e-317 -0.216387 2.79385e-317 0.0887643)
(0.150104 0.0463346 -5.62953e-318 -0.19799 4.08421e-317 0.0478857)
(0.152938 0.0486196 3.3201e-318 -0.176012 4.54678e-317 0.0230746)
(0.140698 0.0499342 1.04412e-317 -0.149205 4.50402e-317 0.00850716)
(0.122128 0.0437497 1.56348e-317 -0.122618 4.27069e-317 0.000489733)
(0.101393 0.0401876 1.92613e-317 -0.0980011 3.88245e-317 -0.00339184)
(0.0778377 0.0358866 2.16239e-317 -0.073066 3.50902e-317 -0.00477165)
(0.0555416 0.0354945 2.30291e-317 -0.050957 3.08845e-317 -0.00458458)
(0.0302459 0.0383924 2.37348e-317 -0.0265495 2.74252e-317 -0.0036964)
(0.00581636 0.0441189 2.39441e-317 -0.00328844 2.37784e-317 -0.00252792)
(-0.0225854 0.0544582 2.38098e-317 0.0243547 2.10108e-317 -0.00176937)
(-0.0513578 0.0637813 2.34446e-317 0.0532351 1.81111e-317 -0.00187728)
(-0.0832762 0.0763032 2.28916e-317 0.0870244 1.61111e-317 -0.00374827)
(-0.115245 0.0807388 2.2189e-317 0.123647 1.40413e-317 -0.00840156)
(-0.143373 0.0841117 2.12422e-317 0.160857 1.29359e-317 -0.0174844)
(-0.166128 0.0703889 2.00143e-317 0.199553 1.20196e-317 -0.0334247)
(-0.165145 0.0495624 1.828e-317 0.224836 1.22672e-317 -0.0596915)
(-0.142985 0.00815485 1.59425e-317 0.244511 1.30794e-317 -0.101526)
(-0.0638698 -0.0437216 1.31748e-317 0.229565 1.40856e-317 -0.165696)
(0.0648963 0.0339165 -2.0801e-317 -0.253262 -5.64352e-318 0.188366)
(0.123513 0.0592932 -1.47854e-317 -0.233951 1.47357e-317 0.110439)
(0.140029 0.0796678 -6.96586e-318 -0.203019 2.58001e-317 0.0629904)
(0.135662 0.0792817 2.28451e-319 -0.170145 3.10477e-317 0.0344833)
(0.123215 0.0795665 6.2363e-318 -0.140753 3.24054e-317 0.0175381)
(0.104796 0.0701866 1.09581e-317 -0.112505 3.17935e-317 0.00770885)
(0.0891447 0.0651704 1.44442e-317 -0.0913688 2.98032e-317 0.00222402)
(0.070452 0.059184 1.69456e-317 -0.0697191 2.74369e-317 -0.000732951)
(0.0559468 0.0587259 1.86424e-317 -0.0537716 2.46493e-317 -0.00217518)
(0.0373358 0.0620665 1.97499e-317 -0.0343368 2.20661e-317 -0.00299904)
(0.0209662 0.0697561 2.04342e-317 -0.0173095 1.93954e-317 -0.00365667)
(-0.00174183 0.0829814 2.08381e-317 0.00657187 1.71237e-317 -0.00483004)
(-0.0249667 0.0961693 2.10871e-317 0.0320147 1.48833e-317 -0.00704798)
(-0.0554534 0.113835 2.12443e-317 0.0666892 1.31261e-317 -0.0112358)
(-0.0877677 0.122287 2.14181e-317 0.10641 1.15081e-317 -0.0186421)
(-0.121933 0.131065 2.15381e-317 0.153094 1.05018e-317 -0.0311604)
(-0.15323 0.116431 2.17472e-317 0.205162 9.91454e-318 -0.0519317)
(-0.165106 0.0955193 2.17677e-317 0.25057 1.02935e-317 -0.0854642)
(-0.153708 0.0405226 2.17961e-317 0.293022 1.18726e-317 -0.139314)
(-0.0767339 -0.0245962 2.14082e-317 0.301159 1.59246e-317 -0.224425)
(0.0643117 0.0850304 -2.18417e-317 -0.285496 -9.49582e-318 0.221184)
(0.108295 0.0999664 -1.72674e-317 -0.236941 6.12263e-318 0.128646)
(0.117964 0.112152 -1.05453e-317 -0.191643 1.53478e-317 0.0736794)
(0.105009 0.101192 -4.03729e-318 -0.146321 2.05333e-317 0.0413123)
(0.0932038 0.0938479 1.802e-318 -0.115555 2.27316e-317 0.0223508)
(0.0756588 0.0776155 6.52622e-318 -0.0869587 2.32145e-317 0.0113)
(0.0663533 0.0676797 1.0221e-317 -0.0713405 2.24209e-317 0.00498726)
(0.0542535 0.0586686 1.29655e-317 -0.0555293 2.10886e-317 0.00127586)
(0.0493187 0.0565501 1.49365e-317 -0.04845 1.92701e-317 -0.000868705)
(0.0399205 0.0605811 1.62924e-317 -0.0374258 1.74352e-317 -0.0024947)
(0.0344771 0.0703362 1.71829e-317 -0.0304817 1.54511e-317 -0.0039954)
(0.0207531 0.0884566 1.77301e-317 -0.0145509 1.36754e-317 -0.00620221)
(0.00749545 0.107822 1.80305e-317 0.00212327 1.19159e-317 -0.00961872)
(-0.0181112 0.135015 1.8152e-317 0.0335372 1.05125e-317 -0.015426)
(-0.0451392 0.15278 1.81298e-317 0.0701908 9.30577e-318 -0.0250516)
(-0.0837595 0.174218 1.7992e-317 0.124775 8.6945e-318 -0.0410154)
(-0.11891 0.167271 1.76915e-317 0.186265 8.64638e-318 -0.0673546)
(-0.147512 0.155745 1.72479e-317 0.257917 9.65191e-318 -0.110405)
(-0.147268 0.09747 1.64907e-317 0.328062 1.16896e-317 -0.180794)
(-0.0835813 0.0266507 1.5337e-317 0.377928 1.45365e-317 -0.294347)
(0.0663473 0.156431 -9.14924e-318 -0.313081 -5.07689e-318 0.246733)
(0.0962034 0.148968 -7.81541e-318 -0.236383 2.83031e-318 0.140179)
(0.101695 0.142376 -4.40422e-318 -0.180864 8.99595e-318 0.0791697)
(0.0807925 0.116578 -4.46902e-319 -0.125015 1.31584e-317 0.0442223)
(0.07148 0.0971683 3.32976e-318 -0.0956718 1.54648e-317 0.0241917)
(0.0546695 0.0727235 6.67157e-318 -0.0673258 1.64679e-317 0.0126563)
(0.0518668 0.0561076 9.40091e-318 -0.0579414 1.64565e-317 0.00607456)
(0.0452622 0.0427139 1.1568e-317 -0.0473811 1.5856e-317 0.00211889)
(0.0489611 0.0377088 1.32138e-317 -0.0486537 1.47922e-317 -0.000307321)
(0.0472462 0.0401234 1.44431e-317 -0.0449611 1.35468e-317 -0.00228501)
(0.0513564 0.0507321 1.53535e-317 -0.0471047 1.21313e-317 -0.00425163)
(0.0451708 0.0707274 1.60467e-317 -0.0381177 1.07512e-317 -0.00705312)
(0.0403882 0.0958952 1.66282e-317 -0.0290648 9.37592e-318 -0.0113234)
(0.0184273 0.130452 1.71788e-317 -8.48488e-05 8.19865e-318 -0.0183424)
(-0.00514578 0.160334 1.78227e-317 0.0350796 7.22115e-318 -0.0299339)
(-0.0499563 0.196776 1.85829e-317 0.099071 6.70777e-318 -0.0491146)
(-0.0918766 0.20737 1.96361e-317 0.173078 6.80993e-318 -0.0812018)
(-0.140676 0.218178 2.08327e-317 0.275275 8.0061e-318 -0.134599)
(-0.154548 0.176806 2.23158e-317 0.379012 1.08844e-317 -0.224465)
(-0.102604 0.129238 2.34192e-317 0.477968 1.69124e-317 -0.375364)
(0.0582833 0.238546 -7.40484e-318 -0.307322 -3.76617e-318 0.249038)
(0.0720393 0.200286 -6.3742e-318 -0.210823 1.22381e-318 0.138784)
(0.0738736 0.167023 -3.60388e-318 -0.150963 5.39181e-318 0.0770897)
(0.0474745 0.123688 -3.51182e-319 -0.0899942 8.58805e-318 0.0425197)
(0.040852 0.088771 2.94721e-318 -0.0640211 1.06382e-317 0.0231692)
(0.0260408 0.0556741 5.85006e-318 -0.0382373 1.17686e-317 0.0121965)
(0.0288965 0.0307832 8.29251e-318 -0.0349648 1.21092e-317 0.00606827)
(0.0283641 0.0131723 1.02258e-317 -0.0307299 1.19181e-317 0.00236577)
(0.0398086 0.00439232 1.17085e-317 -0.0399247 1.12941e-317 0.000116163)
(0.0465653 0.00576631 1.28077e-317 -0.0447222 1.04303e-317 -0.00184308)
(0.0603271 0.0169835 1.36043e-317 -0.0564934 9.36185e-318 -0.00383369)
(0.0635505 0.0402595 1.41771e-317 -0.0567109 8.23455e-318 -0.0068396)
(0.0696086 0.0722489 1.45971e-317 -0.0581813 7.05608e-318 -0.0114273)
(0.0548915 0.117182 1.49329e-317 -0.0357497 5.97333e-318 -0.0191419)
(0.0407751 0.162793 1.52399e-317 -0.00884411 5.03643e-318 -0.031931)
(-0.00543328 0.219708 1.55969e-317 0.058914 4.48997e-318 -0.0534807)
(-0.0445456 0.255822 1.60219e-317 0.134556 4.56173e-318 -0.0900101)
(-0.11126 0.296794 1.66164e-317 0.263311 5.80404e-318 -0.152051)
(-0.132485 0.284593 1.72851e-317 0.390908 8.80462e-318 -0.258423)
(-0.104051 0.266317 1.77498e-317 0.544006 1.43699e-317 -0.439955)
(0.0478532 0.315617 2.44848e-318 -0.272943 8.99402e-319 0.22509)
(0.0473069 0.246483 1.6881e-318 -0.169678 1.33818e-318 0.122371)
(0.0475316 0.183909 2.31203e-318 -0.114165 3.31646e-318 0.0666336)
(0.0186846 0.124786 3.78037e-318 -0.0548138 5.39484e-318 0.0361292)
(0.0160425 0.0735707 5.48693e-318 -0.0355078 7.04383e-318 0.0194653)
(0.00378233 0.0324807 7.23503e-318 -0.013952 8.1486e-318 0.0101697)
(0.0119932 -0.00117859 8.78121e-318 -0.0170988 8.69867e-318 0.00510562)
(0.016643 -0.0239248 1.00927e-317 -0.018695 8.79694e-318 0.00205202)
(0.0348039 -0.0375139 1.11362e-317 -0.0350158 8.50642e-318 0.000211865)
(0.0487181 -0.0398747 1.19464e-317 -0.0472256 7.94423e-318 -0.00149253)
(0.0709765 -0.029934 1.25655e-317 -0.0676365 7.15851e-318 -0.00334)
(0.0825966 -0.00803985 1.30523e-317 -0.0763241 6.24672e-318 -0.00627253)
(0.0984292 0.0286311 1.34808e-317 -0.0875182 5.24077e-318 -0.010911)
(0.0907503 0.0780059 1.39192e-317 -0.0719503 4.24259e-318 -0.0188001)
(0.084643 0.139422 1.44906e-317 -0.0525325 3.32025e-318 -0.0321105)
(0.0375037 0.212973 1.52518e-317 0.0172464 2.66864e-318 -0.0547501)
(-0.00228704 0.282197 1.6439e-317 0.0960562 2.5538e-318 -0.0937692)
(-0.0870293 0.360272 1.7988e-317 0.248135 3.55295e-318 -0.161105)
(-0.122627 0.3988 2.02166e-317 0.401867 6.71569e-318 -0.279241)
(-0.116003 0.441582 2.24941e-317 0.603335 1.43436e-317 -0.487333)
(0.0276393 0.377144 2.01221e-318 -0.197794 1.8423e-318 0.170155)
(0.0152948 0.279267 1.93856e-318 -0.105805 1.49225e-318 0.0905099)
(0.0124947 0.189429 2.87753e-318 -0.0607909 2.30615e-318 0.0482962)
(-0.0144955 0.117375 4.29777e-318 -0.0111786 3.58107e-318 0.0256741)
(-0.0149844 0.050988 5.92363e-318 0.00132693 4.80708e-318 0.0136575)
(-0.0232427 0.00354857 7.41626e-318 0.0161901 5.75918e-318 0.00705256)
(-0.0120458 -0.0387088 8.71376e-318 0.00842266 6.33828e-318 0.00362311)
(-0.00233987 -0.0657235 9.75116e-318 0.000796878 6.55639e-318 0.00154299)
(0.0198566 -0.0843635 1.05464e-317 -0.0202408 6.43689e-318 0.000384216)
(0.0403176 -0.0897334 1.11237e-317 -0.039453 6.04629e-318 -0.000864583)
(0.0685552 -0.0814431 1.15211e-317 -0.0662757 5.42198e-318 -0.00227947)
(0.0887971 -0.0597762 1.17765e-317 -0.0839348 4.62691e-318 -0.00486231)
(0.11354 -0.0185023 1.19282e-317 -0.104484 3.69031e-318 -0.00905607)
(0.115876 0.0377294 1.20159e-317 -0.0993506 2.68038e-318 -0.0165251)
(0.121536 0.116226 1.20806e-317 -0.0922918 1.65941e-318 -0.0292446)
(0.0810344 0.21086 1.21917e-317 -0.0297011 7.90806e-319 -0.0513333)
(0.0524692 0.317136 1.24032e-317 0.0373121 3.39102e-319 -0.0897813)
(-0.0398359 0.436937 1.28742e-317 0.197054 8.94195e-319 -0.157218)
(-0.0741378 0.530947 1.37035e-317 0.351107 3.47796e-318 -0.276969)
(-0.0966567 0.62774 1.4933e-317 0.5859 9.88896e-318 -0.489243)
(0.00537574 0.407809 7.61015e-318 -0.0976539 4.40647e-318 0.0922781)
(-0.016886 0.294506 6.78138e-318 -0.0299876 1.75056e-318 0.0468736)
(-0.0212711 0.184677 6.68654e-318 -0.00287112 1.4009e-318 0.0241422)
(-0.0435536 0.104938 7.21358e-318 0.0311793 1.99699e-318 0.0123743)
(-0.0413207 0.0264745 7.91174e-318 0.0348805 2.9389e-318 0.00644023)
(-0.0449562 -0.0260217 8.68012e-318 0.0417442 3.82436e-318 0.00321206)
(-0.031125 -0.0756826 9.35208e-318 0.0293955 4.46866e-318 0.00172952)
(-0.0169955 -0.107244 9.91266e-318 0.0161985 4.81029e-318 0.00079695)
(0.0084795 -0.130987 1.03313e-317 -0.00887251 4.84232e-318 0.000393013)
(0.0342888 -0.14123 1.06204e-317 -0.0339932 4.60354e-318 -0.000295629)
(0.0677343 -0.136284 1.07915e-317 -0.0665194 4.12595e-318 -0.00121489)
(0.095563 -0.119445 1.08657e-317 -0.0923034 3.4559e-318 -0.00325952)
(0.12873 -0.0771797 1.08755e-317 -0.121923 2.62021e-318 -0.00680653)
(0.141128 -0.0226547 1.08456e-317 -0.127781 1.6648e-318 -0.0133471)
(0.157741 0.0686529 1.08535e-317 -0.133027 6.35877e-319 -0.0247138)
(0.12543 0.172474 1.092e-317 -0.0808125 -3.52807e-319 -0.0446178)
(0.103407 0.315786 1.12594e-317 -0.0237409 -1.08082e-318 -0.0796657)
(0.00447064 0.470119 1.18542e-317 0.137319 -1.06435e-318 -0.141789)
(-0.043775 0.633278 1.3175e-317 0.298159 8.66161e-319 -0.254384)
(-0.0967183 0.807793 1.5198e-317 0.557991 7.24583e-318 -0.461272)
(-0.0206419 0.409044 4.81928e-318 0.0220528 4.01513e-318 -0.00141083)
(-0.0495476 0.286464 5.37835e-318 0.0529215 1.58997e-318 -0.00337388)
(-0.0602718 0.165523 6.41054e-318 0.0629486 7.77111e-319 -0.0026768)
(-0.0742284 0.0833169 7.41006e-318 0.0761304 1.02024e-318 -0.00190199)
(-0.0718826 -0.00301669 8.34219e-318 0.0729724 1.77617e-318 -0.00108977)
(-0.0693657 -0.0580735 9.01903e-318 0.0700576 2.59097e-318 -0.000691871)
(-0.0549417 -0.113526 9.51882e-318 0.0550781 3.23781e-318 -0.00013647)
(-0.0367045 -0.148269 9.84176e-318 0.0365954 3.62184e-318 0.000109129)
(-0.0109151 -0.176439 1.00266e-317 0.0103978 3.72378e-318 0.000517389)
(0.018646 -0.190519 1.00894e-317 -0.0190804 3.56648e-318 0.000434383)
(0.0530605 -0.188919 1.00409e-317 -0.0532114 3.17563e-318 0.000150873)
(0.0868833 -0.175734 9.88348e-318 -0.0856671 2.58375e-318 -0.00121626)
(0.123961 -0.133204 9.61469e-318 -0.12018 1.81065e-318 -0.00378043)
(0.147493 -0.0780612 9.22325e-318 -0.138521 8.82668e-319 -0.00897257)
(0.173713 0.0249697 8.69702e-318 -0.155646 -1.69519e-319 -0.0180669)
(0.157814 0.143092 8.03546e-318 -0.123486 -1.27063e-318 -0.0343281)
(0.151852 0.322371 7.22156e-318 -0.0889448 -2.24491e-318 -0.062907)
(0.0650769 0.517263 6.39959e-318 0.0489172 -2.71768e-318 -0.113994)
(0.0292013 0.744496 5.66332e-318 0.177668 -1.7821e-318 -0.206869)
(-0.0478167 0.978952 5.83417e-318 0.424057 2.08709e-318 -0.376241)
(-0.0482365 0.376009 7.50313e-318 0.146921 4.40308e-318 -0.0986845)
(-0.0811454 0.26042 8.01414e-318 0.135032 5.76995e-319 -0.0538865)
(-0.0944035 0.138847 8.80253e-318 0.123182 -5.59445e-319 -0.0287781)
(-0.0994389 0.056908 9.40226e-318 0.114847 -3.33376e-319 -0.0154081)
(-0.096207 -0.0324065 9.74604e-318 0.104263 5.33966e-319 -0.00805595)
(-0.0875186 -0.0891985 9.91579e-318 0.0917841 1.47154e-318 -0.00426559)
(-0.0725212 -0.147505 9.95013e-318 0.0743853 2.22208e-318 -0.00186408)
(-0.0506985 -0.184485 9.90981e-318 0.0512616 2.69511e-318 -0.000563054)
(-0.0249347 -0.215555 9.80211e-318 0.0243808 2.88182e-318 0.000553888)
(0.00720558 -0.233352 9.63493e-318 -0.00824747 2.81109e-318 0.00104189)
(0.0423388 -0.235739 9.39721e-318 -0.0436801 2.5156e-318 0.00134129)
(0.0808206 -0.228816 9.0754e-318 -0.0815153 2.02756e-318 0.000694755)
(0.122327 -0.19015 8.65711e-318 -0.121458 1.36698e-318 -0.000868257)
(0.156504 -0.142853 8.11531e-318 -0.152013 5.55414e-319 -0.00449118)
(0.193596 -0.0368015 7.45642e-318 -0.1826 -3.86206e-319 -0.010996)
(0.194951 0.0771197 6.63127e-318 -0.172288 -1.41654e-318 -0.0226634)
(0.20219 0.281351 5.72845e-318 -0.159232 -2.41819e-318 -0.0429573)
(0.124577 0.489499 4.71136e-318 -0.0456978 -3.19442e-318 -0.0788787)
(0.0772162 0.779704 3.88905e-318 0.0679365 -3.02096e-318 -0.145153)
(-0.0417022 1.07705 3.9854e-318 0.316383 -5.76925e-319 -0.274681)
(-0.0694024 0.311453 4.93533e-318 0.255781 3.54348e-318 -0.186379)
(-0.108701 0.2087 6.91167e-318 0.206641 -1.72552e-319 -0.0979407)
(-0.130651 0.0967273 8.94622e-318 0.181303 -1.29404e-318 -0.0506518)
(-0.124593 0.0216113 9.85278e-318 0.150891 -9.02604e-319 -0.0262973)
(-0.120885 -0.0656628 1.02498e-317 0.134394 5.6531e-320 -0.013509)
(-0.10459 -0.121039 1.02132e-317 0.111588 1.02504e-318 -0.00699825)
(-0.0894149 -0.179645 1.00221e-317 0.0925717 1.76394e-318 -0.00315677)
(-0.0646171 -0.216972 9.75002e-318 0.0656581 2.21809e-318 -0.00104099)
(-0.0412191 -0.249335 9.44405e-318 0.0405621 2.39821e-318 0.000656951)
(-0.00884982 -0.269499 9.10458e-318 0.00722382 2.34191e-318 0.001626)
(0.0222024 -0.275193 8.71292e-318 -0.0246964 2.08379e-318 0.00249399)
(0.0619968 -0.273396 8.23819e-318 -0.0645351 1.65456e-318 0.00253822)
(0.10048 -0.239339 7.64064e-318 -0.102528 1.0725e-318 0.00204824)
(0.143094 -0.197919 6.86744e-318 -0.143126 3.51147e-319 3.16392e-05)
(0.182589 -0.0915087 5.85142e-318 -0.178965 -4.89871e-319 -0.0036245)
(0.206525 0.0244032 4.53003e-318 -0.196194 -1.4268e-318 -0.0103318)
(0.226805 0.249093 2.77275e-318 -0.205736 -2.36771e-318 -0.0210696)
(0.185028 0.485029 6.77655e-319 -0.146213 -3.22036e-318 -0.0388146)
(0.159601 0.829403 -1.9335e-318 -0.0909045 -3.64673e-318 -0.0686962)
(0.0418822 1.1821 -3.7563e-318 0.0790468 -3.59693e-318 -0.120929)
(-0.0976886 0.237024 8.96995e-318 0.35654 1.99039e-318 -0.258851)
(-0.128991 0.148487 1.02387e-317 0.259569 -3.08242e-318 -0.130578)
(-0.15328 0.0506859 1.1446e-317 0.218953 -3.60699e-318 -0.0656729)
(-0.137571 -0.0216414 1.15402e-317 0.170953 -2.41682e-318 -0.0333826)
(-0.133471 -0.102446 1.11423e-317 0.150403 -9.57351e-319 -0.0169321)
(-0.110972 -0.155582 1.05589e-317 0.119677 2.90797e-319 -0.00870481)
(-0.096068 -0.210369 9.95797e-318 0.100055 1.16062e-318 -0.0039868)
(-0.0692332 -0.245621 9.41508e-318 0.0706113 1.68638e-318 -0.00137815)
(-0.0484424 -0.276522 8.91952e-318 0.0477597 1.92224e-318 0.00068272)
(-0.0170479 -0.296967 8.44855e-318 0.0150538 1.93207e-318 0.0019941)
(0.010196 -0.305285 7.96079e-318 -0.0134757 1.76204e-318 0.00327961)
(0.0497005 -0.308356 7.41222e-318 -0.053606 1.44798e-318 0.00390554)
(0.0867887 -0.282107 6.75761e-318 -0.0910841 1.01233e-318 0.00429541)
(0.136114 -0.251795 5.94094e-318 -0.139828 4.71783e-319 0.00371454)
(0.182365 -0.156007 4.92244e-318 -0.184901 -1.56441e-319 0.00253584)
(0.226755 -0.0579199 3.62734e-318 -0.227175 -8.55573e-319 0.000420161)
(0.264617 0.164685 2.04331e-318 -0.263236 -1.57087e-318 -0.00138076)
(0.245874 0.378958 1.37434e-319 -0.244782 -2.31838e-318 -0.00109218)
(0.218833 0.752131 -2.05594e-318 -0.223684 -3.00884e-318 0.0048505)
(0.0405162 1.11185 -3.71541e-318 -0.053389 -3.92949e-318 0.0128728)
(-0.104713 0.120841 1.16598e-317 0.401109 4.15683e-318 -0.296396)
(-0.148935 0.0646628 1.25736e-317 0.294935 -1.63064e-318 -0.145999)
(-0.174766 -0.00561598 1.32375e-317 0.246478 -2.38879e-318 -0.0717119)
(-0.148707 -0.0654724 1.25099e-317 0.184511 -1.228e-318 -0.0358043)
(-0.139765 -0.134179 1.15169e-317 0.157749 1.09287e-320 -0.0179839)
(-0.110216 -0.181655 1.04815e-317 0.119436 9.82321e-319 -0.00922031)
(-0.0947287 -0.229619 9.59316e-318 0.0989874 1.58331e-318 -0.00425874)
(-0.0671364 -0.261033 8.86052e-318 0.0686466 1.8871e-318 -0.00151016)
(-0.0506462 -0.288474 8.24458e-318 0.04995 1.96094e-318 0.000696202)
(-0.0228236 -0.30777 7.69594e-318 0.0206431 1.8635e-318 0.00218045)
(-0.00349766 -0.317345 7.15648e-318 -0.000252527 1.63653e-318 0.00375019)
(0.031575 -0.323718 6.56939e-318 -0.0363636 1.30835e-318 0.00478858)
(0.0589857 -0.30506 5.87609e-318 -0.0648722 8.97184e-319 0.00588648)
(0.109461 -0.283606 5.00841e-318 -0.115879 4.18592e-319 0.00641726)
(0.147539 -0.201 3.88667e-318 -0.154798 -1.05414e-319 0.00725933)
(0.211589 -0.113916 2.44853e-318 -0.220347 -6.54499e-319 0.00875886)
(0.248893 0.10035 5.36516e-319 -0.263294 -1.16773e-318 0.0144011)
(0.286663 0.320614 -1.73624e-318 -0.317134 -1.65875e-318 0.030471)
(0.278569 0.717611 -4.69435e-318 -0.352396 -2.27784e-318 0.0738272)
(0.165505 1.13426 -7.339e-318 -0.346615 -4.03205e-318 0.18111)
(-0.127835 0.0463904 1.87119e-317 0.433865 -1.13393e-318 -0.306031)
(-0.136855 -0.0184037 1.68314e-317 0.279747 -6.87218e-318 -0.142891)
(-0.16565 -0.0746378 1.48332e-317 0.233862 -5.89381e-318 -0.0682118)
(-0.132275 -0.131543 1.27545e-317 0.165819 -3.37678e-318 -0.0335439)
(-0.123994 -0.188186 1.09207e-317 0.140738 -1.49095e-318 -0.0167436)
(-0.0920835 -0.227533 9.53039e-318 0.10071 -1.79682e-319 -0.00862678)
(-0.0781559 -0.265755 8.46859e-318 0.0821868 6.09677e-319 -0.00403081)
(-0.0519461 -0.290226 7.68003e-318 0.0534305 1.0609e-318 -0.00148447)
(-0.0396778 -0.311958 7.05485e-318 0.0390506 1.27877e-318 0.000627184)
(-0.0163478 -0.327907 6.52343e-318 0.0142494 1.34064e-318 0.00209848)
(-0.00330974 -0.337458 6.01653e-318 -0.000433687 1.29442e-318 0.00374343)
(0.026196 -0.34593 5.47691e-318 -0.0311774 1.17197e-318 0.00498136)
(0.0473094 -0.335893 4.85363e-318 -0.0537697 9.92632e-319 0.00646029)
(0.0956592 -0.325442 4.09225e-318 -0.10333 7.7092e-319 0.00767087)
(0.132943 -0.264568 3.15274e-318 -0.142636 5.22721e-319 0.00969284)
(0.207208 -0.204042 1.9963e-318 -0.220554 2.57823e-319 0.0133456)
(0.260311 -0.0252718 6.20364e-319 -0.283611 -9.40701e-321 0.0232994)
(0.319488 0.136355 -9.37544e-319 -0.368603 -3.31582e-319 0.0491153)
(0.334593 0.50069 -2.65207e-318 -0.450551 -9.55622e-319 0.115959)
(0.129854 0.811003 -4.29069e-318 -0.397721 -2.68563e-318 0.267868)
(-0.109971 -0.102883 2.54925e-317 0.369667 1.15555e-317 -0.259695)
(-0.146561 -0.113479 2.11495e-317 0.265213 3.33461e-318 -0.118651)
(-0.152696 -0.121178 1.64368e-317 0.208264 1.75601e-318 -0.055568)
(-0.114155 -0.16233 1.28842e-317 0.141242 2.11283e-318 -0.0270866)
(-0.0970207 -0.194236 1.0277e-317 0.110532 2.45963e-318 -0.0135116)
(-0.0617969 -0.224681 8.55039e-318 0.0688479 2.61281e-318 -0.007051)
(-0.0491935 -0.248728 7.3557e-318 0.0525361 2.57158e-318 -0.00334267)
(-0.0255864 -0.266434 6.53135e-318 0.0268796 2.4012e-318 -0.00129312)
(-0.0193598 -0.280395 5.91604e-318 0.018857 2.14873e-318 0.000502836)
(-0.00223399 -0.291111 5.41931e-318 0.000464712 1.8439e-318 0.00176928)
(0.00140398 -0.298421 4.96534e-318 -0.00468746 1.50659e-318 0.00328348)
(0.0223644 -0.303734 4.49581e-318 -0.0268419 1.15075e-318 0.00447749)
(0.029972 -0.299627 3.95705e-318 -0.0359977 7.87793e-319 0.00602573)
(0.0702641 -0.291115 3.29286e-318 -0.0777048 4.29427e-319 0.00744074)
(0.0890879 -0.251928 2.44252e-318 -0.0989423 9.92232e-320 0.00985449)
(0.169154 -0.203545 1.37559e-318 -0.183203 -1.77182e-319 0.0140491)
(0.198729 -0.0707825 -5.52859e-321 -0.223655 -3.5718e-319 0.024926)
(0.321835 0.0760959 -1.5351e-318 -0.374853 -4.18246e-319 0.0530185)
(0.320167 0.394082 -3.39207e-318 -0.451949 -6.27053e-319 0.131782)
(0.307619 0.792967 -5.20426e-318 -0.66563 -1.80828e-318 0.358011)
(-0.0960534 -0.137664 2.14102e-317 0.278014 -7.19533e-318 -0.181961)
(-0.0540069 -0.205655 1.62135e-317 0.132276 -8.76079e-318 -0.0782694)
(-0.0739443 -0.230338 1.11322e-317 0.109929 -6.39136e-318 -0.0359851)
(-0.0410074 -0.261114 8.24832e-318 0.0585314 -3.80372e-318 -0.017524)
(-0.0323534 -0.288709 6.33591e-318 0.0411442 -2.29403e-318 -0.00879074)
(-0.00796675 -0.303876 5.20294e-318 0.0126672 -1.30576e-318 -0.00470046)
(6.12225e-05 -0.319415 4.45276e-318 0.00220646 -6.83248e-319 -0.00226768)
(0.0157731 -0.327685 3.95643e-318 -0.0148309 -2.55205e-319 -0.000942177)
(0.0189861 -0.335945 3.58872e-318 -0.0193094 5.21437e-320 0.000323272)
(0.0294619 -0.343068 3.28978e-318 -0.0306634 2.84251e-319 0.00120154)
(0.030312 -0.348766 3.01061e-318 -0.0326546 4.68369e-319 0.00234269)
(0.0429879 -0.356911 2.71654e-318 -0.0462308 6.22345e-319 0.00324286)
(0.0466159 -0.35841 2.37884e-318 -0.0511078 7.54418e-319 0.00449195)
(0.0733124 -0.363584 1.97126e-318 -0.0789631 8.70662e-319 0.00565071)
(0.0873239 -0.346074 1.48225e-318 -0.0949562 9.67697e-319 0.00763229)
(0.144631 -0.332632 9.14896e-319 -0.155522 1.03744e-318 0.0108915)
(0.180175 -0.252092 3.20159e-319 -0.199312 1.04674e-318 0.0191376)
(0.266023 -0.191478 -2.32458e-319 -0.306455 9.44846e-319 0.0404324)
(0.326767 0.0302738 -5.41679e-319 -0.42911 5.68551e-319 0.102343)
(0.161829 0.138155 -9.40834e-319 -0.438651 -4.45207e-319 0.276822)
(0.000446863 -0.312462 2.14865e-317 0.0527214 2.719e-317 -0.0531682)
(-0.0437011 -0.27737 1.56823e-317 0.0701043 1.56722e-317 -0.0264032)
(-0.00915872 -0.20693 9.2429e-318 0.0215715 1.09203e-317 -0.0124128)
(0.0181848 -0.22232 6.16759e-318 -0.0120266 8.12228e-318 -0.00615821)
(0.0311875 -0.201869 4.26065e-318 -0.0280446 6.62604e-318 -0.00314285)
(0.0539587 -0.213224 3.29168e-318 -0.0521959 5.48762e-318 -0.00176275)
(0.0554275 -0.206596 2.69307e-318 -0.0545568 4.60066e-318 -0.000870671)
(0.0661032 -0.211195 2.33306e-318 -0.0656939 3.81434e-318 -0.0004093)
(0.0619655 -0.208184 2.08328e-318 -0.0620735 3.10468e-318 0.000107971)
(0.0664559 -0.206406 1.89688e-318 -0.0668946 2.44369e-318 0.000438765)
(0.0588564 -0.204707 1.73708e-318 -0.0597939 1.82734e-318 0.00093748)
(0.0632795 -0.195383 1.57914e-318 -0.064584 1.25383e-318 0.00130446)
(0.0535004 -0.194034 1.3998e-318 -0.0553737 7.31519e-319 0.0018733)
(0.0673173 -0.173139 1.17455e-318 -0.0696871 2.72235e-319 0.00236984)
(0.0571827 -0.171072 8.7128e-319 -0.0604222 -1.00923e-319 0.00323958)
(0.103592 -0.130718 4.7621e-319 -0.108111 -3.60475e-319 0.00451901)
(0.0937389 -0.127184 -6.9935e-320 -0.101438 -4.93196e-319 0.00769947)
(0.226307 -0.0557137 -6.24924e-319 -0.242181 -4.63809e-319 0.0158741)
(0.190729 -0.0410716 -1.25082e-318 -0.23458 -4.87371e-319 0.0438511)
(0.381412 0.214058 -1.82328e-318 -0.556277 -8.89654e-319 0.174864)
)
;

boundaryField
{
    cavity
    {
        type            mySigma;
    }
    lid
    {
        type            fixedValue;
        value           uniform (0.1 -0.3 0 -0.1 0 0);
    }
    frontAndBack
    {
        type            empty;
    }
}


// ************************************************************************* //
