/*--------------------------------*- C++ -*----------------------------------*\
| =========                 |                                                 |
| \\      /  F ield         | foam-extend: Open Source CFD                    |
|  \\    /   O peration     | Version:  3.0                                   |
|   \\  /    A nd           | Web:         http://www.extend-project.de       |
|    \\/     M anipulation  |                                                 |
\*---------------------------------------------------------------------------*/
FoamFile
{
    version     2.0;
    format      ascii;
    class       volVectorField;
    location    "9.8";
    object      s;
}
// * * * * * * * * * * * * * * * * * * * * * * * * * * * * * * * * * * * * * //

dimensions      [0 0 0 0 0 0 0];

internalField   nonuniform List<vector> 
400
(
(-0.0526904 0.113479 1.52364e-317)
(-0.0877702 0.159894 2.76738e-317)
(-0.198801 0.163256 3.21954e-317)
(-0.254613 0.132493 3.30478e-317)
(-0.336231 0.111456 3.22107e-317)
(-0.381475 0.0809528 3.05895e-317)
(-0.431832 0.0610334 2.86569e-317)
(-0.459472 0.0374375 2.66457e-317)
(-0.482375 0.0198959 2.46628e-317)
(-0.490693 -0.000176462 2.27804e-317)
(-0.488336 -0.017777 2.10004e-317)
(-0.47611 -0.0381261 1.93457e-317)
(-0.448287 -0.0575906 1.77875e-317)
(-0.41475 -0.0803232 1.63146e-317)
(-0.360454 -0.101101 1.488e-317)
(-0.307879 -0.125503 1.34239e-317)
(-0.228505 -0.142434 1.18358e-317)
(-0.167716 -0.159932 9.94817e-318)
(-0.0730406 -0.149998 7.39622e-318)
(-0.0362493 -0.0996595 3.49451e-318)
(-0.0573065 0.0619183 2.11902e-317)
(-0.131591 0.138061 4.2666e-317)
(-0.252202 0.168713 5.23438e-317)
(-0.338955 0.164264 5.54825e-317)
(-0.440244 0.145592 5.51667e-317)
(-0.511644 0.116915 5.30865e-317)
(-0.58093 0.0870562 5.01744e-317)
(-0.625607 0.0553097 4.69672e-317)
(-0.659551 0.0246811 4.36978e-317)
(-0.673386 -0.00631328 4.05433e-317)
(-0.671221 -0.0367415 3.75134e-317)
(-0.652554 -0.0672848 3.46635e-317)
(-0.613944 -0.0972465 3.19267e-317)
(-0.563151 -0.125771 2.92878e-317)
(-0.489644 -0.15099 2.66238e-317)
(-0.412018 -0.169643 2.38239e-317)
(-0.311244 -0.176574 2.06491e-317)
(-0.222404 -0.164886 1.68015e-317)
(-0.113463 -0.123417 1.17773e-317)
(-0.0438744 -0.0473685 4.86823e-318)
(-0.0563085 0.190977 2.14013e-317)
(-0.125662 0.333495 4.40552e-317)
(-0.243281 0.374548 5.49104e-317)
(-0.325212 0.34907 5.8894e-317)
(-0.419919 0.306623 5.91079e-317)
(-0.487693 0.245269 5.73147e-317)
(-0.552643 0.185765 5.45247e-317)
(-0.596454 0.121172 5.13361e-317)
(-0.629702 0.0599787 4.80219e-317)
(-0.645278 -0.0034713 4.47833e-317)
(-0.645412 -0.0654874 4.16463e-317)
(-0.630186 -0.129286 3.86719e-317)
(-0.595561 -0.191827 3.57945e-317)
(-0.548565 -0.25368 3.29904e-317)
(-0.47909 -0.309161 3.01183e-317)
(-0.404003 -0.355905 2.70332e-317)
(-0.305529 -0.381258 2.34507e-317)
(-0.216752 -0.378036 1.89859e-317)
(-0.107562 -0.316661 1.31274e-317)
(-0.0389238 -0.16743 5.15735e-318)
(-0.0334988 0.17957 1.9352e-317)
(-0.094004 0.340661 3.98746e-317)
(-0.171095 0.397637 4.99631e-317)
(-0.237025 0.381699 5.39376e-317)
(-0.306965 0.340277 5.45236e-317)
(-0.363131 0.277195 5.32779e-317)
(-0.415566 0.211244 5.10793e-317)
(-0.454244 0.139445 4.84722e-317)
(-0.484162 0.0684018 4.56984e-317)
(-0.50106 -0.00512341 4.29493e-317)
(-0.505239 -0.0789439 4.02527e-317)
(-0.497263 -0.154253 3.76721e-317)
(-0.47294 -0.229355 3.51539e-317)
(-0.438005 -0.301643 3.26825e-317)
(-0.384039 -0.367014 3.01333e-317)
(-0.323569 -0.416639 2.73664e-317)
(-0.245097 -0.440393 2.41094e-317)
(-0.170008 -0.419984 1.99369e-317)
(-0.0866563 -0.33344 1.42367e-317)
(-0.0245016 -0.151494 5.99697e-318)
(-0.0262597 0.221622 1.59977e-317)
(-0.067907 0.412002 3.29539e-317)
(-0.125285 0.475305 4.1532e-317)
(-0.172137 0.457754 4.52375e-317)
(-0.2242 0.409232 4.62024e-317)
(-0.266317 0.336338 4.56588e-317)
(-0.30722 0.259075 4.42749e-317)
(-0.339099 0.174402 4.24903e-317)
(-0.365358 0.0897082 4.04969e-317)
(-0.383326 0.000996581 3.84605e-317)
(-0.391731 -0.0891084 3.64142e-317)
(-0.392307 -0.182435 3.44237e-317)
(-0.378774 -0.276855 3.24584e-317)
(-0.358185 -0.369482 3.0521e-317)
(-0.318394 -0.455357 2.85199e-317)
(-0.274657 -0.522996 2.63483e-317)
(-0.208588 -0.560909 2.37541e-317)
(-0.148399 -0.543122 2.03304e-317)
(-0.0710721 -0.44532 1.5264e-317)
(-0.0220801 -0.216012 7.15983e-318)
(-0.0124867 0.209916 1.15829e-317)
(-0.0415159 0.401269 2.43203e-317)
(-0.0695573 0.470654 3.12399e-317)
(-0.099523 0.45853 3.47505e-317)
(-0.130331 0.41417 3.62371e-317)
(-0.15969 0.344005 3.65551e-317)
(-0.18826 0.267898 3.61389e-317)
(-0.213911 0.183225 3.53135e-317)
(-0.236354 0.0969553 3.42189e-317)
(-0.255443 0.00539918 3.29925e-317)
(-0.268176 -0.089483 3.1673e-317)
(-0.277329 -0.189176 3.03238e-317)
(-0.275468 -0.292431 2.89355e-317)
(-0.269781 -0.395001 2.75198e-317)
(-0.246612 -0.49291 2.6009e-317)
(-0.220755 -0.569923 2.43149e-317)
(-0.171402 -0.615654 2.22035e-317)
(-0.126653 -0.592457 1.92857e-317)
(-0.060329 -0.480209 1.47051e-317)
(-0.0202516 -0.216635 7.03389e-318)
(-0.00619601 0.212802 6.86521e-318)
(-0.0212509 0.408076 1.53807e-317)
(-0.0320149 0.479302 2.07638e-317)
(-0.0469526 0.470886 2.42073e-317)
(-0.0625982 0.428372 2.62961e-317)
(-0.0803715 0.359953 2.75083e-317)
(-0.0988396 0.284293 2.80588e-317)
(-0.118296 0.199205 2.8166e-317)
(-0.13694 0.111438 2.79268e-317)
(-0.15641 0.0168384 2.74566e-317)
(-0.172328 -0.0826259 2.67984e-317)
(-0.189246 -0.189547 2.60162e-317)
(-0.197329 -0.302408 2.51157e-317)
(-0.206526 -0.41831 2.41136e-317)
(-0.197422 -0.531952 2.29591e-317)
(-0.19078 -0.627439 2.15791e-317)
(-0.152523 -0.690409 1.97629e-317)
(-0.125343 -0.679598 1.7182e-317)
(-0.0562219 -0.565767 1.30653e-317)
(-0.0291688 -0.270629 6.21743e-318)
(0.00201238 0.195871 2.24162e-318)
(-0.00360735 0.38008 6.8461e-318)
(0.00474918 0.451507 1.08967e-317)
(0.00244419 0.447264 1.4354e-317)
(0.00236605 0.411138 1.70523e-317)
(-0.00484031 0.349208 1.91162e-317)
(-0.012804 0.279886 2.05688e-317)
(-0.0257356 0.200427 2.15366e-317)
(-0.0395321 0.117449 2.20801e-317)
(-0.0578187 0.02641 2.22952e-317)
(-0.0753429 -0.0711539 2.22289e-317)
(-0.0976165 -0.178541 2.19429e-317)
(-0.114441 -0.295036 2.14511e-317)
(-0.135969 -0.41841 2.07708e-317)
(-0.141701 -0.544192 1.98561e-317)
(-0.15224 -0.654886 1.8642e-317)
(-0.129391 -0.735814 1.69411e-317)
(-0.117899 -0.735718 1.44976e-317)
(-0.0537956 -0.62232 1.07323e-317)
(-0.0344091 -0.29433 4.85813e-318)
(0.00801892 0.182973 -1.64793e-318)
(0.010873 0.35729 -3.33667e-319)
(0.0329921 0.426627 2.5946e-318)
(0.0408478 0.426626 6.04423e-318)
(0.0528932 0.395686 9.23144e-318)
(0.0548755 0.340393 1.19789e-317)
(0.0562822 0.277252 1.41586e-317)
(0.0500769 0.203917 1.58167e-317)
(0.041977 0.126557 1.6986e-317)
(0.0264161 0.0401924 1.77448e-317)
(0.00962669 -0.053584 1.81412e-317)
(-0.0159278 -0.159829 1.82328e-317)
(-0.0384056 -0.277212 1.80378e-317)
(-0.0713602 -0.407259 1.75697e-317)
(-0.089025 -0.542793 1.6787e-317)
(-0.119521 -0.672496 1.56267e-317)
(-0.109008 -0.772405 1.39321e-317)
(-0.121174 -0.797991 1.15147e-317)
(-0.0531182 -0.692041 8.04053e-318)
(-0.0529858 -0.347898 3.1879e-318)
(0.0135275 0.160788 -4.60874e-318)
(0.0227559 0.318308 -5.86781e-318)
(0.0574045 0.384771 -3.88125e-318)
(0.0742401 0.388443 -5.27054e-319)
(0.0977565 0.364243 2.96809e-318)
(0.108769 0.316933 6.19304e-318)
(0.119867 0.262139 8.90422e-318)
(0.121486 0.197269 1.10808e-317)
(0.12059 0.128224 1.27289e-317)
(0.11042 0.0498157 1.39114e-317)
(0.0970125 -0.0367577 1.46722e-317)
(0.0726502 -0.137484 1.50655e-317)
(0.0474761 -0.25187 1.51114e-317)
(0.00925669 -0.383539 1.48216e-317)
(-0.0195237 -0.526403 1.41585e-317)
(-0.0627049 -0.671424 1.30658e-317)
(-0.0705868 -0.793945 1.14187e-317)
(-0.0982935 -0.845211 9.08553e-318)
(-0.0459897 -0.757755 5.94194e-318)
(-0.0523083 -0.394941 1.97873e-318)
(0.0190304 0.142042 -6.57439e-318)
(0.0319719 0.283426 -9.69939e-318)
(0.0764929 0.345037 -8.48894e-318)
(0.0994588 0.352024 -5.33422e-318)
(0.13225 0.333049 -1.72288e-318)
(0.150731 0.293326 1.76233e-318)
(0.170714 0.246195 4.79874e-318)
(0.180037 0.189764 7.3094e-318)
(0.187137 0.129358 9.2779e-318)
(0.183649 0.0597149 1.07491e-317)
(0.176181 -0.0178205 1.17633e-317)
(0.15529 -0.110845 1.23677e-317)
(0.131581 -0.217977 1.25857e-317)
(0.0895422 -0.34765 1.24266e-317)
(0.0544253 -0.490305 1.18625e-317)
(-0.00524472 -0.647839 1.08454e-317)
(-0.0269325 -0.782714 9.2899e-318)
(-0.0852063 -0.864839 7.10578e-318)
(-0.0371819 -0.788259 4.31788e-318)
(-0.0764572 -0.429162 1.10203e-318)
(0.0220893 0.11671 -7.4155e-318)
(0.0387134 0.240538 -1.17362e-317)
(0.0900741 0.297573 -1.12058e-317)
(0.119089 0.307542 -8.39031e-318)
(0.159825 0.293909 -4.87373e-318)
(0.185929 0.261549 -1.34646e-318)
(0.214541 0.222229 1.81527e-318)
(0.232386 0.174514 4.48882e-318)
(0.248337 0.123204 6.63462e-318)
(0.253872 0.0633768 8.27935e-318)
(0.254676 -0.00399364 9.45702e-318)
(0.242338 -0.0868366 1.02098e-317)
(0.223733 -0.184557 1.05618e-317)
(0.187073 -0.307602 1.05266e-317)
(0.14809 -0.448046 1.00865e-317)
(0.0864806 -0.612555 9.20945e-318)
(0.0442448 -0.764731 7.84362e-318)
(-0.0234975 -0.878735 5.93069e-318)
(-0.014211 -0.837532 3.55642e-318)
(-0.0542466 -0.492574 8.95454e-319)
(0.0254123 0.0975639 -7.85102e-318)
(0.0416227 0.203767 -1.28492e-317)
(0.0976397 0.254088 -1.27967e-317)
(0.129487 0.265524 -1.03145e-317)
(0.176097 0.255422 -6.97647e-318)
(0.207679 0.229351 -3.52762e-318)
(0.243411 0.196765 -3.68331e-319)
(0.26842 0.157094 2.34652e-318)
(0.292657 0.114451 4.56157e-318)
(0.306784 0.0643347 6.2884e-318)
(0.316992 0.00784435 7.55407e-318)
(0.313793 -0.0634957 8.39586e-318)
(0.304055 -0.148292 8.83998e-318)
(0.27311 -0.260324 8.90287e-318)
(0.237212 -0.388915 8.58082e-318)
(0.168375 -0.55148 7.85592e-318)
(0.11609 -0.700261 6.70791e-318)
(0.0159335 -0.834254 5.10204e-318)
(0.0104197 -0.797015 3.12622e-318)
(-0.0807449 -0.473643 8.90257e-319)
(0.0251379 0.072914 -7.1595e-318)
(0.0423556 0.163932 -1.24201e-317)
(0.099792 0.20833 -1.28421e-317)
(0.135189 0.22123 -1.08248e-317)
(0.186289 0.21412 -7.83174e-318)
(0.223242 0.193588 -4.62904e-318)
(0.265091 0.167084 -1.62666e-318)
(0.296956 0.134802 9.93018e-319)
(0.328933 0.100156 3.16028e-318)
(0.352395 0.0593474 4.87133e-318)
(0.372658 0.0132377 6.14654e-318)
(0.382345 -0.046084 7.01861e-318)
(0.383965 -0.117672 7.51393e-318)
(0.368703 -0.215844 7.65482e-318)
(0.338811 -0.33175 7.4478e-318)
(0.284058 -0.48724 6.89094e-318)
(0.215388 -0.638873 5.98283e-318)
(0.122828 -0.798117 4.70468e-318)
(0.0534678 -0.80584 3.10064e-318)
(-0.0206193 -0.545592 1.15559e-318)
(0.0241919 0.0574068 -7.11295e-318)
(0.0376627 0.131562 -1.22025e-317)
(0.0935634 0.167733 -1.27479e-317)
(0.129025 0.179567 -1.09887e-317)
(0.181573 0.173989 -8.27305e-318)
(0.22079 0.157838 -5.31796e-318)
(0.265572 0.136511 -2.51699e-318)
(0.301133 0.110789 -5.14075e-320)
(0.337919 0.0832526 2.00534e-318)
(0.367504 0.0509001 3.64334e-318)
(0.395939 0.0144853 4.87902e-318)
(0.415313 -0.032971 5.74208e-318)
(0.429181 -0.0903226 6.25827e-318)
(0.425732 -0.17154 6.45263e-318)
(0.408895 -0.267479 6.34152e-318)
(0.358719 -0.403466 5.93314e-318)
(0.292861 -0.53321 5.24072e-318)
(0.175038 -0.683686 4.25337e-318)
(0.0920167 -0.677578 2.96556e-318)
(-0.0511692 -0.437783 1.2705e-318)
(0.0194226 0.0376298 -5.54918e-318)
(0.0319182 0.0998596 -1.04198e-317)
(0.0854129 0.128819 -1.12455e-317)
(0.122157 0.139973 -9.94481e-318)
(0.175847 0.135377 -7.66051e-318)
(0.216567 0.122953 -5.09773e-318)
(0.263155 0.106193 -2.61932e-318)
(0.300901 0.0861883 -4.1671e-319)
(0.340962 0.0649876 1.43563e-318)
(0.375696 0.0400618 2.91995e-318)
(0.41104 0.0123559 4.04799e-318)
(0.441544 -0.0242736 4.84557e-318)
(0.467535 -0.0682411 5.3379e-318)
(0.48403 -0.132832 5.55142e-318)
(0.481171 -0.209377 5.50664e-318)
(0.460202 -0.326059 5.22027e-318)
(0.390268 -0.44115 4.70736e-318)
(0.308361 -0.601488 3.96123e-318)
(0.14831 -0.637435 2.92768e-318)
(0.0634249 -0.517067 1.41139e-318)
(0.013105 0.0286134 -5.6211e-318)
(0.0197492 0.0737412 -9.62794e-318)
(0.0655819 0.0933843 -1.02062e-317)
(0.0990645 0.101262 -9.00201e-318)
(0.147729 0.0972992 -7.02278e-318)
(0.18535 0.0881745 -4.8176e-318)
(0.227634 0.0756022 -2.69862e-318)
(0.262578 0.0608932 -8.15223e-319)
(0.299943 0.0449825 7.693e-319)
(0.333527 0.026496 2.04309e-318)
(0.369711 0.00570681 3.01648e-318)
(0.402596 -0.0212714 3.7118e-318)
(0.435773 -0.0538611 4.15288e-318)
(0.459766 -0.100744 4.36309e-318)
(0.473039 -0.156894 4.36663e-318)
(0.461122 -0.241063 4.18119e-318)
(0.413457 -0.323982 3.82554e-318)
(0.319025 -0.435025 3.29379e-318)
(0.178078 -0.437644 2.50538e-318)
(0.0123014 -0.291849 1.24703e-318)
(0.00347916 0.0161891 -3.48587e-318)
(0.0104232 0.0520277 -7.08323e-318)
(0.0530979 0.0641487 -7.76412e-318)
(0.0847441 0.0699335 -6.98464e-318)
(0.130989 0.0662687 -5.46497e-318)
(0.164187 0.0597552 -3.74433e-318)
(0.203007 0.0510331 -2.06366e-318)
(0.233485 0.0407224 -5.67059e-319)
(0.267925 0.0300793 6.95555e-319)
(0.299401 0.0171789 1.71034e-318)
(0.335256 0.00354846 2.48691e-318)
(0.371454 -0.0151258 3.04311e-318)
(0.409714 -0.0359444 3.39887e-318)
(0.447857 -0.0685553 3.57549e-318)
(0.473849 -0.104034 3.59303e-318)
(0.495675 -0.167017 3.46977e-318)
(0.457615 -0.222768 3.22123e-318)
(0.42935 -0.335811 2.84248e-318)
(0.223706 -0.363592 2.25097e-318)
(0.193471 -0.395355 1.20603e-318)
(-0.00373272 0.0134232 -3.38097e-318)
(-0.00364418 0.0279808 -5.34086e-318)
(0.0232847 0.0322642 -5.52993e-318)
(0.0443703 0.0345747 -4.83141e-318)
(0.073738 0.0324824 -3.78729e-318)
(0.0956672 0.0294284 -2.64828e-318)
(0.119301 0.0244955 -1.57039e-318)
(0.138801 0.0189278 -6.18625e-319)
(0.159872 0.0121546 1.78531e-319)
(0.179751 0.00434767 8.18192e-319)
(0.203451 -0.00497679 1.30802e-318)
(0.226645 -0.0163892 1.66065e-318)
(0.25564 -0.0304206 1.88973e-318)
(0.280572 -0.0482028 2.00846e-318)
(0.308345 -0.0703246 2.03218e-318)
(0.32021 -0.0973637 1.97428e-318)
(0.315655 -0.128287 1.84627e-318)
(0.273666 -0.153487 1.64512e-318)
(0.171268 -0.150909 1.3052e-318)
(0.0522665 -0.0391469 6.66885e-319)
(-0.0113159 0.00454444 -1.00923e-318)
(-0.00327418 0.0169032 -2.35641e-318)
(0.0190227 0.0166017 -2.48478e-318)
(0.0323712 0.0176099 -2.20403e-318)
(0.0545138 0.015778 -1.66424e-318)
(0.0651536 0.0139842 -1.09668e-318)
(0.0816999 0.0123758 -5.5117e-319)
(0.0910339 0.009978 -7.83193e-320)
(0.105179 0.00864086 3.15871e-319)
(0.116722 0.0058364 6.28392e-319)
(0.132613 0.00458748 8.66171e-319)
(0.150157 0.000639101 1.03567e-318)
(0.170619 -0.000698247 1.14425e-318)
(0.197314 -0.00796938 1.19915e-318)
(0.219558 -0.00927039 1.20731e-318)
(0.255245 -0.0270612 1.17639e-318)
(0.253693 -0.0265989 1.11509e-318)
(0.292699 -0.0829283 1.0294e-318)
(0.162228 -0.0748344 8.97327e-319)
(0.257337 -0.238607 6.09045e-319)
)
;

boundaryField
{
    cavity
    {
        type            myHeatFlux;
        ThetaWall       uniform 0;
        value           nonuniform List<vector> 
60
(
(0.001 0 0)
(0.001 0 0)
(0.001 0 0)
(0.001 0 0)
(0.001 0 0)
(0.001 0 0)
(0.001 0 0)
(0.001 0 0)
(0.001 0 0)
(0.001 0 0)
(0.001 0 0)
(0.001 0 0)
(0.001 0 0)
(0.001 0 0)
(0.001 0 0)
(0.001 0 0)
(0.001 0 0)
(0.001 0 0)
(0.001 0 0)
(0.001 0 0)
(0 -0.001 0)
(0 -0.001 0)
(0 -0.001 0)
(0 -0.001 0)
(0 -0.001 0)
(0 -0.001 0)
(0 -0.001 0)
(0 -0.001 0)
(0 -0.001 0)
(0 -0.001 0)
(0 -0.001 0)
(0 -0.001 0)
(0 -0.001 0)
(0 -0.001 0)
(0 -0.001 0)
(0 -0.001 0)
(0 -0.001 0)
(0 -0.001 0)
(0 -0.001 0)
(0 -0.001 0)
(-0.001 0 0)
(-0.001 0 0)
(-0.001 0 0)
(-0.001 0 0)
(-0.001 0 0)
(-0.001 0 0)
(-0.001 0 0)
(-0.001 0 0)
(-0.001 0 0)
(-0.001 0 0)
(-0.001 0 0)
(-0.001 0 0)
(-0.001 0 0)
(-0.001 0 0)
(-0.001 0 0)
(-0.001 0 0)
(-0.001 0 0)
(-0.001 0 0)
(-0.001 0 0)
(-0.001 0 0)
)
;
    }
    lid
    {
        type            myHeatFlux;
        ThetaWall       uniform 0;
        value           nonuniform List<vector> 
20
(
(0.000135815 0.0009 0)
(0.000135815 0.0009 0)
(0.000135815 0.0009 0)
(0.000135815 0.0009 0)
(0.000135815 0.0009 0)
(0.000135815 0.0009 0)
(0.000135815 0.0009 0)
(0.000135815 0.0009 0)
(0.000135815 0.0009 0)
(0.000135815 0.0009 0)
(0.000135815 0.0009 0)
(0.000135815 0.0009 0)
(0.000135815 0.0009 0)
(0.000135815 0.0009 0)
(0.000135815 0.0009 0)
(0.000135815 0.0009 0)
(0.000135815 0.0009 0)
(0.000135815 0.0009 0)
(0.000135815 0.0009 0)
(0.000135815 0.0009 0)
)
;
    }
    frontAndBack
    {
        type            empty;
    }
}


// ************************************************************************* //
