/*--------------------------------*- C++ -*----------------------------------*\
| =========                 |                                                 |
| \\      /  F ield         | foam-extend: Open Source CFD                    |
|  \\    /   O peration     | Version:  3.0                                   |
|   \\  /    A nd           | Web:         http://www.extend-project.de       |
|    \\/     M anipulation  |                                                 |
\*---------------------------------------------------------------------------*/
FoamFile
{
    version     2.0;
    format      ascii;
    class       volVectorField;
    location    "9.8";
    object      u;
}
// * * * * * * * * * * * * * * * * * * * * * * * * * * * * * * * * * * * * * //

dimensions      [0 0 0 0 0 0 0];

internalField   nonuniform List<vector> 
400
(
(-7.58856 19.3642 5.42533e-315)
(-5.47509 12.8497 4.8711e-315)
(-16.3524 13.9234 4.36775e-315)
(-15.1702 7.99675 3.95302e-315)
(-21.833 9.28727 3.5137e-315)
(-21.5719 5.51253 3.20877e-315)
(-25.2421 6.43567 2.82602e-315)
(-25.4311 4.05217 2.60266e-315)
(-26.9805 4.73954 2.27073e-315)
(-27.2082 2.91929 2.10765e-315)
(-27.0782 3.41528 1.82263e-315)
(-26.9989 1.55015 1.70348e-315)
(-25.2972 1.87792 1.46332e-315)
(-24.6681 -0.468583 1.3745e-315)
(-21.2631 -0.132407 1.17954e-315)
(-20.0965 -3.32364 1.10978e-315)
(-14.6712 -2.59526 9.62383e-316)
(-13.4572 -6.89636 9.06198e-316)
(-5.56095 -5.92252 8.10578e-316)
(-5.05656 -10.2545 7.7819e-316)
(-1.63264 2.48247 4.14611e-315)
(-3.55101 1.96635 3.74952e-315)
(-6.64418 2.41874 3.39537e-315)
(-7.437 1.3206 3.10269e-315)
(-10.337 1.50406 2.79665e-315)
(-10.6549 0.299229 2.57621e-315)
(-12.7839 0.0796926 2.31085e-315)
(-12.911 -1.04359 2.1404e-315)
(-14.0011 -1.6886 1.90895e-315)
(-13.966 -2.63485 1.77458e-315)
(-13.9797 -3.64731 1.5729e-315)
(-13.7225 -4.37841 1.46498e-315)
(-12.7543 -5.62125 1.29099e-315)
(-12.1866 -6.10842 1.2013e-315)
(-10.4533 -7.34098 1.05412e-315)
(-9.43587 -7.53268 9.74879e-316)
(-7.33309 -8.34233 8.53847e-316)
(-5.59786 -8.17685 7.80172e-316)
(-3.68762 -7.95864 6.85041e-316)
(-0.893535 -7.23567 6.22367e-316)
(-3.75135 25.7737 3.41781e-315)
(-4.35834 19.5081 3.07257e-315)
(-9.00981 18.8666 2.78684e-315)
(-9.20538 13.0101 2.54864e-315)
(-11.9387 13.5028 2.30443e-315)
(-12.2786 8.77694 2.12451e-315)
(-13.7566 9.32797 1.91129e-315)
(-14.2878 5.51045 1.76935e-315)
(-14.8466 5.86427 1.58142e-315)
(-15.449 2.53073 1.46723e-315)
(-15.2297 2.59704 1.30184e-315)
(-15.6581 -0.624102 1.20855e-315)
(-14.7186 -0.861682 1.06438e-315)
(-14.6053 -4.19504 9.86065e-316)
(-13.0071 -4.63481 8.62323e-316)
(-11.9144 -8.14786 7.93134e-316)
(-9.79096 -8.59375 6.88027e-316)
(-7.38127 -12.2697 6.20871e-316)
(-4.9486 -12.9097 5.29232e-316)
(-1.30871 -16.6299 4.44362e-316)
(0.343733 15.0292 2.14462e-315)
(-1.28816 10.2729 2.00486e-315)
(-1.26226 10.0741 1.87716e-315)
(-2.21064 6.03758 1.78272e-315)
(-2.6131 6.41636 1.66274e-315)
(-3.11513 3.26947 1.57783e-315)
(-3.57947 3.33841 1.46202e-315)
(-3.92247 0.796508 1.38117e-315)
(-4.18911 0.284481 1.26988e-315)
(-4.51546 -1.86093 1.19443e-315)
(-4.45348 -3.08515 1.09008e-315)
(-4.77826 -4.93775 1.02168e-315)
(-4.3695 -6.9221 9.26683e-316)
(-4.5583 -8.4628 8.64957e-316)
(-3.92273 -11.0731 7.7974e-316)
(-3.60365 -12.1508 7.19325e-316)
(-3.1097 -14.8362 6.39062e-316)
(-1.63393 -15.2628 5.60381e-316)
(-2.02891 -16.8339 4.67137e-316)
(0.984309 -16.5053 3.05551e-316)
(-1.04894 26.1164 1.50043e-315)
(-2.40407 20.8876 1.46891e-315)
(-3.87336 19.3777 1.41242e-315)
(-4.80939 14.2449 1.3765e-315)
(-5.68212 14.1387 1.30674e-315)
(-6.6798 9.6281 1.25667e-315)
(-7.03984 9.94202 1.17769e-315)
(-8.3108 5.97532 1.12008e-315)
(-8.23509 6.2616 1.0368e-315)
(-9.78681 2.59877 9.775e-316)
(-9.29236 2.59284 8.94583e-316)
(-10.9378 -0.972665 8.36589e-316)
(-9.98863 -1.49115 7.57432e-316)
(-11.2724 -4.98522 7.01229e-316)
(-9.8491 -6.23083 6.28023e-316)
(-9.95286 -9.37283 5.7184e-316)
(-8.24007 -11.4941 5.05862e-316)
(-6.05389 -13.7412 4.45574e-316)
(-4.77328 -16.4693 3.8617e-316)
(0.191826 -17.7778 3.18283e-316)
(0.336068 19.8254 3.7224e-316)
(0.20189 14.2879 5.74674e-316)
(0.629137 13.4861 6.72541e-316)
(0.436152 8.66292 7.73935e-316)
(0.715685 9.08452 8.09348e-316)
(0.421851 5.24151 8.43795e-316)
(0.601371 5.65825 8.38589e-316)
(0.120871 2.51582 8.34815e-316)
(0.26069 2.38781 8.0569e-316)
(-0.503419 -0.340905 7.8284e-316)
(-0.305606 -1.40091 7.42777e-316)
(-1.44033 -3.89371 7.13433e-316)
(-1.01544 -6.28452 6.72533e-316)
(-2.53968 -8.50407 6.45754e-316)
(-1.63304 -12.5686 6.12698e-316)
(-3.37502 -14.0943 5.9668e-316)
(-1.74543 -19.679 5.81061e-316)
(-3.17419 -19.6122 5.87624e-316)
(-0.896582 -24.7665 6.03226e-316)
(-1.21428 -22.343 6.64857e-316)
(-0.106485 24.9435 -1.40934e-317)
(-0.644005 19.9887 2.67139e-316)
(-0.691398 18.6049 4.08487e-316)
(-1.60216 13.6822 5.3763e-316)
(-1.40452 13.7412 5.98947e-316)
(-2.81402 9.41129 6.47439e-316)
(-2.40789 9.96659 6.60243e-316)
(-4.3773 6.12073 6.66869e-316)
(-3.79654 6.73172 6.51545e-316)
(-6.39209 3.0793 6.36431e-316)
(-5.58276 3.4608 6.06133e-316)
(-8.80184 -0.291107 5.7997e-316)
(-7.55469 -0.452817 5.43187e-316)
(-11.1479 -4.4299 5.12012e-316)
(-9.06439 -5.58417 4.75147e-316)
(-12.254 -9.47825 4.43903e-316)
(-8.85426 -12.1781 4.14334e-316)
(-10.0811 -15.0355 3.93858e-316)
(-5.24062 -19.2134 3.83725e-316)
(-2.76826 -20.4211 4.12641e-316)
(0.545703 20.8453 -7.57941e-316)
(1.09148 15.1403 -3.19644e-316)
(2.11906 14.7289 -7.40595e-317)
(2.22895 9.63306 1.45684e-316)
(3.12394 10.6 2.75165e-316)
(2.87555 6.51309 3.79893e-316)
(3.56512 7.56724 4.38749e-316)
(2.98487 4.21066 4.81771e-316)
(3.44694 4.82014 4.99668e-316)
(2.4305 1.80472 5.10429e-316)
(2.74842 1.50723 5.07178e-316)
(1.06081 -1.52887 5.03842e-316)
(1.54405 -3.40854 4.9376e-316)
(-1.17003 -6.6516 4.90033e-316)
(0.192071 -11.058 4.85706e-316)
(-3.96439 -14.181 4.96335e-316)
(-0.489171 -21.8704 5.12774e-316)
(-6.26393 -23.5532 5.6267e-316)
(0.773349 -32.8442 6.23289e-316)
(-5.53327 -31.3037 7.71613e-316)
(1.06861 22.8884 -7.73872e-316)
(0.559045 17.9243 -3.63036e-316)
(2.1597 17.0684 -1.30843e-316)
(0.87224 12.2765 6.66221e-317)
(2.21451 12.7864 1.90358e-316)
(0.354778 8.7013 2.84945e-316)
(1.54171 9.65549 3.43727e-316)
(-0.911159 6.09624 3.84703e-316)
(0.161026 7.18446 4.05383e-316)
(-3.1267 3.73803 4.16748e-316)
(-2.05819 4.80118 4.15536e-316)
(-6.53566 0.926426 4.10117e-316)
(-5.10609 1.7548 3.96898e-316)
(-11.0523 -3.10954 3.82079e-316)
(-8.3884 -2.93152 3.63388e-316)
(-15.5767 -9.02625 3.4485e-316)
(-10.0486 -10.3132 3.26194e-316)
(-16.8796 -16.8699 3.14267e-316)
(-6.22787 -20.7738 3.03604e-316)
(-8.84316 -26.0024 3.27787e-316)
(1.47369 19.2743 -1.10571e-315)
(1.48323 14.1067 -6.41588e-316)
(3.93226 14.4534 -3.67753e-316)
(3.61414 9.63076 -1.3206e-316)
(5.49099 11.1572 2.09895e-317)
(5.03211 7.23759 1.42302e-316)
(6.38852 8.88794 2.2211e-316)
(5.799 5.65196 2.81403e-316)
(6.65217 7.12355 3.18132e-316)
(5.77533 4.10551 3.43464e-316)
(6.1816 5.06234 3.56505e-316)
(4.67113 1.6322 3.65134e-316)
(4.9454 1.34348 3.67972e-316)
(2.16471 -3.21911 3.7277e-316)
(3.28234 -6.18055 3.76195e-316)
(-1.87059 -12.3365 3.89762e-316)
(2.27499 -20.1025 4.03814e-316)
(-6.78427 -27.1685 4.41687e-316)
(3.77813 -40.4393 4.77079e-316)
(-9.20153 -46.1863 5.56434e-316)
(2.89303 19.861 -8.71032e-316)
(1.2216 15.3041 -5.29986e-316)
(4.97247 14.833 -3.10076e-316)
(2.76408 10.5724 -1.28169e-316)
(5.39661 11.2938 1.26863e-318)
(3.10524 7.71781 1.00628e-316)
(5.11511 8.85638 1.71848e-316)
(2.57276 5.80442 2.23961e-316)
(4.13315 7.20415 2.58976e-316)
(0.853869 4.21798 2.82472e-316)
(2.07857 5.88635 2.94943e-316)
(-2.67565 2.17038 3.00342e-316)
(-1.42419 4.13823 2.98301e-316)
(-8.61452 -1.50753 2.91047e-316)
(-6.20566 0.721458 2.78115e-316)
(-16.67 -8.25096 2.59362e-316)
(-10.2991 -6.24129 2.34209e-316)
(-23.2702 -18.8903 1.99425e-316)
(-7.4358 -19.6308 1.5414e-316)
(-16.7106 -32.1771 8.00088e-317)
(2.67718 15.6224 -8.82438e-316)
(1.59693 12.2489 -5.58838e-316)
(5.75359 13.0332 -3.48492e-316)
(4.75114 9.23152 -1.67802e-316)
(7.75228 10.8025 -4.13914e-317)
(7.06711 7.46586 6.05217e-317)
(9.19276 9.32456 1.32632e-316)
(8.76965 6.51471 1.87644e-316)
(10.1076 8.64606 2.25216e-316)
(9.79549 5.9465 2.52002e-316)
(10.3205 8.2547 2.68582e-316)
(9.85113 4.79995 2.79615e-316)
(9.65622 6.78896 2.85095e-316)
(8.4755 1.14089 2.89929e-316)
(8.2799 1.34125 2.91693e-316)
(5.10594 -8.5093 2.98253e-316)
(7.25661 -13.5749 3.00741e-316)
(-0.761241 -29.386 3.11341e-316)
(8.30175 -45.3367 3.12932e-316)
(-8.09735 -67.004 3.00048e-316)
(4.76255 16.0304 -7.24725e-316)
(1.46317 12.4896 -5.14942e-316)
(7.05735 12.0303 -3.41062e-316)
(3.95467 8.75737 -1.96827e-316)
(7.62112 9.28094 -8.27251e-317)
(5.20127 6.46072 7.25229e-318)
(7.90525 7.44238 7.68928e-317)
(5.75106 5.0791 1.30199e-316)
(7.74467 6.44879 1.69697e-316)
(5.22327 4.17745 1.98318e-316)
(6.52909 6.03374 2.17276e-316)
(2.73025 2.95035 2.28559e-316)
(3.47752 5.53067 2.32494e-316)
(-3.06267 -0.11261 2.29515e-316)
(-1.99048 3.67751 2.19579e-316)
(-13.43 -7.33346 1.99677e-316)
(-8.67091 -1.66894 1.70995e-316)
(-26.4971 -20.329 1.20239e-316)
(-8.62666 -14.8937 5.85325e-317)
(-25.7784 -33.8611 -6.83946e-317)
(3.51797 10.711 -4.15877e-316)
(1.75113 10.3917 -2.60899e-316)
(7.23024 10.9555 -1.57574e-316)
(5.91722 8.70443 -6.04344e-317)
(9.90891 9.69154 1.39395e-317)
(9.22455 7.15423 7.90859e-317)
(12.1172 8.76932 1.29106e-316)
(12.0244 6.56258 1.6906e-316)
(13.9348 8.95628 1.97876e-316)
(14.4383 6.84585 2.18485e-316)
(15.2454 10.1509 2.31347e-316)
(16.3962 7.18062 2.39043e-316)
(15.7993 11.3753 2.41867e-316)
(17.6294 5.48378 2.43076e-316)
(15.4076 9.74668 2.41116e-316)
(17.5892 -3.09679 2.41493e-316)
(14.5432 -2.55969 2.38336e-316)
(14.7645 -28.9486 2.38149e-316)
(13.6048 -44.3384 2.33198e-316)
(3.61826 -92.4974 2.09654e-316)
(5.84549 11.8022 -8.3201e-316)
(1.36948 9.55573 -5.8833e-316)
(7.44912 8.82044 -4.1593e-316)
(4.09953 6.70894 -2.69931e-316)
(8.04902 6.80703 -1.60194e-316)
(5.98552 4.83006 -7.16911e-317)
(9.00518 5.42675 -2.27344e-318)
(7.58281 3.82006 5.27738e-317)
(9.83067 4.82576 9.57116e-317)
(8.48156 3.40742 1.28694e-316)
(9.82312 4.88779 1.52964e-316)
(7.81046 2.88141 1.69668e-316)
(8.00132 5.07103 1.7924e-316)
(3.86775 0.642895 1.81372e-316)
(3.01088 4.21635 1.76449e-316)
(-6.35767 -6.28943 1.60384e-316)
(-5.4946 0.555714 1.36795e-316)
(-25.4306 -19.9902 9.06872e-317)
(-9.42172 -8.09742 3.95582e-317)
(-37.7082 -24.1592 -5.94863e-317)
(3.5755 5.68755 2.93366e-316)
(2.36596 9.17684 2.26608e-316)
(8.72837 8.87817 1.73599e-316)
(7.86884 8.13106 1.50908e-316)
(12.8568 8.17529 1.58819e-316)
(12.4325 6.33089 1.76919e-316)
(16.1736 7.45328 2.00086e-316)
(16.4499 5.83904 2.20587e-316)
(19.0806 8.12195 2.36596e-316)
(20.4243 6.71218 2.46892e-316)
(21.8638 10.4033 2.51671e-316)
(24.8175 8.32712 2.52013e-316)
(24.4445 13.9242 2.48409e-316)
(29.9485 8.88064 2.43248e-316)
(26.1292 16.8052 2.359e-316)
(35.9334 2.8871 2.3104e-316)
(25.5126 11.2077 2.25017e-316)
(41.7537 -25.5792 2.25988e-316)
(18.747 -33.6414 2.27445e-316)
(34.314 -121.971 2.40937e-316)
(5.55763 7.50888 -1.32581e-315)
(0.828728 6.07359 -8.59821e-316)
(5.0449 5.13509 -6.1903e-316)
(2.34056 4.00811 -4.19696e-316)
(5.22004 3.82842 -2.93555e-316)
(3.93401 2.69281 -1.93801e-316)
(6.43453 2.87249 -1.19551e-316)
(5.77337 2.01753 -5.98459e-317)
(7.74108 2.40973 -1.22177e-317)
(7.33505 1.80648 2.62843e-317)
(8.47315 2.3714 5.6874e-317)
(7.95179 1.59613 8.04837e-317)
(7.74722 2.31822 9.74279e-317)
(6.15943 0.178459 1.07153e-316)
(3.91941 1.1744 1.10226e-316)
(-1.7427 -5.11821 1.02856e-316)
(-4.56189 -2.44636 8.98511e-317)
(-23.8788 -15.5723 5.99022e-317)
(-9.67054 -4.35074 2.93855e-317)
(-59.5243 5.77254 -1.75505e-317)
(2.49705 1.7733 1.71277e-315)
(4.07294 9.294 9.52106e-316)
(12.1107 7.69268 6.46913e-316)
(12.5147 7.75716 4.33135e-316)
(19.5926 6.90981 3.7721e-316)
(19.4595 5.34637 3.51768e-316)
(24.7512 6.0397 3.58743e-316)
(25.2839 4.81599 3.6674e-316)
(29.1685 6.85414 3.74692e-316)
(31.3897 6.03448 3.7667e-316)
(34.2029 9.65043 3.7331e-316)
(39.302 8.52437 3.64852e-316)
(40.5197 14.5515 3.52323e-316)
(50.421 10.9889 3.37882e-316)
(47.1529 21.1179 3.21454e-316)
(65.8661 8.01878 3.07527e-316)
(48.6349 24.6135 2.92886e-316)
(86.0531 -21.5776 2.88025e-316)
(27.3394 -9.43593 2.84689e-316)
(97.3952 -158.27 3.11718e-316)
(4.03737 3.27641 -2.16565e-315)
(-0.841794 0.524378 -1.30383e-315)
(-2.13285 0.247484 -9.21899e-316)
(-3.7765 -0.249897 -6.26072e-316)
(-4.80452 -0.137418 -4.85295e-316)
(-5.17556 -0.235997 -3.81851e-316)
(-5.33727 -0.404372 -3.17806e-316)
(-5.58628 -0.433686 -2.66427e-316)
(-5.52075 -0.924793 -2.25672e-316)
(-6.13547 -0.882302 -1.89968e-316)
(-6.3793 -1.817 -1.58727e-316)
(-7.77497 -1.63301 -1.31195e-316)
(-8.78776 -3.41216 -1.07564e-316)
(-11.7466 -2.93258 -8.88722e-317)
(-13.7915 -6.58727 -7.45382e-317)
(-20.6445 -4.95606 -6.80197e-317)
(-20.9895 -12.5293 -6.42421e-317)
(-42.8988 -2.96719 -7.12137e-317)
(-14.9606 -11.0162 -7.71115e-317)
(-107.4 70.5435 -8.37859e-317)
(-1.69997 0.0397641 3.70984e-315)
(7.54354 12.2129 1.55458e-315)
(22.2836 8.8809 9.75112e-316)
(24.7247 8.75992 5.9628e-316)
(38.3345 7.26473 5.59476e-316)
(38.1623 5.30117 5.60628e-316)
(47.88 5.89363 6.11417e-316)
(48.5601 4.62244 6.52644e-316)
(55.84 6.74547 6.86891e-316)
(59.7083 6.1708 7.05067e-316)
(66.0183 9.99892 7.10156e-316)
(75.5298 9.41228 7.03113e-316)
(81.1226 15.9174 6.86397e-316)
(99.8655 13.2069 6.62933e-316)
(101.27 24.7926 6.32971e-316)
(135.55 11.6182 6.00949e-316)
(115.006 35.3247 5.63662e-316)
(180.803 -23.5585 5.31707e-316)
(65.7818 26.8882 5.01517e-316)
(212.874 -213.738 5.01212e-316)
)
;

boundaryField
{
    cavity
    {
        type            myImplicitVelocity;
    }
    lid
    {
        type            fixedValue;
        value           uniform (1 0 0);
    }
    frontAndBack
    {
        type            empty;
    }
}


// ************************************************************************* //
