/*--------------------------------*- C++ -*----------------------------------*\
| =========                 |                                                 |
| \\      /  F ield         | foam-extend: Open Source CFD                    |
|  \\    /   O peration     | Version:  3.0                                   |
|   \\  /    A nd           | Web:         http://www.extend-project.de       |
|    \\/     M anipulation  |                                                 |
\*---------------------------------------------------------------------------*/
FoamFile
{
    version     2.0;
    format      ascii;
    class       volVectorField;
    location    "60";
    object      u;
}
// * * * * * * * * * * * * * * * * * * * * * * * * * * * * * * * * * * * * * //

dimensions      [0 0 0 0 0 0 0];

internalField   nonuniform List<vector> 
2688
(
(0.2583814636 -0.05190339663 7.236064833e-17)
(0.1805427643 -0.04143632517 -9.012765909e-17)
(0.5518438342 -0.03647618455 1.757245582e-16)
(0.4369519861 -0.02756902983 -6.282267476e-17)
(0.7230423246 -0.02647270164 9.533749788e-17)
(0.602957961 -0.01927068809 -2.229443396e-17)
(0.8305349995 -0.01953615116 5.275294024e-18)
(0.714299037 -0.01406280592 5.70809045e-17)
(0.902289023 -0.01450569215 -6.236726283e-17)
(0.7906035038 -0.01062102535 7.701593562e-17)
(0.9525608352 -0.01073721452 -2.372919522e-17)
(0.8434390076 -0.008215386838 4.098996141e-17)
(0.9890482116 -0.007829039117 3.149236767e-17)
(0.8799372805 -0.006432160436 -9.019723657e-17)
(1.016135942 -0.005512570782 1.029560517e-16)
(0.9046368263 -0.005019732657 -1.084175144e-16)
(1.036415597 -0.003606126428 1.035359901e-16)
(0.920525232 -0.003807719189 -6.902078365e-17)
(1.051401137 -0.001996400252 1.677718501e-17)
(0.9296757474 -0.002657776149 1.89933352e-17)
(1.061864785 -0.0006244735381 -3.001455207e-17)
(0.9336492953 -0.001397181803 1.02908196e-17)
(1.068036634 0.0005252791416 -3.434808577e-17)
(0.933770851 -0.0008740570315 7.119748364e-18)
(0.2701012685 -0.1558166909 -2.259504222e-16)
(0.1898644088 -0.1246197005 -2.304479395e-18)
(0.5600961981 -0.1097391375 -3.76675294e-16)
(0.4431704538 -0.08309613666 4.194883068e-17)
(0.729041544 -0.07980983965 -1.813579291e-16)
(0.6073209288 -0.05823274847 -2.923329129e-17)
(0.83497024 -0.05903562973 -1.34889454e-17)
(0.7174936874 -0.04261890348 -1.410785023e-16)
(0.9055871354 -0.04395813608 7.055997989e-17)
(0.793020321 -0.03229287375 -1.180251876e-16)
(0.9550009184 -0.03265437556 -8.404381045e-18)
(0.8453062396 -0.02507356486 -9.79731504e-17)
(0.9908187257 -0.02392599239 1.921240436e-17)
(0.8813932774 -0.0197290243 2.332560103e-17)
(1.017366378 -0.01697820664 -4.492255184e-17)
(0.905767807 -0.01551621587 8.343368862e-17)
(1.037198631 -0.01128774656 -7.90744974e-17)
(0.9213834099 -0.01192603843 1.945825049e-17)
(1.051813372 -0.00654456903 8.649285599e-17)
(0.9302859008 -0.00854182739 -1.153598956e-16)
(1.06199033 -0.002609752485 1.081056074e-16)
(0.9340057876 -0.004950477179 -1.638418392e-17)
(1.067970047 0.0005392255338 4.967725154e-17)
(0.9338704305 -0.001532908962 3.414970832e-17)
(0.2933533445 -0.257900402 4.124405679e-16)
(0.208483845 -0.206243058 1.098861875e-16)
(0.5764816172 -0.1816359698 4.733995294e-16)
(0.4555934368 -0.1375707449 -2.063817535e-17)
(0.7409675903 -0.1321340551 2.221800313e-16)
(0.6160305075 -0.09645409654 1.061347344e-16)
(0.8438023277 -0.09779118204 -1.07838435e-17)
(0.7238750405 -0.07063566195 2.233367102e-16)
(0.9121774937 -0.07287251934 -6.106956819e-17)
(0.797867755 -0.05356642081 2.023364683e-16)
(0.9599157977 -0.05419612796 3.359771485e-17)
(0.8490888509 -0.04164366162 1.209863327e-16)
(0.9944465953 -0.03978355494 -2.415389841e-17)
(0.8843971701 -0.03283413679 -5.474329539e-17)
(1.019975274 -0.02832454571 6.853388118e-17)
(0.9081692876 -0.02591687391 -1.905973691e-16)
(1.03897181 -0.0189559646 2.149414515e-16)
(0.9232865762 -0.02006080276 -1.683263108e-16)
(1.052874807 -0.01115781311 -2.182451691e-17)
(0.9317438095 -0.01459134177 5.537632143e-17)
(1.062422682 -0.004676333338 -5.845097528e-17)
(0.9350299424 -0.008853337111 -6.275289288e-17)
(1.067816536 0.0005471409783 -5.734294095e-17)
(0.9344633451 -0.002712084054 8.427560858e-19)
(0.3278979157 -0.3566052944 -4.481441647e-16)
(0.236087722 -0.2852692771 -2.677867313e-16)
(0.6008239967 -0.2512263648 -5.903676084e-16)
(0.4740080648 -0.190323046 2.845219634e-17)
(0.7586797036 -0.1827965562 -3.252695259e-16)
(0.6289457604 -0.1334698293 -6.310215715e-17)
(0.8569106223 -0.1353134677 -7.796156676e-17)
(0.733333705 -0.09776846058 -1.73407073e-16)
(0.9219402 -0.1008555391 -8.432895452e-17)
(0.8050345743 -0.07416306657 -1.53488979e-16)
(0.9671636424 -0.07502638631 -1.028021312e-16)
(0.8546468471 -0.05767271812 -1.323770379e-16)
(0.9997442555 -0.05509207783 9.990738901e-17)
(0.8887581791 -0.04548492365 -1.646122531e-17)
(1.023711659 -0.0392434254 5.785855324e-17)
(0.9115829277 -0.03590775601 9.380426442e-17)
(1.041422756 -0.02629632856 -1.052938747e-16)
(0.9258919833 -0.02778256276 8.928327335e-17)
(1.054257069 -0.01555173674 5.20114127e-17)
(0.9335894913 -0.02016253084 -1.003398437e-16)
(1.062945575 -0.006686139116 1.221758865e-16)
(0.9360888892 -0.01214076546 8.719865675e-17)
(1.067712872 0.0003405646404 -2.851253767e-17)
(0.9346418687 -0.00309622081 1.61986628e-16)
(0.3732908078 -0.4509429307 4.815092977e-16)
(0.2723899532 -0.3606976081 2.375683822e-16)
(0.632800653 -0.3176676679 7.016060318e-16)
(0.4982346514 -0.2406599264 -6.184222486e-17)
(0.7819510324 -0.2311517859 3.153585543e-16)
(0.6459392444 -0.1687849806 1.292588228e-16)
(0.874144179 -0.1711262614 3.117457745e-17)
(0.7457868826 -0.1236502317 1.841724945e-16)
(0.934795639 -0.1275684948 1.569410471e-16)
(0.8144902952 -0.09380752609 1.715305693e-16)
(0.9767426142 -0.09491904221 -3.255026774e-17)
(0.8620151942 -0.07296158611 2.354874132e-16)
(1.006801203 -0.06972300712 -2.124970811e-16)
(0.8945920029 -0.05755888511 1.537991217e-16)
(1.028769117 -0.04969467666 -2.271502226e-16)
(0.9162217762 -0.04546602902 -8.306337581e-17)
(1.044845907 -0.03333593829 4.694664309e-17)
(0.929535223 -0.03523183021 -7.462348608e-17)
(1.056306376 -0.01975430048 -1.683938879e-17)
(0.9363338558 -0.02568678836 3.589181333e-17)
(1.063811551 -0.008535617706 -1.391467044e-16)
(0.9379513146 -0.01570380734 2.960240583e-18)
(1.067502041 0.0003448377409 -1.843092521e-16)
(0.9356339044 -0.004237931353 6.288224473e-17)
(0.428926594 -0.539493753 -3.716531424e-16)
(0.3168914346 -0.4315970499 -2.134023437e-16)
(0.6720105802 -0.3801019409 -5.236425702e-16)
(0.5279264397 -0.2879899781 -1.931280699e-17)
(0.8104876024 -0.2766040098 -1.889288977e-16)
(0.6667650589 -0.2019987517 -2.484533928e-16)
(0.8952712498 -0.2047919946 6.143652847e-17)
(0.761043045 -0.1480002979 -2.513859171e-16)
(0.9505410681 -0.1526800406 -3.070700821e-16)
(0.826058866 -0.1122983089 5.656876216e-17)
(0.9884482567 -0.1136187117 -3.5235893e-17)
(0.8710014188 -0.08736084061 -1.092249738e-16)
(1.015382705 -0.08347566018 5.510898026e-17)
(0.9016623823 -0.06893412803 3.494003747e-17)
(1.034860826 -0.05951909054 6.706112446e-17)
(0.9217770523 -0.05445918484 1.573242821e-16)
(1.04889948 -0.0399682268 1.18701219e-16)
(0.9337891199 -0.04218430909 -3.727568725e-17)
(1.058668934 -0.02378084702 1.202280245e-16)
(0.9393440149 -0.03067875363 -8.253291491e-17)
(1.064795661 -0.01050471404 2.378371392e-16)
(0.9396466193 -0.01851339218 -1.222571817e-17)
(1.067498207 -0.0002437998321 2.198044176e-16)
(0.9357033734 -0.004257501596 -5.518267836e-17)
(0.4941710735 -0.6213524676 -6.220915862e-17)
(0.3690649974 -0.4970497008 9.013076166e-17)
(0.7179710794 -0.4377533017 5.371455362e-16)
(0.5627440428 -0.3316669518 -7.923667871e-17)
(0.8439338684 -0.318563028 6.81847285e-17)
(0.691187075 -0.2326382679 2.807617784e-16)
(0.9200360125 -0.2358656289 1.113197893e-17)
(0.778936688 -0.1704505499 -3.139534903e-17)
(0.9690077823 -0.1758531681 4.495340223e-16)
(0.839637953 -0.1293310385 -2.248777059e-16)
(1.002197504 -0.1308674143 -1.076541448e-16)
(0.8815698884 -0.1006069063 3.103454136e-16)
(1.025496235 -0.09614984997 -2.58712354e-16)
(0.9100094506 -0.07938093962 2.482904939e-16)
(1.042089058 -0.06855301083 -3.644005275e-16)
(0.9283812262 -0.06271023279 1.449537806e-16)
(1.053771035 -0.0460194624 -3.425311425e-16)
(0.9389159291 -0.04859139106 1.519533995e-16)
(1.06156725 -0.02734042931 -1.681516809e-16)
(0.9430906264 -0.03541374233 1.252573365e-17)
(1.066004364 -0.01203584047 -1.729721668e-16)
(0.9420071976 -0.02159275986 -2.210566408e-16)
(1.067096519 -0.000180188291 1.384476013e-16)
(0.9367563848 -0.005629309413 -5.57299594e-16)
(0.5681164218 -0.6953114216 6.134282174e-16)
(0.4282264891 -0.556266481 -3.837988988e-16)
(0.7700860538 -0.4899016901 6.234588699e-17)
(0.6022221783 -0.371199765 -3.555171653e-16)
(0.8818668135 -0.3565262632 2.373980735e-16)
(0.7188815106 -0.2603826801 -4.052376526e-16)
(0.9481266313 -0.2639854449 1.757317828e-16)
(0.7992311167 -0.190794557 -2.387313113e-17)
(0.9899533376 -0.1968307891 -9.389294993e-17)
(0.8550375976 -0.1447854301 1.231746744e-16)
(1.017784817 -0.1464926576 1.930529231e-16)
(0.8935482896 -0.1126495348 -2.745606039e-16)
(1.036948486 -0.1076453284 1.381776417e-16)
(0.919458362 -0.08890385697 -2.387014339e-16)
(1.050261192 -0.07676589015 3.788070856e-16)
(0.9358418918 -0.07024575267 -3.508055305e-16)
(1.059285242 -0.05155531537 4.768385612e-16)
(0.9446838391 -0.0544058806 -3.747075736e-16)
(1.064916252 -0.03067562793 3.577220628e-16)
(0.9472367735 -0.03950583642 -2.92898222e-16)
(1.067643153 -0.0136756179 5.490436988e-16)
(0.9443029686 -0.02357006067 -2.231323916e-16)
(1.067544347 -0.0009431869958 1.86616572e-16)
(0.9371675037 -0.005667197818 9.759229146e-17)
(0.6499311417 -0.7605861799 -9.448268209e-16)
(0.493657362 -0.608460986 4.09260853e-16)
(0.8277200925 -0.5358736535 -4.157525048e-16)
(0.6458845638 -0.4060287168 4.303454e-16)
(0.9238058938 -0.3899867731 -6.648639746e-17)
(0.7495039545 -0.2848135127 6.119657883e-17)
(0.979174835 -0.2887650211 -1.71441444e-16)
(0.8216620514 -0.2086924017 -1.112468621e-17)
(1.013097376 -0.2153078811 -1.639849391e-16)
(0.8720511137 -0.1583601537 -2.524858528e-18)
(1.035004317 -0.1602421493 -3.932105227e-16)
(0.9067774749 -0.1232027785 5.154025108e-16)
(1.04959826 -0.1177431992 -4.156470002e-16)
(0.9298913878 -0.09722759826 5.211414643e-16)
(1.059284725 -0.08395557969 -4.615965561e-16)
(0.9440768821 -0.07683162852 5.449153479e-16)
(1.065363097 -0.05635303363 -5.104053194e-16)
(0.9510456076 -0.05955006073 4.933345873e-16)
(1.068594601 -0.03344068849 -2.136286679e-16)
(0.9518106716 -0.04335575937 7.786248152e-17)
(1.069505753 -0.01466195282 -1.286595439e-16)
(0.9468219824 -0.02618779758 -2.674343318e-16)
(1.068543433 -0.0001876939815 4.478196824e-16)
(0.936812325 -0.007386134359 -9.294931472e-16)
(0.7384838755 -0.8162462594 1.004527954e-15)
(0.5645094879 -0.6530259384 -1.018871291e-15)
(0.8901299084 -0.5751194729 1.174402345e-15)
(0.6931680362 -0.4357802991 -8.0561762e-16)
(0.969235742 -0.4185549258 4.482986622e-16)
(0.7826793551 -0.3056942894 -1.932302354e-16)
(1.01282368 -0.3099250705 3.030929237e-16)
(0.8459801579 -0.2240057007 1.232214368e-16)
(1.038196538 -0.2310938791 3.545899738e-16)
(0.8905139775 -0.1699968434 -2.710839821e-18)
(1.053694289 -0.172001323 3.371879589e-16)
(0.9211520704 -0.1322769498 -3.049346429e-16)
(1.063343526 -0.126394316 1.897942256e-16)
(0.9412490541 -0.1044143459 -4.950052326e-16)
(1.069106667 -0.09013054726 3.238889787e-16)
(0.9530734801 -0.08254107345 -7.159573353e-16)
(1.07200241 -0.06049146108 5.560926003e-16)
(0.958056343 -0.06400835318 -7.454245941e-16)
(1.072641297 -0.03586237493 4.310643857e-16)
(0.9569841127 -0.04664961494 -3.909630534e-16)
(1.07149175 -0.01557042651 4.877009187e-16)
(0.9500497406 -0.02842249009 -2.099880878e-16)
(1.069034188 0.0004475487785 1.845086507e-16)
(0.9372167588 -0.007854816522 3.056276344e-16)
(0.8327601554 -0.8616642462 -5.262053133e-16)
(0.639915462 -0.689345932 6.365959537e-16)
(0.956544514 -0.6071097792 -4.867593665e-16)
(0.7434847744 -0.4600176095 1.277652016e-16)
(1.017561904 -0.4418429239 -3.703183115e-17)
(0.8179645679 -0.3226958367 -2.15528177e-16)
(1.04859495 -0.3271733549 -2.01432602e-16)
(0.8718202482 -0.2364596952 -4.050426727e-16)
(1.064852655 -0.2439559705 -3.434815325e-16)
(0.9101046292 -0.1794406139 -1.896267059e-16)
(1.073514229 -0.1815728165 -3.638491599e-16)
(0.9363752284 -0.1396178016 4.548663323e-16)
(1.077885819 -0.1334251548 -4.352438043e-16)
(0.9532474068 -0.1102092168 7.578957977e-16)
(1.079454535 -0.09514128867 -3.762905907e-16)
(0.9625497927 -0.08714602197 8.842376752e-16)
(1.078930393 -0.06384704029 -5.451153762e-16)
(0.9654160162 -0.06765508449 7.885495346e-16)
(1.0767418 -0.03781682317 -3.253729344e-16)
(0.9623901203 -0.04948776534 1.730583074e-16)
(1.073235658 -0.01623183946 -6.927063012e-17)
(0.9534600401 -0.03060603736 -4.344522504e-16)
(1.068821096 0.00112249356 3.961101674e-16)
(0.9377531081 -0.008531121946 -7.565195519e-16)
(0.9314842928 -0.8962354345 4.030418386e-16)
(0.7189038001 -0.7170238933 -5.110419161e-16)
(1.02612051 -0.6314828579 5.064920499e-16)
(0.7962008892 -0.4784940581 -2.589586099e-16)
(1.068211313 -0.459579981 2.305670123e-16)
(0.8549568023 -0.33566219 2.041190668e-16)
(1.086115945 -0.3403075741 1.670623091e-16)
(0.8989430454 -0.2459687289 5.345725525e-16)
(1.092848184 -0.2537520016 3.463796796e-16)
(0.9307053964 -0.186668075 2.242910239e-16)
(1.094369299 -0.1888686979 1.741303903e-16)
(0.9524236745 -0.145257771 -2.505613859e-16)
(1.093227476 -0.1387938012 3.053817901e-16)
(0.9659363902 -0.1146853013 -5.838304204e-16)
(1.090405665 -0.09897985073 2.680007585e-16)
(0.9726077724 -0.09072231477 -8.786835197e-16)
(1.086278868 -0.06643801078 3.563081382e-16)
(0.9732583451 -0.07048955004 -5.569049955e-16)
(1.081066003 -0.03937520625 1.878963779e-16)
(0.9681914514 -0.05165675686 -3.655326679e-16)
(1.074959428 -0.01689890463 3.934266419e-16)
(0.9572743306 -0.03215835015 -1.361011552e-16)
(1.068193712 0.001304352341 2.26135342e-16)
(0.9389573931 -0.008729196452 1.340993143e-16)
(1.033489558 -0.9195203318 -1.025665778e-16)
(0.8005025038 -0.7356502729 3.740684934e-17)
(1.097984521 -0.6478907388 1.799220649e-17)
(0.8506489841 -0.4909278983 -2.026349036e-16)
(1.120500954 -0.4715323121 -3.861458504e-17)
(0.8931353582 -0.344386936 -8.20060922e-17)
(1.124815869 -0.3491657388 -2.170332013e-16)
(0.9268957325 -0.2523607343 -4.243255151e-16)
(1.121678391 -0.2603618263 -2.181180058e-16)
(0.9518886974 -0.1915140216 -6.644602875e-17)
(1.115793585 -0.1937910649 -2.697334337e-16)
(0.9688724686 -0.1490219808 4.154303155e-16)
(1.108929057 -0.1424138815 -6.655047483e-16)
(0.978885994 -0.1176538634 8.85039589e-16)
(1.101550042 -0.1015682215 -6.037381836e-16)
(0.9828185311 -0.09308014663 9.054394516e-16)
(1.093688769 -0.06819168845 -3.693580094e-16)
(0.9811724191 -0.07235745188 4.691481874e-16)
(1.085352546 -0.04044602758 2.429872414e-18)
(0.974000465 -0.05310197569 5.460694949e-17)
(1.07659598 -0.01739752296 -1.954000464e-17)
(0.9610212895 -0.03317726892 -1.340823895e-16)
(1.067487085 0.001258828667 1.352956916e-16)
(0.9402103755 -0.008767750912 -4.369050605e-16)
(1.13743894 -0.9312692112 4.737605082e-17)
(0.8836640672 -0.7450525847 -4.159760826e-18)
(1.171237129 -0.6561669145 -7.907189949e-17)
(0.9061514506 -0.4972007879 7.393617526e-17)
(1.173828868 -0.4775453846 9.63837205e-17)
(0.9320870363 -0.3487849533 -1.271534405e-16)
(1.164326758 -0.3536100668 2.556880485e-16)
(0.9554614536 -0.2555826143 1.134434938e-16)
(1.151166835 -0.2636685813 2.01146807e-16)
(0.9735933025 -0.1939607686 -1.261088531e-16)
(1.137770625 -0.1962465118 3.494751645e-16)
(0.9857889817 -0.1509315573 -3.950954094e-16)
(1.12510521 -0.1442157904 4.968510724e-16)
(0.9922667397 -0.1191732792 -5.908456275e-16)
(1.11310047 -0.1028582496 4.683588201e-16)
(0.9934228833 -0.09430310325 -5.683923729e-16)
(1.10142999 -0.06907981166 1.925339126e-16)
(0.9894273827 -0.07334118208 -1.856362637e-16)
(1.089878927 -0.04103261955 -1.120623549e-16)
(0.9800765412 -0.05386519995 6.113177299e-17)
(1.078388664 -0.01780650288 3.026287619e-17)
(0.9649252848 -0.0336282758 2.159275838e-18)
(1.066926047 0.0007987481256 8.449050672e-17)
(0.9418063692 -0.008628736603 1.47999224e-17)
(1.242052924 -0.9312557739 1.142601427e-17)
(0.9673637441 -0.745054089 -5.88916303e-17)
(1.244947662 -0.6561728814 -6.113028992e-17)
(0.9620024662 -0.497211249 1.900815454e-16)
(1.22746195 -0.4775671641 -8.670800671e-17)
(0.9712468758 -0.3488004757 2.548007561e-16)
(1.204017042 -0.3536400621 -2.296729265e-16)
(0.9841275034 -0.255599104 2.064038855e-16)
(1.180727865 -0.2637025595 -1.065499206e-16)
(0.9953088029 -0.1939745239 1.472693731e-16)
(1.159727892 -0.1962812495 -3.929472674e-16)
(1.002638024 -0.1509390289 3.121397389e-16)
(1.141184472 -0.1442483311 -2.956158584e-16)
(1.005511448 -0.1191719588 3.181344043e-16)
(1.124498983 -0.1028867024 -4.353815373e-16)
(1.003834319 -0.09429359486 3.909068428e-16)
(1.108999596 -0.06910675773 -2.151088795e-16)
(0.9974438374 -0.07332965402 8.798703947e-17)
(1.09427024 -0.04107249789 1.867593086e-17)
(0.9858648989 -0.05385801506 -1.065732368e-16)
(1.080198373 -0.01793270819 -2.795323918e-17)
(0.9683975896 -0.03354299679 5.004847771e-17)
(1.066786104 0.0003471842494 -2.167915128e-16)
(0.9428910118 -0.008546936791 2.615392893e-16)
(1.346019513 -0.9195918188 -1.34970623e-16)
(1.050525581 -0.7357088701 2.362776898e-16)
(1.318201832 -0.6479357917 -1.748609034e-16)
(1.017504055 -0.4909648494 -1.81127296e-16)
(1.28079105 -0.4715521668 5.073683263e-17)
(1.010200389 -0.344406758 -3.758166244e-16)
(1.243533244 -0.349166854 2.175088978e-16)
(1.012699616 -0.2523669628 -4.76339629e-16)
(1.210228402 -0.2603458125 3.36161438e-17)
(1.017026283 -0.1915095031 -3.429276678e-16)
(1.181726728 -0.1937586817 4.732678685e-16)
(1.019575601 -0.1490110402 -3.346882481e-16)
(1.157395534 -0.1423677732 3.404531987e-16)
(1.018921331 -0.1176454046 -2.731473461e-16)
(1.136101654 -0.1015164319 3.614143577e-16)
(1.014470925 -0.09309132234 -8.791875177e-17)
(1.116817781 -0.06815605009 1.05798814e-16)
(1.005721388 -0.07241588991 1.394791251e-16)
(1.098916664 -0.04048074871 -1.063433402e-16)
(0.9919256951 -0.05322426094 2.54754487e-16)
(1.082244479 -0.01770913678 -9.972278118e-17)
(0.972100768 -0.03312487464 6.861996679e-17)
(1.066909803 5.076309733e-05 5.280905693e-17)
(0.9442864501 -0.008668694589 -2.24238478e-16)
(1.447991631 -0.8962842998 9.169006597e-17)
(1.132130329 -0.7170878104 -1.928550542e-16)
(1.390064709 -0.6315421077 1.331702999e-16)
(1.071960863 -0.4785541071 1.531350732e-16)
(1.33308223 -0.4596456502 -7.092431369e-18)
(1.048382824 -0.3357164589 3.549209854e-16)
(1.2822289 -0.3403724335 -6.815576854e-17)
(1.040648115 -0.2460140924 4.7512256e-16)
(1.239044178 -0.2538103379 3.926804296e-17)
(1.038193397 -0.1867017769 4.077750998e-16)
(1.203122841 -0.1889149763 -2.597666556e-16)
(1.035990504 -0.1452792836 1.483077416e-16)
(1.173053608 -0.1388219469 -1.850656107e-16)
(1.031811039 -0.1147020315 1.469484877e-16)
(1.147192517 -0.09898399478 -3.699970163e-16)
(1.024582119 -0.09076012581 -2.089368201e-17)
(1.124187747 -0.0664194584 -9.856612195e-17)
(1.013471109 -0.07060549509 -2.385874618e-16)
(1.103242171 -0.03936346654 1.328572351e-16)
(0.9974473298 -0.05192390024 -2.151950908e-16)
(1.084221813 -0.01710187082 3.437216246e-17)
(0.9751656741 -0.03238119644 1.277016353e-16)
(1.067460249 0.0001697906914 -2.689496658e-16)
(0.9447321745 -0.009084723697 5.493215616e-16)
(1.546765712 -0.8617900073 -2.1294633e-16)
(1.211119045 -0.6894640833 4.230752518e-16)
(1.459644434 -0.6072045648 -3.529807611e-16)
(1.124673454 -0.460101893 4.328449493e-17)
(1.383733361 -0.4419036418 -3.1547828e-17)
(1.085378427 -0.3227505037 -3.944269437e-16)
(1.319762283 -0.3272039032 1.470472641e-16)
(1.067786225 -0.2364872502 -5.325341111e-16)
(1.267069787 -0.2439532887 9.904737674e-17)
(1.058827373 -0.1794431827 -5.416454819e-16)
(1.224032974 -0.1815303785 3.445580153e-16)
(1.052097294 -0.1396026737 -2.96419617e-16)
(1.188482366 -0.1333333298 2.927856923e-16)
(1.044589879 -0.1101996041 -3.123782346e-16)
(1.158266562 -0.09498544277 5.403242654e-16)
(1.034762762 -0.08719845039 -6.988859722e-17)
(1.131692699 -0.06360938418 2.099661248e-16)
(1.021461198 -0.06787866474 1.219869173e-16)
(1.107753496 -0.03749462372 -6.490237807e-17)
(1.003390956 -0.05003441888 1.601796854e-16)
(1.086257954 -0.01596522458 -1.861542835e-16)
(0.9789028421 -0.03145801166 6.515105373e-17)
(1.067672519 0.0008229400636 -1.536042867e-16)
(0.9460856682 -0.009770833107 -9.507969493e-17)
(1.640978631 -0.8163615928 2.783903359e-16)
(1.286538749 -0.6531557934 -3.745737669e-16)
(1.526058953 -0.5752344849 4.650998292e-16)
(1.175009819 -0.43589315 -1.933088678e-16)
(1.432065929 -0.4186668963 8.792956095e-17)
(1.120675648 -0.3057917493 1.594708717e-16)
(1.355530547 -0.3100285506 -1.510483966e-17)
(1.093625878 -0.2240876487 3.785030506e-16)
(1.293705238 -0.231182146 -1.60908461e-16)
(1.078399655 -0.1700643097 4.702355798e-16)
(1.243805964 -0.1720638171 -1.75026492e-16)
(1.067276986 -0.1323372717 3.292666627e-17)
(1.202941561 -0.1264101489 -6.473266725e-18)
(1.056511901 -0.1044946955 1.179794261e-16)
(1.1684872 -0.09005593802 -3.404786995e-16)
(1.044121615 -0.08271578822 4.594647186e-17)
(1.138453779 -0.06024473774 -1.356355492e-16)
(1.028647289 -0.06443838515 -1.924954848e-16)
(1.111691958 -0.03531886193 9.947957303e-17)
(1.008521795 -0.04761473891 -1.00955922e-16)
(1.088022891 -0.01460401296 1.163875521e-16)
(0.9817788289 -0.03031714074 9.066880871e-17)
(1.068083174 0.001888308582 -5.116208534e-18)
(0.9460812201 -0.01069005531 1.650874763e-16)
(1.72961001 -0.7607633805 -3.956346833e-16)
(1.357390512 -0.6086399564 3.670512913e-16)
(1.588472265 -0.5360181342 -4.498522142e-16)
(1.222284977 -0.4061625438 2.983041308e-16)
(1.47749335 -0.3900899501 -1.790038822e-16)
(1.153850387 -0.2849061993 -3.283793358e-17)
(1.389189782 -0.2888278859 7.519094577e-17)
(1.117957681 -0.2087460234 -3.704468641e-16)
(1.318836697 -0.2153219678 2.071051456e-16)
(1.096900022 -0.1583770281 -3.464059705e-16)
(1.262558922 -0.1601902284 1.305482847e-16)
(1.081728506 -0.1231947743 -9.560745398e-17)
(1.216786553 -0.1175924903 1.1384875e-16)
(1.068010228 -0.09723569035 -1.961265904e-16)
(1.178436334 -0.0836398663 2.44127345e-16)
(1.053358988 -0.07696071442 -3.324395475e-17)
(1.145196082 -0.0557472138 8.039662438e-17)
(1.036050881 -0.0600130216 1.287422884e-16)
(1.115683181 -0.03234524394 -1.298660724e-16)
(1.014310307 -0.04451899441 1.219032252e-16)
(1.089524354 -0.01275584437 -2.118225823e-16)
(0.9860189929 -0.02882961971 5.66400734e-17)
(1.067212877 0.003238444186 -1.451184452e-16)
(0.9481269027 -0.01131912571 -3.60036211e-17)
(1.811336641 -0.6954971624 2.711833726e-16)
(1.422845196 -0.5564653872 -2.428801738e-16)
(1.646110803 -0.4900741938 2.127012373e-16)
(1.265981041 -0.3713680403 -1.845703769e-16)
(1.519448947 -0.3566857967 1.3817627e-16)
(1.18449922 -0.2605266102 -7.559776998e-17)
(1.420245213 -0.2641300014 -2.207741369e-17)
(1.140403687 -0.1909185247 2.518450895e-16)
(1.341968214 -0.1969542541 -2.26210297e-16)
(1.113913204 -0.1448959213 2.534564362e-16)
(1.279733096 -0.1465806233 -4.460690083e-17)
(1.09493739 -0.1127630021 -4.337341076e-17)
(1.229337717 -0.1076614543 4.257944702e-17)
(1.078402168 -0.08906534159 5.723299623e-17)
(1.187279097 -0.07662129559 -4.726013303e-17)
(1.061541022 -0.07056689866 -5.270117275e-17)
(1.150981052 -0.05105902507 6.561930388e-17)
(1.042362441 -0.05512161064 -1.032510955e-16)
(1.118942736 -0.02948094934 1.051840582e-16)
(1.018844495 -0.04105663341 -7.542591899e-17)
(1.090744494 -0.01114875776 1.620415966e-16)
(0.9887429706 -0.02711549325 4.924256983e-17)
(1.066805271 0.004442977549 8.636681687e-17)
(0.9478936107 -0.01192595471 1.171891592e-16)
(1.885382401 -0.6215795795 -1.291724252e-16)
(1.48200513 -0.4972917253 2.698024153e-16)
(1.698225852 -0.4379481729 -1.575396073e-16)
(1.305444073 -0.3318539464 1.651374146e-16)
(1.55736985 -0.3187123945 -1.218700891e-16)
(1.212182476 -0.232775122 1.178264173e-16)
(1.448333675 -0.235969059 1.368782223e-17)
(1.160696675 -0.1705404917 -1.299458757e-16)
(1.362929961 -0.1758997281 2.323961891e-16)
(1.129331119 -0.1293774378 -2.19665686e-16)
(1.295363014 -0.1308343058 1.22423297e-16)
(1.106975144 -0.1006240162 -3.423855546e-17)
(1.240864935 -0.09599090679 -4.202283949e-17)
(1.08799498 -0.0794157159 -2.596742211e-17)
(1.195545567 -0.06817039987 -2.506459007e-17)
(1.06931643 -0.0628802478 6.094486795e-17)
(1.156535468 -0.04521956795 -1.190530796e-16)
(1.048778524 -0.04912551914 8.266986858e-17)
(1.122074386 -0.02579510391 -9.438438095e-17)
(1.024263687 -0.03667778555 4.373656304e-17)
(1.091378568 -0.009191358019 -1.186867971e-16)
(0.9936095874 -0.0245362205 -4.611197611e-17)
(1.064344562 0.00524345446 -5.570453207e-17)
(0.9512256437 -0.01115430647 -1.155503994e-16)
(1.950523238 -0.5397533844 -1.804736031e-17)
(1.534213797 -0.4318662459 -2.012212228e-16)
(1.744199689 -0.3803319951 -1.659664913e-17)
(1.340311169 -0.2882143062 -5.834479394e-17)
(1.59084772 -0.2768100458 -7.112968309e-18)
(1.236649941 -0.2021896861 -7.494754349e-17)
(1.473124347 -0.2049775301 1.191330645e-17)
(1.178630133 -0.1481670368 2.574065723e-17)
(1.381407159 -0.1528427205 -1.614928467e-16)
(1.142943104 -0.1124522711 9.288080437e-17)
(1.309093826 -0.113747769 -4.352005725e-17)
(1.117566689 -0.08752427312 -1.917562636e-17)
(1.250906329 -0.0835392719 1.033510974e-16)
(1.09635173 -0.06915747235 -4.329453952e-17)
(1.202611252 -0.05943325296 7.136441159e-17)
(1.075909619 -0.05485509258 -3.992289457e-17)
(1.16112536 -0.0395448313 6.777224284e-17)
(1.053836867 -0.04297400705 -2.471320841e-17)
(1.124610242 -0.02266983358 2.321187246e-17)
(1.027776241 -0.03225388948 3.237641537e-17)
(1.092221379 -0.008062413038 -6.211484237e-18)
(0.9955828117 -0.02197072975 1.512151594e-16)
(1.063665918 0.005139125431 -6.64719039e-17)
(0.9501621309 -0.0105771333 2.020522187e-16)
(2.006270821 -0.4512199327 6.285843794e-17)
(1.578714817 -0.3610043072 2.422254245e-16)
(1.783402716 -0.3179135084 1.1234764e-17)
(1.369981643 -0.2409032408 9.814305968e-17)
(1.619358911 -0.2313516401 1.445729508e-17)
(1.257450407 -0.1689729428 7.829092618e-17)
(1.49422982 -0.1712811881 -3.02439355e-18)
(1.193859795 -0.1237895311 -2.741483177e-17)
(1.397140111 -0.1276709759 1.503557761e-16)
(1.154489901 -0.09390388743 -9.403729961e-17)
(1.320801334 -0.09495283471 1.101494091e-16)
(1.126553314 -0.07302894656 -5.794074315e-17)
(1.259510418 -0.06965495609 -8.73332906e-18)
(1.103488775 -0.05763487456 -2.199272172e-17)
(1.208738692 -0.04945324699 -3.166928788e-17)
(1.081702384 -0.04563723545 3.226142287e-17)
(1.165159547 -0.03277922438 -4.642614864e-17)
(1.058728436 -0.03565576726 1.719427827e-17)
(1.126678129 -0.01864529964 -2.848854775e-17)
(1.032267519 -0.02660961157 -6.866407301e-18)
(1.092055257 -0.006470173459 -2.036882267e-17)
(1.00044388 -0.01785803994 -8.027737828e-17)
(1.060318807 0.00427790964 3.070540486e-17)
(0.9550373829 -0.007363472272 -1.021313255e-16)
(2.051559509 -0.3569414946 -7.434143282e-17)
(1.615059459 -0.2856070755 -1.88117515e-16)
(1.81540616 -0.2515112294 -5.859513727e-17)
(1.39427093 -0.1906014957 -6.56860368e-17)
(1.642679502 -0.1830446887 -1.866971389e-17)
(1.27450815 -0.1337053395 -8.393932729e-17)
(1.511511442 -0.1355361404 5.720937168e-18)
(1.206378915 -0.09797427492 -1.588062188e-17)
(1.410036269 -0.1010564562 -6.19170834e-17)
(1.164014266 -0.07435318203 1.099684302e-17)
(1.330404982 -0.0752050799 -4.437925749e-17)
(1.133989619 -0.05786946749 1.717354845e-18)
(1.266558443 -0.0552418682 4.133902783e-17)
(1.109375349 -0.0457304843 -3.291026055e-17)
(1.213733272 -0.039341813 6.358518288e-17)
(1.086333027 -0.03628617445 -3.882642673e-17)
(1.168479675 -0.02629128198 2.116323283e-17)
(1.062167502 -0.02844273326 1.156481636e-17)
(1.128709196 -0.01533746164 3.666430189e-19)
(1.034294998 -0.02132830805 3.971396607e-17)
(1.093230317 -0.005971549675 -2.473808849e-17)
(1.000615833 -0.0142983967 9.443904882e-17)
(1.061418483 0.002394127073 -6.41398585e-17)
(0.9515752323 -0.005695376799 1.034248522e-16)
(2.086213184 -0.2582294022 9.439815113e-17)
(1.642671243 -0.2066121424 1.472767838e-16)
(1.839732978 -0.1819330951 4.829424649e-17)
(1.412662703 -0.1378703193 7.639123283e-17)
(1.660354073 -0.1323872411 2.275796939e-17)
(1.287385918 -0.09669755258 5.926667228e-17)
(1.524580235 -0.0980058427 2.405835458e-17)
(1.21578631 -0.07083523585 -4.924895257e-18)
(1.419758509 -0.07305001649 7.147782123e-17)
(1.171115892 -0.05373197125 -3.910806039e-17)
(1.33761254 -0.05433690757 7.30730696e-17)
(1.139473614 -0.04178963672 -3.391416371e-17)
(1.271819365 -0.03988884994 6.436110306e-18)
(1.113673762 -0.03298569782 -7.445185035e-19)
(1.217425884 -0.02839702157 -1.564210312e-17)
(1.089758146 -0.02611911931 6.661895305e-18)
(1.170802285 -0.01900908469 -1.419351763e-17)
(1.065039576 -0.02038143372 -6.905079075e-18)
(1.129648468 -0.01124568371 -6.383177993e-18)
(1.037118343 -0.0151096829 -2.066615422e-17)
(1.092570733 -0.004958949081 -1.567948371e-19)
(1.004393115 -0.009578260275 -5.121606635e-17)
(1.057956439 -0.0004795855685 3.516045846e-17)
(0.9577818233 -0.001443083747 -7.762407147e-17)
(2.109380237 -0.1562295743 -8.722359823e-17)
(1.661328155 -0.1250224095 -9.533452636e-17)
(1.856158987 -0.1100720575 -7.794512957e-17)
(1.425152868 -0.0834245953 -4.940162371e-17)
(1.672343022 -0.0800919863 -3.18646439e-17)
(1.296171603 -0.05850829926 -5.01114789e-17)
(1.533477306 -0.05928804942 -9.50685184e-18)
(1.222250705 -0.04285811063 -2.809327213e-17)
(1.426412712 -0.04419015758 -1.905810613e-17)
(1.17605403 -0.0325099134 -1.139055126e-17)
(1.34258747 -0.03287434029 -1.625672666e-17)
(1.14334882 -0.02528461012 -8.130696254e-18)
(1.275498005 -0.02414889459 1.838445831e-17)
(1.116745831 -0.01995217912 -1.90091616e-17)
(1.220084852 -0.01723568631 2.808100082e-17)
(1.092122293 -0.01576921547 -1.112711909e-17)
(1.172703488 -0.01165260019 1.115975133e-17)
(1.066570144 -0.01220726899 5.610908096e-18)
(1.131158261 -0.007177076154 5.282377553e-18)
(1.037256897 -0.008781184541 1.584652987e-17)