/*--------------------------------*- C++ -*----------------------------------*\
| =========                 |                                                 |
| \\      /  F ield         | OpenFOAM: The Open Source CFD Toolbox           |
|  \\    /   O peration     | Version:  2.2.0                                 |
|   \\  /    A nd           | Web:      www.OpenFOAM.org                      |
|    \\/     M anipulation  |                                                 |
\*---------------------------------------------------------------------------*/
FoamFile
{
    version     2.0;
    format      ascii;
    class       volVectorField;
    location    "2.2";
    object      s;
}
// * * * * * * * * * * * * * * * * * * * * * * * * * * * * * * * * * * * * * //

dimensions      [0 1 -1 0 0 0 0];

internalField   nonuniform List<vector> 
1600
(
(1.78283 0.0700497 0)
(1.51326 0.0594567 0)
(1.31288 0.0515832 0)
(1.15893 0.0455346 0)
(1.0369 0.0407397 0)
(0.93777 0.036845 0)
(0.85565 0.0336185 0)
(0.786496 0.0309015 0)
(0.727455 0.0285817 0)
(0.676452 0.0265778 0)
(0.631945 0.0248292 0)
(0.592764 0.0232897 0)
(0.558005 0.0219241 0)
(0.526958 0.0207042 0)
(0.49906 0.0196081 0)
(0.473855 0.0186178 0)
(0.450974 0.0177188 0)
(0.430121 0.0168995 0)
(0.410964 0.0161468 0)
(0.393674 0.0154675 0)
(1.77184 0.209715 0)
(1.50393 0.178003 0)
(1.30478 0.154432 0)
(1.15179 0.136323 0)
(1.0305 0.121968 0)
(0.931988 0.110308 0)
(0.850374 0.100648 0)
(0.781647 0.092514 0)
(0.72297 0.0855691 0)
(0.672281 0.0795697 0)
(0.628049 0.0743345 0)
(0.589109 0.0697257 0)
(0.554565 0.065637 0)
(0.523709 0.0619851 0)
(0.495983 0.0587035 0)
(0.470934 0.0557387 0)
(0.448194 0.0530472 0)
(0.427469 0.0505943 0)
(0.40843 0.0483409 0)
(0.391246 0.046307 0)
(1.74992 0.348086 0)
(1.48533 0.295452 0)
(1.28864 0.256328 0)
(1.13754 0.226271 0)
(1.01776 0.202445 0)
(0.92046 0.183091 0)
(0.839856 0.167058 0)
(0.771979 0.153556 0)
(0.714027 0.142029 0)
(0.663966 0.132071 0)
(0.62028 0.123381 0)
(0.581823 0.115732 0)
(0.547705 0.108945 0)
(0.517232 0.102884 0)
(0.489848 0.0974369 0)
(0.465109 0.0925159 0)
(0.44265 0.0880486 0)
(0.422182 0.0839772 0)
(0.403379 0.080237 0)
(0.386407 0.0768611 0)
(1.71722 0.484309 0)
(1.45757 0.411079 0)
(1.26456 0.356644 0)
(1.11628 0.314824 0)
(0.998736 0.281673 0)
(0.903258 0.254745 0)
(0.82416 0.232437 0)
(0.757552 0.213652 0)
(0.700683 0.197613 0)
(0.651557 0.183758 0)
(0.608688 0.171668 0)
(0.570949 0.161024 0)
(0.537469 0.151582 0)
(0.507565 0.143148 0)
(0.480693 0.13557 0)
(0.456416 0.128723 0)
(0.434377 0.122507 0)
(0.414291 0.116842 0)
(0.39584 0.111638 0)
(0.379185 0.106941 0)
(1.67392 0.617547 0)
(1.42082 0.524171 0)
(1.23268 0.454761 0)
(1.08814 0.401436 0)
(0.973558 0.359165 0)
(0.880486 0.324829 0)
(0.803383 0.296384 0)
(0.738453 0.27243 0)
(0.683018 0.251979 0)
(0.635131 0.234312 0)
(0.593343 0.218896 0)
(0.556555 0.205324 0)
(0.523919 0.193284 0)
(0.494769 0.18253 0)
(0.468575 0.172866 0)
(0.44491 0.164136 0)
(0.423426 0.15621 0)
(0.403847 0.148987 0)
(0.38586 0.142351 0)
(0.369626 0.136362 0)
(1.62031 0.746977 0)
(1.37532 0.634032 0)
(1.1932 0.550074 0)
(1.05329 0.485573 0)
(0.942377 0.434442 0)
(0.852286 0.392909 0)
(0.777652 0.358503 0)
(0.714802 0.329528 0)
(0.661143 0.304791 0)
(0.614789 0.283422 0)
(0.574339 0.264774 0)
(0.53873 0.248358 0)
(0.507139 0.233794 0)
(0.478923 0.220786 0)
(0.453567 0.209098 0)
(0.43066 0.198537 0)
(0.409865 0.18895 0)
(0.390913 0.180213 0)
(0.373502 0.172187 0)
(0.357788 0.164942 0)
(1.55671 0.871801 0)
(1.32133 0.739983 0)
(1.14636 0.641995 0)
(1.01194 0.566716 0)
(0.905386 0.507041 0)
(0.818831 0.458568 0)
(0.747127 0.418411 0)
(0.686744 0.384595 0)
(0.635191 0.355724 0)
(0.590657 0.330784 0)
(0.551795 0.30902 0)
(0.517583 0.289861 0)
(0.487233 0.272863 0)
(0.460124 0.257682 0)
(0.435764 0.244039 0)
(0.413756 0.231714 0)
(0.393777 0.220526 0)
(0.375568 0.210328 0)
(0.358841 0.200961 0)
(0.343744 0.192506 0)
(1.48351 0.991251 0)
(1.2592 0.841372 0)
(1.09246 0.729958 0)
(0.964361 0.644366 0)
(0.862813 0.576513 0)
(0.780328 0.521399 0)
(0.711996 0.47574 0)
(0.654452 0.437291 0)
(0.605323 0.404464 0)
(0.562883 0.376107 0)
(0.525849 0.351361 0)
(0.493246 0.329576 0)
(0.464322 0.31025 0)
(0.438488 0.292988 0)
(0.415273 0.277477 0)
(0.3943 0.263463 0)
(0.375261 0.250741 0)
(0.357908 0.239147 0)
(0.341968 0.228496 0)
(0.32758 0.218882 0)
(1.40116 1.10459 0)
(1.18931 0.937573 0)
(1.03182 0.813421 0)
(0.910832 0.718042 0)
(0.81492 0.642432 0)
(0.737014 0.581015 0)
(0.672475 0.530136 0)
(0.618126 0.487291 0)
(0.571724 0.45071 0)
(0.531639 0.41911 0)
(0.49666 0.391535 0)
(0.465867 0.36726 0)
(0.438549 0.345724 0)
(0.414149 0.326488 0)
(0.392223 0.309203 0)
(0.372414 0.293587 0)
(0.354431 0.279411 0)
(0.338042 0.266491 0)
(0.322986 0.254622 0)
(0.309397 0.243909 0)
(1.31018 1.21112 0)
(1.11208 1.02799 0)
(0.964818 0.891869 0)
(0.851687 0.787291 0)
(0.762004 0.704389 0)
(0.689157 0.63705 0)
(0.628808 0.581264 0)
(0.577988 0.534286 0)
(0.534599 0.494178 0)
(0.497117 0.45953 0)
(0.46441 0.429296 0)
(0.435616 0.402679 0)
(0.410072 0.379066 0)
(0.387256 0.357976 0)
(0.366754 0.339024 0)
(0.348231 0.321901 0)
(0.331416 0.306358 0)
(0.316091 0.292192 0)
(0.302013 0.279178 0)
(0.289306 0.267432 0)
(1.21112 1.31018 0)
(1.02799 1.11208 0)
(0.891869 0.964818 0)
(0.787291 0.851687 0)
(0.704389 0.762004 0)
(0.63705 0.689157 0)
(0.581264 0.628808 0)
(0.534286 0.577988 0)
(0.494178 0.534599 0)
(0.45953 0.497117 0)
(0.429296 0.46441 0)
(0.402679 0.435616 0)
(0.379067 0.410072 0)
(0.357976 0.387256 0)
(0.339024 0.366754 0)
(0.321902 0.348231 0)
(0.306358 0.331416 0)
(0.292192 0.316091 0)
(0.279178 0.302013 0)
(0.267432 0.289306 0)
(1.10459 1.40116 0)
(0.937573 1.18931 0)
(0.813421 1.03182 0)
(0.718042 0.910832 0)
(0.642432 0.81492 0)
(0.581015 0.737014 0)
(0.530136 0.672475 0)
(0.487291 0.618126 0)
(0.450711 0.571724 0)
(0.419111 0.531639 0)
(0.391535 0.49666 0)
(0.36726 0.465867 0)
(0.345724 0.438549 0)
(0.326489 0.414149 0)
(0.309203 0.392223 0)
(0.293587 0.372414 0)
(0.279411 0.354431 0)
(0.266491 0.338042 0)
(0.254622 0.322986 0)
(0.243909 0.309397 0)
(0.991251 1.48351 0)
(0.841372 1.2592 0)
(0.729958 1.09246 0)
(0.644366 0.964361 0)
(0.576513 0.862813 0)
(0.521399 0.780328 0)
(0.47574 0.711996 0)
(0.437291 0.654452 0)
(0.404464 0.605323 0)
(0.376107 0.562883 0)
(0.351361 0.525849 0)
(0.329576 0.493246 0)
(0.31025 0.464322 0)
(0.292988 0.438488 0)
(0.277477 0.415273 0)
(0.263463 0.3943 0)
(0.250741 0.375261 0)
(0.239147 0.357908 0)
(0.228496 0.341968 0)
(0.218882 0.32758 0)
(0.871801 1.55671 0)
(0.739983 1.32133 0)
(0.641995 1.14636 0)
(0.566717 1.01194 0)
(0.507041 0.905386 0)
(0.458568 0.818831 0)
(0.418411 0.747127 0)
(0.384596 0.686745 0)
(0.355724 0.635191 0)
(0.330784 0.590657 0)
(0.30902 0.551795 0)
(0.289861 0.517583 0)
(0.272864 0.487233 0)
(0.257682 0.460124 0)
(0.24404 0.435764 0)
(0.231715 0.413756 0)
(0.220526 0.393777 0)
(0.210328 0.375568 0)
(0.200961 0.358841 0)
(0.192506 0.343744 0)
(0.746977 1.62031 0)
(0.634032 1.37532 0)
(0.550074 1.1932 0)
(0.485573 1.05329 0)
(0.434442 0.942377 0)
(0.39291 0.852286 0)
(0.358503 0.777652 0)
(0.329529 0.714803 0)
(0.304791 0.661143 0)
(0.283422 0.614789 0)
(0.264774 0.57434 0)
(0.248358 0.53873 0)
(0.233795 0.50714 0)
(0.220787 0.478923 0)
(0.209098 0.453568 0)
(0.198537 0.430661 0)
(0.188951 0.409865 0)
(0.180213 0.390913 0)
(0.172187 0.373502 0)
(0.164942 0.357788 0)
(0.617547 1.67392 0)
(0.524171 1.42082 0)
(0.454761 1.23268 0)
(0.401436 1.08814 0)
(0.359165 0.973558 0)
(0.324829 0.880486 0)
(0.296384 0.803383 0)
(0.27243 0.738454 0)
(0.251979 0.683019 0)
(0.234312 0.635131 0)
(0.218896 0.593343 0)
(0.205324 0.556555 0)
(0.193284 0.52392 0)
(0.18253 0.494769 0)
(0.172867 0.468575 0)
(0.164136 0.44491 0)
(0.15621 0.423427 0)
(0.148987 0.403847 0)
(0.142352 0.385861 0)
(0.136362 0.369626 0)
(0.484309 1.71722 0)
(0.411079 1.45757 0)
(0.356644 1.26456 0)
(0.314825 1.11628 0)
(0.281673 0.998736 0)
(0.254745 0.903258 0)
(0.232437 0.82416 0)
(0.213652 0.757552 0)
(0.197613 0.700683 0)
(0.183758 0.651557 0)
(0.171668 0.608688 0)
(0.161025 0.570949 0)
(0.151582 0.537469 0)
(0.143148 0.507565 0)
(0.13557 0.480694 0)
(0.128723 0.456417 0)
(0.122507 0.434378 0)
(0.116842 0.414292 0)
(0.111638 0.39584 0)
(0.106941 0.379186 0)
(0.348086 1.74992 0)
(0.295452 1.48533 0)
(0.256328 1.28864 0)
(0.226271 1.13754 0)
(0.202445 1.01776 0)
(0.183091 0.92046 0)
(0.167058 0.839856 0)
(0.153556 0.77198 0)
(0.142029 0.714028 0)
(0.132071 0.663966 0)
(0.123382 0.620281 0)
(0.115732 0.581823 0)
(0.108946 0.547706 0)
(0.102884 0.517232 0)
(0.0974371 0.489848 0)
(0.092516 0.465109 0)
(0.0880487 0.44265 0)
(0.0839773 0.422182 0)
(0.080237 0.403379 0)
(0.0768612 0.386407 0)
(0.209715 1.77184 0)
(0.178003 1.50393 0)
(0.154432 1.30478 0)
(0.136323 1.15179 0)
(0.121968 1.0305 0)
(0.110308 0.931988 0)
(0.100649 0.850375 0)
(0.0925142 0.781648 0)
(0.0855693 0.72297 0)
(0.0795699 0.672282 0)
(0.0743347 0.628049 0)
(0.0697259 0.58911 0)
(0.0656372 0.554565 0)
(0.0619853 0.52371 0)
(0.0587036 0.495983 0)
(0.0557388 0.470934 0)
(0.0530473 0.448194 0)
(0.0505944 0.427469 0)
(0.048341 0.408431 0)
(0.0463071 0.391247 0)
(0.0700496 1.78283 0)
(0.0594566 1.51326 0)
(0.0515832 1.31288 0)
(0.0455346 1.15893 0)
(0.0407398 1.0369 0)
(0.0368451 0.93777 0)
(0.0336186 0.85565 0)
(0.0309016 0.786497 0)
(0.0285819 0.727455 0)
(0.026578 0.676452 0)
(0.0248293 0.631945 0)
(0.0232899 0.592764 0)
(0.0219242 0.558005 0)
(0.0207044 0.526959 0)
(0.0196082 0.49906 0)
(0.0186179 0.473856 0)
(0.0177189 0.450974 0)
(0.0168995 0.430121 0)
(0.0161468 0.410964 0)
(0.0154675 0.393674 0)
(-0.0700498 1.78283 0)
(-0.0594569 1.51326 0)
(-0.0515834 1.31288 0)
(-0.0455348 1.15893 0)
(-0.0407399 1.0369 0)
(-0.0368451 0.93777 0)
(-0.0336186 0.85565 0)
(-0.0309016 0.786497 0)
(-0.0285818 0.727455 0)
(-0.0265778 0.676452 0)
(-0.0248291 0.631945 0)
(-0.0232897 0.592764 0)
(-0.021924 0.558005 0)
(-0.0207042 0.526959 0)
(-0.0196081 0.49906 0)
(-0.0186178 0.473856 0)
(-0.0177188 0.450975 0)
(-0.0168995 0.430121 0)
(-0.0161468 0.410964 0)
(-0.0154675 0.393674 0)
(-0.209715 1.77184 0)
(-0.178004 1.50393 0)
(-0.154432 1.30478 0)
(-0.136324 1.15179 0)
(-0.121968 1.0305 0)
(-0.110308 0.931988 0)
(-0.100649 0.850375 0)
(-0.0925142 0.781648 0)
(-0.0855692 0.72297 0)
(-0.0795698 0.672282 0)
(-0.0743345 0.628049 0)
(-0.0697257 0.58911 0)
(-0.0656371 0.554565 0)
(-0.0619851 0.52371 0)
(-0.0587035 0.495983 0)
(-0.0557387 0.470934 0)
(-0.0530473 0.448194 0)
(-0.0505943 0.427469 0)
(-0.048341 0.408431 0)
(-0.0463071 0.391247 0)
(-0.348086 1.74992 0)
(-0.295453 1.48533 0)
(-0.256328 1.28864 0)
(-0.226272 1.13754 0)
(-0.202445 1.01776 0)
(-0.183091 0.920461 0)
(-0.167058 0.839857 0)
(-0.153556 0.77198 0)
(-0.142029 0.714028 0)
(-0.132071 0.663966 0)
(-0.123382 0.620281 0)
(-0.115732 0.581823 0)
(-0.108945 0.547706 0)
(-0.102884 0.517232 0)
(-0.0974369 0.489849 0)
(-0.092516 0.465109 0)
(-0.0880487 0.44265 0)
(-0.0839773 0.422182 0)
(-0.0802371 0.403379 0)
(-0.0768612 0.386407 0)
(-0.48431 1.71722 0)
(-0.41108 1.45757 0)
(-0.356644 1.26456 0)
(-0.314825 1.11628 0)
(-0.281673 0.998737 0)
(-0.254745 0.903258 0)
(-0.232437 0.82416 0)
(-0.213652 0.757552 0)
(-0.197613 0.700683 0)
(-0.183758 0.651557 0)
(-0.171668 0.608688 0)
(-0.161024 0.570949 0)
(-0.151582 0.53747 0)
(-0.143148 0.507565 0)
(-0.13557 0.480694 0)
(-0.128723 0.456417 0)
(-0.122507 0.434378 0)
(-0.116842 0.414292 0)
(-0.111638 0.39584 0)
(-0.106941 0.379186 0)
(-0.617547 1.67392 0)
(-0.524172 1.42082 0)
(-0.454761 1.23268 0)
(-0.401437 1.08814 0)
(-0.359165 0.973558 0)
(-0.324829 0.880486 0)
(-0.296384 0.803383 0)
(-0.27243 0.738454 0)
(-0.251979 0.683019 0)
(-0.234312 0.635131 0)
(-0.218896 0.593343 0)
(-0.205324 0.556556 0)
(-0.193284 0.52392 0)
(-0.18253 0.49477 0)
(-0.172867 0.468575 0)
(-0.164136 0.44491 0)
(-0.15621 0.423427 0)
(-0.148987 0.403847 0)
(-0.142352 0.385861 0)
(-0.136362 0.369626 0)
(-0.746977 1.62031 0)
(-0.634032 1.37532 0)
(-0.550074 1.1932 0)
(-0.485574 1.05329 0)
(-0.434442 0.942377 0)
(-0.39291 0.852286 0)
(-0.358503 0.777652 0)
(-0.329529 0.714803 0)
(-0.304791 0.661143 0)
(-0.283422 0.61479 0)
(-0.264774 0.57434 0)
(-0.248358 0.53873 0)
(-0.233795 0.50714 0)
(-0.220787 0.478923 0)
(-0.209098 0.453568 0)
(-0.198537 0.430661 0)
(-0.188951 0.409866 0)
(-0.180213 0.390913 0)
(-0.172187 0.373503 0)
(-0.164943 0.357788 0)
(-0.871802 1.55671 0)
(-0.739983 1.32133 0)
(-0.641996 1.14636 0)
(-0.566717 1.01194 0)
(-0.507041 0.905386 0)
(-0.458568 0.818832 0)
(-0.418412 0.747127 0)
(-0.384596 0.686745 0)
(-0.355725 0.635192 0)
(-0.330784 0.590657 0)
(-0.30902 0.551795 0)
(-0.289861 0.517584 0)
(-0.272864 0.487233 0)
(-0.257682 0.460124 0)
(-0.24404 0.435764 0)
(-0.231715 0.413756 0)
(-0.220526 0.393777 0)
(-0.210329 0.375569 0)
(-0.200961 0.358842 0)
(-0.192506 0.343744 0)
(-0.991251 1.48351 0)
(-0.841372 1.2592 0)
(-0.729959 1.09246 0)
(-0.644366 0.964361 0)
(-0.576514 0.862813 0)
(-0.521399 0.780329 0)
(-0.475741 0.711996 0)
(-0.437292 0.654453 0)
(-0.404465 0.605324 0)
(-0.376107 0.562884 0)
(-0.351361 0.525849 0)
(-0.329577 0.493246 0)
(-0.310251 0.464323 0)
(-0.292989 0.438488 0)
(-0.277477 0.415274 0)
(-0.263463 0.394301 0)
(-0.250741 0.375261 0)
(-0.239147 0.357909 0)
(-0.228496 0.341968 0)
(-0.218882 0.327581 0)
(-1.10459 1.40116 0)
(-0.937574 1.18931 0)
(-0.813422 1.03182 0)
(-0.718043 0.910832 0)
(-0.642432 0.814921 0)
(-0.581016 0.737015 0)
(-0.530137 0.672475 0)
(-0.487291 0.618126 0)
(-0.450711 0.571724 0)
(-0.419111 0.531639 0)
(-0.391536 0.49666 0)
(-0.36726 0.465867 0)
(-0.345725 0.438549 0)
(-0.326489 0.414149 0)
(-0.309204 0.392223 0)
(-0.293588 0.372414 0)
(-0.279411 0.354431 0)
(-0.266491 0.338042 0)
(-0.254622 0.322987 0)
(-0.243909 0.309397 0)
(-1.21112 1.31018 0)
(-1.028 1.11208 0)
(-0.89187 0.964819 0)
(-0.787292 0.851687 0)
(-0.70439 0.762004 0)
(-0.637051 0.689157 0)
(-0.581265 0.628808 0)
(-0.534287 0.577988 0)
(-0.494179 0.534599 0)
(-0.459531 0.497117 0)
(-0.429296 0.46441 0)
(-0.40268 0.435616 0)
(-0.379067 0.410072 0)
(-0.357976 0.387256 0)
(-0.339024 0.366754 0)
(-0.321902 0.348231 0)
(-0.306358 0.331416 0)
(-0.292192 0.316092 0)
(-0.279178 0.302013 0)
(-0.267432 0.289307 0)
(-1.31018 1.21112 0)
(-1.11208 1.028 0)
(-0.964819 0.89187 0)
(-0.851688 0.787292 0)
(-0.762004 0.704389 0)
(-0.689157 0.63705 0)
(-0.628808 0.581264 0)
(-0.577988 0.534287 0)
(-0.534599 0.494178 0)
(-0.497118 0.459531 0)
(-0.46441 0.429296 0)
(-0.435617 0.40268 0)
(-0.410072 0.379067 0)
(-0.387256 0.357976 0)
(-0.366754 0.339024 0)
(-0.348232 0.321902 0)
(-0.331417 0.306358 0)
(-0.316092 0.292192 0)
(-0.302014 0.279178 0)
(-0.289307 0.267432 0)
(-1.40116 1.10459 0)
(-1.18931 0.937574 0)
(-1.03182 0.813422 0)
(-0.910832 0.718042 0)
(-0.814921 0.642432 0)
(-0.737015 0.581016 0)
(-0.672475 0.530137 0)
(-0.618126 0.487291 0)
(-0.571724 0.450711 0)
(-0.53164 0.419111 0)
(-0.496661 0.391536 0)
(-0.465868 0.36726 0)
(-0.43855 0.345724 0)
(-0.414149 0.326489 0)
(-0.392223 0.309204 0)
(-0.372414 0.293588 0)
(-0.354431 0.279411 0)
(-0.338042 0.266491 0)
(-0.322987 0.254622 0)
(-0.309397 0.243909 0)
(-1.48351 0.991251 0)
(-1.2592 0.841372 0)
(-1.09246 0.729959 0)
(-0.964362 0.644366 0)
(-0.862814 0.576514 0)
(-0.780329 0.521399 0)
(-0.711997 0.475741 0)
(-0.654453 0.437291 0)
(-0.605324 0.404464 0)
(-0.562884 0.376107 0)
(-0.525849 0.351361 0)
(-0.493246 0.329577 0)
(-0.464323 0.31025 0)
(-0.438489 0.292989 0)
(-0.415274 0.277477 0)
(-0.394301 0.263463 0)
(-0.375261 0.250742 0)
(-0.357909 0.239147 0)
(-0.341968 0.228496 0)
(-0.327581 0.218882 0)
(-1.55671 0.871802 0)
(-1.32133 0.739983 0)
(-1.14636 0.641995 0)
(-1.01195 0.566717 0)
(-0.905387 0.507041 0)
(-0.818832 0.458568 0)
(-0.747128 0.418412 0)
(-0.686745 0.384596 0)
(-0.635192 0.355725 0)
(-0.590658 0.330784 0)
(-0.551796 0.30902 0)
(-0.517584 0.289861 0)
(-0.487234 0.272864 0)
(-0.460125 0.257682 0)
(-0.435764 0.24404 0)
(-0.413757 0.231715 0)
(-0.393777 0.220526 0)
(-0.375569 0.210329 0)
(-0.358842 0.200961 0)
(-0.343744 0.192506 0)
(-1.62031 0.746977 0)
(-1.37532 0.634032 0)
(-1.1932 0.550074 0)
(-1.05329 0.485574 0)
(-0.942378 0.434442 0)
(-0.852287 0.39291 0)
(-0.777653 0.358503 0)
(-0.714803 0.329529 0)
(-0.661144 0.304791 0)
(-0.61479 0.283422 0)
(-0.57434 0.264774 0)
(-0.538731 0.248358 0)
(-0.50714 0.233795 0)
(-0.478924 0.220787 0)
(-0.453568 0.209098 0)
(-0.430661 0.198537 0)
(-0.409866 0.188951 0)
(-0.390913 0.180214 0)
(-0.373503 0.172187 0)
(-0.357788 0.164943 0)
(-1.67392 0.617547 0)
(-1.42082 0.524172 0)
(-1.23268 0.454761 0)
(-1.08814 0.401437 0)
(-0.973559 0.359165 0)
(-0.880487 0.324829 0)
(-0.803384 0.296384 0)
(-0.738454 0.27243 0)
(-0.68302 0.251979 0)
(-0.635132 0.234312 0)
(-0.593344 0.218896 0)
(-0.556556 0.205324 0)
(-0.52392 0.193284 0)
(-0.49477 0.18253 0)
(-0.468576 0.172867 0)
(-0.444911 0.164136 0)
(-0.423427 0.156211 0)
(-0.403848 0.148987 0)
(-0.385861 0.142352 0)
(-0.369627 0.136363 0)
(-1.71722 0.48431 0)
(-1.45757 0.41108 0)
(-1.26456 0.356644 0)
(-1.11628 0.314825 0)
(-0.998737 0.281673 0)
(-0.903259 0.254745 0)
(-0.824161 0.232437 0)
(-0.757553 0.213652 0)
(-0.700684 0.197613 0)
(-0.651558 0.183758 0)
(-0.608689 0.171668 0)
(-0.57095 0.161024 0)
(-0.53747 0.151582 0)
(-0.507566 0.143148 0)
(-0.480694 0.13557 0)
(-0.456417 0.128723 0)
(-0.434378 0.122507 0)
(-0.414292 0.116843 0)
(-0.395841 0.111639 0)
(-0.379186 0.106942 0)
(-1.74992 0.348086 0)
(-1.48533 0.295453 0)
(-1.28865 0.256328 0)
(-1.13754 0.226272 0)
(-1.01776 0.202445 0)
(-0.920461 0.183091 0)
(-0.839857 0.167058 0)
(-0.77198 0.153556 0)
(-0.714029 0.142029 0)
(-0.663967 0.132071 0)
(-0.620282 0.123382 0)
(-0.581824 0.115732 0)
(-0.547706 0.108945 0)
(-0.517233 0.102884 0)
(-0.489849 0.097437 0)
(-0.46511 0.092516 0)
(-0.442651 0.0880488 0)
(-0.422183 0.0839773 0)
(-0.403379 0.0802372 0)
(-0.386408 0.0768613 0)
(-1.77184 0.209715 0)
(-1.50393 0.178004 0)
(-1.30478 0.154432 0)
(-1.15179 0.136323 0)
(-1.0305 0.121968 0)
(-0.931989 0.110308 0)
(-0.850376 0.100649 0)
(-0.781649 0.0925141 0)
(-0.722971 0.0855692 0)
(-0.672282 0.0795698 0)
(-0.62805 0.0743345 0)
(-0.589111 0.0697258 0)
(-0.554566 0.0656371 0)
(-0.52371 0.0619852 0)
(-0.495984 0.0587035 0)
(-0.470935 0.0557388 0)
(-0.448195 0.0530473 0)
(-0.42747 0.0505944 0)
(-0.408431 0.048341 0)
(-0.391247 0.0463072 0)
(-1.78283 0.0700497 0)
(-1.51326 0.0594568 0)
(-1.31288 0.0515832 0)
(-1.15893 0.0455346 0)
(-1.0369 0.0407397 0)
(-0.937771 0.036845 0)
(-0.855651 0.0336185 0)
(-0.786498 0.0309015 0)
(-0.727456 0.0285818 0)
(-0.676453 0.0265778 0)
(-0.631946 0.0248292 0)
(-0.592765 0.0232898 0)
(-0.558006 0.0219241 0)
(-0.526959 0.0207043 0)
(-0.499061 0.0196081 0)
(-0.473856 0.0186179 0)
(-0.450975 0.0177189 0)
(-0.430122 0.0168995 0)
(-0.410965 0.0161469 0)
(-0.393674 0.0154675 0)
(-1.78283 -0.0700498 0)
(-1.51326 -0.0594569 0)
(-1.31288 -0.0515834 0)
(-1.15893 -0.0455349 0)
(-1.0369 -0.04074 0)
(-0.937771 -0.0368452 0)
(-0.855651 -0.0336187 0)
(-0.786498 -0.0309016 0)
(-0.727456 -0.0285819 0)
(-0.676453 -0.026578 0)
(-0.631946 -0.0248293 0)
(-0.592765 -0.0232898 0)
(-0.558006 -0.0219241 0)
(-0.526959 -0.0207043 0)
(-0.499061 -0.0196082 0)
(-0.473856 -0.0186179 0)
(-0.450975 -0.0177188 0)
(-0.430122 -0.0168995 0)
(-0.410965 -0.0161468 0)
(-0.393674 -0.0154675 0)
(-1.77184 -0.209715 0)
(-1.50393 -0.178004 0)
(-1.30478 -0.154432 0)
(-1.15179 -0.136324 0)
(-1.0305 -0.121969 0)
(-0.931989 -0.110308 0)
(-0.850376 -0.100649 0)
(-0.781649 -0.0925143 0)
(-0.722971 -0.0855693 0)
(-0.672282 -0.0795699 0)
(-0.62805 -0.0743346 0)
(-0.589111 -0.0697258 0)
(-0.554566 -0.0656372 0)
(-0.52371 -0.0619852 0)
(-0.495984 -0.0587036 0)
(-0.470935 -0.0557388 0)
(-0.448195 -0.0530473 0)
(-0.42747 -0.0505944 0)
(-0.408431 -0.048341 0)
(-0.391247 -0.0463071 0)
(-1.74992 -0.348086 0)
(-1.48533 -0.295453 0)
(-1.28865 -0.256328 0)
(-1.13754 -0.226272 0)
(-1.01776 -0.202445 0)
(-0.920462 -0.183091 0)
(-0.839857 -0.167058 0)
(-0.77198 -0.153557 0)
(-0.714029 -0.142029 0)
(-0.663967 -0.132071 0)
(-0.620282 -0.123382 0)
(-0.581824 -0.115732 0)
(-0.547706 -0.108946 0)
(-0.517233 -0.102884 0)
(-0.489849 -0.0974371 0)
(-0.46511 -0.0925161 0)
(-0.442651 -0.0880487 0)
(-0.422183 -0.0839773 0)
(-0.403379 -0.0802371 0)
(-0.386408 -0.0768613 0)
(-1.71722 -0.48431 0)
(-1.45757 -0.41108 0)
(-1.26456 -0.356644 0)
(-1.11628 -0.314825 0)
(-0.998738 -0.281673 0)
(-0.903259 -0.254745 0)
(-0.824161 -0.232438 0)
(-0.757553 -0.213652 0)
(-0.700684 -0.197613 0)
(-0.651558 -0.183758 0)
(-0.608689 -0.171668 0)
(-0.57095 -0.161025 0)
(-0.53747 -0.151582 0)
(-0.507566 -0.143148 0)
(-0.480694 -0.13557 0)
(-0.456417 -0.128723 0)
(-0.434378 -0.122507 0)
(-0.414292 -0.116843 0)
(-0.395841 -0.111639 0)
(-0.379186 -0.106942 0)
(-1.67392 -0.617548 0)
(-1.42082 -0.524172 0)
(-1.23268 -0.454761 0)
(-1.08814 -0.401437 0)
(-0.973559 -0.359165 0)
(-0.880487 -0.324829 0)
(-0.803384 -0.296384 0)
(-0.738455 -0.27243 0)
(-0.68302 -0.251979 0)
(-0.635132 -0.234313 0)
(-0.593344 -0.218896 0)
(-0.556556 -0.205324 0)
(-0.52392 -0.193284 0)
(-0.49477 -0.18253 0)
(-0.468576 -0.172867 0)
(-0.444911 -0.164136 0)
(-0.423427 -0.156211 0)
(-0.403848 -0.148987 0)
(-0.385861 -0.142352 0)
(-0.369627 -0.136363 0)
(-1.62031 -0.746978 0)
(-1.37532 -0.634033 0)
(-1.1932 -0.550074 0)
(-1.05329 -0.485574 0)
(-0.942378 -0.434442 0)
(-0.852287 -0.39291 0)
(-0.777653 -0.358503 0)
(-0.714804 -0.329529 0)
(-0.661144 -0.304792 0)
(-0.61479 -0.283422 0)
(-0.57434 -0.264774 0)
(-0.538731 -0.248358 0)
(-0.50714 -0.233795 0)
(-0.478924 -0.220787 0)
(-0.453568 -0.209098 0)
(-0.430661 -0.198538 0)
(-0.409866 -0.188951 0)
(-0.390914 -0.180214 0)
(-0.373503 -0.172187 0)
(-0.357789 -0.164943 0)
(-1.55671 -0.871802 0)
(-1.32133 -0.739984 0)
(-1.14636 -0.641996 0)
(-1.01195 -0.566717 0)
(-0.905387 -0.507041 0)
(-0.818833 -0.458568 0)
(-0.747128 -0.418412 0)
(-0.686746 -0.384596 0)
(-0.635192 -0.355725 0)
(-0.590658 -0.330784 0)
(-0.551796 -0.30902 0)
(-0.517584 -0.289861 0)
(-0.487234 -0.272864 0)
(-0.460125 -0.257682 0)
(-0.435765 -0.24404 0)
(-0.413757 -0.231715 0)
(-0.393778 -0.220526 0)
(-0.375569 -0.210329 0)
(-0.358842 -0.200961 0)
(-0.343744 -0.192506 0)
(-1.48351 -0.991252 0)
(-1.2592 -0.841373 0)
(-1.09246 -0.729959 0)
(-0.964362 -0.644366 0)
(-0.862814 -0.576514 0)
(-0.78033 -0.5214 0)
(-0.711997 -0.475741 0)
(-0.654454 -0.437292 0)
(-0.605324 -0.404465 0)
(-0.562884 -0.376107 0)
(-0.52585 -0.351361 0)
(-0.493247 -0.329577 0)
(-0.464323 -0.310251 0)
(-0.438489 -0.292989 0)
(-0.415274 -0.277477 0)
(-0.394301 -0.263463 0)
(-0.375261 -0.250742 0)
(-0.357909 -0.239147 0)
(-0.341969 -0.228496 0)
(-0.327581 -0.218883 0)
(-1.40116 -1.10459 0)
(-1.18931 -0.937575 0)
(-1.03182 -0.813422 0)
(-0.910833 -0.718043 0)
(-0.814922 -0.642432 0)
(-0.737016 -0.581016 0)
(-0.672476 -0.530137 0)
(-0.618127 -0.487291 0)
(-0.571725 -0.450711 0)
(-0.53164 -0.419111 0)
(-0.496661 -0.391536 0)
(-0.465868 -0.36726 0)
(-0.43855 -0.345725 0)
(-0.414149 -0.326489 0)
(-0.392223 -0.309204 0)
(-0.372415 -0.293588 0)
(-0.354432 -0.279411 0)
(-0.338043 -0.266491 0)
(-0.322987 -0.254622 0)
(-0.309398 -0.243909 0)
(-1.31018 -1.21112 0)
(-1.11208 -1.028 0)
(-0.96482 -0.89187 0)
(-0.851688 -0.787292 0)
(-0.762005 -0.70439 0)
(-0.689158 -0.637051 0)
(-0.628809 -0.581265 0)
(-0.577989 -0.534287 0)
(-0.5346 -0.494179 0)
(-0.497118 -0.459531 0)
(-0.464411 -0.429296 0)
(-0.435617 -0.40268 0)
(-0.410073 -0.379067 0)
(-0.387257 -0.357976 0)
(-0.366754 -0.339024 0)
(-0.348232 -0.321902 0)
(-0.331417 -0.306358 0)
(-0.316092 -0.292192 0)
(-0.302014 -0.279179 0)
(-0.289307 -0.267433 0)
(-1.21112 -1.31018 0)
(-1.028 -1.11208 0)
(-0.89187 -0.96482 0)
(-0.787293 -0.851688 0)
(-0.70439 -0.762005 0)
(-0.637051 -0.689157 0)
(-0.581265 -0.628808 0)
(-0.534287 -0.577988 0)
(-0.494179 -0.534599 0)
(-0.459531 -0.497118 0)
(-0.429297 -0.46441 0)
(-0.40268 -0.435617 0)
(-0.379067 -0.410072 0)
(-0.357976 -0.387257 0)
(-0.339024 -0.366754 0)
(-0.321902 -0.348232 0)
(-0.306358 -0.331417 0)
(-0.292192 -0.316092 0)
(-0.279179 -0.302014 0)
(-0.267433 -0.289307 0)
(-1.10459 -1.40116 0)
(-0.937575 -1.18931 0)
(-0.813422 -1.03182 0)
(-0.718043 -0.910833 0)
(-0.642433 -0.814921 0)
(-0.581016 -0.737015 0)
(-0.530137 -0.672476 0)
(-0.487292 -0.618126 0)
(-0.450711 -0.571724 0)
(-0.419111 -0.53164 0)
(-0.391536 -0.496661 0)
(-0.367261 -0.465868 0)
(-0.345725 -0.43855 0)
(-0.326489 -0.414149 0)
(-0.309204 -0.392223 0)
(-0.293588 -0.372414 0)
(-0.279411 -0.354432 0)
(-0.266491 -0.338043 0)
(-0.254622 -0.322987 0)
(-0.243909 -0.309398 0)
(-0.991252 -1.48351 0)
(-0.841373 -1.2592 0)
(-0.729959 -1.09246 0)
(-0.644367 -0.964362 0)
(-0.576514 -0.862814 0)
(-0.5214 -0.780329 0)
(-0.475741 -0.711997 0)
(-0.437292 -0.654453 0)
(-0.404465 -0.605324 0)
(-0.376107 -0.562884 0)
(-0.351362 -0.525849 0)
(-0.329577 -0.493246 0)
(-0.310251 -0.464323 0)
(-0.292989 -0.438489 0)
(-0.277477 -0.415274 0)
(-0.263464 -0.394301 0)
(-0.250742 -0.375261 0)
(-0.239147 -0.357909 0)
(-0.228496 -0.341969 0)
(-0.218883 -0.327581 0)
(-0.871802 -1.55671 0)
(-0.739984 -1.32133 0)
(-0.641996 -1.14636 0)
(-0.566717 -1.01195 0)
(-0.507041 -0.905387 0)
(-0.458569 -0.818832 0)
(-0.418412 -0.747128 0)
(-0.384596 -0.686745 0)
(-0.355725 -0.635192 0)
(-0.330785 -0.590658 0)
(-0.309021 -0.551796 0)
(-0.289861 -0.517584 0)
(-0.272864 -0.487234 0)
(-0.257682 -0.460125 0)
(-0.24404 -0.435765 0)
(-0.231715 -0.413757 0)
(-0.220526 -0.393778 0)
(-0.210329 -0.375569 0)
(-0.200961 -0.358842 0)
(-0.192506 -0.343744 0)
(-0.746978 -1.62031 0)
(-0.634033 -1.37532 0)
(-0.550074 -1.1932 0)
(-0.485574 -1.05329 0)
(-0.434443 -0.942378 0)
(-0.39291 -0.852287 0)
(-0.358503 -0.777653 0)
(-0.329529 -0.714803 0)
(-0.304792 -0.661144 0)
(-0.283422 -0.61479 0)
(-0.264775 -0.57434 0)
(-0.248359 -0.538731 0)
(-0.233795 -0.50714 0)
(-0.220787 -0.478924 0)
(-0.209098 -0.453568 0)
(-0.198538 -0.430661 0)
(-0.188951 -0.409866 0)
(-0.180214 -0.390914 0)
(-0.172187 -0.373503 0)
(-0.164943 -0.357789 0)
(-0.617548 -1.67392 0)
(-0.524172 -1.42082 0)
(-0.454761 -1.23268 0)
(-0.401437 -1.08814 0)
(-0.359165 -0.973559 0)
(-0.324829 -0.880487 0)
(-0.296384 -0.803384 0)
(-0.27243 -0.738454 0)
(-0.251979 -0.68302 0)
(-0.234313 -0.635132 0)
(-0.218896 -0.593344 0)
(-0.205325 -0.556556 0)
(-0.193284 -0.52392 0)
(-0.18253 -0.49477 0)
(-0.172867 -0.468576 0)
(-0.164136 -0.444911 0)
(-0.156211 -0.423427 0)
(-0.148987 -0.403848 0)
(-0.142352 -0.385861 0)
(-0.136363 -0.369627 0)
(-0.48431 -1.71722 0)
(-0.41108 -1.45757 0)
(-0.356644 -1.26456 0)
(-0.314825 -1.11628 0)
(-0.281673 -0.998737 0)
(-0.254746 -0.903259 0)
(-0.232438 -0.824161 0)
(-0.213652 -0.757553 0)
(-0.197613 -0.700684 0)
(-0.183758 -0.651558 0)
(-0.171668 -0.608689 0)
(-0.161025 -0.57095 0)
(-0.151582 -0.53747 0)
(-0.143148 -0.507566 0)
(-0.13557 -0.480694 0)
(-0.128723 -0.456417 0)
(-0.122507 -0.434378 0)
(-0.116843 -0.414292 0)
(-0.111639 -0.395841 0)
(-0.106942 -0.379186 0)
(-0.348086 -1.74992 0)
(-0.295453 -1.48533 0)
(-0.256328 -1.28865 0)
(-0.226272 -1.13754 0)
(-0.202445 -1.01776 0)
(-0.183091 -0.920461 0)
(-0.167058 -0.839857 0)
(-0.153557 -0.77198 0)
(-0.142029 -0.714029 0)
(-0.132071 -0.663967 0)
(-0.123382 -0.620282 0)
(-0.115732 -0.581824 0)
(-0.108946 -0.547706 0)
(-0.102884 -0.517233 0)
(-0.0974371 -0.489849 0)
(-0.0925161 -0.46511 0)
(-0.0880488 -0.442651 0)
(-0.0839773 -0.422183 0)
(-0.0802371 -0.403379 0)
(-0.0768613 -0.386408 0)
(-0.209715 -1.77184 0)
(-0.178004 -1.50393 0)
(-0.154432 -1.30478 0)
(-0.136324 -1.15179 0)
(-0.121969 -1.0305 0)
(-0.110308 -0.931989 0)
(-0.100649 -0.850376 0)
(-0.0925142 -0.781649 0)
(-0.0855693 -0.722971 0)
(-0.0795699 -0.672282 0)
(-0.0743346 -0.62805 0)
(-0.0697258 -0.589111 0)
(-0.0656372 -0.554566 0)
(-0.0619852 -0.52371 0)
(-0.0587036 -0.495984 0)
(-0.0557388 -0.470935 0)
(-0.0530473 -0.448195 0)
(-0.0505944 -0.42747 0)
(-0.048341 -0.408431 0)
(-0.0463071 -0.391247 0)
(-0.0700498 -1.78283 0)
(-0.0594569 -1.51326 0)
(-0.0515834 -1.31288 0)
(-0.0455349 -1.15893 0)
(-0.04074 -1.0369 0)
(-0.0368452 -0.937771 0)
(-0.0336187 -0.855651 0)
(-0.0309016 -0.786498 0)
(-0.0285818 -0.727456 0)
(-0.0265779 -0.676453 0)
(-0.0248292 -0.631946 0)
(-0.0232898 -0.592765 0)
(-0.0219241 -0.558006 0)
(-0.0207043 -0.526959 0)
(-0.0196081 -0.499061 0)
(-0.0186178 -0.473856 0)
(-0.0177188 -0.450975 0)
(-0.0168995 -0.430122 0)
(-0.0161468 -0.410965 0)
(-0.0154675 -0.393674 0)
(1.78283 -0.0700498 0)
(1.77184 -0.209715 0)
(1.74992 -0.348086 0)
(1.71722 -0.48431 0)
(1.67392 -0.617547 0)
(1.62031 -0.746977 0)
(1.55671 -0.871802 0)
(1.48351 -0.991251 0)
(1.40116 -1.10459 0)
(1.31018 -1.21112 0)
(1.21112 -1.31018 0)
(1.10459 -1.40116 0)
(0.991251 -1.48351 0)
(0.871802 -1.55671 0)
(0.746977 -1.62031 0)
(0.617547 -1.67392 0)
(0.48431 -1.71722 0)
(0.348086 -1.74992 0)
(0.209715 -1.77184 0)
(0.0700497 -1.78283 0)
(1.51326 -0.0594569 0)
(1.50393 -0.178004 0)
(1.48533 -0.295453 0)
(1.45757 -0.41108 0)
(1.42082 -0.524172 0)
(1.37532 -0.634032 0)
(1.32133 -0.739983 0)
(1.2592 -0.841372 0)
(1.18931 -0.937574 0)
(1.11208 -1.028 0)
(1.028 -1.11208 0)
(0.937574 -1.18931 0)
(0.841372 -1.2592 0)
(0.739983 -1.32133 0)
(0.634032 -1.37532 0)
(0.524172 -1.42082 0)
(0.411079 -1.45757 0)
(0.295452 -1.48533 0)
(0.178003 -1.50393 0)
(0.0594567 -1.51326 0)
(1.31288 -0.0515834 0)
(1.30478 -0.154432 0)
(1.28864 -0.256328 0)
(1.26456 -0.356644 0)
(1.23268 -0.454761 0)
(1.1932 -0.550074 0)
(1.14636 -0.641996 0)
(1.09246 -0.729959 0)
(1.03182 -0.813422 0)
(0.964819 -0.89187 0)
(0.89187 -0.964819 0)
(0.813422 -1.03182 0)
(0.729959 -1.09246 0)
(0.641995 -1.14636 0)
(0.550074 -1.1932 0)
(0.454761 -1.23268 0)
(0.356644 -1.26456 0)
(0.256328 -1.28865 0)
(0.154432 -1.30478 0)
(0.0515832 -1.31288 0)
(1.15893 -0.0455349 0)
(1.15179 -0.136324 0)
(1.13754 -0.226272 0)
(1.11628 -0.314825 0)
(1.08814 -0.401437 0)
(1.05329 -0.485574 0)
(1.01194 -0.566717 0)
(0.964361 -0.644366 0)
(0.910832 -0.718042 0)
(0.851687 -0.787292 0)
(0.787292 -0.851688 0)
(0.718042 -0.910832 0)
(0.644366 -0.964361 0)
(0.566717 -1.01195 0)
(0.485574 -1.05329 0)
(0.401437 -1.08814 0)
(0.314825 -1.11628 0)
(0.226272 -1.13754 0)
(0.136323 -1.15179 0)
(0.0455347 -1.15893 0)
(1.0369 -0.04074 0)
(1.0305 -0.121968 0)