/*--------------------------------*- C++ -*----------------------------------*\
| =========                 |                                                 |
| \\      /  F ield         | foam-extend: Open Source CFD                    |
|  \\    /   O peration     | Version:  3.0                                   |
|   \\  /    A nd           | Web:         http://www.extend-project.de       |
|    \\/     M anipulation  |                                                 |
\*---------------------------------------------------------------------------*/
FoamFile
{
    version     2.0;
    format      ascii;
    class       volScalarField;
    location    "24";
    object      Theta;
}
// * * * * * * * * * * * * * * * * * * * * * * * * * * * * * * * * * * * * * //

dimensions      [0 2 -2 0 0 0 0];

internalField   nonuniform List<scalar> 
3012
(
-2.59432
1.77537
4.20151
-0.269898
24.3095
7.91592
-18.7746
-2.74894
-2.51962
3.72055
-2.76546
3.64407
1.01228
-0.697917
2.52662
0.858542
-17.661
-22.0276
15.8138
21.6258
1.15345
0.0095028
1.77397
0.88357
3.99633
-2.56999
5.36926
-1.82414
-1.56705
3.91374
-0.106275
2.34167
0.449732
2.85965
-0.88256
1.47518
2.80665
7.86525
-6.08754
-1.61085
0.962396
3.10524
1.16488
-0.963681
0.917529
1.10241
-1.17185
3.16731
0.688642
1.58166
0.221767
1.05151
-4.09018
1.68843
1.39552
6.8317
-5.15896
-12.9599
3.00224
10.9398
-12.9735
11.1389
19.9468
-3.7431
0.957949
-1.7207
4.1289
1.40646
1.99261
1.08854
0.963475
0.0264448
2.28873
1.32074
0.0876225
-0.396211
-0.677372
2.72054
1.82712
0.226041
0.918453
-1.43859
1.12707
3.48216
2.88305
0.844645
1.02765
-0.80826
-0.201506
3.7346
-1.45125
2.51307
2.9481
-1.7713
-0.227002
4.00513
-5.67383
3.87793
-3.20683
6.23687
4.00352
2.0558
0.345544
-1.66386
3.38876
-0.87737
3.04413
-1.0612
2.21161
0.830459
-0.321646
1.16975
-1.052
3.27793
1.19059
1.05223
2.43907
0.0807864
2.33554
0.201605
-0.847869
-0.0633385
0.843366
2.69081
4.57519
-9.21813
7.17054
-6.62038
26.0159
-27.4839
4.0804
-4.80967
-2.06009
1.46762
9.1115
5.00383
-13.6292
12.1561
21.7421
-7.49894
9.24345
-2.2681
-5.27022
5.30646
6.89729
7.73859
-4.63532
-2.03317
5.78249
-21.9154
-5.99823
19.855
0.246804
-0.771252
1.82313
2.87828
2.31174
3.27463
-1.0962
-0.113185
2.5491
-0.413977
1.9961
0.0795662
-3.48537
-5.18407
5.21592
6.90467
0.455492
3.0212
-1.06211
1.47583
9.949
9.36834
-9.22189
-9.3058
-7.84743
11.0281
13.5487
-7.87289
-7.42201
2.05185
7.84055
-1.23762
3.4374
-1.56289
-1.0974
4.11106
-0.189419
2.68636
2.138
-0.781969
2.29011
-0.189098
2.02431
0.0547914
2.02615
3.08076
-1.03204
0.0800155
0.863967
-0.442119
0.81927
2.09851
1.17952
4.52587
-2.13317
1.35812
1.44956
1.2429
1.11297
0.25357
1.10301
1.6919
0.0226192
1.06064
3.25637
1.43378
0.49117
-1.20447
0.310845
1.03626
0.874039
0.442034
0.174931
-0.24686
1.39469
1.95952
0.9036
1.65162
1.05725
-0.0998202
0.890661
0.139366
1.17941
0.430517
3.01801
2.42966
-0.474756
-1.13436
2.29443
-0.917146
3.14454
-0.0558129
-0.210449
3.21109
2.47767
-0.785926
1.66051
-1.74422
0.548719
4.01393
-1.87906
4.19241
3.80908
-1.39744
5.84505
1.51927
-1.96028
1.6076
1.07948
1.86755
0.181095
-0.335621
0.755227
0.142014
0.640661
1.41772
2.17983
-0.474368
-1.08646
2.85682
1.28715
4.15363
1.03428
-1.82964
1.51666
-1.22614
3.251
0.431075
-5.0948
2.48725
0.37896
8.20938
0.886539
1.50565
0.197805
1.04969
16.1372
-15.6521
-18.2248
14.0095
-16.0006
21.7229
4.31913
0.735093
-0.351662
-1.93748
2.71719
4.32155
3.04073
-0.70829
-1.65885
4.21778
1.9774
-1.32383
3.4682
-0.03158
-1.05076
-1.27233
1.51971
1.0161
5.53522
-1.2126
-3.74544
2.55617
3.26904
3.57156
-1.04924
-0.786755
0.555698
1.41293
0.367088
1.34704
-0.00714807
-0.863504
2.14301
3.08021
-4.17247
0.107298
2.86656
8.55588
2.46301
0.507722
1.50696
-0.497178
2.10457
-0.0379426
2.02499
-0.0755039
1.26115
0.571004
1.35852
0.219838
-0.187766
3.49153
-1.21375
2.13399
1.06429
3.51511
1.2897
-1.15883
0.797223
1.95932
-0.0693713
0.0552408
0.722673
0.123543
1.94877
1.26532
-0.591837
2.58834
2.7068
-0.406718
0.231737
3.22311
-1.08852
1.89198
-0.0915925
2.71443
-1.71443
1.27435
-2.81119
3.60066
5.92118
-0.201142
2.163
2.05514
-0.411244
-0.154511
-0.474324
0.335678
1.17678
1.87341
-0.0114287
-1.45492
3.63756
2.06829
4.07464
-1.88226
-1.21742
5.06548
3.24376
-1.93866
-2.04895
2.98268
-1.01672
2.3841
-0.267146
3.14365
2.36911
-0.890067
-1.08381
2.40675
0.904017
-1.14133
1.36263
3.34476
-1.41278
-4.92878
9.74939
7.42444
1.63386
-2.88675
1.29061
6.03714
-9.86888
9.10036
-10.9046
7.90161
-0.853449
-0.468893
3.21387
2.75889
1.57229
-0.299238
0.675084
1.85193
-0.271207
2.50968
0.763364
1.00226
-1.31325
-0.0469339
2.29807
3.59157
-2.14261
1.38587
3.95197
0.225244
-2.64812
2.67169
4.65744
-0.495596
0.0668946
-0.111202
1.87303
-0.0481783
6.06368
0.5925
-3.72082
1.39973
1.35756
1.22842
1.27498
0.766446
-32.6395
5.59807
-8.6942
30.4387
5.41616
2.33676
0.300524
-2.49735
1.1979
1.12283
0.564933
0.537328
8.06248
8.85446
-5.27448
-2.97543
2.88543
5.22521
-2.24122
-0.376954
1.8263
0.215543
0.203899
1.69925
-1.38658
-2.13074
4.80023
4.08148
0.975622
-1.54942
0.931119
3.64179
-20.4261
10.3908
-10.6465
21.7649
1.84126
2.11879
-0.421759
-0.198893
0.783951
-0.686554
1.08888
2.60142
-0.647892
2.55342
1.98321
-1.2338
0.189436
3.45276
-1.14662
1.8289
-20.8642
-17.5789
14.9941
19.2494
0.0333127
2.8664
2.35619
-0.646396
5.59921
0.133479
3.02436
-2.74099
-0.314211
2.47564
-0.340621
2.49306
-0.0293987
2.19016
-0.188849
1.96964
3.00515
0.584587
-1.14197
1.45018
22.7293
-21.4893
-5.10224
6.21746
4.09986
3.20583
-1.64826
-0.907443
4.45768
0.591936
1.73689
-2.22922
0.240625
2.37759
-2.69343
5.40599
0.969969
-1.07373
3.0733
1.29356
2.55889
2.89343
-0.844807
-0.565825
0.524021
1.84008
-2.09052
4.54053
0.00677621
2.23335
-1.10264
3.22407
0.188749
-1.16044
1.35115
2.73846
1.2568
-0.30742
0.0488531
2.19765
3.62125
2.48985
-0.332646
-1.50739
1.19494
-0.542455
0.414064
2.29842
0.098711
0.924314
1.10448
1.90982
-18.7285
28.8574
-31.2124
16.144
0.692212
1.93347
-2.31116
5.03648
3.86628
2.14549
-1.6517
0.183914
-0.592594
5.55673
-2.26705
4.45865
-15.146
19.6534
-10.613
13.9269
2.67348
-15.8365
1.90295
20.8949
-2.04946
2.23548
3.81093
-0.567723
-0.291592
3.35026
2.29456
-1.12376
-3.86897
3.75644
-1.7163
6.00329
1.50547
-0.90857
0.298735
3.07466
0.318245
1.42247
0.593337
1.05952
-3.04761
2.34128
4.10855
-1.17872
1.57922
2.85259
-0.83337
0.867343
1.04616
0.943242
0.569668
0.937721
2.81929
0.0404385
1.63107
-1.18664
14.6052
1.24048
5.23814
-8.42735
-2.73661
3.5187
-0.411309
5.51463
-1.25466
-3.40602
4.51118
7.21027
-6.20057
7.05404
-4.32135
11.4494
3.82046
-12.7697
10.6922
-5.05997
10.3294
-2.43082
8.37146
-3.13907
-3.76772
4.16621
5.25023
-4.74369
1.19543
1.17427
0.287497
0.448407
-0.259715
4.95736
-2.29872
2.88191
-24.1994
-4.27443
23.8976
4.68944
-1.54842
3.62635
-0.382447
2.48265
5.43559
-2.6508
3.00655
-0.255417
0.799422
1.25677
0.837746
0.970045
4.13316
2.10903
-1.68467
0.333891
1.55717
0.371837
0.162436
0.495173
-16.8207
-20.8759
17.1834
20.9681
2.03578
3.95942
-1.47351
0.243792
3.4103
-0.991364
-0.702487
3.32211
2.82784
0.615159
1.44536
-0.326712
3.37561
2.75474
-1.06267
-0.669328
1.82641
-1.033
0.577191
3.48517
0.33445
2.22924
1.74558
-0.316844
-9.0633
11.5624
10.6524
-10.6193
0.588852
4.1128
1.09708
-2.75023
-2.93606
2.60739
5.36317
0.0277236
-2.11087
-3.74723
3.13105
4.85982
2.33156
-6.12924
8.86825
0.367003
-0.635326
-2.72441
4.39131
2.68107
0.483759
3.34907
7.38057
-3.99364
2.12394
-0.078863
2.39614
-0.289385
2.72265
2.06507
-0.198777
-0.782664
-2.02134
1.10377
6.23519
2.18525
1.96286
-0.389228
-0.57405
2.12938
-2.33453
3.1922
5.61353
-0.310642
2.79517
0.172745
1.64667
-0.81729
4.783
0.43413
2.21261
-2.24253
3.86412
1.21942
-2.11467
0.775808
0.0205403
2.24903
-2.0114
4.3057
-0.449056
0.610493
2.65812
1.45074
1.4852
1.67085
2.71246
-0.407513
3.88949
-1.01911
-1.42595
3.36252
2.28375
-1.2857
2.71499
-0.742828
0.873425
4.50788
1.51385
-2.06803
-1.34236
3.29853
2.48841
-0.470055
3.15776
-1.2282
1.36662
0.400663
-1.07459
3.03312
3.22231
-0.750709
0.747041
1.58405
3.33371
-1.1211
-0.446364
0.17523
2.41015
2.1422
1.08008
1.03222
-12.1466
14.1346
-0.365145
3.12137
2.28998
-1.01013
-4.77928
5.76312
5.68455
-4.99699
3.71047
-8.97157
-2.65951
9.3818
2.77152
0.64154
-0.549458
1.33298
7.4731
1.14164
-1.02785
5.04769
2.82708
0.57358
2.02348
6.50356
-0.376148
9.39482
2.52874
-7.75203
-2.86338
3.42462
5.40721
-0.908269
0.859812
0.449742
0.869345
1.19036
1.13703
0.675508
1.0104
0.522666
-5.59376
0.848115
5.89069
-0.18302
2.50048
1.84667
-0.58253
0.309079
1.72628
-0.287196
0.00290467
2.04799
-2.84607
1.03155
5.37495
8.78482
1.42622
-3.60006
1.53923
6.81494
-1.87171
3.14171
4.56492
-0.584414
-3.45059
6.46649
-0.501592
3.71914
3.15729
2.05112
0.0746629
-0.959398
-0.587847
2.92837
-0.672155
2.9852
1.57021
-3.81127
0.261344
5.7637
2.85902
-0.133263
-0.918575
1.83004
1.01016
-1.19869
3.44178
0.964675
4.47703
-2.20402
0.892037
1.34965
-1.41274
0.873329
0.342617
2.58546
2.80838
-0.696301
-0.6014
2.71983
1.55703
0.62024
3.37803
-1.11199
-0.0252165
-0.964429
2.64032
1.64844
0.413041
1.52044
2.18309
-0.219587
1.32558
-0.57498
0.991539
2.72504
-2.4295
3.9308
-1.77778
4.55217
3.0026
1.15495
0.515811
-1.14623
-1.17091
3.19803
2.67044
-0.586029
2.08793
-0.868315
-0.274736
2.62741
-0.601385
2.76748
0.0307174
1.88374
3.74794
-1.64879
-1.45494
3.8779
3.09407
-2.28729
-0.503183
4.89932
1.87574
-1.12106
0.209322
3.34212
3.20065
2.16364
0.0451011
-1.04898
-0.751066
2.89312
1.26682
0.990638
3.58902
2.10329
-0.0500408
-1.58001
9.70662
1.36884
-4.49201
2.77887
0.54598
-0.481193
-9.98818
9.97142
4.80382
0.658483
1.64391
-2.54633
1.11362
2.27263
0.635258
-0.495405
0.684509
-0.432398
2.35924
1.12358
1.50362
-1.01394
3.22575
0.611251
-4.27663
5.70113
4.0897
-2.6579
3.4812
-5.03447
-10.1652
8.60543
1.1548
2.11116
0.615295
-0.337516
1.13748
-1.2046
1.19483
3.45585
0.316535
2.46065
1.67674
-0.399198
-1.02474
2.12305
3.33453
0.0367925
-0.355781
2.90405
2.24189
-1.11656
-0.237242
2.33026
-0.104141
2.07268
14.8582
-7.77613
-5.11644
10.1885
-1.03954
0.230772
3.32834
2.03531
2.70951
-0.202651
-0.461032
2.40079
3.85921
-1.52612
3.28019
-1.19853
3.06655
-0.579667
2.90637
-0.595734
2.6692
1.30082
-0.660048
0.674641
1.12752
3.28231
1.08629
-1.05812
4.24757
-1.75706
0.370167
2.27335
3.32582
-0.977173
2.56072
-0.294083
-0.0723366
1.15261
0.685502
1.90734
1.13375
3.83775
1.22284
-1.51591
3.58345
-1.41755
0.559444
1.56427
3.06162
-0.742573
4.1406
-1.828
-3.4643
-2.85152
4.36888
4.93711
-0.568518
3.67905
2.80864
-1.43957
-0.141067
2.17715
1.63005
0.283419
-0.20671
2.26654
0.875248
1.16301
-0.787506
3.71791
-1.77451
5.30362
0.426989
2.27164
1.43
-0.334386
3.02273
-0.778939
2.52904
-0.223396
5.51645
3.40062
-3.20775
-0.995697
4.36541
3.20426
-2.06263
-0.953581
-2.9488
10.6218
-12.029
1.03427
3.45122
1.61982
0.549145
-1.20069
0.413724
0.91105
0.77048
0.311617
0.441677
0.18789
1.00952
1.3898
0.91204
0.139602
0.6394
0.468804
1.15119
-1.46149
1.1006
3.76883
-0.974931
0.402542
0.680032
2.10077
1.81412
-0.0727863
-0.812298
1.06398
1.54297
0.401524
2.69654
-0.689041
-5.84672
3.32951
6.70038
-2.13032
3.31251
-3.59184
7.70335
-7.5686
1.98602
0.615196
1.13848
-0.143845
5.49673
-0.261439
3.63818
-2.77821
0.241138
1.66785
0.316151
1.34765
0.500339
2.91336
1.66351
-0.811398
0.767436
1.22597
0.58508
0.999837
2.9294
1.35824
0.823548
-0.915671
1.65357
0.55654
0.209803
1.02235
-0.514973
-2.29502
3.15882
5.05559
3.2133
-2.28034
3.70958
-1.74808
1.53065
0.730431
0.290175
1.10214
1.36439
5.37168
1.27756
-2.69747
1.90838
-0.647939
-0.036155
2.61023
2.38745
-1.89457
0.434312
5.04088
-1.90705
-0.89766
4.24354
5.80649
-0.488168
2.40948
0.686963
1.43813
2.21878
-0.0104408
2.0341
-0.080345
4.70939
-0.599815
4.66357
-1.679
3.08853
4.37919
-4.12571
-5.68624
4.75032
-2.30309
2.72017
-0.321768
1.99989
-0.714905
0.127064
2.67666
3.06125
0.617521
1.69735
-0.854151
2.51753
0.563858
1.43451
-0.60207
2.21027
0.00124135
-0.169447
2.08071
-1.21853
2.11093
3.6305
0.25313
-14.745
14.7231
12.8684
-14.1373
3.35385
-0.705612
-1.42272
2.86069
2.23018
-2.23944
-0.786236
3.66277
0.425443
0.775436
1.39329
0.882495
-0.62298
1.40914
-1.51062
2.43804
4.29091
-1.32812
-1.72117
4.4219
0.0329792
2.73954
-0.667109
1.99355
5.23739
0.321902
2.27237
-2.54507
0.12005
1.65774
0.219316
1.46117
3.19295
-0.70611
-1.96733
2.02741
1.66736
-0.831833
2.73793
0.267868
-1.6836
3.99494
-0.343201
2.62673
0.137189
1.51613
0.221603
1.28295
-1.27008
4.60947
-1.89835
4.08091
1.65651
0.58379
1.28382
0.290664
0.0354551
2.05511
2.45328
-0.518736
1.17395
1.96517
0.7439
-0.0122523
-0.904299
1.14051
0.632398
2.87952
-0.767611
-1.41454
3.76643
3.06633
-0.0436651
-0.0537183
1.4395
1.53845
-0.0106293
1.06732
1.62633
0.512276
1.94143
-0.157507
0.345881
0.972893
-1.78014
0.752486
0.146681
2.75755
2.46664
5.2304
-2.30777
0.493369
17.0358
-10.8061
11.0031
-6.0797
2.23644
1.06076
-0.314148
0.453309
7.52961
-16.7189
22.7554
-2.149
-5.74612
-1.12381
9.36791
4.75101
2.92717
-2.56591
-0.197947
5.00045
1.35584
0.382198
-1.01529
2.79275
1.06129
0.978129
-0.48108
2.60155
0.166723
1.41006
2.25927
-0.5051
0.570905
0.424143
1.46755
1.23869
1.56389
0.861319
0.172875
0.901149
1.336
0.645433
4.97247
-1.95832
1.62834
2.01541
-0.0226694
-0.304494
3.2855
-1.0261
-0.893092
3.39475
7.30844
18.9672
-13.086
-1.89627
-1.98344
3.6968
3.89715
-2.22758
-20.2747
8.7309
18.5288
-12.0278
4.98306
2.66386
1.75974
7.25447
3.06109
-0.653243
2.74546
-0.78621
0.235637
-2.33433
2.76096
5.15058
1.83701
-1.28155
2.47039
-0.647892
1.6959
-0.774909
2.85792
0.543525
-1.10767
3.44868
0.38728
1.83841
0.202031
1.25279
0.460414
1.18389
-1.43283
4.32053
-1.83087
4.41238
0.0988885
0.525913
1.28494
1.05989
-1.87893
4.02912
-1.45234
4.67123
1.90771
-0.544366
2.52178
0.254373
2.02227
-1.80785
4.2312
0.2781
3.28837
3.67881
-1.07243
-1.42275
-0.406934
0.625064
2.50888
1.40473
0.746822
0.788073
-0.942798
2.5074
4.932
1.94634
-2.98706
0.239088
3.22357
1.33721
-1.12677
0.711576
2.48399
-2.08079
3.62367
-0.703285
5.64246
-4.25913
0.297873
1.12886
3.48489
0.591841
1.59549
-1.51307
1.5166
-0.367865
-2.1824
3.47025
0.195331
-0.217172
1.84149
2.30627
-19.2664
-3.74439
17.4859
3.14341
2.64295
-0.480035
2.15252
-0.0685433
1.17775
0.538131
1.91335
-0.123899
0.203591
0.0827802
1.59805
1.70334
0.894451
-0.438293
2.60633
1.15687
1.95481
0.328104
2.53979
-0.47735
0.494431
0.626643
1.38994
1.22393
-21.6458
14.6986
-12.0072
21.9916
0.381804
0.367521
1.40118
1.12351
1.69353
-0.136635
-0.275284
2.06133
1.5159
0.0149931
1.98335
0.676679
0.235293
0.41452
1.30853
1.00976
0.324532
1.99895
1.8443
0.182175
-0.170134
1.45381
2.12706
0.408769
-0.762089
2.35877
3.08864
-0.16614
0.680449
0.24718
0.714113
1.20872
1.0785
0.834585
2.93659
-0.808898
-1.59247
-1.9607
6.24481
6.4328
-0.589628
-0.121231
2.26255
2.7004
1.07105
-2.12551
4.65565
1.06712
-1.26128
0.181345
2.00211
3.31889
0.0402005
1.71344
0.345203
1.04844
-0.920353
3.11711
0.763796
1.58046
1.71372
-0.0755083
0.789933
0.692181
-0.481427
2.99167
-1.13855
2.26549
1.88727
-0.0444702
-1.04958
2.98718
-0.45758
3.4424
-1.02464
2.75373
-2.23497
0.881324
1.59289
4.72872
-6.38144
-24.0331
6.72176
25.3821
0.168808
-0.281459
5.25368
4.77424
3.8646
-1.66909
-0.245004
2.15229
5.24597
2.28456
0.67939
-2.65729
3.19721
3.631
-0.942816
-1.42791
-1.08548
2.69203
2.48573
5.72167
2.97588
-3.37745
5.11148
-1.37847
0.021769
2.6996
-2.13455
5.25651
-0.711929
-0.347705
2.73514
0.847957
1.93237
0.676868
1.33142
0.181573
-1.74958
1.42897
-0.381043
2.68017
-2.51959
1.77537
0.971977
5.73579
-0.644148
2.39243
0.848119
0.896753
3.38421
3.02579
-1.27057
-1.05005
-0.847058
3.09139
1.94304
0.356835
2.19501
-4.00581
-0.600387
5.52819
-1.52103
-0.592171
3.5342
2.8481
2.44814
-0.0550417
2.02857
-0.445321
2.25324
-0.641886
2.83105
-0.432094
-0.570931
1.75282
0.659996
2.89112
1.82783
-0.795877
0.210036
2.79886
3.6974
-1.58127
0.543126
1.52332
4.87871
-1.69513
-1.37532
4.78505
-0.265252
-0.325354
2.2294
2.40063
1.64635
-0.607754
2.75019
0.370206
-1.14193
1.82089
3.55222
0.463869
-1.00172
-2.07061
3.38902
4.57642
-1.00587
1.01637
3.2375
1.14575
2.23168
-1.06727
1.71621
-1.41789
-0.663406
-2.28281
4.17514
5.34754
1.85941
0.929955
-2.96227
5.81554
1.25519
-0.230503
2.3857
-0.181765
3.6549
-1.38188
3.52864
-1.78229
-0.197576
1.18126
2.1767
0.737429
4.18454
-2.09474
1.41449
0.507107
3.58143
-1.48157
1.90004
0.533166
-4.80282
-4.35597
6.64634
6.15116
4.36828
-2.13444
1.56486
0.600735
0.444901
-1.95357
3.40578
1.28454
-2.9808
7.79643
-4.55476
5.97011
-0.62859
3.67764
-1.61661
2.31332
2.33958
5.26746
-2.35469
0.376669
-1.71759
4.06635
1.34308
0.782473
-11.8067
6.70091
-7.48805
12.3689
2.49001
0.968797
0.958824
-0.43815
-0.249877
1.68809
2.28483
0.382008
0.402692
0.324537
1.53068
1.28784
0.938221
0.924886
1.86353
-0.0373117
3.19286
-1.81232
2.23399
-1.08361
-0.150756
2.23564
2.93362
-0.747053
-2.03342
4.08254
2.34021
0.120925
-0.964106
3.06175
2.09808
-0.131601
0.960462
1.94913
-0.189076
0.797908
-0.509532
1.72402
3.49671
-2.20597
2.8908
-0.622922
5.00193
1.92159
2.52025
-0.595815
2.74309
-0.419934
0.155871
3.05404
1.68565
-0.551714
1.51123
0.867906
0.64379
3.47495
-0.795043
1.89895
0.528002
3.05729
2.49646
0.819142
-0.568759
1.52005
-0.112042
2.05813
-0.0203311
2.34254
0.520919
-0.721439
1.56851
2.80941
3.41128
-1.55416
0.637959
1.02773
2.15022
-0.0659697
0.577017
1.35634
-0.433074
-0.775452
2.90941
2.58098
1.98844
0.242425
0.132727
1.86397
4.22665
-2.64522
3.8108
-3.00788
2.24894
3.12627
-0.0150793
-1.07162
5.8544
-0.0312353
3.57764
-1.18592
2.23127
-0.426203
-4.95769
6.4192
-2.26946
2.87495
-0.708292
4.65352
-0.7028
3.00142
2.68587
-1.0747
3.68932
1.26514
0.68384
-1.77321
1.29031
3.22711
-1.32738
0.503542
-6.14333
3.62889
-2.26222
7.67595
2.87404
-1.82336
4.8385
-0.374258
5.62586
1.11433
1.60705
-2.76485
-3.92594
1.94647
1.29825
7.13484
1.63844
0.00363693
5.10029
3.28337
0.203003
2.69695
1.4218
-1.06339
1.47047
-2.05538
3.81038
0.254936
-0.653163
1.07008
2.81211
1.05713
3.20272
-0.279163
2.56729
-0.94737
-1.32829
1.44031
3.59813
0.752382
0.396215
2.59289
-0.495652
1.82718
0.469356
1.95944
-0.0375262
1.84313
-4.14162
8.80485
5.92002
-6.50729
0.539068
1.96541
1.42898
0.0120338
0.474105
0.262932
1.50836
1.72655
0.34862
1.70312
2.63757
-0.558678
-0.131132
2.09525
2.18431
-0.0142161
2.01134
1.91291
-0.167143
-0.220545
1.41822
-0.63533
2.39962
0.358789
-0.34011
2.24529
2.32943
-0.288366
-3.23544
2.75723
0.245701
6.32096
5.61923
-1.29194
5.05086
-2.25484
3.70724
-0.652214
1.40221
-2.78146
1.60688
0.197421
-1.48374
3.49509
0.768879
0.274503
1.52982
0.882418
0.55148
1.46256
1.30373
0.407027
2.56931
1.51448
0.0922691
-0.920339
-1.25927
5.78176
-2.67077
4.56491
-0.103101
2.18122
3.28548
-1.27868
-0.454852
0.886937
5.65299
-4.61983
2.01309
2.07158
6.46717
-2.45248
-2.86599
2.57549
0.576985
6.18106
-0.818789
1.61955
3.65676
-2.79054
-14.0818
23.5154
11.9124
-25.7987
-0.0649521
2.97686
5.0168
6.17963
-0.973455
3.31836
3.44106
-1.17177
0.726937
4.70416
0.370941
-3.30459
-1.14833
3.19268
1.50379
0.383661
3.12449
-3.4599
5.07234
-1.77957
3.95994
-0.956649
-2.30558
2.24697
2.83099
-0.534031
2.30395
-1.15305
3.10113
1.48985
-1.00156
0.596281
2.59825
-0.606254
-0.977495
3.10826
1.34738
-5.5165
5.67667
-1.34692
1.33057
-0.373442
0.691045
2.25409
-0.187993
1.72922
-0.457212
1.77884
-0.75456
1.15948
0.285908
2.09239
0.0103103
-0.290437
2.32722
2.51122
-0.0416482
1.96096
2.15276
0.045765
1.69193
2.61219
-0.554003
0.27424
4.73596
-2.4067
1.07522
1.19291
-4.09022
-9.63273
10.0871
4.74566
0.0181459
-1.69489
4.09283
2.33593
0.325
3.88612
2.24923
-1.67159
-4.37474
5.35506
-4.46958
5.37561
2.09448
1.19591
-0.406909
1.07428
2.19483
-0.121512
0.480302
1.61361
-1.39323
3.4705
-2.16432
2.68627
-0.638138
13.2552
4.46889
-8.78931
-18.5974
6.07889
-4.66087
19.3751
-1.49077
-0.961868
2.66239
3.32546
4.92223
0.342718
2.3168
-1.71253
0.879477
-3.36058
6.50624
2.13425
7.81485
0.169289
0.955728
-6.93917
3.76473
-4.05017
-3.09674
4.83314
-0.928603
2.01658
2.98803
-0.0715062
0.876534
0.696081
0.136119
1.54687
0.067465
2.48339
1.8454
-0.419917
4.2756
1.48582
0.431998
-2.48477
-0.450439
2.64856
-0.217268
2.55536
0.8465
-0.489653
1.30958
2.52123
2.42326
-1.42947
3.46849
-0.464024
3.50471
-1.51716
4.02262
-1.1136
0.22797
2.13617
1.62105
-0.258375
-27.2288
8.45363
-10.7895
25.6795
2.29933
-0.296439
2.29339
-0.252972
0.364264
3.4727
-1.69394
1.48362
2.713
-0.517793
1.39828
0.778659
6.91727
2.11412
-2.92236
1.97155
0.87386
-0.185141
2.15445
1.12143
1.9883
0.219277
0.0766046
1.57287
1.95571
-0.815779
2.7951
0.00287083
2.72115
-0.801656
2.05664
-0.160307
-9.84955
12.2669
15.5264
-3.91184
-2.3438
4.13813
-0.821724
2.83696
5.24734
-2.1399
3.74446
-1.10709
5.35459
0.700524
-3.49083
1.71782
2.20218
-3.77125
-0.636006
5.49168
-6.81541
-23.8416
5.32009
21.0473
-2.16233
2.1026
4.26767
0.346976
-3.53592
-2.63953
4.62073
3.7558
-4.39342
-0.053907
2.90939
8.36244
1.63773
0.299185
1.45423
0.360995
-4.18234
4.09886
-3.73023
4.11933
-1.24466
2.67399
2.52887
-0.962036
0.680904
0.244621
1.5314
0.907312
0.392746
-1.82582
4.31368
2.05488
-1.02768
3.8697
3.19368
-1.45363
-2.90955
3.18716
-0.899617
5.01092
2.70318
3.66009
-0.514569
-1.47178
3.10037
3.60374
-0.860287
-1.20676
-0.10511
3.89429
-1.87028
1.9732
1.76316
-0.00543206
0.855606
1.10442
0.07786
-1.47072
3.84712
2.11101
-2.65165
1.28973
1.13029
4.65201
-1.19335
-0.843085
3.48577
3.7053
8.1173
0.0270702
3.39993
-3.73476
2.20647
4.01264
-1.80231
0.26038
2.87483
1.74849
0.217163
-0.861314
0.881574
0.880248
3.19112
-1.31788
-0.654621
2.31107
2.92276
-0.176985
-0.617978
2.59458
2.84404
-0.284781
1.14549
24.299
5.06189
-17.8599
3.18043
0.0658466
1.8256
-1.32529
2.67882
-2.86063
5.669
-0.56891
0.639851
4.09144
1.4276
-1.73559
-0.802004
5.76801
-2.55105
3.75267
0.467081
1.34155
0.503563
1.45092
1.65981
0.140243
1.12664
0.648498
-1.65965
2.11678
-1.64038
2.3428
5.04698
-1.42628
4.63118
-1.29132
4.09312
-1.84552
-0.156062
2.44097
4.85661
1.24815
-3.87682
-0.588932
4.69806
-0.995572
-2.22616
3.30234
2.07057
6.16739
-0.902793
-4.08585
-1.8547
1.97433
3.88857
-0.0418745
6.89008
-4.87028
-1.9029
4.18435
0.155395
3.73405
-1.68655
1.70796
2.90353
-1.47341
-4.5895
5.93095
-2.62587
0.96481
5.94156
2.15491
10.8477
-15.718
-9.91718
17.2371
-0.587349
9.97375
5.42454
-0.516355
2.5177
-0.297737
2.05123
-0.670096
2.75674
1.3766
-0.721691
0.562031
2.10561
4.34343
-3.4545
-1.31752
4.34947
4.75338
-1.17494
-0.853744
-0.236726
3.68337
-2.12758
1.70497
2.30028
5.34192
0.630615
-2.49045
5.8662
-0.0796527
1.92251
-3.68629
-4.53118
2.98974
6.29477
-1.24975
3.68134
1.57036
0.57236
-1.77138
0.343009
2.59676
1.81148
-0.456301
-0.312749
1.98529
0.160685
2.47944
5.98214
1.32014
2.10276
-2.51374
15.0295
-22.6749
20.8567
-16.916
0.810319
-1.11604
3.44004
1.52126
1.74565
0.173514
2.30819
-0.122181
2.65372
1.41183
1.0107
-0.438035
-0.507492
2.7201
2.93479
-0.738553
1.77461
-1.39555
0.41938
3.54472
0.266104
1.47401
-1.23953
3.30927
-1.00908
0.748705
3.18201
1.42938
1.86003
0.554408
0.0456229
1.81246
1.88975
-0.00231805
1.9953
0.0811873
2.48949
-0.044806
-0.354673
2.17889
-1.28024
4.11843
3.45902
-1.77748
3.23396
2.05719
-0.886333
-2.35015
-22.6281
8.86029
-7.429
23.6965
2.20202
-2.41718
4.53199
0.0401166
0.483173
1.39932
-1.51956
3.6275
0.497595
-1.31419
3.44029
1.72146
1.73807
0.502138
-1.8303
4.08849
-0.534105
1.11924
2.65405
0.560839
-0.978125
3.02936
1.42892
0.564652
3.69175
-1.55616
0.789742
1.53497
1.59348
-0.265488
3.6358
-2.42983
-1.24153
0.413332
1.99222
3.47587
-1.7214
2.87906
-0.596644
4.10379
2.72598
-0.663838
3.13984
-0.950959
2.83025
-0.0376866
-0.718812
2.05551
0.497373
2.14102
-2.76488
5.50343
8.20125
1.60366
-5.73867
1.4369
5.86621
-2.96988
4.73133
-3.90276
-2.22832
-1.10511
4.81542
3.79406
-1.5777
3.71799
2.85686
-0.677701
5.3207
13.5563
-9.11534
-1.37984
4.15011
7.24017
-1.57204
-3.54222
-4.03783
5.22595
5.15707
-4.56051
-0.00180093
-0.0209778
2.00908
1.9959
-0.603987
2.5307
1.51463
0.426741
0.314537
1.82107
4.03621
-1.76642
-2.5625
1.10422
5.1609
1.56472
-2.81565
-0.26793
2.96623
5.54643
-2.49845
2.57652
4.37599
-0.850177
2.16906
3.9581
-0.0689644
-1.85391
4.61229
1.15055
1.236
-2.25305
2.97835
-2.15382
2.27475
7.43502
-1.01064
0.786156
3.01105
1.18656
2.07058
2.35282
-0.34634
0.081975
-0.778077
2.80148
1.26904
0.541352
3.88023
-2.23621
-2.73442
3.20611
-1.45481
-0.257188
1.95715
3.30504
2.1607
-0.294329
-0.423848
2.09799
0.416287
2.23204
-0.298543
1.63102
5.16116
1.04454
1.96457
-2.29162
2.05411
0.838119
-0.116544
1.05281
-0.392328
1.70689
2.39762
0.184672
-19.0808
-17.9486
14.7959
17.5426
0.904495
-0.367976
2.11805
0.81108
-1.70418
0.444952
1.74093
4.12796
-1.32605
2.97591
-0.7503
3.43936
-1.51553
3.06604
4.27975
-0.607708
4.54896
-2.69299
-2.691
4.73248
5.91421
-0.626199
-2.40031
3.50437
5.93249
0.557091
2.44528
-2.33767
3.0529
-1.15726
3.5571
-0.704772
0.490169
1.38923
2.73061
-0.736896
1.46979
-0.428574
0.521207
2.47261
1.73491
2.4284
-0.279643
-0.404869
1.68961
0.290367
0.0585994
1.46691
2.11719
-4.35285
-0.439359
6.71124
0.240416
0.711753
1.03548
1.45532
1.29241
0.606915
-0.00299575
0.679431
4.35021
-1.53912
-2.36154
5.2077
0.226817
1.05262
1.1476
0.265243
6.05102
0.199278
2.61382
-3.18287
-27.241
1.46502
24.3352
-3.95873
-0.118238
2.38792
2.06541
-0.420409
4.61666
3.45068
-2.01184
-0.362832
2.52473
-0.523474
0.129671
1.87214
2.99085
0.436808
1.3999
-1.03348
0.902382
3.27914
0.708793
-1.5447
4.73439
0.128983
-2.27421
2.31724
7.72204
1.76249
0.68489
-4.22994
3.98212
-1.49338
3.64116
-1.35171
2.93974
-3.98852
-0.77295
5.89187
2.49042
1.25918
-0.435305
0.921146
2.6692
0.164131
-1.12103
1.38532
1.07076
-1.86699
3.34535
0.574897
-2.57391
3.51206
3.51726
-2.03175
4.28729
-0.991438
3.40265
-1.73911
-1.88564
4.21394
1.87875
0.31317
4.2808
-2.09449
1.56859
0.621781
0.836103
2.0963
-0.491441
0.856429
4.96787
3.64859
-0.813598
-1.68907
-1.86678
0.4736
1.71594
4.16514
3.64979
-1.29128
-0.739154
2.91748
-0.259337
-3.66387
6.5244
2.50113
0.618945
1.31065
2.6834
-0.715272
-2.9528
5.15852
3.63822
-4.3457
0.471702
0.781312
1.28862
0.687728
-0.0267239
1.28631
1.85288
0.542837
0.0286333
2.3156
-2.28709
4.55964
0.777807
1.08597
-0.780134
2.6801
-6.88587
3.83546
9.13408
-0.343913
6.78827
-4.82403
8.49501
-2.54694
2.86643
4.74075
-0.334912
-2.28137
6.12873
-0.213945
1.36614
-4.36724
8.93829
-5.05601
2.23158
1.19564
2.62697
2.61867
-1.56144
-0.896513
-2.04495
6.93906
3.63543
-5.45162
3.96864
-3.10644
-0.601739
6.98454
-1.16391
-1.44187
3.53508
3.85497
4.21243
-1.76499
-1.24571
3.71296
3.2605
-1.93469
-1.25015
3.84521
1.00019
0.535697
1.54579
-0.0933938
1.6487
0.941963
0.653333
0.00449822
0.0227357
2.12181
-1.40735
3.7346
-0.853745
3.0717
-0.775573
2.98074
-3.88789
-3.129
4.94653
4.37462
2.17886
0.024952
-0.371438
1.65348
2.7454
0.516484
1.65059
-0.672476
2.1855
-0.332128
1.61432
0.261995
2.19636
-0.303328
2.46513
-0.596483
3.56701
-1.22761
3.08975
-1.61648
5.68796
-1.36297
4.75269
-2.90322
-5.53277
7.36343
-4.13254
4.98314
0.390609
1.89064
-2.66635
5.13011
)
;

boundaryField
{
    insideCircle
    {
        type            myTemperature;
        value           nonuniform List<scalar> 
24
(
4.98305
2.26492
1.21401
7.50481
-2.67674
-0.805815
6.92744
5.39537
0.374414
-0.639176
5.35814
4.77266
-1.14459
2.22719
3.09935
6.08625
3.17679
0.0541091
5.63096
1.9807
1.62677
-0.0867189
5.22243
3.40388
)
;
    }
    outsideCircle
    {
        type            myTemperature;
        value           nonuniform List<scalar> 
124
(
2.43905
0.32501
1.70888
-0.306977
0.718936
1.53002
2.19401
1.68915
1.29712
0.228637
0.436412
2.43828
-0.11087
1.91236
1.1735
1.20062
2.35209
1.0246
1.36184
-0.782385
-0.467864
0.687336
2.52351
1.51932
1.10385
-0.36889
2.59266
-0.676347
-0.119833
-0.248388
2.44821
1.77417
2.4772
0.792309
-0.431171
1.39672
0.981226
-0.0350882
2.30614
0.997655
-0.468264
1.05745
2.50764
1.08038
0.222773
-0.373789
1.9017
2.61728
0.880724
-0.69694
2.75567
1.21698
1.90977
0.102736
2.27763
-0.152606
0.502123
2.02544
1.99922
-0.264572
-1.71367
-1.41934
4.13989
0.399661
2.64899
0.56933
-0.241271
1.41412
-0.414978
2.18675
-0.022952
2.55446
2.29983
-0.25535
0.611693
1.57848
1.88222
-0.0445178
0.0632233
1.92376
-0.735446
0.842399
2.85194
1.32856
-0.00400147
2.5732
-0.402755
2.1367
-0.0834108
-0.16868
1.91135
2.32835
1.91639
2.59084
-0.306174
0.415543
2.43995
0.723369
0.0258056
1.01345
2.06276
-0.0919151
0.558154
1.45053
2.41588
-0.484559
1.33271
0.73237
0.170828
2.51732
1.91743
-0.336205
-0.263927
2.07648
-0.0173505
2.471
2.22802
0.151626
2.40555
-0.413201
2.62697
1.11204
0.599559
-0.617008
)
;
    }
    topAndBottom
    {
        type            empty;
    }
}


// ************************************************************************* //
