/*--------------------------------*- C++ -*----------------------------------*\
| =========                 |                                                 |
| \\      /  F ield         | foam-extend: Open Source CFD                    |
|  \\    /   O peration     | Version:  3.0                                   |
|   \\  /    A nd           | Web:         http://www.extend-project.de       |
|    \\/     M anipulation  |                                                 |
\*---------------------------------------------------------------------------*/
FoamFile
{
    version     2.0;
    format      ascii;
    class       volScalarField;
    location    "10";
    object      p;
}
// * * * * * * * * * * * * * * * * * * * * * * * * * * * * * * * * * * * * * //

dimensions      [0 0 0 0 0 0 0];

internalField   nonuniform List<scalar> 
672
(
-0.2465950675
-0.210350485
-0.1989420264
-0.1807296104
-0.1776797815
-0.1680432611
-0.1684451577
-0.1631775616
-0.1643060335
-0.1606500565
-0.1601460897
-0.1554547361
-0.2432898159
-0.2075056373
-0.1962367785
-0.1782493211
-0.1752286187
-0.1657069122
-0.1660939188
-0.1608858805
-0.1619907667
-0.1583742637
-0.1578688241
-0.1532309852
-0.236918232
-0.2020435735
-0.1910534264
-0.1735190047
-0.1705657683
-0.1612807697
-0.1616488271
-0.1565677256
-0.1576362949
-0.1541063218
-0.1536066923
-0.1490806501
-0.2275830072
-0.1940520134
-0.1834798335
-0.166616765
-0.1637695603
-0.1548369724
-0.1551831738
-0.1502924419
-0.1513128278
-0.1479132377
-0.1474261275
-0.1430677876
-0.2153702055
-0.1836076782
-0.1735867978
-0.1576098288
-0.1549051139
-0.1464394925
-0.146760232
-0.1421232079
-0.1430833804
-0.1398582338
-0.1393904564
-0.135254866
-0.200466562
-0.1708678941
-0.1615240933
-0.1466318489
-0.1441042889
-0.1362107678
-0.1365030043
-0.1321770859
-0.1330658836
-0.1300548838
-0.1296125649
-0.1257508158
-0.1830240293
-0.1559650194
-0.1474168765
-0.1337992857
-0.131481302
-0.1242612225
-0.1245217604
-0.1205630215
-0.1213696242
-0.1186118641
-0.1182010083
-0.1146621562
-0.1632989633
-0.1391158614
-0.1314697376
-0.1192955479
-0.1172160291
-0.1107584793
-0.1109841484
-0.1074410768
-0.1081555488
-0.1056846487
-0.1053103682
-0.1021382062
-0.1415004432
-0.1205015628
-0.1138549546
-0.1032798723
-0.1014654351
-0.09585344176
-0.09604147234
-0.09295996649
-0.09357316433
-0.09142121476
-0.09108821861
-0.08832335766
-0.1179426366
-0.1003880835
-0.09482277873
-0.08597704208
-0.08444933401
-0.07975131246
-0.0798984586
-0.07731557383
-0.07781918633
-0.0760121073
-0.07572429689
-0.07340111126
-0.09288028596
-0.07899557717
-0.07458301036
-0.06758046233
-0.066358963
-0.0626355673
-0.06273967496
-0.0606888843
-0.06107605046
-0.05963728627
-0.05939794256
-0.05754651111
-0.06667072472
-0.05662660922
-0.05342000031
-0.0483457433
-0.04744389701
-0.04473940049
-0.04479739034
-0.04330239996
-0.04356680427
-0.04251321181
-0.04232466174
-0.04096816296
-0.03960043889
-0.03352838461
-0.03156954665
-0.02848998844
-0.02791923879
-0.02626902883
-0.02627960592
-0.02535996488
-0.02549757475
-0.02484295077
-0.02470727267
-0.02386373433
-0.01205331786
-0.01002590777
-0.00933692367
-0.008287722166
-0.008052876913
-0.007474940119
-0.007435634719
-0.00710057055
-0.007107594793
-0.006858780755
-0.006776474509
-0.006456555164
0.01566814327
0.01362007108
0.01302902058
0.01203210152
0.01192806503
0.01142522116
0.01151460383
0.01126026328
0.0113846767
0.01122401341
0.01125200356
0.01104323897
0.04317124811
0.03707722017
0.03521620547
0.03218876676
0.03174963727
0.0301750887
0.03031589668
0.02947769836
0.0297342222
0.02916757228
0.02914237678
0.02840750096
0.0701542151
0.06008556837
0.05697641363
0.05195398828
0.05118518429
0.04855753616
0.04874860472
0.04733651285
0.04772259999
0.04675652506
0.04667842856
0.04542566519
0.09623359771
0.08232081524
0.07800517975
0.0710538911
0.06996736476
0.06632219408
0.06656332464
0.06459719823
0.0651099674
0.06375797116
0.06362931712
0.06187446795
0.1211251714
0.1035381561
0.09806860505
0.08927333697
0.08788236857
0.08326423206
0.08355265236
0.08105654468
0.0816899283
0.07996842363
0.07979072731
0.07755498488
0.1444722068
0.1234361802
0.1168838607
0.106358026
0.1046819728
0.09915112851
0.09948486582
0.09649186322
0.09723931749
0.0951710542
0.09494752493
0.09225922193
0.1660241558
0.1417989803
0.1342443969
0.1221178012
0.1201769056
0.1138014026
0.114175932
0.1107227419
0.1115747001
0.1091849975
0.1089181411
0.1058104283
0.1854670045
0.1583616322
0.1499018907
0.1363296614
0.1341496509
0.1270114401
0.1274230089
0.1235543008
0.1245008151
0.1218205675
0.1215143508
0.1180267503
0.2025984765
0.1729495398
0.1636889165
0.1488391177
0.1464460451
0.1386330967
0.1390755011
0.1348386359
0.1358669408
0.1329289731
0.1325865364
0.1287624947
0.2171609668
0.1853458903
0.1754026706
0.1594645018
0.1568892103
0.1485011518
0.1489690614
0.1444181308
0.1455153997
0.1423572771
0.1419832461
0.137871529
0.2290128279
0.195427889
0.1849248098
0.168096038
0.1653690703
0.1565093115
0.1569951797
0.1521857818
0.1533367426
0.149997115
0.1495951669
0.1452472855
0.2379635484
0.2030358987
0.1921066339
0.1746012019
0.1717571052
0.1625381024
0.1630354142
0.1580284739
0.1592181387
0.1557394215
0.155314572
0.1507860911
0.2439415931
0.2081069574
0.1968865129
0.1789218709
0.1759942446
0.1665296796
0.1670301117
0.1618867587
0.1630983504
0.1595231519
0.1590796259
0.1544274578
0.2468307013
0.2105446751
0.1991755922
0.1809798731
0.1780054575
0.1684151647
0.1689115746
0.1636966702
0.164913978
0.161287516
0.160830556
0.1561142407
0.2466355315
0.2103510502
0.1989738243
0.1807731659
0.177787098
0.1681893953
0.1686733678
0.1634506394
0.1646564913
0.1610232659
0.160557531
0.1558364054
0.2433174101
0.2074957722
0.1962548782
0.1782803581
0.1753200201
0.165836348
0.1663008084
0.1611360258
0.1623141279
0.1587200291
0.1582509566
0.1535854827
0.2369594783
0.2020477022
0.1910820705
0.1735570704
0.1706575437
0.1614049704
0.1618420849
0.1567984693
0.1579323371
0.1544215419
0.153954046
0.1494028672
0.2276000663
0.1940421243
0.1834911481
0.1666383128
0.1638360714
0.1549318245
0.155335331
0.1504765349
0.1515509959
0.1481679345
0.1477076203
0.1433290019
0.2153991242
0.1836132907
0.1736073378
0.1576359656
0.1549643994
0.1465184299
0.146881654
0.1422672571
0.1432674996
0.1400537957
0.1396056383
0.1354544669
0.2004675689
0.1708583508
0.161524962
0.1466383094
0.1441314568
0.1362511629
0.1365693301
0.1322579359
0.1331710098
0.1301675515
0.1297372003
0.1258665327
0.1830365551
0.1559721418
0.1474265214
0.1338091655
0.131497102
0.1242797575
0.124547778
0.1205923177
0.1214059059
0.1186496405
0.1182419345
0.114700055
0.1632815961
0.1391069131
0.1314585366
0.1192843404
0.1171971808
0.1107351724
0.1109502505
0.1074015304
0.1081057922
0.1056321291
0.1052525949
0.1020846494
0.1414957938
0.1205101822
0.1138532158
0.1032726296
0.1014356007
0.09580856587
0.09596744734
0.09286904552
0.0934547524
0.09129405943
0.09094706474
0.08819227035
0.1179081017
0.1003798375
0.09480032961
0.0859492571
0.08438713798
0.07966793204
0.07977002799
0.07716248993
0.07762350014
0.07580399949
0.07549481122
0.07318815193
0.09286112127
0.07900546795
0.07457169305
0.06755875793
0.06629055414
0.06253706075
0.06258101657
0.06049628083
0.06082681768
0.05937069508
0.0591028779
0.05727252746
0.06662349844
0.05661891918
0.05338925496
0.04830570814
0.04734959455
0.04461151997
0.04459890406
0.04306522275
0.04326305968
0.04218994686
0.04196820411
0.0406373011
0.03957232439
0.03353907243
0.03155231699
0.02845934894
0.02782697577
0.02613737922
0.02606862072
0.02510453722
0.02516749865
0.0244902016
0.0243170828
0.02350137297
0.01200029009
0.01001840056
0.009302352839
0.008242076525
0.007943967904
0.007326875854
0.007205390866
0.00682535838
0.006754988049
0.006483510917
0.006362751343
0.006072484913
-0.0156978347
-0.01360921767
-0.01304735644
-0.01206440543
-0.01202476578
-0.01156295736
-0.01173521112
-0.01152713037
-0.01172948123
-0.01159241096
-0.01165948577
-0.01142172039
-0.04322208601
-0.03708501129
-0.03524943519
-0.03223232865
-0.03185280441
-0.03031504704
-0.030533305
-0.02973734407
-0.03006678382
-0.02952140319
-0.02953241152
-0.02876962992
-0.07017775411
-0.06007518616
-0.05699082508
-0.05198035537
-0.05126604493
-0.04867310834
-0.0489342353
-0.04756116329
-0.04801308213
-0.04706690961
-0.04702186328
-0.04574469997
-0.09627468169
-0.08232928924
-0.07803215995
-0.07108807611
-0.0700455717
-0.06642734262
-0.06672581306
-0.06479070698
-0.06535747224
-0.06402107571
-0.06391930537
-0.06214374028
-0.1211359964
-0.1035287377
-0.09807480703
-0.08928731919
-0.08793025915
-0.08333381019
-0.08366569184
-0.0811937595
-0.081867892
-0.0801587229
-0.08000155468
-0.07775085925
-0.1444978551
-0.1234455352
-0.1169008722
-0.1063773552
-0.1047209367
-0.09920166263
-0.09956124247
-0.09658174959
-0.09735356559
-0.09529199944
-0.09508069739
-0.09238286957
-0.1660181728
-0.1417907688
-0.1342397008
-0.1221153856
-0.1201812484
-0.1138103359
-0.114193246
-0.1107447548
-0.1116043898
-0.109217106
-0.1089542574
-0.1058440335
-0.1854745189
-0.1583717887
-0.1499071225
-0.1363315483
-0.134142853
-0.1269984188
-0.1273992007
-0.1235236698
-0.1244600079
-0.1217760649
-0.1214648021
-0.1179806753
-0.2025748801
-0.1729424874
-0.1636727825
-0.1488195437
-0.146404893
-0.138578798
-0.138992968
-0.1347405504
-0.1357419941
-0.1327961296
-0.1324404563
-0.1286268948
-0.217151169
-0.185356488
-0.1753965574
-0.1594497637
-0.1568391268
-0.1484281905
-0.1488507908
-0.1442739264
-0.1453283744
-0.1421567931
-0.1417613178
-0.1376653572
-0.2289742825
-0.195421712
-0.1848989574
-0.1680620268
-0.1652894917
-0.1564017113
-0.1568283798
-0.1519863554
-0.1530812255
-0.1497249805
-0.1492952336
-0.144968822
-0.2379406191
-0.203046454
-0.1920917769
-0.1745740032
-0.1716748153
-0.1624207111
-0.1628471254
-0.1578001614
-0.1589228332
-0.1554235417
-0.1549652896
-0.1504617774
-0.2438938824
-0.2081014605
-0.1968545423
-0.1788791817
-0.1758910548
-0.1663893897
-0.1668114071
-0.1616249015
-0.1627622957
-0.1591651601
-0.1586850317
-0.1540611566
-0.2468011914
-0.2105549078
-0.199156382
-0.180946966
-0.1779086231
-0.1682778672
-0.1686918494
-0.1634306681
-0.1645701517
-0.1609200518
-0.1604243772
-0.1557372556
)
;

boundaryField
{
    out
    {
        type            implicitExtrapolation;
    }
    in
    {
        type            implicitExtrapolation;
    }
    frontAndBack
    {
        type            empty;
    }
}


// ************************************************************************* //
