/*--------------------------------*- C++ -*----------------------------------*\
| =========                 |                                                 |
| \\      /  F ield         | foam-extend: Open Source CFD                    |
|  \\    /   O peration     | Version:  3.0                                   |
|   \\  /    A nd           | Web:         http://www.extend-project.de       |
|    \\/     M anipulation  |                                                 |
\*---------------------------------------------------------------------------*/
FoamFile
{
    version     2.0;
    format      ascii;
    class       volScalarField;
    location    "5";
    object      p;
}
// * * * * * * * * * * * * * * * * * * * * * * * * * * * * * * * * * * * * * //

dimensions      [0 0 0 0 0 0 0];

internalField   nonuniform List<scalar> 
120
(
-0.289297
-0.215539
-0.224644
-0.213347
-0.21177
-0.266495
-0.197464
-0.205363
-0.194275
-0.192556
-0.225281
-0.165807
-0.17199
-0.161918
-0.160222
-0.169061
-0.123106
-0.127153
-0.11871
-0.117178
-0.101078
-0.0719161
-0.0735843
-0.0674157
-0.0662045
-0.0265857
-0.0161306
-0.0153295
-0.0118805
-0.0110455
0.0499606
0.0408709
0.0440448
0.0443983
0.0448208
0.122804
0.0948951
0.100232
0.0974565
0.0975023
0.187617
0.142728
0.149878
0.144168
0.143839
0.239484
0.180828
0.189376
0.181275
0.180599
0.275433
0.206961
0.216364
0.206508
0.205479
0.292423
0.218951
0.228636
0.217861
0.216529
0.289809
0.216233
0.225527
0.214548
0.212969
0.26705
0.198486
0.206751
0.196304
0.194621
0.226326
0.16725
0.173835
0.164441
0.162783
0.169635
0.12417
0.128594
0.120808
0.119344
0.101718
0.0727401
0.0746174
0.0688147
0.0676306
0.0263643
0.0160173
0.0152458
0.0118747
0.0110552
-0.0502418
-0.0414441
-0.0448347
-0.0455599
-0.0460293
-0.123851
-0.096246
-0.101921
-0.0997185
-0.099817
-0.188391
-0.144039
-0.151625
-0.146641
-0.14639
-0.240558
-0.18222
-0.191121
-0.18362
-0.18298
-0.275778
-0.207634
-0.217292
-0.207891
-0.206886
-0.292696
-0.219165
-0.228859
-0.218106
-0.216765
)
;

boundaryField
{
    out
    {
        type            implicitExtrapolation;
    }
    in
    {
        type            implicitExtrapolation;
    }
    frontAndBack
    {
        type            empty;
    }
}


// ************************************************************************* //
