/*--------------------------------*- C++ -*----------------------------------*\
| =========                 |                                                 |
| \\      /  F ield         | foam-extend: Open Source CFD                    |
|  \\    /   O peration     | Version:  3.0                                   |
|   \\  /    A nd           | Web:         http://www.extend-project.de       |
|    \\/     M anipulation  |                                                 |
\*---------------------------------------------------------------------------*/
FoamFile
{
    version     2.0;
    format      ascii;
    class       volSymmTensorField;
    location    "5";
    object      sigma;
}
// * * * * * * * * * * * * * * * * * * * * * * * * * * * * * * * * * * * * * //

dimensions      [0 0 0 0 0 0 0];

internalField   nonuniform List<symmTensor> 
120
(
(-0.132849 -0.0236216 1.85939e-19 0.134515 1.30936e-20 -0.00166572)
(-0.0942405 -0.024543 5.32831e-19 0.0977589 5.10238e-19 -0.0035184)
(-0.0551182 -0.0206241 1.212e-18 0.059705 -5.75673e-19 -0.00458678)
(-0.0241426 -0.0170385 -8.26393e-19 0.0286249 9.97376e-20 -0.00448224)
(-0.00255479 -0.0139708 -9.59193e-19 0.00492678 4.58176e-20 -0.00237199)
(-0.113192 -0.0643936 3.43956e-19 0.114647 -7.14921e-20 -0.00145544)
(-0.0686334 -0.0606396 1.67015e-18 0.0717087 -7.33768e-19 -0.00307527)
(-0.0315853 -0.0468631 9.69198e-19 0.0355913 -1.55801e-18 -0.004006)
(-0.00289472 -0.0347986 1.40844e-18 0.00679728 -9.38324e-19 -0.00390256)
(0.0165796 -0.0250051 6.9232e-19 -0.0145309 -1.24847e-18 -0.0020487)
(-0.081419 -0.0901096 2.36752e-20 0.0825666 -2.79095e-19 -0.00114757)
(-0.0308279 -0.0737883 -3.10659e-19 0.0332509 -1.2676e-18 -0.00242301)
(0.00157348 -0.050908 -1.277e-18 0.00157399 -1.62075e-18 -0.00314748)
(0.0256263 -0.03188 -1.83194e-18 -0.0225788 -1.73061e-18 -0.00304749)
(0.0410799 -0.0173884 -3.36781e-18 -0.0395011 4.52434e-19 -0.0015788)
(-0.0485707 -0.0990171 -8.09165e-20 0.0493304 -2.11371e-19 -0.00075969)
(0.00104535 -0.0632583 -5.1741e-19 0.000555209 -7.61019e-19 -0.00160056)
(0.0264321 -0.0327056 -2.99017e-18 -0.0243659 1.58423e-19 -0.00206625)
(0.0444112 -0.00871695 -9.7265e-19 -0.0424372 8.1993e-19 -0.00197398)
(0.0553539 0.00828429 -3.25166e-19 -0.0543585 1.5108e-18 -0.000995422)
(-0.0231633 -0.0967955 8.01971e-20 0.0234821 -1.8998e-19 -0.000318806)
(0.0139194 -0.0408865 -7.37869e-19 -0.0132538 -7.23009e-20 -0.000665596)
(0.0303236 -0.00472209 -3.29034e-20 -0.0294851 3.39479e-19 -0.000838547)
(0.041583 0.0222888 -3.96616e-19 -0.040824 8.53384e-19 -0.000758973)
(0.04853 0.0404659 2.97776e-18 -0.0481901 3.92007e-21 -0.000339923)
(-0.0069182 -0.0924956 -2.44128e-19 0.00677358 -9.40163e-20 0.000144623)
(0.00706653 -0.0237772 -9.99748e-19 -0.00738237 1.68779e-19 0.000315834)
(0.0131402 0.0154162 8.04281e-19 -0.0135869 3.3735e-19 0.000446752)
(0.0174756 0.043857 2.02138e-19 -0.0179824 5.8188e-19 0.000506822)
(0.0206516 0.0627553 5.14901e-19 -0.0209894 -2.59542e-19 0.000337796)
(0.00536026 -0.0927001 -2.40642e-19 -0.00595798 -5.92582e-20 0.000597722)
(-0.00794527 -0.024021 -5.42201e-19 0.00667128 1.24734e-19 0.00127398)
(-0.0127653 0.0152863 7.1452e-19 0.011068 3.11623e-19 0.00169732)
(-0.0154952 0.043816 1.9468e-19 0.0137641 4.8279e-19 0.00173114)
(-0.0164531 0.0631851 -1.12061e-18 0.0154652 -2.22192e-19 0.000987895)
(0.0217476 -0.0973732 -3.45275e-19 -0.0227576 -3.56526e-20 0.00101006)
(-0.0145214 -0.0414865 8.9137e-19 0.0123774 2.95887e-19 0.00214397)
(-0.0298994 -0.00503511 -5.29829e-19 0.0270709 4.60632e-20 0.00282848)
(-0.0399062 0.0221621 5.24073e-19 0.0370753 -9.05285e-20 0.00283086)
(-0.0457591 0.0411819 3.4811e-20 0.0441925 -3.86185e-19 0.00156661)
(0.0474115 -0.0998713 -2.2577e-19 -0.0487641 3.02365e-19 0.00135261)
(-0.00126396 -0.0639208 -1.02076e-18 -0.00160167 5.19793e-19 0.00286563)
(-0.0259745 -0.0330584 -1.98117e-18 0.022212 3.0532e-19 0.00376256)
(-0.0432877 -0.00902992 -1.34273e-18 0.0395554 7.4879e-19 0.00373224)
(-0.0546245 0.00813339 -3.19479e-18 0.0525897 -2.23643e-19 0.00203481)
(0.0805558 -0.0911101 1.03396e-19 -0.0821596 4.11121e-19 0.00160379)
(0.030862 -0.0742392 7.08377e-20 -0.0342553 9.49228e-19 0.00339331)
(-0.00121209 -0.0511695 -7.39831e-19 -0.00322995 1.1244e-18 0.00444204)
(-0.0251683 -0.0325332 1.7494e-18 0.020787 8.67165e-20 0.00438131)
(-0.0417278 -0.0193105 2.41206e-18 0.0393618 2.53021e-18 0.00236603)
(0.112588 -0.0654393 2.77363e-19 -0.114334 2.24471e-19 0.00174546)
(0.0686602 -0.060771 4.90326e-19 -0.0723502 2.07362e-19 0.00369001)
(0.0316963 -0.0469745 2.12133e-18 -0.0365156 1.25361e-18 0.0048193)
(0.0028008 -0.0358542 1.12748e-18 -0.00753367 -3.91669e-19 0.00473287)
(-0.0176948 -0.0286272 2.41751e-18 0.0151593 -1.99409e-19 0.00253552)
(0.132458 -0.0246874 1.15137e-19 -0.134228 2.11697e-21 0.0017695)
(0.0940272 -0.0244485 4.61235e-19 -0.0977654 7.71584e-20 0.00373818)
(0.0548384 -0.0206168 1.70578e-18 -0.0597118 -1.0595e-19 0.00487339)
(0.023666 -0.0183427 1.19426e-19 -0.0284354 -5.18986e-19 0.00476937)
(0.00166161 -0.0184001 -7.42416e-20 -0.00419945 -2.03036e-18 0.00253785)
(0.132633 0.02206 1.87235e-19 -0.134306 7.39845e-21 0.00167267)
(0.0942737 0.0212886 5.34896e-19 -0.0978053 5.00502e-19 0.00353159)
(0.0554716 0.0151766 1.21442e-18 -0.0600671 -5.91383e-19 0.00459547)
(0.0250517 0.00852735 -8.32797e-19 -0.0295328 9.15878e-20 0.00448115)
(0.00441218 0.00125294 -9.5462e-19 -0.00677868 5.46943e-20 0.0023665)
(0.113194 0.0628308 3.44858e-19 -0.114656 -7.658e-20 0.00146227)
(0.0693824 0.0578266 1.67322e-18 -0.0724673 -7.51596e-19 0.00308489)
(0.0333756 0.0423417 9.76948e-19 -0.0373809 -1.58217e-18 0.00400522)
(0.00636269 0.0279311 1.42076e-18 -0.0102509 -9.75595e-19 0.00388818)
(-0.0104813 0.0150458 7.1236e-19 0.00844651 -1.29196e-18 0.00203479)
(0.0817095 0.0887165 2.00471e-20 -0.082861 -2.82224e-19 0.00115152)
(0.0319952 0.0717348 -3.21371e-19 -0.0344215 -1.27702e-18 0.00242633)
(0.00096338 0.0478949 -1.29453e-18 -0.00410253 -1.63134e-18 0.00313915)
(-0.0208668 0.0276239 -1.86104e-18 0.0178407 -1.74887e-18 0.00302611)
(-0.0327534 0.0116102 -3.36333e-18 0.0311917 4.94917e-19 0.0015617)
(0.0490375 0.0980149 -8.62167e-20 -0.0497996 -2.10655e-19 0.000762122)
(0.000124829 0.0620786 -5.3123e-19 -0.00172651 -7.58404e-19 0.00160168)
(-0.0239803 0.0313209 -3.02311e-18 0.0219228 1.78989e-19 0.00205756)
(-0.0398425 0.00723298 -9.95843e-19 0.0378876 8.55985e-19 0.00195491)
(-0.0472009 -0.00953866 -3.87309e-19 0.0462206 1.5459e-18 0.000980341)
(0.0235266 0.0962638 7.60287e-20 -0.0238475 -1.88055e-19 0.000320965)
(-0.0131603 0.0404595 -7.46947e-19 0.0124922 -6.27746e-20 0.000668167)
(-0.0287095 0.0046749 -4.11567e-20 0.0278732 3.5597e-19 0.000836314)
(-0.03851 -0.0215269 -4.01919e-19 0.0377588 8.80035e-19 0.000751155)
(-0.0426998 -0.0377965 2.99411e-18 0.0423667 -1.13439e-20 0.000333039)
(0.00689833 0.0922624 -2.47539e-19 -0.0067566 -9.22614e-20 -0.000141724)
(-0.00701182 0.0237819 -1.0057e-18 0.00732147 1.76759e-19 -0.000309644)
(-0.0128578 -0.014706 8.1147e-19 0.0132976 3.47538e-19 -0.000439826)
(-0.0167626 -0.0418332 2.0179e-19 0.0172637 5.94974e-19 -0.000501112)
(-0.0190014 -0.0577747 5.17141e-19 0.0193373 -2.65675e-19 -0.000335834)
(-0.00585629 0.092431 -2.4319e-19 0.00644949 -5.87205e-20 -0.000593194)
(0.00718249 0.0240244 -5.42918e-19 -0.00591968 1.29055e-19 -0.0012628)
(0.0115153 -0.0145614 7.24139e-19 -0.00983533 3.22141e-19 -0.00167998)
(0.0135146 -0.0417455 2.03993e-19 -0.0118031 5.05132e-19 -0.00171145)
(0.0132313 -0.0581338 -1.11899e-18 -0.0122544 -2.34318e-19 -0.000976928)
(-0.022568 0.0967717 -3.48038e-19 0.023572 -3.71494e-20 -0.00100399)
(0.0130428 0.0410629 8.90856e-19 -0.0109145 2.95706e-19 -0.00212835)
(0.0272695 0.00503281 -5.38098e-19 -0.0244667 4.39558e-20 -0.0028028)
(0.0354846 -0.0212954 5.22598e-19 -0.0326844 -8.55373e-20 -0.00280011)
(0.0383483 -0.0384212 2.27377e-20 -0.0367996 -3.92641e-19 -0.00154875)
(-0.048279 0.0988408 -2.29818e-19 0.0496239 3.03716e-19 -0.00134492)
(-0.000632663 0.0627442 -1.03591e-18 0.00347914 5.22528e-19 -0.00284647)
(0.0224772 0.0316971 -2.00902e-18 -0.0187455 3.07788e-19 -0.0037317)
(0.0373051 0.00760678 -1.37682e-18 -0.03361 7.7024e-19 -0.00369504)
(0.0447831 -0.00929699 -3.18692e-18 -0.0427702 -2.51619e-19 -0.0020129)
(-0.0812584 0.0897649 1.01103e-19 0.0828537 4.14889e-19 -0.00159533)
(-0.0327693 0.0721839 6.32739e-20 0.0361425 9.58587e-19 -0.00337317)
(-0.00238404 0.0481312 -7.46892e-19 0.00679605 1.13165e-18 -0.004412)
(0.0189961 0.0282415 1.75878e-18 -0.0146492 9.22701e-20 -0.00434687)
(0.0318048 0.0135507 2.43226e-18 -0.0294583 2.5568e-18 -0.0023465)
(-0.113084 0.0639604 2.7597e-19 0.11482 2.29756e-19 -0.00173591)
(-0.0701615 0.0579538 4.87924e-19 0.0738315 2.15278e-19 -0.00367008)
(-0.0345155 0.0424068 2.12673e-18 0.0393098 1.26971e-18 -0.00479431)
(-0.00761202 0.0288962 1.13971e-18 0.0123206 -3.92237e-19 -0.00470853)
(0.00996262 0.018556 2.43007e-18 -0.00743918 -1.62638e-19 -0.00252344)
(-0.132811 0.0231679 1.13778e-19 0.13457 7.44205e-21 -0.00175893)
(-0.0948192 0.02119 4.59766e-19 0.098539 8.54558e-20 -0.00371976)
(-0.0561964 0.0151395 1.70766e-18 0.0610533 -9.33331e-20 -0.0048569)
(-0.0258502 0.00977686 1.2634e-19 0.0306086 -5.13897e-19 -0.00475842)
(-0.00503254 0.00565466 -7.75481e-20 0.00756737 -2.03822e-18 -0.00253483)
)
;

boundaryField
{
    out
    {
        type            mySigma;
    }
    in
    {
        type            mySigma;
    }
    frontAndBack
    {
        type            empty;
    }
}


// ************************************************************************* //
