/*--------------------------------*- C++ -*----------------------------------*\
| =========                 |                                                 |
| \\      /  F ield         | foam-extend: Open Source CFD                    |
|  \\    /   O peration     | Version:  3.0                                   |
|   \\  /    A nd           | Web:         http://www.extend-project.de       |
|    \\/     M anipulation  |                                                 |
\*---------------------------------------------------------------------------*/
FoamFile
{
    version     2.0;
    format      ascii;
    class       volSymmTensorField;
    location    "84";
    object      sigma;
}
// * * * * * * * * * * * * * * * * * * * * * * * * * * * * * * * * * * * * * //

dimensions      [0 0 0 0 0 0 0];

internalField   nonuniform List<symmTensor> 
2688
(
(-0.1782267209 -0.004871561604 2.091950053e-19 0.1782501257 4.262343924e-19 -2.340482978e-05)
(-0.1748249797 -0.005757402297 1.362803017e-21 0.1748884342 3.122078456e-19 -6.345451387e-05)
(-0.1676042066 -0.006174331097 -8.779280458e-20 0.1677035188 7.769718317e-19 -9.931222157e-05)
(-0.1583113426 -0.006274210663 7.967685447e-20 0.1584429852 3.78870935e-19 -0.0001316426804)
(-0.148433177 -0.0062219821 -1.075901578e-20 0.1485940947 4.626064244e-19 -0.0001609176482)
(-0.1380857062 -0.006047097141 1.446217465e-19 0.1382731184 2.530994011e-19 -0.0001874122115)
(-0.1281439783 -0.00582959458 -1.403808117e-20 0.1283552913 3.278278873e-19 -0.0002113130188)
(-0.1182719006 -0.005568205538 1.077072555e-19 0.1185045765 1.330988674e-19 -0.0002326759524)
(-0.1090609209 -0.005302736072 -2.968692757e-20 0.1093124355 2.75471046e-19 -0.000251514556)
(-0.1001207638 -0.005029204158 -6.142566337e-20 0.1003885036 -6.584970604e-20 -0.0002677398338)
(-0.09184543873 -0.004764105061 1.078712183e-19 0.09212667894 4.923097358e-19 -0.0002812402091)
(-0.08393228515 -0.004509004877 -8.001607126e-20 0.08422409264 7.146573774e-20 -0.0002918074991)
(-0.07660897352 -0.004265232423 3.996730285e-19 0.07690819558 1.316468815e-19 -0.0002992220554)
(-0.06970625614 -0.004041534775 -9.76819633e-20 0.07000941666 3.023824691e-20 -0.0003031605194)
(-0.06330587259 -0.00382889173 1.564083303e-20 0.06360916457 6.550120354e-20 -0.0003032919739)
(-0.05737889728 -0.003642498823 2.055261556e-20 0.05767806448 2.726696389e-20 -0.0002991672043)
(-0.05188144666 -0.003466551024 -5.572755958e-20 0.05217177297 1.27088025e-19 -0.0002903263096)
(-0.04691414815 -0.003320780378 2.408744804e-19 0.04719032183 7.347177645e-20 -0.0002761736832)
(-0.04233202907 -0.003186161111 -2.375261665e-19 0.04258812185 -1.23300911e-19 -0.0002560927819)
(-0.03834249082 -0.003083784697 1.843242389e-19 0.03857180551 1.515941922e-19 -0.0002293146942)
(-0.03473348119 -0.002995958659 6.824574322e-20 0.03492850864 -1.917404246e-19 -0.0001950274542)
(-0.0317819326 -0.002940093743 6.487366637e-20 0.03193418433 -4.086812715e-19 -0.000152251734)
(-0.02925991567 -0.002905523559 -2.425165601e-20 0.02935983842 1.241525026e-19 -9.992274517e-05)
(-0.02745473421 -0.002903744463 -1.007461172e-19 0.02749153014 -8.101647102e-19 -3.679592833e-05)
(-0.1777421515 -0.01450439376 3.658050989e-20 0.1777657422 -5.173410978e-19 -2.359068186e-05)
(-0.1739135988 -0.01712180851 2.903661364e-19 0.1739775741 -3.374973583e-19 -6.397524742e-05)
(-0.1664402709 -0.01834211021 9.615733963e-20 0.1665403766 -4.901193493e-19 -0.0001001056875)
(-0.1570174573 -0.01861826111 -1.891487507e-19 0.157150157 -9.162575996e-20 -0.0001326997236)
(-0.1470722704 -0.01844025879 1.320463859e-19 0.1472344808 -1.63776137e-19 -0.000162210343)
(-0.1367085725 -0.01789586873 -1.416624103e-19 0.1368974882 -3.340959425e-19 -0.0001889156711)
(-0.126773913 -0.01722298195 2.34274317e-19 0.1269869232 1.246495517e-19 -0.000213010189)
(-0.1169295837 -0.01641753543 -8.389874541e-20 0.1171641262 -4.677087913e-19 -0.0002345424952)
(-0.1077548621 -0.01559791991 -7.132854673e-20 0.1080083957 5.632503126e-20 -0.000253533635)
(-0.09885755814 -0.0147518902 2.39524594e-19 0.09912744474 -4.300375271e-19 -0.0002698866036)
(-0.09062811241 -0.013928455 7.433650806e-20 0.09091160819 -8.068076655e-20 -0.0002834957788)
(-0.08276024885 -0.01313199044 -1.574151662e-20 0.08305439349 -3.010115423e-19 -0.0002941446385)
(-0.07548335795 -0.01236618134 -2.122680551e-19 0.07578497615 1.700433314e-19 -0.0003016181998)
(-0.06862253028 -0.01165704465 1.805285951e-19 0.06892811478 -9.353505491e-20 -0.000305584501)
(-0.06226458771 -0.01097717401 -7.899054712e-20 0.06257030387 2.550520739e-19 -0.0003057161663)
(-0.05637324831 -0.01037216904 4.697622172e-20 0.0566748031 3.362001034e-19 -0.0003015547969)
(-0.05091168102 -0.00979405518 3.085011159e-19 0.05120432359 -1.713169793e-19 -0.0002926425731)
(-0.04597223507 -0.009302428601 -4.699410524e-19 0.04625060867 4.343790202e-19 -0.0002783735997)
(-0.04141752018 -0.008839203624 3.421216365e-19 0.04167565207 3.826203378e-19 -0.0002581318845)
(-0.03744712663 -0.008468706217 -3.968147583e-20 0.03767826435 3.561887427e-20 -0.0002311377163)
(-0.03385508536 -0.008136127875 -4.750062903e-19 0.0340516636 1.440064062e-19 -0.0001965782445)
(-0.03091326706 -0.007895874378 1.671490943e-19 0.03106672849 5.097893501e-19 -0.0001534614251)
(-0.02839550875 -0.007714850079 -3.813500049e-19 0.0284962273 1.747192262e-19 -0.0001007185476)
(-0.02658946558 -0.007620284581 3.083793698e-19 0.02662655705 1.311080925e-19 -3.709146737e-05)
(-0.1767764808 -0.02411155575 2.280231339e-19 0.1768001854 4.02819575e-19 -2.370455044e-05)
(-0.1721081309 -0.02834271254 -4.203290011e-20 0.1721724149 5.61186148e-19 -6.428405235e-05)
(-0.1641386883 -0.03029368232 6.013380858e-20 0.1642392841 2.381882608e-19 -0.0001005958742)
(-0.1544615734 -0.0307054668 2.782656956e-19 0.1545949204 2.327980231e-19 -0.0001333469864)
(-0.1443861975 -0.03037784487 -2.030095596e-19 0.1445491996 3.120756077e-19 -0.0001630020702)
(-0.1339925308 -0.02945361698 3.216305501e-19 0.1341823661 2.052883112e-19 -0.0001898353827)
(-0.1240738546 -0.02832162154 -1.038686672e-19 0.1242878992 2.629397636e-19 -0.0002140445825)
(-0.1142863847 -0.02697404777 3.045896238e-20 0.1145220643 2.197115531e-19 -0.0002356795435)
(-0.1051853259 -0.02560495128 -5.778317188e-20 0.1054400849 5.232173113e-19 -0.0002547590403)
(-0.09637482333 -0.02419304695 -2.217651258e-19 0.09664601251 1.936667118e-19 -0.0002711891844)
(-0.08823817743 -0.02281913356 1.717002856e-19 0.08852303762 4.919818365e-19 -0.0002848601834)
(-0.08046212058 -0.0214892371 1.546056555e-19 0.08075767904 7.969603396e-20 -0.0002955584616)
(-0.07327930044 -0.02020998133 6.000375436e-19 0.07358236463 -6.971811389e-20 -0.0003030641918)
(-0.06650380291 -0.01902305874 -1.10875909e-20 0.0668108505 -4.464236861e-20 -0.000307047597)
(-0.06023233737 -0.01788403082 4.965163706e-19 0.06053951342 -1.195072638e-19 -0.0003071760457)
(-0.05441421968 -0.01686701801 -3.357956635e-19 0.05471721221 -4.766871493e-20 -0.0003029925256)
(-0.04902657266 -0.01589357544 4.225941779e-20 0.04932060627 6.529285718e-20 -0.0002940336099)
(-0.04414515717 -0.01506126977 9.78678366e-19 0.04442485129 -8.314469008e-20 -0.0002796941237)
(-0.03964826493 -0.01427454151 -5.736085429e-19 0.03990761696 1.810110679e-20 -0.0002593520303)
(-0.03571871243 -0.01363942647 1.417270174e-20 0.03595093996 -1.717516814e-20 -0.0002322275288)
(-0.03216483884 -0.01306500772 6.068201411e-19 0.03236233988 -2.77140835e-20 -0.0001975010402)
(-0.02924518791 -0.01264187361 2.991693379e-19 0.02939936717 -4.311043492e-19 -0.0001541792596)
(-0.02674140423 -0.01231470238 -4.567238477e-19 0.02684259015 2.910431005e-19 -0.0001011859282)
(-0.02493730656 -0.01212643577 -2.833581677e-19 0.02497456698 -6.500418872e-19 -3.72604161e-05)
(-0.1753283254 -0.03367556359 7.081714829e-20 0.175352071 -3.737775453e-21 -2.374559346e-05)
(-0.1694341692 -0.03932789554 1.81237654e-19 0.169498562 -2.392236429e-19 -6.439279842e-05)
(-0.1607419612 -0.04189074817 -4.614042204e-20 0.1608427314 -7.025971783e-19 -0.0001007702436)
(-0.1506958117 -0.04237188359 -1.859195556e-19 0.1508293864 5.31477787e-20 -0.0001335746476)
(-0.1404329376 -0.04185576782 1.658610689e-19 0.1405962185 -1.989125449e-19 -0.000163280839)
(-0.1299982962 -0.04053498894 -2.188467264e-19 0.1301884539 -6.317181191e-22 -0.0001901577534)
(-0.1201057725 -0.03893791473 3.30201159e-19 0.1203201782 -4.089905776e-20 -0.0002144057001)
(-0.1104041798 -0.03705156029 4.373077237e-20 0.1106402549 2.398981162e-19 -0.0002360751217)
(-0.1014134872 -0.03514075696 8.214637841e-20 0.1016686706 -4.276028783e-19 -0.0002551833798)
(-0.09273252416 -0.03317400608 1.924644443e-19 0.09300416289 4.755366874e-20 -0.0002716387344)
(-0.0847341232 -0.03126265555 -7.146689221e-20 0.08501945224 2.73189199e-19 -0.0002853290386)
(-0.07709484186 -0.02941250739 -4.748517468e-19 0.07739088458 -4.415337087e-19 -0.0002960427168)
(-0.07005205246 -0.0276341168 -4.875263998e-19 0.07035561007 5.97507874e-19 -0.0003035576059)
(-0.06340384892 -0.02598212623 3.053420583e-19 0.06371139415 -5.889587484e-19 -0.0003075452223)
(-0.05726123754 -0.02439752062 -2.657134351e-19 0.0575689084 1.123627595e-18 -0.000307670867)
(-0.05155281399 -0.0229794179 4.622430017e-19 0.05185629205 -2.475637594e-19 -0.0003034780623)
(-0.04627550346 -0.02162238083 1.691353086e-20 0.04657000516 5.510191397e-19 -0.0002945016976)
(-0.04148185027 -0.02045774852 -3.160002715e-19 0.04176198688 -4.545000212e-19 -0.0002801366121)
(-0.037071404 -0.01935660817 6.427482566e-19 0.03733116341 8.557352101e-20 -0.0002597594065)
(-0.03320494332 -0.01846222965 -2.338431319e-19 0.03343753322 1.324217447e-19 -0.0002325898975)
(-0.02970825957 -0.01765154109 -9.585077588e-19 0.02990606657 1.593738296e-19 -0.0001978070017)
(-0.02682473888 -0.01704779407 7.333784039e-19 0.02697915576 1.688010211e-19 -0.000154416881)
(-0.02434256359 -0.01657535741 -3.807183633e-19 0.02444390539 3.731646462e-19 -0.0001013418035)
(-0.02254472501 -0.01629265539 5.111713962e-19 0.02258204311 2.467144257e-19 -3.731809736e-05)
(-0.1733956964 -0.04317823552 9.454771559e-20 0.1734194083 1.246359075e-19 -2.371181043e-05)
(-0.165929253 -0.04999017998 -3.99499518e-19 0.1659935513 -1.254760026e-19 -6.429828047e-05)
(-0.1563123049 -0.0530036128 3.319218094e-19 0.1564129319 -3.314739693e-19 -0.0001006269664)
(-0.1457964969 -0.05346420938 5.027583908e-19 0.1459298777 3.780749829e-19 -0.0001333808594)
(-0.1352973072 -0.05270697312 -9.93437696e-20 0.1354603522 -3.492900893e-19 -0.0001630450554)
(-0.1248147475 -0.05096713069 3.169247299e-19 0.1250046283 5.626095813e-19 -0.0001898808576)
(-0.11496032 -0.04889709987 2.018703491e-19 0.1151744119 -3.520662493e-19 -0.000214091906)
(-0.1053735638 -0.04647671538 -2.455560519e-19 0.1056092912 4.539735382e-19 -0.0002357273963)
(-0.09652887088 -0.0440350002 -2.699192346e-19 0.09678367579 3.413919432e-19 -0.0002548049125)
(-0.08801850299 -0.04152859241 5.150357125e-19 0.0882897365 -2.646929626e-19 -0.0002712335038)
(-0.08020159518 -0.03909772617 4.816962422e-20 0.08048649563 -2.5712788e-19 -0.0002849004563)
(-0.07274186597 -0.03674544863 5.138561208e-19 0.07303746163 -2.52594622e-20 -0.0002955956552)
(-0.06588256286 -0.0344875083 3.058107201e-19 0.06618565908 3.415805997e-19 -0.0003030962118)
(-0.05940140704 -0.03238799102 4.162310634e-19 0.05970848242 -1.654246125e-19 -0.0003070753838)
(-0.05342767219 -0.03037627658 9.439027602e-19 0.05373486993 2.340083483e-19 -0.0003071977336)
(-0.04786333657 -0.02857233533 -8.182427106e-19 0.0481663454 -7.903640538e-19 -0.000303008827)
(-0.04273096151 -0.02684745742 1.971894717e-19 0.0430250045 -7.414760143e-19 -0.0002940429914)
(-0.03805275135 -0.02536260132 1.377855506e-19 0.03833244898 3.366920893e-19 -0.0002796976298)
(-0.0337565876 -0.02395896448 3.171960998e-20 0.03401593675 -2.502683406e-19 -0.0002593491457)
(-0.02997322091 -0.02281376534 4.715391986e-19 0.03020544123 7.796307842e-20 -0.0002322203198)
(-0.02655345891 -0.02177394069 6.086017724e-19 0.02675094894 -2.371469238e-19 -0.0001974900311)
(-0.02371781793 -0.02099380492 2.778299559e-19 0.02387198542 5.317092321e-19 -0.0001541674844)
(-0.02126672987 -0.0203775446 3.439491817e-19 0.0213679065 -9.372053604e-19 -0.0001011766322)
(-0.01947884307 -0.01999970071 -9.643447543e-19 0.01951609991 8.968279556e-19 -3.725683795e-05)
(-0.1709762596 -0.05260029141 -2.483942338e-19 0.1709998636 7.316891313e-19 -2.360395137e-05)
(-0.1616420325 -0.06024885196 -4.039794715e-19 0.1617060342 4.646408645e-19 -6.400165853e-05)
(-0.1509301901 -0.06351393159 -7.368243911e-20 0.1510303573 6.090868263e-20 -0.0001001671999)
(-0.1398622446 -0.06384322885 -2.100160685e-19 0.1399950121 2.721925672e-19 -0.0001327675554)
(-0.1290889267 -0.06278019482 1.768725618e-19 0.1292512231 3.755346345e-19 -0.0001622964311)
(-0.1185566556 -0.06059379059 -1.633490837e-19 0.1187456623 -2.329276567e-19 -0.0001890066595)
(-0.1087546118 -0.05804136843 3.249394757e-19 0.1089677169 1.313440959e-20 -0.0002131050618)
(-0.09931146826 -0.05509312911 6.162984661e-19 0.09954610655 6.047851933e-19 -0.0002346382962)
(-0.09064706518 -0.05213411136 -3.345110978e-19 0.09090069073 -9.678224629e-19 -0.0002536255489)
(-0.08234605774 -0.04910710414 -7.491398217e-19 0.08261603298 9.740922411e-19 -0.0002699752355)
(-0.07475107802 -0.04617913631 4.92177294e-20 0.07503465429 3.325636912e-19 -0.000283576271)
(-0.06751073605 -0.0433473935 -1.456665209e-20 0.0678049547 -1.894211173e-19 -0.0002942186472)
(-0.06087513705 -0.04063441071 -4.848613939e-19 0.06117681864 1.67801433e-19 -0.0003016815891)
(-0.05459791887 -0.03810927006 5.250879516e-20 0.05490355769 -2.049924253e-19 -0.0003056388134)
(-0.04882990243 -0.03569368002 -3.780305913e-19 0.0491356601 2.746037763e-19 -0.0003057576692)
(-0.04344173835 -0.03352283183 -3.427912369e-19 0.04374332291 -5.58714384e-19 -0.0003015845583)
(-0.03848590962 -0.0314502093 3.490936424e-19 0.03877856713 1.569464263e-18 -0.0002926575142)
(-0.03394952727 -0.02965982459 3.758032287e-19 0.03422790277 -2.97033834e-19 -0.0002783754983)
(-0.02979257582 -0.02796936778 1.217869584e-19 0.03005069551 6.98713768e-19 -0.0002581196904)
(-0.0261124301 -0.02658301036 -4.38876907e-19 0.02634354543 3.79799124e-19 -0.0002311153316)
(-0.02278649151 -0.025323975 -2.905692461e-19 0.02298303837 2.947880501e-19 -0.0001965468588)
(-0.02001173093 -0.02437170559 -1.206864666e-19 0.02016515815 1.524238677e-18 -0.0001534272296)
(-0.0175994725 -0.02361391037 9.023164043e-19 0.01770015998 -6.429688693e-19 -0.0001006874839)
(-0.01582574297 -0.02313962591 1.505074905e-20 0.0158628171 2.94550323e-18 -3.707412704e-05)
(-0.1680675345 -0.06192114301 5.35916708e-19 0.1680909559 -1.285366279e-18 -2.342134469e-05)
(-0.1566308466 -0.07003158665 -9.594582325e-19 0.1566943496 3.754613478e-20 -6.350300068e-05)
(-0.1446919705 -0.07331765272 4.75347724e-19 0.1447913615 -9.128791135e-19 -9.939097698e-05)
(-0.1330110707 -0.07338751843 4.848200655e-19 0.1331428064 7.101946637e-19 -0.0001317356805)
(-0.1219388796 -0.07194403471 2.20888178e-20 0.1220999155 -1.230689079e-18 -0.0001610359125)
(-0.1113612851 -0.06927963538 -9.124411326e-20 0.1115488219 4.779481146e-19 -0.0001875368472)
(-0.1016286148 -0.06623433763 6.528983002e-19 0.1018400616 -1.82225432e-19 -0.0002114468433)
(-0.09235769383 -0.06276587806 -2.901413183e-19 0.09259050425 -1.085772914e-18 -0.0002328104147)
(-0.08390618412 -0.05930580651 4.903668148e-19 0.08415783203 -6.26926612e-19 -0.0002516479109)
(-0.07585063729 -0.05578075003 1.524187537e-18 0.07611850502 2.650187413e-19 -0.0002678677272)
(-0.06851460388 -0.05238209788 -8.29148431e-19 0.06879596425 -9.952707682e-19 -0.0002813603718)
(-0.06153004125 -0.04909759371 2.904041513e-19 0.06182195836 5.945294202e-19 -0.0002919171124)
(-0.05515449423 -0.04595831769 3.61344661e-19 0.05545381355 1.920559069e-19 -0.0002993193202)
(-0.04911465839 -0.04303338881 1.477954658e-19 0.04941790149 9.776725321e-19 -0.000303243098)
(-0.04358558136 -0.04024100469 1.025081779e-18 0.0438889399 -4.809366491e-19 -0.0003033585468)
(-0.03840250294 -0.03772579484 -6.362351132e-19 0.03870171862 1.516671698e-18 -0.0002992156856)
(-0.03365198539 -0.03532850929 6.600125131e-19 0.03394234158 -6.377871085e-19 -0.0002903561946)
(-0.02928086833 -0.03325066731 -8.908061166e-19 0.02955705254 6.845132151e-19 -0.0002761842042)
(-0.02528651179 -0.0312907921 1.304793239e-18 0.02554259759 -3.551123174e-19 -0.0002560858056)
(-0.0217268374 -0.02967620468 3.306429887e-20 0.02195613032 6.747231287e-19 -0.0002292929129)
(-0.01851166511 -0.02820828223 2.228723886e-18 0.0187066613 -5.234063981e-19 -0.0001949961846)
(-0.01580845695 -0.02709090354 -9.01244061e-19 0.01596067385 7.563478611e-19 -0.0001522169025)
(-0.01344371015 -0.02619367218 2.052296688e-18 0.01354360461 6.411341346e-19 -9.989445367e-05)
(-0.01168845168 -0.02562303205 -1.424586725e-18 0.01172523592 -7.248494444e-19 -3.678424195e-05)
(-0.1646672106 -0.07111871233 3.363173971e-19 0.1646903757 1.444809356e-18 -2.316506607e-05)
(-0.1509625652 -0.07927551998 1.836894708e-19 0.15102537 4.977554381e-20 -6.280484262e-05)
(-0.1377076188 -0.08232721406 -4.894117746e-19 0.1378059203 1.142395954e-18 -9.830151974e-05)
(-0.1253775462 -0.08199607982 2.238683958e-19 0.1255078356 -8.23984516e-19 -0.0001302894091)
(-0.1139965879 -0.08008998284 2.195490322e-19 0.1141558562 -6.389672124e-20 -0.000159268323)
(-0.1033850217 -0.07691335909 5.89484507e-20 0.1035704985 8.10092755e-19 -0.0001854767888)
(-0.09374182615 -0.07336418253 -8.198013387e-19 0.09395094918 1.650779326e-19 -0.0002091230369)
(-0.08467146296 -0.0693845921 3.627474761e-19 0.08490171263 3.331795994e-20 -0.0002302496772)
(-0.07646357106 -0.06544206846 -8.258043942e-19 0.07671244915 1.39064028e-18 -0.0002488780896)
(-0.068686447 -0.0614445514 -7.679688913e-20 0.06895136365 -4.805727913e-19 -0.0002649166474)
(-0.06164250892 -0.05760505858 3.534539297e-19 0.06192076718 9.47254059e-19 -0.0002782582603)
(-0.05494608038 -0.05389792939 8.374365554e-19 0.05523477575 -2.22960172e-19 -0.0002886953731)
(-0.04886248778 -0.05036479384 -1.442198745e-19 0.0491585009 4.219718735e-19 -0.0002960131123)
(-0.04308949701 -0.04706914523 -2.827164517e-19 0.04338938679 -9.569970544e-19 -0.0002998897849)
(-0.03782823554 -0.04393064971 2.846097009e-19 0.03812823621 1.555405865e-19 -0.0003000006752)
(-0.03287579658 -0.04109624583 3.263457163e-19 0.03317169577 -1.176220187e-18 -0.000295899197)
(-0.02835539839 -0.03840084425 -9.349135947e-20 0.02864253231 1.31350238e-19 -0.0002871339151)
(-0.02417072105 -0.03605517521 8.696969722e-19 0.0244438351 -9.711480135e-19 -0.0002731140482)
(-0.02035887257 -0.03384673344 -7.069356679e-20 0.02061210717 -3.117528705e-19 -0.0002532345983)
(-0.01693612601 -0.03201690273 -5.783882029e-19 0.01716286064 -6.300124822e-19 -0.0002267346354)
(-0.0138459936 -0.03035374365 2.597473097e-19 0.01403880928 -4.252280285e-19 -0.0001928156811)
(-0.01122544356 -0.029077014 1.831319463e-18 0.01137595257 6.367538997e-19 -0.0001505090067)
(-0.00891621772 -0.02804444257 2.743439724e-19 0.009014985748 -1.704022073e-18 -9.876802836e-05)
(-0.007184144747 -0.02737599795 4.708426297e-19 0.007220509218 1.431396888e-18 -3.636447165e-05)
(-0.1607734752 -0.08016926955 -7.016870224e-20 0.1607963107 -8.185433494e-19 -2.283553856e-05)
(-0.144710577 -0.08792855932 -1.294268409e-18 0.1447724861 3.831034037e-19 -6.190906063e-05)
(-0.13009751 -0.09047348514 9.512389671e-19 0.1301944119 -2.162635481e-18 -9.690190707e-05)
(-0.1171087542 -0.0895908247 -7.721618902e-19 0.1172371871 6.387991123e-19 -0.0001284329779)
(-0.1054252403 -0.08713512638 8.896741524e-19 0.1055822394 -3.040739986e-19 -0.0001569990641)
(-0.09479859538 -0.08341060184 7.763199027e-19 0.0949814285 -1.657197955e-19 -0.0001828331254)
(-0.08526825008 -0.07934666374 1.481010251e-19 0.08547439146 -4.001346581e-19 -0.0002061413749)
(-0.07642647206 -0.07486653764 3.039763196e-19 0.07665343737 -3.85795936e-19 -0.0002269653123)
(-0.06849076435 -0.07046227972 6.779627172e-19 0.06873609083 -8.264437729e-19 -0.0002453264876)
(-0.06102163599 -0.0660204575 4.436816926e-19 0.06128277029 5.616562079e-19 -0.0002611343033)
(-0.0542986486 -0.06177277539 -8.422321374e-19 0.05457293221 -8.489596289e-19 -0.0002742836118)
(-0.04791837413 -0.05767596241 1.847300212e-19 0.04820294374 1.236102416e-19 -0.0002845696049)
(-0.04215379385 -0.05378426281 3.49677874e-19 0.04244557467 1.002174067e-19 -0.0002917808198)
(-0.03667281081 -0.05014967394 -3.593481053e-19 0.03696841084 7.453665222e-19 -0.0002956000316)
(-0.03170369763 -0.04669826751 1.904351594e-19 0.03199940499 6.284923182e-19 -0.0002957073612)
(-0.02700359334 -0.04357243704 -6.227009388e-19 0.02729525596 1.12600784e-18 -0.0002916626194)
(-0.02273443617 -0.04060723914 2.955612963e-19 0.02301745711 3.482283121e-19 -0.0002830209336)
(-0.01875404972 -0.03801613281 -1.720157379e-18 0.01902324996 6.879010208e-19 -0.0002692002366)
(-0.0151421872 -0.03558049696 1.71639325e-18 0.01539179158 1.048069302e-18 -0.0002496043815)
(-0.0118700969 -0.03355169683 -3.721127037e-19 0.01209358069 3.960206316e-19 -0.0002234837897)
(-0.008918139586 -0.0317059509 1.699036121e-18 0.009108191156 1.182862821e-18 -0.0001900515704)
(-0.006389694078 -0.03027911084 -1.86149845e-18 0.006538047249 -9.838767058e-19 -0.0001483531714)
(-0.004143594018 -0.02911374103 2.881962898e-18 0.004240950849 8.345806899e-19 -9.735683182e-05)
(-0.002439692273 -0.02834811921 -9.297061747e-19 0.002475541564 -1.660094526e-18 -3.584929072e-05)
(-0.1563853612 -0.08904739238 2.022869275e-18 0.1564077951 1.337633806e-19 -2.243397677e-05)
(-0.1379533861 -0.09595009426 -2.10895294e-20 0.1380142047 -8.302358509e-19 -6.081862146e-05)
(-0.1219896089 -0.09770714957 -2.230675439e-19 0.1220848056 -1.037486066e-19 -9.519671296e-05)
(-0.1083608481 -0.09611822666 5.120125798e-19 0.1084870202 1.274006557e-18 -0.0001261720286)
(-0.09639795536 -0.09302402593 -6.504529989e-19 0.09655219031 -3.509211994e-19 -0.0001542349466)
(-0.08578304458 -0.08871585569 3.419952835e-19 0.08596265783 5.509869779e-19 -0.0001796132529)
(-0.0763923999 -0.08412702407 -7.086685641e-19 0.07659490978 -1.381426453e-19 -0.0002025098745)
(-0.06780684062 -0.07915845835 -5.776061697e-19 0.06802980588 7.769185022e-19 -0.0002229652662)
(-0.06016963301 -0.07431495643 4.453491657e-20 0.06041063408 6.929511642e-19 -0.0002410010634)
(-0.05303439394 -0.06945899639 1.156664504e-19 0.05329092164 7.419417099e-19 -0.0002565276963)
(-0.04665668331 -0.06483787504 3.555697823e-19 0.046926126 2.888080077e-19 -0.0002694426847)
(-0.04061586757 -0.06038636792 7.75900213e-19 0.04089541149 5.816139959e-19 -0.0002795439206)
(-0.0351921773 -0.05617353675 7.992693409e-19 0.03547880213 1.783414673e-19 -0.000286624834)
(-0.03002368338 -0.05223359953 5.180817464e-19 0.03031405595 -9.729873633e-19 -0.0002903725705)
(-0.02536603549 -0.04850460021 1.050491261e-18 0.02565650986 -1.892530486e-19 -0.0002904743701)
(-0.02093588037 -0.04511640214 4.093936179e-19 0.02122237675 -1.397254425e-18 -0.0002864963746)
(-0.01693469992 -0.04191197887 7.654599299e-20 0.01721270321 -2.145492703e-19 -0.0002780032951)
(-0.01317332381 -0.0390981659 1.094950625e-18 0.0134377457 -8.695811832e-19 -0.000264421893)
(-0.00977556196 -0.03645944231 -1.188953743e-18 0.01002073044 -2.36205757e-19 -0.0002451684831)
(-0.006665849973 -0.03424689556 -2.692448332e-19 0.006885355513 -5.617922008e-19 -0.0002195055406)
(-0.003863425266 -0.03223458752 -3.431369985e-19 0.004050087347 -2.612049644e-19 -0.0001866620809)
(-0.001435561188 -0.03066478864 2.702836159e-19 0.001581261057 8.878628389e-19 -0.0001456998694)
(0.0007392126743 -0.02937212711 -2.092967822e-18 -0.0006436047768 -1.030485283e-18 -9.560789749e-05)
(0.002410117745 -0.02850866956 1.714963063e-18 -0.002374919504 3.17843447e-20 -3.519824111e-05)
(-0.1515031511 -0.0977259258 -6.02707165e-19 0.1515251127 4.492258302e-19 -2.196160451e-05)
(-0.1307722953 -0.1033114906 2.440458644e-19 0.1308318321 -1.020270107e-18 -5.95367918e-05)
(-0.1135157659 -0.1039994342 -1.687088009e-19 0.1136089573 1.701215104e-18 -9.319135948e-05)
(-0.09929434346 -0.1015502149 3.540515802e-19 0.09941785722 -9.114290946e-19 -0.0001235137609)
(-0.08709247733 -0.09772970399 2.483266939e-20 0.08724346244 4.886390324e-19 -0.0001509851077)
(-0.07652409605 -0.0928035329 1.382232502e-18 0.07669992426 -6.377975811e-19 -0.0001758282131)
(-0.06730339842 -0.08768113217 3.035813947e-19 0.06750163988 2.144519024e-19 -0.0001982414609)
(-0.05900121621 -0.08223775859 1.038593427e-18 0.05921948088 -7.768067404e-19 -0.0002182646706)
(-0.05168636985 -0.07697900438 2.020036728e-19 0.05192228884 -3.602826771e-19 -0.0002359189887)
(-0.04490713148 -0.07174055759 7.622035505e-19 0.04515824821 -5.614844697e-19 -0.0002511167331)
(-0.03889427027 -0.06678216898 -1.425071321e-18 0.03915802804 -6.85608958e-19 -0.0002637577674)
(-0.0332114423 -0.06201232761 6.974687643e-20 0.03348508644 -1.008236568e-19 -0.0002736441386)
(-0.02814516091 -0.05751707547 -3.964494694e-19 0.0284257348 -8.026880602e-19 -0.00028057389)
(-0.02330495169 -0.05330665822 -5.457724221e-19 0.02358919238 -2.236508449e-19 -0.0002842406911)
(-0.01897298681 -0.04933643525 -1.808374248e-19 0.01925732544 3.990673233e-19 -0.0002843386246)
(-0.01482631247 -0.04571623632 -1.198064617e-19 0.01510675548 6.82258679e-19 -0.0002804430177)
(-0.01110547122 -0.04230378769 5.340375899e-20 0.01137759922 8.849300578e-19 -0.0002721279914)
(-0.007574611488 -0.03929163628 -2.973529795e-19 0.007833444023 -8.383260811e-19 -0.0002588325353)
(-0.004401630808 -0.0364737318 2.196070373e-18 0.004641616327 2.496931623e-18 -0.0002399855191)
(-0.001463953677 -0.03409505638 -4.770082648e-19 0.001678818911 -3.548177455e-19 -0.0002148652337)
(0.001180088332 -0.03193072683 2.627485577e-18 -0.0009973709475 1.913739614e-18 -0.0001827173844)
(0.003499317089 -0.03022825602 -1.011248401e-18 -0.00335669337 -1.585769002e-18 -0.0001426237192)
(0.00559607397 -0.0288114343 6.391437497e-19 -0.005502479538 3.827210742e-19 -9.359443188e-05)
(0.007227283136 -0.02785219021 -1.536389237e-18 -0.007192820099 -4.353795689e-19 -3.446303743e-05)
(-0.1461287168 -0.1061760809 1.016005136e-18 0.1461501365 3.072488506e-19 -2.141978436e-05)
(-0.123249844 -0.1099964074 -5.750494499e-19 0.1233079113 5.340021332e-19 -5.80672988e-05)
(-0.1048086604 -0.1093425569 8.966788644e-20 0.1048995523 -8.269696704e-20 -9.089185593e-05)
(-0.09007040307 -0.1058847474 1.363578267e-19 0.09019086892 4.016294542e-19 -0.0001204658456)
(-0.07768705313 -0.1012542426 -8.661489449e-19 0.07783431194 -3.493324099e-19 -0.0001472588089)
(-0.0672078806 -0.09567858299 5.134581957e-19 0.06737936886 -3.403324921e-19 -0.0001714882539)
(-0.05819075299 -0.09001604799 -4.086804685e-19 0.05838410023 -4.341165303e-19 -0.0001933472433)
(-0.05019855704 -0.08411304219 -4.136449367e-19 0.05041143178 -3.944948026e-19 -0.0002128747343)
(-0.04322750547 -0.07846415991 7.838163628e-19 0.04345759696 3.126410063e-20 -0.0002300914879)
(-0.03682250895 -0.07287577696 1.071546334e-18 0.03706742051 3.265917331e-20 -0.0002449115684)
(-0.03118934203 -0.06761693943 1.248118994e-18 0.03144658 2.697185261e-19 -0.0002572379647)
(-0.02587812607 -0.06256568526 1.489608656e-19 0.02614500282 3.741038079e-19 -0.0002668767469)
(-0.02118039703 -0.05782715363 3.9383854e-19 0.02145402906 9.698782957e-19 -0.0002736320287)
(-0.01667941858 -0.05338145509 7.264669181e-19 0.01695662245 2.1540601e-19 -0.000277203868)
(-0.01268216501 -0.04920680439 7.773873986e-19 0.01295946037 1.294965247e-18 -0.0002772953545)
(-0.008828279149 -0.04538501159 3.46651156e-19 0.009101770135 -2.931537238e-19 -0.0002734909859)
(-0.005395638751 -0.04179643453 -6.781498439e-19 0.005661015871 -1.277799616e-18 -0.0002653771203)
(-0.002103506453 -0.03860981935 -3.085895755e-20 0.002355911726 7.914252042e-19 -0.0002524052729)
(0.0008373432781 -0.03563803322 4.857302332e-19 -0.0006033230543 -1.22287899e-18 -0.0002340202237)
(0.003595668404 -0.03310945888 -7.506141684e-19 -0.00338615143 -1.015282435e-18 -0.0002095169734)
(0.006073965646 -0.03081018673 -7.499375235e-19 -0.005895803805 -1.109061796e-18 -0.0001781618407)
(0.008278220523 -0.02898296895 1.154469981e-18 -0.008139161563 -1.468920406e-18 -0.0001390589598)
(0.01028925264 -0.02744858673 -1.698243857e-18 -0.01019800689 4.742908989e-20 -9.124574653e-05)
(0.01187580515 -0.02639264917 1.763860844e-18 -0.01184221558 -2.898776239e-19 -3.358957279e-05)
(-0.1402659567 -0.1143675319 -1.516390364e-19 0.1402867672 5.925025273e-19 -2.081049994e-05)
(-0.1154675115 -0.1160004086 5.377475164e-19 0.1155239265 -7.0292295e-19 -5.641502464e-05)
(-0.09599804643 -0.1137491276 -6.778916459e-19 0.09608635241 1.425985632e-18 -8.830598184e-05)
(-0.08084606253 -0.1091449574 8.322606147e-19 0.08096310117 -7.608690916e-19 -0.0001170386369)
(-0.06835501103 -0.1036278671 -5.678148257e-19 0.06849808003 1.625758204e-19 -0.0001430689949)
(-0.05801515844 -0.0973754877 -3.315971113e-20 0.05818176737 8.413056303e-19 -0.0001666089328)
(-0.04923826081 -0.09116904472 6.554294374e-19 0.04942610614 3.3693525e-19 -0.0001878453228)
(-0.0415819908 -0.08482312532 -5.641867475e-19 0.04178880725 8.620339186e-19 -0.0002068164521)
(-0.03497360906 -0.07881009101 -7.922384936e-19 0.03519715136 1.401170528e-19 -0.0002235422928)
(-0.02895727547 -0.07290468448 -4.595714315e-19 0.02919521488 8.979620654e-19 -0.0002379394057)
(-0.02371389608 -0.06738219982 -3.17814215e-19 0.02396380974 -9.921403713e-19 -0.0002499136579)
(-0.01878317255 -0.06208635585 5.638197466e-19 0.01904244907 8.672217714e-19 -0.0002592765138)
(-0.01445980506 -0.05714330459 -1.243380006e-19 0.01472564298 -1.496511111e-18 -0.0002658379155)
(-0.01030438903 -0.05249735159 -4.153478631e-19 0.01057369536 -4.241553181e-19 -0.0002693063321)
(-0.006645757016 -0.04815452611 9.166783873e-19 0.006915150644 -8.137743552e-19 -0.0002693936278)
(-0.003090004631 -0.04416158493 8.921761337e-20 0.003355700737 -1.777154918e-18 -0.0002656961066)
(5.107494696e-05 -0.04042805122 9.6748411e-19 0.0002067373369 8.474732622e-19 -0.0002578122838)
(0.003099280763 -0.03709141747 -1.958434428e-19 -0.002854071426 -1.684072957e-18 -0.0002452093372)