/*--------------------------------*- C++ -*----------------------------------*\
| =========                 |                                                 |
| \\      /  F ield         | foam-extend: Open Source CFD                    |
|  \\    /   O peration     | Version:  3.0                                   |
|   \\  /    A nd           | Web:         http://www.extend-project.de       |
|    \\/     M anipulation  |                                                 |
\*---------------------------------------------------------------------------*/
FoamFile
{
    version     2.0;
    format      ascii;
    class       volSymmTensorField;
    location    "13";
    object      sigma;
}
// * * * * * * * * * * * * * * * * * * * * * * * * * * * * * * * * * * * * * //

dimensions      [0 0 0 0 0 0 0];

internalField   nonuniform List<symmTensor> 
2688
(
(-0.1760750972 -0.00480149968 4.236365007e-20 0.1759915971 1.240491577e-21 8.350001178e-05)
(-0.1725298403 -0.005678143865 6.370872808e-20 0.1723048735 6.754005521e-21 0.0002249667649)
(-0.165166224 -0.006066534082 1.190220503e-20 0.1648153696 4.897920219e-20 0.0003508544308)
(-0.1559094639 -0.006164351122 -4.555293484e-22 0.1554453098 6.25182112e-20 0.0004641540216)
(-0.1458421727 -0.006088624549 2.135049803e-20 0.1452750871 7.971045451e-20 0.0005670856066)
(-0.1355654538 -0.005910027895 3.753978828e-20 0.1349044249 6.116487709e-20 0.0006610288469)
(-0.1254237425 -0.005672452866 4.758597568e-20 0.1246767521 7.462713908e-20 0.0007469904006)
(-0.1156024283 -0.005403417323 2.127391534e-20 0.1147769908 4.156777873e-20 0.0008254375062)
(-0.1062036727 -0.005120485995 -3.814878055e-21 0.1053070261 3.576593435e-20 0.0008966465782)
(-0.09727479819 -0.004835030903 8.003759341e-21 0.09631435702 6.129589739e-21 0.0009604411632)
(-0.08883624363 -0.004554383358 2.220861597e-20 0.08781971914 5.072320085e-20 0.001016524488)
(-0.08089120017 -0.004283521382 3.171094168e-20 0.07982704644 6.850917062e-20 0.001064153721)
(-0.07343513282 -0.004025596941 6.0853712e-20 0.07233267294 5.097428122e-20 0.001102459876)
(-0.06646144553 -0.003783040427 3.323630867e-20 0.06533137907 6.633954142e-20 0.001130066463)
(-0.05996194269 -0.003557326358 -3.172674222e-20 0.05881653614 8.49555911e-20 0.001145406558)
(-0.05393350219 -0.003350002391 -2.829035311e-21 0.05278722397 9.071924543e-20 0.001146278214)
(-0.04837271318 -0.003161979333 2.519676115e-20 0.04724254763 7.692529355e-20 0.001130165551)
(-0.04328547969 -0.002994689967 -8.637731541e-21 0.04219173961 1.174427213e-19 0.001093740083)
(-0.03867682956 -0.002848990451 -1.162316741e-21 0.03764363763 8.663168193e-20 0.001033191929)
(-0.03456452235 -0.002726583223 3.384665097e-20 0.03362083175 9.704272122e-20 0.0009436905999)
(-0.03096422891 -0.002628588783 4.169240756e-20 0.03014452178 1.530594999e-20 0.0008197071311)
(-0.02790813839 -0.00255728454 1.769439908e-20 0.02725368831 2.76985839e-20 0.0006544500787)
(-0.02542531132 -0.002514471531 1.643299707e-21 0.02498520673 -4.460772257e-21 0.0004401045877)
(-0.02356404202 -0.002502578391 -7.560518213e-22 0.02339679119 -5.479547936e-20 0.0001672508273)
(-0.1755822663 -0.01439535741 3.690767016e-20 0.175499036 -7.7316688e-22 8.323026751e-05)
(-0.1716118286 -0.01698554208 7.239142336e-20 0.1713875571 3.58354838e-21 0.0002242714709)
(-0.1640053005 -0.01812690469 3.613709749e-20 0.1636555585 2.260597611e-20 0.0003497420285)
(-0.154617409 -0.0184064634 5.397442298e-21 0.1541547195 4.903621516e-20 0.0004626895849)
(-0.1444889722 -0.01817167393 1.47204747e-20 0.1439236798 6.855825775e-20 0.0005652923531)
(-0.134194998 -0.01763230519 3.534417922e-20 0.1335360465 4.676564513e-20 0.0006589514862)
(-0.1240636945 -0.01691856184 3.879517808e-20 0.1233190432 7.864195383e-20 0.0007446512955)
(-0.1142698825 -0.0161120748 -4.596312358e-21 0.1134470221 3.007120507e-20 0.0008228603932)
(-0.1049088215 -0.01526495091 -3.365314834e-20 0.1040149677 5.706080725e-20 0.0008938538611)
(-0.09602320506 -0.01441089541 1.110862323e-20 0.09506575162 1.371287234e-20 0.000957453442)
(-0.08763040081 -0.01357161077 5.568226115e-20 0.08661703917 3.074162224e-20 0.00101336164)
(-0.07973141554 -0.01276182288 3.712246556e-20 0.07867057869 1.947878213e-20 0.001060836855)
(-0.07232026951 -0.01199085343 5.762823522e-20 0.0712212558 4.065793701e-21 0.001099013713)
(-0.06538922661 -0.01126589343 6.866472806e-20 0.06426270482 4.230580595e-20 0.001126521793)
(-0.05892936714 -0.01059129898 3.246799848e-20 0.05778756441 7.002139974e-20 0.001141802729)
(-0.05293687018 -0.009971640574 2.532343035e-20 0.05179420536 1.310826952e-19 0.00114266482)
(-0.04740791571 -0.009409595142 8.279602778e-20 0.04628131319 2.462352936e-20 0.00112660252)
(-0.04234785286 -0.008909405165 3.323407518e-20 0.04125755645 1.671965803e-19 0.001090296417)
(-0.03776138563 -0.008473637898 2.044819252e-20 0.03673144094 1.779269836e-19 0.001029944696)
(-0.03366567381 -0.008107404644 3.360047698e-20 0.03272494623 4.026782458e-20 0.0009407275736)
(-0.03007605264 -0.007814046868 -3.335605525e-20 0.02925891924 3.372143296e-20 0.0008171334005)
(-0.02702407186 -0.007600274762 1.508806752e-20 0.02637167798 1.355506986e-19 0.0006523938814)
(-0.02453836355 -0.007471444222 -6.967386026e-20 0.02409964278 9.071581799e-20 0.0004387207756)
(-0.0226666306 -0.007434842512 3.243478266e-20 0.02249990246 -5.189908146e-20 0.0001667281444)
(-0.1745964471 -0.02395927787 2.540011766e-20 0.1745137219 2.632218597e-20 8.272516856e-05)
(-0.1697894556 -0.02814543544 5.860003414e-20 0.169566547 3.796763734e-21 0.0002229086236)
(-0.1617052039 -0.02996947924 3.905734231e-20 0.1613575742 -2.974160021e-20 0.0003476297367)
(-0.1520601268 -0.03038974946 2.670355817e-20 0.1516002367 1.590770487e-20 0.0004598900698)
(-0.14181213 -0.02997336152 1.622420225e-20 0.1412502783 5.98812465e-20 0.0005618517)
(-0.1314851745 -0.02906248917 4.045998139e-20 0.1308302583 5.240686546e-20 0.0006549162706)
(-0.1213752651 -0.0278694277 4.725593793e-20 0.1206352051 8.877963845e-20 0.0007400600242)
(-0.111636424 -0.0265271698 -6.211425482e-21 0.1108186683 8.711803464e-20 0.0008177557112)
(-0.1023503498 -0.02512055535 -1.400448456e-20 0.1014620689 9.542435331e-20 0.0008882808835)
(-0.09355063466 -0.02370439052 -3.73939613e-20 0.09259917383 9.477769896e-20 0.0009514608333)
(-0.08524860156 -0.02231392486 1.144629706e-20 0.08424159927 1.108195425e-19 0.001007002287)
(-0.07744096152 -0.02097303992 3.162043999e-21 0.07638679163 3.747414048e-20 0.001054169888)
(-0.0701188977 -0.01969683308 7.264077864e-20 0.06902679326 -1.272107468e-20 0.001092104437)
(-0.06327243756 -0.01849694227 1.111896525e-19 0.06215299401 1.029821016e-20 0.001119443555)
(-0.05689123732 -0.01738040302 7.126290638e-20 0.05575660039 7.121539071e-20 0.001134636937)
(-0.05097008655 -0.01635461473 1.40002108e-20 0.04983458236 9.14979291e-20 0.001135504189)
(-0.0455043274 -0.01542390529 5.312978963e-20 0.04438477464 6.093897713e-20 0.001119552759)
(-0.04049818179 -0.01459517822 2.646764359e-19 0.03941470007 1.773553778e-20 0.001083481718)
(-0.03595571445 -0.01387262887 -2.120350493e-20 0.03493220289 6.330574764e-20 0.001023511556)
(-0.03189296097 -0.01326462881 -1.037342363e-19 0.03095810838 5.258226753e-20 0.0009348525859)
(-0.02832465961 -0.01277666833 1.685067345e-19 0.02751263051 2.590103389e-20 0.0008120290931)
(-0.02528108338 -0.01241973092 2.114502625e-19 0.0246327659 -1.764657717e-20 0.0006483174824)
(-0.02278990437 -0.01220260917 -1.494834586e-19 0.02235392652 1.307707999e-19 0.0004359778465)
(-0.02089765591 -0.01213730782 -2.555237326e-20 0.02073197111 -5.574117656e-20 0.0001656847972)
(-0.1731173112 -0.03347288812 -2.104262098e-22 0.1730353454 4.302163264e-20 8.196581736e-05)
(-0.1670892475 -0.03906303029 2.507700842e-20 0.1668683959 -3.332064181e-20 0.0002208515863)
(-0.1583088641 -0.04145490222 4.116165069e-20 0.1579644417 -8.37696172e-20 0.0003444223484)
(-0.1482902033 -0.04194889243 5.49221315e-20 0.1478345637 2.272259802e-21 0.0004556395734)
(-0.1378698435 -0.04131414475 4.30896996e-20 0.1373132054 3.589538391e-20 0.0005566381014)
(-0.1274970189 -0.04001431645 5.055754094e-20 0.1268482035 6.361526326e-20 0.0006488153989)
(-0.1174206074 -0.0383368753 8.680047549e-20 0.1166874702 7.622649043e-20 0.0007331371804)
(-0.107764242 -0.03646166887 5.389661209e-21 0.1069541659 1.302815384e-19 0.0008100761262)
(-0.0985897975 -0.03450331216 2.52229078e-21 0.0977098864 5.935245101e-20 0.0008799111036)
(-0.08991755216 -0.03253570533 5.146613183e-20 0.08897508059 4.593665389e-20 0.0009424715683)
(-0.08174998985 -0.03060630047 4.088421082e-20 0.08075252014 6.392215965e-20 0.0009974697056)
(-0.07407754324 -0.02874716857 -6.952242724e-20 0.07303336461 1.059210023e-20 0.001044178633)
(-0.06688725139 -0.02697853721 -2.132328573e-20 0.06580550286 6.361644276e-20 0.001081748531)
(-0.06016587483 -0.02531597942 1.500027308e-19 0.05905704531 1.27008669e-20 0.001108829516)
(-0.05390099125 -0.02376887961 1.171104399e-19 0.05277710625 1.81896512e-19 0.001123884995)
(-0.04808536367 -0.0223471499 8.788414001e-20 0.04696061071 -8.341028182e-21 0.001124752961)
(-0.04271311878 -0.02105657923 2.647196726e-20 0.0416041565 -6.969814813e-20 0.001108962283)
(-0.03778684256 -0.01990648879 7.523668406e-20 0.03671360174 -1.29646682e-19 0.001073240818)
(-0.03330967272 -0.01890256595 1.791576412e-19 0.03229582949 -1.001118066e-19 0.001013843228)
(-0.02929599444 -0.01805620233 7.082787817e-21 0.02836997035 -5.059242038e-21 0.0009260240873)
(-0.02575964896 -0.01737490632 -1.389718898e-19 0.02495528815 1.227456382e-20 0.0008043608072)
(-0.022729034 -0.01687367406 2.144517757e-19 0.0220868381 -2.797269935e-20 0.0006421958968)
(-0.02023038989 -0.0165645533 6.57071202e-20 0.01979852727 1.279984456e-19 0.000431862615)
(-0.01830857238 -0.0164640539 -1.926665438e-20 0.01814445078 -2.720800404e-20 0.0001641216001)
(-0.1711445029 -0.04291529236 -4.356264373e-20 0.1710635554 5.641084803e-20 8.094757355e-05)
(-0.1635502933 -0.04964857696 -4.899955997e-20 0.1633321926 -2.143343385e-20 0.0002181006501)
(-0.1538793034 -0.05245233316 2.850420479e-20 0.1535391744 -5.722213359e-20 0.0003401290345)
(-0.1433849193 -0.05292917386 8.790077824e-20 0.1429349664 1.903230548e-20 0.0004499529694)
(-0.1327474971 -0.05202628903 5.677740868e-20 0.1321978247 3.800525635e-20 0.0005496724574)
(-0.1223200961 -0.05031396998 7.510305489e-20 0.1216794214 4.557673366e-20 0.0006406747274)
(-0.1122909424 -0.04814543784 1.325594976e-19 0.1115670302 3.200219637e-20 0.0007239121669)
(-0.1027445865 -0.04574127604 2.438252279e-20 0.1019447315 1.236354665e-19 0.0007998550021)
(-0.09371740619 -0.04324185716 -6.577568178e-20 0.09284862422 3.413976156e-20 0.0008687819669)
(-0.085212563 -0.04073744705 -2.637801973e-20 0.08428203578 2.734424394e-20 0.0009305272206)
(-0.07722118159 -0.03828587312 4.566373191e-20 0.07623637257 -5.754665464e-21 0.0009848090168)
(-0.06972563324 -0.03592608142 7.826485462e-21 0.06869472184 1.153768523e-20 0.001030911393)
(-0.06270763766 -0.03368255325 3.087707582e-20 0.06163964117 1.040322932e-19 0.001067996489)
(-0.05614976325 -0.03157410131 1.787511802e-19 0.05505503152 4.442317202e-20 0.001094731736)
(-0.05003692175 -0.02961201174 1.735256232e-19 0.04892732244 5.951478716e-20 0.001109599312)
(-0.04435927724 -0.02780828065 -1.430133495e-19 0.04324881409 -2.57318408e-19 0.001110463153)
(-0.03910940156 -0.02616990061 -8.151309708e-20 0.03801452003 -1.320886901e-19 0.001094881536)
(-0.0342877855 -0.02470827698 9.567295853e-20 0.03322816373 3.89475688e-20 0.00105962177)
(-0.0298963806 -0.02343040101 3.774215048e-20 0.02889539642 6.153324488e-20 0.001000984177)
(-0.02594744396 -0.02235035942 1.018233917e-19 0.0250331618 2.711782708e-20 0.0009142821577)
(-0.02245364003 -0.02147750604 9.311675422e-20 0.02165947835 1.589959349e-19 0.0007941616792)
(-0.01944092987 -0.0208304975 2.685936971e-19 0.01880687884 1.636007401e-19 0.0006340510358)
(-0.01693372852 -0.02042437926 1.168175765e-19 0.01650734582 -1.010167333e-20 0.000426382703)
(-0.0149747193 -0.02027987248 -1.227347897e-19 0.01481268147 2.771627354e-19 0.0001620378284)
(-0.1686778063 -0.05226482512 -5.149088282e-20 0.168598134 1.54331169e-20 7.967232954e-05)
(-0.1592231883 -0.05981928889 -1.04157293e-19 0.1590085271 1.71320576e-20 0.0002146611322)
(-0.1484979111 -0.06284258674 1.084106753e-20 0.1481631499 -2.759349104e-20 0.0003347611953)
(-0.1374440104 -0.06319033443 9.935116617e-20 0.137001165 3.532757259e-20 0.0004428453441)
(-0.1265552729 -0.061958132 7.777449419e-20 0.1260142996 8.977860658e-21 0.0005409732624)
(-0.1160699699 -0.05980454932 5.495240435e-20 0.115439454 4.431315475e-21 0.0006305158657)
(-0.1061039494 -0.05713692554 1.718024903e-19 0.1053915402 8.914825824e-21 0.0007124092724)
(-0.09669515091 -0.05420901647 1.505132961e-19 0.09590803188 -4.505350072e-20 0.0007871190232)
(-0.0878495541 -0.05118198734 1.825262664e-20 0.08699463151 -1.5344928e-19 0.0008549225918)
(-0.07954992489 -0.04815909894 -4.629355929e-20 0.07863426597 1.213206099e-19 0.0009156589133)
(-0.07177386251 -0.04520629812 -1.782547262e-21 0.07080480927 5.349106003e-20 0.0009690532374)
(-0.06449414651 -0.04236778463 1.402201067e-20 0.06347974402 5.416448556e-20 0.001014402486)
(-0.05768617255 -0.03967121123 2.42126257e-21 0.05663528875 1.095520855e-19 0.0010508838)
(-0.05132752573 -0.03713777185 6.563064587e-20 0.05025033954 1.33984981e-19 0.001077186183)
(-0.04539995237 -0.03478010121 7.774992462e-21 0.04430813617 -6.928883189e-21 0.001091816198)
(-0.03989052861 -0.03261174985 -2.423599737e-19 0.03879785785 7.104532902e-20 0.001092670757)
(-0.03478998373 -0.03064059533 4.761873082e-20 0.03371263774 3.10616025e-19 0.001077345987)
(-0.03009631749 -0.02887971685 1.932175918e-19 0.02905365872 2.111496391e-19 0.001042658774)
(-0.02581007157 -0.02733717897 1.260171795e-19 0.02482510465 2.048388304e-19 0.0009849669223)
(-0.02194095697 -0.02602936229 3.297678881e-20 0.02104130007 2.258660872e-19 0.000899656907)
(-0.01850021895 -0.02496724876 1.386694111e-20 0.01771875856 3.080524361e-19 0.0007814603858)
(-0.01551088312 -0.02417271447 5.8603097e-20 0.01488697245 4.532646854e-19 0.0006239106656)
(-0.01299519491 -0.0236634881 3.743016555e-19 0.01257563209 3.41625211e-19 0.0004195628189)
(-0.01099321285 -0.02346414174 -1.181385734e-20 0.01083376656 4.101913147e-19 0.0001594462936)
(-0.1657172797 -0.06149895599 -2.329054483e-20 0.1656391348 -2.769903657e-20 7.814497889e-05)
(-0.1541687344 -0.06950099443 -1.1148032e-19 0.1539581908 2.704451716e-21 0.0002105435681)
(-0.142262289 -0.07252088116 -2.511802153e-20 0.1419339532 -4.759150226e-21 0.0003283358312)
(-0.1305869869 -0.072609994 1.339157019e-19 0.1301526477 -3.905243311e-20 0.000434339171)
(-0.1194251527 -0.07097789151 1.002944578e-19 0.1188945853 -8.402214652e-20 0.0005305674757)
(-0.1088850355 -0.06835009186 2.076258191e-20 0.1082666653 7.121124523e-20 0.0006183702524)
(-0.09900052934 -0.06517452888 9.646739248e-20 0.09830186532 3.670286502e-21 0.0006986640158)
(-0.08975683404 -0.06172934619 4.717939108e-20 0.08898492618 -2.13432689e-19 0.0007719078659)
(-0.08112554974 -0.05819073191 4.004464495e-20 0.08028717318 -7.570404337e-20 0.0008383765603)
(-0.07306639603 -0.05467102634 2.112498289e-19 0.07216848195 4.629952105e-20 0.0008979140836)
(-0.06554170016 -0.05124167574 -1.25536286e-21 0.06459144713 -6.969639687e-21 0.0009502530306)
(-0.05851342439 -0.04795025143 2.66154059e-20 0.05751871894 1.320262352e-19 0.0009947054506)
(-0.05194983799 -0.04482632217 7.7963189e-20 0.05091937211 2.190318285e-19 0.001030465877)
(-0.04582291386 -0.04189246695 1.050091914e-19 0.0447666643 1.739527737e-19 0.00105624956)
(-0.04011083715 -0.03916202755 1.945449066e-19 0.03904024471 1.050785518e-20 0.001070592439)
(-0.03479720699 -0.03664949338 1.391193418e-20 0.033725775 2.401879071e-19 0.001071431986)
(-0.02987068164 -0.03436325703 5.581751633e-20 0.02881427146 7.522169089e-20 0.001056410177)
(-0.0253264507 -0.03231759368 6.934144038e-20 0.02430404666 4.076495535e-22 0.001022404039)
(-0.02116346358 -0.03052137449 2.19247421e-19 0.02019762375 -1.34749114e-20 0.0009658398376)
(-0.01738854015 -0.02899280733 3.436048891e-19 0.01650634886 5.161460634e-20 0.0008821912841)
(-0.01401130345 -0.02774425117 5.767842339e-19 0.01324501206 -4.385066276e-21 0.0007662913925)
(-0.01105143096 -0.02680028603 4.337166268e-19 0.01043963141 3.777974891e-19 0.0006117995417)
(-0.008528700487 -0.02618095657 4.102711858e-19 0.008117283883 2.739923569e-19 0.0004114166039)
(-0.006480161117 -0.0259142651 -1.037343737e-19 0.006323811675 -3.753511085e-20 0.0001563494419)
(-0.1622635132 -0.07059410818 -1.124941829e-20 0.1621871432 -6.128951696e-21 7.636994075e-05)
(-0.1484564215 -0.07862956403 -8.033758323e-20 0.1482506616 -1.970047452e-20 0.0002057598708)
(-0.1352836618 -0.08139920924 -3.311718855e-20 0.1349627894 -7.748470226e-20 0.0003208724035)
(-0.1229499089 -0.08108658137 7.30027462e-20 0.1225254481 -9.765477056e-20 0.0004244608149)
(-0.1115073202 -0.07897691898 1.751621606e-19 0.1109888325 -5.913108819e-20 0.0005184877791)
(-0.1009227278 -0.07583899237 1.138365818e-19 0.1003184513 9.416791437e-20 0.000604276482)
(-0.09114093229 -0.07214631101 -1.480127644e-20 0.09045821161 -1.012535747e-20 0.0006827206876)
(-0.08208985452 -0.06819164953 1.6234348e-20 0.08133558349 -1.124671199e-19 0.0007542710288)
(-0.07370377973 -0.06415981305 3.022750647e-20 0.07288458135 1.188133139e-19 0.0008191983754)
(-0.06591744237 -0.06016787442 7.762361891e-20 0.0650400907 3.200349796e-20 0.0008773516695)
(-0.05867662974 -0.05628987225 8.403559252e-20 0.05774815821 7.48202836e-20 0.0009284715355)
(-0.05193160469 -0.0525746618 2.312095907e-19 0.05095971781 1.083735257e-19 0.0009718868835)
(-0.04564293894 -0.04905233584 1.079390349e-19 0.04463612657 1.553047218e-19 0.001006812379)
(-0.03977654676 -0.04574575399 -5.371553109e-20 0.03874455325 5.925215749e-20 0.001031993507)
(-0.03430677518 -0.04266825371 5.684681869e-20 0.03326077429 5.334663214e-20 0.001046000889)
(-0.02921346946 -0.03983458073 5.475037859e-20 0.02816665003 4.517928818e-20 0.001046819427)
(-0.02448305679 -0.03725323194 -6.894310196e-20 0.02345091149 -4.395403114e-20 0.001032145299)
(-0.02010768381 -0.03493914856 1.200395948e-19 0.01910875795 -8.573374293e-20 0.0009989258647)
(-0.01608457444 -0.03290171224 1.394649511e-19 0.01514090691 -1.200580493e-19 0.0009436675264)
(-0.01241739537 -0.03116044019 2.286648755e-21 0.01155545051 -1.128022059e-19 0.000861944852)
(-0.009113989007 -0.02972878794 3.474060365e-19 0.008365280619 -4.478354836e-21 0.0007487083886)
(-0.006190364537 -0.02863346538 8.712752151e-19 0.005592601775 -4.536477427e-20 0.0005977627621)
(-0.00366359276 -0.02789642299 6.342838848e-19 0.003261615159 -3.231579544e-19 0.0004019776008)
(-0.00156739819 -0.02754862501 3.465034476e-20 0.001414635219 -1.748177025e-19 0.0001527629713)
(-0.1583178339 -0.07952561883 4.685290948e-20 0.1582434804 -8.654594869e-20 7.435358368e-05)
(-0.1421626879 -0.087152057 -7.268953263e-20 0.1419623623 -9.517823224e-20 0.0002003255711)
(-0.1276839394 -0.08940823374 -2.315689179e-20 0.1273715447 -1.878370539e-19 0.000312394675)
(-0.1146817236 -0.08854168186 -4.42963072e-21 0.1142684819 4.8782768e-20 0.0004132416323)
(-0.1029660797 -0.08587230628 1.733931411e-19 0.1024613075 2.598326256e-20 0.0005047721822)
(-0.09235521337 -0.08218674836 2.028298763e-19 0.09176693453 2.387677184e-20 0.0005882788374)
(-0.08270035332 -0.07796800725 -1.153152668e-20 0.08203572394 -3.894234561e-20 0.0006646293779)
(-0.07386933388 -0.07351304434 -1.85323496e-20 0.0731350696 1.731198849e-21 0.0007342642834)
(-0.06575733051 -0.06900842403 1.426933862e-19 0.0649598814 1.013890686e-19 0.000797449114)
(-0.05827293095 -0.06457130077 6.68813173e-20 0.057418893 1.667286154e-19 0.0008540379478)
(-0.05134463512 -0.06027519544 2.15447882e-20 0.05044085546 4.981417616e-20 0.0009037796648)
(-0.04491050043 -0.05616801566 1.588388463e-19 0.04396447838 7.642885809e-20 0.0009460220503)
(-0.03892308076 -0.05227889051 2.736644198e-19 0.03794307874 1.151662259e-19 0.0009800020226)
(-0.03334198554 -0.04862978032 8.26548115e-20 0.03233748597 7.866386881e-20 0.001004499564)
(-0.02813757505 -0.04523325863 1.154151901e-19 0.0271194505 1.497957269e-19 0.001018124548)
(-0.02328578691 -0.04210359781 3.52291354e-20 0.02226687056 1.127216267e-19 0.001018916354)
(-0.01877072994 -0.03924896037 -1.244043294e-19 0.017766097 3.136616237e-20 0.001004632943)
(-0.01458136909 -0.03668438562 -2.419141449e-19 0.01360906686 1.233154982e-19 0.0009723022335)
(-0.01071312137 -0.03441944871 3.317420808e-20 0.009794599699 2.121952747e-19 0.0009185216759)
(-0.007166331103 -0.03247442058 1.807743231e-19 0.006327350176 2.334813944e-19 0.0008389809276)
(-0.003946949962 -0.03086355273 9.850866816e-20 0.00321818662 2.275498485e-19 0.0007287633419)
(-0.00106709928 -0.02961506763 -4.214148039e-20 0.0004852601091 -5.75480263e-20 0.0005818391705)
(0.001459030257 -0.02875238012 4.177533792e-19 -0.001850298731 -2.565472913e-19 0.0003912684738)
(0.003601273908 -0.02830890966 2.948907564e-19 -0.003749966443 -3.30268606e-19 0.0001486925348)
(-0.1538826067 -0.08826767416 8.485463848e-20 0.1538105053 -7.626971133e-20 7.210147297e-05)
(-0.1353690322 -0.09502757633 -3.644417035e-21 0.1351747758 -1.741829962e-19 0.0001942564238)
(-0.1195925063 -0.0964986811 -7.846109018e-20 0.1192895787 -5.14934504e-21 0.0003029276903)
(-0.1059402645 -0.0949217509 5.294235401e-20 0.1055395493 1.389112877e-19 0.00040071515)
(-0.09397539686 -0.09160878278 9.427875133e-20 0.09348593488 3.566963181e-20 0.000489461977)
(-0.08336469103 -0.08733795114 2.379763243e-19 0.08279426539 -3.760775227e-20 0.0005704256425)
(-0.0738641284 -0.08258505658 4.47513156e-20 0.0732196834 -4.678340771e-20 0.0006444450028)
(-0.06528047722 -0.07764041528 3.478962377e-21 0.06456852871 2.724075417e-20 0.0007119485108)
(-0.05746921103 -0.07268524172 1.619950161e-19 0.05669601572 1.097541065e-19 0.0007731953142)
(-0.0503124283 -0.06783195179 1.365580573e-19 0.04948438378 1.32939994e-19 0.0008280445276)
(-0.04372114384 -0.06315032767 -1.702780334e-20 0.04284488995 4.532731959e-20 0.0008762538843)
(-0.03762109924 -0.05868501865 1.863081346e-19 0.03670390763 1.07759157e-19 0.0009171916115)
(-0.03195677547 -0.05446265109 3.101004392e-19 0.03100665613 -3.403948052e-20 0.0009501193441)
(-0.02668144109 -0.05050306536 2.204288337e-19 0.02570758587 -1.666648222e-19 0.0009738552136)
(-0.02176145764 -0.04681728573 2.768564216e-19 0.02077440446 -7.985622115e-20 0.0009870531773)
(-0.01716883038 -0.04341835638 1.842733457e-19 0.0161810169 -9.22767147e-20 0.0009878134812)
(-0.0128853403 -0.04031365162 5.906449121e-20 0.01191137667 -4.155268645e-20 0.0009739636291)
(-0.008896730271 -0.0375177205 2.67390428e-19 0.00795410851 -3.35333171e-20 0.0009426217603)
(-0.005196583925 -0.03504000233 -5.945515824e-20 0.004306096412 2.296497534e-19 0.0008904875136)
(-0.001781849511 -0.03290094483 -1.17044551e-20 0.0009684705733 1.766425008e-19 0.0008133789376)
(0.001343469355 -0.03111528206 1.627285944e-19 -0.00204999729 3.063835119e-19 0.000706527935)
(0.004171255595 -0.02971210716 -1.646609399e-19 -0.004735344252 2.663772491e-19 0.0005640886567)
(0.0066902983 -0.02871583771 -4.257993404e-19 -0.007069631777 -2.102038813e-19 0.0003793334774)
(0.008874150325 -0.0281618202 1.651967313e-19 -0.009018308925 -1.055411546e-19 0.0001441586006)
(-0.1489614813 -0.09679334758 3.581911968e-20 0.1488918605 -5.295696115e-21 6.9620867e-05)
(-0.1281600117 -0.1022277928 -6.746842917e-21 0.1279724403 -4.832496886e-20 0.0001875714202)
(-0.1111428376 -0.1026421746 -6.360780208e-20 0.1108503368 1.700179083e-19 0.0002925008241)
(-0.09688803282 -0.1001991318 4.793110614e-20 0.09650111264 7.703885772e-20 0.0003869201818)
(-0.08471419868 -0.09615983825 2.489186719e-20 0.08424159425 3.012988903e-21 0.0004726044295)
(-0.07413843315 -0.09126746335 2.646784766e-19 0.07358766116 -1.084210591e-19 0.0005507719901)
(-0.06482266638 -0.08597379874 1.488585347e-19 0.06420043654 -8.456978712e-20 0.0006222298464)
(-0.05651349018 -0.08055161094 1.564372049e-19 0.05582609732 -1.237954172e-19 0.0006873928609)
(-0.0490273147 -0.07516960946 3.143855115e-19 0.04828080223 -4.006977019e-20 0.0007465124675)
(-0.04222024462 -0.06993062437 3.46645186e-19 0.04142079162 -8.882332475e-20 0.0007994530011)
(-0.03598617363 -0.06489746078 3.488269169e-20 0.03514019238 -3.415170069e-20 0.0008459812448)
(-0.0302388224 -0.06010918909 3.398195272e-20 0.02935333469 1.51415222e-20 0.0008854877156)
(-0.02491481434 -0.05558838778 9.364698412e-20 0.0239975537 -7.518673953e-20 0.0009172606421)
(-0.01996125681 -0.05135155244 2.407354764e-20 0.01902109665 -8.912883959e-20 0.0009401601556)
(-0.01534063916 -0.04740737045 8.386998177e-20 0.01438775074 1.919041985e-19 0.0009528884191)
(-0.01102114278 -0.04376690028 6.206232943e-20 0.01006752982 1.817315509e-19 0.000953612955)
(-0.006982290423 -0.04043627258 -9.741817934e-20 0.006042052555 -6.323717139e-20 0.0009402378677)
(-0.003206663785 -0.03742895406 1.088553162e-19 0.002296682847 -1.733606675e-20 0.0009099809373)
(0.0003139578798 -0.03475391605 4.920055691e-19 -0.001173612295 3.595548898e-19 0.0008596544154)
(0.003585998205 -0.03243120013 2.528349307e-19 -0.004371216075 2.061549183e-19 0.0007852178699)
(0.006607406808 -0.03047570602 6.132282131e-19 -0.007289473325 6.222959493e-20 0.0006820665172)
(0.009374079487 -0.02891674744 2.190847844e-19 -0.009918636878 -4.339075021e-19 0.0005445573914)
(0.01187780923 -0.02777927651 -4.754579677e-19 -0.01224400597 -4.42003384e-19 0.0003661967381)
(0.0140959333 -0.02710002406 -8.942155854e-20 -0.01423509797 2.516313166e-20 0.0001391646697)
(-0.1435596959 -0.1050746563 2.040134461e-20 0.1434927769 5.378624534e-20 6.691902082e-05)
(-0.1206211932 -0.1087371376 -7.297197837e-21 0.1204409024 7.057863751e-20 0.0001802907345)
(-0.1024690248 -0.1078314983 -5.145308227e-20 0.102187879 1.753100074e-19 0.0002811458286)
(-0.08768786995 -0.1043723596 4.207060515e-20 0.08731597109 1.014794779e-20 0.0003718988587)
(-0.07536155163 -0.09952804678 -6.098930407e-20 0.07490730055 -4.969291439e-20 0.0004542510738)
(-0.06486370306 -0.09398075066 1.086570463e-19 0.06433432524 -5.348601208e-20 0.0005293778241)
(-0.05576625359 -0.08814180707 1.084072224e-19 0.05516820203 -8.254612829e-20 0.0005980515545)
(-0.04775836754 -0.08225577177 -6.25036274e-20 0.04709769568 -6.764647095e-20 0.0006606718612)
(-0.04061925325 -0.07647185797 1.390042234e-19 0.03990177176 3.51572383e-21 0.0007174814931)
(-0.03418035024 -0.07087857675 3.111417472e-19 0.03341200028 4.404485751e-21 0.0007683499638)
(-0.02831935368 -0.06552859691 2.843800152e-19 0.02750629999 -1.700760964e-20 0.0008130536906)
(-0.02293866002 -0.06045314769 1.209850198e-19 0.0220876531 8.924793671e-20 0.0008510069198)
(-0.01796752006 -0.05566925495 8.061565955e-20 0.01708599337 8.312331958e-20 0.0008815266913)
(-0.01334727286 -0.05118887692 2.243827564e-19 0.01244375446 8.350074342e-20 0.0009035183986)
(-0.009036800793 -0.04701759824 4.26184097e-19 0.008121064087 2.653546675e-19 0.0009157367062)
(-0.005000701193 -0.04316375369 3.188332325e-19 0.004084279013 -1.80847792e-19 0.0009164221794)
(-0.001216387822 -0.03963178721 -8.450235392e-20 0.0003128252626 -3.1965801e-19 0.0009035625592)
(0.00233655729 -0.03643350473 1.275216333e-19 -0.003211041604 3.083875136e-20 0.0008744843139)
(0.005668074495 -0.03357708453 5.627299514e-19 -0.006494197206 -1.034950966e-19 0.0008261227107)
(0.008787838198 -0.03108158985 1.425074932e-19 -0.009542429884 -3.963105102e-19 0.0007545916859)
(0.0116957049 -0.02896177393 -4.94854018e-21 -0.01235116919 -4.739659031e-19 0.0006554642903)
(0.01439148652 -0.02724653212 1.967589217e-19 -0.01491480472 -6.080264976e-19 0.0005233181981)
(0.01686993082 -0.02596088901 -2.542070088e-19 -0.01722184428 -7.598579294e-20 0.0003519134558)
(0.01911215201 -0.0251424257 4.59784418e-20 -0.01924588913 1.791175994e-19 0.000133737119)
(-0.1376843298 -0.1130826894 1.37360502e-20 0.1376203252 8.046360895e-20 6.400458406e-05)
(-0.1128371058 -0.114552649 5.17250192e-20 0.1126646685 6.954174429e-20 0.0001724372768)
(-0.09370231806 -0.1120802749 -4.806584467e-20 0.09343341991 1.408687081e-19 0.0002688981513)
(-0.07849864969 -0.1074657358 9.118193404e-20 0.07814295186 -1.124349538e-19 0.0003556978292)
(-0.06609186303 -0.1017445798 -5.211326038e-20 0.06565740449 -6.772310331e-20 0.0004344585462)
(-0.05572269519 -0.09551335941 2.463374738e-20 0.05521638633 4.805768708e-20 0.0005063088601)
(-0.04687988316 -0.08912734781 1.591268523e-19 0.04630789912 -1.174241146e-20 0.0005719840368)
(-0.03919970734 -0.08279278322 4.334507268e-20 0.03856784032 2.396968845e-20 0.0006318670147)
(-0.03242721755 -0.07663275879 1.305550394e-20 0.03174102682 1.281243935e-19 0.0006861907298)
(-0.0263713204 -0.07071698788 1.008798453e-19 0.02563649027 1.347263482e-19 0.0007348301322)
(-0.02089497387 -0.06508501587 1.930834089e-19 0.02011740235 2.387039046e-20 0.0007775715183)
(-0.01589033531 -0.05975809493 2.762365138e-19 0.01507648068 7.150956876e-20 0.0008138546371)
(-0.01128002667 -0.05474627889 2.290641481e-19 0.01043699962 -2.025623864e-19 0.0008430270501)
(-0.00700021821 -0.05005586468 -4.046753353e-20 0.006136175259 -5.220029819e-20 0.0008640429509)
(-0.003006583114 -0.04568861295 3.370544257e-19 0.002130869971 -2.051198134e-19 0.0008757131432)
(0.0007394979221 -0.04164943914 1.07898851e-19 -0.001615854989 -3.85266796e-19 0.0008763570672)
(0.004262494862 -0.03794068267 2.209074996e-20 -0.005126547271 -2.053869573e-19 0.0008640524093)
(0.007585566091 -0.03457194117 -8.933303613e-20 -0.00842180912 -6.480307207e-20 0.0008362430292)
(0.01072023288 -0.03155029096 1.344226832e-19 -0.01151022975 4.93519739e-20 0.0007899968763)
(0.01367920549 -0.02889327181 2.693393478e-19 -0.01440079993 -1.581843113e-19 0.000721594445)
(0.01646415068 -0.02661519098 -8.988349042e-20 -0.01709095155 3.398445681e-21 0.0006268008626)
(0.01907859675 -0.02474391385 -3.290459413e-20 -0.01957902802 1.120463522e-21 0.0005004312629)
(0.02152012116 -0.02330409304 -2.705664124e-20 -0.02185664165 3.402112545e-19 0.0003365204866)