/*--------------------------------*- C++ -*----------------------------------*\
| =========                 |                                                 |
| \\      /  F ield         | foam-extend: Open Source CFD                    |
|  \\    /   O peration     | Version:  3.0                                   |
|   \\  /    A nd           | Web:         http://www.extend-project.de       |
|    \\/     M anipulation  |                                                 |
\*---------------------------------------------------------------------------*/
FoamFile
{
    version     2.0;
    format      ascii;
    class       volSymmTensorField;
    location    "18";
    object      sigma;
}
// * * * * * * * * * * * * * * * * * * * * * * * * * * * * * * * * * * * * * //

dimensions      [0 0 0 0 0 0 0];

internalField   nonuniform List<symmTensor> 
224
(
(-0.150179 -0.0181382 -9.54702e-20 0.150171 6.83424e-20 7.5418e-06)
(-0.123457 -0.0192564 -1.55627e-19 0.12344 1.83403e-19 1.74166e-05)
(-0.0933395 -0.0169152 -1.12529e-21 0.0933152 1.49597e-19 2.42637e-05)
(-0.0662229 -0.0139931 1.57378e-19 0.0661955 -6.14847e-19 2.74519e-05)
(-0.0432541 -0.0112339 2.04235e-19 0.0432281 -2.39231e-19 2.60431e-05)
(-0.0257959 -0.00924661 1.15156e-20 0.0257767 -5.41899e-19 1.91738e-05)
(-0.0138141 -0.00792264 -7.79529e-20 0.0138071 1.19824e-21 6.96418e-06)
(-0.13953 -0.0522356 -4.9083e-20 0.139523 1.48299e-19 6.96315e-06)
(-0.108367 -0.0538894 -2.35586e-20 0.108351 2.64188e-19 1.60862e-05)
(-0.078495 -0.0466788 -3.19958e-19 0.0784726 -1.69428e-20 2.24036e-05)
(-0.0527876 -0.0381343 -1.27846e-18 0.0527623 -1.73198e-19 2.53177e-05)
(-0.0314279 -0.0301798 3.54985e-19 0.0314039 -3.15989e-19 2.39601e-05)
(-0.0150343 -0.0244086 5.80688e-19 0.0150167 -1.62894e-18 1.75581e-05)
(-0.00372868 -0.020544 -5.27453e-20 0.00372238 -6.9262e-19 6.3055e-06)
(-0.120285 -0.0803859 1.43341e-20 0.120279 3.07923e-20 6.11797e-06)
(-0.0822541 -0.0780948 1.00722e-19 0.08224 1.04968e-19 1.41421e-05)
(-0.0531714 -0.0655555 9.16696e-20 0.0531518 -1.67647e-19 1.96902e-05)
(-0.030105 -0.0520139 -6.26902e-19 0.0300828 1.3265e-19 2.2222e-05)
(-0.0116574 -0.039757 -1.08501e-18 0.0116365 -1.06639e-18 2.09707e-05)
(0.00277947 -0.0307423 -3.409e-18 -0.00279475 -1.08894e-18 1.5282e-05)
(0.0128299 -0.0246606 -3.49281e-19 -0.0128354 6.22181e-19 5.41209e-06)
(-0.095918 -0.100375 5.24849e-20 0.095913 -3.93986e-20 5.0398e-06)
(-0.0519202 -0.0885404 6.95003e-20 0.0519085 -4.95026e-20 1.16603e-05)
(-0.0246515 -0.0702066 -7.31617e-20 0.0246353 -2.78656e-19 1.62289e-05)
(-0.00515033 -0.0525706 -6.61054e-19 0.00513205 -1.39245e-19 1.82836e-05)
(0.00960154 -0.0372384 -1.23021e-18 -0.00961872 -2.33032e-19 1.71879e-05)
(0.0214861 -0.0257372 -2.24008e-18 -0.0214986 2.11174e-18 1.24296e-05)
(0.0298725 -0.0178979 8.46368e-19 -0.0298768 4.69487e-19 4.31586e-06)
(-0.0702673 -0.112011 5.03391e-20 0.0702636 -2.70821e-20 3.76995e-06)
(-0.0246869 -0.0860492 4.29222e-20 0.0246781 -4.0823e-20 8.73458e-06)
(-0.000729124 -0.0617856 -1.74731e-19 0.000716974 -9.38911e-20 1.21504e-05)
(0.0146383 -0.0410719 -6.7509e-19 -0.014652 1.18406e-19 1.36504e-05)
(0.0254855 -0.0239239 -8.40019e-19 -0.0254983 1.00986e-18 1.27527e-05)
(0.0345552 -0.010742 1.61649e-18 -0.0345643 1.43253e-18 9.10697e-06)
(0.0410617 -0.00164674 6.48779e-19 -0.0410647 -9.80296e-19 3.05761e-06)
(-0.0464112 -0.11694 -1.55282e-20 0.0464088 4.80384e-20 2.35543e-06)
(-0.00603889 -0.075155 8.33517e-20 0.00603342 3.92932e-21 5.47386e-06)
(0.0128473 -0.0454453 -8.82596e-20 -0.0128549 1.74194e-20 7.60535e-06)
(0.0238293 -0.0226311 -8.31232e-20 -0.0238378 6.97694e-20 8.49256e-06)
(0.0310249 -0.00468467 -8.5597e-19 -0.0310328 1.00825e-18 7.8266e-06)
(0.0372948 0.00947654 2.41101e-18 -0.0373003 -1.07856e-19 5.43276e-06)
(0.0418711 0.019371 -1.74734e-18 -0.0418728 -1.23891e-19 1.68055e-06)
(-0.0258437 -0.117875 8.67117e-20 0.0258428 9.24554e-21 8.50246e-07)
(0.00208261 -0.0624321 2.75166e-19 -0.00208461 -8.55292e-20 2.00173e-06)
(0.0142238 -0.0285115 -4.70597e-19 -0.0142266 -4.53008e-20 2.76567e-06)
(0.0207807 -0.0044362 -1.2981e-18 -0.0207837 2.85564e-19 3.0041e-06)
(0.0248044 0.0136933 -9.19039e-19 -0.024807 1.04372e-18 2.59397e-06)
(0.0284441 0.0283296 1.25758e-18 -0.0284456 3.87533e-19 1.54385e-06)
(0.0311401 0.0386649 5.49536e-19 -0.0311403 -5.35968e-20 2.35996e-07)
(-0.00822314 -0.117512 3.38031e-20 0.00822383 5.43386e-21 -6.8913e-07)
(0.0017673 -0.0541681 -1.39853e-19 -0.00176575 -1.50492e-20 -1.55131e-06)
(0.00596092 -0.0179444 -2.40599e-19 -0.00595873 1.08227e-19 -2.18737e-06)
(0.00813788 0.00671038 -4.16489e-19 -0.00813527 3.56969e-19 -2.61035e-06)
(0.00942261 0.024808 -4.35391e-19 -0.00941985 7.47636e-19 -2.75153e-06)
(0.0106112 0.0396184 6.06276e-19 -0.0106088 4.26598e-19 -2.41759e-06)
(0.0114987 0.050141 3.12732e-19 -0.0114975 -7.95435e-20 -1.22485e-06)
(0.00823369 -0.117512 2.71616e-20 -0.00823148 1.18891e-20 -2.20331e-06)
(-0.00175414 -0.0541677 -1.40945e-19 0.00175919 1.85057e-20 -5.04896e-06)
(-0.00594554 -0.0179443 1.81728e-20 0.00595261 2.72961e-19 -7.06417e-06)
(-0.00812041 0.00671016 -3.20348e-19 0.00812855 3.83037e-19 -8.1363e-06)
(-0.00940331 0.0248074 -1.21773e-19 0.00941132 5.03382e-19 -8.00593e-06)
(-0.0105913 0.0396174 -5.56987e-20 0.0105976 2.89057e-19 -6.30053e-06)
(-0.0114805 0.0501396 1.86354e-19 0.0114832 -1.02041e-20 -2.64592e-06)
(0.0258536 -0.117873 4.81747e-20 -0.0258499 1.16005e-20 -3.63481e-06)
(-0.00206999 -0.062431 1.54617e-19 0.00207835 4.38164e-20 -8.3579e-06)
(-0.0142088 -0.0285111 4.69483e-19 0.0142204 4.15462e-19 -1.16789e-05)
(-0.0207632 -0.00443677 -1.16518e-18 0.0207766 3.63522e-19 -1.33633e-05)
(-0.0247848 0.0136918 -1.87278e-19 0.0247978 3.9038e-19 -1.29695e-05)
(-0.0284233 0.0283269 -4.21863e-19 0.0284333 9.20847e-20 -9.95786e-06)
(-0.0311207 0.0386614 1.99142e-19 0.0311247 -1.76577e-20 -3.97414e-06)
(0.04642 -0.116938 1.1808e-19 -0.0464151 3.07038e-20 -4.92762e-06)
(0.0060506 -0.0751536 1.8198e-19 -0.00603925 -1.17202e-20 -1.13492e-05)
(-0.0128329 -0.0454448 5.39212e-19 0.0128487 1.3965e-19 -1.58515e-05)
(-0.023812 -0.0226318 3.95838e-19 0.0238301 3.35725e-19 -1.8087e-05)
(-0.031005 -0.00468659 3.75728e-19 0.0310224 8.47103e-19 -1.74474e-05)
(-0.0372729 0.00947305 -2.04859e-18 0.0372861 7.58018e-19 -1.3245e-05)
(-0.04185 0.0193662 -2.56252e-19 0.0418551 -8.43307e-20 -5.1559e-06)
(0.0702754 -0.112009 2.92856e-21 -0.0702693 -5.8295e-20 -6.03204e-06)
(0.0246976 -0.0860479 4.21767e-20 -0.0246837 -6.96945e-20 -1.3907e-05)
(0.000742703 -0.0617853 7.67707e-20 -0.000723283 -1.04262e-19 -1.94199e-05)
(-0.0146216 -0.0410726 1.29299e-19 0.0146437 -7.72043e-20 -2.21233e-05)
(-0.0254656 -0.0239258 4.29903e-19 0.0254869 -3.26143e-19 -2.12644e-05)
(-0.0345325 -0.0107453 1.75384e-18 0.0345485 8.78781e-19 -1.60329e-05)
(-0.0410389 -0.00165149 1.32679e-18 0.0410451 5.77962e-19 -6.14489e-06)
(0.0959257 -0.100373 -2.23179e-20 -0.0959188 -1.00596e-19 -6.90406e-06)
(0.05193 -0.0885394 -1.15823e-20 -0.051914 -9.63455e-20 -1.59297e-05)
(0.0246641 -0.0702065 -5.14037e-20 -0.0246418 -2.37038e-19 -2.2242e-05)
(0.00516621 -0.0525714 7.22127e-20 -0.0051409 -3.16537e-19 -2.53102e-05)
(-0.00958222 -0.0372402 7.87624e-19 0.00960649 -1.51148e-18 -2.42658e-05)
(-0.0214635 -0.0257398 3.90108e-18 0.0214817 1.20061e-19 -1.82064e-05)
(-0.0298491 -0.0179019 -1.06919e-18 0.029856 -4.90813e-19 -6.8985e-06)
(0.120293 -0.0803843 -5.33706e-21 -0.120285 -9.18954e-20 -7.50981e-06)
(0.0822632 -0.0780942 -5.11751e-20 -0.0822459 -7.84962e-20 -1.73378e-05)
(0.0531831 -0.0655559 -2.59395e-19 -0.0531589 -4.11255e-19 -2.42059e-05)
(0.0301198 -0.052015 -1.15536e-19 -0.0300923 -7.33561e-19 -2.75206e-05)
(0.0116756 -0.0397589 4.33124e-19 -0.0116493 -1.29277e-18 -2.6331e-05)
(-0.00275787 -0.0307446 1.88965e-18 0.00277755 -8.54087e-19 -1.96773e-05)
(-0.0128068 -0.024664 -1.56051e-18 0.0128142 3.08507e-19 -7.386e-06)
(0.139537 -0.0522335 -8.59085e-21 -0.139529 -2.33298e-20 -7.82441e-06)
(0.108376 -0.0538892 -1.63209e-19 -0.108358 -7.2535e-20 -1.80739e-05)
(0.0785058 -0.0466797 -8.29658e-19 -0.0784806 -1.85195e-20 -2.5231e-05)
(0.0528013 -0.0381361 -9.50185e-19 -0.0527726 -3.24286e-19 -2.86625e-05)
(0.0314449 -0.0301822 6.86227e-19 -0.0314175 -5.87152e-19 -2.73723e-05)
(0.0150545 -0.0244112 1.59676e-18 -0.0150341 -1.35639e-18 -2.03809e-05)
(0.00375091 -0.0205472 8.81756e-19 -0.00374333 9.95714e-19 -7.58391e-06)
(0.150186 -0.0181351 -9.35763e-20 -0.150178 -2.38147e-20 -7.83571e-06)
(0.123466 -0.0192562 -2.38072e-19 -0.123448 -9.92659e-20 -1.81085e-05)
(0.0933498 -0.0169167 -8.75474e-20 -0.0933245 2.69833e-19 -2.5276e-05)
(0.0662359 -0.0139957 1.85032e-19 -0.0662072 3.32701e-19 -2.86893e-05)
(0.0432703 -0.0112372 3.88592e-19 -0.0432429 2.1523e-20 -2.73466e-05)
(0.025815 -0.00925025 5.92918e-19 -0.0257947 -9.18298e-19 -2.02878e-05)
(0.0138355 -0.00792661 -3.71203e-20 -0.013828 -4.42509e-19 -7.48398e-06)
(0.150185 0.0181399 -9.54686e-20 -0.150178 6.83554e-20 -7.54222e-06)
(0.123466 0.0192552 -1.55626e-19 -0.123448 1.83418e-19 -1.74385e-05)
(0.0933505 0.0169114 -1.11792e-21 -0.0933261 1.49621e-19 -2.43361e-05)
(0.0662372 0.013986 1.57385e-19 -0.0662096 -6.14778e-19 -2.75961e-05)
(0.0432724 0.0112226 2.04239e-19 -0.0432462 -2.39193e-19 -2.62503e-05)
(0.0258183 0.00922954 1.15391e-20 -0.0257989 -5.41838e-19 -1.93968e-05)
(0.0138407 0.00789645 -7.78654e-20 -0.0138336 1.23085e-21 -7.08709e-06)
(0.139535 0.0522379 -4.90824e-20 -0.139528 1.48309e-19 -6.9559e-06)
(0.108376 0.0538887 -2.35566e-20 -0.10836 2.64205e-19 -1.60904e-05)
(0.0785075 0.0466754 -3.19917e-19 -0.0784851 -1.68896e-20 -2.24488e-05)
(0.0528049 0.0381279 -1.27839e-18 -0.0527794 -1.73201e-19 -2.54265e-05)
(0.0314508 0.0301697 3.54969e-19 -0.0314267 -3.15928e-19 -2.41275e-05)
(0.0150638 0.0243933 5.8067e-19 -0.015046 -1.62875e-18 -1.77443e-05)
(0.00376574 0.020521 -5.26605e-20 -0.00375932 -6.9248e-19 -6.41025e-06)
(0.120289 0.0803879 1.43345e-20 -0.120283 3.08006e-20 -6.09905e-06)
(0.082263 0.0780944 1.00727e-19 -0.0822489 1.04986e-19 -1.41164e-05)
(0.0531854 0.0655533 9.16965e-20 -0.0531657 -1.67584e-19 -1.96871e-05)
(0.0301249 0.0520095 -6.26822e-19 -0.0301026 1.32698e-19 -2.22647e-05)
(0.0116844 0.03975 -1.08487e-18 -0.0116633 -1.06622e-18 -2.10606e-05)
(-0.00274398 0.0307317 -3.40878e-18 0.00275937 -1.08892e-18 -1.53945e-05)
(-0.0127844 0.024645 -3.49242e-19 0.0127899 6.22096e-19 -5.47905e-06)
(0.0959211 0.100376 5.24893e-20 -0.0959161 -3.93938e-20 -5.00599e-06)
(0.0519291 0.0885404 6.95152e-20 -0.0519175 -4.94872e-20 -1.1595e-05)
(0.0246661 0.070206 -7.3118e-20 -0.02465 -2.78611e-19 -1.61615e-05)
(0.00517163 0.0525692 -6.60959e-19 -0.00515339 -1.39191e-19 -1.82378e-05)
(-0.0095723 0.0372362 -1.23002e-18 0.00958947 -2.32932e-19 -1.71742e-05)
(-0.0214472 0.0257337 -2.23996e-18 0.0214596 2.1117e-18 -1.24441e-05)
(-0.0298221 0.0178927 8.46381e-19 0.0298264 4.69573e-19 -4.33328e-06)
(0.0702704 0.112011 5.03481e-20 -0.0702667 -2.70805e-20 -3.71906e-06)
(0.0246958 0.0860496 4.29481e-20 -0.0246872 -4.0816e-20 -8.62486e-06)
(0.00074375 0.0617868 -1.74669e-19 -0.00073174 -9.3868e-20 -1.20102e-05)
(-0.0146171 0.041074 -6.74978e-19 0.0146306 1.18438e-19 -1.35046e-05)
(-0.0254563 0.023927 -8.39797e-19 0.0254689 1.00992e-18 -1.2622e-05)
(-0.0345163 0.0107465 1.61644e-18 0.0345253 1.43268e-18 -9.01034e-06)
(-0.0410113 0.00165313 6.48806e-19 0.0410143 -9.80248e-19 -3.01827e-06)
(0.0464151 0.116939 -1.55123e-20 -0.0464128 4.80357e-20 -2.28938e-06)
(0.00604774 0.0751558 8.33853e-20 -0.00604241 3.92619e-21 -5.32355e-06)
(-0.0128335 0.0454481 -8.81831e-20 0.0128409 1.74214e-20 -7.39821e-06)
(-0.0238096 0.0226362 -8.30105e-20 0.0238178 6.97813e-20 -8.25421e-06)
(-0.0309981 0.00469256 -8.55759e-19 0.0310057 1.00828e-18 -7.58756e-06)
(-0.0372594 -0.00946483 2.41096e-18 0.0372646 -1.07744e-19 -5.23352e-06)
(-0.0418256 -0.0193541 -1.74719e-18 0.0418271 -1.2387e-19 -1.58932e-06)
(0.0258489 0.117873 8.67319e-20 -0.0258481 9.24262e-21 -7.72179e-07)
(-0.00207398 0.0624333 2.75202e-19 0.0020758 -8.55381e-20 -1.8195e-06)
(-0.0142114 0.0285154 -4.70522e-19 0.0142139 -4.53194e-20 -2.50553e-06)
(-0.0207636 0.00444334 -1.29796e-18 0.0207663 2.85549e-19 -2.69224e-06)
(-0.0247817 -0.0136822 -9.18882e-19 0.0247839 1.04379e-18 -2.26855e-06)
(-0.0284147 -0.0283131 1.25765e-18 0.028416 3.87688e-19 -1.26254e-06)
(-0.0311031 -0.0386406 5.49417e-19 0.0311032 -5.34911e-20 -1.02734e-07)
(0.00822945 0.117511 3.38264e-20 -0.00823023 5.43199e-21 7.72959e-07)
(-0.00175906 0.0541697 -1.39803e-19 0.00175731 -1.50492e-20 1.75004e-06)
(-0.0059501 0.0179488 -2.40546e-19 0.00594763 1.08239e-19 2.47584e-06)
(-0.00812384 -0.00670255 -4.16436e-19 0.00812088 3.56997e-19 2.96227e-06)
(-0.00940462 -0.0247957 -4.35324e-19 0.00940149 7.47689e-19 3.12433e-06)
(-0.0105891 -0.0396001 6.0635e-19 0.0105863 4.26678e-19 2.74391e-06)
(-0.0114722 -0.0501134 3.12773e-19 0.0114708 -7.94677e-20 1.38076e-06)
(-0.00822689 0.117511 2.71822e-20 0.0082246 1.18893e-20 2.28694e-06)
(0.00176182 0.0541695 -1.409e-19 -0.00176707 1.85113e-20 5.24786e-06)
(0.00595477 0.0179484 1.82293e-20 -0.00596212 2.72972e-19 7.35418e-06)
(0.00813159 -0.00670291 -3.2026e-19 -0.00814009 3.83068e-19 8.49136e-06)
(0.00941676 -0.024796 -1.21708e-19 -0.00942514 5.03413e-19 8.38303e-06)
(0.0106067 -0.0396003 -5.56128e-20 -0.0106133 2.89114e-19 6.63124e-06)
(0.0114965 -0.0501132 1.86359e-19 -0.0114993 -1.01177e-20 2.80428e-06)
(-0.025847 0.117873 4.81917e-20 0.0258433 1.16019e-20 3.7111e-06)
(0.00207701 0.0624327 1.54651e-19 -0.00208554 4.38186e-20 8.53896e-06)
(0.0142167 0.0285145 4.69525e-19 -0.0142286 4.15449e-19 1.19412e-05)
(0.0207722 0.00444251 -1.16506e-18 -0.0207859 3.63545e-19 1.36815e-05)
(0.0247947 -0.0136827 -1.87194e-19 -0.024808 3.90413e-19 1.33041e-05)
(0.0284333 -0.0283133 -4.21737e-19 -0.0284435 9.21715e-20 1.02486e-05)
(0.0311279 -0.0386398 1.99127e-19 -0.031132 -1.75811e-20 4.11193e-06)
(-0.0464141 0.116939 1.18093e-19 0.0464091 3.07046e-20 4.99178e-06)
(-0.00604418 0.0751549 1.82007e-19 0.00603268 -1.17159e-20 1.14988e-05)
(0.0128399 0.0454471 5.3924e-19 -0.012856 1.39643e-19 1.60634e-05)
(0.0238196 0.0226356 3.95874e-19 -0.0238379 3.35713e-19 1.83368e-05)
(0.0310125 0.00469248 3.75821e-19 -0.0310302 8.47022e-19 1.77025e-05)
(0.0372793 -0.00946429 -2.0483e-18 -0.0372927 7.58096e-19 1.34607e-05)
(0.0418509 -0.0193521 -2.56191e-19 -0.0418561 -8.4125e-20 5.2558e-06)
(-0.07027 0.11201 2.93919e-21 0.0702639 -5.82956e-20 6.08001e-06)
(-0.0246915 0.0860485 4.22005e-20 0.0246775 -6.96939e-20 1.40151e-05)
(-0.000736049 0.0617862 7.68066e-20 0.000716484 -1.04262e-19 1.95647e-05)
(0.0146285 0.0410741 1.29344e-19 -0.0146508 -7.72e-20 2.22813e-05)
(0.0254721 0.0239281 4.29976e-19 -0.0254935 -3.26149e-19 2.14126e-05)
(0.0345372 0.0107486 1.75389e-18 -0.0345534 8.78823e-19 1.61472e-05)
(0.0410367 0.00165677 1.32661e-18 -0.0410429 5.77893e-19 6.19304e-06)
(-0.0959203 0.100373 -2.23116e-20 0.0959133 -1.00601e-19 6.93552e-06)
(-0.0519239 0.0885393 -1.15672e-20 0.0519079 -9.63537e-20 1.59941e-05)
(-0.0246574 0.0702061 -5.13812e-20 0.0246351 -2.37047e-19 2.23152e-05)
(-0.00515918 0.0525706 7.22446e-20 0.00513381 -3.16543e-19 2.53699e-05)
(0.00958879 0.0372388 7.87718e-19 -0.00961309 -1.51151e-18 2.42991e-05)
(0.0214683 0.0257376 3.90104e-18 -0.0214865 1.19929e-19 1.8212e-05)
(0.0298469 0.0178979 -1.06935e-18 -0.0298538 -4.9082e-19 6.89164e-06)
(-0.120287 0.080384 -5.33296e-21 0.120279 -9.19036e-20 7.52595e-06)
(-0.0822568 0.0780934 -5.1171e-20 0.0822394 -7.85145e-20 1.7362e-05)
(-0.0531759 0.0655542 -2.59395e-19 0.0531517 -4.11282e-19 2.42125e-05)
(-0.030112 0.0520121 -1.15553e-19 0.0300845 -7.3361e-19 2.74881e-05)
(-0.0116679 0.0397539 4.33231e-19 0.0116416 -1.29282e-18 2.6256e-05)
(0.00276449 0.030737 1.88955e-18 -0.00278407 -8.54246e-19 1.95801e-05)
(0.0128079 0.0246511 -1.56047e-18 -0.0128152 3.08794e-19 7.32668e-06)
(-0.139531 0.0522335 -8.5906e-21 0.139523 -2.33434e-20 7.83009e-06)
(-0.108369 0.0538879 -1.63221e-19 0.108351 -7.25632e-20 1.80691e-05)
(-0.0784977 0.0466769 -8.29685e-19 0.0784725 -1.85181e-20 2.51881e-05)
(-0.052792 0.0381311 -9.50191e-19 0.0527635 -3.24256e-19 2.85602e-05)
(-0.0314347 0.0301741 6.86343e-19 0.0314075 -5.87145e-19 2.72147e-05)
(-0.0150442 0.0243988 1.59681e-18 0.015024 -1.35654e-18 2.02051e-05)
(-0.00374357 0.020527 8.81628e-19 0.00373608 9.95706e-19 7.48485e-06)
(-0.150179 0.0181359 -9.35782e-20 0.150171 -2.38287e-20 7.8363e-06)
(-0.123458 0.0192548 -2.38076e-19 0.12344 -9.92865e-20 1.80893e-05)
(-0.0933404 0.0169131 -8.75527e-20 0.0933152 2.69831e-19 2.52063e-05)
(-0.0662244 0.0139892 1.85033e-19 0.0661959 3.32713e-19 2.85477e-05)
(-0.0432565 0.0112268 3.8864e-19 0.0432294 2.15357e-20 2.71413e-05)
(-0.0257993 0.00923441 5.92934e-19 0.0257793 -9.18412e-19 2.0066e-05)
(-0.0138193 0.00790157 -3.7236e-20 0.013812 -4.42568e-19 7.36118e-06)
)
;

boundaryField
{
    out
    {
        type            mySigma;
    }
    in
    {
        type            mySigma;
    }
    frontAndBack
    {
        type            empty;
    }
}


// ************************************************************************* //
