/*--------------------------------*- C++ -*----------------------------------*\
| =========                 |                                                 |
| \\      /  F ield         | foam-extend: Open Source CFD                    |
|  \\    /   O peration     | Version:  3.0                                   |
|   \\  /    A nd           | Web:         http://www.extend-project.de       |
|    \\/     M anipulation  |                                                 |
\*---------------------------------------------------------------------------*/
FoamFile
{
    version     2.0;
    format      ascii;
    class       volVectorField;
    location    "68";
    object      u;
}
// * * * * * * * * * * * * * * * * * * * * * * * * * * * * * * * * * * * * * //

dimensions      [0 0 0 0 0 0 0];

internalField   nonuniform List<vector> 
7680
(
(0.139039 -0.0209949 4.72262e-17)
(0.135243 -0.0161661 6.29674e-17)
(0.3524 -0.0133465 -6.48497e-17)
(0.328934 -0.00857071 5.51624e-17)
(0.503955 -0.00703824 -4.43865e-17)
(0.472429 -0.00278789 3.57582e-17)
(0.615367 -0.00174051 -2.50808e-17)
(0.580839 0.00195949 -6.88627e-19)
(0.699646 0.00285087 -3.22529e-17)
(0.664112 0.00605311 -5.76198e-18)
(0.764889 0.00694575 -3.92471e-17)
(0.729007 0.00972927 4.35522e-17)
(0.816318 0.0106934 -5.59458e-17)
(0.780217 0.0131398 5.05115e-17)
(0.857438 0.0142024 -3.00036e-17)
(0.821049 0.0163819 6.32586e-17)
(0.89069 0.0175509 -5.06695e-17)
(0.853867 0.0195217 8.43641e-17)
(0.917824 0.0207984 -6.19302e-17)
(0.880383 0.0226087 7.81945e-17)
(0.940121 0.0239898 -7.15973e-17)
(0.901856 0.0256822 8.04197e-17)
(0.958534 0.0271584 -6.51717e-17)
(0.919219 0.0287759 8.52729e-17)
(0.97378 0.0303201 -6.08374e-17)
(0.933179 0.0319223 6.29172e-17)
(0.986398 0.0334523 -3.34085e-17)
(0.944292 0.0351748 4.3946e-17)
(0.996781 0.0364623 -2.93163e-17)
(0.953034 0.038645 2.53914e-17)
(1.00517 0.0391768 -1.55016e-17)
(0.959898 0.0424654 1.59701e-17)
(1.01167 0.0414841 -4.65055e-18)
(0.965434 0.046541 4.42062e-18)
(1.01624 0.0436396 2.04942e-17)
(0.97027 0.0504544 -1.28063e-17)
(1.01842 0.0463733 3.76348e-17)
(0.976113 0.0522302 -2.74353e-17)
(1.01558 0.0568616 3.76386e-17)
(0.986124 0.0612371 -2.10686e-17)
(0.142872 -0.085718 -3.33985e-17)
(0.138553 -0.0722233 -7.00885e-17)
(0.355596 -0.0651111 8.97305e-17)
(0.331592 -0.0522535 -5.37735e-17)
(0.50668 -0.0488338 2.55646e-17)
(0.474664 -0.0375066 -3.19887e-18)
(0.617718 -0.0357079 2.89496e-17)
(0.582751 -0.0261292 3.43745e-17)
(0.701686 -0.0249514 5.4121e-17)
(0.665753 -0.0169936 5.28369e-17)
(0.76665 -0.0159615 2.80259e-17)
(0.730406 -0.00937605 -1.2105e-17)
(0.81782 -0.00829056 3.0074e-17)
(0.781387 -0.0028169 -2.30158e-17)
(0.858691 -0.00160334 -2.0935e-17)
(0.821998 0.0029836 -5.921e-17)
(0.891695 0.00435361 5.41132e-17)
(0.854594 0.00823028 -1.1948e-16)
(0.918573 0.00977084 9.32595e-17)
(0.880881 0.0130682 -1.14511e-16)
(0.940596 0.0147894 7.89058e-17)
(0.90211 0.0176034 -9.69944e-17)
(0.958707 0.0195131 5.71933e-17)
(0.919207 0.0219202 -1.04174e-16)
(0.973609 0.0240132 4.01279e-17)
(0.932872 0.0260976 -5.54949e-17)
(0.985826 0.0283089 -1.18452e-17)
(0.943646 0.0302452 -2.37608e-17)
(0.995732 0.0323174 -2.56002e-17)
(0.951983 0.0345743 9.44162e-18)
(1.00355 0.0357985 -2.59436e-17)
(0.958313 0.0394326 1.58614e-17)
(1.00939 0.0384282 -1.95583e-17)
(0.963092 0.0451363 1.49882e-18)
(1.0133 0.0400627 -2.28859e-17)
(0.967012 0.0521853 -4.96665e-18)
(1.01514 0.0401786 1.11509e-18)
(0.972122 0.0609027 -3.31181e-18)
(1.014 0.0425904 -1.44712e-17)
(0.978135 0.0754482 1.8724e-17)
(0.150962 -0.149713 8.93348e-18)
(0.145411 -0.126685 5.29211e-17)
(0.361694 -0.115466 -1.66264e-16)
(0.336598 -0.094337 1.15959e-16)
(0.511212 -0.0891914 -7.8307e-17)
(0.478286 -0.0709674 1.04128e-17)
(0.621039 -0.0685522 -1.00205e-16)
(0.585345 -0.0533571 3.36684e-18)
(0.70406 -0.0519953 -1.22737e-16)
(0.667564 -0.0395654 -5.7125e-17)
(0.768274 -0.0384566 -6.0266e-17)
(0.731607 -0.0283691 2.11364e-17)
(0.818849 -0.0271687 -3.10987e-17)
(0.782106 -0.0189869 2.04154e-17)
(0.859247 -0.0175619 5.69668e-17)
(0.822331 -0.0109102 8.53373e-17)
(0.891877 -0.00920887 -5.9572e-17)
(0.854618 -0.00379264 1.63655e-16)
(0.918462 -0.0017899 -1.44325e-16)
(0.880655 0.00261541 1.48107e-16)
(0.94026 0.00493554 -1.01823e-16)
(0.901681 0.00850286 1.54191e-16)
(0.958207 0.0111487 -1.06437e-16)
(0.918616 0.0140196 1.72569e-16)
(0.973 0.0169761 -6.44122e-17)
(0.932147 0.0192968 1.24869e-16)
(0.985164 0.0224692 -1.93832e-17)
(0.942806 0.0244873 7.39468e-17)
(0.995077 0.0275593 1.3353e-17)
(0.95103 0.0298225 1.55211e-17)
(1.00297 0.0320456 9.5435e-18)
(0.957235 0.0355567 1.7052e-17)
(1.00892 0.0357511 1.42045e-17)
(0.961896 0.0416098 3.33584e-18)
(1.01275 0.0386069 2.39246e-17)
(0.965874 0.0478318 -1.5424e-17)
(1.0132 0.0397026 3.20721e-17)
(0.972473 0.0529691 -2.34055e-17)
(1.00617 0.0483902 3.78377e-17)
(0.982576 0.0580302 -2.15658e-17)
(0.16323 -0.213327 4.76176e-17)
(0.155928 -0.181665 -8.11285e-17)
(0.371545 -0.16622 3.39988e-16)
(0.344821 -0.137128 -2.35396e-16)
(0.519267 -0.130122 1.44579e-16)
(0.484903 -0.104957 1.39216e-17)
(0.627681 -0.101801 1.32148e-16)
(0.590767 -0.0808438 1.39152e-17)
(0.70957 -0.0792005 8.05819e-17)
(0.672057 -0.0621129 4.62852e-17)
(0.772864 -0.0608685 1.22452e-16)
(0.735351 -0.0470638 -5.91666e-17)
(0.822672 -0.0457456 3.6837e-17)
(0.785224 -0.0346123 -2.96153e-17)
(0.862418 -0.0330383 -6.75712e-17)
(0.824911 -0.0240505 -4.62474e-17)
(0.894477 -0.0221481 2.09409e-17)
(0.856721 -0.0148966 -1.7505e-16)
(0.920548 -0.0126258 1.82728e-16)
(0.882329 -0.00680695 -1.82713e-16)
(0.941874 -0.00413538 1.05912e-16)
(0.902961 0.000473478 -1.64671e-16)
(0.959379 0.00357464 8.47217e-17)
(0.919524 0.00714389 -1.15231e-16)
(0.973754 0.0106868 -2.77526e-17)
(0.932699 0.01338 -6.4642e-17)
(0.985528 0.0172976 -6.89332e-17)
(0.943002 0.0193893 -4.38781e-18)
(0.995098 0.0233573 -9.90885e-17)
(0.950832 0.0255051 4.56735e-17)
(1.00275 0.028607 -5.83626e-17)
(0.956527 0.0322147 1.82524e-17)
(1.00866 0.032654 -9.40996e-17)
(0.960415 0.0400727 1.22137e-16)
(1.01279 0.0348983 -1.14181e-16)
(0.963015 0.0508828 4.6943e-17)
(1.01436 0.0320587 6.26304e-18)
(0.966833 0.0673159 -4.04541e-17)
(1.00988 0.0301235 2.47849e-17)
(0.974428 0.0714441 -7.10497e-17)
(0.179591 -0.275736 -1.1112e-16)
(0.169898 -0.234868 -2.36345e-17)
(0.384225 -0.21543 -5.23931e-16)
(0.355371 -0.178294 3.32422e-16)
(0.529123 -0.169612 -1.92005e-16)
(0.49297 -0.137715 -6.17061e-17)
(0.635368 -0.133963 -2.09548e-16)
(0.597002 -0.107522 4.29911e-17)
(0.715564 -0.105702 -7.57681e-17)
(0.676905 -0.0842471 -1.49453e-17)
(0.77752 -0.0829286 -1.48289e-16)
(0.73912 -0.0657008 4.4155e-17)
(0.826262 -0.0642709 2.67972e-17)
(0.788136 -0.050486 -7.53431e-18)
(0.865149 -0.0487067 1.13147e-16)
(0.82713 -0.0376922 -5.3023e-17)
(0.896511 -0.0354687 6.69139e-17)
(0.85837 -0.0266997 5.12419e-17)
(0.922009 -0.0239818 -6.16644e-17)
(0.883501 -0.0170638 8.18337e-17)
(0.94286 -0.0138139 -1.11729e-17)
(0.903724 -0.00845129 1.74813e-16)
(0.959963 -0.00463869 -9.02484e-17)
(0.919927 -0.000601541 9.92749e-17)
(0.973995 0.00378067 4.80461e-17)
(0.932769 0.00670605 9.51396e-17)
(0.985472 0.0115756 2.38075e-17)
(0.942732 0.0137071 3.67799e-17)
(0.994802 0.0187256 1.24889e-16)
(0.950161 0.0207241 -2.57571e-17)
(1.00231 0.025045 7.0701e-17)
(0.955299 0.0281152 1.2441e-17)
(1.00827 0.0303452 1.09999e-18)
(0.958358 0.0359844 1.55132e-17)
(1.01301 0.0342214 4.43847e-17)
(0.959528 0.0453157 -4.27895e-17)
(1.01728 0.0335994 3.61548e-17)
(0.959651 0.0564867 -4.02166e-17)
(1.02001 0.0406803 5.59211e-17)
(0.960155 0.0498543 5.53949e-17)
(0.200046 -0.337157 2.01428e-16)
(0.187443 -0.28787 2.01181e-16)
(0.400545 -0.264341 5.86862e-16)
(0.369018 -0.219501 -2.18363e-16)
(0.542347 -0.209016 1.76568e-16)
(0.503863 -0.170431 1.10415e-16)
(0.646178 -0.165962 2.61741e-16)
(0.605857 -0.133972 -8.27729e-17)
(0.724461 -0.131879 4.19902e-17)
(0.684196 -0.105943 -5.20299e-18)
(0.784878 -0.104493 2.95527e-16)
(0.745168 -0.0836944 -1.50163e-16)
(0.832363 -0.0821506 1.1602e-16)
(0.793171 -0.0655369 -1.57647e-16)
(0.870205 -0.0636119 -1.73182e-17)
(0.831316 -0.0503664 -1.18439e-16)
(0.90068 -0.0479433 1.569e-16)
(0.861835 -0.0374318 -1.68759e-16)
(0.925416 -0.034444 1.4967e-16)
(0.886343 -0.0261969 -9.98094e-17)
(0.945603 -0.0225876 2.39418e-17)
(0.906026 -0.0162625 -1.71908e-16)
(0.962128 -0.0119764 3.1083e-17)
(0.921757 -0.00731946 1.88899e-17)
(0.975666 -0.00231278 -1.69461e-16)
(0.934186 0.000894615 3.82592e-17)
(0.986751 0.00659364 -1.37682e-16)
(0.943781 0.00865855 3.11125e-17)
(0.995837 0.0147762 -2.11082e-16)
(0.950848 0.0163594 4.37596e-17)
(1.00335 0.0220598 -2.08807e-16)
(0.955565 0.0244986 1.06137e-16)
(1.00972 0.0281356 -1.78767e-16)
(0.958022 0.0335383 1.28845e-16)
(1.01542 0.0323332 -2.17811e-16)
(0.957951 0.0451362 9.21724e-17)
(1.02141 0.0309443 -6.99649e-18)
(0.954915 0.0609967 -7.19503e-17)
(1.02587 0.0328014 9.01192e-18)
(0.953901 0.0598638 -1.27989e-16)
(0.224412 -0.396905 -2.46822e-16)
(0.208282 -0.338877 -3.64081e-16)
(0.419588 -0.311535 -5.04242e-16)
(0.38492 -0.259013 2.76623e-17)
(0.557353 -0.246929 -1.77726e-16)
(0.516216 -0.201896 4.01541e-17)
(0.658085 -0.19686 -3.1214e-16)
(0.615603 -0.159615 1.68532e-16)
(0.73395 -0.157356 -2.09776e-17)
(0.691969 -0.127234 -7.46158e-17)
(0.792459 -0.125715 -2.67461e-16)
(0.75141 -0.101633 7.60817e-17)
(0.838419 -0.0999844 -8.33985e-18)
(0.798192 -0.0808252 1.86862e-16)
(0.875028 -0.0787059 4.03577e-17)
(0.835346 -0.0635134 1.03808e-18)
(0.904491 -0.0607864 -3.38044e-17)
(0.865044 -0.0488164 -9.27961e-18)
(0.928383 -0.0454057 -6.0006e-17)
(0.888857 -0.036104 -1.02617e-17)
(0.947849 -0.0319467 -2.00042e-17)
(0.907936 -0.0249072 7.48007e-17)
(0.963744 -0.0199425 3.02392e-17)
(0.923127 -0.0148657 -1.08905e-17)
(0.976713 -0.00904438 8.78669e-17)
(0.935051 -0.00568954 -4.22922e-17)
(0.987271 0.000976069 1.30215e-16)
(0.944143 0.0028977 -4.42465e-17)
(0.995875 0.010194 2.49676e-16)
(0.950654 0.0112223 -3.9494e-17)
(1.00299 0.0185278 3.04795e-16)
(0.954656 0.0196035 -7.67293e-17)
(1.00913 0.0259078 1.17431e-16)
(0.956081 0.0280874 -3.02203e-17)
(1.01499 0.032141 1.59753e-16)
(0.954387 0.0375536 -9.2108e-17)
(1.02239 0.0345352 1.13837e-16)
(0.948027 0.0485091 -8.55292e-17)
(1.03154 0.0441488 2.04547e-16)
(0.939152 0.0405415 8.29213e-18)
(0.252693 -0.455088 4.0185e-16)
(0.232542 -0.38902 2.85886e-16)
(0.442086 -0.357796 5.71675e-16)
(0.40375 -0.297967 2.5335e-16)
(0.575509 -0.284172 1.31838e-16)
(0.531192 -0.232814 -2.33938e-16)
(0.672871 -0.227095 3.04235e-16)
(0.627736 -0.184609 -2.51657e-16)
(0.746076 -0.182089 8.5042e-17)
(0.701931 -0.147737 -2.02316e-17)
(0.802457 -0.146094 3.25001e-16)
(0.759659 -0.118645 -2.92682e-16)
(0.846693 -0.116888 1.63196e-16)
(0.805058 -0.0950658 -3.63296e-16)
(0.881882 -0.0928066 7.01967e-17)
(0.841069 -0.0755187 -1.05891e-16)
(0.91016 -0.0725975 1.30889e-16)
(0.86981 -0.0589968 -1.22903e-16)
(0.933048 -0.0553197 1.24568e-16)
(0.892814 -0.0447814 2.17019e-17)
(0.951659 -0.0402653 -3.62782e-17)
(0.911204 -0.0323385 9.65883e-18)
(0.966825 -0.0268958 -8.43362e-17)
(0.925811 -0.0212606 1.08783e-16)
(0.979186 -0.0147981 -1.2098e-16)
(0.937241 -0.0112195 4.71343e-17)
(0.989261 -0.00367292 -1.64632e-16)
(0.945909 -0.00191469 1.45159e-16)
(0.997531 0.00664017 -4.47332e-16)
(0.952023 0.00700172 8.54419e-17)
(1.00451 0.0161448 -3.3232e-16)
(0.955581 0.0158987 1.19028e-16)
(1.01078 0.0247646 -1.10609e-16)
(0.956428 0.024981 3.99549e-17)
(1.017 0.0321892 -1.53002e-16)
(0.953908 0.0351217 9.70561e-17)
(1.0248 0.036083 -2.18365e-17)
(0.945979 0.0460512 -6.56815e-17)
(1.03425 0.0466805 3.35639e-17)
(0.934767 0.041213 -3.19172e-16)
(0.28465 -0.511148 -4.57743e-16)
(0.259897 -0.436936 -3.60024e-16)
(0.467167 -0.402142 -5.76449e-16)
(0.424728 -0.335119 -6.72129e-16)
(0.595401 -0.319829 -2.34527e-16)
(0.547611 -0.26242 4.02857e-16)
(0.688783 -0.256173 -2.74299e-16)
(0.640811 -0.208753 3.09629e-16)
(0.758884 -0.206081 -1.09565e-17)
(0.71248 -0.167798 -1.27113e-16)
(0.812815 -0.166092 -1.45438e-16)
(0.768246 -0.13556 1.99612e-16)
(0.85509 -0.133706 -6.15614e-17)
(0.81208 -0.109493 2.16317e-16)
(0.88869 -0.107055 1.90728e-16)
(0.846818 -0.0879394 -1.64607e-16)
(0.915656 -0.0847377 1.97911e-16)
(0.8745 -0.0697709 -1.62197e-16)
(0.937442 -0.0657025 1.59735e-16)
(0.896607 -0.0541839 -1.08866e-16)
(0.955104 -0.0491593 2.54761e-17)
(0.914219 -0.0405838 5.4287e-18)
(0.969432 -0.0345059 -2.83717e-17)
(0.928132 -0.0285223 -3.33535e-17)
(0.981026 -0.0212805 4.2369e-17)
(0.93893 -0.0176581 5.66334e-17)
(0.990381 -0.00914131 -4.57258e-17)
(0.947006 -0.00770915 2.8324e-16)
(0.997962 0.00213425 5.33596e-17)
(0.952551 0.00158837 1.92924e-16)
(1.0043 0.0126682 1.24668e-16)
(0.955525 0.0104359 -7.10581e-17)
(1.01003 0.02262 1.36386e-16)
(0.955689 0.0187658 -1.24432e-16)
(1.01591 0.0321901 1.60757e-16)
(0.952257 0.0268266 -1.17263e-16)
(1.02368 0.0405915 1.36905e-16)
(0.94287 0.0330582 -2.06682e-16)
(1.03395 0.0590489 3.66488e-16)
(0.927417 0.0250519 -5.87443e-17)
(0.320265 -0.565102 7.64046e-16)
(0.290444 -0.483386 4.54761e-16)
(0.495446 -0.44499 6.97697e-16)
(0.448409 -0.371185 9.94224e-16)
(0.618174 -0.354306 4.32273e-16)
(0.566411 -0.291041 -3.69765e-16)
(0.70729 -0.284161 1.6732e-16)
(0.656014 -0.231892 -3.44126e-16)
(0.774031 -0.228979 -1.17981e-16)
(0.724943 -0.186784 3.51572e-16)
(0.825283 -0.184966 9.80356e-17)
(0.778558 -0.151322 -7.46646e-17)
(0.865395 -0.149369 1.52498e-16)
(0.820662 -0.122698 -2.84061e-16)
(0.897224 -0.12013 -4.55829e-17)
(0.85398 -0.0990828 8.5407e-17)
(0.922722 -0.0956979 -1.74507e-16)
(0.880481 -0.0792298 6.3087e-17)
(0.943272 -0.0749085 -1.32409e-16)
(0.901595 -0.0622519 1.46538e-16)
(0.959886 -0.0568846 -1.07504e-17)
(0.918367 -0.0474935 8.09953e-17)
(0.973319 -0.0409565 -2.00702e-17)
(0.93157 -0.0344606 1.31675e-16)
(0.98415 -0.0266011 -2.3516e-16)
(0.941765 -0.0227779 2.65639e-16)
(0.992855 -0.0134046 -2.33172e-16)
(0.949329 -0.0121569 2.24637e-17)
(0.999882 -0.00105442 -3.64819e-16)
(0.954421 -0.0023494 1.69963e-16)
(1.00573 0.0106827 -3.24802e-16)
(0.956948 0.00681939 2.73875e-16)
(1.01098 0.0220241 -3.83021e-16)
(0.956619 0.0153129 3.94543e-16)
(1.01625 0.0331603 -3.94985e-16)
(0.952744 0.0231548 2.38258e-16)
(1.0228 0.0440406 -1.78285e-16)
(0.943487 0.0274093 3.08328e-17)
(1.03078 0.066088 -3.22188e-17)
(0.927694 0.0200231 -3.82718e-16)
(0.359262 -0.616509 -1.16338e-15)
(0.32385 -0.527369 -7.36547e-16)
(0.526134 -0.485707 -6.75837e-16)
(0.474102 -0.405316 -1.16066e-15)
(0.642602 -0.387072 -5.31026e-16)
(0.586605 -0.318258 1.58848e-16)
(0.726918 -0.310898 -1.93764e-16)
(0.672179 -0.254102 4.463e-16)
(0.78992 -0.251053 1.73909e-16)
(0.738068 -0.205253 -3.92621e-16)
(0.838218 -0.203379 -2.14601e-16)
(0.789321 -0.166908 -1.79668e-16)
(0.875967 -0.164869 -6.43849e-17)
(0.829542 -0.136008 -3.0863e-18)
(0.905877 -0.133278 1.22688e-16)
(0.861326 -0.110558 -1.83674e-16)
(0.929788 -0.106921 2.81247e-16)
(0.886554 -0.0892073 -1.72772e-16)
(0.949002 -0.0845327 3.63263e-16)
(0.906589 -0.0709913 -3.93356e-16)
(0.964463 -0.0651624 1.2687e-16)
(0.922431 -0.0552009 -1.85222e-16)
(0.976876 -0.0480837 2.06103e-17)
(0.934815 -0.0413081 -3.10764e-17)
(0.986776 -0.0327261 -8.49431e-17)
(0.944284 -0.0289299 1.33233e-16)
(0.994601 -0.0186316 -1.87522e-16)
(0.951207 -0.0177959 3.75593e-16)
(1.00076 -0.00540962 -9.89284e-17)
(0.955757 -0.00772571 8.24616e-18)
(1.00573 0.00730568 1.1299e-16)
(0.957869 0.00134226 -3.38812e-17)
(1.01008 0.0199451 8.70763e-17)
(0.957248 0.00924585 -6.69999e-17)
(1.01442 0.0331013 1.2895e-16)
(0.95324 0.0155967 -6.99477e-17)
(1.01965 0.0481421 2.24176e-16)
(0.944457 0.0160844 -1.98456e-16)
(1.02547 0.0772965 3.64649e-16)
(0.928085 0.00677051 -5.3661e-18)
(0.401597 -0.665318 1.09161e-15)
(0.360153 -0.569353 7.67402e-16)
(0.559705 -0.524432 6.44595e-16)
(0.502221 -0.437907 1.06029e-15)
(0.669599 -0.418221 3.81878e-16)
(0.608903 -0.344121 3.40375e-16)
(0.748831 -0.336186 3.77812e-17)
(0.690193 -0.275016 -1.50589e-16)
(0.807833 -0.27175 -2.87966e-16)
(0.752822 -0.222422 4.62827e-16)
(0.852948 -0.220449 8.93526e-17)
(0.801522 -0.181172 5.24982e-16)
(0.888132 -0.179046 2.45036e-17)
(0.839694 -0.147968 2.10331e-16)
(0.915948 -0.145124 4.91491e-17)
(0.869803 -0.120662 2.64665e-16)
(0.938126 -0.11686 -3.11472e-16)
(0.89364 -0.0977916 2.45836e-16)
(0.955884 -0.092889 -3.26356e-16)
(0.912507 -0.078317 4.75375e-16)
(0.970106 -0.07218 -1.7143e-16)
(0.927358 -0.0614729 1.75877e-16)
(0.98145 -0.0539445 -1.93659e-17)
(0.938898 -0.0466884 2.07594e-16)
(0.990417 -0.0375595 -2.11484e-16)
(0.947641 -0.0335518 1.68221e-16)
(0.997404 -0.0225044 -1.66798e-16)
(0.953946 -0.0217922 -3.30613e-17)
(1.00277 -0.00831656 -1.80678e-16)
(0.957986 -0.0112638 1.63501e-16)
(1.00689 0.00546817 -2.23287e-16)
(0.959699 -0.00195668 4.72947e-17)
(1.01023 0.0193521 -1.02645e-16)
(0.958816 0.00594294 2.39884e-16)
(1.01323 0.033969 -4.1255e-16)
(0.954898 0.0118247 2.39484e-16)
(1.01622 0.051399 -2.48812e-16)
(0.947634 0.0101867 9.70496e-17)
(1.01795 0.0842398 -2.39618e-16)
(0.933311 0.000686841 -2.50098e-16)
(0.446964 -0.711187 -5.96155e-16)
(0.399038 -0.608631 -5.50922e-16)
(0.59547 -0.560806 -6.60041e-16)
(0.532186 -0.468412 -7.68787e-16)
(0.698135 -0.447516 -6.02736e-16)
(0.632514 -0.368464 -5.29758e-16)
(0.771825 -0.360108 -9.47739e-17)
(0.709154 -0.294897 7.84435e-17)
(0.826509 -0.291514 -6.7547e-17)
(0.768276 -0.238968 -7.86529e-17)
(0.868215 -0.236948 -2.19007e-16)
(0.814253 -0.195151 -6.32397e-16)
(0.900672 -0.192951 -1.68165e-16)
(0.850256 -0.159922 -5.07575e-16)
(0.926272 -0.156937 -3.19256e-17)
(0.878599 -0.130989 -5.97191e-16)
(0.946619 -0.126966 4.62939e-16)
(0.900971 -0.106795 -5.87976e-16)
(0.962834 -0.101581 4.76285e-16)
(0.918601 -0.0862339 -7.15705e-16)
(0.97573 -0.0796888 2.99459e-16)
(0.932392 -0.0684923 -2.72796e-16)
(0.985904 -0.0604505 3.57743e-17)
(0.94301 -0.0529711 -5.22056e-17)
(0.993804 -0.0431979 -3.38545e-17)
(0.95095 -0.0392453 2.81092e-16)
(0.999786 -0.0273704 -1.5873e-16)
(0.95657 -0.0270489 2.50152e-16)
(1.00415 -0.0124307 1.09314e-16)
(0.960074 -0.0162702 -5.46694e-17)
(1.00721 0.00220254 2.19011e-16)
(0.961466 -0.00695699 -5.03183e-17)
(1.00934 0.0171953 9.75154e-17)
(0.960536 0.000673047 -1.84367e-16)
(1.01089 0.0334331 4.59387e-16)
(0.956998 0.005794 -4.12124e-16)
(1.01167 0.0539345 4.39843e-16)
(0.951474 0.00187733 -3.47411e-16)
(1.00931 0.0918575 4.46993e-16)
(0.939278 -0.00875479 5.79922e-18)
(0.495288 -0.754021 4.89297e-16)
(0.440467 -0.645452 5.20349e-16)
(0.633753 -0.594767 5.79899e-16)
(0.564256 -0.496993 6.79137e-16)
(0.728893 -0.474829 7.49062e-16)
(0.657929 -0.391149 5.47754e-16)
(0.796771 -0.382288 1.62354e-16)
(0.729674 -0.313251 2.80232e-16)
(0.84689 -0.309678 8.8678e-17)
(0.785076 -0.254048 1.2857e-16)
(0.884964 -0.251943 2.22883e-16)
(0.828141 -0.20769 6.4071e-16)
(0.914497 -0.205419 4.51696e-16)
(0.861811 -0.170451 6.59579e-16)
(0.937714 -0.16737 4.9797e-17)
(0.888249 -0.139895 7.71229e-16)
(0.956088 -0.135734 -5.65031e-16)
(0.909039 -0.114372 8.07301e-16)
(0.970644 -0.108966 -3.74809e-16)
(0.925338 -0.0927064 6.0213e-16)
(0.982123 -0.0859035 -2.09494e-16)
(0.937996 -0.0740354 2.17379e-16)
(0.991065 -0.0656531 -1.30857e-16)
(0.947636 -0.0577201 7.70485e-17)
(0.997874 -0.0475064 1.73967e-17)
(0.95473 -0.043313 -3.49979e-16)
(1.00285 -0.0308559 2.43617e-16)
(0.959625 -0.0305438 -3.6505e-16)
(1.00621 -0.0151191 4.69801e-17)
(0.96255 -0.0193273 -2.43145e-16)
(1.00818 0.000347625 3.98449e-17)
(0.963566 -0.00975214 -2.34083e-16)
(1.00899 0.0162584 8.83798e-17)
(0.962555 -0.00205671 2.43112e-17)
(1.00883 0.0335304 -2.27775e-16)
(0.959494 0.00282181 3.10996e-16)
(1.00696 0.0555851 -3.10525e-16)
(0.956208 -0.00228798 2.21512e-16)
(0.999742 0.0958184 -1.79634e-16)
(0.947675 -0.0130972 -2.41784e-16)
(0.546246 -0.793564 -9.56116e-16)
(0.484162 -0.679336 -3.16592e-16)
(0.673977 -0.626159 -7.4567e-16)
(0.597973 -0.523333 -5.25695e-16)
(0.761038 -0.500136 -7.67047e-16)
(0.684543 -0.412189 -4.78066e-16)
(0.822721 -0.402971 -4.43426e-16)
(0.75109 -0.33045 -1.89779e-16)
(0.868012 -0.326782 -7.00085e-16)
(0.802574 -0.268378 1.95115e-16)
(0.902276 -0.266238 -5.17505e-16)
(0.842599 -0.219815 -4.29469e-16)
(0.928764 -0.217484 -8.49105e-16)
(0.873849 -0.180837 -6.68812e-16)
(0.949508 -0.177639 -2.09303e-16)
(0.898318 -0.14889 -5.37218e-16)
(0.96584 -0.14454 5.17244e-16)
(0.91748 -0.122238 -8.22406e-16)
(0.97868 -0.116566 5.90617e-16)
(0.93241 -0.0996505 -7.57643e-16)
(0.988685 -0.0924981 4.3985e-16)
(0.943898 -0.0802233 -3.83508e-16)
(0.996333 -0.0714013 2.79803e-16)
(0.95253 -0.0632911 -1.40604e-16)
(1.00197 -0.0525278 1.44618e-16)
(0.958749 -0.0483829 1.0341e-16)
(1.00585 -0.0352372 8.41422e-17)
(0.962905 -0.0352236 4.43067e-17)
(1.00813 -0.0188923 2.80477e-16)
(0.965252 -0.0237224 -3.07436e-17)
(1.00894 -0.00277354 2.79171e-16)
(0.965933 -0.0139754 -1.44303e-16)
(1.00838 0.0139308 3.33546e-16)
(0.964927 -0.00620169 -2.69052e-16)
(1.00652 0.032247 3.38335e-16)
(0.962395 -0.00137956 -3.40958e-16)
(1.00215 0.055979 2.82378e-16)
(0.961169 -0.00709446 -2.99811e-16)
(0.99025 0.098777 1.95204e-16)
(0.956188 -0.0183136 -1.0633e-16)
(0.599729 -0.829697 1.13896e-15)
(0.530006 -0.710382 3.46839e-16)
(0.716317 -0.654795 6.21016e-16)
(0.633445 -0.547436 7.24775e-16)
(0.795032 -0.523166 5.79973e-16)
(0.712641 -0.431328 7.18673e-16)
(0.850278 -0.421683 3.13209e-16)
(0.773769 -0.345948 4.06863e-16)
(0.890518 -0.342121 5.98432e-16)
(0.821137 -0.281126 2.92534e-21)
(0.920767 -0.278918 3.21216e-16)
(0.857945 -0.230432 5.64687e-16)
(0.944024 -0.228046 8.14776e-16)
(0.886617 -0.189768 7.89992e-16)
(0.962134 -0.186497 2.58323e-16)
(0.908981 -0.15646 3.23566e-16)
(0.976285 -0.152006 -5.07409e-16)
(0.926395 -0.128693 6.9419e-16)
(0.987289 -0.122876 -5.29532e-16)
(0.939851 -0.105178 3.82627e-16)
(0.995721 -0.0978297 -6.13601e-17)
(0.950077 -0.0849649 6.75269e-17)
(1.002 -0.0758899 5.47627e-17)
(0.957615 -0.0673554 -1.64255e-16)
(1.00641 -0.0562781 1.19338e-16)
(0.96288 -0.0518613 -4.2289e-16)
(1.00915 -0.0383242 2.27096e-16)
(0.96621 -0.0381932 -4.41617e-16)
(1.01031 -0.0213729 5.95518e-17)
(0.967894 -0.0262683 -2.97145e-16)
(1.00993 -0.00468751 8.30503e-17)
(0.968144 -0.0161917 -2.39327e-16)
(1.00798 0.0125515 7.37409e-17)
(0.96707 -0.00818392 -3.65927e-16)
(1.00438 0.0313566 2.15644e-16)
(0.965061 -0.00320201 -8.7269e-17)
(0.997546 0.0555413 -7.5745e-17)
(0.965949 -0.00886067 2.73292e-16)
(0.981095 0.0987913 -1.98417e-16)
(0.965178 -0.0200195 2.66964e-16)
(0.6554 -0.862233 -1.19635e-15)
(0.577758 -0.73828 -6.77311e-17)
(0.760302 -0.680656 -9.88916e-16)
(0.670328 -0.569149 -4.53408e-16)
(0.830225 -0.54404 -9.62945e-16)
(0.74179 -0.448693 -3.72063e-16)
(0.878724 -0.438763 -3.8557e-16)
(0.797258 -0.360163 -9.94928e-17)
(0.913706 -0.356265 -9.25625e-16)
(0.84036 -0.29299 3.382e-16)
(0.939807 -0.290758 -4.77073e-16)
(0.873859 -0.240491 -4.75206e-16)
(0.959749 -0.238059 -7.06122e-16)
(0.8999 -0.198407 -9.29489e-16)
(0.975171 -0.19504 -2.73751e-16)
(0.920128 -0.163964 -3.11797e-16)
(0.987108 -0.159354 4.73142e-16)
(0.935777 -0.135279 -5.97757e-16)
(0.996251 -0.129241 4.19978e-16)
(0.947755 -0.111017 -3.98406e-16)
(1.00309 -0.10338 2.95037e-16)
(0.956724 -0.0901952 -3.33308e-16)
(1.00798 -0.0807567 1.56638e-16)
(0.963178 -0.0720891 -1.19764e-16)
(1.01114 -0.0605618 2.86682e-16)
(0.967503 -0.0561842 -8.9272e-18)
(1.01273 -0.0421039 2.44177e-16)
(0.970026 -0.0421691 4.41403e-17)
(1.01277 -0.0246996 4.30809e-16)
(0.971054 -0.0299358 -2.03912e-16)
(1.0112 -0.00757952 5.30404e-16)
(0.970862 -0.0195541 -3.14246e-16)
(1.00788 0.0101042 5.10005e-16)
(0.96965 -0.011196 -1.62252e-16)
(1.00263 0.0293734 4.31816e-16)
(0.967965 -0.0057322 -6.10095e-16)
(0.993565 0.0539499 5.80023e-16)
(0.970402 -0.0105919 -6.09891e-16)
(0.972965 0.0975024 3.14988e-16)
(0.973418 -0.0216704 -2.97674e-16)
(0.713122 -0.891051 1.2274e-15)
(0.627228 -0.763036 4.10691e-16)
(0.805975 -0.70349 5.80561e-16)
(0.708595 -0.588378 8.49314e-16)
(0.866875 -0.562409 9.76394e-16)
(0.772092 -0.463976 4.38114e-16)
(0.908426 -0.453703 1.02776e-16)
(0.821712 -0.372554 2.25159e-16)
(0.937961 -0.36853 6.90653e-16)
(0.860377 -0.303201 -2.17239e-16)
(0.959733 -0.30092 4.14946e-16)
(0.890409 -0.249016 4.8092e-16)
(0.976193 -0.246549 6.14386e-16)
(0.913673 -0.205599 6.43642e-16)
(0.988775 -0.202187 4.70093e-16)
(0.931633 -0.170083 1.84885e-16)
(0.998359 -0.165408 -2.54934e-16)
(0.945395 -0.140519 2.88546e-16)
(1.00552 -0.134389 -9.07259e-17)
(0.95578 -0.115524 7.80514e-17)
(1.01066 -0.107762 3.66523e-17)
(0.963383 -0.0940798 -9.17557e-17)
(1.01406 -0.0844812 2.54539e-16)
(0.968647 -0.0754315 -4.49042e-16)
(1.0159 -0.0637171 2.02275e-16)
(0.971928 -0.0590486 -4.87889e-16)
(1.01626 -0.0447618 9.00876e-17)
(0.973543 -0.0446053 -3.87606e-16)
(1.01514 -0.0269338 -1.55936e-17)
(0.973805 -0.0319766 -2.50238e-16)
(1.01239 -0.00948368 -2.11084e-16)
(0.973063 -0.021221 -5.30133e-18)
(1.0078 0.00840737 -2.15142e-16)
(0.97163 -0.0124975 -2.07482e-16)
(1.00105 0.0276958 -1.60341e-17)
(0.970185 -0.0065541 2.78696e-16)
(0.99014 0.0517819 -2.23409e-16)
(0.973926 -0.0103644 4.01693e-16)
(0.966109 0.0942156 -3.31378e-16)
(0.980768 -0.021337 4.18093e-16)
(0.772549 -0.916022 -1.24009e-15)
(0.678212 -0.78446 -7.28567e-16)
(0.852959 -0.723369 -7.08909e-16)
(0.748004 -0.605082 -4.31185e-16)
(0.904501 -0.578486 -1.41202e-15)
(0.803265 -0.477362 -2.29396e-16)
(0.938866 -0.466884 -3.52122e-16)
(0.846856 -0.383539 -5.15779e-17)
(0.962799 -0.379471 -6.28008e-16)
(0.880977 -0.312395 1.60803e-16)
(0.980152 -0.310103 -1.75745e-16)
(0.907485 -0.256836 -6.9843e-16)
(0.993083 -0.254338 -3.04051e-16)
(0.92795 -0.212342 -5.6103e-16)
(1.00281 -0.208858 -2.05667e-16)
(0.943639 -0.175966 -2.85944e-16)
(1.01004 -0.171169 4.99426e-16)
(0.955532 -0.14571 -4.91128e-16)
(1.01524 -0.139403 4.66345e-16)
(0.964353 -0.120154 -5.65674e-16)
(1.0187 -0.11216 3.65483e-16)
(0.970628 -0.0982533 -2.21262e-16)
(1.02064 -0.0883647 1.07223e-16)
(0.974755 -0.0792342 6.6467e-17)
(1.02118 -0.0671666 2.63349e-16)
(0.977044 -0.06254 1.43968e-16)
(1.02035 -0.0478456 1.79463e-16)
(0.977787 -0.0478182 1.48984e-16)
(1.0181 -0.0297113 1.87416e-16)
(0.977303 -0.0349057 1.80096e-16)
(1.0142 -0.0120208 2.94631e-16)
(0.975955 -0.0238048 -6.85463e-17)
(1.00837 0.00603263 3.04143e-16)
(0.974123 -0.0146188 1.44918e-16)
(1.00022 0.0253568 2.16067e-16)
(0.972555 -0.00793177 -5.24681e-16)
(0.987691 0.0489598 5.63145e-16)
(0.976815 -0.0101537 -5.31791e-16)
(0.96074 0.0902372 3.70607e-16)
(0.986802 -0.0210133 -4.53755e-16)
(0.83352 -0.937039 1.44902e-15)
(0.730461 -0.802515 1.1976e-15)
(0.901185 -0.740025 6.09302e-16)
(0.788411 -0.619123 4.58061e-16)
(0.943186 -0.591894 1.16983e-15)
(0.835256 -0.488539 1.92531e-16)
(0.970212 -0.477807 4.10747e-16)
(0.872672 -0.392622 1.9033e-16)
(0.988395 -0.388463 3.50357e-16)
(0.90211 -0.319905 -9.09237e-17)
(1.00118 -0.317581 8.75648e-17)
(0.924964 -0.263133 5.34586e-16)
(1.01044 -0.260619 3.68206e-16)
(0.942503 -0.217684 4.09608e-16)
(1.01717 -0.214182 3.91478e-17)
(0.955801 -0.180543 1.5478e-16)
(1.02192 -0.175718 -4.15425e-16)
(0.965701 -0.14966 2.34479e-16)
(1.02503 -0.143315 -8.90328e-17)
(0.972839 -0.123583 1.61876e-16)
(1.0267 -0.115535 1.6667e-17)
(0.977671 -0.101238 -7.29457e-17)
(1.02707 -0.0912817 1.69793e-16)
(0.980533 -0.0818261 -2.8886e-16)
(1.02621 -0.0696881 1.41077e-17)
(0.981709 -0.0647793 -4.41056e-16)
(1.02412 -0.0500274 1.55722e-16)
(0.981468 -0.0497268 -4.31097e-16)
(1.02069 -0.0316265 1.1932e-16)
(0.980126 -0.0364828 -4.48829e-16)
(1.01569 -0.0137737 -1.02606e-16)
(0.978081 -0.0250317 -1.00064e-16)
(1.00877 0.00428601 -2.74433e-16)
(0.975783 -0.0154641 -2.14363e-16)
(0.999509 0.0233666 -2.81321e-16)
(0.974002 -0.00821563 2.67818e-16)
(0.985934 0.0459868 -3.74215e-16)
(0.978442 -0.00902927 3.14312e-16)
(0.95705 0.0853829 -2.99768e-16)
(0.991225 -0.0200932 5.77084e-16)
(0.89568 -0.954014 -1.55718e-15)
(0.783797 -0.817093 -1.16925e-15)
(0.950353 -0.753576 -8.54709e-16)
(0.829663 -0.630527 -8.6705e-17)
(0.982587 -0.602893 -1.05006e-15)
(0.867907 -0.497715 8.6991e-17)
(1.00211 -0.486862 -6.35875e-16)
(0.899026 -0.400189 -1.45922e-16)
(1.01444 -0.396013 -1.57985e-16)
(0.923718 -0.326274 1.56151e-16)
(1.02261 -0.323952 -4.39196e-18)
(0.94289 -0.268585 -3.38086e-16)
(1.02819 -0.266056 -1.53708e-16)
(0.957504 -0.222419 -6.6322e-16)
(1.03194 -0.21887 1.75642e-16)
(0.968436 -0.184708 -1.83076e-16)
(1.03424 -0.179797 4.5665e-16)
(0.976393 -0.153371 -4.36499e-16)
(1.0353 -0.146895 2.68303e-16)
(0.981905 -0.126925 -3.12594e-16)
(1.03524 -0.118703 1.369e-16)
(0.985364 -0.104285 -4.63422e-17)
(1.0341 -0.0941075 -1.30169e-16)
(0.987052 -0.084638 2.84239e-17)
(1.03192 -0.0722302 3.31491e-16)
(0.987203 -0.067396 4.89958e-17)
(1.02863 -0.0523399 1.18846e-16)
(0.986053 -0.0521653 1.7849e-16)
(1.02409 -0.0337632 8.64641e-17)
(0.983887 -0.0387243 1.91403e-16)
(1.01802 -0.0158129 1.54601e-16)
(0.981089 -0.0270028 2.2921e-16)
(1.01002 0.00224244 1.65113e-16)
(0.97813 -0.0170492 3.3283e-16)
(0.999641 0.021156 3.23632e-16)
(0.975739 -0.00912035 -1.83771e-16)
(0.9851 0.0429755 3.45647e-16)
(0.979601 -0.00832876 -2.39672e-16)
(0.954623 0.0807909 1.7925e-16)
(0.994427 -0.0196846 -4.33053e-16)
(0.958853 -0.966877 1.51139e-15)
(0.837933 -0.828147 1.07728e-15)
(1.00031 -0.763779 7.03253e-16)
(0.871521 -0.639149 2.33221e-16)
(1.02265 -0.611122 5.77687e-16)
(0.901044 -0.504605 1.60028e-17)
(1.03457 -0.493591 5.47336e-16)
(0.925768 -0.405817 8.5739e-17)
(1.04095 -0.401587 2.22959e-17)
(0.945616 -0.33096 -1.47308e-16)
(1.0444 -0.328628 2.00726e-16)
(0.961008 -0.272552 1.60041e-17)
(1.04617 -0.270028 -2.98081e-17)
(0.972599 -0.225826 8.09209e-16)
(1.04682 -0.222287 -4.13017e-16)
(0.981059 -0.187671 2.32603e-16)
(1.04656 -0.182774 -1.90423e-16)
(0.986956 -0.155974 8.68538e-17)
(1.04546 -0.149514 1.69407e-16)
(0.990729 -0.129233 -7.91113e-17)
(1.04354 -0.121027 8.26496e-17)
(0.992687 -0.106338 4.55441e-17)
(1.04078 -0.0961826 1.15522e-16)
(0.993064 -0.0864624 -2.47604e-16)
(1.03715 -0.0740895 1.4128e-16)
(0.992053 -0.0690061 -3.53733e-16)
(1.03257 -0.0540129 3.47743e-17)
(0.989864 -0.0535621 -1.97081e-17)
(1.02687 -0.0352956 -3.77976e-16)
(0.986766 -0.0398913 3.71972e-17)
(1.01976 -0.0172787 -2.22808e-16)