/*--------------------------------*- C++ -*----------------------------------*\
| =========                 |                                                 |
| \\      /  F ield         | OpenFOAM: The Open Source CFD Toolbox           |
|  \\    /   O peration     | Version:  2.2.0                                 |
|   \\  /    A nd           | Web:      www.OpenFOAM.org                      |
|    \\/     M anipulation  |                                                 |
\*---------------------------------------------------------------------------*/
FoamFile
{
    version     2.0;
    format      ascii;
    class       volVectorField;
    location    "30";
    object      s;
}
// * * * * * * * * * * * * * * * * * * * * * * * * * * * * * * * * * * * * * //

dimensions      [0 1 -1 0 0 0 0];

internalField   nonuniform List<vector> 
1600
(
(2.99571 0.222676 0)
(2.20242 0.167 0)
(1.67896 0.130152 0)
(1.31538 0.10472 0)
(1.05108 0.0862177 0)
(0.853511 0.0723874 0)
(0.700958 0.0616916 0)
(0.581398 0.0532801 0)
(0.485002 0.0464915 0)
(0.407337 0.040982 0)
(0.342018 0.0363705 0)
(0.289263 0.0325868 0)
(0.242305 0.029285 0)
(0.205296 0.0266122 0)
(0.170296 0.0241675 0)
(0.14278 0.0222365 0)
(0.117204 0.0204265 0)
(0.0943521 0.0190124 0)
(0.0768921 0.017694 0)
(0.0564919 0.0167554 0)
(2.9371 0.66438 0)
(2.15962 0.497471 0)
(1.64636 0.38769 0)
(1.28981 0.311749 0)
(1.03055 0.2566 0)
(0.836709 0.215327 0)
(0.687008 0.183427 0)
(0.569673 0.15832 0)
(0.475051 0.138057 0)
(0.398819 0.121597 0)
(0.334688 0.107816 0)
(0.282911 0.0964844 0)
(0.236801 0.0866006 0)
(0.200498 0.0785376 0)
(0.166146 0.0712053 0)
(0.139185 0.0652533 0)
(0.114149 0.0598198 0)
(0.0917875 0.0551854 0)
(0.0748646 0.0512575 0)
(0.0549134 0.0475585 0)
(2.82066 1.09387 0)
(2.07473 0.819026 0)
(1.58171 0.638556 0)
(1.23912 0.51362 0)
(0.989825 0.422914 0)
(0.803388 0.354997 0)
(0.659329 0.302501 0)
(0.546399 0.261167 0)
(0.455289 0.227798 0)
(0.381892 0.200682 0)
(0.320108 0.177968 0)
(0.270257 0.159277 0)
(0.225817 0.142968 0)
(0.190872 0.129629 0)
(0.15779 0.117512 0)
(0.131806 0.107585 0)
(0.107816 0.0985962 0)
(0.0861619 0.0907141 0)
(0.0701762 0.0842373 0)
(0.0507344 0.0777009 0)
(2.64884 1.50296 0)
(1.94933 1.12583 0)
(1.48631 0.878427 0)
(1.16426 0.706997 0)
(0.929681 0.582535 0)
(0.754143 0.48929 0)
(0.618403 0.417196 0)
(0.511958 0.360405 0)
(0.426021 0.31454 0)
(0.356795 0.277251 0)
(0.298458 0.245999 0)
(0.25144 0.220266 0)
(0.209425 0.197794 0)
(0.176488 0.179389 0)
(0.145173 0.162665 0)
(0.120689 0.148898 0)
(0.0979831 0.136477 0)
(0.0775377 0.125422 0)
(0.0624439 0.116483 0)
(0.0440263 0.10711 0)
(2.42525 1.88373 0)
(1.78609 1.41244 0)
(1.36206 1.10318 0)
(1.06671 0.888733 0)
(0.851246 0.732973 0)
(0.689876 0.616208 0)
(0.564951 0.525885 0)
(0.46694 0.454696 0)
(0.38773 0.39717 0)
(0.323928 0.350379 0)
(0.270073 0.311133 0)
(0.226732 0.278805 0)
(0.187864 0.250544 0)
(0.157513 0.227386 0)
(0.128491 0.206317 0)
(0.105884 0.188949 0)
(0.0848626 0.173274 0)
(0.0658323 0.159276 0)
(0.051931 0.147978 0)
(0.0346184 0.136087 0)
(2.15472 2.2293 0)
(1.58835 1.6738 0)
(1.21144 1.30908 0)
(0.94834 1.05592 0)
(0.75599 0.871939 0)
(0.611746 0.733906 0)
(0.499903 0.627062 0)
(0.412093 0.542794 0)
(0.341023 0.474651 0)
(0.283783 0.419191 0)
(0.235349 0.372633 0)
(0.196457 0.334267 0)
(0.16139 0.300686 0)
(0.134171 0.273164 0)
(0.107899 0.248088 0)
(0.0875933 0.227413 0)
(0.0685453 0.208734 0)
(0.0513168 0.192035 0)
(0.0387633 0.178563 0)
(0.0229381 0.164362 0)
(1.84295 2.53351 0)
(1.36022 1.90551 0)
(1.03745 1.49277 0)
(0.811441 1.20599 0)
(0.645691 0.997382 0)
(0.521166 0.840733 0)
(0.424394 0.719374 0)
(0.34834 0.623581 0)
(0.286656 0.546049 0)
(0.236985 0.482906 0)
(0.194808 0.429842 0)
(0.161049 0.386098 0)
(0.130375 0.347753 0)
(0.106767 0.316332 0)
(0.0836841 0.287645 0)
(0.0660173 0.264004 0)
(0.0492977 0.242608 0)
(0.0340955 0.223473 0)
(0.0232175 0.208038 0)
(0.00899614 0.19173 0)
(1.49651 2.79122 0)
(1.1063 2.10378 0)
(0.843528 1.65142 0)
(0.658627 1.33672 0)
(0.52239 1.10754 0)
(0.419751 0.935257 0)
(0.339721 0.801643 0)
(0.276733 0.696075 0)
(0.225485 0.610538 0)
(0.184235 0.540821 0)
(0.149023 0.482158 0)
(0.120979 0.433781 0)
(0.0951988 0.391298 0)
(0.0756187 0.3565 0)
(0.0560908 0.324651 0)
(0.0413819 0.298427 0)
(0.0272474 0.274635 0)
(0.0143586 0.253369 0)
(0.00530135 0.236183 0)
(-0.00700199 0.218049 0)
(1.12254 2.99828 0)
(0.831763 2.26561 0)
(0.633463 1.78274 0)
(0.492804 1.44632 0)
(0.388348 1.20098 0)
(0.309301 1.0163 0)
(0.247331 0.872897 0)
(0.198448 0.75946 0)
(0.158479 0.66743 0)
(0.126334 0.592351 0)
(0.098662 0.529081 0)
(0.0768082 0.476883 0)
(0.05634 0.430948 0)
(0.0411276 0.393337 0)
(0.0254745 0.358819 0)
(0.0139741 0.330415 0)
(0.0026843 0.304595 0)
(-0.00771462 0.281474 0)
(-0.0147037 0.26284 0)
(-0.0250132 0.242999 0)
(0.728846 3.15165 0)
(0.542051 2.38875 0)
(0.411338 1.885 0)
(0.317071 1.53342 0)
(0.245992 1.27659 0)
(0.19174 1.08297 0)
(0.148772 0.932376 0)
(0.114742 0.813092 0)
(0.0866615 0.716171 0)
(0.0641202 0.637015 0)
(0.0444117 0.570191 0)
(0.029096 0.515033 0)
(0.0142485 0.466373 0)
(0.00365633 0.426554 0)
(-0.00789029 0.389882 0)
(-0.0159843 0.359746 0)
(-0.0242678 0.332252 0)
(-0.0319889 0.307662 0)
(-0.0368469 0.287766 0)
(-0.0449315 0.266671 0)
(0.323322 3.24956 0)
(0.242952 2.47186 0)
(0.181376 1.95715 0)
(0.134689 1.59716 0)
(0.0978601 1.33366 0)
(0.0690929 1.13464 0)
(0.0456772 0.979556 0)
(0.0269501 0.856516 0)
(0.0111351 0.756362 0)
(-0.0014873 0.67446 0)
(-0.0129566 0.605173 0)
(-0.0215032 0.547951 0)
(-0.0305149 0.497324 0)
(-0.036313 0.455915 0)
(-0.0435767 0.417644 0)
(-0.0481332 0.386203 0)
(-0.0532533 0.357475 0)
(-0.0582108 0.33166 0)
(-0.0607533 0.31093 0)
(-0.0665951 0.288562 0)
(-0.0856933 3.29136 0)
(-0.0597919 2.51437 0)
(-0.0520541 1.99873 0)
(-0.0510469 1.63714 0)
(-0.0534486 1.37183 0)
(-0.0565799 1.17099 0)
(-0.06029 1.01414 0)
(-0.0635776 0.88946 0)
(-0.0669981 0.787751 0)
(-0.0695876 0.704449 0)
(-0.0727081 0.633805 0)
(-0.0743926 0.575423 0)
(-0.0774732 0.523591 0)
(-0.0783993 0.481232 0)
(-0.0813001 0.44189 0)
(-0.0822407 0.409643 0)
(-0.0841509 0.379999 0)
(-0.0862359 0.35345 0)
(-0.0865001 0.33196 0)
(-0.0899433 0.30894 0)
(-0.490246 3.2777 0)
(-0.360271 2.51673 0)
(-0.284686 2.00994 0)
(-0.2368 1.65348 0)
(-0.205348 1.39113 0)
(-0.183199 1.19201 0)
(-0.16745 1.03609 0)
(-0.155459 0.911859 0)
(-0.146592 0.810255 0)
(-0.139218 0.726892 0)
(-0.134028 0.65599 0)
(-0.128877 0.597347 0)
(-0.126028 0.545084 0)
(-0.122092 0.50239 0)
(-0.120609 0.462567 0)
(-0.117944 0.429902 0)
(-0.116599 0.399871 0)
(-0.115845 0.372735 0)
(-0.113726 0.351056 0)
(-0.114828 0.327289 0)
(-0.882318 3.21047 0)
(-0.652958 2.48006 0)
(-0.512262 1.99162 0)
(-0.419379 1.64672 0)
(-0.355294 1.39197 0)
(-0.30875 1.19797 0)
(-0.274167 1.04558 0)
(-0.247365 0.923814 0)
(-0.226555 0.823925 0)
(-0.209484 0.741791 0)
(-0.196181 0.671693 0)
(-0.18435 0.613666 0)
(-0.175684 0.561699 0)
(-0.166972 0.519309 0)
(-0.161168 0.479481 0)
(-0.154924 0.446945 0)
(-0.150377 0.416746 0)
(-0.146737 0.389608 0)
(-0.142328 0.367712 0)
(-0.140981 0.343775 0)
(-1.25447 3.09254 0)
(-0.932397 2.4065 0)
(-0.730834 1.9452 0)
(-0.595668 1.61794 0)
(-0.500876 1.3751 0)
(-0.431278 1.18944 0)
(-0.378857 1.04302 0)
(-0.337982 0.925642 0)
(-0.305794 0.82899 0)
(-0.279462 0.749315 0)
(-0.258387 0.68104 0)
(-0.240154 0.624452 0)
(-0.225884 0.573513 0)
(-0.212587 0.531965 0)
(-0.2026 0.492729 0)
(-0.192931 0.460607 0)
(-0.185258 0.430821 0)
(-0.178887 0.403746 0)
(-0.172204 0.382179 0)
(-0.168586 0.358175 0)
(-1.59991 2.92814 0)
(-1.19371 2.29876 0)
(-0.93667 1.8727 0)
(-0.762847 1.56855 0)
(-0.639827 1.34162 0)
(-0.548982 1.16723 0)
(-0.480046 1.02904 0)
(-0.426104 0.91779 0)
(-0.383308 0.82578 0)
(-0.34832 0.749697 0)
(-0.319944 0.684176 0)
(-0.295686 0.629812 0)
(-0.276108 0.580533 0)
(-0.258462 0.540438 0)
(-0.244483 0.502178 0)
(-0.231512 0.47104 0)
(-0.220859 0.441817 0)
(-0.211767 0.415347 0)
(-0.202939 0.394204 0)
(-0.196928 0.370334 0)
(-1.91229 2.72214 0)
(-1.43244 2.16037 0)
(-1.12645 1.77658 0)
(-0.918311 1.50047 0)
(-0.77011 1.29291 0)
(-0.660199 1.13242 0)
(-0.576375 1.00445 0)
(-0.510598 0.900911 0)
(-0.458149 0.814801 0)
(-0.415255 0.743325 0)
(-0.380177 0.681413 0)
(-0.350384 0.629944 0)
(-0.325892 0.582961 0)
(-0.304241 0.544726 0)
(-0.286529 0.507988 0)
(-0.270529 0.478019 0)
(-0.257048 0.449846 0)
(-0.245494 0.42411 0)
(-0.234603 0.403618 0)
(-0.226513 0.380361 0)
(-2.18658 2.48052 0)
(-1.64477 1.99542 0)
(-1.2973 1.65985 0)
(-1.05983 1.41583 0)
(-0.889934 1.23065 0)
(-0.763482 1.08626 0)
(-0.666649 0.970234 0)
(-0.590469 0.875745 0)
(-0.529475 0.79662 0)
(-0.479551 0.730639 0)
(-0.438466 0.673065 0)
(-0.403698 0.625132 0)
(-0.374749 0.580937 0)
(-0.349454 0.54509 0)
(-0.328334 0.510173 0)
(-0.309518 0.481853 0)
(-0.29348 0.454931 0)
(-0.279544 0.430233 0)
(-0.266817 0.410758 0)
(-0.256586 0.387959 0)
(-2.41834 2.2098 0)
(-1.82762 1.80844 0)
(-1.44684 1.52578 0)
(-1.18554 1.31715 0)
(-0.997796 1.1567 0)
(-0.857597 1.03023 0)
(-0.749841 0.927531 0)
(-0.664848 0.843199 0)
(-0.59655 0.771955 0)
(-0.540578 0.712192 0)
(-0.49427 0.65958 0)
(-0.45517 0.615658 0)
(-0.422275 0.574736 0)
(-0.393787 0.541558 0)
(-0.369581 0.508881 0)
(-0.348301 0.482376 0)
(-0.329881 0.456996 0)
(-0.313866 0.433598 0)
(-0.299413 0.415092 0)
(-0.287285 0.39329 0)
(-2.60436 1.91705 0)
(-1.97859 1.60444 0)
(-1.57326 1.37799 0)
(-1.29398 1.20709 0)
(-1.09252 1.07313 0)
(-0.94156 0.965882 0)
(-0.82512 0.877569 0)
(-0.733027 0.804228 0)
(-0.658759 0.741551 0)
(-0.597793 0.688579 0)
(-0.547113 0.641406 0)
(-0.504364 0.601925 0)
(-0.468099 0.564607 0)
(-0.436867 0.534464 0)
(-0.410003 0.504255 0)
(-0.38655 0.479872 0)
(-0.366093 0.456265 0)
(-0.348237 0.434327 0)
(-0.33229 0.417197 0)
(-0.318674 0.396396 0)
(-2.7431 1.60964 0)
(-2.09618 1.38859 0)
(-1.67534 1.22024 0)
(-1.38416 1.0885 0)
(-1.17325 0.982099 0)
(-1.01465 0.894941 0)
(-0.891862 0.821689 0)
(-0.794457 0.7599 0)
(-0.715617 0.70626 0)
(-0.650769 0.660465 0)
(-0.596603 0.619082 0)
(-0.550934 0.584304 0)
(-0.511874 0.550884 0)
(-0.478395 0.523937 0)
(-0.449236 0.496469 0)
(-0.423943 0.474315 0)
(-0.401675 0.452726 0)
(-0.382099 0.432372 0)
(-0.36486 0.416846 0)
(-0.349462 0.397149 0)
(-2.8334 1.29506 0)
(-2.17964 1.16604 0)
(-1.75245 1.05641 0)
(-1.4555 0.964272 0)
(-1.23949 0.885852 0)
(-1.07641 0.819124 0)
(-0.949654 0.761252 0)
(-0.848758 0.711286 0)
(-0.766773 0.66693 0)
(-0.699173 0.62853 0)
(-0.642438 0.593129 0)
(-0.594585 0.563237 0)
(-0.553356 0.533855 0)
(-0.518116 0.510273 0)
(-0.487116 0.485608 0)
(-0.460289 0.465855 0)
(-0.43655 0.446227 0)
(-0.415438 0.427649 0)
(-0.397134 0.413456 0)
(-0.380061 0.395129 0)
(-2.87524 0.980853 0)
(-2.22904 0.94221 0)
(-1.80451 0.890383 0)
(-1.50791 0.837359 0)
(-1.2911 0.786643 0)
(-1.12668 0.740213 0)
(-0.998301 0.697661 0)
(-0.895729 0.65951 0)
(-0.81202 0.624462 0)
(-0.742801 0.593492 0)
(-0.684411 0.564133 0)
(-0.635126 0.53917 0)
(-0.592336 0.513905 0)
(-0.555868 0.493716 0)
(-0.523436 0.471953 0)
(-0.4955 0.454603 0)
(-0.470555 0.43704 0)
(-0.448323 0.420214 0)
(-0.429119 0.407448 0)
(-0.410933 0.390418 0)
(-2.87035 0.674447 0)
(-2.24531 0.722295 0)
(-1.83214 0.725966 0)
(-1.54174 0.710614 0)
(-1.32827 0.686679 0)
(-1.16553 0.659925 0)
(-1.03782 0.632279 0)
(-0.935327 0.605657 0)
(-0.851273 0.579726 0)
(-0.781535 0.556055 0)
(-0.722383 0.532656 0)
(-0.672391 0.512567 0)
(-0.628654 0.491393 0)
(-0.591453 0.474587 0)
(-0.558033 0.455722 0)
(-0.529328 0.440805 0)
(-0.503522 0.425311 0)
(-0.48039 0.410309 0)
(-0.460567 0.399008 0)
(-0.441346 0.383392 0)
(-2.8213 0.382809 0)
(-2.23017 0.511205 0)
(-1.83646 0.566776 0)
(-1.55778 0.586783 0)
(-1.35153 0.58808 0)
(-1.19333 0.579934 0)
(-1.06844 0.566439 0)
(-0.967686 0.550799 0)
(-0.884597 0.533589 0)
(-0.815385 0.516919 0)
(-0.75632 0.499268 0)
(-0.706319 0.483884 0)
(-0.662212 0.466695 0)
(-0.624765 0.453171 0)
(-0.590759 0.437162 0)
(-0.561647 0.424623 0)
(-0.535254 0.411193 0)
(-0.511512 0.398001 0)
(-0.491242 0.388169 0)
(-0.471243 0.373989 0)
(-2.73179 0.112327 0)
(-2.18606 0.313486 0)
(-1.81918 0.416147 0)
(-1.55721 0.468398 0)
(-1.36174 0.492811 0)
(-1.21068 0.501788 0)
(-1.09058 0.501375 0)
(-0.993083 0.495933 0)
(-0.912161 0.486859 0)
(-0.844436 0.476746 0)
(-0.786244 0.464512 0)
(-0.736876 0.45357 0)
(-0.69294 0.440177 0)
(-0.655691 0.429778 0)
(-0.621487 0.416525 0)
(-0.592281 0.406272 0)
(-0.565589 0.394857 0)
(-0.541458 0.383431 0)
(-0.520963 0.375056 0)
(-0.500325 0.362294 0)
(-2.60638 -0.13131 0)
(-2.11607 0.133163 0)
(-1.78246 0.277077 0)
(-1.54158 0.357743 0)
(-1.36001 0.402653 0)
(-1.2184 0.426901 0)
(-1.10483 0.438224 0)
(-1.01195 0.441978 0)
(-0.934264 0.440288 0)
(-0.868888 0.436151 0)
(-0.812274 0.42889 0)
(-0.764117 0.422035 0)
(-0.720839 0.412176 0)
(-0.684192 0.404678 0)
(-0.650138 0.394024 0)
(-0.621132 0.385922 0)
(-0.594388 0.376423 0)
(-0.570095 0.366701 0)
(-0.549542 0.359702 0)
(-0.528461 0.348359 0)
(-2.45047 -0.343291 0)
(-2.02388 -0.0263001 0)
(-1.7289 0.152125 0)
(-1.51277 0.256785 0)
(-1.34772 0.319145 0)
(-1.21749 0.356501 0)
(-1.11194 0.37798 0)
(-1.02482 0.38975 0)
(-0.95129 0.394549 0)
(-0.888999 0.395697 0)
(-0.83457 0.392878 0)
(-0.788121 0.389683 0)
(-0.745925 0.383034 0)
(-0.710229 0.378164 0)
(-0.676632 0.369912 0)
(-0.648075 0.363784 0)
(-0.621509 0.356081 0)
(-0.597233 0.347948 0)
(-0.576805 0.342259 0)
(-0.555382 0.332253 0)
(-2.27005 -0.5197 0)
(-1.91358 -0.162129 0)
(-1.6614 0.0433967 0)
(-1.4729 0.167139 0)
(-1.32644 0.24357 0)
(-1.20913 0.291619 0)
(-1.11278 0.321482 0)
(-1.03235 0.339938 0)
(-0.963719 0.350213 0)
(-0.905116 0.355856 0)
(-0.853375 0.356865 0)
(-0.809045 0.356837 0)
(-0.768287 0.353015 0)
(-0.733835 0.350454 0)
(-0.700955 0.344361 0)
(-0.673069 0.340003 0)
(-0.646865 0.333931 0)
(-0.622798 0.327277 0)
(-0.602601 0.32276 0)
(-0.581063 0.314065 0)
(-2.07168 -0.657775 0)
(-1.78968 -0.272235 0)
(-1.58318 -0.0475647 0)
(-1.42432 0.0900379 0)
(-1.29791 0.176907 0)
(-1.19463 0.233061 0)
(-1.10833 0.269402 0)
(-1.03527 0.293114 0)
(-0.972091 0.307772 0)
(-0.917625 0.317059 0)
(-0.868949 0.321234 0)
(-0.827052 0.323839 0)
(-0.788007 0.32243 0)
(-0.75502 0.321828 0)
(-0.723069 0.317631 0)
(-0.696009 0.314812 0)
(-0.670344 0.310201 0)
(-0.64657 0.304868 0)
(-0.626784 0.301429 0)
(-0.605083 0.293929 0)
(-1.86211 -0.75565 0)
(-1.65684 -0.355358 0)
(-1.49756 -0.1197 0)
(-1.36946 0.0262874 0)
(-1.26395 0.119837 0)
(-1.17535 0.181385 0)
(-1.09963 0.222213 0)
(-1.03437 0.249675 0)
(-0.976999 0.267561 0)
(-0.926967 0.279588 0)
(-0.881616 0.28622 0)
(-0.842367 0.290885 0)
(-0.805232 0.29144 0)
(-0.773877 0.292424 0)
(-0.742999 0.28983 0)
(-0.71692 0.288305 0)
(-0.691866 0.284952 0)
(-0.668592 0.2808 0)
(-0.649178 0.278257 0)
(-0.62768 0.271885 0)
(-1.64838 -0.812927 0)
(-1.51992 -0.410924 0)
(-1.40803 -0.172639 0)
(-1.31088 -0.0236996 0)
(-1.22648 0.0726979 0)
(-1.15275 0.136924 0)
(-1.08779 0.18022 0)
(-1.03047 0.209917 0)
(-0.979067 0.229868 0)
(-0.933603 0.243726 0)
(-0.891705 0.252104 0)
(-0.85521 0.258253 0)
(-0.820101 0.260319 0)
(-0.790453 0.262505 0)
(-0.760772 0.261219 0)
(-0.735692 0.260728 0)
(-0.711424 0.258439 0)
(-0.688553 0.255289 0)
(-0.669789 0.253546 0)
(-0.648183 0.248209 0)
(-1.43736 -0.82988 0)
(-1.38362 -0.43931 0)
(-1.31796 -0.206407 0)
(-1.25106 -0.0599937 0)
(-1.18734 0.0355384 0)
(-1.12821 0.0997245 0)
(-1.07386 0.143501 0)
(-1.02441 0.17392 0)
(-0.978912 0.194773 0)
(-0.937993 0.20955 0)
(-0.899549 0.218956 0)
(-0.865823 0.226012 0)
(-0.832758 0.229133 0)
(-0.804867 0.232146 0)
(-0.776367 0.231875 0)
(-0.752423 0.232174 0)
(-0.728806 0.230746 0)
(-0.706651 0.228446 0)
(-0.688229 0.227319 0)
(-0.66704 0.222875 0)
(-1.23575 -0.808435 0)
(-1.25267 -0.441461 0)
(-1.23072 -0.221829 0)
(-1.19252 -0.0829996 0)
(-1.14841 0.00803565 0)
(-1.1032 0.0696396 0)
(-1.05894 0.111984 0)
(-1.01701 0.141695 0)
(-0.977181 0.162346 0)
(-0.940628 0.177177 0)
(-0.905524 0.186925 0)
(-0.87446 0.194328 0)
(-0.843415 0.198055 0)
(-0.817175 0.201515 0)
(-0.789952 0.201946 0)
(-0.766946 0.202775 0)
(-0.744267 0.201985 0)
(-0.722461 0.200373 0)
(-0.704827 0.199717 0)
(-0.683644 0.196143 0)
(-1.04995 -0.751112 0)
(-1.13132 -0.41928 0)
(-1.14943 -0.219996 0)
(-1.13747 -0.0936297 0)
(-1.11141 -0.0103639 0)
(-1.07895 0.0462233 0)
(-1.04401 0.0853762 0)
(-1.00901 0.113024 0)
(-0.974421 0.132439 0)
(-0.941914 0.146512 0)
(-0.909907 0.155972 0)
(-0.881349 0.163216 0)
(-0.852147 0.167165 0)
(-0.827558 0.170746 0)
(-0.801368 0.171659 0)
(-0.779526 0.172794 0)
(-0.757349 0.172523 0)
(-0.736333 0.171434 0)
(-0.718996 0.171177 0)
(-0.698065 0.168319 0)
(-0.885463 -0.661577 0)
(-1.02364 -0.375198 0)
(-1.07691 -0.202733 0)
(-1.08814 -0.0930492 0)
(-1.07793 -0.020575 0)
(-1.05677 0.0288899 0)
(-1.03005 0.0632494 0)
(-1.00118 0.0876456 0)
(-0.971232 0.104892 0)
(-0.942306 0.117475 0)
(-0.913069 0.126054 0)
(-0.886685 0.132654 0)
(-0.859215 0.136411 0)
(-0.835926 0.139783 0)
(-0.810925 0.140853 0)
(-0.789752 0.142087 0)
(-0.768491 0.142062 0)
(-0.747777 0.141371 0)
(-0.731008 0.141289 0)
(-0.710532 0.139003 0)
(-0.747618 -0.54475 0)
(-0.933054 -0.312252 0)
(-1.01572 -0.172183 0)
(-1.04625 -0.0828463 0)
(-1.04935 -0.0236941 0)
(-1.03761 0.016783 0)
(-1.0178 0.0450014 0)
(-0.994069 0.0651036 0)
(-0.968029 0.0793976 0)
(-0.942136 0.0898728 0)
(-0.915215 0.0971054 0)
(-0.890759 0.102683 0)
(-0.864642 0.105988 0)
(-0.842708 0.108901 0)
(-0.818401 0.11001 0)
(-0.798235 0.111158 0)
(-0.77734 0.111329 0)
(-0.757126 0.110956 0)
(-0.740911 0.111001 0)
(-0.720056 0.109517 0)
(-0.640327 -0.40524 0)
(-0.862405 -0.234235 0)
(-0.967906 -0.130809 0)
(-1.01346 -0.0648545 0)
(-1.02686 -0.0210662 0)
(-1.02247 0.00894471 0)
(-1.008 0.029916 0)
(-0.988282 0.0448949 0)
(-0.965276 0.0555805 0)
(-0.941709 0.0634343 0)
(-0.916624 0.0688905 0)
(-0.893539 0.0731053 0)
(-0.868631 0.0756447 0)
(-0.847446 0.0778718 0)
(-0.824025 0.0787823 0)
(-0.804262 0.0796778 0)
(-0.783894 0.0799224 0)
(-0.764197 0.0796074 0)
(-0.74786 0.079805 0)
(-0.728005 0.0784333 0)
(-0.566951 -0.249904 0)
(-0.814175 -0.144907 0)
(-0.935087 -0.0816287 0)
(-0.990893 -0.0410978 0)
(-1.01132 -0.0142254 0)
(-1.01193 0.00424471 0)
(-1.00114 0.0171624 0)
(-0.984151 0.0264088 0)
(-0.96323 0.0330246 0)
(-0.941301 0.0378979 0)
(-0.917445 0.0413062 0)
(-0.895452 0.0439426 0)
(-0.871223 0.0455514 0)
(-0.85086 0.0469722 0)
(-0.827781 0.0475345 0)
(-0.808528 0.0481842 0)
(-0.788581 0.048229 0)
(-0.768719 0.0482518 0)
(-0.753289 0.0481774 0)
(-0.732586 0.0477538 0)
(-0.529781 -0.0841863 0)
(-0.789419 -0.0488803 0)
(-0.918413 -0.0275243 0)
(-0.979369 -0.013857 0)
(-1.0034 -0.00477233 0)
(-1.00656 0.00146717 0)
(-0.997617 0.00584407 0)
(-0.982015 0.00897728 0)
(-0.962147 0.0112292 0)
(-0.940999 0.0128875 0)
(-0.917798 0.0140637 0)
(-0.896218 0.0149584 0)
(-0.872462 0.0155478 0)
(-0.852298 0.0160021 0)
(-0.829536 0.0162757 0)
(-0.810567 0.0164163 0)
(-0.790529 0.0165374 0)
(-0.771417 0.0164243 0)
(-0.75535 0.016449 0)
(-0.735603 0.0161714 0)
(-0.529689 0.0848389 0)
(-0.789566 0.049472 0)
(-0.918334 0.0281809 0)
(-0.979342 0.0145828 0)
(-1.00335 0.00553978 0)
(-1.00651 -0.00065697 0)
(-0.997567 -0.00499438 0)
(-0.981967 -0.00809239 0)
(-0.9621 -0.0103055 0)
(-0.940977 -0.0119273 0)
(-0.91776 -0.0130645 0)
(-0.896245 -0.0139223 0)
(-0.872437 -0.0144697 0)
(-0.852355 -0.0149022 0)
(-0.829581 -0.0151219 0)
(-0.810537 -0.0153005 0)
(-0.790798 -0.0153428 0)
(-0.771224 -0.0154174 0)
(-0.755965 -0.0153609 0)
(-0.735591 -0.0155907 0)
(-0.566709 0.249741 0)
(-0.813926 0.145579 0)
(-0.934967 0.0822172 0)
(-0.990762 0.0418528 0)
(-1.01123 0.0149895 0)
(-1.01185 -0.00342782 0)
(-1.00105 -0.0163132 0)
(-0.984054 -0.0255247 0)
(-0.963121 -0.0321006 0)
(-0.941156 -0.036935 0)
(-0.917301 -0.0402945 0)
(-0.895223 -0.0428839 0)
(-0.871047 -0.0444364 0)
(-0.850556 -0.0457931 0)
(-0.827564 -0.0463167 0)
(-0.808294 -0.0468327 0)
(-0.78828 -0.0469246 0)
(-0.768799 -0.0466059 0)
(-0.753045 -0.0467162 0)
(-0.733066 -0.0454736 0)
(-0.639827 0.405575 0)
(-0.86204 0.234867 0)
(-0.967661 0.131507 0)
(-1.01323 0.0656128 0)
(-1.02668 0.0218541 0)
(-1.02228 -0.00811833 0)
(-1.00783 -0.0290636 0)
(-0.988093 -0.0440122 0)
(-0.965078 -0.0546717 0)
(-0.941512 -0.0624966 0)
(-0.916392 -0.0679301 0)
(-0.893337 -0.0721079 0)
(-0.868333 -0.0746298 0)
(-0.847233 -0.0767962 0)
(-0.823634 -0.0776824 0)
(-0.803955 -0.0784895 0)
(-0.783437 -0.078656 0)
(-0.763632 -0.0782584 0)
(-0.747304 -0.0782864 0)
(-0.727089 -0.0769104 0)
(-0.746934 0.545255 0)
(-0.93253 0.313089 0)
(-1.01542 0.172909 0)
(-1.04599 0.083662 0)
(-1.04914 0.0245028 0)
(-1.03741 -0.0159469 0)
(-1.01759 -0.0441486 0)
(-0.993855 -0.0642306 0)
(-0.967793 -0.0784989 0)
(-0.941863 -0.0889476 0)
(-0.914915 -0.0961429 0)
(-0.89038 -0.101687 0)
(-0.864256 -0.104939 0)
(-0.842179 -0.107819 0)
(-0.817895 -0.108858 0)
(-0.797559 -0.109978 0)
(-0.776595 -0.110079 0)
(-0.756373 -0.109655 0)
(-0.739723 -0.109648 0)
(-0.719241 -0.108033 0)
(-0.8849 0.66253 0)
(-1.02309 0.376062 0)
(-1.07658 0.203547 0)
(-1.0878 0.093897 0)
(-1.07767 0.0214015 0)
(-1.05649 -0.0280339 0)
(-1.02978 -0.0623935 0)
(-1.0009 -0.0867718 0)
(-0.970929 -0.104011 0)
(-0.941981 -0.116582 0)
(-0.912699 -0.125157 0)
(-0.886303 -0.13175 0)
(-0.858736 -0.135511 0)
(-0.835475 -0.138875 0)
(-0.810274 -0.139957 0)
(-0.789199 -0.141183 0)
(-0.767627 -0.141164 0)
(-0.747007 -0.140503 0)
(-0.729959 -0.140396 0)
(-0.709343 -0.138267 0)
(-1.04938 0.752169 0)
(-1.13083 0.420242 0)
(-1.1491 0.220888 0)
(-1.13716 0.0945068 0)
(-1.11114 0.0112231 0)
(-1.07869 -0.0453676 0)
(-1.04375 -0.0845256 0)
(-1.00873 -0.112174 0)
(-0.974113 -0.131587 0)
(-0.941573 -0.145657 0)
(-0.909528 -0.155109 0)
(-0.880914 -0.162349 0)
(-0.851673 -0.166282 0)
(-0.826992 -0.169868 0)
(-0.800784 -0.17075 0)
(-0.7788 -0.17192 0)
(-0.756626 -0.171597 0)
(-0.73547 -0.170592 0)
(-0.718067 -0.170257 0)
(-0.697175 -0.167522 0)
(-1.23537 0.809556 0)
(-1.25221 0.442469 0)
(-1.23041 0.222726 0)
(-1.19218 0.0839121 0)
(-1.14813 -0.00717573 0)
(-1.1029 -0.0687672 0)
(-1.05865 -0.111132 0)
(-1.01669 -0.140842 0)
(-0.976843 -0.161502 0)
(-0.94026 -0.17634 0)
(-0.905117 -0.1861 0)
(-0.874022 -0.193519 0)
(-0.84291 -0.197264 0)
(-0.816657 -0.200755 0)
(-0.789313 -0.201206 0)
(-0.766353 -0.202086 0)
(-0.743462 -0.201305 0)
(-0.721786 -0.199777 0)
(-0.703881 -0.199098 0)
(-0.682827 -0.195643 0)
(-1.43704 0.831073 0)
(-1.38327 0.440305 0)
(-1.31769 0.207365 0)
(-1.25078 0.0609043 0)
(-1.18708 -0.0346601 0)
(-1.12794 -0.098862 0)
(-1.07358 -0.142664 0)
(-1.02411 -0.173096 0)
(-0.978591 -0.19397 0)
(-0.937645 -0.208765 0)
(-0.89917 -0.218189 0)
(-0.865408 -0.225266 0)
(-0.832307 -0.228404 0)
(-0.80437 -0.231449 0)
(-0.775842 -0.231188 0)
(-0.751833 -0.231538 0)
(-0.728221 -0.230109 0)
(-0.705965 -0.227888 0)
(-0.687595 -0.22675 0)
(-0.666278 -0.222414 0)
(-1.64817 0.814026 0)
(-1.5196 0.411941 0)
(-1.40778 0.173566 0)
(-1.3106 0.0246248 0)
(-1.22622 -0.0718283 0)
(-1.15247 -0.136057 0)
(-1.08751 -0.179385 0)
(-1.03018 -0.209095 0)
(-0.978751 -0.229069 0)
(-0.933263 -0.242947 0)
(-0.891337 -0.251349 0)
(-0.854816 -0.257528 0)
(-0.81967 -0.25962 0)
(-0.790003 -0.261849 0)
(-0.760267 -0.260587 0)
(-0.735198 -0.260161 0)
(-0.710836 -0.257876 0)
(-0.688041 -0.254829 0)
(-0.669124 -0.253041 0)
(-0.647682 -0.247854 0)
(-1.86194 0.756753 0)
(-1.65662 0.35632 0)
(-1.49735 0.120641 0)
(-1.36923 -0.0253805 0)
(-1.26373 -0.11897 0)
(-1.17511 -0.180533 0)
(-1.09938 -0.221397 0)
(-1.0341 -0.248879 0)
(-0.976714 -0.266797 0)
(-0.926663 -0.278851 0)
(-0.881292 -0.285516 0)
(-0.842023 -0.290216 0)
(-0.804867 -0.290805 0)
(-0.773494 -0.291831 0)
(-0.742599 -0.289271 0)
(-0.716498 -0.287796 0)
(-0.691446 -0.284477 0)
(-0.668127 -0.28037 0)
(-0.648765 -0.277881 0)
(-0.627157 -0.27152 0)
(-2.07158 0.658779 0)
(-1.78947 0.273194 0)
(-1.583 0.0484753 0)
(-1.4241 -0.0891324 0)
(-1.29771 -0.176051 0)
(-1.1944 -0.232212 0)
(-1.1081 -0.268593 0)
(-1.03502 -0.292322 0)
(-0.971829 -0.307012 0)
(-0.917347 -0.316325 0)
(-0.868656 -0.320532 0)
(-0.826745 -0.323171 0)
(-0.787685 -0.321795 0)
(-0.75469 -0.321239 0)
(-0.722721 -0.317069 0)
(-0.695668 -0.314317 0)
(-0.669972 -0.309707 0)
(-0.646237 -0.304489 0)
(-0.626388 -0.30099 0)
(-0.604782 -0.293682 0)
(-2.26994 0.520671 0)
(-1.91345 0.163024 0)
(-1.66123 -0.0425002 0)
(-1.47273 -0.166259 0)
(-1.32626 -0.242728 0)
(-1.20894 -0.290786 0)
(-1.11257 -0.320689 0)
(-1.03213 -0.339164 0)
(-0.963494 -0.349476 0)
(-0.904882 -0.355148 0)
(-0.853133 -0.356195 0)
(-0.808797 -0.356204 0)
(-0.768034 -0.352422 0)
(-0.733578 -0.349901 0)
(-0.700697 -0.343857 0)
(-0.672807 -0.339532 0)
(-0.646613 -0.333531 0)
(-0.622528 -0.326877 0)
(-0.602374 -0.322476 0)
(-0.580786 -0.313724 0)
(-2.45038 0.344176 0)
(-2.02372 0.0272002 0)
(-1.72875 -0.151252 0)
(-1.5126 -0.255904 0)
(-1.34755 -0.318312 0)
(-1.21731 -0.355671 0)
(-1.11175 -0.377192 0)
(-1.02462 -0.388976 0)
(-0.951091 -0.393812 0)
(-0.888795 -0.394984 0)
(-0.834364 -0.392198 0)
(-0.787914 -0.389038 0)
(-0.74572 -0.382419 0)
(-0.710031 -0.377598 0)
(-0.676439 -0.369362 0)
(-0.647901 -0.363317 0)
(-0.621336 -0.355591 0)
(-0.597098 -0.347596 0)
(-0.576655 -0.341832 0)
(-0.555289 -0.331997 0)
(-2.60625 0.132203 0)
(-2.11597 -0.132318 0)
(-1.7823 -0.276208 0)
(-1.54144 -0.356888 0)
(-1.35985 -0.401829 0)
(-1.21824 -0.426084 0)
(-1.10467 -0.437448 0)
(-1.01178 -0.441216 0)
(-0.934101 -0.439564 0)
(-0.868724 -0.435451 0)
(-0.812113 -0.428227 0)
(-0.763958 -0.421401 0)
(-0.720685 -0.411584 0)
(-0.684044 -0.404109 0)
(-0.649998 -0.393518 0)
(-0.620997 -0.385415 0)
(-0.594267 -0.37602 0)
(-0.569971 -0.366261 0)
(-0.549445 -0.359396 0)
(-0.528342 -0.348046 0)
(-2.73157 -0.111508 0)
(-2.18593 -0.312612 0)
(-1.81903 -0.415298 0)
(-1.55707 -0.467529 0)
(-1.3616 -0.491994 0)
(-1.21054 -0.500966 0)
(-1.09044 -0.500599 0)
(-0.992944 -0.495164 0)
(-0.912025 -0.486127 0)
(-0.844303 -0.476033 0)
(-0.78612 -0.463827 0)
(-0.736762 -0.452916 0)
(-0.692842 -0.439543 0)
(-0.655615 -0.429199 0)
(-0.621432 -0.415939 0)
(-0.592263 -0.405786 0)
(-0.565589 -0.394327 0)
(-0.541519 -0.383031 0)
(-0.521033 -0.37463 0)
(-0.500489 -0.361901 0)
(-2.8211 -0.381915 0)
(-2.23004 -0.510335 0)
(-1.83632 -0.5659 0)
(-1.55767 -0.585928 0)
(-1.35141 -0.58726 0)
(-1.19322 -0.57912 0)
(-1.06833 -0.565668 0)
(-0.967573 -0.550036 0)
(-0.884487 -0.532863 0)
(-0.815277 -0.516206 0)
(-0.756221 -0.498587 0)
(-0.706226 -0.483213 0)
(-0.662132 -0.466061 0)
(-0.624696 -0.452531 0)
(-0.590709 -0.436581 0)
(-0.561612 -0.424013 0)
(-0.535244 -0.410659 0)
(-0.511514 -0.397463 0)
(-0.49127 -0.387651 0)
(-0.471248 -0.373621 0)
(-2.86998 -0.67354 0)
(-2.24519 -0.721386 0)
(-1.83199 -0.725097 0)
(-1.54164 -0.709737 0)
(-1.32816 -0.685862 0)
(-1.16543 -0.6591 0)
(-1.03773 -0.631506 0)
(-0.935235 -0.604884 0)
(-0.851188 -0.57899 0)
(-0.781455 -0.555329 0)
(-0.722316 -0.531953 0)
(-0.672337 -0.511888 0)
(-0.62862 -0.490716 0)
(-0.591445 -0.473961 0)
(-0.558042 -0.455064 0)
(-0.529395 -0.440229 0)
(-0.503586 -0.424699 0)
(-0.480564 -0.409741 0)
(-0.460713 -0.398508 0)
(-0.44168 -0.38278 0)
(-2.87496 -0.97985 0)
(-2.22891 -0.941222 0)
(-1.8044 -0.889477 0)
(-1.50783 -0.836478 0)
(-1.29101 -0.785817 0)
(-1.1266 -0.739391 0)
(-0.998226 -0.696888 0)
(-0.895656 -0.658738 0)
(-0.811951 -0.623727 0)
(-0.742733 -0.592758 0)
(-0.684353 -0.563424 0)
(-0.63507 -0.538453 0)
(-0.592302 -0.513209 0)
(-0.555837 -0.492998 0)
(-0.523443 -0.471244 0)
(-0.495515 -0.453887 0)
(-0.470629 -0.436273 0)
(-0.448415 -0.41954 0)
(-0.429272 -0.4066 0)
(-0.411105 -0.38981 0)
(-2.83308 -1.29393 0)
(-2.17956 -1.16503 0)
(-1.75235 -1.05549 0)
(-1.45545 -0.963381 0)
(-1.23943 -0.885027 0)
(-1.07636 -0.818297 0)
(-0.949599 -0.760479 0)
(-0.848707 -0.710509 0)
(-0.766724 -0.666191 0)
(-0.699126 -0.627793 0)
(-0.642396 -0.592412 0)
(-0.594548 -0.562529 0)
(-0.553318 -0.533142 0)
(-0.518102 -0.509578 0)
(-0.487081 -0.484875 0)
(-0.460324 -0.465135 0)
(-0.436529 -0.445457 0)
(-0.41556 -0.426828 0)
(-0.397189 -0.412621 0)
(-0.380352 -0.394168 0)
(-2.74301 -1.60848 0)
(-2.09615 -1.38748 0)
(-1.67531 -1.21931 0)
(-1.38413 -1.0876 0)
(-1.17322 -0.981271 0)
(-1.01462 -0.894115 0)
(-0.891829 -0.820917 0)
(-0.794422 -0.759125 0)
(-0.715583 -0.705524 0)
(-0.65073 -0.659725 0)
(-0.596569 -0.618365 0)
(-0.550889 -0.583581 0)
(-0.511844 -0.550161 0)
(-0.47834 -0.523215 0)
(-0.44921 -0.495688 0)
(-0.423883 -0.473578 0)
(-0.401634 -0.451802 0)
(-0.382063 -0.431568 0)
(-0.364789 -0.415671 0)
(-0.349522 -0.39612 0)
(2.99558 -0.222741 0)
(2.93675 -0.663885 0)
(2.82026 -1.0933 0)
(2.64841 -1.50225 0)
(2.42484 -1.88292 0)
(2.15434 -2.22842 0)
(1.84261 -2.53258 0)
(1.49621 -2.79026 0)
(1.1223 -2.99731 0)
(0.72863 -3.15068 0)
(0.323162 -3.24859 0)
(-0.085846 -3.29041 0)
(-0.490346 -3.27676 0)
(-0.882418 -3.20954 0)
(-1.25456 -3.09164 0)
(-1.59997 -2.92723 0)
(-1.91243 -2.72126 0)
(-2.18669 -2.47961 0)
(-2.41861 -2.20881 0)
(-2.60475 -1.91596 0)
(2.20225 -0.166424 0)
(2.15936 -0.496849 0)
(2.07441 -0.818333 0)
(1.94897 -1.12508 0)
(1.78573 -1.41163 0)
(1.58801 -1.67295 0)
(1.3599 -1.90463 0)
(1.10601 -2.10288 0)
(0.831508 -2.2647 0)
(0.541836 -2.38784 0)
(0.242764 -2.47094 0)
(-0.0599366 -2.51347 0)
(-0.360401 -2.51583 0)
(-0.65305 -2.47918 0)
(-0.93248 -2.40562 0)
(-1.19378 -2.2979 0)
(-1.4325 -2.15951 0)
(-1.64483 -1.99453 0)
(-1.82766 -1.80754 0)
(-1.97862 -1.60342 0)
(1.67892 -0.129595 0)
(1.64623 -0.387066 0)
(1.58153 -0.6379 0)
(1.48609 -0.87771 0)
(1.36182 -1.10242 0)
(1.2112 -1.30828 0)
(1.03722 -1.49194 0)
(0.84331 -1.65057 0)
(0.633265 -1.78188 0)
(0.411158 -1.88414 0)
(0.181223 -1.95628 0)
(-0.0521954 -1.99786 0)
(-0.284798 -2.00908 0)
(-0.512371 -1.99076 0)
(-0.730922 -1.94435 0)
(-0.936752 -1.87184 0)
(-1.12653 -1.77573 0)
(-1.29736 -1.65898 0)
(-1.4469 -1.52489 0)
(-1.5733 -1.37708 0)
(1.31533 -0.104033 0)
(1.2897 -0.311048 0)
(1.23895 -0.512894 0)
(1.16406 -0.706244 0)
(1.06649 -0.887952 0)
(0.948107 -1.05512 0)
(0.811209 -1.20517 0)
(0.658406 -1.33588 0)
(0.492598 -1.44546 0)
(0.316886 -1.53256 0)
(0.134524 -1.5963 0)
(-0.0511862 -1.63629 0)
(-0.236923 -1.65262 0)
(-0.419474 -1.64587 0)
(-0.595752 -1.61709 0)
(-0.762909 -1.56771 0)
(-0.918361 -1.49962 0)
(-1.05987 -1.41498 0)