/*--------------------------------*- C++ -*----------------------------------*\
| =========                 |                                                 |
| \\      /  F ield         | OpenFOAM: The Open Source CFD Toolbox           |
|  \\    /   O peration     | Version:  2.2.0                                 |
|   \\  /    A nd           | Web:      www.OpenFOAM.org                      |
|    \\/     M anipulation  |                                                 |
\*---------------------------------------------------------------------------*/
FoamFile
{
    version     2.0;
    format      ascii;
    class       volScalarField;
    location    "30";
    object      Theta;
}
// * * * * * * * * * * * * * * * * * * * * * * * * * * * * * * * * * * * * * //

dimensions      [0 2 -2 0 0 0 0];

internalField   nonuniform List<scalar> 
1600
(
0.327492
0.0732077
0.357339
0.309073
0.496187
0.511086
0.608793
0.660388
0.68111
0.791147
0.695049
0.946294
0.632055
1.14182
0.524551
1.30719
0.500964
1.29483
0.695849
1.05105
0.337055
0.0844685
0.364245
0.317273
0.503514
0.517784
0.615199
0.66619
0.686739
0.796418
0.700304
0.951343
0.637181
1.14701
0.529156
1.31316
0.503655
1.30176
0.695929
1.05404
0.414327
0.0969487
0.392693
0.332743
0.520638
0.53112
0.62793
0.677118
0.696751
0.805033
0.708235
0.95734
0.643937
1.1489
0.537437
1.30666
0.51985
1.27853
0.729946
1.00399
0.425661
0.130459
0.416982
0.357968
0.542772
0.551473
0.646583
0.694152
0.712609
0.819728
0.722111
0.970444
0.656298
1.16126
0.547783
1.32001
0.52583
1.29619
0.727741
1.02959
0.47876
0.168987
0.457916
0.391028
0.573574
0.578451
0.671195
0.716243
0.732722
0.837844
0.738624
0.985065
0.670003
1.1724
0.560046
1.32693
0.539183
1.29762
0.7448
1.02673
0.509668
0.223389
0.49926
0.432874
0.609768
0.612065
0.701515
0.7441
0.758329
0.86154
0.760664
1.00576
0.689219
1.1912
0.576332
1.34559
0.550791
1.31948
0.747912
1.05675
0.577595
0.284609
0.554051
0.482588
0.65359
0.652031
0.737381
0.776816
0.788048
0.888658
0.785393
1.02831
0.709767
1.20987
0.593422
1.3608
0.565473
1.33088
0.76229
1.06221
0.629684
0.357859
0.611639
0.539893
0.702945
0.698062
0.77863
0.814833
0.82283
0.920835
0.815195
1.05618
0.735662
1.23469
0.61583
1.38409
0.583587
1.3554
0.772919
1.09362
0.720899
0.437867
0.681842
0.604617
0.759308
0.749932
0.824945
0.85725
0.861302
0.956012
0.847261
1.08547
0.762287
1.25901
0.637747
1.4039
0.601922
1.36981
0.791105
1.09754
0.782379
0.529229
0.752734
0.675915
0.820433
0.807195
0.876172
0.904576
0.904602
0.996137
0.884477
1.12031
0.794791
1.29012
0.666149
1.43315
0.625159
1.40111
0.804224
1.13973
0.905415
0.623446
0.839728
0.753601
0.888678
0.869583
0.931878
0.955477
0.950676
1.03814
0.922659
1.15496
0.826321
1.31825
0.692368
1.45448
0.648934
1.41229
0.832776
1.13162
0.965503
0.732892
0.919827
0.837381
0.959651
0.936679
0.991857
1.01107
1.00165
1.08553
0.966736
1.19646
0.864929
1.35587
0.725492
1.4914
0.673293
1.45545
0.839609
1.19252
1.11908
0.836585
1.02372
0.925493
1.03879
1.0079
1.05568
1.06906
1.05406
1.13308
1.00993
1.23525
0.900809
1.3864
0.757081
1.5117
0.707031
1.45894
0.886189
1.17088
1.18391
0.962634
1.11035
1.02019
1.11749
1.0833
1.12289
1.13164
1.11149
1.18666
1.05962
1.28245
0.943596
1.43
0.790975
1.55691
0.725323
1.51464
0.880049
1.24167
1.34426
1.07394
1.22741
1.11615
1.20578
1.16143
1.19338
1.19526
1.16908
1.2387
1.10728
1.32466
0.984602
1.46221
0.831117
1.57538
0.773931
1.51363
0.943286
1.22629
1.43933
1.21023
1.32182
1.21931
1.29055
1.24334
1.26609
1.26321
1.23129
1.29688
1.16058
1.37601
1.02852
1.51046
0.861358
1.62668
0.783588
1.5721
0.933753
1.2791
1.57647
1.33157
1.4445
1.32149
1.38514
1.32654
1.34153
1.33105
1.29296
1.35244
1.21233
1.42101
1.07518
1.54413
0.910297
1.64601
0.841284
1.57955
0.993195
1.29552
1.71102
1.46948
1.54865
1.42938
1.47483
1.41273
1.418
1.40253
1.35814
1.41352
1.26741
1.47489
1.11892
1.59476
0.938812
1.69708
0.853589
1.62625
1.00228
1.31781
1.83239
1.60047
1.6723
1.53645
1.5725
1.49933
1.49637
1.47313
1.42249
1.47147
1.32194
1.52192
1.16862
1.63055
0.989306
1.7217
0.905543
1.64793
1.04389
1.35525
1.96914
1.73752
1.78205
1.64587
1.66524
1.58741
1.57481
1.54621
1.48905
1.53371
1.37808
1.57639
1.214
1.68022
1.02286
1.76797
0.92984
1.68656
1.06793
1.3792
2.15084
1.86995
1.90819
1.75521
1.76349
1.67549
1.65403
1.618
1.55436
1.59284
1.43323
1.62485
1.26286
1.71797
1.06969
1.79302
0.97832
1.69511
1.12239
1.3603
2.25109
2.00818
2.01717
1.86442
1.85662
1.76348
1.73248
1.69087
1.62079
1.65456
1.48964
1.67821
1.31003
1.76572
1.1072
1.83867
1.00497
1.74344
1.13564
1.41952
2.38344
2.14369
2.1358
1.9734
1.95215
1.85081
1.81043
1.76211
1.68541
1.7136
1.54402
1.72758
1.35677
1.80693
1.14846
1.87274
1.04203
1.77194
1.16822
1.44634
2.50649
2.27722
2.24511
2.07998
2.04366
1.93669
1.88696
1.83301
1.74999
1.77334
1.59893
1.77864
1.40344
1.85123
1.18756
1.91209
1.07363
1.80804
1.19235
1.4797
2.6281
2.40907
2.35614
2.18522
2.13461
2.02094
1.96184
1.90188
1.8124
1.83069
1.65155
1.82708
1.44829
1.89266
1.22598
1.9482
1.10615
1.84069
1.21855
1.51112
2.75282
2.53538
2.46223
2.28674
2.22206
2.10266
2.03453
1.96912
1.87348
1.88706
1.70332
1.87491
1.49233
1.93353
1.26342
1.98322
1.1379
1.87046
1.24581
1.53529
2.86645
2.65861
2.56488
2.38519
2.30673
2.18164
2.10462
2.03387
1.9322
1.94122
1.75308
1.92093
1.53491
1.97313
1.29999
2.01781
1.16896
1.90158
1.27089
1.56501
2.98628
2.77511
2.66463
2.47927
2.38785
2.25721
2.17161
2.09576
1.98819
1.99275
1.80021
1.96427
1.57475
2.00972
1.33377
2.04856
1.19796
1.9266
1.29719
1.58277
3.08491
2.8869
2.75591
2.56838
2.46414
2.32897
2.23526
2.1549
2.04196
2.04263
1.84624
2.00709
1.6146
2.04697
1.3684
2.08144
1.22747
1.95686
1.32001
1.61414
3.20301
2.98984
2.8485
2.65277
2.53725
2.39656
2.29484
2.20975
2.09117
2.08763
1.88703
2.0442
1.64847
2.07746
1.39688
2.10583
1.25279
1.9739
1.34657
1.61916
3.27189
3.08967
2.92259
2.73055
2.60242
2.4594
2.35045
2.26215
2.13906
2.13262
1.92894
2.08373
1.68547
2.11288
1.42904
2.13888
1.27829
2.00859
1.36006
1.66329
3.39944
3.17354
3.01053
2.80285
2.66694
2.51732
2.40116
2.30825
2.17977
2.16927
1.96163
2.11266
1.71202
2.13497
1.45231
2.15295
1.30369
2.00933
1.39689
1.64187
3.42343
3.2628
3.05962
2.86815
2.71758
2.56988
2.44715
2.353
2.22101
2.2089
1.99881
2.14872
1.74477
2.16918
1.47783
2.18973
1.31502
2.0578
1.38399
1.71063
3.56113
3.32288
3.14567
2.9257
2.77382
2.61644
2.48809
2.38894
2.25211
2.23598
2.02302
2.16843
1.76591
2.18097
1.50295
2.18797
1.35575
2.03217
1.45029
1.65955
3.55415
3.39853
3.16681
2.97759
2.80702
2.65773
2.52282
2.42501
2.28533
2.26901
2.053
2.19972
1.78844
2.21432
1.50869
2.23323
1.33151
2.09968
1.39399
1.7373
3.65793
3.44116
3.24416
3.01939
2.85415
2.69155
2.5536
2.45002
2.3071
2.28648
2.07123
2.21023
1.81185
2.21344
1.55173
2.20999
1.40758
2.05111
1.49077
1.69702
3.68577
3.48535
3.24918
3.054
2.87054
2.72016
2.57589
2.47597
2.33012
2.31107
2.08946
2.23548
1.81454
2.24743
1.52234
2.26453
1.33931
2.1167
1.41835
1.71859
3.67633
3.53116
3.29778
3.08353
2.90408
2.7411
2.59586
2.48996
2.34359
2.31921
2.10511
2.23611
1.84697
2.23196
1.58835
2.22715
1.43259
2.08668
1.48137
1.76416
3.80016
3.52347
3.30426
3.09447
2.90802
2.75479
2.60588
2.50433
2.35498
2.33419
2.10936
2.25473
1.82945
2.26286
1.53673
2.26848
1.36904
2.09278
1.47892
1.66924
3.65977
3.57782
3.31436
3.11402
2.92348
2.76334
2.61377
2.50752
2.35973
2.33349
2.12006
2.2479
1.85952
2.24508
1.59055
2.25282
1.41034
2.13438
1.43491
1.81718
3.81588
3.53288
3.31471
3.10234
2.91619
2.76133
2.61221
2.50951
2.36034
2.33778
2.11541
2.25536
1.83963
2.25769
1.5546
2.25708
1.39046
2.08388
1.4899
1.66638
3.7397
3.56055
3.30861
3.10495
2.91514
2.75625
2.60744
2.50204
2.35429
2.32981
2.11344
2.24677
1.84915
2.24608
1.57839
2.24653
1.41235
2.09667
1.47645
1.72743
3.66375
3.51595
3.27704
3.07845
2.89387
2.74017
2.59428
2.49194
2.34522
2.32349
2.10363
2.24378
1.83272
2.24893
1.55141
2.25824
1.37801
2.11901
1.43865
1.77622
3.65295
3.50502
3.25951
3.0602
2.877
2.72072
2.57687
2.47359
2.32845
2.30708
2.08953
2.22969
1.82383
2.23597
1.54948
2.24396
1.3817
2.10138
1.44508
1.75013
3.59674
3.44914
3.21349
3.02003
2.84367
2.69161
2.55242
2.45194
2.3096
2.29059
2.07352
2.21688
1.80796
2.22684
1.53162
2.2397
1.36123
2.10286
1.42272
1.75598
3.56611
3.40558
3.17763
2.98156
2.81083
2.6582
2.52283
2.42304
2.28315
2.26552
2.05031
2.19525
1.78836
2.20782
1.5162
2.22121
1.35114
2.08113
1.42061
1.72573
3.49668
3.33646
3.11975
2.92806
2.76599
2.61692
2.48735
2.39054
2.25444
2.23946
2.02658
2.17397
1.76816
2.1903
1.49849
2.20712
1.33512
2.07095
1.40474
1.72173
3.44544
3.26729
3.0652
2.87192
2.71836
2.57075
2.44647
2.35184
2.21914
2.20636
1.99585
2.14522
1.74138
2.16487
1.47548
2.18347
1.3167
2.04609
1.39413
1.68951
3.35255
3.18434
2.99355
2.80546
2.66174
2.51819
2.40048
2.30951
2.18128
2.17178
1.96454
2.11675
1.71545
2.1414
1.45403
2.16448
1.29851
2.03265
1.37553
1.68722
3.29354
3.09386
2.92446
2.73439
2.60145
2.46073
2.34942
2.26178
2.13766
2.13107
1.92671
2.0812
1.68221
2.10954
1.42494
2.13441
1.27487
2.00017
1.36286
1.64266
3.16661
2.99922
2.83614
2.65606
2.53301
2.39806
2.29388
2.21099
2.09198
2.0895
1.8891
2.04722
1.65137
2.08226
1.39934
2.1142
1.25125
1.99087
1.33311
1.65453
3.11258
2.88884
2.75815
2.57217
2.46264
2.33086
2.23393
2.15512
2.04068
2.0416
1.84445
2.00498
1.61206
2.04362
1.36571
2.07571
1.2273
1.94468
1.32891
1.5878
2.9511
2.78676
2.65172
2.48418
2.38289
2.25967
2.17011
2.09737
1.98861
1.99456
1.80185
1.96697
1.57682
2.01425
1.33427
2.05751
1.19209
1.94551
1.27772
1.61707
2.89587
2.65791
2.56841
2.389
2.30497
2.1842
2.10286
2.03455
1.93079
1.94042
1.75159
1.91887
1.53369
1.96914
1.30117
2.00924
1.17736
1.88366
1.29147
1.53702
2.72666
2.55014
2.44765
2.29401
2.21555
2.10643
2.03221
1.9713
1.87349
1.88894
1.70436
1.87749
1.49258
1.93855
1.25895
1.99456
1.12271
1.89197
1.21812
1.56095
2.63726
2.40994
2.35667
2.18982
2.13172
2.02433
1.95948
1.9031
1.81098
1.83022
1.65096
1.82512
1.44978
1.88801
1.233
1.93813
1.1223
1.82541
1.23953
1.50266
2.50173
2.29212
2.2316
2.08921
2.03601
1.94175
1.88378
1.83567
1.7494
1.77507
1.59905
1.78086
1.40133
1.85649
1.17834
1.92384
1.05405
1.82405
1.17018
1.48472
2.35557
2.15174
2.12801
1.98009
1.94681
1.85526
1.8073
1.76398
1.6842
1.71356
1.54466
1.72585
1.36058
1.80297
1.15706
1.86782
1.05189
1.7753
1.16536
1.47361
2.25715
2.02174
2.00614
1.87438
1.84892
1.76925
1.7288
1.69365
1.61978
1.65576
1.48957
1.67916
1.30858
1.7683
1.10139
1.84415
0.995028
1.74765
1.12935
1.41409
2.08699
1.88403
1.89356
1.76388
1.75588
1.68085
1.65027
1.62044
1.55328
1.59334
1.434
1.62435
1.2648
1.71852
1.06997
1.80093
0.968682
1.72282
1.09003
1.42245
0.255671
0.328914
0.393155
0.406831
0.458933
0.493641
0.560663
0.617228
0.705582
0.775122
0.888744
0.965676
1.09901
1.1902
1.32549
1.44196
1.57124
1.69844
1.84607
1.94705
0.0810371
0.0867063
0.104935
0.137246
0.177387
0.231495
0.292967
0.365936
0.446049
0.536636
0.631987
0.738986
0.846567
0.967183
1.08553
1.21527
1.34251
1.47895
1.60966
1.75188
0.348244
0.363353
0.384043
0.410887
0.449381
0.491768
0.545886
0.604466
0.673937
0.746804
0.831261
0.91592
1.01347
1.10855
1.21524
1.31988
1.43255
1.54262
1.66166
1.77142
0.310364
0.318636
0.335417
0.361047
0.394553
0.436734
0.486557
0.544101
0.608844
0.680404
0.758213
0.842195
0.930974
1.02536
1.12304
1.22524
1.32958
1.43709
1.54495
1.65557
0.494474
0.502662
0.517764
0.540129
0.570135
0.606388
0.64996
0.699439
0.75559
0.817046
0.884627
0.956462
1.03387
1.11442
1.19952
1.28705
1.37775
1.4698
1.56475
1.6583
0.511423
0.518361
0.532125
0.552707
0.579882
0.613657
0.653729
0.699892
0.751872
0.809309
0.871887
0.939216
1.01082
1.0864
1.16528
1.24718
1.33139
1.41753
1.50474
1.5931
0.608509
0.614677
0.627064
0.645506
0.669992
0.700196
0.736037
0.777225
0.82354
0.874676
0.93035
0.990167
1.05383
1.12088
1.19091
1.26365
1.3383
1.41498
1.49262
1.57122
0.660715
0.666273
0.677668
0.694548
0.716888
0.744674
0.777534
0.81551
0.858112
0.90534
0.956624
1.01196
1.07065
1.13274
1.19737
1.26469
1.33359
1.40451
1.47582
1.54868
0.68135
0.686261
0.696721
0.712115
0.732506
0.757882
0.787762
0.822378
0.861043
0.904025
0.950504
1.00081
1.05394
1.11036
1.16881
1.23005
1.29226
1.35704
1.42142
1.48806
0.791908
0.796214
0.8058
0.81987
0.838464
0.861833
0.889199
0.921138
0.956627
0.99633
1.03901
1.08553
1.13431
1.18651
1.24017
1.29675
1.3539
1.41347
1.47264
1.53398
0.695595
0.699439
0.708533
0.721542
0.73876
0.760385
0.785494
0.814991
0.847478
0.884121
0.923141
0.966082
1.01067
1.05885
1.1079
1.16036
1.21236
1.26826
1.32177
1.3791
0.948236
0.9511
0.959009
0.970857
0.98626
1.0063
1.02923
1.05661
1.08638
1.12043
1.15612
1.19609
1.23675
1.2816
1.32631
1.3747
1.42258
1.4729
1.52296
1.57492
0.632255
0.635385
0.64385
0.654945
0.669829
0.688468
0.709664
0.735131
0.762444
0.794143
0.826901
0.864081
0.901598
0.943212
0.984614
1.03015
1.07349
1.12305
1.16704
1.21679
1.14692
1.14723
1.15264
1.1629
1.17505
1.19281
1.21191
1.23593
1.26085
1.2907
1.32029
1.35553
1.3889
1.42852
1.46529
1.50731
1.54789
1.58986
1.63346
1.67781
0.521971
0.525918
0.535282
0.544522
0.558259
0.574042
0.592044
0.614052
0.636925
0.66451
0.692095
0.724201
0.756479
0.791717
0.827888
0.866897
0.903241
0.947857
0.983647
1.02546
1.32046
1.31449
1.31457
1.32465
1.33268
1.3498
1.36537
1.38738
1.40789
1.43515
1.45864
1.49148
1.51692
1.55418
1.58255
1.62031
1.65461
1.68966
1.72738
1.76839
0.489435
0.499058
0.512599
0.519045
0.533466
0.545194
0.560883
0.579021
0.598393
0.621481
0.645881
0.671497
0.702231
0.728543
0.763765
0.794417
0.826736
0.865012
0.896665
0.926413
1.32681
1.30483
1.293
1.30622
1.30892
1.32847
1.34021
1.36253
1.37801
1.40563
1.42095
1.45591
1.47007
1.50971
1.52765
1.56364
1.59149
1.62306
1.6507
1.69666
0.663694
0.69035
0.714566
0.715534
0.732338
0.736999
0.75196
0.763921
0.782383
0.79774
0.823887
0.837836
0.873611
0.886199
0.925007
0.945675
0.97683
1.00578
1.04054
1.05248
1.12037
1.06198
1.02444
1.04779
1.04591
1.07228
1.07865
1.10579
1.1125
1.14696
1.14796
1.19266
1.19056
1.23597
1.24479
1.27695
1.30098
1.33035
1.34246
1.40107
)
;

boundaryField
{
    up
    {
        type            myTemperature;
        value           nonuniform List<scalar> 
80
(
1.05107
1.05432
1.05933
1.06582
1.07389
1.08386
1.09574
1.10945
1.12497
1.14209
1.16084
1.18096
1.20243
1.22509
1.24868
1.27335
1.2985
1.32447
1.35064
1.3775
1.40473
1.43108
1.45699
1.48267
1.5078
1.5323
1.55595
1.57861
1.60012
1.62036
1.63919
1.65648
1.67215
1.68605
1.69819
1.70831
1.71665
1.72282
1.72702
1.72922
1.72976
1.72721
1.72153
1.71504
1.7069
1.6969
1.685
1.67128
1.65576
1.63863
1.61989
1.59977
1.57831
1.55565
1.53207
1.5074
1.48228
1.45632
1.43016
1.40341
1.05033
1.05334
1.05869
1.06505
1.07312
1.08311
1.09503
1.10878
1.12433
1.1415
1.16028
1.18044
1.20194
1.22463
1.24827
1.27294
1.29816
1.32414
1.3504
1.37666
)
;
    }
    hole
    {
        type            myTemperature;
        value           nonuniform List<scalar> 
80
(
0.32734
0.336633
0.356785
0.387945
0.429707
0.481414
0.54268
0.613135
0.692317
0.779804
0.874976
0.977366
1.08622
1.20098
1.32091
1.44517
1.57326
1.70399
1.83705
1.97079
2.10462
2.23897
2.37227
2.50329
2.63141
2.75579
2.87573
2.99047
3.09932
3.20164
3.29677
3.38416
3.46323
3.53352
3.59461
3.64609
3.68766
3.71909
3.7401
3.75089
3.75
3.7398
3.72035
3.68923
3.64753
3.59589
3.53466
3.46423
3.38506
3.29759
3.20242
3.10004
2.99118
2.87642
2.75649
2.63221
2.50413
2.37339
2.24035
2.10661
0.328195
0.337751
0.357499
0.388803
0.430574
0.482278
0.543543
0.613997
0.693177
0.780665
0.875836
0.978225
1.08708
1.20183
1.32174
1.44599
1.57404
1.70475
1.83771
1.97225
)
;
    }
    frontAndBack
    {
        type            empty;
    }
}


// ************************************************************************* //
