/*--------------------------------*- C++ -*----------------------------------*\
| =========                 |                                                 |
| \\      /  F ield         | foam-extend: Open Source CFD                    |
|  \\    /   O peration     | Version:  3.0                                   |
|   \\  /    A nd           | Web:         http://www.extend-project.de       |
|    \\/     M anipulation  |                                                 |
\*---------------------------------------------------------------------------*/
FoamFile
{
    version     2.0;
    format      ascii;
    class       volVectorField;
    location    "25";
    object      u;
}
// * * * * * * * * * * * * * * * * * * * * * * * * * * * * * * * * * * * * * //

dimensions      [0 0 0 0 0 0 0];

internalField   nonuniform List<vector> 
672
(
(0.4527032129 -0.09239356218 4.583807269e-17)
(0.3295903407 -0.06026595259 2.32986647e-17)
(0.8235194596 -0.05063530579 1.061147121e-17)
(0.6378254483 -0.03004784842 8.08954521e-18)
(0.9738692939 -0.0287200828 3.907889825e-17)
(0.7860005997 -0.01709850763 4.48606054e-17)
(1.048856165 -0.01545409785 8.47460475e-17)
(0.8569401822 -0.01031284104 -1.326751162e-17)
(1.091325605 -0.006830954294 2.521908329e-17)
(0.8861060375 -0.005361144442 2.784482897e-17)
(1.114210177 -0.001061574755 -8.063637769e-18)
(0.891740892 -4.889639995e-05 -1.360593999e-17)
(0.4940005703 -0.2719810692 4.042180883e-18)
(0.3562067807 -0.1780513369 -8.468117249e-17)
(0.8459371197 -0.1495140805 6.779865107e-17)
(0.6509416158 -0.08936740881 -1.522342064e-16)
(0.9863742533 -0.08517366461 -7.105655255e-17)
(0.7933834801 -0.05161481086 -2.436733676e-17)
(1.055504938 -0.04607566267 -2.466376187e-16)
(0.8613474326 -0.0321625971 8.821037415e-17)
(1.094512701 -0.02056853334 -6.787918014e-17)
(0.8880012977 -0.01804147827 8.395373808e-17)
(1.115741529 -0.003862934924 -1.491113799e-16)
(0.8902695272 -0.002348229499 2.34069361e-16)
(0.5738495207 -0.4379748267 -2.177378393e-17)
(0.4085590933 -0.2864207296 1.265417285e-16)
(0.8900847276 -0.2406481111 2.758077773e-17)
(0.677464151 -0.1438448564 2.108009047e-16)
(1.011782535 -0.1371159008 4.8919644e-17)
(0.8089903099 -0.08344467415 1.665090895e-16)
(1.069349049 -0.07419618944 1.287044712e-16)
(0.8714551803 -0.05272499936 1.393708079e-16)
(1.100347756 -0.03277590291 -7.536543718e-17)
(0.8945591427 -0.03083117173 3.080206528e-17)
(1.115631958 -0.00513231298 -1.74750423e-17)
(0.8933637145 -0.006417007238 -2.614466829e-17)
(0.6889577215 -0.5819338147 -1.492580594e-16)
(0.4836843013 -0.3811361302 -9.544511096e-17)
(0.9532526078 -0.3200704684 -1.884592246e-16)
(0.715017227 -0.1916213209 -3.29201328e-18)
(1.047640796 -0.1824817107 -3.622697762e-16)
(0.8305483699 -0.111165668 1.26081779e-16)
(1.088828418 -0.09878508621 -4.095583748e-16)
(0.8846578557 -0.07001013841 2.209942492e-16)
(1.109694992 -0.04398314432 -2.417274548e-16)
(0.9012056829 -0.04043900756 3.832295715e-16)
(1.119139721 -0.007942835649 -3.404624162e-16)
(0.892343925 -0.007777315625 4.933228482e-16)
(0.8330230782 -0.6967365905 3.605242922e-16)
(0.5777518319 -0.4559262311 5.470787534e-17)
(1.032590753 -0.3829395861 2.016907546e-16)
(0.7624436605 -0.2291793204 4.220555639e-17)
(1.09305642 -0.2182678865 2.46696574e-16)
(0.8583684687 -0.1333005744 1.160981625e-16)
(1.113437543 -0.1180307754 1.055270635e-16)
(0.9027434369 -0.08483638482 5.595431954e-18)
(1.120047404 -0.0518077974 1.593399318e-16)
(0.9127990083 -0.05046552308 -3.341874461e-16)
(1.119305231 -0.007602085053 2.097867321e-16)
(0.8966854729 -0.01169426743 -1.835206682e-16)
(0.9991757051 -0.7765620125 -2.398878381e-16)
(0.6865494387 -0.508768092 3.259234255e-17)
(1.124046658 -0.4271354393 -2.780976936e-16)
(0.8170386422 -0.2558917846 1.772173948e-16)
(1.145151555 -0.243493853 -4.525053934e-16)
(0.8898190556 -0.1487087479 1.757165903e-16)
(1.141762931 -0.1316405611 -3.509428711e-16)
(0.9220309169 -0.09414989508 1.341752744e-16)
(1.13346857 -0.05820106216 -2.66425926e-16)
(0.9227939213 -0.05512316089 5.847965441e-16)
(1.12375217 -0.009816306908 -6.054982345e-16)
(0.8965822045 -0.01189467399 5.696925815e-16)
(1.178857551 -0.8174133605 3.61249476e-17)
(0.8036946605 -0.5352338826 7.375277945e-17)
(1.222790613 -0.4493327678 -1.994153818e-17)
(0.8759729099 -0.2691834721 -1.055356307e-16)
(1.201528489 -0.2560733698 2.812270887e-16)
(0.9244266734 -0.1568366688 -2.73716563e-17)
(1.172226736 -0.1381560375 1.655344997e-16)
(0.944718556 -0.1003540848 -7.041791115e-17)
(1.14633133 -0.0599138001 1.510685829e-16)
(0.9373005129 -0.06052984785 -3.731240573e-16)
(1.124401785 -0.007597278068 3.554550591e-16)
(0.901204976 -0.01534181635 -2.090719787e-16)
(1.363168548 -0.8173078811 2.857590536e-17)
(0.924611132 -0.535695622 -6.110503107e-17)
(1.32443533 -0.4494802092 1.843371405e-16)
(0.9367907357 -0.2694778501 -6.610201612e-17)
(1.259473892 -0.2561202954 1.231889291e-17)
(0.9596131509 -0.1568473972 -6.182080404e-17)
(1.203514448 -0.1381475356 6.051844248e-17)
(0.9665476439 -0.09988847021 1.372012611e-17)
(1.160569543 -0.06042434954 -1.095756531e-16)
(0.9491012298 -0.05930566387 3.60116182e-16)
(1.128197183 -0.009196205546 -3.485054947e-16)
(0.9020453012 -0.01379392239 2.846998244e-16)
(1.542832428 -0.776113299 9.28177697e-18)
(1.041655849 -0.5086326757 2.988567414e-18)
(1.423028212 -0.426689431 -3.263688e-16)
(0.9955738378 -0.2559188507 1.861513351e-16)
(1.315654433 -0.2431261338 -2.648622934e-16)
(0.9941339421 -0.1493078107 2.063201483e-16)
(1.233749482 -0.1308525726 -1.721032402e-16)
(0.9893008687 -0.09597799449 7.195063381e-17)
(1.173156952 -0.05600181079 6.045692658e-17)
(0.9638071112 -0.05871770306 -2.724631386e-16)
(1.128525917 -0.005672948474 2.494501153e-16)
(0.9069237527 -0.01653977865 -2.672674943e-16)
(1.708818372 -0.6961158841 7.384905998e-17)
(1.150696178 -0.4566040906 -2.8787561e-17)
(1.514701849 -0.3826959253 3.777475986e-16)
(1.050495365 -0.2297014909 -1.19021082e-16)
(1.367958335 -0.2178804497 2.549539348e-16)
(1.026031815 -0.1338981207 -2.435574452e-16)
(1.261894453 -0.1170353913 1.907936495e-16)
(1.009303447 -0.0859116359 -7.605136471e-17)
(1.18573709 -0.05011014759 8.17136792e-20)
(0.9748749565 -0.05210263693 8.97550739e-18)
(1.131631537 -0.005748983551 1.459929737e-17)
(0.9078765147 -0.01361902237 1.393424194e-17)
(1.852856083 -0.5810432845 -1.596769868e-17)
(1.244504942 -0.3813702575 -2.212312788e-17)
(1.593675746 -0.3194782069 -2.015972709e-16)
(1.097550601 -0.1920313846 -4.421430157e-17)
(1.412862653 -0.181979946 -7.053451617e-17)
(1.05371234 -0.1122828816 2.706407597e-17)
(1.285824124 -0.09757958622 -6.670325354e-17)
(1.027775896 -0.07273672311 -1.419386703e-18)
(1.195180747 -0.04090258375 2.526286796e-17)
(0.9872055928 -0.04548711384 -3.169368493e-17)
(1.130909296 -0.002493703737 4.068965734e-17)
(0.912459218 -0.01456489037 -7.069149324e-17)
(1.967662518 -0.4370237432 -4.090377792e-17)
(1.320002454 -0.2871771429 -1.356167373e-18)
(1.65715062 -0.2400510902 1.646709937e-16)
(1.135597153 -0.1444876858 2.985659274e-18)
(1.449068126 -0.136416027 1.382258119e-16)
(1.075884684 -0.08440280996 -1.117588533e-16)
(1.305183414 -0.07270534017 1.696196056e-16)
(1.041821615 -0.05477858289 -1.093372697e-16)
(1.203629176 -0.02991683479 5.824970811e-17)
(0.9951442891 -0.03437349274 -7.173927147e-17)
(1.132737138 -0.001236499253 1.021435478e-16)
(0.9134476454 -0.0107765337 -1.005856696e-16)
(2.047544713 -0.2708782032 1.124155135e-17)
(1.37204052 -0.1786177633 -2.693105854e-17)
(1.70094566 -0.1489220606 -6.233328703e-17)
(1.161692347 -0.09015552278 -4.895564758e-17)
(1.473895366 -0.08473735554 -3.278428806e-17)
(1.091379681 -0.05302802922 -1.747502984e-17)
(1.318146322 -0.04494609252 -1.634523207e-17)
(1.052533586 -0.03508419875 -3.047351116e-17)
(1.208191309 -0.01756717468 3.308714109e-17)
(1.00270206 -0.02337077845 -3.811963533e-17)
(1.131506623 0.001578169892 3.888781708e-17)
(0.9162850606 -0.01006694038 -4.315341554e-17)
(2.088459703 -0.09138957402 -6.469369997e-18)
(1.398972423 -0.06098375495 8.746445531e-18)
(1.723593314 -0.0498586816 6.299706425e-17)
(1.175248665 -0.03074230782 6.239534282e-18)
(1.486745211 -0.02799096291 7.074029648e-17)
(1.099360285 -0.01812720004 -3.589527551e-17)
(1.324775061 -0.01427497396 7.442638273e-17)
(1.057791789 -0.01243341097 -4.645950184e-17)
(1.210657778 -0.004559663041 4.085995577e-17)
(1.005952581 -0.009115178364 -4.583821064e-17)
(1.131434838 0.002345257856 5.424504009e-17)
(0.9171982121 -0.005043034764 -6.200125218e-17)
(2.088383059 0.092910764 -1.774665043e-18)
(1.398944766 0.05949404919 -2.777589102e-17)
(1.723602873 0.05118137705 -2.551270034e-17)
(1.175229431 0.0295596702 -4.339290368e-17)
(1.486670808 0.02925957953 -1.473986235e-17)
(1.09953754 0.01683938117 -3.798115444e-17)
(1.324371552 0.01633968625 -4.328267637e-18)
(1.058379738 0.009843816683 -3.18004365e-17)
(1.209746045 0.008802706288 2.013379466e-17)
(1.006873063 0.003719549547 -2.687017066e-17)
(1.130264131 0.005046810857 2.736684228e-17)
(0.9177024784 -0.003757636995 -2.934157911e-17)
(2.047334747 0.2723013001 1.941023271e-17)
(1.371932196 0.1771626885 2.446365547e-17)
(1.700936741 0.1501712191 3.950959226e-17)
(1.161579344 0.08899160378 2.339024925e-17)
(1.473639699 0.08586993231 7.918319747e-17)
(1.091740321 0.05183743949 -2.574957547e-17)
(1.317031696 0.0466332092 1.020653516e-16)
(1.053853349 0.03283058574 -5.551717708e-17)
(1.205858283 0.02097838442 4.960981815e-17)
(1.004803513 0.01867937264 -6.333767182e-17)
(1.128538483 0.004540496927 7.378127205e-17)
(0.917837064 0.002168655192 -1.037326519e-16)
(1.96734548 0.4382499722 -1.641568777e-17)
(1.319814963 0.2857960087 -4.504206101e-17)
(1.657182428 0.2411798488 -3.004750128e-17)
(1.135412072 0.1433753316 -7.173895168e-17)
(1.448711715 0.1373879951 -3.102539321e-17)
(1.076449829 0.08341919581 -6.357299536e-17)
(1.30344373 0.07402168693 -3.727564611e-17)
(1.043918476 0.05306775654 -4.624738466e-17)
(1.1998853 0.03269625284 1.892687924e-17)
(0.9985280021 0.03047073756 3.676497961e-18)
(1.12789353 0.006646603938 -4.587590505e-18)
(0.9159715041 0.003543399309 5.891187627e-18)
(1.852489343 0.5820081378 1.036896719e-16)
(1.244207402 0.3800753671 3.074187328e-17)
(1.593738562 0.3204114254 1.07532893e-16)
(1.097271174 0.1909730242 -2.55601664e-17)
(1.41244215 0.1826283632 1.82118056e-16)
(1.054405433 0.1115813925 -6.842796855e-17)
(1.28368556 0.09804254462 1.829411322e-16)
(1.030427126 0.07193663888 -9.203413447e-17)
(1.190566823 0.04186776815 1.108995277e-16)
(0.9913968595 0.04327456047 -1.80799356e-16)
(1.12507294 0.005300430503 1.66683632e-16)
(0.9150609862 0.009029766681 -2.206155892e-16)
(1.708465175 0.6967455474 -1.882099037e-16)
(1.150263793 0.4554190491 -1.257084706e-17)
(1.514864219 0.383420607 -9.508876679e-17)
(1.050090886 0.2286955559 1.830897904e-17)
(1.367586353 0.2182378009 -1.550168633e-16)
(1.0266597 0.1334321456 -2.997397145e-17)
(1.259659203 0.1167632978 -7.069527099e-17)
(1.011958489 0.08587400207 3.541555516e-17)
(1.180859635 0.04954829733 -1.124823246e-16)
(0.9791358402 0.05138187809 2.253707451e-16)
(1.125357469 0.00624541279 -1.538987994e-16)
(0.9107748036 0.01007769227 1.45193316e-16)
(1.54256097 0.7763980725 1.299251238e-16)
(1.041076284 0.5075445276 -2.763968673e-17)
(1.423282251 0.427154848 1.055374685e-16)
(0.9950606208 0.2549639963 -1.090218539e-16)
(1.315329378 0.2431551576 2.362375568e-16)
(0.9947131467 0.1490979236 -7.924528584e-17)
(1.231451939 0.129897377 1.70273597e-16)
(0.991987276 0.09672667033 -5.684506469e-17)
(1.168056021 0.05418964072 1.576532575e-16)
(0.9680773024 0.05932390712 -3.866095535e-16)
(1.122053049 0.004538078135 3.963409645e-16)
(0.9092630469 0.01421869571 -3.576808627e-16)
(1.36305512 0.8172180417 2.678828567e-17)
(0.9238515093 0.534700701 -3.399930449e-17)
(1.324853366 0.4496999221 1.14746969e-16)
(0.9361631762 0.2685671077 9.651935341e-17)
(1.259340378 0.2558164268 -1.775555565e-16)
(0.9600557101 0.1568687466 3.499403371e-17)
(1.201600875 0.1363508424 -1.231579068e-16)
(0.968880969 0.1014713386 7.704112733e-17)
(1.156298192 0.05674182561 -1.464864705e-16)
(0.9525552757 0.06165738092 3.767298349e-16)
(1.123089781 0.005130865438 -3.660805394e-16)
(0.9030745485 0.01361600738 2.610559965e-16)
(1.178961339 0.8169818304 -1.025331371e-16)
(0.8027642538 0.5343115669 6.971589529e-17)
(1.223361527 0.4492613935 -3.7570835e-16)
(0.8752132833 0.2683040599 1.279634152e-16)
(1.201577279 0.2554408986 -1.721305381e-16)
(0.9245767745 0.156957526 1.624318351e-16)
(1.170743918 0.1358379237 -1.889275496e-16)
(0.9463096329 0.1022551917 5.429131876e-17)
(1.14297502 0.05542550741 5.302754589e-17)
(0.9394958072 0.06351857515 -3.030079763e-16)
(1.120602395 0.002407508067 2.912722599e-16)
(0.9010400366 0.01627898957 -1.985367348e-16)
(0.9995416317 0.7758191504 -8.630251167e-19)
(0.6854376346 0.5078771815 2.949621581e-17)
(1.124823876 0.4268426181 5.175931813e-16)
(0.8161847359 0.2550420136 -2.224393756e-16)
(1.145466625 0.2426183157 4.20364339e-16)
(0.8897609339 0.148991205 -2.559725557e-16)
(1.140858202 0.1288630163 2.635197588e-16)
(0.9230393191 0.09657475381 -7.954660462e-17)
(1.131206936 0.05281918118 -8.415091421e-17)
(0.9238787783 0.05903596187 3.85160051e-16)
(1.121550549 0.003387165305 -3.55020566e-16)
(0.8947616375 0.013521536 3.914293934e-16)
(0.833708579 0.6957274298 -1.170648807e-16)
(0.5764724874 0.4550659335 3.422743079e-17)
(1.033583545 0.3823601176 -7.048362287e-16)
(0.7614542926 0.2283506158 1.914514449e-16)
(1.093716344 0.2171047513 -5.319340742e-16)
(0.8579088452 0.1335534617 4.689198572e-16)
(1.113480952 0.1149067965 -4.20717386e-16)
(0.9026103463 0.08723004427 2.02456823e-16)
(1.119874338 0.04589549095 -5.893947881e-17)
(0.911788556 0.05453926019 4.757597316e-17)
(1.120189559 0.0003082615429 -1.068673952e-16)
(0.8926499818 0.01394208961 3.356167615e-17)
(0.6899131315 0.580745715 -4.308736757e-17)
(0.4822976127 0.3802245716 4.991132487e-17)
(0.954437177 0.3193462747 3.959260223e-16)
(0.7139706209 0.1907537372 1.702299413e-16)
(1.048572547 0.1812471791 1.063086944e-16)
(0.8298077811 0.1112616288 -2.753405732e-17)
(1.089504699 0.09579904806 1.129366923e-16)
(0.8837214806 0.07202223467 2.309924599e-17)
(1.110651591 0.03846733393 -7.616115624e-17)
(0.8989652339 0.04403291674 1.280618273e-17)
(1.121353303 0.0009961651186 -4.323979648e-17)
(0.8873108134 0.009958493913 8.983826937e-17)
(0.5751688916 0.4366368146 2.02363833e-16)
(0.4070363202 0.2855010724 3.984074041e-18)
(0.8915155405 0.2396871401 -3.377941916e-16)
(0.6763264723 0.1429806284 -7.792249464e-17)
(1.013033375 0.1357581649 -3.033414896e-16)
(0.8080067637 0.0833640021 2.584032689e-16)
(1.070744785 0.0713798529 -4.498598592e-16)
(0.8698270787 0.05425980458 2.960161482e-16)
(1.102745032 0.02775176161 -1.520682112e-16)
(0.8909995352 0.03375194905 2.111064136e-16)
(1.119983145 -0.001222066354 -3.089809529e-16)
(0.8866295313 0.007874266244 3.009769043e-16)
(0.4954730429 0.2706050725 -1.176012656e-16)
(0.3547385255 0.1770360277 1.96246209e-17)
(0.8474613985 0.1484747599 1.398770223e-16)
(0.6498520555 0.08845480852 9.118523033e-17)
(0.9877950417 0.0838499337 1.196472744e-16)
(0.7922864703 0.05120735626 -3.510803965e-17)
(1.057388927 0.04374185849 8.331000931e-17)
(0.8592187779 0.03277432698 2.606266345e-17)
(1.09796099 0.01667836803 -1.093422545e-16)
(0.8834994726 0.0196243093 5.553486762e-17)
(1.121612757 -0.001172653114 -5.381474159e-17)
(0.8826715063 0.00319987551 4.081598498e-17)
(0.454537233 0.09098578274 5.538001104e-17)
(0.3280348961 0.05922000441 3.243488389e-17)
(0.82528598 0.04944215196 -1.508224215e-16)
(0.6367173329 0.02911761289 5.442937711e-17)
(0.9755000065 0.02740415624 -1.263469968e-16)
(0.784871806 0.01639336102 8.460943695e-17)
(1.050994056 0.01363805399 -4.512411866e-17)
(0.8546906228 0.01005426263 1.0309137e-17)
(1.095082401 0.004167963042 7.022564982e-18)
(0.8814300332 0.005557501209 2.455393534e-17)
(1.120402859 -0.002364697344 -4.211243207e-17)
(0.8840566205 -0.0004600780502 3.635521455e-17)
(0.4547218052 -0.09323149857 -4.571971981e-17)
(0.3280783209 -0.06139397597 -2.300779954e-17)
(0.8251163694 -0.05196119871 -1.075713458e-17)
(0.636561138 -0.03155172284 -7.639811458e-18)
(0.9751944078 -0.03034114409 -3.903908389e-17)
(0.7846411286 -0.01921510348 -4.437723854e-17)
(1.050824268 -0.01714280697 -8.458201679e-17)
(0.8544002994 -0.01328432804 1.360336764e-17)
(1.095443532 -0.008490846813 -2.514305439e-17)
(0.8807265359 -0.009161426634 -2.765810276e-17)
(1.121784353 -0.00307720197 7.996025106e-18)
(0.8824449609 -0.004974293637 1.368226478e-17)
(0.4957089065 -0.2728192528 -4.338254378e-18)
(0.3551318634 -0.1789333111 8.435379208e-17)
(0.848024217 -0.1507589367 -6.811214112e-17)
(0.6504844812 -0.09066673281 1.520223453e-16)
(0.9885731181 -0.08657667809 7.029842132e-17)
(0.7931288024 -0.05398477533 2.456927898e-17)
(1.058145375 -0.04704674595 2.454267985e-16)
(0.860329007 -0.03630980991 -8.72266018e-17)
(1.098322681 -0.02052026605 6.604966371e-17)
(0.8852170331 -0.02397499058 -8.18166481e-17)
(1.121190296 -0.003295387041 1.46376738e-16)
(0.8856376434 -0.00929263472 -2.306689488e-16)
(0.5757429212 -0.4387661378 2.222768963e-17)
(0.4076175594 -0.2877731583 -1.259784385e-16)
(0.8918558088 -0.2422833947 -2.723158877e-17)
(0.6767520463 -0.1454553727 -2.101440552e-16)
(1.013323518 -0.1387482925 -4.844726964e-17)
(0.808413191 -0.08601774724 -1.659510887e-16)
(1.07122805 -0.07493667022 -1.28388322e-16)
(0.8702457498 -0.05694270337 -1.390066994e-16)
(1.103824314 -0.03236390489 7.542532029e-17)
(0.891164891 -0.03637490673 -3.069561522e-17)
(1.122200199 -0.004863615272 1.749263272e-17)
(0.8865232293 -0.01228557618 2.59091545e-17)
(0.6905489587 -0.5827752589 1.486203325e-16)
(0.4829764946 -0.3817616815 9.515935468e-17)
(0.9552561953 -0.3213222153 1.873486816e-16)
(0.7149151495 -0.1926453431 3.448880284e-18)
(1.049697832 -0.1836775486 3.604957293e-16)
(0.831110121 -0.1137881956 -1.250608803e-16)
(1.090813465 -0.09879881639 4.071597838e-16)
(0.8855279435 -0.07546448388 -2.186998176e-16)
(1.111787846 -0.04174071819 2.383795734e-16)
(0.901594842 -0.04861361287 -3.791551245e-16)
(1.121945323 -0.004323020289 3.354322794e-16)
(0.891451144 -0.01644248458 -4.870599617e-16)
(0.8345991011 -0.697614478 -3.598526871e-16)
(0.5775908808 -0.4572034009 -5.410051508e-17)
(1.034473166 -0.3848062097 -2.008473259e-16)
(0.7624727109 -0.2306482402 -4.16428959e-17)
(1.094677765 -0.2198950643 -2.457602363e-16)
(0.858896115 -0.1358927262 -1.157852255e-16)
(1.114741933 -0.1182244137 -1.04827004e-16)
(0.9035368435 -0.08937344216 -5.554565585e-18)
(1.121903731 -0.05035727789 -1.590223937e-16)
(0.9124671781 -0.05631153056 3.338590309e-16)
(1.1235516 -0.006444998305 -2.092029991e-16)
(0.8936369368 -0.01704657646 1.825563639e-16)
(1.000500434 -0.7775295757 2.390247892e-16)
(0.6862649181 -0.5090637149 -3.272764947e-17)
(1.125780834 -0.4285080732 2.763337111e-16)
(0.8172963962 -0.2566193598 -1.765892403e-16)
(1.146806356 -0.2447227937 4.500292487e-16)
(0.8913423601 -0.1511914704 -1.741114271e-16)
(1.142583471 -0.1314745698 3.480214806e-16)
(0.9253151752 -0.09966607404 -1.314656563e-16)
(1.132914854 -0.05551851612 2.629484886e-16)
(0.927245253 -0.063338307 -5.807507639e-16)
(1.122749263 -0.005726618192 6.008230754e-16)
(0.9000692374 -0.01984328061 -5.640871924e-16)
(1.180061156 -0.8185374549 -3.530302375e-17)
(0.8043021071 -0.5360884541 -7.326455003e-17)
(1.22471684 -0.4513204747 2.12309257e-17)
(0.876734981 -0.2702034519 1.057927382e-16)
(1.203135618 -0.2577418603 -2.799235561e-16)
(0.9260529463 -0.1588434914 2.73707468e-17)
(1.17275976 -0.1385368358 -1.648151696e-16)
(0.9475764225 -0.1039016539 7.052587944e-17)
(1.146099833 -0.05912312536 -1.511372052e-16)
(0.940326854 -0.06470117802 3.734769624e-16)
(1.125458928 -0.007695050358 -3.559815772e-16)
(0.9025612122 -0.01830587914 2.096571643e-16)
(1.364212335 -0.8185195969 -2.952142093e-17)
(0.9247469107 -0.5355976354 6.115660569e-17)
(1.325874305 -0.4511004222 -1.86461586e-16)
(0.9373849339 -0.2698785325 6.707745056e-17)
(1.260772609 -0.2576308946 -1.509704554e-17)
(0.9618781723 -0.1587277822 6.375164266e-17)
(1.203500466 -0.1385740823 -6.334201462e-17)
(0.9716206959 -0.1040741467 -1.13076015e-17)
(1.158208533 -0.05895411065 1.068832744e-16)
(0.9565871249 -0.0653160252 -3.57314692e-16)
(1.124574834 -0.006819972294 3.455301944e-16)
(0.9090292946 -0.01907513709 -2.814507939e-16)
(1.543743814 -0.7775818874 -8.492415136e-18)
(1.042815147 -0.5088028806 -2.627367629e-18)
(1.4249102 -0.4286688753 3.277420355e-16)
(0.9968851743 -0.2562829778 -1.860846798e-16)
(1.3172546 -0.2448135369 2.661806138e-16)
(0.9965152778 -0.1503549702 -2.065151464e-16)
(1.233905565 -0.1318740261 1.727043373e-16)
(0.9935256895 -0.09774161151 -7.165501744e-17)
(1.171714586 -0.05698711038 -6.10788449e-17)
(0.9691829809 -0.05993355701 2.735869941e-16)
(1.127465222 -0.008580948897 -2.510605689e-16)
(0.9115691368 -0.01546940441 2.694299116e-16)
(1.709673253 -0.6976085496 -7.462987372e-17)
(1.151201207 -0.4560896003 2.8905795e-17)
(1.515941732 -0.3845947876 -3.797241867e-16)
(1.051394361 -0.2297690816 1.20101567e-16)
(1.369110197 -0.2197679109 -2.575711122e-16)
(1.028609568 -0.1349167199 2.4562675e-16)
(1.26174222 -0.1184907489 -1.935508572e-16)
(1.01487184 -0.08791806769 7.859542589e-17)
(1.183109809 -0.05097041968 -2.754827762e-18)
(0.9833040092 -0.05439945098 -6.139948869e-18)
(1.12743718 -0.006769444368 -1.763792342e-17)
(0.9166623313 -0.01479746637 -1.069412566e-17)
(1.853631751 -0.5828276121 1.650858256e-17)
(1.24588262 -0.3807806846 2.241410291e-17)
(1.595400333 -0.3213303687 2.026860247e-16)
(1.099142778 -0.1916781352 4.417118485e-17)
(1.414473888 -0.1835798001 7.161220246e-17)
(1.056349013 -0.1122470967 -2.743030824e-17)
(1.2862575 -0.09920594647 6.719409336e-17)
(1.03224547 -0.07249235636 1.406155565e-18)
(1.194167626 -0.04363335099 -2.560373353e-17)
(0.9930660954 -0.04352801251 3.227955548e-17)
(1.130054708 -0.008025649706 -4.14915079e-17)
(0.9182786567 -0.009389875879 7.163115219e-17)
(1.968459229 -0.4387116093 4.039074048e-17)
(1.320802211 -0.2862734226 1.499004481e-18)
(1.65832621 -0.2421231601 -1.6612095e-16)
(1.1367895 -0.1442181008 -2.056777702e-18)
(1.450313739 -0.1385801445 -1.40116773e-16)
(1.078404528 -0.08454265021 1.135527959e-16)
(1.305631118 -0.0751286056 -1.716372111e-16)
(1.046665579 -0.05458810865 1.115833602e-16)
(1.202413787 -0.03315183685 -6.064074497e-17)
(1.002312765 -0.03287838238 7.465243007e-17)
(1.130497379 -0.00585502815 -1.05318507e-16)
(0.9215239077 -0.007585047107 1.043638025e-16)
(2.048330872 -0.272807784 -1.100926678e-17)
(1.373312077 -0.1774078704 2.703023017e-17)
(1.702401537 -0.1505680942 6.295430547e-17)
(1.163287373 -0.0891741193 4.885651609e-17)
(1.475504967 -0.0861565801 3.323413961e-17)
(1.09374056 -0.05201902234 1.71477973e-17)
(1.319379223 -0.04692307907 1.642763897e-17)
(1.056101062 -0.03307971343 3.035597797e-17)
(1.208902051 -0.02149994624 -3.328974904e-17)
(1.007314807 -0.01877879353 3.819165154e-17)
(1.132513129 -0.005664996654 -3.912042839e-17)
(0.9217226653 -0.001804653463 4.325839831e-17)
(2.089287935 -0.09307101494 6.363190981e-18)
(1.399986849 -0.05976707966 -8.516024203e-18)
(1.724795961 -0.05186561959 -6.359934331e-17)
(1.176688476 -0.03012895549 -5.680331573e-18)
(1.488273121 -0.03009310466 -7.132071201e-17)
(1.101488437 -0.01757984985 3.674977218e-17)
(1.326432113 -0.01692129204 -7.488396042e-17)
(1.060914785 -0.01083211955 4.72675051e-17)
(1.212215174 -0.008612929868 -4.130633499e-17)
(1.010117837 -0.00539614753 4.658428071e-17)
(1.133116378 -0.003548232385 -5.487627734e-17)
(0.9225817987 0.0007708204612 6.283854666e-17)
(2.089235204 0.09110822205 1.675741878e-18)
(1.399918031 0.06102007711 2.75101087e-17)
(1.724708879 0.04980013884 2.567488371e-17)
(1.176650382 0.03093125906 4.296750397e-17)
(1.488241213 0.02815723783 1.471106735e-17)
(1.101316025 0.01839209723 3.752229102e-17)
(1.326619949 0.01460871707 4.168339173e-18)
(1.060446208 0.01265892519 3.149207549e-17)
(1.212749519 0.004944358753 -2.021585283e-17)
(1.009349729 0.009444741918 2.671344593e-17)
(1.133882259 -0.002209860376 -2.732600345e-17)
(0.921770333 0.006010429642 2.931467945e-17)
(2.048181178 0.2708833285 -1.91153948e-17)
(1.373099827 0.1785809305 -2.412303842e-17)
(1.702134701 0.1485280341 -3.921205085e-17)
(1.163188842 0.08993343599 -2.314530448e-17)
(1.475415955 0.08427126862 -7.844320441e-17)
(1.093300893 0.05273960253 2.559095823e-17)
(1.319930135 0.04476973365 -1.008782511e-16)
(1.054883138 0.03466477829 5.461446741e-17)
(1.210362029 0.01816433196 -4.785955383e-17)
(1.005417525 0.0224217752 6.136376019e-17)
(1.134376634 0.0003484073409 -7.122355846e-17)
(0.9201045138 0.008168975677 1.006123084e-16)
(1.968185409 0.4368612349 1.599177364e-17)
(1.320495252 0.287290982 4.450014528e-17)
(1.657888831 0.2401123762 2.971155783e-17)
(1.136641782 0.1448635513 7.110042667e-17)
(1.450146178 0.1367561393 3.055414839e-17)
(1.07768397 0.085035953 6.304185486e-17)
(1.306459111 0.07325705143 3.695440047e-17)
(1.044672718 0.05563163562 4.589711883e-17)
(1.204714477 0.03051504784 -1.896603894e-17)
(0.999154505 0.03555706647 -3.795403158e-18)
(1.133576568 0.001636812197 4.60744797e-18)
(0.9186015286 0.01271042298 -5.69160769e-18)
(1.853225477 0.5810766523 -1.030523048e-16)
(1.245496514 0.3815781961 -3.043418095e-17)
(1.594767683 0.3193821743 -1.064296862e-16)
(1.09896612 0.192201029 2.541998133e-17)
(1.414201954 0.1818800684 -1.803406498e-16)
(1.055477968 0.1125005959 6.743797154e-17)
(1.287249345 0.09772830085 -1.805724094e-16)
(1.029844006 0.07292751059 8.982418295e-17)
(1.196927786 0.04180936632 -1.076623227e-16)
(0.9893664296 0.04519718717 1.769054547e-16)
(1.133560372 0.004868640581 -1.618852208e-16)
(0.9151428008 0.0134560886 2.146894132e-16)
(1.709099381 0.6959713855 1.875637177e-16)
(1.15082897 0.4566295652 1.198732425e-17)
(1.515146843 0.3827062872 9.423639862e-17)
(1.051234627 0.2301015651 -1.884478391e-17)
(1.368719334 0.2181771469 1.540860022e-16)
(1.027619074 0.1347934586 2.970367743e-17)
(1.262755563 0.1174690553 6.999237169e-17)
(1.012110284 0.08745718867 -3.545362871e-17)
(1.186117962 0.050281475 1.121729745e-16)
(0.9790551558 0.05447308566 -2.250386714e-16)
(1.131320291 0.005409605747 1.533314991e-16)
(0.9130730822 0.01684032062 -1.442390336e-16)
(1.542986726 0.7760648413 -1.290437284e-16)
(1.042475381 0.5090390753 2.777802439e-17)
(1.423907369 0.4268504074 -1.037741278e-16)
(0.9967578266 0.2564366318 1.084273851e-16)
(1.316693486 0.243361774 -2.337879133e-16)
(0.9955730041 0.1499374866 7.768568549e-17)
(1.23476602 0.1312982717 -1.673887809e-16)
(0.9909110486 0.09658877311 5.422350846e-17)
(1.174439391 0.05720446048 -1.542498886e-16)
(0.9653324938 0.05886721117 3.826686971e-16)
(1.13073101 0.008388640675 -3.917799748e-16)
(0.9086906962 0.01623455742 3.522833528e-16)
(1.363250185 0.8171052385 -2.76033436e-17)
(0.9245472857 0.5355551942 3.354439029e-17)
(1.324720597 0.4493665833 -1.16026103e-16)
(0.9373499128 0.2698210421 -9.675776513e-17)
(1.260043069 0.2562982495 1.762791317e-16)
(0.9610170901 0.1579155889 -3.496297018e-17)
(1.204080628 0.1384185898 1.224300087e-16)
(0.9691647464 0.1020071962 -7.708300566e-17)
(1.160489113 0.06022804168 1.464915233e-16)
(0.9530540872 0.06263046482 -3.76973348e-16)
(1.12725815 0.008333888735 3.664711237e-16)
(0.9066755057 0.01779570598 -2.614300107e-16)
(1.178883181 0.8172155054 1.034618609e-16)
(0.8042579439 0.5357390291 -6.973789682e-17)
(1.223368584 0.4496372245 3.778061689e-16)
(0.8768064184 0.269952627 -1.289138859e-16)
(1.202195515 0.2564990974 1.748928953e-16)
(0.9254384509 0.1578003075 -1.643338959e-16)
(1.172894984 0.1386684152 1.917288743e-16)
(0.9457910062 0.1013749793 -5.667791458e-17)
(1.147389734 0.06097033867 -5.033882537e-17)
(0.938074317 0.06126059457 3.002121111e-16)
(1.126527062 0.009930713016 -2.882859974e-16)
(0.901846348 0.01607519416 1.953099001e-16)
(0.9991176 0.7762589081 1.191323896e-19)
(0.6864544546 0.508487634 -2.984840686e-17)
(1.124300987 0.4269228183 -5.189250564e-16)
(0.8175105434 0.2561900053 2.224113135e-16)
(1.145668522 0.2435629517 -4.216698345e-16)
(0.8909635224 0.1498883044 2.562044765e-16)
(1.142226834 0.1317754668 -2.641500543e-16)
(0.9241027317 0.09660068115 7.936591619e-17)
(1.133267441 0.05784654863 8.464802566e-17)
(0.9259869242 0.05889629077 -3.861089643e-16)
(1.122578304 0.008896391532 3.564115002e-16)
(0.900551778 0.01615796042 -3.932481732e-16)
(0.8330216141 0.6963740158 1.178508884e-16)
(0.5780219298 0.4563968455 -3.432241695e-17)
(1.032857113 0.3832450339 7.06766629e-16)
(0.7628510665 0.2300587108 -1.924991338e-16)
(1.093371799 0.2187379696 5.345090369e-16)
(0.8588680238 0.1345165972 -4.709322229e-16)
(1.113877942 0.1184769807 4.234314078e-16)
(0.9032231927 0.08632769315 -2.049800814e-16)
(1.12104237 0.05251047893 6.161583203e-17)
(0.9128610607 0.05194738884 -5.038517892e-17)
(1.121429237 0.009277965886 1.099179674e-16)
(0.8962232446 0.01328176847 -3.68047334e-17)
(0.6888147436 0.5815274511 4.255903673e-17)
(0.483676324 0.3808164739 -5.018447689e-17)
(0.9535356851 0.3198651413 -3.969789481e-16)
(0.7154448865 0.1919245719 -1.701685315e-16)
(1.048199448 0.1825534674 -1.073434674e-16)
(0.831357604 0.1123379221 2.793153143e-17)
(1.089410861 0.09890817133 -1.134201559e-16)
(0.8859176952 0.07240702443 -2.300420279e-17)
(1.109839913 0.04363836108 7.642355281e-17)
(0.9032163493 0.04415263844 -1.320119042e-17)
(1.118361517 0.007044098644 4.384802443e-17)
(0.8954532267 0.0122097031 -9.047598237e-17)
(0.5739154128 0.4374851573 -2.018362394e-16)
(0.4085620686 0.2867243803 -4.106827301e-18)
(0.8900996827 0.2408457175 3.392194709e-16)
(0.6774662019 0.1446488744 7.702242077e-17)
(1.011765459 0.1375655797 3.051896187e-16)
(0.8090067903 0.08469520939 -2.601457557e-16)
(1.06947403 0.07466910551 4.518301007e-16)
(0.8714453434 0.05445162086 -2.981986253e-16)
(1.100937074 0.03331537237 1.544200987e-16)
(0.8942282636 0.03291196599 -2.13953848e-16)
(1.117087976 0.006180522795 3.120936522e-16)
(0.8923830193 0.008854622824 -3.046535939e-16)
(0.4937996867 0.2714993092 1.173805741e-16)
(0.3563333307 0.1778345007 -1.970043302e-17)