/*--------------------------------*- C++ -*----------------------------------*\
| =========                 |                                                 |
| \\      /  F ield         | foam-extend: Open Source CFD                    |
|  \\    /   O peration     | Version:  3.0                                   |
|   \\  /    A nd           | Web:         http://www.extend-project.de       |
|    \\/     M anipulation  |                                                 |
\*---------------------------------------------------------------------------*/
FoamFile
{
    version     2.0;
    format      ascii;
    class       volScalarField;
    location    "56";
    object      p;
}
// * * * * * * * * * * * * * * * * * * * * * * * * * * * * * * * * * * * * * //

dimensions      [0 0 0 0 0 0 0];

internalField   nonuniform List<scalar> 
2688
(
-0.2263646216
-0.2070421407
-0.1953715812
-0.1819406489
-0.1744913077
-0.1647613071
-0.160005283
-0.1527969459
-0.1498130711
-0.1444225456
-0.1426103786
-0.1385592543
-0.1374979994
-0.1344172958
-0.1337834195
-0.1313732648
-0.1308927361
-0.1288910901
-0.1283115318
-0.1264462206
-0.1254913226
-0.1234037758
-0.1217303357
-0.1189422017
-0.2258585923
-0.2065721266
-0.1949309471
-0.1815239022
-0.1741004071
-0.1643810335
-0.1596506582
-0.152438002
-0.1494810989
-0.1440686416
-0.1422832275
-0.1381875295
-0.1371451498
-0.1339923887
-0.133352363
-0.1308481933
-0.1303205852
-0.1282215973
-0.1275623282
-0.1256044201
-0.124555656
-0.1223948987
-0.1206374022
-0.1178446163
-0.2241393027
-0.2049999607
-0.1934486472
-0.1801340447
-0.172771599
-0.163105707
-0.1584175546
-0.1512262246
-0.1482962907
-0.1428762068
-0.1411030618
-0.1369733714
-0.1359266138
-0.1327180723
-0.1320513442
-0.1294790741
-0.1288975789
-0.1267259126
-0.1259898358
-0.1239502305
-0.1228059945
-0.1205837844
-0.118747372
-0.115985812
-0.2222218636
-0.2032383513
-0.1917835536
-0.1785766221
-0.1712783236
-0.1616857667
-0.157044264
-0.1498989538
-0.1470080216
-0.1416082335
-0.1398694701
-0.1357304526
-0.1347069567
-0.1314532323
-0.1307845867
-0.1281280473
-0.1275095424
-0.1252116005
-0.1244002473
-0.1221986053
-0.1209345296
-0.1185871824
-0.1166424453
-0.1138989545
-0.2190940563
-0.2003794291
-0.1890892194
-0.1760591487
-0.1688701028
-0.1593914454
-0.1548227657
-0.1477413356
-0.1448943911
-0.1395148299
-0.1377928551
-0.1336358219
-0.1326014818
-0.1292988165
-0.1285937075
-0.1258636544
-0.1251893448
-0.1227936479
-0.121908152
-0.1195997169
-0.1182430588
-0.1158391259
-0.1138354914
-0.1111554027
-0.2157721729
-0.1973313048
-0.1861996058
-0.1733581014
-0.1662611621
-0.156916405
-0.1523975333
-0.1454144877
-0.1425912116
-0.137287693
-0.1355735265
-0.1314781026
-0.1304429351
-0.1271875446
-0.1264810651
-0.1237709595
-0.1230989808
-0.1206752662
-0.1197802006
-0.1174047386
-0.1160094913
-0.1135460846
-0.1114978075
-0.1088565069
-0.2112828404
-0.1932284511
-0.1823335997
-0.1697532426
-0.1628121628
-0.1536467326
-0.1492300676
-0.1423666188
-0.1396046105
-0.1343743159
-0.1326872456
-0.1286288051
-0.1275951523
-0.124346767
-0.1236318402
-0.1208965341
-0.1202200819
-0.1177366387
-0.116837131
-0.1143893793
-0.1129819448
-0.1104546048
-0.1083656755
-0.105768848
-0.2065840646
-0.1889182645
-0.1782396937
-0.165925094
-0.1590980014
-0.1501233899
-0.1457510607
-0.1390354539
-0.1362709235
-0.1311713415
-0.1294547046
-0.1255310322
-0.1244645718
-0.1213660539
-0.1206445959
-0.1180686711
-0.1174325879
-0.115107658
-0.1142965249
-0.1120054307
-0.110732896
-0.1083136726
-0.1063436638
-0.1037229285
-0.200797218
-0.1836295794
-0.1732571596
-0.161286313
-0.1546607676
-0.145933754
-0.1416951189
-0.1351637321
-0.132486404
-0.1275290683
-0.1258698461
-0.1220603339
-0.1210388084
-0.118032109
-0.11736003
-0.1148563721
-0.1142852921
-0.1120336002
-0.1113208899
-0.1091419
-0.1080472823
-0.1057544246
-0.1040258312
-0.1013137894
-0.1947729827
-0.1781043578
-0.168004568
-0.1563730524
-0.1498856761
-0.1414026342
-0.1372116493
-0.1308704463
-0.1281833591
-0.123392993
-0.1216960217
-0.1180521142
-0.1169928468
-0.1141649712
-0.113479369
-0.1111836564
-0.110641918
-0.1086556224
-0.1080463855
-0.1061998295
-0.1053290248
-0.1033466131
-0.1019151592
-0.09920828581
-0.1877671069
-0.171700965
-0.1619728942
-0.1507633198
-0.1445217352
-0.1363514184
-0.1323266275
-0.1262302785
-0.1236608944
-0.1190731512
-0.1174716519
-0.1140014054
-0.1130348511
-0.1103570388
-0.1097671262
-0.1076089348
-0.1071641657
-0.1053249649
-0.1048260155
-0.1031374252
-0.1024019194
-0.1005622187
-0.09926401283
-0.09666225274
-0.1804937723
-0.1650313303
-0.1556332536
-0.1448333402
-0.1387631064
-0.130887309
-0.1269343242
-0.1210643212
-0.1185144259
-0.1141109161
-0.1125138033
-0.1091934674
-0.1082342614
-0.1056734701
-0.1050883938
-0.1030314846
-0.1025793402
-0.1008565203
-0.1003499639
-0.09879996096
-0.09807424417
-0.09640050972
-0.09516346717
-0.09283656782
-0.1723594854
-0.1575953736
-0.1486298261
-0.138322781
-0.1325392805
-0.1250319925
-0.1212732313
-0.1156927803
-0.1132805146
-0.1091124502
-0.1076236965
-0.1044956683
-0.1036277692
-0.1012266819
-0.1007097569
-0.09880497072
-0.09839697029
-0.09683571266
-0.09636367807
-0.09496442917
-0.09425123816
-0.09274830952
-0.09154972403
-0.089558952
-0.1639366183
-0.1498736452
-0.1412968054
-0.1314662177
-0.1258966329
-0.1187324901
-0.1150871863
-0.1097672669
-0.1074268176
-0.1034584507
-0.1020386889
-0.09904827072
-0.09824989925
-0.09591938889
-0.09544486221
-0.09355254689
-0.09313914402
-0.09152729667
-0.0909915538
-0.08946277837
-0.08859327191
-0.08702085624
-0.08569218265
-0.08402957089
-0.1547749651
-0.1414969881
-0.1334078964
-0.1241322608
-0.1188857674
-0.1121343562
-0.1087040058
-0.1037011596
-0.1015020813
-0.09777884089
-0.09644956138
-0.093645058
-0.09289545118
-0.09070955236
-0.09024404207
-0.08848140158
-0.08805518696
-0.08655365556
-0.08599991203
-0.08453008429
-0.08361018994
-0.08212306472
-0.08078761811
-0.07940170974
-0.1453215123
-0.1328332086
-0.1251909616
-0.1164536477
-0.1114677528
-0.1051046561
-0.1018325934
-0.09712279386
-0.09504019793
-0.09153993788
-0.09031691224
-0.08767477767
-0.08701741297
-0.08494856085
-0.08454572631
-0.08287733896
-0.08249615087
-0.08105309764
-0.08053881123
-0.07906041692
-0.07813952915
-0.0766527061
-0.07531620649
-0.07407550456
-0.1352429385
-0.1236167144
-0.1165114383
-0.1083823135
-0.1037517634
-0.09783617871
-0.09479609467
-0.09042167697
-0.08848013066
-0.08523088055
-0.08408061006
-0.08162697361
-0.08099614429
-0.07907575452
-0.07868193782
-0.07713120403
-0.07676815443
-0.07539244143
-0.07489796537
-0.07343054812
-0.07251203025
-0.07100464184
-0.069665378
-0.06837873555
-0.1248925556
-0.1141340601
-0.1075302681
-0.09999448625
-0.09566915579
-0.09018068274
-0.08733546546
-0.08327979655
-0.08147544567
-0.07846835992
-0.07741807028
-0.07515583527
-0.07458922656
-0.07284443321
-0.07249821884
-0.07113878028
-0.07085347267
-0.06969824955
-0.06934145666
-0.06814491775
-0.06744546953
-0.066171005
-0.0650608935
-0.06363438354
-0.1140162669
-0.1041869986
-0.09816307778
-0.09128052422
-0.08733955601
-0.08232687882
-0.07973175525
-0.0760269132
-0.07437219781
-0.07162652449
-0.07065350393
-0.06859737622
-0.06807309503
-0.0665092384
-0.06621762677
-0.06502472342
-0.06483385043
-0.063845148
-0.06362116494
-0.06263845198
-0.06214797974
-0.06102325526
-0.06010603681
-0.0584183544
-0.1029128211
-0.09401763424
-0.08854377599
-0.08230139264
-0.07870470951
-0.07415015237
-0.07177700137
-0.0684069915
-0.0668954391
-0.06439602932
-0.06350182184
-0.06163472397
-0.06113769616
-0.05973825534
-0.05946518683
-0.05842582185
-0.05829207384
-0.0574529008
-0.05732975452
-0.05652964198
-0.05620953749
-0.05519005868
-0.05442152079
-0.05244745584
-0.09136626894
-0.08345700276
-0.07859884359
-0.07304685718
-0.06985957075
-0.06580371431
-0.06369932024
-0.06069235402
-0.0593461651
-0.05711355615
-0.05631234023
-0.05465138491
-0.05420920351
-0.05298250498
-0.05275785689
-0.05187166915
-0.05179851429
-0.05111886379
-0.0510951462
-0.05049460796
-0.05036731375
-0.04949618276
-0.04892802461
-0.04678325251
-0.07965998685
-0.07273867149
-0.06847133647
-0.0635978008
-0.06078718785
-0.05721389621
-0.05535277231
-0.05269115567
-0.05149419124
-0.04950462296
-0.04877456462
-0.04728424649
-0.0468536598
-0.04575370711
-0.04551824634
-0.0447316481
-0.04465806959
-0.0440623145
-0.04405949598
-0.04354616818
-0.0434849648
-0.04269689223
-0.04223357632
-0.04012220451
-0.06757847251
-0.06168861253
-0.05806457142
-0.05391062603
-0.05152815518
-0.04847120802
-0.04689286466
-0.04460254037
-0.04358284593
-0.04185805193
-0.04123083399
-0.03992680451
-0.0395489439
-0.03857247003
-0.03834820456
-0.03763240071
-0.03753502371
-0.03696876646
-0.03693460648
-0.03641289605
-0.0363248284
-0.0355726426
-0.03514902253
-0.03325920693
-0.05542279544
-0.05056185334
-0.04756043367
-0.04411487273
-0.0421341389
-0.03957971254
-0.03826138289
-0.0363271523
-0.03546570126
-0.03398610449
-0.03343732325
-0.03229294505
-0.03193269636
-0.03104758605
-0.03079290808
-0.03011315911
-0.02993758107
-0.02936741949
-0.02921475028
-0.02867066354
-0.02844579789
-0.02778213476
-0.02734072592
-0.02595272641
-0.04294924186
-0.03915334069
-0.03681353865
-0.03410860241
-0.03256653768
-0.03054130511
-0.02951093339
-0.02795460555
-0.02727022884
-0.02605584227
-0.02560411699
-0.02463654956
-0.02431700098
-0.02352875947
-0.02325938549
-0.0226054147
-0.02235029888
-0.02175468623
-0.02147132397
-0.02086180072
-0.02046125981
-0.01983994502
-0.01932979785
-0.01856498366
-0.03049839349
-0.02775928779
-0.02606422679
-0.0240894299
-0.02296612367
-0.0214598997
-0.02070025668
-0.01951341101
-0.01899330693
-0.01803832694
-0.01767333905
-0.01688161364
-0.01659720829
-0.01591210741
-0.01563487845
-0.01501803149
-0.01469884833
-0.01409025289
-0.013683462
-0.01300666328
-0.01240200972
-0.01177071396
-0.0110380715
-0.01097345677
-0.01778312918
-0.0161299312
-0.01510509396
-0.0138836931
-0.01320142093
-0.0122331283
-0.01175907235
-0.01095731428
-0.01060512986
-0.009924685642
-0.009640137014
-0.00904315105
-0.008785329891
-0.008228718536
-0.007942543767
-0.007398674773
-0.007029188595
-0.006475457092
-0.005995757317
-0.005382767427
-0.004721511141
-0.004225753518
-0.003526205427
-0.003931334788
-0.005190372239
-0.004608735239
-0.004240826653
-0.003763094273
-0.003508450415
-0.003071820995
-0.00287281245
-0.002454290988
-0.002266346705
-0.001865040049
-0.001665457993
-0.001277438667
-0.001057873978
-0.0006583837011
-0.0003852549308
3.488462191e-05
0.0004095905765
0.0008159003866
0.001271534509
0.001657559215
0.002165152926
0.002353758947
0.002696574005
0.002131431113
0.007609387394
0.007097676465
0.006796405788
0.006516397123
0.006334275083
0.00622819834
0.00614611299
0.006172562313
0.006198349845
0.006313053784
0.006442256355
0.006609618645
0.006809329236
0.007029094351
0.007288480609
0.007558658893
0.007911933462
0.00815702172
0.008559646933
0.008726758992
0.009074874654
0.00904113172
0.009156184731
0.008533883574
0.02019288809
0.01860783201
0.01764719765
0.01661833692
0.01600718024
0.01536131117
0.01500405275
0.01463629108
0.01449791743
0.01431932711
0.01436304357
0.01430204907
0.01445939944
0.01449670664
0.01472182729
0.01485172007
0.01515851017
0.01527945798
0.01559913521
0.01562669744
0.0158154579
0.01568904753
0.01564534582
0.01507629938
0.03291415633
0.03024235577
0.02862310542
0.02684097169
0.02580301662
0.02461416601
0.02397899419
0.02321435476
0.02290701512
0.02243588155
0.02239814508
0.02211012824
0.02224099757
0.02208467878
0.02228491051
0.02224584327
0.02249615636
0.02246003795
0.02269167417
0.02253283334
0.02256572267
0.02229136394
0.02208948654
0.02151776037
0.04533999193
0.0416057779
0.03933402548
0.0368063269
0.03534473091
0.03361278792
0.03270538628
0.03153851288
0.03106391052
0.03029116998
0.03015755781
0.02963628263
0.02971337659
0.0293698363
0.02953056484
0.02934594927
0.02954978262
0.02940469014
0.02957230205
0.02930301714
0.02923131693
0.02885586322
0.02853310657
0.0279571824
0.05781582122
0.0530159692
0.05010567695
0.04683858939
0.04496674415
0.04269701502
0.04151639649
0.03995039823
0.03929087376
0.03822428506
0.03797634663
0.03723965582
0.03726456143
0.03675260208
0.03689116772
0.03656952493
0.03673404014
0.03650066466
0.03661525944
0.03629262941
0.03617757991
0.03574312682
0.03536145537
0.03472087341
0.06993865204
0.06409968792
0.06055235094
0.05655172422
0.05426794676
0.05145714058
0.05001162966
0.04803731318
0.04720898315
0.04583265345
0.04547410795
0.04450221756
0.04444928623
0.04375380966
0.04383209243
0.04336297008
0.04347065989
0.04313219505
0.04319028064
0.0427985306
0.042633031
0.04210805278
0.04164460706
0.04087086653
0.08200065684
0.07513183034
0.07097524179
0.06625914614
0.06358982501
0.06025339001
0.05854817149
0.05617520768
0.05515194102
0.05347671368
0.05296383476
0.05177999698
0.05162205136
0.05077852611
0.05080778446
0.05022376042
0.05030839213
0.04989237166
0.04993136789
0.0495136116
0.04935545445
0.0487885204
0.0483080167
0.04739594748
0.09367836786
0.08580575244
0.08103511704
0.07560676321
0.07254223546
0.06867346185
0.06671557664
0.06393102921
0.06274588903
0.06074912756
0.06012530437
0.05869469073
0.05845179311
0.05742397722
0.05738672339
0.05667140508
0.05670944806
0.05623276478
0.05626289096
0.05588638223
0.05579678806
0.05530877878
0.05493737292
0.05391524849
0.1051600411
0.09630772188
0.09096505505
0.08485544205
0.08143789059
0.07706457245
0.07487469643
0.0716983575
0.0703326594
0.06802865305
0.06723706356
0.06557511424
0.06517725928
0.06397887084
0.06381902052
0.06295858314
0.06290395154
0.0622843485
0.06222967989
0.06172210192
0.0615545687
0.06093627095
0.06047653657
0.05932673135
0.1162540349
0.1064450077
0.100517559
0.0937269232
0.08993326046
0.08504549827
0.08261568949
0.07903162692
0.07751415681
0.07487572731
0.07398471297
0.07204164225
0.07157359349
0.07012515574
0.06991139892
0.06879770127
0.06868838814
0.06778242936
0.06764583999
0.06681955774
0.06651562657
0.06559413941
0.06492842769
0.06367010068
0.1269950184
0.1162699807
0.109813203
0.1023852289
0.0982748069
0.09291362315
0.09029009369
0.08633337795
0.0846786364
0.08173604586
0.08071936579
0.07852699087
0.07792887435
0.07627245766
0.07592941647
0.07462285928
0.07438747235
0.07327951573
0.07301099354
0.07197104847
0.07151880153
0.07039144578
0.06956327285
0.06817125742
0.1373709514
0.1257479074
0.1187410252
0.1106738591
0.1062065976
0.1003609637
0.09750505186
0.09316015231
0.09135315405
0.0880829155
0.08696226696
0.08447677897
0.0838003846
0.08185615338
0.08143886783
0.07981285781
0.07947411761
0.07798843947
0.07755127985
0.07608616406
0.07538431131
0.07386876233
0.07275304834
0.07120007637
0.1472221886
0.1347590104
0.1272682149
0.1186158492
0.1138654021
0.1075860401
0.1045717989
0.09988643806
0.09799183559
0.09444101936
0.09326552933
0.09054011822
0.08981960418
0.08765999297
0.08719497786
0.08536162961
0.08495573918
0.08326203469
0.0827275275
0.08105033393
0.08021266105
0.07849318713
0.07720719623
0.07549645064
0.1567512562
0.1434602991
0.13545966
0.1262205603
0.1211335854
0.1144131423
0.1111705262
0.1061376431
0.1040813443
0.1002460203
0.09894666757
0.09598025863
0.09515439827
0.09278273543
0.09221541396
0.09019237175
0.08967079079
0.08782024227
0.08715424415
0.08536214862
0.08439430508
0.08258142057
0.0811763115
0.07935677181
0.165580396
0.1515357545
0.1430977779
0.1333321647
0.1279886344
0.1208795543
0.1174986653
0.1121647121
0.110047048
0.1059673027
0.1046548793
0.1014796039
0.1006672078
0.09810538287
0.09755356871
0.09535000803
0.09481779883
0.09280246626
0.09208817723
0.09015040577
0.08910113235
0.08715090521
0.08562763892
0.08368416778
0.174141023
0.1593500943
0.1504490704
0.1401586727
0.1345034807
0.1270074971
0.1234073976
0.1177821576
0.1155023615
0.1112052607
0.1097653838
0.1064360482
0.1055181747
0.1028617646
0.1022208729
0.09998512268
0.09937921108
0.0974004675
0.09663509485
0.09478555667
0.09371619256
0.09182913709
0.0902906417
0.08826874428
0.1818368109
0.1663876441
0.1570976372
0.1463450886
0.1404545726
0.1326185499
0.1288850161
0.1230001781
0.1206557191
0.1161522588
0.1146922561
0.1111900989
0.110275092
0.1074672033
0.1068310669
0.1044638854
0.1038496482
0.1017657977
0.1009778075
0.09904850556
0.09794540185
0.09598810511
0.09439559736
0.09229157277
0.1893166098
0.1732132676
0.1635142866
0.1523061858
0.1461362729
0.1379727186
0.1340404951
0.1279231584
0.12543604
0.1207788621
0.1192196465
0.1156329433
0.1146541955
0.1118245863
0.1111549489
0.108821433
0.1082028892
0.1061858241
0.1054167419
0.1035460401
0.1024598152
0.1005119925
0.09890315575
0.09671911305
0.1957909566
0.1791323932
0.1690967751
0.1574965765
0.1511133534
0.1426623787
0.1385980701
0.1322650437
0.1297003698
0.1248763043
0.1232724621
0.1195511031
0.1185400103
0.1156024238
0.1149007567
0.1124888255
0.1118442335
0.1097689386
0.1089832903
0.107055596
0.1059443273
0.1039399455
0.1022922963
0.1000360738
0.2020889035
0.1848778101
0.174494361
0.1625126882
0.1558896358
0.1471703152
0.1429371615
0.1364223718
0.1337462982
0.1288110399
0.1271482855
0.12337117
0.1223444348
0.1193931715
0.118705414
0.1163086195
0.1156998049
0.1136387725
0.1128967384
0.1109492758
0.1098536237
0.1077974421
0.1061201019
0.1037693276
0.2072761326
0.1896190372
0.178957435
0.1666593736
0.1598519184
0.1509026489
0.1465472936
0.1398651136
0.1371106719
0.1320531369
0.1303409061
0.1264741277
0.1254122875
0.1224028322
0.1216911083
0.119270694
0.1186615057
0.1165925253
0.1158668946
0.1139027576
0.1128066086
0.1107160825
0.1090094154
0.1065621234
0.2123049275
0.1942050398
0.1832627706
0.1706604282
0.1636579179
0.1544969725
0.1500058689
0.1431826742
0.1403456289
0.1352007639
0.1334570458
0.1295367913
0.128482321
0.1254354361
0.1247499154
0.1222950406
0.121718044
0.1195976226
0.1188933516
0.1168501919
0.115737363
0.1135479309
0.1117767698
0.1091835426
0.2161588765
0.197726971
0.1865718764
0.1737335587
0.1665847847
0.1572550653
0.1526636786
0.1457238226
0.1428233133
0.1376022575
0.1358254878
0.1318600247
0.1307950799
0.1277323308
0.1270567314
0.1246160943
0.1240740215
0.1219826278
0.1213253814
0.1193071324
0.1182279651
0.1160249179
0.1142413558
0.1115147767
0.2198472385
0.2010887138
0.1897248097
0.1766617656
0.169366022
0.1598795932
0.1551852993
0.1481399679
0.1451778421
0.1398882573
0.1380898155
0.1340762155
0.1330185481
0.1299161991
0.129261133
0.1267869033
0.1262725948
0.1241489304
0.1235208964
0.1214650042
0.120401219
0.1181347397
0.1163242429
0.1134316608
0.222337656
0.2033643495
0.1918588521
0.1786431786
0.1712471068
0.1616540619
0.1568897157
0.1497761539
0.1467720339
0.1414458165
0.1396328875
0.1356063091
0.1345570783
0.1314607918
0.1308316831
0.1283808492
0.1279081779
0.1258163241
0.125238595
0.1232112979
0.1221954567
0.1199267484
0.1181326914
0.1150985491
0.2246321892
0.20545309
0.1938140606
0.1804553331
0.1729628599
0.1632682395
0.1584340695
0.1512502537
0.1482016839
0.1428283852
0.1409957077
0.1369364226
0.1358852284
0.1327666737
0.1321441501
0.1296865613
0.1292288019
0.1271506851
0.1266026509
0.1246098111
0.1236463897
0.1214132657
0.1196945316
0.1165434114
0.2257417507
0.2064668868
0.1947615103
0.1813346266
0.1737926352
0.1640523326
0.1591819004
0.1519731842
0.1489032642
0.1435230814
0.141686451
0.137631926
0.1365915421
0.1334825604
0.1328780666
0.1304319052
0.1299943204
0.1279260341
0.1273973045
0.1254081943
0.1244571854
0.1222232182
0.1205094978
0.117340814
0.2266081444
0.2072510987
0.1954895967
0.1820030987
0.1744172948
0.1646318948
0.1597266464
0.1524845492
0.1493893143
0.1439858712
0.1421343928
0.1380639739
0.1370175722
0.1338974116
0.1332912213
0.1308382333
0.1303995304
0.128324922
0.1277903144
0.1257840816
0.1248045033
0.1225496397
0.1207764339
0.1176892291
0.2263307705
0.2069974311
0.1952467887
0.1817764962
0.1741943001
0.164422416
0.1595158434
0.1522880067
0.1491903114
0.1438032967
0.1419530073
0.1378980707
0.1368571772
0.1337451338
0.133141946
0.130687487
0.1302430259
0.1281594078
0.1276107796
0.125588077
0.1245823689
0.1223302541
0.1205445066
0.1175653389
0.2257543506
0.2064633173
0.1947345992
0.1812891506
0.1737167283
0.1639576847
0.1590533137
0.151830736
0.1487304248
0.1433449949
0.1414895507
0.1374341864
0.136387658
0.1332715838
0.1326607445
0.1301979907
0.1297385144
0.1276458662
0.1270745242
0.1250464871
0.1240154149
0.1217898517
0.1200084498
0.1171495541
0.2240948443
0.2049462701
0.1933057566
0.1799601048
0.1724449751
0.1627576334
0.1578874942
0.1507170189
0.1476334251
0.1422867207
0.1404377887
0.1364099147
0.1353655752
0.1322623237
0.1316462352
0.1291812834
0.128703246
0.126602469
0.1260081176
0.1239703611
0.1229204553
0.12071166
0.1189418213
0.1161814597
0.2220807057
0.2030979201
0.1915563511
0.1783199398
0.1708674353
0.1612517968
0.1564212246
0.1492961368
0.1462347271
0.140915444
0.1390743592
0.1350613892
0.134015482
0.1309149549
0.1302919902
0.1278170061
0.1273248601
0.1252086905
0.1245951259
0.1225434127
0.1214786957
0.119276076
0.1175131299
0.1148356636
0.2190553815
0.2003320029
0.1889545631
0.1759003289
0.1685580409
0.1590721475
0.1543118187
0.1472777693
0.1442540521
0.138998145
0.1371716167
0.1332027726
0.1321604371
0.1290861126
0.1284603904
0.1259938393
0.1254872176
0.1233756894
0.1227446753
0.1207060706
0.1196423093
0.1174649573
0.1157259865
0.1131105788
0.2156282998
0.1971914132
0.1859872678
0.1731254127
0.1658958969
0.1565407527
0.1518553398
0.1449081812
0.1419311756
0.1367306148
0.1349260103
0.1309906357
0.1299505131
0.1268922716
0.1262572198
0.1237895757
0.123265897
0.1211446771
0.1204927358
0.1184509411
0.1173768881
0.1152058764
0.1134727233
0.1108960204
0.2112662142
0.1932027843
0.1822358713
0.169636777
0.1625683526
0.1534011291
0.1488218329
0.1420068202
0.1390905954
0.1339812201
0.1322016376
0.1283303912
0.1272951457
0.1242816698
0.1236461401
0.1212044052
0.1206769969
0.1185721452
0.1179145474
0.1158978423
0.1148340672
0.1126941848
0.1109883268
0.1084515424
0.2064704115
0.1888097941
0.1780865304
0.1657605664
0.1588507498
0.14987275
0.1453995943
0.1387141405
0.1358670731
0.1308435662
0.12910192
0.1252871039
0.1242635117
0.1212894643
0.120649549
0.1182387127
0.1177031416
0.1156327111
0.1149759429
0.1130158845
0.11198184
0.109913973
0.1082668398
0.1057791837
0.2008148637
0.1836376819
0.1732206245
0.1612352888
0.1545339545
0.1458016372
0.1414691483
0.1349591453
0.1321981809
0.1272970778
0.1255955566
0.1218666493
0.1208503741
0.1179388663
0.1172912833
0.1149235395
0.1143769937
0.1123328158
0.1116651199
0.1097275868
0.1086937686
0.1066520308
0.1050249626
0.1025740668
0.1947135252
0.1780496971
0.1679418536
0.1563070492
0.1498050452
0.1413191638
0.1371183769
0.1307812865
0.1281071036
0.1233239035
0.1216753305
0.1180244121
0.1170342717
0.1141742345
0.1135351659
0.1111999845
0.1106544866
0.1086269007
0.1079590592
0.1060302922
0.1050018729
0.1029745315
0.1013653989
0.09895750209
0.1878235507
0.1717477865
0.1620098243
0.1507895426
0.1445383755
0.1363541201
0.1323250959
0.1262078988
0.1236458935
0.119020364
0.1174348877
0.1138967624
0.1129314274
0.1101556443
0.1095185481
0.10724916
0.1066982558
0.1047220807
0.1040508441
0.102165714
0.101144738
0.09915946691
0.09757655347
0.09521373974
0.1804979298
0.1650390802
0.1556709009
0.1448744037
0.1388585201
0.130976131
0.127098664
0.1211985249
0.118733718
0.114261659
0.1127359097
0.1093025681
0.1083697596
0.1056621073
0.1050382563
0.1028077793
0.1022567062
0.1002940969
0.09961222986
0.09772456154
0.09668937451
0.0947080686
0.09312585934
0.09081672024
0.1724495067
0.1576766425
0.1487358629
0.138422408
0.1326934071
0.1251646814
0.1214837137
0.1158461455
0.1135147129
0.1092369352
0.107797275
0.1045080925
0.1036263765
0.1010301638
0.1004357343
0.09829793508
0.0977679099
0.09588753545
0.09522801723
0.09341708149
0.0924133123
0.09050494318
0.08896951017
0.08673113409
0.163997475
0.1499370448
0.1414218323
0.1316004757
0.1261393861
0.1189654633
0.1154527244
0.110076796
0.1078485052
0.1037649693
0.1023850547
0.09924084466
0.09839001687
0.09590519307
0.09532410956
0.0932780292
0.09275395494
0.0909578774
0.09030765938
0.08858353874
0.08760682762
0.08579093399
0.08431388327
0.08217270398
0.1548841305
0.1415995454
0.1335627598
0.1242864161
0.1191417412
0.112367704
0.1090683573
0.1039923636
0.1019085571
0.09805151819
0.09676851737
0.09379670674
0.09301063748
0.09066121788
0.09012593919
0.08819255072
0.0877067486
0.08601122352
0.08540112192
0.08377292539
0.08284795145
0.08112843147
0.07972355072
0.07768831897
0.1454181833
0.1329325058
0.1253724978
0.1166506244
0.1118048098
0.1054345508
0.1023206206
0.09754859743
0.09557587731
0.09195387627
0.09073361729
0.08795031965
0.08719807232
0.08500980713
0.08449625205
0.08271271441
0.0822521303
0.08070667019
0.08013955793
0.07866532024
0.07781346946
0.07624345981
0.07494493162
0.07304042516
0.1353506485
0.1237213563
0.1166845124
0.108562425
0.1040572761
0.09812658438
0.09523696199
0.0907953984
0.08896979576
0.08559907912
0.08447417521
0.08188384028
0.08119377165
0.07915727299
0.07868800157
0.07702910019
0.07660783796
0.07517182529
0.07465053035
0.07328144444
0.07249430691
0.07103544482
0.06983074539
0.06805928636
0.1249955954
0.114241633
0.1077279726
0.1002155547
0.096039135
0.09055518449
0.08787048301
0.08376886809
0.0820677335
0.07896435133
0.07791305224
0.07554138551
0.07489681325
0.0730485478
0.0726158177
0.07112704513
0.07074880808
0.06947174492
0.06901088811
0.06779241566
0.06709093093
0.06577500778
0.0646835691
0.063053128
0.1141003061
0.1042728301
0.09832119865
0.09145593736
0.0876410724
0.08263028248
0.0801787369
0.07643227235
0.07487902202
0.07204572407
0.07108569821
0.06892179771
0.06833345765
0.06664876696
0.06625521557
0.06490044313
0.06455935231
0.06339960645
0.06298655027
0.06188116673
0.06125098768
0.06005609287
0.05906963902
0.05758562628
0.1029909779
0.09410421148
0.0887165536
0.08250777498
0.07904949974
0.07452065759
0.07229447483
0.0689148602
0.06750254894
0.06495627601
0.06408439968
0.06215094354
0.06162134995
0.06012658501
0.05978042011
0.05858515787
0.05829287873
0.05726981437
0.05691550441
0.05593305058
0.05538015673
0.05430735789
0.05342527319
0.05208431102
0.09140750474
0.08350590684
0.07871344419
0.07319164727
0.07011375419
0.06608623702
0.06410282282
0.06109878273
0.05983815736
0.05757720347
0.05679719338
0.0550833996
0.05460948773
0.05328806519
0.05298073758
0.0519277094
0.05167280007
0.05077409666
0.05046801144
0.04960479369
0.04912373494
0.04817746048
0.04740211315
0.04621267712
0.07968676923
0.07277930345
0.06858483813
0.0637570588
0.06105978162
0.05754093416
0.05580119839
0.05318183247
0.05207690143
0.05011216091
0.04943196753
0.0479488002
0.04754136766
0.04640116466
0.04614355992
0.04523434417
0.04502437224
0.04424407309
0.04398797355
0.0432326123
0.04281913199
0.04198777204
0.04131137525
0.04026849032
0.06756460601
0.0616887253
0.05811659038
0.05400768033
0.05170751232
0.0487127674
0.04722631339
0.04499914085
0.04405283623
0.04238575749
0.04180238076
0.04054824662
0.04020012592
0.03924044468
0.03902387954
0.03826222427
0.03808989581
0.03743771525
0.03722806212
0.03659461079
0.0362501175
0.03554746904
0.0349760085
0.03408724579
0.05538173953
0.05054069987
0.04759274629
0.0442056746
0.04230463394
0.03983705951
0.0386079495
0.03677599372
0.03599520975
0.03462759727
0.03414982945
0.0331233555
0.03284287957
0.03205741599
0.03188712331
0.03126152938
0.03112742299
0.03058857923
0.03042163366
0.02989557446
0.02961391379
0.02902959133
0.02855695685
0.02781970769
0.04287702535
0.03910102695
0.03679575488
0.03415085463
0.03266044178
0.03073374718
0.02976753354
0.02833995976
0.02772508052
0.02666386228
0.0262883631
0.02549690182
0.02527914573
0.02467787922
0.02454958982
0.02407332628
0.02397540682
0.02356517886
0.02344162711
0.02303761853
0.02282182373
0.02236687443
0.02199766384
0.02141669185
0.03038629631
0.02767258482
0.02600915182
0.02410414571
0.02302497855
0.02163647026
0.02093568159
0.01990852763
0.0194635827
0.01870247585
0.01843327977
0.01786741448
0.01771456079
0.01728508468
0.01719801692
0.01685714572
0.01679191463
0.01649715126
0.01641217782
0.01612004798
0.01596564738
0.01563423081
0.01536540909
0.01494008545
0.01765892592
0.01603025172
0.01502220413
0.01387339916
0.01321377584
0.01237612247
0.01194486207
0.01132900788
0.01105486516
0.01060455361
0.01044067994
0.0101120679
0.01002284612
0.009778024621
0.009731780267
0.009539456324
0.009507793847
0.009340361966
0.009295810994
0.009124785697
0.009034035909
0.008832004822
0.00866589376
0.008398341929
0.005018134481
0.004465606273
0.004108313248
0.00370786451
0.003465182693
0.00316995254
0.003007007509
0.00279258007
0.002688525092
0.002537429822
0.002477534189
0.002373322475
0.002344990677
0.002271831549
0.002262347239
0.002206923812
0.002204209284
0.00215503978
0.002146735534
0.002090878035
0.002060829908
0.001985296576
0.001920415762
0.001810632856
-0.007770535478
-0.007231770919
-0.006929288716
-0.006569277281
-0.006389125419
-0.006130895627
-0.006021954022
-0.005823900612
-0.005755901555
-0.005596263435
-0.005550953123
-0.00541901141
-0.005385211321
-0.005275550999
-0.005246689924
-0.005155724595
-0.00512765744
-0.005051546687
-0.005021864412
-0.004958128553
-0.004926178446
-0.004873044663
-0.00483597088
-0.004787795306
-0.02040177263
-0.01878669053
-0.01783312254
-0.01672562863
-0.01612875387
-0.01533018035
-0.01495424011
-0.01435762955
-0.01412219598
-0.01366615692
-0.013520586
-0.01316616232
-0.01307552873
-0.01279486462
-0.0127328478
-0.01250466925
-0.01245040389
-0.01225539759
-0.01219140016
-0.0120119921
-0.01192057902
-0.01174073407
-0.01160305493
-0.0113972317
-0.0330906927
-0.03039186
-0.02878274692
-0.0269205049
-0.02590352932
-0.02455646108
-0.02391085401
-0.02290637859
-0.0225012766
-0.02173881379
-0.02149086124
-0.02090419736
-0.02075453268
-0.02029449025
-0.02019711587
-0.01982551223
-0.01974307701
-0.01942535829
-0.01932552464
-0.01902869688
-0.01887702657
-0.01857029038
-0.01833217562
-0.01796989615
-0.04555300119
-0.04179125876
-0.03953894916
-0.03693915225
-0.03551090377
-0.03363163241
-0.03272354513
-0.03132734774
-0.03075913994
-0.02970574155
-0.02936177449
-0.02855665653
-0.02835403462
-0.02772581457
-0.02759850381
-0.02709182098
-0.02698578068
-0.02655114432
-0.02641924031