/*--------------------------------*- C++ -*----------------------------------*\
| =========                 |                                                 |
| \\      /  F ield         | OpenFOAM: The Open Source CFD Toolbox           |
|  \\    /   O peration     | Version:  2.2.0                                 |
|   \\  /    A nd           | Web:      www.OpenFOAM.org                      |
|    \\/     M anipulation  |                                                 |
\*---------------------------------------------------------------------------*/
FoamFile
{
    version     2.0;
    format      ascii;
    class       volVectorField;
    location    "15";
    object      s;
}
// * * * * * * * * * * * * * * * * * * * * * * * * * * * * * * * * * * * * * //

dimensions      [0 1 -1 0 0 0 0];

internalField   nonuniform List<vector> 
3012
(
(0.253641 -0.0444761 0)
(-0.0432445 -0.252134 0)
(-0.254246 0.0458569 0)
(0.0428385 0.252886 0)
(-0.0854605 0.47122 0)
(0.469598 0.0824413 0)
(0.0826381 -0.469604 0)
(-0.471655 -0.0823293 0)
(0.183283 -0.181393 0)
(-0.181169 -0.182397 0)
(0.180565 0.182461 0)
(-0.184696 0.184458 0)
(-0.00727641 -0.172767 0)
(0.173753 -0.00888308 0)
(-0.173823 0.00894994 0)
(0.0068186 0.173345 0)
(-0.117632 0.456443 0)
(0.452711 0.113719 0)
(0.113396 -0.452472 0)
(-0.454675 -0.113202 0)
(-0.0629626 0.132578 0)
(0.130623 0.0618867 0)
(-0.131417 -0.0620978 0)
(0.0626479 -0.13216 0)
(-0.284317 0.00439268 0)
(-0.00228484 -0.282197 0)
(0.00120005 0.283655 0)
(0.283464 -0.0034021 0)
(0.158277 -0.0856976 0)
(-0.158131 0.0873207 0)
(0.0854369 0.15637 0)
(-0.0854027 -0.156455 0)
(0.0723924 0.156192 0)
(-0.158073 0.074326 0)
(0.158473 -0.0728504 0)
(-0.0723474 -0.156299 0)
(-0.0113942 -0.303428 0)
(-0.305261 0.0134555 0)
(0.304231 -0.0121074 0)
(0.0100862 0.304548 0)
(-0.00615348 -0.156897 0)
(-0.157919 0.00734997 0)
(0.00556195 0.15758 0)
(0.157624 -0.00761939 0)
(0.0618309 0.161151 0)
(-0.061842 -0.161467 0)
(0.163832 -0.0625779 0)
(-0.163189 0.0638033 0)
(-0.0532977 -0.141192 0)
(-0.142898 0.0548364 0)
(0.143729 -0.053834 0)
(0.0536024 0.14088 0)
(0.24572 -0.0399144 0)
(-0.0385297 -0.244475 0)
(0.0381551 0.244847 0)
(-0.246237 0.0410541 0)
(0.226339 -0.371048 0)
(0.371197 0.226158 0)
(-0.234773 0.381915 0)
(-0.372309 -0.226177 0)
(0.203463 -0.410325 0)
(0.410314 0.203081 0)
(-0.211058 0.419925 0)
(-0.411847 -0.20326 0)
(0.00427712 -0.177624 0)
(0.178221 0.00265967 0)
(-0.178629 -0.00244208 0)
(-0.00464129 0.178383 0)
(-0.155109 -0.0273678 0)
(-0.0289303 0.155874 0)
(0.028995 -0.155303 0)
(0.154969 0.0277236 0)
(-0.124065 0.0986892 0)
(-0.0973416 -0.123115 0)
(0.0975811 0.12331 0)
(0.123488 -0.0971047 0)
(0.128498 -0.0783539 0)
(-0.128759 0.0795914 0)
(-0.0785366 -0.127351 0)
(0.0787346 0.127222 0)
(0.00705538 -0.191676 0)
(0.192306 0.00545329 0)
(-0.00750462 0.19225 0)
(-0.192513 -0.00518167 0)
(-0.149713 -0.00825275 0)
(-0.00937388 0.149941 0)
(0.00955018 -0.149119 0)
(0.149065 0.00852472 0)
(0.0685022 0.142279 0)
(-0.144404 0.0698583 0)
(0.144571 -0.0684996 0)
(-0.0682698 -0.142369 0)
(-0.191528 -0.18135 0)
(0.182194 -0.191724 0)
(0.190802 0.181369 0)
(-0.183774 0.194863 0)
(0.292939 0.125091 0)
(-0.128325 0.29662 0)
(0.125602 -0.292553 0)
(-0.293762 -0.124552 0)
(-0.1518 -0.028493 0)
(-0.0299496 0.152632 0)
(0.030021 -0.152105 0)
(0.151725 0.0288322 0)
(-0.120337 0.0981464 0)
(0.0972116 0.119661 0)
(-0.0969136 -0.119392 0)
(0.119707 -0.0966256 0)
(-0.124295 -0.0705945 0)
(0.0705091 -0.125807 0)
(0.123408 0.0704719 0)
(-0.0709695 0.126427 0)
(0.167626 -0.0460628 0)
(-0.16663 0.0469081 0)
(-0.0450326 -0.165076 0)
(0.0448346 0.164665 0)
(-0.0965842 -0.094913 0)
(0.0970402 0.0959451 0)
(-0.0951881 0.0970192 0)
(0.0944262 -0.0963345 0)
(0.131973 0.0389521 0)
(0.0393793 -0.132187 0)
(-0.0395316 0.132481 0)
(-0.130448 -0.0385781 0)
(-0.108242 -0.343354 0)
(0.344559 -0.10906 0)
(-0.346332 0.112295 0)
(0.10715 0.3438 0)
(-0.23902 -0.396709 0)
(0.238219 0.396691 0)
(-0.403504 0.248272 0)
(0.39754 -0.239634 0)
(-0.08776 -0.378392 0)
(0.379726 -0.088962 0)
(0.0870811 0.378928 0)
(-0.381237 0.0918586 0)
(-0.278559 -0.38397 0)
(-0.393436 0.290482 0)
(0.277746 0.383779 0)
(0.384426 -0.278705 0)
(-0.282008 0.0187651 0)
(0.0155931 0.281068 0)
(0.28115 -0.0175118 0)
(-0.0164608 -0.28004 0)
(-0.310841 0.32439 0)
(0.310541 0.300689 0)
(0.300556 -0.310717 0)
(-0.311584 -0.300342 0)
(-0.333776 0.293737 0)
(0.281956 0.324941 0)
(0.325146 -0.282617 0)
(-0.282713 -0.324983 0)
(0.0390813 0.137665 0)
(0.141748 -0.0395372 0)
(-0.0392107 -0.138862 0)
(-0.139964 0.0400644 0)
(-0.0583902 -0.14415 0)
(-0.146058 0.0599985 0)
(0.146778 -0.0588027 0)
(0.0586407 0.143844 0)
(-0.119847 -0.0768625 0)
(0.119024 0.0768229 0)
(-0.0769035 0.1212 0)
(0.0763981 -0.120506 0)
(0.34564 0.00666338 0)
(0.008238 -0.34501 0)
(-0.346599 -0.00533816 0)
(-0.00923533 0.346279 0)
(0.0769295 0.154629 0)
(-0.156481 0.0787373 0)
(0.156768 -0.0773001 0)
(-0.0769183 -0.154741 0)
(-0.273534 0.3298 0)
(-0.318787 -0.264191 0)
(0.264755 -0.317956 0)
(0.317804 0.264442 0)
(0.305072 -0.238415 0)
(-0.311287 0.24686 0)
(0.237452 0.304574 0)
(-0.238308 -0.304763 0)
(0.365417 -0.00531548 0)
(-0.00447034 -0.364856 0)
(-0.366544 0.00690175 0)
(0.00330365 0.365406 0)
(-0.0924056 0.171905 0)
(0.169744 0.0914207 0)
(0.0918888 -0.170573 0)
(-0.170203 -0.0911678 0)
(0.107471 -0.160816 0)
(-0.160492 -0.106828 0)
(-0.108036 0.162293 0)
(0.159951 0.1071 0)
(-0.123334 -0.0754043 0)
(0.122571 0.0753558 0)
(-0.075466 0.125308 0)
(0.0750296 -0.124654 0)
(-0.0939392 -0.167814 0)
(-0.169492 0.0961803 0)
(0.169476 -0.0944059 0)
(0.0937928 0.167775 0)
(0.00773226 -0.174656 0)
(0.175075 0.00619085 0)
(-0.00812 0.175402 0)
(-0.175383 -0.00606826 0)
(-0.0119942 -0.17526 0)
(-0.176422 0.0137929 0)
(0.176455 -0.0135994 0)
(0.0115137 0.175743 0)
(-0.0287477 -0.13472 0)
(-0.136107 0.0299374 0)
(0.0289114 0.133399 0)
(0.140117 -0.030546 0)
(0.0401627 -0.135828 0)
(0.135142 0.0391905 0)
(-0.133322 -0.0414417 0)
(-0.0396612 0.136368 0)
(-0.19168 -0.0105225 0)
(-0.0128563 0.191607 0)
(0.0123793 -0.190816 0)
(0.191182 0.0108482 0)
(-0.0995574 -0.0970958 0)
(0.0961406 -0.0997647 0)
(0.0997227 0.0978366 0)
(-0.0973553 0.100248 0)
(0.0872533 0.151713 0)
(0.15335 -0.0874949 0)
(-0.0872785 -0.151693 0)
(-0.153327 0.0891497 0)
(0.0447606 -0.138226 0)
(0.137239 0.0431676 0)
(-0.0449777 0.138776 0)
(-0.136147 -0.0432026 0)
(0.103222 0.0990167 0)
(-0.0986174 0.104344 0)
(0.0976392 -0.103175 0)
(-0.103273 -0.0981948 0)
(-0.165588 0.101231 0)
(-0.0990192 -0.16392 0)
(0.0989155 0.163938 0)
(0.165426 -0.0993661 0)
(-0.0626168 0.136947 0)
(0.134481 0.0609409 0)
(-0.135093 -0.0611676 0)
(0.0623405 -0.136448 0)
(0.0690819 -0.130877 0)
(-0.129397 -0.0690522 0)
(-0.0694634 0.131466 0)
(0.128677 0.0690145 0)
(-0.0977367 0.173234 0)
(0.170998 0.0966703 0)
(0.0971462 -0.171786 0)
(-0.171458 -0.0964098 0)
(0.105882 -0.167112 0)
(-0.106496 0.168648 0)
(-0.166846 -0.105178 0)
(0.166284 0.105461 0)
(-0.26125 -0.136223 0)
(0.137194 -0.260577 0)
(0.260425 0.136524 0)
(-0.139294 0.263927 0)
(0.0636084 0.129794 0)
(0.131871 -0.0639747 0)
(-0.0633828 -0.12937 0)
(-0.131828 0.0647684 0)
(-0.00599391 -0.143619 0)
(-0.144487 0.00675234 0)
(0.00536171 0.144444 0)
(0.143461 -0.00717491 0)
(-0.111541 0.175758 0)
(0.110825 -0.174059 0)
(0.173348 0.110397 0)
(-0.173965 -0.11002 0)
(-0.00687161 -0.159265 0)
(-0.160351 0.00831798 0)
(0.00648563 0.159833 0)
(0.16018 -0.00841123 0)
(-0.00306871 -0.172446 0)
(0.173234 -0.00460291 0)
(-0.173496 0.00477062 0)
(0.0027661 0.173066 0)
(0.272689 -0.0288741 0)
(-0.0275039 -0.271214 0)
(0.0269823 0.272231 0)
(-0.273427 0.0300857 0)
(0.036282 0.136719 0)
(-0.139143 0.0370646 0)
(0.141533 -0.036601 0)
(-0.0364277 -0.138115 0)
(-0.0267094 -0.407985 0)
(0.409649 -0.0280346 0)
(0.0254094 0.40908 0)
(-0.410742 0.0297247 0)
(-0.00318342 -0.431813 0)
(0.00166952 0.432851 0)
(0.432856 -0.00429755 0)
(-0.433957 0.00563413 0)
(0.0587283 0.159098 0)
(0.161932 -0.0594025 0)
(-0.0586837 -0.159478 0)
(-0.161155 0.0606258 0)
(-0.117315 0.17669 0)
(0.116582 -0.174902 0)
(0.174171 0.116146 0)
(-0.174827 -0.115742 0)
(-0.0487026 -0.160542 0)
(0.163261 -0.0496477 0)
(-0.162112 0.0505925 0)
(0.0485902 0.160012 0)
(0.269896 -0.0290025 0)
(-0.027818 -0.268704 0)
(0.027115 0.269563 0)
(-0.270706 0.0302572 0)
(-0.259592 -0.118571 0)
(0.119587 -0.25892 0)
(0.258859 0.118787 0)
(-0.121204 0.26182 0)
(-0.136691 -0.106026 0)
(-0.106886 0.138389 0)
(0.106322 -0.137076 0)
(0.136244 0.106403 0)
(0.00575772 -0.15055 0)
(-0.151334 -0.00457259 0)
(0.15058 0.00471495 0)
(-0.00572214 0.151618 0)
(0.0722401 -0.159707 0)
(0.158544 0.0715068 0)
(-0.0725285 0.160671 0)
(-0.158941 -0.0714101 0)
(0.284011 0.106662 0)
(-0.109589 0.28703 0)
(0.107552 -0.283873 0)
(-0.284809 -0.106138 0)
(-0.153603 -0.0124974 0)
(0.0139748 -0.153064 0)
(-0.0138579 0.153807 0)
(0.153025 0.0128254 0)
(-0.130233 0.0848618 0)
(0.129905 -0.0834819 0)
(-0.0837252 -0.128865 0)
(0.0839471 0.12871 0)
(-0.132228 0.0772191 0)
(0.132234 -0.0761003 0)
(-0.0762206 -0.130765 0)
(0.0762521 0.130543 0)
(0.085691 0.1188 0)
(-0.119923 0.0860419 0)
(0.119353 -0.0847972 0)
(-0.0851671 -0.118788 0)
(0.0192566 -0.145626 0)
(-0.145805 -0.017885 0)
(-0.0191232 0.145969 0)
(0.145372 0.0184535 0)
(-0.0268312 -0.134737 0)
(-0.136106 0.0275204 0)
(0.0274133 0.131938 0)
(0.141789 -0.0266012 0)
(0.0419827 0.131272 0)
(0.133993 -0.0425765 0)
(-0.133267 0.0428573 0)
(-0.0422615 -0.132233 0)
(0.087663 0.119779 0)
(-0.120812 0.0882588 0)
(-0.0872174 -0.119719 0)
(0.120279 -0.0868816 0)
(0.0210259 -0.147513 0)
(-0.147591 -0.0195486 0)
(0.147148 0.0199832 0)
(-0.0208472 0.147933 0)
(0.157482 -0.130447 0)
(-0.130215 -0.156536 0)
(0.129939 0.156685 0)
(-0.158036 0.132569 0)
(0.169494 -0.127061 0)
(-0.126765 -0.168404 0)
(-0.169979 0.129254 0)
(0.126498 0.168512 0)
(-0.171161 -0.063467 0)
(-0.0649253 0.172727 0)
(0.170848 0.0636598 0)
(0.0646334 -0.171766 0)
(0.135491 0.121477 0)
(0.121559 -0.135999 0)
(-0.122182 0.137649 0)
(-0.135824 -0.121184 0)
(0.0603008 0.166248 0)
(0.168859 -0.0612346 0)
(-0.168192 0.0624326 0)
(-0.0603594 -0.166538 0)
(-0.118788 0.195258 0)
(0.192705 0.117307 0)
(0.117912 -0.1933 0)
(-0.193382 -0.116999 0)
(-0.121498 0.205234 0)
(0.202594 0.119848 0)
(0.120588 -0.203259 0)
(-0.203297 -0.119552 0)
(0.13541 0.0824456 0)
(-0.0830365 0.137727 0)
(0.0825886 -0.136852 0)
(-0.136102 -0.08232 0)
(-0.0434876 0.200318 0)
(0.0429891 -0.19935 0)
(0.199258 0.0417884 0)
(-0.199617 -0.0413253 0)
(-0.0222652 -0.171775 0)
(0.173466 -0.0239541 0)
(0.0216746 0.17184 0)
(-0.173019 0.0240057 0)
(-0.131729 -0.290257 0)
(0.291443 -0.13227 0)
(-0.293572 0.136182 0)
(0.130959 0.290706 0)
(-0.0353268 0.207863 0)
(0.207035 0.0335137 0)
(0.0347518 -0.206917 0)
(-0.207378 -0.0329855 0)
(0.161202 0.37217 0)
(-0.376128 0.168255 0)
(0.373152 -0.163244 0)
(-0.162074 -0.371826 0)
(0.105065 0.114863 0)
(0.114411 -0.10476 0)
(-0.104918 -0.1144 0)
(-0.115175 0.106223 0)
(-0.0578837 -0.12422 0)
(0.12663 -0.0587558 0)
(0.0581598 0.12466 0)
(-0.12666 0.0590523 0)
(0.136636 -0.00964933 0)
(-0.137576 0.00934659 0)
(0.00889835 0.137196 0)
(-0.00913343 -0.136763 0)
(0.151293 0.0380776 0)
(0.0394878 -0.151934 0)
(-0.0395701 0.152474 0)
(-0.151111 -0.0377366 0)
(0.220773 0.0785712 0)
(-0.0801444 0.222731 0)
(-0.221356 -0.0781848 0)
(0.0794432 -0.220965 0)
(0.225417 0.0725891 0)
(-0.0744048 0.227033 0)
(-0.226028 -0.0722542 0)
(0.0735375 -0.22547 0)
(-0.0962614 -0.0965654 0)
(0.0953287 0.101295 0)
(-0.0973344 0.096696 0)
(0.0971206 -0.0948351 0)
(-0.243896 -0.0752707 0)
(-0.0780874 0.245442 0)
(0.243162 0.0758305 0)
(0.0766891 -0.243076 0)
(-0.0392022 0.134409 0)
(0.0378262 -0.134672 0)
(0.134323 0.0373553 0)
(-0.133645 -0.03396 0)
(0.483509 0.294302 0)
(0.294583 -0.483766 0)
(-0.315948 0.511074 0)
(-0.484779 -0.294705 0)
(-0.168633 -0.0595617 0)
(-0.0610553 0.170185 0)
(0.0607993 -0.169306 0)
(0.168377 0.0597839 0)
(-0.134019 0.0411592 0)
(0.0402604 0.132114 0)
(-0.04046 -0.13293 0)
(0.134872 -0.0408193 0)
(0.181268 0.303907 0)
(-0.308279 0.18799 0)
(0.304735 -0.182438 0)
(-0.182023 -0.303841 0)
(-0.0676688 0.237609 0)
(-0.236882 -0.0653032 0)
(0.236155 0.0657798 0)
(0.0667834 -0.236172 0)
(-0.0885427 0.138156 0)
(0.13585 0.0880948 0)
(0.0880612 -0.137195 0)
(-0.136475 -0.0878583 0)
(0.130693 0.120507 0)
(0.120546 -0.131219 0)
(-0.121159 0.132769 0)
(-0.131003 -0.120207 0)
(0.00108339 -0.183995 0)
(0.184777 -0.000547984 0)
(-0.00155055 0.184675 0)
(-0.185069 0.000767895 0)
(0.442412 0.210955 0)
(0.210649 -0.441675 0)
(-0.219461 0.452649 0)
(-0.443491 -0.210879 0)
(-0.132701 -0.108209 0)
(-0.109019 0.134391 0)
(0.108453 -0.133055 0)
(0.132297 0.108586 0)
(0.0678043 -0.159211 0)
(0.157966 0.0669389 0)
(-0.0681539 0.160061 0)
(-0.158329 -0.0668391 0)
(0.0772679 0.199468 0)
(-0.201215 0.0800576 0)
(-0.0774356 -0.199457 0)
(0.201072 -0.078397 0)
(0.0692154 0.144881 0)
(-0.1468 0.0707293 0)
(0.14706 -0.0693596 0)
(-0.0690889 -0.144922 0)
(0.427333 0.0377815 0)
(-0.0403419 0.428143 0)
(0.0382315 -0.426316 0)
(-0.428514 -0.0368702 0)
(0.0602018 -0.130833 0)
(-0.12836 -0.059183 0)
(-0.0604633 0.131183 0)
(0.127618 0.058952 0)
(-0.203913 0.0885704 0)
(0.0856153 0.202091 0)
(-0.0858679 -0.202131 0)
(0.203694 -0.0867386 0)
(0.0847906 -0.114018 0)
(-0.113645 -0.0848322 0)
(0.112997 0.0850938 0)
(-0.0853332 0.114771 0)
(0.0852056 -0.116907 0)
(-0.116476 -0.0854449 0)
(0.115842 0.0857283 0)
(-0.0858008 0.117748 0)
(-0.18839 0.0388642 0)
(0.0363733 0.186901 0)
(0.188681 -0.0381171 0)
(-0.0367561 -0.186925 0)
(-0.165149 -0.465281 0)
(0.164777 0.46567 0)
(0.467359 -0.166861 0)
(-0.469084 0.171007 0)
(-0.126689 0.124323 0)
(-0.122622 -0.125651 0)
(0.126057 -0.122702 0)
(0.122441 0.125931 0)
(-0.180333 0.0670994 0)
(0.0647639 0.17852 0)
(-0.0648378 -0.178681 0)
(0.180702 -0.0657567 0)
(0.0418765 0.188592 0)
(-0.0422517 -0.188592 0)
(0.190371 -0.0435857 0)
(-0.190087 0.0444599 0)
(0.0414582 0.138446 0)
(0.142635 -0.0419882 0)
(-0.140827 0.0426306 0)
(-0.0414122 -0.139599 0)
(-0.131992 0.124489 0)
(-0.122711 -0.130908 0)
(0.12252 0.131155 0)
(0.131461 -0.122789 0)
(0.0507776 -0.169766 0)
(-0.0509281 0.17057 0)
(0.169123 0.0494465 0)
(-0.16921 -0.0492401 0)
(0.048558 -0.174178 0)
(-0.0487423 0.175021 0)
(0.173643 0.0472305 0)
(-0.173807 -0.0469589 0)
(0.0438609 0.195726 0)
(0.197374 -0.0455205 0)
(-0.0441679 -0.195669 0)
(-0.19724 0.0464769 0)
(-0.101158 -0.114114 0)
(0.114089 -0.100876 0)
(0.101313 0.114467 0)
(-0.114859 0.102328 0)
(-0.182642 0.0698349 0)
(-0.0674886 -0.180965 0)
(0.0673454 0.180828 0)
(0.182923 -0.0683914 0)
(-0.0184553 -0.169951 0)
(0.171449 -0.0201574 0)
(0.0179202 0.170131 0)
(-0.171144 0.0201674 0)
(0.149265 0.0348216 0)
(0.0361503 -0.149774 0)
(-0.0362002 0.150301 0)
(-0.149003 -0.0344443 0)
(0.562863 -0.128937 0)
(-0.12681 -0.559572 0)
(0.12622 0.559617 0)
(-0.562165 0.129956 0)
(0.0387924 0.201771 0)
(-0.0391556 -0.201593 0)
(0.203128 -0.040588 0)
(-0.20317 0.0414143 0)
(-0.185306 0.0898405 0)
(-0.0873675 -0.183579 0)
(0.185231 -0.0880398 0)
(0.0871731 0.18344 0)
(0.168491 0.177408 0)
(-0.179327 0.171993 0)
(0.178222 -0.169286 0)
(-0.169009 -0.17732 0)
(-0.14065 -0.443854 0)
(0.139683 0.444312 0)
(0.445769 -0.141856 0)
(-0.447492 0.145619 0)
(0.379058 0.0531557 0)
(0.0541593 -0.378092 0)
(-0.380321 -0.0525776 0)
(-0.0559361 0.380394 0)
(0.200884 -0.104928 0)
(-0.104211 -0.199424 0)
(-0.201274 0.107057 0)
(0.103924 0.199506 0)
(0.0703092 0.160639 0)
(-0.162578 0.0723615 0)
(-0.070277 -0.160839 0)
(0.163013 -0.0708538 0)
(0.253651 -0.106388 0)
(-0.105588 -0.252308 0)
(0.105028 0.252629 0)
(-0.254853 0.109078 0)
(-0.0334273 -0.139648 0)
(0.144172 -0.0339965 0)
(0.0337254 0.137631 0)
(-0.140607 0.0345015 0)
(-0.0569366 -0.127019 0)
(0.12989 -0.058287 0)
(-0.129819 0.0586953 0)
(0.0585096 0.126953 0)
(0.256645 -0.118106 0)
(-0.117506 -0.255376 0)
(-0.258045 0.121146 0)
(0.116924 0.255637 0)
(-0.0316998 -0.14182 0)
(-0.142939 0.0328095 0)
(0.145848 -0.0328756 0)
(0.0314858 0.140297 0)
(0.138842 -0.0127588 0)
(0.0109438 0.139163 0)
(-0.139623 0.0112755 0)
(-0.011445 -0.138971 0)
(-0.184012 0.0854753 0)
(0.082805 0.182085 0)
(-0.0830523 -0.182301 0)
(0.184044 -0.0837859 0)
(-0.155193 0.353655 0)
(-0.349351 -0.149887 0)
(0.348293 0.150287 0)
(0.150413 -0.347795 0)
(0.196602 -0.100581 0)
(-0.099892 -0.195086 0)
(0.0996173 0.19512 0)
(-0.196886 0.102584 0)
(-0.0476755 0.319173 0)
(0.317968 0.0453395 0)
(0.0458111 -0.317024 0)
(-0.318796 -0.0442493 0)
(0.387089 0.256369 0)
(0.256527 -0.387033 0)
(-0.266997 0.400575 0)
(-0.388025 -0.256266 0)
(-0.315284 0.164035 0)
(0.158134 0.311773 0)
(-0.158713 -0.311494 0)
(0.312711 -0.159633 0)
(0.140713 0.343861 0)
(0.344821 -0.1424 0)
(-0.347343 0.146485 0)
(-0.141394 -0.343434 0)
(0.0312462 -0.30821 0)
(-0.0327282 0.309992 0)
(-0.309957 -0.0293549 0)
(0.30897 0.0301975 0)
(0.0586469 0.134368 0)
(0.136625 -0.058948 0)
(-0.0581644 -0.134052 0)
(-0.136326 0.059638 0)
(0.0616248 0.135287 0)
(-0.137413 0.0628125 0)
(0.137668 -0.0618976 0)
(-0.0613822 -0.135269 0)
(0.284638 -0.504339 0)
(0.504943 0.284738 0)
(-0.298343 0.523572 0)
(-0.505916 -0.285066 0)
(0.166538 -0.0845865 0)
(-0.166452 0.0862594 0)
(0.0839586 0.164644 0)
(-0.0840807 -0.164773 0)
(-0.208255 0.0725232 0)
(0.20807 -0.0709339 0)
(-0.0699627 -0.206407 0)
(0.0696937 0.206349 0)
(-0.0386855 0.1423 0)
(0.0384804 -0.141826 0)
(0.141339 0.0372192 0)
(-0.140282 -0.0368618 0)
(-0.141369 -0.0412895 0)
(-0.0432271 0.143006 0)
(0.14177 0.0414745 0)
(0.0430046 -0.142641 0)
(-0.105505 0.100741 0)
(-0.0997585 -0.104921 0)
(0.104421 -0.0993192 0)
(0.0997324 0.105595 0)
(-0.160681 -0.563916 0)
(0.565853 -0.162032 0)
(0.160714 0.563964 0)
(-0.564253 0.162921 0)
(-0.0546214 -0.137817 0)
(-0.139816 0.0560282 0)
(0.14043 -0.055253 0)
(0.054895 0.137659 0)
(-0.103993 0.105031 0)
(0.103108 -0.103809 0)
(0.103925 0.104342 0)
(-0.103881 -0.103415 0)
(-0.132087 0.0310293 0)
(0.0310288 0.130663 0)
(-0.030904 -0.131751 0)
(0.135346 -0.0308689 0)
(-0.103292 0.0978676 0)
(-0.0972605 -0.102521 0)
(0.102366 -0.0964425 0)
(0.0966847 0.103888 0)
(-0.0371448 0.13854 0)
(0.137965 0.0357537 0)
(0.0365731 -0.138327 0)
(-0.137511 -0.034537 0)
(0.0727604 -0.133975 0)
(-0.133145 -0.072527 0)
(-0.0731439 0.134689 0)
(0.132406 0.0725054 0)
(0.364357 0.0304132 0)
(0.0316398 -0.36334 0)
(-0.365435 -0.0294559 0)
(-0.0334864 0.365513 0)
(0.0518094 0.224762 0)
(-0.22643 0.0546169 0)
(-0.0521517 -0.224502 0)
(0.226057 -0.0532777 0)
(0.280501 -0.0509677 0)
(-0.0498626 -0.278831 0)
(-0.281135 0.0526659 0)
(0.0491841 0.280111 0)
(0.218577 0.165764 0)
(0.166559 -0.219148 0)
(-0.21926 -0.165732 0)
(-0.168347 0.222434 0)
(-0.045048 -0.293172 0)
(0.293965 -0.0462029 0)
(-0.294969 0.0478603 0)
(0.0444588 0.293608 0)
(-0.0219022 -0.306289 0)
(0.306964 -0.0229439 0)
(-0.307909 0.0245977 0)
(0.0208868 0.307116 0)
(0.132499 0.258838 0)
(-0.133075 -0.258617 0)
(-0.261468 0.137071 0)
(0.25984 -0.133536 0)
(-0.126319 0.10451 0)
(0.125759 -0.10293 0)
(-0.103092 -0.12536 0)
(0.103163 0.125584 0)
(-0.184845 -0.0667547 0)
(-0.0684523 0.186241 0)
(0.0680631 -0.1851 0)
(0.184571 0.0670528 0)
(0.237663 0.159169 0)
(0.159856 -0.238252 0)
(-0.238452 -0.158968 0)
(-0.161907 0.241698 0)
(-0.133531 0.146074 0)
(0.133028 -0.144246 0)
(0.143669 0.132539 0)
(-0.144057 -0.132327 0)
(0.201174 0.0939727 0)
(-0.0954335 0.203278 0)
(-0.201625 -0.0936218 0)
(0.0947304 -0.201655 0)
(-0.159758 -0.0314655 0)
(0.0332217 -0.160062 0)
(-0.0332293 0.160708 0)
(0.159686 0.0318274 0)
(-0.22987 0.0653618 0)
(0.0623097 0.228099 0)
(-0.0626874 -0.227895 0)
(0.229325 -0.0636576 0)
(-0.207218 0.0648286 0)
(-0.0623822 -0.205363 0)
(0.207128 -0.0633845 0)
(0.062115 0.205281 0)
(0.0618033 -0.193629 0)
(-0.0622185 0.194739 0)
(0.193287 0.0607483 0)
(-0.193585 -0.0603463 0)
(0.130269 -0.0448276 0)
(0.0440152 0.12784 0)
(-0.129771 0.0450038 0)
(-0.0440955 -0.128661 0)
(-0.023122 -0.133173 0)
(0.0227232 0.131925 0)
(-0.134417 0.0238027 0)
(0.136715 -0.0247654 0)
(-0.142178 -0.141897 0)
(0.142651 -0.142353 0)
(0.141851 0.142079 0)
(-0.143239 0.144299 0)
(-0.100524 0.195998 0)
(0.1938 0.0991805 0)
(-0.194309 -0.0988908 0)
(0.099964 -0.194387 0)
(0.0539561 0.18552 0)
(-0.18727 0.0564614 0)
(-0.0542094 -0.185675 0)
(0.187661 -0.0553212 0)
(0.172688 -0.0495767 0)
(-0.171875 0.0504622 0)
(-0.048476 -0.170351 0)
(0.0482789 0.169996 0)
(-0.181879 0.0136335 0)
(0.181743 -0.0131979 0)
(-0.0115768 -0.180618 0)
(0.0112307 0.181059 0)
(0.132759 -0.150233 0)
(-0.150081 -0.132099 0)
(-0.133336 0.152089 0)
(0.149703 0.132213 0)
(0.0587068 -0.154514 0)
(-0.0589883 0.155278 0)
(-0.15331 -0.0575179 0)
(0.153148 0.0575849 0)
(0.103873 -0.0834669 0)
(0.0845 0.103993 0)
(-0.104474 0.0842831 0)
(-0.0836348 -0.103762 0)
(-0.281026 0.254386 0)
(0.275756 -0.246676 0)
(0.246126 0.275376 0)
(-0.24688 -0.275539 0)
(0.122514 0.108041 0)
(-0.108259 0.124375 0)
(-0.122789 -0.107552 0)
(0.107597 -0.123069 0)
(0.308056 0.220647 0)
(-0.30909 -0.220563 0)
(-0.22636 0.315829 0)
(0.220646 -0.308159 0)
(-0.284212 0.194155 0)
(0.187667 0.280204 0)
(0.280892 -0.188808 0)
(-0.188446 -0.280174 0)
(-0.132284 -0.023365 0)
(0.0238235 -0.132092 0)
(0.13196 0.0236337 0)
(-0.0237609 0.132033 0)
(0.0305192 0.380314 0)
(0.380775 -0.0326781 0)
(-0.0316593 -0.379752 0)
(-0.381933 0.0345062 0)
(-0.25779 0.307789 0)
(0.298233 0.250688 0)
(0.250646 -0.298361 0)
(-0.29925 -0.250618 0)
(0.325155 0.217853 0)
(-0.223336 0.332545 0)
(-0.326152 -0.217718 0)
(0.218145 -0.324659 0)
(0.22019 -0.112533 0)
(-0.111765 -0.21882 0)
(-0.220904 0.114937 0)
(0.111418 0.218947 0)
(0.119442 -0.0793025 0)
(0.0798934 0.118539 0)
(-0.119879 0.0803853 0)
(-0.0796226 -0.118821 0)
(-0.0136368 0.142954 0)
(0.142173 0.013327 0)
(-0.14285 -0.0129047 0)
(0.0139292 -0.142465 0)
(0.318779 -0.0712725 0)
(-0.0702343 -0.317608 0)
(-0.31993 0.0738378 0)
(0.0696565 0.317891 0)
(-0.147112 -0.0649567 0)
(-0.0661424 0.148988 0)
(0.146683 0.0649703 0)
(0.0658389 -0.148272 0)
(-0.0988715 0.12794 0)
(0.125925 0.098683 0)
(0.0982924 -0.126804 0)
(-0.126351 -0.0982418 0)
(0.321334 -0.102522 0)
(-0.10145 -0.320098 0)
(0.100821 0.32038 0)
(-0.32284 0.105494 0)
(0.0413634 -0.194535 0)
(0.194474 0.0400692 0)
(-0.0417517 0.195436 0)
(-0.194773 -0.0396758 0)
(0.205224 0.0764216 0)
(-0.0779788 0.207085 0)
(-0.205688 -0.075997 0)
(0.0772748 -0.20551 0)
(0.153734 -0.126108 0)
(-0.154187 0.128101 0)
(0.125673 0.152906 0)
(-0.125919 -0.152767 0)
(-0.151675 -0.0632374 0)
(-0.0645352 0.153522 0)
(0.064274 -0.152788 0)
(0.151378 0.0632013 0)
(0.126633 0.103825 0)
(-0.12702 -0.103347 0)
(0.103447 -0.127409 0)
(-0.104062 0.128629 0)
(-0.0975331 0.239449 0)
(0.237031 0.0955049 0)
(0.0962305 -0.237363 0)
(-0.237955 -0.0951053 0)
(-0.119729 0.108211 0)
(0.106817 0.119177 0)
(0.119045 -0.106651 0)
(-0.106795 -0.11891 0)
(0.00296902 -0.155158 0)
(0.155436 0.00173327 0)
(-0.156023 -0.00165211 0)
(-0.00310992 0.156105 0)
(-0.196456 0.0111937 0)
(0.196325 -0.0108695 0)
(0.0087909 0.195742 0)
(-0.00911187 -0.19528 0)
(0.198654 0.0797358 0)
(-0.0812102 0.200592 0)
(0.0805359 -0.199107 0)
(-0.199073 -0.0793454 0)
(-0.119839 0.113595 0)
(0.112013 0.119328 0)
(0.119143 -0.112069 0)
(-0.112087 -0.118985 0)
(-0.0470806 -0.147309 0)
(0.0471953 0.146564 0)
(-0.148781 0.048523 0)
(0.150101 -0.04762 0)
(0.109144 -0.15697 0)
(0.156124 0.108818 0)
(-0.156723 -0.108534 0)
(-0.109715 0.158477 0)
(0.0501082 0.142461 0)
(-0.0498417 -0.143101 0)
(-0.144641 0.0513867 0)
(0.145823 -0.050409 0)
(-0.0394466 0.157114 0)
(0.155765 0.0379737 0)
(0.0394041 -0.156474 0)
(-0.155695 -0.0376131 0)
(0.22914 -0.110114 0)
(-0.109317 -0.227684 0)
(0.10889 0.227924 0)
(-0.229969 0.112594 0)
(-0.187673 -0.0710148 0)
(-0.07265 0.189084 0)
(0.0721913 -0.187842 0)
(0.187265 0.0712581 0)
(0.0995886 0.154522 0)
(-0.0996763 -0.15452 0)
(-0.156056 0.101771 0)
(0.155885 -0.0999629 0)
(-0.0863965 0.172825 0)
(0.170743 0.0853415 0)
(0.0859221 -0.171574 0)
(-0.171165 -0.0851333 0)
(0.122658 -0.0787302 0)
(-0.122903 0.0797673 0)
(0.0791016 0.121472 0)
(-0.0789398 -0.121776 0)
(-0.144046 -0.14645 0)
(0.147253 -0.144209 0)
(0.1437 0.14655 0)
(-0.147893 0.146285 0)
(-0.0608524 0.199376 0)
(0.197907 0.0592665 0)
(0.0603497 -0.198193 0)
(-0.198269 -0.0588735 0)
(-0.044222 0.159874 0)
(0.158444 0.0426829 0)
(0.0441549 -0.159185 0)
(-0.158398 -0.042473 0)
(-0.13796 0.0767452 0)
(-0.0754698 -0.136307 0)
(0.0755844 0.136184 0)
(0.137965 -0.0754651 0)
(0.144194 0.0111276 0)
(-0.144916 -0.0108444 0)
(-0.0115271 0.145164 0)
(0.0117732 -0.144417 0)
(-0.183726 -0.0157183 0)
(-0.0179099 0.183776 0)
(0.0175312 -0.182966 0)
(0.183244 0.0159948 0)
(-0.247447 -0.23493 0)
(0.235297 -0.246803 0)
(0.246332 0.235068 0)
(-0.239652 0.253212 0)
(-0.255528 -0.257007 0)
(0.254136 0.257273 0)
(0.256971 -0.25477 0)
(-0.262781 0.262257 0)
(-0.191626 -0.0278915 0)
(0.0296896 -0.191195 0)
(-0.0300404 0.192006 0)
(0.191275 0.028347 0)
(-0.0398933 -0.154615 0)
(-0.155981 0.0413636 0)
(0.0396122 0.153766 0)
(0.157672 -0.0409084 0)
(0.0937721 -0.11067 0)
(0.109872 0.0946478 0)
(-0.110278 -0.0940779 0)
(-0.0944753 0.111555 0)
(-0.0574927 -0.14748 0)
(0.149968 -0.0579744 0)
(-0.149232 0.0592179 0)
(0.0577901 0.147046 0)
(0.316479 -0.0694218 0)
(-0.317795 0.0716685 0)
(-0.0683601 -0.315576 0)
(0.0677288 0.315718 0)
(-0.0625444 -0.368125 0)
(0.0616824 0.368688 0)
(0.369484 -0.0635368 0)
(-0.370557 0.0659421 0)
(-0.0627124 -0.151689 0)
(-0.153555 0.0645936 0)
(0.0629563 0.151372 0)
(0.154154 -0.0632418 0)
(-0.0493066 0.141697 0)
(0.139782 0.0470726 0)
(0.04906 -0.141281 0)
(-0.139762 -0.0472021 0)
(0.135403 0.0508466 0)
(-0.0530145 0.137723 0)
(-0.135864 -0.0514572 0)
(0.0528585 -0.137352 0)
(0.0988174 -0.108713 0)
(-0.108563 -0.099001 0)
(-0.099542 0.109805 0)
(0.10831 0.0999426 0)
(0.0478652 0.183476 0)
(-0.185167 0.0503644 0)
(-0.0481734 -0.183626 0)
(0.185623 -0.0493547 0)
(0.129335 -0.0717437 0)
(-0.129366 0.0726518 0)
(0.0716683 0.127567 0)
(-0.071828 -0.127676 0)
(0.201077 0.369332 0)
(-0.201448 -0.369106 0)
(0.370074 -0.202229 0)
(-0.374507 0.20892 0)
(0.134041 -0.067476 0)
(0.0672806 0.13199 0)
(-0.133983 0.0683806 0)
(-0.0672744 -0.132021 0)
(-0.132158 -0.0784193 0)
(0.0784979 -0.133174 0)
(0.131469 0.0785208 0)
(-0.0789769 0.133965 0)
(-0.12922 0.104716 0)
(0.128703 -0.103071 0)
(-0.103182 -0.128231 0)
(0.103243 0.128376 0)
(-0.12224 -0.0678372 0)
(0.0667854 -0.124283 0)
(-0.0672828 0.124732 0)
(0.12146 0.0675544 0)
(-0.146504 -0.00148935 0)
(-0.00267959 0.146886 0)
(0.1456 0.00151405 0)
(0.00242557 -0.145584 0)
(0.0027906 0.148335 0)
(-0.148258 0.00421659 0)
(-0.00342266 -0.147395 0)
(0.147544 -0.00449798 0)
(-0.162236 -0.0304941 0)
(0.162067 0.0308401 0)
(0.032298 -0.162484 0)
(-0.0323321 0.163169 0)
(-0.117823 -0.0764642 0)
(0.117027 0.0764804 0)
(-0.0768943 0.118768 0)
(0.0764466 -0.11814 0)
(0.145915 -0.0143378 0)
(-0.0127787 -0.145072 0)
(0.0121231 0.145135 0)
(-0.146057 0.0136147 0)
(-0.00908529 -0.147367 0)
(-0.148274 0.0099052 0)
(0.00833988 0.147805 0)
(0.147933 -0.010619 0)
(-0.198806 0.0174616 0)
(0.198565 -0.0169026 0)
(0.014848 0.197863 0)
(-0.0152979 -0.197497 0)
(-0.114427 -0.155997 0)
(0.114272 0.156103 0)
(-0.157501 0.116603 0)
(0.157108 -0.114712 0)
(0.214736 -0.190681 0)
(0.189756 0.213985 0)
(-0.190464 -0.213925 0)
(-0.216793 0.194505 0)
(0.0841643 -0.147649 0)
(-0.147008 -0.0836746 0)
(-0.084561 0.148628 0)
(0.146461 0.083837 0)
(0.125801 -0.070884 0)
(-0.125954 0.0717026 0)
(-0.0708605 -0.124318 0)
(0.0707571 0.124254 0)
(0.141857 0.0023993 0)
(-0.143047 -0.00216806 0)
(0.00317443 -0.14201 0)
(-0.00290838 0.143761 0)
(0.232124 -0.185273 0)
(-0.234314 0.189382 0)
(0.184381 0.231351 0)
(-0.185086 -0.231213 0)
(0.081946 -0.153511 0)
(-0.15285 -0.0813772 0)
(-0.0823154 0.154515 0)
(0.152342 0.0815314 0)
(-0.126123 -0.0887509 0)
(0.125499 0.0890545 0)
(-0.0892614 0.127763 0)
(0.0887412 -0.126852 0)
(-0.251712 -0.0722225 0)
(-0.0751755 0.253246 0)
(0.251033 0.0729155 0)
(0.0737735 -0.250947 0)
(-0.179098 0.0974484 0)
(-0.0950265 -0.177385 0)
(0.179026 -0.0955862 0)
(0.094805 0.177349 0)
(-0.168371 0.346423 0)
(-0.34132 -0.163038 0)
(0.3403 0.163368 0)
(0.163614 -0.340206 0)
(-0.152728 0.031106 0)
(-0.0298038 -0.151543 0)
(0.029306 0.150639 0)
(0.154641 -0.0312866 0)
(0.0319418 -0.189492 0)
(-0.189796 -0.030167 0)
(-0.0322735 0.190313 0)
(0.189467 0.0306026 0)
(0.0192585 0.157573 0)
(0.159281 -0.0213873 0)
(-0.0197272 -0.1575 0)
(-0.158749 0.0212766 0)
(-0.115359 -0.153177 0)
(0.115197 0.153306 0)
(-0.154591 0.117471 0)
(0.154213 -0.115522 0)
(0.0156394 0.16265 0)
(0.163786 -0.0178584 0)
(-0.0162035 -0.16236 0)
(-0.163547 0.017848 0)
(0.206735 0.0272495 0)
(-0.0290127 0.207242 0)
(0.028549 -0.206416 0)
(-0.207002 -0.0266762 0)
(-0.172901 0.123057 0)
(0.12043 0.171425 0)
(0.17251 -0.121038 0)
(-0.12067 -0.171325 0)
(-0.0660758 -0.150665 0)
(0.0662465 0.150497 0)
(-0.152486 0.0678804 0)
(0.152967 -0.0665591 0)
(0.144463 0.269104 0)
(-0.271963 0.149443 0)
(-0.145025 -0.268843 0)
(0.269983 -0.14569 0)
(-0.260177 -0.212292 0)
(0.259348 0.212526 0)
(-0.216706 0.265508 0)
(0.212664 -0.259398 0)
(-0.163437 0.0120771 0)
(0.0100534 0.162764 0)
(-0.0105248 -0.162341 0)
(0.163432 -0.0122489 0)
(-0.267353 0.17967 0)
(0.173845 0.263814 0)
(-0.174611 -0.263691 0)
(0.264628 -0.174953 0)
(0.0832199 0.108233 0)
(-0.108763 0.0840032 0)
(0.108329 -0.0825436 0)
(-0.0826413 -0.108235 0)
(0.0475496 0.13502 0)
(-0.136932 0.0487444 0)
(-0.0472742 -0.135681 0)
(0.13786 -0.048052 0)
(0.0504853 0.135318 0)
(-0.137446 0.0517337 0)
(0.138141 -0.0511304 0)
(-0.05009 -0.135802 0)
(-0.142531 0.0249045 0)
(-0.0237047 -0.141252 0)
(0.0234645 0.140391 0)
(0.14486 -0.0256158 0)
(-0.143764 0.0219012 0)
(0.0202102 0.14222 0)
(0.145002 -0.0229948 0)
(-0.020787 -0.142727 0)
(0.063371 0.128823 0)
(0.130796 -0.0639894 0)
(-0.0636782 -0.128425 0)
(-0.130908 0.0645094 0)
(-0.100082 -0.26254 0)
(0.263984 -0.100767 0)
(-0.265213 0.103454 0)
(0.0994267 0.263017 0)
(-0.135075 -0.0215553 0)
(0.0221259 -0.134577 0)
(0.134698 0.0213924 0)
(-0.0217278 0.134731 0)
(0.0054517 0.143849 0)
(-0.143935 0.00663507 0)
(-0.00618398 -0.143174 0)
(0.143099 -0.00682593 0)
(-0.0902311 0.132994 0)
(0.130756 0.0898776 0)
(0.0897065 -0.131998 0)
(-0.13136 -0.0895977 0)