/*--------------------------------*- C++ -*----------------------------------*\
| =========                 |                                                 |
| \\      /  F ield         | OpenFOAM: The Open Source CFD Toolbox           |
|  \\    /   O peration     | Version:  2.2.0                                 |
|   \\  /    A nd           | Web:      www.OpenFOAM.org                      |
|    \\/     M anipulation  |                                                 |
\*---------------------------------------------------------------------------*/
FoamFile
{
    version     2.0;
    format      ascii;
    class       volScalarField;
    location    "15";
    object      Theta;
}
// * * * * * * * * * * * * * * * * * * * * * * * * * * * * * * * * * * * * * //

dimensions      [0 2 -2 0 0 0 0];

internalField   nonuniform List<scalar> 
3012
(
0.820583
0.830523
0.802513
0.828412
3.16334
3.23939
3.13592
3.22828
0.624855
0.616434
0.613061
0.616299
1.01429
1.01413
1.02086
1.00637
-1.10916
-1.10475
-1.08835
-1.11881
0.881096
1.03327
1.04102
0.8766
1.34784
1.3335
1.32415
1.33619
1.37089
1.37487
1.38579
1.38833
1.05323
1.04832
1.05034
1.06218
0.924933
0.960431
0.970045
0.96559
1.18819
1.18422
1.17208
1.17086
1.05251
1.04999
1.03055
1.04793
1.0463
1.00432
0.99202
1.0374
1.82441
1.834
1.81124
1.84767
-0.804681
-0.837873
-0.80928
-0.803485
3.37988
3.43738
3.39133
3.42559
1.34331
1.33932
1.34866
1.34311
1.08831
1.07026
1.06891
1.06789
1.09239
1.09958
1.07449
1.09651
1.09216
1.09075
1.09318
1.09157
1.10793
1.10833
1.11499
1.12022
1.09504
1.09973
1.10412
1.08588
1.31048
1.29874
1.3207
1.31388
1.3469
1.333
1.33501
1.33579
0.367553
0.375107
0.356857
0.384442
1.29454
1.28686
1.29382
1.30302
1.26755
1.27039
1.27296
1.27529
1.06157
0.958438
1.03915
0.96397
1.15934
1.15938
1.16251
1.1476
1.1355
1.23672
1.17785
1.37121
0.895233
0.894547
0.728349
1.54138
-1.10665
-1.13368
-1.15193
-1.10758
-0.291489
-0.283195
-0.283784
-0.294178
3.72072
3.75118
3.70288
3.7673
2.83413
2.81737
2.82932
2.83363
2.27461
2.24393
2.25202
2.2724
1.53292
1.57273
1.5526
1.54346
-0.165994
-0.247856
-0.227258
-0.181563
1.19455
1.10594
1.15917
1.15914
1.18014
1.1902
1.19343
1.19126
1.12378
1.10871
1.0899
1.08318
1.02192
0.990349
1.0218
0.983344
1.03105
1.02529
1.0242
1.03049
0.387184
0.376507
0.361302
0.346127
2.11833
2.11035
2.1334
2.1338
-0.0814485
-0.0165036
-0.0710559
-0.0342499
1.33996
1.34357
1.34624
1.34864
1.07125
1.07461
1.07061
1.07594
1.14687
1.14896
1.11476
1.12362
1.2389
1.22809
1.21723
1.23273
0.827171
0.826597
0.818286
0.8326
1.32993
1.31668
1.3251
1.31517
0.996574
1.05568
1.20322
0.818648
0.665925
0.666289
0.638784
0.677908
1.00915
0.999953
1.01239
1.00996
0.718604
0.681268
0.616691
0.707272
0.771039
0.779971
0.779083
0.778829
0.759026
0.77761
0.778563
0.693052
0.70498
0.746221
0.716092
0.766751
0.957329
0.962112
0.958219
0.961625
1.24883
1.20222
1.20016
1.2581
1.31173
1.23007
1.29967
1.23526
1.17794
1.18752
1.17958
1.19441
1.29923
1.28979
1.29931
1.29606
1.78996
1.76581
1.77715
1.7763
0.665751
0.622478
0.62541
0.645809
0.735727
0.740167
0.722959
0.715202
0.952735
0.954338
0.949992
0.959058
1.33407
1.33377
1.33393
1.34573
1.04937
1.0467
1.03952
1.03103
1.8731
1.89623
1.87206
1.91475
1.01749
1.01685
1.01789
1.02177
-1.20373
-1.23439
-1.22246
-1.21688
2.985
3.01885
3.05314
3.02614
1.46652
1.46052
1.47203
1.46919
1.25517
1.2618
1.2662
1.27411
1.22684
1.20786
1.23078
1.24202
-0.3839
-0.387212
-0.390604
-0.390925
0.818558
0.833367
0.817323
0.810479
1.36892
1.35132
1.35601
1.36169
0.951977
0.950984
0.955307
0.921909
1.22993
1.21918
1.22949
1.22942
2.16761
2.12469
2.16863
2.16295
1.07705
1.07289
1.04234
1.08693
1.04586
1.05546
1.05447
1.06333
0.929106
0.93328
0.938339
0.934332
1.27253
1.29232
1.294
1.29407
1.25039
1.27704
1.25176
1.27482
1.06929
1.0077
0.849776
1.23543
1.1025
1.07541
1.09293
1.1186
1.14727
1.12697
1.13789
1.13722
1.16825
1.15905
1.16688
1.15711
0.70331
0.700629
0.693289
0.702332
1.67671
1.6853
1.67258
1.6791
0.988332
0.97215
0.977103
0.975647
0.847119
0.854387
0.853751
0.856977
1.29948
1.29951
1.30418
1.30838
1.66597
1.67219
1.66674
1.68111
0.677903
0.677482
0.672021
0.679726
1.08402
1.06304
1.0664
1.07845
0.766519
0.770754
0.777141
0.781731
1.17277
1.16209
1.16577
1.16831
3.05021
3.04682
3.07015
3.0734
1.60644
1.61553
1.61551
1.62006
-1.04271
-1.06173
-1.065
-1.07037
1.29132
1.2822
1.27638
1.26564
1.28533
0.987371
0.95767
0.958801
1.24132
1.04023
1.03106
1.03582
1.31149
1.29279
1.27981
1.31677
0.819628
0.827343
0.819653
0.810677
1.23077
1.18684
1.22964
1.22384
0.791514
0.876852
0.788468
0.772008
1.27884
1.17934
1.25575
1.29181
0.948578
0.933106
0.934885
0.783754
-1.64567
-1.65501
-1.56812
-1.64159
1.55524
1.53346
1.53835
1.55291
0.908156
0.915753
0.90712
0.923606
2.33024
2.35156
2.36106
2.36153
1.49022
1.4641
1.46182
1.43176
1.07812
1.08124
1.08233
1.09196
1.5847
1.59183
1.58416
1.59403
1.06681
1.06954
1.05784
1.07614
0.814733
0.913924
0.873838
0.910855
0.911553
0.90689
0.914559
0.904271
0.911549
0.924732
0.901988
0.9287
0.662162
0.661016
0.662086
0.654865
1.23637
1.24912
1.21325
1.25263
-1.35201
-1.33781
-1.26463
-1.29961
1.44608
1.17691
1.43905
1.19522
1.68803
1.68098
1.69247
1.68403
1.26911
1.23295
1.23166
1.25337
1.03001
1.06461
1.05578
1.03273
1.03103
1.01747
1.00937
1.02495
1.38421
1.38346
1.40705
1.40605
1.39032
1.3961
1.40144
1.38955
1.29662
1.29265
1.30357
1.29206
1.48478
1.50089
1.49005
1.49457
1.2152
1.20357
1.21161
1.21738
1.06925
1.07812
1.07101
1.07079
1.37417
1.36669
1.37441
1.37998
1.09127
1.08576
1.10013
1.10817
0.854171
0.831244
0.845211
0.847542
1.0104
1.00859
0.989825
1.0034
1.19905
1.19873
1.20753
1.191
0.902405
0.900107
0.896507
0.907001
0.988728
0.993387
0.993518
0.996529
-1.20267
-0.948561
-1.01026
-1.17402
1.47196
1.48683
1.48092
1.48462
1.3094
1.31616
1.30044
1.31445
1.94733
1.94076
1.94155
1.95773
1.80279
1.81033
1.83223
1.83756
3.12963
3.06196
3.1282
3.04755
0.970946
0.980194
0.976817
0.977604
1.175
1.17758
1.17736
1.17332
1.16784
1.18343
1.17562
1.17574
1.17663
1.11991
1.18945
1.16427
0.706267
0.770438
0.784209
0.746545
0.557112
0.553154
0.550866
0.544454
1.21374
1.21603
1.15739
1.24693
0.786378
0.853691
0.826876
0.85419
0.798257
0.793854
0.803534
0.800526
3.60167
3.64109
3.62759
3.60991
1.66269
1.67018
1.66152
1.66802
1.92681
1.97711
1.91079
1.9623
1.48822
1.45411
1.47546
1.45799
-0.757703
-0.783718
-0.749107
-0.764947
3.51875
3.53414
3.53072
3.5097
0.251694
0.234312
0.232523
0.229273
0.79417
0.759155
0.767451
0.768738
1.49671
1.50119
1.51288
1.51994
-0.746553
-0.735418
-0.797448
-0.736339
1.05634
1.05356
1.04986
1.0577
1.55367
1.54708
1.54987
1.53448
0.944335
0.913124
0.920708
0.829303
1.36777
1.28653
1.32991
1.3011
0.908314
0.922878
0.884253
0.848783
-0.608496
-0.397221
-0.549045
-0.423031
1.29725
1.31459
1.31879
1.29456
1.3107
1.34563
1.33265
1.33057
1.05037
1.06171
1.24322
1.02626
1.26292
1.26005
1.33036
1.3195
1.16695
1.22049
1.21676
1.39046
1.00566
1.04835
1.00764
1.05062
0.572861
0.619407
0.601066
0.64487
0.829
0.828684
0.838961
0.816617
1.45696
1.44956
1.4654
1.44021
0.659264
0.67617
0.682029
0.675187
1.52719
1.55915
1.54544
1.58019
0.951976
0.944787
0.950028
0.925721
2.18247
2.18566
2.18952
2.16915
1.06967
1.07103
1.07874
1.08567
0.999953
0.986867
0.987807
0.992069
1.91543
1.90779
1.91815
1.90525
0.913432
0.916963
0.904837
0.917852
1.72053
1.71424
1.72695
1.72337
1.09456
1.09826
1.08281
1.10422
1.41185
1.38037
1.39539
1.39288
1.02404
1.00663
1.02357
1.01011
1.32419
1.31508
1.32849
1.32857
1.15039
1.13048
1.1503
1.07105
1.28753
1.78214
1.29233
0.501367
1.36438
1.35911
1.36599
1.35656
0.773767
0.780506
0.784598
0.788474
1.3193
1.33112
1.33238
1.33578
1.16355
1.18692
1.18642
1.20213
1.04297
1.02669
1.02466
1.0309
1.14378
1.15322
1.13954
1.16087
1.11475
1.10679
1.13282
1.11602
1.20806
1.22894
1.02984
1.20873
1.36885
1.35799
1.3482
1.36038
1.11665
1.12517
1.13288
1.13437
0.447588
0.462844
0.452041
0.462213
0.364078
0.35442
0.356592
0.356768
1.07866
1.07536
1.12942
1.13481
3.7465
3.79561
3.7648
3.79892
3.17901
3.20285
3.15807
3.19882
1.00691
0.989587
1.02226
0.950805
1.5206
1.53222
1.52452
1.51872
0.844431
0.851976
0.841135
0.854833
0.871233
0.859224
0.868188
0.875923
0.0266328
0.0242171
0.0197662
0.040291
0.953537
0.931148
0.958419
0.929275
0.902436
0.898722
0.904803
0.906536
3.60716
3.5745
3.56732
3.60552
1.75665
1.76577
1.74408
1.76578
1.42232
1.41639
1.43556
1.42101
1.77818
1.76846
1.77486
1.78271
1.26355
1.25317
1.25939
1.26104
1.27736
1.28049
1.26834
1.26543
0.904656
0.912819
0.939594
0.936866
1.09403
1.08284
1.09732
1.0931
1.20471
1.1862
1.19689
1.19161
1.18261
1.1749
1.17088
1.17837
0.579024
0.574407
0.5828
0.578788
1.21048
1.22493
1.22133
1.2247
1.24945
1.25823
1.23971
1.21238
0.817929
0.811035
0.818096
0.810327
1.0142
1.00659
1.02996
1.02144
1.06803
1.07796
1.07183
1.09587
1.25609
1.25927
1.25505
1.26208
0.919872
0.90873
0.914679
0.91173
1.13342
1.14479
1.13699
1.1339
0.915641
0.925142
0.918694
0.929701
1.18937
1.16656
1.17328
1.19273
1.29795
1.2951
1.28744
1.29209
1.44555
1.45775
1.44895
1.46661
1.21223
1.2228
1.22202
1.22696
1.18679
1.20568
1.19435
1.20291
1.19804
1.18977
1.16305
1.1808
1.13659
1.1213
1.12836
1.13274
2.67702
2.66986
2.65731
2.66213
-0.145108
-0.163345
-0.150029
-0.174029
1.22938
1.23104
1.21778
1.23574
0.933637
0.937201
0.950067
0.904077
0.956743
0.960183
0.974201
0.962267
1.24878
1.22257
1.22501
1.23041
0.60404
0.633167
0.628541
0.590226
-0.978148
-1.00256
-1.00215
-1.02244
0.985104
0.978651
0.984607
0.966201
1.17242
1.21175
1.18362
1.25652
1.04426
0.982491
1.00998
0.979858
1.24671
1.23765
1.22517
1.22314
1.00098
0.996829
0.999531
0.986164
1.03856
1.05712
1.06546
1.03715
3.06585
3.07282
3.0816
3.06535
1.26145
1.25669
1.24884
1.28799
1.23267
1.23989
1.22822
1.23429
1.38148
1.39001
1.38296
1.36568
1.25633
1.29578
1.27499
1.28102
1.07651
1.04683
1.07683
1.09365
1.23501
1.2366
1.22171
1.23715
1.39211
1.38109
1.37041
1.37071
1.26358
1.28147
1.28257
1.30197
0.968195
1.01143
1.02377
1.02381
1.3212
1.31827
1.31347
1.31644
1.17912
1.16685
1.15902
1.18105
1.23032
1.22521
1.21952
1.22279
0.930127
0.917052
0.926754
0.923794
1.12958
1.13517
1.12473
1.1417
1.11346
1.10173
1.10793
1.10566
1.11527
1.11441
1.10776
1.09445
1.63144
1.62698
1.61949
1.63482
1.0655
1.06832
1.06435
1.05094
1.28712
1.2826
1.27343
1.28056
1.33433
1.36816
1.32862
1.29814
1.18741
1.19466
1.19548
1.17993
-1.25402
-1.23545
-1.23826
-1.23068
1.2814
1.29762
1.27257
1.2957
0.611435
0.616648
0.607569
0.602548
0.803846
0.839228
0.819397
0.82491
0.578309
0.574762
0.575794
0.5674
1.27482
1.25471
1.27443
1.26832
0.582449
0.582691
0.58475
0.587966
0.542559
0.540688
0.539194
0.544654
1.0895
1.07741
1.07383
1.08344
0.570566
0.584124
0.58398
0.588338
0.0248799
0.0134091
0.0107747
0.0406852
0.982731
0.951719
0.975105
0.979289
1.8316
1.81456
1.83613
1.83664
1.01458
1.10602
1.06205
1.06579
1.11902
1.15031
1.12612
1.15162
1.00832
0.95892
0.952229
1.0262
1.15491
1.16348
1.24302
1.00928
1.00027
0.881769
1.1839
1.00564
1.55057
1.55318
1.61862
1.54608
0.615671
0.630722
0.624453
0.610677
1.03877
1.03239
1.03898
1.03321
1.53289
1.55685
1.55397
1.61522
0.989402
0.991973
0.991748
0.994222
1.65233
1.64061
1.63189
1.64418
2.12638
2.10055
2.09241
2.11683
1.16454
1.09866
1.1732
1.01271
1.06401
1.04513
1.05652
1.05388
2.06398
2.07898
2.07468
2.03812
-0.893441
-0.867963
-0.894441
-0.902884
1.37132
1.37005
1.37874
1.37249
0.969386
0.993595
0.96967
0.986029
1.26896
1.27185
1.27412
1.25517
1.07288
1.10373
1.08417
1.01478
1.17401
1.16075
1.17928
1.17361
1.34093
1.33155
1.35096
1.34159
-0.748924
-0.772388
-0.765976
-0.695776
1.09293
1.09773
1.10104
1.10522
0.756766
0.751747
0.755214
0.753669
0.911972
0.93329
0.922413
0.944278
0.55101
0.554803
0.560358
0.565797
1.52884
1.52236
1.5195
1.51735
1.11099
1.11931
1.12404
1.09263
1.44802
1.43559
1.42918
1.44409
1.05745
1.06459
1.07578
1.0798
0.742096
0.745927
0.736829
0.744343
1.05482
1.05549
1.05578
1.04238
1.23803
1.22754
1.23082
1.2151
0.835529
0.841339
0.830238
0.843993
1.48471
1.47861
1.47542
1.48896
1.07302
1.05176
1.04364
1.05394
1.07702
1.08232
1.09209
1.0917
1.02013
1.03456
1.02158
1.01603
1.02433
1.03166
1.02174
1.02972
1.23043
1.22892
1.22262
1.22441
0.728882
0.691985
0.728826
0.706016
0.828052
0.838277
0.826302
0.829845
0.622431
0.681942
0.747027
0.599783
0.537742
0.539659
0.540352
0.547683
1.53174
1.55216
1.551
1.54567
2.78317
2.80578
2.80121
2.7996
1.04772
1.04068
1.03788
1.02033
3.16654
3.16395
3.14084
3.17149
2.29143
2.36998
2.32331
2.3696
1.4358
1.42532
1.42884
1.42258
1.00054
1.00623
0.971101
0.994888
1.05458
1.0499
1.06242
1.06994
0.848909
0.856456
0.861536
0.853129
0.969186
0.98192
0.990101
0.980385
1.01188
1.00119
0.996179
0.994205
1.27297
1.29832
1.29864
1.29835
0.917571
0.916664
0.915096
0.909706
1.36188
1.36499
1.36759
1.37391
3.23074
3.21135
3.19722
3.24896
0.824698
0.842708
0.837092
0.833388
-1.57158
-1.56625
-1.56174
-1.54632
3.33378
3.25041
3.37597
3.37304
1.2227
1.25259
1.26255
1.2588
1.49987
1.50433
1.46459
1.64019
0.6538
0.659466
0.660184
0.660794
1.1999
1.17726
1.18786
1.19749
1.23846
1.22202
1.21959
1.23327
0.736642
0.77797
0.712309
0.725019
1.56966
1.56989
1.61462
1.56695
0.785297
0.715709
0.731701
0.72288
1.50976
1.51767
1.50774
1.52274
1.26701
1.00027
0.999735
1.26726
1.32319
1.33135
1.34146
1.3286
1.35742
1.35133
1.34964
1.35953
1.2036
1.06431
1.20985
1.06607
0.829998
0.835458
0.830669
0.827863
1.06021
1.04564
1.06252
1.04815
1.13108
1.12703
1.11519
1.12753
0.896452
0.917894
0.918771
0.914741
0.691596
0.693731
0.700693
0.708792
1.0806
1.08101
1.09468
1.08098
0.706968
0.711585
0.70811
0.707086
1.22044
1.14355
1.14528
1.04749
-0.491619
-0.474987
-0.484414
-0.466345
1.11176
1.10794
1.09492
1.09559
0.886069
0.884397
0.896261
0.893274
0.911376
0.895172
0.911552
0.892926
1.10071
1.17158
1.17329
1.10524
1.11178
1.15442
1.15491
1.16191
1.03042
1.02823
1.0191
1.01528
1.09814
1.09934
1.16088
1.12957
1.15591
0.920064
1.00644
1.02557
1.02985
1.01043
1.02861
1.02731
1.00922
1.00834
1.02368
1.01363
0.712892
0.718762
0.707447
0.722778
1.01798
1.01632
1.07225
1.01061
1.03689
1.05699
1.0067
1.06177
1.26425
1.29712
1.27208
1.306
0.687275
0.688309
0.686468
0.694513
1.16005
1.15377
1.15629
1.1571
3.57671
3.09166
3.58929
3.06516
1.21004
1.21139
1.21595
1.20475
1.22702
1.22967
1.23861
1.23017
1.02593
1.00806
1.00299
1.02225
0.626579
0.635109
0.6396
0.655823
1.2574
1.22978
1.22687
1.22971
0.542627
0.613989
0.686166
0.557797
1.0555
1.04883
1.03756
1.04372
0.999371
1.00293
0.999031
1.00241
1.27127
1.28535
1.27262
1.26969
1.4706
1.49564
1.49907
1.49221
1.351
1.3934
1.39485
1.3335
3.22328
3.42439
3.42372
3.20848
1.10369
1.09621
1.10531
1.10382
1.53222
1.53573
1.52442
1.53447
1.31391
1.30413
1.29729
1.30736
3.21411
3.21652
3.21931
3.18657
0.955751
0.954702
0.953134
0.955064
1.66779
1.68181
1.67882
1.68108
1.14845
1.09288
1.08427
1.04412
1.17702
1.15552
1.11873
1.13426
0.584845
0.585739
0.58523
0.592985
1.53021
1.53036
1.53285
1.53756
0.897713
0.941296
0.969934
0.949445
1.11378
1.10064
1.11152
1.10815
1.26446
1.25347
1.25532
1.2339
0.933743
0.968512
0.950405
0.951071
1.14949
1.15352
1.1451
1.15868
1.11249
1.12498
1.12478
1.11186
1.18602
1.20548
1.20516
1.1507
1.15836
1.143
1.15988
1.21603
1.14353
1.13803
1.144
1.15037
1.14444
1.13244
1.14262
1.13819
1.82984
1.81276
1.81674
1.81855
1.08277
1.07097
1.07872
1.06502
1.06562
1.08175
1.09404
1.06973
1.31915
1.36034
1.31149
1.27852
1.34152
1.34038
1.34637
1.34951
1.27829
1.25684
1.24015
1.25874
0.555033
0.55264
0.558213
0.553052
1.66867
1.66245
1.67777
1.66338
1.6026
1.59355
1.60415
1.60529
1.066
1.06487
1.03127
1.06223
1.15338
1.13687
1.12908
1.10994
1.06262
1.06073
1.05113
1.05228
1.08922
1.08625
1.10549
1.07323
1.24929
1.254
1.244
1.24774
1.15885
1.14772
1.14632
1.15449
1.21403
1.22668
1.19736
1.22064
0.889874
0.881652
0.895901
0.89585
1.84154
1.81464
1.80382
1.79501
1.02701
1.02499
1.02471
1.02596
1.56312
1.56867
1.56194
1.55517
1.3138
1.31634
1.32167
1.31043
-0.239189
-0.176737
-0.219598
-0.235552
1.07689
1.0624
1.06179
1.06688
1.06473
1.06112
1.06934
1.06981
0.920989
0.910152
0.91873
0.923203
0.974076
0.950985
0.973462
0.984336
0.690172
0.691081
0.695394
0.695914
1.10612
1.09889
1.11313
1.11915
1.22983
1.23556
1.2313
1.22521
1.13209
1.12249
1.10491
1.12734
0.856225
0.856302
0.850305
0.863002
0.67846
0.673289
0.666795
0.669991
3.46981
3.20607
3.30281
3.32729
1.16736
1.18694
1.17121
1.19736
0.589566
1.66816
0.600045
1.67294
0.796702
1.46658
1.54444
1.5491
1.19504
1.16167
1.18378
1.23091
1.06076
1.0613
1.07658
1.18829
1.18591
1.0756
1.07748
1.18601
1.11592
1.11569
1.11955
1.12311
0.910468
0.906702
0.915081
0.901609
1.1265
1.18608
1.14633
1.18982
1.16614
1.1672
1.17356
1.1653
1.11626
1.18007
1.18363
1.15696
0.539048
0.535726
0.559802
0.558478
1.16564
1.17602
1.1662
1.17061
2.14512
2.13811
2.13747
2.13307
0.840004
0.835476
0.828126
0.836335
1.31434
1.28767
1.3177
1.30456
1.03981
1.03539
1.0376
1.02746
1.07263
1.07463
1.06242
1.0597
1.06387
1.05814
1.04494
1.06038
0.811131
0.827133
0.828713
0.807047
1.51081
1.52014
1.51011
1.50825
1.56423
1.55423
1.55442
1.56268
2.00552
1.99824
2.0013
2.03246
3.2777
3.32781
3.32104
3.25602
0.90947
0.906843
0.912304
0.898695
0.940649
0.933413
0.933178
0.932889
1.18002
1.08348
1.17902
1.08621
1.25011
1.24683
1.2489
1.26101
1.253
1.23127
1.25461
1.23372
1.19123
1.07677
1.07904
1.19196
1.29614
1.07097
1.08605
1.29166
1.082
1.02699
1.07142
1.05797
1.0319
1.10748
1.03983
1.08326
0.998083
1.02104
1.02466
1.04337
1.11867
1.11805
1.13847
1.1398
1.15465
1.1823
1.15309
1.1814
0.919119
0.928799
0.924904
0.91992
0.929098
0.9282
0.939436
0.936206
1.12773
1.12178
1.13177
1.1261
1.70222
1.67401
1.69065
1.6945
1.85043
1.8541
1.86239
1.85241
0.600129
0.589576
0.590338
0.603496
1.09691
1.0905
1.07862
1.0917
0.976596
0.992283
0.972395
0.974444
1.02561
0.996173
1.02427
1.00838
0.902524
0.90023
0.904602
0.903911
1.724
1.71374
1.72375
1.73039
1.06809
1.06062
1.08426
1.08486
0.433496
0.430879
0.430948
0.445962
2.21195
2.20345
2.21015
2.21461
1.70438
1.69125
1.69271
1.69703
0.555403
0.547472
0.559866
0.553818
-1.88864
-1.91497
-1.92525
-1.90081
3.98705
3.97106
3.9801
3.94787
1.31275
1.30692
1.31622
1.31714
0.75107
0.754455
0.740123
0.74217
1.1274
1.12782
1.13113
1.11797
0.811049
0.77971
0.802367
0.794206
0.554549
0.551905
0.585281
0.551894
0.848597
0.844104
0.851144
0.850279
1.13389
1.12901
1.12283
1.13223
1.05743
1.06811
1.06165
1.0665
0.0533323
0.0727576
0.0502724
0.0525127
0.897637
1.15546
0.896317
1.1519
0.719954
0.714431
0.721771
0.727802
0.731769
0.733611
0.732187
0.73558
1.1219
1.11858
1.05053
1.21899
1.06813
1.02961
1.07076
1.03101
1.06418
1.06819
1.16867
1.09673
1.27076
1.25225
1.26133
1.25725
0.742967
0.695193
0.700332
0.687485
1.27601
1.27166
1.27702
1.27169
1.20882
1.22652
1.21229
1.22083
0.681253
0.662733
0.646324
0.650989
1.30963
0.96784
1.50954
1.51083
1.13458
1.10641
1.13588
1.10586
0.657755
0.660654
0.680556
0.660411
2.42893
2.36403
2.41673
2.37456
0.942181
0.945869
0.941075
0.963227
0.945991
0.962618
0.972063
0.954814
1.61509
1.60729
1.60326
1.6138
1.7262
1.71583
1.73594
1.71795
0.595106
0.581331
0.605349
0.581859
0.304063
0.309564
0.298704
0.297584
1.12691
1.13182
1.13493
1.13063
0.874491
0.904812
0.812334
0.86882
1.08074
1.08424
1.09537
1.0907
1.07835
1.0831
1.08257
1.06759
1.15647
1.15333
1.13554
1.13356
1.0781
1.07188
1.07211
1.08935
1.0943
1.0969
1.09963
1.09645
1.35462
1.35929
1.35805
1.35606
0.975878
0.944171
0.95989
0.944511
-1.90125
-1.91362
-1.94749
-1.87445
1.10588
1.10444
1.08805
1.09423
0.968455
0.974889
0.972855
0.96916
1.15318
1.16689
1.15099
1.10331
2.2564
2.24362
2.23644
2.23384
1.1157
1.08675
1.08478
1.10788
1.0859
1.08595
1.10235
1.08077
0.980632
0.99208
0.986263
0.983246
0.990557
1.00186
0.987474
1.00261
4.08468
4.08515
4.07053
4.10656
1.03445
1.04607
1.04039
1.04949
1.61546
1.61556
1.60783
1.61954
0.964918
0.968167
0.958434
0.976551
0.913691
0.892145
0.903101
0.90083
-1.18496
-1.17324
-1.1215
-1.15494
1.30372
1.30297
1.30943
1.29384
0.703033
0.703039
0.709573
0.71389
2.03722
2.02305
2.06008
2.04977
0.933507
0.965703
0.961622
0.929327
-0.0376661
-0.0197277
-0.0332804
-0.025726
0.766927
0.771213
0.766074
0.763539
0.883381
0.869557
0.881337
0.872965
1.28702
1.28859
1.2987
1.27762
1.28906
1.29202
1.2996
1.30192
1.30814
1.3005
1.29648
1.30023
1.18486
1.20275
1.18704
1.20383
1.25677
1.26569
1.2652
1.2571
1.07492
1.08753
1.08927
1.08778
1.0541
1.04317
1.03725
1.06514
1.21952
1.21255
1.21818
1.21333
1.21401
1.21422
1.2102
1.22056
1.34562
1.35612
1.35889
1.34206
2.20972
2.20225
2.20269
2.20072
1.21201
1.20024
1.20027
1.20815
1.06789
1.05803
1.05549
1.0572
1.04494
1.03464
1.03704
1.03421
1.27609
1.28622
1.28741
1.29307
1.25506
1.24523
1.26256
1.25
4.08656
3.99429
4.09726
3.99508
0.94911
0.951965
0.955756
0.944366
1.32713
1.31734
1.33172
1.28005
1.18893
1.20003
1.19904
1.19434
1.671
1.69016
1.67851
1.66993
0.796639
1.01787
1.01633
0.794942
0.952992
0.942558
0.916551
0.918488
0.426827
0.419902
0.415971
0.425566
1.82755
1.80698
1.81217
1.81662
1.26017
1.24523
1.2561
1.25948
0.500221
0.490953
0.497848
0.496779
1.27307
1.26044
1.25943
1.27091
0.615564
0.615796
0.608814
0.611469
1.05906
1.06109
1.06703
1.05996
1.33918
1.33487
1.34047
1.34091
1.0379
1.03332
1.04049
1.03451
0.719998
0.713264
0.721705
0.714165
1.68062
1.6892
1.68191
1.66929
0.729221
0.681691
0.666347
0.73158
3.57784
3.57373
3.5595
3.57354
1.03479
1.03035
1.03517
1.02726
1.05165
1.05695
1.03687
1.06189
0.496612
0.498991
0.501674
0.4961
1.84635
1.85625
1.84048
1.85131
0.849177
0.851163
0.838732
0.855542
1.59803
1.61127
1.5997
1.60377
1.15095
1.14381
1.15286
1.13805
0.886269
0.916514
0.88811
0.889922
1.10083
1.08171
1.08846
1.09531
1.15226
1.09702
1.15404
1.09777
1.16171
1.10471
1.16126
1.16334
1.81193
1.79441
1.80429
1.80955
-1.35361
-1.4915
-1.46702
-1.41404
1.27161
1.27033
1.27903
1.28084
1.04659
1.05062
1.05108
1.07229
1.25039
1.25093
1.27121
1.17584
1.14822
1.13769
1.13448
1.13773
1.14353
1.17383
1.1605
1.15811
1.14169
1.16401
1.15059
1.15191
1.14927
1.1568
1.16702
1.15197
1.03025
1.24481
1.03572
1.24729
1.13197
1.10106
1.09201
1.12429
1.13487
1.14026
1.13111
1.13753
1.21128
1.21979
1.22325
1.21405
0.59294
0.566414
0.594519
0.59031
1.18938
1.24357
1.22821
1.26364
1.19163
1.21181
1.21533
1.19526
1.16305
1.17834
1.17534
1.17426
1.17927
1.18032
1.19389
1.1801
1.18486
1.18841
1.189
1.19789
1.13206
1.11114
1.11895
1.13166
1.0962
1.16251
1.16743
1.18379
1.23552
1.23985
1.24197
1.23322
0.703549
0.698745
0.699507
0.703509
1.20597
1.20364
1.19298
1.22373
1.22633
1.21534
1.21975
1.22342
1.21827
1.20151
1.21063
1.2175
1.08237
1.08788
1.08833
1.0961
1.51886
1.50985
1.532
1.52937
1.64969
1.64543
1.63141
1.65314
1.21011
1.19042
1.22118
1.19469
1.5293
1.51939
1.51662
1.52617
1.20162
1.20337
1.20409
1.1974
2.58809
2.56668
2.56181
2.5875
1.89437
1.87113
1.90069
1.85023
0.42656
0.364031
0.373972
0.37819
1.12789
1.0728
1.12111
1.09932
1.04276
1.05347
1.03555
1.04006
1.20117
1.20088
1.20008
1.20342
1.49284
1.48835
1.49392
1.47973
1.61998
1.61007
1.6278
1.62262
0.946183
0.947892
0.945423
0.949116
1.1791
1.17751
1.17607
1.16313
1.2841
1.28512
1.2747
1.2858
3.51989
3.42533
3.52818
3.43086
1.01755
1.0243
1.02221
1.01638
1.15565
1.14194
1.13945
1.15335
1.05715
1.14232
1.18231
1.12994
0.524041
0.524175
0.537698
0.541015
0.93566
0.93688
0.928703
0.942561
1.02576
1.02857
1.02882
1.03742
1.13231
1.12484
1.12147
1.12366
1.51567
1.51283
1.5009
1.52632
1.03124
1.01237
1.07029
1.04962
1.11309
1.11621
1.10424
1.10497
-3.78971
-3.8118
-3.77987
-3.78808
0.909695
0.913735
0.918764
0.90904
1.26444
1.26392
1.25988
1.26954
1.21954
1.22759
1.22075
1.21772
1.39463
1.38946
1.40483
1.39467
1.0981
1.08303
1.10148
1.10159
1.86146
1.85902
1.85958
1.84824
1.85324
1.84375
1.84312
1.85298
1.28468
1.27292
1.27085
1.28004
1.03576
1.03103
1.03741
1.02566
1.18274
1.17346
1.17456
1.14417
1.15668
1.1417
1.15141
1.1479
0.919031
0.9253
0.921043
0.933013
1.14322
1.13956
1.13926
1.14921
0.894572
0.877655
0.894768
0.892094
0.673685
0.655455
0.666812
0.663973
1.55683
1.5517
1.55713
1.55192
0.685293
0.693312
0.683027
0.679326
1.55013
1.54405
1.5351
1.55379
-3.65634
-3.5646
-3.65529
-3.57579
1.07236
1.08004
1.07022
1.0767
1.48681
1.48145
1.49049
1.47784
1.08772
1.0896
1.07601
1.08168
0.963542
0.958665
0.954366
0.957813
0.870011
0.870451
0.870545
0.880215
1.31267
1.3102
1.31536
1.29689
1.58032
1.56355
1.51038
1.56334
1.30542
1.31418
1.30999
1.30308
1.11981
1.12248
1.10766
1.11068
1.10279
1.07479
1.08969
1.07407
0.794667
0.786669
0.790749
0.787265
0.860767
0.855438
0.857745
0.852568
0.608659
0.620365
0.655171
0.625882
1.29939
1.29444
1.28587
1.3026
1.25326
1.23799
1.25533
1.23589
1.22207
1.21976
1.22852
1.22913
0.876869
0.882521
0.875451
0.872867
1.6474
1.6354
1.63266
1.63325
1.22477
1.22325
1.2131
1.22308
1.22569
1.23019
1.22704
1.23162
1.30085
1.27974
1.28085
1.28866
1.03161
1.03874
1.04662
1.03211
0.421273
0.417212
0.407595
0.420357
0.933792
0.854304
0.887609
0.892284
0.924972
0.931251
0.939536
0.931126
1.37899
1.38939
1.37152
1.3742
0.993259
0.986372
0.986394
0.995306
1.60938
1.63347
1.62606
1.65993
2.40795
2.36345
2.37595
2.39177
1.28441
1.30246
1.28704
1.30158
0.728628
0.711854
0.713146
0.718713
2.29111
2.28076
2.28842
2.28303
0.692288
0.700409
0.707639
0.692763
0.823632
0.846259
0.837409
0.819029
1.99123
2.01208
1.9986
2.02219
1.33414
1.3231
1.33521
1.34044
1.29832
1.28582
1.29027
1.28783
1.11268
1.09272
1.09238
1.10235
0.836771
0.815199
0.811962
0.809009
0.859113
0.842323
0.847296
0.845253
1.26931
1.25943
1.26923
1.27825
1.26925
1.27645
1.25984
1.25999
0.587889
0.586852
0.586862
0.573569
0.974198
0.975151
0.97626
0.96652
1.11988
1.09528
1.09156
1.10496
0.974554
0.968092
0.95922
0.959508
1.10136
1.09364
1.09619
1.1019
1.07325
1.05644
1.06368
1.0551
1.76188
1.75929
1.77304
1.76426
0.632644
0.66739
0.66914
0.641035
1.30567
1.29332
1.28963
1.30589
)
;

boundaryField
{
    insideCircle
    {
        type            myTemperature;
        value           nonuniform List<scalar> 
24
(
3.33382
3.36867
3.333
3.33242
3.33122
3.33629
3.33171
3.3352
3.32451
3.32241
3.32089
3.33527
3.31895
3.31982
3.31816
3.28811
3.33365
3.33019
3.34352
3.33141
3.33644
3.33621
3.33402
3.32324
)
;
    }
    outsideCircle
    {
        type            myTemperature;
        value           nonuniform List<scalar> 
124
(
1.13551
1.13487
1.13533
1.13356
1.1388
1.13848
1.14006
1.13285
1.13638
1.1402
1.13884
1.14049
1.13681
1.13852
1.13723
1.13788
1.13382
1.13265
1.13345
1.13831
1.13515
1.13307
1.13462
1.13425
1.13195
1.12866
1.13394
1.13985
1.13111
1.1308
1.13272
1.13126
1.13236
1.13233
1.13189
1.13206
1.1332
1.13627
1.13611
1.13268
1.1337
1.13431
1.13412
1.13392
1.13277
1.1323
1.13361
1.13345
1.13248
1.13209
1.13262
1.13311
1.13285
1.13203
1.13334
1.13269
1.13518
1.1287
1.1344
1.12803
1.13452
1.12956
1.13159
1.12982
1.13332
1.13314
1.13262
1.13252
1.131
1.13259
1.13196
1.13146
1.13658
1.13513
1.13677
1.13668
1.13499
1.13511
1.13525
1.13585
1.13259
1.13292
1.13366
1.13452
1.1332
1.13545
1.13511
1.13365
1.13327
1.13299
1.13417
1.13275
1.13543
1.13445
1.13296
1.13468
1.1359
1.13682
1.13452
1.13436
1.13795
1.13784
1.13584
1.13636
1.13629
1.13663
1.13488
1.1338
1.13406
1.13321
1.13501
1.13253
1.13275
1.13409
1.13346
1.13334
1.1331
1.13306
1.13419
1.13328
1.13342
1.13267
1.1323
1.13245
)
;
    }
    topAndBottom
    {
        type            empty;
    }
}


// ************************************************************************* //
