/*--------------------------------*- C++ -*----------------------------------*\
| =========                 |                                                 |
| \\      /  F ield         | foam-extend: Open Source CFD                    |
|  \\    /   O peration     | Version:  3.0                                   |
|   \\  /    A nd           | Web:         http://www.extend-project.de       |
|    \\/     M anipulation  |                                                 |
\*---------------------------------------------------------------------------*/
FoamFile
{
    version     2.0;
    format      ascii;
    class       volSymmTensorField;
    location    "20";
    object      sigma;
}
// * * * * * * * * * * * * * * * * * * * * * * * * * * * * * * * * * * * * * //

dimensions      [0 0 0 0 0 0 0];

internalField   nonuniform List<symmTensor> 
224
(
(-0.150145 -0.018133 -9.53173e-20 0.150138 6.82724e-20 7.26674e-06)
(-0.123422 -0.019251 -1.55539e-19 0.123405 1.83061e-19 1.64982e-05)
(-0.0933019 -0.0169101 -1.21965e-21 0.0932786 1.48932e-19 2.33221e-05)
(-0.0661818 -0.0139878 1.57281e-19 0.0661541 -6.14447e-19 2.76851e-05)
(-0.043207 -0.0112279 2.04281e-19 0.0431783 -2.39589e-19 2.87817e-05)
(-0.0257381 -0.00923916 1.1312e-20 0.0257134 -5.4223e-19 2.47233e-05)
(-0.0137387 -0.00791293 -7.89101e-20 0.0137266 1.02724e-21 1.20628e-05)
(-0.139499 -0.0522221 -4.89868e-20 0.139492 1.48006e-19 7.08908e-06)
(-0.108336 -0.0538743 -2.36373e-20 0.108319 2.63482e-19 1.60979e-05)
(-0.0784614 -0.0466642 -3.19379e-19 0.0784386 -1.7557e-20 2.27534e-05)
(-0.0527498 -0.0381202 -1.27758e-18 0.0527228 -1.73657e-19 2.70011e-05)
(-0.031383 -0.0301659 3.54463e-19 0.0313549 -3.16958e-19 2.80538e-05)
(-0.0149771 -0.0243942 5.8004e-19 0.014953 -1.62835e-18 2.40763e-05)
(-0.00365048 -0.0205304 -5.34422e-20 0.00363875 -6.92499e-19 1.17301e-05)
(-0.12026 -0.0803656 1.44586e-20 0.120253 3.05099e-20 6.64065e-06)
(-0.0822296 -0.0780724 1.0074e-19 0.0822145 1.04401e-19 1.50826e-05)
(-0.0531444 -0.0655335 9.16118e-20 0.0531231 -1.68023e-19 2.13172e-05)
(-0.0300723 -0.051992 -6.26417e-19 0.0300471 1.31459e-19 2.52892e-05)
(-0.0116152 -0.0397348 -1.08389e-18 0.011589 -1.06627e-18 2.6259e-05)
(0.00283722 -0.0307186 -3.40767e-18 -0.00285973 -1.08819e-18 2.25139e-05)
(0.0129154 -0.0246367 -3.50435e-19 -0.0129264 6.20913e-19 1.09515e-05)
(-0.0958997 -0.10035 5.26595e-20 0.0958937 -3.96093e-20 5.93738e-06)
(-0.0519041 -0.088514 6.98407e-20 0.0518906 -4.99593e-20 1.34889e-05)
(-0.0246323 -0.0701798 -7.29001e-20 0.0246132 -2.78922e-19 1.90637e-05)
(-0.00512399 -0.0525424 -6.60619e-19 0.00510139 -1.39517e-19 2.2608e-05)
(0.00963985 -0.0372073 -1.22988e-18 -0.00966331 -2.3272e-19 2.34579e-05)
(0.0215434 -0.0257006 -2.239e-18 -0.0215634 2.10951e-18 2.00891e-05)
(0.0299642 -0.0178547 8.46286e-19 -0.029974 4.68354e-19 9.75333e-06)
(-0.0702558 -0.111985 5.06538e-20 0.0702507 -2.73149e-20 5.00625e-06)
(-0.0246789 -0.086022 4.36026e-20 0.0246676 -4.12937e-20 1.13773e-05)
(-0.000717771 -0.0617568 -1.73905e-19 0.000701692 -9.43347e-20 1.60784e-05)
(0.0146576 -0.0410389 -6.73975e-19 -0.0146767 1.18086e-19 1.90592e-05)
(0.025518 -0.0238836 -8.39724e-19 -0.0255378 1.00876e-18 1.97571e-05)
(0.0346082 -0.01069 1.61685e-18 -0.0346251 1.43052e-18 1.68944e-05)
(0.0411525 -0.00157665 6.48247e-19 -0.0411607 -9.80137e-19 8.18191e-06)
(-0.0464055 -0.116913 -1.50247e-20 0.0464016 4.77809e-20 3.88165e-06)
(-0.00603734 -0.0751293 8.43284e-20 0.00602851 3.49135e-21 8.8263e-06)
(0.012852 -0.0454164 -8.71199e-20 -0.0128644 1.69784e-20 1.24719e-05)
(0.0238413 -0.0225948 -8.19699e-20 -0.023856 6.95201e-20 1.47741e-05)
(0.0310492 -0.00463582 -8.54763e-19 -0.0310645 1.00714e-18 1.52929e-05)
(0.037338 0.00954466 2.41075e-18 -0.037351 -1.08281e-19 1.30467e-05)
(0.0419494 0.0194708 -1.74723e-18 -0.0419557 -1.24503e-19 6.29399e-06)
(-0.0258427 -0.117849 8.73212e-20 0.0258401 9.05483e-21 2.60692e-06)
(0.00208013 -0.0624089 2.76257e-19 -0.00208606 -8.5733e-20 5.93331e-06)
(0.0142234 -0.0284836 -4.68982e-19 -0.0142318 -4.53768e-20 8.38196e-06)
(0.0207854 -0.00439784 -1.29636e-18 -0.0207953 2.85326e-19 9.91574e-06)
(0.024818 0.0137489 -9.17374e-19 -0.0248283 1.04297e-18 1.02353e-05)
(0.0284714 0.0284114 1.25782e-18 -0.0284801 3.86902e-19 8.69288e-06)
(0.0311931 0.0387907 5.50293e-19 -0.0311973 -5.41434e-20 4.16223e-06)
(-0.00822558 -0.117487 3.44601e-20 0.00822435 5.38518e-21 1.22987e-06)
(0.00176283 -0.0541468 -1.38572e-19 -0.00176563 -1.50927e-20 2.80743e-06)
(0.00595684 -0.0179174 -2.38931e-19 -0.00596081 1.08144e-19 3.96251e-06)
(0.00813559 0.00674975 -4.14619e-19 -0.00814025 3.56849e-19 4.66705e-06)
(0.00942372 0.0248676 -4.33723e-19 -0.00942849 7.47526e-19 4.77409e-06)
(0.0106181 0.0397084 6.0727e-19 -0.0106221 4.26458e-19 3.99571e-06)
(0.0115165 0.0502823 3.12952e-19 -0.0115183 -7.97017e-20 1.86572e-06)
(0.00822834 -0.117487 2.78179e-20 -0.00822814 1.19446e-20 -1.96144e-07)
(-0.00175964 -0.0541467 -1.39639e-19 0.00176007 1.86764e-20 -4.30959e-07)
(-0.0059525 -0.0179175 1.96199e-20 0.00595312 2.73157e-19 -6.16315e-07)
(-0.00812952 0.00674965 -3.18542e-19 0.00813029 3.83252e-19 -7.70072e-07)
(-0.00941529 0.0248675 -1.20287e-19 0.00941617 5.03597e-19 -8.80355e-07)
(-0.0106069 0.0397083 -5.46198e-20 0.0106077 2.89264e-19 -8.63595e-07)
(-0.011502 0.0502823 1.8676e-19 0.0115025 -1.01069e-20 -5.06341e-07)
(0.025845 -0.117848 4.87327e-20 -0.0258434 1.17604e-20 -1.61705e-06)
(-0.00207694 -0.0624088 1.55677e-19 0.0020806 4.42168e-20 -3.65839e-06)
(-0.0142188 -0.0284837 4.70698e-19 0.014224 4.15723e-19 -5.17988e-06)
(-0.020779 -0.00439802 -1.16346e-18 0.0207852 3.63858e-19 -6.18823e-06)
(-0.0248092 0.0137488 -1.8614e-19 0.0248157 3.91003e-19 -6.51266e-06)
(-0.0284597 0.0284112 -4.20268e-19 0.0284654 9.27669e-20 -5.70034e-06)
(-0.0311782 0.0387908 1.99831e-19 0.0311811 -1.73013e-20 -2.86442e-06)
(0.0464072 -0.116913 1.18563e-19 -0.0464043 3.09512e-20 -2.97734e-06)
(0.00604055 -0.0751292 1.82888e-19 -0.0060338 -1.11682e-20 -6.74933e-06)
(-0.0128471 -0.0454164 5.40352e-19 0.0128566 1.40331e-19 -9.55058e-06)
(-0.0238343 -0.0225948 3.96903e-19 0.0238457 3.36375e-19 -1.13764e-05)
(-0.0310397 -0.00463567 3.77106e-19 0.0310516 8.47321e-19 -1.1903e-05)
(-0.0373255 0.00954492 -2.04676e-18 0.0373359 7.58145e-19 -1.03252e-05)
(-0.041934 0.0194716 -2.56547e-19 0.0419392 -8.35448e-20 -5.11556e-06)
(0.0702571 -0.111984 3.36254e-21 -0.0702528 -5.79621e-20 -4.22497e-06)
(0.0246822 -0.0860219 4.2953e-20 -0.0246727 -6.91117e-20 -9.58476e-06)
(0.000722967 -0.0617565 7.78826e-20 -0.000709407 -1.03455e-19 -1.35599e-05)
(-0.0146502 -0.0410384 1.30541e-19 0.0146664 -7.6388e-20 -1.61343e-05)
(-0.0255081 -0.0238828 4.31593e-19 0.0255249 -3.25232e-19 -1.68434e-05)
(-0.0345953 -0.0106888 1.75342e-18 0.0346098 8.78895e-19 -1.45601e-05)
(-0.0411369 -0.00157481 1.32626e-18 0.041144 5.78575e-19 -7.17372e-06)
(0.095901 -0.100351 -2.20222e-20 -0.0958957 -1.00262e-19 -5.31073e-06)
(0.0519076 -0.0885139 -1.10515e-20 -0.0518955 -9.58564e-20 -1.20533e-05)
(0.0246377 -0.0701792 -5.05566e-20 -0.0246207 -2.36353e-19 -1.70501e-05)
(0.00513157 -0.0525412 7.32756e-20 -0.0051113 -3.16126e-19 -2.02743e-05)
(-0.00962983 -0.0372056 7.88163e-19 0.00965096 -1.50993e-18 -2.11386e-05)
(-0.0215305 -0.0256982 3.89957e-18 0.0215487 1.20462e-19 -1.82368e-05)
(-0.0299489 -0.0178516 -1.06871e-18 0.0299579 -4.89565e-19 -8.95643e-06)
(0.120262 -0.0803667 -5.25547e-21 -0.120256 -9.16934e-20 -6.19288e-06)
(0.0822333 -0.0780723 -5.09203e-20 -0.0822192 -7.82353e-20 -1.40592e-05)
(0.0531499 -0.0655326 -2.58773e-19 -0.05313 -4.10532e-19 -1.98856e-05)
(0.0300798 -0.0519903 -1.14433e-19 -0.0300562 -7.32703e-19 -2.36355e-05)
(0.0116249 -0.0397324 4.33159e-19 -0.0116003 -1.29189e-18 -2.46214e-05)
(-0.00282501 -0.0307152 1.88944e-18 0.00284622 -8.52909e-19 -2.12126e-05)
(-0.0129011 -0.0246325 -1.56131e-18 0.0129115 3.08925e-19 -1.03951e-05)
(0.139502 -0.0522233 -8.61521e-21 -0.139495 -2.3171e-20 -6.83625e-06)
(0.10834 -0.0538742 -1.6284e-19 -0.108324 -7.21186e-20 -1.5523e-05)
(0.0784669 -0.0466631 -8.2857e-19 -0.0784449 -1.83672e-20 -2.19537e-05)
(0.052757 -0.0381182 -9.49317e-19 -0.0527309 -3.23967e-19 -2.60839e-05)
(0.0313921 -0.0301631 6.85782e-19 -0.031365 -5.86948e-19 -2.71524e-05)
(0.0149883 -0.0243905 1.59572e-18 -0.014965 -1.35513e-18 -2.33677e-05)
(0.00366353 -0.0205257 8.80631e-19 -0.0036521 9.95325e-19 -1.14311e-05)
(0.150149 -0.018134 -9.34387e-20 -0.150141 -2.36742e-20 -7.21627e-06)
(0.123426 -0.0192508 -2.37812e-19 -0.123409 -9.88013e-20 -1.63881e-05)
(0.0933073 -0.0169089 -8.75124e-20 -0.0932842 2.69596e-19 -2.31744e-05)
(0.0661886 -0.0139859 1.85091e-19 -0.0661611 3.31973e-19 -2.75244e-05)
(0.0432156 -0.0112253 3.88612e-19 -0.043187 2.10459e-20 -2.86336e-05)
(0.0257484 -0.00923565 5.92359e-19 -0.0257238 -9.18289e-19 -2.46187e-05)
(0.0137504 -0.00790836 -3.80993e-20 -0.0137384 -4.41959e-19 -1.20251e-05)
(0.150149 0.0181315 -9.53179e-20 -0.150142 6.82855e-20 -7.31741e-06)
(0.123426 0.01925 -1.55542e-19 -0.123409 1.83088e-19 -1.66197e-05)
(0.0933075 0.0169091 -1.20858e-21 -0.093284 1.48961e-19 -2.34984e-05)
(0.0661888 0.0139868 1.57293e-19 -0.0661609 -6.14382e-19 -2.78988e-05)
(0.0432157 0.0112269 2.04295e-19 -0.0431867 -2.39548e-19 -2.90046e-05)
(0.0257483 0.00923802 1.13333e-20 -0.0257234 -5.42175e-19 -2.49143e-05)
(0.01375 0.00791252 -7.88442e-20 -0.0137379 1.03962e-21 -1.21519e-05)
(0.139503 0.0522213 -4.8989e-20 -0.139496 1.48016e-19 -7.13642e-06)
(0.10834 0.0538736 -2.36418e-20 -0.108324 2.63499e-19 -1.62097e-05)
(0.0784674 0.0466634 -3.1935e-19 -0.0784445 -1.75296e-20 -2.29145e-05)
(0.0527574 0.0381191 -1.27756e-18 -0.0527302 -1.73558e-19 -2.71943e-05)
(0.0313923 0.0301647 3.5446e-19 -0.0313641 -3.16894e-19 -2.8253e-05)
(0.0149882 0.0243928 5.80033e-19 -0.014964 -1.62825e-18 -2.4245e-05)
(0.0036624 0.0205296 -5.33677e-20 -0.00365059 -6.92466e-19 -1.18083e-05)
(0.120264 0.0803654 1.44571e-20 -0.120257 3.05143e-20 -6.67982e-06)
(0.0822346 0.078072 1.00737e-19 -0.0822195 1.04414e-19 -1.51736e-05)
(0.0531508 0.0655329 9.16285e-20 -0.0531294 -1.67999e-19 -2.14448e-05)
(0.0300805 0.0519913 -6.26375e-19 -0.0300551 1.31489e-19 -2.54376e-05)
(0.0116253 0.0397339 -1.0838e-18 -0.0115989 -1.06619e-18 -2.64073e-05)
(-0.00282519 0.0307174 -3.4077e-18 0.00284782 -1.08788e-18 -2.26359e-05)
(-0.0129028 0.024636 -3.50471e-19 0.0129138 6.21022e-19 -1.10064e-05)
(0.0959037 0.10035 5.26581e-20 -0.0958977 -3.96049e-20 -5.96625e-06)
(0.0519093 0.0885139 6.984e-20 -0.0518957 -4.99447e-20 -1.35532e-05)
(0.024639 0.0701797 -7.28907e-20 -0.0246198 -2.78887e-19 -1.91489e-05)
(0.00513251 0.0525422 -6.60596e-19 -0.00510981 -1.39461e-19 -2.27002e-05)
(-0.0096293 0.0372071 -1.22983e-18 0.00965284 -2.3263e-19 -2.3543e-05)
(-0.0215307 0.0257004 -2.23898e-18 0.0215509 2.10959e-18 -2.01534e-05)
(-0.0299511 0.0178546 8.46452e-19 0.0299609 4.68272e-19 -9.78004e-06)
(0.0702597 0.111985 5.06525e-20 -0.0702547 -2.73111e-20 -5.02306e-06)
(0.0246841 0.0860223 4.3604e-20 -0.0246727 -4.12821e-20 -1.14113e-05)
(0.000724412 0.0617572 -1.73896e-19 -0.000708296 -9.43057e-20 -1.61159e-05)
(-0.0146491 0.0410395 -6.73959e-19 0.0146682 1.18136e-19 -1.90887e-05)
(-0.0255075 0.0238843 -8.39704e-19 0.0255273 1.00885e-18 -1.97716e-05)
(-0.0345956 0.0106908 1.61705e-18 0.0346125 1.43044e-18 -1.68939e-05)
(-0.0411394 0.00157737 6.48313e-19 0.0411476 -9.80116e-19 -8.17617e-06)
(0.0464095 0.116914 -1.50241e-20 -0.0464056 4.77827e-20 -3.8878e-06)
(0.00604236 0.07513 8.43329e-20 -0.00603352 3.49672e-21 -8.83282e-06)
(-0.0128456 0.0454173 -8.71092e-20 0.012858 1.69976e-20 -1.24664e-05)
(-0.0238332 0.022596 -8.19432e-20 0.0238479 6.95509e-20 -1.47468e-05)
(-0.0310392 0.00463723 -8.54767e-19 0.0310544 1.00721e-18 -1.52439e-05)
(-0.037326 -0.00954294 2.41093e-18 0.037339 -1.08333e-19 -1.29883e-05)
(-0.0419368 -0.0194695 -1.7474e-18 0.0419431 -1.24341e-19 -6.2599e-06)
(0.0258467 0.11785 8.7328e-20 -0.0258441 9.05393e-21 -2.60404e-06)
(-0.00207535 0.0624099 2.76269e-19 0.00208127 -8.57353e-20 -5.91748e-06)
(-0.0142174 0.0284848 -4.68991e-19 0.0142258 -4.53659e-20 -8.34158e-06)
(-0.020778 0.0043993 -1.2964e-18 0.0207878 2.85364e-19 -9.84305e-06)
(-0.0248088 -0.0137472 -9.17399e-19 0.0248189 1.04305e-18 -1.01352e-05)
(-0.0284605 -0.0284093 1.2579e-18 0.028469 3.86961e-19 -8.5877e-06)
(-0.0311812 -0.0387892 5.5039e-19 0.0311853 -5.41204e-20 -4.10462e-06)
(0.00822934 0.117489 3.44666e-20 -0.00822811 5.38411e-21 -1.22228e-06)
(-0.00175841 0.054148 -1.38568e-19 0.00176119 -1.50918e-20 -2.77947e-06)
(-0.00595136 0.0179187 -2.38931e-19 0.00595526 1.08158e-19 -3.90333e-06)
(-0.00812874 -0.00674835 -4.14625e-19 0.00813331 3.5688e-19 -4.56988e-06)
(-0.00941522 -0.024866 -4.33737e-19 0.00941987 7.4758e-19 -4.64681e-06)
(-0.010608 -0.0397066 6.0733e-19 0.0106119 4.26511e-19 -3.86585e-06)
(-0.0115052 -0.0502812 3.12998e-19 0.011507 -7.96516e-20 -1.79621e-06)
(-0.00822527 0.117489 2.78227e-20 0.00822506 1.19433e-20 2.04769e-07)
(0.00176359 0.0541481 -1.39634e-19 -0.00176405 1.8676e-20 4.60836e-07)
(0.00595757 0.0179186 1.96336e-20 -0.00595825 2.73171e-19 6.78013e-07)
(0.00813595 -0.00674856 -3.18524e-19 -0.00813682 3.83278e-19 8.70134e-07)
(0.00942333 -0.0248664 -1.20272e-19 -0.00942434 5.03626e-19 1.01079e-06)
(0.0106165 -0.0397071 -5.45965e-20 -0.0106175 2.89303e-19 9.96452e-07)
(0.0115131 -0.0502818 1.86767e-19 -0.0115137 -1.00416e-20 5.77691e-07)
(-0.0258429 0.11785 4.87372e-20 0.0258413 1.17585e-20 1.62152e-06)
(0.00208039 0.06241 1.55687e-19 -0.00208407 4.42124e-20 3.67779e-06)
(0.0142236 0.0284845 4.70721e-19 -0.0142288 4.15723e-19 5.22483e-06)
(0.0207853 0.00439873 -1.1635e-18 -0.0207915 3.63852e-19 6.26602e-06)
(0.0248171 -0.0137481 -1.86127e-19 -0.0248237 3.91025e-19 6.61779e-06)
(0.0284693 -0.0284107 -4.20203e-19 -0.0284752 9.28155e-20 5.80978e-06)
(0.0311895 -0.0387908 1.99864e-19 -0.0311925 -1.72309e-20 2.92384e-06)
(-0.0464061 0.116914 1.1857e-19 0.0464032 3.09498e-20 2.97439e-06)
(-0.00603752 0.0751301 1.82899e-19 0.00603077 -1.11713e-20 6.74921e-06)
(0.0128517 0.045417 5.40377e-19 -0.0128613 1.4033e-19 9.56446e-06)
(0.0238406 0.0225952 3.96917e-19 -0.023852 3.36369e-19 1.1413e-05)
(0.0310478 0.00463601 3.77161e-19 -0.0310598 8.47291e-19 1.19618e-05)
(0.0373355 -0.00954476 -2.0469e-18 -0.0373459 7.58038e-19 1.03923e-05)
(0.0419458 -0.0194717 -2.56668e-19 -0.041951 -8.34933e-20 5.15433e-06)
(-0.0702566 0.111985 3.36638e-21 0.0702524 -5.79663e-20 4.21112e-06)
(-0.0246795 0.0860223 4.29591e-20 0.0246699 -6.91201e-20 9.55711e-06)
(-0.000718369 0.0617568 7.78908e-20 0.000704838 -1.03468e-19 1.35304e-05)
(0.0146566 0.0410386 1.30537e-19 -0.0146727 -7.64125e-20 1.61138e-05)
(0.0255164 0.023883 4.31594e-19 -0.0255332 -3.25289e-19 1.68378e-05)
(0.0346056 0.0106889 1.75336e-18 -0.0346202 8.78861e-19 1.4568e-05)
(0.041149 0.00157491 1.3263e-18 -0.0411562 5.78698e-19 7.18272e-06)
(-0.0959005 0.10035 -2.20218e-20 0.0958952 -1.00271e-19 5.28544e-06)
(-0.0519048 0.0885137 -1.10515e-20 0.0518928 -9.58732e-20 1.19961e-05)
(-0.0246331 0.0701792 -5.05616e-20 0.0246161 -2.36383e-19 1.6974e-05)
(-0.00512513 0.0525413 7.32594e-20 0.00510494 -3.16172e-19 2.01924e-05)
(0.00963813 0.0372058 7.88153e-19 -0.0096592 -1.51004e-18 2.10639e-05)
(0.0215409 0.0256986 3.89971e-18 -0.021559 1.20628e-19 1.81817e-05)
(0.0299611 0.0178521 -1.06879e-18 -0.02997 -4.89516e-19 8.93449e-06)
(-0.120261 0.0803652 -5.25652e-21 0.120255 -9.17058e-20 6.15605e-06)
(-0.0822302 0.0780716 -5.09252e-20 0.0822162 -7.82584e-20 1.3973e-05)
(-0.0531452 0.0655323 -2.58791e-19 0.0531254 -4.10576e-19 1.97642e-05)
(-0.0300734 0.0519903 -1.14467e-19 0.0300499 -7.32762e-19 2.34941e-05)
(-0.0116167 0.0397325 4.33161e-19 0.0115922 -1.29203e-18 2.44799e-05)
(0.00283514 0.0307156 1.8895e-18 -0.00285624 -8.52792e-19 2.10961e-05)
(0.0129129 0.0246333 -1.56144e-18 -0.0129233 3.08834e-19 1.03425e-05)
(-0.1395 0.0522213 -8.61579e-21 0.139493 -2.31822e-20 6.79085e-06)
(-0.108336 0.0538732 -1.62849e-19 0.108321 -7.21412e-20 1.54147e-05)
(-0.0784619 0.0466625 -8.28605e-19 0.0784401 -1.84153e-20 2.17979e-05)
(-0.0527505 0.0381179 -9.49366e-19 0.0527246 -3.24067e-19 2.58973e-05)
(-0.031384 0.030163 6.85801e-19 0.031357 -5.87052e-19 2.69606e-05)
(-0.0149785 0.0243906 1.59577e-18 0.0149553 -1.35517e-18 2.32056e-05)
(-0.0036521 0.0205263 8.80595e-19 0.00364075 9.9548e-19 1.13565e-05)
(-0.150145 0.0181321 -9.34398e-20 0.150138 -2.36877e-20 7.16544e-06)
(-0.123422 0.0192496 -2.37815e-19 0.123406 -9.88344e-20 1.6266e-05)
(-0.0933021 0.0169081 -8.75232e-20 0.0932791 2.69566e-19 2.29973e-05)
(-0.066182 0.0139852 1.85075e-19 0.0661547 3.31945e-19 2.73102e-05)
(-0.0432074 0.0112246 3.88611e-19 0.043179 2.1002e-20 2.84114e-05)
(-0.0257386 0.00923515 5.92357e-19 0.0257141 -9.18329e-19 2.44293e-05)
(-0.0137392 0.00790854 -3.81705e-20 0.0137273 -4.41966e-19 1.19369e-05)
)
;

boundaryField
{
    out
    {
        type            mySigma;
    }
    in
    {
        type            mySigma;
    }
    frontAndBack
    {
        type            empty;
    }
}


// ************************************************************************* //
