/*--------------------------------*- C++ -*----------------------------------*\
| =========                 |                                                 |
| \\      /  F ield         | foam-extend: Open Source CFD                    |
|  \\    /   O peration     | Version:  3.0                                   |
|   \\  /    A nd           | Web:         http://www.extend-project.de       |
|    \\/     M anipulation  |                                                 |
\*---------------------------------------------------------------------------*/
FoamFile
{
    version     2.0;
    format      ascii;
    class       volSymmTensorField;
    location    "3";
    object      sigma;
}
// * * * * * * * * * * * * * * * * * * * * * * * * * * * * * * * * * * * * * //

dimensions      [0 0 0 0 0 0 0];

internalField   nonuniform List<symmTensor> 
480
(
(-0.173262 -0.0119525 1.68661e-20 0.172818 -5.24886e-21 0.000443941)
(-0.157575 -0.0140575 7.75863e-20 0.156527 -2.70992e-20 0.00104848)
(-0.137796 -0.0138331 8.22499e-20 0.136308 1.38622e-19 0.00148826)
(-0.118896 -0.0127794 -7.274e-20 0.117105 9.19496e-20 0.0017908)
(-0.102321 -0.0114266 6.23743e-20 0.100363 -1.45403e-19 0.00195804)
(-0.0883612 -0.00998616 2.76903e-19 0.0863562 -5.43789e-20 0.00200508)
(-0.0768419 -0.00846823 3.0962e-19 0.0749216 -1.2802e-19 0.00192031)
(-0.0677741 -0.00694153 -3.21605e-22 0.0660583 -4.48859e-20 0.0017158)
(-0.0607221 -0.00530802 3.30557e-19 0.0594042 -4.44376e-19 0.00131789)
(-0.0558412 -0.00385883 9.26492e-20 0.0552175 -9.89055e-20 0.000623736)
(-0.168585 -0.0370156 1.39804e-22 0.1681 -1.34307e-20 0.000485386)
(-0.150748 -0.0408365 1.20022e-19 0.149595 -9.69556e-20 0.00115262)
(-0.130668 -0.0388247 2.94268e-19 0.129022 -1.52785e-19 0.00164584)
(-0.112131 -0.034972 8.09977e-21 0.110139 -1.28528e-19 0.0019916)
(-0.0961321 -0.0307119 -1.99327e-19 0.0939418 -1.39117e-19 0.00219024)
(-0.0827417 -0.0266503 1.46621e-19 0.0804896 -5.71234e-21 0.00225209)
(-0.071724 -0.0229119 2.10311e-19 0.0695619 -1.48822e-19 0.00216212)
(-0.0629812 -0.0197285 1.59274e-19 0.0610548 -1.13432e-19 0.0019264)
(-0.0561134 -0.017003 -4.69491e-19 0.0546457 -2.93811e-19 0.0014677)
(-0.0510836 -0.0154987 6.11029e-20 0.0504033 1.7972e-19 0.000680257)
(-0.159376 -0.0602054 -4.14661e-20 0.158851 -4.03778e-20 0.000524173)
(-0.137787 -0.0643924 -1.12346e-20 0.136538 -1.93958e-19 0.0012496)
(-0.117268 -0.0603042 -1.78797e-21 0.115476 -1.59689e-19 0.00179264)
(-0.0994612 -0.0537558 -1.27498e-19 0.097281 -9.01183e-21 0.00218016)
(-0.0845483 -0.0468314 -1.87635e-19 0.0821367 2.71581e-19 0.00241167)
(-0.0722135 -0.0404109 3.11004e-19 0.0697204 1.064e-19 0.00249309)
(-0.0621051 -0.0347126 8.6604e-20 0.0597003 -1.38103e-20 0.00240483)
(-0.0539721 -0.0301041 -7.63675e-20 0.0518282 -5.34305e-20 0.00214394)
(-0.0474811 -0.0264943 -2.11929e-19 0.0458534 3.9879e-19 0.00162775)
(-0.0424016 -0.0249781 6.14058e-19 0.0416582 -2.91607e-19 0.000743484)
(-0.146468 -0.0805197 -1.30675e-19 0.145911 -9.26474e-21 0.000556453)
(-0.120197 -0.0830844 -3.85026e-19 0.118865 2.15019e-19 0.0013318)
(-0.0992454 -0.0765046 -4.55697e-21 0.0973251 2.76572e-19 0.00192032)
(-0.0824901 -0.0674266 2.03105e-19 0.0801417 2.34632e-19 0.00234839)
(-0.0690642 -0.0582098 1.24331e-19 0.0664498 3.15522e-19 0.00261441)
(-0.0581583 -0.0498269 1.55281e-19 0.0554399 -6.06194e-20 0.00271839)
(-0.0492713 -0.0425344 2.20942e-19 0.0466361 -3.75685e-20 0.00263521)
(-0.0419597 -0.0367616 3.1691e-19 0.0396089 1.16579e-20 0.00235083)
(-0.035963 -0.0324482 3.63917e-19 0.034186 -3.67174e-19 0.00177701)
(-0.0302176 -0.0311162 -9.0362e-19 0.0294208 8.22037e-20 0.000796726)
(-0.130951 -0.0973412 3.81882e-20 0.13037 -1.97747e-20 0.00058118)
(-0.0999403 -0.0959498 -2.71879e-19 0.0985437 4.6173e-19 0.00139654)
(-0.0787713 -0.0863916 -2.0895e-19 0.0767468 5.03467e-19 0.00202448)
(-0.0633615 -0.0749792 -2.3765e-20 0.0608709 3.45976e-19 0.00249054)
(-0.0517298 -0.0639024 3.97128e-19 0.0489379 -8.10318e-20 0.00279193)
(-0.042553 -0.0540135 7.45836e-20 0.0396309 -3.76215e-19 0.00292206)
(-0.0351591 -0.0455196 3.69517e-19 0.0323089 -6.07209e-19 0.0028502)
(-0.0288769 -0.0387679 -1.05182e-19 0.0263272 -4.54568e-19 0.00254968)
(-0.0234516 -0.0336814 -4.53117e-19 0.0215245 -4.216e-19 0.00192711)
(-0.0169208 -0.0314226 6.34253e-19 0.0160669 1.81882e-19 0.000853881)
(-0.11397 -0.110504 4.48048e-20 0.113373 1.53357e-19 0.000597064)
(-0.0791335 -0.102824 3.30372e-19 0.0776931 3.09987e-19 0.00144043)
(-0.0581893 -0.0897991 3.27291e-19 0.0560899 2.49676e-19 0.00209949)
(-0.0443696 -0.0762308 2.5233e-19 0.0417713 -4.96261e-20 0.00259831)
(-0.0346932 -0.0636832 -1.34869e-20 0.0317604 -5.62206e-19 0.00293279)
(-0.0273852 -0.0526723 -4.01932e-19 0.0242962 -7.94076e-19 0.00308897)
(-0.02162 -0.0432951 -1.10546e-18 0.0185899 -3.63748e-19 0.00303014)
(-0.0165394 -0.0357702 1.05837e-19 0.0138231 -3.06261e-19 0.00271625)
(-0.0118941 -0.0300644 -1.00211e-18 0.00984459 -2.18067e-19 0.00204952)
(-0.00567982 -0.0267381 2.28851e-19 0.00478413 -2.48529e-19 0.000895693)
(-0.0965595 -0.12025 -4.29835e-20 0.0959565 2.0963e-19 0.000602998)
(-0.0597334 -0.104331 5.32524e-19 0.0582729 4.53946e-20 0.00146049)
(-0.0396809 -0.0874535 7.43237e-19 0.0375407 -2.3484e-19 0.00214024)
(-0.0276497 -0.0719086 6.10911e-19 0.0249852 -6.23325e-19 0.00266445)
(-0.0199302 -0.0582507 -3.09668e-19 0.0169027 -7.14924e-19 0.00302756)
(-0.0144375 -0.0464782 -8.58874e-19 0.0112294 -4.25772e-19 0.00320813)
(-0.0102459 -0.0365203 -1.00043e-18 0.00708235 1.42981e-19 0.00316359)
(-0.00638434 -0.0284237 -5.50145e-19 0.00354354 -2.73317e-19 0.0028408)
(-0.00259629 -0.0222293 -1.27114e-18 0.00045734 2.06302e-19 0.00213895)
(0.00350725 -0.0181625 5.43438e-20 -0.00443004 -1.10179e-19 0.000922794)
(-0.0794799 -0.127135 1.02097e-19 0.078882 -1.72472e-20 0.000597887)
(-0.0432509 -0.101748 2.49916e-19 0.0417971 -1.66002e-19 0.0014538)
(-0.0249602 -0.080829 1.63527e-19 0.0228184 -3.17515e-19 0.00214183)
(-0.0149171 -0.0634947 -1.14938e-19 0.0122352 -3.9947e-19 0.00268188)
(-0.00909059 -0.0490356 -5.61482e-19 0.00602352 -1.97112e-19 0.00306707)
(-0.00528564 -0.0368144 -5.14433e-19 0.00201681 1.99072e-20 0.00326883)
(-0.00253468 -0.0265338 -3.60975e-19 -0.000705092 9.33718e-20 0.00323977)
(0.000186886 -0.0179804 -4.51502e-19 -0.00310169 9.40409e-20 0.0029148)
(0.00314653 -0.0112306 -9.71344e-21 -0.00533899 -7.47777e-20 0.00219246)
(0.00904267 -0.0058835 -1.10311e-18 -0.00997911 8.15187e-20 0.000936434)
(-0.0631523 -0.131867 -2.01945e-20 0.0625714 -5.55435e-20 0.000580899)
(-0.0305515 -0.0967638 -2.20743e-19 0.0291334 -1.21109e-19 0.00141805)
(-0.015028 -0.0718893 -4.2474e-19 0.012928 -7.57496e-20 0.00210004)
(-0.00718955 -0.0529571 -3.40932e-19 0.00454544 4.36639e-20 0.00264411)
(-0.00316626 -0.037905 5.89465e-20 0.000124233 1.77659e-20 0.00304203)
(-0.000893734 -0.0254228 -2.78838e-19 -0.00236513 1.43813e-20 0.00325886)
(0.00055816 -0.0149616 -2.35708e-19 -0.0038015 3.50817e-20 0.00324334)
(0.00215503 -0.0060256 -2.2314e-19 -0.00507583 1.30226e-19 0.0029208)
(0.00421486 0.00125876 7.67734e-21 -0.00640627 -5.26649e-20 0.00219141)
(0.00934862 0.00816894 -4.23973e-19 -0.0102724 2.24272e-19 0.000923819)
(-0.0476309 -0.135142 -3.23948e-20 0.0470794 -4.36939e-20 0.00055157)
(-0.0217501 -0.0911897 -8.51629e-20 0.0203983 -1.49577e-19 0.00135186)
(-0.0100329 -0.062778 -5.8843e-19 0.00802043 -2.05473e-20 0.00201245)
(-0.00463679 -0.0424786 -5.25784e-19 0.00208915 1.37967e-19 0.00254764)
(-0.00234173 -0.026979 -3.41833e-19 -0.000606537 1.78687e-19 0.00294827)
(-0.0014534 -0.0143574 3.16243e-20 -0.00172102 1.04327e-19 0.00317443)
(-0.00117107 -0.00380842 -2.48753e-19 -0.00200181 1.04119e-19 0.00317288)
(-0.00072901 0.00542905 6.27715e-20 -0.00213278 2.65402e-19 0.00286179)
(0.000256515 0.0132636 6.19991e-19 -0.00240215 1.64563e-20 0.00214564)
(0.00371085 0.021676 -3.40002e-20 -0.00460755 -2.90981e-20 0.000896704)
(-0.0326796 -0.137506 -3.66023e-20 0.03217 -2.93887e-20 0.000509653)
(-0.0162447 -0.0866607 -5.18427e-20 0.0149902 -1.02376e-19 0.00125449)
(-0.00928753 -0.0554728 -2.80325e-19 0.00741033 -1.36961e-20 0.00187721)
(-0.00659442 -0.0340876 -1.74215e-19 0.00420548 1.06138e-19 0.00238894)
(-0.00601976 -0.0182223 -1.74353e-19 0.00324018 1.03929e-19 0.00277957)
(-0.00643812 -0.00549129 -3.52373e-19 0.00343245 7.44991e-20 0.00300567)
(-0.00724717 0.0051341 -3.2943e-19 0.00423373 1.52214e-19 0.00301344)
(-0.0079401 0.0145838 -5.43255e-20 0.00522272 2.61553e-19 0.00271738)
(-0.00805518 0.022867 4.23614e-19 0.00602588 5.07834e-20 0.0020293)
(-0.00666331 0.0317989 -3.11549e-20 0.00582787 -2.60749e-20 0.000835441)
(-0.0178708 -0.13924 -5.47219e-20 0.0174152 -1.47784e-20 0.000455647)
(-0.0128457 -0.0843653 -9.13471e-20 0.0117188 -6.94038e-20 0.00112686)
(-0.0113791 -0.0514676 -2.13121e-19 0.00968352 -1.41237e-20 0.00169554)
(-0.011626 -0.0293427 -2.88901e-19 0.00945642 1.00737e-19 0.00216955)
(-0.012811 -0.0131579 -2.70154e-19 0.0102726 9.2923e-20 0.00253841)
(-0.014508 -0.000281173 -2.5605e-19 0.011751 7.48772e-20 0.00275705)
(-0.0163802 0.0104673 -9.59242e-20 0.0136067 1.44663e-19 0.00277351)
(-0.0181808 0.0200676 -4.66855e-20 0.015679 2.35545e-19 0.00250181)
(-0.0193951 0.0287008 3.26689e-19 0.0175313 1.0142e-19 0.00186375)
(-0.0196482 0.0378744 1.64137e-19 0.0188894 -3.36445e-20 0.00075874)
(-0.00272899 -0.140339 -5.0862e-20 0.00233897 -3.25718e-21 0.00039002)
(-0.0100069 -0.0848772 -1.53012e-19 0.00903666 -5.43475e-20 0.000970207)
(-0.0144248 -0.0515654 -1.10655e-19 0.0129559 -2.28806e-20 0.00146885)
(-0.0177922 -0.029133 -2.36512e-19 0.0159018 9.49814e-20 0.00189036)
(-0.0208208 -0.0127038 -3.16965e-19 0.0185967 9.61939e-20 0.00222403)
(-0.0238241 0.000355739 -2.07083e-19 0.0213991 6.68523e-20 0.00242509)
(-0.0267755 0.0112845 6.00237e-20 0.02433 1.03735e-19 0.00244545)
(-0.0296726 0.0210177 -1.0894e-19 0.0274697 1.83515e-19 0.00220284)
(-0.0320473 0.0298704 1.58567e-19 0.0304147 1.03176e-19 0.00163258)
(-0.0338579 0.038796 1.97248e-19 0.0332054 -3.81447e-20 0.000652468)
(0.0131318 -0.140515 -6.51737e-20 -0.0134462 1.15693e-20 0.000314339)
(-0.00610852 -0.0880614 -1.88201e-19 0.00532054 -3.95645e-20 0.000787985)
(-0.0163931 -0.0557289 4.94955e-20 0.0151908 -3.02181e-20 0.00120228)
(-0.0229713 -0.0334893 3.72883e-20 0.0214131 8.64399e-20 0.00155814)
(-0.0279651 -0.016947 -4.21603e-19 0.02612 8.11521e-20 0.00184514)
(-0.0323786 -0.00372049 -2.46842e-19 0.0303578 5.2713e-20 0.00202076)
(-0.0365015 0.00736527 -1.58903e-19 0.0344585 5.74991e-20 0.00204296)
(-0.0405378 0.0171209 2.55763e-19 0.038701 1.20409e-19 0.00183676)
(-0.0441328 0.0259438 -3.28178e-19 0.0427792 4.59332e-20 0.00135359)
(-0.0472689 0.0342839 3.217e-20 0.0467385 2.31804e-21 0.00053036)
(0.0299053 -0.139289 -1.31456e-20 -0.030135 4.32684e-20 0.000229742)
(0.000268433 -0.0931196 -2.03517e-19 -0.000851833 -3.76226e-21 0.0005834)
(-0.0154274 -0.0631076 -2.98808e-19 0.0145269 -7.43537e-20 0.000900531)
(-0.0251858 -0.0416026 -2.0636e-19 0.0240072 9.30529e-21 0.00117857)
(-0.0322791 -0.0251466 -3.36592e-19 0.0308716 6.30059e-20 0.00140747)
(-0.0382769 -0.0118202 -4.44099e-20 0.0367282 6.79564e-20 0.00154869)
(-0.0437494 -0.000611104 -1.11398e-19 0.0421816 5.31907e-20 0.00156781)
(-0.049047 0.00912311 5.26343e-21 0.0476464 2.67916e-20 0.0014006)
(-0.0538954 0.0177722 -2.36562e-19 0.0528783 -3.22123e-20 0.00101705)
(-0.0580042 0.0254011 4.38747e-19 0.0576226 2.41844e-20 0.000381643)
(0.0475237 -0.136092 -2.16527e-20 -0.0476625 4.72207e-20 0.000138751)
(0.0100869 -0.098723 -3.91838e-19 -0.010449 -4.58192e-20 0.000362116)
(-0.0101679 -0.0721571 -8.81207e-20 0.00959567 -7.75115e-20 0.000572234)
(-0.0229328 -0.0519142 1.65015e-19 0.0221698 5.47333e-21 0.000763055)
(-0.0322157 -0.0357958 1.83366e-19 0.0312904 1.93468e-19 0.000925279)
(-0.0399532 -0.0224946 -1.95289e-19 0.0389273 1.61291e-19 0.00102587)
(-0.0469276 -0.0112581 -2.14108e-19 0.0458881 -6.42094e-20 0.00103951)
(-0.0535974 -0.00168533 6.34606e-20 0.0526817 -8.5175e-20 0.000915738)
(-0.0598157 0.00655855 1.73437e-19 0.059171 -1.63921e-20 0.000644732)
(-0.0655314 0.0135124 -7.10808e-19 0.0653115 6.92202e-20 0.000219815)
(0.0656581 -0.130386 6.66436e-20 -0.0657011 -2.50425e-20 4.30011e-05)
(0.0236965 -0.103236 2.151e-19 -0.0238254 8.06331e-20 0.000128858)
(3.71636e-05 -0.0809011 1.74098e-19 -0.000261921 1.05586e-19 0.000224757)
(-0.0154104 -0.0624064 6.84049e-20 0.015089 1.12952e-19 0.000321355)
(-0.0268789 -0.0469585 1.2245e-19 0.0264686 1.91598e-19 0.000410339)
(-0.0364367 -0.0339255 -4.28154e-19 0.0359711 2.15192e-19 0.000465614)
(-0.0450017 -0.0228691 -6.02737e-19 0.0445293 -2.33955e-19 0.000472417)
(-0.053084 -0.0136682 -2.572e-19 0.0526877 1.30187e-19 0.000396307)
(-0.0606919 -0.00610724 -1.25734e-18 0.0604429 -4.49283e-19 0.000249038)
(-0.0675087 -0.000754213 8.86563e-19 0.0674583 -4.75591e-22 5.03285e-05)
(0.083758 -0.121774 -9.13012e-20 -0.0837037 -2.59948e-19 -5.43879e-05)
(0.0407471 -0.104982 4.71153e-19 -0.0406378 -1.07442e-19 -0.000109331)
(0.0149696 -0.0872377 5.3184e-19 -0.0148384 5.90043e-20 -0.000131165)
(-0.00275202 -0.0708945 4.00047e-19 0.00288445 3.36919e-19 -0.000132433)
(-0.0163533 -0.0565102 -3.61517e-19 0.0164735 3.17019e-19 -0.000120287)
(-0.0277905 -0.0440934 -6.72075e-19 0.0279037 4.46901e-19 -0.000113157)
(-0.0379949 -0.0335184 -1.36308e-18 0.0381097 -7.62761e-21 -0.000114797)
(-0.0473992 -0.0248709 -6.90645e-20 0.0475415 -7.13778e-20 -0.00014225)
(-0.0561402 -0.0180507 -1.10526e-18 0.0563025 2.04871e-19 -0.000162309)
(-0.0631582 -0.0138954 -3.32239e-19 0.0632843 -4.545e-19 -0.000126076)
(0.101125 -0.110051 -3.65652e-20 -0.100974 -1.75771e-19 -0.000151542)
(0.0602355 -0.102493 3.9273e-20 -0.0598885 -3.62911e-19 -0.000346998)
(0.0335844 -0.0892423 -1.35414e-20 -0.0330976 -4.28084e-19 -0.000486832)
(0.0140463 -0.0753131 -3.13581e-20 -0.0134598 -1.43876e-19 -0.00058647)
(-0.00155801 -0.0623631 -4.41725e-19 0.00220971 2.55835e-19 -0.000651699)
(-0.0148647 -0.050916 -3.81786e-19 0.0155574 3.78481e-19 -0.000692699)
(-0.026703 -0.0411238 1.12538e-19 0.0274048 6.45627e-19 -0.000701772)
(-0.0373718 -0.0331929 -3.24713e-19 0.0380502 3.68391e-19 -0.000678355)
(-0.0470668 -0.0272152 -4.77162e-19 0.0476348 8.40845e-19 -0.000567969)
(-0.0540157 -0.0235972 -4.9109e-19 0.0543117 -4.81029e-19 -0.00029597)
(0.117015 -0.0952489 -1.0141e-20 -0.116769 2.54133e-20 -0.000245272)
(0.0806406 -0.0947623 -4.57461e-19 -0.0800636 -2.6438e-19 -0.000576933)
(0.0541469 -0.0855115 -7.4256e-19 -0.0533156 -5.61546e-19 -0.000831323)
(0.0332444 -0.0741347 -4.98522e-19 -0.0322178 -4.76738e-19 -0.00102658)
(0.0158321 -0.0629876 8.32772e-20 -0.014665 1.31952e-19 -0.00116715)
(0.000728639 -0.052926 4.41469e-19 0.000526547 2.92998e-19 -0.00125519)
(-0.0127104 -0.0442839 5.30255e-19 0.0139827 3.76814e-19 -0.00127224)
(-0.0246772 -0.0372639 3.32413e-19 0.0258778 3.01109e-19 -0.00120055)
(-0.0352879 -0.0320579 4.89138e-19 0.0362539 9.63329e-19 -0.000966034)
(-0.0426608 -0.0282163 -1.03714e-18 0.0431257 1.19917e-19 -0.000464854)
(0.130702 -0.0776231 -1.32761e-19 -0.130368 4.04172e-20 -0.000333742)
(0.100122 -0.0813892 -4.91817e-19 -0.0993283 9.45463e-20 -0.000793827)
(0.0744609 -0.0753606 -5.51615e-19 -0.0733048 -1.20205e-19 -0.00115608)
(0.0525782 -0.0665347 1.29138e-19 -0.0511372 -2.07857e-19 -0.00144096)
(0.0335835 -0.0574706 7.24915e-19 -0.031932 -1.10263e-20 -0.00165145)
(0.0168119 -0.0491401 3.14163e-19 -0.01503 2.15117e-19 -0.00178188)
(0.00187876 -0.0419608 2.47416e-19 -7.52509e-05 -2.41167e-20 -0.00180351)
(-0.0112796 -0.036126 5.72654e-19 0.0129623 1.80657e-19 -0.00168272)
(-0.0226002 -0.0318854 3.60999e-19 0.023928 3.79126e-19 -0.00132779)
(-0.0311076 -0.0288306 1.69641e-19 0.031722 5.71207e-19 -0.000614336)
(0.141573 -0.0576133 -2.68783e-20 -0.141158 1.13017e-19 -0.000414227)
(0.116793 -0.0626657 -1.48851e-19 -0.115801 4.14115e-19 -0.000991519)
(0.0922336 -0.0589691 -2.89759e-19 -0.0907817 4.47476e-19 -0.0014519)
(0.0697016 -0.0525984 9.38324e-20 -0.0678837 2.24643e-19 -0.00181788)
(0.0494496 -0.045807 2.17608e-19 -0.0473584 -2.09276e-19 -0.00209113)
(0.0312978 -0.03947 4.06252e-19 -0.0290388 -2.28347e-19 -0.00225901)
(0.0151209 -0.0339918 1.95613e-19 -0.0128371 -2.07995e-19 -0.00228382)
(0.00100424 -0.0295735 9.65197e-19 0.00111349 -2.85592e-19 -0.00211773)
(-0.0107424 -0.0264437 8.84177e-19 0.0123962 5.67094e-20 -0.00165376)
(-0.0191406 -0.0243356 -6.6731e-20 0.0198904 1.57285e-19 -0.000749847)
(0.149143 -0.0358116 1.51977e-20 -0.148658 8.21516e-20 -0.000485187)
(0.128955 -0.039566 8.65659e-21 -0.12779 2.33842e-19 -0.00116564)
(0.105357 -0.0374034 6.09871e-20 -0.103645 4.47695e-19 -0.00171172)
(0.0824191 -0.0333855 2.53173e-19 -0.0802715 2.63866e-19 -0.00214763)
(0.0612807 -0.0290285 9.25941e-20 -0.0588069 9.23041e-20 -0.00247377)
(0.0421435 -0.0249225 -1.55701e-19 -0.0394718 -1.14817e-19 -0.00267172)
(0.0250878 -0.021345 1.63279e-19 -0.0223912 1.43266e-20 -0.00269655)
(0.0103203 -0.0184294 5.47345e-19 -0.00783111 -3.11359e-19 -0.00248919)
(-0.00172193 -0.0163257 5.15296e-19 0.00365298 -3.42823e-19 -0.00193105)
(-0.0100351 -0.0148218 4.55253e-20 0.0108994 7.50926e-20 -0.000864262)
(0.153093 -0.0128869 2.36995e-20 -0.152549 3.04383e-20 -0.000544753)
(0.135339 -0.0136068 4.52131e-20 -0.134027 5.28723e-20 -0.00131195)
(0.112232 -0.0124319 1.54168e-20 -0.110303 2.17046e-19 -0.00192939)
(0.0890477 -0.0106865 1.55969e-20 -0.0866252 1.65923e-20 -0.00242254)
(0.0673962 -0.00886405 1.26318e-19 -0.0646054 -8.32374e-20 -0.00279077)
(0.0476792 -0.00715236 2.2861e-19 -0.044668 1.18426e-19 -0.00301118)
(0.0300867 -0.00564576 3.36595e-19 -0.0270532 1.96687e-19 -0.00303349)
(0.0148918 -0.00437317 3.60578e-19 -0.0121015 -1.1972e-19 -0.00279032)
(0.00261019 -0.00338149 5.52308e-19 -0.00045549 -2.45817e-19 -0.0021547)
(-0.00578462 -0.00237518 7.3317e-20 0.006741 1.2282e-19 -0.000956383)
(0.153264 0.0104359 2.05145e-20 -0.152672 -4.63484e-21 -0.00059191)
(0.135272 0.013323 9.05674e-20 -0.133844 -2.85687e-20 -0.00142768)
(0.112009 0.0136796 8.94221e-20 -0.109908 1.52694e-19 -0.00210043)
(0.0886939 0.013163 -7.65749e-20 -0.0860574 1.00215e-19 -0.00263656)
(0.0669123 0.0124016 8.87487e-20 -0.0638779 -1.82273e-19 -0.00303447)
(0.047048 0.0116553 3.46119e-19 -0.0437797 -7.45596e-20 -0.0032683)
(0.0292859 0.0110433 3.43686e-19 -0.0260017 -1.66002e-19 -0.00328421)
(0.0138827 0.0106525 1.30787e-20 -0.0108728 -4.44184e-20 -0.00300985)
(0.00137684 0.0105249 4.23056e-19 0.000936518 -6.43087e-19 -0.00231335)
(-0.00731711 0.0108779 5.49359e-20 0.0083366 -1.64656e-19 -0.00101949)
(0.149647 0.0334279 1.95441e-21 -0.149021 -1.61269e-20 -0.00062583)
(0.12876 0.03922 1.37361e-19 -0.127249 -1.06402e-19 -0.00151098)
(0.104698 0.0385154 3.11005e-19 -0.102476 -1.7095e-19 -0.00222239)
(0.0813707 0.0356743 -1.69852e-20 -0.0785837 -1.52206e-19 -0.00278695)
(0.0598455 0.0323372 -2.10234e-19 -0.0566433 -1.68843e-19 -0.00320224)
(0.0402791 0.0291612 1.82464e-19 -0.0368382 -1.51686e-20 -0.00344083)
(0.0227373 0.026458 2.74122e-19 -0.0192901 -2.02791e-19 -0.0034472)
(0.0073792 0.0244011 8.52463e-20 -0.00423202 -1.65912e-19 -0.00314719)
(-0.00532678 0.0231664 -5.38547e-19 0.00773435 -4.53574e-19 -0.00240757)
(-0.0146589 0.0230001 1.10022e-19 0.0157134 2.32871e-19 -0.00105444)
(0.142393 0.0553716 -4.38055e-20 -0.141747 -4.5215e-20 -0.000646193)
(0.116502 0.0622094 -5.21128e-21 -0.114941 -2.13362e-19 -0.00156102)
(0.0911963 0.0598275 6.23996e-21 -0.0889022 -1.82484e-19 -0.00229405)
(0.0680333 0.0545281 -1.43918e-19 -0.065161 -1.77959e-20 -0.00287226)
(0.0471603 0.0486625 -1.93114e-19 -0.0438676 3.17722e-19 -0.00329273)
(0.0283341 0.0431547 3.30901e-19 -0.024806 1.25084e-19 -0.0035281)
(0.0113954 0.0384458 6.81904e-20 -0.00787196 -2.98708e-20 -0.00352339)
(-0.00364282 0.0347552 -1.63615e-19 0.00684865 -1.19112e-19 -0.00320583)
(-0.0164933 0.0323959 -1.99627e-19 0.0189377 5.16312e-19 -0.00244436)
(-0.0264615 0.0312479 6.32735e-19 0.0275283 -3.74724e-19 -0.00106681)
(0.131802 0.0755933 -1.38717e-19 -0.131149 -1.15322e-20 -0.000653142)
(0.0997767 0.0807864 -3.85034e-19 -0.0981984 2.16608e-19 -0.00157825)
(0.0731161 0.0758602 8.10842e-21 -0.0707997 2.92835e-19 -0.0023164)
(0.0503689 0.0679421 2.12069e-19 -0.0474747 2.55727e-19 -0.00289425)
(0.0305075 0.05965 1.09144e-19 -0.027199 3.59301e-19 -0.0033085)
(0.0127885 0.0519893 1.44743e-19 -0.0092554 -7.46063e-20 -0.00353313)
(-0.00321491 0.0454324 2.15979e-19 0.00673034 -5.51785e-20 -0.00351543)
(-0.0175984 0.0402184 3.17302e-19 0.0207852 -1.43375e-20 -0.00318681)
(-0.0302871 0.0367306 2.33227e-19 0.0327085 -4.80233e-19 -0.00242141)
(-0.0401453 0.0345083 -8.70912e-19 0.0411986 1.75731e-20 -0.00105327)
(0.118331 0.093506 3.03157e-20 -0.117684 -1.50784e-20 -0.000647084)
(0.080287 0.094011 -2.83095e-19 -0.0787233 4.82073e-19 -0.00156375)
(0.0525907 0.0856067 -2.11386e-19 -0.0502994 5.24744e-19 -0.00229128)
(0.0306156 0.0749519 -1.15714e-20 -0.02776 3.58325e-19 -0.00285564)
(0.0121084 0.0644186 4.09358e-19 -0.00885502 -1.01696e-19 -0.00325334)
(-0.00418835 0.0548759 5.62816e-20 0.00764928 -4.34564e-19 -0.00346093)
(-0.0189595 0.0466979 3.64799e-19 0.0223893 -7.03845e-19 -0.00342973)
(-0.0324065 0.0401204 -2.12645e-19 0.0355041 -6.01476e-19 -0.00309759)
(-0.044677 0.0354521 -3.90206e-19 0.0470241 -5.49164e-19 -0.00234706)
(-0.054033 0.0324885 5.70188e-19 0.0550532 3.04689e-19 -0.00102023)
(0.102575 0.108645 4.57915e-20 -0.101946 1.54986e-19 -0.000628886)
(0.0599249 0.101604 3.27818e-19 -0.0584052 3.23469e-19 -0.0015197)
(0.0319428 0.088907 3.29979e-19 -0.0297205 2.53657e-19 -0.0022223)
(0.0111792 0.0754767 2.60436e-19 -0.00841772 -7.03895e-20 -0.00276148)
(-0.00569539 0.0629367 -1.32393e-20 0.00882902 -6.17943e-19 -0.00313363)
(-0.0203964 0.0518034 -4.47259e-19 0.0237149 -8.805e-19 -0.00331848)
(-0.0338134 0.042261 -1.15127e-18 0.0370857 -4.07196e-19 -0.00327226)
(-0.0462728 0.0345615 4.6475e-20 0.0492138 -3.53477e-19 -0.00294094)
(-0.0579638 0.0289061 -1.09902e-18 0.0601813 -1.56773e-19 -0.0022175)
(-0.0668879 0.0259226 2.59726e-19 0.0678489 -2.54668e-19 -0.000960958)
(0.0852287 0.120723 -4.06048e-20 -0.0846291 2.09839e-19 -0.0005996)
(0.0405128 0.103981 5.32368e-19 -0.039064 5.25113e-20 -0.0014488)
(0.0133487 0.08649 7.40961e-19 -0.0112349 -2.36848e-19 -0.00211385)
(-0.00571165 0.0704077 6.11556e-19 0.00832961 -6.53442e-19 -0.00261796)
(-0.0207406 0.0562122 -3.13072e-19 0.0236981 -7.65892e-19 -0.0029575)
(-0.0337616 0.0438825 -8.86643e-19 0.0368776 -4.81713e-19 -0.00311602)
(-0.0457556 0.0333079 -1.03939e-18 0.0488114 1.33433e-19 -0.00305579)
(-0.0571596 0.0246112 -5.70399e-19 0.0598919 -2.80879e-19 -0.00273227)
(-0.0681237 0.0178133 -1.28695e-18 0.0701747 2.41925e-19 -0.00205101)
(-0.078021 0.0138351 -3.45249e-20 0.078908 -8.70412e-20 -0.000886998)
(0.0670455 0.129665 1.02449e-19 -0.066485 -1.24877e-20 -0.000560525)
(0.0235696 0.102162 2.52161e-19 -0.0222153 -1.55279e-19 -0.0013543)
(-0.001441 0.0798 1.5087e-19 0.00341206 -3.11742e-19 -0.00197107)
(-0.01826 0.0613431 -1.38023e-19 0.020692 -4.32867e-19 -0.00243205)
(-0.0312239 0.045887 -5.56055e-19 0.0339576 -2.77262e-19 -0.00273366)
(-0.042458 0.0327548 -5.09328e-19 0.0453215 -5.50795e-20 -0.00286353)
(-0.0529342 0.0214776 -3.56529e-19 0.0557249 5.75793e-20 -0.00279069)
(-0.0631474 0.0118995 -4.46191e-19 0.0656284 3.21743e-20 -0.00248094)
(-0.0731098 0.00382602 5.32254e-20 0.074964 -2.77974e-20 -0.00185422)
(-0.0824227 -0.00229498 -1.10798e-18 0.083223 2.96977e-20 -0.000800298)
(0.0487365 0.13562 -1.28364e-20 -0.0482233 -5.45054e-20 -0.000513137)
(0.0100816 0.0975993 -2.01044e-19 -0.0088417 -1.1718e-19 -0.00123991)
(-0.0114134 0.0707554 -4.23655e-19 0.0132133 -8.65872e-20 -0.0017999)
(-0.0255111 0.0503157 -3.63107e-19 0.027723 -2.83582e-20 -0.00221192)
(-0.0362747 0.0339488 4.76166e-20 0.0387471 -7.26416e-20 -0.00247236)
(-0.0456809 0.0202965 -2.55984e-19 0.0482535 -3.08916e-20 -0.00257266)
(-0.0545709 0.00856247 -2.43252e-19 0.0570594 4.22529e-21 -0.00248844)
(-0.0634046 -0.00165367 -1.85958e-19 0.0656002 3.23368e-20 -0.00219561)
(-0.0721077 -0.010678 1.40691e-19 0.0737366 -1.04207e-19 -0.00162887)
(-0.0802568 -0.0183502 -3.20033e-19 0.0809557 1.41634e-19 -0.000698891)
(0.030895 0.138958 -2.1798e-20 -0.0304361 -4.85262e-20 -0.000458907)
(0.000382984 0.0919739 -5.23979e-20 0.000726297 -1.51287e-19 -0.00110928)
(-0.016399 0.0614923 -5.50313e-19 0.0180049 -3.76467e-20 -0.00160597)
(-0.0274151 0.0395828 -5.08698e-19 0.0293802 8.08843e-20 -0.00196504)
(-0.0359479 0.022653 -3.8261e-19 0.0381308 1.09214e-19 -0.00218288)
(-0.0435968 0.00873298 -1.62443e-20 0.0458511 6.51361e-20 -0.00225434)
(-0.0509743 -0.00324866 -2.97997e-19 0.053136 5.7552e-20 -0.00216168)
(-0.0584407 -0.0139119 -1.42887e-20 0.0603308 7.11121e-20 -0.0018901)
(-0.065781 -0.0236996 6.33163e-19 0.067171 -5.0821e-20 -0.00138998)
(-0.0726302 -0.0324629 3.28299e-21 0.0732229 2.81937e-20 -0.000592683)
(0.0139066 0.140202 -2.8662e-20 -0.0135072 -3.68964e-20 -0.000399387)
(-0.00587617 0.0869119 -3.22446e-20 0.00684246 -1.12345e-19 -0.000966294)
(-0.0170688 0.053986 -2.42279e-19 0.0184642 -3.81133e-20 -0.00139544)
(-0.0247868 0.0311728 -1.52419e-19 0.0264865 6.66124e-20 -0.00169976)
(-0.0311203 0.0139635 -1.73041e-19 0.0329958 9.01654e-20 -0.00187557)
(-0.0371002 -6.76421e-05 -3.7949e-19 0.0390206 8.11259e-20 -0.00192033)
(-0.0430478 -0.0121622 -3.22607e-19 0.0448702 9.74953e-20 -0.00182231)
(-0.049218 -0.0231133 -1.22909e-19 0.0507928 1.05069e-19 -0.00157482)
(-0.0552631 -0.033383 3.40779e-19 0.0564067 -2.35178e-20 -0.00114363)
(-0.0611659 -0.0430671 5.20746e-21 0.0616478 -2.68015e-20 -0.000481911)
(-0.00211052 0.139937 -5.03209e-20 0.00244655 -2.10612e-20 -0.000336032)
(-0.00967142 0.0837392 -8.55722e-20 0.0104859 -8.01772e-20 -0.000814434)
(-0.014834 0.0497744 -1.94597e-19 0.0160075 -2.54456e-20 -0.00117346)
(-0.0192109 0.0266376 -2.93595e-19 0.0206336 8.36629e-20 -0.00142269)
(-0.0234499 0.00937662 -2.90376e-19 0.0250082 6.4027e-20 -0.00155837)
(-0.027883 -0.00467548 -2.34471e-19 0.0294628 2.24449e-20 -0.00157983)
(-0.0324924 -0.016804 -4.06252e-20 0.0339734 8.69178e-20 -0.00148098)
(-0.0373572 -0.027933 -6.07064e-20 0.0386189 1.30494e-19 -0.00126166)
(-0.0419933 -0.0384142 2.57953e-19 0.0428961 -2.46895e-21 -0.00090277)
(-0.0465819 -0.0492492 2.05283e-19 0.0469565 1.24416e-20 -0.000374584)
(-0.0173022 0.13869 -5.02874e-20 0.0175723 -7.29787e-21 -0.000270105)
(-0.0124144 0.0832574 -1.54579e-19 0.0130713 -6.83188e-20 -0.000656946)
(-0.0115628 0.0497046 -9.65388e-20 0.0125079 -3.11347e-20 -0.000945095)
(-0.0126868 0.0267959 -2.28153e-19 0.0138273 9.8589e-20 -0.00114053)
(-0.0149351 0.00966747 -3.54116e-19 0.0161744 6.98291e-20 -0.00123924)
(-0.0178947 -0.00434289 -2.28191e-19 0.019136 -2.38965e-21 -0.00124131)
(-0.0212206 -0.0164448 1.98644e-20 0.0223658 7.08131e-20 -0.00114514)
(-0.0247332 -0.0276312 -1.10669e-19 0.0256885 1.75125e-19 -0.000955245)
(-0.027868 -0.0380258 -4.60369e-20 0.0285347 1.00751e-20 -0.000666618)
(-0.030383 -0.0493849 1.33533e-19 0.0306507 3.07652e-22 -0.000267677)
(-0.0320388 0.136797 -6.78572e-20 0.0322418 9.46241e-21 -0.000202958)
(-0.0157301 0.0855963 -1.97564e-19 0.0162269 -5.7692e-20 -0.000496818)
(-0.00930942 0.0537829 3.16372e-20 0.0100239 -4.80708e-20 -0.00071451)
(-0.00737449 0.0315764 1.42336e-20 0.0082327 1.11237e-19 -0.000858208)
(-0.00771341 0.0147109 -4.50885e-19 0.00863699 9.31247e-20 -0.000923575)
(-0.00920805 0.000785024 -2.56613e-19 0.0101184 1.84055e-20 -0.000910316)
(-0.0112358 -0.011233 -2.14836e-19 0.012056 -4.1548e-21 -0.00082012)
(-0.0133062 -0.0223026 2.01053e-19 0.0139662 2.00119e-19 -0.000660033)
(-0.0148812 -0.032359 -4.88665e-19 0.0153191 1.19362e-19 -0.000437961)
(-0.0148418 -0.0438095 8.57913e-20 0.0150039 -4.49246e-20 -0.000162097)
(-0.0468044 0.134338 -1.77993e-20 0.0469397 4.54184e-20 -0.000135327)
(-0.0211605 0.0901934 -2.2255e-19 0.0214966 -1.0267e-20 -0.00033616)
(-0.00995066 0.0612004 -3.21024e-19 0.0104356 -8.30519e-20 -0.00048494)
(-0.00520885 0.040087 -2.14109e-19 0.00578883 2.54908e-20 -0.000579982)
(-0.00367281 0.0235953 -2.88953e-19 0.00428937 6.93506e-20 -0.000616557)
(-0.00364731 0.00979218 -2.58736e-20 0.00424032 4.97569e-20 -0.000593009)
(-0.00430442 -0.00212812 -1.28973e-19 0.00481761 7.36426e-20 -0.000513185)
(-0.00485499 -0.0129762 -6.29059e-20 0.00523955 1.18323e-19 -0.000384555)
(-0.00487303 -0.0225785 -1.188e-19 0.00509913 -4.18516e-20 -0.000226093)
(-0.00204505 -0.0333526 3.6896e-19 0.00210868 1.67515e-20 -6.36283e-05)
(-0.0620594 0.131067 -2.36663e-20 0.0621279 5.5117e-20 -6.84392e-05)
(-0.0298949 0.0958505 -3.89636e-19 0.0300722 -4.61966e-20 -0.000177343)
(-0.0148869 0.0704214 -7.06607e-20 0.0151463 -9.07759e-20 -0.00025936)
(-0.00761472 0.0506999 1.87417e-19 0.00792361 -3.81743e-21 -0.000308887)
(-0.00420873 0.0346995 2.27973e-19 0.00452954 2.09898e-19 -0.000320804)
(-0.00261098 0.0211069 -2.09593e-19 0.0029022 1.75237e-19 -0.00029122)
(-0.00187301 0.00938664 -2.30528e-19 0.00209843 -5.55203e-20 -0.000225416)
(-0.000975208 -0.000985527 4.26464e-20 0.00110487 -7.78427e-20 -0.000129665)
(0.000488312 -0.00982297 6.86875e-20 -0.000455248 1.14997e-19 -3.30641e-05)
(0.00601513 -0.0188336 -7.7822e-19 -0.00604143 2.8837e-20 2.62947e-05)
(-0.078104 0.126478 7.16349e-20 0.0781064 -1.74015e-20 -2.41026e-06)
(-0.0425449 0.100939 2.36231e-19 0.042566 9.14146e-20 -2.11232e-05)
(-0.0248011 0.0794661 1.96213e-19 0.0248399 1.07558e-19 -3.87824e-05)
(-0.0152578 0.0613922 8.14208e-20 0.0153038 1.00578e-19 -4.60321e-05)
(-0.00993455 0.04609 1.02849e-19 0.00997197 1.80174e-19 -3.74197e-05)
(-0.00665029 0.0329218 -4.8394e-19 0.00665657 2.3539e-19 -6.27787e-06)
(-0.00442285 0.0215975 -6.90148e-19 0.00438138 -2.29972e-19 4.1466e-05)
(-0.00214894 0.0118587 -3.90425e-19 0.00204633 2.38832e-19 0.000102606)
(0.000518733 0.00383304 -1.37504e-18 -0.000658467 -5.15341e-19 0.000139734)
(0.00669509 -0.00297665 1.00359e-18 -0.00680043 6.04399e-20 0.000105341)
(-0.0949344 0.119865 -8.95941e-20 0.0948728 -2.61322e-19 6.16513e-05)
(-0.058991 0.103637 4.85109e-19 0.0588603 -1.05445e-19 0.000130706)
(-0.039503 0.0861675 5.36459e-19 0.0393281 5.57402e-20 0.000174895)
(-0.0278873 0.0699388 3.80733e-19 0.02768 3.28889e-19 0.000207283)