/*--------------------------------*- C++ -*----------------------------------*\
| =========                 |                                                 |
| \\      /  F ield         | foam-extend: Open Source CFD                    |
|  \\    /   O peration     | Version:  3.0                                   |
|   \\  /    A nd           | Web:         http://www.extend-project.de       |
|    \\/     M anipulation  |                                                 |
\*---------------------------------------------------------------------------*/
FoamFile
{
    version     2.0;
    format      ascii;
    class       volVectorField;
    location    "3";
    object      u;
}
// * * * * * * * * * * * * * * * * * * * * * * * * * * * * * * * * * * * * * //

dimensions      [0 0 0 0 0 0 0];

internalField   nonuniform List<vector> 
480
(
(0.284155 -0.11632 -2.76548e-19)
(0.538123 -0.0795389 7.24296e-19)
(0.711126 -0.0568345 -3.52684e-18)
(0.797402 -0.0412593 2.46546e-18)
(0.873549 -0.0305246 1.64954e-18)
(0.904119 -0.023095 -2.16981e-18)
(0.946761 -0.0167563 -8.9545e-18)
(0.953889 -0.0138272 6.36605e-18)
(0.985631 -0.00995634 -5.39952e-18)
(0.981003 -0.0143751 -4.02017e-18)
(0.337856 -0.311463 1.15445e-18)
(0.573407 -0.207297 1.52887e-18)
(0.735355 -0.143668 -1.5258e-17)
(0.814648 -0.101078 -1.21995e-17)
(0.886154 -0.0724024 9.99701e-18)
(0.91408 -0.0533019 2.0398e-18)
(0.954455 -0.0378339 3.4811e-18)
(0.961285 -0.0305806 -1.23375e-17)
(0.991459 -0.0217031 1.65896e-17)
(0.988267 -0.0310477 2.31908e-18)
(0.439722 -0.486043 -1.95466e-18)
(0.64006 -0.322071 2.56987e-18)
(0.780872 -0.222124 8.91301e-18)
(0.846681 -0.155541 8.20914e-18)
(0.909202 -0.11105 1.68492e-17)
(0.931553 -0.0816792 -5.24689e-18)
(0.966992 -0.0580893 1.72948e-18)
(0.9713 -0.0462241 1.10232e-18)
(0.997215 -0.0303895 1.62669e-17)
(0.993611 -0.0404961 -3.01418e-17)
(0.582612 -0.627714 6.60124e-19)
(0.733584 -0.415542 2.73085e-17)
(0.844623 -0.286128 9.76332e-18)
(0.891211 -0.199768 -4.56533e-18)
(0.940639 -0.142064 -5.55899e-18)
(0.954427 -0.103787 -1.25693e-18)
(0.982151 -0.0733463 -7.84986e-19)
(0.982493 -0.0580104 -6.26901e-18)
(1.00243 -0.0371392 -2.5052e-17)
(1.00525 -0.0558301 3.69692e-17)
(0.756669 -0.727177 -7.12335e-18)
(0.847905 -0.481914 5.82903e-18)
(0.922934 -0.332067 9.54963e-18)
(0.946364 -0.231593 9.48268e-18)
(0.98046 -0.164166 -1.2656e-17)
(0.984771 -0.118683 -2.31925e-18)
(1.00499 -0.0822793 -9.74561e-18)
(1.00237 -0.0628678 -9.31461e-18)
(1.01662 -0.0382185 2.63753e-17)
(1.02628 -0.0595137 -4.05623e-17)
(0.949591 -0.777378 8.70386e-18)
(0.975044 -0.516267 -1.43465e-17)
(1.01025 -0.356432 -1.63051e-17)
(1.00791 -0.248805 -1.61268e-17)
(1.02468 -0.176665 -3.77837e-18)
(1.01792 -0.127828 -3.62511e-18)
(1.02871 -0.089073 3.78324e-17)
(1.02074 -0.0673384 -1.97486e-17)
(1.0271 -0.0403929 2.05449e-17)
(1.03467 -0.0525983 -9.36222e-18)
(1.1482 -0.775386 9.01862e-18)
(1.10668 -0.516595 -1.09234e-17)
(1.10114 -0.357701 -1.96824e-17)
(1.07201 -0.249874 -2.44008e-17)
(1.07034 -0.177479 -7.31887e-19)
(1.05099 -0.127817 9.65486e-18)
(1.05075 -0.0889668 9.56607e-18)
(1.03632 -0.0668404 6.54701e-19)
(1.03523 -0.0410063 2.1549e-17)
(1.04569 -0.0545652 -4.56276e-18)
(1.33844 -0.721265 -4.59694e-18)
(1.23357 -0.482488 -1.75803e-18)
(1.18933 -0.335238 2.94963e-18)
(1.13472 -0.234199 4.8955e-18)
(1.11561 -0.166106 9.56983e-18)
(1.08461 -0.118416 2.51435e-18)
(1.07445 -0.081318 -4.93814e-18)
(1.05428 -0.0590434 5.00505e-18)
(1.0443 -0.0340493 -1.84669e-17)
(1.05654 -0.0472675 3.22191e-17)
(1.50755 -0.619218 1.23178e-18)
(1.34751 -0.416503 7.5695e-18)
(1.26941 -0.290724 1.16087e-17)
(1.19218 -0.203045 4.95556e-18)
(1.15735 -0.143796 -8.72602e-18)
(1.1153 -0.101193 3.52556e-19)
(1.09551 -0.0687576 -7.16954e-19)
(1.06913 -0.0478755 2.74292e-18)
(1.05033 -0.0264956 -1.76264e-18)
(1.0648 -0.0353682 8.55325e-18)
(1.64354 -0.476309 1.1428e-18)
(1.44025 -0.322872 2.87974e-19)
(1.33537 -0.226674 9.94929e-18)
(1.24004 -0.157759 7.27932e-18)
(1.19254 -0.110806 4.29724e-18)
(1.14136 -0.0753653 -5.43173e-18)
(1.11394 -0.0489011 6.1728e-19)
(1.08212 -0.0296976 -2.2531e-18)
(1.05711 -0.0139551 -1.06095e-17)
(1.06866 -0.0163983 2.50513e-18)
(1.73752 -0.302597 5.62031e-19)
(1.50594 -0.208042 -8.62554e-19)
(1.38338 -0.147527 2.96702e-18)
(1.27588 -0.101881 2.67961e-19)
(1.2198 -0.0706416 -1.05928e-19)
(1.16202 -0.0453191 2.07645e-18)
(1.12903 -0.0275291 2.84608e-18)
(1.09125 -0.012091 1.35116e-18)
(1.06046 -0.0033219 -5.36238e-18)
(1.055 0.00160144 2.49547e-18)
(1.78279 -0.110102 3.05645e-19)
(1.53943 -0.0797842 -1.03064e-18)
(1.4091 -0.0584855 2.07225e-18)
(1.29575 -0.0388101 9.68577e-19)
(1.23517 -0.02527 -7.61445e-19)
(1.17311 -0.0119709 1.24025e-18)
(1.13682 -0.00448333 1.33107e-18)
(1.09459 0.00463117 9.9114e-19)
(1.06179 0.00494316 -3.94034e-18)
(1.04243 0.0103754 -1.93035e-19)
(1.77659 0.0880348 5.18846e-20)
(1.53878 0.0533262 -1.18117e-18)
(1.41135 0.0347051 2.2599e-18)
(1.29937 0.0274844 1.89614e-18)
(1.23927 0.022635 -1.59058e-18)
(1.17635 0.0229954 3.29259e-20)
(1.13918 0.0198951 -1.69835e-19)
(1.09334 0.0216555 1.31715e-18)
(1.05853 0.0138409 -4.18323e-18)
(1.02387 0.0156105 -8.93292e-19)
(1.71931 0.278196 -5.16831e-21)
(1.50352 0.182061 -1.93091e-18)
(1.38909 0.125409 1.59969e-18)
(1.28521 0.0921797 2.23364e-18)
(1.23013 0.0694353 -3.20765e-18)
(1.16961 0.0568233 -2.78879e-19)
(1.13445 0.0434314 -1.32478e-18)
(1.0879 0.0373186 1.82087e-18)
(1.05467 0.0219284 -4.48532e-18)
(1.00917 0.0159346 2.15003e-18)
(1.61495 0.447606 9.47555e-19)
(1.43614 0.297833 -3.66246e-18)
(1.3441 0.207784 -5.72093e-18)
(1.25502 0.15124 -2.3956e-18)
(1.20973 0.112248 -3.49617e-18)
(1.15543 0.0871074 2.44813e-18)
(1.12499 0.0633015 -3.31109e-19)
(1.07953 0.0480228 -7.64498e-19)
(1.04711 0.0240232 -4.90394e-19)
(0.992636 0.00747167 8.17355e-18)
(1.47079 0.584822 8.91261e-19)
(1.34101 0.392536 -1.1927e-17)
(1.27889 0.275661 -4.60929e-18)
(1.20968 0.199963 4.12302e-18)
(1.1775 0.147472 7.33901e-18)
(1.13157 0.111619 6.89371e-19)
(1.10774 0.0793725 -9.12333e-19)
(1.06605 0.0570635 3.54196e-18)
(1.03876 0.0269289 1.14893e-17)
(0.989064 0.00610234 -1.75349e-17)
(1.29643 0.680723 5.33362e-18)
(1.22451 0.459786 2.87812e-18)
(1.19798 0.324732 -2.35686e-18)
(1.15303 0.235795 -3.31639e-18)
(1.13717 0.174352 9.23005e-18)
(1.10258 0.131369 -7.42236e-20)
(1.08742 0.0942611 -1.72783e-18)
(1.05036 0.066906 5.46865e-18)
(1.02819 0.0319079 -2.67303e-17)
(0.97205 0.0015292 3.36873e-17)
(1.10395 0.729113 -9.12469e-18)
(1.09475 0.494846 1.58001e-17)
(1.10717 0.350871 1.75238e-17)
(1.08918 0.254778 1.8066e-17)
(1.0919 0.188143 -8.67795e-19)
(1.07091 0.140166 -1.09846e-18)
(1.0667 0.0994499 -4.1081e-17)
(1.03708 0.0672939 1.59569e-17)
(1.02367 0.0305644 -1.72365e-17)
(0.963049 -0.0109759 -1.68667e-18)
(0.905976 0.726723 -1.16756e-17)
(0.960199 0.495049 8.10042e-18)
(1.01211 0.352119 1.4331e-17)
(1.02173 0.255768 1.92949e-17)
(1.04335 0.188934 -5.69741e-18)
(1.03649 0.139866 -1.34773e-17)
(1.04318 0.0992542 -1.48165e-18)
(1.02227 0.0651167 -2.39682e-18)
(1.01782 0.0303279 -1.49434e-17)
(0.96195 -0.0248354 -5.16775e-18)
(0.716106 0.674237 3.84536e-18)
(0.830452 0.460674 -4.56074e-18)
(0.920183 0.32844 -1.84004e-17)
(0.956745 0.238593 -2.18165e-17)
(0.997436 0.17604 -1.43954e-17)
(1.00588 0.12918 1.14082e-18)
(1.02485 0.0903333 1.39064e-17)
(1.01487 0.0553841 -4.72277e-18)
(1.01749 0.0213185 4.19222e-17)
(0.972292 -0.0424469 -5.54314e-17)
(0.546753 0.574965 -5.1718e-18)
(0.714006 0.393444 -1.58458e-17)
(0.836956 0.280617 -2.73842e-17)
(0.897099 0.203297 -1.32144e-17)
(0.953967 0.14906 2.27664e-17)
(0.975067 0.107526 4.45781e-18)
(1.00365 0.0732965 6.59524e-21)
(1.00359 0.0425278 -1.40823e-18)
(1.01376 0.0140372 4.58228e-18)
(0.990064 -0.0326124 -5.62724e-18)
(0.409414 0.436253 -1.29344e-18)
(0.619169 0.298768 6.18213e-18)
(0.768958 0.213163 -1.78711e-17)
(0.848314 0.15444 -1.30861e-17)
(0.918387 0.113331 -1.13281e-17)
(0.949772 0.0818232 1.35752e-17)
(0.985508 0.0558129 -5.79295e-18)
(0.991734 0.0318367 5.4111e-18)
(1.0062 0.00785306 3.10928e-17)
(0.991057 -0.0292263 -5.82276e-18)
(0.313146 0.267113 8.40442e-19)
(0.5525 0.182357 8.03691e-18)
(0.721067 0.129417 3.6052e-18)
(0.813988 0.0930894 1.10925e-17)
(0.893563 0.0675668 7.21547e-18)
(0.9327 0.0479294 -1.20289e-17)
(0.974556 0.0318249 -9.5789e-18)
(0.986515 0.0170911 -7.59015e-18)
(1.00609 0.0028498 8.61997e-18)
(0.996483 -0.0206642 -1.01995e-17)
(0.264319 0.079422 4.55036e-20)
(0.518517 0.0529564 3.50623e-18)
(0.696555 0.0363768 4.01808e-19)
(0.796381 0.0253583 -3.37886e-18)
(0.880777 0.0176531 5.42686e-19)
(0.923866 0.0118525 3.95878e-19)
(0.96871 0.00696304 6.40252e-18)
(0.983511 0.00201716 -1.92728e-18)
(1.0055 -0.00293232 1.08356e-17)
(0.999756 -0.0147599 4.10386e-18)
(0.266253 -0.114407 4.46104e-19)
(0.519869 -0.0810544 -6.79269e-19)
(0.697714 -0.060353 4.02037e-18)
(0.797517 -0.0454907 -2.71725e-18)
(0.881984 -0.0350605 -1.93084e-18)
(0.925202 -0.0267511 2.54631e-18)
(0.970005 -0.0198566 1.19376e-17)
(0.984849 -0.0137747 -8.64096e-18)
(1.00632 -0.00726158 7.54305e-18)
(1.0012 -0.00385933 7.13962e-18)
(0.318687 -0.30112 -1.04464e-18)
(0.556145 -0.210016 -1.55994e-18)
(0.723858 -0.15326 1.70807e-17)
(0.81643 -0.113258 1.43447e-17)
(0.895857 -0.0850893 -1.20292e-17)
(0.935138 -0.0627865 -2.87487e-18)
(0.976845 -0.0444935 -4.95582e-18)
(0.989465 -0.02799 1.81162e-17)
(1.0085 -0.0120806 -2.3802e-17)
(1.00269 0.00356169 -3.70215e-18)
(0.418262 -0.468099 2.15719e-18)
(0.625192 -0.325153 -2.59953e-18)
(0.773834 -0.236142 -9.7953e-18)
(0.852851 -0.173891 -9.30751e-18)
(0.923154 -0.130146 -1.96324e-17)
(0.955372 -0.095787 6.50321e-18)
(0.992071 -0.0677262 -2.33873e-18)
(1.00002 -0.0416777 -9.14967e-19)
(1.01455 -0.0172175 -2.36889e-17)
(1.00183 0.0180117 4.27202e-17)
(0.558275 -0.604124 -7.2824e-19)
(0.7219 -0.418552 -2.90226e-17)
(0.843276 -0.303213 -1.02853e-17)
(0.902729 -0.223124 5.45377e-18)
(0.959397 -0.167036 6.81237e-18)
(0.980565 -0.123414 1.84426e-18)
(1.00876 -0.0877803 1.04316e-18)
(1.00825 -0.0543137 8.00973e-18)
(1.0169 -0.023734 3.35899e-17)
(0.991761 0.0300697 -5.19199e-17)
(0.729399 -0.699667 7.28846e-18)
(0.839735 -0.483443 -5.99425e-18)
(0.92767 -0.349308 -9.67607e-18)
(0.963261 -0.256787 -9.81865e-18)
(1.00353 -0.191973 1.44611e-17)
(1.01173 -0.142084 3.09521e-18)
(1.03059 -0.101031 1.07416e-17)
(1.02079 -0.0634779 1.09296e-17)
(1.02395 -0.0294982 -3.6428e-17)
(0.979839 0.0323058 5.03652e-17)
(0.920308 -0.748421 -8.69944e-18)
(0.970556 -0.515748 1.47441e-17)
(1.02081 -0.371939 1.70279e-17)
(1.0296 -0.273835 1.69389e-17)
(1.05112 -0.205581 4.32907e-18)
(1.04432 -0.15445 4.07228e-18)
(1.05086 -0.112081 -4.14451e-17)
(1.02881 -0.0745628 2.12544e-17)
(1.02155 -0.0358683 -2.44634e-17)
(0.959164 0.0259445 1.009e-17)
(1.11803 -0.746605 -8.70187e-18)
(1.10515 -0.512785 1.0968e-17)
(1.11589 -0.368703 1.97072e-17)
(1.09669 -0.271248 2.43265e-17)
(1.0986 -0.203182 1.13891e-18)
(1.07639 -0.152838 -8.95324e-18)
(1.07091 -0.110359 -9.64681e-18)
(1.03993 -0.0756193 5.51683e-19)
(1.02521 -0.0372725 -2.04408e-17)
(0.969495 0.00291143 6.34598e-18)
(1.30961 -0.694405 4.77061e-18)
(1.23474 -0.475226 1.89976e-18)
(1.2071 -0.340747 -2.19079e-18)
(1.16148 -0.250959 -3.49186e-18)
(1.14571 -0.188015 -8.60587e-18)
(1.11098 -0.142256 -2.32076e-18)
(1.09607 -0.101909 4.12405e-18)
(1.05811 -0.069646 -3.24843e-18)
(1.03377 -0.0308443 1.40216e-17)
(0.974816 0.00485559 -2.33237e-17)
(1.48185 -0.594989 -8.47931e-19)
(1.34997 -0.405641 -6.72955e-18)
(1.28711 -0.290248 -9.93538e-18)
(1.21736 -0.214684 -3.65914e-18)
(1.18515 -0.161752 5.92485e-18)
(1.13869 -0.124606 -1.08295e-18)
(1.11464 -0.0909532 9.92288e-19)
(1.07081 -0.065477 -1.78286e-18)
(1.04154 -0.0325638 1.74656e-18)
(0.981828 -0.0017655 -5.87996e-18)
(1.62335 -0.454901 -1.03336e-18)
(1.44335 -0.308795 -7.41866e-19)
(1.35107 -0.220592 -8.4534e-18)
(1.26163 -0.164589 -5.66497e-18)
(1.21631 -0.125122 -2.95557e-18)
(1.16115 -0.0987662 2.73365e-18)
(1.1304 -0.0730938 4.64339e-19)
(1.08266 -0.0552335 1.80992e-18)
(1.04977 -0.0286861 2.29317e-18)
(0.988137 -0.00782101 -1.39871e-18)
(1.72433 -0.283525 -5.83173e-19)
(1.50838 -0.191666 2.18743e-19)
(1.39431 -0.137448 -3.37241e-18)
(1.29065 -0.105489 -1.55259e-18)
(1.23594 -0.0829284 -1.0504e-18)
(1.17512 -0.0699934 2.30517e-19)
(1.13988 -0.0551065 -2.86701e-19)
(1.09077 -0.0471003 1.6664e-18)
(1.05518 -0.0278894 2.77508e-18)
(0.998625 -0.0182687 8.4446e-21)
(1.77785 -0.0922239 -3.7967e-19)
(1.54071 -0.0618961 6.92533e-19)
(1.41398 -0.0457411 -2.20283e-18)
(1.30236 -0.0400271 -5.39825e-19)
(1.24245 -0.0354649 6.18601e-19)
(1.17911 -0.0360023 -1.29133e-18)
(1.14171 -0.031762 -2.82057e-18)
(1.09442 -0.0330768 -6.71608e-20)
(1.05863 -0.0219981 5.74334e-19)
(1.02233 -0.0232745 -2.24918e-18)
(1.78035 0.105899 -2.16819e-19)
(1.53861 0.0712385 1.14412e-18)
(1.40957 0.0473836 -2.76589e-18)
(1.29725 0.0260235 -1.65783e-18)
(1.23724 0.0120164 1.87846e-18)
(1.17534 -0.00168692 -4.31651e-19)
(1.13856 -0.00805438 -2.86394e-18)
(1.09496 -0.016745 9.48923e-19)
(1.05895 -0.0135542 2.0661e-18)
(1.04245 -0.0178858 -2.34912e-18)
(1.73129 0.297494 -9.75844e-20)
(1.50189 0.199027 1.97496e-18)
(1.38079 0.136263 -3.42904e-18)
(1.27441 0.0891269 -4.39991e-18)
(1.21871 0.0576157 5.26069e-18)
(1.16117 0.0321607 1.11425e-18)
(1.12787 0.0158985 2.82891e-18)
(1.09041 0.00166172 -7.70492e-18)
(1.05825 -0.00344708 1.21223e-17)
(1.06402 -0.00481547 -9.99009e-19)
(1.63435 0.469362 -1.14523e-18)
(1.43393 0.31259 3.706e-18)
(1.33101 0.214514 6.62852e-18)
(1.23745 0.144463 3.49753e-18)
(1.19089 0.09739 6.25925e-18)
(1.14083 0.0619393 -3.76079e-18)
(1.11343 0.0365964 9.2806e-19)
(1.08196 0.0182393 4.68082e-19)
(1.05355 0.00467008 7.97601e-18)
(1.0739 0.0130706 -2.07843e-17)
(1.49559 0.609631 -8.1961e-19)
(1.33868 0.404332 1.36578e-17)
(1.2625 0.277126 5.129e-18)
(1.1869 0.188692 -5.04444e-18)
(1.15255 0.12946 -8.66847e-18)
(1.11117 0.0871995 -1.27737e-18)
(1.09117 0.0563528 7.69218e-19)
(1.06616 0.0377787 -5.15017e-18)
(1.04748 0.0201905 -1.95649e-17)
(1.07817 0.0413368 3.17001e-17)
(1.32502 0.708669 -5.50024e-18)
(1.22359 0.46824 -2.73155e-18)
(1.18152 0.320283 2.45985e-18)
(1.12892 0.21932 3.63927e-18)
(1.11077 0.152015 -1.10519e-17)
(1.08123 0.105766 -6.85285e-19)
(1.07127 0.0710357 8.58968e-19)
(1.05217 0.051262 -7.38554e-18)
(1.04071 0.0290198 3.67769e-17)
(1.0591 0.0480615 -4.36242e-17)
(1.1338 0.759227 9.13358e-18)
(1.09568 0.49966 -1.62094e-17)
(1.09221 0.340469 -1.82598e-17)
(1.06504 0.232925 -1.88725e-17)
(1.06443 0.160769 4.04823e-19)
(1.0469 0.111724 8.35454e-19)
(1.04787 0.0733944 4.49104e-17)
(1.03655 0.0526501 -1.75161e-17)
(1.03594 0.0290157 2.13174e-17)
(1.06035 0.0544978 9.11635e-19)
(0.935504 0.757933 1.13766e-17)
(0.964153 0.497081 -8.12016e-18)
(1.00114 0.337721 -1.4306e-17)
(1.00023 0.231117 -1.91489e-17)
(1.01734 0.159811 5.34715e-18)
(1.01118 0.112446 1.27486e-17)
(1.0216 0.0749011 1.43192e-18)
(1.01542 0.0561663 1.03396e-18)
(1.02134 0.0309322 1.3552e-17)
(1.0501 0.0636025 3.24529e-18)
(0.74361 0.704346 -4.01028e-18)
(0.837665 0.460295 4.45023e-18)
(0.914247 0.311563 1.77035e-17)
(0.938883 0.212797 2.04742e-17)
(0.973405 0.146661 1.34043e-17)
(0.978324 0.103354 -1.43751e-18)
(0.998627 0.0681583 -1.32338e-17)
(0.997078 0.052006 2.64103e-18)
(1.0101 0.026126 -3.75885e-17)
(1.03402 0.0693944 4.5668e-17)
(0.571539 0.602226 4.79378e-18)
(0.724752 0.392163 1.50177e-17)
(0.836837 0.264517 2.57364e-17)
(0.883972 0.180302 1.1949e-17)
(0.933179 0.124111 -1.99365e-17)
(0.946413 0.0879272 -3.74995e-18)
(0.973545 0.0585975 -2.97836e-19)
(0.973503 0.0469168 3.63889e-19)
(0.994022 0.0258565 -4.55283e-18)
(1.00799 0.0735192 3.00757e-18)
(0.431297 0.458278 1.18032e-18)
(0.633278 0.297174 -5.74596e-18)
(0.774819 0.19963 1.6355e-17)
(0.840826 0.135916 1.14559e-17)
(0.902905 0.0938476 1.0024e-17)
(0.924069 0.0675422 -1.07919e-17)
(0.958234 0.0461877 4.76391e-18)
(0.959849 0.0373867 -4.8248e-18)
(0.985702 0.0204117 -2.24012e-17)
(0.982637 0.0457471 4.78531e-18)
(0.332555 0.282271 -8.22734e-19)
(0.569109 0.181479 -7.40638e-18)
(0.731426 0.120662 -3.23076e-18)
(0.810791 0.0811934 -9.83911e-18)
(0.882056 0.0552227 -6.06567e-18)
(0.909226 0.0390561 9.76338e-18)
(0.949232 0.0261982 6.99944e-18)
(0.954203 0.0209321 4.56633e-18)
(0.985345 0.0126657 -5.97175e-18)
(0.978801 0.0262801 7.70998e-18)
(0.282373 0.0863254 2.95431e-20)
(0.536747 0.0531918 -3.16834e-18)
(0.709885 0.0335377 -2.86e-19)
(0.796171 0.0212957 2.94611e-18)
(0.872148 0.0135924 -3.97063e-19)
(0.902287 0.00918888 -3.74083e-19)
(0.944588 0.00577306 -4.99138e-18)
(0.950828 0.0038396 9.64713e-19)
(0.98293 0.000781784 -7.48333e-18)
(0.976989 0.00187949 -1.75435e-18)
)
;

boundaryField
{
    out
    {
        type            fixedValue;
        value           uniform (1 0 0);
    }
    in
    {
        type            myVelocity;
    }
    frontAndBack
    {
        type            empty;
    }
}


// ************************************************************************* //
