/*--------------------------------*- C++ -*----------------------------------*\
| =========                 |                                                 |
| \\      /  F ield         | foam-extend: Open Source CFD                    |
|  \\    /   O peration     | Version:  3.0                                   |
|   \\  /    A nd           | Web:         http://www.extend-project.de       |
|    \\/     M anipulation  |                                                 |
\*---------------------------------------------------------------------------*/
FoamFile
{
    version     2.0;
    format      ascii;
    class       volScalarField;
    location    "5.2";
    object      p;
}
// * * * * * * * * * * * * * * * * * * * * * * * * * * * * * * * * * * * * * //

dimensions      [0 0 0 0 0 0 0];

internalField   nonuniform List<scalar> 
400
(
1.15322
0.903838
0.894958
0.807889
0.875879
0.843216
0.935356
0.923616
1.02349
1.01923
1.12132
1.11637
1.21613
1.20133
1.28966
1.25003
1.30666
1.21226
1.18915
0.951691
1.43609
1.23192
1.19477
1.08365
1.11011
1.03976
1.08733
1.03413
1.08766
1.03966
1.09284
1.04221
1.09064
1.03024
1.0677
0.987952
1.00052
0.883987
0.835694
0.646845
1.29565
1.10831
1.09141
1.00178
1.04477
0.993353
1.05694
1.01996
1.09099
1.05809
1.13232
1.09744
1.17167
1.12857
1.1952
1.1335
1.1736
1.07318
1.04556
0.868274
1.29691
1.13104
1.10742
1.02531
1.0558
1.00547
1.05178
1.01226
1.06255
1.02608
1.07819
1.04115
1.09458
1.0526
1.10259
1.0457
1.0744
0.980157
0.943388
0.775012
1.18722
1.00831
1.00924
0.940464
0.994598
0.961603
1.03058
1.00823
1.08392
1.06439
1.1481
1.12858
1.22222
1.19842
1.29732
1.25627
1.33732
1.24492
1.24488
1.02651
1.13962
0.961379
0.964833
0.90697
0.954477
0.929612
0.983534
0.966585
1.02146
1.0072
1.06725
1.05576
1.12685
1.11618
1.19912
1.17556
1.25217
1.17001
1.17058
0.910411
1.07578
0.897237
0.918012
0.872754
0.933609
0.921104
0.988775
0.98277
1.05651
1.05237
1.14026
1.13921
1.25066
1.25172
1.38998
1.37762
1.52112
1.4358
1.4892
1.15211
1.00476
0.854335
0.874864
0.844172
0.892487
0.88746
0.934597
0.933043
0.979497
0.979895
1.0347
1.04153
1.11672
1.13246
1.23709
1.24764
1.36891
1.30477
1.34926
0.982
0.95616
0.848114
0.873665
0.860206
0.905628
0.909299
0.95724
0.960575
1.01541
1.01838
1.09201
1.1006
1.2091
1.22813
1.38563
1.40266
1.59806
1.53657
1.65661
1.2377
0.860282
0.816554
0.841236
0.846262
0.875592
0.884768
0.909036
0.913585
0.936317
0.939635
0.970846
0.982311
1.03737
1.06673
1.1625
1.20363
1.33888
1.31736
1.39835
1.01607
0.813562
0.845249
0.863541
0.890757
0.905477
0.92217
0.937788
0.943239
0.96509
0.964601
1.00424
1.0089
1.08607
1.10914
1.2493
1.29118
1.50469
1.49792
1.69155
1.31648
0.700855
0.809156
0.835787
0.882828
0.887061
0.907991
0.902972
0.906657
0.896511
0.891457
0.884212
0.884583
0.895378
0.920323
0.971004
1.03301
1.13823
1.19082
1.29055
1.05147
0.664022
0.853128
0.863872
0.935505
0.921384
0.950468
0.932989
0.935505
0.918225
0.904738
0.896252
0.882447
0.902079
0.91088
0.992326
1.04719
1.23085
1.31045
1.57512
1.41843
0.558518
0.808656
0.843957
0.932986
0.919313
0.951473
0.919891
0.918208
0.873276
0.850979
0.797856
0.772634
0.722827
0.722578
0.698225
0.762127
0.793448
0.941496
1.03066
1.11873
0.552225
0.862942
0.875292
0.987779
0.958054
0.998628
0.954567
0.950283
0.894744
0.86128
0.799333
0.755027
0.700643
0.675484
0.662777
0.708535
0.806517
0.986595
1.29412
1.54434
0.497725
0.836134
0.884534
1.00724
0.984904
1.02541
0.972236
0.961244
0.884419
0.839579
0.741585
0.681042
0.566307
0.521254
0.406174
0.441759
0.36629
0.599534
0.6357
1.21407
0.553472
0.910303
0.9336
1.07354
1.03883
1.0847
1.01958
1.00396
0.91516
0.858575
0.747634
0.667017
0.537078
0.461656
0.335224
0.338638
0.294725
0.54736
0.812154
1.61568
0.622598
0.958246
1.0081
1.14333
1.11034
1.14834
1.07446
1.04899
0.945979
0.877945
0.744672
0.647478
0.47756
0.375071
0.172315
0.139485
-0.0566096
0.191512
0.120017
1.23646
0.784701
1.07386
1.10229
1.23961
1.19361
1.22799
1.14136
1.10816
0.994057
0.915973
0.770584
0.657084
0.468255
0.335805
0.10236
0.022845
-0.201422
0.0227835
0.0576409
1.38722
1.08741
1.27245
1.28324
1.38642
1.32236
1.3326
1.23541
1.18736
1.06856
0.980817
0.832255
0.706333
0.5086
0.347413
0.0864305
-0.0610725
-0.358253
-0.2634
-0.475864
0.850262
)
;

boundaryField
{
    cavity
    {
        type            implicitExtrapolation;
    }
    lid
    {
        type            implicitExtrapolation;
    }
    frontAndBack
    {
        type            empty;
    }
}


// ************************************************************************* //
