/*--------------------------------*- C++ -*----------------------------------*\
| =========                 |                                                 |
| \\      /  F ield         | foam-extend: Open Source CFD                    |
|  \\    /   O peration     | Version:  3.0                                   |
|   \\  /    A nd           | Web:         http://www.extend-project.de       |
|    \\/     M anipulation  |                                                 |
\*---------------------------------------------------------------------------*/
FoamFile
{
    version     2.0;
    format      ascii;
    class       volVectorField;
    location    "5.2";
    object      s;
}
// * * * * * * * * * * * * * * * * * * * * * * * * * * * * * * * * * * * * * //

dimensions      [0 0 0 0 0 0 0];

internalField   nonuniform List<vector> 
400
(
(-0.005564 0.00797565 5.78907e-318)
(-0.00901611 0.011711 9.91659e-318)
(-0.0182084 0.0124022 1.10992e-317)
(-0.0233988 0.0103834 1.10547e-317)
(-0.0302612 0.00874138 1.05258e-317)
(-0.034564 0.00651887 9.82184e-318)
(-0.0388859 0.00472782 9.05715e-318)
(-0.0415895 0.0029144 8.32997e-318)
(-0.0436714 0.00129094 7.61096e-318)
(-0.0446334 -0.000336464 6.97595e-318)
(-0.0446238 -0.00199512 6.35527e-318)
(-0.0437087 -0.00375801 5.8216e-318)
(-0.0414523 -0.00568709 5.30182e-318)
(-0.038461 -0.00777914 4.85149e-318)
(-0.0336446 -0.0099313 4.41786e-318)
(-0.0286444 -0.0122657 4.01193e-318)
(-0.0211941 -0.0139629 3.60407e-318)
(-0.0152274 -0.0156651 3.11406e-318)
(-0.00606865 -0.0144458 2.43792e-318)
(-0.00247785 -0.00956621 1.22949e-318)
(-0.00579916 0.00512386 6.58627e-318)
(-0.0130524 0.0119882 1.28201e-317)
(-0.0237667 0.0150615 1.54415e-317)
(-0.032034 0.015104 1.62175e-317)
(-0.0412578 0.0136176 1.6038e-317)
(-0.0480823 0.0111459 1.5436e-317)
(-0.0544967 0.00830307 1.45848e-317)
(-0.058837 0.00528695 1.36942e-317)
(-0.0620642 0.00218581 1.27398e-317)
(-0.0635171 -0.000916119 1.18519e-317)
(-0.0634233 -0.00411279 1.09496e-317)
(-0.0617668 -0.00729903 1.01402e-317)
(-0.0581962 -0.0105507 9.32983e-318)
(-0.0533506 -0.0136348 8.60233e-318)
(-0.0463075 -0.0164371 7.86617e-318)
(-0.0386923 -0.0185124 7.15651e-318)
(-0.0289251 -0.0193116 6.37153e-318)
(-0.0200961 -0.0181095 5.4247e-318)
(-0.00984629 -0.013707 4.07786e-318)
(-0.00288241 -0.00551651 1.91482e-318)
(-0.00573408 0.0153177 5.14817e-318)
(-0.0127964 0.0287396 1.085e-317)
(-0.0236142 0.0332285 1.37969e-317)
(-0.0317948 0.0323694 1.51501e-317)
(-0.0407667 0.0288812 1.55238e-317)
(-0.0474314 0.0238707 1.53684e-317)
(-0.0536667 0.0182022 1.48587e-317)
(-0.0579549 0.0122397 1.41999e-317)
(-0.0611979 0.00608971 1.34082e-317)
(-0.0627645 -0.000130628 1.26112e-317)
(-0.062844 -0.00655343 1.17651e-317)
(-0.0614263 -0.0130237 1.09662e-317)
(-0.0581044 -0.0196465 1.01501e-317)
(-0.053514 -0.0259788 9.38778e-318)
(-0.0466859 -0.0318878 8.60443e-318)
(-0.039168 -0.0364241 7.82838e-318)
(-0.0294196 -0.0389112 6.95571e-318)
(-0.0203696 -0.0376963 5.91218e-318)
(-0.00975336 -0.0309257 4.4277e-318)
(-0.00267582 -0.0153214 2.10882e-318)
(-0.00470377 0.0164994 3.02569e-318)
(-0.0104643 0.0328013 7.24957e-318)
(-0.0190304 0.038726 9.96167e-318)
(-0.0255199 0.0384029 1.16316e-317)
(-0.0328467 0.0345071 1.25072e-317)
(-0.0382351 0.0287885 1.28763e-317)
(-0.0434849 0.0220514 1.28527e-317)
(-0.0471116 0.014911 1.26043e-317)
(-0.0500152 0.00743724 1.21643e-317)
(-0.0515584 -0.000177861 1.16412e-317)
(-0.0519086 -0.00808924 1.10255e-317)
(-0.0510791 -0.0160869 1.03932e-317)
(-0.0485765 -0.0242917 9.70973e-318)
(-0.045103 -0.0320794 9.02298e-318)
(-0.0395032 -0.0393529 8.2742e-318)
(-0.0334159 -0.0446131 7.46876e-318)
(-0.0250735 -0.0473614 6.5079e-318)
(-0.0173865 -0.0447476 5.3153e-318)
(-0.00822686 -0.035609 3.71206e-318)
(-0.0019283 -0.0158978 1.4966e-318)
(-0.00450652 0.0210497 1.42341e-318)
(-0.00836549 0.0409581 4.28878e-318)
(-0.0156718 0.0478296 6.59255e-318)
(-0.0202961 0.047281 8.33467e-318)
(-0.0261843 0.0425012 9.49186e-318)
(-0.0301499 0.0355854 1.02031e-317)
(-0.034376 0.0274972 1.05297e-317)
(-0.037257 0.0188827 1.05952e-317)
(-0.0398099 0.00986046 1.04378e-317)
(-0.0413808 0.000571159 1.01494e-317)
(-0.0421142 -0.00913402 9.73701e-318)
(-0.042077 -0.0190827 9.26524e-318)
(-0.0405935 -0.0293944 8.71559e-318)
(-0.0385287 -0.0393685 8.12442e-318)
(-0.0342587 -0.0488795 7.44846e-318)
(-0.029853 -0.0560438 6.68304e-318)
(-0.0225278 -0.0602951 5.75174e-318)
(-0.0163486 -0.057749 4.59254e-318)
(-0.00717227 -0.0470938 3.09461e-318)
(-0.00227506 -0.0219327 1.16285e-318)
(-0.00400697 0.0225253 1.48852e-319)
(-0.00611694 0.0437186 1.83385e-318)
(-0.0115698 0.0511973 3.6942e-318)
(-0.0142106 0.0504799 5.38043e-318)
(-0.0183934 0.0454842 6.68912e-318)
(-0.0208504 0.0381196 7.63866e-318)
(-0.0239317 0.0296469 8.24018e-318)
(-0.0260139 0.0205431 8.57334e-318)
(-0.0281559 0.01104 8.6741e-318)
(-0.0297354 0.00113511 8.6138e-318)
(-0.0308573 -0.00928339 8.41425e-318)
(-0.0316641 -0.0201668 8.12513e-318)
(-0.0313117 -0.031612 7.74582e-318)
(-0.0308243 -0.0429761 7.30067e-318)
(-0.0281317 -0.0540533 6.76109e-318)
(-0.0256964 -0.0627682 6.11479e-318)
(-0.0197339 -0.0683136 5.2971e-318)
(-0.0153474 -0.0660021 4.24743e-318)
(-0.00642973 -0.0540653 2.87862e-318)
(-0.00278872 -0.0247825 1.09777e-318)
(-0.00350472 0.0244002 -4.03177e-319)
(-0.00400747 0.0466962 5.40883e-319)
(-0.00787595 0.0546189 1.99429e-318)
(-0.00881532 0.0535716 3.49753e-318)
(-0.0115269 0.0484344 4.77711e-318)
(-0.0126817 0.040648 5.78025e-318)
(-0.0147452 0.0319445 6.4905e-318)
(-0.0161093 0.0224651 6.9523e-318)
(-0.017852 0.0126522 7.19534e-318)
(-0.0194081 0.0022655 7.27391e-318)
(-0.0208421 -0.00871464 7.21174e-318)
(-0.0223999 -0.0204613 7.0486e-318)
(-0.0230627 -0.0329877 6.79075e-318)
(-0.0240797 -0.0458952 6.45501e-318)
(-0.0228421 -0.0587446 6.02431e-318)
(-0.0224002 -0.0696594 5.4811e-318)
(-0.0175939 -0.0771544 4.77452e-318)
(-0.015118 -0.0764025 3.839e-318)
(-0.00590438 -0.0640183 2.59581e-318)
(-0.00376939 -0.0308242 9.60523e-319)
(-0.00255117 0.0247941 -7.28006e-319)
(-0.00195686 0.0468729 -2.99868e-319)
(-0.00379183 0.0549151 8.16473e-319)
(-0.00328523 0.0535531 2.11776e-318)
(-0.00437785 0.0486047 3.31513e-318)
(-0.00434148 0.0408016 4.31585e-318)
(-0.0053049 0.0323872 5.07875e-318)
(-0.00593642 0.0230801 5.62382e-318)
(-0.00716418 0.0135621 5.97153e-318)
(-0.00857611 0.00331786 6.16178e-318)
(-0.0101719 -0.00756802 6.21999e-318)
(-0.0123011 -0.0195394 6.17925e-318)
(-0.0138726 -0.0325238 6.05206e-318)
(-0.0162355 -0.0464716 5.85331e-318)
(-0.0165358 -0.0607042 5.57265e-318)
(-0.0180201 -0.0737003 5.19498e-318)
(-0.0147969 -0.0832459 4.66997e-318)
(-0.0141851 -0.0843876 3.92285e-318)
(-0.0054526 -0.0720127 2.83712e-318)
(-0.00436156 -0.0352538 1.21572e-318)
(-0.00151693 0.0245241 -6.45704e-319)
(-4.94738e-05 0.0461899 -4.43834e-319)
(0.000128272 0.0542224 3.98004e-319)
(0.00180076 0.0527079 1.46317e-318)
(0.00223894 0.0480657 2.49898e-318)
(0.00329987 0.0404218 3.40064e-318)
(0.0034099 0.0324651 4.12283e-318)
(0.00350725 0.023514 4.66622e-318)
(0.0028924 0.0144984 5.04364e-318)
(0.00178448 0.00462312 5.28257e-318)
(0.000249777 -0.00589404 5.40402e-318)
(-0.00217919 -0.0178107 5.43444e-318)
(-0.00438741 -0.0309137 5.38695e-318)
(-0.00785648 -0.0456597 5.27391e-318)
(-0.00952936 -0.0609843 5.09155e-318)
(-0.0129624 -0.0761634 4.82218e-318)
(-0.0113845 -0.0878142 4.42511e-318)
(-0.0130757 -0.0918289 3.81529e-318)
(-0.00484949 -0.0801443 2.84931e-318)
(-0.00546274 -0.0412129 1.27955e-318)
(-0.000349942 0.0233601 -5.65784e-319)
(0.00159235 0.0437529 -5.00627e-319)
(0.00392052 0.0515502 1.4238e-319)
(0.00653146 0.04997 1.01568e-318)
(0.00856582 0.0457942 1.908e-318)
(0.0105648 0.0385645 2.71759e-318)
(0.011826 0.0313094 3.39142e-318)
(0.012702 0.0230085 3.92124e-318)
(0.0128555 0.0147946 4.31194e-318)
(0.0122555 0.00564376 4.58319e-318)
(0.0110407 -0.00412127 4.75333e-318)
(0.00867362 -0.0155317 4.84455e-318)
(0.00612647 -0.0282848 4.8723e-318)
(0.00202 -0.0433167 4.84858e-318)
(-0.000913231 -0.0593277 4.77177e-318)
(-0.00582889 -0.0763307 4.62963e-318)
(-0.00638086 -0.0901699 4.37804e-318)
(-0.00996045 -0.0971791 3.93078e-318)
(-0.00375443 -0.087108 3.10136e-318)
(-0.00529751 -0.0463308 1.5471e-318)
(0.000847343 0.0216416 -3.40228e-319)
(0.00305027 0.0407114 -2.91602e-319)
(0.00736683 0.0479987 1.99395e-319)
(0.010663 0.0465538 8.9335e-319)
(0.0141586 0.0428041 1.62949e-318)
(0.0169531 0.0361366 2.31658e-318)
(0.0193213 0.0296284 2.90826e-318)
(0.0209751 0.0221018 3.38826e-318)
(0.0219839 0.0147969 3.75768e-318)
(0.0220565 0.00654274 4.02796e-318)
(0.0214108 -0.0022472 4.2135e-318)
(0.0194296 -0.0128399 4.33085e-318)
(0.0169221 -0.0248116 4.39414e-318)
(0.0125303 -0.0396268 4.41145e-318)
(0.0086777 -0.0556355 4.38283e-318)
(0.00229797 -0.0739463 4.29382e-318)
(-0.000320526 -0.0892014 4.10538e-318)
(-0.006606 -0.0994115 3.73248e-318)
(-0.00231318 -0.0907798 2.97776e-318)
(-0.00641155 -0.0503093 1.50735e-318)
(0.00156397 0.0191126 -2.24889e-319)
(0.00404989 0.0363769 -1.80793e-319)
(0.0100462 0.0432109 2.16989e-319)
(0.0140168 0.0419582 7.9047e-319)
(0.0188865 0.038745 1.4124e-318)
(0.0224505 0.0327613 2.00803e-318)
(0.0259069 0.0270881 2.53096e-318)
(0.0283572 0.0204529 2.966e-318)
(0.0302933 0.0141502 3.31066e-318)
(0.0311988 0.00694131 3.57262e-318)
(0.0313531 -0.0007149 3.76382e-318)
(0.0301593 -0.0102139 3.89842e-318)
(0.0280924 -0.0211 3.98744e-318)
(0.0241269 -0.0351936 4.03907e-318)
(0.0197311 -0.0507878 4.05127e-318)
(0.0129022 -0.0697642 4.01216e-318)
(0.00792827 -0.0864526 3.87716e-318)
(0.000197619 -0.0997706 3.56941e-318)
(0.000315994 -0.0942791 2.88645e-318)
(-0.00451299 -0.055264 1.50181e-318)
(0.00263622 0.0170209 -1.34159e-319)
(0.00483681 0.0322912 -5.38581e-320)
(0.0122792 0.038127 2.89606e-319)
(0.0165288 0.0370996 7.71118e-319)
(0.0225033 0.0342235 1.29307e-318)
(0.0265961 0.0289875 1.79729e-318)
(0.030955 0.0240904 2.24746e-318)
(0.0340715 0.018384 2.62906e-318)
(0.0368664 0.0130717 2.93836e-318)
(0.038609 0.00696048 3.18021e-318)
(0.0396749 0.000514536 3.36316e-318)
(0.0394486 -0.00769659 3.49668e-318)
(0.0381717 -0.0171714 3.58906e-318)
(0.0349297 -0.0300081 3.64451e-318)
(0.0305461 -0.0443443 3.65769e-318)
(0.0232841 -0.0629805 3.61278e-318)
(0.0165484 -0.0794735 3.46647e-318)
(0.00614303 -0.0948432 3.14688e-318)
(0.00314728 -0.0904879 2.47899e-318)
(-0.00563402 -0.0543546 1.22145e-318)
(0.00249231 0.0135475 -7.13974e-320)
(0.00514218 0.0271004 5.47919e-320)
(0.0133717 0.0323697 3.61182e-319)
(0.0181954 0.0316243 7.73568e-319)
(0.0250589 0.0292224 1.21105e-318)
(0.0296821 0.0247463 1.63714e-318)
(0.0347792 0.0206501 2.0206e-318)
(0.0384718 0.0158671 2.34951e-318)
(0.0420212 0.0115174 2.61977e-318)
(0.0445966 0.00648836 2.83472e-318)
(0.04663 0.00122888 3.0007e-318)
(0.0476298 -0.00562643 3.12511e-318)
(0.0474624 -0.0136016 3.21346e-318)
(0.045702 -0.0248508 3.26836e-318)
(0.0418646 -0.0376609 3.28151e-318)
(0.0357404 -0.0552923 3.23619e-318)
(0.0272777 -0.0716813 3.08604e-318)
(0.016949 -0.0890728 2.76795e-318)
(0.00776962 -0.0887235 2.13455e-318)
(-0.000501761 -0.0586364 1.00372e-318)
(0.00319717 0.0119961 -1.81564e-319)
(0.00492037 0.0228947 3.76478e-321)
(0.0137862 0.0268435 3.15565e-319)
(0.0184575 0.0261778 6.91089e-319)
(0.0257821 0.024033 1.07208e-318)
(0.0305006 0.0203451 1.43761e-318)
(0.0359505 0.0169715 1.76796e-318)
(0.0398926 0.0130998 2.05396e-318)
(0.0439011 0.00962209 2.29153e-318)
(0.0470446 0.00561552 2.48328e-318)
(0.0498824 0.00145728 2.63387e-318)
(0.0519241 -0.00403865 2.74801e-318)
(0.0529588 -0.0104412 2.82887e-318)
(0.0525856 -0.0197666 2.87462e-318)
(0.0498783 -0.0304214 2.8751e-318)
(0.0445859 -0.0458603 2.80929e-318)
(0.0358001 -0.0600971 2.63337e-318)
(0.0236554 -0.07677 2.28763e-318)
(0.0116511 -0.0759304 1.66946e-318)
(-0.00206433 -0.0494837 6.78688e-319)
(0.0022186 0.00824051 8.34823e-320)
(0.00465294 0.0179347 2.84285e-319)
(0.013479 0.0211569 5.08314e-319)
(0.0185734 0.0207522 7.77956e-319)
(0.0261632 0.0189827 1.05968e-318)
(0.0309452 0.0160213 1.33809e-318)
(0.0365121 0.0133672 1.5944e-318)
(0.0404963 0.0103244 1.81999e-318)
(0.0447168 0.00765482 2.00866e-318)
(0.0482559 0.00456204 2.16143e-318)
(0.0517277 0.00140542 2.28135e-318)
(0.0548462 -0.00283564 2.37184e-318)
(0.0571187 -0.00773825 2.43456e-318)
(0.0587229 -0.015127 2.46678e-318)
(0.0574967 -0.0235913 2.45748e-318)
(0.0549469 -0.0366311 2.38774e-318)
(0.045923 -0.049038 2.21484e-318)
(0.0366947 -0.0658812 1.88911e-318)
(0.0176455 -0.068808 1.33666e-318)
(0.0082546 -0.053535 4.96254e-319)
(0.00209947 0.00753557 -2.21677e-319)
(0.00305941 0.0138389 2.51529e-320)
(0.0114607 0.0157737 2.73455e-319)
(0.0158357 0.0152669 5.31738e-319)
(0.0228489 0.0138567 7.85915e-319)
(0.0270724 0.0117125 1.02987e-318)
(0.0320872 0.00974355 1.25301e-318)
(0.0356445 0.00753165 1.44907e-318)
(0.0395446 0.00553942 1.61456e-318)
(0.0429262 0.00325542 1.74991e-318)
(0.0465181 0.000892038 1.85846e-318)
(0.0499423 -0.00223239 1.94128e-318)
(0.0530303 -0.00585612 1.99969e-318)
(0.0555847 -0.0112457 2.02942e-318)
(0.0560439 -0.0174514 2.01928e-318)
(0.0547908 -0.0269944 1.94889e-318)
(0.0478282 -0.0360486 1.78353e-318)
(0.0381028 -0.0482965 1.47878e-318)
(0.0201339 -0.0486109 9.95537e-319)
(0.00420154 -0.033034 3.10436e-319)
(0.000757931 0.00441281 5.68314e-319)
(0.00258686 0.00999887 6.09356e-319)
(0.010634 0.0110286 6.34272e-319)
(0.0148778 0.0107823 7.01346e-319)
(0.0215518 0.00966434 8.22644e-319)
(0.0250648 0.00812741 9.58808e-319)
(0.0295345 0.00679225 1.09468e-318)
(0.0324247 0.00523995 1.21693e-318)
(0.0358596 0.00392649 1.32079e-318)
(0.0389313 0.00233603 1.40396e-318)
(0.0424001 0.000792199 1.46915e-318)
(0.0461675 -0.00136075 1.51685e-318)
(0.04977 -0.00368209 1.54805e-318)
(0.053833 -0.00738645 1.55957e-318)
(0.0556656 -0.0113296 1.54291e-318)
(0.057862 -0.0182536 1.48345e-318)
(0.0520795 -0.0243384 1.35151e-318)
(0.0486941 -0.0358031 1.11493e-318)
(0.024954 -0.0383978 7.46583e-319)
(0.0213847 -0.039327 2.3142e-319)
(-0.000290019 0.00403898 -2.37739e-319)
(-7.57193e-05 0.00554795 -7.88628e-320)
(0.00545049 0.00590264 5.49747e-320)
(0.00807515 0.00562697 1.87281e-319)
(0.012279 0.00512567 3.19972e-319)
(0.0145105 0.00448577 4.47129e-319)
(0.0171779 0.00376486 5.63897e-319)
(0.0189834 0.00298176 6.66628e-319)
(0.0210881 0.00214115 7.5474e-319)
(0.0230139 0.00119436 8.27204e-319)
(0.0253892 0.000126505 8.86502e-319)
(0.0278196 -0.00118235 9.33152e-319)
(0.0307131 -0.00273253 9.67217e-319)
(0.0334252 -0.00475289 9.86046e-319)
(0.0358559 -0.00715443 9.82706e-319)
(0.0371851 -0.0102538 9.46363e-319)
(0.0354671 -0.0135819 8.59561e-319)
(0.0312376 -0.0167147 7.00447e-319)
(0.018503 -0.0165741 4.64916e-319)
(0.00727215 -0.00563104 1.49964e-319)
(-0.000568827 0.00198274 9.41867e-319)
(0.000681236 0.00366613 6.09129e-319)
(0.00531389 0.00328436 4.59367e-319)
(0.00659805 0.00321104 3.7504e-319)
(0.00986886 0.00282108 3.70658e-319)
(0.0105325 0.00236616 3.81419e-319)
(0.0123815 0.00216352 4.02367e-319)
(0.0129978 0.00176539 4.20801e-319)
(0.0143094 0.00163956 4.35791e-319)
(0.0153808 0.00127534 4.45731e-319)
(0.0168417 0.00116355 4.51769e-319)
(0.0187761 0.00069465 4.5461e-319)
(0.0206613 0.00055717 4.55054e-319)
(0.0237381 -0.000278658 4.53093e-319)
(0.0255026 -0.000456065 4.46161e-319)
(0.0295922 -0.00235464 4.30578e-319)
(0.0281989 -0.00245487 3.95638e-319)
(0.0324569 -0.00784527 3.30678e-319)
(0.0173597 -0.00718493 2.25714e-319)
(0.027027 -0.0222402 6.97374e-320)
)
;

boundaryField
{
    cavity
    {
        type            myHeatFlux;
        ThetaWall       uniform 0;
        value           nonuniform List<vector> 
60
(
(0.001 0 0)
(0.001 0 0)
(0.001 0 0)
(0.001 0 0)
(0.001 0 0)
(0.001 0 0)
(0.001 0 0)
(0.001 0 0)
(0.001 0 0)
(0.001 0 0)
(0.001 0 0)
(0.001 0 0)
(0.001 0 0)
(0.001 0 0)
(0.001 0 0)
(0.001 0 0)
(0.001 0 0)
(0.001 0 0)
(0.001 0 0)
(0.001 0 0)
(0 -0.001 0)
(0 -0.001 0)
(0 -0.001 0)
(0 -0.001 0)
(0 -0.001 0)
(0 -0.001 0)
(0 -0.001 0)
(0 -0.001 0)
(0 -0.001 0)
(0 -0.001 0)
(0 -0.001 0)
(0 -0.001 0)
(0 -0.001 0)
(0 -0.001 0)
(0 -0.001 0)
(0 -0.001 0)
(0 -0.001 0)
(0 -0.001 0)
(0 -0.001 0)
(0 -0.001 0)
(-0.001 0 0)
(-0.001 0 0)
(-0.001 0 0)
(-0.001 0 0)
(-0.001 0 0)
(-0.001 0 0)
(-0.001 0 0)
(-0.001 0 0)
(-0.001 0 0)
(-0.001 0 0)
(-0.001 0 0)
(-0.001 0 0)
(-0.001 0 0)
(-0.001 0 0)
(-0.001 0 0)
(-0.001 0 0)
(-0.001 0 0)
(-0.001 0 0)
(-0.001 0 0)
(-0.001 0 0)
)
;
    }
    lid
    {
        type            myHeatFlux;
        ThetaWall       uniform 0;
        value           nonuniform List<vector> 
20
(
(0.000135815 0.0009 0)
(0.000135815 0.0009 0)
(0.000135815 0.0009 0)
(0.000135815 0.0009 0)
(0.000135815 0.0009 0)
(0.000135815 0.0009 0)
(0.000135815 0.0009 0)
(0.000135815 0.0009 0)
(0.000135815 0.0009 0)
(0.000135815 0.0009 0)
(0.000135815 0.0009 0)
(0.000135815 0.0009 0)
(0.000135815 0.0009 0)
(0.000135815 0.0009 0)
(0.000135815 0.0009 0)
(0.000135815 0.0009 0)
(0.000135815 0.0009 0)
(0.000135815 0.0009 0)
(0.000135815 0.0009 0)
(0.000135815 0.0009 0)
)
;
    }
    frontAndBack
    {
        type            empty;
    }
}


// ************************************************************************* //
