/*--------------------------------*- C++ -*----------------------------------*\
| =========                 |                                                 |
| \\      /  F ield         | foam-extend: Open Source CFD                    |
|  \\    /   O peration     | Version:  3.0                                   |
|   \\  /    A nd           | Web:         http://www.extend-project.de       |
|    \\/     M anipulation  |                                                 |
\*---------------------------------------------------------------------------*/
FoamFile
{
    version     2.0;
    format      ascii;
    class       volSymmTensorField;
    location    "5.2";
    object      sigma;
}
// * * * * * * * * * * * * * * * * * * * * * * * * * * * * * * * * * * * * * //

dimensions      [0 0 0 0 0 0 0];

internalField   nonuniform List<symmTensor> 
400
(
(0.176765 0.00164684 1.07737e-316 -0.239142 1.36488e-316 0.0623762)
(0.332969 -0.0630767 1.13717e-316 -0.223305 1.54785e-316 -0.109664)
(0.403698 -0.141613 1.10879e-316 -0.2113 1.50762e-316 -0.192398)
(0.401529 -0.194074 1.05892e-316 -0.183677 1.38999e-316 -0.217851)
(0.375719 -0.247709 9.80658e-317 -0.160818 1.23133e-316 -0.2149)
(0.324677 -0.286667 9.05743e-317 -0.132076 1.09053e-316 -0.192601)
(0.266591 -0.319504 8.26255e-317 -0.105796 9.41214e-317 -0.160795)
(0.198503 -0.344129 7.54442e-317 -0.0768959 8.28936e-317 -0.121607)
(0.128111 -0.36088 6.86459e-317 -0.0492407 7.10804e-317 -0.07887)
(0.0518622 -0.370929 6.25762e-317 -0.0193417 6.30363e-317 -0.0325205)
(-0.0255772 -0.372906 5.71177e-317 0.0104739 5.40938e-317 0.0151033)
(-0.106254 -0.367737 5.2236e-317 0.0422087 4.85748e-317 0.0640456)
(-0.186431 -0.354435 4.80099e-317 0.0747345 4.18313e-317 0.111697)
(-0.264135 -0.333345 4.40623e-317 0.107567 3.8112e-317 0.156568)
(-0.334673 -0.303125 4.09103e-317 0.140351 3.30695e-317 0.194322)
(-0.391359 -0.266363 3.74869e-317 0.170834 3.06147e-317 0.220524)
(-0.421703 -0.214923 3.52775e-317 0.196114 2.7196e-317 0.225589)
(-0.417933 -0.163689 3.19862e-317 0.218616 2.57856e-317 0.199317)
(-0.339947 -0.0854939 3.0307e-317 0.224489 2.41896e-317 0.115458)
(-0.175115 -0.0187261 2.57571e-317 0.230266 2.32957e-317 -0.0551507)
(0.120538 0.0132211 3.68063e-317 -0.286331 7.52263e-317 0.165792)
(0.260808 -0.013641 4.88019e-317 -0.304287 1.12434e-316 0.0434788)
(0.315445 -0.0523148 5.52812e-317 -0.288431 1.21299e-316 -0.027014)
(0.328668 -0.0828235 5.85999e-317 -0.266637 1.1747e-316 -0.0620307)
(0.308063 -0.115153 5.92622e-317 -0.232461 1.07017e-316 -0.0756014)
(0.270304 -0.140959 5.86114e-317 -0.195345 9.60345e-317 -0.074959)
(0.222264 -0.163172 5.68244e-317 -0.155857 8.37043e-317 -0.0664071)
(0.165958 -0.17896 5.45452e-317 -0.113814 7.37657e-317 -0.052144)
(0.107281 -0.189273 5.18765e-317 -0.0721198 6.34409e-317 -0.0351607)
(0.0434027 -0.192499 4.90981e-317 -0.0276492 5.59387e-317 -0.0157535)
(-0.0207499 -0.190497 4.63093e-317 0.0166535 4.79887e-317 0.00409638)
(-0.0878697 -0.181431 4.359e-317 0.0634599 4.2689e-317 0.0244098)
(-0.153755 -0.168775 4.10839e-317 0.110714 3.67154e-317 0.0430407)
(-0.217321 -0.150827 3.86711e-317 0.158019 3.31074e-317 0.0593024)
(-0.275045 -0.131304 3.67042e-317 0.205158 2.87002e-317 0.0698872)
(-0.317509 -0.110822 3.46958e-317 0.245329 2.63261e-317 0.0721797)
(-0.342599 -0.0882169 3.35137e-317 0.282611 2.33352e-317 0.0599887)
(-0.325039 -0.0717249 3.20255e-317 0.298583 2.20745e-317 0.0264565)
(-0.265884 -0.0459924 3.17908e-317 0.306777 2.14762e-317 -0.0408927)
(-0.118477 -0.0351159 3.06243e-317 0.274562 2.408e-317 -0.156084)
(0.11253 0.0465689 -4.54631e-318 -0.324395 3.48027e-317 0.211865)
(0.232664 0.0405937 9.11085e-318 -0.335996 7.69961e-317 0.103332)
(0.275733 0.0292686 2.02449e-317 -0.314142 9.20402e-317 0.0384095)
(0.284517 0.0104427 2.85067e-317 -0.286351 9.35741e-317 0.00183347)
(0.264952 -0.00903923 3.39569e-317 -0.2475 8.80118e-317 -0.0174528)
(0.232837 -0.0296222 3.74287e-317 -0.207714 8.04141e-317 -0.0251231)
(0.193435 -0.045776 3.91558e-317 -0.167166 7.1352e-317 -0.026269)
(0.147344 -0.058214 3.97957e-317 -0.124698 6.33254e-317 -0.0226467)
(0.100706 -0.0640159 3.95663e-317 -0.0837852 5.51448e-317 -0.0169208)
(0.048313 -0.0632382 3.88211e-317 -0.0390113 4.86115e-317 -0.00930168)
(-0.00391408 -0.0568748 3.77336e-317 0.00557803 4.20564e-317 -0.00166395)
(-0.0610204 -0.0435234 3.64433e-317 0.0548799 3.70987e-317 0.00614052)
(-0.118603 -0.028791 3.50935e-317 0.106455 3.19807e-317 0.0121476)
(-0.176271 -0.00963893 3.36175e-317 0.16021 2.82424e-317 0.0160616)
(-0.232754 0.00418533 3.22072e-317 0.217695 2.42106e-317 0.0150591)
(-0.275148 0.0167815 3.04493e-317 0.267734 2.12613e-317 0.00741425)
(-0.30759 0.0179252 2.86764e-317 0.319369 1.80641e-317 -0.0117796)
(-0.295568 0.011222 2.60216e-317 0.343023 1.5642e-317 -0.0474544)
(-0.249855 -0.00590835 2.28777e-317 0.358868 1.37981e-317 -0.109012)
(-0.113101 -0.0321338 1.91092e-317 0.321569 1.39003e-317 -0.208468)
(0.088753 0.0741202 -4.01467e-317 -0.321023 -4.72401e-319 0.23227)
(0.186154 0.0837733 -2.53729e-317 -0.316979 4.38038e-317 0.130825)
(0.218258 0.0875918 -1.0546e-317 -0.285688 6.29073e-317 0.0674297)
(0.222581 0.0724574 1.53691e-318 -0.252267 6.90356e-317 0.0296857)
(0.205735 0.0593341 1.10727e-317 -0.213605 6.78472e-317 0.00787003)
(0.179854 0.0396379 1.80278e-317 -0.176513 6.38184e-317 -0.0033414)
(0.151578 0.0263027 2.29156e-317 -0.143002 5.78515e-317 -0.00857553)
(0.118126 0.0159589 2.61389e-317 -0.108576 5.20865e-317 -0.00955031)
(0.0871311 0.0129757 2.80894e-317 -0.0784323 4.59087e-317 -0.00869886)
(0.050166 0.0182323 2.9096e-317 -0.0438661 4.07451e-317 -0.00629991)
(0.0149797 0.0286248 2.94126e-317 -0.0109156 3.55201e-317 -0.00406409)
(-0.0275471 0.0485971 2.92249e-317 0.029473 3.1456e-317 -0.00192594)
(-0.0703526 0.0674413 2.86851e-317 0.0720214 2.73802e-317 -0.00166887)
(-0.118737 0.0931784 2.78383e-317 0.122378 2.44695e-317 -0.00364092)
(-0.167575 0.106623 2.67726e-317 0.178017 2.16241e-317 -0.0104425)
(-0.210351 0.119971 2.53677e-317 0.23417 1.99965e-317 -0.023819)
(-0.246705 0.106945 2.36554e-317 0.295103 1.86981e-317 -0.048398)
(-0.245093 0.0839859 2.13601e-317 0.334091 1.86732e-317 -0.088998)
(-0.214275 0.0289958 1.84341e-317 0.368336 1.88612e-317 -0.154061)
(-0.0947254 -0.0427497 1.47828e-317 0.347442 1.80547e-317 -0.252716)
(0.0931573 0.126787 -4.34026e-317 -0.366149 -1.4566e-317 0.272992)
(0.172101 0.137062 -3.21935e-317 -0.327901 2.1586e-317 0.155801)
(0.195443 0.144854 -1.9142e-317 -0.281094 3.99237e-317 0.0856506)
(0.188538 0.124385 -7.6688e-318 -0.232951 4.7966e-317 0.0444137)
(0.174238 0.109897 1.81623e-318 -0.194458 4.97408e-317 0.0202203)
(0.150132 0.0855135 9.17393e-318 -0.15704 4.8442e-317 0.00690898)
(0.1321 0.0707068 1.46286e-317 -0.131644 4.51983e-317 -0.000455528)
(0.107717 0.0582565 1.8558e-317 -0.104019 4.14546e-317 -0.00369776)
(0.0903955 0.0558895 2.12556e-317 -0.0850916 3.72246e-317 -0.00530397)
(0.0649944 0.0621507 2.30395e-317 -0.0594638 3.33313e-317 -0.00553055)
(0.0433424 0.076077 2.41483e-317 -0.0371891 2.93984e-317 -0.00615336)
(0.01049 0.100661 2.47821e-317 -0.00343328 2.60434e-317 -0.00705673)
(-0.0231309 0.125712 2.51243e-317 0.0333002 2.27848e-317 -0.0101692)
(-0.0689545 0.159571 2.52622e-317 0.084787 2.01882e-317 -0.0158325)
(-0.118244 0.179092 2.53737e-317 0.145252 1.78098e-317 -0.0270079)
(-0.170982 0.201393 2.53973e-317 0.216722 1.62206e-317 -0.0457405)
(-0.22109 0.186345 2.55629e-317 0.298833 1.51453e-317 -0.0777424)
(-0.241645 0.164937 2.55843e-317 0.371088 1.51601e-317 -0.129444)
(-0.229005 0.0878746 2.56981e-317 0.442229 1.63143e-317 -0.213224)
(-0.115899 -0.00171347 2.50824e-317 0.462193 1.97325e-317 -0.346294)
(0.0835754 0.20858 -4.69833e-317 -0.386163 -2.34115e-317 0.302587)
(0.136939 0.198502 -3.80489e-317 -0.308905 6.13133e-318 0.171966)
(0.152343 0.190378 -2.63207e-317 -0.247817 2.26562e-317 0.0954739)
(0.135112 0.155136 -1.54295e-317 -0.186417 3.14006e-317 0.0513049)
(0.124738 0.129755 -5.87345e-318 -0.150491 3.49444e-317 0.0257529)
(0.104167 0.0976765 1.79242e-318 -0.115696 3.56174e-317 0.0115287)
(0.0971906 0.077108 7.78159e-318 -0.100622 3.43278e-317 0.00343103)
(0.084013 0.0623952 1.2254e-317 -0.0833245 3.22253e-317 -0.000688522)
(0.081835 0.0587742 1.55005e-317 -0.0786114 2.94568e-317 -0.00322363)
(0.0711193 0.0676045 1.77648e-317 -0.0665022 2.66836e-317 -0.00461711)
(0.0666586 0.0851643 1.92757e-317 -0.0601478 2.37359e-317 -0.00651071)
(0.0480364 0.11799 2.02195e-317 -0.0390227 2.1091e-317 -0.00901364)
(0.0306485 0.152263 2.07554e-317 -0.0166601 1.84809e-317 -0.0139884)
(-0.00724374 0.200842 2.10074e-317 0.0294166 1.63432e-317 -0.0221729)
(-0.0466313 0.2339 2.10823e-317 0.0833915 1.44448e-317 -0.0367603)
(-0.106009 0.27503 2.10697e-317 0.166768 1.32791e-317 -0.0607593)
(-0.159332 0.270963 2.10191e-317 0.260531 1.27677e-317 -0.101199)
(-0.206413 0.262515 2.09608e-317 0.373772 1.35166e-317 -0.167359)
(-0.208927 0.180781 2.07928e-317 0.485248 1.55169e-317 -0.276321)
(-0.121044 0.0815276 1.9999e-317 0.573847 1.87273e-317 -0.452803)
(0.0816554 0.308014 -3.27253e-317 -0.398517 -2.03837e-317 0.316861)
(0.113796 0.2666 -2.80927e-317 -0.289578 -1.37352e-318 0.175781)
(0.124652 0.231184 -2.03808e-317 -0.220967 1.13425e-317 0.0963152)
(0.0981812 0.177475 -1.24714e-317 -0.149858 1.92404e-317 0.0516766)
(0.093595 0.136025 -5.22688e-318 -0.119976 2.34231e-317 0.0263808)
(0.0754568 0.0941395 9.28809e-319 -0.0878919 2.52127e-317 0.0124351)
(0.0791631 0.0651141 5.89243e-318 -0.0836065 2.52881e-317 0.00444343)
(0.0746787 0.0448332 9.78359e-318 -0.0748938 2.44083e-317 0.000215061)
(0.0858395 0.0376434 1.27291e-317 -0.0831849 2.28205e-317 -0.00265457)
(0.0868191 0.0439313 1.49157e-317 -0.0822675 2.0961e-317 -0.00455158)
(0.0969104 0.0629577 1.65099e-317 -0.0897154 1.88498e-317 -0.00719495)
(0.0896069 0.0978163 1.76728e-317 -0.0789599 1.67754e-317 -0.010647)
(0.0848604 0.140813 1.85695e-317 -0.0678527 1.46705e-317 -0.0170077)
(0.0519876 0.199476 1.93264e-317 -0.0248901 1.27831e-317 -0.0270976)
(0.0169479 0.250975 2.01408e-317 0.0278035 1.10677e-317 -0.0447514)
(-0.05301 0.313981 2.10811e-317 0.126659 9.84363e-318 -0.0736487)
(-0.11838 0.337139 2.24259e-317 0.241157 9.25932e-318 -0.122777)
(-0.197366 0.362837 2.40638e-317 0.401817 9.94864e-318 -0.204451)
(-0.222983 0.309119 2.62447e-317 0.565654 1.27552e-317 -0.342671)
(-0.151398 0.249784 2.80198e-317 0.727213 1.98581e-317 -0.575815)
(0.0631895 0.413652 -2.69623e-317 -0.356263 -1.79813e-317 0.293073)
(0.0736164 0.330681 -2.39901e-317 -0.233512 -5.00568e-318 0.159895)
(0.0791457 0.258655 -1.81642e-317 -0.165383 4.56687e-318 0.086237)
(0.0483073 0.184179 -1.1814e-317 -0.0939875 1.12828e-317 0.0456802)
(0.0478085 0.12251 -5.65149e-318 -0.0710373 1.541e-317 0.0232287)
(0.0340349 0.0713544 -3.04073e-319 -0.0451027 1.76723e-317 0.0110678)
(0.0456064 0.0317622 4.15911e-318 -0.049848 1.84791e-317 0.00424157)
(0.050405 0.00713574 7.6964e-318 -0.0510365 1.83539e-317 0.000631515)
(0.072514 -0.00495385 1.0419e-317 -0.0706545 1.75119e-317 -0.00185953)
(0.0861928 0.000694917 1.24391e-317 -0.0825013 1.62809e-317 -0.00369145)
(0.110539 0.020757 1.38896e-317 -0.104171 1.47211e-317 -0.00636834)
(0.117537 0.0611148 1.48921e-317 -0.107378 1.3047e-317 -0.0101592)
(0.129553 0.114402 1.55621e-317 -0.112515 1.1246e-317 -0.0170381)
(0.107834 0.189398 1.60113e-317 -0.0795936 9.50033e-318 -0.0282402)
(0.088315 0.264914 1.63457e-317 -0.0405633 7.81928e-318 -0.0477517)
(0.0163058 0.359366 1.66994e-317 0.0639553 6.47595e-318 -0.0802612)
(-0.042764 0.421292 1.71818e-317 0.178774 5.68811e-318 -0.13601)
(-0.148799 0.491053 1.79487e-317 0.379155 6.14909e-318 -0.230356)
(-0.18357 0.480145 1.90928e-317 0.575811 8.77883e-318 -0.392241)
(-0.148484 0.459072 2.0256e-317 0.816283 1.52288e-317 -0.667799)
(0.04432 0.499166 -1.2625e-317 -0.279301 -1.11208e-317 0.234981)
(0.0366671 0.382849 -1.2379e-317 -0.161145 -5.35622e-318 0.124478)
(0.0401142 0.276401 -9.70603e-318 -0.10544 7.91103e-319 0.0653258)
(0.00910801 0.185213 -5.98199e-318 -0.0427184 5.9058e-318 0.0336104)
(0.0143629 0.104066 -2.07185e-318 -0.0308746 9.56075e-318 0.0165118)
(0.00525384 0.0437205 1.62973e-318 -0.0127693 1.19108e-317 0.0075155)
(0.0241377 -0.00702579 4.83258e-318 -0.0267082 1.31353e-317 0.00257048)
(0.0363843 -0.038913 7.49716e-318 -0.03645 1.35243e-317 6.5749e-05)
(0.0679476 -0.0578527 9.60452e-318 -0.0661566 1.32431e-317 -0.00179104)
(0.0919356 -0.0587231 1.12191e-317 -0.0886902 1.25123e-317 -0.0032454)
(0.128805 -0.0409414 1.24121e-317 -0.123037 1.14154e-317 -0.00576814)
(0.148234 -0.00432637 1.32682e-317 -0.138729 1.00987e-317 -0.0095045)
(0.174879 0.0556731 1.38901e-317 -0.15831 8.58749e-318 -0.0165687)
(0.16365 0.135429 1.43612e-317 -0.135515 6.99622e-318 -0.0281352)
(0.155358 0.235102 1.48347e-317 -0.106761 5.35688e-318 -0.0485969)
(0.0814954 0.352949 1.53711e-317 0.00139586 3.85154e-318 -0.0828912)
(0.0182188 0.465934 1.62586e-317 0.124328 2.72107e-318 -0.142547)
(-0.115535 0.590977 1.74812e-317 0.360355 2.59936e-318 -0.24482)
(-0.177205 0.657766 1.9505e-317 0.601217 4.84206e-318 -0.424011)
(-0.171727 0.731838 2.19913e-317 0.910412 1.25152e-317 -0.738685)
(0.0143316 0.559843 -8.8185e-318 -0.155803 -7.58586e-318 0.141471)
(-0.00783534 0.411994 -8.72913e-318 -0.0640501 -4.68674e-318 0.0718854)
(-0.0114742 0.275529 -6.75924e-318 -0.0244237 -8.19092e-319 0.0358979)
(-0.0374641 0.172071 -3.87627e-318 0.0201611 2.92778e-318 0.0173031)
(-0.0312791 0.0738507 -6.71307e-319 0.0235425 5.93662e-318 0.00773652)
(-0.0341743 0.00731293 2.33054e-318 0.0311583 8.0949e-318 0.00301601)
(-0.0126813 -0.0541474 4.97692e-318 0.0120666 9.41302e-318 0.000614721)
(0.00656998 -0.0913494 7.14575e-318 -0.00616692 1.00285e-317 -0.000403062)
(0.0427372 -0.117545 8.8479e-318 -0.0414978 1.00465e-317 -0.00123938)
(0.0760943 -0.122912 1.01076e-317 -0.0740638 9.61382e-318 -0.00203056)
(0.121054 -0.108055 1.09737e-317 -0.117123 8.80276e-318 -0.00393098)
(0.153532 -0.0718149 1.14932e-317 -0.146341 7.71607e-318 -0.00719094)
(0.193459 -0.00523379 1.17123e-317 -0.179809 6.38286e-318 -0.0136498)
(0.19803 0.0857689 1.16739e-317 -0.173331 4.87808e-318 -0.0246994)
(0.20833 0.211594 1.14126e-317 -0.163894 3.231e-318 -0.0444358)
(0.145604 0.363644 1.09909e-317 -0.067428 1.57131e-318 -0.0781764)
(0.101233 0.53311 1.04602e-317 0.0361143 1.07262e-319 -0.137347)
(-0.0426643 0.7227 1.0013e-317 0.282894 -6.3149e-319 -0.240229)
(-0.0993118 0.869856 9.85871e-318 0.521277 4.90839e-319 -0.421965)
(-0.137364 1.01666 1.05714e-317 0.877898 5.52354e-318 -0.740533)
(-0.0179017 0.576437 -1.07459e-319 -0.00849497 -2.82137e-318 0.0263966)
(-0.0518024 0.419481 -1.10014e-318 0.0433335 -3.59251e-318 0.00846891)
(-0.0576527 0.266283 -7.05704e-319 0.0564399 -1.79462e-318 0.00121273)
(-0.0757193 0.156536 7.4426e-319 0.0772814 7.04715e-319 -0.00156214)
(-0.0670299 0.0464911 2.54734e-318 0.0693925 3.14506e-318 -0.00236264)
(-0.0635883 -0.0260693 4.43069e-318 0.0658308 5.12257e-318 -0.00224241)
(-0.0397304 -0.0965136 6.13136e-318 0.0416209 6.50439e-318 -0.00189053)
(-0.014873 -0.140794 7.58108e-318 0.0161583 7.30005e-318 -0.00128534)
(0.0251977 -0.174622 8.72265e-318 -0.0241174 7.56177e-318 -0.00108039)
(0.065838 -0.188683 9.55969e-318 -0.0647521 7.38625e-318 -0.00108588)
(0.118417 -0.179727 1.01016e-317 -0.116099 6.8382e-318 -0.00231727)
(0.162186 -0.152902 1.03664e-317 -0.157359 5.9973e-318 -0.00482723)
(0.21535 -0.0857699 1.03836e-317 -0.204924 4.89716e-318 -0.0104267)
(0.235616 2.11956e-05 1.01599e-317 -0.215399 3.58869e-318 -0.0202167)
(0.262911 0.144967 9.75159e-318 -0.224716 2.09364e-318 -0.0381947)
(0.213013 0.308358 9.12823e-318 -0.143939 4.7872e-319 -0.0690744)
(0.17622 0.53477 8.43999e-318 -0.0522785 -1.10917e-318 -0.123941)
(0.0205772 0.775606 7.66967e-318 0.199632 -2.36317e-318 -0.220209)
(-0.0647707 1.02867 7.22052e-318 0.45873 -2.24388e-318 -0.393959)
(-0.15039 1.29794 7.8197e-318 0.861725 1.37047e-318 -0.711335)
(-0.0485641 0.554873 -9.84451e-319 0.145288 -1.34336e-318 -0.0967237)
(-0.0934952 0.393929 -7.00051e-319 0.151342 -2.62961e-318 -0.0578469)
(-0.111124 0.235046 4.90069e-319 0.14521 -1.98498e-318 -0.0340862)
(-0.118869 0.127177 2.09283e-318 0.139074 -3.51582e-319 -0.020205)
(-0.112387 0.0112427 3.83087e-318 0.124429 1.5913e-318 -0.0120421)
(-0.101396 -0.0629552 5.36602e-318 0.108495 3.32686e-318 -0.00709864)
(-0.0785825 -0.140006 6.69087e-318 0.0826078 4.63715e-318 -0.00402532)
(-0.0489013 -0.188822 7.7355e-318 0.0507388 5.46069e-318 -0.00183752)
(-0.00997462 -0.22929 8.51281e-318 0.010493 5.8172e-318 -0.000518415)
(0.0354894 -0.249817 9.0173e-318 -0.0358097 5.77161e-318 0.000320362)
(0.0882027 -0.246794 9.25228e-318 -0.0882054 5.37891e-318 2.70056e-06)
(0.140917 -0.226214 9.20969e-318 -0.139382 4.69972e-318 -0.00153503)
(0.199101 -0.159692 8.87501e-318 -0.193387 3.7672e-318 -0.00571351)
(0.237073 -0.0725049 8.2182e-318 -0.223472 2.61726e-318 -0.0136013)
(0.278972 0.0898966 7.18576e-318 -0.25058 1.27411e-318 -0.0283929)
(0.255798 0.278595 5.73933e-318 -0.201503 -2.24666e-319 -0.0542942)
(0.245593 0.560627 3.75955e-318 -0.145207 -1.7774e-318 -0.100386)
(0.110608 0.870273 1.388e-318 0.0713094 -3.24424e-318 -0.181918)
(0.0511349 1.22078 -1.43525e-318 0.278011 -4.10901e-318 -0.329146)
(-0.0686333 1.57967 -3.24823e-318 0.661662 -3.92158e-318 -0.593029)
(-0.0864391 0.500364 2.29619e-318 0.304796 -2.89503e-319 -0.218357)
(-0.133341 0.354074 2.85391e-318 0.253584 -3.30983e-318 -0.120243)
(-0.153945 0.202285 3.93613e-318 0.220138 -3.34582e-318 -0.0661923)
(-0.150779 0.0960729 5.06819e-318 0.187514 -2.02214e-318 -0.0367349)
(-0.1451 -0.0198571 6.06872e-318 0.165588 -1.36792e-319 -0.0204878)
(-0.127427 -0.0963485 6.90887e-318 0.138762 1.6355e-318 -0.0113346)
(-0.105713 -0.176236 7.58256e-318 0.111681 3.02273e-318 -0.00596778)
(-0.0724606 -0.228926 8.10702e-318 0.0749018 3.94911e-318 -0.00244126)
(-0.034705 -0.274026 8.46572e-318 0.0349144 4.4304e-318 -0.000209348)
(0.0135637 -0.301363 8.64719e-318 -0.0149749 4.53164e-318 0.00141121)
(0.0671556 -0.30546 8.62973e-318 -0.0690603 4.31166e-318 0.0019047)
(0.126513 -0.296289 8.38901e-318 -0.127927 3.83015e-318 0.00141407)
(0.192285 -0.237081 7.90208e-318 -0.190955 3.12688e-318 -0.00133056)
(0.246728 -0.164682 7.12383e-318 -0.239772 2.23938e-318 -0.00695617)
(0.307091 0.00113554 6.03046e-318 -0.288988 1.1947e-318 -0.0181034)
(0.310522 0.179643 4.53264e-318 -0.272938 1.24455e-320 -0.0375838)
(0.321322 0.500274 2.61342e-318 -0.248999 -1.25109e-318 -0.0723224)
(0.196533 0.827009 2.26267e-319 -0.0631795 -2.63995e-318 -0.133354)
(0.113029 1.27791 -2.58236e-318 0.132907 -3.97585e-318 -0.245936)
(-0.0809641 1.73954 -4.64217e-318 0.545785 -5.34303e-318 -0.46482)
(-0.105415 0.400101 -2.93653e-319 0.421285 -1.29845e-319 -0.31587)
(-0.167798 0.27904 2.18272e-318 0.3379 -3.09974e-318 -0.170102)
(-0.200868 0.147812 4.79447e-318 0.291794 -3.45006e-318 -0.0909266)
(-0.187343 0.0548748 6.25395e-318 0.236272 -2.25524e-318 -0.0489289)
(-0.18218 -0.0543302 7.22945e-318 0.208647 -5.08151e-319 -0.026467)
(-0.156479 -0.127868 7.73387e-318 0.170682 1.13019e-318 -0.0142027)
(-0.135944 -0.207082 8.05896e-318 0.143115 2.39166e-318 -0.00717067)
(-0.100051 -0.260727 8.23773e-318 0.10273 3.2267e-318 -0.00267936)
(-0.0672486 -0.308034 8.30555e-318 0.066959 3.6635e-318 0.000289658)
(-0.0196532 -0.339885 8.2419e-318 0.0170917 3.76732e-318 0.0025615)
(0.0262332 -0.349859 8.01766e-318 -0.0301114 3.59527e-318 0.00387812)
(0.0871002 -0.349459 7.59111e-318 -0.0915085 3.2017e-318 0.00440828)
(0.146457 -0.298451 6.91394e-318 -0.149726 2.62685e-318 0.00326884)
(0.214051 -0.235235 5.92623e-318 -0.214062 1.90608e-318 1.11946e-05)
(0.276394 -0.0698215 4.53633e-318 -0.269423 1.07959e-318 -0.00697136)
(0.316129 0.114974 2.68328e-318 -0.296773 1.7189e-319 -0.0193561)
(0.347562 0.468343 1.57251e-319 -0.307006 -7.64028e-319 -0.0405564)
(0.282276 0.849585 -2.91644e-318 -0.206099 -1.82094e-318 -0.0761775)
(0.242771 1.39057 -6.90356e-318 -0.105167 -3.26132e-318 -0.137604)
(0.062293 1.95088 -1.04668e-317 0.180484 -6.41858e-318 -0.242777)
(-0.142792 0.312187 3.5005e-318 0.537281 -3.12225e-318 -0.394489)
(-0.188402 0.20572 5.66471e-318 0.392157 -7.3373e-318 -0.203754)
(-0.225326 0.093898 7.79122e-318 0.331215 -6.79672e-318 -0.105889)
(-0.201394 0.00380105 8.50153e-318 0.257131 -4.55508e-318 -0.0557363)
(-0.19833 -0.0957494 8.64001e-318 0.227947 -2.18114e-318 -0.0296163)
(-0.167065 -0.166412 8.50478e-318 0.182745 -1.87661e-319 -0.0156801)
(-0.148796 -0.240215 8.31363e-318 0.156602 1.24927e-318 -0.00780607)
(-0.111867 -0.291244 8.12968e-318 0.114685 2.19982e-318 -0.00281755)
(-0.0838068 -0.337009 7.93253e-318 0.0832504 2.74064e-318 0.000556389)
(-0.0387402 -0.369926 7.68396e-318 0.0354638 2.96778e-318 0.00327643)
(0.00130068 -0.384813 7.33308e-318 -0.00648158 2.95059e-318 0.0051809)
(0.0609966 -0.392908 6.83021e-318 -0.06758 2.7481e-318 0.00658338)
(0.119032 -0.355169 6.12913e-318 -0.125797 2.40559e-318 0.0067654)
(0.196232 -0.311172 5.17909e-318 -0.201912 1.96132e-318 0.00567983)
(0.271505 -0.163663 3.94207e-318 -0.273883 1.45754e-318 0.00237752)
(0.341507 -0.0107836 2.36335e-318 -0.338248 9.20894e-319 -0.00325854)
(0.404617 0.339388 4.03637e-319 -0.393046 3.77328e-319 -0.0115709)
(0.368576 0.679253 -1.9342e-318 -0.347015 -3.11647e-319 -0.021561)
(0.325119 1.27063 -4.74743e-318 -0.291585 -1.58173e-318 -0.033534)
(0.0284145 1.83925 -7.47574e-318 0.0364499 -4.73289e-318 -0.0648644)
(-0.143501 0.157645 7.66216e-318 0.565441 1.23446e-318 -0.42194)
(-0.215668 0.101277 9.40398e-318 0.429785 -4.15739e-318 -0.214117)
(-0.25247 0.03176 1.08452e-317 0.361351 -4.25835e-318 -0.108882)
(-0.220762 -0.0396767 1.04827e-317 0.277079 -2.33793e-318 -0.0563167)
(-0.210855 -0.120506 9.79141e-318 0.240423 -4.57001e-319 -0.0295677)
(-0.172246 -0.183565 9.02025e-318 0.187788 1.02538e-318 -0.0155419)
(-0.153738 -0.247327 8.40335e-318 0.161414 2.00156e-318 -0.00767569)
(-0.116864 -0.293525 7.9235e-318 0.119546 2.57936e-318 -0.00268201)
(-0.0960442 -0.334339 7.52587e-318 0.0952445 2.84361e-318 0.0007997)
(-0.0570102 -0.366106 7.14208e-318 0.0532902 2.87637e-318 0.00371995)
(-0.0303217 -0.38304 6.70223e-318 0.0242885 2.73671e-318 0.00603323)
(0.0220268 -0.396491 6.14462e-318 -0.0300897 2.46999e-318 0.00806287)
(0.0628847 -0.370624 5.41013e-318 -0.0722391 2.11498e-318 0.00935441)
(0.141588 -0.340277 4.44676e-318 -0.151596 1.70677e-318 0.010008)
(0.200602 -0.21355 3.18459e-318 -0.210459 1.29248e-318 0.00985618)
(0.302732 -0.0755968 1.61411e-318 -0.312484 9.13789e-319 0.00975199)
(0.361256 0.262946 -4.04921e-319 -0.373926 6.14489e-319 0.0126696)
(0.422324 0.62495 -2.68846e-318 -0.448413 3.24705e-319 0.0260892)
(0.414796 1.26474 -5.53289e-318 -0.484647 -5.16882e-319 0.0698515)
(0.250789 1.95577 -8.47064e-318 -0.44453 -3.46129e-318 0.193741)
(-0.168892 0.0830215 1.57416e-317 0.5872 -7.70891e-318 -0.418308)
(-0.191071 0.00777159 1.43104e-317 0.392745 -1.236e-317 -0.201674)
(-0.234139 -0.0524541 1.28664e-317 0.334015 -9.86442e-318 -0.0998758)
(-0.195066 -0.121239 1.10371e-317 0.245995 -5.9138e-318 -0.050928)
(-0.18854 -0.190056 9.4285e-318 0.21512 -3.08112e-318 -0.02658)
(-0.14937 -0.242014 8.24909e-318 0.163362 -1.07467e-318 -0.0139925)
(-0.133976 -0.293906 7.40609e-318 0.140924 2.01529e-319 -0.00694783)
(-0.10034 -0.330005 6.82846e-318 0.102762 1.02145e-318 -0.00242239)
(-0.0856466 -0.363325 6.38479e-318 0.0848301 1.5218e-318 0.000816461)
(-0.0537963 -0.390022 5.99317e-318 0.0501385 1.80841e-318 0.00365785)
(-0.0360524 -0.407533 5.57483e-318 0.0299942 1.94493e-318 0.0060582)
(0.0072269 -0.424419 5.0736e-318 -0.0156211 1.97828e-318 0.00839419)
(0.0394084 -0.412627 4.44471e-318 -0.0497139 1.94068e-318 0.0103055)
(0.113313 -0.400457 3.6568e-318 -0.125404 1.86143e-318 0.0120911)
(0.173609 -0.308745 2.70083e-318 -0.187522 1.7684e-318 0.0139127)
(0.287803 -0.216026 1.59431e-318 -0.305197 1.68689e-318 0.0173943)
(0.377928 0.0661379 3.89437e-319 -0.405245 1.61649e-318 0.0273165)
(0.460937 0.324038 -8.33e-319 -0.516945 1.47779e-318 0.0560081)
(0.498077 0.914646 -1.97091e-318 -0.632533 8.02348e-319 0.134456)
(0.14808 1.40969 -3.34665e-318 -0.459413 -1.35178e-318 0.311332)
(-0.146455 -0.0963539 2.75868e-317 0.492365 1.15573e-317 -0.34591)
(-0.210208 -0.0989445 2.23006e-317 0.373789 2.33906e-318 -0.163581)
(-0.221599 -0.0910646 1.66918e-317 0.301238 1.03336e-318 -0.0796392)
(-0.178805 -0.140118 1.26356e-317 0.219098 1.91059e-318 -0.0402933)
(-0.158914 -0.173558 9.75796e-318 0.179958 2.64673e-318 -0.0210443)
(-0.114784 -0.214768 7.98572e-318 0.125957 3.0746e-318 -0.0111732)
(-0.100743 -0.245807 6.84192e-318 0.106365 3.21991e-318 -0.00562175)
(-0.0701326 -0.272727 6.12048e-318 0.0721121 3.17599e-318 -0.00197955)
(-0.0644898 -0.293584 5.60854e-318 0.0637828 3.00895e-318 0.000707057)
(-0.0416191 -0.311993 5.19633e-318 0.0384516 2.75941e-318 0.0031675)
(-0.0391075 -0.324566 4.79231e-318 0.0337568 2.45806e-318 0.00535077)
(-0.0089942 -0.33535 4.3367e-318 0.0013877 2.12715e-318 0.00760649)
(0.00012046 -0.330731 3.77862e-318 -0.00980326 1.78833e-318 0.0096828)
(0.0616922 -0.319863 3.08479e-318 -0.0735856 1.46513e-318 0.0118934)
(0.0887671 -0.259758 2.21922e-318 -0.103367 1.1903e-318 0.0146003)
(0.214968 -0.183868 1.21769e-318 -0.23441 9.9952e-319 0.0194418)
(0.259729 0.0293476 4.43671e-320 -0.291566 9.12737e-319 0.0318369)
(0.459459 0.273166 -1.07382e-318 -0.525399 9.34664e-319 0.06594)
(0.461813 0.805117 -2.18633e-318 -0.628577 6.56006e-319 0.166764)
(0.475243 1.49348 -3.45815e-318 -0.950424 -6.60082e-319 0.475181)
(-0.117981 -0.121958 2.20105e-317 0.355199 -1.35677e-317 -0.237219)
(-0.0842793 -0.199889 1.6098e-317 0.190718 -1.3439e-317 -0.106438)
(-0.113448 -0.231559 1.05604e-317 0.164476 -9.65655e-318 -0.0510279)
(-0.0781651 -0.267999 7.50669e-318 0.103976 -5.89564e-318 -0.0258109)
(-0.070143 -0.305059 5.58097e-318 0.0837437 -3.79109e-318 -0.0136007)
(-0.0419213 -0.324729 4.51314e-318 0.0492731 -2.38791e-318 -0.00735186)
(-0.0332788 -0.347776 3.86004e-318 0.03707 -1.48294e-318 -0.0037912)
(-0.0140838 -0.360354 3.4682e-318 0.0154621 -8.21883e-319 -0.00137837)
(-0.0111364 -0.374546 3.19309e-318 0.010685 -3.1806e-319 0.000451441)
(0.00229975 -0.387055 2.96819e-318 -0.00451461 8.88824e-320 0.00221486)
(0.00257891 -0.398243 2.7385e-318 -0.00639694 4.28617e-319 0.00381803)
(0.0202687 -0.413374 2.47296e-318 -0.0258364 7.20219e-319 0.00556773)
(0.0254939 -0.418624 2.1488e-318 -0.0327451 9.72104e-319 0.00725112)
(0.0648156 -0.429887 1.76005e-318 -0.073976 1.19113e-318 0.00916042)
(0.087579 -0.405713 1.32155e-318 -0.0991282 1.372e-318 0.0115492)
(0.172937 -0.387395 8.75257e-319 -0.188572 1.50901e-318 0.0156349)
(0.23438 -0.261909 5.26017e-319 -0.259885 1.57742e-318 0.025505)
(0.356965 -0.16585 3.3888e-319 -0.409135 1.53192e-318 0.0521693)
(0.476677 0.19592 5.82701e-319 -0.608574 1.24918e-318 0.131898)
(0.173563 0.358542 6.41401e-319 -0.526365 5.36941e-319 0.352802)
(-0.0203875 -0.319093 2.75219e-317 0.093292 3.17443e-317 -0.0729046)
(-0.0841783 -0.272128 1.94742e-317 0.120282 1.71372e-317 -0.0361037)
(-0.0441632 -0.177944 1.07469e-317 0.0617778 1.18397e-317 -0.0176146)
(-0.0120003 -0.1965 6.84176e-318 0.021061 8.879e-318 -0.0090607)
(0.00447277 -0.164362 4.46844e-318 0.000416341 7.48752e-318 -0.00488911)
(0.0348143 -0.180111 3.36705e-318 -0.0320806 6.44189e-318 -0.00273371)
(0.0355234 -0.168006 2.72191e-318 -0.0340494 5.65421e-318 -0.00147399)
(0.05038 -0.174748 2.3723e-318 -0.0498098 4.93481e-318 -0.000570201)
(0.0427091 -0.168306 2.13914e-318 -0.0428395 4.2744e-318 0.00013041)
(0.048677 -0.16565 1.96879e-318 -0.0495345 3.64291e-318 0.000857498)
(0.0353309 -0.160962 1.81314e-318 -0.0368489 3.04557e-318 0.00151799)
(0.0412131 -0.146584 1.64635e-318 -0.0435018 2.4852e-318 0.00228873)
(0.0238331 -0.141699 1.4456e-318 -0.0268685 1.97674e-318 0.00303537)
(0.0445587 -0.108961 1.19491e-318 -0.048481 1.53524e-318 0.00392231)
(0.0258073 -0.101131 8.72461e-319 -0.0308106 1.17916e-318 0.00500329)
(0.0987582 -0.0372171 5.02796e-319 -0.105485 9.29145e-319 0.00672654)
(0.0797772 -0.0203463 6.16446e-320 -0.0904182 7.55392e-319 0.0106409)
(0.296891 0.094817 -2.71479e-319 -0.318072 6.4145e-319 0.0211809)
(0.237112 0.159024 -4.7701e-319 -0.296477 3.47862e-319 0.0593651)
(0.598698 0.60282 -7.10649e-319 -0.852942 -4.6579e-319 0.254244)
)
;

boundaryField
{
    cavity
    {
        type            mySigma;
    }
    lid
    {
        type            fixedValue;
        value           uniform (0.1 -0.3 0 -0.1 0 0);
    }
    frontAndBack
    {
        type            empty;
    }
}


// ************************************************************************* //
