/*--------------------------------*- C++ -*----------------------------------*\
| =========                 |                                                 |
| \\      /  F ield         | foam-extend: Open Source CFD                    |
|  \\    /   O peration     | Version:  3.0                                   |
|   \\  /    A nd           | Web:         http://www.extend-project.de       |
|    \\/     M anipulation  |                                                 |
\*---------------------------------------------------------------------------*/
FoamFile
{
    version     2.0;
    format      ascii;
    class       volScalarField;
    location    "0.4";
    object      p;
}
// * * * * * * * * * * * * * * * * * * * * * * * * * * * * * * * * * * * * * //

dimensions      [0 0 0 0 0 0 0];

internalField   nonuniform List<scalar> 
400
(
0.995928
0.995821
0.995758
0.995815
0.996003
0.996276
0.99664
0.997045
0.997495
0.997964
0.998452
0.998945
0.999443
0.999917
1.00038
1.00076
1.00109
1.00126
1.00138
1.00129
0.995639
0.995601
0.995701
0.995844
0.996124
0.996436
0.996837
0.997252
0.997711
0.998176
0.998662
0.999148
0.999647
1.00012
1.0006
1.00099
1.00137
1.00157
1.00175
1.00165
0.991489
0.991376
0.991651
0.991978
0.992618
0.993278
0.99409
0.994904
0.995758
0.996632
0.997497
0.998412
0.999306
1.00023
1.00113
1.00194
1.00272
1.00316
1.00356
1.00338
0.987434
0.98725
0.987824
0.988399
0.989519
0.990581
0.9919
0.993151
0.994478
0.99579
0.997118
0.998493
0.99989
1.00132
1.00279
1.00409
1.00543
1.00617
1.00693
1.00663
0.976888
0.976629
0.978009
0.979225
0.981454
0.983456
0.985819
0.988032
0.990231
0.99247
0.994569
0.99692
0.999129
1.00166
1.00409
1.00653
1.00893
1.01046
1.01201
1.01158
0.968286
0.967923
0.970311
0.972248
0.975757
0.97872
0.98223
0.985368
0.988522
0.991634
0.994613
0.997901
1.0011
1.00475
1.00842
1.0121
1.01594
1.01842
1.02113
1.0205
0.946445
0.946021
0.950706
0.95431
0.960472
0.965527
0.971183
0.976232
0.980932
0.985767
0.989969
0.995096
0.999591
1.0055
1.01093
1.01722
1.02341
1.02801
1.03292
1.03216
0.932895
0.932401
0.939517
0.944767
0.953464
0.960288
0.967843
0.974341
0.980392
0.986483
0.99182
0.998338
1.00415
1.01193
1.01928
1.02803
1.03698
1.0439
1.05165
1.05075
0.897048
0.896664
0.908586
0.917206
0.930695
0.941186
0.952104
0.961609
0.969733
0.978362
0.985097
0.994367
1.00163
1.01308
1.0228
1.03629
1.04923
1.06068
1.07318
1.07248
0.880183
0.880214
0.896614
0.908345
0.925575
0.938643
0.95183
0.963054
0.972493
0.982458
0.990129
1.00095
1.00932
1.02318
1.0349
1.05218
1.06899
1.08497
1.10286
1.10278
0.834395
0.835546
0.859647
0.876737
0.900329
0.918289
0.935306
0.950153
0.961562
0.974433
0.983089
0.99713
1.00636
1.02483
1.0385
1.06242
1.08398
1.10757
1.13336
1.13524
0.817179
0.821157
0.851623
0.87355
0.900956
0.921763
0.940474
0.956766
0.968847
0.9827
0.991604
1.00689
1.0163
1.03705
1.05159
1.07983
1.1047
1.13521
1.16848
1.17445
0.771634
0.780866
0.820677
0.849214
0.882337
0.907813
0.929357
0.948832
0.962019
0.978392
0.9874
1.00557
1.01461
1.03971
1.05438
1.08945
1.11732
1.15776
1.20038
1.21474
0.757206
0.77626
0.821986
0.856153
0.891075
0.918573
0.940316
0.96043
0.973362
0.990099
0.998583
1.01736
1.02547
1.05194
1.0654
1.10368
1.13147
1.17956
1.22774
1.25607
0.720613
0.754808
0.808126
0.84829
0.885738
0.915983
0.938528
0.960485
0.973403
0.99173
0.99951
1.02023
1.02684
1.0563
1.0676
1.1108
1.13723
1.19534
1.24917
1.30103
0.715008
0.769205
0.823204
0.866976
0.90273
0.933144
0.954363
0.976046
0.988081
1.00626
1.01315
1.03391
1.03904
1.06873
1.07719
1.12123
1.14284
1.20593
1.25634
1.3381
0.69208
0.772415
0.829109
0.876131
0.910719
0.941408
0.961714
0.983829
0.995163
1.01399
1.0199
1.04159
1.04492
1.07601
1.08119
1.12751
1.1437
1.21461
1.26192
1.38834
0.711127
0.809076
0.859567
0.904776
0.935192
0.964123
0.982538
1.00386
1.01431
1.03281
1.03803
1.05953
1.06169
1.09234
1.09482
1.13981
1.14925
1.21938
1.2524
1.41439
0.717253
0.8344
0.883396
0.927097
0.954255
0.981636
0.998515
1.01942
1.02912
1.04768
1.05219
1.07392
1.07485
1.10573
1.10554
1.15058
1.15397
1.22725
1.24908
1.46379
0.803894
0.885269
0.926816
0.962276
0.985499
1.0103
1.02586
1.04602
1.05531
1.07371
1.07804
1.09969
1.10031
1.13067
1.12953
1.1722
1.17227
1.23763
1.24507
1.44001
)
;

boundaryField
{
    cavity
    {
        type            implicitExtrapolation;
    }
    lid
    {
        type            implicitExtrapolation;
    }
    frontAndBack
    {
        type            empty;
    }
}


// ************************************************************************* //
