/*--------------------------------*- C++ -*----------------------------------*\
| =========                 |                                                 |
| \\      /  F ield         | foam-extend: Open Source CFD                    |
|  \\    /   O peration     | Version:  3.0                                   |
|   \\  /    A nd           | Web:         http://www.extend-project.de       |
|    \\/     M anipulation  |                                                 |
\*---------------------------------------------------------------------------*/
FoamFile
{
    version     2.0;
    format      ascii;
    class       volVectorField;
    location    "0.4";
    object      s;
}
// * * * * * * * * * * * * * * * * * * * * * * * * * * * * * * * * * * * * * //

dimensions      [0 0 0 0 0 0 0];

internalField   nonuniform List<vector> 
400
(
(-0.000830879 -0.000414282 4.35567e-318)
(-0.000591598 -0.000327064 6.52137e-318)
(-0.000433172 -0.000145706 6.61278e-318)
(-0.000390284 -9.79565e-06 5.79658e-318)
(-0.000397335 3.672e-05 4.87835e-318)
(-0.000430379 1.37359e-05 4.12924e-318)
(-0.00046504 -5.95047e-05 3.53668e-318)
(-0.000491231 -0.000165061 3.12059e-318)
(-0.000503778 -0.000290634 2.77845e-318)
(-0.000500524 -0.00042759 2.5168e-318)
(-0.000479631 -0.000570045 2.24341e-318)
(-0.000438044 -0.000713633 1.97962e-318)
(-0.000370921 -0.000854426 1.64814e-318)
(-0.000271954 -0.000988529 1.29135e-318)
(-0.000133305 -0.00111144 8.68449e-319)
(5.06697e-05 -0.00121813 4.8292e-319)
(0.000287744 -0.00129907 1.76332e-319)
(0.000562897 -0.00133617 1.261e-319)
(0.000872377 -0.00124337 3.19804e-319)
(0.00105775 -0.000817041 2.23708e-319)
(-0.000730164 0.000173341 3.241e-318)
(-0.00052026 0.00075688 6.97127e-318)
(-0.00050522 0.00122021 8.27146e-318)
(-0.000569602 0.00150041 8.33944e-318)
(-0.000666621 0.00158699 7.64017e-318)
(-0.00076413 0.00151778 6.85229e-318)
(-0.000843954 0.0013323 5.96093e-318)
(-0.000897361 0.00106695 5.28166e-318)
(-0.000921209 0.00074946 4.58422e-318)
(-0.000914245 0.000400257 4.07254e-318)
(-0.000874751 3.43761e-05 3.46944e-318)
(-0.000798741 -0.000336234 2.97091e-318)
(-0.000680053 -0.000699401 2.31313e-318)
(-0.000512052 -0.00104098 1.72628e-318)
(-0.000290166 -0.0013418 1.00209e-318)
(-1.80226e-05 -0.0015764 4.42159e-319)
(0.000289215 -0.00170827 -9.34624e-320)
(0.000594957 -0.00168549 -2.74562e-319)
(0.000843476 -0.00140967 -3.65875e-319)
(0.000984317 -0.000727543 -1.86747e-319)
(-0.000645544 0.000839144 3.82204e-318)
(-0.000396676 0.00209102 7.54669e-318)
(-0.0004338 0.00290727 8.90503e-318)
(-0.000583038 0.00333057 8.97926e-318)
(-0.000765393 0.00342001 8.32416e-318)
(-0.000931531 0.00325301 7.4964e-318)
(-0.00106013 0.00290013 6.54868e-318)
(-0.00114429 0.00242119 5.73754e-318)
(-0.00118597 0.00186055 4.92113e-318)
(-0.00118829 0.00125 4.24259e-318)
(-0.0011527 0.000612265 3.50068e-318)
(-0.00107576 -3.44171e-05 2.81594e-318)
(-0.000949857 -0.000669886 1.99042e-318)
(-0.000765539 -0.00126795 1.16695e-318)
(-0.00051541 -0.00179021 1.88575e-319)
(-0.000202571 -0.00218332 -7.44646e-319)
(0.000155645 -0.00237603 -1.71305e-318)
(0.000515503 -0.00227747 -2.41076e-318)
(0.000817089 -0.00178416 -2.66411e-318)
(0.000986456 -0.000777258 -1.78533e-318)
(-0.00055064 0.00149516 2.4317e-318)
(-0.00023737 0.00357501 5.77935e-318)
(-0.000302915 0.00482823 7.45021e-318)
(-0.000515903 0.00541385 7.93324e-318)
(-0.000763649 0.0054767 7.63675e-318)
(-0.000978224 0.00516181 6.95991e-318)
(-0.00113611 0.00458659 6.12084e-318)
(-0.00123469 0.00384291 5.27677e-318)
(-0.00128428 0.00299457 4.45324e-318)
(-0.00129504 0.00208371 3.67556e-318)
(-0.00127323 0.00113849 2.89233e-318)
(-0.00121582 0.000179876 2.09384e-318)
(-0.00111174 -0.000766231 1.2247e-318)
(-0.000944608 -0.0016636 3.01751e-319)
(-0.00069795 -0.00245353 -6.74528e-319)
(-0.000367305 -0.00305254 -1.59955e-318)
(3.5187e-05 -0.0033485 -2.35099e-318)
(0.000458823 -0.00320451 -2.67437e-318)
(0.00083314 -0.00248463 -2.34413e-318)
(0.00102081 -0.0010562 -1.04342e-318)
(-0.000445642 0.00225354 3.13087e-318)
(-4.10898e-05 0.00528888 6.18727e-318)
(-0.000109908 0.00702419 7.46155e-318)
(-0.000346409 0.00775974 7.61551e-318)
(-0.00061193 0.00774821 7.15996e-318)
(-0.000823517 0.00722474 6.40324e-318)
(-0.000961922 0.00636745 5.52727e-318)
(-0.00103345 0.00530753 4.64451e-318)
(-0.00106166 0.00412964 3.78817e-318)
(-0.00106649 0.00288413 2.96489e-318)
(-0.00106091 0.00160023 2.14124e-318)
(-0.00104183 0.000296328 1.29064e-318)
(-0.000992604 -0.00100096 3.74467e-319)
(-0.000885446 -0.0022491 -6.11871e-319)
(-0.000688249 -0.00336949 -1.65926e-318)
(-0.000382052 -0.00424357 -2.69508e-318)
(3.36282e-05 -0.00470479 -3.59999e-318)
(0.000499658 -0.00454398 -4.14628e-318)
(0.000929558 -0.00355176 -3.90994e-318)
(0.0010918 -0.00151934 -2.27842e-318)
(-0.000318 0.00314394 2.20004e-318)
(0.000233148 0.00725269 5.08644e-318)
(0.000218966 0.00947746 6.48462e-318)
(3.8659e-05 0.0103142 6.82861e-318)
(-0.000155373 0.0101563 6.4857e-318)
(-0.000272436 0.00935428 5.77944e-318)
(-0.000307688 0.00815884 4.92071e-318)
(-0.000282986 0.00674444 4.03112e-318)
(-0.000240244 0.00521523 3.1604e-318)
(-0.000211953 0.00362438 2.31505e-318)
(-0.000219445 0.00199612 1.47201e-318)
(-0.000259571 0.000337848 6.00907e-319)
(-0.000309102 -0.00132987 -3.26108e-319)
(-0.000325967 -0.00296595 -1.31258e-318)
(-0.000257392 -0.00447464 -2.32714e-318)
(-6.32054e-05 -0.00570073 -3.27433e-318)
(0.000279523 -0.00640895 -3.98012e-318)
(0.000708353 -0.00628638 -4.16316e-318)
(0.00113032 -0.00499954 -3.49262e-318)
(0.00119585 -0.00218094 -1.5695e-318)
(-0.000169075 0.00416063 2.81634e-318)
(0.000628176 0.00940952 5.5208e-318)
(0.000775828 0.012072 6.608e-318)
(0.000787954 0.0129172 6.66666e-318)
(0.000806269 0.0125207 6.16511e-318)
(0.000919223 0.0113715 5.37407e-318)
(0.00110442 0.00980001 4.47033e-318)
(0.00131923 0.00802183 3.55294e-318)
(0.00149919 0.00615444 2.66352e-318)
(0.00159851 0.00424579 1.80329e-318)
(0.00158615 0.00230657 9.49481e-319)
(0.00146519 0.000324158 6.98312e-320)
(0.00126453 -0.00169645 -8.63034e-319)
(0.00104074 -0.00372557 -1.85663e-318)
(0.000869504 -0.00565869 -2.88417e-318)
(0.000816536 -0.00730738 -3.86602e-318)
(0.000939925 -0.00835913 -4.65128e-318)
(0.00118357 -0.00836524 -4.9961e-318)
(0.00147666 -0.00680889 -4.45469e-318)
(0.00132789 -0.00305234 -2.44082e-318)
(1.71692e-05 0.00532072 2.1699e-318)
(0.00120871 0.0117291 4.85518e-318)
(0.00168779 0.0147142 6.06292e-318)
(0.00209404 0.015434 6.25599e-318)
(0.00251941 0.0146938 5.80787e-318)
(0.00303626 0.01314 5.0286e-318)
(0.00358339 0.0111806 4.11948e-318)
(0.00409537 0.00906307 3.1926e-318)
(0.00448612 0.00690791 2.29495e-318)
(0.00469885 0.00474712 1.42988e-318)
(0.00469386 0.00256978 5.75379e-319)
(0.00447365 0.000333559 -3.00155e-319)
(0.00406968 -0.00198096 -1.22289e-318)
(0.00354883 -0.00436852 -2.19714e-318)
(0.0030059 -0.00672869 -3.18881e-318)
(0.00253123 -0.00885272 -4.10109e-318)
(0.00222849 -0.0103538 -4.75186e-318)
(0.00206191 -0.0106239 -4.8491e-318)
(0.00203205 -0.0089011 -4.02948e-318)
(0.00149434 -0.004129 -1.8386e-318)
(0.000225364 0.00660941 2.66188e-318)
(0.00203018 0.0141106 5.23262e-318)
(0.00307674 0.0172309 6.23304e-318)
(0.00413923 0.0176581 6.22479e-318)
(0.00520276 0.016473 5.66538e-318)
(0.00631367 0.0144844 4.82534e-318)
(0.00736511 0.0121643 3.88385e-318)
(0.00827556 0.0097739 2.94048e-318)
(0.00894382 0.00742167 2.03657e-318)
(0.00930972 0.00511311 1.17244e-318)
(0.00932782 0.00280819 3.24507e-319)
(0.00900017 0.000428761 -5.3946e-319)
(0.00835535 -0.00207705 -1.44692e-318)
(0.00746133 -0.00474025 -2.40602e-318)
(0.00642102 -0.00748251 -3.38757e-318)
(0.00533748 -0.0100971 -4.30887e-318)
(0.00436298 -0.0121427 -5.01325e-318)
(0.00349026 -0.0128489 -5.25081e-318)
(0.00286199 -0.0111529 -4.581e-318)
(0.00167671 -0.005402 -2.44051e-318)
(0.00047312 0.00800176 2.21734e-318)
(0.00315385 0.016418 4.83806e-318)
(0.00505695 0.0194248 5.94395e-318)
(0.00707308 0.0193868 6.03203e-318)
(0.0090136 0.0176873 5.49778e-318)
(0.0108941 0.0152801 4.65537e-318)
(0.0125663 0.0126718 3.70507e-318)
(0.0139478 0.0101123 2.75719e-318)
(0.0149376 0.00768254 1.85547e-318)
(0.0154838 0.00535291 1.00065e-318)
(0.0155418 0.00305134 1.68575e-319)
(0.0151136 0.000662218 -6.74202e-319)
(0.0142183 -0.00190162 -1.55506e-318)
(0.0129119 -0.00471575 -2.48221e-318)
(0.0112855 -0.00774227 -3.42537e-318)
(0.00943177 -0.010805 -4.29392e-318)
(0.00753784 -0.0134481 -4.91488e-318)
(0.00562266 -0.0147669 -4.99982e-318)
(0.00404651 -0.0133707 -4.17521e-318)
(0.00188056 -0.00683649 -1.94888e-318)
(0.000722038 0.00946365 2.59931e-318)
(0.00461518 0.01848 5.14508e-318)
(0.00770028 0.0210882 6.10574e-318)
(0.0109614 0.0204351 6.04393e-318)
(0.0139742 0.0182064 5.42689e-318)
(0.0167383 0.0154511 4.53991e-318)
(0.019084 0.0126698 3.57017e-318)
(0.0209552 0.0100731 2.61869e-318)
(0.0222712 0.00770043 1.7253e-318)
(0.023004 0.00548313 8.8794e-319)
(0.0231171 0.00331877 8.01671e-320)
(0.0226141 0.00105933 -7.31573e-319)
(0.0214989 -0.00141498 -1.57769e-318)
(0.0198001 -0.00422542 -2.46796e-318)
(0.0175741 -0.00738787 -3.37915e-318)
(0.0148668 -0.010787 -4.23475e-318)
(0.0118657 -0.0140026 -4.88495e-318)
(0.00858778 -0.0160684 -5.08905e-318)
(0.00566429 -0.0152786 -4.42275e-318)
(0.00208383 -0.00835625 -2.33994e-318)
(0.00101601 0.0108549 2.30816e-318)
(0.00643474 0.0199648 4.92376e-318)
(0.0110061 0.0219084 5.94784e-318)
(0.0157246 0.0205753 5.93223e-318)
(0.0199101 0.0178968 5.31086e-318)
(0.0235745 0.014934 4.41239e-318)
(0.026563 0.0121349 3.43829e-318)
(0.0288764 0.00964783 2.49478e-318)
(0.0304783 0.00746343 1.61975e-318)
(0.0313782 0.00547788 8.10144e-319)
(0.0315565 0.00356602 3.83642e-320)
(0.0310206 0.00155862 -7.31499e-319)
(0.0297556 -0.000687272 -1.52993e-318)
(0.0277515 -0.00332988 -2.36865e-318)
(0.0250061 -0.00644234 -3.22556e-318)
(0.0214815 -0.00998883 -4.02412e-318)
(0.0173082 -0.0136367 -4.61139e-318)
(0.0124553 -0.0164672 -4.72375e-318)
(0.00779982 -0.0165344 -3.99733e-318)
(0.00235582 -0.00982974 -1.9263e-318)
(0.00135567 0.0119803 2.61071e-318)
(0.00860131 0.020528 5.16081e-318)
(0.0148869 0.0216512 6.04799e-318)
(0.0211247 0.0196961 5.89363e-318)
(0.0264319 0.0167468 5.19843e-318)
(0.0308789 0.0137696 4.26807e-318)
(0.0343755 0.0111252 3.29147e-318)
(0.0370107 0.00888639 2.36482e-318)
(0.0388098 0.00699889 1.52042e-318)
(0.039831 0.00533381 7.50372e-319)
(0.0400762 0.00375518 2.54641e-320)
(0.0395593 0.00208763 -6.91045e-319)
(0.0382482 0.000179372 -1.43049e-318)
(0.0360886 -0.00214845 -2.20684e-318)
(0.0330066 -0.00501451 -3.00368e-318)
(0.0288488 -0.00846571 -3.75759e-318)
(0.0236206 -0.0122824 -4.33947e-318)
(0.0171831 -0.0157247 -4.53773e-318)
(0.010509 -0.0167107 -3.96951e-318)
(0.00277236 -0.0109775 -2.12763e-318)
(0.00192838 0.0125252 2.44059e-318)
(0.0110432 0.0197708 5.02042e-318)
(0.0190963 0.020101 5.88889e-318)
(0.0266783 0.0177399 5.71846e-318)
(0.032881 0.0147925 4.99684e-318)
(0.0378611 0.0120282 4.06131e-318)
(0.0416455 0.00970586 3.1017e-318)
(0.0444266 0.00782839 2.20959e-318)
(0.0463014 0.00630993 1.41063e-318)
(0.0473779 0.00501291 6.93846e-319)
(0.0476816 0.00380446 2.85372e-320)
(0.0472352 0.00251908 -6.22962e-319)
(0.0459942 0.00101191 -1.29144e-318)
(0.0438652 -0.00089474 -1.99114e-318)
(0.0407024 -0.00334198 -2.70823e-318)
(0.0362298 -0.00643875 -3.38431e-318)
(0.0302627 -0.0100695 -3.8937e-318)
(0.0225283 -0.0137794 -4.01987e-318)
(0.0137712 -0.0154676 -3.44784e-318)
(0.00361786 -0.0114583 -1.72631e-318)
(0.00277779 0.0119951 2.68659e-318)
(0.0135501 0.0174049 5.12937e-318)
(0.0231818 0.0172437 5.80972e-318)
(0.0316841 0.0148342 5.49061e-318)
(0.0383848 0.0122056 4.71166e-318)
(0.0435361 0.009869 3.77633e-318)
(0.047323 0.00799962 2.85253e-318)
(0.0500404 0.00655138 2.01459e-318)
(0.0518509 0.00542881 1.27942e-318)
(0.0529051 0.00450312 6.30739e-319)
(0.0532485 0.00365745 3.68227e-320)
(0.0529124 0.00274936 -5.38369e-319)
(0.0518502 0.00165471 -1.12508e-318)
(0.0499401 0.000217464 -1.73767e-318)
(0.0469845 -0.00169579 -2.36571e-318)
(0.042601 -0.00422006 -2.96172e-318)
(0.0363797 -0.00729211 -3.42266e-318)
(0.0279363 -0.0107784 -3.58272e-318)
(0.0173471 -0.0126048 -3.13966e-318)
(0.00505298 -0.0107085 -1.71742e-318)
(0.00413378 0.0102734 2.58412e-318)
(0.0157397 0.0136577 4.89301e-318)
(0.0264504 0.0134161 5.44064e-318)
(0.0351932 0.0113466 5.06379e-318)
(0.0418676 0.00930637 4.27741e-318)
(0.04677 0.00754884 3.38204e-318)
(0.0502594 0.00619919 2.52691e-318)
(0.0527057 0.00519254 1.76992e-318)
(0.0543187 0.00444646 1.11893e-318)
(0.0552736 0.00385558 5.54188e-319)
(0.0556293 0.00332805 4.41003e-320)
(0.0554227 0.00275209 -4.44797e-319)
(0.0546165 0.00203298 -9.40044e-319)
(0.0530761 0.00104999 -1.4552e-318)
(0.0505863 -0.000295918 -1.98165e-318)
(0.0467013 -0.00212637 -2.4762e-318)
(0.0407981 -0.00436508 -2.84396e-318)
(0.0324914 -0.00714361 -2.92148e-318)
(0.0207173 -0.00843048 -2.47732e-318)
(0.00739077 -0.00852491 -1.24163e-318)
(0.00543324 0.00681245 2.70477e-318)
(0.0168855 0.00886345 4.65512e-318)
(0.0279011 0.00904569 4.95074e-318)
(0.036109 0.00767677 4.45733e-318)
(0.0421864 0.00638439 3.6841e-318)
(0.0464296 0.00526222 2.86727e-318)
(0.0493498 0.00442343 2.11725e-318)
(0.051351 0.00381616 1.4707e-318)
(0.0526583 0.00338838 9.2576e-319)
(0.0534482 0.0030663 4.61279e-319)
(0.0537837 0.00278705 4.63977e-320)
(0.0536999 0.0024705 -3.47101e-319)
(0.053182 0.00205422 -7.4346e-319)
(0.0520935 0.00145591 -1.15447e-318)
(0.0502491 0.000626391 -1.57372e-318)
(0.0471855 -0.000514117 -1.96637e-318)
(0.0421436 -0.00182821 -2.25634e-318)
(0.0348505 -0.00354258 -2.32451e-318)
(0.0228599 -0.00367262 -1.95626e-318)
(0.010026 -0.00454831 -1.00749e-318)
(0.0064241 0.00323802 2.45311e-318)
(0.0162056 0.00446796 3.96423e-318)
(0.0263305 0.00509845 4.07012e-318)
(0.0331251 0.00450676 3.57492e-318)
(0.0380216 0.00393101 2.89593e-318)
(0.0412544 0.00338274 2.21929e-318)
(0.0434032 0.00297375 1.62024e-318)
(0.0448446 0.00268049 1.11621e-318)
(0.0457791 0.00248836 6.99671e-319)
(0.0463581 0.00235451 3.50125e-319)
(0.0466393 0.00224448 4.16349e-320)
(0.0466464 0.00210513 -2.48767e-319)
(0.0463955 0.00190514 -5.39826e-319)
(0.0457558 0.00159275 -8.41053e-319)
(0.0446177 0.00117247 -1.14703e-318)
(0.0425505 0.000606221 -1.43033e-318)
(0.0388078 9.6123e-05 -1.62554e-318)
(0.0333317 -0.000555134 -1.62177e-318)
(0.0225385 0.000440387 -1.25655e-318)
(0.0125356 -0.000316326 -4.65874e-319)
(0.00545011 -0.000867283 1.99498e-318)
(0.0130068 0.00105483 2.92462e-318)
(0.021032 0.00197008 2.85673e-318)
(0.0257423 0.00208362 2.4138e-318)
(0.0289874 0.00201807 1.90904e-318)
(0.0309852 0.00187575 1.43875e-318)
(0.0322568 0.00175233 1.0382e-318)
(0.0330958 0.00165689 7.0975e-319)
(0.0336364 0.00160432 4.43068e-319)
(0.0339819 0.00157301 2.2233e-319)
(0.034177 0.00155323 2.93722e-320)
(0.0342233 0.00150849 -1.50655e-319)
(0.0341715 0.00143529 -3.30881e-319)
(0.0338947 0.00129489 -5.17386e-319)
(0.0333994 0.00113171 -7.07724e-319)
(0.0323074 0.000930289 -8.83918e-319)
(0.0300905 0.000887621 -1.00559e-318)
(0.0267685 0.00104046 -1.00697e-318)
(0.0184783 0.00251781 -7.52482e-319)
(0.0121335 0.00397069 -2.05309e-319)
(0.00146118 -0.00132617 1.33025e-318)
(0.00542346 0.000113811 1.47025e-318)
(0.00899324 0.000642975 1.26857e-318)
(0.0107673 0.000922305 9.98902e-319)
(0.0119569 0.00105084 7.55308e-319)
(0.0126439 0.00108835 5.52375e-319)
(0.013089 0.00110359 3.90337e-319)
(0.0133848 0.00110048 2.63129e-319)
(0.013579 0.00110819 1.62928e-319)
(0.013714 0.00111383 8.17333e-320)
(0.013784 0.00112638 1.21095e-320)
(0.0138277 0.00112199 -5.25439e-320)
(0.0138124 0.0011199 -1.17286e-319)
(0.0137784 0.00108034 -1.84479e-319)
(0.0136297 0.00107528 -2.52986e-319)
(0.0133892 0.00104427 -3.15426e-319)
(0.01261 0.00118247 -3.52951e-319)
(0.0117787 0.00142325 -3.26721e-319)
(0.00802897 0.00244168 -1.73605e-319)
(0.00774209 0.00339683 1.39144e-319)
)
;

boundaryField
{
    cavity
    {
        type            myHeatFlux;
        ThetaWall       uniform 0;
        value           nonuniform List<vector> 
60
(
(0.001 0 0)
(0.001 0 0)
(0.001 0 0)
(0.001 0 0)
(0.001 0 0)
(0.001 0 0)
(0.001 0 0)
(0.001 0 0)
(0.001 0 0)
(0.001 0 0)
(0.001 0 0)
(0.001 0 0)
(0.001 0 0)
(0.001 0 0)
(0.001 0 0)
(0.001 0 0)
(0.001 0 0)
(0.001 0 0)
(0.001 0 0)
(0.001 0 0)
(0 -0.001 0)
(0 -0.001 0)
(0 -0.001 0)
(0 -0.001 0)
(0 -0.001 0)
(0 -0.001 0)
(0 -0.001 0)
(0 -0.001 0)
(0 -0.001 0)
(0 -0.001 0)
(0 -0.001 0)
(0 -0.001 0)
(0 -0.001 0)
(0 -0.001 0)
(0 -0.001 0)
(0 -0.001 0)
(0 -0.001 0)
(0 -0.001 0)
(0 -0.001 0)
(0 -0.001 0)
(-0.001 0 0)
(-0.001 0 0)
(-0.001 0 0)
(-0.001 0 0)
(-0.001 0 0)
(-0.001 0 0)
(-0.001 0 0)
(-0.001 0 0)
(-0.001 0 0)
(-0.001 0 0)
(-0.001 0 0)
(-0.001 0 0)
(-0.001 0 0)
(-0.001 0 0)
(-0.001 0 0)
(-0.001 0 0)
(-0.001 0 0)
(-0.001 0 0)
(-0.001 0 0)
(-0.001 0 0)
)
;
    }
    lid
    {
        type            myHeatFlux;
        ThetaWall       uniform 0;
        value           nonuniform List<vector> 
20
(
(0.000135815 0.0009 0)
(0.000135815 0.0009 0)
(0.000135815 0.0009 0)
(0.000135815 0.0009 0)
(0.000135815 0.0009 0)
(0.000135815 0.0009 0)
(0.000135815 0.0009 0)
(0.000135815 0.0009 0)
(0.000135815 0.0009 0)
(0.000135815 0.0009 0)
(0.000135815 0.0009 0)
(0.000135815 0.0009 0)
(0.000135815 0.0009 0)
(0.000135815 0.0009 0)
(0.000135815 0.0009 0)
(0.000135815 0.0009 0)
(0.000135815 0.0009 0)
(0.000135815 0.0009 0)
(0.000135815 0.0009 0)
(0.000135815 0.0009 0)
)
;
    }
    frontAndBack
    {
        type            empty;
    }
}


// ************************************************************************* //
