/*--------------------------------*- C++ -*----------------------------------*\
| =========                 |                                                 |
| \\      /  F ield         | foam-extend: Open Source CFD                    |
|  \\    /   O peration     | Version:  3.0                                   |
|   \\  /    A nd           | Web:         http://www.extend-project.de       |
|    \\/     M anipulation  |                                                 |
\*---------------------------------------------------------------------------*/
FoamFile
{
    version     2.0;
    format      ascii;
    class       volSymmTensorField;
    location    "0.4";
    object      sigma;
}
// * * * * * * * * * * * * * * * * * * * * * * * * * * * * * * * * * * * * * //

dimensions      [0 0 0 0 0 0 0];

internalField   nonuniform List<symmTensor> 
400
(
(-5.56148e-06 -5.16351e-05 4.15902e-317 -0.000538669 4.71283e-317 0.00054423)
(6.46639e-05 -2.73936e-05 3.60166e-317 -0.00098283 3.8774e-317 0.000918166)
(0.000105868 2.98715e-05 2.67292e-317 -0.00117909 2.73175e-317 0.00107323)
(0.000117853 7.75623e-05 1.97054e-317 -0.00123373 2.21558e-317 0.00111588)
(0.000104914 0.000111574 1.53975e-317 -0.00119453 1.62679e-317 0.00108962)
(8.31645e-05 0.0001302 1.23462e-317 -0.00110414 1.58116e-317 0.00102098)
(6.0816e-05 0.000138973 1.10278e-317 -0.000982677 1.29487e-317 0.000921861)
(4.41194e-05 0.000141213 9.8895e-318 -0.000847729 1.42145e-317 0.00080361)
(3.44965e-05 0.00014198 9.73791e-318 -0.000706019 1.22593e-317 0.000671522)
(2.99243e-05 0.000143804 9.3175e-318 -0.000561134 1.39898e-317 0.00053121)
(2.73111e-05 0.000148566 9.65838e-318 -0.00041347 1.22886e-317 0.000386159)
(2.13007e-05 0.000156173 9.66213e-318 -0.000261272 1.41974e-317 0.000239971)
(8.84682e-06 0.000164466 1.04771e-317 -0.000105172 1.26829e-317 9.63257e-05)
(-1.38254e-05 0.000170715 1.11053e-317 5.34203e-05 1.48455e-317 -3.95949e-05)
(-4.48964e-05 0.000169208 1.27755e-317 0.000207762 1.37018e-317 -0.000162866)
(-8.11694e-05 0.000156692 1.45212e-317 0.000344757 1.63973e-317 -0.000263587)
(-0.000112708 0.000127239 1.74714e-317 0.000448364 1.5985e-317 -0.000335656)
(-0.000125712 8.307e-05 2.03758e-317 0.000487375 1.96741e-317 -0.000361663)
(-0.000107349 2.76619e-05 2.38893e-317 0.00043717 2.07787e-317 -0.000329821)
(-4.26667e-05 -1.26216e-05 2.5904e-317 0.000241275 2.73204e-317 -0.000198608)
(4.71927e-05 -6.52079e-05 1.68064e-317 -0.00100303 2.08569e-317 0.000955842)
(0.000130499 5.14201e-06 1.67056e-317 -0.00188767 2.15626e-317 0.00175717)
(0.000170505 0.000131727 1.54373e-317 -0.00229886 1.74399e-317 0.00212836)
(0.000168427 0.000247521 1.30257e-317 -0.00241461 1.5486e-317 0.00224618)
(0.000137329 0.00033235 1.06538e-317 -0.00233686 1.2156e-317 0.00219953)
(9.80336e-05 0.00037805 8.66936e-318 -0.00215237 1.18947e-317 0.00205434)
(6.47856e-05 0.000396824 7.27306e-318 -0.00190703 1.00208e-317 0.00184224)
(4.57593e-05 0.000397406 6.31666e-318 -0.00163663 1.07574e-317 0.00159087)
(4.26922e-05 0.00039551 5.79908e-318 -0.00135556 9.49235e-318 0.00131287)
(5.02628e-05 0.000398565 5.54714e-318 -0.00107006 1.05825e-317 0.0010198)
(6.15997e-05 0.000413681 5.60861e-318 -0.000779538 9.53075e-318 0.000717938)
(6.56318e-05 0.000439575 5.87961e-318 -0.000479114 1.07763e-317 0.000413482)
(5.52587e-05 0.000470972 6.47077e-318 -0.000168335 9.88205e-318 0.000113077)
(2.23279e-05 0.000497705 7.32011e-318 0.000151072 1.13368e-317 -0.0001734)
(-3.10636e-05 0.000503231 8.53962e-318 0.000465328 1.07586e-317 -0.000434265)
(-0.000100021 0.000476344 9.99971e-318 0.00074781 1.2712e-317 -0.000647789)
(-0.000165962 0.000399957 1.1636e-317 0.000960554 1.29129e-317 -0.000794592)
(-0.000204561 0.000281706 1.30765e-317 0.00103798 1.59958e-317 -0.000833416)
(-0.000188647 0.000131503 1.37573e-317 0.000918986 1.73036e-317 -0.000730339)
(-9.05246e-05 5.76793e-06 1.41864e-317 0.000497916 1.94943e-317 -0.000407391)
(9.76095e-05 -9.71088e-05 3.00787e-317 -0.00178105 2.61355e-317 0.00168344)
(0.000246143 5.91226e-05 2.29455e-317 -0.00329328 1.81147e-317 0.00304714)
(0.000285013 0.000298664 1.68946e-317 -0.00395161 1.36004e-317 0.0036666)
(0.00024536 0.000505536 1.26219e-317 -0.00409333 1.08656e-317 0.00384797)
(0.000162932 0.000644173 9.4751e-318 -0.00390263 8.99955e-318 0.0037397)
(8.03672e-05 0.00070297 7.21858e-318 -0.00354464 7.96755e-318 0.00346428)
(2.43932e-05 0.000710337 5.65672e-318 -0.00310173 7.25759e-318 0.00307734)
(5.61102e-06 0.000686451 4.62601e-318 -0.00263504 6.99064e-318 0.00262943)
(2.45136e-05 0.000664512 4.01922e-318 -0.00216738 6.76636e-318 0.00214287)
(6.7461e-05 0.000660556 3.74887e-318 -0.00170163 6.80211e-318 0.00163417)
(0.000119549 0.000689042 3.78188e-318 -0.00123413 6.77746e-318 0.00111458)
(0.000157659 0.00074817 4.10543e-318 -0.000745564 6.97194e-318 0.000587905)
(0.000166625 0.000826925 4.75816e-318 -0.000234295 7.11651e-318 6.76706e-05)
(0.000126744 0.0009048 5.79569e-318 0.000309281 7.54075e-318 -0.000436025)
(4.00191e-05 0.000946135 7.33083e-318 0.000857584 8.03786e-318 -0.000897603)
(-9.09426e-05 0.000925354 9.51063e-318 0.00137313 9.0271e-318 -0.00128219)
(-0.000229458 0.000801886 1.25881e-317 0.00177617 1.04414e-317 -0.00154672)
(-0.000330027 0.000585519 1.68849e-317 0.00194385 1.2957e-317 -0.00161383)
(-0.000331395 0.00029015 2.31541e-317 0.00174449 1.71092e-317 -0.0014131)
(-0.000165447 2.5267e-05 3.04844e-317 0.000961928 2.55451e-317 -0.000796481)
(0.000184904 -0.000107576 1.51675e-317 -0.00278359 1.60239e-317 0.00259869)
(0.000406623 0.000217447 1.36226e-317 -0.00507275 1.32337e-317 0.00466613)
(0.000411996 0.000631359 1.20178e-317 -0.00599835 1.02571e-317 0.00558636)
(0.000288901 0.000937879 9.86251e-318 -0.00611594 8.09915e-318 0.00582704)
(0.000114943 0.00110552 7.78936e-318 -0.00572841 6.56866e-318 0.00561347)
(-3.45431e-05 0.00112277 6.02866e-318 -0.00511367 5.66619e-318 0.00514821)
(-0.00011478 0.00105906 4.67458e-318 -0.0044018 5.05724e-318 0.00451658)
(-0.00011566 0.000952438 3.72159e-318 -0.00368648 4.7832e-318 0.00380214)
(-4.08253e-05 0.000868573 3.13055e-318 -0.00299495 4.58619e-318 0.00303578)
(8.07172e-05 0.000833523 2.86044e-318 -0.00232322 4.58093e-318 0.00224251)
(0.00022105 0.000876569 2.88756e-318 -0.00165556 4.57167e-318 0.00143451)
(0.00033735 0.000991595 3.2099e-318 -0.000952109 4.72327e-318 0.000614759)
(0.000400599 0.00116406 3.85134e-318 -0.000200345 4.88561e-318 -0.000200254)
(0.000370945 0.00135415 4.85049e-318 0.000625685 5.27005e-318 -0.000996631)
(0.000245727 0.00149863 6.25145e-318 0.00148975 5.78533e-318 -0.00173548)
(2.01264e-05 0.00154478 8.0682e-318 0.00233803 6.72335e-318 -0.00235816)
(-0.000244934 0.00140273 1.02321e-317 0.00303612 8.1022e-318 -0.00279119)
(-0.000469516 0.0010811 1.25391e-317 0.00336591 1.0333e-317 -0.00289639)
(-0.00053215 0.000571306 1.43635e-317 0.00307742 1.33921e-317 -0.00254527)
(-0.000284443 7.89205e-05 1.59265e-317 0.00175097 1.67294e-317 -0.00146653)
(0.00035386 -9.38067e-05 2.86119e-317 -0.00452972 2.30893e-317 0.00417586)
(0.000661183 0.00048669 2.12307e-317 -0.00788719 1.3798e-317 0.00722601)
(0.000555347 0.00112406 1.51182e-317 -0.00906539 9.163e-318 0.00851004)
(0.000253492 0.00151343 1.09767e-317 -0.00903216 6.57234e-318 0.00877867)
(-8.81281e-05 0.00164802 7.99421e-318 -0.00827863 5.03025e-318 0.00836676)
(-0.000345527 0.00153202 5.86089e-318 -0.00725162 4.1144e-318 0.00759715)
(-0.000447233 0.00130285 4.35492e-318 -0.00614804 3.56315e-318 0.00659527)
(-0.000394404 0.00103038 3.33766e-318 -0.00509347 3.26002e-318 0.00548788)
(-0.000200596 0.000825203 2.71596e-318 -0.00412113 3.0959e-318 0.00432173)
(7.78272e-05 0.000728913 2.4306e-318 -0.00320032 3.04595e-318 0.00312249)
(0.000391262 0.000788813 2.45327e-318 -0.00230381 3.06315e-318 0.00191255)
(0.00066665 0.000995883 2.78436e-318 -0.00134299 3.17022e-318 0.000676335)
(0.000852893 0.00133023 3.45573e-318 -0.000300936 3.36507e-318 -0.000551957)
(0.000872204 0.00172867 4.53062e-318 0.000901397 3.71737e-318 -0.0017736)
(0.000714563 0.00208752 6.10907e-318 0.00219951 4.28869e-318 -0.00291407)
(0.000343306 0.00231039 8.33963e-318 0.0035553 5.2432e-318 -0.0038986)
(-0.000136496 0.00222437 1.1453e-317 0.00473038 6.79787e-318 -0.00459388)
(-0.000608478 0.00181623 1.57518e-317 0.00538879 9.40989e-318 -0.00478031)
(-0.000830199 0.0010224 2.1966e-317 0.00506525 1.3996e-317 -0.00423505)
(-0.000493766 0.000183465 2.92072e-317 0.00299607 2.30995e-317 -0.00250231)
(0.00058078 -1.43379e-06 1.65487e-317 -0.0065229 1.62689e-317 0.00594212)
(0.000936484 0.00098924 1.43451e-317 -0.011004 1.17444e-317 0.0100675)
(0.000595759 0.00191922 1.21832e-317 -0.012335 8.06728e-318 0.0117392)
(-9.67081e-06 0.00232363 9.65554e-318 -0.0119949 5.62597e-318 0.0120045)
(-0.000596233 0.00229542 7.37858e-318 -0.0107265 4.09151e-318 0.0113227)
(-0.000983353 0.00186808 5.51458e-318 -0.00918169 3.15832e-318 0.010165)
(-0.00107257 0.00130738 4.10367e-318 -0.00762958 2.60057e-318 0.00870215)
(-0.000894993 0.000723824 3.11449e-318 -0.00622178 2.28326e-318 0.00711678)
(-0.000484058 0.000297767 2.4961e-318 -0.00498264 2.11366e-318 0.0054667)
(6.25429e-05 8.25274e-05 2.20643e-318 -0.00384607 2.04974e-318 0.00378353)
(0.000667386 0.000156918 2.2225e-318 -0.00275793 2.0619e-318 0.00209055)
(0.00121785 0.000498377 2.54624e-318 -0.00157454 2.15667e-318 0.000356689)
(0.00163265 0.00109654 3.20302e-318 -0.000257215 2.34916e-318 -0.00137543)
(0.00177953 0.0018477 4.23888e-318 0.00133755 2.69261e-318 -0.00311708)
(0.00162601 0.00260701 5.70663e-318 0.00313602 3.26601e-318 -0.00476203)
(0.00107674 0.00320706 7.63935e-318 0.00512798 4.21438e-318 -0.00620472)
(0.000279897 0.00333371 9.99081e-318 0.00696331 5.75628e-318 -0.0072432)
(-0.000608884 0.00293236 1.25783e-317 0.0081474 8.23218e-318 -0.00753852)
(-0.0011572 0.00177226 1.47596e-317 0.00789615 1.19958e-317 -0.00673895)
(-0.000781672 0.000420067 1.68597e-317 0.00489542 1.67662e-317 -0.00411375)
(0.00097238 0.000202607 2.76223e-317 -0.00961323 2.19334e-317 0.00864085)
(0.00129744 0.00167301 2.06027e-317 -0.0152836 1.25994e-317 0.0139862)
(0.000476027 0.00283572 1.46807e-317 -0.0164898 7.81338e-318 0.0160138)
(-0.000656523 0.00305939 1.06451e-317 -0.0155314 5.09863e-318 0.0161879)
(-0.00160841 0.00262418 7.7059e-318 -0.0134961 3.49811e-318 0.0151045)
(-0.00215311 0.00163971 5.58077e-318 -0.0112687 2.54499e-318 0.0134218)
(-0.00216303 0.000539564 4.0653e-318 -0.00919881 1.9805e-318 0.0113618)
(-0.00174484 -0.000510672 3.03179e-318 -0.00742241 1.65556e-318 0.00916725)
(-0.000966179 -0.00126041 2.39269e-318 -0.00595431 1.48e-318 0.00692049)
(1.5766e-05 -0.00164602 2.091e-318 -0.00465289 1.40659e-318 0.00463713)
(0.00108455 -0.0015608 2.1002e-318 -0.00344849 1.41274e-318 0.00236394)
(0.00208499 -0.00103774 2.42234e-318 -0.00210037 1.49984e-318 1.53791e-05)
(0.00289565 -7.1075e-05 3.08752e-318 -0.000571742 1.68933e-318 -0.00232391)
(0.00330321 0.00120074 4.15522e-318 0.00141691 2.03347e-318 -0.00472013)
(0.00324588 0.00259679 5.71626e-318 0.00374583 2.62194e-318 -0.00699171)
(0.00248984 0.0038605 7.90171e-318 0.00654375 3.60726e-318 -0.00903359)
(0.00125445 0.00449128 1.09148e-317 0.00927428 5.2448e-318 -0.0105287)
(-0.0003357 0.00432902 1.50268e-317 0.0113446 7.98224e-318 -0.0110089)
(-0.00151094 0.00284652 2.09759e-317 0.0114636 1.27205e-317 -0.00995268)
(-0.00123217 0.00085838 2.78958e-317 0.00752735 2.1788e-317 -0.00629518)
(0.00138494 0.000656657 1.77124e-317 -0.0126506 1.68846e-317 0.0112656)
(0.00145957 0.00270777 1.50988e-317 -0.0190778 1.14751e-317 0.0176182)
(-0.000118667 0.00399473 1.26016e-317 -0.0197831 7.3896e-318 0.0199018)
(-0.001973 0.00368722 9.83248e-318 -0.0179437 4.76103e-318 0.0199167)
(-0.00332929 0.00246875 7.40727e-318 -0.0150524 3.1444e-318 0.0183817)
(-0.00396511 0.000553616 5.457e-318 -0.0121695 2.17057e-318 0.0161346)
(-0.00375372 -0.00137684 3.99406e-318 -0.00969369 1.59285e-318 0.0134474)
(-0.00292621 -0.00310986 2.97025e-318 -0.00769758 1.25796e-318 0.0106238)
(-0.00160253 -0.0043198 2.32773e-318 -0.00615992 1.07479e-318 0.00776245)
(-9.77647e-06 -0.00495521 2.01956e-318 -0.00485947 9.93018e-319 0.00486925)
(0.0016998 -0.00487165 2.02126e-318 -0.00370047 9.91382e-319 0.00200066)
(0.00333495 -0.00413535 2.33487e-318 -0.00236014 1.06941e-318 -0.000974813)
(0.00473407 -0.00267891 2.9867e-318 -0.000788685 1.25068e-318 -0.00394539)
(0.0055946 -0.000698197 4.02641e-318 0.00142937 1.58657e-318 -0.00702397)
(0.0057969 0.00164729 5.51529e-318 0.00416733 2.16869e-318 -0.00996423)
(0.00490578 0.00397952 7.50018e-318 0.00774659 3.14932e-318 -0.0126524)
(0.00317142 0.00556649 9.96234e-318 0.0114855 4.77409e-318 -0.0146569)
(0.000595904 0.00609045 1.27519e-317 0.0147649 7.42426e-318 -0.0153608)
(-0.00159853 0.00442567 1.5239e-317 0.0156545 1.1575e-317 -0.014056)
(-0.00174452 0.00172949 1.77937e-317 0.0110245 1.72261e-317 -0.00927996)
(0.00202544 0.00141653 2.66771e-317 -0.0168418 2.11266e-317 0.0148163)
(0.0014924 0.00378023 2.00585e-317 -0.0233869 1.20666e-317 0.0218945)
(-0.00130734 0.00470348 1.44048e-317 -0.0229422 7.2853e-318 0.0242496)
(-0.00418951 0.00327561 1.05169e-317 -0.0198083 4.52522e-318 0.0239978)
(-0.0059851 0.000756313 7.6365e-318 -0.0159417 2.88995e-318 0.0219268)
(-0.00661508 -0.00245857 5.52138e-318 -0.0124348 1.91589e-318 0.0190499)
(-0.00597281 -0.00546107 3.99557e-318 -0.0097069 1.3381e-318 0.0156797)
(-0.00451162 -0.00800529 2.94449e-318 -0.00765957 1.0009e-318 0.0121712)
(-0.00241992 -0.00974397 2.28674e-318 -0.00624094 8.13321e-319 0.00866087)
(1.50617e-06 -0.0106577 1.96829e-318 -0.0051124 7.24458e-319 0.0051109)
(0.0025568 -0.0105882 1.96112e-318 -0.00418497 7.14098e-319 0.00162818)
(0.00505351 -0.00962881 2.26733e-318 -0.00303383 7.81439e-319 -0.00201968)
(0.00728334 -0.00763223 2.91642e-318 -0.00164478 9.5117e-319 -0.00563856)
(0.00885164 -0.00482118 3.96669e-318 0.000600666 1.27739e-318 -0.00945231)
(0.00957773 -0.001266 5.5053e-318 0.00351303 1.85598e-318 -0.0130908)
(0.00867736 0.00254982 7.65096e-318 0.00780693 2.84838e-318 -0.0164843)
(0.00645916 0.00571112 1.05847e-317 0.0125917 4.52289e-318 -0.0190509)
(0.0024978 0.00763285 1.45457e-317 0.0175541 7.32693e-318 -0.0200519)
(-0.00128275 0.00635539 2.02583e-317 0.0198939 1.21058e-317 -0.0186111)
(-0.00245105 0.00321729 2.68541e-317 0.0153605 2.09378e-317 -0.0129094)
(0.00248343 0.00277505 1.864e-317 -0.0204355 1.73846e-317 0.0179521)
(0.000713196 0.00499762 1.56748e-317 -0.0258784 1.13533e-317 0.0251652)
(-0.0036084 0.00485661 1.29211e-317 -0.0237554 7.04766e-318 0.0273638)
(-0.00756452 0.00147049 9.98938e-318 -0.0192116 4.35183e-318 0.0267762)
(-0.00957122 -0.00298792 7.46843e-318 -0.0146382 2.7222e-318 0.0242094)
(-0.00989229 -0.00793879 5.46072e-318 -0.0108789 1.75018e-318 0.0207712)
(-0.00852373 -0.0122659 3.96055e-318 -0.00828722 1.17433e-318 0.016811)
(-0.00618903 -0.0157442 2.90964e-318 -0.00652459 8.35979e-319 0.0127136)
(-0.0031551 -0.0180702 2.24488e-318 -0.00549163 6.44024e-319 0.00864673)
(0.000226404 -0.0192972 1.91736e-318 -0.00476413 5.474e-319 0.00453773)
(0.00374053 -0.0192605 1.89991e-318 -0.00426881 5.2536e-319 0.000528279)
(0.0072349 -0.0181157 2.19313e-318 -0.003541 5.78215e-319 -0.0036939)
(0.0104738 -0.0155591 2.82652e-318 -0.00260176 7.29429e-319 -0.00787202)
(0.0130127 -0.0118732 3.85376e-318 -0.000690752 1.03341e-318 -0.012322)
(0.0145827 -0.00686732 5.34434e-318 0.00198559 1.58697e-318 -0.0165683)
(0.0140089 -0.00114884 7.36382e-318 0.0065745 2.55397e-318 -0.0205834)
(0.0115467 0.00433898 9.92219e-318 0.0121104 4.2016e-318 -0.0236572)
(0.00604558 0.00868582 1.29082e-317 0.018924 6.94722e-318 -0.0249695)
(0.000189333 0.0087128 1.57096e-317 0.023346 1.13552e-317 -0.0235353)
(-0.00301343 0.00582561 1.86805e-317 0.0202905 1.76812e-317 -0.0172771)
(0.00313051 0.00468864 2.58235e-317 -0.0247106 2.04358e-317 0.0215801)
(-0.000776881 0.00542478 1.95722e-317 -0.0273925 1.16205e-317 0.0281694)
(-0.00704099 0.00283423 1.41873e-317 -0.0229285 6.89413e-318 0.0299695)
(-0.0121451 -0.00349095 1.04345e-317 -0.0168828 4.16764e-318 0.0290279)
(-0.0140433 -0.0104795 7.59857e-318 -0.0119849 2.56812e-318 0.0260282)
(-0.0137149 -0.0173422 5.48393e-318 -0.00840328 1.62285e-318 0.0221182)
(-0.0112791 -0.0229915 3.94229e-318 -0.00637141 1.06173e-318 0.0176505)
(-0.00782314 -0.0272915 2.87251e-318 -0.00520777 7.28139e-319 0.0130309)
(-0.0036854 -0.0301022 2.1962e-318 -0.00479439 5.33013e-319 0.00847979)
(0.000779078 -0.0315765 1.85735e-318 -0.00464044 4.27881e-319 0.00386136)
(0.00532682 -0.0315835 1.82756e-318 -0.00472747 3.92234e-319 -0.000599356)
(0.00993849 -0.0303285 2.10605e-318 -0.00459533 4.26102e-319 -0.00534316)
(0.0143357 -0.0273467 2.72366e-318 -0.00434493 5.52257e-319 -0.0099908)
(0.0181023 -0.0229321 3.73984e-318 -0.00310133 8.2507e-319 -0.0150009)
(0.0208921 -0.0165122 5.24382e-318 -0.00114605 1.34474e-318 -0.0197461)
(0.0210338 -0.0087394 7.35578e-318 0.00323815 2.28389e-318 -0.024272)
(0.0187716 -0.00024469 1.02447e-317 0.00898777 3.93048e-318 -0.0277593)
(0.011589 0.00767083 1.41224e-317 0.0177672 6.75584e-318 -0.0293562)
(0.00317227 0.0107311 1.96774e-317 0.0249625 1.15853e-317 -0.0281347)
(-0.00360683 0.00970733 2.60202e-317 0.0256505 2.02782e-317 -0.0220437)
(0.00309127 0.00739751 1.93635e-317 -0.0277306 1.76197e-317 0.0246394)
(-0.00403869 0.00477076 1.61042e-317 -0.0259389 1.1039e-317 0.0299776)
(-0.0119593 -0.00194995 1.31433e-317 -0.0192138 6.6412e-318 0.0311731)
(-0.017604 -0.0122839 1.00811e-317 -0.0122552 3.9986e-318 0.0298592)
(-0.0186926 -0.0223034 7.47772e-318 -0.00786052 2.44533e-318 0.0265531)
(-0.0171704 -0.0311321 5.41783e-318 -0.00514721 1.53162e-318 0.0223177)
(-0.0133734 -0.0379978 3.88389e-318 -0.00414719 9.87351e-319 0.0175206)
(-0.00867039 -0.0429345 2.81076e-318 -0.00388113 6.59084e-319 0.0125515)
(-0.00344671 -0.04609 2.12799e-318 -0.00423521 4.60909e-319 0.00768192)
(0.00201359 -0.0477363 1.77976e-318 -0.00473734 3.4596e-319 0.00272376)
(0.00747516 -0.0477935 1.73559e-318 -0.00544209 2.94384e-319 -0.00203307)
(0.0131046 -0.0465485 1.99316e-318 -0.00597969 3.04335e-319 -0.00712492)
(0.0186063 -0.0433136 2.58203e-318 -0.00653049 3.96977e-319 -0.0120758)
(0.0237045 -0.0384581 3.56074e-318 -0.00624976 6.24039e-319 -0.0174547)
(0.0279639 -0.0307969 5.01213e-318 -0.00545906 1.08493e-318 -0.0225048)
(0.0293804 -0.0210684 7.02731e-318 -0.00204255 1.9546e-318 -0.0273378)
(0.0280247 -0.00902829 9.65874e-318 0.00302582 3.5283e-318 -0.0310505)
(0.0197268 0.00362445 1.2847e-317 0.0131143 6.28527e-318 -0.0328411)
(0.00888902 0.0119101 1.60182e-317 0.0230863 1.09086e-317 -0.0319753)
(-0.00337873 0.0153026 1.94473e-317 0.0301869 1.79345e-317 -0.0268081)
(0.00299672 0.00965791 2.50712e-317 -0.0303415 1.96524e-317 0.0273447)
(-0.00861475 0.000759149 1.91461e-317 -0.0221104 1.09433e-317 0.0307251)
(-0.0177919 -0.0122312 1.39974e-317 -0.0134809 6.35327e-318 0.0312727)
(-0.0233264 -0.0271009 1.03229e-317 -0.00641072 3.78716e-318 0.0297371)
(-0.0228758 -0.0400904 7.49043e-318 -0.00343871 2.31825e-318 0.0263146)
(-0.0197227 -0.0503723 5.35745e-318 -0.00223789 1.45674e-318 0.0219606)
(-0.0143575 -0.0579422 3.79986e-318 -0.0026453 9.37317e-319 0.0170028)
(-0.00837008 -0.0630718 2.72002e-318 -0.00346558 6.15957e-319 0.0118357)
(-0.00215451 -0.0662743 2.03398e-318 -0.00463021 4.14506e-319 0.00678472)
(0.00417926 -0.0679299 1.67886e-318 -0.00578291 2.89112e-319 0.00160365)
(0.0103652 -0.0680296 1.61916e-318 -0.00704544 2.19306e-319 -0.00331977)
(0.0168705 -0.0669149 1.8513e-318 -0.00822998 2.02987e-319 -0.00864056)
(0.0233182 -0.0637317 2.40285e-318 -0.00956795 2.57176e-319 -0.0137503)
(0.029739 -0.0588875 3.33639e-318 -0.0104011 4.28113e-319 -0.0193379)
(0.0355972 -0.0505751 4.74943e-318 -0.0110828 8.13316e-319 -0.0245144)
(0.0387177 -0.0395345 6.77535e-318 -0.00930005 1.59097e-318 -0.0294177)
(0.0390707 -0.0240815 9.60106e-318 -0.00593665 3.07671e-318 -0.033134)
(0.0303323 -0.00625203 1.34466e-317 0.0045427 5.80775e-318 -0.034875)
(0.0176068 0.00995613 1.89785e-317 0.0167347 1.0693e-317 -0.0343414)
(-0.00251451 0.0212403 2.52682e-317 0.0333326 1.95377e-317 -0.0308181)
(0.0011351 0.010455 1.9898e-317 -0.0300328 1.73413e-317 0.0288977)
(-0.0150792 -0.00771019 1.63862e-317 -0.0154336 1.0257e-317 0.0305128)
(-0.0237953 -0.028814 1.32116e-317 -0.00672225 5.98592e-318 0.0305175)
(-0.0276455 -0.0483015 9.99266e-318 -0.00118148 3.58151e-318 0.028827)
(-0.0248766 -0.0638406 7.29376e-318 -0.000537972 2.2119e-318 0.0254146)
(-0.0197538 -0.0748592 5.19157e-318 -0.00131503 1.40396e-318 0.0210688)
(-0.0129377 -0.0825532 3.64936e-318 -0.00318209 9.07544e-319 0.0161198)
(-0.00591958 -0.0874219 2.58272e-318 -0.00500737 5.91426e-319 0.010927)
(0.000938993 -0.0903956 1.90538e-318 -0.00680831 3.85332e-319 0.00586932)
(0.00777398 -0.0919146 1.5494e-318 -0.00842257 2.4891e-319 0.000648594)
(0.0143067 -0.0920385 1.47546e-318 -0.0100342 1.61589e-319 -0.0042725)
(0.021295 -0.0911672 1.67644e-318 -0.0116612 1.17583e-319 -0.00963377)
(0.0282827 -0.0882907 2.17676e-318 -0.0135572 1.29633e-319 -0.0147255)
(0.0357041 -0.0839395 3.03656e-318 -0.0153798 2.35857e-319 -0.0203243)
(0.0428913 -0.0756077 4.35122e-318 -0.0174618 5.23917e-319 -0.0254295)
(0.0479778 -0.0641979 6.24241e-318 -0.0177842 1.16417e-318 -0.0301936)
(0.0506313 -0.0458915 8.82831e-318 -0.0169701 2.47635e-318 -0.0336612)
(0.043077 -0.0231803 1.21517e-317 -0.00802019 5.02565e-318 -0.0350568)
(0.0300939 0.0032887 1.57637e-317 0.00435192 9.71854e-318 -0.0344458)
(0.00091383 0.0261772 1.98336e-317 0.0314421 1.75966e-317 -0.0323559)
(-0.00118203 0.004183 2.4356e-317 -0.0275169 1.83279e-317 0.0286989)
(-0.0217 -0.0250554 1.8658e-317 -0.00723235 9.73195e-318 0.0289324)
(-0.0282847 -0.0547167 1.36147e-317 -0.00043285 5.55104e-318 0.0287175)
(-0.0291821 -0.0772549 9.91592e-318 0.00207723 3.34904e-318 0.0271049)
(-0.0236457 -0.0938578 7.06088e-318 -0.000232566 2.10817e-318 0.0238783)
(-0.016564 -0.104398 4.94059e-318 -0.00318253 1.36167e-318 0.0197465)
(-0.00861126 -0.111385 3.42238e-318 -0.0063648 8.87955e-319 0.0149761)
(-0.000923509 -0.115501 2.38791e-318 -0.00901184 5.76486e-319 0.00993534)
(0.00617924 -0.117958 1.73574e-318 -0.0112093 3.65525e-319 0.00503002)
(0.0131643 -0.119199 1.38938e-318 -0.0130866 2.19523e-319 -7.76698e-05)
(0.0196552 -0.119323 1.30441e-318 -0.0148107 1.16644e-319 -0.00484453)
(0.0267628 -0.118744 1.47066e-318 -0.0166695 4.81516e-320 -0.0100934)
(0.0338259 -0.116419 1.90818e-318 -0.0188141 1.95946e-320 -0.0150118)
(0.0418368 -0.112957 2.67497e-318 -0.0213921 5.94855e-320 -0.0204447)
(0.0498707 -0.105458 3.8707e-318 -0.0245479 2.41672e-319 -0.0253228)
(0.0568339 -0.0949404 5.64552e-318 -0.0271009 7.20106e-319 -0.029733)
(0.0620403 -0.0754927 8.22521e-318 -0.0292865 1.81183e-318 -0.0327538)
(0.0570113 -0.0500149 1.19045e-317 -0.0236267 4.1211e-318 -0.0333846)
(0.045576 -0.0126655 1.74557e-317 -0.0136682 8.772e-318 -0.0319078)
(0.00647665 0.0234498 2.39921e-317 0.023456 1.79701e-317 -0.0299326)
(-0.0069635 -0.0116768 2.00373e-317 -0.0187131 1.59264e-317 0.0256766)
(-0.0264128 -0.0520077 1.62052e-317 5.66558e-05 8.78525e-318 0.0263561)
(-0.0284255 -0.0892883 1.26782e-317 0.0020869 5.08362e-318 0.0263386)
(-0.0248812 -0.112835 9.27488e-318 -1.54945e-05 3.13472e-318 0.0248966)
(-0.0169261 -0.128944 6.55036e-318 -0.00501343 2.0162e-318 0.0219395)
(-0.00847387 -0.137921 4.52073e-318 -0.00964519 1.32186e-318 0.0181191)
(-0.000177246 -0.143569 3.08697e-318 -0.0135065 8.67288e-319 0.0136837)
(0.00750329 -0.146594 2.12349e-318 -0.01647 5.60191e-319 0.00896674)
(0.0142793 -0.148361 1.52006e-318 -0.0186753 3.47476e-319 0.00439603)
(0.0209044 -0.149236 1.19725e-318 -0.0204989 1.9566e-319 -0.000405478)
(0.0269032 -0.149336 1.10758e-318 -0.0220657 8.30228e-320 -0.00483755)
(0.0336187 -0.149051 1.23696e-318 -0.0238419 -4.00193e-321 -0.00977675)
(0.0401881 -0.147394 1.6007e-318 -0.0258494 -6.66742e-320 -0.0143387)
(0.0480878 -0.145057 2.24791e-318 -0.0286702 -8.67332e-320 -0.0194176)
(0.056076 -0.138974 3.26849e-318 -0.0321808 -1.19119e-320 -0.0238952)
(0.0642583 -0.130449 4.79649e-318 -0.0364424 2.84093e-319 -0.0278159)
(0.0712677 -0.11158 7.00825e-318 -0.0410506 1.08118e-318 -0.0302171)
(0.0703783 -0.0861441 1.00897e-317 -0.0406291 2.96803e-318 -0.0297492)
(0.0623389 -0.0390785 1.39023e-317 -0.0361819 7.1042e-318 -0.026157)
(0.0179708 0.00945236 1.8699e-317 0.00254994 1.54972e-317 -0.0205208)
(-0.0115267 -0.0491112 2.29204e-317 -0.00930919 1.5499e-317 0.0208359)
(-0.0259046 -0.0942734 1.72762e-317 0.00314856 7.85491e-318 0.0227561)
(-0.0220758 -0.133243 1.21424e-317 -0.00097132 4.57336e-318 0.0230471)
(-0.0137519 -0.154024 8.48427e-318 -0.00809764 2.89693e-318 0.0218495)
(-0.00419768 -0.167253 5.80525e-318 -0.0150618 1.90128e-318 0.0192595)
(0.00477146 -0.173732 3.91994e-318 -0.0207015 1.25804e-318 0.01593)
(0.0125943 -0.177581 2.63079e-318 -0.024608 8.25011e-319 0.0120136)
(0.0196454 -0.179419 1.78224e-318 -0.0274766 5.28922e-319 0.00783124)
(0.0255933 -0.180463 1.25697e-318 -0.0293859 3.22309e-319 0.00379254)
(0.0314565 -0.180968 9.74876e-319 -0.0309559 1.72296e-319 -0.000500655)
(0.0365822 -0.181031 8.88631e-319 -0.0321763 5.78946e-320 -0.00440587)
(0.0425173 -0.180967 9.81738e-319 -0.0336849 -3.75737e-320 -0.00883247)
(0.0481022 -0.179975 1.26424e-318 -0.0352551 -1.21125e-319 -0.012847)
(0.0553086 -0.178697 1.77593e-318 -0.0379426 -1.86164e-319 -0.0173659)
(0.0623988 -0.174449 2.59384e-318 -0.0411081 -2.00536e-319 -0.0212907)
(0.071011 -0.168561 3.8471e-318 -0.0464155 -7.38183e-320 -0.0245955)
(0.0787568 -0.152806 5.76535e-318 -0.0523726 4.17298e-319 -0.0263843)
(0.0826441 -0.131462 8.70707e-318 -0.0578789 1.79737e-318 -0.0247653)
(0.0788032 -0.0814107 1.36964e-317 -0.0605312 5.27886e-318 -0.018272)
(0.0327098 -0.0292925 2.02423e-317 -0.0280765 1.38364e-317 -0.00463331)
(-0.0174206 -0.103377 1.78941e-317 0.00286092 1.23823e-317 0.0145597)
(-0.012942 -0.148039 1.3875e-317 -0.0053077 6.74016e-318 0.0182497)
(-0.00405976 -0.183715 1.00948e-317 -0.0146339 4.06719e-318 0.0186937)
(0.00732402 -0.199208 6.94375e-318 -0.0250706 2.62746e-318 0.0177466)
(0.016283 -0.208213 4.66087e-318 -0.0319291 1.73184e-318 0.0156461)
(0.0241524 -0.211848 3.08887e-318 -0.0371259 1.14038e-318 0.0129735)
(0.0304397 -0.213815 2.04042e-318 -0.0402399 7.40787e-319 0.00980022)
(0.0361023 -0.214547 1.36327e-318 -0.0424926 4.69466e-319 0.00639034)
(0.0407271 -0.214934 9.48403e-319 -0.0438501 2.81252e-319 0.003123)
(0.0453917 -0.215096 7.24888e-319 -0.0449824 1.45097e-319 -0.000409306)
(0.049319 -0.215127 6.51327e-319 -0.0457634 3.98069e-320 -0.00355567)
(0.054053 -0.215181 7.11277e-319 -0.0468417 -5.17484e-320 -0.00721135)
(0.0582569 -0.2148 9.1001e-319 -0.0478163 -1.4028e-319 -0.0104406)
(0.0640705 -0.21436 1.2734e-318 -0.0499213 -2.26989e-319 -0.0141492)
(0.0694016 -0.212031 1.85511e-318 -0.0520981 -2.98742e-319 -0.0173035)
(0.0769941 -0.208832 2.74497e-318 -0.057115 -3.04423e-319 -0.0198792)
(0.0833567 -0.197665 4.08893e-318 -0.0622749 -9.86106e-320 -0.0210818)
(0.0909413 -0.182915 6.09794e-318 -0.0722624 7.02912e-319 -0.0186789)
(0.0892118 -0.136084 8.94695e-318 -0.079762 3.106e-318 -0.00944979)
(0.0564335 -0.0878212 1.33521e-317 -0.0730589 9.7258e-318 0.0166254)
(-0.00718402 -0.18303 1.65881e-317 -0.00524218 9.46189e-318 0.0124262)
(0.0130816 -0.21172 1.18618e-317 -0.0261416 5.17248e-318 0.01306)
(0.0250908 -0.230548 7.47411e-318 -0.0380254 3.22614e-318 0.0129346)
(0.0370407 -0.238338 4.85169e-318 -0.0492583 2.10642e-318 0.0122175)
(0.0437441 -0.242311 3.13636e-318 -0.0545002 1.37973e-318 0.0107561)
(0.0493711 -0.243571 2.03153e-318 -0.0583315 8.97653e-319 0.00896049)
(0.0534356 -0.244092 1.3206e-318 -0.060226 5.75191e-319 0.0067904)
(0.0571985 -0.244099 8.70731e-319 -0.0616416 3.59344e-319 0.00444316)
(0.0601537 -0.244064 5.98773e-319 -0.062374 2.12068e-319 0.00222027)
(0.0632834 -0.243996 4.51759e-319 -0.0630344 1.06753e-319 -0.000249011)
(0.0657637 -0.244018 4.0048e-319 -0.0633902 2.51924e-320 -0.0023735)
(0.0689684 -0.244075 4.32041e-319 -0.0640234 -4.70795e-320 -0.004945)
(0.0715309 -0.244125 5.48121e-319 -0.0644087 -1.20858e-319 -0.00712217)
(0.0754891 -0.244105 7.61938e-319 -0.0657789 -2.01455e-319 -0.00971018)
(0.0786084 -0.243351 1.10382e-318 -0.0667491 -2.87719e-319 -0.0118592)
(0.0842558 -0.242087 1.62993e-318 -0.0706854 -3.59793e-319 -0.0135703)
(0.0881527 -0.236507 2.4585e-318 -0.073811 -3.49463e-319 -0.0143416)
(0.0980104 -0.22963 3.81066e-318 -0.0858988 -4.83097e-320 -0.0121116)
(0.0975791 -0.201131 6.65194e-318 -0.0946488 1.20561e-318 -0.00293027)
(0.0789904 -0.176214 1.10559e-317 -0.110209 5.78808e-318 0.0312185)
(0.0407083 -0.280085 6.88847e-318 -0.0518256 9.65032e-318 0.0111173)
(0.0664403 -0.289996 5.06225e-318 -0.0721513 5.29327e-318 0.00571104)
(0.0725064 -0.29376 3.15786e-318 -0.0776674 3.02822e-318 0.00516097)
(0.0767523 -0.295407 1.96907e-318 -0.0816042 1.77407e-318 0.0048519)
(0.0786863 -0.294927 1.23062e-318 -0.0829617 1.06919e-318 0.00427547)
(0.0806196 -0.294503 7.76839e-319 -0.0842174 6.51421e-319 0.00359774)
(0.0819608 -0.293716 4.95207e-319 -0.0847068 3.96582e-319 0.00274596)
(0.0833968 -0.293152 3.21395e-319 -0.0852063 2.377e-319 0.00180957)
(0.084455 -0.292721 2.17537e-319 -0.0854006 1.36046e-319 0.000945577)
(0.0857274 -0.292356 1.61619e-319 -0.0856576 6.7351e-320 -6.97945e-05)
(0.0866007 -0.292477 1.40843e-319 -0.0857186 1.59633e-320 -0.000882177)
(0.0879389 -0.29228 1.4942e-319 -0.0859865 -2.81074e-320 -0.0019524)
(0.0887588 -0.293028 1.865e-319 -0.0859766 -7.26919e-320 -0.0027822)
(0.090407 -0.292797 2.548e-319 -0.0865634 -1.22094e-319 -0.0038436)
(0.0911998 -0.294091 3.59882e-319 -0.086516 -1.75309e-319 -0.00468382)
(0.093559 -0.293233 5.10345e-319 -0.0882219 -2.20546e-319 -0.00533707)
(0.0937161 -0.294386 7.12813e-319 -0.088045 -2.19093e-319 -0.00567105)
(0.0988159 -0.291023 9.60034e-319 -0.0941319 -7.04636e-320 -0.00468408)
(0.0915046 -0.286635 1.14372e-318 -0.0913235 5.46274e-319 -0.000181111)
(0.0968098 -0.264182 1.99348e-318 -0.121599 2.04114e-318 0.0247889)
)
;

boundaryField
{
    cavity
    {
        type            mySigma;
    }
    lid
    {
        type            fixedValue;
        value           uniform (0.1 -0.3 0 -0.1 0 0);
    }
    frontAndBack
    {