/*--------------------------------*- C++ -*----------------------------------*\
| =========                 |                                                 |
| \\      /  F ield         | foam-extend: Open Source CFD                    |
|  \\    /   O peration     | Version:  3.0                                   |
|   \\  /    A nd           | Web:         http://www.extend-project.de       |
|    \\/     M anipulation  |                                                 |
\*---------------------------------------------------------------------------*/
FoamFile
{
    version     2.0;
    format      ascii;
    class       volVectorField;
    location    "0.4";
    object      u;
}
// * * * * * * * * * * * * * * * * * * * * * * * * * * * * * * * * * * * * * //

dimensions      [0 0 0 0 0 0 0];

internalField   nonuniform List<vector> 
400
(
(0.000256271 0.001597 1.99554e-316)
(0.000127562 0.00227285 1.59953e-316)
(-6.9971e-05 0.00246764 6.4106e-317)
(-0.000362695 0.00249797 1.06141e-316)
(-0.000604158 0.00234143 2.9111e-317)
(-0.000797804 0.00213098 8.82117e-317)
(-0.00093592 0.00185799 1.95955e-317)
(-0.0010241 0.00158375 8.3169e-317)
(-0.00108846 0.00129439 1.6753e-317)
(-0.00113458 0.00101209 8.13008e-317)
(-0.0011746 0.000718515 1.51266e-317)
(-0.00121115 0.00042337 7.93619e-317)
(-0.00122291 0.000106828 1.22952e-317)
(-0.00121758 -0.000207775 7.48731e-317)
(-0.00113834 -0.000541006 5.06248e-318)
(-0.0010175 -0.000826523 6.34579e-317)
(-0.000788082 -0.00109166 -1.22552e-317)
(-0.000524636 -0.00119986 3.96136e-317)
(-0.000223807 -0.00120763 -4.04464e-317)
(1.69331e-05 -0.000882513 1.06384e-317)
(-1.37268e-06 0.00418064 7.89004e-318)
(-0.000153132 0.00482123 4.24974e-317)
(-0.000361229 0.00493243 4.62313e-317)
(-0.000585718 0.00486111 4.09551e-317)
(-0.000779757 0.004523 3.78577e-317)
(-0.000918334 0.00411967 3.18957e-317)
(-0.00102276 0.00362019 3.07205e-317)
(-0.00108108 0.00311264 2.68104e-317)
(-0.0011302 0.002594 2.71777e-317)
(-0.00116714 0.00206615 2.42045e-317)
(-0.001206 0.0015471 2.49671e-317)
(-0.00125001 0.000993682 2.19312e-317)
(-0.00127151 0.000444908 2.21998e-317)
(-0.00128886 -0.000139825 1.82837e-317)
(-0.00122727 -0.000711584 1.73989e-317)
(-0.00114092 -0.00124264 1.24166e-317)
(-0.000928226 -0.00171708 1.1388e-317)
(-0.00069325 -0.00196466 9.59618e-318)
(-0.000372442 -0.00208099 1.59967e-317)
(-9.32389e-05 -0.00171587 4.55021e-317)
(3.20543e-05 0.00799742 1.56045e-316)
(-0.000364272 0.00903362 8.94343e-317)
(-0.000825476 0.0091332 5.91126e-317)
(-0.00123387 0.00892499 4.34188e-317)
(-0.00157216 0.00821091 3.10093e-317)
(-0.00173569 0.00741467 2.69235e-317)
(-0.00185633 0.00642923 2.08098e-317)
(-0.00186732 0.00546417 2.04403e-317)
(-0.00190131 0.00446354 1.64974e-317)
(-0.00191564 0.00347477 1.73204e-317)
(-0.00198123 0.00247475 1.38697e-317)
(-0.00206777 0.00143592 1.46241e-317)
(-0.00215489 0.000359885 1.05362e-317)
(-0.00224856 -0.000757227 9.97268e-318)
(-0.00220575 -0.00191402 3.61908e-318)
(-0.0021329 -0.00295949 -7.75179e-319)
(-0.00176978 -0.00396904 -1.37106e-317)
(-0.00137883 -0.00449301 -3.05148e-317)
(-0.000728142 -0.00481748 -6.38139e-317)
(-0.000170356 -0.0041475 -1.37029e-316)
(-4.05008e-05 0.0153788 -1.54e-317)
(-0.000770335 0.016937 2.23752e-317)
(-0.00152857 0.0166395 2.68135e-317)
(-0.00209583 0.0159789 2.56535e-317)
(-0.00254108 0.0144373 2.18278e-317)
(-0.00266016 0.0128828 1.8231e-317)
(-0.00273737 0.0110906 1.51724e-317)
(-0.00264504 0.00938477 1.29919e-317)
(-0.00262633 0.00772483 1.11995e-317)
(-0.00260953 0.00605924 9.88293e-318)
(-0.00270802 0.00447993 8.48847e-318)
(-0.00288624 0.00272805 7.11361e-318)
(-0.00308981 0.00101912 5.20485e-318)
(-0.00335224 -0.000949318 2.85377e-318)
(-0.00339732 -0.00288772 -4.44239e-319)
(-0.00342461 -0.00486642 -4.36978e-318)
(-0.00293547 -0.00672708 -8.68101e-318)
(-0.00238353 -0.0078853 -1.06608e-317)
(-0.00131666 -0.00870899 -7.60686e-318)
(-0.000317783 -0.007641 2.59751e-317)
(-0.000344101 0.0228075 1.49891e-316)
(-0.00183795 0.0250234 7.63151e-317)
(-0.00327186 0.024152 4.84199e-317)
(-0.00404403 0.0229022 3.14849e-317)
(-0.00465803 0.0202743 2.19063e-317)
(-0.00452671 0.0178028 1.60391e-317)
(-0.00443742 0.014996 1.21456e-317)
(-0.00400727 0.0124452 9.58976e-318)
(-0.00383198 0.00996876 7.66159e-318)
(-0.00365869 0.00755751 6.22205e-318)
(-0.00382317 0.00523921 4.78276e-318)
(-0.00412668 0.00269297 3.29279e-318)
(-0.00461686 0.000122717 1.25836e-318)
(-0.00522738 -0.0028475 -1.46759e-318)
(-0.00553621 -0.00592227 -5.64334e-318)
(-0.0058894 -0.00908569 -1.19606e-317)
(-0.00520492 -0.0122683 -2.23179e-317)
(-0.00454191 -0.0143059 -4.05762e-317)
(-0.00255826 -0.0159967 -7.08661e-317)
(-0.000777582 -0.014345 -1.47467e-316)
(-0.000787711 0.040353 -1.59692e-317)
(-0.00313757 0.0432528 2.1819e-317)
(-0.00522526 0.0406029 2.42176e-317)
(-0.0060131 0.0378189 2.1669e-317)
(-0.00660338 0.0328933 1.71208e-317)
(-0.00599692 0.0285205 1.30182e-317)
(-0.00556365 0.0239177 9.77105e-318)
(-0.00466236 0.0198094 7.34716e-318)
(-0.00424083 0.0161278 5.49893e-318)
(-0.00390299 0.0124525 4.00856e-318)
(-0.00414528 0.00921646 2.60328e-318)
(-0.00469668 0.00532264 1.07889e-318)
(-0.00559733 0.00171273 -8.39739e-319)
(-0.00680254 -0.00308653 -3.38304e-318)
(-0.00760038 -0.0077094 -6.79717e-318)
(-0.00858948 -0.0132475 -1.11428e-317)
(-0.00791161 -0.0185803 -1.599e-317)
(-0.00730599 -0.0226811 -1.88799e-317)
(-0.00430725 -0.026258 -1.65867e-317)
(-0.0014323 -0.024073 2.05915e-317)
(-0.0020219 0.0537405 1.47371e-316)
(-0.00623008 0.0571511 7.10437e-317)
(-0.00983112 0.0522944 4.40108e-317)
(-0.0103437 0.0477834 2.76438e-317)
(-0.0108096 0.0404203 1.84713e-317)
(-0.00894388 0.0342371 1.26801e-317)
(-0.00769441 0.0279027 8.8471e-318)
(-0.0056414 0.0224849 6.20428e-318)
(-0.00465007 0.0177012 4.27479e-318)
(-0.00378626 0.0130425 2.73121e-318)
(-0.00416659 0.00894276 1.31096e-318)
(-0.004975 0.00397078 -2.50758e-319)
(-0.00673896 -0.000727104 -2.22779e-318)
(-0.00895311 -0.00716742 -4.95894e-318)
(-0.0108395 -0.0135878 -8.93843e-318)
(-0.0132231 -0.0215783 -1.49766e-317)
(-0.0126793 -0.029676 -2.45857e-317)
(-0.0127589 -0.0362981 -4.17282e-317)
(-0.00762053 -0.0426902 -7.02726e-317)
(-0.00312594 -0.0400652 -1.48365e-316)
(-0.00347436 0.0872524 -1.45535e-317)
(-0.00908173 0.0904808 2.43505e-317)
(-0.0136324 0.0804221 2.4952e-317)
(-0.0130813 0.0719606 2.11747e-317)
(-0.0127677 0.0598803 1.59129e-317)
(-0.00919454 0.0500242 1.14193e-317)
(-0.0068091 0.0407967 7.97109e-318)
(-0.00349029 0.0329272 5.42983e-318)
(-0.00184165 0.0266473 3.52104e-318)
(-0.0005211 0.0202789 1.97996e-318)
(-0.00104642 0.0153193 5.60028e-319)
(-0.00230423 0.00848672 -9.80893e-319)
(-0.00506414 0.00280087 -2.90771e-318)
(-0.00865851 -0.00661983 -5.47232e-318)
(-0.0120646 -0.0150618 -8.96383e-318)
(-0.016509 -0.0277769 -1.35293e-317)
(-0.0168477 -0.0398473 -1.88542e-317)
(-0.0184603 -0.0518364 -2.26108e-317)
(-0.0115072 -0.0635275 -2.15468e-317)
(-0.00541998 -0.0614924 1.79718e-317)
(-0.00703101 0.107222 1.45307e-316)
(-0.0155638 0.109201 6.73931e-317)
(-0.0226755 0.0936688 4.16693e-317)
(-0.0197658 0.0813309 2.60691e-317)
(-0.0181228 0.0653307 1.72461e-317)
(-0.0110303 0.0527661 1.15587e-317)
(-0.0064147 0.0415643 7.73005e-318)
(-0.000508473 0.0322999 5.05895e-318)
(0.00246395 0.0251733 3.10684e-318)
(0.0049522 0.0180138 1.55291e-318)
(0.00418285 0.012613 1.2694e-319)
(0.00262411 0.00484658 -1.40806e-318)
(-0.00202108 -0.00148456 -3.34088e-318)
(-0.00755812 -0.0128482 -5.99196e-318)
(-0.0138417 -0.0230042 -9.82245e-318)
(-0.0218954 -0.0396724 -1.55682e-317)
(-0.0238366 -0.0558292 -2.45717e-317)
(-0.0291125 -0.0736707 -4.06498e-317)
(-0.018289 -0.0921126 -6.75643e-317)
(-0.0107165 -0.0921654 -1.47252e-316)
(-0.010917 0.158956 -1.244e-317)
(-0.0195173 0.156762 2.762e-317)
(-0.02698 0.13023 2.65544e-317)
(-0.0199235 0.109915 2.16886e-317)
(-0.0156075 0.0870155 1.58189e-317)
(-0.00475557 0.0691008 1.10139e-317)
(0.00223691 0.054843 7.41089e-318)
(0.0103596 0.0428465 4.79116e-318)
(0.0144753 0.0347439 2.85371e-318)
(0.0177665 0.0260637 1.31241e-318)
(0.0167741 0.0205849 -9.46827e-320)
(0.0147294 0.0110908 -1.6063e-318)
(0.00837225 0.00479619 -3.47097e-318)
(0.000762747 -0.0100848 -6.00248e-318)
(-0.00868854 -0.0213148 -9.49197e-318)
(-0.0209557 -0.045162 -1.41796e-317)
(-0.0260865 -0.0660489 -1.99252e-317)
(-0.0369775 -0.0950995 -2.46092e-317)
(-0.0242545 -0.124484 -2.51303e-317)
(-0.0176362 -0.131182 1.5839e-317)
(-0.0199774 0.184588 1.43592e-316)
(-0.0291683 0.174699 6.47317e-317)
(-0.039213 0.13871 4.04024e-317)
(-0.0247744 0.111605 2.54867e-317)
(-0.0163733 0.0848443 1.68935e-317)
(0.00116248 0.0641726 1.12343e-317)
(0.0123771 0.0490366 7.37031e-318)
(0.0245285 0.0363727 4.67414e-318)
(0.0307978 0.0284445 2.71766e-318)
(0.0359094 0.0197328 1.18246e-318)
(0.0345534 0.0147809 -1.95156e-319)
(0.0325347 0.00510604 -1.67149e-318)
(0.0231357 -0.000546504 -3.50591e-318)
(0.0132378 -0.016729 -6.02944e-318)
(-0.00164819 -0.0278927 -9.66997e-318)
(-0.0199975 -0.0562437 -1.51078e-317)
(-0.0301896 -0.0801559 -2.35837e-317)
(-0.0511102 -0.11986 -3.87072e-317)
(-0.0338996 -0.160343 -6.41186e-317)
(-0.0320765 -0.179542 -1.4538e-316)
(-0.028877 0.251376 -9.56291e-318)
(-0.0298424 0.224503 3.15362e-317)
(-0.036771 0.17173 2.86806e-317)
(-0.0131089 0.13188 2.2656e-317)
(0.000869976 0.0990748 1.61381e-317)
(0.0237164 0.0730772 1.09995e-317)
(0.038256 0.0567963 7.24525e-318)
(0.0528187 0.0424896 4.56207e-318)
(0.0603546 0.0350227 2.62304e-318)
(0.0663585 0.0258509 1.11946e-318)
(0.064717 0.0220346 -2.18575e-319)
(0.0626169 0.011693 -1.62853e-318)
(0.0511871 0.00783379 -3.37634e-318)
(0.0397204 -0.0108452 -5.7594e-318)
(0.020296 -0.0200291 -9.11523e-318)
(-0.00313498 -0.0560875 -1.37505e-317)
(-0.0201562 -0.0813055 -1.97373e-317)
(-0.05262 -0.139566 -2.52834e-317)
(-0.0368841 -0.194812 -2.7606e-317)
(-0.0486796 -0.24094 1.38726e-317)
(-0.04856 0.281021 1.43074e-316)
(-0.0374679 0.229614 6.36221e-317)
(-0.0426792 0.167675 4.02665e-317)
(-0.00454959 0.119328 2.56164e-317)
(0.017626 0.0862996 1.69563e-317)
(0.0490008 0.0593008 1.11536e-317)
(0.0692244 0.0445711 7.20916e-318)
(0.0879202 0.031025 4.48892e-318)
(0.0978851 0.024963 2.55845e-318)
(0.105859 0.016682 1.08499e-318)
(0.103749 0.0142196 -1.92453e-319)
(0.102523 0.00468206 -1.52885e-318)
(0.0874794 0.00277355 -3.17831e-318)
(0.0752409 -0.0155746 -5.45239e-318)
(0.0483166 -0.0216616 -8.76245e-318)
(0.0192648 -0.060306 -1.37642e-317)
(-0.00808703 -0.0827646 -2.15781e-317)
(-0.0571983 -0.155048 -3.57197e-317)
(-0.041986 -0.2182 -5.97585e-317)
(-0.0794328 -0.304312 -1.42926e-316)
(-0.0583842 0.358252 -4.50564e-318)
(-0.0212835 0.258794 3.70151e-317)
(-0.014415 0.181556 3.15958e-317)
(0.0351303 0.11801 2.39268e-317)
(0.0647528 0.0850224 1.65318e-317)
(0.0997188 0.0558393 1.0985e-317)
(0.122576 0.0435194 7.07069e-318)
(0.142219 0.0306975 4.37163e-318)
(0.15279 0.0265864 2.47588e-318)
(0.161234 0.0193179 1.06339e-318)
(0.158807 0.0186924 -1.3449e-319)
(0.158292 0.0100412 -1.37027e-318)
(0.141786 0.0110548 -2.88771e-318)
(0.130381 -0.00718217 -4.94917e-318)
(0.0993784 -0.00773934 -7.91711e-318)
(0.0691704 -0.050792 -1.2165e-317)
(0.0323102 -0.0656495 -1.7942e-317)
(-0.0279821 -0.161034 -2.39302e-317)
(-0.0251871 -0.229545 -2.79462e-317)
(-0.100552 -0.388944 1.2674e-317)
(-0.0847651 0.379844 1.46709e-316)
(-0.0139101 0.233634 6.55094e-317)
(0.00867203 0.16005 4.15017e-317)
(0.0751308 0.0921817 2.61704e-317)
(0.116425 0.0651913 1.69778e-317)
(0.157286 0.038396 1.09165e-317)
(0.185224 0.0295488 6.89024e-318)
(0.206929 0.0186764 4.20928e-318)
(0.219172 0.0163193 2.37647e-318)
(0.228953 0.0103218 1.03579e-318)
(0.225997 0.010945 -7.11109e-320)
(0.227347 0.00359199 -1.18194e-318)
(0.207772 0.00652667 -2.53596e-318)
(0.199019 -0.00974123 -4.38655e-318)
(0.160554 -0.00578086 -7.1077e-318)
(0.13142 -0.0470246 -1.12891e-317)
(0.0791801 -0.0513949 -1.79742e-317)
(0.00693113 -0.156404 -3.05826e-317)
(-0.00864844 -0.21043 -5.27569e-317)
(-0.137656 -0.447206 -1.38556e-316)
(-0.0509903 0.458431 7.74603e-318)
(0.0465898 0.21922 4.56182e-317)
(0.0936708 0.145605 3.53033e-317)
(0.160535 0.0682882 2.49881e-317)
(0.205919 0.0499476 1.64424e-317)
(0.244 0.0267483 1.05083e-317)
(0.271529 0.022887 6.56705e-318)
(0.291537 0.0150764 3.96868e-318)
(0.303117 0.01498 2.22839e-318)
(0.312626 0.0109873 9.91274e-319)
(0.309348 0.0129577 -1.57113e-321)
(0.312004 0.00764588 -9.68887e-319)
(0.292218 0.0126798 -2.13885e-318)
(0.287252 -0.000574449 -3.70512e-318)
(0.2476 0.00923034 -5.97123e-318)
(0.226294 -0.0295649 -9.2799e-318)
(0.166828 -0.0181765 -1.3967e-317)
(0.103761 -0.14024 -1.91783e-317)
(0.057631 -0.168926 -2.3348e-317)
(-0.104467 -0.538236 1.57092e-317)
(-0.0499893 0.415877 1.6233e-316)
(0.0855748 0.162463 7.12141e-317)
(0.176992 0.110827 4.3259e-317)
(0.250632 0.0431862 2.60317e-317)
(0.306989 0.0325403 1.61363e-317)
(0.343741 0.0142131 9.96389e-318)
(0.373158 0.012783 6.09113e-318)
(0.392043 0.00671273 3.63734e-318)
(0.403798 0.00735691 2.04028e-318)
(0.413578 0.00415614 9.29421e-319)
(0.409808 0.00637596 6.0197e-320)
(0.414666 0.00201701 -7.6175e-319)
(0.393302 0.00730594 -1.71647e-318)
(0.393917 -0.00362454 -2.99329e-318)
(0.349485 0.00765977 -4.83927e-318)
(0.339474 -0.0252247 -7.67005e-318)
(0.262847 -0.00493779 -1.22728e-317)
(0.213172 -0.119208 -2.17871e-317)
(0.110034 -0.104792 -3.94537e-317)
(-0.0915314 -0.520916 -1.26007e-316)
(0.13665 0.462804 3.92559e-317)
(0.219217 0.0980103 5.67594e-317)
(0.324507 0.0658886 3.80003e-317)
(0.373533 0.0108451 2.4268e-317)
(0.421978 0.0129576 1.49283e-317)
(0.449101 0.00398995 9.07758e-318)
(0.474204 0.00681395 5.46892e-318)
(0.489652 0.00460902 3.22204e-318)
(0.499749 0.0063936 1.79498e-318)
(0.508727 0.0051913 8.40317e-319)
(0.50471 0.0074635 1.11565e-319)
(0.510626 0.00535622 -5.54727e-319)
(0.490198 0.0103712 -1.3006e-318)
(0.49509 0.00412768 -2.26551e-318)
(0.453237 0.0166438 -3.57931e-318)
(0.456834 -0.0057587 -5.40079e-318)
(0.382552 0.0263887 -7.80232e-318)
(0.377253 -0.0777706 -9.85954e-318)
(0.23971 -0.00851202 -9.49004e-318)
(0.142332 -0.565177 3.38182e-317)
(0.247912 0.235494 1.83417e-316)
(0.379094 0.0710847 6.99906e-317)
(0.564138 0.0417577 3.92466e-317)
(0.60628 0.00819068 2.17695e-317)
(0.655562 0.00833096 1.27489e-317)
(0.674979 0.00155064 7.55281e-318)
(0.696856 0.00294833 4.48355e-318)
(0.709035 0.000702745 2.62334e-318)
(0.717695 0.00167893 1.45832e-318)
(0.725867 0.000321469 6.90472e-319)
(0.721734 0.00181819 1.23709e-319)
(0.728724 -0.000172598 -3.73563e-319)
(0.709315 0.00326378 -9.0211e-319)
(0.718404 -0.00182371 -1.56718e-318)
(0.678295 0.00657899 -2.43185e-318)
(0.69421 -0.0100556 -3.62026e-318)
(0.613132 0.0120594 -5.36872e-318)
(0.638708 -0.0628532 -9.80035e-318)
(0.395812 0.010175 -1.82201e-317)
(0.290304 -0.332402 -9.26959e-317)
(0.350251 0.128594 1.5369e-316)
(0.365435 -0.0553864 8.46543e-317)
(0.415775 -0.0380265 4.63834e-317)
(0.409426 -0.016749 2.55763e-317)
(0.439166 -0.00509463 1.44643e-317)
(0.450431 -0.00108867 8.29894e-318)
(0.47195 0.00159067 4.79197e-318)
(0.483926 0.00185141 2.74065e-318)
(0.493478 0.00248577 1.51718e-318)
(0.502634 0.00210473 7.44784e-319)
(0.497851 0.00263935 1.95951e-319)
(0.506586 0.00193665 -2.44123e-319)
(0.484249 0.00338256 -6.69696e-319)
(0.497846 0.00211978 -1.11284e-318)
(0.452525 0.00690826 -1.49728e-318)
(0.483971 0.00472088 -1.56537e-318)
(0.400493 0.0264384 -4.61833e-319)
(0.505561 0.0154254 4.59739e-318)
(0.270764 0.15702 2.02322e-317)
(0.773216 -0.206178 9.12073e-317)
)
;

boundaryField
{
    cavity
    {
        type            myImplicitVelocity;
    }
    lid
    {
        type            fixedValue;
        value           uniform (1 0 0);
    }
    frontAndBack
    {
        type            empty;
    }
}


// ************************************************************************* //
