/*--------------------------------*- C++ -*----------------------------------*\
| =========                 |                                                 |
| \\      /  F ield         | foam-extend: Open Source CFD                    |
|  \\    /   O peration     | Version:  3.0                                   |
|   \\  /    A nd           | Web:         http://www.extend-project.de       |
|    \\/     M anipulation  |                                                 |
\*---------------------------------------------------------------------------*/
FoamFile
{
    version     2.0;
    format      ascii;
    class       volScalarField;
    location    "23";
    object      p;
}
// * * * * * * * * * * * * * * * * * * * * * * * * * * * * * * * * * * * * * //

dimensions      [0 0 0 0 0 0 0];

internalField   nonuniform List<scalar> 
2688
(
-0.2484954743
-0.2291860672
-0.2179239548
-0.2049067042
-0.1980660491
-0.1890324273
-0.1849987644
-0.1786525583
-0.1764677913
-0.1719973479
-0.1710357578
-0.16788455
-0.1676961263
-0.1654478913
-0.1656747914
-0.1639888477
-0.164315544
-0.1628867666
-0.1630071134
-0.1615390946
-0.1611321965
-0.1593153383
-0.1580242844
-0.1555139142
-0.2478391169
-0.2285896489
-0.2173661964
-0.2043893077
-0.1975752673
-0.1885712384
-0.1845559411
-0.1782317397
-0.1760603062
-0.1716059257
-0.1706543439
-0.1675143386
-0.1673333897
-0.1650923569
-0.1653245614
-0.1636427261
-0.1639729489
-0.1625465699
-0.162669498
-0.1612048968
-0.1608018872
-0.1589954371
-0.1577150748
-0.1552336891
-0.2464172093
-0.2272877431
-0.2161365567
-0.2032420578
-0.1964727601
-0.187527631
-0.1835387652
-0.1772573693
-0.1750994513
-0.1706763682
-0.1697287881
-0.1666114434
-0.1664273312
-0.16420227
-0.1644260521
-0.1627551929
-0.1630736982
-0.1616554529
-0.1617660849
-0.1603105746
-0.1598996835
-0.1581109353
-0.1568369751
-0.1543960212
-0.2442014346
-0.2252538467
-0.214210635
-0.2014403449
-0.1947394024
-0.1858817235
-0.1819367104
-0.1757178085
-0.1735878686
-0.1692093892
-0.1682792258
-0.1651933476
-0.1650196146
-0.1628163288
-0.1630458942
-0.1613899192
-0.1617116047
-0.160304226
-0.160417723
-0.1589731689
-0.1585687706
-0.156798612
-0.1555427849
-0.153140207
-0.241239086
-0.2225306319
-0.2116285998
-0.1990209315
-0.1924062684
-0.1836627755
-0.1797682114
-0.1736305225
-0.171526465
-0.1672057812
-0.1662842144
-0.1632390877
-0.1630619336
-0.1608870008
-0.1611054085
-0.1594692197
-0.1597759118
-0.1583835332
-0.1584822432
-0.1570527204
-0.1566390422
-0.154892798
-0.1536439295
-0.1512941778
-0.2374915361
-0.2190840365
-0.2083597507
-0.195956568
-0.1894529093
-0.1808527779
-0.1770276304
-0.1709919253
-0.1689302749
-0.164682298
-0.1637853439
-0.1607918492
-0.160627862
-0.1584895676
-0.1587144507
-0.1571048807
-0.1574153538
-0.1560440298
-0.1561475331
-0.1547378233
-0.1543341836
-0.1526125109
-0.1513886154
-0.1490783272
-0.2330250129
-0.214973113
-0.2044573422
-0.1922951992
-0.185918519
-0.1774868341
-0.1737360119
-0.1678195314
-0.1657966678
-0.1616332173
-0.1607507157
-0.1578169111
-0.1576512863
-0.1555552109
-0.1557692317
-0.154190569
-0.1544873311
-0.1531411976
-0.1532339768
-0.1518481299
-0.1514395158
-0.1497424632
-0.1485164989
-0.14625749
-0.2277936572
-0.210157831
-0.1998871331
-0.1880070659
-0.1817825015
-0.1735481469
-0.1698912589
-0.1641148607
-0.1621480595
-0.1580844235
-0.1572330624
-0.1543703402
-0.1542199716
-0.1521748967
-0.1523953465
-0.1508549255
-0.1511557443
-0.1498420168
-0.1499429413
-0.1485897555
-0.1481979741
-0.1465350319
-0.1453301165
-0.1431041675
-0.2218784948
-0.2047102893
-0.1947131231
-0.1831496315
-0.1770915014
-0.1690780707
-0.165518983
-0.1598988855
-0.1579841018
-0.1540314942
-0.1532013942
-0.1504176083
-0.1502687858
-0.1482804007
-0.1484919212
-0.1469943334
-0.1472850468
-0.1460088474
-0.1461103309
-0.1447989697
-0.144435867
-0.1428243653
-0.1416926973
-0.1394697619
-0.2152296011
-0.1985872031
-0.1888991523
-0.1776916756
-0.1718246168
-0.1640598554
-0.1606177432
-0.1551739038
-0.1533277649
-0.1495006424
-0.1487073023
-0.1460128598
-0.1458802973
-0.143955901
-0.1441719028
-0.1427218525
-0.1430132176
-0.141776761
-0.1418842178
-0.1406143889
-0.1402744238
-0.1387129251
-0.1376289202
-0.1354375468
-0.2079398138
-0.1918711754
-0.1825184462
-0.1716991944
-0.1660362028
-0.1585422837
-0.1552205961
-0.1499685486
-0.1481875566
-0.1444971371
-0.1437323144
-0.1411357187
-0.1410084606
-0.1391547845
-0.1393632911
-0.1379659295
-0.1382458261
-0.1370518854
-0.1371524327
-0.1359227254
-0.1355892847
-0.1340734306
-0.1330163091
-0.1308886356
-0.1999573218
-0.1845174605
-0.1755338027
-0.1651398803
-0.1597042331
-0.1525069998
-0.1493235153
-0.1442814732
-0.1425804715
-0.1390394516
-0.1383161792
-0.1358259364
-0.1357153062
-0.1339374732
-0.1341473694
-0.1328046438
-0.1330778482
-0.1319246741
-0.1320160479
-0.1308207017
-0.1304818489
-0.1290079302
-0.1279654174
-0.1259321522
-0.1913843407
-0.1766171761
-0.1680265135
-0.1580876105
-0.1528912057
-0.146011381
-0.1429695482
-0.1381524885
-0.1365291231
-0.1331490078
-0.1324614925
-0.1300872799
-0.1299862788
-0.1282931788
-0.1284980796
-0.1272183649
-0.1274799299
-0.1263745608
-0.1264524757
-0.1252956181
-0.1249457195
-0.1235167502
-0.1224840385
-0.1205647597
-0.1821689206
-0.1681254795
-0.159958998
-0.1505092084
-0.1455732589
-0.1390341494
-0.1361496269
-0.131573387
-0.1300399687
-0.126831096
-0.1261892497
-0.1239372809
-0.1238536691
-0.1222485271
-0.1224540325
-0.1212385372
-0.1214918819
-0.1204343031
-0.120500053
-0.1193810576
-0.1190197949
-0.117634902
-0.116611399
-0.1148028642
-0.1724203864
-0.1591401362
-0.1514193834
-0.1424856346
-0.1378210266
-0.1316417664
-0.1289181509
-0.1245970324
-0.1231524641
-0.1201264541
-0.1195269267
-0.11740783
-0.1173384889
-0.115832319
-0.1160379803
-0.1148991616
-0.1151486688
-0.1141531105
-0.1142172513
-0.11315055
-0.1127935505
-0.1114605379
-0.1104584233
-0.1087391566
-0.1620882889
-0.1496175316
-0.1423705442
-0.1339833523
-0.1296087327
-0.1238096271
-0.1212600218
-0.1172070865
-0.1158607697
-0.1130252442
-0.1124745375
-0.1104919253
-0.1104409311
-0.1090348906
-0.1092432161
-0.1081817775
-0.1084302102
-0.107499347
-0.1075678095
-0.1065592853
-0.1062179324
-0.1049394787
-0.1039686806
-0.1023062182
-0.1512866797
-0.1396600351
-0.132905849
-0.1250891245
-0.1210143345
-0.1156127086
-0.113240783
-0.1094693474
-0.1082211453
-0.1055872787
-0.1050837089
-0.1032481205
-0.1032146252
-0.1019200168
-0.1021336081
-0.1011630342
-0.1014193484
-0.100569913
-0.100660675
-0.09972907903
-0.09943000275
-0.09821639432
-0.09729885334
-0.09565528573
-0.1399683856
-0.1292267762
-0.1229898365
-0.1157700799
-0.1120109117
-0.1070237944
-0.1048399537
-0.1013601452
-0.1002165251
-0.09778908207
-0.09733571326
-0.09564780895
-0.09563180362
-0.09444670442
-0.09466333714
-0.09378139758
-0.09404324617
-0.09327588837
-0.09339020056
-0.09254159176
-0.0922934665
-0.09115137976
-0.09029858572
-0.08865113793
-0.1282494869
-0.1184223386
-0.1127190167
-0.1061168755
-0.1026820218
-0.09812468622
-0.09613248535
-0.09295628543
-0.09191761763
-0.08970669601
-0.08930249065
-0.08777148621
-0.08777228351
-0.0867058291
-0.08692703331
-0.0861435563
-0.08641682446
-0.08574284643
-0.08589320278
-0.08514055511
-0.08496342117
-0.08390379894
-0.08313719252
-0.08147566622
-0.1160881301
-0.1072104061
-0.1020612446
-0.09609889163
-0.09300119557
-0.08888730423
-0.08709458624
-0.08422928719
-0.08329946578
-0.08130717001
-0.08095221403
-0.07957585644
-0.07958946083
-0.07863595805
-0.07885342038
-0.07816079343
-0.07843322921
-0.0778458665
-0.07801806211
-0.07736000349
-0.07724261155
-0.07627547811
-0.07559533148
-0.07394674953
-0.1035993383
-0.09569499273
-0.09111354821
-0.08580815531
-0.08305503559
-0.07939760819
-0.07780763457
-0.07526364933
-0.07444323144
-0.07267826223
-0.07237157725
-0.07115722525
-0.07118204148
-0.07034740223
-0.07055959618
-0.06996180541
-0.07023253209
-0.06973353917
-0.06992827331
-0.06936605455
-0.06931332828
-0.06844770658
-0.06787060425
-0.06627343177
-0.09074892166
-0.08384644557
-0.07984915246
-0.0752183577
-0.07281976456
-0.06962915769
-0.06824756972
-0.06602969691
-0.065320747
-0.06378319159
-0.06352308227
-0.06246650298
-0.06249617026
-0.06177202806
-0.06196630381
-0.06145120855
-0.06169907573
-0.06127409974
-0.06146011885
-0.06098307604
-0.06095730217
-0.06020484834
-0.05970971273
-0.05824941976
-0.07764738619
-0.07176506543
-0.06836253202
-0.06441986548
-0.0623818255
-0.05966867058
-0.05849832462
-0.05661534761
-0.05601854384
-0.05471583348
-0.05450150074
-0.0536087358
-0.0536413746
-0.05303173824
-0.05320521024
-0.05277350679
-0.05299450892
-0.05263958513
-0.05281236297
-0.05241334003
-0.0524142595
-0.05177829722
-0.05138641775
-0.05011765965
-0.06427079054
-0.05943020035
-0.0566346224
-0.05339305287
-0.05172276069
-0.04949425239
-0.04853905501
-0.04699375382
-0.04651028553
-0.04544143895
-0.04527115677
-0.04453770838
-0.04456772136
-0.04406453561
-0.04420571664
-0.04384560997
-0.04401871668
-0.04371864955
-0.04384199126
-0.04350657478
-0.04347840856
-0.04296686788
-0.04262227959
-0.04166603323
-0.05072140401
-0.04693504328
-0.04475396716
-0.04222325881
-0.04092523842
-0.03918952698
-0.03845185739
-0.0372514121
-0.03688214872
-0.0360536666
-0.03592727876
-0.03535892332
-0.03538554045
-0.03499346551
-0.03510149942
-0.03481580994
-0.03494119778
-0.0346960665
-0.03477421369
-0.03449946701
-0.03445977831
-0.0340714345
-0.03383129635
-0.0331822159
-0.03698822971
-0.03427038733
-0.03271168386
-0.03090003924
-0.02997887091
-0.0287401284
-0.02822256775
-0.02736815835
-0.02711423495
-0.02652491117
-0.02644223296
-0.02603581414
-0.02605731439
-0.02577167192
-0.0258426323
-0.02562568306
-0.02569548012
-0.02549902797
-0.02551454529
-0.02529239141
-0.02519431367
-0.02491562836
-0.02465761561
-0.02440703297
-0.02316148277
-0.02151882597
-0.020586883
-0.01950020395
-0.01895878828
-0.01822258274
-0.0179269297
-0.01742409589
-0.01728655368
-0.01694209741
-0.01690378326
-0.01666532262
-0.01668252668
-0.01650987969
-0.01654586386
-0.01640541547
-0.01642561431
-0.01628857152
-0.01625800701
-0.01610566438
-0.01599260875
-0.01584569591
-0.01566048403
-0.01572402233
-0.009245763891
-0.008685002191
-0.008383301138
-0.008024939445
-0.007865324907
-0.007632867763
-0.007560587769
-0.007409098913
-0.00738937133
-0.007288674635
-0.007296646968
-0.007224814545
-0.007240884132
-0.007180663018
-0.007187543281
-0.00712544419
-0.007107989238
-0.007037486202
-0.006987040482
-0.006921103247
-0.00685305193
-0.006859849663
-0.006864717848
-0.007122611626
0.004684485526
0.004162497086
0.003832811835
0.003460899814
0.003237580595
0.002963448631
0.002811317513
0.002607754541
0.002508677765
0.002360972931
0.00230562602
0.002205101446
0.00218872625
0.002129444323
0.002149638423
0.002124683639
0.002177735117
0.002171895841
0.0022449427
0.002218594013
0.00227081813
0.002125716746
0.002046344548
0.001570088466
0.01860663784
0.01700297093
0.01604285624
0.01494224623
0.01433647404
0.01355753783
0.01318067892
0.01262378784
0.01240437933
0.01200956487
0.01190347695
0.01163092407
0.01160803657
0.01142792796
0.01146452282
0.01134893546
0.01141991315
0.01133241688
0.01140004748
0.01127906503
0.01127402295
0.01100645911
0.01079967888
0.0101950728
0.03246543622
0.02978497117
0.02819660075
0.02636935512
0.02538193204
0.02409826609
0.02349664545
0.02258487207
0.02224454411
0.02159958743
0.02144179923
0.0209927636
0.02096227059
0.02065555873
0.02070800176
0.02049515804
0.02058609958
0.02041104363
0.02048309391
0.02026569795
0.02023082034
0.01984575643
0.01956220121
0.01881893414
0.04621819721
0.042469884
0.04025867499
0.03771134805
0.03634533525
0.03456181316
0.03373646238
0.032473267
0.03201093247
0.03111787311
0.03090477322
0.03027973609
0.03023485806
0.02980042901
0.02985803142
0.0295457554
0.02964158697
0.02937765462
0.02943516092
0.02912505438
0.02903988934
0.02855224096
0.02817703882
0.02733408092
0.05983174438
0.0550260717
0.05219757679
0.04893630596
0.047194612
0.04491442308
0.04386657367
0.04225291042
0.0416687399
0.04052671969
0.04025793416
0.03945455974
0.03939500411
0.03882948899
0.03889307842
0.038477807
0.03858233459
0.03822730004
0.03827987371
0.03787817944
0.03776065959
0.03717568707
0.03673249671
0.03579526311
0.07324188954
0.06739566153
0.06395972842
0.05999603869
0.05788435356
0.05511553592
0.05384780027
0.05188910901
0.05118301343
0.04979531936
0.04946804471
0.04848776923
0.04840787386
0.04771132564
0.04777244426
0.04725386768
0.04735666008
0.04691179281
0.04694938644
0.0464616131
0.04630650028
0.04563505697
0.04512828298
0.04410579092
0.0864397196
0.07956886131
0.07553446058
0.07087859133
0.06840208438
0.06515111395
0.063666222
0.06136626951
0.0605394599
0.05890783783
0.05852255132
0.05736565441
0.05726598968
0.05643780458
0.05649809817
0.05587548776
0.05598037739
0.05544587704
0.05547535982
0.05490400195
0.05472062804
0.0539687709
0.05340573056
0.05230946502
0.09933884528
0.09146785723
0.08684915736
0.08151750222
0.0786844774
0.07496254524
0.07326483754
0.07063116292
0.06968492541
0.06781417281
0.06736950586
0.06603870589
0.0659154656
0.06495698136
0.06501056967
0.06428484918
0.06438485517
0.06376262743
0.06377836971
0.06312826521
0.06291839967
0.06209601675
0.06149788305
0.06032456371
0.1119558955
0.1031059332
0.09791533105
0.09192221796
0.08874022319
0.0845572066
0.08265108836
0.07969047846
0.07862725214
0.07652197882
0.07601938842
0.07451781469
0.07437240191
0.07328583838
0.07333491454
0.07250781972
0.07260638134
0.07189776882
0.07190364155
0.07117511917
0.070939035
0.07004483897
0.06940067476
0.06816737747
0.1241825155
0.1143854744
0.1086412462
0.1020077143
0.09848754669
0.09385764626
0.09174918012
0.08847121409
0.0872937858
0.08496030721
0.08440008913
0.08273174663
0.08256240492
0.08135024402
0.08139128977
0.08046448564
0.08055651597
0.07976286466
0.07975197507
0.0789459696
0.07867311434
0.07770751384
0.07699990857
0.07572541069
0.136061072
0.1253431063
0.1190610458
0.1118054527
0.1079571084
0.1028936473
0.1005890271
0.0970036132
0.0957157534
0.09316165669
0.09254629219
0.09071724766
0.09052620494
0.08919357284
0.08922951562
0.08820753609
0.08829751369
0.08742288153
0.08740231134
0.0865225945
0.08622566545
0.08519283392
0.08444753104
0.08311686512
0.1474625774
0.1358625301
0.1290646965
0.1212123713
0.1170488961
0.1115687942
0.1090756245
0.105194137
0.1038000096
0.1010329119
0.100364288
0.09837963897
0.09816717736
0.09671758454
0.0967474514
0.09563295437
0.09571873868
0.09476551414
0.09473171742
0.09378091108
0.09345407239
0.09235729076
0.09156394077
0.09018556873
0.1584540838
0.146002862
0.1387083752
0.1302816007
0.1258154567
0.1199354569
0.1172617737
0.1130972462
0.1116019871
0.10863244
0.1079140193
0.1057827021
0.1055517046
0.103993044
0.1040201301
0.1028202064
0.1029063642
0.1018806249
0.101840107
0.1008222901
0.1004741186
0.09931256819
0.09847899189
0.09703757634
0.1688885674
0.1556313646
0.1478656331
0.1388935463
0.134139668
0.1278789821
0.1250335904
0.1205987793
0.1190075777
0.1158440806
0.1150789798
0.1128067677
0.1125592321
0.1108956736
0.1109213803
0.1096393944
0.109726851
0.1086315873
0.108584425
0.1075020767
0.1071307537
0.1059053301
0.1050264781
0.1035208617
0.1788553107
0.1648275366
0.1566128956
0.1471215561
0.1420948361
0.1354735361
0.1324663155
0.1277773028
0.1260966501
0.12275261
0.121945188
0.1195437019
0.1192829225
0.1175248277
0.1175522888
0.116197439
0.1162898011
0.1151325052
0.115082859
0.1139402054
0.1135493856
0.1122580296
0.1113337919
0.1097510685
0.1881932468
0.1734457048
0.1648103921
0.1548321554
0.1495489736
0.1425880308
0.1394285252
0.1344989078
0.1327344786
0.1292186902
0.1283726591
0.125847716
0.1255767162
0.1237282788
0.1237606197
0.1223364074
0.1224371821
0.1212210327
0.1211723793
0.1199717717
0.1195635654
0.1182060402
0.1172350068
0.1155696903
0.1970099303
0.1815822816
0.1725516906
0.1621162039
0.1565937906
0.1493164552
0.1460163418
0.1408651081
0.1390247186
0.1353532739
0.1344738226
0.1318394918
0.1315618115
0.1296355442
0.1296754204
0.1281928049
0.1283042275
0.1270379824
0.1269920845
0.1257384723
0.1253132165
0.1238877749
0.1228664186
0.1211055878
0.2051357219
0.1890835017
0.1796881268
0.1688303016
0.1630860082
0.1555144261
0.1520834754
0.1467244579
0.1448136192
0.1409949202
0.1400855144
0.1373468631
0.1370655189
0.1350647782
0.1351159067
0.13357773
0.1337048602
0.1323914342
0.1323545338
0.1310504825
0.1306141594
0.1291210022
0.1280517805
0.1261890415
0.2126909319
0.196057805
0.1863258909
0.1750787292
0.1691319638
0.161292351
0.1577439368
0.1521988298
0.1502266369
0.1462792506
0.1453458967
0.1425192016
0.14223797
0.1401771529
0.1402417003
0.1386604709
0.1388042499
0.1374537127
0.1374256038
0.136077362
0.1356281799
0.1340669976
0.1329450251
0.1309684986
0.2195042993
0.202349536
0.192313252
0.1807135304
0.174582181
0.1664972909
0.1628409458
0.1571232451
0.1550944144
0.1510256776
0.1500706874
0.1471594307
0.1468800716
0.1447606877
0.1448413862
0.1432181899
0.1433834852
0.1419975448
0.1419856669
0.1405956376
0.1401425488
0.1385147467
0.1373467672
0.1352522617
0.2257018733
0.2080728888
0.1977630603
0.1858468501
0.1795522563
0.1712509872
0.1675016026
0.1616354417
0.159560262
0.1553909665
0.1544211851
0.1514436063
0.151170256
0.1490083475
0.1491070923
0.1474558064
0.1476425868
0.1462326627
0.1462352998
0.1448115732
0.1443512849
0.1426594746
0.141440295
0.1392207099
0.231119078
0.2130777888
0.2025277165
0.1903329908
0.1838932563
0.175398498
0.1715650685
0.1655631834
0.1634451342
0.1591810589
0.1581969084
0.15515424
0.1548862284
0.1526805433
0.152797371
0.1511161514
0.1513269028
0.1498922326
0.1499157816
0.1484596991
0.1480028159
0.1462497479
0.144991194
0.1426465244
0.2358793551
0.2174766625
0.206719403
0.1942849498
0.1877229864
0.1790659452
0.1751645825
0.1690531912
0.16690358
0.1625674273
0.1615765817
0.1584887494
0.1582307406
0.1559986937
0.1561355308
0.154439315
0.154673358
0.1532264298
0.1532678393
0.1517895022
0.1513310403
0.1495239528
0.1482199767
0.1457541976
0.23983422
0.2211335377
0.2102030608
0.1975674511
0.1909014374
0.1821048369
0.1781439715
0.1719348878
0.1697558842
0.1653517367
0.1643524516
0.1612182161
0.1609664463
0.1587035985
0.1588565231
0.1571398003
0.1573952453
0.1559318508
0.1559941851
0.15449332
0.1540449588
0.1521889119
0.1508607052
0.1482759974
0.2430951653
0.2241505887
0.2130817337
0.2002860332
0.1935399515
0.1846368134
0.1806333152
0.1743543638
0.1721579591
0.1677100186
0.1667106728
0.1635513209
0.1633111233
0.1610359712
0.1612073081
0.1594856297
0.1597614999
0.1582942769
0.1583729436
0.1568603054
0.1564137719
0.1545206604
0.1531564148
0.1504774675
0.2455398623
0.2264151364
0.215242193
0.202325079
0.1955172638
0.1865300567
0.182492109
0.1761543482
0.1739418239
0.1694528073
0.1684499002
0.1652621453
0.1650269144
0.1627322547
0.1629139342
0.1611783378
0.1614671371
0.1599880855
0.1600797444
0.1585528687
0.1581178696
0.1561991624
0.1548414041
0.1520765899
0.2472580283
0.2280101023
0.2167691307
0.2037734003
0.1969282363
0.1878911593
0.1838357158
0.1774679376
0.175251397
0.1707464529
0.1697487343
0.1665548441
0.1663306495
0.1640359027
0.1642312974
0.1624978982
0.1627996566
0.1613208808
0.161420732
0.1598871747
0.1594507514
0.1575120401
0.1561369665
0.1533301255
0.2481636075
0.2288554183
0.2175808042
0.2045448753
0.1976811585
0.188616556
0.1845522187
0.1781652174
0.1759459858
0.1714272527
0.1704306126
0.1672263229
0.1670050523
0.1647016196
0.1648999248
0.1631578939
0.1634602427
0.1619709719
0.1620654485
0.1605173298
0.1600629039
0.158105587
0.1566921042
0.1538991161
0.2483149062
0.2290058449
0.2177341872
0.2047019211
0.1978435951
0.1887860406
0.1847289302
0.1783516241
0.176141036
0.1716338478
0.170646725
0.1674547608
0.1672430003
0.1649511894
0.1651575944
0.1634245766
0.1637317251
0.1622468456
0.1623410302
0.1607918537
0.1603327532
0.1583738118
0.1569620852
0.1541833866
0.2476715402
0.2284226702
0.2171883462
0.2041976619
0.197364478
0.1883365086
0.1842965951
0.1779402573
0.1757410163
0.1712480338
0.1702674075
0.1670839786
0.1668742618
0.1645859981
0.1647899771
0.1630560914
0.163356053
0.1618670141
0.1619491756
0.1603961888
0.1599225534
0.1579717886
0.15655532
0.1538289825
0.2462517902
0.2271244332
0.2159637872
0.2030588187
0.1962732792
0.1873088717
0.1833002867
0.1769928962
0.1748143337
0.1703600263
0.1693928386
0.1662402379
0.1660386764
0.1637745698
0.1639823573
0.1622665108
0.162566457
0.1610903207
0.1611700529
0.1596283944
0.1591549292
0.1572242077
0.1558234355
0.1531470996
0.2440687411
0.2251211376
0.2140685259
0.2012865616
0.1945699823
0.1856923076
0.1817275074
0.175481698
0.1733294481
0.1689182098
0.16796443
0.1648407541
0.1646426833
0.162396636
0.1626003251
0.1608947847
0.1611855375
0.1597160713
0.1597853305
0.1582537706
0.1577758424
0.1558718554
0.1544874062
0.1518781046
0.2410939626
0.2223887318
0.2114793697
0.1988639169
0.1922362545
0.1834775834
0.1795673677
0.1734089049
0.1712887404
0.1669428198
0.1660062057
0.1629319957
0.1627413322
0.1605330723
0.1607381638
0.1590620087
0.1593514529
0.157906632
0.1579760301
0.156470223
0.1560008388
0.1541342011
0.152778776
0.1502359752
0.2373992773
0.2189910429
0.2082593011
0.1958469615
0.1893317235
0.1807163482
0.1768768098
0.1708206031
0.1687426916
0.1644694141
0.1635548266
0.1605313168
0.1603481011
0.1581744495
0.1583770806
0.1567248475
0.1570068905
0.1555815515
0.1556450998
0.1541627662
0.1536983918
0.151871104
0.1505449682
0.1480735966
0.2329057083
0.2148576139
0.2043366754
0.1921693613
0.1857828462
0.1773401507
0.1735773434
0.1676455324
0.1656103218
0.1614281025
0.1605340268
0.1575782897
0.1574019542
0.155280092
0.1554827367
0.1538722551
0.1541534783
0.1527656194
0.1528338241
0.1513913981
0.1509447798
0.1491683576
0.1478827274
0.1454834305
0.2277456857
0.2101081242
0.199832397
0.1879459963
0.1817144306
0.1734702736
0.1698049592
0.1640155811
0.1620392926
0.1579595368
0.1570976094
0.1542152484
0.1540524782
0.1519831125
0.1521874103
0.1506157599
0.1508934255
0.1495382399
0.1496056307
0.1481984487
0.1477637596
0.1460352999
0.144786214
0.1424576332
0.2217895002
0.2046252247
0.1946250044
0.1830588643
0.1769939019
0.168973642
0.165405822
0.1597759782
0.1578519563
0.1538875022
0.1530486113
0.1502511836
0.1500941226
0.1480896852
0.1482920732
0.1467737867
0.147050512
0.1457446303
0.1458201499
0.1444652908
0.1440556888
0.1423890843
0.141189322
0.138936454
0.2152279616
0.1985827135
0.1888923854
0.1776816213
0.1718125016
0.1640438594
0.1605997006
0.1551512248
0.1533030104
0.1494703793
0.1486747626
0.145973574
0.1458378433
0.1439044098
0.1441145199
0.1426506413
0.1429292929
0.1416694321
0.1417496234
0.1404409193
0.1400486887
0.1384371093
0.1372782774
0.1350962292
0.2078846756
0.191819769
0.1824660263
0.1716465383
0.1659795774
0.1584829483
0.1551554517
0.1498992128
0.1481115763
0.1444164081
0.1436451286
0.1410440566
0.1409113837
0.1390539145
0.1392581681
0.1378568194
0.1381315823
0.1369299421
0.1370179984
0.1357709458
0.1354068893
0.1338663027
0.1327626248
0.1306636554
0.2000020977
0.1845583879
0.1755753766
0.1651813462
0.1597487137
0.1525536954
0.1493746499
0.1443365816
0.1426411002
0.1391057398
0.1383890766
0.1359063611
0.1358036869
0.1340354966
0.1342550134
0.1329237957
0.1332077763
0.1320658753
0.1321658624
0.1309763871
0.130636496
0.1291590455
0.1281018316
0.1260776811
0.1913656447
0.1766018593
0.1680121897
0.1580753777
0.152877829
0.1459993014
0.1429544127
0.1381384696
0.1365106319
0.1331324469
0.1324401421
0.1300702526
0.1299662223
0.1282821916
0.1284892356
0.1272262663
0.1274995427
0.1264207635
0.1265233902
0.1254010082
0.1250872943
0.1236882135
0.1226893322
0.1207601419
0.1822581944
0.1682102248
0.1600473653
0.1506006866
0.1456727321
0.1391417725
0.1362679109
0.1317038311
0.130183005
0.1269901616
0.1263629145
0.124131547
0.1240658393
0.1224878383
0.1227179271
0.1215397344
0.1218304066
0.1208245833
0.1209479774
0.1198949247
0.1196143934
0.1182881314
0.1173440013
0.1154971993
0.1724396761
0.1591624622
0.1514447714
0.1425154338
0.137852658
0.1316786313
0.1289548402
0.1246397968
0.1231927459
0.1201743278
0.1195706549
0.1174624217
0.1173897819
0.1159014259
0.1161104825
0.1150030171
0.1152732042
0.1143317232
0.1144487259
0.113464749
0.1132046848
0.1119624461
0.1110780994
0.1093403122
0.1622181725
0.1497426846
0.1425022599
0.1341213602
0.1297594467
0.1239740059
0.1214407622
0.1174072106
0.1160795028
0.1132684022
0.1127379898
0.1107851457
0.110757072
0.1093883134
0.1096262429
0.1086151187
0.1089091203
0.1080510255
0.108196258
0.1072913659
0.1070728502
0.1059126921
0.1050918552
0.1034458627
0.1513442803
0.1397204742
0.1329715957
0.1251617061
0.1210921238
0.1156997589
0.1133311483
0.1095706096
0.1083224397
0.105700878
0.1051933871
0.1033722036
0.1033318395
0.1020564555
0.1022647757
0.1013249585
0.1015882883
0.1007937623
0.100922876
0.1000872392
0.09988283495
0.09881112549
0.09805123677
0.09652755116
0.1401331047
0.1293871409
0.1231595992
0.1159492256
0.1122071125
0.1072386447
0.105076332
0.1016220608
0.1005021404
0.09810541045
0.09767591916
0.09602258069
0.09602924994
0.09488242967
0.09512117934
0.09428437268
0.0945731134
0.09386736937
0.09402701129
0.09327566056
0.09311637473
0.09213315911
0.09144246699
0.09002033123
0.1283442481
0.1185199698
0.1128244518
0.1062317649
0.1028061181
0.09826239384
0.09627819504
0.09311813552
0.09208379361
0.08989008192
0.08948408413
0.08797003014
0.08796089534
0.08691071217
0.08711349011
0.08634836282
0.08659866013
0.08595567316
0.08609192925
0.08540996742
0.08526055949
0.08436954532
0.08374169528
0.08245234245
0.1162801689
0.1073990669
0.1022619517
0.09631192919
0.09323522559
0.08914444949
0.08737807834
0.08454372417
0.08364257944
0.08168628383
0.08135885962
0.08002021765
0.08005586981
0.07913812499
0.07936740788
0.07870657403
0.07897759031
0.07842325824
0.07858553488
0.07798798047
0.07788081523
0.07708121443
0.07652381719
0.07534537955
0.1037283499
0.09582714717
0.09125622675
0.08596310621
0.08322388305
0.07958488439
0.07800920857
0.07548762754
0.07467888143
0.0729379034
0.07263663687
0.07144477292
0.07146420299
0.07064693476
0.0708376647
0.07024985819
0.07047874781
0.06998740148
0.07012289268
0.06959545721
0.06949673471
0.0687923061
0.06829999868
0.06726116765
0.09095924411
0.08405489209
0.08007198477
0.07545622434
0.07308205293
0.0699184974
0.06856785467
0.06638596345
0.06571138693
0.06421554851
0.06398933236
0.06297586433
0.06303333107
0.06234792445
0.06255623952
0.06206971232
0.06230929353
0.0619025262
0.06205427711
0.06160811802
0.06154429205
0.06093208581
0.0605086938
0.0595895559
0.07780574673
0.07192700864
0.06853777449
0.06461024424
0.06259125531
0.05990167065
0.05875339098
0.05690020385
0.05632580142
0.05505662865
0.05486170326
0.05400280785
0.05404726634
0.05346729372
0.05363880241
0.05322808022
0.05342621376
0.05308381046
0.05320891228
0.05283381737
0.05277874985
0.05226330152
0.0519063617
0.05113013277
0.06448915411
0.05964854263
0.05686920268
0.05364493818
0.05200175476
0.04980350696
0.04888339043
0.04737865184
0.04693591084
0.04591527265
0.04578857145
0.04510738197
0.04517982336
0.04472806887
0.04490501537
0.04459020221
0.04478616655
0.04452277306
0.04465237342
0.04435479965
0.04432639202
0.04390384019
0.04361423527
0.04296589668
0.05090213277
0.04711980677
0.04495454471
0.04244155172
0.04116762931
0.03946040733
0.03875313794
0.03759020642
0.03725613662
0.03647247896
0.03638447593
0.03586599608
0.03593210807
0.03559199791
0.03573802117
0.03550336068
0.03566260316
0.03546612686
0.03557221961
0.03534674783
0.03532849391
0.03500288028
0.0347798331
0.03427488768
0.03720360916
0.03448770341
0.03294637603
0.03115359525
0.03026109258
0.02905465374
0.02857512914
0.02776464477
0.02755711795
0.02702186052
0.02699321553
0.02664923643
0.02673167763
0.02651459437
0.02665284164
0.02650818012
0.02665211798
0.0265295315
0.02662911307
0.02647854151
0.02648034234
0.02624929663
0.02609358599
0.0257241344
0.0233556538
0.02171729375
0.02080300481
0.01973587552
0.01922266066
0.01851876627
0.01826086633
0.01780204446
0.0177117715
0.01742236399
0.01744136709
0.01726823866
0.01735374266
0.01725560787
0.01737233226
0.01731389005
0.01742961433
0.01737823813
0.01746078036
0.01738442679
0.01739985353
0.01726572145
0.01717682772
0.01694933054
0.00944688968
0.008889847043
0.008605712687
0.00826675088
0.008135778656
0.007935940696
0.007902499835
0.007795930252
0.007825515544
0.007781693939
0.007850568266
0.007847310331
0.007937632422
0.007957009211
0.008053580591
0.008079856751
0.00816863905
0.008187359738
0.008254411584
0.008251874711
0.008282902781
0.008245950796
0.008225798639
0.008140599722
-0.004487341234
-0.003961180707
-0.003613099068
-0.003221022911
-0.002967235495
-0.002659016826
-0.002464475332
-0.002213387144
-0.002058839835
-0.00185011657
-0.001724296436
-0.00154931404
-0.001445140146
-0.001299016662
-0.001212227728
-0.001092121756
-0.001019892799
-0.0009234124987
-0.0008632664441
-0.000787130027
-0.0007354995323
-0.0006742104806
-0.0006252098629
-0.0005710830323
-0.01843064309
-0.01682189944
-0.01584515132
-0.01472587694
-0.01409341751
-0.01328372842
-0.01287018547
-0.01227069441
-0.01200352572
-0.01155398241
-0.01138708296
-0.01104745034
-0.01094831663
-0.01068973156
-0.01063316834
-0.01043246432
-0.01039625409
-0.01023207698
-0.01019408644
-0.0100441488
-0.009979858142
-0.009818636495
-0.009699291184
-0.009497435112
-0.03227666667
-0.0295926753
-0.02798658547
-0.02614013527
-0.02512250409
-0.02380573256
-0.02316105825
-0.02220249754
-0.02180466836
-0.0210990352
-0.02086706109
-0.02034373949
-0.02022042668
-0.01982808809
-0.01976926554
-0.01946674809
-0.01943419718
-0.01918425247
-0.01914078747
-0.01890562816
-0.01881088284
-0.01854850199
-0.01835543648
-0.01801772952
-0.04607712807
-0.04232297347
-0.04009724548
-0.03753335954
-0.03614465144
-0.03433457005
-0.03347793938
-0.03217806599
-0.03167459174
-0.03073435692
-0.03046837972
-0.02978571535
-0.02967450643
-0.02917390915
-0.02915199749
-0.02877173429
-0.02878095735
-0.02846462229
-0.02844750417
-0.02813823286
-0.0280328486
-0.02766869136
-0.02740466978
-0.02691614897
-0.05966271219
-0.05485471232
-0.05201072245
-0.04873290498
-0.04696408578
-0.04465478136
-0.04356779058
-0.04191271409
-0.04127597689
-0.04008030216
-0.03974384242