/*--------------------------------*- C++ -*----------------------------------*\
| =========                 |                                                 |
| \\      /  F ield         | foam-extend: Open Source CFD                    |
|  \\    /   O peration     | Version:  3.0                                   |
|   \\  /    A nd           | Web:         http://www.extend-project.de       |
|    \\/     M anipulation  |                                                 |
\*---------------------------------------------------------------------------*/
FoamFile
{
    version     2.0;
    format      ascii;
    class       volSymmTensorField;
    location    "23";
    object      sigma;
}
// * * * * * * * * * * * * * * * * * * * * * * * * * * * * * * * * * * * * * //

dimensions      [0 0 0 0 0 0 0];

internalField   nonuniform List<symmTensor> 
2688
(
(-0.1792968988 -0.004943964384 1.278345572e-19 0.1794739724 2.33341402e-19 -0.0001770736205)
(-0.1756035293 -0.005850303076 7.772174138e-20 0.1760829373 8.794665164e-20 -0.0004794080581)
(-0.1683105464 -0.006279897018 -9.289253813e-20 0.1690604188 5.920571969e-19 -0.0007498724326)
(-0.1588445756 -0.006401787744 6.655118547e-20 0.1598383985 1.98646097e-19 -0.0009938228995)
(-0.1487970952 -0.006358116425 4.390397943e-20 0.1500123135 3.331046088e-19 -0.001215218318)
(-0.1383637929 -0.006206645147 8.365557401e-20 0.1397798349 1.000666404e-19 -0.001416042026)
(-0.1282292815 -0.006001082712 6.759055326e-20 0.129827444 2.166242882e-19 -0.001598162544)
(-0.1183164861 -0.00576435056 5.725839484e-20 0.1200780086 5.760844146e-20 -0.001761522532)
(-0.1089344233 -0.005517616904 1.006893097e-23 0.1108413497 1.197593372e-19 -0.001906926399)
(-0.09997228854 -0.005271232062 -5.249188276e-20 0.1020051145 -5.861981657e-20 -0.00203282598)
(-0.09156989274 -0.005033090359 5.259095894e-20 0.09370939757 3.536223413e-19 -0.002139504829)
(-0.08364287152 -0.004809541356 -8.148023028e-21 0.08586691451 9.905039604e-20 -0.002224042989)
(-0.07624525403 -0.004601910978 2.754944738e-19 0.07853165318 8.294042997e-20 -0.002286399155)
(-0.06933559031 -0.004416440308 -2.746842038e-20 0.07165771296 5.46331691e-20 -0.002322122652)
(-0.06291597265 -0.00425046051 -6.074981395e-20 0.0652467664 8.74923281e-20 -0.002330793746)
(-0.05699285247 -0.004111984252 7.361932509e-21 0.05929901923 6.303782501e-20 -0.002306166754)
(-0.05153045008 -0.003995409684 -1.441621056e-20 0.05377764664 1.855793356e-19 -0.002247196554)
(-0.04658446451 -0.003911207392 1.360383822e-19 0.0487301135 1.381459838e-19 -0.00214564899)
(-0.04208821574 -0.00385123794 -1.358317532e-19 0.04408759888 -3.948717662e-20 -0.001999383145)
(-0.03814474012 -0.003827284974 8.519661764e-20 0.03994289132 2.710083688e-19 -0.001798151206)
(-0.03466658248 -0.003828996911 1.251465847e-19 0.03620448136 -1.40174929e-19 -0.001537898874)
(-0.03179458442 -0.003867575672 3.664202221e-20 0.03300113719 -1.615091142e-19 -0.001206552764)
(-0.02944540425 -0.003918987388 -3.259729986e-20 0.03024233821 3.720250749e-20 -0.0007969339596)
(-0.02778349961 -0.004029734335 -5.392271986e-20 0.02807908655 -3.870084766e-19 -0.0002955869485)
(-0.1788016698 -0.01468289684 5.727750323e-20 0.1789770314 -3.624930279e-19 -0.0001753615515)
(-0.174677639 -0.01732898181 2.607129224e-19 0.1751523765 -1.741919828e-19 -0.0004747374823)
(-0.167133986 -0.01855445925 5.968729548e-20 0.1678765215 -3.089325243e-19 -0.0007425354472)
(-0.1575351284 -0.01886205987 -1.270940765e-19 0.1585192185 3.450059003e-20 -0.0009840900613)
(-0.1474241502 -0.01867278885 4.204308299e-20 0.1486274692 -4.317300526e-20 -0.001203319015)
(-0.1369729407 -0.01815856717 -5.54156754e-20 0.1383751507 -2.060669405e-19 -0.001402209944)
(-0.1268486483 -0.01747773399 1.526393947e-19 0.1284312522 1.86424399e-19 -0.001582603944)
(-0.1169634655 -0.01669791179 -4.568880562e-20 0.1187079167 -3.676380961e-19 -0.001744451139)
(-0.107619931 -0.01588108553 -8.521656156e-20 0.1095084787 1.026811976e-19 -0.001888547616)
(-0.09870176431 -0.01505710528 2.280850245e-19 0.100715123 -3.490583488e-19 -0.002013358692)
(-0.09034672499 -0.0142485697 1.324732643e-19 0.09246589778 -1.042475781e-19 -0.002119172787)
(-0.08246697025 -0.0134731489 -6.251384611e-20 0.084670063 -1.970275334e-19 -0.002203092756)
(-0.07511669413 -0.01273385045 -8.719770244e-20 0.07738178122 4.364239365e-20 -0.002265087095)
(-0.0682514829 -0.01204746468 1.304952974e-19 0.07055221749 1.400819346e-20 -0.002300734589)
(-0.06187506318 -0.01140503672 2.529374297e-22 0.06418468319 8.427882071e-20 -0.002309620004)
(-0.05599078998 -0.01082767836 7.393930764e-20 0.05827631982 3.916216582e-19 -0.002285529841)
(-0.0505657072 -0.01029790123 2.738899543e-19 0.05279312185 -3.232177046e-19 -0.002227414649)
(-0.04565189657 -0.009843219888 -3.44340225e-19 0.04777897866 4.040229074e-19 -0.002127082096)
(-0.04118615196 -0.009439932645 2.671064063e-19 0.04316853541 2.621850994e-19 -0.001982383454)
(-0.03726704351 -0.00911981654 5.531121632e-20 0.03905017111 -9.488528221e-20 -0.001783127605)
(-0.03380967771 -0.008856610036 -4.568936465e-19 0.03533492318 9.582479792e-20 -0.001525245468)
(-0.03094955586 -0.008679217672 1.533205339e-19 0.0321462959 2.429727499e-19 -0.001196740045)
(-0.02860494948 -0.008550090047 -2.812589252e-19 0.02939538371 2.755438123e-19 -0.000790434236)
(-0.02693113447 -0.008509992301 1.970647512e-19 0.02722420191 -2.900364771e-19 -0.0002930674441)
(-0.1778127798 -0.02439328927 1.586817026e-19 0.1779859141 3.071656422e-19 -0.0001731342843)
(-0.1728420591 -0.02866025631 6.05992252e-20 0.1733107588 3.992512234e-19 -0.0004686997666)
(-0.164806342 -0.03060933914 3.071843407e-20 0.1655394027 1.604416967e-19 -0.0007330606996)
(-0.154947601 -0.03106063755 2.488854595e-19 0.1559190905 6.628203725e-20 -0.0009714894986)
(-0.1447136405 -0.03070277138 -1.505997023e-19 0.1459015147 2.782905495e-19 -0.001187874243)
(-0.1342292979 -0.0298145716 2.348601382e-19 0.1356134753 6.802416466e-20 -0.001384177455)
(-0.1241275264 -0.02865537718 -4.08416439e-20 0.125689763 2.262775677e-19 -0.001562236588)
(-0.1142991272 -0.02733405976 -3.573038543e-20 0.1160211363 1.719548732e-19 -0.001722009116)
(-0.1050341463 -0.02595214828 -2.92531572e-20 0.1068984474 4.300146838e-19 -0.001864301079)
(-0.09620536505 -0.02455731348 -2.840807405e-19 0.09819296403 2.067177264e-19 -0.001987598986)
(-0.08794662613 -0.02318645355 1.464185908e-19 0.09003882862 4.127715107e-19 -0.002092202497)
(-0.08016321156 -0.02186754829 1.312905417e-19 0.08233845323 7.540584044e-20 -0.002175241675)
(-0.07290962613 -0.02060534459 4.669968055e-19 0.07514632309 -8.274959844e-20 -0.002236696964)
(-0.06613570424 -0.0194262849 3.151134378e-20 0.06840788404 -7.867468548e-20 -0.002272179808)
(-0.05984821893 -0.01831548159 3.383501514e-19 0.06212950986 -6.264975441e-20 -0.002281290926)
(-0.05404457851 -0.01730609226 -3.031870849e-19 0.05630243393 -9.421033416e-20 -0.002257855412)
(-0.04869705307 -0.01636932217 -3.802575523e-20 0.05089789968 1.672122778e-19 -0.002200846607)
(-0.0438509808 -0.01554848261 9.2031218e-19 0.04595309791 -1.274607851e-19 -0.002102117116)
(-0.03944986543 -0.01480519462 -6.069535247e-19 0.04140941568 1.51799167e-19 -0.001959550249)
(-0.0355845645 -0.01419023548 -2.287666571e-20 0.03734757248 -1.55763748e-20 -0.001763007977)
(-0.03217598954 -0.01366274302 4.985504205e-19 0.0336844571 9.083325648e-20 -0.001508467551)
(-0.02935088054 -0.01326937128 3.921792844e-19 0.03053487693 -3.178794263e-19 -0.001183996388)
(-0.02703140574 -0.01296131473 -6.476678025e-19 0.02781385006 3.082671614e-19 -0.000782444318)
(-0.02535853471 -0.01276812221 -3.532627543e-20 0.02564900591 -3.673070776e-19 -0.0002904712)
(-0.1763292486 -0.03405646329 5.7622807e-20 0.1764996115 -5.914006444e-21 -0.0001703628576)
(-0.1701230544 -0.03974930902 1.539892011e-19 0.1705842183 -1.475365181e-19 -0.0004611638917)
(-0.1613707104 -0.04230383941 -6.018474755e-20 0.1620919441 -6.940167313e-19 -0.0007212336738)
(-0.1511349004 -0.04283100088 -1.161055536e-19 0.152090669 1.539842505e-19 -0.0009557686155)
(-0.1407242242 -0.04226679748 1.120090055e-19 0.1418928307 -1.999663496e-19 -0.001168606442)
(-0.1301943939 -0.0409869278 -1.424179246e-19 0.1315560793 7.226156313e-20 -0.0013616854)
(-0.1201284633 -0.03934435197 3.181675746e-19 0.1216652877 -4.155155901e-20 -0.001536824359)
(-0.1103859785 -0.03748457978 4.681810913e-20 0.1120799698 2.508662419e-19 -0.001693991271)
(-0.1012386406 -0.03554600543 1.148643249e-19 0.1030726309 -4.196729946e-19 -0.001833990306)
(-0.09254341624 -0.0335916756 2.002485959e-19 0.09449875335 7.422360241e-20 -0.00195533711)
(-0.08442827453 -0.03167200808 -1.959927924e-20 0.08648660676 1.938659402e-19 -0.002058332233)
(-0.07678862573 -0.02982370898 -4.789362902e-19 0.07892877529 -3.08843855e-19 -0.002140149559)
(-0.06967926447 -0.02805340609 -3.616563668e-19 0.07188003295 4.194031649e-19 -0.002200768482)
(-0.06304173901 -0.02639582483 2.688750991e-19 0.06527760153 -3.760124345e-19 -0.002235862525)
(-0.05688703676 -0.02483080707 -1.437796568e-19 0.05913206437 8.749045001e-19 -0.002245027612)
(-0.05120397047 -0.0234020205 4.645762466e-19 0.05342614547 -3.437038359e-20 -0.002222175005)
(-0.04597217284 -0.02207038271 4.317660772e-20 0.04813844257 2.965895223e-19 -0.002166269734)
(-0.04122740314 -0.02089312155 -2.161300849e-19 0.04329668345 -3.260185721e-19 -0.002069280306)
(-0.03692308416 -0.0198186076 6.351890357e-19 0.03885216663 -8.60307151e-20 -0.001929082472)
(-0.03313963245 -0.01891471033 -1.595000481e-19 0.03487532448 7.404351923e-20 -0.001735692039)
(-0.02980784177 -0.01812808846 -8.527539273e-19 0.03129293911 1.406437223e-19 -0.001485097338)
(-0.02704279134 -0.01752127875 6.486824819e-19 0.02820837229 -1.368591025e-19 -0.001165580953)
(-0.02477326455 -0.0170403229 -1.619120659e-19 0.0255433442 5.804650782e-19 -0.0007700796493)
(-0.02312489064 -0.01668845553 2.571039114e-19 0.0234105628 -3.144324984e-19 -0.0002856721557)
(-0.1743501446 -0.04365192428 3.234212958e-20 0.1745171852 2.059493946e-19 -0.0001670405766)
(-0.1665594422 -0.05050692576 -2.849453163e-19 0.1670115811 -2.045555708e-19 -0.0004521388602)
(-0.1568904059 -0.05350648244 2.397764468e-19 0.1575974862 -2.05523954e-19 -0.0007070802762)
(-0.1461749092 -0.05401747089 4.951848665e-19 0.1471118756 2.304455156e-19 -0.0009369664101)
(-0.1355418887 -0.05319614951 -1.152221918e-19 0.1366874626 -2.164073138e-19 -0.001145573865)
(-0.1249585211 -0.05150075452 2.362806477e-19 0.1262933301 4.602255381e-19 -0.001334808954)
(-0.1149433021 -0.0493684703 1.974620628e-19 0.1164497712 -2.653934818e-19 -0.001506469055)
(-0.1053158203 -0.04697464032 -3.212095287e-19 0.1069763474 4.566448172e-19 -0.001660527088)
(-0.09632409435 -0.04449124388 -2.466046479e-19 0.09812188107 3.689769553e-19 -0.001797786722)
(-0.08780485084 -0.04199316974 3.671011263e-19 0.08972164241 -2.512685787e-19 -0.001916791572)
(-0.0798785158 -0.0395434267 8.553593744e-20 0.08189636667 -2.08997962e-19 -0.002017850873)
(-0.072427865 -0.03718527218 4.126628128e-19 0.0745260489 -9.664199251e-20 -0.002098183902)
(-0.06550804322 -0.03492743838 2.087421843e-19 0.06766582915 4.057921591e-19 -0.002157785937)
(-0.0590499939 -0.03281114408 4.465783808e-19 0.06124238702 -3.154328966e-19 -0.002192393117)
(-0.05306996038 -0.03081185948 7.157314883e-19 0.05527158697 3.458743889e-19 -0.002201626592)
(-0.04754576139 -0.0289817527 -7.02367258e-19 0.04972524065 -1.002537767e-18 -0.002179479256)
(-0.04246614763 -0.02727273714 -6.83591004e-20 0.04459110204 -5.563591439e-19 -0.002124954406)
(-0.03785480178 -0.02575322626 2.45616737e-19 0.03988492365 9.687645936e-20 -0.002030121877)
(-0.03367758413 -0.02435994069 -2.643508181e-19 0.03557049738 -4.8088782e-20 -0.001892913248)
(-0.03000229627 -0.02317444006 6.205667487e-19 0.03170576272 -8.680692766e-20 -0.001703466454)
(-0.02677266913 -0.022133856 2.01151392e-19 0.02823052618 -6.066268818e-20 -0.001457857046)
(-0.02408945185 -0.02131376329 5.936982101e-19 0.02523397309 5.104069466e-19 -0.001144521249)
(-0.02188997593 -0.02066686158 -1.600830501e-19 0.02264648411 -8.561191988e-19 -0.0007565081862)
(-0.02026703518 -0.02016026411 -4.667840046e-19 0.02054798867 1.065898931e-18 -0.0002809534946)
(-0.1718739191 -0.05315936429 -3.09614024e-19 0.172037107 5.423035306e-19 -0.000163187924)
(-0.1622014171 -0.06085001364 -4.224447867e-19 0.162643081 5.032321589e-19 -0.0004416639153)
(-0.1514472062 -0.06409705741 -3.481231257e-20 0.1521378593 -1.330163445e-19 -0.0006906530848)
(-0.1401677884 -0.06447856859 -1.717056043e-19 0.1410829364 3.563293682e-19 -0.0009151480252)
(-0.1292775096 -0.06333768764 2.193454332e-19 0.1303963586 2.32636894e-19 -0.001118848974)
(-0.1186378443 -0.06119770669 -1.209628808e-19 0.1199414696 -2.23185514e-19 -0.001303625307)
(-0.1086902316 -0.05856810218 4.230216925e-19 0.1101614732 -6.841648528e-20 -0.00147124162)
(-0.09920670555 -0.0556459848 5.985832049e-19 0.1008283834 5.181144708e-19 -0.00162167787)
(-0.09040694755 -0.05263256471 -2.55607527e-19 0.09216267354 -1.042397171e-18 -0.001755725987)
(-0.08210374395 -0.04961042143 -7.207747909e-19 0.08397571121 9.564612442e-19 -0.001871967254)
(-0.07440843453 -0.04665382922 6.108182342e-20 0.07637914123 1.730916568e-19 -0.001970706708)
(-0.06718892837 -0.04381003311 -1.84110038e-20 0.06923815752 -2.770280683e-20 -0.002049229154)
(-0.06050066898 -0.04109006502 -4.098154187e-19 0.06260819672 -4.199827188e-20 -0.00210752774)
(-0.05426208467 -0.03853956117 -5.821845189e-22 0.05640352135 1.047053762e-19 -0.002141436681)
(-0.04849538855 -0.03613072421 -2.727568942e-19 0.05064596458 1.749549132e-21 -0.002150576026)
(-0.04316528963 -0.0339220191 -3.89820872e-19 0.04529436622 -1.799867129e-19 -0.00212907659)
(-0.03827068681 -0.03185798594 4.287474388e-19 0.04034663086 1.276470988e-18 -0.002075944054)
(-0.03382084437 -0.03001535356 3.91150382e-19 0.03580427386 -6.108611611e-21 -0.001983429485)
(-0.02979542549 -0.02832112814 2.171836593e-19 0.03164490104 5.520616438e-19 -0.00184947555)
(-0.02624815666 -0.0268667354 -4.079789728e-19 0.0279125998 3.741595706e-19 -0.001664443138)
(-0.02313892907 -0.02558352243 -1.109106762e-19 0.02456337629 4.258836347e-19 -0.001424447216)
(-0.02055689967 -0.02455426824 -2.234068433e-19 0.02167510195 1.087587192e-18 -0.001118202275)
(-0.01844749294 -0.02375953607 1.17334673e-18 0.01918639936 -1.336027681e-19 -0.0007389064211)
(-0.01690499404 -0.0231106709 -2.561390149e-19 0.01717918233 2.051487654e-18 -0.0002741882856)
(-0.1688997688 -0.06255648448 5.141595041e-19 0.1690585692 -1.073273211e-18 -0.0001588004353)
(-0.1571091719 -0.07070482594 -8.481748949e-19 0.1575389258 2.881695241e-20 -0.0004297538669)
(-0.1451390684 -0.07397012876 3.034515793e-19 0.1458110549 -6.51681883e-19 -0.0006719865435)
(-0.1332337294 -0.07409114954 5.318911648e-19 0.1341240952 6.113267277e-19 -0.0008903657272)
(-0.1220637843 -0.07255879084 -1.162845597e-19 0.1231522885 -1.016393469e-18 -0.001088504238)
(-0.1113715384 -0.06994103875 -1.466282609e-19 0.1126397658 4.441774869e-19 -0.001268227433)
(-0.1015106943 -0.06680592931 5.460998062e-19 0.1029419575 -2.58350908e-20 -0.001431263211)
(-0.09219987491 -0.06336275046 -3.758270632e-19 0.09377746948 -1.040764939e-18 -0.001577594568)
(-0.0836264726 -0.0598370766 4.971855201e-19 0.08533447608 -4.549310882e-19 -0.001708003477)
(-0.07557645809 -0.05631419165 1.341569569e-18 0.07739756513 2.244311462e-19 -0.00182110704)
(-0.06815082902 -0.05287822895 -7.094288865e-19 0.07006804403 -7.773882147e-19 -0.001917215008)
(-0.06120088027 -0.04957737608 1.834971423e-19 0.0631945564 4.263453088e-19 -0.001993676138)
(-0.05478237784 -0.04642527915 3.293910051e-19 0.05683287818 3.69758087e-19 -0.002050500338)
(-0.04879975193 -0.04346965816 2.136035179e-19 0.05088336778 6.916135728e-19 -0.002083615853)
(-0.04328184335 -0.04068084518 7.681158428e-19 0.04537451822 -3.124692841e-19 -0.002092674869)
(-0.03817862046 -0.03812137133 -3.962549269e-19 0.04025055791 1.153225606e-18 -0.002071937451)
(-0.03349990435 -0.03573046405 1.964721808e-19 0.03552036709 -4.813618957e-19 -0.002020462741)
(-0.0292387261 -0.03359029641 -5.258759703e-19 0.03116939331 3.664380476e-19 -0.001930667214)
(-0.0253888178 -0.03162017365 6.45970223e-19 0.02718939008 -2.838272318e-19 -0.001800572281)
(-0.02198894428 -0.02991564241 5.032526194e-19 0.02360967357 5.125880467e-19 -0.00162072929)
(-0.01901453157 -0.02840481563 1.407825607e-18 0.02040189466 -5.682026137e-19 -0.001387363083)
(-0.01654650483 -0.02716281326 -2.429225057e-19 0.01763589249 8.446913929e-19 -0.001089387656)
(-0.01454481633 -0.02622134504 1.150981143e-18 0.01526497345 4.309805024e-19 -0.0007201571181)
(-0.01305481958 -0.0254212083 -7.186962528e-19 0.01332227372 -3.891514971e-19 -0.0002674541327)
(-0.1654266173 -0.07182038665 1.938361174e-19 0.1655805262 1.173146172e-18 -0.0001539089801)
(-0.1513518345 -0.08000676065 1.917304646e-19 0.1517682995 6.411784421e-20 -0.0004164650083)
(-0.1380778288 -0.08303684618 -4.109353488e-19 0.1387289865 8.8191017e-19 -0.0006511577627)
(-0.1255095591 -0.08275263262 2.12352246e-19 0.1263722741 -7.917953866e-19 -0.0008627150146)
(-0.1140519435 -0.08074966204 3.757185044e-19 0.1151065924 -2.129824798e-19 -0.001054648845)
(-0.1033180154 -0.07761798567 7.366327197e-20 0.1045467502 7.488451758e-19 -0.001228734809)
(-0.09356577294 -0.07396884591 -6.277705577e-19 0.09495242751 7.357452285e-20 -0.001386654571)
(-0.08445614495 -0.07001321574 3.339538322e-19 0.08598454067 -8.412264474e-20 -0.001528395726)
(-0.07614124571 -0.06599543702 -7.307025369e-19 0.07779596632 1.231526737e-18 -0.001654720608)
(-0.06837824707 -0.06199809647 -7.229593917e-20 0.0701425384 -4.715368649e-19 -0.001764291331)
(-0.06125684146 -0.05811345158 2.970322669e-19 0.06311425132 7.112336276e-19 -0.00185740986)
(-0.05461058773 -0.05438732041 7.972136199e-19 0.05654209592 -4.880004979e-20 -0.001931508194)
(-0.04849562515 -0.05083615993 -1.685711351e-19 0.05048222007 1.826706128e-19 -0.001986594917)
(-0.04280146599 -0.04750720311 -3.665084465e-19 0.04482019205 -6.070850712e-19 -0.002018726061)
(-0.03756416469 -0.04437029003 3.265024481e-19 0.03959172556 -8.451306936e-20 -0.002027560872)
(-0.03271792738 -0.04148965547 2.206091738e-19 0.03472546896 -7.384990308e-19 -0.002007541575)
(-0.02828401374 -0.03880126957 4.195516418e-20 0.03024176477 -5.92850337e-20 -0.001957751032)
(-0.02423811228 -0.0363904535 7.609212197e-19 0.02610895844 -6.307263303e-19 -0.001870846152)
(-0.0205867296 -0.03417059682 1.627599853e-19 0.0223316275 -3.243391678e-19 -0.001744897892)
(-0.0173544268 -0.03223873738 -6.743297634e-19 0.01892516799 -5.634279627e-19 -0.001570741193)
(-0.01452209478 -0.03051879852 6.062041825e-19 0.01586677814 -1.67513223e-19 -0.001344683356)
(-0.01218972341 -0.02906767223 1.578900007e-18 0.01324564981 2.869655929e-19 -0.001055926404)
(-0.01025392717 -0.02796801115 7.272039949e-19 0.01095192211 -1.141295029e-18 -0.0006979949422)
(-0.008927909093 -0.0269611549 8.114127881e-20 0.009186964523 7.009906384e-19 -0.0002590554295)
(-0.161454571 -0.08092644814 -2.577572789e-21 0.1616030805 -6.236800131e-19 -0.0001485095204)
(-0.1450049981 -0.08870301093 -1.220991929e-18 0.1454068152 4.339752143e-19 -0.0004018171928)
(-0.1303858056 -0.09122729027 7.742354339e-19 0.1310140164 -1.9917526e-18 -0.0006282107945)
(-0.1171449359 -0.09038400857 -7.020372829e-19 0.1179771986 6.639612326e-19 -0.0008322626835)
(-0.1054070784 -0.08782677228 6.872019311e-19 0.1064244518 -1.975403843e-19 -0.001017373362)
(-0.09465020587 -0.08414352351 7.235772469e-19 0.09583546799 -1.159467809e-19 -0.001185262118)
(-0.08503107424 -0.0799722661 1.522372464e-21 0.08636863498 -2.936191738e-19 -0.001337560743)
(-0.07615069526 -0.07551433357 1.895904156e-19 0.07762495343 -3.417386648e-19 -0.001474258175)
(-0.06812376423 -0.07102693344 7.072984888e-19 0.06971986329 -5.975805609e-19 -0.001596099058)
(-0.06067770782 -0.06658405445 2.799439853e-19 0.06237949609 4.786670846e-19 -0.001701788269)
(-0.05389020381 -0.06228429312 -6.467131784e-19 0.05568183188 -5.438418717e-19 -0.001791628066)
(-0.04757655393 -0.05816744278 1.065875192e-19 0.0494396842 -5.540115286e-20 -0.001863130274)
(-0.04179329479 -0.05425300483 4.182581649e-19 0.04370961309 3.26123971e-19 -0.001916318295)
(-0.036414517 -0.05058490346 -2.496610775e-19 0.03836188621 4.925682029e-19 -0.001947369205)
(-0.03148392762 -0.04713393078 -4.598040213e-22 0.03343990392 7.117646727e-19 -0.001955976293)
(-0.02691917194 -0.04396361009 -3.174314253e-19 0.02885592608 8.893764769e-19 -0.001936754136)
(-0.0227535066 -0.04100864991 -2.255633633e-19 0.02464235664 2.46137028e-19 -0.001888850034)
(-0.01894384326 -0.03835601098 -1.222434893e-18 0.0207489957 6.05209158e-19 -0.001805152443)
(-0.01550957778 -0.03591383315 8.796421449e-19 0.0171934175 7.136797086e-19 -0.00168383972)
(-0.01245878421 -0.03378322841 2.619850996e-19 0.01397480834 5.320224777e-19 -0.001516024129)
(-0.009775942993 -0.03187344971 6.707353708e-19 0.01107410998 6.801482584e-19 -0.00129816699)
(-0.007575072186 -0.0302578177 -1.052743295e-18 0.00859479794 -6.225359106e-19 -0.001019725754)
(-0.005681617346 -0.02895551528 1.792727714e-18 0.006356035705 2.370225973e-19 -0.0006744183591)
(-0.004522960703 -0.02790442462 -1.536457399e-19 0.004773431853 -1.216293983e-18 -0.0002504711501)
(-0.1569842688 -0.08984878492 1.791423249e-18 0.1571269085 -7.590385661e-20 -0.0001426396965)
(-0.1381498592 -0.0967520908 4.027097474e-20 0.1385357407 -8.49882122e-19 -0.0003858815335)
(-0.1221931643 -0.09849156467 -1.880405841e-19 0.1227964088 -2.132339457e-19 -0.0006032445108)
(-0.1082987195 -0.09693106022 4.996402459e-19 0.1090978516 1.220763483e-18 -0.0007991320585)
(-0.09630447662 -0.09373414579 -4.778842843e-19 0.09728129753 -3.583495674e-19 -0.0009768209153)
(-0.08555159513 -0.08946155343 3.478950958e-19 0.08668956417 4.68179211e-19 -0.001137969041)
(-0.07609304706 -0.08476094276 -5.262829202e-19 0.07737719726 -1.371031414e-19 -0.001284150195)
(-0.06746955733 -0.07981234853 -5.893685559e-19 0.06888491373 6.877463065e-19 -0.001415356394)
(-0.05975736152 -0.07487960983 6.647329315e-20 0.06128966788 5.770909162e-19 -0.001532306364)
(-0.05265416542 -0.07002208485 1.036311589e-19 0.05428792165 7.377447726e-19 -0.001633756234)
(-0.04622527663 -0.06534275186 1.99448937e-19 0.04794527399 7.825039844e-20 -0.001719997356)
(-0.0402678441 -0.06087163169 7.280720442e-19 0.04205648231 6.648563797e-19 -0.001788638219)
(-0.03483886888 -0.05663145744 6.624109654e-19 0.03667856922 -2.898706881e-20 -0.00183970034)
(-0.02979703858 -0.05265989384 4.343500453e-19 0.03166654801 -7.729525654e-19 -0.001869509433)
(-0.02519416807 -0.04893028756 1.014995256e-18 0.02707193781 -3.186204511e-19 -0.001877769739)
(-0.02093096063 -0.04550280852 2.940080274e-19 0.022790269 -1.150105509e-18 -0.001859308366)
(-0.01705363172 -0.04231357882 2.250241957e-19 0.01886694319 -2.008180214e-19 -0.001813311466)
(-0.01349841214 -0.03944909904 9.337519278e-19 0.0152313672 -6.962708614e-19 -0.00173295506)
(-0.01029957753 -0.0368150746 -8.565069787e-19 0.0119160837 -4.976967745e-20 -0.001616506169)
(-0.007440916793 -0.03451685488 -4.775465968e-19 0.008896351134 -4.895627966e-19 -0.001455434341)
(-0.004918987887 -0.0324470123 1.266259918e-19 0.006165340556 4.209078392e-20 -0.001246352668)
(-0.002821105243 -0.03071023487 -1.779038068e-19 0.003800196011 7.936559102e-19 -0.0009790907687)
(-0.0009898676025 -0.02922662746 -1.433951914e-18 0.001637463222 -7.037953318e-19 -0.0006475956195)
(0.000124441034 -0.02815803457 1.041772332e-18 0.0001159898936 -1.108776051e-19 -0.0002404309277)
(-0.1520178373 -0.09856012448 -4.615381275e-19 0.1521541347 5.222932929e-19 -0.0001362974318)
(-0.1308700318 -0.1041253923 2.422212838e-19 0.1312387167 -8.998044238e-19 -0.0003686848346)
(-0.1136338418 -0.1048007678 -2.265510598e-19 0.1142101559 1.649248878e-18 -0.0005763140635)
(-0.09913415778 -0.1023656781 3.643580615e-19 0.09989756253 -7.638725103e-19 -0.0007634047457)
(-0.08692390966 -0.09844486115 -1.107088525e-19 0.08785700945 4.066847577e-19 -0.0009330997888)
(-0.07621022614 -0.09354664788 1.320804053e-18 0.07729721646 -5.867123785e-19 -0.001086990316)
(-0.0669424684 -0.08831105241 2.119127246e-19 0.06816905728 2.032132071e-19 -0.001226588889)
(-0.05860287438 -0.08288507436 9.440188213e-19 0.05995476274 -8.034284517e-19 -0.001351888362)
(-0.05122908881 -0.07753291949 2.999228144e-19 0.05269267215 -1.809048957e-19 -0.001463583344)
(-0.04449024541 -0.07229318851 6.486112364e-19 0.04605072511 -6.816737174e-19 -0.001560479697)
(-0.03843914345 -0.06727128773 -1.16672991e-18 0.04008200788 -3.753898059e-19 -0.001642864431)
(-0.03285557125 -0.06248357842 1.461225845e-21 0.03456401079 -2.350538027e-19 -0.001708439545)
(-0.02779694262 -0.05795619981 -2.475702749e-19 0.02955417893 -5.607952627e-19 -0.001757236308)
(-0.02310714282 -0.05371734637 -4.721001338e-19 0.02489286497 -2.932566852e-19 -0.001785722143)
(-0.01884624132 -0.04974452781 -2.803691e-19 0.02063986981 3.819908714e-19 -0.001793628497)
(-0.01489833502 -0.04609135175 9.312063833e-20 0.01667431999 7.647938937e-19 -0.001775984974)
(-0.01132316422 -0.04269842998 -3.630015518e-19 0.01305520077 4.906138826e-19 -0.001732036552)
(-0.008035603771 -0.03964837941 6.298511387e-20 0.00969084416 -5.064099511e-19 -0.001655240389)
(-0.005086445837 -0.03684998423 1.509735494e-18 0.006630425817 1.774277498e-18 -0.00154397998)
(-0.002430763584 -0.03440903302 1.619573294e-20 0.003820860782 1.161206598e-19 -0.001390097199)
(-8.458927037e-05 -0.03221335409 1.795001678e-18 0.001274994048 1.068617031e-18 -0.001190404777)
(0.001912704453 -0.03038594447 -3.517033117e-19 -0.0009775269423 -1.096466342e-18 -0.0009351775107)
(0.003642164097 -0.02879652227 -2.43846636e-19 -0.003023523637 -3.667246963e-19 -0.0006186404602)
(0.004731700009 -0.02769806659 -8.22790503e-19 -0.004501926563 -1.103252659e-19 -0.0002297734456)
(-0.146558949 -0.1070316858 7.73042749e-19 0.1466884748 2.183624617e-19 -0.0001295257912)
(-0.1232508601 -0.1108066464 -4.815996199e-19 0.1236011701 4.957704078e-19 -0.0003503100662)
(-0.1048428096 -0.1101473083 1.446992826e-20 0.1053903453 -2.95346755e-20 -0.0005475356259)
(-0.08981526526 -0.1066861053 1.524499423e-19 0.09054049134 3.399536953e-19 -0.0007252260799)
(-0.07744592706 -0.1019612845 -7.94861457e-19 0.07833230688 -2.579391939e-19 -0.0008863798196)
(-0.06681485709 -0.0964041299 4.822691889e-19 0.06784737395 -3.250852571e-19 -0.001032516864)
(-0.05777096848 -0.09063005959 -3.12896925e-19 0.05893605045 -3.600677682e-19 -0.001165081976)
(-0.04974172494 -0.08474161597 -4.773545142e-19 0.05102579574 -3.442969586e-19 -0.001284070798)
(-0.04272714535 -0.07899719068 7.191978077e-19 0.04411729302 -2.193902535e-20 -0.001390147674)
(-0.03636989995 -0.07340870091 1.02851234e-18 0.03785207605 8.543878705e-20 -0.001482176107)
(-0.03071045988 -0.06808201705 1.031855251e-18 0.03227089037 1.163352938e-19 -0.001560430484)
(-0.02551261539 -0.06301608096 1.480852698e-19 0.02713533631 3.690640435e-19 -0.001622720915)
(-0.02083403846 -0.05824057378 2.005754067e-19 0.02250311418 8.375190784e-19 -0.001669075723)
(-0.01650487666 -0.05377106327 7.093924878e-19 0.01820100213 1.524402814e-19 -0.001696125471)
(-0.01259317437 -0.04959083747 7.206206992e-19 0.01429678509 1.310728302e-18 -0.001703610725)
(-0.008967374574 -0.04574367818 3.056927778e-19 0.01065416452 -4.250964887e-19 -0.001686789941)
(-0.005700527178 -0.04217801179 -5.458677035e-19 0.007345473245 -1.0177047e-18 -0.001644946067)
(-0.002686976317 -0.03896884782 -1.181652544e-19 0.004258826002 6.228247666e-19 -0.001571849685)
(5.672170799e-06 -0.03603442702 7.424411949e-19 0.001460313825 -8.69170366e-19 -0.001465985996)
(0.002450234113 -0.03347590752 -9.247255474e-19 -0.001130610423 -1.0271025e-18 -0.00131962369)
(0.004608977156 -0.03118982237 -3.326582374e-19 -0.003479189656 -8.822265125e-19 -0.0011297875)
(0.006488891352 -0.02929871698 6.241654604e-19 -0.005601570649 -1.287223632e-18 -0.0008873207024)
(0.00808565827 -0.02767159524 -1.020722397e-18 -0.007498864915 3.826701305e-20 -0.0005867933547)
(0.009132900226 -0.02653306659 8.582858728e-19 -0.008915009263 1.209877801e-19 -0.0002178909621)
(-0.1406130552 -0.1152336365 -1.732370174e-20 0.1407353793 5.594826636e-19 -0.000122324138)
(-0.1153760174 -0.1167921375 4.847311929e-19 0.1157068071 -5.601796183e-19 -0.0003307896526)
(-0.09595185579 -0.1145442988 -5.984194843e-19 0.09646882913 1.257015672e-18 -0.000516973347)
(-0.08050171915 -0.1099162874 7.815255789e-19 0.08118640871 -6.423292209e-19 -0.0006846895599)
(-0.06804585362 -0.1043143307 -5.695147072e-19 0.06888263678 1.639981578e-20 -0.0008367831687)
(-0.05754852339 -0.09806940999 -5.240053708e-20 0.05852322201 7.871487402e-19 -0.0009746986104)
(-0.04876402265 -0.09175614034 6.334824046e-19 0.04986383284 2.827952276e-19 -0.001099810189)
(-0.04107080345 -0.08542186486 -5.349215883e-19 0.04228291885 6.921568951e-19 -0.0012121154)
(-0.03443311356 -0.0793132615 -6.866798411e-19 0.03574536376 2.722834569e-19 -0.0013122502)
(-0.02847034574 -0.07340998661 -4.758809634e-19 0.02986948192 6.919648161e-19 -0.001399136186)
(-0.02321101644 -0.06781650881 -1.214367087e-19 0.02468405753 -7.19867093e-19 -0.001473041097)
(-0.0184049602 -0.06251079346 5.033329336e-19 0.01993684331 7.542656626e-19 -0.001531883113)
(-0.01410978408 -0.05752618906 -5.172428848e-21 0.01568548114 -1.299359559e-18 -0.001575697061)
(-0.01014359196 -0.05286263259 -4.352251205e-19 0.01174486651 -3.149647587e-19 -0.001601274549)
(-0.006581695888 -0.04851071331 8.352556453e-19 0.008190071438 -9.132317641e-19 -0.00160837555)
(-0.003278796283 -0.04450129276 1.396320134e-19 0.004871279385 -1.384336466e-18 -0.001592483102)
(-0.0003203366613 -0.0407937672 6.881475789e-19 0.001873261857 3.29710027e-19 -0.001552925196)
(0.002417051534 -0.03745204621 -9.8581361e-20 -0.000933269184 -1.09199279e-18 -0.00148378235)
(0.00485003522 -0.03440964812 6.459087593e-19 -0.003466387908 9.804433668e-19 -0.001383647313)
(0.007074255318 -0.03175827119 1.263365753e-18 -0.005829027884 -6.179423716e-19 -0.001245227434)
(0.009033595574 -0.02941361563 -3.241167589e-19 -0.007967814802 9.885650025e-19 -0.001065780773)