/*--------------------------------*- C++ -*----------------------------------*\
| =========                 |                                                 |
| \\      /  F ield         | foam-extend: Open Source CFD                    |
|  \\    /   O peration     | Version:  3.0                                   |
|   \\  /    A nd           | Web:         http://www.extend-project.de       |
|    \\/     M anipulation  |                                                 |
\*---------------------------------------------------------------------------*/
FoamFile
{
    version     2.0;
    format      ascii;
    class       volVectorField;
    location    "23";
    object      u;
}
// * * * * * * * * * * * * * * * * * * * * * * * * * * * * * * * * * * * * * //

dimensions      [0 0 0 0 0 0 0];

internalField   nonuniform List<vector> 
2688
(
(0.1962474144 -0.05350507119 4.167594591e-17)
(0.2485615161 -0.04080321567 -3.275623986e-17)
(0.4923807311 -0.03663706422 8.86764698e-17)
(0.5043952606 -0.02774831188 1.471242158e-18)
(0.6705157495 -0.02571286366 3.076724873e-17)
(0.6651577814 -0.01976223409 4.186445205e-18)
(0.7856051051 -0.01839925067 -1.054993539e-17)
(0.770486194 -0.01445477486 3.367504839e-17)
(0.8634673643 -0.01335173172 -4.2766964e-17)
(0.8417796318 -0.01071691346 3.643219506e-17)
(0.9177212442 -0.009727015701 -4.334821472e-18)
(0.8910045578 -0.007979093191 2.258760972e-17)
(0.9562149889 -0.007001911234 2.007702219e-17)
(0.9251293104 -0.005899776115 -6.223358322e-17)
(0.9837125408 -0.004851145675 6.078227547e-17)
(0.948389708 -0.004250393806 -5.637614505e-17)
(1.00319775 -0.003055479633 6.177849096e-17)
(0.9634606186 -0.002844442664 -3.412640225e-17)
(1.016554048 -0.0014371247 5.765340802e-18)
(0.9721037823 -0.001465992472 2.074542788e-17)
(1.024862894 0.0001936748511 -1.327699418e-17)
(0.9755490725 8.580560804e-05 -5.302025711e-18)
(1.02852089 0.002585220575 -1.017041211e-17)
(0.9745038786 0.00090307395 -6.707358742e-18)
(0.208373527 -0.1615864847 -1.432257595e-16)
(0.2578798379 -0.1236923971 -5.587738675e-18)
(0.5007050735 -0.1113055329 -2.549514953e-16)
(0.5107563896 -0.0846610139 2.00417339e-17)
(0.6763865009 -0.07869909062 -1.087798733e-16)
(0.6697090041 -0.06088671107 -1.087631357e-17)
(0.7898362063 -0.05692722201 -4.651715178e-18)
(0.77383192 -0.04513794751 -8.325539126e-17)
(0.8665596598 -0.04194774939 4.798089677e-17)
(0.8442700166 -0.0340694355 -5.520537111e-17)
(0.9199822654 -0.03120723647 -3.642441266e-17)
(0.8928570935 -0.02597225643 -5.706584606e-17)
(0.9578345274 -0.0231433718 7.031898833e-18)
(0.9264818903 -0.01983312093 2.086878446e-17)
(0.984807767 -0.01680388328 -3.410933213e-17)
(0.9493305086 -0.01499181436 5.605395244e-17)
(1.003843291 -0.01158045795 -6.976104805e-17)
(0.9640515722 -0.01095948873 6.416290469e-18)
(1.01681395 -0.007053001255 6.519426356e-17)
(0.9724063334 -0.007246730352 -1.002887231e-16)
(1.02483462 -0.002889779564 6.614862636e-17)
(0.9756578604 -0.003370696729 2.460348949e-18)
(1.028320363 0.001840737604 1.776384869e-17)
(0.9745839408 0.0006387039323 3.14591862e-17)
(0.2325401851 -0.2676759491 2.900823894e-16)
(0.2763867087 -0.2049227961 8.528413887e-17)
(0.5173852919 -0.1843921611 3.014322113e-16)
(0.5234672101 -0.1404075449 -2.150843631e-18)
(0.6882319951 -0.1305341422 1.090727822e-16)
(0.6788887602 -0.1011264318 8.969042661e-17)
(0.7984476888 -0.09460448368 -5.011802002e-17)
(0.780672332 -0.07512024714 1.747345173e-16)
(0.8729407363 -0.06988892293 -6.614819468e-17)
(0.8494671361 -0.05685846662 1.487617801e-16)
(0.9247627453 -0.05217296005 4.998082262e-17)
(0.8968513426 -0.04351056252 7.822419761e-17)
(0.9614110479 -0.03888144267 -6.644502255e-18)
(0.9295617242 -0.0334012597 -5.69323789e-17)
(0.9874331877 -0.02845015305 6.337900078e-17)
(0.9516860212 -0.02545042324 -1.561134489e-16)
(1.005679344 -0.01989882826 1.989353645e-16)
(0.9658052862 -0.01889099209 -1.334621719e-16)
(1.017971005 -0.0125983427 -1.617402344e-17)
(0.9736320736 -0.01300633958 7.061701625e-17)
(1.025416706 -0.006111956755 -3.5778826e-17)
(0.9764054374 -0.00704543674 -4.572186191e-17)
(1.02838097 0.0007147014828 -5.276687229e-17)
(0.9749524756 0.00017466259 5.19318422e-17)
(0.2684471034 -0.3703451378 -3.19932168e-16)
(0.3038695664 -0.2836814156 -1.960922521e-16)
(0.5421469951 -0.2553300086 -4.296713755e-16)
(0.5423117465 -0.194485231 5.968249547e-17)
(0.7057627622 -0.1808759102 -2.344202896e-16)
(0.692470167 -0.1401996256 -4.896704765e-18)
(0.8111517504 -0.1312140063 -5.579354914e-17)
(0.7907598488 -0.1042745598 -1.079412601e-16)
(0.8823210577 -0.09706735969 -7.685789393e-17)
(0.8570912995 -0.07905360196 -1.013388067e-16)
(0.9317492629 -0.07259604436 -1.144224201e-16)
(0.9026602965 -0.06061971667 -8.748738207e-17)
(0.9665823054 -0.05423904383 7.562379452e-17)
(0.9339733245 -0.04665934143 -3.145210646e-19)
(0.9911491395 -0.0398379919 4.044404004e-17)
(0.9549629494 -0.03568312338 8.504746971e-17)
(1.00815395 -0.02804664912 -1.247679707e-16)
(0.9680973533 -0.02664491184 8.779018296e-17)
(1.019327305 -0.01802054797 3.925531499e-18)
(0.9750156632 -0.01859455064 -8.301577855e-17)
(1.025780628 -0.009216100417 5.980000779e-17)
(0.9769972618 -0.0105030623 9.128650554e-17)
(1.028003217 -0.00048717312 -5.746697403e-17)
(0.9750754859 0.0003028357454 1.110483176e-16)
(0.3156100474 -0.4683986516 3.684900358e-16)
(0.3400024411 -0.3587342383 1.557671324e-16)
(0.5746703742 -0.3228669157 5.357706964e-16)
(0.5671096734 -0.2459859256 -8.808937831e-17)
(0.7288383387 -0.2287677244 2.073409657e-16)
(0.7103681188 -0.1773697719 8.777477145e-17)
(0.8279227642 -0.1660139122 -8.320158117e-18)
(0.8040934964 -0.1319617637 1.389890971e-16)
(0.8947516238 -0.1228622463 1.407379627e-16)
(0.8672199357 -0.1000838948 1.211912175e-16)
(0.9410664243 -0.09193298335 -1.060785912e-18)
(0.9104456811 -0.07678047684 1.587958958e-16)
(0.9735628582 -0.06872442706 -1.447688842e-16)
(0.9399832581 -0.0591210231 8.902648758e-17)
(0.9962936675 -0.05050687077 -1.633525444e-16)
(0.9595743485 -0.04522019931 -1.134900236e-16)
(1.011787192 -0.03558830542 9.487083213e-17)
(0.9715579957 -0.03377813469 -8.310000509e-17)
(1.021673672 -0.02296058932 2.946293385e-17)
(0.9774931139 -0.02369719365 4.324443505e-17)
(1.027060208 -0.01211978927 -1.057446433e-16)
(0.9786664428 -0.01384710686 5.311637551e-17)
(1.028402312 -0.002226590788 -2.10910654e-16)
(0.976405543 -0.0003157016474 1.961970501e-16)
(0.3734632496 -0.5605127407 -3.148920573e-16)
(0.384313655 -0.4294082882 -8.559088593e-17)
(0.6145929794 -0.3865136443 -4.383041176e-16)
(0.5975173554 -0.2945134204 7.397369654e-17)
(0.7571372993 -0.273935264 -1.535122467e-16)
(0.7323109091 -0.2124311394 -1.617147578e-16)
(0.8484677458 -0.1988644004 5.609695242e-17)
(0.8204270039 -0.1581232822 -1.996469429e-16)
(0.9099625329 -0.1472540956 -3.01573808e-16)
(0.8796092034 -0.120004968 9.110538379e-17)
(0.9524491055 -0.1102686667 -6.014634487e-17)
(0.9199453307 -0.09214427755 -4.3874803e-17)
(0.982067014 -0.08252194311 -6.144812624e-18)
(0.9472853686 -0.07103487007 1.071959178e-16)
(1.002526573 -0.06074977783 -1.193516561e-17)
(0.9651252157 -0.05442090911 2.253264801e-16)
(1.016118929 -0.0429364514 2.279847126e-17)
(0.9755997668 -0.04076046983 3.584624659e-17)
(1.024274185 -0.02791643695 1.652647015e-18)
(0.9800570392 -0.02879597075 -1.355193692e-17)
(1.027943537 -0.01521333765 1.200012865e-16)
(0.9796679048 -0.01708456334 1.352894592e-17)
(1.027846158 -0.004744425303 1.659312216e-16)
(0.9756004399 0.0009187244173 -1.269226052e-16)
(0.4412647542 -0.6456093439 -5.972697888e-17)
(0.4362468634 -0.4945268408 -3.589870793e-17)
(0.6613381871 -0.4451168603 4.90123981e-16)
(0.6331517903 -0.3391923634 -1.604787444e-16)
(0.7902898488 -0.3154865566 3.636231202e-17)
(0.7580252963 -0.2446735142 2.296662294e-16)
(0.8725530531 -0.2290483018 1.09247945e-17)
(0.8395772173 -0.1821335278 -4.983630772e-17)
(0.9278089278 -0.1696176636 4.570345498e-16)
(0.8941497996 -0.1382329083 -2.65488104e-16)
(0.9658223911 -0.12702066 -3.425254108e-17)
(0.9311169637 -0.1061373811 1.860755641e-16)
(0.9920879718 -0.09505070284 -1.229145074e-16)
(0.9559089479 -0.08179751274 8.76195517e-17)
(1.009925508 -0.06993329867 -2.07189488e-16)
(0.9717492104 -0.06258659816 -2.126918007e-18)
(1.021376661 -0.04931582498 -1.987280548e-16)
(0.9805736966 -0.04668351129 5.312512991e-17)
(1.027697102 -0.03185195258 -6.643277275e-17)
(0.9835579825 -0.03266390477 6.506849899e-20)
(1.02970772 -0.01730464464 -1.508763667e-16)
(0.9818687758 -0.01921517608 -1.035852093e-16)
(1.027773095 -0.007035336057 1.752187604e-17)
(0.9787720862 -0.001183731719 -2.675176267e-16)
(0.5181628707 -0.7225534985 5.305693223e-16)
(0.4951723167 -0.5535678846 -2.132340764e-16)
(0.7144146979 -0.4982803676 -1.19269843e-17)
(0.6736002743 -0.3797297975 -1.987930303e-16)
(0.8279342929 -0.3532117983 1.671390268e-16)
(0.7872295587 -0.2739594322 -3.089732923e-16)
(0.899907118 -0.256486156 1.086948344e-16)
(0.861338151 -0.2039850662 3.169350273e-18)
(0.9480881086 -0.1899917605 -1.350578063e-16)
(0.9106850771 -0.1548752515 1.54236121e-16)
(0.9810342134 -0.1423406884 1.167038217e-16)
(0.9438388513 -0.118980804 -1.608606913e-16)
(1.003513831 -0.1065874823 1.124138915e-17)
(0.965765613 -0.09176840623 -6.701783011e-17)
(1.018424459 -0.07850415009 2.079701188e-16)
(0.9794067503 -0.07028519955 -1.508345897e-16)
(1.027571404 -0.05543961991 2.746364158e-16)
(0.9865156497 -0.0524458499 -1.797094176e-16)
(1.032093167 -0.03584450649 1.505101292e-16)
(0.9880637602 -0.03650632346 -1.458518265e-16)
(1.032783164 -0.01954169815 3.784253925e-16)
(0.984543572 -0.02022644913 -1.762775234e-16)
(1.030816646 -0.01067389469 1.308593046e-16)
(0.9782692342 0.001693166782 -1.47859439e-17)
(0.6032007509 -0.7904265696 -8.139613891e-16)
(0.5602991549 -0.6054928845 2.559436837e-16)
(0.7730367761 -0.5450135973 -3.122197283e-16)
(0.7182843092 -0.4153542565 3.098485381e-16)
(0.8695010834 -0.3863435157 -4.952124304e-18)
(0.8194699103 -0.2996649018 2.320040418e-17)
(0.9300968892 -0.2805480466 -1.153286551e-16)
(0.8853410934 -0.2231235135 2.180587706e-18)
(0.9704495256 -0.2078138286 -9.988948241e-17)
(0.9289009849 -0.1694022784 -4.808099786e-17)
(0.9977809972 -0.1556888941 -2.576694255e-16)
(0.9578226681 -0.1301390203 3.323396207e-16)
(1.016051789 -0.1165812331 -2.057962943e-16)
(0.9765485597 -0.1003797719 2.512115229e-16)
(1.02767858 -0.08586765519 -2.141541843e-16)
(0.9876861449 -0.07689375583 2.662238424e-16)
(1.03418082 -0.06063539682 -2.783518753e-16)
(0.9927482932 -0.05738160302 2.927195189e-16)
(1.036554221 -0.03914609186 -6.466504019e-17)
(0.992458785 -0.03989247259 3.438261205e-17)
(1.035699394 -0.02113977139 -1.222095083e-16)
(0.9866827822 -0.0220801643 -1.005522717e-16)
(1.034342723 -0.01082283417 2.445117298e-16)
(0.9738707444 -0.001681937999 -5.208487846e-16)
(0.6952917206 -0.848343004 8.301051809e-16)
(0.6308837593 -0.6499374138 -8.406323599e-16)
(0.8366061388 -0.5850275422 9.834165047e-16)
(0.7667430952 -0.4458641633 -6.308162381e-16)
(0.9146006982 -0.4147312907 3.037984308e-16)
(0.854468376 -0.321701438 -1.193921266e-16)
(0.9628837611 -0.3011904781 1.872972337e-16)
(0.9114339566 -0.2395623638 1.210965913e-16)
(0.9947724622 -0.2231386666 2.589094697e-16)
(0.9487436623 -0.181921908 3.521440887e-17)
(1.016041236 -0.1672126295 2.057328714e-16)
(0.9731033891 -0.13980821 -1.421982417e-16)
(1.029778251 -0.1252680541 2.788752532e-18)
(0.9883978396 -0.107909537 -2.329886175e-16)
(1.037892212 -0.09234187531 8.619260976e-17)
(0.9969004329 -0.08275646654 -4.100581094e-16)
(1.041626043 -0.06528039144 2.919537693e-16)
(0.9999299967 -0.06185321508 -4.674659343e-16)
(1.041873394 -0.04211474675 1.886614593e-16)
(0.9980590061 -0.04304762351 -2.048341057e-16)
(1.039516182 -0.02218975382 3.113112054e-16)
(0.990778708 -0.02423831023 -1.617273003e-16)
(1.036792961 -0.007592624503 1.458786298e-16)
(0.9726198922 -0.003540855453 1.706825267e-16)
(0.7933007629 -0.8955908079 -3.583017569e-16)
(0.7059414715 -0.6860705179 5.05150194e-16)
(0.904165763 -0.6175499064 -3.283118778e-16)
(0.8182379793 -0.4706544685 2.249354545e-17)
(0.9624986683 -0.4377868686 5.975418333e-17)
(0.8916189528 -0.3395882145 -2.223551203e-16)
(0.9976650614 -0.3179307693 -1.183863449e-16)
(0.9390860603 -0.2528768458 -3.658747834e-16)
(1.02052599 -0.2355332122 -2.430791102e-16)
(0.9697187632 -0.1920267905 -2.388905273e-16)
(1.035313837 -0.1764952661 -1.903701013e-16)
(0.9891889099 -0.1475786718 2.380898939e-16)
(1.044182354 -0.1322353141 -1.811044578e-16)
(1.000779606 -0.1139480036 4.233816213e-16)
(1.048487089 -0.0975406155 -8.426080643e-17)
(1.006398077 -0.0875101657 5.345360561e-16)
(1.049153584 -0.06911352279 -2.818050079e-16)
(1.007145278 -0.06567638821 5.400277093e-16)
(1.046912011 -0.04486718253 -1.682281572e-16)
(1.003422795 -0.04617978372 1.075206694e-16)
(1.042420493 -0.02376169812 -6.681763077e-17)
(0.9945367964 -0.0269032232 -2.835313549e-16)
(1.036358777 -0.00541605967 2.018282239e-16)
(0.9726589373 -0.003554415973 -3.820088849e-16)
(0.8959710616 -0.9315740934 2.48648072e-16)
(0.7846420831 -0.7136883825 -3.837899682e-16)
(0.9750389786 -0.6424072313 3.291156806e-16)
(0.8722729648 -0.4896042978 -1.306801046e-16)
(1.012787585 -0.4554111843 9.146053774e-17)
(0.9306522781 -0.3532662522 2.509682243e-16)
(1.034234696 -0.3307369604 4.423676123e-17)
(0.9681970061 -0.2630715135 5.257988817e-16)
(1.047664652 -0.2450301998 2.267126482e-16)
(0.9918639297 -0.1997829453 2.781661937e-16)
(1.05568934 -0.1836286716 1.206650097e-17)
(1.006236422 -0.1535679712 -6.134558622e-17)
(1.059474145 -0.1376183773 8.540352871e-17)
(1.013955767 -0.1186366077 -2.89154587e-16)
(1.059774653 -0.1016024142 1.459209489e-17)
(1.016519613 -0.09125415555 -5.597498985e-16)
(1.057138152 -0.07218883954 1.150680892e-16)
(1.014746829 -0.06877605913 -3.034078228e-16)
(1.052034656 -0.04722946143 -1.064416753e-18)
(1.008784218 -0.04885543173 -2.154431106e-16)
(1.044797252 -0.02542742107 2.657743739e-16)
(0.9978901716 -0.02928095908 -9.838306668e-17)
(1.03448744 -0.004493200924 1.967460235e-16)
(0.9739928798 -0.003608853102 3.952816842e-17)
(1.002037736 -0.9558281521 4.997018815e-18)
(0.8658727704 -0.7322211847 -2.801136162e-17)
(1.048152013 -0.6590896142 1.16341657e-16)
(0.9280006278 -0.5023224301 -2.609775129e-16)
(1.064618975 -0.4672389357 3.545932816e-17)
(0.9708540626 -0.3624438098 -9.044810544e-17)
(1.071868002 -0.339322465 -1.321290767e-16)
(0.9981163127 -0.269900255 -4.109460905e-16)
(1.075523345 -0.2513798866 -1.062915806e-16)
(1.01455023 -0.2049584422 -1.389733359e-16)
(1.076522207 -0.1883734974 -8.620947725e-17)
(1.023612093 -0.1575396588 1.963864961e-16)
(1.075006001 -0.1411739045 -4.074365106e-16)
(1.027274995 -0.1217266263 5.635088606e-16)
(1.071103967 -0.1042793553 -3.253953567e-16)
(1.026605823 -0.09373219436 5.908591946e-16)
(1.064964105 -0.07426964652 -1.505437887e-16)
(1.022129291 -0.07090367558 2.70344889e-16)
(1.056795579 -0.04900215697 1.120338582e-16)
(1.013763949 -0.05084419144 2.212492819e-18)
(1.046719554 -0.02705872012 -1.114494391e-17)
(1.000816243 -0.03104471352 -5.761138881e-17)
(1.032811909 -0.005337887796 3.845904422e-17)
(0.9760928612 -0.002594113002 -2.398899741e-16)
(1.110142993 -0.96807226 -2.067833315e-17)
(0.9487378108 -0.7416273952 4.174550328e-17)
(1.122771142 -0.667544169 -1.567830263e-16)
(0.9848962774 -0.5087615117 1.477645195e-16)
(1.117569125 -0.4732158905 4.749397709e-18)
(1.011959061 -0.3670760665 -6.022663973e-17)
(1.110380166 -0.3436478733 1.384095185e-16)
(1.028780992 -0.2733349992 1.660761354e-16)
(1.104112686 -0.2545649776 6.699039632e-17)
(1.037885933 -0.2075490076 -1.978438005e-17)
(1.097992056 -0.1907374071 1.66472799e-16)
(1.04157408 -0.1595135835 -1.937316247e-16)
(1.09110509 -0.1429293615 2.714377493e-16)
(1.041121344 -0.1232509346 -3.278942578e-16)
(1.082922132 -0.1055978572 2.42621748e-16)
(1.037126951 -0.09496089991 -3.286662505e-16)
(1.073155591 -0.07533970868 3.029622499e-17)
(1.029781598 -0.07201691923 -4.241782673e-17)
(1.06174041 -0.05008298568 -1.951683177e-16)
(1.018775144 -0.0520412619 1.181432607e-16)
(1.048746971 -0.02850671357 -1.588619207e-17)
(1.003491728 -0.03222013443 1.877060588e-17)
(1.032428586 -0.007952350224 6.032619614e-17)
(0.978327515 -0.001643928801 -2.735543185e-18)
(1.218949889 -0.9681159058 2.945259721e-17)
(1.032074397 -0.7416317421 -5.300980137e-17)
(1.197776348 -0.6675505631 -6.064492446e-17)
(1.042067598 -0.508773137 1.633835388e-16)
(1.170740587 -0.4732267154 -5.241249084e-17)
(1.053202433 -0.3670903626 1.975411076e-16)
(1.148986075 -0.3436552302 -1.47357517e-16)
(1.059476819 -0.2733433563 1.353659687e-16)
(1.132691578 -0.2545585223 8.434245462e-18)
(1.061161412 -0.2075397476 2.784615336e-17)
(1.119361016 -0.1907034741 -2.190653363e-16)
(1.059393846 -0.159472266 1.210905311e-16)
(1.107023367 -0.1428556333 -8.253286444e-17)
(1.054750849 -0.1231660754 8.654411875e-17)
(1.094493175 -0.1054869546 -2.255151842e-16)
(1.047365802 -0.09483864215 1.954125121e-16)
(1.081061033 -0.0752399185 -8.081429925e-17)
(1.037105639 -0.07190938214 -7.020144152e-18)
(1.066432736 -0.05014919369 6.550599552e-17)
(1.023468534 -0.05208155548 -1.275468864e-16)
(1.05081641 -0.02916880683 -9.976439871e-18)
(1.005844497 -0.03236248637 3.589926997e-17)
(1.033837795 -0.01115934925 -1.871214796e-16)
(0.9800858178 -0.0009220895935 2.322918168e-16)
(1.327072827 -0.9560044961 -1.16806208e-16)
(1.114942625 -0.7323559714 2.103681628e-16)
(1.272393658 -0.6591805481 -1.454177333e-16)
(1.098963134 -0.5023808873 -1.459219574e-16)
(1.223688505 -0.4672600953 1.393485269e-17)
(1.094309976 -0.3624475449 -2.679616182e-16)
(1.187501705 -0.3392865762 1.131128585e-16)
(1.090152574 -0.2698484945 -3.352697792e-16)
(1.161295863 -0.2512733862 -1.061375153e-16)
(1.084523282 -0.2048333072 -1.770546169e-16)
(1.140864511 -0.1881710418 2.886647365e-16)
(1.077403046 -0.1573157818 -1.432011336e-16)
(1.123182882 -0.1408567862 1.403588802e-16)
(1.06866739 -0.1213923483 -8.174602857e-17)
(1.106407784 -0.1038766634 1.850188212e-16)
(1.057973834 -0.09333414631 4.419794687e-17)
(1.089404769 -0.0739458714 1.823918009e-17)
(1.04485198 -0.07062797841 1.733991953e-16)
(1.071663882 -0.04922438943 -1.072990146e-16)
(1.028604032 -0.05110779733 2.349966267e-16)
(1.05363791 -0.02902434104 -8.467430027e-17)
(1.008491592 -0.03176685728 7.282074009e-17)
(1.037145609 -0.01407935013 2.854347935e-17)
(0.9812809684 -0.001124497739 -1.657025431e-16)
(1.433164249 -0.9318344038 4.042578355e-17)
(1.196211214 -0.7138302883 -1.303140843e-16)
(1.345534411 -0.642509794 5.031832896e-17)
(1.154716297 -0.4896869026 1.547469334e-16)
(1.275539539 -0.4554566712 -1.65862456e-17)
(1.134533759 -0.3533036436 2.625699598e-16)
(1.225153136 -0.3307243213 -1.906746385e-18)
(1.120097814 -0.2630481076 3.335132903e-16)
(1.189177649 -0.2449275342 1.466266739e-16)
(1.107244381 -0.1996605008 2.54533633e-16)
(1.161729636 -0.1833843087 -1.162892991e-16)
(1.094822193 -0.1532935302 7.3922819e-19)
(1.13875703 -0.1371826833 -3.185656427e-17)
(1.0820274 -0.1181692896 1.161600444e-17)
(1.117786906 -0.1009822983 -2.314221372e-16)
(1.068067293 -0.09062772538 -1.036127936e-16)
(1.097296466 -0.07156940795 -3.511500088e-17)
(1.052164119 -0.06822002866 -2.466588117e-16)
(1.076607363 -0.04721224722 1.295027299e-16)
(1.033445585 -0.04894749216 -2.05459398e-16)
(1.056477767 -0.02760972385 4.308268326e-17)
(1.010947897 -0.03010260778 7.14873009e-17)
(1.041209553 -0.01530762356 -1.839243921e-16)
(0.9817286884 -0.002329847119 3.964801475e-16)
(1.535885133 -0.8959721166 -1.421505658e-16)
(1.27492053 -0.6863406364 3.439897053e-16)
(1.416401067 -0.6177395283 -2.482306385e-16)
(1.20874947 -0.4707893165 3.235126435e-17)
(1.325820046 -0.4378534403 -1.567064166e-17)
(1.173571643 -0.3396268732 -2.86096757e-16)
(1.261729207 -0.317891984 7.122686735e-17)
(1.14923612 -0.2528112926 -3.525326006e-16)
(1.216353202 -0.2353533884 -3.117681014e-17)
(1.129458774 -0.191811796 -3.507744868e-16)
(1.182192508 -0.1761065302 1.83861953e-16)
(1.112000556 -0.1471448048 -1.335393051e-16)
(1.154209135 -0.1315628385 1.328558467e-16)
(1.095408332 -0.1132337464 -1.805036485e-16)
(1.12932823 -0.09656111132 4.040952334e-16)
(1.078457098 -0.08653529497 -3.853593581e-18)
(1.105649788 -0.06798808886 1.60117203e-16)
(1.060054289 -0.06469134926 1.045395519e-16)
(1.082297216 -0.04420833201 -3.001139247e-17)
(1.039077656 -0.04588326342 1.091978302e-16)
(1.060171935 -0.02520293341 -1.334498235e-16)
(1.014149058 -0.02788906261 5.435701819e-17)
(1.045331159 -0.0144613963 -1.516475535e-16)
(0.9819699782 -0.004720344183 -2.392241761e-17)
(1.633939735 -0.8487991089 1.981272816e-16)
(1.3500486 -0.6502105313 -2.7569706e-16)
(1.484012467 -0.5852251477 3.40790365e-16)
(1.260291887 -0.4460253154 -1.512874356e-16)
(1.373754666 -0.4148287856 4.222056621e-17)
(1.210763755 -0.3217867762 8.585612108e-17)
(1.296544639 -0.301197635 2.386524798e-17)
(1.176938184 -0.2395560208 2.314451693e-16)
(1.242151123 -0.2230092558 -7.134036995e-17)
(1.150503955 -0.1817681021 3.229464814e-16)
(1.201528642 -0.1668600974 -7.41824928e-17)
(1.128182453 -0.1394184275 -6.532935948e-17)
(1.168698416 -0.1245827872 8.360174465e-17)
(1.10790513 -0.1071874823 5.22960745e-17)
(1.140017765 -0.09123451348 -2.60660894e-16)
(1.088046858 -0.08166219411 2.422753247e-17)
(1.113240188 -0.06379020713 -1.133554454e-16)
(1.067230662 -0.06055115798 -1.648541063e-16)
(1.087304549 -0.04064416891 6.995203122e-17)
(1.044087421 -0.04217570828 -7.670121894e-17)
(1.063139711 -0.02190942928 9.870888468e-17)
(1.01689547 -0.02502137493 4.704490502e-17)
(1.047449214 -0.01116385104 5.07264559e-17)
(0.9819309683 -0.007752539467 2.256232857e-17)
(1.726107883 -0.7909812756 -3.185392618e-16)
(1.420645575 -0.6058899353 2.595324237e-16)
(1.547567731 -0.5453037902 -3.274067101e-16)
(1.308743588 -0.4155783405 2.415620702e-16)
(1.418835483 -0.3864831518 -1.306857971e-16)
(1.245760717 -0.2997747461 2.754948014e-17)
(1.329330695 -0.2805629129 3.28721745e-17)
(1.203058229 -0.223111095 -2.204781144e-16)
(1.266511284 -0.2076558515 1.028447084e-16)
(1.170430428 -0.1692062174 -1.866396827e-16)
(1.219891784 -0.15525557 1.633146803e-17)
(1.143638269 -0.1296524143 1.640343325e-17)
(1.182627282 -0.1157267132 1.466430501e-17)
(1.120057602 -0.09946824747 -1.221948894e-16)
(1.150562334 -0.08442435454 1.661290286e-16)
(1.097710446 -0.07544052292 -1.066905053e-17)
(1.121131282 -0.05847444555 6.556269346e-17)
(1.074945644 -0.05540795905 9.516705976e-17)
(1.093028539 -0.03632988082 -8.103087201e-17)
(1.050035305 -0.03786082682 7.189536937e-17)
(1.066819151 -0.018097217 -1.477582925e-16)
(1.020755429 -0.02202572719 4.401109558e-17)
(1.047640864 -0.006259407579 -1.273607501e-16)
(0.982693114 -0.01106750178 2.748320175e-17)
(1.811205503 -0.7231705202 2.091569425e-16)
(1.485865547 -0.5539623513 -1.34284255e-16)
(1.606259452 -0.4985720843 1.061944807e-16)
(1.353490721 -0.379982262 -1.158965101e-16)
(1.460450804 -0.3533890936 8.587453176e-17)
(1.278056566 -0.2741311364 -1.008333128e-16)
(1.359565537 -0.2565752471 -4.826995486e-18)
(1.227128597 -0.2040701017 1.504503597e-16)
(1.28893264 -0.1899471282 -1.614714485e-16)
(1.188744448 -0.1548185317 1.513972859e-16)
(1.236727146 -0.1420623212 1.132272392e-17)
(1.157768522 -0.1186802459 -9.116288769e-17)
(1.195291068 -0.105921529 7.442913297e-17)
(1.13105135 -0.09107979318 4.250462385e-17)
(1.159975944 -0.07723667132 -2.793666167e-17)
(1.10627328 -0.06903458438 -3.854277713e-17)
(1.127891165 -0.05329451517 5.225025227e-17)
(1.081508797 -0.05048671044 -6.973997928e-17)
(1.097453514 -0.03252892424 6.692699218e-17)
(1.054674304 -0.03396689971 -5.685619978e-17)
(1.068720625 -0.01478928651 1.363309593e-16)
(1.023375727 -0.01927493814 1.223194855e-17)
(1.043887206 -0.0008176320646 1.211237984e-16)
(0.98328179 -0.01366687328 -3.371995599e-18)
(1.888197219 -0.6462939656 -8.780631935e-17)
(1.544804821 -0.4950391479 1.61362597e-16)
(1.659310963 -0.4455102041 -7.277969412e-17)
(1.393923367 -0.3395228372 9.085850115e-17)
(1.498062089 -0.3157357564 -7.926473161e-17)
(1.307244027 -0.2449027074 1.263355134e-16)
(1.386900126 -0.2291929551 -8.035203997e-18)
(1.248894783 -0.1822647687 -4.098692552e-17)
(1.309221731 -0.1696170648 1.570778262e-16)
(1.205333855 -0.1382111566 -1.147993138e-16)
(1.252002673 -0.1267709092 5.147298678e-17)
(1.170631585 -0.1058529568 2.776375615e-17)
(1.206869868 -0.09438355096 -8.400558975e-17)
(1.141192562 -0.0810865814 6.329033447e-19)
(1.168762341 -0.06859768378 -4.576988292e-17)
(1.114435674 -0.0612273609 5.517159035e-17)
(1.134539755 -0.04694701044 -1.037073806e-16)
(1.088243424 -0.04441581873 5.411568644e-17)
(1.102375613 -0.02796257251 -5.158374313e-17)
(1.060196882 -0.02934613361 1.901317037e-17)
(1.07154903 -0.01131581151 -7.677686877e-17)
(1.027673268 -0.01635262352 -3.401831521e-17)
(1.039021385 0.004206880525 -5.676730154e-17)
(0.9860657725 -0.01480884694 -3.82350281e-17)
(1.956066384 -0.5612467194 -3.281319845e-17)
(1.596843049 -0.4299128752 -1.02763899e-16)
(1.706136977 -0.3868991825 -6.733384805e-17)
(1.429627865 -0.294873236 9.78514303e-18)
(1.531268031 -0.2742243467 -3.474362764e-17)
(1.333018906 -0.2127323941 -6.348267039e-17)
(1.41103302 -0.1991048357 2.106392743e-17)
(1.26811706 -0.1583805854 -1.907716541e-17)
(1.32713233 -0.1474208375 -1.195610815e-16)
(1.219979788 -0.1201879577 4.03746453e-17)
(1.265472518 -0.1102890532 -1.712626968e-17)
(1.181962844 -0.09218280573 -3.34972271e-17)
(1.217028478 -0.08227656269 9.894273014e-17)
(1.150049909 -0.07081976565 -3.128432989e-17)
(1.176331664 -0.06005098134 5.567407378e-17)
(1.121374785 -0.05378862967 -1.754568287e-17)
(1.139934987 -0.04147452973 4.279897582e-17)
(1.093554727 -0.03946753319 -6.719980763e-18)
(1.105650375 -0.02518977389 -7.810192892e-19)
(1.063764943 -0.02659304657 2.52438638e-17)
(1.071885516 -0.01048340259 -9.02780659e-18)
(1.029453777 -0.01533396948 9.767695208e-17)
(1.030712967 0.005887325456 -2.050855319e-17)
(0.986270328 -0.01444102905 8.564413359e-17)
(2.014017667 -0.469165018 5.566907839e-17)
(1.641166501 -0.3593482466 1.476213175e-16)
(1.746022643 -0.3233664975 3.915369745e-17)
(1.460010276 -0.2464404035 3.072299504e-17)
(1.559519773 -0.2291637752 2.980071654e-17)
(1.354925221 -0.1777672251 5.856033454e-17)
(1.431534996 -0.1663649565 -1.94345415e-17)
(1.284418202 -0.1323276196 8.395594317e-18)
(1.3423065 -0.123157538 9.880011743e-17)
(1.232352946 -0.1003946589 -3.862832851e-17)
(1.276831248 -0.09211235172 6.608700471e-17)
(1.19147922 -0.07697313976 -2.542851819e-17)
(1.225534171 -0.06868601331 -2.394651966e-17)
(1.157433541 -0.05909581209 -1.376886012e-17)
(1.182621889 -0.05009054917 -2.837396996e-17)
(1.127149086 -0.04482234296 2.436024721e-17)
(1.144461178 -0.03452671569 -2.829618702e-17)
(1.098146717 -0.03276403024 6.4640515e-18)
(1.108758363 -0.02080271878 -4.716125617e-18)
(1.067567798 -0.02177312494 -4.86965538e-18)
(1.073507625 -0.008094055526 -7.191988881e-18)
(1.033464677 -0.01197996773 -4.858337238e-17)
(1.025658334 0.007267031116 9.577296519e-18)
(0.9931231239 -0.009523297689 -2.518082376e-17)
(2.061250923 -0.3711484213 -4.574833829e-17)
(1.677408142 -0.284284868 -1.072647933e-16)
(1.778629406 -0.2558098645 -5.565884225e-17)
(1.484875287 -0.1949689319 -1.132910897e-17)
(1.582644171 -0.181306079 -1.702214624e-17)
(1.372876651 -0.1406692392 -5.74454633e-17)
(1.448344795 -0.1316647114 1.684167476e-17)
(1.297811581 -0.1047701341 -2.290252635e-17)
(1.354790507 -0.09754698205 -3.572704094e-17)
(1.242567313 -0.07958508404 -5.764429293e-18)
(1.286232616 -0.07309083724 -3.159724189e-17)
(1.199394061 -0.0611840191 1.888804754e-18)
(1.232640157 -0.05473701776 2.924558094e-17)
(1.163631014 -0.04726669138 -1.855223593e-17)
(1.187931974 -0.04035500681 4.205204987e-17)
(1.132005089 -0.0363945692 -2.359434854e-17)
(1.148253207 -0.02867034923 1.985829831e-18)
(1.101841908 -0.02763823501 1.388055058e-17)
(1.111030953 -0.01896802932 -9.881170133e-18)
(1.069975033 -0.02023024777 2.103393739e-17)
(1.073561733 -0.01060041138 -1.685986504e-17)
(1.034070872 -0.01358225437 4.669183744e-17)
(1.020822416 0.0007430278451 -2.457305413e-17)
(0.9862921732 -0.007748000655 1.851719605e-17)
(2.097252306 -0.2684791567 5.325178106e-17)
(1.70489419 -0.2056233739 7.048851321e-17)
(1.803351999 -0.1849996143 3.291700719e-17)
(1.503686416 -0.1409995375 2.297046158e-17)
(1.600123591 -0.131106436 1.439421931e-17)
(1.386406025 -0.1017302993 3.02257212e-17)
(1.460990089 -0.0952181879 7.205849856e-18)
(1.307830843 -0.07578678167 1.824339751e-20)
(1.364090668 -0.07057546184 3.682746718e-17)
(1.250096563 -0.05760880308 -1.585710529e-17)
(1.293098312 -0.05294275075 4.401511169e-17)
(1.205055891 -0.04435893805 -1.71001909e-17)
(1.237611993 -0.03975739243 -1.794366827e-18)
(1.167787215 -0.03438124304 4.181677719e-18)
(1.191291197 -0.02949708192 -1.056060686e-17)
(1.134805481 -0.026635513 5.900716096e-18)
(1.1500731 -0.02126293526 -3.431719519e-18)
(1.103265015 -0.02041489955 -4.622176977e-18)
(1.111312105 -0.01458239616 3.685594539e-18)
(1.070139294 -0.0150562165 -8.507599971e-18)
(1.072892776 -0.009264591886 1.181994762e-18)
(1.03512022 -0.009511737341 -2.191214908e-17)
(1.019295759 -0.004484119535 1.490396763e-17)
(1.003040425 0.004268361444 -2.195463365e-17)
(2.121478396 -0.1624119 -3.519310488e-17)
(1.72351566 -0.1243848043 -3.309888482e-17)
(1.820097656 -0.1118815168 -4.067994885e-17)
(1.516457272 -0.08528173689 -1.121113708e-17)
(1.611997601 -0.07929292138 -9.129472103e-18)
(1.395621708 -0.06155197103 -2.345308292e-17)
(1.469619437 -0.05762451031 5.499655423e-18)
(1.314704071 -0.04590872824 -1.703267904e-17)
(1.37049974 -0.04278716568 -2.325106916e-18)
(1.255336408 -0.0349911613 -8.84322296e-18)
(1.29792805 -0.03222803136 -1.040247186e-17)
(1.209113736 -0.02709438901 -1.255112041e-18)
(1.241274187 -0.02441793199 7.931312947e-18)
(1.170965853 -0.02123738099 -8.406263258e-18)
(1.194072914 -0.01847272637 1.222808873e-17)
(1.137321188 -0.01681748583 -5.004946476e-18)
(1.152216684 -0.01390142618 -1.020468717e-18)
(1.105259106 -0.01341324915 1.871563817e-18)
(1.113048605 -0.01046638211 -2.624471852e-19)
(1.071377066 -0.01049244461 5.57255661e-19)
(1.07468239 -0.008083511661 5.963888209e-19)