/*--------------------------------*- C++ -*----------------------------------*\
| =========                 |                                                 |
| \\      /  F ield         | foam-extend: Open Source CFD                    |
|  \\    /   O peration     | Version:  3.0                                   |
|   \\  /    A nd           | Web:         http://www.extend-project.de       |
|    \\/     M anipulation  |                                                 |
\*---------------------------------------------------------------------------*/
FoamFile
{
    version     2.0;
    format      ascii;
    class       volScalarField;
    location    "15";
    object      p;
}
// * * * * * * * * * * * * * * * * * * * * * * * * * * * * * * * * * * * * * //

dimensions      [0 0 0 0 0 0 0];

internalField   nonuniform List<scalar> 
1920
(
-0.235519
-0.212628
-0.200325
-0.185781
-0.178719
-0.169128
-0.165175
-0.15876
-0.156731
-0.152424
-0.151557
-0.148628
-0.148361
-0.146238
-0.146084
-0.144254
-0.143729
-0.141667
-0.14023
-0.137339
-0.234519
-0.211725
-0.199474
-0.184992
-0.177959
-0.168409
-0.164472
-0.158085
-0.156063
-0.151775
-0.150912
-0.147995
-0.147729
-0.145615
-0.145461
-0.143639
-0.143115
-0.141062
-0.139632
-0.136753
-0.232498
-0.2099
-0.197755
-0.183398
-0.176426
-0.166958
-0.163056
-0.156724
-0.15472
-0.150468
-0.149613
-0.146721
-0.146458
-0.144362
-0.14421
-0.142404
-0.141885
-0.13985
-0.138431
-0.135578
-0.229498
-0.207191
-0.195203
-0.181031
-0.174149
-0.164803
-0.160951
-0.1547
-0.152722
-0.148525
-0.147681
-0.144826
-0.144566
-0.142497
-0.142346
-0.140564
-0.140051
-0.138042
-0.136642
-0.133825
-0.225499
-0.203581
-0.191802
-0.177877
-0.171115
-0.161932
-0.158147
-0.152005
-0.150062
-0.145938
-0.145109
-0.142304
-0.142049
-0.140016
-0.139868
-0.138117
-0.137613
-0.135639
-0.134264
-0.131496
-0.22055
-0.199113
-0.187593
-0.173973
-0.167359
-0.158377
-0.154675
-0.148668
-0.146767
-0.142734
-0.141923
-0.139179
-0.138929
-0.136941
-0.136796
-0.135083
-0.134591
-0.13266
-0.131314
-0.128607
-0.214641
-0.193778
-0.182567
-0.169312
-0.162875
-0.154135
-0.150532
-0.144686
-0.142836
-0.138911
-0.138122
-0.135452
-0.135209
-0.133274
-0.133134
-0.131466
-0.130987
-0.129108
-0.127799
-0.125164
-0.207829
-0.187628
-0.176772
-0.163938
-0.157705
-0.149242
-0.145753
-0.140093
-0.138302
-0.134501
-0.133736
-0.131151
-0.130915
-0.129042
-0.128906
-0.127291
-0.126827
-0.125008
-0.12374
-0.121189
-0.20011
-0.18066
-0.170207
-0.15785
-0.151849
-0.1437
-0.140341
-0.134891
-0.133167
-0.129508
-0.128771
-0.126282
-0.126056
-0.124252
-0.124121
-0.122566
-0.12212
-0.120368
-0.119147
-0.116691
-0.191551
-0.172933
-0.162927
-0.151098
-0.145354
-0.137553
-0.134338
-0.12912
-0.127469
-0.123966
-0.123262
-0.120879
-0.120662
-0.118935
-0.118809
-0.117321
-0.116894
-0.115217
-0.114048
-0.111697
-0.182156
-0.164451
-0.154936
-0.143687
-0.138225
-0.130807
-0.12775
-0.122788
-0.121219
-0.117888
-0.117218
-0.114952
-0.114745
-0.113104
-0.112984
-0.111569
-0.111163
-0.109568
-0.108457
-0.106221
-0.171997
-0.155279
-0.146294
-0.135673
-0.130515
-0.123511
-0.120623
-0.115939
-0.114456
-0.111311
-0.110678
-0.108539
-0.108343
-0.106793
-0.10668
-0.105344
-0.10496
-0.103455
-0.102405
-0.100294
-0.161084
-0.145427
-0.137013
-0.127066
-0.122235
-0.115676
-0.112972
-0.108585
-0.107196
-0.104251
-0.103658
-0.101655
-0.101472
-0.10002
-0.0999145
-0.0986632
-0.0983037
-0.0968937
-0.0959109
-0.093934
-0.149499
-0.134968
-0.127158
-0.117926
-0.113443
-0.107355
-0.104845
-0.100773
-0.0994849
-0.0967509
-0.0962008
-0.0943412
-0.0941715
-0.0928239
-0.0927258
-0.0915645
-0.0912307
-0.0899221
-0.08901
-0.0871752
-0.137257
-0.123916
-0.116746
-0.10827
-0.104154
-0.0985649
-0.096261
-0.0925228
-0.0913399
-0.0888299
-0.088325
-0.0866178
-0.0864622
-0.085225
-0.0851351
-0.084069
-0.0837626
-0.0825612
-0.0817239
-0.0800394
-0.124443
-0.112348
-0.105847
-0.0981621
-0.0944302
-0.0893625
-0.0872734
-0.083884
-0.0828113
-0.0805355
-0.0800775
-0.0785295
-0.0783883
-0.0772665
-0.0771849
-0.0762182
-0.0759403
-0.074851
-0.0740918
-0.0725646
-0.11108
-0.100284
-0.0944816
-0.0876221
-0.0842911
-0.0797677
-0.0779031
-0.0748778
-0.0739205
-0.0718893
-0.0714806
-0.070099
-0.0699731
-0.0689719
-0.0688991
-0.0680363
-0.0677884
-0.0668161
-0.0661385
-0.0647753
-0.0972587
-0.0878051
-0.0827247
-0.0767185
-0.0738018
-0.069841
-0.0682082
-0.0655592
-0.0647208
-0.0629422
-0.0625842
-0.0613743
-0.0612639
-0.0603872
-0.0603234
-0.0595678
-0.0593507
-0.0584993
-0.057906
-0.0567124
-0.0830037
-0.074936
-0.0706003
-0.0654747
-0.0629857
-0.0596056
-0.0582123
-0.0559517
-0.0552364
-0.0537186
-0.0534132
-0.0523808
-0.0522867
-0.0515386
-0.0514843
-0.0508396
-0.0506543
-0.0499279
-0.0494215
-0.048403
-0.0684099
-0.0617604
-0.0581869
-0.0539622
-0.0519106
-0.0491246
-0.0479761
-0.0461128
-0.045523
-0.0442719
-0.0440201
-0.0431691
-0.0430913
-0.0424747
-0.0424297
-0.0418983
-0.0417455
-0.0411468
-0.0407294
-0.03989
-0.0535066
-0.0483059
-0.0455111
-0.042207
-0.0406025
-0.0384236
-0.0375255
-0.0360683
-0.0356071
-0.0346287
-0.0344319
-0.0337664
-0.0337058
-0.0332236
-0.0331885
-0.032773
-0.0326536
-0.0321853
-0.031859
-0.0312025
-0.0383908
-0.0346591
-0.0326536
-0.0302827
-0.0291312
-0.0275677
-0.0269231
-0.0258774
-0.0255464
-0.0248442
-0.0247028
-0.0242252
-0.0241815
-0.0238355
-0.0238102
-0.023512
-0.0234262
-0.0230902
-0.0228561
-0.022385
-0.0230939
-0.0208493
-0.0196431
-0.018217
-0.0175246
-0.0165842
-0.0161966
-0.0155677
-0.0153686
-0.0149464
-0.0148615
-0.0145743
-0.0145481
-0.01434
-0.014325
-0.0141457
-0.0140942
-0.0138922
-0.0137514
-0.0134681
-0.00771482
-0.00696478
-0.00656162
-0.00608506
-0.00585356
-0.00553925
-0.00540958
-0.00519934
-0.00513268
-0.00499151
-0.00496297
-0.00486694
-0.00485806
-0.00478848
-0.00478334
-0.00472341
-0.00470617
-0.0046387
-0.00459169
-0.00449716
0.00771395
0.00696407
0.00656106
0.0060846
0.00585322
0.00553901
0.00540949
0.00519932
0.00513281
0.00499167
0.00496326
0.00486722
0.00485844
0.00478881
0.0047837
0.00472367
0.00470636
0.0046387
0.00459151
0.00449668
0.023093
0.0208486
0.0196425
0.0182166
0.0175242
0.016584
0.0161965
0.0155676
0.0153688
0.0149465
0.0148617
0.0145746
0.0145485
0.0143404
0.0143253
0.0141459
0.0140944
0.0138921
0.0137512
0.0134676
0.0383899
0.0346583
0.032653
0.0302822
0.0291309
0.0275675
0.026923
0.0258773
0.0255464
0.0248443
0.0247031
0.0242254
0.0241819
0.0238357
0.0238105
0.0235122
0.0234264
0.0230902
0.0228558
0.0223845
0.0535057
0.0483052
0.0455105
0.0422064
0.0406021
0.0384233
0.0375253
0.0360682
0.0356072
0.0346288
0.0344321
0.0337666
0.033706
0.0332238
0.0331888
0.0327731
0.0326537
0.0321852
0.0318587
0.0312019
0.068409
0.0617596
0.0581862
0.0539616
0.0519101
0.0491243
0.0479759
0.0461126
0.045523
0.0442719
0.0440202
0.0431691
0.0430915
0.0424748
0.0424299
0.0418983
0.0417455
0.0411465
0.040729
0.0398893
0.0830027
0.0749352
0.0705997
0.0654741
0.0629852
0.0596052
0.0582121
0.0559515
0.0552363
0.0537185
0.0534133
0.0523809
0.0522868
0.0515387
0.0514843
0.0508395
0.0506542
0.0499275
0.0494211
0.0484022
0.0972577
0.0878043
0.0827239
0.0767178
0.0738012
0.0698405
0.0682079
0.0655589
0.0647206
0.062942
0.0625841
0.0613742
0.0612639
0.0603871
0.0603232
0.0595676
0.0593504
0.0584988
0.0579053
0.0567115
0.111079
0.100283
0.0944808
0.0876214
0.0842905
0.0797672
0.0779027
0.0748774
0.0739202
0.071889
0.0714804
0.0700988
0.0699729
0.0689717
0.0688989
0.068036
0.067788
0.0668156
0.0661378
0.0647743
0.124442
0.112347
0.105846
0.0981613
0.0944295
0.0893618
0.0872728
0.0838834
0.0828109
0.0805351
0.0800772
0.0785292
0.078388
0.0772661
0.0771845
0.0762176
0.0759397
0.0748502
0.0740908
0.0725634
0.137256
0.123915
0.116745
0.108269
0.104154
0.0985642
0.0962603
0.0925221
0.0913393
0.0888294
0.0883245
0.0866173
0.0864617
0.0852245
0.0851346
0.0840683
0.0837619
0.0825603
0.0817228
0.0800381
0.149498
0.134967
0.127157
0.117925
0.113442
0.107354
0.104845
0.100773
0.0994842
0.0967502
0.0962001
0.0943404
0.0941708
0.0928231
0.092725
0.0915636
0.0912297
0.0899209
0.0890086
0.0871737
0.161083
0.145426
0.137012
0.127065
0.122234
0.115675
0.112971
0.108584
0.107196
0.10425
0.103657
0.101654
0.101471
0.100019
0.0999135
0.0986622
0.0983025
0.0968924
0.0959095
0.0939324
0.171995
0.155277
0.146293
0.135672
0.130514
0.12351
0.120622
0.115938
0.114455
0.11131
0.110677
0.108538
0.108342
0.106792
0.106679
0.105343
0.104959
0.103453
0.102403
0.100292
0.182154
0.164449
0.154935
0.143686
0.138224
0.130806
0.127748
0.122787
0.121218
0.117887
0.117216
0.114951
0.114744
0.113102
0.112983
0.111568
0.111161
0.109567
0.108455
0.106219
0.19155
0.172931
0.162926
0.151097
0.145352
0.137552
0.134336
0.129119
0.127468
0.123965
0.12326
0.120878
0.12066
0.118933
0.118808
0.11732
0.116892
0.115215
0.114046
0.111695
0.200109
0.180659
0.170206
0.157849
0.151848
0.143699
0.14034
0.13489
0.133165
0.129506
0.12877
0.126281
0.126054
0.12425
0.124119
0.122565
0.122118
0.120366
0.119145
0.116689
0.207827
0.187627
0.176771
0.163936
0.157704
0.149241
0.145752
0.140091
0.1383
0.134499
0.133735
0.131149
0.130914
0.12904
0.128904
0.127289
0.126825
0.125006
0.123738
0.121187
0.214639
0.193777
0.182565
0.16931
0.162874
0.154133
0.15053
0.144685
0.142835
0.13891
0.13812
0.13545
0.135207
0.133272
0.133132
0.131464
0.130985
0.129106
0.127796
0.125162
0.220549
0.199111
0.187591
0.173971
0.167357
0.158376
0.154673
0.148666
0.146766
0.142732
0.141921
0.139177
0.138927
0.136939
0.136794
0.135081
0.134588
0.132657
0.131312
0.128605
0.225497
0.203579
0.1918
0.177875
0.171113
0.16193
0.158145
0.152004
0.15006
0.145937
0.145107
0.142302
0.142046
0.140014
0.139866
0.138114
0.137611
0.135637
0.134261
0.131493
0.229496
0.20719
0.195202
0.181029
0.174147
0.164801
0.160949
0.154698
0.15272
0.148523
0.147678
0.144824
0.144563
0.142494
0.142344
0.140561
0.140048
0.138039
0.136639
0.133822
0.232497
0.209898
0.197754
0.183396
0.176424
0.166957
0.163054
0.156722
0.154718
0.150466
0.149611
0.146719
0.146455
0.14436
0.144207
0.142401
0.141882
0.139847
0.138428
0.135575
0.234518
0.211723
0.199472
0.18499
0.177957
0.168407
0.16447
0.158082
0.156061
0.151772
0.150909
0.147992
0.147726
0.145612
0.145458
0.143636
0.143113
0.14106
0.139629
0.13675
0.235518
0.212626
0.200324
0.18578
0.178717
0.169126
0.165173
0.158758
0.156729
0.152422
0.151555
0.148626
0.148359
0.146236
0.146081
0.144252
0.143726
0.141664
0.140227
0.137337
0.235526
0.212633
0.20033
0.185785
0.178722
0.169131
0.165177
0.158762
0.156732
0.152425
0.151558
0.148629
0.148361
0.146238
0.146084
0.144254
0.143728
0.141666
0.140229
0.137338
0.234509
0.211715
0.199466
0.184984
0.177952
0.168402
0.164465
0.158078
0.156057
0.151769
0.150906
0.147989
0.147723
0.145609
0.145456
0.143634
0.14311
0.141058
0.139627
0.136749
0.232505
0.209905
0.19776
0.183402
0.17643
0.166961
0.163058
0.156726
0.154722
0.15047
0.149614
0.146722
0.146458
0.144362
0.14421
0.142403
0.141884
0.139849
0.13843
0.135577
0.229488
0.207182
0.195195
0.181023
0.174142
0.164796
0.160944
0.154694
0.152716
0.148519
0.147675
0.14482
0.14456
0.142492
0.142341
0.140559
0.140046
0.138037
0.136637
0.133821
0.225505
0.203586
0.191807
0.177881
0.171118
0.161935
0.158149
0.152007
0.150064
0.14594
0.14511
0.142305
0.142049
0.140016
0.139868
0.138116
0.137613
0.135639
0.134263
0.131495
0.22054
0.199104
0.187584
0.173965
0.167352
0.158371
0.154669
0.148662
0.146761
0.142728
0.141917
0.139174
0.138924
0.136936
0.136791
0.135078
0.134586
0.132655
0.13131
0.128603
0.214647
0.193784
0.182571
0.169316
0.162879
0.154138
0.150535
0.144688
0.142838
0.138913
0.138123
0.135453
0.135209
0.133274
0.133134
0.131466
0.130987
0.129108
0.127798
0.125164
0.207819
0.187619
0.176764
0.16393
0.157698
0.149235
0.145747
0.140087
0.138296
0.134495
0.133731
0.131146
0.13091
0.129037
0.128901
0.127287
0.126823
0.125003
0.123735
0.121185
0.200117
0.180666
0.170212
0.157854
0.151853
0.143703
0.140344
0.134894
0.133169
0.129509
0.128773
0.126283
0.126056
0.124252
0.124121
0.122566
0.12212
0.120368
0.119147
0.116691
0.191541
0.172924
0.162919
0.15109
0.145347
0.137547
0.134331
0.129115
0.127464
0.123961
0.123257
0.120874
0.120657
0.11893
0.118805
0.117317
0.116889
0.115213
0.114044
0.111693
0.182162
0.164456
0.154941
0.143691
0.138229
0.13081
0.127752
0.122791
0.121221
0.117889
0.117219
0.114953
0.114746
0.113104
0.112985
0.11157
0.111163
0.109568
0.108457
0.106221
0.171987
0.15527
0.146286
0.135665
0.130508
0.123504
0.120617
0.115933
0.114451
0.111306
0.110673
0.108534
0.108339
0.106789
0.106676
0.10534
0.104956
0.103451
0.102401
0.100291
0.161091
0.145433
0.137018
0.12707
0.122239
0.115679
0.112975
0.108587
0.107199
0.104253
0.10366
0.101656
0.101473
0.100021
0.0999154
0.0986639
0.0983043
0.0968941
0.0959112
0.0939342
0.149489
0.134959
0.12715
0.117919
0.113436
0.107349
0.104839
0.100768
0.0994797
0.0967461
0.0961961
0.0943367
0.0941673
0.0928198
0.0927219
0.0915607
0.0912271
0.0899186
0.0890066
0.0871719
0.137264
0.123922
0.116751
0.108275
0.104158
0.0985684
0.0962641
0.0925255
0.0913423
0.0888321
0.0883269
0.0866195
0.0864637
0.0852264
0.0851364
0.08407
0.0837636
0.082562
0.0817245
0.08004
0.124434
0.112339
0.105839
0.098155
0.0944236
0.0893564
0.0872676
0.0838786
0.0828063
0.0805308
0.0800731
0.0785254
0.0783843
0.0772628
0.0771813
0.0762148
0.075937
0.0748479
0.0740888
0.0725616
0.111087
0.10029
0.0944868
0.0876266
0.0842952
0.0797713
0.0779064
0.0748807
0.0739231
0.0718916
0.0714828
0.0701009
0.0699749
0.0689735
0.0689006
0.0680377
0.0677897
0.0668173
0.0661395
0.0647762
0.097249
0.0877966
0.0827168
0.0767114
0.0737952
0.069835
0.0682026
0.065554
0.0647159
0.0629377
0.0625799
0.0613704
0.0612602
0.0603837
0.06032
0.0595647
0.0593477
0.0584965
0.0579032
0.0567098
0.0830107
0.0749419
0.0706057
0.0654793
0.0629898
0.0596093
0.0582157
0.0559547
0.0552392
0.0537211
0.0534155
0.052383
0.0522887
0.0515405
0.051486
0.0508412
0.0506558
0.0499292
0.0494228
0.0484041
0.0684003
0.0617519
0.0581791
0.0539552
0.0519041
0.0491187
0.0479706
0.0461077
0.0455183
0.0442675
0.044016
0.0431653
0.0430878
0.0424713
0.0424266
0.0418954
0.0417428
0.0411441
0.0407269
0.0398875
0.0535136
0.048312
0.0455165
0.0422116
0.0406067
0.0384274
0.0375289
0.0360713
0.03561
0.0346313
0.0344344
0.0337687
0.0337079
0.0332255
0.0331904
0.0327747
0.0326553
0.0321869
0.0318604
0.0312037
0.0383812
0.0346506
0.0326458
0.0302757
0.0291248
0.0275619
0.0269177
0.0258724
0.0255417
0.0248399
0.0246988
0.0242215
0.0241781
0.0238322
0.0238072
0.0235092
0.0234236
0.0230877
0.0228537
0.0223827
0.023101
0.0208554
0.0196485
0.0182218
0.0175289
0.016588
0.0162001
0.0155708
0.0153716
0.0149491
0.014864
0.0145766
0.0145503
0.0143421
0.0143269
0.0141475
0.014096
0.0138938
0.0137529
0.0134695
0.00770525
0.00695635
0.00655389
0.00607814
0.00584713
0.00553343
0.00540415
0.00519439
0.00512804
0.00498726
0.00495899
0.00486327
0.00485464
0.00478532
0.00478039
0.00472067
0.0047036
0.00463627
0.00458938
0.00449491
-0.00770685
-0.00695799
-0.00655563
-0.00607987
-0.00584892
-0.00553521
-0.00540599
-0.00519618
-0.00512988
-0.004989
-0.00496073
-0.00486489
-0.00485621
-0.00478674
-0.0047817
-0.0047218
-0.00470457
-0.00463704
-0.00458995
-0.00449528
-0.0231026
-0.020857
-0.0196502
-0.0182235
-0.0175307
-0.0165898
-0.0162019
-0.0155726
-0.0153734
-0.0149508
-0.0148657
-0.0145782
-0.0145519
-0.0143436
-0.0143283
-0.0141487
-0.014097
-0.0138946
-0.0137535
-0.0134699
-0.0383828
-0.0346523
-0.0326475
-0.0302774
-0.0291266
-0.0275637
-0.0269195
-0.0258742
-0.0255436
-0.0248417
-0.0247006
-0.0242232
-0.0241797
-0.0238337
-0.0238086
-0.0235104
-0.0234246
-0.0230886
-0.0228543
-0.0223832
-0.0535153
-0.0483136
-0.0455182
-0.0422134
-0.0406086
-0.0384292
-0.0375308
-0.0360732
-0.0356119
-0.0346332
-0.0344362
-0.0337704
-0.0337096
-0.0332271
-0.0331919
-0.032776
-0.0326564
-0.0321878
-0.0318612
-0.0312043
-0.0684019
-0.0617536
-0.0581808
-0.0539569
-0.0519059
-0.0491205
-0.0479725
-0.0461096
-0.0455202
-0.0442694
-0.0440178
-0.043167
-0.0430895
-0.0424729
-0.0424281
-0.0418967
-0.0417439
-0.0411451
-0.0407277
-0.0398881
-0.0830123
-0.0749437
-0.0706075
-0.0654811
-0.0629917
-0.0596112
-0.0582176
-0.0559566
-0.0552411
-0.053723
-0.0534175
-0.0523848
-0.0522905
-0.0515421
-0.0514876
-0.0508426
-0.0506571
-0.0499303
-0.0494237
-0.0484048
-0.0972506
-0.0877982
-0.0827186
-0.0767132
-0.073797
-0.0698369
-0.0682046
-0.0655559
-0.0647179
-0.0629396
-0.0625818
-0.0613722
-0.061262
-0.0603853
-0.0603216
-0.0595661
-0.059349
-0.0584976
-0.0579042
-0.0567105
-0.111089
-0.100291
-0.0944887
-0.0876285
-0.0842971
-0.0797732
-0.0779084
-0.0748827
-0.0739252
-0.0718936
-0.0714848
-0.0701029
-0.0699768
-0.0689753
-0.0689024
-0.0680393
-0.0677911
-0.0668186
-0.0661406
-0.0647771
-0.124435
-0.112341
-0.105841
-0.0981568
-0.0944255
-0.0893583
-0.0872696
-0.0838806
-0.0828083
-0.0805328
-0.0800751
-0.0785273
-0.0783863
-0.0772646
-0.0771831
-0.0762164
-0.0759386
-0.0748492
-0.0740899
-0.0725627
-0.137265
-0.123923
-0.116753
-0.108277
-0.10416
-0.0985704
-0.0962662
-0.0925275
-0.0913445
-0.0888342
-0.0883291
-0.0866216
-0.0864658
-0.0852284
-0.0851383
-0.0840718
-0.0837653
-0.0825636
-0.0817259
-0.0800412
-0.149491
-0.134961
-0.127152
-0.117921
-0.113438
-0.107351
-0.104841
-0.10077
-0.0994818
-0.0967481
-0.0961982
-0.0943388
-0.0941693
-0.0928218
-0.0927239
-0.0915626
-0.0912288
-0.0899202
-0.089008
-0.0871732
-0.161093
-0.145435
-0.13702
-0.127072
-0.122241
-0.115681
-0.112977
-0.108589
-0.107201
-0.104255
-0.103662
-0.101658
-0.101475
-0.100023
-0.0999175
-0.098666
-0.0983062
-0.0968959
-0.0959129
-0.0939357
-0.171988
-0.155272
-0.146288
-0.135667
-0.13051
-0.123506
-0.120619
-0.115935
-0.114453
-0.111308
-0.110675
-0.108536
-0.108341
-0.106791
-0.106678
-0.105342
-0.104958
-0.103453
-0.102403
-0.100292
-0.182164
-0.164458
-0.154943
-0.143693
-0.138231
-0.130812
-0.127755
-0.122793
-0.121223
-0.117892
-0.117221
-0.114955
-0.114749
-0.113107
-0.112987
-0.111572
-0.111165
-0.10957
-0.108459
-0.106223
-0.191543
-0.172926
-0.162921
-0.151092
-0.145349
-0.137549
-0.134334
-0.129117
-0.127466
-0.123963
-0.123259
-0.120876
-0.120659
-0.118933
-0.118807
-0.117319
-0.116892
-0.115215
-0.114046
-0.111695
-0.200119
-0.180667
-0.170214
-0.157856
-0.151855
-0.143706
-0.140346
-0.134896
-0.133171
-0.129511
-0.128775
-0.126286
-0.126059
-0.124255
-0.124124
-0.122569
-0.122122
-0.12037
-0.119149
-0.116693
-0.20782
-0.187621
-0.176766
-0.163932
-0.1577
-0.149238
-0.145749
-0.140089
-0.138298
-0.134498
-0.133733
-0.131148
-0.130913
-0.12904
-0.128903
-0.127289
-0.126825
-0.125006
-0.123738
-0.121187
-0.214649
-0.193786
-0.182573
-0.169318
-0.162881
-0.15414
-0.150537
-0.144691
-0.142841
-0.138915
-0.138125
-0.135455
-0.135212
-0.133277
-0.133136
-0.131469
-0.130989
-0.12911
-0.127801
-0.125166
-0.220542
-0.199106
-0.187586
-0.173967
-0.167354
-0.158373
-0.154671
-0.148664
-0.146764
-0.142731
-0.14192
-0.139176
-0.138926
-0.136938
-0.136794
-0.135081
-0.134588
-0.132658
-0.131312
-0.128605
-0.225507
-0.203588
-0.191809
-0.177883
-0.17112
-0.161937
-0.158152
-0.15201
-0.150066
-0.145942
-0.145112
-0.142307
-0.142052
-0.140019
-0.139871
-0.138119
-0.137616
-0.135641
-0.134265
-0.131498
-0.22949
-0.207184
-0.195197
-0.181025
-0.174144
-0.164798
-0.160946
-0.154696
-0.152718
-0.148522
-0.147677
-0.144823
-0.144563
-0.142494
-0.142344
-0.140561
-0.140049
-0.13804
-0.13664
-0.133823
-0.232507
-0.209907
-0.197762
-0.183404
-0.176432
-0.166964
-0.163061
-0.156728
-0.154724
-0.150472
-0.149617
-0.146724
-0.146461
-0.144365
-0.144212
-0.142406
-0.141887
-0.139852
-0.138433
-0.135579
-0.234511
-0.211717
-0.199468
-0.184986
-0.177954
-0.168404
-0.164468
-0.158081
-0.15606
-0.151771
-0.150909
-0.147992
-0.147726
-0.145612
-0.145458
-0.143637
-0.143113
-0.14106
-0.139629
-0.136751
-0.235528
-0.212635
-0.200332
-0.185787
-0.178724
-0.169133
-0.165179
-0.158765
-0.156735
-0.152427
-0.151561
-0.148631
-0.148364
-0.146241
-0.146086
-0.144257
-0.143731
-0.141669
-0.140232
-0.137341
)
;

boundaryField
{
    out
    {
        type            implicitExtrapolation;
    }
    in
    {
        type            implicitExtrapolation;
    }
    frontAndBack
    {
        type            empty;
    }
}


// ************************************************************************* //
