/*--------------------------------*- C++ -*----------------------------------*\
| =========                 |                                                 |
| \\      /  F ield         | foam-extend: Open Source CFD                    |
|  \\    /   O peration     | Version:  3.0                                   |
|   \\  /    A nd           | Web:         http://www.extend-project.de       |
|    \\/     M anipulation  |                                                 |
\*---------------------------------------------------------------------------*/
FoamFile
{
    version     2.0;
    format      ascii;
    class       volVectorField;
    location    "15";
    object      u;
}
// * * * * * * * * * * * * * * * * * * * * * * * * * * * * * * * * * * * * * //

dimensions      [0 0 0 0 0 0 0];

internalField   nonuniform List<vector> 
1920
(
(0.148026 -0.0595604 5.58084e-18)
(0.340801 -0.0471186 1.83955e-18)
(0.490181 -0.0379698 1.78309e-18)
(0.596072 -0.0309011 -5.12156e-19)
(0.683694 -0.0255115 4.10438e-18)
(0.74628 -0.0211972 1.03451e-18)
(0.801446 -0.0177873 3.42431e-18)
(0.840228 -0.0149797 2.26623e-18)
(0.876807 -0.0126758 6.21575e-19)
(0.901389 -0.0107408 -7.24418e-19)
(0.926539 -0.00908188 -2.02495e-18)
(0.942005 -0.00767366 7.05973e-19)
(0.959676 -0.00639853 1.95437e-18)
(0.968861 -0.00531572 -8.1939e-19)
(0.981341 -0.00426613 -7.00324e-19)
(0.985872 -0.00338436 8.82685e-19)
(0.994529 -0.00245791 -7.4335e-18)
(0.995341 -0.00169413 -2.01932e-18)
(1.001 -0.000834038 -3.50724e-18)
(0.998645 -2.13802e-05 8.99048e-19)
(0.163573 -0.177653 9.60889e-18)
(0.3531 -0.140541 1.17188e-18)
(0.500092 -0.113252 2.63654e-18)
(0.604138 -0.0921666 -5.21989e-18)
(0.690353 -0.0760901 -2.73498e-18)
(0.751812 -0.0632209 -1.11988e-19)
(0.806088 -0.0530496 -2.29878e-18)
(0.844138 -0.0446751 7.85801e-18)
(0.880115 -0.0378029 5.76185e-18)
(0.904192 -0.0320314 6.16367e-18)
(0.928909 -0.0270831 3.50336e-18)
(0.944008 -0.0228827 5.31547e-18)
(0.961345 -0.0190792 1.63706e-18)
(0.970248 -0.0158494 1.44841e-18)
(0.982454 -0.0127186 2.46033e-18)
(0.986755 -0.0100885 1.20895e-17)
(0.99517 -0.00732502 1.38349e-17)
(0.995782 -0.00504678 1.20381e-17)
(1.00122 -0.00248143 5.22476e-18)
(0.99865 -5.6503e-05 3.96914e-18)
(0.194402 -0.292705 4.68982e-18)
(0.377489 -0.231558 6.21314e-19)
(0.519744 -0.186596 4.61648e-18)
(0.620132 -0.151855 4.77128e-18)
(0.703557 -0.125367 -1.81669e-18)
(0.762783 -0.104163 1.59572e-18)
(0.815294 -0.0874044 6.08829e-18)
(0.85189 -0.0736061 -8.12871e-18)
(0.886675 -0.0622833 -8.44798e-18)
(0.90975 -0.0527738 -5.40144e-18)
(0.933608 -0.0446208 -5.05089e-18)
(0.947978 -0.0377001 -1.67413e-18)
(0.964656 -0.0314333 4.20921e-19)
(0.972998 -0.0261118 -2.48941e-18)
(0.98466 -0.0209535 -1.09433e-17)
(0.988505 -0.01662 -9.88206e-18)
(0.996441 -0.0120668 -1.82187e-17)
(0.996658 -0.0083131 -8.09216e-18)
(1.00165 -0.00408641 -1.52283e-17)
(0.99866 -9.06798e-05 1.13973e-17)
(0.239984 -0.402749 7.39172e-18)
(0.413549 -0.318614 3.60849e-18)
(0.548802 -0.256747 4.45183e-18)
(0.643779 -0.208945 4.38852e-18)
(0.723079 -0.172498 2.31138e-18)
(0.779004 -0.143323 -1.00764e-17)
(0.828905 -0.120264 -6.32469e-18)
(0.863352 -0.101278 -8.42064e-18)
(0.896374 -0.085698 -1.7287e-17)
(0.917968 -0.0726134 -2.04811e-18)
(0.940557 -0.0613953 -1.1611e-18)
(0.953849 -0.0518726 -9.50314e-18)
(0.96955 -0.0432498 9.76121e-18)
(0.977064 -0.0359277 8.61778e-19)
(0.987923 -0.02883 3.85467e-18)
(0.991093 -0.0228673 -1.14305e-17)
(0.99832 -0.0166023 -7.65146e-18)
(0.997952 -0.0114373 6.21168e-18)
(1.00228 -0.00562153 1.38695e-17)
(0.998673 -0.000123397 2.91549e-18)
(0.29954 -0.505903 1.27509e-17)
(0.460663 -0.400218 7.35087e-18)
(0.586768 -0.322505 7.18018e-18)
(0.674677 -0.26246 1.14052e-17)
(0.748587 -0.216679 1.62283e-17)
(0.800197 -0.18003 1.03973e-17)
(0.846688 -0.151065 1.24e-18)
(0.878328 -0.127217 9.38707e-18)
(0.909046 -0.107646 4.91523e-18)
(0.928705 -0.0912105 6.72409e-18)
(0.949635 -0.0771191 1.70176e-18)
(0.961519 -0.0651575 -1.08044e-17)
(0.975946 -0.0543262 4.84104e-18)
(0.982376 -0.0451287 1.39039e-17)
(0.992186 -0.0362131 -1.1078e-17)
(0.994474 -0.0287232 3.11078e-17)
(1.00077 -0.0208536 -1.47759e-17)
(0.999643 -0.0143657 1.41465e-17)
(1.00311 -0.00706049 -1.26447e-17)
(0.998691 -0.000154021 -1.79485e-18)
(0.372051 -0.6004 1.80657e-17)
(0.518026 -0.474974 1.48095e-17)
(0.632992 -0.382745 1.20992e-17)
(0.712294 -0.311485 -1.87338e-17)
(0.779643 -0.257151 2.9105e-18)
(0.826 -0.213658 -4.3559e-19)
(0.86834 -0.179282 2.62158e-17)
(0.896562 -0.150979 1.32902e-18)
(0.924475 -0.127753 5.97751e-19)
(0.941778 -0.108247 -2.0529e-17)
(0.960688 -0.0915236 8.56993e-18)
(0.970857 -0.0773276 -5.17224e-18)
(0.983732 -0.0644732 2.70681e-18)
(0.988844 -0.0535577 -1.70159e-17)
(0.997376 -0.0429767 -4.43731e-21)
(0.998591 -0.0340878 5.75433e-18)
(1.00376 -0.0247482 -2.78855e-18)
(1.0017 -0.0170485 3.2843e-18)
(1.00412 -0.0083787 4.57948e-19)
(0.998713 -0.000182132 -2.49128e-17)
(0.456275 -0.684624 -6.22266e-18)
(0.584655 -0.541603 -1.11563e-17)
(0.686684 -0.436437 -9.3994e-18)
(0.75599 -0.35518 1.94437e-18)
(0.815716 -0.293224 2.77913e-18)
(0.855972 -0.243629 -1.94822e-18)
(0.89349 -0.204431 -5.53753e-18)
(0.917741 -0.172158 -1.02786e-17)
(0.942395 -0.145674 1.14248e-17)
(0.956963 -0.123432 -1.5708e-17)
(0.973527 -0.104362 -1.34286e-18)
(0.981705 -0.0881746 -2.42265e-17)
(0.992776 -0.0735169 -1.02569e-18)
(0.996357 -0.0610702 -4.05605e-17)
(1.0034 -0.049005 -1.66139e-17)
(1.00337 -0.0388692 -3.30036e-19)
(1.00723 -0.0282194 -8.63454e-18)
(1.00409 -0.0194396 -2.28797e-17)
(1.0053 -0.00955358 1.72065e-17)
(0.998738 -0.000207137 -2.49179e-17)
(0.550773 -0.757134 -9.13437e-19)
(0.659412 -0.598965 -3.4156e-17)
(0.746924 -0.48266 -5.7743e-19)
(0.805014 -0.392797 4.98618e-18)
(0.856189 -0.32428 -1.82146e-17)
(0.8896 -0.269432 -4.61738e-18)
(0.921707 -0.226083 2.14323e-18)
(0.941503 -0.190391 2.27462e-18)
(0.962502 -0.161102 3.07839e-17)
(0.973999 -0.136504 -4.34609e-18)
(0.987931 -0.115415 1.7548e-17)
(0.993875 -0.0975131 -1.40837e-18)
(1.00292 -0.0813029 3.92263e-17)
(1.00479 -0.067538 -1.58584e-17)
(1.01017 -0.0541949 2.13137e-17)
(1.00874 -0.0429856 3.23446e-17)
(1.01113 -0.0312079 -1.97154e-17)
(1.00678 -0.0214982 5.70668e-17)
(1.00662 -0.010565 9.65464e-19)
(0.998767 -0.000228726 5.1175e-17)
(0.653926 -0.816689 3.73289e-18)
(0.741016 -0.646079 -5.79708e-18)
(0.812683 -0.520626 -5.58124e-18)
(0.85853 -0.423694 3.87363e-18)
(0.90037 -0.349788 1.17744e-17)
(0.926307 -0.290625 -1.16014e-17)
(0.952508 -0.243866 1.11589e-17)
(0.967442 -0.205367 4.62949e-18)
(0.984451 -0.173774 8.289e-18)
(0.992597 -0.147241 2.82583e-17)
(1.00366 -0.124493 -1.51682e-17)
(1.00716 -0.105183 -3.29739e-17)
(1.014 -0.0876978 3.17445e-17)
(1.01399 -0.0728501 -1.91483e-17)
(1.01755 -0.0584575 -2.42189e-18)
(1.01459 -0.0463664 -1.5791e-17)
(1.01538 -0.0336623 2.25867e-17)
(1.0097 -0.0231888 3.20772e-17)
(1.00806 -0.0113958 -2.63652e-17)
(0.998798 -0.000246407 2.72322e-17)
(0.763971 -0.862271 1.30066e-17)
(0.828071 -0.682138 -1.47235e-18)
(0.882834 -0.549683 4.33281e-19)
(0.91562 -0.447342 6.08128e-18)
(0.947502 -0.36931 5.58623e-18)
(0.965467 -0.306846 1.14338e-17)
(0.985368 -0.257477 5.68888e-18)
(0.995114 -0.216829 1.65343e-17)
(1.00787 -0.183473 -6.48851e-18)
(1.01244 -0.155459 -8.91339e-18)
(1.02043 -0.131441 -5.50989e-18)
(1.02133 -0.111053 -2.14005e-17)
(1.02582 -0.0925923 -1.1094e-17)
(1.0238 -0.0769159 5.65375e-18)
(1.02543 -0.0617199 -2.76152e-17)
(1.02084 -0.0489541 1.8381e-17)
(1.01992 -0.0355409 -5.32983e-17)
(1.01283 -0.0244829 5.20041e-19)
(1.00959 -0.0120316 -2.60908e-17)
(0.998831 -0.000259994 2.26109e-17)
(0.879023 -0.893099 -1.42871e-17)
(0.919089 -0.706526 -6.43028e-19)
(0.956178 -0.569335 4.99668e-18)
(0.975309 -0.463335 -3.50673e-18)
(0.996778 -0.382514 2.32953e-17)
(1.00641 -0.317816 -2.61774e-17)
(1.01972 -0.266682 -9.43989e-18)
(1.02404 -0.22458 -8.36162e-18)
(1.03235 -0.190032 -3.44859e-18)
(1.03318 -0.161017 -3.12382e-17)
(1.03797 -0.13614 -7.07029e-19)
(1.03615 -0.115024 2.31152e-17)
(1.03817 -0.0959024 -5.00258e-18)
(1.03407 -0.0796655 -2.37742e-17)
(1.03366 -0.0639264 -6.85157e-18)
(1.02737 -0.050704 7.3181e-18)
(1.02466 -0.0368114 2.09915e-17)
(1.0161 -0.025358 3.81894e-18)
(1.0112 -0.0124616 1.35475e-17)
(0.998865 -0.000269126 -7.62182e-17)
(0.997116 -0.908645 -1.61538e-17)
(1.01251 -0.718825 -1.43393e-17)
(1.03146 -0.579246 -4.96056e-19)
(1.03657 -0.4714 4.80181e-18)
(1.04736 -0.389172 -1.26464e-17)
(1.04843 -0.323348 -7.63031e-18)
(1.05498 -0.271324 5.51811e-18)
(1.05374 -0.22849 -4.91321e-18)
(1.05747 -0.19334 1.94661e-17)
(1.05447 -0.163819 1.2849e-17)
(1.05597 -0.13851 1.03349e-18)
(1.05136 -0.117026 4.58218e-18)
(1.05085 -0.0975717 2.78873e-18)
(1.0446 -0.0810522 4.47222e-17)
(1.04212 -0.065039 -2.58803e-17)
(1.03408 -0.0515866 -1.28493e-18)
(1.02953 -0.037452 -2.68859e-18)
(1.01945 -0.0257993 -3.97039e-18)
(1.01285 -0.0126783 -1.863e-17)
(0.998901 -0.000273762 3.08672e-17)
(1.11623 -0.908645 -7.18232e-18)
(1.10674 -0.718825 -1.50802e-17)
(1.10739 -0.579246 -3.08968e-18)
(1.09837 -0.4714 9.96141e-18)
(1.09837 -0.389172 -2.34754e-17)
(1.09082 -0.323348 -5.90574e-18)
(1.09055 -0.271324 -4.87093e-18)
(1.08369 -0.22849 6.56172e-18)
(1.08282 -0.19334 1.85514e-17)
(1.07594 -0.163819 1.83785e-17)
(1.07412 -0.13851 1.72806e-18)
(1.0667 -0.117026 2.11982e-18)
(1.06364 -0.0975716 -8.60675e-19)
(1.05522 -0.0810521 7.07726e-18)
(1.05064 -0.0650389 1.9288e-17)
(1.04084 -0.0515864 7.99997e-19)
(1.03443 -0.0374519 2.34242e-18)
(1.02283 -0.0257992 1.30595e-18)
(1.01451 -0.0126782 1.71649e-17)
(0.998936 -0.000273685 4.79805e-19)
(1.23432 -0.893098 -1.30379e-17)
(1.20016 -0.706525 9.80253e-18)
(1.18267 -0.569335 -8.14746e-18)
(1.15963 -0.463334 -5.98597e-18)
(1.14895 -0.382513 1.29785e-18)
(1.13284 -0.317815 -5.36223e-18)
(1.12581 -0.266681 1.62105e-18)
(1.11339 -0.22458 -2.12228e-17)
(1.10794 -0.190031 -2.69274e-17)
(1.09723 -0.161016 5.01817e-18)
(1.09213 -0.13614 1.25236e-17)
(1.08191 -0.115023 1.29367e-17)
(1.07632 -0.095902 -3.97585e-18)
(1.06576 -0.0796652 -1.85613e-17)
(1.05909 -0.063926 3.0106e-18)
(1.04754 -0.0507037 3.4207e-18)
(1.0393 -0.036811 2.38081e-17)
(1.02618 -0.0253577 9.99124e-19)
(1.01615 -0.0124612 -9.89425e-18)
(0.998972 -0.000269022 3.28718e-17)
(1.34937 -0.862269 5.49965e-18)
(1.29118 -0.682137 2.92698e-18)
(1.25602 -0.549682 -9.87772e-18)
(1.21932 -0.447341 -1.64753e-18)
(1.19823 -0.369309 5.77273e-18)
(1.17379 -0.306845 1.61133e-17)
(1.16017 -0.257476 1.44133e-18)
(1.14232 -0.216828 6.87039e-18)
(1.13242 -0.183472 -2.16605e-17)
(1.11798 -0.155458 7.8986e-18)
(1.10966 -0.13144 -8.26424e-19)
(1.09672 -0.111053 1.52628e-19)
(1.08868 -0.0925916 -2.5493e-17)
(1.07602 -0.0769152 6.31533e-19)
(1.06733 -0.0617193 -2.3824e-17)
(1.05407 -0.0489534 -2.68911e-17)
(1.04404 -0.0355403 -1.82381e-17)
(1.02945 -0.0244823 -2.28299e-17)
(1.01776 -0.012031 1.09674e-17)
(0.999006 -0.000259703 -4.66747e-17)
(1.45942 -0.816687 2.22472e-18)
(1.37823 -0.646077 7.94817e-18)
(1.32617 -0.520624 -1.28887e-17)
(1.27641 -0.423693 -2.00924e-18)
(1.24536 -0.349786 3.32308e-18)
(1.21295 -0.290624 1.42096e-17)
(1.19303 -0.243865 -5.41092e-18)
(1.16999 -0.205366 2.79634e-19)
(1.15584 -0.173773 -7.1628e-18)
(1.13782 -0.14724 5.94473e-18)
(1.12644 -0.124492 -7.15903e-18)
(1.1109 -0.105182 2.32451e-17)
(1.10049 -0.0876969 -4.47849e-18)
(1.08584 -0.0728493 2.79744e-18)
(1.0752 -0.0584566 2.04419e-17)
(1.06032 -0.0463656 -1.92748e-17)
(1.04858 -0.0336615 1.53562e-17)
(1.03257 -0.0231881 -1.85914e-17)
(1.01929 -0.0113949 2.04521e-17)
(0.99904 -0.000246031 8.0129e-18)
(1.56257 -0.757131 -1.98156e-18)
(1.45984 -0.598963 -1.11498e-17)
(1.39193 -0.482658 2.87106e-18)
(1.32993 -0.392796 -4.3347e-18)
(1.28954 -0.324279 -1.22937e-17)
(1.24965 -0.269431 3.47204e-18)
(1.22383 -0.226081 -9.76087e-19)
(1.19593 -0.19039 3.06047e-18)
(1.17779 -0.161101 2.0597e-17)
(1.15641 -0.136503 -1.05276e-17)
(1.14216 -0.115414 -7.29899e-18)
(1.12418 -0.0975118 2.51131e-17)
(1.11157 -0.0813017 2.63323e-18)
(1.09504 -0.0675368 2.76012e-17)
(1.08259 -0.0541938 -1.82443e-18)
(1.06618 -0.0429845 1.33656e-17)
(1.05283 -0.0312068 1.71363e-17)
(1.0355 -0.0214971 -6.48514e-18)
(1.02073 -0.010564 3.4039e-18)
(0.999071 -0.000228079 -3.76133e-18)
(1.65707 -0.684621 -5.07363e-18)
(1.53459 -0.5416 -2.46235e-18)
(1.45217 -0.436434 -3.50484e-18)
(1.37895 -0.355178 3.59818e-18)
(1.33001 -0.293222 -5.47479e-18)
(1.28328 -0.243627 1.52667e-18)
(1.25205 -0.20443 6.10958e-20)
(1.21969 -0.172156 -1.04125e-18)
(1.19789 -0.145672 -1.01091e-17)
(1.17345 -0.12343 1.11389e-18)
(1.15657 -0.10436 -3.00173e-18)
(1.13635 -0.0881733 -4.09392e-18)
(1.12171 -0.0735155 -1.69145e-17)
(1.10347 -0.0610689 2.68269e-18)
(1.08935 -0.0490037 -8.75097e-18)
(1.07154 -0.038868 -2.34036e-18)
(1.05673 -0.0282181 5.42234e-19)
(1.03818 -0.0194384 -1.43863e-17)
(1.02205 -0.00955222 2.56921e-17)
(0.999099 -0.000206315 -2.22338e-17)
(1.74129 -0.600396 7.32771e-18)
(1.60122 -0.47497 6.59057e-18)
(1.50586 -0.382742 4.30513e-18)
(1.42265 -0.311482 -7.36684e-18)
(1.36608 -0.257149 -8.88155e-19)
(1.31325 -0.213656 4.05243e-18)
(1.2772 -0.17928 6.07464e-18)
(1.24087 -0.150977 -1.98005e-19)
(1.21581 -0.127751 -9.80448e-18)
(1.18863 -0.108245 6.56145e-19)
(1.1694 -0.0915218 2.3032e-18)
(1.1472 -0.0773259 1.24506e-18)
(1.13076 -0.0644715 -2.80176e-18)
(1.11098 -0.0535561 -1.27116e-18)
(1.09538 -0.0429752 1.23114e-17)
(1.07632 -0.0340863 1.79205e-18)
(1.0602 -0.0247467 1.13409e-17)
(1.04058 -0.0170471 -4.94593e-18)
(1.02323 -0.00837711 -1.57235e-17)
(0.999124 -0.000180939 3.8388e-18)
(1.8138 -0.505899 3.95231e-18)
(1.65859 -0.400214 3.76757e-18)
(1.55208 -0.322502 2.61071e-18)
(1.46026 -0.262458 2.62154e-18)
(1.39714 -0.216676 4.72594e-18)
(1.33905 -0.180028 4.4937e-18)
(1.29885 -0.151063 -2.28613e-18)
(1.2591 -0.127215 3.49939e-18)
(1.23124 -0.107644 2.61089e-18)
(1.20171 -0.0912087 3.6988e-18)
(1.18046 -0.0771172 -4.77689e-18)
(1.15654 -0.0651557 3.5238e-18)
(1.13854 -0.0543244 -2.21201e-19)
(1.11745 -0.045127 5.07506e-18)
(1.10057 -0.0362114 -2.34501e-18)
(1.08044 -0.0287216 1.32439e-19)
(1.06318 -0.0208519 6.89433e-18)
(1.04263 -0.0143642 -4.43654e-18)
(1.02424 -0.00705864 3.83581e-18)
(0.999146 -0.000152558 1.16318e-18)
(1.87336 -0.402745 2.59244e-18)
(1.7057 -0.31861 2.38907e-18)
(1.59005 -0.256744 1.64275e-18)
(1.49116 -0.208942 1.45072e-18)
(1.42265 -0.172496 1.48042e-18)
(1.36025 -0.14332 -3.11697e-18)
(1.31663 -0.120261 -1.23733e-18)
(1.27408 -0.101276 -3.40791e-18)
(1.24391 -0.0856959 -1.13664e-18)
(1.21244 -0.0726113 1.11165e-18)
(1.18954 -0.0613932 -6.79413e-19)
(1.16421 -0.0518706 3.76178e-18)
(1.14494 -0.0432479 -1.00812e-18)
(1.12276 -0.0359258 3.32242e-18)
(1.10483 -0.0288281 1.09272e-17)
(1.08382 -0.0228654 -2.45089e-18)
(1.06564 -0.0166004 1.26757e-18)
(1.04432 -0.0114354 -8.06208e-19)
(1.02507 -0.00561948 -1.49755e-19)
(0.999164 -0.000121479 -2.66919e-18)
(1.91894 -0.292701 1.22522e-18)
(1.74176 -0.231554 1.52201e-18)
(1.6191 -0.186592 9.58603e-19)
(1.51481 -0.151852 2.17365e-18)
(1.44217 -0.125364 1.29817e-18)
(1.37647 -0.10416 -1.61698e-18)
(1.33024 -0.087402 1.70572e-19)
(1.28554 -0.0736039 -2.33487e-18)
(1.25361 -0.0622811 -1.55433e-18)
(1.22066 -0.0527718 -6.05582e-19)
(1.19648 -0.0446188 3.173e-19)
(1.17008 -0.0376982 -1.05967e-19)
(1.14983 -0.0314314 -4.02316e-20)
(1.12682 -0.02611 1.23767e-18)
(1.10809 -0.0209516 1.20794e-18)
(1.08641 -0.0166181 -2.39712e-18)
(1.06752 -0.0120648 -2.86092e-18)
(1.04562 -0.00831109 -2.17151e-18)
(1.02571 -0.00408412 2.13824e-18)
(0.999178 -8.84116e-05 -2.94895e-18)
(1.94977 -0.177648 1.22562e-18)
(1.76615 -0.140537 9.90561e-19)
(1.63876 -0.113248 5.71107e-19)
(1.5308 -0.0921635 2.7865e-19)
(1.45537 -0.0760873 2.46024e-19)
(1.38744 -0.0632183 -7.89534e-19)
(1.33945 -0.0530473 -1.09302e-19)
(1.29329 -0.0446728 -6.14071e-19)
(1.26017 -0.0378008 4.02365e-20)
(1.22622 -0.0320292 1.54137e-18)
(1.20118 -0.027081 3.53997e-19)
(1.17405 -0.0228807 1.03427e-18)
(1.15314 -0.0190772 6.06077e-19)
(1.12957 -0.0158474 1.22719e-18)
(1.1103 -0.0127166 1.497e-18)
(1.08816 -0.0100864 1.17868e-18)
(1.06879 -0.00732284 1.32774e-18)
(1.04649 -0.0050445 1.64291e-18)
(1.02614 -0.00247897 1.01226e-18)
(0.999187 -5.37412e-05 6.33146e-19)
(1.96531 -0.0595558 4.4472e-19)
(1.77845 -0.0471147 5.47988e-19)
(1.64867 -0.0379664 2.52413e-19)
(1.53887 -0.0308982 2.39202e-19)
(1.46203 -0.0255087 2.44266e-19)
(1.39297 -0.0211946 -3.029e-19)
(1.34409 -0.0177848 1.08996e-19)
(1.2972 -0.0149775 -2.99972e-19)
(1.26348 -0.0126736 2.48817e-19)
(1.22902 -0.0107388 9.53206e-19)
(1.20355 -0.0090799 8.29941e-19)
(1.17605 -0.00767181 8.9797e-19)
(1.15481 -0.00639659 6.00587e-19)
(1.13096 -0.00531384 1.17109e-18)
(1.11141 -0.00426408 1.29443e-18)
(1.08904 -0.00338231 1.03972e-18)
(1.06943 -0.00245559 1.4352e-18)
(1.04694 -0.00169174 1.60942e-18)
(1.02635 -0.000831359 8.10096e-19)
(0.999192 -1.82399e-05 1.136e-18)
(1.96531 0.0595554 -4.28263e-19)
(1.77845 0.0471136 1.65031e-19)
(1.64867 0.0379648 -7.60231e-20)
(1.53887 0.030896 3.264e-19)
(1.46203 0.0255062 1.92376e-19)
(1.39297 0.0211918 1.98392e-20)
(1.34409 0.0177818 1.48615e-19)
(1.2972 0.0149742 -1.44434e-19)
(1.26348 0.0126703 3.28649e-19)
(1.22902 0.0107354 6.4234e-19)
(1.20355 0.00907649 8.63216e-19)
(1.17605 0.0076684 7.47343e-19)
(1.15481 0.00639338 6.12264e-19)
(1.13096 0.00531074 1.098e-18)
(1.11141 0.00426132 1.2357e-18)
(1.08904 0.00337977 6.35002e-19)
(1.06943 0.00245358 1.05752e-18)
(1.04694 0.00169005 7.39301e-19)
(1.02635 0.000830384 6.76346e-19)
(0.999192 1.76611e-05 8.17158e-19)
(1.94977 0.177648 -1.44661e-18)
(1.76615 0.140536 -1.44819e-19)
(1.63876 0.113246 -5.19548e-19)
(1.5308 0.0921613 4.05464e-19)
(1.45537 0.0760848 3.04608e-19)
(1.38744 0.0632154 1.34323e-19)
(1.33945 0.0530441 2.18198e-19)
(1.29329 0.0446695 -2.44624e-22)
(1.26017 0.0377973 6.27348e-19)
(1.22622 0.0320257 5.06202e-19)
(1.20118 0.0270776 8.7485e-19)
(1.17405 0.0228772 7.43015e-19)
(1.15314 0.019074 8.09203e-19)
(1.12957 0.0158443 1.07384e-18)
(1.1103 0.0127138 1.57561e-18)
(1.08816 0.0100839 5.5937e-19)
(1.06879 0.00732081 7.40808e-19)
(1.04649 0.0050428 5.88153e-20)
(1.02613 0.00247798 8.9064e-19)
(0.999187 5.31727e-05 3.89359e-19)
(1.91894 0.2927 -1.51454e-18)
(1.74176 0.231553 -4.64152e-19)
(1.6191 0.18659 -1.07481e-18)
(1.51481 0.15185 -1.20127e-18)
(1.44217 0.125361 -4.03735e-19)
(1.37647 0.104157 6.23835e-20)
(1.33024 0.0873988 -1.12272e-18)
(1.28554 0.0736005 2.08867e-18)
(1.25361 0.0622776 2.77651e-18)
(1.22066 0.0527682 1.8753e-18)
(1.19648 0.0446153 1.99325e-18)
(1.17008 0.0376947 2.13568e-18)
(1.14983 0.0314281 5.876e-19)
(1.12682 0.0261068 1.34611e-18)
(1.10809 0.0209487 3.12213e-18)
(1.08641 0.0166155 3.13377e-18)
(1.06752 0.0120627 5.32594e-18)
(1.04562 0.00830934 2.01103e-18)
(1.0257 0.00408307 2.86111e-18)
(0.999178 8.78535e-05 -8.52032e-19)
(1.87335 0.402745 -2.82395e-18)
(1.7057 0.318608 -1.33512e-18)
(1.59005 0.256741 -1.22992e-18)
(1.49116 0.20894 -1.15745e-18)
(1.42265 0.172493 -1.86274e-18)
(1.36025 0.143317 2.10298e-18)
(1.31663 0.120258 6.40754e-19)
(1.27408 0.101272 1.08132e-18)
(1.24391 0.0856923 3.34591e-18)
(1.21244 0.0726076 2.18951e-19)
(1.18953 0.0613896 3.92766e-19)
(1.16421 0.051867 3.67872e-18)
(1.14494 0.0432445 -1.56017e-18)
(1.12276 0.0359225 3.0682e-19)
(1.10483 0.0288252 -7.13098e-19)
(1.08382 0.0228627 1.25642e-18)
(1.06564 0.0165982 2.34396e-18)
(1.04432 0.0114336 -2.61566e-18)
(1.02507 0.00561837 -3.22736e-18)
(0.999164 0.000120944 7.48793e-19)
(1.8138 0.505898 -4.73713e-18)
(1.65858 0.400212 -2.22761e-18)
(1.55208 0.3225 -1.98094e-18)
(1.46026 0.262455 -2.27618e-18)
(1.39714 0.216673 -5.44954e-18)
(1.33905 0.180025 -3.16316e-18)
(1.29885 0.15106 -2.08834e-18)
(1.2591 0.127211 -3.80347e-18)
(1.23124 0.107641 -3.11038e-18)
(1.2017 0.0912048 -1.79294e-18)
(1.18046 0.0771134 -5.54905e-19)
(1.15654 0.065152 3.99203e-18)
(1.13854 0.0543208 -3.04536e-19)
(1.11744 0.0451236 -1.98587e-18)
(1.10057 0.0362083 3.70893e-18)
(1.08044 0.0287188 -1.00285e-17)
(1.06318 0.0208496 4.69708e-18)
(1.04263 0.0143623 -4.7664e-18)
(1.02424 0.00705743 3.98576e-18)
(0.999146 0.000152032 2.14873e-18)
(1.74129 0.600395 -6.50613e-18)
(1.60122 0.474968 -3.81047e-18)
(1.50586 0.38274 -3.36241e-18)
(1.42264 0.311479 8.18202e-18)
(1.36608 0.257146 -7.78252e-19)
(1.31325 0.213652 1.38499e-18)
(1.27719 0.179276 -9.6043e-18)
(1.24087 0.150973 -2.56856e-19)
(1.21581 0.127747 -1.68601e-18)
(1.18863 0.108241 7.60793e-18)
(1.1694 0.0915178 -3.11154e-18)
(1.1472 0.077322 2.83964e-18)
(1.13076 0.0644678 -7.76549e-19)
(1.11098 0.0535525 9.76764e-18)
(1.09538 0.042972 7.78487e-20)
(1.07632 0.0340834 -1.38122e-18)
(1.06019 0.0247443 7.91163e-19)
(1.04057 0.0170451 -1.48171e-18)
(1.02323 0.00837579 -1.63301e-18)
(0.999124 0.00018043 8.48848e-18)
(1.65706 0.684619 3.08473e-18)
(1.53459 0.541598 7.57983e-18)
(1.45216 0.436431 5.02296e-18)
(1.37895 0.355174 -1.11941e-18)
(1.33001 0.293219 -7.58593e-19)
(1.28328 0.243624 2.13524e-18)
(1.25204 0.204426 3.43207e-18)
(1.21969 0.172152 4.01102e-18)
(1.19789 0.145668 -7.0892e-18)
(1.17345 0.123426 4.65989e-18)
(1.15656 0.104356 -4.72718e-19)
(1.13635 0.0881691 1.0955e-17)
(1.12171 0.0735115 -2.27156e-18)
(1.10346 0.0610651 1.82892e-17)
(1.08935 0.0490002 4.80313e-18)
(1.07154 0.0388648 -2.00772e-18)
(1.05672 0.0282155 2.79821e-18)
(1.03818 0.0194363 6.07413e-18)
(1.02205 0.00955074 -8.88049e-18)
(0.999099 0.000205792 5.76146e-18)
(1.56257 0.757129 -6.27153e-19)
(1.45984 0.59896 1.80391e-17)
(1.39192 0.482655 -4.58501e-19)
(1.32992 0.392792 -2.91542e-18)
(1.28954 0.324275 9.12233e-18)
(1.24965 0.269426 3.40585e-18)
(1.22383 0.226077 -1.57895e-18)
(1.19593 0.190385 -2.59475e-18)
(1.17778 0.161096 -1.70083e-17)
(1.15641 0.136498 -1.4966e-19)
(1.14216 0.115409 -8.93598e-18)
(1.12418 0.0975074 1.31359e-18)
(1.11157 0.0812975 -2.32884e-17)
(1.09503 0.0675328 6.30911e-18)
(1.08259 0.0541901 -1.29346e-17)
(1.06618 0.0429812 -1.82627e-17)
(1.05283 0.031204 8.6642e-18)
(1.0355 0.0214949 -3.30533e-17)
(1.02073 0.0105623 1.72978e-18)
(0.99907 0.000227545 -2.98252e-17)
(1.45941 0.816685 -3.76579e-18)
(1.37823 0.646074 1.4782e-18)
(1.32616 0.52062 2.2079e-18)
(1.27641 0.423689 -2.39109e-18)
(1.24536 0.349782 -8.47127e-18)
(1.21294 0.29062 7.01093e-18)
(1.19303 0.24386 -6.30231e-18)
(1.16999 0.205361 -3.32701e-18)
(1.15584 0.173768 -3.88677e-18)
(1.13781 0.147235 -1.58345e-17)
(1.12644 0.124487 1.13155e-17)
(1.11089 0.105177 2.01301e-17)
(1.10049 0.0876924 -1.83822e-17)
(1.08583 0.072845 1.01684e-17)
(1.0752 0.0584527 2.48801e-18)
(1.06032 0.0463621 9.77305e-18)
(1.04858 0.0336585 -1.23573e-17)
(1.03257 0.0231857 -1.48373e-17)
(1.01929 0.0113931 2.03705e-17)
(0.999039 0.00024544 -1.35603e-17)
(1.34937 0.862266 -8.93674e-18)
(1.29118 0.682133 -7.26436e-20)
(1.25601 0.549678 -1.15079e-18)
(1.21932 0.447336 -3.32545e-18)
(1.19822 0.369304 -4.02238e-18)
(1.17378 0.30684 -7.06664e-18)
(1.16017 0.257471 -1.35582e-18)
(1.14232 0.216822 -1.05247e-17)
(1.13242 0.183467 5.52531e-18)
(1.11797 0.155453 9.8614e-18)
(1.10966 0.131435 3.28773e-18)
(1.09672 0.111048 9.47503e-18)
(1.08867 0.0925868 7.46444e-18)
(1.07602 0.0769107 -5.98297e-18)
(1.06733 0.0617152 1.76163e-17)
(1.05407 0.0489497 -1.49804e-17)
(1.04404 0.0355371 3.75547e-17)
(1.02945 0.0244797 2.97478e-18)
(1.01776 0.0120289 1.76789e-17)
(0.999006 0.000259049 -9.48846e-18)
(1.23432 0.893094 1.30629e-17)
(1.20016 0.706521 5.50759e-19)
(1.18267 0.56933 -3.4896e-18)
(1.15963 0.463329 4.40415e-18)
(1.14895 0.382508 -1.68718e-17)
(1.13284 0.31781 2.24682e-17)
(1.12581 0.266676 9.11461e-18)
(1.11338 0.224574 8.35654e-18)
(1.10794 0.190026 1.71693e-18)
(1.09723 0.161011 2.28903e-17)
(1.09212 0.136134 -2.30194e-18)
(1.0819 0.115018 -2.4183e-17)
(1.07632 0.0958969 2.40342e-19)
(1.06575 0.0796604 1.40846e-17)
(1.05909 0.0639216 1.98219e-18)
(1.04754 0.0506998 -6.75218e-18)
(1.0393 0.0368075 -2.09619e-17)
(1.02618 0.0253549 -3.46867e-18)
(1.01615 0.0124589 -1.34756e-17)
(0.998971 0.000268248 6.14972e-17)
(1.11622 0.908641 1.44898e-17)
(1.10674 0.71882 1.29716e-17)
(1.10739 0.579241 2.03901e-18)
(1.09836 0.471395 -3.76964e-18)
(1.09837 0.389166 1.54174e-17)
(1.09082 0.323342 5.51189e-18)
(1.09055 0.271318 -5.21068e-18)
(1.08369 0.228484 4.78528e-18)
(1.08281 0.193334 -1.82429e-17)
(1.07594 0.163813 -1.71747e-17)
(1.07412 0.138504 -4.15188e-18)
(1.0667 0.11702 -5.95196e-18)
(1.06364 0.0975663 -4.42922e-18)
(1.05522 0.081047 -4.46481e-17)
(1.05064 0.0650343 1.9073e-17)
(1.04084 0.0515822 3.21165e-19)
(1.03443 0.0374482 1.2073e-18)
(1.02283 0.0257961 3.04763e-18)
(1.0145 0.0126757 1.44454e-17)
(0.998936 0.000272772 -3.61986e-17)
(0.997112 0.908641 6.26386e-18)
(1.01251 0.71882 1.31411e-17)
(1.03146 0.57924 4.84663e-18)
(1.03657 0.471395 -9.79074e-18)
(1.04735 0.389166 2.47191e-17)
(1.04843 0.323342 3.78527e-18)
(1.05498 0.271318 4.99363e-18)
(1.05374 0.228484 -4.15656e-18)
(1.05747 0.193334 -1.36572e-17)
(1.05447 0.163813 -1.99072e-17)
(1.05597 0.138504 -3.72158e-18)
(1.05136 0.11702 -4.14788e-18)
(1.05085 0.0975661 2.67689e-18)
(1.0446 0.0810469 -3.70601e-18)
(1.04211 0.0650341 -2.21751e-17)
(1.03407 0.0515821 -1.21609e-19)
(1.02952 0.037448 -4.60498e-18)
(1.01945 0.025796 -9.53754e-19)
(1.01284 0.0126755 -1.9976e-17)
(0.9989 0.000272642 -3.22706e-18)
(0.87902 0.893094 1.41181e-17)
(0.919085 0.70652 -1.46064e-17)
(0.956175 0.569329 1.09835e-17)
(0.975305 0.463329 7.4804e-18)
(0.996775 0.382507 -4.76153e-18)
(1.00641 0.317809 2.18289e-18)
(1.01972 0.266676 -3.61533e-18)
(1.02404 0.224574 2.68967e-17)
(1.03234 0.190025 3.81048e-17)
(1.03318 0.16101 -4.38248e-18)
(1.03796 0.136134 -1.49135e-17)
(1.03615 0.115017 -1.74551e-17)
(1.03817 0.0958966 8.20911e-18)
(1.03406 0.07966 2.1593e-17)
(1.03366 0.0639212 5.09063e-19)
(1.02737 0.0506994 8.03403e-19)
(1.02466 0.0368072 -2.74014e-17)
(1.01609 0.0253544 3.45126e-18)
(1.0112 0.0124585 1.19629e-17)
(0.998864 0.000267766 -3.52093e-17)
(0.763967 0.862265 -8.72876e-18)
(0.828068 0.682132 -4.6503e-18)
(0.882831 0.549676 1.36558e-17)
(0.915617 0.447335 1.24243e-18)
(0.947499 0.369303 -9.21154e-18)
(0.965465 0.306839 -2.54009e-17)
(0.985365 0.25747 -2.61321e-18)
(0.995111 0.216822 -1.19678e-17)
(1.00786 0.183466 2.83984e-17)
(1.01243 0.155452 -9.65425e-18)
(1.02043 0.131434 2.84314e-18)
(1.02133 0.111047 -4.23884e-18)
(1.02581 0.0925862 3.44869e-17)
(1.0238 0.0769101 -9.36737e-18)
(1.02543 0.0617145 2.92836e-17)
(1.02084 0.0489491 3.65425e-17)
(1.01991 0.0355364 2.30155e-17)
(1.01283 0.0244791 3.28512e-17)
(1.00959 0.0120282 -2.07615e-17)
(0.998829 0.000258313 6.72025e-17)
(0.653923 0.816683 -2.04617e-18)
(0.741013 0.646072 -1.13956e-17)
(0.81268 0.520619 1.80414e-17)
(0.858527 0.423687 2.04237e-18)
(0.900367 0.349781 -3.00499e-18)
(0.926305 0.290618 -2.1145e-17)
(0.952506 0.243859 8.30044e-18)
(0.96744 0.20536 -1.54353e-18)
(0.984448 0.173767 6.70018e-18)
(0.992594 0.147234 -7.35622e-18)
(1.00365 0.124486 1.31491e-17)
(1.00716 0.105176 -4.04373e-17)
(1.014 0.0876916 3.09954e-18)
(1.01398 0.0728441 -1.47005e-17)
(1.01755 0.0584519 -3.83295e-17)
(1.01459 0.0463613 2.06092e-17)
(1.01538 0.0336576 -3.3854e-17)
(1.0097 0.0231848 2.36013e-17)
(1.00806 0.0113921 -3.60045e-17)
(0.998796 0.000244365 -1.8324e-17)
(0.550769 0.757127 5.36564e-18)
(0.659409 0.598958 2.15294e-17)
(0.746922 0.482653 -8.58251e-18)
(0.805012 0.39279 4.93153e-18)
(0.856187 0.324273 2.42201e-17)
(0.889597 0.269425 -4.02939e-18)
(0.921704 0.226076 5.27627e-19)
(0.941501 0.190384 -5.40157e-18)
(0.9625 0.161095 -3.72127e-17)
(0.973997 0.136497 1.99475e-17)
(0.987929 0.115408 1.47214e-17)
(0.993872 0.0975063 -3.97751e-17)
(1.00292 0.0812964 -1.0485e-18)
(1.00478 0.0675318 -5.08708e-17)
(1.01017 0.054189 6.98795e-18)
(1.00873 0.0429801 -2.82433e-17)
(1.01113 0.0312029 -3.292e-17)
(1.00677 0.0214938 8.31355e-18)
(1.00662 0.0105611 -6.57956e-18)
(0.998765 0.000226235 8.59937e-18)
(0.456272 0.684616 1.01915e-17)
(0.584653 0.541595 2.03876e-18)
(0.686682 0.436429 5.03023e-18)
(0.755988 0.355172 -1.09505e-17)
(0.815714 0.293217 9.59921e-18)
(0.85597 0.243622 -3.65984e-18)
(0.893487 0.204424 -9.64996e-19)
(0.917739 0.17215 3.38474e-18)
(0.942393 0.145667 2.62897e-17)
(0.95696 0.123424 -4.66859e-18)
(0.973524 0.104355 5.18823e-18)
(0.981702 0.0881678 1.55872e-17)
(0.992773 0.0735103 3.96675e-17)
(0.996355 0.0610639 1.8547e-18)
(1.0034 0.048999 1.92313e-17)
(1.00337 0.0388636 7.9668e-18)
(1.00723 0.0282142 7.28278e-19)
(1.00409 0.0194349 3.09035e-17)
(1.0053 0.00954931 -4.97043e-17)
(0.998737 0.000204165 4.61968e-17)
(0.372048 0.600392 -1.91112e-17)
(0.518023 0.474965 -1.871e-17)
(0.63299 0.382737 -1.36437e-17)
(0.712293 0.311477 1.60326e-17)
(0.779642 0.257144 -9.10509e-19)
(0.825999 0.21365 -1.06633e-17)
(0.868338 0.179274 -1.40364e-17)
(0.89656 0.150971 -2.79324e-19)
(0.924473 0.127746 2.00117e-17)
(0.941776 0.10824 -3.32406e-18)
(0.960686 0.0915163 -6.69556e-18)
(0.970855 0.0773206 -4.75078e-18)
(0.98373 0.0644663 2.55548e-18)
(0.988842 0.0535511 5.27412e-18)
(0.997374 0.0429705 -3.18553e-17)
(0.998589 0.034082 -1.67773e-18)
(1.00376 0.0247428 -2.93789e-17)
(1.0017 0.0170436 1.24646e-17)
(1.00412 0.00837409 4.62965e-17)
(0.998711 0.000178597 -1.46899e-17)
(0.299538 0.505894 -7.44798e-18)
(0.460661 0.400209 -8.66874e-18)
(0.586766 0.322496 -7.2285e-18)
(0.674675 0.262452 -1.25091e-17)
(0.748586 0.216671 -1.54576e-17)
(0.800196 0.180023 -9.99899e-18)
(0.846687 0.151058 1.11422e-17)
(0.878327 0.127209 -9.18667e-18)
(0.909044 0.107639 -1.36247e-17)
(0.928703 0.0912031 -1.14347e-17)
(0.949633 0.0771118 1.5178e-17)
(0.961517 0.0651504 -1.16018e-17)
(0.975944 0.0543193 2.75843e-19)
(0.982374 0.0451221 -1.42777e-17)
(0.992184 0.0362068 1.15413e-17)
(0.994472 0.0287172 6.2401e-18)
(1.00077 0.0208479 -1.43576e-17)
(0.999641 0.0143605 1.5012e-17)
(1.00311 0.00705559 -1.73982e-17)
(0.99869 0.00014991 -8.50885e-21)
(0.239983 0.402741 -3.54384e-18)
(0.413547 0.318605 -4.4633e-18)
(0.548801 0.256738 -3.34289e-18)
(0.643778 0.208937 -5.77548e-18)
(0.723078 0.17249 -2.86747e-18)
(0.779003 0.143315 1.68659e-17)
(0.828904 0.120256 4.50761e-18)
(0.863351 0.10127 1.67156e-17)
(0.896373 0.0856904 5.47101e-18)
(0.917966 0.0726059 -1.84479e-18)
(0.940555 0.0613879 2.13645e-19)