/*--------------------------------*- C++ -*----------------------------------*\
| =========                 |                                                 |
| \\      /  F ield         | foam-extend: Open Source CFD                    |
|  \\    /   O peration     | Version:  3.0                                   |
|   \\  /    A nd           | Web:         http://www.extend-project.de       |
|    \\/     M anipulation  |                                                 |
\*---------------------------------------------------------------------------*/
FoamFile
{
    version     2.0;
    format      ascii;
    class       volScalarField;
    location    "12";
    object      p;
}
// * * * * * * * * * * * * * * * * * * * * * * * * * * * * * * * * * * * * * //

dimensions      [0 0 0 0 0 0 0];

internalField   nonuniform List<scalar> 
2688
(
-0.2405521415
-0.2211292731
-0.2097869004
-0.196293592
-0.1894614517
-0.1796216272
-0.1757421218
-0.1682695894
-0.1664255429
-0.1605317215
-0.1601095426
-0.1552891719
-0.1558175849
-0.1517421235
-0.1528072989
-0.1492638524
-0.1504618316
-0.1473095404
-0.1482199596
-0.1453516773
-0.1455266435
-0.1428316163
-0.1417923817
-0.139110483
-0.2397899216
-0.2204298753
-0.2091259539
-0.1956757097
-0.1888650798
-0.1790564621
-0.1751890872
-0.1677401796
-0.1659018767
-0.1600267328
-0.159605799
-0.1548007699
-0.1553273285
-0.1512649006
-0.1523263249
-0.14879423
-0.1499878252
-0.1468456892
-0.1477526602
-0.1448937448
-0.1450676637
-0.14238117
-0.141344962
-0.1386716115
-0.2382797725
-0.2190419615
-0.2078082752
-0.1944428267
-0.187674781
-0.1779281026
-0.1740847227
-0.1666831038
-0.1648558828
-0.1590183031
-0.158599416
-0.1538253982
-0.1543479955
-0.1503120458
-0.1513661052
-0.1478571925
-0.1490426066
-0.145921193
-0.1468219595
-0.1439818182
-0.1441542174
-0.141485006
-0.1404552663
-0.1377987262
-0.2360182256
-0.2169628459
-0.2058363992
-0.1925976942
-0.1858939182
-0.1762397278
-0.1724327291
-0.1651013479
-0.1632913693
-0.1575092236
-0.1570941754
-0.1523655503
-0.1528829536
-0.1488854697
-0.1499291463
-0.1464537719
-0.1476274009
-0.1445358751
-0.1454274852
-0.1426145602
-0.1427848046
-0.1401412216
-0.139120995
-0.1364897267
-0.2330151353
-0.2142023018
-0.203217068
-0.1901470017
-0.1835282459
-0.1739971561
-0.1702382262
-0.1630005377
-0.1612130587
-0.1555050625
-0.1550946473
-0.1504269456
-0.1509370761
-0.1469913792
-0.1480210855
-0.144590945
-0.1457489646
-0.1426977445
-0.1435773924
-0.1408010388
-0.140968604
-0.1383592118
-0.1373517265
-0.1347539827
-0.229278114
-0.2107669973
-0.1999582217
-0.1870977347
-0.1805851851
-0.1712069059
-0.1675082378
-0.160386594
-0.1586277207
-0.1530112737
-0.1526073187
-0.1480145409
-0.1485162563
-0.1446339975
-0.1456468153
-0.1422719504
-0.1434108826
-0.1404088913
-0.1412738114
-0.138542218
-0.138706528
-0.1361392249
-0.1351476202
-0.132591605
-0.2248201999
-0.2066690784
-0.196070287
-0.1834600671
-0.1770738834
-0.167878225
-0.1642510706
-0.157268312
-0.1555430568
-0.1500363927
-0.1496395898
-0.1451368664
-0.1456280823
-0.141822224
-0.1428146091
-0.1395063786
-0.1406224629
-0.137679833
-0.1385272983
-0.1358495926
-0.1360101839
-0.1334933116
-0.1325207229
-0.1300144458
-0.2196547101
-0.2019206718
-0.1915655398
-0.179245053
-0.1730056626
-0.164021237
-0.1604774362
-0.1536550838
-0.1519694261
-0.1465892926
-0.14620148
-0.1418022861
-0.142281952
-0.1385637099
-0.1395328657
-0.1363009333
-0.1373908144
-0.13451615
-0.1353435258
-0.1327276177
-0.1328839365
-0.1304251106
-0.1294745879
-0.1270259533
-0.2137980061
-0.1965369166
-0.1864577836
-0.1744660185
-0.168392741
-0.1596481537
-0.1561984224
-0.1495584069
-0.1479170855
-0.1426809996
-0.1423027985
-0.1380216677
-0.1384877705
-0.1348695775
-0.1358121077
-0.1326673376
-0.1337274133
-0.1309303916
-0.1317350869
-0.1291897432
-0.1293413821
-0.1269486332
-0.1260232077
-0.123639903
-0.2072690468
-0.1905351143
-0.1807638628
-0.1691383184
-0.1632505688
-0.1547729922
-0.1514286379
-0.1449913867
-0.1434001439
-0.138323996
-0.1379571945
-0.1338069149
-0.1342584749
-0.1307509902
-0.1316642373
-0.1286158233
-0.129642876
-0.1269316656
-0.1277111191
-0.1252438473
-0.1253902328
-0.1230707897
-0.1221733257
-0.119862863
-0.2000871971
-0.1839332079
-0.1745004553
-0.1632779554
-0.1575939696
-0.1494104365
-0.1461815346
-0.1399677829
-0.1384310555
-0.133531413
-0.1331765853
-0.1291709009
-0.129606034
-0.126221007
-0.1271018032
-0.1241600066
-0.1251506876
-0.1225344207
-0.1232862301
-0.1209053104
-0.1210461105
-0.1188075806
-0.1179409719
-0.1157106176
-0.1922768746
-0.1767534756
-0.1676889822
-0.1569045764
-0.1514425116
-0.1435784087
-0.1404755621
-0.1345043836
-0.1330275673
-0.1283192592
-0.1279780826
-0.1241289254
-0.1245467037
-0.1212940888
-0.122139933
-0.1193133473
-0.1202646173
-0.1177509178
-0.118472624
-0.1161850383
-0.1163196526
-0.114168768
-0.113335656
-0.1111924346
-0.1838601935
-0.1690164317
-0.1603486599
-0.150036556
-0.1448133401
-0.1372937889
-0.1343263327
-0.128617006
-0.1272042122
-0.1227026505
-0.1223756748
-0.118695835
-0.1190945413
-0.1159852707
-0.1167932587
-0.1140914313
-0.1150002376
-0.1125976014
-0.1132870525
-0.1111004943
-0.1112286944
-0.1091725264
-0.1083756398
-0.1063262902
-0.1748667047
-0.1607490366
-0.1525052787
-0.1426976279
-0.1377299282
-0.1305782034
-0.1277558803
-0.1223258778
-0.120982058
-0.1167008123
-0.1163895577
-0.1128899436
-0.1132687066
-0.1103118808
-0.1110797088
-0.1085104976
-0.1093740272
-0.1070894185
-0.1077442834
-0.1056651182
-0.1057862455
-0.1038309459
-0.1030726418
-0.1011236216
-0.1653210488
-0.1519741596
-0.1441803491
-0.1349083188
-0.1302115496
-0.1234505518
-0.1207818614
-0.115648772
-0.114377687
-0.1103308353
-0.1100358358
-0.1067281408
-0.1070854181
-0.1042910296
-0.1050160529
-0.1025881854
-0.1034036791
-0.1012448802
-0.1018632856
-0.09989857399
-0.1000125607
-0.09816460937
-0.09744747725
-0.09560491577
-0.1552574623
-0.1427230434
-0.1354036727
-0.1266961061
-0.1222852297
-0.1159358206
-0.1134295046
-0.1086089667
-0.1074150403
-0.1036147026
-0.1033372945
-0.1002312472
-0.1005662543
-0.09794242162
-0.09862260522
-0.09634309381
-0.09710805647
-0.09508126815
-0.09566109863
-0.09381648482
-0.09392264574
-0.09218750608
-0.09151355979
-0.08978325782
-0.1447028943
-0.1330207001
-0.1261988428
-0.1180834799
-0.1139722112
-0.1080547923
-0.1057184257
-0.1012261338
-0.1001127457
-0.09657150947
-0.09631220295
-0.09341826766
-0.09372962793
-0.09128528276
-0.09191822245
-0.08979486215
-0.09050677717
-0.08861896915
-0.08915853058
-0.08744037532
-0.08753869361
-0.08592221201
-0.08529384979
-0.08368126925
-0.1336957404
-0.1229021785
-0.1165992218
-0.1091012312
-0.1053026328
-0.09983538087
-0.09767658167
-0.09352612622
-0.09249710822
-0.08922547217
-0.08898540963
-0.08631199884
-0.0865990475
-0.08434121886
-0.08492520739
-0.0829640834
-0.08362086966
-0.08187742196
-0.08237496622
-0.08078813901
-0.08087807059
-0.07938493728
-0.07880388516
-0.07731407762
-0.1222650145
-0.1123944046
-0.1066302713
-0.09977362182
-0.09629954374
-0.09130011675
-0.08932545049
-0.08553045257
-0.08458876406
-0.08159768456
-0.08137733588
-0.07893356553
-0.07919509873
-0.07713155152
-0.07766445577
-0.07587231993
-0.07647171244
-0.07487864156
-0.07533257739
-0.07388257736
-0.07396398551
-0.07259929357
-0.07206759806
-0.070705289
-0.1104526925
-0.1015357054
-0.09632840992
-0.09013427424
-0.0869957114
-0.08247936148
-0.08069522298
-0.07726703958
-0.07641587667
-0.07371408506
-0.07351439816
-0.07130724523
-0.07154272622
-0.06967929487
-0.07015972763
-0.06854165634
-0.06908197943
-0.06764381394
-0.06805279286
-0.06674374153
-0.06681631953
-0.06558400477
-0.0651031995
-0.06387263999
-0.09828957833
-0.09035466417
-0.08572072776
-0.08020900796
-0.07741579896
-0.07339723004
-0.07180909179
-0.06875911206
-0.06800096507
-0.06559765981
-0.06541904396
-0.063456177
-0.06366460452
-0.06200781735
-0.0624340054
-0.0609956451
-0.06147500944
-0.0601967153
-0.06055935525
-0.05939573149
-0.05945923872
-0.05836347094
-0.05793514012
-0.05684022861
-0.08582062254
-0.07889233115
-0.07484616818
-0.07003377035
-0.06759470461
-0.06408604392
-0.06269900457
-0.06003620081
-0.05937360942
-0.05727563793
-0.0571188532
-0.05540571008
-0.05558667006
-0.05414105752
-0.0545118906
-0.05325720012
-0.05367424829
-0.05255942769
-0.05287466167
-0.05185983504
-0.05191410764
-0.05095812035
-0.05058360843
-0.04962778257
-0.07307809189
-0.06717864647
-0.06373316963
-0.05963568373
-0.05755846153
-0.0545712814
-0.05338963805
-0.05112302916
-0.05055795671
-0.04877264774
-0.04863801419
-0.04718073704
-0.0473334481
-0.04610426336
-0.04641839468
-0.04535191001
-0.04570524499
-0.04475781525
-0.04502463247
-0.04416202446
-0.04420686524
-0.04339379368
-0.04307423026
-0.04226047812
-0.06010930297
-0.05525682288
-0.05242266579
-0.04905251453
-0.0473436154
-0.04488676103
-0.04391427031
-0.04205033041
-0.04158465866
-0.04011688968
-0.04000499768
-0.03880740411
-0.0389315881
-0.03792196391
-0.03817855923
-0.03730300786
-0.03759155815
-0.03681406856
-0.03703159298
-0.03632371623
-0.03635897381
-0.03569132317
-0.03542778474
-0.03475871289
-0.04694760525
-0.04315780816
-0.04094411064
-0.03831237998
-0.03697725962
-0.03505902909
-0.03429873566
-0.03284399819
-0.032479104
-0.03133424045
-0.03124528321
-0.03031192224
-0.03040700034
-0.02962087948
-0.02981900779
-0.02913781917
-0.02936068213
-0.02875604895
-0.02892368688
-0.02837296899
-0.02839858
-0.02787845067
-0.02767167879
-0.02714932056
-0.03364208144
-0.03092642637
-0.02933990994
-0.02745437913
-0.02649713719
-0.02512298111
-0.02457727673
-0.02353563912
-0.02327275674
-0.02245364746
-0.0223880716
-0.02172108754
-0.0217869563
-0.02122601805
-0.02136518122
-0.02087977792
-0.02103623791
-0.02060584434
-0.02072294744
-0.02033089784
-0.02034669298
-0.01997575001
-0.01982646504
-0.01945255254
-0.02022672316
-0.01859422852
-0.01764014223
-0.01650725766
-0.01593102291
-0.01510586146
-0.01477647403
-0.01415189993
-0.01399176934
-0.01350174786
-0.01345958388
-0.0130618779
-0.01309812488
-0.01276495633
-0.0128445816
-0.01255726078
-0.01264683104
-0.01239261263
-0.01245893837
-0.01222706315
-0.01223310136
-0.0120124848
-0.01192110172
-0.0116967122
-0.006751810743
-0.006207125359
-0.005888197175
-0.005510992824
-0.005317447384
-0.00504326655
-0.004931217314
-0.004724978411
-0.004668199192
-0.004508048062
-0.004489621388
-0.004361635536
-0.004368373256
-0.004263182713
-0.004283182264
-0.00419404395
-0.004216468665
-0.004138592762
-0.004153823684
-0.004082527429
-0.004078670771
-0.004009076798
-0.003975905402
-0.003901842133
0.006748524374
0.006203188972
0.00588567056
0.005505464852
0.005315572916
0.005037289953
0.004931634264
0.004718190522
0.004671547694
0.004500562423
0.004495405895
0.004352451638
0.004375496333
0.004251519438
0.004291408728
0.004181245784
0.004226111826
0.004126712632
0.004162555229
0.004072659128
0.00408628772
0.004004599075
0.003979448478
0.003903044026
0.02022333664
0.01859020731
0.01763753887
0.01650167772
0.01592909149
0.01509985338
0.01477683542
0.01414508704
0.01399504712
0.01349423123
0.01346527616
0.01305265613
0.01310513251
0.01275324797
0.01285266072
0.01254440215
0.01265628973
0.01238065642
0.01246747778
0.01221712062
0.01224056726
0.012007953
0.01192459075
0.01169788379
0.03363890986
0.03092260154
0.02933747466
0.02744896052
0.02649533474
0.02511710653
0.02457774133
0.0235289614
0.02327613574
0.02244628886
0.02239387993
0.02171205701
0.02179410727
0.02121453948
0.0213734466
0.02086718407
0.02104592765
0.02059416257
0.02073172859
0.02032119336
0.02035432123
0.01997135285
0.01982998717
0.01945375144
0.04694412374
0.04315372053
0.04094143748
0.03830679902
0.03697528152
0.03505305778
0.03429903461
0.03283725057
0.03248227985
0.03132680299
0.03125083273
0.03030280242
0.0304138356
0.02960930526
0.02982688352
0.02912510579
0.02936990137
0.02874422433
0.02893200287
0.02836314368
0.02840587656
0.02787399114
0.02767513424
0.02715051562
0.06010627261
0.0552531483
0.0524203491
0.04904727465
0.0473419117
0.04488106818
0.04391478115
0.04204384973
0.0415880251
0.04010974579
0.04001074744
0.03879862299
0.03893865015
0.03791077454
0.0381867022
0.03729070534
0.03760107604
0.03680263042
0.03704018456
0.03631418043
0.03636638589
0.03568696076
0.03543115906
0.03475982858
0.07307451447
0.06717450709
0.06373043166
0.05963015199
0.05755644866
0.05456541812
0.05338987341
0.05111644446
0.05056100897
0.04876541132
0.04864338275
0.0471718743
0.04734006889
0.04609302115
0.04642603003
0.04533956965
0.04571419601
0.04474635289
0.04503272591
0.0441525267
0.04421400314
0.04338954197
0.04307768204
0.04226175427
0.08581777233
0.07888885937
0.07484401335
0.07002879458
0.06759314437
0.06408062888
0.06269957662
0.06003001642
0.05937693046
0.05726880193
0.05712446471
0.05539727457
0.05559352265
0.0541302594
0.05451974028
0.05324527401
0.05368336813
0.05254828494
0.05288283721
0.05185050012
0.05192112622
0.05095379646
0.05058678141
0.04962880327
0.09828590185
0.09035048859
0.08571793353
0.08020357995
0.0774137702
0.07339155247
0.07180927109
0.06875279444
0.06800388009
0.06559075126
0.06542419815
0.06344772724
0.06367096587
0.06199709579
0.06244134533
0.06098387858
0.0614836227
0.06018579433
0.06056715839
0.0593866907
0.05946613158
0.05835945714
0.05793850509
0.05684153009
0.1104500729
0.1015325028
0.09632647725
0.09012966536
0.08699436122
0.0824743417
0.08069589696
0.07726127366
0.0764191458
0.07370767198
0.07351981857
0.07129927554
0.07154928444
0.06966902769
0.07016717094
0.06853025671
0.06909057125
0.06763312254
0.06806047239
0.06673478668
0.06682295548
0.06557989187
0.06510629136
0.06387371559
0.1222612372
0.1123902132
0.1066274374
0.09976835971
0.09629752872
0.09129471055
0.08932559178
0.08552451061
0.08459153516
0.0815912289
0.08138224349
0.07892567436
0.07920114672
0.07712151528
0.07767141698
0.07586128352
0.07647986126
0.07486837457
0.07533993626
0.0738740402
0.07397044523
0.07259545954
0.07207070144
0.07070647176
0.1336934105
0.1228993226
0.1165975869
0.109097107
0.1053015807
0.09983089471
0.09767742804
0.09352092822
0.09250035608
0.08921962813
0.08899062971
0.08630465002
0.08660528532
0.084331671
0.08493222169
0.0829534351
0.08362893322
0.08186743937
0.08238222255
0.08077985613
0.08088447137
0.07938130837
0.07880708993
0.07731541876
0.1446990187
0.1330165208
0.1261959964
0.1180784546
0.1139702516
0.1080497503
0.1057185577
0.1012206772
0.1001153724
0.09656562441
0.09631683268
0.09341106482
0.09373530522
0.09127607381
0.09192471391
0.08978468677
0.09051432559
0.08860945273
0.0891652933
0.08743240174
0.08754456892
0.08591855374
0.08529659286
0.08368226185
0.1552554862
0.1427206191
0.1354024218
0.1266925933
0.1222845793
0.1159320193
0.1134306176
0.1086045058
0.1074183314
0.1036095989
0.1033423444
0.1002246965
0.1005721871
0.09793379581
0.09862921078
0.09633342316
0.09711561762
0.09507221716
0.09566796543
0.0938090589
0.09392880945
0.09218444621
0.09151683366
0.08978482705
0.1653170831
0.1519700276
0.1441775285
0.134903608
0.1302096974
0.1234459693
0.1207820192
0.1156439054
0.1143801703
0.1103256237
0.1100401531
0.1067217324
0.1070906635
0.1042827648
0.1050219897
0.1025789898
0.1034105227
0.1012362292
0.101869373
0.09989128747
0.1000178231
0.09816123188
0.09744990364
0.09560577267
0.1748651446
0.160747128
0.1525045002
0.1426948509
0.1377297859
0.1305752347
0.1277573605
0.1223223217
0.1209854699
0.116696622
0.1163944816
0.1128843615
0.1132743472
0.1103043457
0.1110858884
0.1085019558
0.1093810162
0.1070813896
0.1077506133
0.1056585284
0.1057919062
0.1038282692
0.1030756533
0.1011250923
0.18385615
0.169012387
0.1603459102
0.150032238
0.1448116497
0.137289754
0.1343265476
0.1286128164
0.1272065427
0.1226981866
0.1223796268
0.1186902862
0.119099269
0.1159780173
0.116798533
0.1140832887
0.1150062629
0.1125899025
0.1132923949
0.1110940047
0.1112333287
0.1091695222
0.1083777846
0.1063270468
0.1922757811
0.176752155
0.1676887534
0.1569026418
0.1514429682
0.1435763936
0.1404774895
0.1345018663
0.1330311569
0.1283161199
0.1279829028
0.1241244418
0.1245520286
0.1212877537
0.1221456059
0.1193060081
0.1202708885
0.1177439388
0.1184782281
0.1161792584
0.1163245875
0.1141663591
0.1133382013
0.1111936133
0.2000830872
0.1839292876
0.1744978208
0.1632740986
0.1575924858
0.1494070153
0.1461818174
0.1399643219
0.1384331949
0.1335277241
0.1331800817
0.1291662163
0.1296101083
0.1262147553
0.1271062432
0.1241529014
0.1251557091
0.1225276715
0.1232906763
0.120899632
0.121049992
0.1188049296
0.1179427418
0.1157111875
0.2072684453
0.1905344263
0.1807642292
0.1691372942
0.1632516738
0.1547719983
0.1514310406
0.1449899735
0.1434039096
0.1383219693
0.1379618755
0.1338035852
0.1342634068
0.1307458959
0.1316692817
0.1286097141
0.1296482939
0.1269257849
0.1277159195
0.1252389638
0.1253944278
0.12306874
0.1221754596
0.1198638106
0.2137938361
0.1965331461
0.1864552975
0.1744626712
0.1683914853
0.159645377
0.156198748
0.1495556759
0.1479189522
0.1426780543
0.1423057034
0.1380177877
0.1384910092
0.1348642498
0.1358155009
0.1326611956
0.1337312254
0.1309245505
0.1317384679
0.1291848269
0.1293443251
0.1269462306
0.1260244293
0.1236401198
0.2196545934
0.2019206202
0.1915664945
0.1792449487
0.1730073999
0.1640212558
0.1604802645
0.153654747
0.1519732818
0.1465883376
0.1462059048
0.1418000669
0.1422863515
0.1385598261
0.1395371459
0.1362960704
0.137395304
0.1345114601
0.1353475221
0.1327237196
0.1328873817
0.1304234747
0.1294763165
0.1270266727
0.2248159834
0.206665468
0.1960679745
0.1834572592
0.1770728514
0.1678760921
0.1642513784
0.1572662686
0.1555445349
0.1500341145
0.1496417427
0.1451336958
0.1456303019
0.1418177382
0.1428167968
0.139501184
0.1406249859
0.1376749511
0.1385295484
0.1358454017
0.1360120303
0.1334910425
0.1325212145
0.1300141297
0.2292784595
0.2107675467
0.1999597023
0.187098494
0.1805874602
0.171207849
0.1675113588
0.1603872193
0.1586315048
0.1530112665
0.1526113123
0.1480133211
0.1485199633
0.144631273
0.1456502477
0.142268408
0.1434144856
0.1404055593
0.1412770512
0.1385393869
0.1387092054
0.1361380566
0.1351489418
0.1325921052
0.2330109246
0.2141988389
0.2032149728
0.1901447561
0.1835274176
0.1739956611
0.1702384502
0.1629991423
0.1612140564
0.1555034065
0.1550959559
0.1504244632
0.1509382187
0.1469877869
0.1480221016
0.1445868631
0.1457503184
0.1426940024
0.1435785455
0.1407976255
0.1409692984
0.138357103
0.1373514475
0.1347531109
0.2360190159
0.2169639485
0.205838301
0.1925991649
0.1858965283
0.1762413998
0.1724359
0.165102722
0.1632948428
0.1575099796
0.1570975407
0.1523652082
0.1528858449
0.1488838799
0.1499317048
0.1464516158
0.1476301355
0.1445339517
0.145429925
0.1426128135
0.1427866617
0.1401405949
0.1391219661
0.1364900879
0.238275608
0.2190385268
0.2078064198
0.1944410678
0.18767402
0.1779271328
0.17408468
0.1666822095
0.1648562278
0.1590171579
0.1585997619
0.1538235624
0.1543480178
0.1503093858
0.1513659632
0.1478542847
0.1490427787
0.1459185998
0.1468219832
0.1439792463
0.1441538218
0.1414832584
0.1404544323
0.137797516
0.239791493
0.2204319002
0.2091283618
0.1956777857
0.1888678372
0.179058606
0.1751919556
0.1677419522
0.1659046478
0.1600279
0.1596081692
0.1548009983
0.1553290902
0.1512641674
0.1523276749
0.1487930895
0.1499892403
0.1468447227
0.1477539174
0.1448927723
0.1450684674
0.1423807482
0.141345415
0.1386715908
0.2405438316
0.2211236736
0.2097845792
0.1962921696
0.1894605173
0.179621071
0.1757417047
0.1682691583
0.1664252526
0.1605311857
0.1601091038
0.1552882505
0.1558168219
0.1517407644
0.1528063294
0.1492623575
0.1504609574
0.1473081911
0.1482190695
0.1453502564
0.1455255543
0.1428302025
0.1417911538
0.1391090679
0.2405484491
0.2211277894
0.2097885088
0.1962956396
0.1894640191
0.1796240382
0.1757448643
0.1682717183
0.1664280969
0.1605333618
0.1601116228
0.1552900594
0.1558189734
0.1517422042
0.1528080303
0.1492633898
0.1504621399
0.1473088229
0.1482198126
0.1453506039
0.1455259388
0.1428303592
0.1417913406
0.1391091941
0.2397870724
0.2204280589
0.2091245765
0.1956747847
0.1888644458
0.1790561759
0.1751886891
0.1677400346
0.1659014026
0.1600264524
0.1596050029
0.1548001092
0.1553261596
0.1512639209
0.1523250824
0.1487933702
0.1499870114
0.1468452954
0.1477522237
0.1448934069
0.1450672326
0.1423809865
0.1413447876
0.1386712594
0.238280364
0.2190428644
0.2078104397
0.1944449566
0.1876775758
0.1779305853
0.1740876718
0.1666853576
0.1648586064
0.1590200081
0.158601569
0.1538262415
0.1543493333
0.15031198
0.1513667309
0.1478566052
0.1490428892
0.14592042
0.1468217551
0.1439805566
0.1441533286
0.1414837815
0.1404541436
0.1377974037
0.2360148477
0.2169604307
0.2058347116
0.1925966772
0.1858933011
0.1762395514
0.1724325876
0.1651014926
0.1632912653
0.1575093054
0.1570937981
0.1523652773
0.1528822009
0.1488848525
0.1499282742
0.1464532223
0.1476269015
0.1445357365
0.145427318
0.1426144461
0.1427846222
0.1401412627
0.1391209494
0.1364895988
0.2330157615
0.214203345
0.2032190306
0.1901490108
0.1835309737
0.1739995447
0.1702412189
0.1630028208
0.1612159137
0.1555068713
0.1550969973
0.1504279531
0.1509386497
0.1469914788
0.1480218968
0.1445904219
0.1457493273
0.1426969662
0.1435773138
0.1407998486
0.1409678834
0.1383579355
0.1373506241
0.1347527008
0.229274593
0.2107643946
0.1999563544
0.1870965541
0.1805844447
0.171206616
0.1675080566
0.160386711
0.1586276612
0.1530113975
0.1526070668
0.1480143744
0.14851568
0.1446334806
0.14564605
0.1422713496
0.1434103166
0.1404085698
0.1412736027
0.138542048
0.1387064451
0.1361392146
0.1351476249
0.1325915411
0.2248208477
0.2066700922
0.1960720223
0.1834618278
0.1770763601
0.1678803534
0.1642538791
0.1572704205
0.1555458299
0.1500381333
0.1496419807
0.1451379305
0.1456298116
0.1418224557
0.1428155841
0.1395059075
0.1406228596
0.1376789867
0.1385272722
0.1358484641
0.1360096429
0.1334921131
0.1325197911
0.1300133553
0.2196510682
0.2019178661
0.1915634249
0.179243579
0.1730046337
0.1640206574
0.1604770192
0.1536549762
0.1519692316
0.1465892884
0.1462012266
0.1418021133
0.1422815052
0.1385632698
0.1395322624
0.1363003466
0.1373902873
0.1345157029
0.135343318
0.1327274289
0.1328839877
0.1304251702
0.1294747786
0.1270261045
0.2137986812
0.1965378429
0.1864592947
0.174467505
0.1683949081
0.1596499668
0.1562009495
0.1495602485
0.147919663
0.1426825707
0.1423051219
0.1380227018
0.1384895816
0.1348699154
0.1358132628
0.1326670016
0.1337279496
0.1309295843
0.1317351344
0.1291886717
0.1293409624
0.1269475116
0.1260224037
0.1236389755
0.2072652895
0.1905320909
0.1807614638
0.1691365025
0.1632491824
0.1547720374
0.1514278871
0.1449909374
0.1433997013
0.1383237333
0.1379568257
0.1338066111
0.1342580665
0.1307505518
0.1316637878
0.1286152965
0.1296425087
0.1269312312
0.1277110215
0.1252436882
0.1253904376
0.123070949
0.1221737038
0.1198632306
0.2000878747
0.1839340184
0.1745017355
0.1632791535
0.1575957945
0.1494118899
0.1461837039
0.1399692688
0.1384333206
0.1335326887
0.1331786908
0.1291717505
0.129607757
0.1262212955
0.1271029967
0.1241597144
0.1251513133
0.122533648
0.1232863308
0.1209042417
0.1210457307
0.1188064624
0.1179402051
0.1157097571
0.1922730101
0.1767502463
0.1676863063
0.1569024213
0.1514407644
0.1435770563
0.1404744502
0.1345035423
0.1330268275
0.1283186681
0.1279775312
0.1241284068
0.1245462506
0.1212935655
0.1221395614
0.1193128294
0.1202643925
0.1177505121
0.1184726627
0.1161849037
0.1163199858
0.1141689858
0.1133361596
0.1111929405
0.183860851
0.1690171204
0.1603497196
0.150037475
0.1448148264
0.1372948748
0.1343281178
0.1286180972
0.1272061028
0.122703557
0.1223774624
0.1186963883
0.1190960383
0.1159853649
0.1167943314
0.1140910395
0.11500082
0.1125967745
0.1132871287
0.1110993729
0.1112282885
0.1091713651
0.1083748591
0.1063254384
0.1748627607
0.1607456416
0.152502374
0.1426951805
0.1377278708
0.1305764912
0.1277544464
0.122324669
0.1209810461
0.1166999045
0.1163888281
0.1128892005
0.1132681775
0.1103112274
0.111079342
0.1085099163
0.1093738582
0.1070889844
0.1077444036
0.1056649815
0.1057866862
0.1038312173
0.1030732757
0.1011242612
0.1653216777
0.1519747393
0.1441812182
0.1349089926
0.1302127333
0.1234513018
0.120783284
0.1156494836
0.1143792013
0.1103313619
0.1100372724
0.1067283533
0.1070866218
0.1042908516
0.1050169114
0.1025876017
0.1034041261
0.1012439289
0.1018632797
0.09989736508
0.1000120949
0.09816337836
0.09744664571
0.09560402194
0.1552534794
0.1427195382
0.1354006081
0.1266934388
0.1222829432
0.1159338266
0.1134278311
0.1086074687
0.1074138328
0.1036135491
0.1033364438
0.1002303255
0.1005656686
0.0979416413
0.09862221347
0.0963424078
0.09710786207
0.09508072929
0.09566117332
0.09381623782
0.09392303663
0.09218768976
0.09151416964
0.08978386976
0.1447034955
0.1330211933
0.1261995598
0.1180839559
0.1139731453
0.1080552624
0.1057195375
0.1012265173
0.1001139231
0.09657169299
0.09631330794
0.09341815343
0.09373053557
0.09128482359
0.09191884741
0.0897940642
0.09050706726
0.08861787542
0.08915843901
0.08743907685
0.08753818238
0.08592091042
0.08529296569
0.08368030871
0.13369176
0.1228986203
0.1165960681
0.1090984232
0.1053002058
0.09983319879
0.09767476517
0.09352443975
0.09249579907
0.08922416813
0.08898451587
0.08631097325
0.08659846353
0.08434036331
0.08492483516
0.08296332493
0.08362067046
0.08187677681
0.08237495698
0.08078771533
0.08087828138
0.07938488487
0.07880427337
0.07731444835
0.122265592
0.1123948345
0.1066308742
0.09977394918
0.09630028422
0.0913003701
0.08932631317
0.08553057525
0.08458966265
0.08159758697
0.08137815695
0.07893317395
0.07919574203
0.0771308416
0.07766485712
0.0758713153
0.0764718322
0.07487739428
0.07533237461
0.07388117592
0.07396341166
0.07259791343
0.0720666523
0.0707042422
0.1104487485
0.1015321428
0.09632522782
0.09013139777
0.08699322301
0.08247708042
0.08069335023
0.07726525952
0.07641454601
0.07371271677
0.07351352715
0.07130618949
0.07154220888
0.06967844186
0.07015946445
0.06854092605
0.06908190397
0.06764318815
0.06805285493
0.0667432732
0.06681648629
0.06558382318
0.06510343779
0.06387282325
0.09829013621
0.09035505098
0.08572124855
0.08020923062
0.07741639557
0.0733973266
0.07180976431
0.06875904238
0.06800164588
0.06559735185
0.06541963795
0.06345557322
0.06366502648
0.06200690339
0.06243419658
0.06099444741
0.0614749288
0.06019528996
0.0605589687
0.05939417773
0.05945851277
0.05836195881
0.05793406455
0.05683903633
0.08581673673
0.0788887987
0.07484300186
0.07003088162
0.06759221366
0.06408373414
0.06269713677
0.06003439788
0.05937230549
0.05727426337
0.05711803563
0.05540467195
0.05558624733
0.05414026375
0.05451178614
0.0532565854
0.0536743962
0.05255895869
0.05287496949
0.05185951689
0.0519144637
0.05095803034
0.05058391404
0.04962798474
0.07307863384
0.06717900577
0.06373363323
0.05963583745
0.05755895463
0.0545712722
0.05339017062
0.05112282923
0.05055847559
0.04877219898
0.04863843803
0.04717999103
0.04733369747
0.04610320292
0.04641840316
0.04535055015
0.04570495867
0.04475620771
0.04502401879
0.04416028171
0.04420591622
0.04339209979
0.04307296174
0.04225908847
0.06010548419
0.05525333943
0.05241954017
0.04904964968
0.04734115605
0.04488446772
0.0439124386
0.04204854584
0.04158339654
0.04011553595
0.04000422831
0.03880639743
0.03893123859
0.03792123667
0.03817858193
0.03730251708
0.03759190484
0.03681378092
0.03703216261
0.03632360779
0.03635959295
0.03569140909
0.03542825525
0.03475903213
0.04694813515
0.04315815153
0.04094453572
0.03831249252
0.03697768055
0.03505895542
0.03429916896
0.03284372069
0.03247950878
0.03133371292
0.03124558903
0.03031110036
0.03040712901
0.02961973594
0.02981888205
0.02913635105
0.02936023449
0.02875429808
0.0289228811
0.02837105636
0.02839742648
0.02787658366
0.02767022501
0.02714774414
0.03363832554
0.03092299526
0.02933683141
0.02745155412
0.02649472005
0.02512072518
0.02457548671
0.02353388983
0.02327152973
0.02245232165
0.02238732831
0.02172010689
0.02178663794
0.02122533382
0.02136526173
0.02087936439
0.0210366887
0.02060567419
0.02072368073
0.02033093836
0.0203475046
0.01997597222
0.0198270773
0.01945297876
0.0202272461
0.01859456525
0.01764054365
0.01650735104
0.01593139686
0.01510575691
0.01477684146
0.01415158817
0.01399209961
0.01350119233
0.01345981539
0.01306103526
0.01309817996
0.01276378748
0.01284437614
0.01255574535
0.0126462895
0.01239078136
0.01245801843
0.01222503958
0.01223181743
0.01201049699
0.0119195181
0.01169500363
0.006748103003
0.006203737482
0.005885157384
0.005508207342
0.005315065121
0.00504105072
0.004929458121
0.004723266716
0.004666992644
0.004506751334
0.004488885921
0.004360677241
0.004368058474
0.004262523938
0.00428327491
0.004193668407
0.004216954423
0.004138480253
0.004154631074
0.004082649419
0.004079587378
0.004009387143
0.003976613898
0.003902349985
-0.006748001156
-0.006202849728
-0.005885278714
-0.005505370882
-0.005315222694
-0.005037395665
-0.004931302419
-0.004718499826
-0.004671257838
-0.004501105738
-0.004495213284
-0.004353273112
-0.004375477253
-0.004252668027
-0.004291648903
-0.004182755085
-0.004226688827
-0.004128560827
-0.004163516332
-0.004074723508
-0.004087624632
-0.004006640795
-0.003981095514
-0.003904816053
-0.02022701738
-0.01859356838
-0.01764055665
-0.01650443324
-0.01593145566
-0.01510203598
-0.01477858167
-0.01414676457
-0.01399624748
-0.01349549595
-0.01346601154
-0.01305358564
-0.01310544911
-0.01275387925
-0.01285256546
-0.01254474824
-0.01265579081
-0.01238073293
-0.01246664361
-0.01221695174
-0.01223961189
-0.01200758412
-0.01192383551
-0.01169732364
-0.03363837631
-0.03092224863
-0.02933707592
-0.02744884456
-0.02649498234
-0.02511718267
-0.02457741257
-0.02352923278
-0.02327585197
-0.02244678442
-0.02239369302
-0.02171282224
-0.02179409086
-0.02121562884
-0.02137368353
-0.02086863812
-0.02104649285
-0.02059596452
-0.0207326712
-0.0203232232
-0.02035564307
-0.01997337428
-0.01983163022
-0.01945551352
-0.04694779974
-0.043157072
-0.04094445035
-0.03830953455
-0.03697764405
-0.03505521406
-0.03430078438
-0.0328388966
-0.03248348557
-0.03132803082
-0.03125157209
-0.03030369377
-0.03041415605
-0.02960990336
-0.02982679367
-0.02912542647
-0.02936941313
-0.02874428234
-0.02893119683
-0.02836296228
-0.02840496174
-0.02787360194
-0.0276743978
-0.02714994809
-0.06010571573
-0.05525276679
-0.05241992208
-0.04904711003
-0.04734152455
-0.04488107811