/*--------------------------------*- C++ -*----------------------------------*\
| =========                 |                                                 |
| \\      /  F ield         | foam-extend: Open Source CFD                    |
|  \\    /   O peration     | Version:  3.0                                   |
|   \\  /    A nd           | Web:         http://www.extend-project.de       |
|    \\/     M anipulation  |                                                 |
\*---------------------------------------------------------------------------*/
FoamFile
{
    version     2.0;
    format      ascii;
    class       volSymmTensorField;
    location    "21";
    object      sigma;
}
// * * * * * * * * * * * * * * * * * * * * * * * * * * * * * * * * * * * * * //

dimensions      [0 0 0 0 0 0 0];

internalField   nonuniform List<symmTensor> 
168
(
(-0.142818 -0.019526 -1.03572e-18 0.142808 -2.14435e-19 9.97926e-06)
(-0.11375 -0.0207122 1.8444e-19 0.113729 1.8129e-18 2.05689e-05)
(-0.0792281 -0.0174791 7.13398e-19 0.0792036 -1.42806e-19 2.45167e-05)
(-0.0501086 -0.0137916 -9.72416e-19 0.0500847 3.99417e-18 2.39245e-05)
(-0.0267153 -0.0105716 1.71065e-18 0.0266999 8.72135e-19 1.54284e-05)
(-0.0128247 -0.0088666 -3.8432e-19 0.0128203 -3.15352e-18 4.45241e-06)
(-0.129997 -0.0557355 5.48432e-19 0.129988 4.09353e-19 8.95015e-06)
(-0.0951348 -0.056677 1.31877e-18 0.0951164 -4.38121e-18 1.84013e-05)
(-0.0612559 -0.0467933 1.94048e-18 0.0612344 -2.61104e-18 2.14987e-05)
(-0.0342349 -0.0361811 3.77324e-18 0.0342142 -4.0977e-18 2.06694e-05)
(-0.0129462 -0.0270446 -5.39975e-18 0.0129337 -7.43117e-19 1.24842e-05)
(4.05982e-05 -0.0221255 -1.82708e-19 -4.37446e-05 4.32891e-18 3.14633e-06)
(-0.107434 -0.0840606 5.84449e-19 0.107427 -6.50798e-18 7.41404e-06)
(-0.0644423 -0.0782084 -5.44679e-18 0.0644273 5.42658e-19 1.49779e-05)
(-0.0322897 -0.0611849 -4.93665e-19 0.0322726 -6.18646e-19 1.71017e-05)
(-0.00907471 -0.0447471 -6.55166e-19 0.00905878 8.43392e-19 1.59243e-05)
(0.00852135 -0.0309801 1.07785e-17 -0.00853025 6.17388e-18 8.90134e-06)
(0.0198325 -0.0232806 1.60286e-18 -0.0198342 -6.52989e-18 1.7053e-06)
(-0.0801554 -0.102181 1.95031e-18 0.0801498 3.13056e-18 5.57983e-06)
(-0.0320544 -0.0821987 3.45336e-18 0.0320434 6.11384e-18 1.10238e-05)
(-0.00336269 -0.0577412 3.98406e-19 0.00335054 -1.8526e-18 1.21538e-05)
(0.0149616 -0.0369643 -2.68406e-19 -0.0149723 4.24579e-18 1.07075e-05)
(0.0280967 -0.0202328 -4.90091e-18 -0.0281018 -1.18413e-17 5.07366e-06)
(0.0372073 -0.0103408 -2.32471e-20 -0.0372076 2.86909e-18 2.54318e-07)
(-0.0531032 -0.110908 -4.48837e-18 0.0530997 1.43634e-18 3.5528e-06)
(-0.00773261 -0.0723684 7.22837e-19 0.00772589 -4.64183e-18 6.71901e-06)
(0.0152373 -0.0408836 -1.63838e-18 -0.0152441 1.3914e-18 6.83754e-06)
(0.0282287 -0.0172844 2.8747e-18 -0.0282339 -1.573e-18 5.21202e-06)
(0.0369371 0.000880066 1.1097e-18 -0.0369383 4.06043e-18 1.15983e-06)
(0.0435442 0.0122912 -3.91063e-18 -0.0435431 2.15009e-18 -1.14423e-06)
(-0.0293744 -0.113396 1.48592e-18 0.029373 8.18888e-19 1.42584e-06)
(0.00335848 -0.057382 -1.07236e-18 -0.00336075 1.84882e-18 2.26931e-06)
(0.0183085 -0.0203158 -9.75941e-19 -0.0183099 1.69757e-19 1.37154e-06)
(0.0259768 0.00485196 -1.52402e-18 -0.0259764 -4.28255e-19 -3.53785e-07)
(0.0307966 0.0234269 -1.87556e-18 -0.0307939 -1.92067e-18 -2.70716e-06)
(0.0347715 0.0358034 2.12718e-18 -0.034769 -3.03129e-19 -2.46429e-06)
(-0.00927777 -0.113393 -8.87802e-20 0.00927846 -5.45912e-19 -6.93282e-07)
(0.00267587 -0.0467911 7.26393e-20 -0.00267374 -1.12566e-18 -2.13103e-06)
(0.00787408 -0.00661943 9.69397e-19 -0.00787009 -5.69684e-20 -3.98853e-06)
(0.0104115 0.0192126 -7.40786e-20 -0.0104058 -6.95333e-19 -5.73761e-06)
(0.0119308 0.037791 2.12103e-19 -0.0119244 1.86239e-18 -6.3324e-06)
(0.0133019 0.0506 -6.46204e-19 -0.0132983 -6.04071e-20 -3.61594e-06)
(0.00929542 -0.113387 -1.53518e-19 -0.00929271 7.69081e-19 -2.71557e-06)
(-0.00265654 -0.0467921 2.12305e-19 0.00266284 9.10432e-19 -6.29599e-06)
(-0.00785189 -0.00662005 -6.6018e-20 0.0078609 -8.52946e-19 -9.01432e-06)
(-0.0103643 0.0192087 1.29842e-18 0.010375 -8.49524e-19 -1.07279e-05)
(-0.0118834 0.0377781 -3.21481e-19 0.011893 -1.71987e-18 -9.59708e-06)
(-0.0131906 0.0505882 -4.13933e-19 0.0131952 -7.63372e-20 -4.60123e-06)
(0.0293897 -0.113386 1.51597e-18 -0.0293851 -6.41511e-19 -4.53412e-06)
(-0.00334085 -0.0573788 -2.10007e-18 0.00335086 -1.77028e-18 -1.00139e-05)
(-0.0182902 -0.0203163 -1.15081e-18 0.0183036 -4.56923e-19 -1.34376e-05)
(-0.0259337 0.00486058 -2.02421e-18 0.0259487 -2.19654e-18 -1.50425e-05)
(-0.0307612 0.0234141 -2.75734e-20 0.0307734 3.14293e-18 -1.22739e-05)
(-0.0346858 0.0358254 2.5731e-18 0.034691 -2.24773e-20 -5.29437e-06)
(0.053107 -0.110899 -4.48293e-18 -0.0531009 -6.72159e-19 -6.06939e-06)
(0.00774481 -0.0723708 6.1079e-19 -0.00773169 4.60547e-18 -1.31168e-05)
(-0.0152208 -0.0408874 -1.10235e-18 0.0152378 -3.2305e-19 -1.70611e-05)
(-0.0281964 -0.0172895 3.08843e-19 0.0282149 7.60314e-19 -1.84998e-05)
(-0.0368812 0.000870709 4.18748e-18 0.0368955 -7.09075e-18 -1.42908e-05)
(-0.0434484 0.0123004 -4.10223e-18 0.0434541 -1.24159e-18 -5.74486e-06)
(0.0801554 -0.102169 2.36461e-18 -0.0801482 -2.92072e-18 -7.23629e-06)
(0.0320631 -0.082196 5.89767e-18 -0.0320476 -3.49887e-18 -1.54343e-05)
(0.00337412 -0.0577476 -2.39482e-18 -0.00335444 -3.40252e-19 -1.96753e-05)
(-0.0149348 -0.0369592 3.24438e-18 0.0149557 1.56242e-18 -2.08898e-05)
(-0.0280491 -0.0202597 -1.16386e-17 0.0280646 5.40659e-18 -1.549e-05)
(-0.0371408 -0.0103641 2.52065e-18 0.0371466 3.03579e-20 -5.85423e-06)
(0.10744 -0.0840582 2.08292e-18 -0.107432 6.08636e-18 -7.98161e-06)
(0.064452 -0.0782184 -5.84976e-18 -0.0644352 -2.40524e-19 -1.68544e-05)
(0.0323145 -0.0611928 1.20419e-18 -0.0322933 3.35412e-18 -2.1149e-05)
(0.0090977 -0.0447674 -2.90998e-18 -0.00907562 -3.2598e-18 -2.20756e-05)
(-0.00847582 -0.0309906 5.02426e-18 0.0084916 -1.08335e-18 -1.57766e-05)
(-0.0197852 -0.023289 2.24048e-18 0.0197908 4.48152e-18 -5.61527e-06)
(0.129995 -0.0557346 3.41813e-19 -0.129987 -7.44816e-19 -8.26425e-06)
(0.0951371 -0.05669 2.52406e-18 -0.0951198 2.23235e-18 -1.73004e-05)
(0.061265 -0.0468098 1.76425e-18 -0.0612436 3.79215e-18 -2.14047e-05)
(0.0342516 -0.0362005 -2.12845e-18 -0.0342296 3.60728e-18 -2.20075e-05)
(0.0129803 -0.0270641 -5.24265e-19 -0.0129651 2.18672e-18 -1.51892e-05)
(4.27563e-05 -0.0221483 -1.34044e-18 -3.76791e-05 -1.91176e-18 -5.07726e-06)
(0.142821 -0.0195123 -6.24102e-19 -0.142813 -4.03315e-19 -8.07217e-06)
(0.113756 -0.0207242 -5.29493e-19 -0.113739 -2.40429e-18 -1.67498e-05)
(0.0792473 -0.0174683 8.35078e-19 -0.0792269 -1.45181e-18 -2.04203e-05)
(0.0501226 -0.0138174 -9.43488e-19 -0.0501019 -1.90733e-18 -2.06593e-05)
(0.0267515 -0.0105845 1.67088e-18 -0.0267379 6.84717e-19 -1.36794e-05)
(0.0128874 -0.00891808 -6.24247e-20 -0.0128832 -5.52487e-19 -4.19484e-06)
(0.142791 0.01966 -1.03323e-18 -0.142783 -2.13429e-19 -7.41938e-06)
(0.113736 0.0208025 1.85438e-19 -0.113721 1.81292e-18 -1.52376e-05)
(0.0792023 0.0176104 7.11392e-19 -0.0791841 -1.39427e-19 -1.82578e-05)
(0.0500926 0.013941 -9.72812e-19 -0.0500745 3.99589e-18 -1.81075e-05)
(0.0266734 0.010756 1.7022e-18 -0.0266621 8.75899e-19 -1.1333e-05)
(0.0127877 0.00907159 -3.83067e-19 -0.0127847 -3.1526e-18 -3.0183e-06)
(0.129902 0.0558402 5.47276e-19 -0.129896 4.08886e-19 -6.33522e-06)
(0.0950667 0.0567454 1.31831e-18 -0.0950539 -4.38307e-18 -1.28424e-05)
(0.0611569 0.0468977 1.94669e-18 -0.0611419 -2.61095e-18 -1.50376e-05)
(0.0341176 0.0362817 3.77248e-18 -0.0341031 -4.09807e-18 -1.45269e-05)
(0.0128132 0.0271885 -5.38953e-18 -0.0128048 -7.33521e-19 -8.35327e-06)
(-0.000201491 0.0222703 -1.877e-19 0.000203167 4.32361e-18 -1.67544e-06)
(0.107306 0.0841117 5.86861e-19 -0.107301 -6.50775e-18 -4.88478e-06)
(0.0643441 0.0782374 -5.44516e-18 -0.0643344 5.41141e-19 -9.70236e-06)
(0.032142 0.0612221 -4.95957e-19 -0.032131 -6.24653e-19 -1.09494e-05)
(0.00890731 0.0447874 -6.49109e-19 -0.0088972 8.36991e-19 -1.01142e-05)
(-0.00874543 0.0310117 1.07694e-17 0.00875032 6.17392e-18 -4.8872e-06)
(-0.0200787 0.0232952 1.59968e-18 0.0200789 -6.52105e-18 -2.41681e-07)
(0.08002 0.102164 1.94933e-18 -0.0800169 3.12784e-18 -3.13081e-06)
(0.0319382 0.0821772 3.45149e-18 -0.0319323 6.11333e-18 -5.96461e-06)
(0.00320587 0.0577066 4.00917e-19 -0.00319968 -1.84856e-18 -6.1844e-06)
(-0.0151607 0.0369062 -2.7379e-19 0.0151658 4.24659e-18 -5.09652e-06)
(-0.028352 0.0201623 -4.89221e-18 0.0283531 -1.18359e-17 -1.11329e-06)
(-0.0375118 0.0102075 -7.17232e-21 0.0375106 2.84873e-18 1.23195e-06)
(0.0529903 0.110833 -4.48824e-18 -0.0529891 1.43818e-18 -1.17676e-06)
(0.00763323 0.0722927 7.23928e-19 -0.00763139 -4.64172e-18 -1.83976e-06)
(-0.0153727 0.0407727 -1.63976e-18 0.0153737 1.38538e-18 -1.02317e-06)
(-0.0284027 0.0171352 2.88044e-18 0.0284024 -1.57484e-18 2.31677e-07)
(-0.0371573 -0.0010821 1.10685e-18 0.0371546 4.04924e-18 2.70401e-06)
(-0.0437972 -0.0125397 -3.91033e-18 0.0437946 2.1562e-18 2.59031e-06)
(0.0293015 0.113281 1.48453e-18 -0.0293024 8.17916e-19 8.99218e-07)
(-0.00343404 0.0572588 -1.07385e-18 0.00343154 1.84835e-18 2.49814e-06)
(-0.0184008 0.0201497 -9.79255e-19 0.0183965 1.74969e-19 4.33173e-06)
(-0.0261042 -0.00508591 -1.52674e-18 0.0260985 -4.28594e-19 5.67431e-06)
(-0.0309529 -0.0237363 -1.87191e-18 0.0309464 -1.91316e-18 6.49183e-06)
(-0.0349413 -0.0361846 2.12044e-18 0.0349374 -3.03676e-19 3.88076e-06)
(0.00925723 0.113261 -8.91471e-20 -0.00926021 -5.44206e-19 2.97683e-06)
(-0.00269882 0.046651 7.20026e-20 0.00269201 -1.12367e-18 6.81165e-06)
(-0.0079003 0.00642947 9.66513e-19 0.00789073 -5.97867e-20 9.57466e-06)
(-0.0104441 -0.019483 -7.35013e-20 0.0104332 -6.94936e-19 1.0915e-05)
(-0.0119711 -0.0381422 2.09938e-19 0.0119611 1.85318e-18 9.97521e-06)
(-0.0133337 -0.0510301 -6.42892e-19 0.0133288 -5.78697e-20 4.96025e-06)
(-0.00926518 0.113255 -1.53177e-19 0.0092602 7.67141e-19 4.98094e-06)
(0.00269046 0.0466425 2.11577e-19 -0.00270139 9.09496e-19 1.09326e-05)
(0.00789983 0.00642578 -6.67413e-20 -0.00791435 -8.50206e-19 1.4519e-05)
(0.0104285 -0.0194918 1.29549e-18 -0.0104443 -8.49888e-19 1.57808e-05)
(0.0119815 -0.0381431 -3.23804e-19 -0.0119946 -1.7129e-18 1.30938e-05)
(0.0132897 -0.0510344 -4.14202e-19 -0.0132956 -7.83075e-20 5.85656e-06)
(-0.0293125 0.113277 1.51496e-18 0.0293057 -6.4016e-19 6.79463e-06)
(0.00342038 0.0572557 -2.1001e-18 -0.00343502 -1.76865e-18 1.46369e-05)
(0.0183953 0.020151 -1.14857e-18 -0.0184141 -4.60195e-19 1.88835e-05)
(0.0260905 -0.00509405 -2.03014e-18 -0.0261105 -2.19744e-18 1.99873e-05)
(0.0309564 -0.0237244 -2.54073e-20 -0.030972 3.13342e-18 1.56304e-05)
(0.0349288 -0.0361868 2.5656e-18 -0.0349352 -2.21473e-20 6.47919e-06)
(-0.0529943 0.110826 -4.48177e-18 0.0529859 -6.73802e-19 8.36102e-06)
(-0.00762873 0.0722884 6.14332e-19 0.00761094 4.60581e-18 1.77921e-05)
(0.015375 0.0407797 -1.101e-18 -0.0153975 -3.17156e-19 2.25352e-05)
(0.0284096 0.0171259 3.2036e-19 -0.028433 7.65233e-19 2.34114e-05)
(0.0371693 -0.00106604 4.17747e-18 -0.0371869 -7.08683e-18 1.75604e-05)
(0.0437895 -0.0125693 -4.10861e-18 -0.0437964 -1.24916e-18 6.85885e-06)
(-0.0800247 0.102154 2.36394e-18 0.0800151 -2.91746e-18 9.58369e-06)
(-0.0319346 0.0821711 5.89533e-18 0.0319144 -3.49978e-18 2.02172e-05)
(-0.00320381 0.0577062 -2.39041e-18 0.00317856 -3.42227e-19 2.52494e-05)
(0.0151747 0.0369058 3.23786e-18 -0.0152005 1.55758e-18 2.58136e-05)
(0.0283601 0.0201681 -1.16284e-17 -0.0283789 5.4072e-18 1.87006e-05)
(0.0375114 0.0102294 2.53156e-18 -0.0375183 4.28479e-20 6.90096e-06)
(-0.107307 0.0840993 2.08402e-18 0.107297 6.08557e-18 1.04385e-05)
(-0.0643326 0.0782407 -5.84812e-18 0.0643108 -2.42232e-19 2.1839e-05)
(-0.0321454 0.0612275 1.20103e-18 0.0321184 3.35882e-18 2.69732e-05)
(-0.00888254 0.0447915 -2.90807e-18 0.00885538 -3.26194e-18 2.71585e-05)
(0.0087537 0.0310366 5.01878e-18 -0.00877282 -1.07142e-18 1.91186e-05)
(0.0201143 0.0233106 2.2385e-18 -0.020121 4.47096e-18 6.68746e-06)
(-0.129903 0.0558281 3.39795e-19 0.129892 -7.44725e-19 1.08612e-05)
(-0.0950563 0.056756 2.52344e-18 0.0950337 2.23158e-18 2.25477e-05)
(-0.0611524 0.0468961 1.76608e-18 0.0611248 3.78839e-18 2.75553e-05)
(-0.0341001 0.0363091 -2.12894e-18 0.0340728 3.60748e-18 2.72914e-05)
(-0.0127828 0.027198 -5.16075e-19 0.0127641 2.18401e-18 1.86878e-05)
(0.000230691 0.0222888 -1.34161e-18 -0.000236812 -1.9097e-18 6.12123e-06)
(-0.142783 0.0196493 -6.23093e-19 0.142773 -4.04033e-19 1.08738e-05)
(-0.113722 0.0208175 -5.27754e-19 0.113699 -2.40589e-18 2.24061e-05)
(-0.0791927 0.0176116 8.29933e-19 0.0791658 -1.45389e-18 2.69371e-05)
(-0.0500608 0.0139633 -9.4231e-19 0.0500345 -1.90974e-18 2.63271e-05)
(-0.0266581 0.0107737 1.66095e-18 0.0266408 6.88437e-19 1.73247e-05)
(-0.0127565 0.00909924 -5.83661e-20 0.0127512 -5.57062e-19 5.30992e-06)
)
;

boundaryField
{
    out
    {
        type            mySigma;
    }
    in
    {
        type            mySigma;
    }
    frontAndBack
    {
        type            empty;
    }
}


// ************************************************************************* //
