/*--------------------------------*- C++ -*----------------------------------*\
| =========                 |                                                 |
| \\      /  F ield         | foam-extend: Open Source CFD                    |
|  \\    /   O peration     | Version:  3.0                                   |
|   \\  /    A nd           | Web:         http://www.extend-project.de       |
|    \\/     M anipulation  |                                                 |
\*---------------------------------------------------------------------------*/
FoamFile
{
    version     2.0;
    format      ascii;
    class       volSymmTensorField;
    location    "29";
    object      sigma;
}
// * * * * * * * * * * * * * * * * * * * * * * * * * * * * * * * * * * * * * //

dimensions      [0 0 0 0 0 0 0];

internalField   nonuniform List<symmTensor> 
120
(
(-0.131166 -0.0230083 1.9302e-19 0.131165 -1.19516e-20 1.35596e-07)
(-0.09364 -0.0224219 5.30622e-19 0.0936397 4.33957e-19 2.91439e-07)
(-0.0551225 -0.0174825 1.17437e-18 0.0551221 -6.08463e-19 4.04942e-07)
(-0.0241363 -0.0131133 -8.72483e-19 0.0241359 5.34324e-20 4.39731e-07)
(-0.0017592 -0.00968971 -9.1729e-19 0.00175892 -7.7866e-21 2.77118e-07)
(-0.111713 -0.0630998 3.37692e-19 0.111713 -1.02651e-19 1.86734e-07)
(-0.0687711 -0.0580741 1.65413e-18 0.0687707 -7.81615e-19 4.05476e-07)
(-0.0326411 -0.0434893 9.83279e-19 0.0326405 -1.61831e-18 5.51569e-07)
(-0.0043027 -0.0308942 1.39394e-18 0.00430213 -1.04734e-18 5.75291e-07)
(0.0156662 -0.021211 7.4218e-19 -0.0156666 -1.38289e-18 3.35127e-07)
(-0.0802926 -0.0883775 9.31665e-21 0.0802924 -2.98538e-19 2.38198e-07)
(-0.0315587 -0.0712822 -3.47386e-19 0.0315582 -1.30539e-18 5.10994e-07)
(-0.000180828 -0.0478092 -1.3247e-18 0.000180142 -1.70941e-18 6.86103e-07)
(0.0233552 -0.0283838 -1.97572e-18 -0.0233559 -1.8511e-18 6.98365e-07)
(0.0391874 -0.013986 -3.27488e-18 -0.0391878 5.86757e-19 3.94317e-07)
(-0.0477555 -0.0971191 -1.00975e-19 0.0477552 -2.12393e-19 2.61684e-07)
(0.000146552 -0.061146 -5.6631e-19 -0.000147116 -7.55123e-19 5.63844e-07)
(0.0245356 -0.0301481 -3.04136e-18 -0.0245364 1.86619e-19 7.47624e-07)
(0.0418874 -0.00575404 -1.05381e-18 -0.0418882 9.54997e-19 7.4415e-07)
(0.0528698 0.0114914 -5.87154e-19 -0.0528702 1.67542e-18 4.00459e-07)
(-0.0224776 -0.0948873 6.1953e-20 0.0224773 -1.80339e-19 2.77282e-07)
(0.0133551 -0.0391858 -7.59672e-19 -0.0133557 -4.11331e-20 5.91858e-07)
(0.0288565 -0.00267763 -1.02233e-19 -0.0288572 4.29138e-19 7.79235e-07)
(0.0393788 0.0247997 -3.77934e-19 -0.0393796 1.00974e-18 7.64224e-07)
(0.0456477 0.0433504 2.87828e-18 -0.0456481 -3.95315e-20 4.02977e-07)
(-0.00618136 -0.090544 -2.49749e-19 0.0061811 -8.36995e-20 2.61791e-07)
(0.00716684 -0.0222127 -1.00743e-18 -0.0071674 2.08404e-19 5.61387e-07)
(0.0124876 0.0172194 7.73233e-19 -0.0124883 4.08616e-19 7.31568e-07)
(0.0160007 0.0461298 2.25946e-19 -0.0160014 6.46164e-19 7.03065e-07)
(0.0180141 0.0650877 6.5786e-19 -0.0180144 -3.24449e-19 3.52609e-07)
(0.00618115 -0.090544 -2.4463e-19 -0.00618139 -4.33997e-20 2.38445e-07)
(-0.00716716 -0.0222127 -5.75203e-19 0.00716665 1.64169e-19 5.06982e-07)
(-0.0124878 0.0172195 7.13064e-19 0.0124871 3.61113e-19 6.56526e-07)
(-0.0160005 0.0461298 1.9159e-19 0.0159999 4.77582e-19 6.20687e-07)
(-0.0180132 0.0650878 -1.07159e-18 0.0180129 -2.2375e-19 3.02902e-07)
(0.0224773 -0.0948872 -3.4334e-19 -0.0224775 -7.46917e-21 1.87337e-07)
(-0.0133553 -0.0391857 8.90801e-19 0.0133549 3.46964e-19 4.01357e-07)
(-0.0288566 -0.00267749 -4.63764e-19 0.0288561 8.66042e-20 5.12445e-07)
(-0.0393786 0.0247999 5.38423e-19 0.0393781 -5.47555e-20 4.68598e-07)
(-0.0456468 0.0433508 8.67323e-20 0.0456466 -4.00269e-19 2.0789e-07)
(0.0477552 -0.097119 -2.11818e-19 -0.0477554 3.08937e-19 1.34089e-07)
(-0.000146727 -0.0611458 -9.47313e-19 0.000146443 5.41697e-19 2.83949e-07)
(-0.0245357 -0.0301478 -1.86921e-18 0.0245353 3.47087e-19 3.5743e-07)
(-0.0418871 -0.00575355 -1.22495e-18 0.0418868 7.60449e-19 3.12685e-07)
(-0.0528688 0.0114922 -3.13789e-18 0.0528687 -1.1937e-19 1.24124e-07)
(0.0802924 -0.0883775 1.177e-19 -0.0802925 4.09816e-19 6.05674e-08)
(0.0315586 -0.0712819 1.3358e-19 -0.0315588 9.3643e-19 1.31242e-07)
(0.000180873 -0.0478087 -6.68295e-19 -0.000181027 1.07667e-18 1.54585e-07)
(-0.0233549 -0.0283831 1.80538e-18 0.0233548 1.14785e-19 1.08817e-07)
(-0.0391865 -0.0139849 2.38352e-18 0.0391865 2.55573e-18 7.61114e-09)
(0.111713 -0.0630998 2.97871e-19 -0.111713 2.25352e-19 -6.31977e-09)
(0.068771 -0.0580738 5.24882e-19 -0.068771 2.06545e-19 -1.46335e-08)
(0.0326411 -0.0434886 2.13702e-18 -0.0326411 1.17998e-18 -3.46346e-08)
(0.00430292 -0.0308931 1.20309e-18 -0.00430284 -4.50462e-19 -7.42793e-08)
(-0.0156656 -0.0212095 2.35228e-18 0.0156657 -1.96896e-19 -8.40051e-08)
(0.131165 -0.0230084 1.32985e-19 -0.131165 -3.50422e-21 -8.40083e-08)
(0.0936399 -0.0224214 4.69322e-19 -0.0936398 4.47182e-20 -1.75728e-07)
(0.0551224 -0.0174817 1.68846e-18 -0.0551222 -1.40656e-19 -2.4543e-07)
(0.0241363 -0.0131121 1.46181e-19 -0.024136 -6.13768e-19 -2.79541e-07)
(0.00175933 -0.00968787 -1.11978e-19 -0.00175913 -2.12441e-18 -1.94548e-07)
(0.131166 0.0230061 1.92968e-19 -0.131166 -1.19751e-20 -1.45418e-07)
(0.0936412 0.0224166 5.30601e-19 -0.0936409 4.33754e-19 -3.09609e-07)
(0.0551249 0.0174727 1.17443e-18 -0.0551245 -6.08362e-19 -4.1618e-07)
(0.0241405 0.0130965 -8.72053e-19 -0.0241401 5.33542e-20 -4.38562e-07)
(0.00176635 0.00966192 -9.1704e-19 -0.00176608 -7.66501e-21 -2.67009e-07)
(0.111714 0.0630981 3.37572e-19 -0.111714 -1.02696e-19 -2.08444e-07)
(0.0687747 0.0580702 1.65408e-18 -0.0687742 -7.81566e-19 -4.39317e-07)
(0.0326478 0.0434821 9.83258e-19 -0.0326473 -1.61786e-18 -5.83588e-07)
(0.0043145 0.0308818 1.39398e-18 -0.0043139 -1.04713e-18 -5.96193e-07)
(-0.0156465 0.0211905 7.42586e-19 0.0156469 -1.38242e-18 -3.46698e-07)
(0.0802947 0.0883768 9.30553e-21 -0.0802944 -2.98541e-19 -2.46943e-07)
(0.0315636 0.0712805 -3.47282e-19 -0.0315631 -1.30502e-18 -5.24433e-07)
(0.000190081 0.0478063 -1.3246e-18 -0.000189393 -1.70886e-18 -6.88781e-07)
(-0.0233391 0.0283789 -1.97547e-18 0.0233398 -1.85064e-18 -6.86999e-07)
(-0.0391604 0.0139781 -3.27482e-18 0.0391608 5.8662e-19 -3.78494e-07)
(0.0477576 0.0971194 -1.00957e-19 -0.0477573 -2.12405e-19 -2.80332e-07)
(-0.000141696 0.061147 -5.66063e-19 0.000142287 -7.54902e-19 -5.91174e-07)
(-0.0245264 0.0301502 -3.04092e-18 0.0245272 1.86641e-19 -7.72695e-07)
(-0.0418714 0.00575786 -1.0538e-18 0.0418722 9.54514e-19 -7.60225e-07)
(-0.0528429 -0.0114849 -5.861e-19 0.0528433 1.67527e-18 -4.10375e-07)
(0.022479 0.0948886 6.1935e-20 -0.0224788 -1.80351e-19 -2.84312e-07)
(-0.0133515 0.039189 -7.5964e-19 0.0133521 -4.10929e-20 -6.03025e-07)
(-0.0288498 0.00268404 -1.01775e-19 0.0288505 4.28994e-19 -7.81541e-07)
(-0.0393671 -0.0247884 -3.77997e-19 0.0393678 1.00945e-18 -7.55447e-07)
(-0.0456281 -0.0433313 2.87849e-18 0.0456285 -3.8901e-20 -3.89973e-07)
(0.00618192 0.0905459 -2.49771e-19 -0.00618163 -8.37092e-20 -2.80599e-07)
(-0.00716559 0.0222173 -1.00743e-18 0.00716618 2.08368e-19 -5.90983e-07)
(-0.0124851 -0.0172105 7.73304e-19 0.0124859 4.08577e-19 -7.62465e-07)
(-0.0159965 -0.0461142 2.25864e-19 0.0159972 6.46301e-19 -7.28013e-07)
(-0.018007 -0.0650614 6.57254e-19 0.0180073 -3.23902e-19 -3.68628e-07)
(-0.00618179 0.0905459 -2.44608e-19 0.00618203 -4.34512e-20 -2.47267e-07)
(0.00716581 0.0222173 -5.75002e-19 -0.00716529 1.6415e-19 -5.23594e-07)
(0.0124852 -0.0172106 7.12962e-19 -0.0124845 3.61174e-19 -6.68219e-07)
(0.0159962 -0.0461143 1.91669e-19 -0.0159955 4.7802e-19 -6.23798e-07)
(0.0180058 -0.0650615 -1.07171e-18 -0.0180055 -2.23505e-19 -2.97246e-07)
(-0.0224789 0.0948885 -3.43296e-19 0.0224791 -7.58873e-21 -2.08652e-07)
(0.0133517 0.039189 8.90749e-19 -0.0133513 3.46923e-19 -4.3731e-07)
(0.0288497 0.00268391 -4.6422e-19 -0.0288492 8.65828e-20 -5.52992e-07)
(0.0393667 -0.0247887 5.38199e-19 -0.0393662 -5.47205e-20 -5.04872e-07)
(0.0456269 -0.0433317 8.62495e-20 -0.0456266 -3.9987e-19 -2.30638e-07)
(-0.0477574 0.0971193 -2.11816e-19 0.0477575 3.08928e-19 -1.45163e-07)
(0.00014177 0.0611469 -9.47686e-19 -0.000141464 5.41806e-19 -3.05707e-07)
(0.0245263 0.0301499 -1.86977e-18 -0.0245259 3.47189e-19 -3.7605e-07)
(0.0418709 0.00575738 -1.22542e-18 -0.0418705 7.60707e-19 -3.23299e-07)
(0.0528416 -0.0114856 -3.13774e-18 -0.0528415 -1.19318e-19 -1.22731e-07)
(-0.0802945 0.0883768 1.17713e-19 0.0802946 4.09837e-19 -8.34789e-08)
(-0.0315636 0.0712803 1.33359e-19 0.0315638 9.36683e-19 -1.70092e-07)
(-0.00019029 0.0478058 -6.68312e-19 0.000190488 1.07712e-18 -1.97862e-07)
(0.0233386 0.0283781 1.80588e-18 -0.0233384 1.14807e-19 -1.47047e-07)
(0.0391593 0.013977 2.38368e-18 -0.0391592 2.55681e-18 -3.11895e-08)
(-0.111714 0.0630981 2.97884e-19 0.111714 2.25337e-19 -5.74435e-09)
(-0.0687747 0.0580699 5.24845e-19 0.0687747 2.06582e-19 -7.74077e-09)
(-0.032648 0.0434814 2.13717e-18 0.032648 1.18044e-18 1.7692e-08)
(-0.00431495 0.0308807 1.20339e-18 0.00431488 -4.50522e-19 6.75073e-08)
(0.0156457 0.0211889 2.35165e-18 -0.0156457 -1.96675e-19 8.83939e-08)
(-0.131166 0.0230061 1.32995e-19 0.131166 -3.52388e-21 5.98201e-08)
(-0.0936413 0.0224162 4.69362e-19 0.0936411 4.47297e-20 1.37003e-07)
(-0.055125 0.0174719 1.68851e-18 0.0551248 -1.40583e-19 2.06406e-07)
(-0.0241407 0.0130953 1.4605e-19 0.0241405 -6.13848e-19 2.48965e-07)
(-0.00176677 0.00966008 -1.12529e-19 0.00176659 -2.12502e-18 1.76675e-07)
)
;

boundaryField
{
    out
    {
        type            mySigma;
    }
    in
    {
        type            mySigma;
    }
    frontAndBack
    {
        type            empty;
    }
}


// ************************************************************************* //
