/*--------------------------------*- C++ -*----------------------------------*\
| =========                 |                                                 |
| \\      /  F ield         | OpenFOAM: The Open Source CFD Toolbox           |
|  \\    /   O peration     | Version:  2.2.0                                 |
|   \\  /    A nd           | Web:      www.OpenFOAM.org                      |
|    \\/     M anipulation  |                                                 |
\*---------------------------------------------------------------------------*/
FoamFile
{
    version     2.0;
    format      ascii;
    class       volVectorField;
    location    "3.1";
    object      s;
}
// * * * * * * * * * * * * * * * * * * * * * * * * * * * * * * * * * * * * * //

dimensions      [0 1 -1 0 0 0 0];

internalField   nonuniform List<vector> 
1600
(
(1.77128 0.0695959 0)
(1.50465 0.0591184 0)
(1.30612 0.0513175 0)
(1.15393 0.0453381 0)
(1.03335 0.0406006 0)
(0.935516 0.0367565 0)
(0.854549 0.0335753 0)
(0.786443 0.0308994 0)
(0.728364 0.0286175 0)
(0.678251 0.0266485 0)
(0.634573 0.0249324 0)
(0.596166 0.0234234 0)
(0.562131 0.0220862 0)
(0.531763 0.0208931 0)
(0.504501 0.0198219 0)
(0.479893 0.0188551 0)
(0.457566 0.0179778 0)
(0.437243 0.0171793 0)
(0.418547 0.0164447 0)
(0.401658 0.0157812 0)
(1.76036 0.208356 0)
(1.49537 0.176991 0)
(1.29806 0.153636 0)
(1.14682 0.135735 0)
(1.02698 0.121552 0)
(0.929748 0.110043 0)
(0.849281 0.100519 0)
(0.781595 0.0925078 0)
(0.723873 0.085676 0)
(0.674069 0.0797813 0)
(0.63066 0.0746435 0)
(0.59249 0.0701258 0)
(0.558665 0.0661224 0)
(0.528485 0.0625503 0)
(0.501391 0.0593435 0)
(0.476934 0.0564489 0)
(0.454745 0.0538227 0)
(0.434547 0.051432 0)
(0.415966 0.0492328 0)
(0.399181 0.0472462 0)
(1.73858 0.34583 0)
(1.47688 0.293771 0)
(1.28201 0.255008 0)
(1.13263 0.225295 0)
(1.01428 0.201753 0)
(0.918248 0.182651 0)
(0.838776 0.166843 0)
(0.771927 0.153546 0)
(0.71492 0.142206 0)
(0.665732 0.132422 0)
(0.62286 0.123894 0)
(0.585161 0.116396 0)
(0.551755 0.109751 0)
(0.521948 0.103822 0)
(0.495189 0.0984993 0)
(0.471035 0.0936947 0)
(0.449121 0.0893356 0)
(0.429172 0.0853677 0)
(0.410821 0.0817174 0)
(0.394244 0.07842 0)
(1.70609 0.481172 0)
(1.44928 0.40874 0)
(1.25805 0.354807 0)
(1.11146 0.313466 0)
(0.995325 0.280711 0)
(0.901087 0.254133 0)
(0.8231 0.232138 0)
(0.757501 0.213637 0)
(0.701558 0.19786 0)
(0.65329 0.184247 0)
(0.611219 0.172382 0)
(0.574225 0.161948 0)
(0.541443 0.152703 0)
(0.512193 0.144453 0)
(0.485935 0.137048 0)
(0.462232 0.130363 0)
(0.440727 0.124298 0)
(0.421151 0.118777 0)
(0.403143 0.113698 0)
(0.386876 0.10911 0)
(1.66308 0.613546 0)
(1.41274 0.521189 0)
(1.22633 0.452418 0)
(1.08344 0.399704 0)
(0.970232 0.357938 0)
(0.87837 0.324048 0)
(0.802349 0.296002 0)
(0.738404 0.272411 0)
(0.683872 0.252294 0)
(0.63682 0.234935 0)
(0.59581 0.219806 0)
(0.559749 0.206502 0)
(0.527793 0.194713 0)
(0.499281 0.184194 0)
(0.473684 0.174751 0)
(0.450579 0.166227 0)
(0.429616 0.158494 0)
(0.410534 0.151454 0)
(0.39298 0.144978 0)
(0.377123 0.139128 0)
(1.60981 0.742137 0)
(1.36749 0.630424 0)
(1.18705 0.54724 0)
(1.04874 0.483478 0)
(0.939158 0.432958 0)
(0.850238 0.391965 0)
(0.776652 0.358041 0)
(0.714754 0.329506 0)
(0.661969 0.305172 0)
(0.616424 0.284175 0)
(0.576727 0.265875 0)
(0.541821 0.249783 0)
(0.510889 0.235523 0)
(0.48329 0.2228 0)
(0.458513 0.211377 0)
(0.436148 0.201067 0)
(0.415856 0.191712 0)
(0.397386 0.183197 0)
(0.380394 0.175364 0)
(0.365044 0.168288 0)
(1.54662 0.866152 0)
(1.31381 0.735772 0)
(1.14046 0.638688 0)
(1.00758 0.564271 0)
(0.902293 0.505309 0)
(0.816863 0.457466 0)
(0.746166 0.417873 0)
(0.686698 0.384569 0)
(0.635985 0.356169 0)
(0.592228 0.331663 0)
(0.554089 0.310305 0)
(0.520553 0.291524 0)
(0.490836 0.274881 0)
(0.46432 0.260031 0)
(0.440515 0.2467 0)
(0.419028 0.234667 0)
(0.399533 0.223749 0)
(0.381787 0.213811 0)
(0.365462 0.204669 0)
(0.350715 0.19641 0)
(1.4739 0.984828 0)
(1.25203 0.836584 0)
(1.08683 0.726199 0)
(0.960199 0.641584 0)
(0.859866 0.574544 0)
(0.778453 0.520146 0)
(0.71108 0.475128 0)
(0.654408 0.437262 0)
(0.60608 0.404969 0)
(0.56438 0.377107 0)
(0.528035 0.352822 0)
(0.496076 0.331467 0)
(0.467756 0.312544 0)
(0.442486 0.29566 0)
(0.419801 0.280502 0)
(0.399324 0.26682 0)
(0.380746 0.254406 0)
(0.363835 0.243107 0)
(0.348277 0.232712 0)
(0.334224 0.223321 0)
(1.39208 1.09743 0)
(1.18254 0.932238 0)
(1.0265 0.809231 0)
(0.906901 0.714943 0)
(0.812137 0.640237 0)
(0.735243 0.579619 0)
(0.67161 0.529454 0)
(0.618084 0.487258 0)
(0.572438 0.451273 0)
(0.533053 0.420225 0)
(0.498725 0.393163 0)
(0.46854 0.369367 0)
(0.441792 0.34828 0)
(0.417925 0.329465 0)
(0.396499 0.312575 0)
(0.377159 0.297328 0)
(0.359612 0.283495 0)
(0.343639 0.270903 0)
(0.328945 0.25932 0)
(0.315672 0.248856 0)
(1.30169 1.20327 0)
(1.10575 1.02215 0)
(0.959849 0.887275 0)
(0.848011 0.783893 0)
(0.759401 0.701983 0)
(0.6875 0.635519 0)
(0.627999 0.580516 0)
(0.577949 0.53425 0)
(0.535267 0.494795 0)
(0.498439 0.460752 0)
(0.466341 0.431081 0)
(0.438116 0.40499 0)
(0.413104 0.381869 0)
(0.390787 0.36124 0)
(0.370753 0.34272 0)
(0.352668 0.326003 0)
(0.336261 0.310836 0)
(0.321325 0.29703 0)
(0.307585 0.284329 0)
(0.295174 0.272856 0)
(1.20327 1.30169 0)
(1.02215 1.10575 0)
(0.887275 0.959849 0)
(0.783894 0.848011 0)
(0.701983 0.759401 0)
(0.635519 0.6875 0)
(0.580516 0.627999 0)
(0.53425 0.577948 0)
(0.494796 0.535266 0)
(0.460753 0.498439 0)
(0.431081 0.46634 0)
(0.40499 0.438115 0)
(0.38187 0.413104 0)
(0.36124 0.390787 0)
(0.34272 0.370753 0)
(0.326003 0.352668 0)
(0.310836 0.33626 0)
(0.29703 0.321325 0)
(0.284329 0.307585 0)
(0.272856 0.295174 0)
(1.09743 1.39208 0)
(0.932239 1.18254 0)
(0.809232 1.0265 0)
(0.714943 0.9069 0)
(0.640237 0.812137 0)
(0.579619 0.735243 0)
(0.529455 0.67161 0)
(0.487258 0.618084 0)
(0.451274 0.572438 0)
(0.420225 0.533053 0)
(0.393163 0.498725 0)
(0.369367 0.46854 0)
(0.348281 0.441791 0)
(0.329466 0.417925 0)
(0.312575 0.396499 0)
(0.297328 0.377159 0)
(0.283495 0.359612 0)
(0.270903 0.343639 0)
(0.25932 0.328945 0)
(0.248856 0.315672 0)
(0.984828 1.4739 0)
(0.836584 1.25203 0)
(0.726199 1.08683 0)
(0.641585 0.960198 0)
(0.574544 0.859866 0)
(0.520146 0.778453 0)
(0.475129 0.71108 0)
(0.437262 0.654408 0)
(0.40497 0.606079 0)
(0.377107 0.56438 0)
(0.352822 0.528035 0)
(0.331468 0.496076 0)
(0.312544 0.467755 0)
(0.29566 0.442486 0)
(0.280502 0.419801 0)
(0.26682 0.399324 0)
(0.254406 0.380746 0)
(0.243107 0.363835 0)
(0.232712 0.348277 0)
(0.223321 0.334224 0)
(0.866153 1.54662 0)
(0.735772 1.31381 0)
(0.638689 1.14046 0)
(0.564271 1.00758 0)
(0.505309 0.902293 0)
(0.457466 0.816863 0)
(0.417873 0.746166 0)
(0.38457 0.686698 0)
(0.356169 0.635985 0)
(0.331664 0.592228 0)
(0.310305 0.554089 0)
(0.291524 0.520553 0)
(0.274881 0.490835 0)
(0.260032 0.464319 0)
(0.2467 0.440515 0)
(0.234667 0.419028 0)
(0.223749 0.399533 0)
(0.213811 0.381787 0)
(0.204669 0.365462 0)
(0.19641 0.350715 0)
(0.742137 1.60981 0)
(0.630424 1.36749 0)
(0.547241 1.18705 0)
(0.483478 1.04874 0)
(0.432958 0.939158 0)
(0.391965 0.850237 0)
(0.358042 0.776652 0)
(0.329506 0.714754 0)
(0.305172 0.661969 0)
(0.284176 0.616424 0)
(0.265875 0.576727 0)
(0.249783 0.541821 0)
(0.235523 0.510889 0)
(0.2228 0.48329 0)
(0.211378 0.458513 0)
(0.201067 0.436148 0)
(0.191712 0.415856 0)
(0.183197 0.397386 0)
(0.175364 0.380394 0)
(0.168288 0.365044 0)
(0.613546 1.66308 0)
(0.521189 1.41274 0)
(0.452418 1.22633 0)
(0.399704 1.08344 0)
(0.357938 0.970232 0)
(0.324048 0.87837 0)
(0.296003 0.802349 0)
(0.272412 0.738403 0)
(0.252294 0.683872 0)
(0.234936 0.63682 0)
(0.219806 0.59581 0)
(0.206502 0.559749 0)
(0.194713 0.527793 0)
(0.184195 0.499281 0)
(0.174751 0.473684 0)
(0.166227 0.450579 0)
(0.158494 0.429616 0)
(0.151454 0.410534 0)
(0.144978 0.39298 0)
(0.139128 0.377123 0)
(0.481172 1.70609 0)
(0.40874 1.44928 0)
(0.354807 1.25805 0)
(0.313466 1.11146 0)
(0.280711 0.995325 0)
(0.254133 0.901087 0)
(0.232139 0.8231 0)
(0.213638 0.7575 0)
(0.19786 0.701558 0)
(0.184247 0.65329 0)
(0.172382 0.611219 0)
(0.161948 0.574225 0)
(0.152703 0.541443 0)
(0.144454 0.512193 0)
(0.137048 0.485935 0)
(0.130363 0.462232 0)
(0.124298 0.440727 0)
(0.118777 0.421151 0)
(0.113698 0.403143 0)
(0.10911 0.386876 0)
(0.34583 1.73858 0)
(0.293771 1.47688 0)
(0.255008 1.28201 0)
(0.225295 1.13263 0)
(0.201754 1.01428 0)
(0.182651 0.918248 0)
(0.166843 0.838776 0)
(0.153546 0.771927 0)
(0.142207 0.714919 0)
(0.132423 0.665732 0)
(0.123895 0.622859 0)
(0.116396 0.585161 0)
(0.109751 0.551755 0)
(0.103822 0.521948 0)
(0.0984994 0.495189 0)
(0.0936948 0.471035 0)
(0.0893357 0.44912 0)
(0.0853677 0.429172 0)
(0.0817174 0.410821 0)
(0.07842 0.394244 0)
(0.208356 1.76036 0)
(0.176991 1.49538 0)
(0.153637 1.29806 0)
(0.135735 1.14682 0)
(0.121552 1.02698 0)
(0.110043 0.929748 0)
(0.100519 0.84928 0)
(0.0925081 0.781594 0)
(0.0856763 0.723873 0)
(0.0797816 0.674069 0)
(0.0746437 0.63066 0)
(0.070126 0.59249 0)
(0.0661225 0.558665 0)
(0.0625505 0.528485 0)
(0.0593437 0.501391 0)
(0.056449 0.476934 0)
(0.0538227 0.454745 0)
(0.0514321 0.434547 0)
(0.0492329 0.415966 0)
(0.0472462 0.399181 0)
(0.0695959 1.77128 0)
(0.0591185 1.50465 0)
(0.0513177 1.30612 0)
(0.0453383 1.15393 0)
(0.0406009 1.03335 0)
(0.0367567 0.935516 0)
(0.0335756 0.854549 0)
(0.0308996 0.786443 0)
(0.0286177 0.728364 0)
(0.0266488 0.678251 0)
(0.0249326 0.634572 0)
(0.0234236 0.596165 0)
(0.0220863 0.562131 0)
(0.0208932 0.531763 0)
(0.0198221 0.504501 0)
(0.0188552 0.479893 0)
(0.0179779 0.457566 0)
(0.0171794 0.437243 0)
(0.0164448 0.418547 0)
(0.0157812 0.401658 0)
(-0.0695959 1.77128 0)
(-0.0591184 1.50465 0)
(-0.0513175 1.30612 0)
(-0.045338 1.15393 0)
(-0.0406005 1.03335 0)
(-0.0367564 0.935516 0)
(-0.0335752 0.854549 0)
(-0.0308993 0.786443 0)
(-0.0286173 0.728364 0)
(-0.0266483 0.678251 0)
(-0.0249322 0.634572 0)
(-0.0234233 0.596165 0)
(-0.022086 0.562131 0)
(-0.0208929 0.531763 0)
(-0.0198218 0.504501 0)
(-0.0188549 0.479893 0)
(-0.0179777 0.457566 0)
(-0.0171793 0.437243 0)
(-0.0164447 0.418547 0)
(-0.0157812 0.401658 0)
(-0.208356 1.76036 0)
(-0.176991 1.49538 0)
(-0.153636 1.29806 0)
(-0.135735 1.14682 0)
(-0.121552 1.02698 0)
(-0.110043 0.929748 0)
(-0.100519 0.84928 0)
(-0.0925077 0.781594 0)
(-0.0856758 0.723873 0)
(-0.0797812 0.674069 0)
(-0.0746434 0.63066 0)
(-0.0701256 0.59249 0)
(-0.0661222 0.558665 0)
(-0.0625501 0.528485 0)
(-0.0593434 0.501391 0)
(-0.0564487 0.476934 0)
(-0.0538225 0.454745 0)
(-0.051432 0.434547 0)
(-0.0492328 0.415966 0)
(-0.0472462 0.399181 0)
(-0.34583 1.73858 0)
(-0.293771 1.47688 0)
(-0.255008 1.28201 0)
(-0.225295 1.13263 0)
(-0.201753 1.01428 0)
(-0.182651 0.918248 0)
(-0.166843 0.838776 0)
(-0.153546 0.771927 0)
(-0.142206 0.714919 0)
(-0.132422 0.665732 0)
(-0.123894 0.622859 0)
(-0.116396 0.585161 0)
(-0.109751 0.551755 0)
(-0.103822 0.521948 0)
(-0.0984991 0.495189 0)
(-0.0936945 0.471035 0)
(-0.0893355 0.44912 0)
(-0.0853676 0.429172 0)
(-0.0817173 0.410821 0)
(-0.07842 0.394244 0)
(-0.481172 1.70609 0)
(-0.40874 1.44928 0)
(-0.354807 1.25805 0)
(-0.313466 1.11146 0)
(-0.280711 0.995325 0)
(-0.254133 0.901087 0)
(-0.232138 0.8231 0)
(-0.213637 0.7575 0)
(-0.19786 0.701558 0)
(-0.184247 0.65329 0)
(-0.172381 0.611219 0)
(-0.161948 0.574225 0)
(-0.152703 0.541443 0)
(-0.144453 0.512193 0)
(-0.137048 0.485935 0)
(-0.130363 0.462232 0)
(-0.124298 0.440727 0)
(-0.118777 0.421151 0)
(-0.113698 0.403143 0)
(-0.10911 0.386876 0)
(-0.613546 1.66308 0)
(-0.521189 1.41274 0)
(-0.452418 1.22633 0)
(-0.399704 1.08344 0)
(-0.357938 0.970232 0)
(-0.324048 0.87837 0)
(-0.296002 0.802349 0)
(-0.272411 0.738403 0)
(-0.252293 0.683872 0)
(-0.234935 0.63682 0)
(-0.219806 0.59581 0)
(-0.206502 0.559749 0)
(-0.194713 0.527793 0)
(-0.184194 0.499281 0)
(-0.174751 0.473684 0)
(-0.166227 0.450579 0)
(-0.158494 0.429616 0)
(-0.151454 0.410534 0)
(-0.144978 0.39298 0)
(-0.139128 0.377122 0)
(-0.742137 1.60981 0)
(-0.630424 1.36749 0)
(-0.54724 1.18705 0)
(-0.483478 1.04874 0)
(-0.432958 0.939158 0)
(-0.391965 0.850238 0)
(-0.358041 0.776652 0)
(-0.329506 0.714754 0)
(-0.305172 0.661969 0)
(-0.284175 0.616424 0)
(-0.265875 0.576727 0)
(-0.249783 0.541821 0)
(-0.235523 0.510889 0)
(-0.222799 0.48329 0)
(-0.211377 0.458513 0)
(-0.201067 0.436148 0)
(-0.191712 0.415856 0)
(-0.183197 0.397385 0)
(-0.175364 0.380393 0)
(-0.168288 0.365044 0)
(-0.866153 1.54662 0)
(-0.735773 1.31381 0)
(-0.638688 1.14046 0)
(-0.564271 1.00758 0)
(-0.505309 0.902293 0)
(-0.457466 0.816863 0)
(-0.417873 0.746166 0)
(-0.384569 0.686698 0)
(-0.356168 0.635985 0)
(-0.331663 0.592228 0)
(-0.310305 0.554089 0)
(-0.291524 0.520553 0)
(-0.274881 0.490835 0)
(-0.260031 0.464319 0)
(-0.2467 0.440515 0)
(-0.234667 0.419028 0)
(-0.223749 0.399533 0)
(-0.213811 0.381787 0)
(-0.204668 0.365462 0)
(-0.19641 0.350715 0)
(-0.984828 1.4739 0)
(-0.836585 1.25204 0)
(-0.726199 1.08683 0)
(-0.641585 0.960199 0)
(-0.574544 0.859866 0)
(-0.520146 0.778453 0)
(-0.475128 0.71108 0)
(-0.437261 0.654408 0)
(-0.404969 0.606079 0)
(-0.377106 0.56438 0)
(-0.352821 0.528035 0)
(-0.331467 0.496076 0)
(-0.312544 0.467755 0)
(-0.29566 0.442486 0)
(-0.280502 0.419801 0)
(-0.26682 0.399324 0)
(-0.254406 0.380746 0)
(-0.243106 0.363835 0)
(-0.232711 0.348277 0)
(-0.223321 0.334224 0)
(-1.09743 1.39208 0)
(-0.932239 1.18254 0)
(-0.809232 1.0265 0)
(-0.714943 0.906901 0)
(-0.640237 0.812137 0)
(-0.579619 0.735243 0)
(-0.529454 0.67161 0)
(-0.487258 0.618084 0)
(-0.451273 0.572438 0)
(-0.420225 0.533053 0)
(-0.393163 0.498725 0)
(-0.369367 0.46854 0)
(-0.34828 0.441791 0)
(-0.329465 0.417925 0)
(-0.312574 0.396499 0)
(-0.297328 0.377159 0)
(-0.283495 0.359612 0)
(-0.270903 0.343639 0)
(-0.259319 0.328945 0)
(-0.248856 0.315672 0)
(-1.20327 1.30169 0)
(-1.02215 1.10575 0)
(-0.887276 0.959849 0)
(-0.783894 0.848011 0)
(-0.701983 0.759401 0)
(-0.635519 0.6875 0)
(-0.580516 0.627999 0)
(-0.53425 0.577949 0)
(-0.494795 0.535266 0)
(-0.460752 0.498439 0)
(-0.43108 0.46634 0)
(-0.404989 0.438115 0)
(-0.381869 0.413104 0)
(-0.36124 0.390787 0)
(-0.34272 0.370753 0)
(-0.326003 0.352668 0)
(-0.310836 0.33626 0)
(-0.29703 0.321325 0)
(-0.284329 0.307585 0)
(-0.272856 0.295174 0)
(-1.30169 1.20327 0)
(-1.10575 1.02215 0)
(-0.959849 0.887276 0)
(-0.848011 0.783894 0)
(-0.759401 0.701983 0)
(-0.6875 0.635519 0)
(-0.627999 0.580516 0)
(-0.577948 0.53425 0)
(-0.535266 0.494795 0)
(-0.498439 0.460752 0)
(-0.46634 0.431081 0)
(-0.438115 0.40499 0)
(-0.413104 0.381869 0)
(-0.390787 0.36124 0)
(-0.370752 0.34272 0)
(-0.352668 0.326003 0)
(-0.33626 0.310836 0)
(-0.321325 0.29703 0)
(-0.307585 0.284329 0)
(-0.295174 0.272856 0)
(-1.39208 1.09743 0)
(-1.18254 0.932239 0)
(-1.0265 0.809232 0)
(-0.906901 0.714943 0)
(-0.812137 0.640237 0)
(-0.735243 0.579619 0)
(-0.671609 0.529454 0)
(-0.618083 0.487258 0)
(-0.572437 0.451273 0)
(-0.533052 0.420225 0)
(-0.498725 0.393163 0)
(-0.46854 0.369367 0)
(-0.441791 0.34828 0)
(-0.417925 0.329465 0)
(-0.396499 0.312575 0)
(-0.377158 0.297328 0)
(-0.359611 0.283495 0)
(-0.343639 0.270903 0)
(-0.328945 0.25932 0)
(-0.315672 0.248856 0)
(-1.4739 0.984828 0)
(-1.25204 0.836585 0)
(-1.08683 0.726199 0)
(-0.960199 0.641585 0)
(-0.859866 0.574544 0)
(-0.778453 0.520146 0)
(-0.71108 0.475128 0)
(-0.654408 0.437262 0)
(-0.606079 0.404969 0)
(-0.56438 0.377107 0)
(-0.528034 0.352822 0)
(-0.496076 0.331467 0)
(-0.467755 0.312544 0)
(-0.442486 0.29566 0)
(-0.419801 0.280502 0)
(-0.399324 0.26682 0)
(-0.380746 0.254406 0)
(-0.363834 0.243107 0)
(-0.348277 0.232711 0)
(-0.334224 0.223321 0)
(-1.54662 0.866153 0)
(-1.31381 0.735773 0)
(-1.14046 0.638688 0)
(-1.00758 0.564271 0)
(-0.902293 0.505309 0)
(-0.816863 0.457466 0)
(-0.746166 0.417873 0)
(-0.686698 0.384569 0)
(-0.635984 0.356169 0)
(-0.592227 0.331663 0)
(-0.554089 0.310305 0)
(-0.520553 0.291524 0)
(-0.490835 0.274881 0)
(-0.464319 0.260031 0)
(-0.440515 0.2467 0)
(-0.419027 0.234667 0)
(-0.399532 0.223749 0)
(-0.381787 0.213811 0)
(-0.365462 0.204668 0)
(-0.350715 0.19641 0)
(-1.60981 0.742137 0)
(-1.36749 0.630424 0)
(-1.18705 0.54724 0)
(-1.04874 0.483478 0)
(-0.939158 0.432958 0)
(-0.850237 0.391965 0)
(-0.776651 0.358041 0)
(-0.714754 0.329506 0)
(-0.661969 0.305172 0)
(-0.616424 0.284175 0)
(-0.576727 0.265875 0)
(-0.541821 0.249783 0)
(-0.510889 0.235523 0)
(-0.483289 0.2228 0)
(-0.458513 0.211377 0)
(-0.436147 0.201067 0)
(-0.415856 0.191712 0)
(-0.397385 0.183197 0)
(-0.380393 0.175364 0)
(-0.365044 0.168288 0)
(-1.66308 0.613546 0)
(-1.41274 0.521189 0)
(-1.22633 0.452418 0)
(-1.08344 0.399704 0)
(-0.970232 0.357938 0)
(-0.87837 0.324048 0)
(-0.802349 0.296002 0)
(-0.738403 0.272411 0)
(-0.683871 0.252294 0)
(-0.63682 0.234935 0)
(-0.595809 0.219806 0)
(-0.559748 0.206502 0)
(-0.527793 0.194713 0)
(-0.49928 0.184194 0)
(-0.473684 0.174751 0)
(-0.450578 0.166227 0)
(-0.429616 0.158494 0)
(-0.410534 0.151454 0)
(-0.39298 0.144978 0)
(-0.377122 0.139128 0)
(-1.70609 0.481172 0)
(-1.44928 0.40874 0)
(-1.25805 0.354807 0)
(-1.11146 0.313466 0)
(-0.995325 0.280711 0)
(-0.901087 0.254133 0)
(-0.8231 0.232138 0)
(-0.7575 0.213637 0)
(-0.701558 0.19786 0)
(-0.653289 0.184247 0)
(-0.611218 0.172382 0)
(-0.574225 0.161948 0)
(-0.541443 0.152703 0)
(-0.512193 0.144453 0)
(-0.485934 0.137048 0)
(-0.462232 0.130363 0)
(-0.440727 0.124298 0)
(-0.421151 0.118777 0)
(-0.403143 0.113698 0)
(-0.386876 0.10911 0)
(-1.73858 0.34583 0)
(-1.47688 0.293771 0)
(-1.28201 0.255008 0)
(-1.13263 0.225295 0)
(-1.01428 0.201753 0)
(-0.918248 0.182651 0)
(-0.838776 0.166843 0)
(-0.771927 0.153546 0)
(-0.714919 0.142206 0)
(-0.665731 0.132422 0)
(-0.622859 0.123894 0)
(-0.585161 0.116396 0)
(-0.551755 0.109751 0)
(-0.521948 0.103822 0)
(-0.495189 0.0984993 0)
(-0.471035 0.0936947 0)
(-0.44912 0.0893356 0)
(-0.429172 0.0853676 0)
(-0.410821 0.0817174 0)
(-0.394244 0.07842 0)
(-1.76036 0.208356 0)
(-1.49538 0.176991 0)
(-1.29806 0.153636 0)
(-1.14682 0.135735 0)
(-1.02698 0.121552 0)
(-0.929748 0.110043 0)
(-0.84928 0.100519 0)
(-0.781594 0.0925078 0)
(-0.723873 0.085676 0)
(-0.674069 0.0797813 0)
(-0.63066 0.0746435 0)
(-0.59249 0.0701258 0)
(-0.558665 0.0661223 0)
(-0.528485 0.0625503 0)
(-0.501391 0.0593435 0)
(-0.476934 0.0564489 0)
(-0.454745 0.0538226 0)
(-0.434547 0.051432 0)
(-0.415966 0.0492328 0)
(-0.399181 0.0472462 0)
(-1.77128 0.0695959 0)
(-1.50465 0.0591184 0)
(-1.30612 0.0513175 0)
(-1.15393 0.0453381 0)
(-1.03335 0.0406006 0)
(-0.935516 0.0367565 0)
(-0.854549 0.0335753 0)
(-0.786443 0.0308994 0)
(-0.728363 0.0286174 0)
(-0.67825 0.0266485 0)
(-0.634572 0.0249324 0)
(-0.596165 0.0234234 0)
(-0.562131 0.0220861 0)
(-0.531763 0.020893 0)
(-0.504501 0.0198219 0)
(-0.479893 0.018855 0)
(-0.457566 0.0179778 0)
(-0.437243 0.0171793 0)
(-0.418547 0.0164447 0)
(-0.401658 0.0157812 0)
(-1.77128 -0.069596 0)
(-1.50465 -0.0591186 0)
(-1.30612 -0.0513177 0)
(-1.15393 -0.0453383 0)
(-1.03335 -0.0406008 0)
(-0.935516 -0.0367566 0)
(-0.854549 -0.0335755 0)
(-0.786443 -0.0308996 0)
(-0.728363 -0.0286176 0)
(-0.67825 -0.0266486 0)
(-0.634572 -0.0249325 0)
(-0.596165 -0.0234235 0)
(-0.562131 -0.0220862 0)
(-0.531763 -0.0208931 0)
(-0.504501 -0.019822 0)
(-0.479893 -0.0188551 0)
(-0.457566 -0.0179779 0)
(-0.437243 -0.0171794 0)
(-0.418547 -0.0164448 0)
(-0.401658 -0.0157812 0)
(-1.76036 -0.208356 0)
(-1.49538 -0.176991 0)
(-1.29806 -0.153637 0)
(-1.14682 -0.135735 0)
(-1.02698 -0.121552 0)
(-0.929748 -0.110043 0)
(-0.84928 -0.100519 0)
(-0.781594 -0.092508 0)
(-0.723873 -0.0856762 0)
(-0.674069 -0.0797815 0)
(-0.63066 -0.0746436 0)
(-0.59249 -0.0701259 0)
(-0.558665 -0.0661225 0)
(-0.528485 -0.0625504 0)
(-0.501391 -0.0593436 0)
(-0.476934 -0.0564489 0)
(-0.454745 -0.0538227 0)
(-0.434547 -0.0514321 0)
(-0.415966 -0.0492329 0)
(-0.399181 -0.0472462 0)
(-1.73858 -0.345831 0)
(-1.47688 -0.293771 0)
(-1.28201 -0.255008 0)
(-1.13263 -0.225295 0)
(-1.01428 -0.201753 0)
(-0.918248 -0.182651 0)
(-0.838776 -0.166843 0)
(-0.771927 -0.153546 0)
(-0.714919 -0.142207 0)
(-0.665731 -0.132422 0)
(-0.622859 -0.123895 0)
(-0.585161 -0.116396 0)
(-0.551755 -0.109751 0)
(-0.521948 -0.103822 0)
(-0.495189 -0.0984993 0)
(-0.471035 -0.0936948 0)
(-0.44912 -0.0893357 0)
(-0.429172 -0.0853677 0)
(-0.410821 -0.0817174 0)
(-0.394244 -0.07842 0)
(-1.70609 -0.481172 0)
(-1.44928 -0.40874 0)
(-1.25805 -0.354807 0)
(-1.11146 -0.313466 0)
(-0.995325 -0.280711 0)
(-0.901087 -0.254133 0)
(-0.8231 -0.232138 0)
(-0.7575 -0.213637 0)
(-0.701558 -0.19786 0)
(-0.653289 -0.184247 0)
(-0.611219 -0.172382 0)
(-0.574225 -0.161948 0)
(-0.541443 -0.152703 0)
(-0.512193 -0.144454 0)
(-0.485934 -0.137048 0)
(-0.462232 -0.130363 0)
(-0.440727 -0.124298 0)
(-0.421151 -0.118777 0)
(-0.403143 -0.113698 0)
(-0.386876 -0.10911 0)
(-1.66308 -0.613546 0)
(-1.41274 -0.521189 0)
(-1.22633 -0.452419 0)
(-1.08344 -0.399704 0)
(-0.970233 -0.357938 0)
(-0.87837 -0.324048 0)
(-0.802349 -0.296003 0)
(-0.738403 -0.272412 0)
(-0.683872 -0.252294 0)
(-0.63682 -0.234935 0)
(-0.595809 -0.219806 0)
(-0.559749 -0.206502 0)
(-0.527793 -0.194713 0)
(-0.49928 -0.184194 0)
(-0.473684 -0.174751 0)
(-0.450579 -0.166227 0)
(-0.429616 -0.158494 0)
(-0.410534 -0.151454 0)
(-0.39298 -0.144978 0)
(-0.377123 -0.139128 0)
(-1.60981 -0.742137 0)
(-1.36749 -0.630424 0)
(-1.18705 -0.547241 0)
(-1.04874 -0.483478 0)
(-0.939158 -0.432958 0)
(-0.850238 -0.391965 0)
(-0.776652 -0.358042 0)
(-0.714754 -0.329506 0)
(-0.661969 -0.305172 0)
(-0.616424 -0.284176 0)
(-0.576727 -0.265875 0)
(-0.541821 -0.249783 0)
(-0.510889 -0.235523 0)
(-0.48329 -0.2228 0)
(-0.458513 -0.211377 0)
(-0.436148 -0.201067 0)
(-0.415856 -0.191712 0)
(-0.397385 -0.183197 0)
(-0.380394 -0.175364 0)
(-0.365044 -0.168288 0)
(-1.54662 -0.866153 0)
(-1.31381 -0.735773 0)
(-1.14046 -0.638689 0)
(-1.00758 -0.564271 0)
(-0.902294 -0.505309 0)
(-0.816863 -0.457466 0)
(-0.746166 -0.417873 0)
(-0.686698 -0.38457 0)
(-0.635985 -0.356169 0)
(-0.592228 -0.331664 0)
(-0.554089 -0.310305 0)
(-0.520553 -0.291524 0)
(-0.490835 -0.274881 0)
(-0.464319 -0.260031 0)
(-0.440515 -0.2467 0)
(-0.419028 -0.234667 0)
(-0.399533 -0.223749 0)
(-0.381787 -0.213811 0)
(-0.365462 -0.204669 0)
(-0.350715 -0.19641 0)
(-1.4739 -0.984829 0)
(-1.25204 -0.836585 0)
(-1.08683 -0.726199 0)
(-0.960199 -0.641585 0)
(-0.859866 -0.574545 0)
(-0.778453 -0.520146 0)
(-0.71108 -0.475129 0)
(-0.654408 -0.437262 0)
(-0.606079 -0.40497 0)
(-0.56438 -0.377107 0)
(-0.528035 -0.352822 0)
(-0.496076 -0.331467 0)
(-0.467755 -0.312544 0)
(-0.442486 -0.29566 0)
(-0.419801 -0.280502 0)
(-0.399324 -0.26682 0)
(-0.380746 -0.254406 0)
(-0.363835 -0.243107 0)
(-0.348277 -0.232712 0)
(-0.334224 -0.223321 0)
(-1.39208 -1.09743 0)
(-1.18254 -0.932239 0)
(-1.02651 -0.809232 0)
(-0.906901 -0.714943 0)
(-0.812137 -0.640238 0)
(-0.735243 -0.579619 0)
(-0.67161 -0.529455 0)
(-0.618084 -0.487258 0)
(-0.572438 -0.451274 0)
(-0.533053 -0.420225 0)
(-0.498725 -0.393163 0)
(-0.46854 -0.369367 0)
(-0.441791 -0.34828 0)
(-0.417925 -0.329466 0)
(-0.396499 -0.312575 0)
(-0.377159 -0.297328 0)
(-0.359612 -0.283495 0)
(-0.343639 -0.270903 0)
(-0.328945 -0.25932 0)
(-0.315672 -0.248856 0)
(-1.30169 -1.20327 0)
(-1.10575 -1.02215 0)
(-0.959849 -0.887276 0)
(-0.848011 -0.783894 0)
(-0.759401 -0.701984 0)
(-0.6875 -0.635519 0)
(-0.627999 -0.580516 0)
(-0.577948 -0.53425 0)
(-0.535266 -0.494796 0)
(-0.498439 -0.460753 0)
(-0.46634 -0.431081 0)
(-0.438115 -0.40499 0)
(-0.413104 -0.381869 0)
(-0.390787 -0.36124 0)
(-0.370753 -0.34272 0)
(-0.352668 -0.326003 0)
(-0.33626 -0.310836 0)
(-0.321325 -0.29703 0)
(-0.307585 -0.284329 0)
(-0.295174 -0.272856 0)
(-1.20327 -1.30169 0)
(-1.02215 -1.10575 0)
(-0.887276 -0.95985 0)
(-0.783894 -0.848012 0)
(-0.701983 -0.759401 0)
(-0.635519 -0.687501 0)
(-0.580516 -0.627999 0)
(-0.53425 -0.577949 0)
(-0.494795 -0.535267 0)
(-0.460752 -0.498439 0)
(-0.431081 -0.466341 0)
(-0.40499 -0.438116 0)
(-0.381869 -0.413104 0)
(-0.36124 -0.390787 0)
(-0.34272 -0.370753 0)
(-0.326003 -0.352668 0)
(-0.310836 -0.336261 0)
(-0.29703 -0.321325 0)
(-0.284329 -0.307586 0)
(-0.272856 -0.295174 0)
(-1.09743 -1.39208 0)
(-0.932239 -1.18254 0)
(-0.809232 -1.02651 0)
(-0.714943 -0.906901 0)
(-0.640237 -0.812137 0)
(-0.579619 -0.735243 0)
(-0.529454 -0.67161 0)
(-0.487258 -0.618084 0)
(-0.451273 -0.572438 0)
(-0.420225 -0.533053 0)
(-0.393163 -0.498725 0)
(-0.369367 -0.46854 0)
(-0.34828 -0.441792 0)
(-0.329465 -0.417925 0)
(-0.312575 -0.396499 0)
(-0.297328 -0.377159 0)
(-0.283495 -0.359612 0)
(-0.270903 -0.343639 0)
(-0.25932 -0.328946 0)
(-0.248856 -0.315672 0)
(-0.984829 -1.4739 0)
(-0.836585 -1.25204 0)
(-0.726199 -1.08683 0)
(-0.641585 -0.960199 0)
(-0.574544 -0.859866 0)
(-0.520146 -0.778453 0)
(-0.475128 -0.71108 0)
(-0.437262 -0.654409 0)
(-0.404969 -0.60608 0)
(-0.377107 -0.56438 0)
(-0.352822 -0.528035 0)
(-0.331467 -0.496076 0)
(-0.312544 -0.467756 0)
(-0.29566 -0.442486 0)
(-0.280502 -0.419801 0)
(-0.26682 -0.399325 0)
(-0.254406 -0.380746 0)
(-0.243107 -0.363835 0)
(-0.232712 -0.348278 0)
(-0.223321 -0.334224 0)
(-0.866153 -1.54662 0)
(-0.735773 -1.31381 0)
(-0.638689 -1.14046 0)
(-0.564271 -1.00758 0)
(-0.505309 -0.902294 0)
(-0.457466 -0.816864 0)
(-0.417873 -0.746166 0)
(-0.384569 -0.686698 0)
(-0.356169 -0.635985 0)
(-0.331663 -0.592228 0)
(-0.310305 -0.554089 0)
(-0.291524 -0.520554 0)
(-0.274881 -0.490836 0)
(-0.260031 -0.46432 0)
(-0.2467 -0.440515 0)
(-0.234667 -0.419028 0)
(-0.223749 -0.399533 0)
(-0.213811 -0.381787 0)
(-0.204669 -0.365462 0)
(-0.19641 -0.350715 0)
(-0.742137 -1.60981 0)
(-0.630424 -1.36749 0)
(-0.547241 -1.18705 0)
(-0.483478 -1.04874 0)
(-0.432958 -0.939159 0)
(-0.391965 -0.850238 0)
(-0.358041 -0.776652 0)
(-0.329506 -0.714755 0)
(-0.305172 -0.661969 0)
(-0.284175 -0.616424 0)
(-0.265875 -0.576728 0)
(-0.249783 -0.541822 0)
(-0.235523 -0.51089 0)
(-0.2228 -0.48329 0)
(-0.211377 -0.458513 0)
(-0.201067 -0.436148 0)
(-0.191712 -0.415857 0)
(-0.183197 -0.397386 0)
(-0.175364 -0.380394 0)
(-0.168288 -0.365044 0)
(-0.613546 -1.66308 0)
(-0.521189 -1.41274 0)
(-0.452419 -1.22633 0)
(-0.399704 -1.08344 0)
(-0.357938 -0.970233 0)
(-0.324048 -0.87837 0)
(-0.296002 -0.80235 0)
(-0.272411 -0.738404 0)
(-0.252294 -0.683872 0)
(-0.234935 -0.63682 0)
(-0.219806 -0.59581 0)
(-0.206502 -0.559749 0)
(-0.194713 -0.527794 0)
(-0.184194 -0.499281 0)
(-0.174751 -0.473684 0)
(-0.166227 -0.450579 0)
(-0.158494 -0.429616 0)
(-0.151454 -0.410534 0)
(-0.144978 -0.39298 0)
(-0.139128 -0.377123 0)
(-0.481172 -1.70609 0)
(-0.40874 -1.44928 0)
(-0.354807 -1.25805 0)
(-0.313466 -1.11146 0)
(-0.280711 -0.995326 0)
(-0.254133 -0.901087 0)
(-0.232138 -0.8231 0)
(-0.213637 -0.757501 0)
(-0.19786 -0.701559 0)
(-0.184247 -0.65329 0)
(-0.172382 -0.611219 0)
(-0.161948 -0.574226 0)
(-0.152703 -0.541444 0)
(-0.144453 -0.512194 0)
(-0.137048 -0.485935 0)
(-0.130363 -0.462232 0)
(-0.124298 -0.440727 0)
(-0.118777 -0.421152 0)
(-0.113698 -0.403144 0)
(-0.10911 -0.386876 0)
(-0.345831 -1.73858 0)
(-0.293771 -1.47688 0)
(-0.255008 -1.28201 0)
(-0.225295 -1.13263 0)
(-0.201753 -1.01428 0)
(-0.182651 -0.918249 0)
(-0.166843 -0.838776 0)
(-0.153546 -0.771928 0)
(-0.142206 -0.71492 0)
(-0.132422 -0.665732 0)
(-0.123894 -0.62286 0)
(-0.116396 -0.585162 0)
(-0.109751 -0.551756 0)
(-0.103822 -0.521949 0)
(-0.0984993 -0.49519 0)
(-0.0936947 -0.471036 0)
(-0.0893357 -0.449121 0)
(-0.0853677 -0.429173 0)
(-0.0817175 -0.410822 0)
(-0.0784201 -0.394244 0)
(-0.208356 -1.76036 0)
(-0.176991 -1.49538 0)
(-0.153636 -1.29806 0)
(-0.135735 -1.14682 0)
(-0.121552 -1.02698 0)
(-0.110043 -0.929749 0)
(-0.100519 -0.849281 0)
(-0.0925078 -0.781595 0)
(-0.085676 -0.723874 0)
(-0.0797813 -0.67407 0)
(-0.0746435 -0.63066 0)
(-0.0701257 -0.59249 0)
(-0.0661223 -0.558666 0)
(-0.0625503 -0.528485 0)
(-0.0593435 -0.501391 0)
(-0.0564489 -0.476935 0)
(-0.0538226 -0.454746 0)
(-0.0514321 -0.434548 0)
(-0.0492329 -0.415967 0)
(-0.0472463 -0.399182 0)
(-0.0695959 -1.77128 0)
(-0.0591185 -1.50465 0)
(-0.0513176 -1.30612 0)
(-0.0453381 -1.15393 0)
(-0.0406006 -1.03336 0)
(-0.0367564 -0.935516 0)
(-0.0335752 -0.85455 0)
(-0.0308993 -0.786444 0)
(-0.0286174 -0.728364 0)
(-0.0266484 -0.678251 0)
(-0.0249323 -0.634573 0)
(-0.0234233 -0.596166 0)
(-0.0220861 -0.562131 0)
(-0.020893 -0.531764 0)
(-0.0198219 -0.504502 0)
(-0.018855 -0.479893 0)
(-0.0179778 -0.457567 0)
(-0.0171793 -0.437243 0)
(-0.0164447 -0.418547 0)
(-0.0157812 -0.401658 0)
(1.77128 -0.069596 0)
(1.76036 -0.208356 0)
(1.73858 -0.34583 0)
(1.70609 -0.481172 0)
(1.66308 -0.613546 0)
(1.60981 -0.742137 0)
(1.54662 -0.866153 0)
(1.4739 -0.984828 0)
(1.39208 -1.09743 0)
(1.30169 -1.20327 0)
(1.20327 -1.30169 0)
(1.09743 -1.39208 0)
(0.984829 -1.4739 0)
(0.866153 -1.54662 0)
(0.742137 -1.60981 0)
(0.613546 -1.66308 0)
(0.481172 -1.70609 0)
(0.345831 -1.73858 0)
(0.208356 -1.76036 0)
(0.069596 -1.77128 0)
(1.50465 -0.0591186 0)
(1.49538 -0.176991 0)
(1.47688 -0.293771 0)
(1.44928 -0.40874 0)
(1.41274 -0.521189 0)
(1.36749 -0.630424 0)
(1.31381 -0.735773 0)
(1.25204 -0.836585 0)
(1.18254 -0.932239 0)
(1.10575 -1.02215 0)
(1.02215 -1.10575 0)
(0.932239 -1.18254 0)
(0.836585 -1.25204 0)
(0.735773 -1.31381 0)
(0.630424 -1.36749 0)
(0.521189 -1.41274 0)
(0.40874 -1.44928 0)
(0.293771 -1.47688 0)
(0.176991 -1.49538 0)
(0.0591186 -1.50465 0)
(1.30612 -0.0513177 0)
(1.29806 -0.153636 0)
(1.28201 -0.255008 0)
(1.25805 -0.354807 0)
(1.22633 -0.452418 0)
(1.18705 -0.547241 0)
(1.14046 -0.638689 0)
(1.08683 -0.726199 0)
(1.02651 -0.809232 0)
(0.959849 -0.887276 0)
(0.887276 -0.959849 0)
(0.809232 -1.02651 0)
(0.726199 -1.08683 0)
(0.638689 -1.14046 0)
(0.547241 -1.18705 0)
(0.452419 -1.22633 0)
(0.354807 -1.25805 0)
(0.255008 -1.28201 0)
(0.153637 -1.29806 0)
(0.0513177 -1.30612 0)
(1.15393 -0.0453383 0)
(1.14682 -0.135735 0)
(1.13263 -0.225295 0)
(1.11146 -0.313466 0)
(1.08344 -0.399704 0)
(1.04874 -0.483478 0)
(1.00758 -0.564271 0)
(0.960199 -0.641585 0)
(0.906901 -0.714943 0)
(0.848011 -0.783894 0)
(0.783894 -0.848011 0)
(0.714943 -0.906901 0)
(0.641585 -0.960199 0)
(0.564271 -1.00758 0)
(0.483478 -1.04874 0)
(0.399704 -1.08344 0)
(0.313466 -1.11146 0)
(0.225295 -1.13263 0)
(0.135735 -1.14682 0)
(0.0453383 -1.15393 0)
(1.03335 -0.0406008 0)
(1.02698 -0.121552 0)
(1.01428 -0.201753 0)