/*--------------------------------*- C++ -*----------------------------------*\
| =========                 |                                                 |
| \\      /  F ield         | foam-extend: Open Source CFD                    |
|  \\    /   O peration     | Version:  3.0                                   |
|   \\  /    A nd           | Web:         http://www.extend-project.de       |
|    \\/     M anipulation  |                                                 |
\*---------------------------------------------------------------------------*/
FoamFile
{
    version     2.0;
    format      ascii;
    class       volScalarField;
    location    "25";
    object      p;
}
// * * * * * * * * * * * * * * * * * * * * * * * * * * * * * * * * * * * * * //

dimensions      [0 0 0 0 0 0 0];

internalField   nonuniform List<scalar> 
576
(
-7.18298
-7.25588
-5.60552
-5.75188
-4.78466
-5.00752
-4.42775
-4.6481
-4.37406
-4.53003
-4.54023
-4.58899
-7.05944
-7.13111
-5.50935
-5.6532
-4.70251
-4.92164
-4.35177
-4.56853
-4.2991
-4.4526
-4.46248
-4.51043
-6.8164
-6.88548
-5.31946
-5.45838
-4.54044
-4.75202
-4.20176
-4.41095
-4.15087
-4.29895
-4.30857
-4.35482
-6.4554
-6.52098
-5.03791
-5.16953
-4.30016
-4.50063
-3.97948
-4.17768
-3.93132
-4.07163
-4.0807
-4.12453
-5.98522
-6.04588
-4.67079
-4.79288
-3.98677
-4.17268
-3.68945
-3.8732
-3.64477
-3.77484
-3.78324
-3.82387
-5.41143
-5.4664
-4.22309
-4.3336
-3.6047
-3.77291
-3.33594
-3.50217
-3.29559
-3.41326
-3.42083
-3.4576
-4.74618
-4.79432
-3.70379
-3.80077
-3.16141
-3.30897
-2.9257
-3.07148
-2.89031
-2.99349
-3.00012
-3.03235
-3.99861
-4.03931
-3.12045
-3.20233
-2.66357
-2.78802
-2.46505
-2.58796
-2.4353
-2.52227
-2.52786
-2.55503
-3.18376
-3.2161
-2.48445
-2.54967
-2.12067
-2.21974
-1.9626
-2.06041
-1.93888
-2.0081
-2.01255
-2.03418
-2.31329
-2.33695
-1.80521
-1.85283
-1.54099
-1.61312
-1.42622
-1.49734
-1.40904
-1.45937
-1.46262
-1.47834
-1.40435
-1.41868
-1.09582
-1.12481
-0.935442
-0.979241
-0.865773
-0.908911
-0.855328
-0.885865
-0.887836
-0.89738
-0.470314
-0.475295
-0.366975
-0.377032
-0.313415
-0.328279
-0.290198
-0.304692
-0.286759
-0.297021
-0.297699
-0.300911
0.470788
0.475477
0.367495
0.376737
0.313537
0.327997
0.290055
0.304523
0.286519
0.296741
0.297385
0.300574
1.40474
1.41879
1.09628
1.12448
0.935518
0.978938
0.865599
0.908719
0.855066
0.885567
0.887506
0.897028
2.31386
2.33725
1.80578
1.85263
1.54116
1.61289
1.42612
1.4972
1.40884
1.45912
1.46234
1.47804
3.18407
3.21622
2.48483
2.54938
2.12071
2.21945
1.96242
2.06021
1.93863
2.00781
2.01223
2.03384
3.99924
4.03975
3.121
3.20226
2.66375
2.78787
2.465
2.58785
2.43515
2.52207
2.52764
2.55478
4.74643
4.79448
3.70406
3.80056
3.16139
3.30872
2.92551
3.0713
2.89008
2.99323
2.99984
3.03206
5.41207
5.46693
4.22353
4.33367
3.60481
3.77285
3.33589
3.50214
3.29551
3.41314
3.42068
3.45742
5.98535
6.04602
4.67088
4.79274
3.98665
4.17251
3.68925
3.8731
3.64459
3.77468
3.78302
3.82365
6.45606
6.52154
5.03821
5.16973
4.3002
4.50072
3.97945
4.17776
3.93129
4.07161
4.08061
4.12445
6.81641
6.88555
5.31941
5.45832
4.54023
4.75196
4.20158
4.41096
4.15074
4.29889
4.3084
4.35468
7.06006
7.1317
5.50955
5.65348
4.70254
4.92187
4.35181
4.56868
4.29916
4.45261
4.46246
4.5104
7.18295
7.25586
5.60544
5.75194
4.78441
5.00758
4.42759
4.64823
4.37402
4.53015
4.54017
4.58895
7.18292
7.25585
5.60541
5.75196
4.78441
5.00761
4.42761
4.64824
4.37405
4.53017
4.5402
4.58898
7.05999
7.13169
5.50948
5.65357
4.70255
4.92195
4.35187
4.56873
4.29924
4.45268
4.46255
4.51049
6.81628
6.88552
5.31928
5.45845
4.54024
4.75208
4.20168
4.41105
4.15087
4.29902
4.30855
4.35483
6.45592
6.52152
5.03806
5.16993
4.30023
4.5009
3.97959
4.17788
3.93147
4.07178
4.08082
4.12466
5.98513
6.04597
4.67066
4.79297
3.98666
4.17272
3.68942
3.87325
3.64481
3.77489
3.78327
3.82392
5.41188
5.46692
4.2233
4.33396
3.60485
3.77312
3.33611
3.50232
3.29578
3.4134
3.42099
3.45774
4.74612
4.7944
3.70375
3.80085
3.16141
3.309
2.92574
3.0715
2.89038
2.99353
3.00019
3.03242
3.99905
4.03977
3.12075
3.20265
2.66382
2.78821
2.46528
2.58809
2.4355
2.5224
2.52803
2.55519
3.18366
3.2161
2.48444
2.54973
2.12072
2.21978
1.96269
2.06044
1.93898
2.00816
2.01265
2.03427
2.3137
2.33732
1.80554
1.85309
1.54127
1.6133
1.42646
1.49748
1.40924
1.45951
1.46279
1.4785
1.40424
1.41864
1.09582
1.12484
0.935517
0.97929
0.865889
0.908968
0.855453
0.885944
0.887955
0.897487
0.470715
0.475612
0.367317
0.377257
0.313706
0.328442
0.290441
0.304825
0.286961
0.297154
0.297869
0.301062
-0.470895
-0.475515
-0.36747
-0.3767
-0.313436
-0.327928
-0.289916
-0.304443
-0.286372
-0.296643
-0.297248
-0.300451
-1.40432
-1.41849
-1.09591
-1.12428
-0.935209
-0.978782
-0.865345
-0.908593
-0.854861
-0.885444
-0.887343
-0.896887
-2.31393
-2.33727
-1.8057
-1.85258
-1.54102
-1.61279
-1.42595
-1.49709
-1.40867
-1.459
-1.46219
-1.4779
-3.18364
-3.2159
-2.48443
-2.54917
-2.12037
-2.21928
-1.96214
-2.06007
-1.9384
-2.00768
-2.01206
-2.03369
-3.99927
-4.03975
-3.12085
-3.20222
-2.66357
-2.78774
-2.46481
-2.5877
-2.43496
-2.52191
-2.52746
-2.55462
-4.74599
-4.79415
-3.70363
-3.80035
-3.16106
-3.30851
-2.92523
-3.07113
-2.88984
-2.99307
-2.99963
-3.03187
-5.41205
-5.46694
-4.22331
-4.33367
-3.60464
-3.77272
-3.33574
-3.50198
-3.29535
-3.41297
-3.4205
-3.45725
-5.98489
-6.04569
-4.67044
-4.79253
-3.98638
-4.17228
-3.68905
-3.87294
-3.64441
-3.77455
-3.78285
-3.8235
-6.45602
-6.52153
-5.03801
-5.16975
-4.30014
-4.50061
-3.9794
-4.17765
-3.93122
-4.07152
-4.08054
-4.12438
-6.81589
-6.88517
-5.31903
-5.45805
-4.54005
-4.75168
-4.20145
-4.41085
-4.1506
-4.29884
-4.30827
-4.3546
-7.06003
-7.13162
-5.50946
-5.65345
-4.70258
-4.92172
-4.35179
-4.56855
-4.29905
-4.45251
-4.46234
-4.5103
-7.18231
-7.25529
-5.60517
-5.75157
-4.78424
-5.00722
-4.42738
-4.6481
-4.37381
-4.53011
-4.54
-4.58881
)
;

boundaryField
{
    out
    {
        type            implicitExtrapolation;
    }
    in
    {
        type            implicitExtrapolation;
    }
    frontAndBack
    {
        type            empty;
    }
}


// ************************************************************************* //
