/*--------------------------------*- C++ -*----------------------------------*\
| =========                 |                                                 |
| \\      /  F ield         | foam-extend: Open Source CFD                    |
|  \\    /   O peration     | Version:  3.0                                   |
|   \\  /    A nd           | Web:         http://www.extend-project.de       |
|    \\/     M anipulation  |                                                 |
\*---------------------------------------------------------------------------*/
FoamFile
{
    version     2.0;
    format      ascii;
    class       volScalarField;
    location    "4";
    object      p;
}
// * * * * * * * * * * * * * * * * * * * * * * * * * * * * * * * * * * * * * //

dimensions      [0 0 0 0 0 0 0];

internalField   nonuniform List<scalar> 
480
(
-0.25204
-0.207652
-0.197655
-0.177839
-0.177535
-0.16839
-0.170959
-0.166213
-0.167178
-0.161905
-0.248072
-0.204523
-0.194742
-0.175311
-0.17506
-0.166111
-0.1687
-0.164046
-0.165048
-0.159755
-0.240141
-0.198212
-0.188847
-0.170174
-0.170024
-0.161455
-0.164057
-0.159598
-0.16066
-0.155387
-0.228007
-0.18852
-0.17978
-0.162224
-0.16221
-0.154192
-0.156796
-0.15261
-0.153726
-0.14858
-0.212195
-0.175845
-0.167891
-0.151783
-0.151919
-0.144604
-0.147134
-0.143262
-0.14424
-0.139305
-0.192659
-0.160133
-0.153134
-0.13877
-0.13908
-0.132611
-0.135077
-0.13162
-0.132576
-0.127924
-0.169945
-0.141788
-0.135855
-0.123488
-0.123967
-0.118467
-0.120852
-0.117904
-0.118927
-0.114604
-0.14424
-0.120949
-0.116195
-0.106038
-0.106684
-0.102246
-0.104499
-0.1021
-0.10311
-0.099196
-0.116074
-0.0979993
-0.0944752
-0.0866747
-0.0874485
-0.0841237
-0.0861764
-0.0843414
-0.0852929
-0.081912
-0.0858454
-0.0732618
-0.0710204
-0.0656887
-0.0665627
-0.0643848
-0.0661567
-0.0648817
-0.0656475
-0.0628937
-0.0540667
-0.0471163
-0.0461472
-0.0433325
-0.0442525
-0.0432329
-0.044679
-0.0439909
-0.0446102
-0.0425374
-0.0212862
-0.0200163
-0.020314
-0.0200239
-0.020954
-0.0210816
-0.0221614
-0.0220636
-0.0225463
-0.0211619
0.0119829
0.00763617
0.00613228
0.00394318
0.00306845
0.00182695
0.00117213
0.000690372
0.000387791
0.00107193
0.0451294
0.0353253
0.0326734
0.0280949
0.0273226
0.0250313
0.0248497
0.0238219
0.0237323
0.0236934
0.0776215
0.0626077
0.0589043
0.0520629
0.0514621
0.0481996
0.048552
0.0470094
0.0471279
0.0462953
0.108867
0.0889738
0.0843163
0.0753821
0.0750016
0.0708781
0.0718229
0.069849
0.0702894
0.0685917
0.13832
0.113942
0.108442
0.0975954
0.0974856
0.0925999
0.0942084
0.091885
0.0928136
0.0902211
0.165469
0.137063
0.130837
0.118298
0.118475
0.112937
0.11516
0.112518
0.113804
0.110377
0.189791
0.157858
0.151017
0.136996
0.137461
0.131348
0.134148
0.131202
0.132805
0.128681
0.210884
0.175966
0.168628
0.153373
0.154114
0.147533
0.150813
0.147582
0.149307
0.144582
0.228314
0.19098
0.183254
0.167003
0.167998
0.161054
0.164793
0.161362
0.163324
0.158042
0.241797
0.202636
0.194634
0.177642
0.178863
0.171667
0.175821
0.172281
0.174574
0.168763
0.251046
0.210665
0.202489
0.185009
0.186398
0.179047
0.183495
0.17988
0.18236
0.176108
0.255909
0.214916
0.206664
0.188938
0.19043
0.182999
0.187618
0.183951
0.186532
0.180005
0.256278
0.215292
0.20706
0.189343
0.190853
0.183422
0.188043
0.184348
0.186901
0.180308
0.25215
0.211778
0.203656
0.186185
0.187637
0.180271
0.184758
0.181054
0.18348
0.177015
0.243596
0.204453
0.19654
0.179573
0.180889
0.173679
0.177866
0.174175
0.176298
0.170108
0.230788
0.193462
0.185849
0.169617
0.170743
0.163771
0.16759
0.163975
0.165841
0.160002
0.213937
0.179018
0.171814
0.156578
0.157467
0.150848
0.15421
0.150749
0.152324
0.146877
0.19341
0.161447
0.154746
0.140728
0.141346
0.135166
0.138028
0.134798
0.13621
0.131261
0.1695
0.141038
0.134952
0.122389
0.122707
0.117054
0.119301
0.116302
0.117333
0.113054
0.142773
0.118291
0.112921
0.102023
0.102023
0.0969779
0.0985028
0.0957253
0.0961429
0.0926871
0.113552
0.0935175
0.0889764
0.0799528
0.0796616
0.0753268
0.0761656
0.0736919
0.0736562
0.0710843
0.082565
0.0673532
0.0637419
0.0567812
0.0562324
0.0527265
0.0529045
0.0508245
0.050383
0.0486334
0.0501361
0.0400988
0.037524
0.0327942
0.0320578
0.0294888
0.0291179
0.0275257
0.026872
0.0258756
0.0170838
0.0124503
0.0109917
0.00862198
0.00774509
0.00620057
0.00530457
0.00423831
0.00333274
0.00305549
-0.0162785
-0.0153152
-0.0155769
-0.0154852
-0.0164275
-0.0168786
-0.0182164
-0.0187207
-0.019826
-0.0193719
-0.0491158
-0.0425112
-0.0415372
-0.0389416
-0.0399025
-0.0392198
-0.0409633
-0.0408868
-0.042183
-0.0409755
-0.081139
-0.0688949
-0.0666459
-0.0615282
-0.0624368
-0.0605912
-0.0626559
-0.0619874
-0.0634192
-0.0614633
-0.111556
-0.0938404
-0.0903314
-0.0827498
-0.0835618
-0.0805549
-0.0828851
-0.0816355
-0.0832612
-0.0806514
-0.140123
-0.117153
-0.112397
-0.102423
-0.103075
-0.0989029
-0.101372
-0.0994928
-0.101103
-0.0979853
-0.166127
-0.138294
-0.132371
-0.120179
-0.120643
-0.115365
-0.117853
-0.115318
-0.11666
-0.113162
-0.189404
-0.157138
-0.150127
-0.135888
-0.136152
-0.129842
-0.132357
-0.129234
-0.130465
-0.126613
-0.209327
-0.173225
-0.165271
-0.149277
-0.149363
-0.142179
-0.144718
-0.141122
-0.142282
-0.138022
-0.225852
-0.186534
-0.177776
-0.160291
-0.160226
-0.152304
-0.154918
-0.150958
-0.152253
-0.14758
-0.238432
-0.196652
-0.187285
-0.16867
-0.168484
-0.159994
-0.162623
-0.158353
-0.159621
-0.154635
-0.24718
-0.203693
-0.193893
-0.17449
-0.174213
-0.165314
-0.167917
-0.163376
-0.164479
-0.159314
-0.25162
-0.207279
-0.197277
-0.177479
-0.17716
-0.168043
-0.170621
-0.165921
-0.166935
-0.161703
)
;

boundaryField
{
    out
    {
        type            implicitExtrapolation;
    }
    in
    {
        type            implicitExtrapolation;
    }
    frontAndBack
    {
        type            empty;
    }
}


// ************************************************************************* //
