/*--------------------------------*- C++ -*----------------------------------*\
| =========                 |                                                 |
| \\      /  F ield         | foam-extend: Open Source CFD                    |
|  \\    /   O peration     | Version:  3.0                                   |
|   \\  /    A nd           | Web:         http://www.extend-project.de       |
|    \\/     M anipulation  |                                                 |
\*---------------------------------------------------------------------------*/
FoamFile
{
    version     2.0;
    format      ascii;
    class       volScalarField;
    location    "12";
    object      p;
}
// * * * * * * * * * * * * * * * * * * * * * * * * * * * * * * * * * * * * * //

dimensions      [0 0 0 0 0 0 0];

internalField   nonuniform List<scalar> 
2688
(
-0.2419968509
-0.2225405507
-0.2109082436
-0.1977643674
-0.1903989305
-0.1812457292
-0.1765912871
-0.1701215165
-0.1672633596
-0.1626635095
-0.1610089376
-0.1577268937
-0.1568545118
-0.1544823152
-0.1540624668
-0.152270395
-0.1520179722
-0.1505128415
-0.1501554213
-0.1486508955
-0.1479049305
-0.1460986613
-0.1446485388
-0.1421987616
-0.2412338579
-0.2218395041
-0.2102448075
-0.1971425449
-0.1898001766
-0.1806758134
-0.1760359582
-0.1695865437
-0.1667373509
-0.1621520005
-0.1605026397
-0.1572309703
-0.1563613413
-0.1539966526
-0.1535780843
-0.1517916441
-0.1515398928
-0.1500394677
-0.1496830618
-0.148183315
-0.1474395848
-0.1456389267
-0.1441932957
-0.1417512455
-0.2397129479
-0.220441036
-0.2089193585
-0.1958996719
-0.1886036678
-0.1795367609
-0.1749262135
-0.1685173954
-0.1656862162
-0.1611297121
-0.1594908067
-0.1562397218
-0.1553756405
-0.1530258371
-0.1526099613
-0.1508347665
-0.1505846619
-0.1490937205
-0.1487396837
-0.147249435
-0.1465104635
-0.1447211006
-0.1432846862
-0.1408579782
-0.2374392887
-0.2183500521
-0.20693774
-0.1940414966
-0.1868146302
-0.1778336983
-0.1732668234
-0.1669187822
-0.1641144138
-0.1596011316
-0.1579777417
-0.1547575085
-0.1539015979
-0.1515741106
-0.1511621423
-0.1494038105
-0.1491559992
-0.1476791977
-0.1473283894
-0.1458522667
-0.1451201655
-0.1433478272
-0.1419249667
-0.1395212647
-0.2344166589
-0.2155705259
-0.2043035561
-0.1915714932
-0.1844367029
-0.175570054
-0.1710613835
-0.1647940906
-0.1620254753
-0.1575695813
-0.1559669129
-0.1527876245
-0.1519426746
-0.1496447988
-0.1492381491
-0.1475022139
-0.1472576403
-0.1457996655
-0.1454533998
-0.1439960839
-0.1432733355
-0.1415236024
-0.1401188869
-0.137745759
-0.2306585617
-0.2121145333
-0.2010282052
-0.1885002476
-0.1814797952
-0.1727552739
-0.1683188446
-0.1621520141
-0.1594277408
-0.1550432737
-0.1534662585
-0.1503379372
-0.1495064931
-0.1472454681
-0.1468452925
-0.1451372107
-0.1448964871
-0.1434618905
-0.1431210471
-0.1416870666
-0.1409757428
-0.1392540773
-0.1378717895
-0.1355367049
-0.2261724335
-0.2079891478
-0.1971185165
-0.184834248
-0.1779504094
-0.1693955346
-0.1650454575
-0.1589985043
-0.156327266
-0.1520280047
-0.1504817131
-0.1474141823
-0.1465989677
-0.1443818956
-0.1439895716
-0.1423147261
-0.1420787721
-0.1406721186
-0.1403379909
-0.1389319182
-0.1382344741
-0.1365463148
-0.1351909383
-0.1329012443
-0.2209771491
-0.2032115362
-0.1925905926
-0.1805885072
-0.1738627571
-0.1655043757
-0.1612541913
-0.1553461241
-0.1527362033
-0.1485356812
-0.1470248641
-0.1440277807
-0.1432312413
-0.1410650887
-0.1406817136
-0.139045343
-0.13881473
-0.1374403972
-0.1371138393
-0.1357400463
-0.1350584742
-0.1334090879
-0.1320847542
-0.1298476484
-0.2150839607
-0.1977922129
-0.1874545864
-0.1757726184
-0.1692263013
-0.161090795
-0.1569540245
-0.1512034613
-0.1486631952
-0.1445746333
-0.1431041621
-0.1401869598
-0.1394117202
-0.137303314
-0.1369302196
-0.1353374966
-0.1351131077
-0.1337754741
-0.133457727
-0.132120616
-0.1314572778
-0.129851902
-0.1285629241
-0.1263854555
-0.2085168021
-0.1917530243
-0.181731014
-0.1704057474
-0.1640592796
-0.1561721622
-0.1521616782
-0.1465866817
-0.1441239408
-0.1401601951
-0.1387345812
-0.1359064299
-0.135154812
-0.1331107653
-0.1327489929
-0.1312048855
-0.1309872548
-0.129690461
-0.129382317
-0.1280860275
-0.1274428015
-0.1258864336
-0.1246367222
-0.1225257298
-0.2012906945
-0.1851079388
-0.1754333017
-0.1645005504
-0.1583740791
-0.1507602621
-0.1468888281
-0.1415069831
-0.1391296424
-0.1353032061
-0.1339270551
-0.1311968757
-0.1304713644
-0.1284981397
-0.1281489554
-0.1266583664
-0.1264483346
-0.125196525
-0.1248991527
-0.1236478444
-0.1230269634
-0.1215245584
-0.1203181914
-0.1182803337
-0.1934342219
-0.177883087
-0.168586032
-0.1580800092
-0.1521926319
-0.1448759727
-0.1411556267
-0.1359838194
-0.1336992349
-0.1300221219
-0.128699648
-0.1260760067
-0.1253787729
-0.1234825476
-0.1231469295
-0.1217144983
-0.1215125677
-0.1203096008
-0.1200237276
-0.1188212481
-0.1182244481
-0.1167806674
-0.1156212875
-0.1136629601
-0.1849660871
-0.170095822
-0.1612058282
-0.1511597801
-0.1455301969
-0.1385338246
-0.1349764163
-0.1300309788
-0.1278464661
-0.1243302856
-0.1230657695
-0.1205569586
-0.1198903086
-0.1180770902
-0.1177562094
-0.1163864981
-0.11619345
-0.1150431898
-0.1147699125
-0.1136201392
-0.1130495187
-0.1116689752
-0.1105603899
-0.1086877745
-0.1759190772
-0.1617761383
-0.1533209438
-0.1437662813
-0.1384120265
-0.1317578399
-0.1283744171
-0.1236708433
-0.1215931488
-0.1182489196
-0.1170462254
-0.114660102
-0.1140260327
-0.1123014913
-0.1119962591
-0.1106935269
-0.1105098388
-0.1094158199
-0.1091558088
-0.1080622509
-0.1075193787
-0.1062063314
-0.1051518504
-0.1033708173
-0.1663154264
-0.1529446385
-0.1449510742
-0.1359180598
-0.1308561555
-0.1245652136
-0.1213665678
-0.1169197349
-0.1149555261
-0.1117938275
-0.1106568556
-0.1084009732
-0.1078015756
-0.1061711757
-0.1058826372
-0.1046510323
-0.10447739
-0.1034431379
-0.1031973782
-0.1021635917
-0.1016503987
-0.1004090784
-0.09941221607
-0.09772840167
-0.1561916296
-0.1436347292
-0.1361277133
-0.1276445601
-0.1228907535
-0.116982719
-0.1139787653
-0.1098025786
-0.1079579045
-0.1049886223
-0.1039208383
-0.1018022504
-0.1012393254
-0.09970816664
-0.0994371635
-0.09828052519
-0.09811739725
-0.09714609777
-0.09691523798
-0.09594436879
-0.09546228776
-0.0942964951
-0.09336020447
-0.09177887106
-0.1455732435
-0.1338700667
-0.1268734465
-0.1189670546
-0.1145364803
-0.1090300795
-0.1062304198
-0.1023381154
-0.100618914
-0.09785146279
-0.09685633838
-0.09488176081
-0.09435715868
-0.09293008807
-0.0926775246
-0.09159951974
-0.09144746819
-0.09054223092
-0.09032707576
-0.0894222728
-0.08897295471
-0.08788646661
-0.08701386058
-0.08554003244
-0.1344999677
-0.1236870027
-0.1172225597
-0.1099175889
-0.1058240053
-0.1007364176
-0.09814970678
-0.09455342716
-0.09296497332
-0.09040798355
-0.08948854054
-0.08766413565
-0.08717943237
-0.08586091451
-0.08562754122
-0.08463154605
-0.08449101987
-0.08365466433
-0.08345585488
-0.08261990283
-0.08220469075
-0.08120083553
-0.08039454821
-0.07903281442
-0.1230003853
-0.1131119805
-0.107200282
-0.1005199331
-0.09677640043
-0.09212378423
-0.08975831604
-0.08646948873
-0.08501691639
-0.08267851809
-0.08183775895
-0.08016932298
-0.07972611827
-0.07852033016
-0.07830692454
-0.07739608412
-0.07726754375
-0.07650271083
-0.07632087291
-0.0755564317
-0.0751766425
-0.07425864523
-0.07352126975
-0.07227596597
-0.1111168812
-0.10218382
-0.09684323547
-0.09080830473
-0.08742641793
-0.08322325428
-0.08108631475
-0.07811516938
-0.07680291375
-0.0746903755
-0.07393083786
-0.07242356037
-0.0720231728
-0.07093387494
-0.07074106011
-0.06991822772
-0.06980205499
-0.0691111535
-0.06894686622
-0.06825634077
-0.06791318985
-0.06708390752
-0.06641775919
-0.06529275975
-0.09888071524
-0.09093142621
-0.08617898593
-0.08080868316
-0.0777992647
-0.07405893954
-0.07215740844
-0.06951341688
-0.06834574149
-0.06646580461
-0.06578998653
-0.06444867732
-0.06409244827
-0.06312311208
-0.06295155555
-0.06221934201
-0.06211593883
-0.0615011375
-0.06135491337
-0.06074045464
-0.06043497913
-0.05969701978
-0.05910415417
-0.05810303498
-0.08633643594
-0.07939560673
-0.07524603463
-0.07055703139
-0.0679293669
-0.06466348331
-0.06300318821
-0.06069454282
-0.05967499012
-0.05803347254
-0.05744339497
-0.05627220194
-0.05596116952
-0.05511479103
-0.05496496471
-0.05432563926
-0.05423528088
-0.05369851098
-0.05357079622
-0.05303436624
-0.05276756016
-0.05212327311
-0.05160560871
-0.05073149335
-0.07351755517
-0.06760734144
-0.06407391868
-0.06008119185
-0.05784372948
-0.05506272964
-0.05364904719
-0.05168314047
-0.05081504671
-0.04941721333
-0.04891483684
-0.04791752433
-0.04765275404
-0.04693206339
-0.04680451783
-0.04626014442
-0.0461831829
-0.04572615259
-0.04561738414
-0.04516064625
-0.04493332937
-0.0443846986
-0.04394380298
-0.04319945901
-0.06047026569
-0.05560894741
-0.05270256596
-0.0494184534
-0.04757805307
-0.04529051916
-0.04412774754
-0.04251063609
-0.04179660923
-0.0406467579
-0.04023356415
-0.03941318815
-0.03919542953
-0.03860262005
-0.03849767827
-0.03804990446
-0.03798650953
-0.03761062027
-0.03752109016
-0.03714549247
-0.03695837748
-0.03650717305
-0.03614447594
-0.03553223323
-0.04722986423
-0.04343304468
-0.0411630701
-0.03859812662
-0.03716075516
-0.03537405137
-0.03446599438
-0.03320289419
-0.03264529879
-0.03174714772
-0.03142453131
-0.03078375824
-0.03061377783
-0.03015079682
-0.03006886711
-0.02971918052
-0.02966962733
-0.02937611795
-0.02930616969
-0.02901290278
-0.02886659994
-0.02851420561
-0.02823082358
-0.02775261723
-0.03384366155
-0.03112298193
-0.02949633655
-0.02765841109
-0.02662841688
-0.02534799884
-0.02469737228
-0.02379213118
-0.02339260914
-0.02274888582
-0.02251777339
-0.02205853528
-0.02193679378
-0.0216050151
-0.02154628621
-0.02129570331
-0.02126008062
-0.02104980547
-0.02099959869
-0.02078955659
-0.02068449219
-0.02043203302
-0.02022885689
-0.01988618046
-0.02034822442
-0.01871254493
-0.01773456228
-0.01662965565
-0.01601044903
-0.01524050872
-0.01484949549
-0.01430508541
-0.01406500015
-0.01367782606
-0.01353902725
-0.01326285165
-0.01318979958
-0.01299034924
-0.01295506593
-0.01280446075
-0.01278293782
-0.01265663709
-0.01262638588
-0.01250027646
-0.01243682399
-0.01228509881
-0.01216279067
-0.01195673604
-0.006791471799
-0.006245641432
-0.00591918501
-0.005550557143
-0.005343919423
-0.005086717713
-0.004956416156
-0.00477442848
-0.004694433603
-0.004564933545
-0.004518807983
-0.004426484629
-0.004402292232
-0.004335719869
-0.004323945033
-0.004273708892
-0.004266311286
-0.004224300587
-0.004214057614
-0.004172216823
-0.004150534713
-0.0040999937
-0.004058901273
-0.003990096679
0.006789308012
0.006243279527
0.005916973394
0.005547949728
0.005341206136
0.005084701569
0.004953754782
0.004772629148
0.004692185299
0.004563513896
0.004516748938
0.004424854998
0.004400058455
0.004333472575
0.004321663698
0.004271298277
0.00426451798
0.004222028126
0.004212199772
0.004169572282
0.004149376132
0.004098529017
0.004058227441
0.003989541051
0.02034610345
0.01871022315
0.01773238806
0.01662708494
0.01600777022
0.01523852321
0.01484686388
0.01430331145
0.01406277572
0.0136764256
0.01353698591
0.01326123491
0.01318757494
0.01298810548
0.01295277888
0.012802038
0.01278111721
0.01265433464
0.01262448174
0.0124975928
0.01243561284
0.01228359696
0.01216207854
0.01195614791
0.03384146256
0.0311205926
0.02949410223
0.02765578976
0.02662569708
0.02534597417
0.02469471487
0.02379033206
0.02339037075
0.02274747285
0.0225157311
0.02205692489
0.02193458912
0.02160280753
0.02154405111
0.02129335333
0.02125834985
0.02104761005
0.02099781999
0.02078699881
0.0206834042
0.0204306308
0.02022822613
0.01988566588
0.0472277934
0.04343077575
0.04116094839
0.03859561629
0.03715814007
0.03537212042
0.03446342827
0.03320117366
0.03264313441
0.03174579533
0.03142254521
0.03078219096
0.03061160571
0.03014860759
0.03006662467
0.02971680797
0.02966783274
0.02937385576
0.02930428289
0.02901026185
0.02886539721
0.02851273411
0.02823012772
0.02775205323
0.06046804155
0.05560654619
0.05270032638
0.04941584339
0.04757535654
0.0452885092
0.04412512801
0.042508862
0.04179441287
0.04064537445
0.04023156894
0.03941162219
0.03919328318
0.03860048129
0.03849551249
0.03804763915
0.03798484782
0.03760851316
0.0375193824
0.03714302416
0.03695732998
0.03650581406
0.03614385028
0.03553172736
0.07351554307
0.06760514042
0.06407186758
0.06007876913
0.05784121105
0.05506088127
0.05364658592
0.05168150514
0.05081298152
0.04941594079
0.04891294575
0.04791604483
0.0476506794
0.04692998022
0.04680237182
0.04625788435
0.04618147062
0.04572400132
0.04561558375
0.04515813005
0.04493220116
0.04438332378
0.04394318049
0.04319897552
0.08633420151
0.07939321502
0.07524381342
0.07055446409
0.06792672901
0.06466151628
0.06300064392
0.06069282093
0.05967286844
0.05803214051
0.05744147413
0.05627069996
0.05595910176
0.055112737
0.05496287371
0.05432346041
0.05423366872
0.05369647566
0.05356912355
0.05303196522
0.05276650598
0.0521219291
0.05160495811
0.05073097261
0.09887877262
0.090929312
0.08617702823
0.08080638065
0.07779688133
0.07405720754
0.07215509633
0.0695119034
0.06834381846
0.06646464694
0.06578823248
0.06444732465
0.06409051577
0.06312118296
0.06294955352
0.06221724708
0.06211435561
0.06149915023
0.06135325096
0.06073811682
0.06043396241
0.05969576952
0.0591036212
0.05810264486
0.1111146582
0.1021814676
0.09684106561
0.09080582128
0.08742388373
0.08322136791
0.08108389111
0.07811353397
0.07680090454
0.07468912101
0.07392902119
0.07242214395
0.07202120428
0.07093192187
0.07073904809
0.06991613795
0.06980047515
0.06910918188
0.06894521114
0.06825401087
0.0679121267
0.06708259757
0.06641712221
0.06529226655
0.1229985251
0.1131099764
0.1071984459
0.1005177896
0.09677419691
0.09212220918
0.08975620341
0.08646813942
0.08501518301
0.08267751403
0.0818361865
0.08016813679
0.07972437174
0.0785185985
0.07830510705
0.07739419466
0.07726612091
0.07650091927
0.07631937472
0.07555429657
0.07517574215
0.07425751586
0.07352080924
0.07227564968
0.1344977861
0.1236847295
0.1172204854
0.1099152426
0.1058216327
0.100734663
0.09814746199
0.09455192498
0.09296312564
0.09040684375
0.08948686889
0.08766283889
0.08717759946
0.08585909823
0.08562563921
0.08462958122
0.08448950196
0.08365280242
0.0834542757
0.08261772658
0.08220371762
0.08119966922
0.08039405899
0.07903248039
0.1455714802
0.1338681997
0.1268717652
0.1189651144
0.1145345074
0.1090287083
0.1062285626
0.1023369778
0.1006174219
0.09785065402
0.09685499383
0.09488078049
0.0943556405
0.0929285927
0.09267592555
0.09159786643
0.09144622401
0.09054065432
0.09032575216
0.08942035719
0.0889721693
0.0878854623
0.08701346808
0.08553978529
0.1561895272
0.1436325848
0.1361257904
0.1276424163
0.1228886138
0.1169811618
0.1139767724
0.1098012714
0.1079562823
0.1049876488
0.103919368
0.1018011233
0.1012376861
0.09970654632
0.09943543747
0.09827875648
0.09811602131
0.09714443576
0.09691384786
0.095942468
0.09546153821
0.09429559591
0.09335998018
0.09177880256
0.1663137747
0.1529429376
0.144949584
0.1359163704
0.1308544674
0.1245640962
0.1213650245
0.1169188582
0.1149543276
0.1117932549
0.1106557832
0.1084002338
0.1078003232
0.1061699484
0.1058812839
0.1046496386
0.1044763367
0.103441793
0.1031962402
0.1021619232
0.1016497456
0.1004082331
0.09941192563
0.09772825405
0.1759170984
0.1617741792
0.1533192362
0.1437644138
0.1384102006
0.1317565555
0.1283727598
0.123669804
0.1215918271
0.1182481739
0.1170450217
0.1146591999
0.1140246504
0.1123001262
0.1119947763
0.1106920166
0.1105086705
0.1094144146
0.1091546625
0.1080606645
0.1075188581
0.1062056821
0.1051518241
0.1033709323
0.1849645587
0.1700943144
0.1612045642
0.1511583868
0.1455288449
0.1385330071
0.1349752401
0.1300304056
0.1278456055
0.1243299802
0.1230650014
0.1205564807
0.1198893435
0.1180761447
0.1177551126
0.1163853709
0.1161925887
0.115042084
0.1147689695
0.1136187431
0.1130490204
0.1116683212
0.1105602346
0.1086877487
0.1934324128
0.1778813717
0.168584606
0.158078492
0.1521912004
0.1448750355
0.1411543868
0.1359831183
0.1336982856
0.1300216606
0.1286987676
0.1260753712
0.1253776897
0.1234814669
0.1231457161
0.1217132593
0.1215116075
0.1203084405
0.1200227895
0.118819929
0.1182240582
0.1167801608
0.1156213125
0.1136631018
0.2012892946
0.1851066446
0.1754322917
0.1644994877
0.1583731023
0.1507597751
0.1468880542
0.1415067358
0.1391291416
0.1353031745
0.1339265966
0.13119665
0.1304706754
0.1284974534
0.1281480895
0.1266574748
0.1264476342
0.1251956348
0.1248983902
0.1236467177
0.1230266122
0.1215240886
0.1203181564
0.1182804035
0.2085152057
0.1917516058
0.1817299291
0.1704046439
0.1640583099
0.1561716298
0.1521609175
0.1465863675
0.1441234122
0.1401600508
0.1387340535
0.1359060725
0.1351540333
0.1331099574
0.1327480285
0.131203888
0.1309864673
0.1296895194
0.1293815631
0.1280849668
0.1274425269
0.1258860659
0.1246368023
0.122525897
0.2150826856
0.1977911388
0.1874538455
0.1757719022
0.1692257169
0.1610906429
0.1569536578
0.1512035289
0.1486630408
0.1445748456
0.1431039802
0.1401869374
0.1394112551
0.1373028221
0.136929519
0.1353367727
0.13511251
0.1337747545
0.1334571132
0.132119728
0.1314570318
0.1298515731
0.1285629551
0.1263855599
0.220975803
0.2032104554
0.1925898961
0.1805878613
0.1738622936
0.1655042776
0.1612539385
0.1553462098
0.1527361053
0.1485358482
0.1470246797
0.1440276769
0.1432307378
0.1410645131
0.1406809589
0.1390445522
0.1388140988
0.1374396795
0.1371132936
0.1357392673
0.1350583413
0.1334088903
0.1320849242
0.1298478685
0.2261712764
0.2079882845
0.1971180489
0.1848338745
0.1779502121
0.1693956952
0.1650454717
0.1589988439
0.1563274109
0.1520283988
0.1504817439
0.1474142875
0.146598653
0.1443815213
0.143988974
0.1423141211
0.1420782556
0.1406715601
0.1403375135
0.1389312261
0.1382342681
0.1365460576
0.135190954
0.1329012973
0.2306575041
0.2121138194
0.201027937
0.1885000849
0.1814798612
0.1727556158
0.1683191003
0.1621524856
0.1594280552
0.1550437225
0.1534663867
0.15033805
0.1495062334
0.1472451002
0.146844745
0.1451366494
0.1448960633
0.143461455
0.1431207469
0.1416865684
0.140975722
0.1392540228
0.1378720054
0.1355369302
0.2344156214
0.2155698474
0.20430337
0.191571446
0.1844368735
0.1755704924
0.1710617378
0.1647946514
0.1620258692
0.1575701029
0.1559671097
0.1527878139
0.1519424856
0.1496445349
0.1492376811
0.1475017804
0.1472572789
0.1457993286
0.1454530775
0.1439955678
0.1432731117
0.141523376
0.1401188269
0.1377457016
0.2374385594
0.2183497338
0.206937939
0.1940418143
0.1868152178
0.177834455
0.1732675548
0.1669196022
0.1641151071
0.1596018337
0.1579781664
0.1547578354
0.1539016021
0.1515739939
0.1511618731
0.1494035666
0.1491558744
0.1476791156
0.1473283709
0.145852073
0.1451202462
0.1433479477
0.1419252582
0.1395215273
0.2397120416
0.2204404847
0.2089194495
0.1958998885
0.1886041282
0.1795373835
0.174926799
0.1685180665
0.165686755
0.1611302681
0.159491096
0.1562399418
0.1553755511
0.1530256782
0.1526096356
0.1508345152
0.1505844543
0.1490935818
0.1487394826
0.1472490781
0.1465102114
0.1447209536
0.1432846235
0.1408578725
0.2412336901
0.2218397773
0.2102455804
0.1971433592
0.1898012684
0.1806769261
0.1760370725
0.1695876108
0.166738319
0.1621528611
0.1605032808
0.1572314522
0.1563615699
0.1539967564
0.153578053
0.1517916455
0.1515399624
0.1500396216
0.1496832512
0.1481833962
0.1474397914
0.1456391787
0.144193707
0.1417515482
0.2419939351
0.2225389469
0.2109082385
0.1977647699
0.1903995712
0.1812464831
0.1765920501
0.1701222653
0.1672640304
0.1626641232
0.161009386
0.157727258
0.1568546753
0.1544824308
0.154062432
0.1522704146
0.1520179405
0.1505128944
0.1501554027
0.1486508464
0.1479048635
0.1460985849
0.1446485382
0.1421986791
0.2419951724
0.2225400616
0.2109092661
0.1977657161
0.1904004619
0.1812472838
0.1765928253
0.1701229597
0.1672647027
0.1626647246
0.1610099757
0.157727794
0.1568552019
0.1544829212
0.1540629005
0.1522708561
0.1520183471
0.1505132904
0.1501557755
0.1486512232
0.1479051906
0.1460989062
0.1446488288
0.1421989535
0.241232604
0.2218388442
0.2102447268
0.1971426385
0.189800624
0.1806762985
0.1760365499
0.1695870742
0.16673786
0.1621523788
0.1605028856
0.157231058
0.1563612563
0.1539964723
0.1535777988
0.1517914209
0.1515397093
0.1500394178
0.1496830309
0.1481832447
0.1474395286
0.1456389444
0.1441934172
0.141751258
0.2397134288
0.2204417798
0.2089206496
0.1959010585
0.188605263
0.1795383553
0.1749278243
0.1685189168
0.1656876385
0.1611309872
0.1594918788
0.1562406189
0.1553762903
0.1530263748
0.1526103185
0.1508351727
0.1505850126
0.1490941665
0.148740002
0.1472496724
0.146510593
0.1447213512
0.143284903
0.1408581196
0.2374376237
0.2183489814
0.2069372588
0.1940413182
0.1868148188
0.1778340002
0.1732672841
0.1669192235
0.1641148608
0.1596014705
0.1579779643
0.1547575821
0.1539014989
0.1515739142
0.1511618307
0.149403558
0.1491557747
0.1476791067
0.1473283076
0.1458521539
0.1451200584
0.1433478128
0.1419249838
0.1395212358
0.2344171558
0.2155713196
0.2043047391
0.1915728354
0.1844382474
0.1755716312
0.1710630077
0.1647956534
0.1620269586
0.157570936
0.1559680808
0.1527886286
0.1519434324
0.1496454331
0.1492385727
0.1475026485
0.1472579821
0.1458000943
0.1454537327
0.1439963669
0.1432735332
0.1415238343
0.140119078
0.1377459048
0.2306567164
0.2121132448
0.2010274275
0.1884998097
0.1814797039
0.1727553318
0.168319078
0.1621522633
0.1594280191
0.1550434778
0.1534663755
0.1503379364
0.1495063375
0.1472452227
0.1468449112
0.1451368559
0.144896117
0.1434616444
0.1431208454
0.14168689
0.1409756228
0.1392540043
0.1378717674
0.135536659
0.2261729536
0.2079899284
0.1971195817
0.1848354763
0.1779518172
0.169396995
0.1650469773
0.1589999913
0.1563286978
0.1520293402
0.1504828945
0.1474152327
0.1465997971
0.1443826121
0.143990063
0.14231519
0.1420790927
0.1406724963
0.1403382913
0.1389322157
0.1382347155
0.1365465622
0.1351911616
0.1329014424
0.2209751588
0.203210053
0.1925895525
0.1805878005
0.1738623711
0.1655041601
0.1612541581
0.1553461407
0.1527362747
0.1485357207
0.1470248557
0.1440277015
0.1432310449
0.1410648348
0.1406813295
0.1390449714
0.1388143042
0.1374400668
0.1371135535
0.1357398306
0.1350583363
0.1334089968
0.1320847345
0.1298476313
0.2150844997
0.1977929472
0.1874555349
0.1757737072
0.1692275428
0.161092096
0.1569553879
0.1512048139
0.1486645144
0.144575888
0.1431052989
0.1401880043
0.1394125833
0.1373040941
0.136930792
0.135338032
0.1351134717
0.1337758552
0.1334580084
0.1321209054
0.1314575085
0.1298521304
0.1285631291
0.1263856581
0.2085146986
0.1917513679
0.1817297442
0.1704047881
0.1640586121
0.1561716725
0.1521613692
0.1465864464
0.1441237799
0.1401600377
0.1387344108
0.1359062321
0.1351545369
0.1331104718
0.1327485953
0.1312045111
0.130986815
0.1296900931
0.1293819689
0.1280857526
0.127442598
0.1258862785
0.1246366415
0.1225256762
0.2012912385
0.1851086089
0.1754341294
0.1645014848
0.1583751366
0.1507613728
0.1468899954
0.1415081499
0.1391307897
0.135304311
0.1339280714
0.13119783
0.1304721744
0.1284988961
0.1281495349
0.1266589181
0.1264487183
0.1251969041
0.1248994124
0.1236480988
0.1230271482
0.1215247358
0.1203183437
0.1182805033
0.1934320345
0.1778812881
0.1685845701
0.1580788288
0.152191714
0.1448752292
0.1411550571
0.1359833374
0.1336988404
0.1300217567
0.1286992963
0.1260756589
0.1253783778
0.1234821621
0.1231464639
0.121714069
0.1215120783
0.1203091751
0.1200233091
0.118820896
0.1182241618
0.1167804309
0.1156211281
0.1136628467
0.1849666243
0.1700964245
0.1612065403
0.151160563
0.1455310733
0.1385347398
0.1349773778
0.1300319404
0.1278474158
0.1243312046
0.1230666212
0.1205577674
0.1198910022
0.11807775
0.1177567228
0.1163869954
0.1161937994
0.1150435319
0.114770137
0.1136203519
0.113049658
0.1116691075
0.1105604972
0.1086879134
0.175916838
0.1617742373
0.1533193373
0.1437649276
0.1384109084
0.1317568883
0.1283736312
0.1236701525
0.121592554
0.1182483706
0.1170457071
0.1146596047
0.1140255054
0.1123009841
0.1119956834
0.1106929887
0.1105092391
0.1094152781
0.1091552586
0.1080617651
0.1075189481
0.1062059577
0.1051515618
0.1033705901
0.1663159529
0.1529451822
0.1449516879
0.1359187116
0.1308568741
0.1245659539
0.1213673428
0.1169205052
0.1149562877
0.1117945626
0.1106575378
0.1084016221
0.1078021316
0.1061717089
0.1058830519
0.1046514403
0.1044776767
0.103443423
0.1031975627
0.1021637675
0.1016505076
0.100409182
0.0994122957
0.09772851647
0.156189372
0.1436327695
0.1361260138
0.1276430888
0.1228894956
0.1169816191
0.1139778235
0.1098017355
0.1079571623
0.1049879348
0.1039201915
0.1018016311
0.1012386861
0.09970754601
0.09943647931
0.09827986677
0.09811666488
0.09714540294
0.09691449536
0.09594367248
0.09546159554
0.09429585717
0.09335962621
0.09177836102
0.1455737614
0.1338705665
0.1268739852
0.1189676048
0.1145370752
0.1090306802
0.1062310443
0.1023387284
0.1006195187
0.09785204054
0.09685687253
0.09488226485
0.09435758717
0.09293049815
0.09267783988
0.09159983304
0.09144768508
0.09054245217
0.09032721573
0.08942241114
0.08897303801
0.08788654726
0.08701392066
0.08554012027
0.1344977211
0.1236850234
0.1172208144
0.1099160526
0.1058226651
0.1007352279
0.09814866842
0.09455248857
0.09296413676
0.09040720568
0.0894878093
0.08766343395
0.08717872111
0.08586021883
0.08562679298
0.08463081016
0.08449020675
0.083653862
0.08345497025
0.08261903225
0.08220376152
0.08119994048
0.08039365345
0.0790319813
0.1230008991
0.1131124523
0.1072007696
0.1005204123
0.09677690699
0.09212428354
0.08975882992
0.08646998407
0.08501740198
0.08267897398
0.08183817679
0.08016970975
0.07972644169
0.07852063353
0.0783071494
0.07739630429
0.07726768254
0.07650285397
0.07632094475
0.07555650783
0.07517666952
0.0742586752
0.07352128068
0.07227599366
0.1111146667
0.1021818515
0.09684148135
0.09080674535
0.08742504092
0.08322202157
0.08108522584
0.07811417924
0.0768020229
0.07468954461
0.07393005626
0.07242281064
0.07202242462
0.07093314399
0.07074029404
0.06991747049
0.06980123484
0.06911033134
0.06894596058
0.06825542803
0.06791219407
0.06708292144
0.06641672758
0.06529177398
0.09888122898
0.0909318835
0.08617944251
0.08080911754
0.07779971349
0.07405937137
0.07215784696
0.06951383102
0.06834614311
0.06646617324
0.06579031943
0.0644489761
0.06409269054
0.06312332821
0.06295170103
0.06221947301
0.06211599291
0.06150118704
0.06135489081
0.0607404338
0.06043490595
0.05969695089
0.05910406182
0.05810294942
0.08633426492
0.07939366758
0.07524429548
0.0705554768
0.06792798323
0.06466223836
0.06300207822
0.06069352887
0.05967406902
0.05803261093
0.0574425812
0.05627142245
0.0559603981
0.0551140412
0.05496419284
0.05432488075
0.05423447689
0.05369770832
0.05356993029
0.05303349148
0.05276661811
0.05212232536
0.0516046105
0.05073052322
0.07351807156
0.06760779365
0.06407435896
0.06008160116
0.0578441437
0.0550631204
0.05364943808
0.05168350288
0.05081539313
0.04941752425
0.048915112
0.04791776212
0.04765293811
0.04693221391
0.04680460057
0.04626019987
0.04618316228
0.04572611215
0.04561726978
0.04516052029
0.04493314776
0.04438451167
0.04394358703
0.04319923968
0.06046813984
0.05560704465
0.05270085285
0.0494169177
0.04757667849
0.04528927828
0.04412663197
0.04250961293
0.04179567004
0.04064587651
0.04023272513
0.03941238421
0.03919463254
0.0386018467
0.03849688458
0.03804912755
0.03798569369
0.03760981244
0.03752023647
0.03714463592
0.03695748189
0.03650626738
0.03614354475
0.03553131547
0.04723038411
0.04343349699
0.04116350331
0.03859852389
0.03716115066
0.03537441972
0.03446635761
0.03320322693
0.03264561194
0.03174742444
0.03142477073
0.03078395852
0.03061392466
0.03015090471
0.0300689086
0.02971918426
0.02966955791
0.02937601355
0.02930599611
0.0290126993
0.02886634552
0.02851392793
0.02823051679
0.02775229586
0.03384157444
0.03112111287
0.02949465
0.02765689732
0.02662705625
0.02534676804
0.02469625783
0.0237911059
0.02339165881
0.02274799141
0.02251691395
0.02205771021
0.02193596924
0.02160421302
0.02154545696
0.02129488954
0.02125922384
0.02104895829
0.02099871193
0.02078866994
0.02068358868
0.02043112068
0.02022795112
0.0198852787
0.02034874714
0.01871299914
0.0177349933
0.0166300486
0.01601083582
0.01524086713
0.01484984489
0.01430540442
0.01406529622
0.01367808675
0.01353924793
0.01326303392
0.01318992648
0.012990436
0.01295508615
0.01280443874
0.01278284637
0.0126565012
0.01262618961
0.01250003482
0.0124365419
0.01228477519
0.01216244378
0.0119563648
0.006789411294
0.006243796566
0.005917518442
0.005549061148
0.00534257103
0.005085497308
0.004955305474
0.004773405591
0.004693478747
0.004564034147
0.004517937111
0.004425648146
0.004401449428
0.004334898672
0.004323088779
0.00427286604
0.004265419153
0.004223416163
0.004213134576
0.004171292167
0.004149606387
0.004099056741
0.004057994348
0.003989189283
-0.006788783704
-0.006242823391
-0.005916542082
-0.005547556399
-0.005340821369
-0.00508434424
-0.004953409092
-0.004772311652
-0.004691893765
-0.004563254533
-0.004516533471
-0.00442467421
-0.004399937683
-0.004333388253
-0.004321649618
-0.004271324066
-0.004264613298
-0.004222169544
-0.004212395783
-0.004169821378
-0.004149656395
-0.00409886198
-0.004058575667
-0.003989918267
-0.02034815226
-0.01871205655
-0.01773404451
-0.01662857041
-0.01600911068
-0.01523973476
-0.01484796903
-0.01430432725
-0.01406372705
-0.0136773192
-0.0135378547
-0.01326206634
-0.01318841651
-0.01298892225
-0.01295363383
-0.01280287758
-0.01278200681
-0.01265521781
-0.0126253995
-0.01249851686
-0.01243653286
-0.01228453078
-0.01216297387
-0.01195704451
-0.03384093725
-0.0311201342
-0.02949366805
-0.02765539145
-0.02662530797
-0.02534560956
-0.02469436344
-0.0237900047
-0.02339007204
-0.02274720095
-0.02251550793
-0.0220567297
-0.02193446105
-0.02160270778
-0.0215440292
-0.02129336307
-0.02125843443
-0.02104773549
-0.02099800006
-0.02078723135
-0.02068366326
-0.02043094396
-0.02022854769
-0.01988601433
-0.0472298451
-0.0434326099
-0.041162604
-0.03859709762
-0.03715947604
-0.03537332353
-0.03446452508
-0.03320217649
-0.0326440732
-0.03174667133
-0.03142339751
-0.03078300008
-0.0306124255
-0.03014939558
-0.03006744831
-0.02971761064
-0.02966867914
-0.02937469693
-0.02930515026
-0.02901114374
-0.02886627282
-0.02851363438
-0.02823099837
-0.02775292252
-0.06046751393
-0.05560608273
-0.05269988411
-0.04941543255
-0.04757495385
-0.04528812612
-0.04412475882
-0.04250851111