/*--------------------------------*- C++ -*----------------------------------*\
| =========                 |                                                 |
| \\      /  F ield         | foam-extend: Open Source CFD                    |
|  \\    /   O peration     | Version:  3.0                                   |
|   \\  /    A nd           | Web:         http://www.extend-project.de       |
|    \\/     M anipulation  |                                                 |
\*---------------------------------------------------------------------------*/
FoamFile
{
    version     2.0;
    format      ascii;
    class       volScalarField;
    location    "1";
    object      p;
}
// * * * * * * * * * * * * * * * * * * * * * * * * * * * * * * * * * * * * * //

dimensions      [0 0 0 0 0 0 0];

internalField   nonuniform List<scalar> 
480
(
-0.204574
-0.156766
-0.142467
-0.124247
-0.123984
-0.127678
-0.134175
-0.149008
-0.154595
-0.16176
-0.201586
-0.154536
-0.140548
-0.122794
-0.122784
-0.126726
-0.13363
-0.148376
-0.154317
-0.160959
-0.194568
-0.149627
-0.136795
-0.12034
-0.121128
-0.125602
-0.132759
-0.147157
-0.152217
-0.15822
-0.185964
-0.143838
-0.132373
-0.117492
-0.119225
-0.124359
-0.132297
-0.146528
-0.151888
-0.156731
-0.1744
-0.136126
-0.126717
-0.114132
-0.117361
-0.123529
-0.132847
-0.147324
-0.154794
-0.158506
-0.160371
-0.126613
-0.119347
-0.109224
-0.113819
-0.120887
-0.131258
-0.145512
-0.153972
-0.156409
-0.143907
-0.115281
-0.110433
-0.103062
-0.109057
-0.116931
-0.127857
-0.141248
-0.148896
-0.150062
-0.124508
-0.101585
-0.0992313
-0.0947597
-0.102045
-0.11058
-0.121948
-0.134301
-0.141583
-0.141502
-0.103248
-0.0861519
-0.0861202
-0.0844007
-0.0927489
-0.101795
-0.113833
-0.125363
-0.133555
-0.131635
-0.0786533
-0.0678257
-0.0700955
-0.0711968
-0.0803728
-0.0897229
-0.102108
-0.112617
-0.121802
-0.117938
-0.0533272
-0.0484054
-0.0524892
-0.0558465
-0.0651975
-0.0741668
-0.0861225
-0.0948926
-0.103933
-0.0982971
-0.0241717
-0.0254658
-0.0310805
-0.0365786
-0.0454975
-0.0536764
-0.0642034
-0.0707531
-0.0782778
-0.0717254
0.00384595
-0.0028974
-0.00955985
-0.0164837
-0.0244056
-0.0310423
-0.0396019
-0.0434709
-0.0496239
-0.042974
0.0360691
0.0236687
0.0165551
0.00849774
0.0024565
-0.00218652
-0.00777029
-0.00864412
-0.0126291
-0.00672172
0.0648882
0.0478616
0.0405195
0.0319416
0.027967
0.0258821
0.0237273
0.0265009
0.0260479
0.0316659
0.097689
0.0759186
0.0691737
0.0604644
0.0595025
0.0602361
0.0619405
0.0680635
0.0701679
0.0752857
0.1251
0.0997042
0.0934226
0.0849579
0.0866762
0.0904455
0.0956457
0.105036
0.108613
0.113449
0.155173
0.126146
0.121168
0.113342
0.118658
0.125631
0.134944
0.147419
0.15284
0.156444
0.178881
0.147253
0.143251
0.136249
0.14475
0.155191
0.16917
0.185584
0.195228
0.196821
0.202662
0.168561
0.166018
0.160027
0.172115
0.185889
0.204772
0.224907
0.239576
0.238708
0.220397
0.184624
0.183203
0.178165
0.193076
0.209696
0.232376
0.255409
0.273104
0.27032
0.234834
0.197671
0.197201
0.192912
0.210059
0.228808
0.254003
0.278812
0.29701
0.293074
0.244531
0.206514
0.206916
0.203293
0.222194
0.242476
0.269562
0.295641
0.314724
0.310498
0.247877
0.209445
0.209939
0.206482
0.225939
0.246938
0.274965
0.30189
0.322049
0.317789
0.247974
0.209463
0.210272
0.206975
0.226846
0.248011
0.276349
0.303254
0.323259
0.318371
0.240102
0.202057
0.202043
0.198222
0.216856
0.237149
0.264429
0.290643
0.310256
0.305041
0.229912
0.192602
0.192153
0.187867
0.205294
0.224199
0.249995
0.274917
0.293994
0.288669
0.212263
0.176255
0.174323
0.168953
0.183601
0.200144
0.223031
0.246041
0.26405
0.260015
0.192292
0.15794
0.154836
0.148438
0.160121
0.173584
0.192233
0.211894
0.226062
0.224339
0.167427
0.135253
0.130499
0.122827
0.130703
0.140527
0.153906
0.169479
0.177906
0.178609
0.139559
0.110101
0.103795
0.0949915
0.0990154
0.10514
0.113579
0.125344
0.130031
0.132632
0.110497
0.0841882
0.0767098
0.0670719
0.0676233
0.0702211
0.0745468
0.0829907
0.0864936
0.0901597
0.0778314
0.0553635
0.0464965
0.0361347
0.03285
0.0319562
0.0318966
0.0369354
0.0383667
0.0427789
0.0473326
0.0290349
0.0198295
0.0094103
0.00325783
-0.000916655
-0.00541261
-0.00452255
-0.00718259
-0.00180468
0.0136398
0.000223316
-0.00966013
-0.0200265
-0.0294543
-0.0367545
-0.0457782
-0.0487827
-0.0553585
-0.0483236
-0.0160679
-0.0243358
-0.0335293
-0.0428978
-0.0539987
-0.0635489
-0.0757231
-0.0820844
-0.0914612
-0.0834057
-0.047132
-0.0497273
-0.058406
-0.0665704
-0.079352
-0.0906932
-0.105379
-0.11446
-0.125281
-0.116863
-0.0744253
-0.071103
-0.0781189
-0.0841983
-0.0972299
-0.109414
-0.125402
-0.13682
-0.149143
-0.14207
-0.100115
-0.0907598
-0.0959622
-0.0996863
-0.112478
-0.124847
-0.141008
-0.153857
-0.165945
-0.161142
-0.123861
-0.108245
-0.111122
-0.111969
-0.12381
-0.135681
-0.151037
-0.164505
-0.174333
-0.171589
-0.142777
-0.121342
-0.121454
-0.119256
-0.129489
-0.140596
-0.155002
-0.169299
-0.178507
-0.17752
-0.162152
-0.134716
-0.13233
-0.127029
-0.135937
-0.146062
-0.160021
-0.175266
-0.185869
-0.186069
-0.174251
-0.14182
-0.136366
-0.127956
-0.134627
-0.14362
-0.156413
-0.172514
-0.183715
-0.185542
-0.18854
-0.151029
-0.143277
-0.131972
-0.136961
-0.144346
-0.155155
-0.170552
-0.179179
-0.183187
-0.194678
-0.153555
-0.143167
-0.12929
-0.131914
-0.137821
-0.146134
-0.160863
-0.166143
-0.172847
-0.203368
-0.158723
-0.146667
-0.130701
-0.132084
-0.136774
-0.143754
-0.157995
-0.161794
-0.170026
-0.204641
-0.158188
-0.144636
-0.127322
-0.127442
-0.131491
-0.137839
-0.152448
-0.157265
-0.166126
-0.207467
-0.159512
-0.145253
-0.127073
-0.126854
-0.130577
-0.137081
-0.151874
-0.157402
-0.165299
)
;

boundaryField
{
    out
    {
        type            implicitExtrapolation;
    }
    in
    {
        type            implicitExtrapolation;
    }
    frontAndBack
    {
        type            empty;
    }
}


// ************************************************************************* //
