/*--------------------------------*- C++ -*----------------------------------*\
| =========                 |                                                 |
| \\      /  F ield         | foam-extend: Open Source CFD                    |
|  \\    /   O peration     | Version:  3.0                                   |
|   \\  /    A nd           | Web:         http://www.extend-project.de       |
|    \\/     M anipulation  |                                                 |
\*---------------------------------------------------------------------------*/
FoamFile
{
    version     2.0;
    format      ascii;
    class       volVectorField;
    location    "1";
    object      u;
}
// * * * * * * * * * * * * * * * * * * * * * * * * * * * * * * * * * * * * * //

dimensions      [0 0 0 0 0 0 0];

internalField   nonuniform List<vector> 
480
(
(0.2586 -0.0898218 -1.97971e-19)
(0.485651 -0.0555924 1.05439e-18)
(0.646406 -0.0325362 -2.99482e-18)
(0.719812 -0.0165515 2.9034e-18)
(0.796425 -0.00332323 6.4856e-19)
(0.820697 0.00558062 -1.16384e-18)
(0.873904 0.015813 -4.55147e-18)
(0.890103 0.0200768 3.34175e-18)
(0.948391 0.0279742 -2.55849e-18)
(0.972279 0.0233288 -1.40388e-18)
(0.305196 -0.262518 8.64439e-19)
(0.515823 -0.166927 1.40049e-18)
(0.666222 -0.10565 -1.53042e-17)
(0.733083 -0.0670414 -1.17463e-17)
(0.804652 -0.0381394 6.3527e-18)
(0.826763 -0.0234187 1.02839e-18)
(0.878005 -0.00847415 1.69776e-18)
(0.896602 -0.00698521 -5.59279e-18)
(0.956419 -0.00286707 6.7027e-18)
(0.986589 -0.0123527 1.41094e-18)
(0.396308 -0.420175 -3.36572e-18)
(0.576668 -0.269617 1.34534e-18)
(0.70878 -0.174471 8.54452e-18)
(0.765248 -0.11542 7.35327e-18)
(0.829025 -0.0732373 1.2657e-17)
(0.847128 -0.0536815 -3.87532e-18)
(0.892253 -0.0357541 3.26015e-19)
(0.903081 -0.0372527 9.85209e-19)
(0.955682 -0.0303525 8.33601e-18)
(0.960002 -0.0177142 -1.58229e-17)
(0.524335 -0.548127 -8.84338e-19)
(0.660791 -0.352964 2.82973e-17)
(0.765271 -0.230393 9.33025e-18)
(0.804529 -0.154694 -4.54888e-18)
(0.854482 -0.100764 -4.40247e-18)
(0.86386 -0.0758445 -5.75429e-20)
(0.897405 -0.0505117 -5.49139e-19)
(0.901317 -0.0554359 -1.76879e-18)
(0.945198 -0.0445564 -1.39765e-17)
(0.977224 -0.106699 2.29297e-17)
(0.682744 -0.640008 -8.54833e-18)
(0.766515 -0.412351 4.82086e-18)
(0.838767 -0.268911 9.83148e-18)
(0.85964 -0.178982 1.16833e-17)
(0.896999 -0.113995 -9.72061e-18)
(0.904674 -0.0803162 5.67172e-19)
(0.935468 -0.045364 -7.9033e-18)
(0.954508 -0.0405724 -4.50851e-18)
(0.997568 -0.0252181 1.30299e-17)
(1.07542 -0.103038 -2.8491e-17)
(0.859738 -0.688469 1.06392e-17)
(0.88469 -0.44456 -1.5788e-17)
(0.920958 -0.29173 -1.62914e-17)
(0.920604 -0.196183 -1.47084e-17)
(0.943732 -0.129641 -1.92269e-18)
(0.945946 -0.0961494 -5.07579e-18)
(0.972883 -0.0661327 2.49022e-17)
(0.991683 -0.0598731 -1.21412e-17)
(1.03046 -0.0468404 1.00118e-17)
(1.06035 -0.0439834 -5.26104e-18)
(1.04435 -0.690222 1.13037e-17)
(1.00812 -0.445414 -1.05167e-17)
(1.00591 -0.291624 -1.86885e-17)
(0.981101 -0.19467 -2.33798e-17)
(0.985107 -0.127771 -7.0876e-19)
(0.974945 -0.0948591 7.93967e-18)
(0.987363 -0.0672979 4.08083e-18)
(0.994461 -0.0691695 6.01001e-19)
(1.0258 -0.0627922 1.27163e-17)
(1.05451 -0.0854588 -4.24992e-18)
(1.22401 -0.644557 -5.2735e-18)
(1.12977 -0.415168 -9.46698e-19)
(1.09201 -0.270728 5.36903e-18)
(1.04537 -0.17817 7.92259e-18)
(1.03366 -0.114788 9.73705e-18)
(1.01504 -0.0816541 1.22463e-18)
(1.01698 -0.0549243 -4.83546e-18)
(1.02031 -0.0559353 5.21132e-18)
(1.04034 -0.0483209 -1.35924e-17)
(1.08561 -0.0898715 2.48678e-17)
(1.38724 -0.554926 6.60849e-19)
(1.24068 -0.356029 8.47317e-18)
(1.17005 -0.23034 1.30359e-17)
(1.10187 -0.148328 5.70694e-18)
(1.07379 -0.0927204 -1.15464e-17)
(1.0448 -0.0618897 2.03922e-19)
(1.03449 -0.038403 -4.56429e-19)
(1.03384 -0.0371928 1.10264e-18)
(1.0422 -0.0318156 4.41924e-19)
(1.11432 -0.0720309 4.43547e-18)
(1.52196 -0.425888 1.40823e-19)
(1.33379 -0.269655 -1.92315e-18)
(1.23763 -0.169624 9.22373e-18)
(1.15308 -0.101356 6.86797e-18)
(1.11351 -0.0548299 6.3257e-18)
(1.07777 -0.023797 -6.71311e-18)
(1.06039 -0.00210415 1.8697e-18)
(1.05799 0.00982121 -1.4336e-18)
(1.06046 0.00974678 -9.43352e-18)
(1.14204 -0.0141257 1.71299e-18)
(1.62123 -0.26734 -1.93182e-19)
(1.40431 -0.164472 -2.51588e-18)
(1.2908 -0.0977408 5.13436e-19)
(1.19439 -0.0498875 -2.50235e-18)
(1.14771 -0.0185092 -1.8316e-18)
(1.1062 0.00551923 3.61106e-18)
(1.08592 0.0182926 3.15723e-18)
(1.07447 0.0314286 1.94129e-18)
(1.06727 0.0246932 -3.84514e-18)
(1.07394 0.0263508 1.93151e-18)
(1.67465 -0.0885331 -1.48817e-20)
(1.44363 -0.0448008 -1.44741e-18)
(1.32128 -0.0145136 1.10069e-18)
(1.21785 0.0108601 1.1139e-18)
(1.16611 0.0259331 -4.80301e-19)
(1.11862 0.0405499 8.99737e-19)
(1.09333 0.0420646 4.19642e-20)
(1.07262 0.0463483 1.17218e-18)
(1.06031 0.02802 -3.06545e-18)
(1.05736 0.0172489 -9.76404e-19)
(1.68272 0.0980232 1.17935e-20)
(1.4542 0.0801844 -8.69693e-19)
(1.33417 0.0721549 1.47459e-18)
(1.23074 0.0726694 1.5766e-18)
(1.17976 0.0701556 -7.60264e-19)
(1.12882 0.0740988 -6.72563e-20)
(1.10043 0.0660883 -2.07683e-18)
(1.06876 0.0666651 2.46011e-18)
(1.04395 0.0426062 -3.17981e-18)
(1.01896 0.0342226 -1.4392e-18)
(1.63983 0.279123 2.96401e-19)
(1.42903 0.201297 -1.14153e-18)
(1.31971 0.15571 9.99654e-19)
(1.22162 0.131531 5.68598e-19)
(1.17424 0.1119 -7.86213e-19)
(1.12296 0.105035 4.2657e-19)
(1.09613 0.0884034 6.21013e-19)
(1.06009 0.0844476 -2.47703e-18)
(1.03865 0.0562199 1.0228e-18)
(0.9815 0.0408333 1.70425e-18)
(1.55301 0.443972 1.68158e-18)
(1.37537 0.313145 -2.41117e-18)
(1.28747 0.234831 -4.11802e-18)
(1.20234 0.188057 -1.36092e-18)
(1.16514 0.152393 -1.6518e-18)
(1.11827 0.131383 8.86748e-19)
(1.09679 0.101352 3.067e-19)
(1.05968 0.0767687 -6.38777e-19)
(1.03379 0.0344751 2.43243e-18)
(0.939976 -0.0222503 1.22551e-18)
(1.42485 0.578522 1.69957e-18)
(1.29264 0.40285 -1.28722e-17)
(1.2327 0.295721 -4.73825e-18)
(1.16423 0.228286 2.92541e-18)
(1.13674 0.177638 3.9984e-18)
(1.09279 0.144495 -3.02139e-20)
(1.07002 0.103185 -1.6088e-19)
(1.03318 0.0705669 7.23312e-19)
(1.00872 0.0204691 4.96455e-18)
(0.994759 -0.0122484 -9.98662e-18)
(1.26525 0.676027 6.35596e-18)
(1.18792 0.470213 1.73809e-18)
(1.16225 0.345307 -5.00554e-18)
(1.11543 0.266074 -6.72486e-18)
(1.10279 0.209576 6.10403e-18)
(1.06518 0.174012 -1.82568e-18)
(1.04784 0.133043 -1.16436e-19)
(1.00471 0.105074 7.6052e-19)
(0.978412 0.0483336 -1.0101e-17)
(0.935061 0.0113106 1.81424e-17)
(1.08639 0.72717 -1.13032e-17)
(1.0711 0.503872 1.64619e-17)
(1.08509 0.367413 1.6352e-17)
(1.06502 0.278591 1.55109e-17)
(1.07172 0.216256 -1.19108e-18)
(1.04678 0.174317 2.15085e-18)
(1.04139 0.131442 -2.52447e-17)
(1.00049 0.0982379 9.31083e-18)
(0.982094 0.0411024 -6.60233e-18)
(0.897745 -0.0188828 -6.24459e-19)
(0.897131 0.728407 -1.37127e-17)
(0.944366 0.504747 9.55694e-18)
(0.99708 0.368301 1.71859e-17)
(1.00319 0.278712 2.22978e-17)
(1.02784 0.217351 -3.2019e-18)
(1.01577 0.174832 -1.05059e-17)
(1.02244 0.135708 1.05835e-18)
(0.990074 0.098078 -1.20816e-18)
(0.983143 0.0476528 -1.01487e-17)
(0.883365 -0.0644955 -4.52105e-20)
(0.715756 0.681032 7.03266e-18)
(0.825073 0.471879 -2.46138e-18)
(0.918063 0.344146 -1.589e-17)
(0.953492 0.258419 -2.04745e-17)
(1.00034 0.200076 -1.42503e-17)
(1.00907 0.154913 1.26263e-18)
(1.03405 0.115377 1.03666e-17)
(1.02738 0.0638202 -6.34165e-18)
(1.02696 0.00997123 2.75308e-17)
(0.943845 -0.152889 -4.16903e-17)
(0.549429 0.583453 -3.62518e-18)
(0.712651 0.403297 -1.64786e-17)
(0.838665 0.292323 -2.69267e-17)
(0.896892 0.216388 -1.23048e-17)
(0.957475 0.162484 2.53374e-17)
(0.97736 0.118599 2.25441e-18)
(1.00732 0.0762226 -4.13127e-22)
(1.01467 0.029809 6.69742e-19)
(1.0222 -0.0159298 -7.09337e-19)
(1.02824 -0.0561301 -6.39674e-19)
(0.415042 0.449042 2.3013e-19)
(0.622831 0.311558 1.02818e-17)
(0.77693 0.227707 -1.74833e-17)
(0.854456 0.170208 -1.26757e-17)
(0.927102 0.130684 -1.46579e-17)
(0.95358 0.0984436 1.39869e-17)
(0.985718 0.0680889 -6.0566e-18)
(0.986287 0.0358323 2.96657e-18)
(0.992308 -0.00376276 2.05904e-17)
(0.977142 -0.0399448 -2.41611e-18)
(0.318973 0.278911 1.4745e-18)
(0.558361 0.192573 1.04936e-17)
(0.732323 0.139517 5.84988e-18)
(0.824213 0.103079 1.41403e-17)
(0.906413 0.0778561 9.20802e-18)
(0.941282 0.0579634 -1.17945e-17)
(0.980555 0.0405926 -7.20367e-18)
(0.989192 0.0227068 -5.0016e-18)
(1.00552 0.00502919 5.28306e-18)
(0.99301 -0.0290685 -6.10235e-18)
(0.269417 0.0928263 -1.40919e-19)
(0.524344 0.0648979 3.92164e-18)
(0.707672 0.0487399 1.92618e-19)
(0.806021 0.0379467 -4.80397e-18)
(0.892368 0.0314166 3.52283e-19)
(0.930825 0.0257992 1.97798e-19)
(0.973493 0.0210881 4.54647e-18)
(0.988268 0.0135598 -1.93591e-18)
(1.00972 0.0046707 6.50376e-18)
(1.01295 -0.0169952 3.23863e-18)
(0.270843 -0.103039 3.43457e-19)
(0.526864 -0.0714645 -1.40688e-18)
(0.711625 -0.0512746 3.77554e-18)
(0.811527 -0.0368451 -4.38496e-18)
(0.898996 -0.0263217 -1.02832e-18)
(0.938247 -0.0177578 1.43952e-18)
(0.979994 -0.0100402 1.0859e-17)
(0.991529 -0.00298818 -8.53746e-18)
(1.00874 0.00505074 5.91936e-18)
(1.0025 0.0243925 4.21679e-18)
(0.320953 -0.290758 -8.88535e-19)
(0.559656 -0.201523 -1.74959e-18)
(0.732864 -0.145525 2.06673e-17)
(0.824214 -0.106015 1.82594e-17)
(0.905552 -0.0772539 -1.07516e-17)
(0.939985 -0.0533992 -2.99496e-18)
(0.977712 -0.0302662 -5.51914e-18)
(0.986974 -0.00930297 1.63287e-17)
(1.00021 0.0134339 -1.66511e-17)
(0.996379 0.0192775 -3.46066e-18)
(0.419017 -0.458419 4.08972e-18)
(0.62769 -0.317415 -9.99546e-19)
(0.783193 -0.22935 -1.15664e-17)
(0.863137 -0.16772 -1.06917e-17)
(0.938158 -0.123706 -1.94585e-17)
(0.969583 -0.0870167 7.39025e-18)
(1.00548 -0.0528486 -6.64197e-19)
(1.01569 -0.0165122 -9.84884e-19)
(1.02135 0.0214656 -1.97782e-17)
(1.01221 0.058804 3.3492e-17)
(0.555854 -0.596502 8.16746e-19)
(0.719227 -0.414755 -3.36087e-17)
(0.845876 -0.302698 -1.08298e-17)
(0.904767 -0.225483 7.18994e-18)
(0.965783 -0.17179 8.16038e-18)
(0.985227 -0.127345 4.64459e-19)
(1.0137 -0.0867398 6.61945e-19)
(1.01604 -0.0368369 2.72924e-18)
(1.01585 0.0140537 3.10987e-17)
(0.994243 0.108702 -4.55599e-17)
(0.722141 -0.690421 9.33312e-18)
(0.83143 -0.479136 -5.02238e-18)
(0.92444 -0.348465 -1.02421e-17)
(0.96007 -0.259392 -1.348e-17)
(1.00614 -0.197252 1.3913e-17)
(1.01424 -0.148037 3.08339e-19)
(1.03701 -0.104588 1.048e-17)
(1.02935 -0.050756 7.60287e-18)
(1.02966 -0.000660715 -3.05257e-17)
(0.956346 0.140311 4.17591e-17)
(0.907963 -0.740548 -1.09507e-17)
(0.956265 -0.516264 1.70632e-17)
(1.01106 -0.379314 1.8279e-17)
(1.01892 -0.288533 1.67832e-17)
(1.04557 -0.22739 2.47815e-18)
(1.0337 -0.184129 6.24178e-18)
(1.03991 -0.146482 -3.11332e-17)
(0.999792 -0.107096 1.40122e-17)
(0.982092 -0.0499567 -1.40375e-17)
(0.828039 0.104868 5.3713e-18)
(1.09572 -0.736508 -1.08837e-17)
(1.08012 -0.513423 1.01742e-17)
(1.09361 -0.376534 1.76603e-17)
(1.07223 -0.2866 2.18472e-17)
(1.07601 -0.222649 9.68311e-19)
(1.04613 -0.17901 -6.76329e-18)
(1.03225 -0.133203 -3.38393e-18)
(0.983625 -0.101867 -8.89534e-20)
(0.959091 -0.0451415 -9.49718e-18)
(0.918298 -0.0294983 4.65616e-18)
(1.27875 -0.685142 4.96616e-18)
(1.20314 -0.479368 6.03803e-19)
(1.18035 -0.353534 -4.64837e-18)
(1.13595 -0.271641 -5.39477e-18)
(1.12641 -0.211689 -7.01945e-18)
(1.09129 -0.168694 -7.41206e-19)
(1.07549 -0.119583 3.24775e-18)
(1.03478 -0.0752298 -2.8307e-18)
(1.00099 -0.0106812 8.88391e-18)
(0.956243 0.0401386 -1.70755e-17)
(1.43718 -0.586707 4.58018e-20)
(1.30578 -0.413707 -6.41314e-18)
(1.24732 -0.308908 -9.22244e-18)
(1.1798 -0.243254 -2.78204e-18)
(1.15439 -0.194331 3.85336e-18)
(1.11098 -0.162196 -8.37769e-19)
(1.09089 -0.12224 7.34198e-19)
(1.05001 -0.0864791 -6.05095e-19)
(1.02152 -0.0347376 5.83095e-19)
(0.951159 0.0338354 -3.13273e-18)
(1.56626 -0.449497 -6.77512e-20)
(1.39051 -0.320188 3.28435e-20)
(1.30519 -0.242224 -5.43759e-18)
(1.22171 -0.195288 -2.86532e-18)
(1.18654 -0.158781 -1.36049e-18)
(1.13936 -0.136892 9.28432e-20)
(1.11747 -0.105689 1.05593e-18)
(1.07456 -0.0813478 1.25647e-18)
(1.04544 -0.0388978 -1.028e-18)
(0.942888 0.0117183 2.84547e-19)
(1.6532 -0.284631 1.66923e-19)
(1.44465 -0.210978 5.90317e-19)
(1.33852 -0.168996 -1.9435e-18)
(1.24287 -0.148309 -1.50884e-18)
(1.19927 -0.131032 -1.79779e-18)
(1.14943 -0.126848 1.8464e-18)
(1.12556 -0.109928 1.52499e-18)
(1.08445 -0.105048 2.4736e-18)
(1.05616 -0.06926 1.93485e-19)
(0.957554 -0.042041 7.44795e-19)
(1.69294 -0.100775 1.22511e-19)
(1.46671 -0.0858885 7.93288e-19)
(1.34897 -0.0796947 -1.0507e-18)
(1.24745 -0.0825158 6.59998e-19)
(1.19838 -0.0810959 3.47133e-19)
(1.14866 -0.0882965 -7.78683e-19)
(1.12195 -0.0808617 -2.4381e-18)
(1.09017 -0.0869572 7.36679e-19)
(1.06825 -0.0589694 -1.21932e-18)
(1.04544 -0.054761 -1.75023e-18)
(1.68611 0.0861558 -1.37245e-19)
(1.45861 0.0383752 1.24594e-18)
(1.34027 0.00496517 -2.25815e-18)
(1.24033 -0.0239027 -9.76082e-20)
(1.19239 -0.0407973 1.15198e-18)
(1.14752 -0.0590871 -2.43148e-19)
(1.12412 -0.0604101 -4.53791e-18)
(1.1034 -0.0680328 3.00688e-18)
(1.08744 -0.0431799 -5.11294e-19)
(1.08314 -0.0311658 -1.65851e-18)
(1.62727 0.265773 -2.50192e-19)
(1.41341 0.159679 1.51641e-18)
(1.30226 0.0906924 -6.35802e-18)
(1.20857 0.0403488 -7.11845e-18)
(1.1636 0.00826069 5.25384e-18)
(1.1253 -0.017366 1.55595e-18)
(1.10733 -0.027921 3.34669e-18)
(1.10292 -0.0401897 -9.10365e-18)
(1.10464 -0.0248706 1.01261e-17)
(1.14458 -0.0200051 2.70529e-19)
(1.52949 0.42564 -2.38082e-18)
(1.34549 0.267113 2.10439e-18)
(1.25342 0.165991 7.18908e-18)
(1.17327 0.0965601 4.72392e-18)
(1.13802 0.0505386 8.4168e-18)
(1.10751 0.0186312 -4.48306e-18)
(1.09439 -0.00164532 3.78988e-20)
(1.0984 -0.015796 5.03936e-19)
(1.10048 -0.0137394 8.90783e-18)
(1.19367 0.0100693 -1.79011e-17)
(1.38991 0.5533 -1.61141e-18)
(1.24728 0.352301 1.81914e-17)
(1.17954 0.225132 6.24992e-18)
(1.11505 0.142 -5.54762e-18)
(1.08889 0.0867553 -7.82959e-18)
(1.06349 0.0574893 -3.78792e-19)
(1.05388 0.0385788 1.9086e-19)
(1.05928 0.0483186 -1.37823e-18)
(1.07682 0.0554018 -1.77502e-17)
(1.21565 0.14605 2.73762e-17)
(1.22739 0.644834 -7.11909e-18)
(1.13699 0.415595 -1.55847e-18)
(1.10248 0.272612 5.39518e-18)
(1.06002 0.182554 8.52742e-18)
(1.05271 0.124079 -1.02659e-17)
(1.04026 0.097923 9.34043e-19)
(1.05013 0.0827269 -2.40713e-18)
(1.05849 0.0964847 -4.05287e-18)
(1.08551 0.101168 2.37383e-17)
(1.08978 0.12515 -2.98795e-17)
(1.0453 0.688512 1.16277e-17)
(1.0134 0.443743 -1.77243e-17)
(1.01509 0.290264 -1.83307e-17)
(0.996054 0.193866 -1.75723e-17)
(1.00614 0.127922 7.32565e-19)
(1.00693 0.0952502 -3.36945e-18)
(1.03138 0.0702805 3.35824e-17)
(1.05904 0.0704621 -1.23508e-17)
(1.10508 0.0759278 1.18534e-17)
(1.15228 0.0995087 5.21521e-19)
(0.860175 0.688267 1.32959e-17)
(0.887634 0.446332 -9.15588e-18)
(0.925237 0.295895 -1.60379e-17)
(0.926927 0.203377 -2.05789e-17)
(0.951206 0.139622 3.03884e-18)
(0.957249 0.110289 9.45979e-18)
(0.986934 0.0838315 -1.92944e-18)
(1.01806 0.0860023 5.5271e-19)
(1.06612 0.0859053 7.16681e-18)
(1.16027 0.138552 -4.00673e-19)
(0.682932 0.639249 -6.70617e-18)
(0.769645 0.414426 2.85222e-18)
(0.844376 0.274492 1.52207e-17)
(0.868449 0.1891 1.7932e-17)
(0.908961 0.128949 1.13634e-17)
(0.921783 0.10206 -1.94811e-18)
(0.958143 0.0739488 -9.06589e-18)
(0.987568 0.0809289 2.94215e-18)
(1.03826 0.0756265 -2.36227e-17)
(1.141 0.187693 3.10969e-17)
(0.523786 0.548223 2.92265e-18)
(0.6612 0.356661 1.44109e-17)
(0.76569 0.238073 2.30693e-17)
(0.804815 0.167232 9.32661e-18)
(0.85398 0.117353 -1.72959e-17)
(0.862776 0.0990537 -1.60765e-18)
(0.896638 0.0776402 -2.83033e-19)
(0.904484 0.0975109 -1.23584e-18)
(0.960331 0.0995884 -8.34139e-19)
(1.03766 0.254144 4.95356e-19)
(0.396244 0.421217 -2.98841e-19)
(0.577401 0.275583 -8.38731e-18)
(0.709779 0.186955 1.36356e-17)
(0.765434 0.135962 8.59018e-18)
(0.827907 0.103199 9.5568e-18)
(0.841583 0.0955149 -7.05168e-18)
(0.884163 0.0899028 3.03533e-18)
(0.884762 0.107561 -2.617e-18)
(0.943327 0.11018 -8.87747e-18)
(0.94465 0.122882 9.52898e-19)
(0.304905 0.264008 -1.43796e-18)
(0.515721 0.1733 -8.54915e-18)
(0.666271 0.11847 -4.42491e-18)
(0.732901 0.0876936 -1.01109e-17)
(0.804371 0.0682877 -5.58225e-18)
(0.82507 0.0647867 6.36522e-18)
(0.87714 0.0635731 2.59281e-18)
(0.892402 0.0741205 8.07184e-19)
(0.959675 0.0836592 -1.73573e-18)
(0.984174 0.0877964 3.56325e-18)
(0.258561 0.0918906 4.86583e-20)
(0.485407 0.0630204 -3.24416e-18)
(0.645975 0.0475369 -2.38248e-19)
(0.718462 0.0406031 3.04683e-18)
(0.794162 0.0386098 -2.04523e-19)
(0.816548 0.0414128 -3.41718e-19)
(0.869422 0.045541 -2.24343e-18)
(0.88425 0.0495659 5.43351e-20)
(0.946282 0.0511241 -2.48714e-18)
(0.973077 0.0441894 -6.86183e-19)
)
;

boundaryField
{
    out
    {
        type            fixedValue;
        value           uniform (1 0 0);
    }
    in
    {
        type            myVelocity;
    }
    frontAndBack
    {
        type            empty;
    }
}


// ************************************************************************* //
