/*--------------------------------*- C++ -*----------------------------------*\
| =========                 |                                                 |
| \\      /  F ield         | foam-extend: Open Source CFD                    |
|  \\    /   O peration     | Version:  3.0                                   |
|   \\  /    A nd           | Web:         http://www.extend-project.de       |
|    \\/     M anipulation  |                                                 |
\*---------------------------------------------------------------------------*/
FoamFile
{
    version     2.0;
    format      ascii;
    class       volSymmTensorField;
    location    "56";
    object      sigma;
}
// * * * * * * * * * * * * * * * * * * * * * * * * * * * * * * * * * * * * * //

dimensions      [0 0 0 0 0 0 0];

internalField   nonuniform List<symmTensor> 
7680
(
(-0.180184 -0.001789 -1.59133e-20 0.18016 -5.03879e-21 2.42309e-05)
(-0.179482 -0.00226928 5.2644e-20 0.179414 1.27332e-19 6.86002e-05)
(-0.176755 -0.0025935 9.83812e-22 0.176645 -8.16152e-20 0.000110181)
(-0.17257 -0.0027984 -2.19792e-21 0.172421 6.81883e-20 0.000149229)
(-0.167553 -0.00292051 1.24671e-20 0.167367 -2.3994e-20 0.000185943)
(-0.161892 -0.00297718 -7.90394e-21 0.161672 2.5013e-20 0.000220473)
(-0.155962 -0.00298883 2.50475e-20 0.155709 -6.00137e-20 0.000252932)
(-0.149798 -0.00296428 9.27382e-21 0.149515 -1.8327e-20 0.000283398)
(-0.143632 -0.00291497 8.30747e-21 0.14332 -8.51214e-20 0.000311925)
(-0.137443 -0.00284577 1.8269e-20 0.137104 -6.696e-21 0.000338544)
(-0.131376 -0.0027632 -3.62769e-20 0.131013 -1.05607e-19 0.000363267)
(-0.125393 -0.00267009 1.88075e-20 0.125007 4.82477e-20 0.000386091)
(-0.119588 -0.00257024 2.46346e-21 0.119181 -9.07058e-20 0.000407002)
(-0.113919 -0.00246533 -3.26663e-20 0.113493 5.53019e-20 0.000425973)
(-0.108448 -0.00235761 -2.52794e-20 0.108005 -2.32281e-21 0.000442969)
(-0.103138 -0.00224813 5.52872e-21 0.10268 1.10864e-19 0.00045795)
(-0.0980281 -0.00213821 -1.04002e-20 0.0975573 -9.26179e-20 0.00047087)
(-0.0930885 -0.0020286 -3.3502e-21 0.0926069 2.01707e-19 0.000481678)
(-0.0883439 -0.00192 2.17199e-20 0.0878536 -1.08711e-19 0.000490317)
(-0.0837723 -0.00181306 -6.19527e-21 0.0832756 1.84556e-19 0.000496728)
(-0.0793871 -0.00170811 -2.99291e-20 0.0788862 -5.8279e-20 0.000500846)
(-0.0751746 -0.00160575 -3.19026e-20 0.074672 1.55305e-19 0.0005026)
(-0.0711393 -0.00150609 -3.44183e-20 0.0706373 -2.14326e-20 0.000501911)
(-0.0672761 -0.00140975 -2.56013e-20 0.0667774 1.94026e-19 0.000498696)
(-0.0635819 -0.00131671 -8.86202e-22 0.063089 -2.49599e-20 0.000492867)
(-0.0600602 -0.00122758 -6.29688e-20 0.0595759 1.56697e-19 0.000484328)
(-0.0567011 -0.00114231 1.00536e-20 0.0562281 8.89865e-20 0.000472985)
(-0.0535169 -0.00106134 -8.49437e-21 0.0530581 1.27371e-19 0.000458738)
(-0.0504911 -0.000985137 1.72438e-20 0.0500496 8.63754e-20 0.000441489)
(-0.0476446 -0.000912946 -4.5757e-20 0.0472235 4.44924e-20 0.000421141)
(-0.0449564 -0.00084818 -7.73366e-21 0.0445588 4.68692e-20 0.0003976)
(-0.0424522 -0.000784488 -3.36335e-20 0.0420815 -1.01775e-20 0.000370772)
(-0.0401141 -0.000736254 2.15412e-20 0.0397735 2.27534e-20 0.000340571)
(-0.0379593 -0.000680037 -5.42598e-20 0.0376524 -1.48193e-20 0.000306914)
(-0.0359942 -0.000654853 8.58605e-21 0.0357245 1.01713e-20 0.000269729)
(-0.0341991 -0.000612044 -7.61273e-20 0.0339702 2.16298e-20 0.000228953)
(-0.0326343 -0.000609125 5.72864e-21 0.0324498 -1.10599e-19 0.000184536)
(-0.0312241 -0.000587433 -1.97308e-21 0.0310877 4.58828e-20 0.00013644)
(-0.0300672 -0.00062017 -2.81555e-20 0.0299826 -8.52024e-20 8.46498e-05)
(-0.0290896 -0.000817242 2.13066e-20 0.0290605 -4.29677e-20 2.91656e-05)
(-0.180101 -0.00719511 2.11173e-20 0.180076 1.17068e-20 2.42589e-05)
(-0.179285 -0.00849147 -3.6438e-20 0.179216 6.82031e-20 6.86657e-05)
(-0.176475 -0.00935104 -3.26444e-20 0.176364 1.27485e-20 0.000110282)
(-0.172231 -0.00987566 4.48006e-20 0.172082 -1.87474e-20 0.000149366)
(-0.167172 -0.010172 -1.41038e-20 0.166986 -2.37382e-20 0.000186116)
(-0.161483 -0.0102882 -1.24162e-21 0.161263 5.40423e-20 0.000220684)
(-0.155535 -0.0102825 -3.29795e-20 0.155282 5.92899e-20 0.000253182)
(-0.14936 -0.0101794 -1.54544e-20 0.149077 2.5502e-20 0.000283689)
(-0.143189 -0.0100113 -5.82751e-21 0.142877 1.40432e-19 0.000312259)
(-0.136999 -0.00979151 8.35804e-21 0.13666 1.18771e-19 0.000338922)
(-0.130935 -0.00953834 5.30919e-20 0.130571 -1.89052e-20 0.000363692)
(-0.124957 -0.00925937 5.75952e-21 0.12457 7.2878e-20 0.000386564)
(-0.119159 -0.0089651 2.46167e-20 0.118751 -7.70264e-20 0.000407524)
(-0.113498 -0.00866001 5.08997e-20 0.113071 6.48194e-20 0.000426545)
(-0.108036 -0.00835013 3.27947e-20 0.107593 -1.52416e-19 0.000443593)
(-0.102736 -0.00803833 -6.60114e-20 0.102277 -1.50799e-20 0.000458626)
(-0.0976362 -0.00772788 7.03493e-20 0.0971646 1.18492e-21 0.000471598)
(-0.0927073 -0.00742094 -1.95358e-20 0.0922248 -5.37521e-20 0.000482457)
(-0.0879737 -0.00711893 -1.18575e-20 0.0874825 9.51703e-20 0.000491149)
(-0.083413 -0.00682389 1.10895e-20 0.0829154 -4.74273e-20 0.000497612)
(-0.0790388 -0.00653591 -6.33453e-20 0.078537 1.46435e-20 0.000501781)
(-0.074837 -0.00625721 3.63538e-20 0.0743334 -8.38036e-20 0.000503583)
(-0.0708125 -0.00598692 -7.44788e-21 0.0703096 4.70736e-20 0.000502941)
(-0.0669596 -0.00572759 1.09121e-20 0.0664599 -1.39116e-19 0.000499769)
(-0.0632757 -0.00547756 -9.36005e-20 0.0627817 -1.81333e-21 0.000493978)
(-0.0597636 -0.00523987 8.13436e-20 0.0592781 -8.56719e-20 0.000485471)
(-0.056414 -0.00501215 -4.16387e-20 0.0559399 4.66862e-21 0.000474152)
(-0.0532384 -0.00479781 -2.58141e-21 0.0527785 -4.8839e-20 0.000459919)
(-0.0502214 -0.00459454 -7.2423e-20 0.0497787 -6.01726e-20 0.000442675)
(-0.0473825 -0.00440453 -4.28868e-20 0.0469601 1.83644e-20 0.000422321)
(-0.0447022 -0.00422933 -4.26329e-20 0.0443034 -2.32338e-20 0.000398759)
(-0.0422046 -0.00406263 -3.96565e-20 0.0418327 2.7825e-21 0.000371897)
(-0.0398735 -0.00392311 3.04496e-20 0.0395318 -8.82881e-21 0.000341645)
(-0.0377258 -0.00377578 2.01558e-20 0.0374178 -6.00878e-20 0.00030792)
(-0.0357647 -0.0036824 8.69011e-21 0.0354941 3.25896e-20 0.000270647)
(-0.0339812 -0.00355683 -1.24205e-19 0.0337515 -6.10944e-22 0.000229762)
(-0.032413 -0.00350958 -4.48626e-20 0.0322278 5.66978e-21 0.000185216)
(-0.0310247 -0.00341996 2.28055e-20 0.0308878 3.037e-20 0.000136967)
(-0.0298546 -0.00342068 -1.07436e-19 0.0297696 -2.55759e-20 8.50003e-05)
(-0.0288919 -0.00358701 8.16015e-21 0.0288626 3.6672e-20 2.93049e-05)
(-0.179887 -0.012605 2.53585e-20 0.179863 -4.25187e-20 2.42371e-05)
(-0.178848 -0.0146992 6.17481e-20 0.178779 5.73115e-20 6.86156e-05)
(-0.175877 -0.0160809 -1.75448e-20 0.175767 -2.07611e-19 0.000110208)
(-0.17152 -0.0169157 -3.00642e-20 0.17137 1.46358e-19 0.000149273)
(-0.16638 -0.0173793 7.37139e-20 0.166194 -1.24837e-19 0.000186009)
(-0.160638 -0.01755 5.03625e-20 0.160417 -1.15831e-20 0.000220567)
(-0.154654 -0.0175234 2.43465e-20 0.154401 -1.09052e-19 0.00025306)
(-0.148459 -0.0173395 6.26656e-20 0.148176 1.47838e-20 0.000283567)
(-0.142279 -0.0170511 8.66791e-20 0.141967 -1.39075e-20 0.000312142)
(-0.136088 -0.01668 -8.67433e-20 0.135749 -6.36769e-21 0.000338814)
(-0.130029 -0.0162559 -5.44665e-20 0.129665 -1.57102e-19 0.000363598)
(-0.124061 -0.0157911 -3.01934e-20 0.123674 7.47675e-20 0.000386489)
(-0.118276 -0.0153027 4.22098e-21 0.117868 -5.65591e-20 0.000407473)
(-0.112631 -0.014798 -9.43642e-20 0.112205 5.72399e-20 0.000426522)
(-0.107187 -0.0142867 -9.3243e-20 0.106744 8.10106e-20 0.000443602)
(-0.101906 -0.0137735 1.17248e-19 0.101447 1.01232e-19 0.000458672)
(-0.0968267 -0.0132634 -3.28003e-20 0.096355 6.42295e-20 0.000471686)
(-0.0919185 -0.0127601 6.11016e-20 0.0914359 1.62221e-19 0.00048259)
(-0.0872059 -0.0122657 6.05221e-20 0.0867145 -1.49268e-19 0.00049133)
(-0.0826661 -0.0117836 -9.03237e-20 0.0821683 1.31802e-19 0.000497843)
(-0.0783128 -0.0113137 -5.12615e-20 0.0778107 -3.83702e-20 0.000502065)
(-0.0741316 -0.0108598 -2.01877e-20 0.0736276 1.32283e-19 0.00050392)
(-0.0701271 -0.01042 -7.14702e-20 0.0696238 -1.17652e-20 0.00050333)
(-0.0662938 -0.0099988 -8.05222e-20 0.0657936 6.77669e-20 0.00050021)
(-0.0626288 -0.00959305 4.18292e-20 0.0621343 1.92124e-19 0.000494467)
(-0.059135 -0.0092078 -5.9558e-20 0.058649 1.10114e-19 0.000486004)
(-0.0558027 -0.00883901 5.51133e-20 0.055328 1.93644e-19 0.000474724)
(-0.0526437 -0.00849206 -6.532e-20 0.0521832 4.78417e-20 0.000460526)
(-0.049642 -0.00816312 8.23781e-20 0.0491987 1.61434e-19 0.000443308)
(-0.0468178 -0.00785558 2.92525e-21 0.0463948 1.39756e-22 0.000422971)
(-0.0441504 -0.00757111 -2.12269e-20 0.043751 8.15625e-20 0.000399416)
(-0.0416657 -0.00730163 -1.6717e-20 0.0412931 8.62717e-20 0.000372549)
(-0.0393442 -0.00707035 -6.68495e-20 0.0390019 1.82214e-19 0.000342279)
(-0.0372077 -0.00683538 7.45354e-21 0.0368992 -2.8295e-19 0.000308521)
(-0.0352532 -0.0066671 6.21746e-20 0.034982 2.08954e-19 0.0002712)
(-0.0334792 -0.00647336 -9.46658e-20 0.0332489 -1.02242e-19 0.00023025)
(-0.0319161 -0.00636356 2.61476e-20 0.0317305 1.12106e-20 0.00018562)
(-0.0305376 -0.00623145 -4.82642e-20 0.0304004 1.17014e-19 0.00013727)
(-0.0293709 -0.00618264 -2.15945e-20 0.0292857 -5.4129e-20 8.51839e-05)
(-0.0284149 -0.00632292 -9.05166e-21 0.0283856 1.77933e-19 2.93584e-05)
(-0.179542 -0.0180175 7.27502e-20 0.179518 6.49001e-20 2.42055e-05)
(-0.178174 -0.0208808 -9.7922e-20 0.178106 2.66345e-20 6.85135e-05)
(-0.174965 -0.0227631 -1.15853e-20 0.174855 2.85605e-19 0.000110042)
(-0.17044 -0.0238926 1.35209e-19 0.170291 -2.46812e-19 0.000149048)
(-0.165183 -0.0245121 -1.2177e-19 0.164997 7.23227e-20 0.000185733)
(-0.159362 -0.0247293 1.34951e-20 0.159141 7.02592e-20 0.000220248)
(-0.153326 -0.0246762 -2.17415e-20 0.153074 7.78385e-20 0.000252704)
(-0.147102 -0.0244077 5.4897e-20 0.146819 -2.87615e-20 0.000283181)
(-0.140908 -0.0239967 1.44769e-20 0.140597 -1.03922e-19 0.000311732)
(-0.134716 -0.0234729 -7.02729e-20 0.134377 -5.58248e-20 0.000338388)
(-0.128665 -0.0228774 9.75909e-20 0.128302 5.23491e-20 0.000363162)
(-0.122712 -0.022227 7.73641e-20 0.122326 1.40401e-20 0.000386049)
(-0.116947 -0.0215452 3.55227e-20 0.11654 -1.63469e-19 0.000407036)
(-0.111326 -0.0208419 1.5029e-19 0.1109 1.22553e-19 0.000426094)
(-0.105909 -0.0201305 6.87593e-20 0.105466 -7.61295e-21 0.00044319)
(-0.100656 -0.0194172 -1.1696e-19 0.100198 3.25222e-19 0.000458282)
(-0.0956068 -0.0187091 1.74461e-19 0.0951355 -2.03502e-19 0.000471324)
(-0.090729 -0.0180111 -2.26158e-19 0.0902467 2.22282e-19 0.000482262)
(-0.0860472 -0.017326 -1.58883e-20 0.0855562 -1.36038e-19 0.000491042)
(-0.0815381 -0.0166586 1.05395e-19 0.0810405 1.34514e-19 0.0004976)
(-0.0772153 -0.0160084 -5.64481e-20 0.0767134 -1.35208e-19 0.00050187)
(-0.0730639 -0.0153809 6.39817e-20 0.0725601 6.11149e-21 0.000503778)
(-0.0690888 -0.0147732 -6.47258e-20 0.0685856 2.18522e-20 0.000503243)
(-0.0652838 -0.0141917 1.77916e-19 0.0647836 1.63849e-19 0.000500177)
(-0.0616464 -0.0136315 -1.94039e-20 0.0611519 -1.12163e-19 0.00049449)
(-0.0581787 -0.0131002 9.013e-20 0.0576926 8.14712e-20 0.000486082)
(-0.0548717 -0.0125914 -7.4921e-20 0.0543969 1.53203e-20 0.000474855)
(-0.0517364 -0.0121135 -3.93073e-20 0.0512756 1.02454e-19 0.000460706)
(-0.048757 -0.0116597 -9.50391e-20 0.0483135 -1.40881e-19 0.000443534)
(-0.0459539 -0.0112367 -1.28232e-19 0.0455306 1.07165e-19 0.000423237)
(-0.0433049 -0.0108439 6.50934e-20 0.0429051 -1.81534e-20 0.000399716)
(-0.0408393 -0.0104737 1.04663e-19 0.0404664 4.89064e-20 0.000372873)
(-0.03853 -0.0101531 -3.54849e-19 0.0381874 1.20442e-19 0.000342618)
(-0.0364132 -0.0098289 6.19682e-22 0.0361044 -1.43837e-20 0.000308864)
(-0.0344613 -0.00959461 2.32362e-19 0.0341898 1.0994e-19 0.000271535)
(-0.0327107 -0.00931815 -3.46919e-19 0.0324802 4.76484e-20 0.000230562)
(-0.0311396 -0.00916632 1.99776e-19 0.0309537 8.05716e-20 0.000185897)
(-0.0297873 -0.00896274 -3.60058e-20 0.0296498 9.29372e-20 0.000137496)
(-0.0286092 -0.00888072 -2.7932e-20 0.0285239 -9.73873e-20 8.53425e-05)
(-0.027661 -0.00897988 -6.70483e-20 0.0276315 -1.72376e-19 2.9427e-05)
(-0.179064 -0.0234342 4.48499e-20 0.17904 -1.37667e-19 2.4134e-05)
(-0.177265 -0.0270256 2.2556e-19 0.177197 -2.37293e-19 6.83235e-05)
(-0.173744 -0.0293785 -1.16079e-19 0.173634 -3.15539e-19 0.000109743)
(-0.169 -0.030781 -1.45208e-19 0.168851 -3.59983e-20 0.00014865)
(-0.163588 -0.0315405 2.65941e-19 0.163403 2.41451e-20 0.000185245)
(-0.157663 -0.031793 7.77671e-20 0.157444 -1.70795e-19 0.000219678)
(-0.151561 -0.0317056 -1.81079e-20 0.151309 -1.61725e-19 0.000252063)
(-0.145299 -0.0313472 -6.98695e-20 0.145016 9.07344e-20 0.000282477)
(-0.139088 -0.0308102 6.89309e-20 0.138777 5.23538e-20 0.000310973)
(-0.132894 -0.030132 -1.20195e-20 0.132556 1.17267e-19 0.000337583)
(-0.126854 -0.0293644 1.09269e-20 0.126492 -1.99177e-19 0.00036232)
(-0.120921 -0.0285287 -2.04202e-19 0.120536 1.28871e-19 0.000385178)
(-0.115183 -0.0276544 8.81745e-20 0.114777 -1.31452e-19 0.000406144)
(-0.109594 -0.0267538 7.67711e-21 0.109169 1.96406e-19 0.00042519)
(-0.104212 -0.0258439 1.20465e-19 0.10377 -1.24691e-20 0.000442282)
(-0.0989967 -0.0249326 -3.36635e-20 0.0985393 1.87811e-19 0.000457378)
(-0.0939865 -0.0240286 -7.15444e-20 0.0935161 -2.77503e-19 0.000470432)
(-0.0891486 -0.0231383 1.50038e-19 0.0886672 1.04905e-19 0.000481391)
(-0.0845074 -0.0222649 -7.09677e-20 0.0840172 5.35906e-20 0.000490198)
(-0.0800385 -0.0214146 -5.61055e-20 0.0795417 -4.31083e-20 0.000496792)
(-0.0757557 -0.0205866 -2.04482e-19 0.0752546 2.15965e-19 0.000501104)
(-0.0716434 -0.0197879 1.14294e-19 0.0711403 1.7947e-19 0.000503059)
(-0.0677068 -0.0190147 6.36123e-20 0.0672042 1.06037e-19 0.000502577)
(-0.0639387 -0.0182751 -1.5067e-19 0.0634391 -1.82753e-19 0.000499569)
(-0.0603372 -0.0175629 -5.76171e-20 0.0598433 2.94174e-19 0.000493942)
(-0.0569038 -0.0168877 1.11228e-19 0.0564182 -4.63512e-20 0.000485597)
(-0.0536296 -0.0162411 1.12037e-19 0.0531552 1.62741e-19 0.000474434)
(-0.0505253 -0.015634 -1.89027e-19 0.050065 5.30313e-20 0.000460349)
(-0.047575 -0.0150575 6.79608e-20 0.0471317 3.24411e-19 0.00044324)
(-0.0447996 -0.0145205 1.22791e-19 0.0443766 2.06066e-19 0.000423004)
(-0.0421743 -0.0140204 -1.16712e-19 0.0417747 2.91248e-19 0.000399541)
(-0.0397342 -0.0135519 2.31563e-19 0.0393614 -6.75845e-20 0.000372751)
(-0.0374407 -0.0131394 -9.45469e-20 0.0370981 1.95055e-19 0.000342543)
(-0.0353496 -0.0127347 -9.45838e-20 0.0350408 1.20992e-19 0.000308828)
(-0.0334011 -0.0124212 1.84172e-19 0.0331295 3.04937e-19 0.000271529)
(-0.0316787 -0.0120879 -8.95662e-20 0.0314482 -7.0468e-20 0.000230578)
(-0.0300973 -0.0118646 6.41644e-20 0.0299114 1.80262e-20 0.000185923)
(-0.028772 -0.011631 -2.05789e-19 0.0286345 7.58615e-20 0.000137522)
(-0.0275774 -0.011491 -3.66607e-19 0.0274921 -4.63352e-20 8.53584e-05)
(-0.0266305 -0.0115662 1.2649e-19 0.026601 1.40165e-19 2.94273e-05)
(-0.178452 -0.0288536 2.5721e-20 0.178428 7.12997e-20 2.40517e-05)
(-0.176124 -0.0331223 -2.16732e-19 0.176055 3.23707e-19 6.80793e-05)
(-0.17222 -0.0359081 1.73229e-19 0.17211 -5.54153e-20 0.000109348)
(-0.167207 -0.0375562 2.13469e-19 0.167059 3.65836e-19 0.000148116)
(-0.161606 -0.038436 -1.99465e-19 0.161422 -9.75006e-21 0.000184584)
(-0.155555 -0.0387097 -5.74753e-20 0.155336 -8.30996e-20 0.000218902)
(-0.149372 -0.038578 1.36966e-19 0.14912 1.16154e-19 0.000251182)
(-0.143063 -0.0381232 2.09719e-19 0.142781 -9.59267e-20 0.000281502)
(-0.136831 -0.0374562 4.3786e-20 0.136521 -1.08082e-19 0.000309916)
(-0.130637 -0.0366212 -2.60487e-19 0.1303 1.3871e-19 0.000336453)
(-0.124611 -0.0356809 8.67157e-20 0.12425 2.26752e-19 0.000361127)
(-0.118703 -0.03466 1.11077e-19 0.118319 1.10353e-19 0.000383933)
(-0.112998 -0.0335944 3.52284e-20 0.112593 8.31987e-21 0.000404856)
(-0.107448 -0.0324983 3.02379e-19 0.107024 -2.10445e-19 0.00042387)
(-0.10211 -0.0313922 7.51103e-20 0.101669 3.4183e-20 0.000440941)
(-0.0969411 -0.0302854 -2.37742e-19 0.096485 -9.63944e-20 0.000456025)
(-0.0919794 -0.0291884 9.83357e-21 0.0915103 1.95776e-19 0.000469078)
(-0.0871908 -0.0281086 5.03616e-20 0.0867107 1.904e-19 0.000480046)
(-0.0825995 -0.0270499 -1.16992e-19 0.0821106 5.72571e-20 0.000488872)
(-0.0781801 -0.0260196 2.44136e-19 0.0776846 2.2544e-19 0.000495494)
(-0.0739467 -0.0250168 1.06626e-19 0.0734468 2.23448e-19 0.000499843)
(-0.0698823 -0.0240497 -6.69002e-20 0.0693805 1.88076e-19 0.000501844)
(-0.065993 -0.0231138 -3.19046e-19 0.0654916 -1.80417e-19 0.000501415)
(-0.0622703 -0.0222189 3.3369e-19 0.0617719 2.47243e-19 0.000498467)
(-0.0587132 -0.0213572 9.58136e-20 0.0582203 8.42042e-20 0.000492906)
(-0.0553217 -0.0205406 -9.60039e-20 0.0548371 3.01032e-19 0.000484633)
(-0.0520881 -0.0197584 1.14534e-19 0.0516146 -1.21331e-19 0.000473545)
(-0.0490218 -0.0190248 1.43776e-19 0.0485622 1.31766e-19 0.00045954)
(-0.0461071 -0.018327 5.35873e-20 0.0456646 -9.31237e-20 0.000442513)
(-0.0433655 -0.017679 -6.43624e-20 0.0429431 -1.02521e-19 0.00042236)
(-0.0407694 -0.0170725 -1.12639e-19 0.0403704 -5.59581e-19 0.00039898)
(-0.0383594 -0.0165094 -2.68895e-20 0.0379872 2.13925e-20 0.000372272)
(-0.0360854 -0.0160058 -7.04027e-21 0.0357433 -3.16949e-19 0.000342143)
(-0.034023 -0.0155225 1.01845e-19 0.0337145 6.51952e-20 0.000308503)
(-0.0320807 -0.0151345 1.48995e-19 0.0318094 -3.06003e-19 0.000271275)
(-0.0303863 -0.014736 -6.30633e-19 0.0301559 -1.48128e-19 0.000230389)
(-0.0288002 -0.0144574 4.18718e-19 0.0286144 -1.75093e-19 0.000185792)
(-0.0274955 -0.0141722 -3.02015e-20 0.027358 -5.00897e-20 0.000137443)
(-0.0262968 -0.0139936 4.05768e-20 0.0262115 -4.95876e-19 8.53228e-05)
(-0.0253426 -0.0140396 -2.644e-19 0.0253132 9.45058e-20 2.94243e-05)
(-0.177703 -0.0342767 2.05228e-19 0.177679 -1.07417e-19 2.39304e-05)
(-0.174753 -0.0391607 1.32784e-19 0.174685 4.66323e-20 6.77476e-05)
(-0.170399 -0.0423338 -1.86825e-19 0.170291 -1.52085e-20 0.000108821)
(-0.165072 -0.0441948 2.57287e-21 0.164925 -3.11063e-19 0.000147409)
(-0.15925 -0.0451706 1.49988e-20 0.159066 1.3345e-19 0.000183711)
(-0.153051 -0.0454486 -3.05745e-21 0.152833 4.45056e-19 0.000217876)
(-0.146773 -0.0452607 -6.88646e-20 0.146523 1.6579e-20 0.000250015)
(-0.140411 -0.0447015 -2.30067e-19 0.140131 1.48513e-19 0.000280208)
(-0.134156 -0.0438994 2.93367e-19 0.133847 -1.41266e-20 0.000308508)
(-0.127961 -0.0429051 2.27601e-19 0.127626 1.03301e-19 0.000334943)
(-0.121953 -0.041791 -5.63967e-20 0.121593 -5.24428e-21 0.000359526)
(-0.116074 -0.0405854 -3.64156e-19 0.115692 1.68748e-19 0.000382255)
(-0.11041 -0.0393297 -1.86076e-19 0.110007 -4.74988e-22 0.000403113)
(-0.104906 -0.0380404 -4.26595e-20 0.104484 3.19049e-19 0.000422073)
(-0.09962 -0.0367407 3.39205e-19 0.0991809 -1.69639e-19 0.000439101)
(-0.0945062 -0.0354415 1.1465e-19 0.094052 -7.6547e-21 0.000454156)
(-0.089602 -0.0341548 1.07077e-19 0.0891348 8.8361e-21 0.000467191)
(-0.0848717 -0.032889 8.57216e-20 0.0843935 -1.80568e-20 0.000478154)
(-0.0803395 -0.0316486 -2.48614e-20 0.0798525 -1.30235e-19 0.000486987)
(-0.0759786 -0.030442 1.13947e-19 0.0754849 -2.18071e-19 0.000493628)
(-0.0718033 -0.029268 -1.21541e-19 0.0713053 -1.24477e-21 0.000498007)
(-0.0677956 -0.0281362 -5.85513e-20 0.0672956 -3.33314e-19 0.000500049)
(-0.063962 -0.0270411 -5.76897e-21 0.0634623 2.02505e-19 0.000499672)
(-0.0602928 -0.0259943 5.06313e-20 0.059796 -1.36508e-19 0.000496786)
(-0.0567877 -0.0249863 1.57369e-19 0.0562964 -1.16264e-19 0.000491297)
(-0.0534456 -0.0240315 -3.20501e-20 0.0529625 -7.13142e-20 0.000483103)
(-0.0502595 -0.0231166 -9.61389e-20 0.0497874 -9.51189e-21 0.000472103)
(-0.0472377 -0.022259 -3.15331e-20 0.0467795 -3.25985e-19 0.000458192)
(-0.0443653 -0.0214427 -2.07015e-19 0.043924 6.36171e-19 0.000441266)
(-0.0416629 -0.0206861 -2.6419e-19 0.0412417 -5.25237e-20 0.000421219)
(-0.0391023 -0.019975 -1.08545e-19 0.0387044 3.61375e-19 0.000397948)
(-0.0367268 -0.0193205 4.37529e-19 0.0363554 1.40667e-19 0.000371352)
(-0.0344786 -0.0187248 -3.15634e-20 0.0341373 -1.94313e-19 0.000341337)
(-0.0324478 -0.0181715 -1.26894e-19 0.03214 2.39465e-19 0.00030781)
(-0.0305163 -0.0177002 1.39171e-19 0.0302456 -1.65306e-19 0.000270694)
(-0.0288531 -0.017259 -2.86118e-20 0.0286232 -4.10829e-20 0.000229918)
(-0.027258 -0.0169034 1.88942e-20 0.0270725 2.1374e-20 0.00018543)
(-0.0259824 -0.0166021 -5.0599e-19 0.0258452 -9.71793e-20 0.000137185)
(-0.02476 -0.0163634 -2.43097e-19 0.0246748 -1.44185e-19 8.51667e-05)
(-0.023811 -0.0163937 2.8124e-19 0.0237816 6.03506e-19 2.93697e-05)
(-0.176815 -0.0397016 9.47701e-20 0.176791 1.47807e-19 2.37974e-05)
(-0.173157 -0.04513 -2.80081e-20 0.173089 -6.68087e-20 6.73605e-05)
(-0.168293 -0.0486381 -1.86797e-20 0.168185 1.11732e-19 0.000108197)
(-0.162608 -0.050674 1.46914e-19 0.162461 7.3458e-19 0.000146565)
(-0.156534 -0.0517183 2.41857e-19 0.156352 6.85774e-20 0.000182663)
(-0.150169 -0.0519809 8.44247e-21 0.149953 -4.33581e-19 0.00021664)
(-0.143784 -0.0517231 1.32547e-20 0.143535 -6.85494e-20 0.000248607)
(-0.137362 -0.0510504 1.73195e-19 0.137083 -1.51691e-19 0.000278641)
(-0.131081 -0.0501076 -7.48641e-20 0.130774 -3.20459e-20 0.000306797)
(-0.124888 -0.0489509 -1.31787e-19 0.124554 -1.48017e-19 0.000333102)
(-0.1189 -0.047662 2.94131e-19 0.118542 -1.16099e-19 0.000357571)
(-0.113057 -0.0462721 2.38499e-19 0.112676 -2.47527e-19 0.000380197)
(-0.107438 -0.0448281 7.28347e-20 0.107037 1.04254e-19 0.000400967)
(-0.101989 -0.0433478 8.00591e-20 0.101569 -3.21963e-20 0.000419853)
(-0.0967625 -0.0418578 -1.39574e-19 0.0963256 -3.74915e-19 0.000436822)
(-0.091712 -0.0403697 -1.1089e-19 0.0912602 8.22467e-20 0.000451831)
(-0.0868739 -0.0388972 1.23351e-19 0.0864091 -3.13472e-19 0.000464834)
(-0.0822107 -0.0374495 -2.70946e-20 0.0817349 5.24265e-20 0.000475779)
(-0.0777464 -0.0360316 -1.91489e-19 0.0772618 -4.77856e-19 0.000484609)
(-0.0734526 -0.0346529 3.7135e-19 0.0729613 7.73833e-20 0.00049126)
(-0.0693442 -0.033312 1.03275e-19 0.0688485 -9.50771e-20 0.000495663)
(-0.0654014 -0.0320196 7.76801e-20 0.0649037 6.56372e-20 0.000497743)
(-0.0616317 -0.0307693 -2.02311e-19 0.0611343 1.59598e-19 0.000497417)
(-0.0580238 -0.0295744 3.09872e-20 0.0575292 8.06293e-20 0.000494594)
(-0.0545785 -0.0284239 1.31895e-19 0.0540893 1.38828e-19 0.00048918)
(-0.0512929 -0.0273343 1.9969e-19 0.0508119 -3.07922e-19 0.000481073)
(-0.0481616 -0.0262901 -2.63834e-19 0.0476914 2.42191e-19 0.000470171)
(-0.0451907 -0.025312 9.39693e-19 0.0447343 -5.53489e-19 0.000456369)
(-0.0423668 -0.0243797 3.18036e-19 0.0419272 4.88178e-19 0.000439561)
(-0.039709 -0.023518 -2.34359e-19 0.0392893 -5.74735e-19 0.00041964)
(-0.0371893 -0.0227041 -2.58128e-19 0.0367928 4.88168e-19 0.000396503)
(-0.0348517 -0.0219617 -5.95537e-19 0.0344816 -5.12725e-20 0.000370047)
(-0.0326342 -0.0212751 9.11846e-20 0.032294 1.91734e-19 0.000340177)
(-0.0306351 -0.0206539 9.70133e-20 0.0303283 2.81784e-19 0.000306799)
(-0.0287212 -0.0201027 -3.07384e-19 0.0284514 1.46424e-19 0.000269836)
(-0.0270831 -0.0196142 -4.33297e-19 0.0268538 2.15208e-20 0.000229214)
(-0.0254936 -0.019194 3.98783e-19 0.0253087 2.91419e-19 0.000184882)
(-0.0242307 -0.0188628 -2.34255e-19 0.0240939 2.8353e-19 0.000136794)
(-0.0230093 -0.0185843 6.76721e-19 0.0229244 -1.87987e-19 8.49335e-05)
(-0.0220418 -0.0185946 -5.43549e-19 0.0220125 1.00245e-19 2.92942e-05)
(-0.175784 -0.0451284 1.19866e-19 0.17576 -1.11567e-19 2.36261e-05)
(-0.17134 -0.0510207 1.42186e-19 0.171273 -8.81018e-20 6.68869e-05)
(-0.16591 -0.0548043 2.34888e-19 0.165802 -8.18268e-20 0.000107442)
(-0.159829 -0.0569724 1.2366e-19 0.159683 -7.30151e-19 0.000145548)
(-0.153478 -0.058054 -4.83242e-19 0.153296 -5.05443e-19 0.000181403)
(-0.146928 -0.0582792 -2.87946e-20 0.146713 1.61623e-19 0.000215154)
(-0.140426 -0.057936 2.34368e-20 0.140179 2.39643e-19 0.000246913)
(-0.133939 -0.0571396 -1.6613e-19 0.133662 1.93282e-20 0.000276756)
(-0.127631 -0.0560495 2.54266e-19 0.127326 3.37276e-19 0.000304737)
(-0.12144 -0.054727 2.6401e-19 0.121109 -4.7027e-19 0.000330883)
(-0.115476 -0.0532621 -3.11007e-19 0.11512 3.14203e-19 0.000355208)
(-0.109673 -0.0516885 -6.43979e-20 0.109296 -2.93786e-19 0.000377707)
(-0.104107 -0.0500579 -3.27323e-21 0.103709 7.885e-20 0.000398366)
(-0.0987193 -0.0483896 -2.76353e-19 0.0983021 -9.10984e-20 0.000417156)
(-0.0935604 -0.0467128 3.27893e-19 0.0931264 2.50182e-19 0.000434044)
(-0.0885814 -0.0450398 1.83281e-19 0.0881324 -2.17155e-19 0.000448989)
(-0.0838177 -0.0433859 -9.56131e-20 0.0833558 4.45349e-19 0.000461944)
(-0.0792298 -0.0417609 8.4433e-20 0.078757 -2.57617e-19 0.000472857)
(-0.0748418 -0.0401704 -2.57701e-19 0.0743601 2.60163e-19 0.000481671)
(-0.0706233 -0.0386243 3.25012e-19 0.070135 -1.72837e-20 0.000488323)
(-0.0665898 -0.0371212 -4.43878e-20 0.0660971 -1.95891e-19 0.000492744)
(-0.0627198 -0.0356728 1.75611e-19 0.0622249 -7.09196e-20 0.000494857)
(-0.0590217 -0.034272 1.28242e-19 0.0585271 -1.51413e-19 0.00049458)
(-0.0554822 -0.0329333 -5.34654e-20 0.0549904 -3.1837e-20 0.000491822)
(-0.0521038 -0.0316445 -3.50341e-19 0.0516173 1.90017e-19 0.000486488)
(-0.0488812 -0.030424 2.51323e-19 0.0484027 -5.36554e-19 0.000478477)
(-0.045811 -0.0292542 -5.84719e-19 0.0453433 1.40922e-19 0.000467686)
(-0.0428967 -0.0281588 -1.18152e-19 0.0424427 1.9159e-19 0.000454007)
(-0.0401274 -0.0271139 2.45294e-19 0.0396901 3.59075e-20 0.000437337)
(-0.0375187 -0.0261498 -1.04001e-19 0.0371012 -2.73669e-19 0.000417566)
(-0.0350463 -0.0252359 6.42389e-19 0.0346517 1.81954e-19 0.000394591)
(-0.0327494 -0.0244088 1.82306e-19 0.0323811 -2.67151e-19 0.000368307)
(-0.03057 -0.0236329 -3.56196e-20 0.0302314 6.05878e-19 0.000338618)
(-0.0286026 -0.0229497 2.75859e-19 0.0282972 -7.53918e-19 0.00030543)
(-0.0267145 -0.0223166 -1.58613e-19 0.0264458 5.55279e-19 0.000268663)
(-0.0250996 -0.021794 3.7745e-20 0.0248714 -1.86801e-19 0.000228244)
(-0.0235183 -0.0212992 2.36631e-19 0.0233342 5.02544e-19 0.000184119)
(-0.0222727 -0.0209597 -9.33122e-19 0.0221365 -3.48007e-19 0.000136244)
(-0.0210393 -0.0206254 -3.92913e-19 0.0209547 1.51885e-19 8.46006e-05)
(-0.0200767 -0.0206302 5.07178e-19 0.0200475 3.89676e-19 2.91829e-05)
(-0.174607 -0.0505547 -9.30351e-20 0.174584 6.77396e-19 2.34425e-05)
(-0.169308 -0.0568227 -1.52683e-19 0.169242 3.14321e-19 6.63572e-05)
(-0.163262 -0.060817 -3.63715e-19 0.163155 1.00447e-19 0.000106589)
(-0.156751 -0.0630702 9.96936e-21 0.156606 5.35077e-19 0.000144393)
(-0.150099 -0.0641548 5.77842e-19 0.149919 6.80312e-19 0.000179968)
(-0.143351 -0.0643184 2.03167e-19 0.143137 2.6718e-19 0.000213458)
(-0.136722 -0.0638729 -2.93384e-20 0.136477 -1.003e-19 0.000244976)
(-0.130166 -0.0629414 2.55078e-19 0.129891 -2.9538e-19 0.000274596)
(-0.12383 -0.0616972 -4.03578e-19 0.123528 -2.82525e-19 0.000302372)
(-0.117643 -0.0602051 -1.86043e-19 0.117315 2.32522e-19 0.000328332)
(-0.111707 -0.058563 3.38605e-19 0.111355 4.96983e-19 0.000352488)
(-0.105951 -0.0568063 -2.02156e-19 0.105576 4.44516e-19 0.000374835)
(-0.100443 -0.0549914 2.11024e-19 0.100048 2.9961e-19 0.000395359)
(-0.0951235 -0.0531381 4.34503e-20 0.0947094 3.05376e-19 0.000414033)
(-0.0900396 -0.0512785 -4.45574e-19 0.0896088 5.97269e-20 0.000430822)
(-0.0851397 -0.0494252 1.56781e-19 0.084694 -5.92189e-20 0.000445685)
(-0.0804584 -0.0475949 6.73153e-20 0.0799998 -1.04232e-20 0.000458577)
(-0.0759538 -0.0457977 -9.95029e-20 0.0754843 -2.53075e-19 0.000469444)
(-0.0716499 -0.0440398 -7.69457e-20 0.0711717 -2.46778e-19 0.000478232)
(-0.0675145 -0.0423317 -1.99206e-19 0.0670296 4.12951e-19 0.000484875)
(-0.0635637 -0.0406717 5.25774e-20 0.0630744 6.80314e-22 0.000489305)
(-0.0597738 -0.0390726 -3.76815e-20 0.0592823 3.77399e-19 0.000491446)
(-0.0561546 -0.0375263 -4.86708e-20 0.0556633 -1.09508e-19 0.000491216)
(-0.0526905 -0.0360487 4.86947e-19 0.052202 1.28811e-19 0.000488523)
(-0.0493858 -0.0346263 -4.54837e-19 0.0489025 2.3644e-19 0.000483273)
(-0.0462326 -0.0332795 9.66715e-20 0.0457573 -1.03382e-19 0.000475363)
(-0.0432298 -0.0319883 4.52822e-19 0.0427651 5.88097e-19 0.000464691)
(-0.0403777 -0.0307798 5.06295e-19 0.0399266 1.75936e-19 0.000451149)
(-0.0376686 -0.0296261 -1.52459e-19 0.037234 4.101e-19 0.000434631)
(-0.0351138 -0.0285632 -5.06352e-19 0.0346988 4.7869e-19 0.00041503)
(-0.0326934 -0.0275527 -2.23971e-19 0.0323012 6.73668e-20 0.000392239)
(-0.0304403 -0.0266435 4.30567e-20 0.0300742 -1.55471e-20 0.000366155)
(-0.0283041 -0.0257816 -3.02303e-19 0.0279675 -1.97037e-20 0.000336678)
(-0.0263686 -0.0250368 1.16455e-19 0.0260649 -2.06431e-19 0.000303715)
(-0.0245137 -0.0243271 4.2753e-19 0.0242465 2.84507e-19 0.000267184)
(-0.022917 -0.0237659 -4.58878e-19 0.02269 -3.47268e-19 0.000227012)
(-0.0213577 -0.023208 7.27166e-19 0.0211745 3.72639e-20 0.000183143)
(-0.0201158 -0.0228488 -2.64418e-19 0.0199803 -1.30919e-19 0.000135534)
(-0.0188913 -0.0224772 1.04846e-18 0.0188072 5.37219e-19 8.41657e-05)
(-0.0179089 -0.0224634 -6.39874e-19 0.0178798 -3.39727e-19 2.90336e-05)
(-0.173281 -0.0559796 6.20455e-20 0.173257 -4.44502e-19 2.32215e-05)
(-0.167067 -0.0625274 5.33916e-21 0.167001 -5.38756e-19 6.5742e-05)
(-0.160362 -0.0666615 2.1383e-19 0.160256 1.84369e-19 0.000105607)
(-0.153391 -0.068949 1.1669e-19 0.153248 -5.34587e-20 0.000143068)
(-0.146419 -0.0699994 -7.7062e-19 0.146241 -1.25176e-19 0.000178322)
(-0.139461 -0.0700752 -2.50467e-20 0.139249 -8.53434e-19 0.000211515)
(-0.132698 -0.069509 -2.78358e-19 0.132456 -4.52834e-20 0.000242756)
(-0.12607 -0.0684304 -1.28125e-19 0.125798 -2.80841e-19 0.00027212)
(-0.119707 -0.0670245 5.61127e-19 0.119408 6.00126e-19 0.00029966)
(-0.113527 -0.0653587 5.69092e-19 0.113202 -2.67903e-20 0.000325404)
(-0.107623 -0.0635382 -3.33148e-20 0.107274 -4.29878e-20 0.000349363)
(-0.101917 -0.0615992 6.7395e-20 0.101546 -8.09267e-19 0.000371533)
(-0.0964754 -0.0596021 -1.93427e-19 0.0960835 1.2575e-19 0.000391899)
(-0.0912302 -0.0575673 -5.2759e-20 0.0908197 -7.23815e-19 0.000410433)
(-0.0862284 -0.0555293 1.16319e-19 0.0858013 -9.2443e-20 0.000427103)
(-0.0814151 -0.0535005 -1.45386e-20 0.0809732 -1.74498e-19 0.000441867)
(-0.0768235 -0.0514991 -1.31928e-19 0.0763689 1.73667e-19 0.000454679)