/*--------------------------------*- C++ -*----------------------------------*\
| =========                 |                                                 |
| \\      /  F ield         | OpenFOAM: The Open Source CFD Toolbox           |
|  \\    /   O peration     | Version:  2.2.0                                 |
|   \\  /    A nd           | Web:      www.OpenFOAM.org                      |
|    \\/     M anipulation  |                                                 |
\*---------------------------------------------------------------------------*/
FoamFile
{
    version     2.0;
    format      ascii;
    class       volVectorField;
    location    "4.5";
    object      s;
}
// * * * * * * * * * * * * * * * * * * * * * * * * * * * * * * * * * * * * * //

dimensions      [0 1 -1 0 0 0 0];

internalField   nonuniform List<vector> 
1600
(
(1.76269 0.0692585 0)
(1.49775 0.0588472 0)
(1.30004 0.0510789 0)
(1.14884 0.0451383 0)
(1.02895 0.0404277 0)
(0.931709 0.036607 0)
(0.851247 0.0334457 0)
(0.783579 0.0307869 0)
(0.725883 0.02852 0)
(0.67611 0.0265645 0)
(0.632736 0.0248603 0)
(0.594604 0.0233621 0)
(0.560819 0.0220347 0)
(0.530679 0.0208505 0)
(0.503625 0.0197875 0)
(0.479209 0.0188282 0)
(0.457052 0.0179576 0)
(0.436905 0.017166 0)
(0.418348 0.016437 0)
(0.401536 0.0157764 0)
(1.75182 0.207346 0)
(1.48851 0.176179 0)
(1.29202 0.152922 0)
(1.14176 0.135136 0)
(1.02261 0.121034 0)
(0.925965 0.109595 0)
(0.845999 0.100131 0)
(0.778748 0.0921708 0)
(0.721407 0.0853841 0)
(0.671941 0.0795295 0)
(0.628835 0.0744275 0)
(0.590938 0.0699421 0)
(0.557362 0.0659681 0)
(0.527407 0.0624228 0)
(0.50052 0.0592405 0)
(0.476254 0.0563684 0)
(0.454234 0.0537621 0)
(0.434211 0.0513922 0)
(0.415769 0.0492095 0)
(0.399061 0.0472319 0)
(1.73015 0.344154 0)
(1.4701 0.292423 0)
(1.27604 0.253821 0)
(1.12764 0.224301 0)
(1.00996 0.200893 0)
(0.914512 0.181908 0)
(0.835535 0.166198 0)
(0.769115 0.152986 0)
(0.712484 0.141722 0)
(0.66363 0.132004 0)
(0.621057 0.123536 0)
(0.583629 0.116091 0)
(0.550468 0.109495 0)
(0.520884 0.10361 0)
(0.494329 0.0983281 0)
(0.470364 0.0935611 0)
(0.448616 0.0892351 0)
(0.42884 0.0853016 0)
(0.410627 0.0816787 0)
(0.394125 0.0783963 0)
(1.69782 0.478839 0)
(1.44263 0.406865 0)
(1.25219 0.353156 0)
(1.10656 0.312083 0)
(0.991084 0.279515 0)
(0.89742 0.253099 0)
(0.81992 0.231241 0)
(0.754741 0.212859 0)
(0.699168 0.197186 0)
(0.651228 0.183665 0)
(0.60945 0.171883 0)
(0.572721 0.161524 0)
(0.54018 0.152346 0)
(0.511149 0.144159 0)
(0.485091 0.13681 0)
(0.461573 0.130177 0)
(0.440231 0.124158 0)
(0.420826 0.118685 0)
(0.402952 0.113644 0)
(0.386759 0.109077 0)
(1.65501 0.610571 0)
(1.40626 0.518797 0)
(1.22063 0.450313 0)
(1.07867 0.397941 0)
(0.966098 0.356412 0)
(0.874796 0.322729 0)
(0.799249 0.294858 0)
(0.735714 0.271419 0)
(0.681542 0.251434 0)
(0.63481 0.234193 0)
(0.594086 0.21917 0)
(0.558283 0.205961 0)
(0.526562 0.194259 0)
(0.498263 0.183819 0)
(0.472861 0.174448 0)
(0.449937 0.16599 0)
(0.429133 0.158315 0)
(0.410216 0.151337 0)
(0.392794 0.144909 0)
(0.377008 0.139086 0)
(1.60201 0.738539 0)
(1.36122 0.627531 0)
(1.18153 0.544694 0)
(1.04412 0.481345 0)
(0.935156 0.431113 0)
(0.846778 0.39037 0)
(0.773651 0.356658 0)
(0.712151 0.328306 0)
(0.659714 0.304132 0)
(0.614478 0.283278 0)
(0.575058 0.265105 0)
(0.540402 0.249129 0)
(0.509697 0.234973 0)
(0.482304 0.222345 0)
(0.457717 0.21101 0)
(0.435526 0.20078 0)
(0.415389 0.191497 0)
(0.397078 0.183055 0)
(0.380213 0.175281 0)
(0.364934 0.168237 0)
(1.53912 0.861953 0)
(1.30778 0.732396 0)
(1.13515 0.635716 0)
(1.00313 0.561782 0)
(0.898449 0.503155 0)
(0.81354 0.455604 0)
(0.743283 0.416258 0)
(0.684197 0.383168 0)
(0.633818 0.354955 0)
(0.590358 0.330616 0)
(0.552486 0.309407 0)
(0.51919 0.29076 0)
(0.48969 0.274239 0)
(0.463373 0.259501 0)
(0.43975 0.246271 0)
(0.41843 0.234332 0)
(0.399083 0.223497 0)
(0.381492 0.213645 0)
(0.365289 0.204572 0)
(0.350609 0.19635 0)
(1.46675 0.980053 0)
(1.24629 0.832745 0)
(1.08178 0.722819 0)
(0.955965 0.638755 0)
(0.856202 0.572095 0)
(0.775286 0.518029 0)
(0.708332 0.473292 0)
(0.652024 0.435668 0)
(0.604015 0.403589 0)
(0.562599 0.375916 0)
(0.526507 0.3518 0)
(0.494777 0.330599 0)
(0.466664 0.311814 0)
(0.441584 0.295057 0)
(0.419072 0.280015 0)
(0.398755 0.266439 0)
(0.380318 0.25412 0)
(0.363553 0.242918 0)
(0.348112 0.232601 0)
(0.334123 0.223254 0)
(1.38533 1.09211 0)
(1.17711 0.927961 0)
(1.02173 0.805466 0)
(0.902902 0.71179 0)
(0.808676 0.637508 0)
(0.732252 0.57726 0)
(0.669015 0.527408 0)
(0.615832 0.485482 0)
(0.570488 0.449736 0)
(0.53137 0.418898 0)
(0.497282 0.392025 0)
(0.467313 0.368399 0)
(0.440761 0.347467 0)
(0.417073 0.328793 0)
(0.39581 0.312031 0)
(0.376621 0.296904 0)
(0.359207 0.283176 0)
(0.343373 0.270693 0)
(0.328789 0.259197 0)
(0.315576 0.24878 0)
(1.29538 1.19744 0)
(1.10068 1.01745 0)
(0.955383 0.883147 0)
(0.844272 0.780436 0)
(0.756165 0.698991 0)
(0.684703 0.632932 0)
(0.625572 0.578272 0)
(0.575843 0.532303 0)
(0.533443 0.493109 0)
(0.496866 0.459297 0)
(0.464991 0.429833 0)
(0.436968 0.403929 0)
(0.41214 0.380978 0)
(0.38999 0.360503 0)
(0.370108 0.342124 0)
(0.352165 0.325538 0)
(0.335882 0.310486 0)
(0.321076 0.2968 0)
(0.307439 0.284194 0)
(0.295084 0.272773 0)
(1.19744 1.29538 0)
(1.01746 1.10068 0)
(0.883147 0.955382 0)
(0.780437 0.844271 0)
(0.698992 0.756164 0)
(0.632933 0.684702 0)
(0.578273 0.625571 0)
(0.532304 0.575842 0)
(0.49311 0.533442 0)
(0.459298 0.496865 0)
(0.429833 0.46499 0)
(0.403929 0.436967 0)
(0.380978 0.412139 0)
(0.360503 0.38999 0)
(0.342125 0.370108 0)
(0.325538 0.352165 0)
(0.310486 0.335882 0)
(0.2968 0.321076 0)
(0.284194 0.307439 0)
(0.272773 0.295084 0)
(1.09211 1.38533 0)
(0.927961 1.17711 0)
(0.805467 1.02173 0)
(0.711791 0.902901 0)
(0.637509 0.808675 0)
(0.577261 0.732251 0)
(0.527409 0.669014 0)
(0.485483 0.615831 0)
(0.449736 0.570487 0)
(0.418899 0.531369 0)
(0.392026 0.497281 0)
(0.3684 0.467312 0)
(0.347468 0.44076 0)
(0.328794 0.417072 0)
(0.312032 0.39581 0)
(0.296904 0.376621 0)
(0.283176 0.359207 0)
(0.270693 0.343373 0)
(0.259197 0.328789 0)
(0.24878 0.315576 0)
(0.980053 1.46675 0)
(0.832746 1.24629 0)
(0.72282 1.08177 0)
(0.638756 0.955964 0)
(0.572096 0.856201 0)
(0.51803 0.775284 0)
(0.473293 0.708331 0)
(0.435669 0.652023 0)
(0.40359 0.604014 0)
(0.375917 0.562598 0)
(0.351801 0.526506 0)
(0.330599 0.494776 0)
(0.311815 0.466663 0)
(0.295057 0.441583 0)
(0.280015 0.419071 0)
(0.266439 0.398754 0)
(0.25412 0.380317 0)
(0.242918 0.363553 0)
(0.232601 0.348112 0)
(0.223253 0.334122 0)
(0.861953 1.53912 0)
(0.732396 1.30778 0)
(0.635717 1.13515 0)
(0.561783 1.00313 0)
(0.503156 0.898447 0)
(0.455605 0.813539 0)
(0.416259 0.743282 0)
(0.383169 0.684195 0)
(0.354956 0.633817 0)
(0.330617 0.590357 0)
(0.309407 0.552485 0)
(0.290761 0.519189 0)
(0.27424 0.489689 0)
(0.259501 0.463372 0)
(0.246272 0.439749 0)
(0.234332 0.41843 0)
(0.223497 0.399083 0)
(0.213645 0.381491 0)
(0.204571 0.365288 0)
(0.19635 0.350609 0)
(0.738539 1.602 0)
(0.627531 1.36122 0)
(0.544694 1.18153 0)
(0.481346 1.04412 0)
(0.431113 0.935155 0)
(0.390371 0.846777 0)
(0.356658 0.77365 0)
(0.328306 0.712149 0)
(0.304133 0.659713 0)
(0.283279 0.614477 0)
(0.265106 0.575057 0)
(0.249129 0.540401 0)
(0.234974 0.509696 0)
(0.222345 0.482304 0)
(0.21101 0.457716 0)
(0.20078 0.435525 0)
(0.191497 0.415388 0)
(0.183055 0.397077 0)
(0.175281 0.380213 0)
(0.168236 0.364933 0)
(0.610571 1.65501 0)
(0.518798 1.40625 0)
(0.450314 1.22062 0)
(0.397942 1.07866 0)
(0.356413 0.966097 0)
(0.32273 0.874795 0)
(0.294859 0.799248 0)
(0.27142 0.735712 0)
(0.251435 0.681541 0)
(0.234194 0.634809 0)
(0.21917 0.594085 0)
(0.205962 0.558282 0)
(0.194259 0.526561 0)
(0.183819 0.498262 0)
(0.174448 0.47286 0)
(0.16599 0.449936 0)
(0.158315 0.429132 0)
(0.151337 0.410216 0)
(0.144909 0.392793 0)
(0.139086 0.377008 0)
(0.478839 1.69782 0)
(0.406865 1.44262 0)
(0.353156 1.25219 0)
(0.312084 1.10656 0)
(0.279515 0.991082 0)
(0.253099 0.897419 0)
(0.231242 0.819918 0)
(0.21286 0.75474 0)
(0.197186 0.699167 0)
(0.183666 0.651226 0)
(0.171883 0.609449 0)
(0.161524 0.57272 0)
(0.152347 0.540179 0)
(0.144159 0.511148 0)
(0.13681 0.48509 0)
(0.130177 0.461572 0)
(0.124158 0.44023 0)
(0.118685 0.420825 0)
(0.113644 0.402952 0)
(0.109077 0.386758 0)
(0.344154 1.73015 0)
(0.292423 1.4701 0)
(0.253822 1.27604 0)
(0.224302 1.12764 0)
(0.200894 1.00996 0)
(0.181908 0.91451 0)
(0.166199 0.835534 0)
(0.152987 0.769114 0)
(0.141722 0.712483 0)
(0.132005 0.663629 0)
(0.123536 0.621056 0)
(0.116091 0.583628 0)
(0.109495 0.550466 0)
(0.10361 0.520883 0)
(0.0983284 0.494328 0)
(0.0935613 0.470363 0)
(0.0892352 0.448615 0)
(0.0853016 0.428839 0)
(0.0816786 0.410626 0)
(0.0783961 0.394124 0)
(0.207346 1.75182 0)
(0.176179 1.48851 0)
(0.152922 1.29202 0)
(0.135137 1.14176 0)
(0.121034 1.02261 0)
(0.109596 0.925963 0)
(0.100131 0.845998 0)
(0.0921715 0.778746 0)
(0.0853848 0.721406 0)
(0.0795301 0.67194 0)
(0.0744281 0.628834 0)
(0.0699426 0.590937 0)
(0.0659685 0.55736 0)
(0.0624231 0.527406 0)
(0.0592407 0.500519 0)
(0.0563686 0.476253 0)
(0.0537623 0.454233 0)
(0.0513923 0.43421 0)
(0.0492095 0.415768 0)
(0.0472319 0.39906 0)
(0.0692587 1.76269 0)
(0.0588477 1.49775 0)
(0.0510795 1.30004 0)
(0.045139 1.14884 0)
(0.0404285 1.02895 0)
(0.0366078 0.931708 0)
(0.0334465 0.851246 0)
(0.0307877 0.783577 0)
(0.0285208 0.725881 0)
(0.0265651 0.676108 0)
(0.0248609 0.632735 0)
(0.0233626 0.594603 0)
(0.0220351 0.560818 0)
(0.0208509 0.530678 0)
(0.0197879 0.503624 0)
(0.0188285 0.479208 0)
(0.0179578 0.457051 0)
(0.0171662 0.436904 0)
(0.016437 0.418348 0)
(0.0157764 0.401535 0)
(-0.0692582 1.76269 0)
(-0.0588466 1.49775 0)
(-0.051078 1.30004 0)
(-0.0451374 1.14884 0)
(-0.0404267 1.02895 0)
(-0.036606 0.931708 0)
(-0.0334447 0.851246 0)
(-0.030786 0.783577 0)
(-0.0285191 0.725881 0)
(-0.0265636 0.676108 0)
(-0.0248595 0.632735 0)
(-0.0233614 0.594603 0)
(-0.022034 0.560818 0)
(-0.0208499 0.530678 0)
(-0.019787 0.503624 0)
(-0.0188278 0.479208 0)
(-0.0179573 0.457051 0)
(-0.0171658 0.436904 0)
(-0.0164368 0.418348 0)
(-0.0157763 0.401535 0)
(-0.207345 1.75182 0)
(-0.176178 1.48851 0)
(-0.152921 1.29202 0)
(-0.135135 1.14176 0)
(-0.121033 1.02261 0)
(-0.109594 0.925963 0)
(-0.10013 0.845998 0)
(-0.0921698 0.778746 0)
(-0.0853832 0.721406 0)
(-0.0795286 0.67194 0)
(-0.0744267 0.628834 0)
(-0.0699414 0.590937 0)
(-0.0659674 0.55736 0)
(-0.0624221 0.527406 0)
(-0.0592399 0.500519 0)
(-0.0563679 0.476253 0)
(-0.0537617 0.454233 0)
(-0.0513919 0.43421 0)
(-0.0492093 0.415768 0)
(-0.0472318 0.39906 0)
(-0.344153 1.73015 0)
(-0.292422 1.4701 0)
(-0.25382 1.27604 0)
(-0.2243 1.12764 0)
(-0.200892 1.00996 0)
(-0.181907 0.91451 0)
(-0.166197 0.835533 0)
(-0.152985 0.769114 0)
(-0.141721 0.712483 0)
(-0.132003 0.663629 0)
(-0.123535 0.621056 0)
(-0.11609 0.583628 0)
(-0.109494 0.550466 0)
(-0.103609 0.520883 0)
(-0.0983275 0.494328 0)
(-0.0935605 0.470363 0)
(-0.0892347 0.448614 0)
(-0.0853012 0.428839 0)
(-0.0816784 0.410626 0)
(-0.078396 0.394124 0)
(-0.478838 1.69781 0)
(-0.406864 1.44262 0)
(-0.353155 1.25219 0)
(-0.312082 1.10656 0)
(-0.279513 0.991082 0)
(-0.253097 0.897419 0)
(-0.23124 0.819918 0)
(-0.212858 0.75474 0)
(-0.197185 0.699167 0)
(-0.183664 0.651226 0)
(-0.171882 0.609449 0)
(-0.161523 0.57272 0)
(-0.152345 0.540179 0)
(-0.144158 0.511148 0)
(-0.136809 0.485089 0)
(-0.130176 0.461572 0)
(-0.124157 0.44023 0)
(-0.118685 0.420824 0)
(-0.113644 0.402951 0)
(-0.109077 0.386758 0)
(-0.61057 1.65501 0)
(-0.518796 1.40625 0)
(-0.450312 1.22062 0)
(-0.39794 1.07866 0)
(-0.356411 0.966096 0)
(-0.322728 0.874794 0)
(-0.294857 0.799247 0)
(-0.271418 0.735712 0)
(-0.251433 0.681541 0)
(-0.234192 0.634808 0)
(-0.219169 0.594084 0)
(-0.20596 0.558282 0)
(-0.194258 0.52656 0)
(-0.183818 0.498261 0)
(-0.174447 0.47286 0)
(-0.165989 0.449935 0)
(-0.158315 0.429132 0)
(-0.151336 0.410215 0)
(-0.144909 0.392793 0)
(-0.139085 0.377007 0)
(-0.738537 1.602 0)
(-0.62753 1.36121 0)
(-0.544693 1.18153 0)
(-0.481344 1.04412 0)
(-0.431111 0.935154 0)
(-0.390369 0.846777 0)
(-0.356656 0.773649 0)
(-0.328304 0.712149 0)
(-0.304131 0.659712 0)
(-0.283277 0.614477 0)
(-0.265104 0.575057 0)
(-0.249128 0.540401 0)
(-0.234972 0.509696 0)
(-0.222344 0.482303 0)
(-0.211009 0.457715 0)
(-0.200779 0.435525 0)
(-0.191496 0.415388 0)
(-0.183055 0.397077 0)
(-0.17528 0.380212 0)
(-0.168236 0.364933 0)
(-0.861951 1.53912 0)
(-0.732395 1.30778 0)
(-0.635715 1.13515 0)
(-0.561781 1.00313 0)
(-0.503154 0.898447 0)
(-0.455602 0.813538 0)
(-0.416257 0.743281 0)
(-0.383167 0.684195 0)
(-0.354954 0.633817 0)
(-0.330615 0.590357 0)
(-0.309405 0.552484 0)
(-0.290759 0.519189 0)
(-0.274238 0.489689 0)
(-0.2595 0.463371 0)
(-0.246271 0.439749 0)
(-0.234331 0.418429 0)
(-0.223496 0.399082 0)
(-0.213645 0.381491 0)
(-0.204571 0.365288 0)
(-0.19635 0.350608 0)
(-0.980051 1.46675 0)
(-0.832744 1.24629 0)
(-0.722818 1.08177 0)
(-0.638753 0.955963 0)
(-0.572094 0.8562 0)
(-0.518027 0.775284 0)
(-0.473291 0.708331 0)
(-0.435667 0.652023 0)
(-0.403588 0.604014 0)
(-0.375915 0.562597 0)
(-0.351799 0.526506 0)
(-0.330598 0.494776 0)
(-0.311813 0.466663 0)
(-0.295056 0.441583 0)
(-0.280014 0.419071 0)
(-0.266438 0.398754 0)
(-0.254119 0.380317 0)
(-0.242917 0.363552 0)
(-0.2326 0.348111 0)
(-0.223253 0.334122 0)
(-1.09211 1.38533 0)
(-0.927959 1.17711 0)
(-0.805464 1.02173 0)
(-0.711788 0.9029 0)
(-0.637507 0.808675 0)
(-0.577258 0.73225 0)
(-0.527406 0.669013 0)
(-0.485481 0.615831 0)
(-0.449734 0.570486 0)
(-0.418896 0.531369 0)
(-0.392024 0.497281 0)
(-0.368398 0.467312 0)
(-0.347466 0.440759 0)
(-0.328792 0.417072 0)
(-0.31203 0.395809 0)
(-0.296903 0.37662 0)
(-0.283175 0.359206 0)
(-0.270692 0.343372 0)
(-0.259196 0.328788 0)
(-0.24878 0.315575 0)
(-1.19743 1.29538 0)
(-1.01745 1.10067 0)
(-0.883145 0.955381 0)
(-0.780434 0.84427 0)
(-0.698989 0.756163 0)
(-0.63293 0.684701 0)
(-0.578271 0.625571 0)
(-0.532302 0.575842 0)
(-0.493107 0.533442 0)
(-0.459296 0.496865 0)
(-0.429831 0.46499 0)
(-0.403927 0.436967 0)
(-0.380976 0.412139 0)
(-0.360502 0.389989 0)
(-0.342123 0.370108 0)
(-0.325537 0.352164 0)
(-0.310485 0.335881 0)
(-0.296799 0.321075 0)
(-0.284193 0.307439 0)
(-0.272772 0.295083 0)
(-1.29538 1.19743 0)
(-1.10067 1.01745 0)
(-0.95538 0.883146 0)
(-0.844269 0.780435 0)
(-0.756162 0.69899 0)
(-0.6847 0.632932 0)
(-0.62557 0.578272 0)
(-0.575841 0.532303 0)
(-0.533441 0.493109 0)
(-0.496863 0.459297 0)
(-0.464989 0.429832 0)
(-0.436966 0.403928 0)
(-0.412138 0.380977 0)
(-0.389988 0.360502 0)
(-0.370107 0.342124 0)
(-0.352164 0.325537 0)
(-0.335881 0.310485 0)
(-0.321075 0.296799 0)
(-0.307438 0.284193 0)
(-0.295083 0.272772 0)
(-1.38533 1.09211 0)
(-1.17711 0.927959 0)
(-1.02173 0.805465 0)
(-0.902899 0.711789 0)
(-0.808673 0.637508 0)
(-0.732249 0.577259 0)
(-0.669012 0.527408 0)
(-0.61583 0.485482 0)
(-0.570485 0.449735 0)
(-0.531368 0.418897 0)
(-0.49728 0.392024 0)
(-0.467311 0.368399 0)
(-0.440758 0.347467 0)
(-0.417071 0.328793 0)
(-0.395809 0.312031 0)
(-0.376619 0.296903 0)
(-0.359206 0.283175 0)
(-0.343372 0.270693 0)
(-0.328788 0.259196 0)
(-0.315575 0.248779 0)
(-1.46675 0.980051 0)
(-1.24629 0.832744 0)
(-1.08177 0.722818 0)
(-0.955962 0.638754 0)
(-0.856199 0.572095 0)
(-0.775283 0.518028 0)
(-0.70833 0.473292 0)
(-0.652022 0.435668 0)
(-0.604012 0.403589 0)
(-0.562596 0.375915 0)
(-0.526504 0.3518 0)
(-0.494774 0.330598 0)
(-0.466662 0.311814 0)
(-0.441582 0.295056 0)
(-0.41907 0.280014 0)
(-0.398753 0.266439 0)
(-0.380316 0.254119 0)
(-0.363551 0.242918 0)
(-0.348111 0.2326 0)
(-0.334121 0.223253 0)
(-1.53912 0.861951 0)
(-1.30778 0.732395 0)
(-1.13515 0.635715 0)
(-1.00313 0.561781 0)
(-0.898445 0.503155 0)
(-0.813537 0.455603 0)
(-0.74328 0.416258 0)
(-0.684194 0.383168 0)
(-0.633815 0.354954 0)
(-0.590356 0.330616 0)
(-0.552483 0.309406 0)
(-0.519188 0.29076 0)
(-0.489688 0.274239 0)
(-0.46337 0.2595 0)
(-0.439748 0.246271 0)
(-0.418428 0.234332 0)
(-0.399082 0.223497 0)
(-0.38149 0.213645 0)
(-0.365287 0.204571 0)
(-0.350607 0.19635 0)
(-1.602 0.738537 0)
(-1.36121 0.62753 0)
(-1.18153 0.544693 0)
(-1.04412 0.481345 0)
(-0.935153 0.431112 0)
(-0.846775 0.390369 0)
(-0.773648 0.356657 0)
(-0.712148 0.328305 0)
(-0.659711 0.304132 0)
(-0.614476 0.283278 0)
(-0.575056 0.265105 0)
(-0.5404 0.249128 0)
(-0.509695 0.234973 0)
(-0.482302 0.222345 0)
(-0.457714 0.21101 0)
(-0.435524 0.20078 0)
(-0.415387 0.191496 0)
(-0.397076 0.183055 0)
(-0.380212 0.17528 0)
(-0.364932 0.168236 0)
(-1.65501 0.61057 0)
(-1.40625 0.518796 0)
(-1.22062 0.450312 0)
(-1.07866 0.397941 0)
(-0.966095 0.356412 0)
(-0.874793 0.322729 0)
(-0.799246 0.294858 0)
(-0.735711 0.271419 0)
(-0.681539 0.251434 0)
(-0.634807 0.234193 0)
(-0.594083 0.219169 0)
(-0.55828 0.205961 0)
(-0.526559 0.194258 0)
(-0.49826 0.183818 0)
(-0.472859 0.174447 0)
(-0.449934 0.16599 0)
(-0.429131 0.158315 0)
(-0.410214 0.151336 0)
(-0.392792 0.144909 0)
(-0.377007 0.139085 0)
(-1.69781 0.478838 0)
(-1.44262 0.406864 0)
(-1.25219 0.353155 0)
(-1.10656 0.312083 0)
(-0.99108 0.279514 0)
(-0.897417 0.253098 0)
(-0.819916 0.231241 0)
(-0.754738 0.212859 0)
(-0.699165 0.197185 0)
(-0.651225 0.183665 0)
(-0.609447 0.171882 0)
(-0.572719 0.161524 0)
(-0.540177 0.152346 0)
(-0.511146 0.144158 0)
(-0.485088 0.136809 0)
(-0.461571 0.130177 0)
(-0.440229 0.124158 0)
(-0.420823 0.118685 0)
(-0.40295 0.113644 0)
(-0.386757 0.109077 0)
(-1.73015 0.344153 0)
(-1.4701 0.292423 0)
(-1.27604 0.253821 0)
(-1.12763 0.224301 0)
(-1.00996 0.200893 0)
(-0.914508 0.181907 0)
(-0.835532 0.166198 0)
(-0.769112 0.152986 0)
(-0.712481 0.141722 0)
(-0.663627 0.132004 0)
(-0.621054 0.123536 0)
(-0.583626 0.116091 0)
(-0.550465 0.109494 0)
(-0.520881 0.10361 0)
(-0.494327 0.0983279 0)
(-0.470361 0.0935608 0)
(-0.448613 0.0892348 0)
(-0.428838 0.0853013 0)
(-0.410624 0.0816783 0)
(-0.394123 0.0783959 0)
(-1.75182 0.207345 0)
(-1.48851 0.176178 0)
(-1.29202 0.152921 0)
(-1.14176 0.135136 0)
(-1.0226 0.121033 0)
(-0.925962 0.109595 0)
(-0.845996 0.10013 0)
(-0.778744 0.0921706 0)
(-0.721404 0.085384 0)
(-0.671938 0.0795293 0)
(-0.628832 0.0744273 0)
(-0.590935 0.0699419 0)
(-0.557359 0.0659679 0)
(-0.527405 0.0624226 0)
(-0.500518 0.0592402 0)
(-0.476252 0.0563682 0)
(-0.454232 0.0537619 0)
(-0.434209 0.051392 0)
(-0.415767 0.0492093 0)
(-0.399059 0.0472317 0)
(-1.76269 0.0692584 0)
(-1.49774 0.058847 0)
(-1.30003 0.0510787 0)
(-1.14884 0.0451381 0)
(-1.02895 0.0404275 0)
(-0.931706 0.0366069 0)
(-0.851244 0.0334455 0)
(-0.783575 0.0307868 0)
(-0.725879 0.0285199 0)
(-0.676107 0.0265643 0)
(-0.632733 0.0248602 0)
(-0.594601 0.023362 0)
(-0.560816 0.0220346 0)
(-0.530676 0.0208504 0)
(-0.503623 0.0197874 0)
(-0.479206 0.0188281 0)
(-0.457049 0.0179575 0)
(-0.436902 0.0171659 0)
(-0.418346 0.0164369 0)
(-0.401534 0.0157763 0)
(-1.76269 -0.0692584 0)
(-1.49774 -0.0588471 0)
(-1.30003 -0.0510788 0)
(-1.14884 -0.0451382 0)
(-1.02895 -0.0404276 0)
(-0.931706 -0.036607 0)
(-0.851244 -0.0334456 0)
(-0.783575 -0.0307869 0)
(-0.725879 -0.02852 0)
(-0.676107 -0.0265644 0)
(-0.632733 -0.0248603 0)
(-0.594601 -0.023362 0)
(-0.560816 -0.0220346 0)
(-0.530676 -0.0208504 0)
(-0.503623 -0.0197874 0)
(-0.479206 -0.0188281 0)
(-0.457049 -0.0179576 0)
(-0.436902 -0.017166 0)
(-0.418346 -0.0164369 0)
(-0.401534 -0.0157763 0)
(-1.75182 -0.207345 0)
(-1.48851 -0.176178 0)
(-1.29202 -0.152921 0)
(-1.14176 -0.135136 0)
(-1.0226 -0.121034 0)
(-0.925962 -0.109595 0)
(-0.845996 -0.10013 0)
(-0.778744 -0.0921707 0)
(-0.721404 -0.085384 0)
(-0.671938 -0.0795294 0)
(-0.628832 -0.0744274 0)
(-0.590935 -0.069942 0)
(-0.557359 -0.0659679 0)
(-0.527405 -0.0624226 0)
(-0.500518 -0.0592403 0)
(-0.476252 -0.0563683 0)
(-0.454232 -0.0537619 0)
(-0.434209 -0.0513921 0)
(-0.415767 -0.0492093 0)
(-0.399059 -0.0472317 0)
(-1.73015 -0.344153 0)
(-1.4701 -0.292423 0)
(-1.27604 -0.253821 0)
(-1.12763 -0.224301 0)
(-1.00996 -0.200893 0)
(-0.914508 -0.181908 0)
(-0.835532 -0.166198 0)
(-0.769112 -0.152986 0)
(-0.712481 -0.141722 0)
(-0.663627 -0.132004 0)
(-0.621054 -0.123536 0)
(-0.583626 -0.116091 0)
(-0.550465 -0.109495 0)
(-0.520881 -0.10361 0)
(-0.494327 -0.0983279 0)
(-0.470361 -0.0935609 0)
(-0.448613 -0.0892349 0)
(-0.428838 -0.0853013 0)
(-0.410625 -0.0816784 0)
(-0.394123 -0.0783959 0)
(-1.69781 -0.478838 0)
(-1.44262 -0.406864 0)
(-1.25219 -0.353155 0)
(-1.10656 -0.312083 0)
(-0.99108 -0.279514 0)
(-0.897417 -0.253098 0)
(-0.819916 -0.231241 0)
(-0.754738 -0.212859 0)
(-0.699165 -0.197186 0)
(-0.651225 -0.183665 0)
(-0.609447 -0.171882 0)
(-0.572719 -0.161524 0)
(-0.540177 -0.152346 0)
(-0.511146 -0.144159 0)
(-0.485088 -0.136809 0)
(-0.461571 -0.130177 0)
(-0.440229 -0.124158 0)
(-0.420823 -0.118685 0)
(-0.40295 -0.113644 0)
(-0.386757 -0.109077 0)
(-1.65501 -0.61057 0)
(-1.40625 -0.518796 0)
(-1.22062 -0.450313 0)
(-1.07866 -0.397941 0)
(-0.966095 -0.356412 0)
(-0.874793 -0.322729 0)
(-0.799246 -0.294858 0)
(-0.735711 -0.271419 0)
(-0.681539 -0.251434 0)
(-0.634807 -0.234193 0)
(-0.594083 -0.219169 0)
(-0.55828 -0.205961 0)
(-0.526559 -0.194258 0)
(-0.49826 -0.183818 0)
(-0.472859 -0.174447 0)
(-0.449934 -0.16599 0)
(-0.429131 -0.158315 0)
(-0.410214 -0.151336 0)
(-0.392792 -0.144909 0)
(-0.377007 -0.139085 0)
(-1.602 -0.738537 0)
(-1.36121 -0.62753 0)
(-1.18153 -0.544693 0)
(-1.04412 -0.481345 0)
(-0.935153 -0.431112 0)
(-0.846775 -0.39037 0)
(-0.773648 -0.356657 0)
(-0.712148 -0.328305 0)
(-0.659711 -0.304132 0)
(-0.614476 -0.283278 0)
(-0.575056 -0.265105 0)
(-0.5404 -0.249128 0)
(-0.509695 -0.234973 0)
(-0.482302 -0.222345 0)
(-0.457714 -0.21101 0)
(-0.435524 -0.20078 0)
(-0.415387 -0.191496 0)
(-0.397076 -0.183055 0)
(-0.380212 -0.17528 0)
(-0.364932 -0.168236 0)
(-1.53912 -0.861951 0)
(-1.30778 -0.732395 0)
(-1.13515 -0.635716 0)
(-1.00313 -0.561781 0)
(-0.898445 -0.503155 0)
(-0.813537 -0.455603 0)
(-0.74328 -0.416258 0)
(-0.684194 -0.383168 0)
(-0.633815 -0.354955 0)
(-0.590356 -0.330616 0)
(-0.552483 -0.309406 0)
(-0.519188 -0.29076 0)
(-0.489688 -0.274239 0)
(-0.46337 -0.2595 0)
(-0.439748 -0.246271 0)
(-0.418428 -0.234332 0)
(-0.399082 -0.223497 0)
(-0.38149 -0.213645 0)
(-0.365287 -0.204571 0)
(-0.350608 -0.19635 0)
(-1.46675 -0.980051 0)
(-1.24629 -0.832744 0)
(-1.08177 -0.722819 0)
(-0.955962 -0.638754 0)
(-0.856199 -0.572095 0)
(-0.775283 -0.518028 0)
(-0.70833 -0.473292 0)
(-0.652022 -0.435668 0)
(-0.604012 -0.403589 0)
(-0.562596 -0.375916 0)
(-0.526505 -0.3518 0)
(-0.494774 -0.330598 0)
(-0.466662 -0.311814 0)
(-0.441582 -0.295056 0)
(-0.41907 -0.280014 0)
(-0.398753 -0.266439 0)
(-0.380316 -0.254119 0)
(-0.363552 -0.242918 0)
(-0.348111 -0.2326 0)
(-0.334121 -0.223253 0)
(-1.38533 -1.09211 0)
(-1.17711 -0.927959 0)
(-1.02173 -0.805465 0)
(-0.902899 -0.711789 0)
(-0.808673 -0.637508 0)
(-0.732249 -0.57726 0)
(-0.669012 -0.527408 0)
(-0.61583 -0.485482 0)
(-0.570485 -0.449735 0)
(-0.531368 -0.418898 0)
(-0.49728 -0.392025 0)
(-0.467311 -0.368399 0)
(-0.440759 -0.347467 0)
(-0.417071 -0.328793 0)
(-0.395809 -0.312031 0)
(-0.37662 -0.296903 0)
(-0.359206 -0.283175 0)
(-0.343372 -0.270693 0)
(-0.328788 -0.259196 0)
(-0.315575 -0.24878 0)
(-1.29538 -1.19743 0)
(-1.10067 -1.01745 0)
(-0.955381 -0.883146 0)
(-0.844269 -0.780436 0)
(-0.756162 -0.698991 0)
(-0.6847 -0.632932 0)
(-0.62557 -0.578272 0)
(-0.575841 -0.532303 0)
(-0.533441 -0.493109 0)
(-0.496864 -0.459297 0)
(-0.464989 -0.429832 0)
(-0.436966 -0.403928 0)
(-0.412138 -0.380977 0)
(-0.389989 -0.360502 0)
(-0.370107 -0.342124 0)
(-0.352164 -0.325537 0)
(-0.335881 -0.310486 0)
(-0.321075 -0.296799 0)
(-0.307438 -0.284193 0)
(-0.295083 -0.272772 0)
(-1.19743 -1.29538 0)
(-1.01745 -1.10067 0)
(-0.883145 -0.955381 0)
(-0.780435 -0.84427 0)
(-0.698989 -0.756164 0)
(-0.632931 -0.684702 0)
(-0.578271 -0.625571 0)
(-0.532302 -0.575842 0)
(-0.493108 -0.533442 0)
(-0.459296 -0.496865 0)
(-0.429831 -0.46499 0)
(-0.403927 -0.436967 0)
(-0.380976 -0.412139 0)
(-0.360502 -0.389989 0)
(-0.342123 -0.370108 0)
(-0.325537 -0.352164 0)
(-0.310485 -0.335881 0)
(-0.296799 -0.321075 0)
(-0.284193 -0.307439 0)
(-0.272772 -0.295084 0)
(-1.09211 -1.38533 0)
(-0.927959 -1.17711 0)
(-0.805464 -1.02173 0)
(-0.711788 -0.9029 0)
(-0.637507 -0.808675 0)
(-0.577258 -0.73225 0)
(-0.527407 -0.669013 0)
(-0.485481 -0.615831 0)
(-0.449734 -0.570486 0)
(-0.418897 -0.531369 0)
(-0.392024 -0.497281 0)
(-0.368398 -0.467312 0)
(-0.347466 -0.44076 0)
(-0.328792 -0.417072 0)
(-0.31203 -0.395809 0)
(-0.296903 -0.37662 0)
(-0.283175 -0.359206 0)
(-0.270693 -0.343372 0)
(-0.259196 -0.328789 0)
(-0.24878 -0.315576 0)
(-0.980051 -1.46675 0)
(-0.832744 -1.24629 0)
(-0.722818 -1.08177 0)
(-0.638753 -0.955963 0)
(-0.572094 -0.8562 0)
(-0.518027 -0.775284 0)
(-0.473291 -0.708331 0)
(-0.435667 -0.652023 0)
(-0.403588 -0.604014 0)
(-0.375915 -0.562597 0)
(-0.351799 -0.526506 0)
(-0.330598 -0.494776 0)
(-0.311813 -0.466663 0)
(-0.295056 -0.441583 0)
(-0.280014 -0.419071 0)
(-0.266438 -0.398754 0)
(-0.254119 -0.380317 0)
(-0.242918 -0.363552 0)
(-0.2326 -0.348111 0)
(-0.223253 -0.334122 0)
(-0.861952 -1.53912 0)
(-0.732395 -1.30778 0)
(-0.635715 -1.13515 0)
(-0.561781 -1.00313 0)
(-0.503154 -0.898447 0)
(-0.455602 -0.813538 0)
(-0.416257 -0.743281 0)
(-0.383167 -0.684195 0)
(-0.354954 -0.633817 0)
(-0.330615 -0.590357 0)
(-0.309405 -0.552485 0)
(-0.290759 -0.519189 0)
(-0.274238 -0.489689 0)
(-0.2595 -0.463372 0)
(-0.246271 -0.439749 0)
(-0.234331 -0.418429 0)
(-0.223497 -0.399083 0)
(-0.213645 -0.381491 0)
(-0.204571 -0.365288 0)
(-0.19635 -0.350608 0)
(-0.738537 -1.602 0)
(-0.62753 -1.36121 0)
(-0.544693 -1.18153 0)
(-0.481344 -1.04412 0)
(-0.431111 -0.935154 0)
(-0.390369 -0.846777 0)
(-0.356656 -0.773649 0)
(-0.328304 -0.712149 0)
(-0.304131 -0.659712 0)
(-0.283277 -0.614477 0)
(-0.265104 -0.575057 0)
(-0.249128 -0.540401 0)
(-0.234972 -0.509696 0)
(-0.222344 -0.482303 0)
(-0.211009 -0.457716 0)
(-0.200779 -0.435525 0)
(-0.191496 -0.415388 0)
(-0.183055 -0.397077 0)
(-0.17528 -0.380212 0)
(-0.168236 -0.364933 0)
(-0.61057 -1.65501 0)
(-0.518796 -1.40625 0)
(-0.450312 -1.22062 0)
(-0.39794 -1.07866 0)
(-0.356411 -0.966096 0)
(-0.322728 -0.874794 0)
(-0.294857 -0.799248 0)
(-0.271418 -0.735712 0)
(-0.251433 -0.681541 0)
(-0.234192 -0.634809 0)
(-0.219169 -0.594084 0)
(-0.20596 -0.558282 0)
(-0.194258 -0.526561 0)
(-0.183818 -0.498262 0)
(-0.174447 -0.47286 0)
(-0.16599 -0.449936 0)
(-0.158315 -0.429132 0)
(-0.151336 -0.410215 0)
(-0.144909 -0.392793 0)
(-0.139085 -0.377008 0)
(-0.478838 -1.69781 0)
(-0.406864 -1.44262 0)
(-0.353155 -1.25219 0)
(-0.312082 -1.10656 0)
(-0.279513 -0.991082 0)
(-0.253098 -0.897419 0)
(-0.23124 -0.819918 0)
(-0.212858 -0.75474 0)
(-0.197185 -0.699167 0)
(-0.183664 -0.651226 0)
(-0.171882 -0.609449 0)
(-0.161523 -0.57272 0)
(-0.152346 -0.540179 0)
(-0.144158 -0.511148 0)
(-0.136809 -0.48509 0)
(-0.130176 -0.461572 0)
(-0.124158 -0.44023 0)
(-0.118685 -0.420825 0)
(-0.113644 -0.402951 0)
(-0.109077 -0.386758 0)
(-0.344153 -1.73015 0)
(-0.292422 -1.4701 0)
(-0.25382 -1.27604 0)
(-0.2243 -1.12764 0)
(-0.200892 -1.00996 0)
(-0.181907 -0.91451 0)
(-0.166197 -0.835534 0)
(-0.152985 -0.769114 0)
(-0.141721 -0.712483 0)
(-0.132003 -0.663629 0)
(-0.123535 -0.621056 0)
(-0.11609 -0.583628 0)
(-0.109494 -0.550466 0)
(-0.10361 -0.520883 0)
(-0.0983276 -0.494328 0)
(-0.0935607 -0.470363 0)
(-0.0892348 -0.448615 0)
(-0.0853013 -0.428839 0)
(-0.0816784 -0.410626 0)
(-0.0783961 -0.394124 0)
(-0.207345 -1.75182 0)
(-0.176178 -1.48851 0)
(-0.152921 -1.29202 0)
(-0.135135 -1.14176 0)
(-0.121033 -1.02261 0)
(-0.109594 -0.925963 0)
(-0.10013 -0.845998 0)
(-0.0921699 -0.778746 0)
(-0.0853833 -0.721406 0)
(-0.0795287 -0.67194 0)
(-0.0744268 -0.628834 0)
(-0.0699415 -0.590937 0)
(-0.0659675 -0.55736 0)
(-0.0624222 -0.527406 0)
(-0.05924 -0.500519 0)
(-0.056368 -0.476254 0)
(-0.0537618 -0.454233 0)
(-0.051392 -0.43421 0)
(-0.0492093 -0.415768 0)
(-0.0472318 -0.39906 0)
(-0.0692582 -1.76269 0)
(-0.0588466 -1.49775 0)
(-0.0510781 -1.30004 0)
(-0.0451374 -1.14884 0)
(-0.0404268 -1.02895 0)
(-0.0366061 -0.931708 0)
(-0.0334448 -0.851246 0)
(-0.0307861 -0.783577 0)
(-0.0285192 -0.725881 0)
(-0.0265637 -0.676109 0)
(-0.0248596 -0.632735 0)
(-0.0233615 -0.594603 0)
(-0.0220341 -0.560818 0)
(-0.02085 -0.530678 0)
(-0.0197871 -0.503624 0)
(-0.0188279 -0.479208 0)
(-0.0179574 -0.457051 0)
(-0.0171658 -0.436904 0)
(-0.0164368 -0.418348 0)
(-0.0157763 -0.401536 0)
(1.76269 -0.0692586 0)
(1.75182 -0.207346 0)
(1.73015 -0.344154 0)
(1.69782 -0.478839 0)
(1.65501 -0.610571 0)
(1.60201 -0.738539 0)
(1.53912 -0.861953 0)
(1.46675 -0.980053 0)
(1.38533 -1.09211 0)
(1.29538 -1.19744 0)
(1.19744 -1.29538 0)
(1.09211 -1.38533 0)
(0.980053 -1.46675 0)
(0.861953 -1.53912 0)
(0.738539 -1.60201 0)
(0.610571 -1.65501 0)
(0.478839 -1.69782 0)
(0.344154 -1.73015 0)
(0.207346 -1.75182 0)
(0.0692587 -1.76269 0)
(1.49775 -0.0588472 0)
(1.48851 -0.176178 0)
(1.4701 -0.292423 0)
(1.44263 -0.406865 0)
(1.40626 -0.518797 0)
(1.36122 -0.627531 0)
(1.30778 -0.732396 0)
(1.24629 -0.832745 0)
(1.17711 -0.927961 0)
(1.10068 -1.01745 0)
(1.01746 -1.10068 0)
(0.927961 -1.17711 0)
(0.832746 -1.24629 0)
(0.732396 -1.30778 0)
(0.627531 -1.36122 0)
(0.518797 -1.40626 0)
(0.406865 -1.44262 0)
(0.292423 -1.4701 0)
(0.176179 -1.48851 0)
(0.0588476 -1.49775 0)
(1.30004 -0.0510788 0)
(1.29202 -0.152921 0)
(1.27604 -0.253821 0)
(1.25219 -0.353156 0)
(1.22063 -0.450313 0)
(1.18153 -0.544694 0)
(1.13515 -0.635716 0)
(1.08178 -0.722819 0)
(1.02173 -0.805466 0)
(0.955383 -0.883147 0)
(0.883147 -0.955382 0)
(0.805467 -1.02173 0)
(0.72282 -1.08177 0)
(0.635717 -1.13515 0)
(0.544694 -1.18153 0)
(0.450314 -1.22062 0)
(0.353156 -1.25219 0)
(0.253822 -1.27604 0)
(0.152922 -1.29202 0)
(0.0510794 -1.30004 0)
(1.14884 -0.0451382 0)
(1.14176 -0.135136 0)
(1.12764 -0.224301 0)
(1.10656 -0.312083 0)
(1.07867 -0.397941 0)
(1.04412 -0.481345 0)
(1.00313 -0.561782 0)
(0.955965 -0.638755 0)
(0.902902 -0.71179 0)
(0.844272 -0.780436 0)
(0.780437 -0.844271 0)
(0.711791 -0.902901 0)
(0.638756 -0.955964 0)
(0.561783 -1.00313 0)
(0.481346 -1.04412 0)
(0.397942 -1.07866 0)
(0.312084 -1.10656 0)
(0.224302 -1.12764 0)
(0.135137 -1.14176 0)
(0.045139 -1.14884 0)
(1.02895 -0.0404276 0)
(1.02261 -0.121034 0)