/*--------------------------------*- C++ -*----------------------------------*\
| =========                 |                                                 |
| \\      /  F ield         | foam-extend: Open Source CFD                    |
|  \\    /   O peration     | Version:  3.0                                   |
|   \\  /    A nd           | Web:         http://www.extend-project.de       |
|    \\/     M anipulation  |                                                 |
\*---------------------------------------------------------------------------*/
FoamFile
{
    version     2.0;
    format      ascii;
    class       volSymmTensorField;
    location    "19";
    object      sigma;
}
// * * * * * * * * * * * * * * * * * * * * * * * * * * * * * * * * * * * * * //

dimensions      [0 0 0 0 0 0 0];

internalField   nonuniform List<symmTensor> 
1920
(
(-0.176249 -0.00577518 4.98595e-20 0.17624 -1.14108e-20 9.85873e-06)
(-0.170995 -0.00683641 9.62778e-20 0.170968 1.52657e-20 2.64261e-05)
(-0.161266 -0.00720127 1.08944e-19 0.161225 1.0703e-20 4.11032e-05)
(-0.149671 -0.00718785 9.7951e-20 0.149617 3.96475e-20 5.41656e-05)
(-0.137541 -0.00696965 7.76079e-20 0.137475 6.49713e-20 6.57725e-05)
(-0.125535 -0.00664365 7.84681e-20 0.125459 5.34552e-20 7.59836e-05)
(-0.113992 -0.00626584 6.26648e-20 0.113907 9.55059e-20 8.48068e-05)
(-0.103065 -0.00586898 7.58518e-20 0.102973 8.01812e-20 9.21868e-05)
(-0.0928202 -0.00547238 7.1095e-20 0.0927221 1.21153e-19 9.80425e-05)
(-0.083275 -0.00508795 6.33481e-20 0.0831728 1.36667e-19 0.000102244)
(-0.0744256 -0.00472252 3.73941e-20 0.0743209 1.49255e-19 0.000104651)
(-0.0662618 -0.00438096 1.95536e-20 0.0661567 1.25871e-19 0.000105079)
(-0.0587696 -0.00406577 4.80747e-20 0.0586662 1.11876e-19 0.000103345)
(-0.0519469 -0.00377974 6.11826e-20 0.0518477 1.2753e-19 9.92309e-05)
(-0.0457901 -0.0035241 2.6702e-20 0.0456976 1.03057e-19 9.2531e-05)
(-0.0403179 -0.00330158 5.26422e-20 0.0402348 1.77595e-20 8.30112e-05)
(-0.035545 -0.00311339 6.24309e-20 0.0354745 -2.36307e-20 7.04705e-05)
(-0.031518 -0.00296316 2.28609e-20 0.0314633 -3.39524e-20 5.46921e-05)
(-0.028276 -0.00285317 1.96265e-20 0.0282405 -6.85494e-20 3.55183e-05)
(-0.0258971 -0.00278539 -3.59394e-21 0.0258843 -3.91984e-20 1.27979e-05)
(-0.175492 -0.0173008 5.3998e-20 0.175482 6.31851e-21 9.81858e-06)
(-0.169619 -0.0204168 9.77356e-20 0.169593 1.5082e-20 2.63184e-05)
(-0.159577 -0.0214748 1.1033e-19 0.159536 -7.3129e-23 4.09354e-05)
(-0.147841 -0.0214159 1.28119e-19 0.147787 -4.91083e-21 5.39441e-05)
(-0.13567 -0.020753 9.66356e-20 0.135604 5.06143e-20 6.55032e-05)
(-0.123681 -0.019773 9.08389e-20 0.123605 6.35759e-20 7.56721e-05)
(-0.112187 -0.0186412 8.99907e-20 0.112103 9.79128e-20 8.44587e-05)
(-0.101327 -0.0174543 7.02616e-20 0.101235 1.9576e-19 9.18081e-05)
(-0.091158 -0.0162693 7.69938e-20 0.0910603 2.39354e-19 9.76395e-05)
(-0.081691 -0.0151213 6.20947e-20 0.0815892 2.2019e-19 0.000101824)
(-0.0729188 -0.0140305 4.70588e-20 0.0728145 2.09045e-19 0.00010422)
(-0.0648285 -0.013011 3.14651e-20 0.0647239 1.98684e-19 0.000104646)
(-0.0574047 -0.0120704 8.04802e-20 0.0573018 1.57077e-19 0.00010292)
(-0.0506439 -0.0112167 7.88709e-20 0.0505451 1.6795e-19 9.88226e-05)
(-0.0445416 -0.0104536 -5.09301e-21 0.0444494 2.17701e-19 9.21502e-05)
(-0.0391154 -0.00978927 -6.93117e-20 0.0390327 2.32684e-19 8.26696e-05)
(-0.0343797 -0.00922718 -4.48827e-20 0.0343095 2.11826e-19 7.01805e-05)
(-0.0303796 -0.0087781 1.77608e-20 0.0303251 1.32496e-19 5.4467e-05)
(-0.0271537 -0.00844886 3.69214e-20 0.0271183 8.39526e-20 3.53721e-05)
(-0.0247798 -0.00824531 5.85948e-20 0.0247671 -3.70983e-20 1.27452e-05)
(-0.17398 -0.0287515 4.82246e-20 0.17397 1.08395e-20 9.73558e-06)
(-0.166898 -0.0337221 7.74704e-20 0.166872 1.03333e-20 2.60959e-05)
(-0.156244 -0.0353652 7.41563e-20 0.156204 6.77039e-21 4.05894e-05)
(-0.144235 -0.0352054 1.09402e-19 0.144182 -2.11184e-20 5.34885e-05)
(-0.131986 -0.0340737 1.29886e-19 0.131921 -4.84719e-21 6.49503e-05)
(-0.120031 -0.0324336 1.02233e-19 0.119956 6.88902e-20 7.50338e-05)
(-0.108636 -0.0305526 1.5756e-19 0.108552 1.06342e-19 8.37465e-05)
(-0.0979087 -0.0285866 2.30915e-19 0.0978176 2.01274e-19 9.10341e-05)
(-0.0878892 -0.0266276 1.4998e-19 0.0877924 2.56977e-19 9.68165e-05)
(-0.078577 -0.0247319 9.91312e-20 0.078476 2.15961e-19 0.000100966)
(-0.0699573 -0.0229317 8.60212e-20 0.0698539 2.13071e-19 0.000103342)
(-0.0620123 -0.0212501 2.44154e-20 0.0619085 2.49287e-19 0.000103764)
(-0.0547237 -0.0196986 8.62926e-20 0.0546216 1.15166e-19 0.000102052)
(-0.0480849 -0.0182905 2.05159e-19 0.0479869 1.35085e-19 9.79896e-05)
(-0.0420903 -0.0170314 2.37788e-19 0.0419989 1.53262e-19 9.13734e-05)
(-0.0367551 -0.0159347 2.05076e-19 0.0366731 2.47469e-19 8.19728e-05)
(-0.0320928 -0.0150059 9.32885e-20 0.0320233 2.31311e-19 6.9589e-05)
(-0.0281461 -0.0142627 -7.5108e-21 0.0280921 6.69869e-20 5.4008e-05)
(-0.0249521 -0.0137163 -8.22201e-20 0.0249171 -4.61442e-20 3.50741e-05)
(-0.0225888 -0.0133764 -7.35755e-20 0.0225761 4.54209e-21 1.26378e-05)
(-0.17172 -0.0400777 4.26331e-20 0.171711 4.31483e-21 9.61086e-06)
(-0.162892 -0.0465781 6.05381e-20 0.162867 2.80771e-20 2.57616e-05)
(-0.151358 -0.0486312 4.89726e-20 0.151318 4.05692e-20 4.00696e-05)
(-0.138958 -0.0482812 6.33508e-20 0.138906 2.90852e-20 5.28037e-05)
(-0.1266 -0.0466413 1.36261e-19 0.126536 -3.48639e-20 6.41191e-05)
(-0.1147 -0.0443317 1.80541e-19 0.114626 -1.75085e-20 7.40738e-05)
(-0.103452 -0.0417095 1.96651e-19 0.10337 5.55994e-21 8.26754e-05)
(-0.0929221 -0.0389825 2.90199e-19 0.0928322 -2.2545e-20 8.987e-05)
(-0.0831234 -0.0362728 2.44827e-19 0.0830278 -2.89334e-21 9.55787e-05)
(-0.0740387 -0.0336552 1.18155e-19 0.073939 5.75433e-20 9.96748e-05)
(-0.0656433 -0.0311721 1.74437e-19 0.0655413 1.13561e-19 0.000102021)
(-0.0579119 -0.0288536 5.45688e-20 0.0578094 1.81532e-19 0.000102438)
(-0.0508218 -0.0267151 -1.40736e-20 0.050721 9.50471e-20 0.000100748)
(-0.0443624 -0.024774 1.64191e-19 0.0442657 4.92329e-20 9.67372e-05)
(-0.0385261 -0.0230378 2.09864e-19 0.0384359 1.23072e-20 9.02057e-05)
(-0.0333248 -0.021524 3.1787e-19 0.0332439 -2.34998e-19 8.09254e-05)
(-0.0287708 -0.0202405 4.03281e-20 0.0287021 -1.37848e-19 6.86999e-05)
(-0.0249029 -0.019211 -1.23722e-19 0.0248496 -2.0983e-19 5.33181e-05)
(-0.0217564 -0.0184507 -4.64975e-20 0.0217218 -2.42671e-20 3.46261e-05)
(-0.0194091 -0.0179735 5.01055e-20 0.0193967 1.12318e-19 1.24765e-05)
(-0.168723 -0.0512304 2.54111e-20 0.168713 4.53128e-20 9.44497e-06)
(-0.157689 -0.0588245 2.80616e-20 0.157664 9.80541e-20 2.53169e-05)
(-0.145048 -0.0610524 1.24863e-20 0.145008 1.05907e-19 3.93781e-05)
(-0.132163 -0.0603924 -3.84202e-20 0.132111 1.62074e-19 5.18926e-05)
(-0.119677 -0.0581921 6.67671e-23 0.119614 6.49975e-20 6.3013e-05)
(-0.107856 -0.0552006 8.7936e-20 0.107783 -8.04004e-21 7.27963e-05)
(-0.096803 -0.0518484 1.68951e-19 0.0967218 -1.20743e-19 8.12499e-05)
(-0.0865305 -0.0483849 2.03073e-19 0.0864422 -5.55786e-20 8.83208e-05)
(-0.0770191 -0.0449565 2.67128e-19 0.0769252 -5.84247e-20 9.39313e-05)
(-0.06823 -0.0416519 1.78346e-19 0.068132 1.509e-19 9.79571e-05)
(-0.0601254 -0.0385215 2.60566e-19 0.0600251 9.38762e-20 0.000100263)
(-0.0526705 -0.0356008 1.52119e-19 0.0525699 1.26447e-19 0.000100673)
(-0.0458376 -0.0329077 -3.11831e-20 0.0457385 1.70863e-19 9.90122e-05)
(-0.0396105 -0.0304627 3.59198e-20 0.0395155 2.79628e-19 9.50708e-05)
(-0.0339795 -0.0282746 -1.58686e-20 0.0338908 2.29172e-20 8.86519e-05)
(-0.0289519 -0.0263647 7.74903e-21 0.0288723 -1.58451e-19 7.95316e-05)
(-0.0245385 -0.0247426 2.05809e-19 0.024471 -1.01277e-19 6.75169e-05)
(-0.0207736 -0.0234373 -1.28296e-20 0.0207212 -3.05152e-20 5.24001e-05)
(-0.0176898 -0.0224678 1.93891e-19 0.0176558 1.15722e-19 3.403e-05)
(-0.0153647 -0.0218521 -7.84908e-20 0.0153524 1.53356e-19 1.22617e-05)
(-0.165001 -0.0621615 -1.97796e-20 0.164992 1.54391e-19 9.2386e-06)
(-0.1514 -0.0703192 -4.83035e-20 0.151376 2.58892e-19 2.47638e-05)
(-0.13748 -0.0724365 -9.9226e-21 0.137441 2.24571e-19 3.85179e-05)
(-0.124044 -0.0713216 1.6593e-20 0.123993 1.34257e-19 5.07591e-05)
(-0.111425 -0.0684981 -9.08328e-20 0.111363 1.40821e-19 6.16368e-05)
(-0.0997099 -0.0648104 -7.25563e-20 0.0996387 8.55638e-20 7.12068e-05)
(-0.0888998 -0.0607424 -1.62375e-20 0.0888203 6.57122e-20 7.94761e-05)
(-0.078942 -0.0565731 2.01471e-19 0.0788556 9.10402e-20 8.6393e-05)
(-0.0697789 -0.0524653 3.47449e-19 0.069687 -8.50013e-21 9.18813e-05)
(-0.0613467 -0.0485169 2.83888e-19 0.0612509 1.25999e-19 9.58196e-05)
(-0.0535926 -0.0447832 1.75471e-19 0.0534946 8.83545e-20 9.80752e-05)
(-0.0464709 -0.0413027 2.26085e-19 0.0463724 1.65703e-19 9.84767e-05)
(-0.0399475 -0.0380946 2.34187e-19 0.0398506 1.87562e-19 9.68525e-05)
(-0.0340002 -0.0351815 9.72653e-20 0.0339072 3.8569e-19 9.29973e-05)
(-0.0286164 -0.0325728 -1.83549e-19 0.0285297 -1.36874e-21 8.67187e-05)
(-0.0237984 -0.0302925 -1.02275e-19 0.0237207 4.38506e-20 7.77974e-05)
(-0.0195553 -0.0283517 4.37035e-20 0.0194892 -9.45693e-20 6.60449e-05)
(-0.0159156 -0.0267838 -1.62414e-20 0.0158644 -5.01091e-21 5.12578e-05)
(-0.0129091 -0.0256109 2.99778e-19 0.0128758 -1.61508e-19 3.32883e-05)
(-0.0106129 -0.0248554 8.87488e-21 0.0106009 -2.65863e-20 1.19945e-05)
(-0.160572 -0.0728237 6.99623e-21 0.160563 1.45235e-19 8.99267e-06)
(-0.144159 -0.0809424 -6.82932e-20 0.144135 2.79275e-19 2.41046e-05)
(-0.12885 -0.0826257 -8.55328e-20 0.128813 1.32423e-19 3.74926e-05)
(-0.114831 -0.0808919 -2.82801e-20 0.114781 9.69745e-21 4.94081e-05)
(-0.102088 -0.0773749 -6.31594e-20 0.102028 1.49982e-19 5.99965e-05)
(-0.0905135 -0.0729759 -5.44421e-20 0.0904442 1.03484e-19 6.9312e-05)
(-0.0799921 -0.0682095 -9.94858e-21 0.0799148 1.08563e-19 7.73616e-05)
(-0.0704012 -0.0633701 7.06405e-20 0.0703171 -4.67414e-20 8.40949e-05)
(-0.0616407 -0.0586285 2.63311e-19 0.0615513 -1.27193e-19 8.94376e-05)
(-0.0536193 -0.0540864 4.35211e-19 0.053526 -6.06207e-20 9.32715e-05)
(-0.0462676 -0.0498001 3.37296e-19 0.0461721 1.7614e-20 9.54675e-05)
(-0.0395277 -0.045809 3.45232e-19 0.0394319 -2.23833e-20 9.58586e-05)
(-0.033359 -0.042132 4.55606e-19 0.0332647 -1.59266e-19 9.42779e-05)
(-0.0277325 -0.038792 4.08895e-19 0.027642 -6.90279e-20 9.05255e-05)
(-0.0226323 -0.0357988 -1.44924e-19 0.0225478 -3.94588e-19 8.4414e-05)
(-0.0180553 -0.033178 -9.25214e-20 0.0179796 -3.27743e-19 7.57301e-05)
(-0.0140084 -0.0309416 8.72237e-21 0.0139442 -2.18357e-19 6.42901e-05)
(-0.0105142 -0.0291263 1.30786e-21 0.0104643 -6.32597e-19 4.98961e-05)
(-0.00759878 -0.0277569 -4.55751e-20 0.00756638 -3.04743e-19 3.24041e-05)
(-0.00533902 -0.0268605 2.46553e-19 0.00532734 -4.68083e-19 1.1676e-05)
(-0.155454 -0.0831712 6.83178e-20 0.155445 6.95071e-20 8.70821e-06)
(-0.136112 -0.0906002 3.84348e-20 0.136088 3.21925e-20 2.33422e-05)
(-0.119378 -0.0915008 -1.38888e-19 0.119342 -9.03669e-21 3.63067e-05)
(-0.104779 -0.0889728 -2.87682e-20 0.104731 1.0374e-20 4.78454e-05)
(-0.0919402 -0.0846878 5.97614e-20 0.0918821 6.56915e-21 5.8099e-05)
(-0.0805454 -0.0795629 -1.00018e-19 0.0804783 1.99344e-20 6.71202e-05)
(-0.0703578 -0.0741183 -7.76667e-20 0.0702829 -6.38582e-20 7.49156e-05)
(-0.0611809 -0.0686491 -7.28038e-20 0.0610994 -1.22934e-19 8.14363e-05)
(-0.0528697 -0.0633246 2.57541e-20 0.0527831 3.19938e-20 8.66105e-05)
(-0.0453042 -0.058244 3.96867e-19 0.0452139 -7.15313e-20 9.03236e-05)
(-0.0383979 -0.0534614 2.03655e-19 0.0383054 1.23977e-19 9.24507e-05)
(-0.03208 -0.0490139 7.96386e-20 0.0319872 -4.09145e-20 9.28298e-05)
(-0.026303 -0.0449185 1.78848e-19 0.0262117 -1.71802e-19 9.12994e-05)
(-0.0210308 -0.0411974 3.41132e-19 0.0209431 -2.06194e-19 8.76659e-05)
(-0.0162442 -0.0378596 -3.69722e-19 0.0161625 -3.3748e-19 8.17478e-05)
(-0.0119345 -0.0349311 -2.53598e-19 0.0118611 -6.41682e-20 7.33384e-05)
(-0.00810608 -0.0324247 -3.03145e-19 0.00804382 -4.14855e-19 6.22599e-05)
(-0.00477503 -0.0303792 -5.14719e-19 0.00472671 -4.56269e-19 4.83207e-05)
(-0.00196388 -0.0288213 -2.52017e-19 0.0019325 1.63343e-19 3.13811e-05)
(0.0002513 -0.0277828 1.48833e-19 -0.000262607 -8.46998e-20 1.13075e-05)
(-0.14967 -0.0931597 4.21809e-20 0.149661 3.02122e-20 8.38648e-06)
(-0.127419 -0.0992266 5.72043e-20 0.127396 -7.56761e-20 2.24797e-05)
(-0.109296 -0.0989857 -9.36228e-20 0.109261 -6.61325e-20 3.49653e-05)
(-0.0941612 -0.0954839 -9.84091e-20 0.0941152 -3.51741e-20 4.60778e-05)
(-0.0812724 -0.0903564 1.80338e-20 0.0812164 -3.88644e-20 5.59527e-05)
(-0.0701028 -0.0844924 -2.73364e-20 0.0700382 -3.10056e-20 6.46408e-05)
(-0.0602926 -0.0783929 -1.79734e-19 0.0602204 -2.32249e-20 7.21485e-05)
(-0.0515708 -0.0723376 -8.32266e-20 0.0514924 9.21793e-21 7.84287e-05)
(-0.0437477 -0.0664848 -1.20785e-19 0.0436643 2.37108e-19 8.34122e-05)
(-0.0366743 -0.0609249 1.40905e-19 0.0365873 2.64079e-19 8.69886e-05)
(-0.0302467 -0.0557057 4.43761e-19 0.0301577 3.10364e-19 8.90375e-05)
(-0.0243817 -0.0508593 8.05958e-20 0.0242923 -2.79215e-20 8.9403e-05)
(-0.0190247 -0.0463994 -1.91404e-19 0.0189368 1.63632e-19 8.79296e-05)
(-0.0141326 -0.0423457 3.21491e-19 0.0140481 1.94554e-20 8.44305e-05)
(-0.00968296 -0.0387058 -2.59821e-19 0.00960422 1.45844e-19 7.87311e-05)
(-0.00566107 -0.0355048 -3.76776e-19 0.00559044 3.29208e-20 7.06324e-05)
(-0.00206921 -0.0327559 -8.13243e-19 0.00200925 1.07306e-19 5.99629e-05)
(0.00108342 -0.0304986 -4.89793e-19 -0.00112995 6.11808e-19 4.65381e-05)
(0.00377806 -0.0287609 -1.84663e-19 -0.00380828 4.77033e-19 3.02236e-05)
(0.00593966 -0.0275798 -2.56667e-19 -0.00595055 3.03694e-19 1.08904e-05)
(-0.143245 -0.102746 -5.01397e-20 0.143237 9.75359e-20 8.02885e-06)
(-0.118243 -0.106785 -1.41101e-20 0.118222 -3.95083e-20 2.15211e-05)
(-0.098844 -0.105048 -9.31854e-20 0.0988106 -8.0848e-20 3.34742e-05)
(-0.0832575 -0.100397 -1.32615e-19 0.0832134 -3.31621e-22 4.41129e-05)
(-0.0703828 -0.0943562 -5.37025e-20 0.0703292 2.99213e-20 5.35668e-05)
(-0.0594897 -0.0877435 -1.45198e-19 0.0594278 1.17224e-19 6.18846e-05)
(-0.0500988 -0.0810151 -2.12352e-19 0.0500298 1.01594e-19 6.90724e-05)
(-0.0418676 -0.0744198 -1.47998e-19 0.0417925 1.6796e-19 7.50851e-05)
(-0.034563 -0.0680955 8.98865e-20 0.0344831 2.44309e-19 7.98565e-05)
(-0.0280082 -0.0621174 9.05308e-20 0.0279249 2.91275e-19 8.32808e-05)
(-0.0220831 -0.0565233 3.35264e-19 0.0219978 -4.09361e-20 8.52428e-05)
(-0.0166922 -0.0513374 4.08984e-19 0.0166066 -3.10955e-19 8.55932e-05)
(-0.0117746 -0.0465685 3.65202e-20 0.0116904 2.63941e-20 8.41829e-05)
(-0.00728026 -0.0422321 2.01822e-19 0.00719942 2.11172e-22 8.08333e-05)
(-0.00318389 -0.0383337 5.72396e-20 0.00310851 -6.8348e-20 7.53771e-05)
(0.000535125 -0.0348966 -2.37968e-20 -0.000602749 -3.98874e-20 6.76237e-05)
(0.00387673 -0.0319336 1.28709e-19 -0.00393414 1.16346e-19 5.7409e-05)
(0.00683839 -0.0294838 -2.99151e-19 -0.00688295 2.55435e-19 4.45563e-05)
(0.0094052 -0.0275761 1.69416e-20 -0.00943413 5.60758e-20 2.89367e-05)
(0.0115035 -0.0262523 -4.49127e-19 -0.0115139 4.58489e-19 1.04268e-05)
(-0.136208 -0.11189 -6.53946e-20 0.1362 4.42926e-20 7.63687e-06)
(-0.10875 -0.113266 -1.16459e-19 0.108729 -2.76037e-20 2.04704e-05)
(-0.0882603 -0.109701 -1.26994e-19 0.0882285 -3.90506e-20 3.18399e-05)
(-0.072344 -0.103738 -1.03589e-19 0.0723021 -2.7574e-21 4.19592e-05)
(-0.0595656 -0.0967195 -1.36784e-19 0.0595147 2.10741e-19 5.09516e-05)
(-0.0490058 -0.0893528 4.04528e-20 0.048947 1.27951e-19 5.88634e-05)
(-0.0400746 -0.0820243 -1.16878e-19 0.0400089 -8.44982e-21 6.57004e-05)
(-0.0323633 -0.0749367 -1.02328e-19 0.0322919 4.68918e-20 7.14198e-05)
(-0.0255992 -0.0681985 1.83971e-19 0.0255232 -5.12424e-20 7.59586e-05)
(-0.0195802 -0.0618636 3.21254e-19 0.019501 -1.78913e-19 7.92162e-05)
(-0.0141714 -0.0559564 4.11508e-20 0.0140903 -3.37568e-19 8.10828e-05)
(-0.00926655 -0.0504903 1.38371e-19 0.00918514 -2.79264e-19 8.14164e-05)
(-0.00479877 -0.0454678 3.60437e-19 0.0047187 -7.89872e-20 8.00754e-05)
(-0.000711987 -0.0408986 4.54499e-19 0.000635097 -2.71208e-19 7.68896e-05)
(0.00302183 -0.0367856 3.25371e-20 -0.00309353 -2.72606e-19 7.17e-05)
(0.00642864 -0.0331487 -2.16765e-19 -0.00649296 -1.8405e-19 6.43252e-05)
(0.00951054 -0.0300003 5.70038e-20 -0.00956515 -2.17262e-19 5.4609e-05)
(0.0122714 -0.0273779 1.20713e-19 -0.0123138 1.39719e-19 4.23834e-05)
(0.0147 -0.0253104 4.72366e-19 -0.0147275 2.80033e-19 2.75257e-05)
(0.0167245 -0.0238448 2.10146e-19 -0.0167344 -1.88934e-19 9.91846e-06)
(-0.128589 -0.120552 7.53685e-21 0.128582 -4.07412e-20 7.21225e-06)
(-0.0990947 -0.118693 -6.06642e-20 0.0990754 -8.60685e-20 1.93322e-05)
(-0.0777716 -0.112999 -1.4043e-19 0.0777415 -5.55768e-20 3.00695e-05)
(-0.0616838 -0.105581 -4.27251e-20 0.0616442 2.19058e-20 3.9626e-05)
(-0.0491006 -0.0975327 -3.31163e-20 0.0490525 1.68876e-19 4.81184e-05)
(-0.0389358 -0.0894127 2.32581e-20 0.0388802 -1.01536e-19 5.55903e-05)
(-0.0305026 -0.0815153 -9.65154e-20 0.0304405 -1.00765e-19 6.20473e-05)
(-0.0233346 -0.0739838 -1.03463e-19 0.0232671 -1.57179e-19 6.74488e-05)
(-0.0171248 -0.0668886 -1.21302e-19 0.017053 -2.04018e-19 7.17355e-05)
(-0.0116498 -0.0602573 1.55108e-19 0.0115749 -2.54426e-19 7.48122e-05)
(-0.00676184 -0.054097 5.08692e-20 0.00668527 -1.59166e-19 7.65754e-05)
(-0.00234571 -0.0484083 -7.43969e-20 0.00226881 -7.33798e-20 7.68909e-05)
(0.00167031 -0.0431859 -1.08998e-19 -0.00174594 -1.93076e-19 7.56248e-05)
(0.00534748 -0.0384323 2.63572e-20 -0.00542009 -8.31991e-20 7.26165e-05)
(0.00871608 -0.0341472 4.1568e-19 -0.00878379 -4.41655e-20 6.77157e-05)
(0.0118068 -0.0303462 -1.02251e-19 -0.0118676 -1.13773e-19 6.0751e-05)
(0.0146237 -0.0270407 -5.47151e-20 -0.0146753 1.16561e-20 5.15751e-05)
(0.0171765 -0.0242655 9.575e-20 -0.0172165 4.11005e-20 4.00289e-05)
(0.0194575 -0.0220489 1.23241e-19 -0.0194835 -2.33883e-19 2.59967e-05)
(0.0213972 -0.0204433 1.8295e-19 -0.0214065 -3.28082e-19 9.36761e-06)
(-0.120421 -0.128695 3.64097e-20 0.120414 -6.24854e-20 6.75681e-06)
(-0.0894258 -0.123111 7.36904e-20 0.0894077 -1.677e-19 1.81114e-05)
(-0.0675864 -0.115037 -9.5126e-20 0.0675582 -7.45324e-20 2.81706e-05)
(-0.0515173 -0.106048 -5.3551e-20 0.0514802 3.71767e-20 3.71235e-05)
(-0.0392424 -0.0969327 1.84772e-19 0.0391973 -6.80251e-20 4.50795e-05)
(-0.0295384 -0.088067 5.19998e-20 0.0294863 -1.77449e-19 5.20795e-05)
(-0.0216392 -0.0796344 -4.61098e-20 0.0215811 -1.17135e-19 5.81287e-05)
(-0.0150323 -0.071707 -2.41421e-19 0.0149691 -7.45858e-20 6.31893e-05)
(-0.0093833 -0.0643099 -4.57103e-19 0.0093161 1.50078e-20 6.72054e-05)
(-0.00445185 -0.0574395 -2.30387e-19 0.00438177 -4.05935e-20 7.00881e-05)
(-8.0692e-05 -0.0510831 -4.55006e-20 8.95185e-06 -3.44977e-20 7.17402e-05)
(0.00385241 -0.0452262 -6.96804e-20 -0.00392445 2.78404e-20 7.20361e-05)
(0.00742263 -0.0398543 -2.01135e-19 -0.00749348 9.94022e-20 7.08503e-05)
(0.0106952 -0.0349621 -4.16712e-19 -0.0107632 2.03565e-19 6.80323e-05)
(0.0137021 -0.0305451 -9.83539e-20 -0.0137655 9.10475e-23 6.34413e-05)
(0.0164779 -0.0266138 -5.07551e-20 -0.0165348 3.34461e-20 5.69166e-05)
(0.0190284 -0.0231784 -2.03703e-20 -0.0190767 -8.64777e-20 4.83201e-05)
(0.0213684 -0.0202698 -1.0804e-19 -0.0214059 -8.83147e-20 3.75029e-05)
(0.0234935 -0.0179152 -1.36989e-19 -0.0235178 -1.22401e-19 2.43564e-05)
(0.0253367 -0.0161725 3.27808e-20 -0.0253455 3.79212e-20 8.77665e-06)
(-0.11174 -0.136286 7.79782e-20 0.111734 -1.19988e-19 6.27254e-06)
(-0.0798737 -0.126593 3.4191e-20 0.0798569 -1.00232e-19 1.68133e-05)
(-0.0578873 -0.115946 1.81205e-20 0.0578611 -5.18141e-20 2.61515e-05)
(-0.0420535 -0.105303 -1.17298e-20 0.0420191 -8.40278e-20 3.44626e-05)
(-0.0302117 -0.0951005 1.17476e-19 0.0301699 -1.96059e-19 4.18482e-05)
(-0.0210372 -0.0855048 1.5524e-19 0.0209888 -2.05638e-19 4.83463e-05)
(-0.0137061 -0.0765731 7.04482e-20 0.0136521 -4.78536e-20 5.39618e-05)
(-0.0076728 -0.0682967 1.21618e-19 0.00761414 -2.42419e-21 5.86596e-05)
(-0.00258404 -0.0606496 -2.08094e-19 0.00252166 -7.45866e-20 6.2388e-05)
(0.00181171 -0.0535933 -3.99631e-19 -0.00187678 -1.72333e-19 6.50642e-05)
(0.00567794 -0.0470931 -3.09469e-19 -0.00574454 -1.03053e-20 6.65981e-05)
(0.00914114 -0.0411175 -1.25942e-19 -0.00920802 1.89467e-19 6.68731e-05)
(0.0122785 -0.0356425 -4.06261e-20 -0.0123443 3.35735e-19 6.57726e-05)
(0.0151578 -0.0306534 -5.88273e-20 -0.0152209 1.47538e-19 6.3157e-05)
(0.017812 -0.0261413 -3.23658e-19 -0.0178709 1.49472e-19 5.88953e-05)
(0.0202785 -0.022111 -3.74032e-19 -0.0203314 1.04194e-19 5.28385e-05)
(0.0225647 -0.018571 -3.67467e-19 -0.0226095 1.66026e-19 4.48583e-05)
(0.0246893 -0.0155475 -1.62368e-19 -0.0247241 2.61964e-19 3.48163e-05)
(0.026651 -0.0130665 -2.0591e-19 -0.0266736 -5.93161e-20 2.26118e-05)
(0.0283861 -0.011191 -3.46372e-19 -0.0283942 2.40868e-19 8.14807e-06)
(-0.102583 -0.143291 3.47025e-20 0.102577 -5.32074e-20 5.76153e-06)
(-0.07055 -0.129227 4.66913e-20 0.0705345 -2.41652e-20 1.54436e-05)
(-0.0488252 -0.115886 8.28593e-20 0.0488012 -7.71176e-20 2.40209e-05)
(-0.0334632 -0.103545 -1.12326e-20 0.0334315 -1.61605e-19 3.16547e-05)
(-0.0221876 -0.092254 -4.83882e-20 0.0221492 -1.97591e-19 3.84383e-05)
(-0.0136127 -0.0819529 1.62614e-21 0.0135683 -1.31216e-19 4.44068e-05)
(-0.00688109 -0.0725602 5.97591e-20 0.00683153 -1.21126e-20 4.95646e-05)
(-0.00142935 -0.0639798 1.3978e-19 0.00137547 -4.83858e-20 5.38795e-05)
(0.00310548 -0.0561305 1.38609e-19 -0.00316278 -2.12074e-19 5.73041e-05)
(0.0069798 -0.0489362 -2.83626e-19 -0.00703957 -1.80906e-19 5.97623e-05)
(0.0103594 -0.0423386 -2.58402e-19 -0.0104206 2.61821e-20 6.11714e-05)
(0.013372 -0.0362884 2.3336e-20 -0.0134335 1.20382e-19 6.14242e-05)
(0.0160953 -0.0307508 2.18289e-19 -0.0161557 8.16474e-20 6.04137e-05)
(0.0185978 -0.0257015 1.62664e-19 -0.0186558 -4.34243e-20 5.80114e-05)
(0.0209129 -0.021127 3.62294e-19 -0.020967 1.17103e-19 5.40973e-05)
(0.0230797 -0.0170257 1.47015e-19 -0.0231282 6.15916e-20 4.85343e-05)
(0.0251064 -0.0134041 7.63515e-20 -0.0251476 -7.02014e-21 4.12045e-05)
(0.0270153 -0.0102834 -4.32211e-20 -0.0270473 -1.14959e-19 3.19807e-05)
(0.0288071 -0.00768753 3.81904e-20 -0.0288278 -9.4525e-20 2.07704e-05)
(0.030422 -0.00568483 5.00458e-20 -0.0304295 -8.1568e-20 7.48465e-06)
(-0.0929893 -0.149682 4.29853e-21 0.0929841 -1.4765e-20 5.22599e-06)
(-0.0615429 -0.13112 -3.14962e-21 0.0615289 2.50245e-20 1.4008e-05)
(-0.0405142 -0.115038 1.66111e-19 0.0404924 -1.11594e-19 2.17879e-05)
(-0.0258726 -0.100996 -4.41174e-21 0.0258438 -1.56737e-19 2.87119e-05)
(-0.015301 -0.0886385 -1.3816e-19 0.0152661 -1.43261e-19 3.48647e-05)
(-0.00739603 -0.0776659 -1.413e-19 0.00735575 -3.6062e-20 4.0278e-05)
(-0.00129281 -0.0678526 5.90962e-20 0.00124786 -1.26854e-20 4.49561e-05)
(0.00357356 -0.0590108 5.621e-20 -0.00362243 -8.28129e-20 4.88697e-05)
(0.00756555 -0.0510021 1.56177e-19 -0.00761753 -2.32635e-19 5.19757e-05)
(0.0109378 -0.0437116 -2.03183e-19 -0.010992 -9.15465e-20 5.42053e-05)
(0.013854 -0.0370563 -2.01347e-19 -0.0139095 -1.60525e-19 5.54835e-05)
(0.0164403 -0.0309685 -1.94152e-19 -0.016496 -9.68917e-20 5.5713e-05)
(0.0187727 -0.0254027 1.36455e-19 -0.0188275 -5.69855e-20 5.47967e-05)
(0.0209191 -0.0203244 6.24759e-20 -0.0209717 -2.22878e-19 5.26181e-05)
(0.0229122 -0.0157153 1.31941e-19 -0.0229613 -1.39097e-21 4.90682e-05)
(0.0247917 -0.0115671 4.48968e-19 -0.0248358 -1.7846e-19 4.40227e-05)
(0.0265665 -0.00788427 1.85734e-19 -0.0266039 -2.06444e-19 3.73745e-05)
(0.0282606 -0.0046825 1.94742e-19 -0.0282896 -2.34266e-19 2.90084e-05)
(0.029877 -0.00198359 -2.19823e-19 -0.0298958 -2.51057e-19 1.88402e-05)
(0.03136 0.000139202 1.18024e-19 -0.0313668 -3.83768e-20 6.78917e-06)
(-0.0830006 -0.155432 3.36319e-20 0.0829959 -3.81489e-21 4.66822e-06)
(-0.0529158 -0.132388 1.10267e-19 0.0529033 -5.15619e-20 1.2513e-05)
(-0.0330282 -0.1136 7.98355e-20 0.0330087 -9.88543e-20 1.94624e-05)
(-0.0193599 -0.0978975 6.82244e-20 0.0193343 -1.02386e-19 2.56471e-05)
(-0.00963058 -0.0845172 8.34467e-21 0.00959944 -1.4783e-19 3.11428e-05)
(-0.00246431 -0.0729167 -1.2541e-19 0.00242834 -8.5541e-20 3.59779e-05)
(0.00298424 -0.0627246 1.41089e-21 -0.00302439 -6.76737e-20 4.01562e-05)
(0.00726467 -0.0536614 -6.08469e-20 -0.00730832 -1.14313e-19 4.36517e-05)
(0.0107285 -0.0455308 -1.59648e-19 -0.0107749 -3.49484e-20 4.64259e-05)
(0.0136215 -0.0381788 1.42491e-20 -0.0136699 -2.49917e-20 4.84173e-05)
(0.0161012 -0.0314982 -1.70636e-19 -0.0161508 -2.51187e-19 4.9559e-05)
(0.0182887 -0.0254028 -5.14879e-19 -0.0183385 -4.52152e-20 4.97641e-05)
(0.0202566 -0.0198362 -2.81444e-19 -0.0203056 -2.97035e-20 4.89458e-05)
(0.0220702 -0.0147538 -4.04389e-19 -0.0221172 -1.34383e-20 4.70001e-05)
(0.023761 -0.0101326 -1.74102e-19 -0.0238048 1.12386e-19 4.38295e-05)
(0.0253678 -0.00595747 -1.65664e-19 -0.0254071 -1.38616e-19 3.9323e-05)
(0.0268996 -0.00223092 -1.96783e-19 -0.026933 1.18794e-19 3.33849e-05)
(0.0283815 0.00103725 1.64166e-20 -0.0284074 2.79698e-20 2.59121e-05)
(0.0298176 0.00382747 -1.28334e-19 -0.0298344 -3.69841e-20 1.68294e-05)
(0.0311574 0.00606175 -1.24398e-19 -0.0311635 5.96997e-20 6.06471e-06)
(-0.0726594 -0.160517 8.75957e-20 0.0726553 -3.56392e-20 4.09064e-06)
(-0.0447056 -0.133153 1.17756e-19 0.0446946 -6.24034e-20 1.09647e-05)
(-0.0263993 -0.111773 9.80111e-20 0.0263822 -8.43488e-20 1.70542e-05)
(-0.0139532 -0.094497 6.57059e-21 0.0139307 -7.27632e-20 2.24734e-05)
(-0.00520071 -0.0801602 6.32138e-20 0.00517342 -1.42051e-19 2.72886e-05)
(0.00116129 -0.0679849 -6.66705e-20 -0.00119282 -1.0355e-19 3.15249e-05)
(0.00593175 -0.0574578 -1.25273e-20 -0.00596694 -5.27107e-20 3.51856e-05)
(0.00962817 -0.0482098 -1.77028e-20 -0.00966642 -1.44116e-20 3.8248e-05)
(0.0125807 -0.0399891 -3.23071e-20 -0.0126214 -3.46142e-20 4.06785e-05)
(0.0150194 -0.0326035 -3.13397e-20 -0.0150618 -1.32938e-19 4.24232e-05)
(0.0170913 -0.0259224 -7.42781e-20 -0.0171348 -1.19933e-19 4.34235e-05)
(0.0189092 -0.0198416 -2.04605e-19 -0.0189528 3.87431e-20 4.36032e-05)
(0.0205406 -0.0142943 -1.05295e-19 -0.0205835 -6.25366e-20 4.28863e-05)
(0.0220463 -0.00922641 -3.63458e-19 -0.0220875 -2.82553e-20 4.11816e-05)
(0.0234556 -0.00461018 -1.09403e-19 -0.023494 5.49613e-22 3.84038e-05)
(0.0248053 -0.0004238 -2.52797e-19 -0.0248398 -5.04303e-21 3.44554e-05)
(0.0261044 0.00333219 -1.67083e-19 -0.0261336 1.48542e-19 2.92527e-05)
(0.0273774 0.00665373 -3.21976e-20 -0.0274001 -4.15354e-20 2.27051e-05)
(0.0286292 0.00952351 -3.3827e-19 -0.028644 9.25611e-20 1.47468e-05)
(0.029815 0.0118592 1.6463e-19 -0.0298203 1.53943e-20 5.31429e-06)
(-0.06201 -0.164915 -7.80294e-22 0.0620065 -4.00355e-21 3.49571e-06)
(-0.0369228 -0.133535 9.37658e-21 0.0369134 -1.47597e-20 9.37006e-06)
(-0.0206174 -0.109759 2.36698e-20 0.0206029 -1.69601e-20 1.45737e-05)
(-0.00962973 -0.0910386 8.93342e-20 0.00961053 -7.21319e-20 1.92044e-05)
(-0.00198109 -0.0758339 2.02093e-20 0.00195777 -1.34185e-19 2.33187e-05)
(0.00351586 -0.0631461 -9.01552e-20 -0.0035428 -8.51465e-20 2.69382e-05)
(0.0075877 -0.052329 -9.1716e-20 -0.00761777 -1.8528e-20 3.00657e-05)
(0.0107038 -0.0429301 2.19937e-20 -0.0107365 -2.28455e-21 3.2682e-05)
(0.0131629 -0.034645 1.17433e-19 -0.0131977 -1.0777e-19 3.47583e-05)
(0.0151728 -0.0272466 -3.00523e-20 -0.0152091 -1.63004e-19 3.62488e-05)
(0.0168659 -0.020582 -9.81096e-20 -0.016903 -1.15195e-19 3.71033e-05)
(0.0183435 -0.0145306 -7.1624e-20 -0.0183807 -6.96769e-20 3.72567e-05)
(0.0196662 -0.00901602 -2.83768e-20 -0.0197028 -1.23327e-19 3.66442e-05)
(0.0208888 -0.00397475 -1.72532e-19 -0.020924 -1.56252e-19 3.51877e-05)
(0.0220377 0.000624981 -2.98811e-19 -0.0220705 -5.30764e-20 3.28144e-05)
(0.0231464 0.00481128 -2.3037e-19 -0.0231758 3.9365e-20 2.9441e-05)
(0.0242231 0.00858551 -2.09941e-19 -0.0242481 1.72626e-19 2.49957e-05)
(0.0252911 0.011949 1.16554e-19 -0.0253105 2.33331e-19 1.94013e-05)
(0.0263554 0.0148867 1.06393e-19 -0.026368 5.28219e-20 1.26012e-05)
(0.0273772 0.0173124 3.72491e-20 -0.0273817 -9.71555e-20 4.5412e-06)
(-0.0510976 -0.168608 -1.87713e-20 0.0510947 1.63971e-21 2.886e-06)
(-0.0295521 -0.13365 -3.29548e-20 0.0295444 1.55223e-22 7.73575e-06)
(-0.0156322 -0.107748 -2.65544e-20 0.0156201 -1.16022e-20 1.20316e-05)
(-0.00631853 -0.0877535 -2.36692e-20 0.00630268 -5.20997e-20 1.58541e-05)
(0.000111139 -0.07179 -7.90409e-20 -0.000130389 -6.2847e-20 1.92501e-05)
(0.00468857 -0.0586605 -1.17125e-19 -0.00471081 -1.77773e-20 2.22374e-05)
(0.00804426 -0.0475999 -2.67377e-20 -0.00806908 -2.87596e-20 2.48185e-05)
(0.0105846 -0.0380806 -5.46716e-20 -0.0106116 -5.95641e-20 2.69774e-05)
(0.012568 -0.0297516 -1.83079e-20 -0.0125967 -1.08588e-19 2.86907e-05)
(0.0141735 -0.0223544 -6.39362e-20 -0.0142034 -9.57386e-20 2.99205e-05)
(0.0155153 -0.0157164 -1.84771e-20 -0.0155459 -1.16303e-19 3.06254e-05)
(0.0166804 -0.009702 -1.24637e-19 -0.0167112 -1.24387e-19 3.07519e-05)
(0.017721 -0.00422638 -1.16013e-19 -0.0177513 -1.19572e-19 3.02462e-05)
(0.0186843 0.00078206 -2.30931e-19 -0.0187133 -8.19869e-20 2.90441e-05)
(0.0195928 0.00535893 -1.93955e-19 -0.0196199 2.50942e-20 2.70853e-05)
(0.0204757 0.00953794 -2.26967e-19 -0.0205 4.19175e-20 2.43011e-05)
(0.0213403 0.0133221 -2.2417e-19 -0.021361 1.57609e-19 2.06322e-05)
(0.0222072 0.0167178 9.63148e-20 -0.0222233 1.20236e-19 1.60146e-05)
(0.0230814 0.0197118 7.43301e-20 -0.0230918 -1.54063e-20 1.04018e-05)
(0.0239303 0.0222147 5.72364e-21 -0.0239341 1.98787e-20 3.7487e-06)
(-0.0399687 -0.171581 -2.66642e-20 0.0399664 2.76194e-21 2.2641e-06)
(-0.0225548 -0.133603 -5.13135e-20 0.0225487 2.60141e-21 6.06878e-06)
(-0.0113556 -0.105912 -5.46858e-20 0.0113461 -8.14363e-21 9.43869e-06)
(-0.00390365 -0.0848504 -6.55692e-20 0.00389121 -2.66276e-20 1.24369e-05)
(0.00120728 -0.0682557 -7.71964e-20 -0.00122238 -1.61735e-20 1.51002e-05)
(0.00481849 -0.054763 -1.39137e-20 -0.00483593 -1.84899e-20 1.74426e-05)
(0.00744358 -0.0435063 -4.78484e-21 -0.00746305 -4.27425e-20 1.94663e-05)
(0.00941307 -0.0338945 2.79789e-20 -0.00943423 -7.35351e-20 2.11587e-05)
(0.0109368 -0.0255371 -1.2433e-20 -0.0109593 -1.19799e-19 2.25017e-05)
(0.0121601 -0.0181489 -6.34421e-20 -0.0121836 -1.13636e-19 2.34654e-05)
(0.0131754 -0.0115408 -5.21622e-20 -0.0131994 -1.31361e-19 2.40177e-05)
(0.0140531 -0.00556459 -1.5081e-19 -0.0140772 -1.06402e-19 2.41165e-05)
(0.0148354 -0.000128253 -1.13179e-19 -0.0148591 -1.03607e-19 2.37198e-05)