/*--------------------------------*- C++ -*----------------------------------*\
| =========                 |                                                 |
| \\      /  F ield         | foam-extend: Open Source CFD                    |
|  \\    /   O peration     | Version:  3.0                                   |
|   \\  /    A nd           | Web:         http://www.extend-project.de       |
|    \\/     M anipulation  |                                                 |
\*---------------------------------------------------------------------------*/
FoamFile
{
    version     2.0;
    format      ascii;
    class       volScalarField;
    location    "20";
    object      p;
}
// * * * * * * * * * * * * * * * * * * * * * * * * * * * * * * * * * * * * * //

dimensions      [0 2 -2 0 0 0 0];

internalField   nonuniform List<scalar> 
1512
(
18.5922
18.6169
18.6148
18.6592
18.6489
18.5652
18.5858
18.5851
18.6216
18.6169
18.5957
18.6197
18.6182
18.66
18.6535
18.555
18.5744
18.5739
18.6084
18.6036
18.5956
18.6196
18.6181
18.6599
18.6535
18.565
18.5856
18.585
18.6215
18.617
18.5922
18.6168
18.6146
18.6589
18.6486
-9.8024
-9.80344
-9.80716
-9.81318
-9.82502
-9.7998
-9.80119
-9.80442
-9.81053
-9.82127
-9.80547
-9.8071
-9.81051
-9.81757
-9.82866
-9.79912
-9.80059
-9.80387
-9.81039
-9.82102
-9.8053
-9.80692
-9.81034
-9.8174
-9.82855
-9.79951
-9.8009
-9.80424
-9.81036
-9.8212
-9.8023
-9.80325
-9.80688
-9.81277
-9.8246
17.5383
17.5346
17.5391
17.5369
17.5521
17.541
17.5384
17.542
17.5416
17.554
17.54
17.5372
17.5411
17.5406
17.5536
17.5416
17.5393
17.543
17.5433
17.5556
17.5399
17.537
17.5409
17.5404
17.5535
17.5406
17.5381
17.5418
17.5414
17.5539
17.5381
17.5344
17.5388
17.5365
17.5516
-8.47078
-8.45789
-8.46304
-8.44414
-8.46255
-8.48307
-8.47257
-8.47614
-8.46221
-8.47547
-8.47
-8.45818
-8.46216
-8.44635
-8.46009
-8.48587
-8.47582
-8.4794
-8.46682
-8.47971
-8.4698
-8.45796
-8.46196
-8.44613
-8.45995
-8.48274
-8.47223
-8.47592
-8.462
-8.47537
-8.47062
-8.45764
-8.46269
-8.44364
-8.46205
12.5295
12.5073
12.5129
12.4775
12.4981
12.5505
12.5319
12.5355
12.5078
12.5218
12.5281
12.5072
12.5114
12.4801
12.4946
12.5563
12.5384
12.542
12.5162
12.5298
12.5278
12.507
12.5111
12.4798
12.4945
12.5502
12.5316
12.5353
12.5075
12.5217
12.5293
12.507
12.5125
12.4769
12.4975
-3.57525
-3.55046
-3.55527
-3.51495
-3.53296
-3.59753
-3.57625
-3.57916
-3.54706
-3.55886
-3.5732
-3.54979
-3.55305
-3.51705
-3.52877
-3.60316
-3.58255
-3.58546
-3.55511
-3.56641
-3.57299
-3.54956
-3.55283
-3.51682
-3.5286
-3.5972
-3.57591
-3.57893
-3.54683
-3.55872
-3.57504
-3.55017
-3.55489
-3.51445
-3.53244
4.64577
4.62129
4.62513
4.5848
4.5995
4.66708
4.64568
4.64792
4.61537
4.62475
4.64342
4.62008
4.62252
4.58606
4.59505
4.67245
4.65164
4.65387
4.62281
4.63176
4.64321
4.61987
4.62231
4.58585
4.59488
4.66677
4.64536
4.64767
4.61515
4.62459
4.64553
4.621
4.62476
4.58433
4.59901
1.06169
1.07927
1.0769
1.10588
1.09657
1.04715
1.06287
1.06146
1.0851
1.07912
1.06367
1.08062
1.07916
1.10567
1.10013
1.04349
1.05881
1.05742
1.08014
1.07444
1.06384
1.0808
1.07934
1.10584
1.10027
1.04742
1.06314
1.06168
1.0853
1.07928
1.06193
1.07954
1.07723
1.10625
1.09698
18.5917
18.6163
18.6142
18.6587
18.6484
18.5649
18.5855
18.5848
18.6213
18.6167
18.5956
18.6195
18.618
18.6599
18.6535
18.555
18.5744
18.5739
18.6084
18.6036
18.5956
18.6196
18.6181
18.6599
18.6534
18.5656
18.5862
18.5854
18.6219
18.617
18.5925
18.6172
18.6148
18.6592
18.6486
-9.80186
-9.80288
-9.80664
-9.81269
-9.8246
-9.79954
-9.80091
-9.80416
-9.81028
-9.82106
-9.80532
-9.80696
-9.81039
-9.81744
-9.82861
-9.79924
-9.80071
-9.80397
-9.8105
-9.82111
-9.80538
-9.807
-9.8104
-9.81748
-9.82856
-9.80033
-9.80174
-9.80478
-9.8109
-9.82142
-9.80274
-9.80378
-9.80718
-9.81323
-9.82477
17.5377
17.534
17.5386
17.5364
17.5516
17.5407
17.5381
17.5417
17.5413
17.5538
17.5399
17.537
17.5409
17.5404
17.5535
17.5417
17.5395
17.5431
17.5435
17.5557
17.5399
17.5371
17.5409
17.5405
17.5535
17.5415
17.539
17.5424
17.542
17.5542
17.5386
17.535
17.5391
17.537
17.5518
-8.47017
-8.45725
-8.46244
-8.44356
-8.46206
-8.48275
-8.47223
-8.47582
-8.4619
-8.47521
-8.46979
-8.45797
-8.46199
-8.44616
-8.45999
-8.48596
-8.47592
-8.47949
-8.46693
-8.47979
-8.46987
-8.45804
-8.46202
-8.44623
-8.45996
-8.48363
-8.47316
-8.47652
-8.46262
-8.47565
-8.47113
-8.45825
-8.46306
-8.44418
-8.46227
12.5289
12.5067
12.5123
12.4769
12.4976
12.5502
12.5316
12.5352
12.5075
12.5215
12.5279
12.507
12.5112
12.4799
12.4945
12.5564
12.5386
12.5421
12.5163
12.5299
12.5279
12.5071
12.5112
12.48
12.4945
12.5511
12.5325
12.5359
12.5082
12.522
12.5299
12.5077
12.5129
12.4775
12.4978
-3.57474
-3.54992
-3.55477
-3.51446
-3.53254
-3.59729
-3.57599
-3.57893
-3.54682
-3.55866
-3.57304
-3.54963
-3.55292
-3.5169
-3.52871
-3.60331
-3.58271
-3.58561
-3.55528
-3.56656
-3.57311
-3.5497
-3.55295
-3.51697
-3.52868
-3.59808
-3.57683
-3.57956
-3.54747
-3.55905
-3.57558
-3.5508
-3.55531
-3.515
-3.53271
4.64543
4.62091
4.62479
4.58445
4.59922
4.66697
4.64554
4.6478
4.61524
4.62466
4.64337
4.62003
4.6225
4.58601
4.59507
4.67267
4.65186
4.65409
4.62304
4.63196
4.64341
4.62007
4.6225
4.58606
4.59504
4.66761
4.64622
4.64831
4.61576
4.62496
4.64608
4.6216
4.62519
4.58487
4.5993
1.06179
1.07941
1.07702
1.10601
1.09667
1.04708
1.06283
1.06141
1.08507
1.07907
1.06356
1.08053
1.07905
1.10559
1.1
1.04318
1.05851
1.05712
1.07985
1.07417
1.06357
1.08054
1.07908
1.10559
1.10006
1.04671
1.06243
1.06112
1.08477
1.07891
1.06146
1.07904
1.07684
1.10582
1.0967
18.5923
18.617
18.6148
18.6592
18.6489
18.5653
18.5858
18.5852
18.6217
18.617
18.5957
18.6197
18.6181
18.66
18.6535
18.555
18.5744
18.5739
18.6084
18.6036
18.5955
18.6195
18.6179
18.6598
18.6533
18.5656
18.5861
18.5853
18.6218
18.6169
18.5923
18.617
18.6145
18.659
18.6484
-9.80255
-9.80357
-9.80729
-9.81329
-9.82513
-9.79998
-9.80136
-9.80459
-9.81067
-9.82143
-9.80553
-9.80714
-9.81056
-9.81759
-9.82869
-9.7993
-9.80075
-9.804
-9.8105
-9.8211
-9.80531
-9.8069
-9.81029
-9.81735
-9.82846
-9.80026
-9.80166
-9.80467
-9.81076
-9.82127
-9.8025
-9.80353
-9.80694
-9.81298
-9.82455
17.5385
17.5348
17.5393
17.5371
17.5522
17.5412
17.5387
17.5423
17.5418
17.5542
17.5402
17.5373
17.5412
17.5407
17.5537
17.5418
17.5396
17.5431
17.5435
17.5557
17.5399
17.537
17.5408
17.5403
17.5534
17.5414
17.5389
17.5423
17.5418
17.554
17.5383
17.5347
17.5389
17.5367
17.5515
-8.47105
-8.45814
-8.46328
-8.44435
-8.46276
-8.48338
-8.47286
-8.47643
-8.46247
-8.47574
-8.47015
-8.45831
-8.46229
-8.44644
-8.4602
-8.48612
-8.47605
-8.47959
-8.467
-8.47984
-8.46983
-8.45795
-8.46191
-8.4461
-8.45986
-8.48353
-8.47303
-8.47637
-8.46243
-8.47544
-8.47083
-8.45793
-8.46275
-8.44386
-8.46198
12.5299
12.5076
12.5132
12.4778
12.4983
12.551
12.5323
12.5359
12.5081
12.5221
12.5283
12.5074
12.5116
12.4802
12.4948
12.5566
12.5387
12.5423
12.5164
12.53
12.5279
12.507
12.5111
12.4798
12.4944
12.5511
12.5324
12.5358
12.508
12.5218
12.5296
12.5074
12.5126
12.4772
12.4975
-3.57563
-3.55081
-3.55562
-3.51526
-3.53325
-3.59797
-3.57666
-3.57957
-3.54743
-3.55923
-3.57348
-3.55004
-3.5533
-3.51725
-3.52898
-3.60354
-3.5829
-3.58577
-3.55541
-3.56666
-3.57313
-3.54968
-3.55291
-3.5169
-3.52864
-3.59803
-3.57674
-3.57945
-3.54732
-3.55889
-3.57534
-3.55053
-3.55505
-3.51472
-3.53247
4.64616
4.62166
4.62549
4.58512
4.59981
4.66755
4.64612
4.64836
4.61577
4.62515
4.64376
4.6204
4.62284
4.58633
4.59533
4.67291
4.65207
4.65427
4.62319
4.63209
4.64347
4.62009
4.62251
4.58603
4.59503
4.66762
4.6462
4.64826
4.61568
4.62487
4.64593
4.62143
4.62503
4.58468
4.59915
1.06133
1.07894
1.07657
1.10559
1.0963
1.04669
1.06243
1.06103
1.08471
1.07873
1.06327
1.08025
1.07879
1.10535
1.09981
1.04298
1.05833
1.05695
1.07971
1.07405
1.06346
1.08046
1.07901
1.10555
1.10001
1.04662
1.06236
1.06107
1.08475
1.07891
1.06145
1.07906
1.07685
1.10586
1.09673
18.5922
18.6168
18.6146
18.6589
18.6486
18.5652
18.5858
18.5853
18.6218
18.6173
18.5959
18.6198
18.6183
18.6602
18.6538
18.5553
18.5748
18.5742
18.6087
18.6039
18.5959
18.6198
18.6183
18.6601
18.6536
18.5658
18.5864
18.5855
18.622
18.6172
18.5927
18.6173
18.6149
18.6593
18.6487
-9.80231
-9.80327
-9.8069
-9.81279
-9.82467
-9.79978
-9.80119
-9.80454
-9.81066
-9.82158
-9.80559
-9.80722
-9.81066
-9.81771
-9.82892
-9.79957
-9.80104
-9.8043
-9.81081
-9.82143
-9.80564
-9.80724
-9.81064
-9.81769
-9.82876
-9.80057
-9.80196
-9.805
-9.81109
-9.82161
-9.80293
-9.80395
-9.80736
-9.81337
-9.82492
17.5381
17.5344
17.5388
17.5365
17.5517
17.5409
17.5384
17.5421
17.5417
17.5543
17.5402
17.5373
17.5412
17.5407
17.5539
17.5421
17.5399
17.5435
17.5438
17.5561
17.5403
17.5374
17.5413
17.5408
17.5538
17.5418
17.5393
17.5427
17.5422
17.5544
17.5389
17.5352
17.5394
17.5372
17.552
-8.47064
-8.45767
-8.46272
-8.44367
-8.46214
-8.48305
-8.47257
-8.47627
-8.46235
-8.47581
-8.47014
-8.45832
-8.46234
-8.44651
-8.46039
-8.48642
-8.47638
-8.47995
-8.46736
-8.48024
-8.47027
-8.45841
-8.46238
-8.44656
-8.46027
-8.48401
-8.47352
-8.47688
-8.46293
-8.47596
-8.47145
-8.45855
-8.46336
-8.44444
-8.46253
12.5294
12.5071
12.5126
12.477
12.4976
12.5505
12.5319
12.5356
12.5079
12.5221
12.5282
12.5074
12.5115
12.4802
12.4949
12.5569
12.539
12.5426
12.5168
12.5304
12.5284
12.5075
12.5116
12.4803
12.4949
12.5516
12.533
12.5363
12.5086
12.5224
12.5303
12.508
12.5133
12.4779
12.4981
-3.57508
-3.55022
-3.55495
-3.51449
-3.53254
-3.5975
-3.57624
-3.57927
-3.54718
-3.55915
-3.57333
-3.54992
-3.55322
-3.5172
-3.52905
-3.60374
-3.58314
-3.58604
-3.55569
-3.56699
-3.57352
-3.55009
-3.55334
-3.51732
-3.52902
-3.59852
-3.57724
-3.57997
-3.54784
-3.55942
-3.57598
-3.55117
-3.55568
-3.51533
-3.53303
4.64559
4.62106
4.62483
4.58439
4.59911
4.66704
4.64565
4.64799
4.61545
4.62497
4.64354
4.6202
4.62268
4.5862
4.5953
4.67298
4.65218
4.6544
4.62335
4.63228
4.64374
4.62038
4.62282
4.58634
4.59531
4.66799
4.64658
4.64867
4.61609
4.62529
4.64646
4.62196
4.62555
4.58518
4.59962
1.06188
1.07948
1.07716
1.1062
1.09689
1.04722
1.06292
1.06145
1.08507
1.079
1.06359
1.08054
1.07905
1.10557
1.09995
1.04308
1.05839
1.057
1.07973
1.07403
1.0634
1.08037
1.07891
1.10543
1.09991
1.04645
1.06218
1.06088
1.08454
1.07869
1.06115
1.07875
1.07655
1.10556
1.09644
18.7133
18.6798
18.7449
18.6787
18.7448
18.6796
18.7136
18.6799
18.6665
18.7206
18.6928
18.7205
18.6661
18.6797
18.7449
18.7206
18.8062
18.7524
18.8061
18.7205
18.7447
18.6789
18.6929
18.7524
18.7336
18.7524
18.6927
18.6787
18.7448
18.7206
18.8061
18.7524
18.806
18.7205
18.7447
18.6798
18.6662
18.7206
18.6927
18.7205
18.6661
18.6795
18.7136
18.6796
18.7447
18.6787
18.7447
18.6796
18.7133
-9.83664
-9.84055
-9.85622
-9.84739
-9.85622
-9.84045
-9.8371
-9.8407
-9.8522
-9.87464
-9.87261
-9.87465
-9.85186
-9.84061
-9.85631
-9.87473
-9.90926
-9.90535
-9.90916
-9.87464
-9.85611
-9.84759
-9.87275
-9.90539
-9.90744
-9.90535
-9.87255
-9.8474
-9.85625
-9.87473
-9.90921
-9.90538
-9.90912
-9.87464
-9.85606
-9.84074
-9.85203
-9.87471
-9.87256
-9.87462
-9.85187
-9.84037
-9.83719
-9.84056
-9.85616
-9.84744
-9.85605
-9.84049
-9.83686
17.5516
17.5628
17.5656
17.57
17.5656
17.5628
17.5521
17.563
17.5786
17.592
17.5959
17.5921
17.5783
17.563
17.5657
17.5922
17.6115
17.6199
17.6114
17.5921
17.5655
17.5703
17.5961
17.6199
17.6268
17.6199
17.5959
17.5701
17.5656
17.5922
17.6115
17.6199
17.6114
17.592
17.5654
17.5631
17.5785
17.5922
17.5959
17.592
17.5783
17.5627
17.5522
17.5629
17.5655
17.5701
17.5654
17.5628
17.5518
-8.43763
-8.46186
-8.43837
-8.46733
-8.43841
-8.46178
-8.43817
-8.46207
-8.4813
-8.47522
-8.48904
-8.47525
-8.48094
-8.46199
-8.43853
-8.47533
-8.46008
-8.49093
-8.45996
-8.47521
-8.43828
-8.46765
-8.48925
-8.49102
-8.50499
-8.49094
-8.48895
-8.46736
-8.43851
-8.47538
-8.46005
-8.49098
-8.45991
-8.4752
-8.43819
-8.46221
-8.48121
-8.47537
-8.489
-8.47519
-8.48089
-8.46165
-8.43834
-8.46199
-8.43839
-8.46744
-8.43821
-8.46181
-8.43785
12.4499
12.4855
12.4395
12.4894
12.4395
12.4854
12.4505
12.4857
12.507
12.4826
12.5044
12.4826
12.5067
12.4857
12.4397
12.4827
12.4366
12.4848
12.4365
12.4826
12.4394
12.4898
12.5046
12.4849
12.5038
12.4848
12.5043
12.4895
12.4397
12.4828
12.4366
12.4849
12.4364
12.4826
12.4393
12.4859
12.507
12.4828
12.5044
12.4826
12.5066
12.4853
12.4507
12.4857
12.4396
12.4896
12.4394
12.4855
12.4502
-3.47821
-3.51515
-3.46204
-3.51578
-3.46209
-3.5151
-3.47874
-3.51536
-3.53318
-3.5026
-3.5247
-3.50264
-3.53287
-3.51534
-3.46222
-3.50272
-3.44393
-3.49582
-3.44382
-3.50261
-3.462
-3.51617
-3.52494
-3.49594
-3.51427
-3.49585
-3.52463
-3.51588
-3.46226
-3.50281
-3.44394
-3.4959
-3.44379
-3.5026
-3.46191
-3.51561
-3.53321
-3.50282
-3.52473
-3.50262
-3.53285
-3.51501
-3.47899
-3.5154
-3.46216
-3.51599
-3.46196
-3.51519
-3.47847
4.54476
4.5795
4.52543
4.57797
4.52549
4.57947
4.54525
4.57967
4.5941
4.5613
4.58218
4.56134
4.59386
4.5797
4.52561
4.56141
4.49835
4.54894
4.49826
4.56133
4.52545
4.57833
4.58242
4.54906
4.56576
4.54898
4.58216
4.5781
4.52567
4.56152
4.49839
4.54904
4.49825
4.56134
4.52538
4.57996
4.59419
4.56154
4.58226
4.56137
4.59388
4.57944
4.5455
4.57979
4.52561
4.57822
4.52543
4.57961
4.54506
1.13553
1.11149
1.15091
1.11366
1.15087
1.11148
1.13515
1.11137
1.10193
1.12575
1.11126
1.1257
1.10206
1.11128
1.15077
1.12566
1.17224
1.13578
1.17229
1.12568
1.15084
1.11337
1.11108
1.13568
1.12412
1.13572
1.11122
1.11347
1.1507
1.12554
1.17218
1.13567
1.17227
1.12564
1.15087
1.11109
1.10179
1.1255
1.11113
1.12561
1.10199
1.11142
1.13494
1.11118
1.1507
1.11336
1.15081
1.11128
1.13521
)
;

boundaryField
{
    inlet
    {
        type            fixedValue;
        value           uniform 4;
    }
    wall
    {
        type            zeroGradient;
    }
    outlet
    {
        type            fixedValue;
        value           uniform 1;
    }
}


// ************************************************************************* //
