/*--------------------------------*- C++ -*----------------------------------*\
| =========                 |                                                 |
| \\      /  F ield         | foam-extend: Open Source CFD                    |
|  \\    /   O peration     | Version:  3.0                                   |
|   \\  /    A nd           | Web:         http://www.extend-project.de       |
|    \\/     M anipulation  |                                                 |
\*---------------------------------------------------------------------------*/
FoamFile
{
    version     2.0;
    format      ascii;
    class       volScalarField;
    location    "23";
    object      p;
}
// * * * * * * * * * * * * * * * * * * * * * * * * * * * * * * * * * * * * * //

dimensions      [0 0 0 0 0 0 0];

internalField   nonuniform List<scalar> 
576
(
-7.15071
-7.21981
-5.58362
-5.72026
-4.76489
-4.98283
-4.40305
-4.63021
-4.34532
-4.51222
-4.51328
-4.5644
-7.02775
-7.09555
-5.4879
-5.62206
-4.68309
-4.89737
-4.32749
-4.55095
-4.27089
-4.43512
-4.436
-4.48625
-6.78583
-6.8512
-5.29878
-5.42832
-4.52172
-4.72858
-4.17833
-4.39399
-4.12361
-4.28208
-4.283
-4.33148
-6.42639
-6.48842
-5.01831
-5.14103
-4.28243
-4.47844
-3.9573
-4.16163
-3.90552
-4.05567
-4.05649
-4.10245
-5.95838
-6.01578
-4.65263
-4.76649
-3.97034
-4.1521
-3.6689
-3.85832
-3.62085
-3.76006
-3.76079
-3.8034
-5.38706
-5.4391
-4.20662
-4.30971
-3.58982
-3.75431
-3.31736
-3.48873
-3.27399
-3.3999
-3.40056
-3.43911
-4.7249
-4.77047
-3.68939
-3.77986
-3.14841
-3.29265
-2.90945
-3.05968
-2.87138
-2.98178
-2.98235
-3.01615
-3.98055
-4.01913
-3.10824
-3.18468
-2.65259
-2.77426
-2.45138
-2.57801
-2.41938
-2.51242
-2.51291
-2.5414
-3.16947
-3.2001
-2.47479
-2.53565
-2.11198
-2.20879
-1.95175
-2.05249
-1.92623
-2.00027
-2.00066
-2.02334
-2.30282
-2.32528
-1.79814
-1.84262
-1.53467
-1.60515
-1.41837
-1.49158
-1.39988
-1.4537
-1.45401
-1.4705
-1.39804
-1.41163
-1.09156
-1.11864
-0.931656
-0.974411
-0.861057
-0.905417
-0.849806
-0.882442
-0.882637
-0.892644
-0.468138
-0.472919
-0.365516
-0.374977
-0.312192
-0.326661
-0.288701
-0.30353
-0.284983
-0.295922
-0.296019
-0.299388
0.468708
0.473102
0.366078
0.374629
0.312173
0.32637
0.288324
0.303342
0.284539
0.295515
0.295536
0.298877
1.39848
1.41172
1.09203
1.11825
0.931579
0.974085
0.860649
0.905199
0.849342
0.882018
0.882139
0.892122
2.30353
2.32562
1.79878
1.84238
1.53474
1.60491
1.41806
1.49142
1.39949
1.45333
1.45357
1.47003
3.16982
3.20019
2.47517
2.53528
2.11189
2.20845
1.95136
2.05224
1.92579
1.99985
2.00019
2.02284
3.98137
4.01965
3.1089
3.18458
2.65271
2.77407
2.45116
2.57786
2.41907
2.5121
2.51254
2.541
4.72517
4.77059
3.68966
3.77956
3.14829
3.29233
2.90911
3.05944
2.87102
2.98141
2.98193
3.01571
5.38785
5.43972
4.20713
4.30975
3.5899
3.75418
3.31722
3.48862
3.2738
3.39967
3.40028
3.4388
5.95853
6.0159
4.65273
4.76628
3.97016
4.15185
3.66862
3.85814
3.62059
3.75979
3.76047
3.80307
6.42714
6.48907
5.01864
5.1412
4.28244
4.47845
3.95722
4.16163
3.90543
4.05556
4.05631
4.10226
6.78585
6.85126
5.29873
5.4282
4.52148
4.72844
4.17812
4.39393
4.12345
4.28195
4.28275
4.33127
7.02841
7.09619
5.48813
5.62229
4.68314
4.89751
4.32753
4.55104
4.27091
4.43508
4.43591
4.48617
7.15074
7.21972
5.58364
5.7202
4.76468
4.9828
4.40291
4.63028
4.3453
4.51231
4.51318
4.5643
7.1507
7.21972
5.58361
5.72023
4.76469
4.98282
4.40294
4.63029
4.34534
4.51234
4.51322
4.56435
7.02832
7.09618
5.48805
5.62239
4.68318
4.89759
4.32765
4.55108
4.27104
4.43517
4.43604
4.48629
6.78569
6.85124
5.29859
5.42835
4.52154
4.72856
4.17831
4.39401
4.12366
4.28211
4.28297
4.33148
6.42694
6.48905
5.01846
5.14142
4.28253
4.47862
3.95747
4.16175
3.90571
4.05578
4.0566
4.10255
5.95826
6.01586
4.65248
4.76654
3.97026
4.15206
3.66893
3.85828
3.62096
3.76006
3.76084
3.80344
5.38758
5.43971
4.20687
4.31008
3.59004
3.75444
3.31761
3.48879
3.27423
3.4
3.40072
3.43924
4.72479
4.77053
3.68933
3.77991
3.14843
3.29262
2.90954
3.05963
2.8715
2.98178
2.98243
3.0162
3.98107
4.01966
3.1086
3.18501
2.6529
2.77441
2.45166
2.57809
2.41962
2.51251
2.51309
2.54154
3.16934
3.2001
2.47476
2.53569
2.11205
2.20879
1.95187
2.05247
1.92637
2.00029
2.00077
2.02342
2.30327
2.32568
1.79849
1.8429
1.53498
1.60531
1.41864
1.49169
1.40012
1.45381
1.45419
1.47065
1.39791
1.41159
1.09155
1.11867
0.931746
0.974445
0.861204
0.905447
0.849968
0.882499
0.882778
0.892757
0.468538
0.47324
0.365859
0.375204
0.312485
0.326812
0.288955
0.303634
0.285205
0.296024
0.296199
0.299534
-0.468805
-0.473118
-0.366042
-0.374575
-0.312045
-0.326298
-0.288146
-0.303276
-0.284349
-0.295433
-0.295373
-0.298746
-1.39807
-1.41142
-1.09166
-1.11805
-0.931272
-0.973944
-0.860388
-0.905102
-0.849122
-0.881925
-0.88197
-0.891989
-2.30358
-2.3256
-1.79868
-1.8423
-1.53456
-1.60479
-1.41785
-1.49131
-1.39927
-1.45322
-1.45338
-1.46988
-3.16938
-3.19987
-2.47476
-2.53509
-2.11153
-2.20831
-1.95106
-2.05213
-1.92555
-1.99975
-2.00001
-2.0227
-3.98137
-4.01962
-3.10871
-3.18451
-2.65249
-2.77391
-2.45092
-2.5777
-2.41883
-2.51194
-2.51232
-2.54081
-4.72468
-4.77025
-3.68918
-3.77937
-3.14791
-3.29216
-2.90879
-3.0593
-2.87075
-2.98127
-2.98172
-3.01552
-5.38781
-5.43973
-4.20686
-4.30974
-3.58968
-3.75404
-3.31701
-3.48845
-3.27358
-3.3995
-3.40007
-3.43859
-5.958
-6.01554
-4.65221
-4.76609
-3.96984
-4.15167
-3.66837
-3.85803
-3.62039
-3.75968
-3.76031
-3.80292
-6.42708
-6.48909
-5.01837
-5.14127
-4.28233
-4.47835
-3.95714
-4.16154
-3.90534
-4.05549
-4.05624
-4.10221
-6.78525
-6.85084
-5.29827
-5.42794
-4.52126
-4.72818
-4.17797
-4.39385
-4.12331
-4.28193
-4.28264
-4.33121
-7.02835
-7.09612
-5.48799
-5.62231
-4.68315
-4.89737
-4.3275
-4.55093
-4.27078
-4.43499
-4.43579
-4.48606
-7.14999
-7.21913
-5.5833
-5.71986
-4.76447
-4.98247
-4.40264
-4.63022
-4.34504
-4.51237
-4.51298
-4.56418
)
;

boundaryField
{
    out
    {
        type            implicitExtrapolation;
    }
    in
    {
        type            implicitExtrapolation;
    }
    frontAndBack
    {
        type            empty;
    }
}


// ************************************************************************* //
