/*--------------------------------*- C++ -*----------------------------------*\
| =========                 |                                                 |
| \\      /  F ield         | foam-extend: Open Source CFD                    |
|  \\    /   O peration     | Version:  3.0                                   |
|   \\  /    A nd           | Web:         http://www.extend-project.de       |
|    \\/     M anipulation  |                                                 |
\*---------------------------------------------------------------------------*/
FoamFile
{
    version     2.0;
    format      ascii;
    class       volSymmTensorField;
    location    "1";
    object      sigma;
}
// * * * * * * * * * * * * * * * * * * * * * * * * * * * * * * * * * * * * * //

dimensions      [0 0 0 0 0 0 0];

internalField   nonuniform List<symmTensor> 
120
(
(-0.138403 -0.02954 6.13059e-20 0.136024 3.98398e-20 0.00237968)
(-0.113992 -0.0337069 2.36116e-19 0.109272 4.91814e-19 0.00471949)
(-0.0919377 -0.0321824 1.0316e-18 0.0845359 -2.60406e-19 0.00740179)
(-0.0761437 -0.0260326 -2.95492e-19 0.0652762 5.43696e-20 0.0108674)
(-0.0577109 -0.0141178 -1.20406e-18 0.0521765 4.37533e-20 0.00553442)
(-0.11659 -0.0709982 1.91019e-19 0.115082 5.31706e-20 0.00150794)
(-0.085315 -0.0719576 1.2566e-18 0.0824862 -2.86633e-19 0.00282889)
(-0.0616131 -0.0650072 4.57488e-19 0.056948 -7.41878e-19 0.00466503)
(-0.0428029 -0.0582407 1.12138e-18 0.0350378 -1.70499e-19 0.00776509)
(-0.0224286 -0.0495411 6.3993e-19 0.0186248 -1.82524e-19 0.00380382)
(-0.0817462 -0.0968946 -2.87726e-22 0.0811314 -7.49268e-20 0.000614872)
(-0.0437873 -0.0885443 -2.78984e-19 0.0427873 -6.04977e-19 0.000999977)
(-0.0212689 -0.0763877 -1.21324e-18 0.0190708 -6.4967e-19 0.00219813)
(-0.00426513 -0.0667943 -1.35602e-18 -0.000820398 -5.4887e-19 0.00508553)
(0.0114778 -0.058182 -4.09416e-18 -0.0140142 -6.1617e-20 0.00253647)
(-0.0460324 -0.105219 -1.03548e-20 0.0463146 -7.54794e-20 -0.00028225)
(-0.00706461 -0.0825852 -2.32966e-19 0.00785069 -3.87222e-19 -0.000786081)
(0.0126701 -0.0664771 -2.28235e-18 -0.0124412 1.96418e-19 -0.000228906)
(0.0279161 -0.055201 -5.62897e-19 -0.0301129 3.689e-19 0.00219675)
(0.0414362 -0.0466278 1.02504e-18 -0.042487 4.04755e-19 0.0010508)
(-0.0181468 -0.101497 1.64633e-19 0.0193306 -1.17288e-19 -0.00118383)
(0.0126296 -0.0641365 -4.36616e-19 -0.0100861 -3.03981e-20 -0.00254352)
(0.0272142 -0.0453727 4.47727e-19 -0.0245846 9.55572e-20 -0.00262965)
(0.037082 -0.0349722 -2.1505e-19 -0.0364057 2.624e-19 -0.000676259)
(0.0451486 -0.0292727 3.16805e-18 -0.0448804 6.58367e-20 -0.000268194)
(-0.000262182 -0.0956062 -1.16551e-19 0.002297 -6.32762e-20 -0.00203482)
(0.0148538 -0.0491893 -6.73466e-19 -0.0105607 8.24546e-20 -0.00429306)
(0.0240717 -0.0289014 9.66538e-19 -0.0187847 1.13517e-19 -0.00528705)
(0.0303662 -0.0190086 3.42193e-19 -0.025948 2.59953e-19 -0.00441821)
(0.0332667 -0.0138376 2.75629e-19 -0.0308749 -5.21788e-20 -0.00239185)
(0.012414 -0.0944866 -1.03398e-19 -0.00955924 -5.75049e-20 -0.00285474)
(0.00890295 -0.0484616 -2.25311e-19 -0.00291277 4.27992e-20 -0.00599018)
(0.012302 -0.0286253 8.31753e-19 -0.00431868 1.60599e-19 -0.00798332)
(0.0162531 -0.0201413 2.38409e-19 -0.00798896 2.70511e-19 -0.00826412)
(0.0162156 -0.0157209 -1.2577e-18 -0.0116701 -8.74734e-20 -0.00454553)
(0.0286205 -0.0984526 -2.02998e-19 -0.0251618 -7.58749e-20 -0.00345869)
(0.00952598 -0.0612262 1.05308e-18 -0.00223385 1.761e-19 -0.00729213)
(0.0070017 -0.0425732 -1.60311e-19 0.00317723 8.1332e-20 -0.0101789)
(0.00837519 -0.0340219 8.65708e-19 0.00323904 -4.04104e-20 -0.0116142)
(0.00594212 -0.0297472 5.19873e-19 0.000403779 -1.31612e-19 -0.0063459)
(0.0541929 -0.100816 -1.51327e-19 -0.0503063 1.61709e-19 -0.00388657)
(0.0267363 -0.0769028 -7.84916e-19 -0.0185374 1.89753e-19 -0.00819882)
(0.0189247 -0.0607479 -1.6595e-18 -0.00704732 -5.8388e-21 -0.0118774)
(0.0176743 -0.0526038 -1.25878e-18 -0.00319417 2.46867e-19 -0.0144801)
(0.0128758 -0.0496429 -4.04765e-18 -0.00482083 -2.002e-19 -0.00805502)
(0.0875289 -0.0917685 5.07872e-20 -0.0835954 2.27893e-19 -0.00393355)
(0.0590723 -0.0803824 -7.49657e-20 -0.0507727 4.77709e-19 -0.00829957)
(0.0461737 -0.0678241 -1.16859e-18 -0.0338308 4.66666e-19 -0.0123429)
(0.0398526 -0.0609979 6.48795e-19 -0.0240296 -1.2222e-19 -0.015823)
(0.0302942 -0.0593735 1.68175e-18 -0.0214798 9.35223e-19 -0.00881433)
(0.119663 -0.065416 1.48144e-19 -0.115967 1.00423e-19 -0.00369628)
(0.0944096 -0.0619089 1.13415e-19 -0.0867057 -2.84979e-20 -0.00770391)
(0.077382 -0.0540476 1.42912e-18 -0.0657266 7.42747e-19 -0.0116554)
(0.0669342 -0.0497074 2.49293e-19 -0.0514662 -1.32706e-19 -0.015468)
(0.0540842 -0.0483737 3.04336e-18 -0.0456116 -6.0836e-20 -0.00847251)
(0.13868 -0.0234193 -2.57017e-21 -0.135577 -3.95186e-20 -0.00310389)
(0.115831 -0.0222489 1.03219e-19 -0.109451 1.7374e-20 -0.00637937)
(0.095626 -0.0198856 1.3443e-18 -0.0857258 -5.7946e-20 -0.00990014)
(0.0826197 -0.0197759 1.33101e-19 -0.0686931 -2.04433e-19 -0.0139266)
(0.0690032 -0.0209554 2.55295e-19 -0.061387 -7.2754e-19 -0.00761619)
(0.137292 0.0247005 6.46039e-20 -0.13497 2.72562e-20 -0.00232255)
(0.112516 0.0260118 2.45182e-19 -0.107894 4.75275e-19 -0.00462231)
(0.0905618 0.022608 1.04383e-18 -0.0831303 -3.23213e-19 -0.00743153)
(0.0763902 0.0178568 -2.85306e-19 -0.0651107 1.15138e-20 -0.0112795)
(0.0627476 0.0127512 -1.19717e-18 -0.0566436 9.22925e-20 -0.00610403)
(0.11571 0.0663677 1.97136e-19 -0.114332 3.95364e-20 -0.00137839)
(0.0844204 0.0651298 1.28078e-18 -0.0818498 -3.58882e-19 -0.00257059)
(0.0620983 0.055846 4.90826e-19 -0.0576049 -8.34675e-19 -0.00449338)
(0.0482047 0.0467382 1.16314e-18 -0.0402774 -3.67916e-19 -0.00792726)
(0.0357557 0.0382774 7.16203e-19 -0.0315696 -4.25767e-19 -0.00418607)
(0.0817802 0.092874 -7.96983e-21 -0.0813546 -8.96177e-20 -0.000425613)
(0.0434413 0.0826804 -3.01178e-19 -0.0428911 -6.50257e-19 -0.000550198)
(0.0221782 0.0678423 -1.23727e-18 -0.0205838 -6.99592e-19 -0.0015944)
(0.00939204 0.0550301 -1.43629e-18 -0.004933 -6.0874e-19 -0.00445905)
(-0.000787338 0.0431961 -4.15722e-18 0.00303912 1.18664e-19 -0.00225178)
(0.0466947 0.102314 -1.89977e-20 -0.0471819 -8.6253e-20 0.000487189)
(0.00678809 0.0773269 -2.61822e-19 -0.00810679 -4.21681e-19 0.0013187)
(-0.0118274 0.0577652 -2.41595e-18 0.0107317 2.10535e-19 0.00109573)
(-0.0233625 0.0422544 -6.09041e-19 0.0244232 4.32568e-19 -0.00106071)
(-0.03181 0.0281049 7.84724e-19 0.0321476 5.38779e-19 -0.000337571)
(0.0187775 0.0999667 1.65631e-19 -0.0201005 -1.29587e-19 0.001323)
(-0.0132222 0.0593031 -4.54938e-19 0.0102748 -3.73135e-20 0.0029474)
(-0.0276875 0.0362612 4.50746e-19 0.0243037 1.10035e-19 0.0033838)
(-0.0371778 0.0193844 -2.21854e-19 0.0353603 3.0512e-19 0.00181746)
(-0.0440807 0.00548314 3.37497e-18 0.0429908 1.53918e-20 0.00108985)
(0.000255316 0.0947839 -1.19853e-19 -0.00229262 -7.33039e-20 0.0020373)
(-0.0155075 0.044263 -6.95062e-19 0.0111823 8.27526e-20 0.00432525)
(-0.0249535 0.019425 1.04948e-18 0.0195861 1.14974e-19 0.00536746)
(-0.0317311 0.0030737 3.51832e-19 0.0272399 2.72616e-19 0.00449127)
(-0.0358985 -0.00886133 3.00307e-19 0.033526 -6.63989e-20 0.00237248)
(-0.0136321 0.0934274 -1.05382e-19 0.0109182 -6.68521e-20 0.00271397)
(-0.010367 0.0432885 -2.16166e-19 0.00470835 3.33711e-20 0.0056586)
(-0.0148196 0.0186109 9.15168e-19 0.00732706 1.58631e-19 0.00749249)
(-0.0197806 0.00348219 2.91494e-19 0.0120724 3.01625e-19 0.00770818)
(-0.0202536 -0.00706338 -1.27668e-18 0.0159865 -1.06262e-19 0.00426711)
(-0.0305578 0.0967257 -2.09331e-19 0.0273423 -8.792e-20 0.00321553)
(-0.0117118 0.0565462 1.09378e-18 0.00501945 1.61419e-19 0.00669232)
(-0.0112526 0.0339701 -1.67633e-19 0.00201769 5.46484e-20 0.00923491)
(-0.0150167 0.0197597 9.24372e-19 0.00456705 -4.65098e-20 0.0104497)
(-0.013947 0.00814257 4.97386e-19 0.00826266 -1.75985e-19 0.00568431)
(-0.0557463 0.0980199 -1.63517e-19 0.0521271 1.70244e-19 0.00361928)
(-0.0286845 0.0721916 -8.39847e-19 0.0211523 2.04632e-19 0.00753227)
(-0.02323 0.0529345 -1.76822e-18 0.0124547 4.7655e-22 0.0107753)
(-0.0267555 0.0401963 -1.39808e-18 0.0138618 3.31347e-19 0.0128937)
(-0.0279977 0.0291869 -4.09804e-18 0.0211006 -3.52566e-19 0.00689717)
(-0.0883669 0.0877416 4.91717e-20 0.0846268 2.42868e-19 0.00374011)
(-0.0608083 0.0743937 -8.11476e-20 0.0529176 5.13609e-19 0.00789069)
(-0.0508538 0.0592997 -1.18538e-18 0.0389955 4.8097e-19 0.0118583)
(-0.0526517 0.049457 6.76133e-19 0.0372226 -1.12408e-19 0.0154291)
(-0.0541312 0.0453427 1.69115e-18 0.0454134 9.26598e-19 0.00871779)
(-0.120049 0.0607393 1.47241e-19 0.116436 1.16323e-19 0.00361259)
(-0.0958811 0.0545998 1.19756e-19 0.0882697 -1.31394e-20 0.00761139)
(-0.0811975 0.0446191 1.4551e-18 0.0693864 7.94901e-19 0.0118111)
(-0.0759394 0.0399411 2.57141e-19 0.059754 -1.20003e-19 0.0161854)
(-0.071378 0.0436613 3.0856e-18 0.0620429 2.02882e-19 0.00933516)
(-0.139278 0.0185919 -4.87317e-21 0.136183 -2.96291e-20 0.00309465)
(-0.117289 0.0142113 1.01403e-19 0.110868 2.78228e-20 0.00642072)
(-0.0984642 0.00953803 1.34212e-18 0.0883783 -1.2306e-20 0.0100858)
(-0.0873667 0.0105705 1.236e-19 0.0730153 -1.92596e-19 0.0143514)
(-0.0760467 0.019395 2.71886e-19 0.0680313 -7.61749e-19 0.00801535)
)
;

boundaryField
{
    out
    {
        type            mySigma;
    }
    in
    {
        type            mySigma;
    }
    frontAndBack
    {
        type            empty;
    }
}


// ************************************************************************* //
