/*--------------------------------*- C++ -*----------------------------------*\
| =========                 |                                                 |
| \\      /  F ield         | foam-extend: Open Source CFD                    |
|  \\    /   O peration     | Version:  3.0                                   |
|   \\  /    A nd           | Web:         http://www.extend-project.de       |
|    \\/     M anipulation  |                                                 |
\*---------------------------------------------------------------------------*/
FoamFile
{
    version     2.0;
    format      ascii;
    class       volVectorField;
    location    "1";
    object      u;
}
// * * * * * * * * * * * * * * * * * * * * * * * * * * * * * * * * * * * * * //

dimensions      [0 0 0 0 0 0 0];

internalField   nonuniform List<vector> 
120
(
(0.462831 -0.131787 8.16862e-19)
(0.715866 -0.0444146 6.11047e-18)
(0.880031 0.0131326 -8.22324e-18)
(0.925356 0.0605298 3.53856e-18)
(1.04333 0.0767577 1.30967e-17)
(0.6075 -0.393989 3.10632e-18)
(0.78969 -0.194771 -2.48762e-17)
(0.914436 -0.0829623 -2.74207e-18)
(0.929668 0.0022099 -1.10786e-17)
(0.989188 0.149058 -1.11184e-17)
(0.851838 -0.538057 2.90199e-18)
(0.911326 -0.27629 3.4953e-18)
(0.970718 -0.144246 8.13705e-18)
(0.953423 -0.0568163 3.88973e-18)
(0.974851 0.0587598 2.47066e-17)
(1.14187 -0.544575 7.07082e-19)
(1.06364 -0.287038 -1.5634e-18)
(1.05263 -0.161777 1.35894e-17)
(0.986733 -0.0692408 -7.777e-19)
(0.926024 0.0532253 7.27796e-19)
(1.38129 -0.403451 -1.80394e-18)
(1.18331 -0.220995 1.38224e-18)
(1.11719 -0.144345 -6.60276e-19)
(1.02723 -0.0817601 -6.0488e-19)
(0.991541 -0.0284098 -1.14487e-18)
(1.52202 -0.15226 -1.24125e-18)
(1.25564 -0.0865523 1.81938e-18)
(1.16043 -0.0628228 -6.61089e-20)
(1.04416 -0.0339275 3.27821e-19)
(1.00306 -0.0197019 -5.49216e-18)
(1.51832 0.131652 -1.08808e-18)
(1.25611 0.0607102 1.69472e-18)
(1.17038 0.0207595 1.85152e-18)
(1.06774 0.00819396 7.04149e-19)
(1.06644 -0.00728484 -6.55985e-18)
(1.3726 0.381746 -2.61888e-18)
(1.17931 0.194984 1.09024e-17)
(1.12645 0.105011 -1.15366e-18)
(1.04154 0.0535137 3.9677e-18)
(1.05475 0.00978606 3.59817e-18)
(1.12643 0.523648 -1.49138e-18)
(1.05242 0.272447 -9.31764e-18)
(1.05603 0.157611 -1.15469e-17)
(1.01166 0.0906021 -6.54219e-18)
(1.06853 0.0527279 -2.80484e-17)
(0.84099 0.52638 2.62883e-18)
(0.90401 0.28006 3.38826e-18)
(0.968273 0.170748 -1.85855e-17)
(0.962681 0.103666 4.40456e-18)
(1.02389 0.0425832 1.99905e-17)
(0.599757 0.383053 7.0653e-18)
(0.78312 0.206036 -5.1456e-18)
(0.907808 0.127589 1.70182e-17)
(0.937932 0.083855 -3.41382e-18)
(1.02945 0.0402137 2.12923e-17)
(0.457301 0.131889 -8.45118e-19)
(0.707356 0.0735072 -1.07784e-17)
(0.86182 0.0506257 1.04172e-17)
(0.907658 0.040024 -8.6004e-19)
(1.01722 0.0252119 -8.59403e-19)
(0.463767 -0.154341 -9.17335e-19)
(0.714599 -0.0764312 -6.35742e-18)
(0.872019 -0.0344063 8.36324e-18)
(0.913971 -0.0044089 -3.77413e-18)
(1.02011 0.0141433 -1.31347e-17)
(0.613651 -0.409865 -3.30887e-18)
(0.796899 -0.216144 2.55103e-17)
(0.92274 -0.118545 3.3216e-18)
(0.942271 -0.0547919 1.15166e-17)
(1.0268 0.00642739 1.21128e-17)
(0.868729 -0.553244 -3.06408e-18)
(0.935258 -0.294211 -4.03595e-18)
(1.0054 -0.165335 -8.47322e-18)
(0.989828 -0.0837183 -3.74453e-18)
(1.03632 0.00209936 -2.88081e-17)
(1.16588 -0.55616 -7.15826e-19)
(1.09857 -0.300211 1.72298e-18)
(1.10432 -0.174085 -1.51739e-17)
(1.05191 -0.0935909 6.72506e-19)
(1.04154 0.00223717 5.51154e-19)
(1.41631 -0.410225 1.98214e-18)
(1.2337 -0.227134 -1.85985e-18)
(1.18331 -0.143285 1.54244e-18)
(1.10092 -0.0848571 -7.34539e-19)
(1.04243 -0.0178261 4.16874e-18)
(1.56193 -0.157893 1.27518e-18)
(1.3119 -0.095098 -2.14634e-18)
(1.23152 -0.0748883 2.88795e-19)
(1.13142 -0.0500987 -5.63873e-19)
(1.08231 -0.0350644 5.29078e-18)
(1.55299 0.133068 1.12891e-18)
(1.3042 0.061919 -1.72491e-18)
(1.2298 0.0200132 -2.22866e-18)
(1.13441 0.0114025 -8.59694e-19)
(1.11982 -0.00533039 7.45886e-18)
(1.4063 0.388637 2.75842e-18)
(1.22872 0.203189 -1.2018e-17)
(1.19411 0.110801 6.52412e-19)
(1.12643 0.0710032 -5.33754e-18)
(1.14255 0.0236179 -5.07593e-18)
(1.14848 0.529364 1.66497e-18)
(1.08674 0.275788 1.01896e-17)
(1.11021 0.152544 1.26442e-17)
(1.07476 0.0907352 7.18899e-18)
(1.16257 0.0610062 3.65566e-17)
(0.850892 0.53736 -2.65557e-18)
(0.917211 0.292723 -3.66017e-18)
(0.989473 0.190505 1.91847e-17)
(0.991682 0.137123 -4.6671e-18)
(1.1233 0.166789 -2.20067e-17)
(0.603497 0.399805 -7.21364e-18)
(0.785374 0.229837 5.19251e-18)
(0.903657 0.166795 -1.77514e-17)
(0.932563 0.137467 2.9288e-18)
(1.02176 0.135202 -2.10119e-17)
(0.456929 0.153164 7.77342e-19)
(0.705997 0.10639 1.07511e-17)
(0.857006 0.104131 -1.04757e-17)
(0.905882 0.126271 6.88329e-19)
(1.0121 0.130296 1.28855e-18)
)
;

boundaryField
{
    out
    {
        type            fixedValue;
        value           uniform (1 0 0);
    }
    in
    {
        type            myVelocity;
    }
    frontAndBack
    {
        type            empty;
    }
}


// ************************************************************************* //
