/*--------------------------------*- C++ -*----------------------------------*\
| =========                 |                                                 |
| \\      /  F ield         | foam-extend: Open Source CFD                    |
|  \\    /   O peration     | Version:  3.0                                   |
|   \\  /    A nd           | Web:         http://www.extend-project.de       |
|    \\/     M anipulation  |                                                 |
\*---------------------------------------------------------------------------*/
FoamFile
{
    version     2.0;
    format      ascii;
    class       volScalarField;
    location    "5.1";
    object      p;
}
// * * * * * * * * * * * * * * * * * * * * * * * * * * * * * * * * * * * * * //

dimensions      [0 0 0 0 0 0 0];

internalField   nonuniform List<scalar> 
400
(
1.14222
0.905787
0.89616
0.813672
0.876927
0.84711
0.933701
0.924683
1.019
1.01757
1.11415
1.11208
1.20638
1.19449
1.2777
1.24136
1.29424
1.20483
1.18209
0.956269
1.40817
1.21464
1.17877
1.07419
1.09862
1.03357
1.07817
1.02998
1.08034
1.03734
1.08743
1.04195
1.08759
1.03256
1.06779
0.993794
1.00529
0.895389
0.849016
0.669388
1.27472
1.09754
1.08049
0.99607
1.03613
0.988847
1.04869
1.01579
1.08278
1.0541
1.12414
1.0936
1.16364
1.12498
1.18777
1.13077
1.16823
1.07352
1.04645
0.878337
1.27534
1.11682
1.09424
1.01678
1.04585
0.999718
1.04382
1.00863
1.05644
1.02446
1.07395
1.04141
1.09221
1.05466
1.10227
1.04986
1.07723
0.988224
0.95316
0.792201
1.17078
0.998922
0.999504
0.934577
0.986207
0.956617
1.02227
1.00353
1.07536
1.05963
1.13894
1.12322
1.21195
1.19185
1.28568
1.2485
1.32543
1.23825
1.23786
1.02905
1.12537
0.952417
0.956117
0.901369
0.947579
0.925821
0.977898
0.964404
1.01707
1.00642
1.06384
1.05579
1.12376
1.11614
1.1956
1.175
1.24862
1.17095
1.17183
0.922102
1.06396
0.88948
0.909784
0.867014
0.926063
0.916277
0.981352
0.97851
1.04884
1.04807
1.13155
1.13372
1.23957
1.24346
1.375
1.36545
1.50229
1.42192
1.47286
1.14953
0.996637
0.84791
0.868426
0.839499
0.887169
0.884606
0.930659
0.93212
0.977005
0.980559
1.03314
1.04275
1.1148
1.13255
1.23294
1.24507
1.36172
1.30127
1.34457
0.991676
0.949263
0.840661
0.86606
0.853736
0.898559
0.904523
0.951051
0.957419
1.00983
1.0161
1.08598
1.09762
1.20059
1.22191
1.3717
1.39052
1.57673
1.51941
1.63389
1.23241
0.857762
0.811096
0.835729
0.84128
0.870897
0.882214
0.906431
0.913966
0.936152
0.942702
0.972685
0.986927
1.03968
1.07065
1.16252
1.20406
1.33406
1.31461
1.39306
1.02653
0.811297
0.837733
0.856371
0.883528
0.898906
0.917649
0.933167
0.941788
0.962567
0.96575
1.00305
1.01115
1.08404
1.1095
1.24242
1.28532
1.48822
1.48379
1.66785
1.31033
0.702632
0.804237
0.830734
0.877335
0.882631
0.905542
0.90146
0.908367
0.89888
0.897601
0.890636
0.894483
0.904772
0.931779
0.980402
1.04217
1.14329
1.19521
1.29177
1.06446
0.665033
0.845782
0.857258
0.927981
0.915378
0.946349
0.929884
0.935863
0.919007
0.909898
0.901068
0.891727
0.909538
0.92168
0.998308
1.05408
1.22794
1.30687
1.55792
1.41222
0.562296
0.803847
0.838946
0.926923
0.914746
0.948772
0.91888
0.920782
0.877691
0.860039
0.808968
0.788557
0.74076
0.744034
0.720842
0.784919
0.815349
0.959243
1.04612
1.13401
0.554229
0.855778
0.86892
0.980029
0.952129
0.994446
0.952177
0.951709
0.898002
0.869829
0.809779
0.771427
0.71854
0.698561
0.685369
0.73304
0.825068
1.00094
1.29242
1.538
0.500343
0.830254
0.878559
0.999919
0.979209
1.02147
0.970494
0.963484
0.889509
0.850317
0.756075
0.70206
0.592059
0.552897
0.442994
0.480672
0.409208
0.635332
0.672127
1.22964
0.553043
0.902227
0.926097
1.06453
1.03158
1.0791
1.01629
1.00485
0.919049
0.868675
0.761677
0.688656
0.563666
0.49591
0.374452
0.382248
0.339418
0.585411
0.836359
1.61106
0.619918
0.948939
0.999034
1.13292
1.10164
1.14142
1.07011
1.04904
0.949612
0.888134
0.759875
0.670879
0.507957
0.414199
0.220466
0.193433
0.00680629
0.247938
0.181939
1.25225
0.777203
1.06191
1.09081
1.22684
1.18263
1.21882
1.13495
1.10636
0.996049
0.9249
0.784838
0.680288
0.499069
0.376861
0.153516
0.0823686
-0.131802
0.0873645
0.120047
1.3946
1.0742
1.25561
1.26728
1.36969
1.30779
1.32035
1.22614
1.18306
1.06812
0.987585
0.84442
0.727874
0.538108
0.388292
0.138655
0.00234552
-0.281244
-0.186053
-0.388186
0.878321
)
;

boundaryField
{
    cavity
    {
        type            implicitExtrapolation;
    }
    lid
    {
        type            implicitExtrapolation;
    }
    frontAndBack
    {
        type            empty;
    }
}


// ************************************************************************* //
