/*--------------------------------*- C++ -*----------------------------------*\
| =========                 |                                                 |
| \\      /  F ield         | foam-extend: Open Source CFD                    |
|  \\    /   O peration     | Version:  3.0                                   |
|   \\  /    A nd           | Web:         http://www.extend-project.de       |
|    \\/     M anipulation  |                                                 |
\*---------------------------------------------------------------------------*/
FoamFile
{
    version     2.0;
    format      ascii;
    class       volSymmTensorField;
    location    "5.1";
    object      sigma;
}
// * * * * * * * * * * * * * * * * * * * * * * * * * * * * * * * * * * * * * //

dimensions      [0 0 0 0 0 0 0];

internalField   nonuniform List<symmTensor> 
400
(
(0.166737 -0.00264248 1.03479e-316 -0.225676 1.3188e-316 0.0589392)
(0.31468 -0.062431 1.0958e-316 -0.211437 1.5e-316 -0.103243)
(0.381869 -0.134583 1.07042e-316 -0.200346 1.46163e-316 -0.181523)
(0.380893 -0.183003 1.02399e-316 -0.174822 1.34777e-316 -0.206071)
(0.356811 -0.23216 9.49314e-317 -0.153147 1.19335e-316 -0.203663)
(0.309112 -0.268283 8.77663e-317 -0.126173 1.05698e-316 -0.182939)
(0.254036 -0.298579 8.01252e-317 -0.101074 9.11734e-317 -0.152962)
(0.189488 -0.321555 7.32101e-317 -0.0736374 8.03222e-317 -0.115851)
(0.122317 -0.337155 6.66541e-317 -0.0471314 6.88371e-317 -0.0751851)
(0.0496118 -0.34658 6.07953e-317 -0.0185936 6.10835e-317 -0.0310183)
(-0.0243781 -0.348467 5.55244e-317 0.0099794 5.23884e-317 0.0143987)
(-0.10126 -0.343655 5.0812e-317 0.0402573 4.70877e-317 0.061003)
(-0.177625 -0.331347 4.67334e-317 0.0713397 4.0527e-317 0.106286)
(-0.25128 -0.311724 4.29298e-317 0.102522 3.69739e-317 0.148758)
(-0.3181 -0.283906 3.98995e-317 0.133749 3.20633e-317 0.184351)
(-0.371278 -0.249855 3.66022e-317 0.162467 2.97331e-317 0.208812)
(-0.399757 -0.202677 3.44925e-317 0.18648 2.6399e-317 0.213276)
(-0.395434 -0.155325 3.12823e-317 0.207397 2.50601e-317 0.188037)
(-0.321549 -0.0832374 2.96319e-317 0.212889 2.34786e-317 0.10866)
(-0.165527 -0.0213413 2.50072e-317 0.217989 2.25499e-317 -0.0524617)
(0.114378 0.0100981 3.42511e-317 -0.271934 7.19216e-317 0.157556)
(0.247759 -0.0143205 4.61922e-317 -0.289669 1.08414e-316 0.04191)
(0.300001 -0.049586 5.28053e-317 -0.275172 1.1717e-316 -0.0248293)
(0.3128 -0.0773934 5.62977e-317 -0.254677 1.1356e-316 -0.0581235)
(0.293416 -0.106899 5.71563e-317 -0.222254 1.03453e-316 -0.0711625)
(0.257642 -0.130661 5.66865e-317 -0.186903 9.28644e-317 -0.0707392)
(0.211927 -0.15108 5.50728e-317 -0.149147 8.09156e-317 -0.0627802)
(0.158349 -0.165743 5.29478e-317 -0.108996 7.13297e-317 -0.0493528)
(0.102363 -0.175274 5.04226e-317 -0.0690643 6.13188e-317 -0.033299)
(0.0414854 -0.178282 4.77745e-317 -0.0265745 5.40897e-317 -0.0149109)
(-0.0197388 -0.176397 4.51064e-317 0.0158363 4.63774e-317 0.00390252)
(-0.0836927 -0.167926 4.25024e-317 0.0605486 4.12813e-317 0.0231441)
(-0.146493 -0.156178 4.01044e-317 0.105743 3.54844e-317 0.0407501)
(-0.206983 -0.139491 3.78037e-317 0.150918 3.20306e-317 0.0560651)
(-0.261883 -0.121554 3.59439e-317 0.195936 2.7757e-317 0.065947)
(-0.302223 -0.102741 3.40588e-317 0.234286 2.55108e-317 0.0679367)
(-0.32593 -0.0822438 3.30004e-317 0.269733 2.26355e-317 0.0561977)
(-0.309191 -0.0674235 3.16531e-317 0.284922 2.15111e-317 0.0242686)
(-0.252739 -0.0440511 3.15612e-317 0.29237 2.10609e-317 -0.0396308)
(-0.112576 -0.0343273 3.04871e-317 0.261421 2.38653e-317 -0.148846)
(0.106683 0.0389994 -5.11082e-318 -0.308194 3.2967e-317 0.201511)
(0.22177 0.0355482 8.2417e-318 -0.320779 7.38817e-317 0.099009)
(0.26319 0.0267245 1.92293e-317 -0.300675 8.85336e-317 0.0374848)
(0.272034 0.0104477 2.74168e-317 -0.274731 9.0125e-317 0.00269657)
(0.253434 -0.00664952 3.28403e-317 -0.237681 8.48156e-317 -0.0157532)
(0.222842 -0.0252947 3.63127e-317 -0.199648 7.75405e-317 -0.0231937)
(0.185081 -0.0398464 3.80636e-317 -0.160639 6.88149e-317 -0.0244413)
(0.14096 -0.0512643 3.87394e-317 -0.119816 6.10988e-317 -0.0211436)
(0.0962227 -0.0564659 3.85589e-317 -0.0803843 5.32042e-317 -0.0158383)
(0.0460491 -0.0556703 3.78695e-317 -0.0373293 4.69139e-317 -0.00871977)
(-0.00398376 -0.0496705 3.68436e-317 0.00556867 4.05772e-317 -0.00158491)
(-0.0586149 -0.037183 3.5622e-317 0.0529056 3.57989e-317 0.00570935)
(-0.113659 -0.0235374 3.43458e-317 0.102378 3.08408e-317 0.0112816)
(-0.168745 -0.00578402 3.29554e-317 0.153886 2.72312e-317 0.0148586)
(-0.222598 0.00667101 3.16386e-317 0.208847 2.33112e-317 0.013751)
(-0.262981 0.0178932 2.9996e-317 0.256643 2.04515e-317 0.00633815)
(-0.29372 0.0179376 2.83594e-317 0.305754 1.7333e-317 -0.0120336)
(-0.281972 0.0104318 2.58708e-317 0.327985 1.49993e-317 -0.0460126)
(-0.238062 -0.00716343 2.29384e-317 0.342543 1.33085e-317 -0.104481)
(-0.107362 -0.0335681 1.93892e-317 0.306061 1.37778e-317 -0.198699)
(0.0852787 0.0644983 -3.89582e-317 -0.308411 -8.42066e-319 0.223132)
(0.178947 0.0763634 -2.46735e-317 -0.305186 4.17758e-317 0.126239)
(0.209787 0.0823427 -1.0237e-317 -0.275437 6.02383e-317 0.0656504)
(0.21388 0.0696179 1.55396e-318 -0.243388 6.62443e-317 0.0295077)
(0.197573 0.0585101 1.08697e-317 -0.206105 6.51771e-317 0.00853246)
(0.172558 0.0405341 1.76681e-317 -0.170226 6.1369e-317 -0.00233244)
(0.145241 0.0284736 2.24479e-317 -0.137737 5.5659e-317 -0.0075031)
(0.113005 0.0188553 2.56014e-317 -0.104402 5.01421e-317 -0.00860359)
(0.0831526 0.0162013 2.75128e-317 -0.0751891 4.42006e-317 -0.00796354)
(0.0476449 0.0211416 2.85037e-317 -0.0418063 3.92409e-317 -0.0058386)
(0.0138685 0.0309561 2.88224e-317 -0.00999678 3.42012e-317 -0.00387171)
(-0.0268982 0.0497329 2.86511e-317 0.0288887 3.02893e-317 -0.00199054)
(-0.067903 0.0673969 2.81374e-317 0.0698096 2.63473e-317 -0.00190657)
(-0.11426 0.0915082 2.73254e-317 0.118199 2.35397e-317 -0.00393899)
(-0.160982 0.103805 2.62962e-317 0.171557 2.0778e-317 -0.0105754)
(-0.201979 0.115894 2.4931e-317 0.225443 1.92051e-317 -0.0234639)
(-0.236668 0.102636 2.32526e-317 0.283692 1.7942e-317 -0.0470237)
(-0.235157 0.0797769 2.09902e-317 0.320995 1.79367e-317 -0.0858386)
(-0.205461 0.0260868 1.80891e-317 0.353452 1.8178e-317 -0.147991)
(-0.0908882 -0.0436222 1.45e-317 0.333166 1.75408e-317 -0.242278)
(0.0897569 0.114077 -4.10224e-317 -0.353488 -1.37728e-317 0.263731)
(0.166162 0.126821 -3.03916e-317 -0.317329 2.05911e-317 0.151167)
(0.188567 0.136679 -1.78982e-317 -0.272236 3.81349e-317 0.0836693)
(0.18187 0.118909 -6.87421e-318 -0.225782 4.59011e-317 0.0439119)
(0.167752 0.106445 2.24916e-318 -0.188258 4.76647e-317 0.0205067)
(0.144295 0.0839375 9.33598e-318 -0.151845 4.64757e-317 0.00755015)
(0.12659 0.070386 1.45897e-317 -0.126889 4.33988e-317 0.000298425)
(0.102905 0.0587017 1.83757e-317 -0.0999126 3.98314e-317 -0.00299292)
(0.0860139 0.0565707 2.09752e-317 -0.0812989 3.57796e-317 -0.00471492)
(0.0614724 0.0624488 2.26947e-317 -0.0563653 3.20464e-317 -0.00510708)
(0.0405728 0.0756053 2.37647e-317 -0.0346965 2.82641e-317 -0.00587627)
(0.00899716 0.0987946 2.43792e-317 -0.00209343 2.50381e-317 -0.00690374)
(-0.0232465 0.122389 2.47146e-317 0.0332863 2.18977e-317 -0.0100398)
(-0.0671699 0.154277 2.48547e-317 0.082771 1.93983e-317 -0.0156012)
(-0.114303 0.172415 2.49681e-317 0.140727 1.71064e-317 -0.0264244)
(-0.164777 0.193041 2.49911e-317 0.209231 1.55836e-317 -0.0444539)
(-0.212567 0.177912 2.51423e-317 0.287725 1.45629e-317 -0.075158)
(-0.232122 0.156399 2.5136e-317 0.356798 1.46156e-317 -0.124676)
(-0.219701 0.0816576 2.52019e-317 0.424557 1.58035e-317 -0.204856)
(-0.111096 -0.00541113 2.45717e-317 0.443218 1.92496e-317 -0.332123)
(0.0814988 0.192653 -4.41111e-317 -0.375988 -2.19128e-317 0.294489)
(0.133577 0.186052 -3.57012e-317 -0.301538 5.97532e-318 0.167961)
(0.148149 0.180811 -2.45503e-317 -0.241939 2.16675e-317 0.0937902)
(0.131208 0.148644 -1.41534e-317 -0.182104 3.00311e-317 0.0508955)
(0.120603 0.125615 -5.01117e-318 -0.146607 3.3451e-317 0.0260042)
(0.100306 0.0954431 2.33083e-318 -0.112381 3.41298e-317 0.0120745)
(0.0930979 0.0761954 8.07021e-318 -0.0971629 3.29186e-317 0.00406507)
(0.080049 0.0621197 1.23566e-317 -0.0799554 3.0922e-317 -9.36646e-05)
(0.0776478 0.0586685 1.54674e-317 -0.0749263 2.82751e-317 -0.0027215)
(0.0671342 0.0668692 1.76361e-317 -0.0628974 2.56189e-317 -0.00423679)
(0.0626887 0.0834678 1.90823e-317 -0.0564614 2.27876e-317 -0.00622733)
(0.0447158 0.114486 1.99847e-317 -0.0359304 2.0247e-317 -0.00878542)
(0.0279598 0.146944 2.04949e-317 -0.0142538 1.77375e-317 -0.0137061)
(-0.00840096 0.19293 2.07307e-317 0.030082 1.5687e-317 -0.0216811)
(-0.0461939 0.224121 2.07901e-317 0.081973 1.38715e-317 -0.0357791)
(-0.103067 0.262873 2.07559e-317 0.161934 1.2775e-317 -0.0588672)
(-0.154179 0.258386 2.06651e-317 0.251871 1.2324e-317 -0.0976913)
(-0.199149 0.249532 2.05466e-317 0.360281 1.31097e-317 -0.161132)
(-0.201436 0.17042 2.0288e-317 0.467015 1.51117e-317 -0.265578)
(-0.116645 0.0744135 1.94222e-317 0.55138 1.82463e-317 -0.434735)
(0.0800855 0.289529 -2.98857e-317 -0.39063 -1.86045e-317 0.310545)
(0.111741 0.252296 -2.56727e-317 -0.284655 -9.68927e-319 0.172914)
(0.121838 0.220503 -1.84832e-317 -0.217123 1.09706e-317 0.0952855)
(0.095747 0.170163 -1.10426e-317 -0.147356 1.84468e-317 0.0516089)
(0.0905463 0.131436 -4.20354e-318 -0.11733 2.24315e-317 0.0267835)
(0.0724517 0.0916176 1.62722e-318 -0.085476 2.41502e-317 0.0130243)
(0.0754319 0.0640948 6.33542e-318 -0.0804976 2.42325e-317 0.00506574)
(0.0706856 0.0445999 1.00317e-317 -0.0714616 2.33988e-317 0.000776035)
(0.0810631 0.0376557 1.28319e-317 -0.0788781 2.1882e-317 -0.00218498)
(0.0817626 0.0434396 1.49122e-317 -0.0775738 2.01009e-317 -0.00418883)
(0.0912751 0.061429 1.64311e-317 -0.0843765 1.8075e-317 -0.00689857)
(0.0841697 0.0944725 1.75427e-317 -0.0738042 1.60842e-317 -0.0103655)
(0.0795706 0.1353 1.84051e-317 -0.0629597 1.4066e-317 -0.0166109)
(0.0480708 0.19105 1.91397e-317 -0.0216609 1.22631e-317 -0.02641)
(0.0145578 0.239925 1.99354e-317 0.0288875 1.06371e-317 -0.0434452)
(-0.0523637 0.299745 2.08562e-317 0.123598 9.50148e-318 -0.0712343)
(-0.114816 0.321374 2.21684e-317 0.233221 9.00751e-318 -0.118404)
(-0.190314 0.345319 2.37564e-317 0.387076 9.77092e-318 -0.196762)
(-0.214543 0.293071 2.58539e-317 0.543889 1.26004e-317 -0.329346)
(-0.145603 0.23518 2.75365e-317 0.698557 1.95799e-317 -0.552954)
(0.0628924 0.393122 -2.45055e-317 -0.352884 -1.62446e-317 0.289992)
(0.0735161 0.315324 -2.1803e-317 -0.232328 -4.29718e-318 0.158812)
(0.0785288 0.247854 -1.63717e-317 -0.164717 4.61316e-318 0.0861878)
(0.0478943 0.177003 -1.04061e-317 -0.0940321 1.09153e-317 0.0461379)
(0.0466325 0.118512 -4.59107e-318 -0.0705236 1.48085e-317 0.0238911)
(0.0325872 0.0694531 4.65859e-319 -0.0443552 1.69503e-317 0.011768)
(0.0431755 0.0316026 4.69178e-318 -0.0480624 1.77138e-317 0.00488687)
(0.0473101 0.00776359 8.04321e-318 -0.0484818 1.75906e-317 0.00117166)
(0.0682561 -0.00395426 1.06232e-317 -0.0668191 1.67809e-317 -0.00143707)
(0.0811375 0.00113255 1.2538e-317 -0.0777568 1.55974e-317 -0.00338079)
(0.104352 0.0201052 1.39139e-317 -0.0982276 1.40973e-317 -0.00612454)
(0.11095 0.0583628 1.48678e-317 -0.101037 1.24881e-317 -0.00991271)
(0.122392 0.109063 1.551e-317 -0.105739 1.07598e-317 -0.0166525)
(0.101561 0.1804 1.59473e-317 -0.0740509 9.09164e-318 -0.0275103)
(0.0828192 0.252306 1.62809e-317 -0.0364985 7.49834e-318 -0.0463207)
(0.0139094 0.342234 1.66408e-317 0.063655 6.25089e-318 -0.0775644)
(-0.0426854 0.40111 1.71273e-317 0.173767 5.57214e-318 -0.131082)
(-0.144137 0.467536 1.78907e-317 0.365747 6.14244e-318 -0.22161)
(-0.177311 0.456719 1.90028e-317 0.55429 8.84439e-318 -0.376978)
(-0.143264 0.436397 2.00976e-317 0.784848 1.52363e-317 -0.641585)
(0.0449541 0.478296 -1.0673e-317 -0.280658 -9.6007e-318 0.235704)
(0.0379766 0.367185 -1.05764e-317 -0.163493 -4.54357e-318 0.125517)
(0.0409859 0.265647 -8.17757e-318 -0.107426 1.07809e-318 0.0664404)
(0.00992678 0.178114 -4.74271e-318 -0.0446194 5.82341e-318 0.0346926)
(0.0142235 0.10041 -1.10765e-318 -0.0317185 9.24216e-318 0.017495)
(0.00458349 0.0422952 2.35529e-318 -0.0129494 1.14503e-317 0.00836591)
(0.0222491 -0.00646291 5.35889e-318 -0.0255195 1.26013e-317 0.00327041)
(0.0335521 -0.0372945 7.86218e-318 -0.0341586 1.2962e-317 0.000606511)
(0.0636139 -0.0556255 9.84377e-318 -0.0622178 1.26837e-317 -0.0013961)
(0.0864186 -0.0567034 1.13636e-317 -0.0834406 1.19754e-317 -0.00297796)
(0.121658 -0.0398889 1.24892e-317 -0.116087 1.09158e-317 -0.00557047)
(0.140191 -0.00506934 1.33023e-317 -0.130889 9.64579e-318 -0.00930228)
(0.165665 0.0521011 1.39021e-317 -0.149454 8.19175e-318 -0.0162108)
(0.154899 0.128178 1.43705e-317 -0.127492 6.66719e-318 -0.0274069)
(0.147004 0.22324 1.48594e-317 -0.0998959 5.10819e-318 -0.0471085)
(0.0763565 0.335766 1.54305e-317 0.00368129 3.69989e-318 -0.0800378)
(0.0160521 0.443574 1.63683e-317 0.12121 2.68927e-318 -0.137262)
(-0.111898 0.563118 1.76526e-317 0.34724 2.70946e-318 -0.235342)
(-0.170334 0.626871 1.97367e-317 0.57757 5.09157e-318 -0.407236)
(-0.164934 0.69764 2.22319e-317 0.874141 1.28381e-317 -0.709207)
(0.0160245 0.539479 -7.38525e-318 -0.162314 -6.36391e-318 0.146289)
(-0.00504264 0.397052 -7.3355e-318 -0.0701022 -3.908e-318 0.0751448)
(-0.00861529 0.265691 -5.51393e-318 -0.0295904 -4.33706e-319 0.0382056)
(-0.0349731 0.165754 -2.82261e-318 0.0159579 3.00469e-318 0.0190151)
(-0.0295932 0.0711244 1.83175e-319 0.0205576 5.79672e-318 0.00903559)
(-0.0332761 0.00678191 2.99912e-318 0.0292666 7.81191e-318 0.00400949)
(-0.0129595 -0.0524713 5.48204e-318 0.0116032 9.04451e-318 0.00135626)
(0.00510815 -0.0884943 7.51503e-318 -0.00523113 9.61575e-318 0.000122982)
(0.0397012 -0.113825 9.10851e-318 -0.0388026 9.61907e-318 -0.000898626)
(0.0715257 -0.119221 1.02862e-317 -0.0696859 9.19204e-318 -0.00183977)
(0.114594 -0.105174 1.10955e-317 -0.110762 8.40217e-318 -0.00383269)
(0.145628 -0.0707228 1.15814e-317 -0.138528 7.34726e-318 -0.00710057)
(0.183841 -0.00720095 1.17902e-317 -0.17042 6.0567e-318 -0.0134211)
(0.188157 0.0795578 1.1764e-317 -0.164052 4.60384e-318 -0.0241051)
(0.198 0.199688 1.15402e-317 -0.154912 3.02152e-318 -0.0430874)
(0.13794 0.344765 1.1184e-317 -0.0624996 1.44463e-318 -0.0754406)
(0.0955646 0.506736 1.07497e-317 0.0365635 8.94654e-320 -0.132128)
(-0.0421639 0.688016 1.04277e-317 0.272839 -4.99901e-319 -0.230676)
(-0.0961039 0.829235 1.04239e-317 0.500957 8.14284e-319 -0.404853)
(-0.132402 0.970623 1.12403e-317 0.842898 6.09291e-318 -0.710495)
(-0.015095 0.557847 9.09318e-319 -0.0199913 -1.8771e-318 0.0350863)
(-0.0476741 0.405583 -6.48955e-320 0.0338921 -2.90415e-318 0.0137819)
(-0.0533867 0.257048 2.62018e-319 0.0487779 -1.3864e-318 0.00460879)
(-0.0721373 0.150663 1.59327e-318 0.0714201 8.69763e-319 0.000717213)
(-0.0642199 0.0441227 3.25792e-318 0.0650002 3.12356e-318 -0.000780278)
(-0.0617435 -0.0261241 5.00413e-318 0.0628652 4.96839e-318 -0.00112174)
(-0.0390345 -0.0942023 6.57871e-318 0.0401435 6.26221e-318 -0.00110904)
(-0.015495 -0.136993 7.92001e-318 0.0162663 7.00516e-318 -0.000771326)
(0.0229118 -0.169659 8.9736e-318 -0.0221278 7.23984e-318 -0.000783954)
(0.0617861 -0.183273 9.74298e-318 -0.0608211 7.05641e-318 -0.000965036)
(0.112159 -0.174812 1.02377e-317 -0.10985 6.51485e-318 -0.00230911)
(0.154031 -0.149195 1.04759e-317 -0.14918 5.69047e-318 -0.00485095)
(0.204866 -0.0850575 1.04873e-317 -0.194531 4.61593e-318 -0.0103353)
(0.224188 -0.00305188 1.02802e-317 -0.204394 3.34099e-318 -0.0197941)
(0.250267 0.135442 9.91527e-318 -0.213211 1.88884e-318 -0.0370559)
(0.202493 0.291633 9.36795e-318 -0.135885 3.322e-319 -0.0666079)
(0.167592 0.508121 8.79844e-318 -0.048535 -1.17381e-318 -0.119057)
(0.0188564 0.73861 8.18934e-318 0.192203 -2.29645e-318 -0.21106)
(-0.0618842 0.9812 7.95935e-318 0.439056 -1.96566e-318 -0.377172)
(-0.143549 1.23944 8.75343e-318 0.824259 2.0299e-318 -0.680711)
(-0.0453041 0.539021 -2.489e-319 0.13039 -6.53249e-319 -0.0850855)
(-0.0882937 0.382137 8.01671e-320 0.1392 -2.08551e-318 -0.0509061)
(-0.105175 0.227287 1.25495e-318 0.135009 -1.63059e-318 -0.0298338)
(-0.11374 0.122266 2.78762e-318 0.131231 -1.75635e-319 -0.017491)
(-0.10777 0.00958219 4.43068e-318 0.118024 1.61847e-318 -0.0102543)
(-0.0978687 -0.0624108 5.86345e-318 0.103764 3.24136e-318 -0.00589576)
(-0.0760132 -0.137017 7.08873e-318 0.0792464 4.47134e-318 -0.00323326)
(-0.0477216 -0.184176 8.04593e-318 0.0490758 5.24325e-318 -0.00135416)
(-0.0102829 -0.223222 8.75078e-318 0.0105682 5.56939e-318 -0.000285336)
(0.0332882 -0.242979 9.19942e-318 -0.0336415 5.5097e-318 0.000353297)
(0.0838984 -0.240131 9.39592e-318 -0.08379 5.11505e-318 -0.000108433)
(0.134353 -0.220447 9.33376e-318 -0.132644 4.44238e-318 -0.00170961)
(0.190073 -0.156798 8.99854e-318 -0.18425 3.52268e-318 -0.00582271)
(0.226296 -0.0735129 8.36215e-318 -0.212857 2.39026e-318 -0.0134394)
(0.26636 0.0817494 7.3764e-318 -0.238744 1.06832e-318 -0.0276156)
(0.244059 0.261829 6.00638e-318 -0.191728 -4.0128e-319 -0.0523306)
(0.234413 0.531516 4.14536e-318 -0.138166 -1.90877e-318 -0.096247)
(0.105333 0.827214 1.93428e-318 0.068556 -3.2867e-318 -0.173889)
(0.048673 1.16307 -6.63881e-319 0.265497 -3.96209e-318 -0.31417)
(-0.0659335 1.5072 -2.24505e-318 0.631885 -3.33639e-318 -0.565952)
(-0.0820146 0.486818 2.90802e-318 0.286246 2.87566e-319 -0.204231)
(-0.127253 0.343844 3.48869e-318 0.239378 -2.82298e-318 -0.112125)
(-0.14703 0.195269 4.55714e-318 0.208394 -2.99765e-318 -0.0613634)
(-0.144877 0.0917593 5.63715e-318 0.178622 -1.81275e-318 -0.0337459)
(-0.139499 -0.0212612 6.56556e-318 0.158079 -5.29836e-320 -0.0185802)
(-0.122938 -0.0954857 7.32785e-318 0.133031 1.61832e-318 -0.0100932)
(-0.101984 -0.172937 7.92498e-318 0.107165 2.92933e-318 -0.00518126)
(-0.0700962 -0.223775 8.38031e-318 0.0720871 3.80206e-318 -0.0019909)
(-0.0337011 -0.267244 8.68091e-318 0.0337304 4.24823e-318 -2.92972e-05)
(0.0126595 -0.293428 8.81664e-318 -0.0140293 4.32832e-318 0.00136981)
(0.0641077 -0.297312 8.76721e-318 -0.0658027 4.09726e-318 0.00169502)
(0.120972 -0.288389 8.50911e-318 -0.122077 3.61177e-318 0.0011052)
(0.183861 -0.231623 8.02069e-318 -0.182239 2.90821e-318 -0.0016226)
(0.235857 -0.162244 7.25678e-318 -0.228801 2.02178e-318 -0.00705567)
(0.29341 -0.00361202 6.19719e-318 -0.275703 9.78191e-319 -0.0177075)
(0.29661 0.167062 4.75569e-318 -0.260401 -2.01712e-319 -0.0362091)
(0.306984 0.473627 2.92597e-318 -0.237866 -1.4554e-318 -0.0691179)
(0.188096 0.785985 6.60378e-319 -0.0612418 -2.80216e-318 -0.126854)
(0.109021 1.21748 -1.96709e-318 0.124328 -3.9959e-318 -0.23335)
(-0.0756577 1.65929 -3.81123e-318 0.516106 -4.96072e-318 -0.440448)
(-0.10124 0.390589 2.87393e-319 0.402103 2.90506e-319 -0.300863)
(-0.160884 0.271428 2.73908e-318 0.322346 -2.75453e-318 -0.161462)
(-0.192742 0.142185 5.31212e-318 0.278602 -3.19485e-318 -0.0858605)
(-0.180064 0.051228 6.72345e-318 0.225915 -2.09596e-318 -0.045851)
(-0.175095 -0.0556065 7.64061e-318 0.199638 -4.4246e-319 -0.0245429)
(-0.150507 -0.127049 8.08511e-318 0.163486 1.11723e-318 -0.0129782)
(-0.130565 -0.203945 8.34975e-318 0.136984 2.31743e-318 -0.00641925)
(-0.095973 -0.255659 8.47352e-318 0.0982472 3.10817e-318 -0.00227429)
(-0.0642105 -0.301225 8.49396e-318 0.063799 3.51487e-318 0.00041158)
(-0.0184046 -0.331657 8.39296e-318 0.0159565 3.59887e-318 0.00244805)
(0.0257894 -0.341102 8.14221e-318 -0.0293602 3.41532e-318 0.00357085)
(0.0841428 -0.340502 7.70165e-318 -0.0881108 3.01534e-318 0.003968)
(0.141047 -0.29149 7.02256e-318 -0.143833 2.43564e-318 0.00278568)
(0.20562 -0.2309 6.04456e-318 -0.205254 1.70873e-318 -0.000365852)
(0.265226 -0.0725815 4.678e-318 -0.258219 8.72841e-319 -0.00700727)
(0.303046 0.103791 2.86045e-318 -0.284382 -4.94659e-320 -0.0186639)
(0.333122 0.441527 3.87506e-319 -0.294617 -1.00105e-318 -0.0385058)
(0.270782 0.804915 -2.61968e-318 -0.199095 -2.05724e-318 -0.0716875)
(0.232874 1.32188 -6.51222e-318 -0.104085 -3.4146e-318 -0.12879)
(0.0599679 1.85673 -9.93183e-318 0.166671 -6.27272e-318 -0.226639)
(-0.137672 0.304086 4.10843e-318 0.51663 -2.55445e-318 -0.378959)
(-0.181507 0.199537 6.20159e-318 0.376616 -6.86247e-318 -0.195109)
(-0.217008 0.0892052 8.25161e-318 0.317917 -6.43942e-318 -0.100908)
(-0.194002 0.00105936 8.90544e-318 0.246753 -4.31462e-318 -0.0527511)
(-0.190834 -0.0964437 8.98938e-318 0.218606 -2.04308e-318 -0.0277725)
(-0.160578 -0.1651 8.80428e-318 0.175099 -1.33842e-319 -0.0145215)
(-0.142664 -0.236755 8.56435e-318 0.149772 1.23868e-318 -0.00710861)
(-0.106891 -0.285921 8.3361e-318 0.109351 2.14069e-318 -0.0024592)
(-0.079622 -0.329942 8.10005e-318 0.0789879 2.64649e-318 0.000634102)
(-0.036143 -0.361342 7.82063e-318 0.0330292 2.84797e-318 0.00311377)
(0.00243434 -0.375412 7.44662e-318 -0.00724552 2.81227e-318 0.00481118)
(0.0597364 -0.382855 6.92919e-318 -0.065789 2.59545e-318 0.00605261)
(0.115279 -0.34644 6.22211e-318 -0.121423 2.23956e-318 0.00614446)
(0.189127 -0.304054 5.27242e-318 -0.194208 1.78061e-318 0.00508098)
(0.260854 -0.162754 4.04105e-318 -0.262832 1.25812e-318 0.00197757)
(0.327786 -0.0165169 2.46995e-318 -0.324595 6.9684e-319 -0.00319035)
(0.387737 0.318106 5.18902e-319 -0.377113 1.25552e-319 -0.0106242)
(0.353999 0.642651 -1.81342e-318 -0.3349 -5.8322e-319 -0.0190987)
(0.312445 1.20723 -4.61868e-318 -0.284054 -1.81535e-318 -0.0283914)
(0.0304949 1.75031 -7.28837e-318 0.023405 -4.78936e-318 -0.0538998)
(-0.138973 0.153677 8.11927e-318 0.546578 1.5433e-318 -0.407605)
(-0.207955 0.0973393 9.78811e-318 0.414075 -3.89217e-318 -0.20612)
(-0.243525 0.027652 1.11618e-317 0.347838 -4.06007e-318 -0.104313)
(-0.212414 -0.0424948 1.0768e-317 0.266013 -2.21742e-318 -0.0535985)
(-0.202612 -0.122043 1.00468e-317 0.230511 -4.05643e-319 -0.0278989)
(-0.165013 -0.183312 9.24632e-318 0.179512 1.0203e-318 -0.0144987)
(-0.146804 -0.245308 8.59616e-318 0.15386 1.9539e-318 -0.00705603)
(-0.110973 -0.289756 8.08428e-318 0.113349 2.50006e-318 -0.00237593)
(-0.0905812 -0.329007 7.65756e-318 0.0897417 2.74219e-318 0.000839452)
(-0.0528344 -0.359252 7.24982e-318 0.0493076 2.75933e-318 0.00352675)
(-0.0269385 -0.375279 6.79129e-318 0.0213105 2.60866e-318 0.00562804)
(0.0233694 -0.387825 6.22151e-318 -0.0308501 2.3335e-318 0.00748069)
(0.0626738 -0.362772 5.48075e-318 -0.0713154 1.97029e-318 0.00864159)
(0.137978 -0.333453 4.51429e-318 -0.147226 1.552e-318 0.00924779)
(0.194487 -0.21203 3.2502e-318 -0.203647 1.12311e-318 0.00916038)
(0.291987 -0.0802726 1.67251e-318 -0.301277 7.22418e-319 0.00928939)
(0.347923 0.243046 -3.63929e-319 -0.360537 3.96705e-319 0.012614)
(0.406149 0.587566 -2.6818e-318 -0.432744 8.10169e-320 0.0265951)
(0.398436 1.19727 -5.58689e-318 -0.469178 -7.51622e-319 0.0707417)
(0.240429 1.85419 -8.54349e-318 -0.433808 -3.62474e-318 0.193379)
(-0.164301 0.0791537 1.6131e-317 0.569902 -6.99289e-318 -0.405601)
(-0.184761 0.00494983 1.465e-317 0.379565 -1.17815e-317 -0.194805)
(-0.226271 -0.0548616 1.31462e-317 0.322269 -9.44631e-318 -0.0959979)
(-0.187788 -0.122366 1.1289e-317 0.236417 -5.64445e-318 -0.0486292)
(-0.181069 -0.18984 9.65336e-318 0.206237 -2.91067e-318 -0.0251682)
(-0.142688 -0.240363 8.44834e-318 0.155796 -9.77494e-319 -0.0131083)
(-0.127417 -0.2907 7.57741e-318 0.133842 2.46435e-319 -0.00642438)
(-0.0945925 -0.325423 6.97224e-318 0.0967626 1.02642e-318 -0.0021701)
(-0.0801117 -0.357368 6.50416e-318 0.0792788 1.49595e-318 0.000832913)
(-0.0492208 -0.382751 6.09215e-318 0.0457585 1.75816e-318 0.0034623)
(-0.0319687 -0.399268 5.65756e-318 0.026306 1.87452e-318 0.00566279)
(0.00970031 -0.415092 5.14397e-318 -0.0175215 1.8903e-318 0.00782118)
(0.0405888 -0.403442 4.50607e-318 -0.0501729 1.83704e-318 0.00958409)
(0.111441 -0.391429 3.70908e-318 -0.122716 1.742e-318 0.011275)
(0.168927 -0.303389 2.74012e-318 -0.181995 1.63167e-318 0.0130679)
(0.278314 -0.214558 1.6108e-318 -0.294917 1.52988e-318 0.0166034)
(0.363813 0.0549701 3.66379e-319 -0.3904 1.43868e-318 0.0265873)
(0.44405 0.301099 -9.1579e-319 -0.499178 1.27996e-318 0.0551282)
(0.478262 0.863749 -2.14525e-318 -0.610793 6.00557e-319 0.132531)
(0.146403 1.33614 -3.58351e-318 -0.453559 -1.55263e-318 0.307156)
(-0.142214 -0.0971613 2.74315e-317 0.478331 1.15817e-317 -0.336117)
(-0.202954 -0.100526 2.22415e-317 0.361284 2.45557e-318 -0.15833)
(-0.21369 -0.0943798 1.67245e-317 0.290379 1.1191e-318 -0.0766891)
(-0.171337 -0.142577 1.27185e-317 0.209877 1.94238e-318 -0.0385398)
(-0.151723 -0.175903 9.86684e-318 0.171684 2.6356e-318 -0.0199612)
(-0.108559 -0.215893 8.09604e-318 0.119048 3.03205e-318 -0.0104888)
(-0.0946264 -0.246173 6.94343e-318 0.0998419 3.15422e-318 -0.0052155)
(-0.0647816 -0.272008 6.20706e-318 0.0665673 3.09409e-318 -0.00178569)
(-0.0589929 -0.292067 5.68011e-318 0.0582828 2.9149e-318 0.000710059)
(-0.0367606 -0.309533 5.25427e-318 0.0337649 2.65758e-318 0.00299567)
(-0.0340353 -0.321465 4.83923e-318 0.0290278 2.34977e-318 0.00500748)
(-0.00498495 -0.331545 4.37571e-318 -0.00212035 2.01427e-318 0.0071053)
(0.00401667 -0.32696 3.81179e-318 -0.0130533 1.6715e-318 0.00903662)
(0.0630453 -0.31632 3.11178e-318 -0.0741808 1.34348e-318 0.0111355)
(0.089168 -0.25874 2.23648e-318 -0.102927 1.06185e-318 0.0137589)
(0.209768 -0.186154 1.21406e-318 -0.228317 8.62199e-319 0.0185487)
(0.252708 0.0171057 3.18672e-321 -0.283503 7.6762e-319 0.0307951)
(0.442985 0.24901 -1.1737e-318 -0.507298 7.84759e-319 0.0643133)
(0.444822 0.754149 -2.37859e-318 -0.607523 5.1199e-319 0.1627)
(0.454668 1.40637 -3.72495e-318 -0.916179 -8.12106e-319 0.461512)
(-0.115558 -0.123624 2.20351e-317 0.346555 -1.28911e-317 -0.230998)
(-0.0807044 -0.200532 1.61791e-317 0.183849 -1.29645e-317 -0.103144)
(-0.108929 -0.231508 1.0671e-317 0.158107 -9.32785e-318 -0.0491779)
(-0.073862 -0.267307 7.62715e-318 0.098563 -5.68601e-318 -0.024701)
(-0.0657736 -0.303333 5.69718e-318 0.0786803 -3.63955e-318 -0.0129067)
(-0.0379574 -0.32247 4.61897e-318 0.0448636 -2.27702e-318 -0.00690623)
(-0.0293503 -0.344663 3.95281e-318 0.0328744 -1.39942e-318 -0.00352412)
(-0.0105226 -0.356714 3.54754e-318 0.0117726 -7.60659e-319 -0.00125009)
(-0.0074912 -0.370193 3.2599e-318 0.00704067 -2.76089e-319 0.000450529)
(0.00562503 -0.382037 3.02401e-318 -0.00771847 1.1404e-319 0.00209344)
(0.00602473 -0.392531 2.78536e-318 -0.00959933 4.3874e-319 0.0035746)
(0.0231399 -0.406802 2.51255e-318 -0.0283484 7.17373e-319 0.00520857)
(0.0282114 -0.411537 2.18181e-318 -0.0349908 9.58393e-319 0.00677944)
(0.0660381 -0.422054 1.785e-318 -0.074631 1.16848e-318 0.0085929)
(0.0877459 -0.398599 1.33382e-318 -0.0986399 1.34191e-318 0.010894)
(0.169722 -0.380889 8.6712e-319 -0.184621 1.47335e-318 0.0148991)
(0.227943 -0.260791 4.85039e-319 -0.25253 1.53592e-318 0.0245868)
(0.346091 -0.169108 2.5478e-319 -0.39678 1.48519e-318 0.0506889)
(0.458316 0.175526 4.4122e-319 -0.586717 1.18911e-318 0.128401)
(0.172492 0.331525 4.49214e-319 -0.516499 4.31887e-319 0.344007)
(-0.0180345 -0.318492 2.69175e-317 0.0887027 3.13439e-317 -0.0706682)
(-0.0796683 -0.272735 1.91041e-317 0.11463 1.70403e-317 -0.0349622)
(-0.0401812 -0.181163 1.06136e-317 0.0571511 1.17854e-317 -0.0169699)
(-0.00851931 -0.199389 6.79264e-318 0.0171844 8.83198e-318 -0.00866514)
(0.00757804 -0.168626 4.46664e-318 -0.00294171 7.4216e-318 -0.00463633)
(0.0371054 -0.183868 3.37731e-318 -0.0345388 6.35917e-318 -0.0025666)
(0.0379197 -0.172457 2.73579e-318 -0.0365477 5.55482e-318 -0.00137206)
(0.0523188 -0.178937 2.38347e-318 -0.0517992 4.8226e-318 -0.000519571)
(0.045089 -0.172945 2.14706e-318 -0.0452196 4.15174e-318 0.000130584)
(0.0508997 -0.170387 1.97349e-318 -0.05171 3.5126e-318 0.000810324)
(0.0382676 -0.166088 1.81553e-318 -0.0396884 2.90904e-318 0.00142077)
(0.0439937 -0.152315 1.64774e-318 -0.0461371 2.34396e-318 0.00214338)
(0.0275588 -0.147884 1.44688e-318 -0.0303992 1.83138e-318 0.00284045)
(0.0474834 -0.116578 1.19604e-318 -0.0511664 1.38619e-318 0.003683)
(0.0298051 -0.109496 8.71739e-319 -0.0345238 1.02781e-318 0.00471872)
(0.0995807 -0.0484391 4.95088e-319 -0.105979 7.77753e-319 0.00639833)
(0.0817569 -0.0333613 3.87743e-320 -0.0919804 6.10472e-319 0.0102235)
(0.288478 0.0764732 -3.19987e-319 -0.308986 5.14214e-319 0.020508)
(0.231807 0.13411 -5.65829e-319 -0.289297 2.4726e-319 0.0574891)
(0.571891 0.554269 -8.32525e-319 -0.816477 -5.34599e-319 0.244586)
)
;

boundaryField
{
    cavity
    {
        type            mySigma;
    }
    lid
    {
        type            fixedValue;
        value           uniform (0.1 -0.3 0 -0.1 0 0);
    }
    frontAndBack
    {
        type            empty;
    }
}


// ************************************************************************* //
