/*--------------------------------*- C++ -*----------------------------------*\
| =========                 |                                                 |
| \\      /  F ield         | foam-extend: Open Source CFD                    |
|  \\    /   O peration     | Version:  3.0                                   |
|   \\  /    A nd           | Web:         http://www.extend-project.de       |
|    \\/     M anipulation  |                                                 |
\*---------------------------------------------------------------------------*/
FoamFile
{
    version     2.0;
    format      ascii;
    class       volScalarField;
    location    "9";
    object      p;
}
// * * * * * * * * * * * * * * * * * * * * * * * * * * * * * * * * * * * * * //

dimensions      [0 0 0 0 0 0 0];

internalField   nonuniform List<scalar> 
900
(
-0.238888
-0.209368
-0.197258
-0.180402
-0.175424
-0.165248
-0.163788
-0.157538
-0.157609
-0.153675
-0.153824
-0.15101
-0.149858
-0.147007
-0.142965
-0.236103
-0.206906
-0.194922
-0.178245
-0.173311
-0.163234
-0.161775
-0.155575
-0.155628
-0.151709
-0.15184
-0.149023
-0.147884
-0.14505
-0.141142
-0.230712
-0.202169
-0.190447
-0.174137
-0.169303
-0.159442
-0.158003
-0.151929
-0.151968
-0.148119
-0.14824
-0.145469
-0.144369
-0.141605
-0.137865
-0.22283
-0.195254
-0.183922
-0.168162
-0.163483
-0.15395
-0.152552
-0.146674
-0.146708
-0.142979
-0.143102
-0.140421
-0.139389
-0.136746
-0.133209
-0.212487
-0.18619
-0.175378
-0.160344
-0.155876
-0.146781
-0.145444
-0.139836
-0.13987
-0.136314
-0.136442
-0.133887
-0.132926
-0.130413
-0.127098
-0.199845
-0.175116
-0.164944
-0.150805
-0.146599
-0.138044
-0.136789
-0.131517
-0.13156
-0.128225
-0.128371
-0.125989
-0.125128
-0.122799
-0.119729
-0.184995
-0.162111
-0.152693
-0.139607
-0.135711
-0.127797
-0.126638
-0.121769
-0.121825
-0.118762
-0.118933
-0.116773
-0.116034
-0.113948
-0.111139
-0.168144
-0.147355
-0.138793
-0.126904
-0.123363
-0.116175
-0.115129
-0.110715
-0.110785
-0.108023
-0.108216
-0.106288
-0.10567
-0.103814
-0.101312
-0.14943
-0.130966
-0.123357
-0.112797
-0.109649
-0.103268
-0.102344
-0.098434
-0.0985162
-0.0960872
-0.0962975
-0.0946269
-0.0941354
-0.0925438
-0.0903531
-0.129098
-0.113159
-0.106584
-0.0974664
-0.0947451
-0.0892382
-0.0884455
-0.0850785
-0.0851676
-0.0830888
-0.0833064
-0.0818955
-0.0815264
-0.0801999
-0.0783733
-0.10733
-0.09409
-0.0886216
-0.0810454
-0.0787794
-0.0742047
-0.0735486
-0.0707569
-0.070846
-0.0691322
-0.0693457
-0.0681981
-0.0679463
-0.0668896
-0.0654613
-0.0843992
-0.0739985
-0.0696932
-0.0637379
-0.0619498
-0.0583543
-0.0578391
-0.0556489
-0.0557328
-0.054397
-0.0545989
-0.0537215
-0.0535864
-0.0528134
-0.0517924
-0.0605221
-0.0530722
-0.0499761
-0.0457045
-0.0444118
-0.0418314
-0.0414594
-0.0398898
-0.0399622
-0.0390111
-0.0391907
-0.0385784
-0.0385501
-0.0380414
-0.037452
-0.0359892
-0.031565
-0.0297082
-0.0271629
-0.0263773
-0.0248374
-0.0246105
-0.0236774
-0.0237358
-0.0231813
-0.0233368
-0.0230041
-0.0230863
-0.0228649
-0.0226948
-0.0110417
-0.00968811
-0.0090893
-0.00829459
-0.00802289
-0.00753665
-0.00745507
-0.00716497
-0.00720671
-0.00705262
-0.00718195
-0.00713393
-0.00732782
-0.00740242
-0.00764363
0.0140247
0.0123003
0.0116388
0.0106786
0.0104363
0.00986602
0.00980375
0.00944824
0.00942662
0.00917787
0.00908371
0.00884947
0.00856768
0.00822226
0.00761413
0.0389537
0.0341749
0.0322622
0.0295616
0.0288097
0.0271934
0.0269902
0.0259975
0.0259991
0.0253549
0.0253007
0.0247915
0.0244306
0.0238245
0.0228621
0.0634587
0.0556845
0.0525459
0.0481389
0.046889
0.0442472
0.0439086
0.0422907
0.0423186
0.0412837
0.0412722
0.0404856
0.0400542
0.0391838
0.037932
0.0872786
0.0765993
0.0722708
0.0662097
0.0644772
0.0608436
0.0603762
0.0581574
0.0582169
0.0568139
0.0568554
0.0558217
0.055335
0.054249
0.0526739
0.110149
0.0966863
0.0912191
0.0835741
0.0813816
0.0767994
0.0762128
0.0734207
0.0735158
0.0717603
0.071854
0.0705704
0.0700196
0.0686754
0.0668178
0.131816
0.115721
0.109176
0.100034
0.0974068
0.0919302
0.0912337
0.0879058
0.088043
0.0859684
0.0861307
0.0846406
0.0840633
0.0825275
0.0804035
0.152045
0.133499
0.125951
0.115414
0.112384
0.106075
0.105281
0.101459
0.101647
0.0992888
0.0995385
0.0978894
0.0973295
0.0956796
0.0933071
0.170606
0.149813
0.141343
0.129529
0.126127
0.119057
0.118174
0.1139
0.114134
0.111515
0.111843
0.110034
0.109485
0.107685
0.105132
0.187305
0.164493
0.155196
0.142233
0.1385
0.130745
0.129784
0.125104
0.125384
0.122535
0.122944
0.121006
0.120481
0.118582
0.115834
0.201942
0.17736
0.167336
0.153366
0.149339
0.140982
0.139948
0.134909
0.135225
0.132165
0.132638
0.130571
0.130064
0.128063
0.125205
0.214374
0.188289
0.177648
0.162821
0.158544
0.149675
0.148578
0.143231
0.143575
0.140329
0.140853
0.138666
0.138172
0.136081
0.133154
0.224441
0.197137
0.185991
0.170468
0.165984
0.156696
0.155545
0.149942
0.150305
0.146901
0.147464
0.145176
0.144697
0.142543
0.139572
0.232057
0.203827
0.192299
0.176246
0.171604
0.161996
0.160801
0.155001
0.155374
0.151843
0.152428
0.150046
0.14957
0.147336
0.144368
0.237109
0.208259
0.196471
0.180061
0.175309
0.165484
0.164255
0.158321
0.158698
0.155083
0.155687
0.15325
0.152791
0.15053
0.147571
0.239571
0.21041
0.19849
0.181899
0.177088
0.16715
0.165902
0.159896
0.160275
0.156616
0.157235
0.154776
0.154344
0.152093
0.149157
0.239385
0.210228
0.198303
0.18171
0.176889
0.166947
0.165689
0.159678
0.160051
0.156389
0.157006
0.154549
0.154116
0.151864
0.148926
0.236583
0.207743
0.195941
0.179522
0.174745
0.164903
0.163649
0.157696
0.158057
0.15443
0.155035
0.152602
0.152167
0.149931
0.147008
0.231167
0.202955
0.191402
0.175335
0.170649
0.161012
0.159771
0.153941
0.154282
0.150734
0.151317
0.148949
0.148509
0.146329
0.14338
0.223224
0.195943
0.184763
0.169218
0.164675
0.155344
0.154128
0.148477
0.148789
0.145345
0.145888
0.14358
0.143128
0.140973
0.138096
0.212817
0.186762
0.176074
0.161219
0.156863
0.147937
0.146753
0.141339
0.141612
0.138311
0.138809
0.136608
0.13617
0.134143
0.131342
0.200083
0.175535
0.165455
0.151449
0.147326
0.138899
0.137757
0.132632
0.132853
0.129711
0.130137
0.128027
0.127566
0.125618
0.12293
0.185146
0.16237
0.153006
0.14
0.136153
0.128312
0.127219
0.12243
0.122586
0.11962
0.119939
0.117901
0.117371
0.115439
0.112908
0.168183
0.147428
0.138883
0.127018
0.12349
0.116321
0.115289
0.11089
0.110979
0.108227
0.108447
0.106529
0.105955
0.10414
0.101736
0.149375
0.130866
0.123233
0.112638
0.109466
0.103048
0.102087
0.0981255
0.0981453
0.0956344
0.0957448
0.0939522
0.0933338
0.0916106
0.0894264
0.128931
0.112874
0.106237
0.0970313
0.0942526
0.0886583
0.0877842
0.0843106
0.0842699
0.0820433
0.0820597
0.0804422
0.0798025
0.0782255
0.0762104
0.107079
0.0936503
0.088084
0.0803686
0.0780148
0.0733083
0.0725331
0.0695909
0.0694967
0.0675894
0.0675236
0.0661158
0.0654779
0.0640777
0.0622445
0.0840549
0.0734056
0.0689729
0.0628364
0.0609362
0.0571731
0.0565098
0.0541373
0.0539974
0.0524392
0.0522998
0.0511255
0.0505004
0.0492864
0.0476636
0.0601208
0.0523713
0.049122
0.0446337
0.0432093
0.0404338
0.0398922
0.03812
0.0379418
0.0367594
0.0365609
0.0356567
0.0350738
0.0341126
0.0326998
0.0355261
0.0307672
0.02874
0.0259532
0.0250223
0.0232669
0.0228546
0.0217017
0.0214873
0.0206875
0.0204275
0.0197843
0.0192381
0.0185024
0.0173477
0.0105607
0.00884802
0.00806678
0.00701455
0.00658855
0.00587461
0.00559714
0.0050771
0.00482899
0.00441772
0.00409628
0.00371096
0.00320077
0.00268038
0.00181968
-0.0145265
-0.0131666
-0.0126899
-0.0119917
-0.0119067
-0.0115698
-0.0117088
-0.011592
-0.0118695
-0.0118912
-0.0122598
-0.0123778
-0.0128075
-0.0130578
-0.0135426
-0.0394313
-0.0350099
-0.0332786
-0.0308349
-0.0302379
-0.0288514
-0.0288482
-0.0280935
-0.0283945
-0.0280245
-0.0284319
-0.02828
-0.0286145
-0.0285874
-0.028669
-0.0639136
-0.0564715
-0.0535013
-0.0493338
-0.0482298
-0.045806
-0.0456596
-0.0442754
-0.044596
-0.0438444
-0.0442859
-0.0438806
-0.04411
-0.0438221
-0.0434101
-0.0876701
-0.0772851
-0.0731062
-0.0672582
-0.0656563
-0.0622183
-0.0619253
-0.0599205
-0.0602482
-0.0591091
-0.0595638
-0.058877
-0.0589819
-0.0583727
-0.0575519
-0.110479
-0.0972587
-0.0919143
-0.0844443
-0.0823601
-0.0779406
-0.0775015
-0.0748936
-0.0752224
-0.0737096
-0.0741795
-0.0732459
-0.0732562
-0.0724308
-0.0711744
-0.132051
-0.116138
-0.109684
-0.100673
-0.0981258
-0.0927704
-0.0921835
-0.0889934
-0.0893062
-0.0874166
-0.0878676
-0.0866522
-0.0865164
-0.0853999
-0.0837336
-0.152197
-0.133759
-0.126265
-0.115806
-0.112822
-0.106584
-0.105853
-0.102105
-0.102388
-0.10012
-0.100518
-0.098982
-0.0986444
-0.0971468
-0.0951062
-0.170646
-0.149888
-0.141435
-0.129644
-0.126255
-0.119203
-0.118333
-0.114072
-0.114323
-0.111711
-0.112064
-0.110262
-0.109755
-0.107997
-0.105539
-0.187252
-0.164395
-0.155076
-0.142079
-0.138323
-0.130532
-0.129535
-0.124804
-0.125021
-0.122088
-0.122389
-0.12032
-0.119647
-0.117597
-0.114841
-0.20178
-0.177081
-0.166997
-0.152941
-0.148859
-0.14042
-0.139308
-0.134169
-0.134358
-0.131157
-0.131422
-0.12915
-0.128344
-0.126074
-0.122968
-0.214126
-0.187853
-0.177117
-0.162154
-0.157793
-0.148798
-0.147588
-0.1421
-0.142267
-0.13884
-0.139085
-0.13665
-0.135746
-0.133298
-0.129885
-0.224104
-0.196552
-0.185282
-0.169581
-0.16499
-0.155543
-0.154251
-0.148481
-0.148629
-0.145025
-0.145252
-0.14269
-0.141705
-0.139101
-0.13544
-0.231657
-0.203129
-0.191451
-0.175184
-0.170415
-0.160619
-0.159262
-0.153272
-0.153406
-0.149666
-0.149887
-0.147243
-0.146215
-0.143541
-0.139672
-0.236651
-0.207467
-0.195511
-0.178864
-0.17397
-0.163936
-0.162528
-0.156386
-0.156501
-0.152661
-0.152861
-0.150142
-0.149059
-0.146301
-0.142292
-0.239089
-0.20957
-0.197469
-0.180622
-0.175659
-0.165496
-0.164054
-0.157822
-0.157914
-0.154003
-0.154173
-0.151381
-0.150242
-0.147388
-0.143329
)
;

boundaryField
{
    out
    {
        type            implicitExtrapolation;
    }
    in
    {
        type            implicitExtrapolation;
    }
    frontAndBack
    {
        type            empty;
    }
}


// ************************************************************************* //
