/*--------------------------------*- C++ -*----------------------------------*\
| =========                 |                                                 |
| \\      /  F ield         | foam-extend: Open Source CFD                    |
|  \\    /   O peration     | Version:  3.0                                   |
|   \\  /    A nd           | Web:         http://www.extend-project.de       |
|    \\/     M anipulation  |                                                 |
\*---------------------------------------------------------------------------*/
FoamFile
{
    version     2.0;
    format      ascii;
    class       volVectorField;
    location    "9";
    object      u;
}
// * * * * * * * * * * * * * * * * * * * * * * * * * * * * * * * * * * * * * //

dimensions      [0 0 0 0 0 0 0];

internalField   nonuniform List<vector> 
900
(
(0.256206 -0.0842895 -1.0669e-17)
(0.381415 -0.0579291 4.87348e-17)
(0.635821 -0.0431582 4.92021e-17)
(0.665192 -0.0267875 6.0242e-18)
(0.818376 -0.0194156 6.36824e-17)
(0.811914 -0.00952408 -1.37681e-17)
(0.917711 -0.0040319 -1.22147e-17)
(0.891913 0.00204376 -6.43654e-17)
(0.975087 0.00712493 -5.33933e-17)
(0.935551 0.0109701 2.4325e-17)
(1.00799 0.0163839 -2.86958e-17)
(0.958272 0.0193815 -8.50154e-17)
(1.02143 0.0241716 3.69467e-17)
(0.973116 0.0304853 -3.48588e-17)
(1.01007 0.0505436 1.308e-17)
(0.293498 -0.264349 2.30072e-16)
(0.408329 -0.188511 1.76576e-17)
(0.656997 -0.147997 -2.25886e-16)
(0.680153 -0.102427 5.52215e-17)
(0.830684 -0.083162 -2.10628e-16)
(0.820694 -0.0572926 6.56617e-17)
(0.924677 -0.0437515 9.84441e-17)
(0.89684 -0.029279 1.67791e-16)
(0.978446 -0.0171481 7.39424e-17)
(0.937546 -0.00922918 8.36088e-17)
(1.00871 0.00262473 -3.57588e-17)
(0.956967 0.00873783 2.10824e-16)
(1.02156 0.0160986 -1.36131e-16)
(0.965828 0.0295044 3.40311e-17)
(1.01209 0.0484353 -7.89354e-17)
(0.367348 -0.432604 -2.20061e-16)
(0.461772 -0.311001 -4.6781e-19)
(0.699195 -0.246421 3.78297e-16)
(0.710143 -0.173711 4.33948e-17)
(0.855431 -0.143365 1.39605e-16)
(0.838576 -0.102668 -3.09945e-17)
(0.939062 -0.0817114 -5.37932e-17)
(0.907429 -0.0596536 -1.94165e-16)
(0.986118 -0.0411557 -8.5499e-17)
(0.943094 -0.0298895 -7.9692e-17)
(1.01187 -0.0123072 1.52619e-16)
(0.957765 -0.00342483 -1.77324e-16)
(1.02325 0.00516614 4.15555e-17)
(0.959206 0.0294684 7.54026e-17)
(1.01495 0.0353919 -1.10302e-16)
(0.474115 -0.581779 1.83319e-16)
(0.539357 -0.419057 -4.5667e-16)
(0.760805 -0.333243 -6.94373e-17)
(0.754395 -0.236453 -1.37505e-16)
(0.892302 -0.196229 -2.14726e-16)
(0.865795 -0.142436 6.14619e-17)
(0.961288 -0.114732 -6.79784e-17)
(0.924419 -0.0859077 -8.59805e-17)
(0.998801 -0.0613759 3.34997e-16)
(0.953079 -0.0471366 -2.60435e-16)
(1.01798 -0.023507 -5.7156e-18)
(0.962039 -0.0138843 -8.17681e-17)
(1.02559 0.000398952 4.85194e-17)
(0.958021 0.0231991 -2.53531e-17)
(1.01325 0.0350481 1.21086e-16)
(0.609473 -0.705178 1.20618e-16)
(0.637976 -0.509253 6.96514e-17)
(0.839045 -0.405814 3.93732e-16)
(0.8107 -0.289262 -1.17732e-17)
(0.939183 -0.240865 3.50329e-16)
(0.900517 -0.17629 -3.23052e-17)
(0.989752 -0.14305 2.61312e-16)
(0.946443 -0.108839 1.27981e-16)
(1.01555 -0.0794903 -2.35223e-16)
(0.966601 -0.0632894 3.02456e-16)
(1.02704 -0.0351112 -7.34706e-17)
(0.967521 -0.0247277 1.24514e-16)
(1.03189 -0.00823273 -9.77468e-17)
(0.951067 0.0201418 -1.96945e-17)
(1.01931 0.026797 7.1979e-17)
(0.767269 -0.79764 -2.79414e-16)
(0.752815 -0.57617 -1.93513e-16)
(0.930306 -0.459713 -9.49988e-17)
(0.876604 -0.328376 -6.30153e-16)
(0.994197 -0.273829 2.38328e-16)
(0.941596 -0.201299 -6.09683e-16)
(1.02348 -0.163764 5.56397e-16)
(0.972865 -0.125541 -6.18137e-16)
(1.03544 -0.0920984 6.01369e-16)
(0.98326 -0.0745637 -4.33487e-16)
(1.03676 -0.0411386 2.36366e-16)
(0.976996 -0.0333254 -7.63151e-17)
(1.03382 -0.00729791 1.63966e-17)
(0.954554 0.0100493 2.97007e-16)
(1.01728 0.0279884 -2.27927e-16)
(0.940643 -0.854984 8.45445e-16)
(0.879557 -0.61849 -9.68836e-17)
(1.03093 -0.494004 6.219e-16)
(0.949463 -0.353717 2.0856e-16)
(1.05494 -0.29539 2.89814e-16)
(0.987018 -0.217999 2.9669e-18)
(1.06081 -0.177872 8.86008e-17)
(1.0023 -0.137298 -1.75507e-16)
(1.05792 -0.101592 3.3796e-16)
(1.00255 -0.08319 -3.28272e-16)
(1.04924 -0.0479015 1.73264e-16)
(0.988793 -0.0386355 -2.60446e-16)
(1.03996 -0.0140689 1.49607e-16)
(0.95791 0.0117404 3.82568e-17)
(1.01654 0.0191299 -2.93067e-16)
(1.12184 -0.874956 -1.06921e-15)
(1.01164 -0.632741 -1.25346e-16)
(1.13584 -0.505787 -2.84327e-16)
(1.02555 -0.362496 -4.55016e-16)
(1.11841 -0.302854 -2.94384e-17)
(1.03475 -0.223955 -1.05945e-16)
(1.10007 -0.182814 6.39158e-17)
(1.03346 -0.141542 2.27193e-17)
(1.08165 -0.104862 -2.76405e-16)
(1.02277 -0.086223 3.36601e-16)
(1.06199 -0.0500364 -3.4809e-16)
(1.00038 -0.0410956 5.47057e-16)
(1.04474 -0.0147499 -4.65288e-16)
(0.961923 0.0064026 5.15658e-16)
(1.01302 0.0229023 -3.69668e-16)
(1.30299 -0.856487 7.51437e-16)
(1.14461 -0.619949 1.15428e-16)
(1.24134 -0.496034 5.24147e-16)
(1.10241 -0.356074 1.44259e-17)
(1.18248 -0.297783 2.42343e-16)
(1.08303 -0.220781 2.08773e-17)
(1.13981 -0.180538 -1.85114e-16)
(1.06505 -0.140424 1.31758e-16)
(1.10591 -0.104532 4.50614e-17)
(1.04342 -0.0865283 -3.59773e-17)
(1.07581 -0.0512819 1.21774e-16)
(1.01202 -0.0420772 -3.06962e-16)
(1.05202 -0.0173574 2.53375e-16)
(0.964089 0.00539889 -4.20729e-16)
(1.01162 0.0188794 2.81505e-16)
(1.47611 -0.80065 -3.23272e-16)
(1.27102 -0.579113 -1.85719e-17)
(1.34156 -0.463839 -5.06044e-16)
(1.17538 -0.333107 2.4284e-16)
(1.24317 -0.278669 -4.29504e-16)
(1.12886 -0.206883 2.76564e-16)
(1.17735 -0.169132 -3.92332e-16)
(1.09495 -0.131874 3.32828e-16)
(1.1286 -0.0980731 -3.08745e-16)
(1.06276 -0.0815529 1.29887e-16)
(1.08832 -0.0483013 -3.45923e-16)
(1.0227 -0.0402471 2.96607e-16)
(1.05776 -0.0160617 2.74499e-17)
(0.967024 0.00201606 -1.90912e-16)
(1.00645 0.0218412 4.24477e-16)
(1.63351 -0.709801 1.15518e-16)
(1.3872 -0.513439 7.40427e-17)
(1.43357 -0.411836 1.34443e-16)
(1.24292 -0.295985 5.58553e-17)
(1.29939 -0.247834 1.70251e-16)
(1.1716 -0.184277 -1.4755e-17)
(1.21252 -0.150738 1.69984e-16)
(1.12323 -0.117926 -1.00981e-16)
(1.15036 -0.0877498 1.41612e-16)
(1.08148 -0.0735245 5.17538e-17)
(1.10091 -0.0435731 2.62701e-16)
(1.03327 -0.0373925 -2.38277e-16)
(1.06442 -0.0140525 3.72143e-17)
(0.968667 -0.00186555 -4.42528e-17)
(1.00556 0.0231723 -7.33457e-17)
(1.76843 -0.58802 -3.93353e-17)
(1.48602 -0.42463 1.50334e-17)
(1.51164 -0.341416 -2.29306e-16)
(1.30015 -0.245312 6.31766e-17)
(1.34671 -0.20564 -1.7664e-16)
(1.20758 -0.153089 1.19267e-18)
(1.24175 -0.125203 -1.35707e-17)
(1.14669 -0.0983165 4.66816e-17)
(1.16784 -0.0729128 -8.21564e-17)
(1.09664 -0.0617585 3.64258e-17)
(1.10993 -0.0358372 -1.43835e-16)
(1.04238 -0.0326407 9.20289e-17)
(1.06642 -0.00940448 -4.83848e-18)
(0.974845 -0.00624193 -4.06904e-17)
(0.99681 0.0252837 9.76116e-17)
(1.87475 -0.440734 -5.43784e-17)
(1.56527 -0.31747 1.78701e-17)
(1.57408 -0.256305 1.09915e-16)
(1.34657 -0.183899 -1.02374e-17)
(1.38512 -0.154465 7.86802e-17)
(1.23717 -0.114966 1.61114e-17)
(1.26592 -0.0939829 -8.91394e-17)
(1.1665 -0.0740285 1.48211e-17)
(1.18287 -0.0546003 -3.34682e-17)
(1.11021 -0.0470276 1.52033e-17)
(1.11846 -0.0264029 -1.52456e-17)
(1.05115 -0.0267773 1.31125e-17)
(1.07014 -0.00434965 -4.19805e-18)
(0.977626 -0.0114207 -3.54041e-18)
(0.995165 0.0275471 8.55811e-17)
(1.948 -0.274306 5.86257e-17)
(1.61938 -0.196067 1.98883e-17)
(1.61643 -0.159969 -8.27911e-17)
(1.37811 -0.114246 8.03899e-18)
(1.41088 -0.0965322 -4.89897e-17)
(1.25711 -0.0717787 3.37795e-18)
(1.28179 -0.0586816 2.0418e-17)
(1.17956 -0.0464654 3.63652e-17)
(1.19198 -0.0338094 -7.33574e-18)
(1.11887 -0.029863 2.62853e-17)
(1.12147 -0.0154249 -9.9574e-18)
(1.05869 -0.0184124 2.39961e-18)
(1.06474 0.00117368 2.02399e-17)
(0.989766 -0.0132675 -1.64735e-17)
(0.983888 0.0269001 1.58906e-18)
(1.9848 -0.0962429 -3.46882e-17)
(1.64794 -0.0660384 1.11458e-17)
(1.63842 -0.056664 1.66744e-17)
(1.39527 -0.0392326 2.18594e-18)
(1.42474 -0.0340562 1.68414e-17)
(1.26833 -0.0248185 -2.21385e-18)
(1.29073 -0.0202634 -1.86856e-17)
(1.18743 -0.0160324 -4.15673e-18)
(1.19777 -0.0109458 -1.37402e-17)
(1.12496 -0.0103121 -8.38445e-19)
(1.1248 -0.00360853 -6.15756e-18)
(1.06444 -0.00700427 1.3619e-18)
(1.06478 0.00481115 6.85979e-18)
(0.995844 -0.00877004 -4.50775e-18)
(0.979572 0.0213213 1.51608e-17)
(1.9837 0.085848 2.02497e-17)
(1.64791 0.0669414 4.30033e-18)
(1.63766 0.0488093 -3.82454e-17)
(1.39558 0.0373313 -2.1057e-18)
(1.42442 0.0294774 -1.80612e-17)
(1.26868 0.0228233 1.25271e-18)
(1.29051 0.0184948 4.17401e-19)
(1.18773 0.0145428 1.20331e-17)
(1.19726 0.0117898 -5.93816e-19)
(1.1253 0.00898821 1.42106e-18)
(1.12308 0.00773927 -4.24897e-18)
(1.06683 0.00350454 -1.54556e-19)
(1.05843 0.00794294 3.96031e-18)
(1.00663 -0.0066787 -4.15551e-18)
(0.966002 0.0155153 5.50267e-18)
(1.94461 0.263708 -5.89527e-17)
(1.62084 0.1972 2.11875e-17)
(1.61535 0.152241 3.55869e-17)
(1.38042 0.112827 5.1463e-18)
(1.41127 0.0922639 3.83813e-17)
(1.25946 0.0703715 -6.78606e-18)
(1.28263 0.0573244 -2.28429e-17)
(1.18215 0.04573 -1.84045e-17)
(1.19277 0.0351497 -2.42088e-17)
(1.12254 0.029497 -3.38172e-18)
(1.12052 0.0199366 -2.12582e-18)
(1.06752 0.016046 -2.33436e-17)
(1.05521 0.0111223 1.42026e-17)
(1.01162 -0.000780234 -6.26629e-18)
(0.964272 0.00775867 1.05482e-17)
(1.86934 0.429863 3.70466e-17)
(1.56664 0.318708 -4.77132e-18)
(1.57158 0.248512 -1.32296e-16)
(1.34935 0.182958 -5.01752e-18)
(1.38493 0.150253 -6.15984e-17)
(1.24015 0.114019 1.01574e-17)
(1.26644 0.0925422 -5.41367e-18)
(1.16967 0.0736585 4.8152e-17)
(1.18274 0.0554639 1.49135e-17)
(1.11453 0.047159 1.75778e-17)
(1.11371 0.0293217 -3.91143e-17)
(1.06453 0.0270498 4.84706e-17)
(1.04733 0.0105216 -1.56562e-17)
(1.0182 0.008204 -1.77669e-17)
(0.953255 -0.00863524 1.47894e-17)
(1.76115 0.576706 -4.08842e-17)
(1.48862 0.426473 1.90666e-16)
(1.50883 0.333963 1.59329e-17)
(1.30441 0.245582 9.69392e-17)
(1.347 0.202161 6.01698e-17)
(1.21195 0.153536 1.04278e-17)
(1.24302 0.12464 -9.46598e-19)
(1.15144 0.0997463 5.53772e-17)
(1.1688 0.0747407 -1.49375e-16)
(1.10336 0.0646973 1.10708e-16)
(1.10669 0.0389655 -1.89726e-18)
(1.05921 0.0384307 2.41439e-17)
(1.04576 0.0118193 -2.64019e-17)
(1.01499 0.0127461 4.60092e-18)
(0.958366 -0.0144502 -7.16411e-17)
(1.62475 0.698127 -1.30268e-16)
(1.38954 0.515399 -4.20364e-17)
(1.42955 0.404339 -2.32291e-16)
(1.24722 0.297059 2.98292e-18)
(1.29912 0.244582 -2.05554e-16)
(1.1762 0.185658 3.65906e-17)
(1.21363 0.150375 -1.69343e-16)
(1.12814 0.1204 -4.46758e-17)
(1.15094 0.089383 8.87989e-17)
(1.08768 0.0781092 -1.37748e-16)
(1.09581 0.0446258 2.35912e-17)
(1.04976 0.0492965 -5.80565e-17)
(1.03675 0.00580521 4.33336e-17)
(1.01711 0.0303194 -2.08612e-18)
(0.951342 -0.0374104 -3.25181e-17)
(1.46616 0.788612 2.78138e-16)
(1.27419 0.58185 1.13814e-16)
(1.33734 0.456843 1.01638e-16)
(1.18044 0.335593 4.28697e-16)
(1.24324 0.276211 -1.50922e-16)
(1.13421 0.209648 4.18663e-16)
(1.17924 0.169496 -3.79637e-16)
(1.10096 0.135832 4.32365e-16)
(1.13102 0.100523 -3.96607e-16)
(1.07052 0.0881237 2.91393e-16)
(1.0881 0.0507091 -1.52728e-16)
(1.03809 0.0549013 4.40866e-17)
(1.0424 0.00881747 4.53917e-18)
(1.0042 0.0310535 -2.23535e-16)
(0.960982 -0.0462272 1.84147e-16)
(1.29228 0.844277 -7.68923e-16)
(1.14728 0.622604 4.72258e-17)
(1.2361 0.489013 -4.99177e-16)
(1.10681 0.359215 -2.14954e-16)
(1.18182 0.295493 -2.02482e-16)
(1.08787 0.224315 -3.31565e-17)
(1.14129 0.180996 -1.62816e-17)
(1.07057 0.145 1.17184e-16)
(1.108 0.106576 -2.505e-16)
(1.05047 0.0930687 2.57412e-16)
(1.07488 0.0519242 -1.23631e-16)
(1.02762 0.0562308 2.28724e-16)
(1.03287 0.00440985 -1.25621e-16)
(1.01046 0.0323874 1.35228e-17)
(0.953444 -0.0581456 2.30361e-16)
(1.11063 0.862757 1.10461e-15)
(1.01472 0.63615 1.01098e-16)
(1.13052 0.499486 3.63095e-16)
(1.02997 0.366857 3.86248e-16)
(1.1179 0.30134 1.08478e-16)
(1.0397 0.228537 3.6237e-17)
(1.10215 0.183759 3.60413e-17)
(1.03958 0.146995 -1.10234e-16)
(1.08519 0.107167 3.73991e-16)
(1.0312 0.0936986 -4.06172e-16)
(1.06397 0.0509863 4.1341e-16)
(1.01682 0.0563416 -5.91702e-16)
(1.03227 0.00218448 4.91947e-16)
(1.00161 0.0318293 -4.78339e-16)
(0.97024 -0.0645787 3.33668e-16)
(0.929266 0.843199 -8.3356e-16)
(0.881931 0.621454 -1.65995e-16)
(1.0248 0.487681 -6.00403e-16)
(0.952671 0.358088 -3.40388e-17)
(1.05355 0.293662 -2.756e-16)
(0.990778 0.22256 -6.27825e-17)
(1.06215 0.178275 2.72534e-16)
(1.0072 0.14246 -2.11979e-16)
(1.06076 0.102673 -2.29724e-17)
(1.00963 0.0899924 1.96032e-17)
(1.05045 0.0461941 -1.6464e-16)
(1.00421 0.0541881 4.05452e-16)
(1.02659 -0.00494964 -3.46316e-16)
(0.998619 0.0334277 5.92984e-16)
(0.973922 -0.0738323 -4.0781e-16)
(0.755966 0.786491 4.00274e-16)
(0.755211 0.579659 -1.56029e-19)
(0.924098 0.454385 8.12236e-16)
(0.879113 0.333512 -4.39298e-16)
(0.992597 0.272911 7.01851e-16)
(0.944642 0.206547 -4.55789e-16)
(1.02487 0.164709 6.27643e-16)
(0.977378 0.131375 -5.33786e-16)
(1.03902 0.0935461 4.88597e-16)
(0.99063 0.0822742 -2.147e-16)
(1.04005 0.0396418 5.36028e-16)
(0.992837 0.0498704 -4.6383e-16)
(1.02621 -0.0108108 -5.0603e-17)
(0.990194 0.0320633 2.9379e-16)
(0.991453 -0.0752589 -6.7054e-16)
(0.598368 0.695175 -9.82624e-17)
(0.639687 0.511903 -1.15503e-16)
(0.832341 0.400564 -2.39531e-16)
(0.811884 0.293597 -6.71289e-17)
(0.936875 0.239378 -3.63829e-16)
(0.90221 0.18058 7.16366e-17)
(0.990473 0.142848 -3.73222e-16)
(0.949432 0.113318 2.49169e-16)
(1.01844 0.0788019 -2.97032e-16)
(0.971942 0.0693482 -8.34817e-17)
(1.02967 0.0292498 -5.33475e-16)
(0.980217 0.0420295 4.63774e-16)
(1.02574 -0.0194733 -6.02254e-17)
(0.979901 0.0312732 1.75762e-17)
(1.00665 -0.0821433 2.06416e-16)
(0.463352 0.573149 -9.28655e-18)
(0.540832 0.421864 -4.00341e-17)
(0.753918 0.329214 5.22573e-16)
(0.754442 0.240867 -1.04874e-16)
(0.889402 0.19549 3.81822e-16)
(0.866091 0.146841 4.86823e-17)
(0.961417 0.115126 -2.40962e-17)
(0.925841 0.0907307 -9.44458e-17)
(1.00153 0.061554 1.97859e-16)
(0.956355 0.0541245 -8.06811e-17)
(1.02232 0.019522 3.88224e-16)
(0.969149 0.0317927 -2.5305e-16)
(1.02899 -0.0224745 6.96297e-18)
(0.968424 0.0214544 7.25013e-17)
(1.0243 -0.0746791 -2.57719e-16)
(0.356692 0.425877 2.63758e-16)
(0.462772 0.312729 1.25507e-17)
(0.692136 0.242742 -4.25637e-16)
(0.709279 0.176706 1.00101e-16)
(0.852253 0.142019 -2.95487e-16)
(0.837946 0.105464 -3.94782e-17)
(0.93896 0.0809431 3.42525e-16)
(0.907635 0.0624082 -4.07879e-17)
(0.988676 0.0395593 1.09656e-16)
(0.944103 0.0339152 -1.02313e-17)
(1.01691 0.00602553 4.78707e-17)
(0.959067 0.017593 -4.9894e-17)
(1.0326 -0.0298009 6.09688e-18)
(0.95557 0.015216 -7.5695e-18)
(1.04251 -0.0767097 -2.84879e-16)
(0.283243 0.259681 -3.61443e-16)
(0.409057 0.189892 -7.67141e-17)
(0.649652 0.145582 2.78108e-16)
(0.678222 0.104754 -2.09622e-17)
(0.826754 0.0823789 1.64662e-16)
(0.818633 0.0595276 -2.30399e-17)
(0.923682 0.0435641 -1.69808e-16)
(0.89532 0.0317568 -1.60606e-16)
(0.980322 0.0170189 -2.3034e-17)
(0.936338 0.0129822 -1.14589e-16)
(1.0144 -0.00408753 -1.97335e-17)
(0.953519 0.000420157 3.98451e-17)
(1.03728 -0.0246921 -9.76204e-17)
(0.94849 -0.00747065 7.70196e-17)
(1.05662 -0.0617738 9.78988e-17)
(0.245978 0.0818937 1.31535e-16)
(0.382139 0.0582623 -4.55749e-17)
(0.628621 0.041465 -4.80381e-17)
(0.663207 0.0274931 -1.75848e-17)
(0.814768 0.0182554 -5.84646e-17)
(0.80998 0.00991186 6.01527e-18)
(0.917229 0.00291029 5.7016e-17)
(0.890572 -0.00201844 4.46833e-17)
(0.977615 -0.00871463 5.07852e-17)
(0.934338 -0.0112067 2.9292e-17)
(1.01455 -0.0190658 4.19395e-17)
(0.954072 -0.0182121 -4.31101e-17)
(1.03958 -0.0296401 1.64042e-17)
(0.952185 -0.0222127 2.41457e-17)
(1.06293 -0.0558264 -5.58805e-17)
(0.246794 -0.0997661 1.05318e-17)
(0.383067 -0.0761739 -4.98098e-17)
(0.629569 -0.0647587 -5.1956e-17)
(0.664215 -0.051267 -5.6835e-18)
(0.815887 -0.0469185 -6.67913e-17)
(0.811169 -0.0403152 1.59011e-17)
(0.918609 -0.0378586 1.31494e-17)
(0.892027 -0.0354598 6.91967e-17)
(0.979348 -0.0333368 5.86982e-17)
(0.936094 -0.0338805 -2.43233e-17)
(1.01672 -0.0308865 2.77152e-17)
(0.955932 -0.0358586 9.86849e-17)
(1.04244 -0.0263771 -4.45925e-17)
(0.953432 -0.0456231 4.00307e-17)
(1.06917 -0.0338213 -1.25061e-17)
(0.285373 -0.277355 -2.32145e-16)
(0.412038 -0.207484 -1.73363e-17)
(0.653004 -0.168462 2.3467e-16)
(0.682138 -0.128136 -5.83203e-17)
(0.831327 -0.110542 2.19597e-16)
(0.823812 -0.0894564 -7.1379e-17)
(0.929621 -0.0779392 -1.02985e-16)
(0.901948 -0.0686841 -1.80542e-16)
(0.987765 -0.0583729 -7.96654e-17)
(0.944592 -0.0574194 -9.45001e-17)
(1.0233 -0.0447244 4.70158e-17)
(0.963865 -0.0540926 -2.39503e-16)
(1.04663 -0.0289216 1.56446e-16)
(0.961992 -0.0612564 -4.60637e-17)
(1.07146 -0.0278581 9.51801e-17)
(0.360421 -0.443065 2.2079e-16)
(0.467652 -0.330282 -1.02921e-18)
(0.697413 -0.265414 -3.90341e-16)
(0.715269 -0.200057 -4.38725e-17)
(0.859075 -0.170063 -1.4811e-16)
(0.845479 -0.135324 3.66563e-17)
(0.947538 -0.115215 5.49771e-17)
(0.916977 -0.0992066 2.09072e-16)
(0.999338 -0.0808368 9.10231e-17)
(0.955625 -0.077959 9.14916e-17)
(1.03013 -0.0551442 -1.69628e-16)
(0.973752 -0.0694639 1.978e-16)
(1.04731 -0.0254524 -4.6866e-17)
(0.976831 -0.0797904 -8.42317e-17)
(1.06112 -0.0066649 1.24521e-16)
(0.468336 -0.589767 -1.86105e-16)
(0.547526 -0.438491 4.65506e-16)
(0.761302 -0.3507 7.49925e-17)
(0.763017 -0.263059 1.41544e-16)
(0.899263 -0.222036 2.23945e-16)
(0.877187 -0.175215 -6.35148e-17)
(0.974089 -0.147586 6.42951e-17)
(0.939841 -0.125818 9.53476e-17)
(1.01738 -0.100832 -3.64869e-16)
(0.973388 -0.0966529 2.81283e-16)
(1.04172 -0.0667251 -4.43561e-19)
(0.988436 -0.0829096 8.77402e-17)
(1.05244 -0.0312868 -5.45226e-17)
(0.987417 -0.0844535 3.30664e-17)
(1.06468 -0.00736039 -1.38204e-16)
(0.604768 -0.710839 -1.22757e-16)
(0.64837 -0.528338 -7.18421e-17)
(0.841769 -0.421521 -4.06209e-16)
(0.822824 -0.31553 1.25098e-17)
(0.949301 -0.265496 -3.6539e-16)
(0.916126 -0.208597 3.5938e-17)
(1.00622 -0.174822 -2.68672e-16)
(0.966751 -0.147789 -1.36926e-16)
(1.03785 -0.117074 2.56321e-16)
(0.993137 -0.110379 -3.261e-16)
(1.05267 -0.0735122 8.38068e-17)
(1.00722 -0.0909681 -1.37018e-16)
(1.04932 -0.0264446 1.07389e-16)
(1.0186 -0.0962305 1.91114e-17)
(1.04312 0.0104897 -7.61671e-17)
(0.763633 -0.801188 2.79452e-16)
(0.765355 -0.594728 2.00192e-16)
(0.935117 -0.473682 9.33469e-17)
(0.891981 -0.353831 6.4799e-16)
(1.00711 -0.297026 -2.48699e-16)
(0.960972 -0.232604 6.3604e-16)
(1.04327 -0.194409 -5.82812e-16)
(0.997722 -0.16375 6.55601e-16)
(1.06204 -0.129812 -6.42262e-16)
(1.01566 -0.121444 4.68317e-16)
(1.06899 -0.0841698 -2.56757e-16)
(1.02323 -0.095244 8.55655e-17)
(1.06087 -0.0417049 -1.71212e-17)
(1.02811 -0.0858795 -3.18318e-16)
(1.04037 0.00576685 2.43874e-16)
(0.937988 -0.856679 -8.49464e-16)
(0.893999 -0.635906 9.84843e-17)
(1.03786 -0.505846 -6.30914e-16)
(0.968126 -0.377403 -2.10248e-16)
(1.07092 -0.316396 -2.98371e-16)
(1.01045 -0.247115 -1.94935e-18)
(1.08421 -0.206097 -9.55293e-17)
(1.0316 -0.172729 1.80701e-16)
(1.08802 -0.136174 -3.45072e-16)
(1.03878 -0.126546 3.36314e-16)
(1.08338 -0.085616 -1.78525e-16)
(1.03786 -0.0996735 2.65115e-16)
(1.06395 -0.0345019 -1.44683e-16)
(1.0404 -0.101352 -4.90654e-17)
(1.03208 0.0264033 3.24022e-16)
(1.12049 -0.874855 1.07028e-15)
(1.02798 -0.649046 1.28051e-16)
(1.14479 -0.515862 2.80484e-16)
(1.04689 -0.384458 4.6583e-16)
(1.13669 -0.322129 2.1459e-17)
(1.06099 -0.251288 1.17366e-16)
(1.12573 -0.209585 -7.50749e-17)
(1.06569 -0.175576 -1.31095e-17)
(1.11407 -0.138587 2.68678e-16)
(1.0626 -0.129011 -3.3661e-16)
(1.09893 -0.0876322 3.47439e-16)
(1.05487 -0.101068 -5.54397e-16)
(1.07172 -0.0383222 4.77274e-16)
(1.05173 -0.0939057 -5.32203e-16)
(1.03014 0.013564 3.85848e-16)
(1.30296 -0.854966 -7.53363e-16)
(1.16214 -0.634319 -1.14172e-16)
(1.25205 -0.503608 -5.22881e-16)
(1.12597 -0.374903 -1.62828e-17)
(1.20294 -0.313813 -2.40702e-16)
(1.11201 -0.24413 -1.93207e-17)
(1.16784 -0.203289 1.83074e-16)
(1.10037 -0.169442 -1.2719e-16)
(1.14039 -0.133225 -4.72971e-17)
(1.08672 -0.123328 4.29959e-17)
(1.11309 -0.0825841 -1.17354e-16)
(1.07248 -0.0965799 3.03139e-16)
(1.07407 -0.0330356 -2.55149e-16)
(1.06758 -0.0928166 4.17557e-16)
(1.02291 0.0200681 -2.88675e-16)
(1.47768 -0.79771 3.22226e-16)
(1.29003 -0.591844 2.12751e-17)
(1.35439 -0.469497 4.93675e-16)
(1.20102 -0.349254 -2.31906e-16)
(1.26589 -0.29236 4.10911e-16)
(1.16026 -0.227214 -2.61478e-16)
(1.20776 -0.189464 3.68884e-16)
(1.13316 -0.157714 -3.12891e-16)
(1.1656 -0.124463 2.85964e-16)
(1.10991 -0.114951 -1.20237e-16)
(1.12751 -0.0776069 3.19206e-16)
(1.08981 -0.0897334 -2.81906e-16)
(1.07894 -0.0329183 -1.86812e-17)
(1.08048 -0.081937 1.6753e-16)
(1.02482 0.00758786 -3.82531e-16)
(1.63695 -0.70561 -1.16481e-16)
(1.40656 -0.52382 -7.26703e-17)
(1.44775 -0.414951 -1.28089e-16)
(1.26931 -0.308453 -5.70804e-17)
(1.32317 -0.25807 -1.58289e-16)
(1.20389 -0.200084 1.01832e-17)
(1.24368 -0.166886 -1.58148e-16)
(1.16227 -0.138196 8.94241e-17)
(1.18752 -0.109216 -1.26474e-16)
(1.12974 -0.0998335 -5.54991e-17)
(1.13892 -0.0678021 -2.30988e-16)
(1.10447 -0.0764546 2.14497e-16)
(1.08053 -0.0301406 -3.21203e-17)
(1.09492 -0.0659765 4.80414e-17)
(1.01787 -0.00114848 5.50847e-17)
(1.77386 -0.582654 3.9606e-17)
(1.50621 -0.432941 -1.29596e-17)
(1.5279 -0.342294 2.15894e-16)
(1.32764 -0.254301 -5.92772e-17)
(1.37246 -0.212707 1.64854e-16)
(1.24145 -0.164551 -1.57784e-18)
(1.27518 -0.13753 1.59493e-17)
(1.188 -0.113252 -3.77526e-17)
(1.20795 -0.0901897 6.87477e-17)
(1.1481 -0.0812255 -2.43245e-17)
(1.15194 -0.057022 1.16568e-16)
(1.11675 -0.0602913 -7.51015e-17)
(1.08952 -0.029973 3.26325e-18)
(1.09754 -0.0456544 3.10281e-17)
(1.02852 -0.0135167 -8.15174e-17)
(1.8825 -0.434011 5.15566e-17)
(1.58513 -0.323447 -1.93284e-17)
(1.59149 -0.254832 -9.76408e-17)
(1.37359 -0.189469 6.1813e-18)
(1.41128 -0.158426 -6.99547e-17)
(1.27055 -0.12232 -1.32072e-17)
(1.29939 -0.102611 7.02308e-17)
(1.20705 -0.0838116 -1.32958e-17)
(1.22266 -0.0675345 2.49132e-17)
(1.16023 -0.0590721 -1.33844e-17)
(1.15999 -0.0435202 1.15156e-17)
(1.12372 -0.0402469 -9.08595e-18)
(1.0923 -0.0277638 6.79771e-18)
(1.10447 -0.0206708 -4.56112e-18)
(1.02519 -0.0267794 -4.00433e-17)
(1.9581 -0.266367 -5.54031e-17)
(1.63923 -0.199807 -1.80074e-17)
(1.63556 -0.156005 7.42536e-17)
(1.40498 -0.116216 -6.03332e-18)
(1.43824 -0.0969471 4.32832e-17)
(1.29068 -0.074545 -1.43334e-18)
(1.31679 -0.0629935 -1.09371e-17)
(1.22086 -0.0506752 -2.59893e-17)
(1.23477 -0.0420128 7.75526e-18)
(1.16973 -0.0350627 -1.75184e-17)
(1.17108 -0.0287757 1.26526e-17)
(1.12544 -0.0211542 -1.01498e-17)
(1.11039 -0.0246941 -1.09473e-17)
(1.08871 -0.000519769 8.23794e-18)
(1.04297 -0.0352425 -1.60191e-17)
(1.99734 -0.0867148 3.28226e-17)
(1.66704 -0.0677495 -1.08048e-17)
(1.65857 -0.0505745 -1.46939e-17)
(1.42088 -0.0385422 -2.08692e-18)
(1.4521 -0.0318641 -1.5471e-17)
(1.30044 -0.0244622 2.14825e-18)
(1.32523 -0.0214704 1.34761e-17)
(1.22668 -0.0165254 2.73852e-18)
(1.23959 -0.0154545 1.0208e-17)
(1.17209 -0.0111786 1.29095e-19)
(1.17369 -0.012639 1.01559e-18)
(1.12313 -0.00529129 6.33496e-18)
(1.11381 -0.0162559 -9.83473e-18)
(1.0819 0.00802135 3.58206e-18)
(1.04787 -0.0339277 -6.72709e-18)
(1.99858 0.0968461 -2.01704e-17)
(1.6662 0.0672988 -3.26345e-18)
(1.65887 0.0574696 4.10293e-17)
(1.4199 0.0411475 1.78719e-18)
(1.452 0.0352161 2.11478e-17)
(1.29969 0.0273143 -3.42937e-18)
(1.32535 0.0217583 -1.31586e-18)
(1.22625 0.0191729 -1.68618e-17)
(1.24049 0.0126476 -4.59498e-18)
(1.17168 0.0142875 -1.36618e-18)
(1.17701 0.00500535 5.58061e-18)
(1.11883 0.0130301 -1.33385e-17)
(1.12595 -0.0068548 3.76217e-18)
(1.06164 0.0221459 -8.19815e-19)
(1.07283 -0.03358 -6.03457e-18)
(1.96165 0.276662 6.09452e-17)
(1.63824 0.199249 -2.16011e-17)
(1.63746 0.16286 -4.4332e-17)
(1.40323 0.118376 -1.98478e-18)
(1.43865 0.100034 -4.73279e-17)
(1.28865 0.0767008 1.2597e-17)
(1.31664 0.0628134 2.74546e-17)
(1.2181 0.0522661 3.1234e-17)
(1.23461 0.0385479 3.00725e-17)
(1.16452 0.0367163 1.43996e-17)
(1.17382 0.0206476 -9.2495e-18)
(1.10988 0.0271589 5.22012e-17)
(1.12837 0.0024648 -3.46995e-17)
(1.04897 0.0287074 1.88775e-17)
(1.07635 -0.0284693 -2.71885e-17)
(1.88831 0.444503 -3.78511e-17)
(1.58255 0.322385 6.15465e-18)
(1.59387 0.261516 1.44393e-16)
(1.37004 0.190817 5.47487e-18)
(1.41133 0.161277 7.02333e-17)
(1.26706 0.123782 -1.57845e-17)
(1.29921 0.102554 4.3274e-18)
(1.20339 0.0848899 -6.30623e-17)
(1.22414 0.0649459 -2.01854e-17)
(1.15422 0.0599153 -2.95767e-17)
(1.1702 0.0383988 5.61958e-17)
(1.09989 0.041333 -6.93579e-17)
(1.13592 0.0170758 2.12026e-17)
(1.02976 0.0288081 2.71227e-17)
(1.09871 -0.00853709 -2.91824e-17)
(1.78154 0.59343 4.36554e-17)
(1.50376 0.431666 -1.99552e-16)
(1.5318 0.348918 -2.1547e-17)
(1.32388 0.254644 -1.01093e-16)
(1.37324 0.215052 -6.93123e-17)
(1.23744 0.164464 -8.32654e-18)
(1.27507 0.136585 5.20009e-18)
(1.18303 0.111793 -6.45999e-17)
(1.20856 0.0863767 1.799e-16)
(1.13887 0.0773928 -1.31593e-16)
(1.16012 0.0519426 8.35286e-18)
(1.08731 0.0511514 -2.99143e-17)
(1.12913 0.0267649 3.2645e-17)
(1.02495 0.035003 -1.25299e-17)
(1.09288 -0.00653353 8.89505e-17)
(1.6463 0.716622 1.32418e-16)
(1.40284 0.521665 4.43014e-17)
(1.45186 0.421086 2.44844e-16)
(1.2643 0.307303 -3.8283e-18)
(1.32347 0.259675 2.20765e-16)
(1.19883 0.198475 -4.04394e-17)
(1.2431 0.165478 1.76893e-16)
(1.15688 0.135125 5.36754e-17)
(1.18861 0.105789 -1.10006e-16)
(1.12171 0.093324 1.61722e-16)
(1.1506 0.0666982 -3.39268e-17)
(1.07614 0.0563874 7.11133e-17)
(1.13295 0.0467325 -5.30065e-17)
(1.00812 0.0157321 3.6625e-18)
(1.10997 0.0260178 3.57008e-17)
(1.48819 0.808806 -2.78168e-16)
(1.28678 0.589624 -1.20529e-16)
(1.35975 0.475653 -9.99014e-17)
(1.19645 0.34725 -4.46651e-16)
(1.26686 0.293739 1.6137e-16)
(1.15527 0.224436 -4.45544e-16)
(1.20691 0.187668 4.06005e-16)
(1.12696 0.152858 -4.70814e-16)
(1.1643 0.120108 4.38052e-16)
(1.10007 0.105301 -3.27306e-16)
(1.13101 0.0743463 1.73359e-16)
(1.06447 0.0646038 -5.37694e-17)
(1.10897 0.0479598 -3.0547e-18)
(1.01584 0.0231181 2.45323e-16)
(1.09852 0.0344202 -1.99607e-16)
(1.31431 0.866127 7.72901e-16)
(1.15816 0.631153 -4.8823e-17)
(1.25747 0.508967 5.0824e-16)
(1.12105 0.371317 2.16621e-16)
(1.20367 0.314201 2.10979e-16)
(1.10687 0.239865 3.19985e-17)
(1.1667 0.200933 2.27579e-17)
(1.09442 0.16365 -1.22728e-16)
(1.13911 0.12947 2.57002e-16)
(1.07803 0.114198 -2.65658e-16)
(1.11763 0.0826221 1.28701e-16)
(1.04741 0.0729971 -2.33671e-16)
(1.11043 0.0586372 1.19496e-16)
(0.988261 0.0262405 -3.07842e-18)
(1.11876 0.048993 -2.63316e-16)
(1.13232 0.885656 -1.10569e-15)
(1.0247 0.646135 -1.03808e-16)
(1.15107 0.52124 -3.59265e-16)
(1.04293 0.380594 -3.97236e-16)
(1.13799 0.322642 -1.00487e-16)
(1.05638 0.246654 -4.80069e-17)
(1.12435 0.20747 -2.51241e-17)
(1.0594 0.169218 1.0041e-16)
(1.11105 0.134923 -3.6648e-16)
(1.05229 0.118718 4.06203e-16)
(1.0989 0.0870717 -4.13032e-16)
(1.02946 0.0759775 5.98952e-16)
(1.09583 0.0620804 -5.05138e-16)
(0.986407 0.0290739 4.94006e-16)
(1.09734 0.0551387 -3.49944e-16)
(0.949948 0.866985 8.35604e-16)
(0.89058 0.632274 1.64684e-16)
(1.04421 0.510193 5.98967e-16)
(0.964732 0.372456 3.60293e-17)
(1.07242 0.316044 2.73854e-16)
(1.00666 0.241672 6.12307e-17)
(1.0831 0.203854 -2.70669e-16)
(1.02648 0.166357 2.07528e-16)
(1.08558 0.133858 2.53184e-17)
(1.03035 0.117476 -2.70242e-17)
(1.08471 0.0894084 1.60174e-16)
(1.01456 0.0746897 -4.01919e-16)
(1.09061 0.0701658 3.49e-16)
(0.973922 0.0243984 -5.91061e-16)
(1.10061 0.0673421 4.16965e-16)
(0.775537 0.810488 -3.99244e-16)
(0.762724 0.591751 -2.68402e-18)
(0.941974 0.477904 -8.00003e-16)
(0.889856 0.349337 4.28229e-16)
(1.00918 0.297003 -6.83111e-16)
(0.95824 0.227527 4.40611e-16)
(1.04226 0.192653 -6.03476e-16)
(0.993136 0.157433 5.13502e-16)
(1.05867 0.127787 -4.6514e-16)
(1.00661 0.111583 2.0516e-16)
(1.06706 0.0876274 -5.08228e-16)
(0.999059 0.0697298 4.486e-16)
(1.07737 0.0731712 4.13529e-17)
(0.971157 0.0207816 -2.69372e-16)
(1.08078 0.0684439 6.26941e-16)
(0.61634 0.71894 9.92031e-17)
(0.646039 0.525053 1.14089e-16)
(0.848774 0.424505 2.33097e-16)
(0.821879 0.310691 6.81947e-17)
(0.951965 0.264734 3.51705e-16)
(0.914947 0.203417 -6.71426e-17)
(1.00603 0.173172 3.61408e-16)
(0.964322 0.14216 -2.37755e-16)
(1.03577 0.11707 2.81432e-16)
(0.987566 0.10215 8.74052e-17)
(1.05292 0.0841229 5.0112e-16)
(0.988881 0.0629645 -4.39648e-16)
(1.0664 0.0773791 5.51052e-17)
(0.972509 0.0123319 -2.08946e-17)
(1.06676 0.0802987 -1.87918e-16)
(0.479613 0.596142 8.99927e-18)
(0.545826 0.436166 3.79621e-17)
(0.768467 0.353299 -5.0905e-16)
(0.763136 0.259365 1.00813e-16)
(0.902215 0.221675 -3.70031e-16)
(0.877035 0.171107 -4.85174e-17)
(0.973972 0.146434 2.15043e-17)
(0.938594 0.120751 8.52043e-17)
(1.01474 0.100494 -1.8443e-16)
(0.970178 0.0875354 6.76623e-17)
(1.03825 0.0742638 -3.60962e-16)
(0.980251 0.054222 2.35982e-16)
(1.05144 0.0706812 -4.68575e-18)
(0.977306 0.014375 -6.22581e-17)
(1.04868 0.0723752 2.41922e-16)
(0.371172 0.447602 -2.60916e-16)
(0.466402 0.328163 -1.10643e-17)
(0.704842 0.266695 4.13368e-16)
(0.716701 0.196828 -9.60792e-17)
(0.862924 0.169092 2.86786e-16)
(0.847179 0.131767 3.65765e-17)
(0.948675 0.113913 -3.23512e-16)
(0.918418 0.0952668 3.92726e-17)
(0.998168 0.0810665 -1.01016e-16)
(0.957042 0.0716934 8.2242e-18)
(1.02682 0.0641952 -4.41327e-17)
(0.97585 0.0459042 4.58411e-17)
(1.03914 0.0682892 -8.99407e-18)
(0.986254 0.00734285 1.6198e-17)
(1.03078 0.0813297 2.37025e-16)
(0.296077 0.279616 3.58219e-16)
(0.411119 0.206336 7.48344e-17)
(0.660268 0.168974 -2.6957e-16)
(0.683862 0.126351 1.89595e-17)
(0.834848 0.10973 -1.58929e-16)
(0.825501 0.0872878 2.11473e-17)
(0.930031 0.0767398 1.60496e-16)
(0.903133 0.0658021 1.50184e-16)
(0.985221 0.0572441 2.27638e-17)
(0.946038 0.0522262 1.05904e-16)
(1.01673 0.0466182 1.72393e-17)
(0.969812 0.0388621 -3.20135e-17)
(1.02771 0.0468619 8.81048e-17)
(0.988435 0.0219324 -6.88693e-17)
(1.01757 0.0683063 -8.30554e-17)
(0.257014 0.0996841 -1.29724e-16)
(0.382453 0.0758193 4.52206e-17)
(0.637113 0.064191 4.60651e-17)
(0.666757 0.0507392 1.7556e-17)
(0.820207 0.0459859 5.71845e-17)
(0.81408 0.0395571 -5.84075e-18)
(0.92014 0.0370027 -5.16028e-17)
(0.894761 0.0346356 -4.32143e-17)