/*--------------------------------*- C++ -*----------------------------------*\
| =========                 |                                                 |
| \\      /  F ield         | foam-extend: Open Source CFD                    |
|  \\    /   O peration     | Version:  3.0                                   |
|   \\  /    A nd           | Web:         http://www.extend-project.de       |
|    \\/     M anipulation  |                                                 |
\*---------------------------------------------------------------------------*/
FoamFile
{
    version     2.0;
    format      ascii;
    class       volVectorField;
    location    "15";
    object      u;
}
// * * * * * * * * * * * * * * * * * * * * * * * * * * * * * * * * * * * * * //

dimensions      [0 0 0 0 0 0 0];

internalField   nonuniform List<vector> 
672
(
(0.2396593724 -0.09033305327 7.395556919e-19)
(0.4863818997 -0.06335604049 3.649954884e-18)
(0.6604238509 -0.04587016833 1.147316763e-17)
(0.7621993225 -0.03355973601 -4.813506485e-18)
(0.8457843951 -0.02491915037 5.57690252e-18)
(0.8917410784 -0.01847575756 2.356710783e-18)
(0.9370974836 -0.01345937081 2.717019312e-18)
(0.956766211 -0.009584092199 -8.152387209e-19)
(0.983079034 -0.0060816605 6.114844184e-18)
(0.9876203253 -0.00337499354 9.259027391e-18)
(1.002884213 -0.0004332860345 -2.575228523e-18)
(0.9967125514 0.002365604345 1.858082831e-18)
(0.2804464056 -0.2698102521 -7.235102776e-19)
(0.5151317364 -0.1899683238 3.823729599e-18)
(0.6813807001 -0.1382738474 1.29393892e-17)
(0.7776710546 -0.1019066385 -5.938228403e-18)
(0.8574162817 -0.076448951 -9.992946537e-19)
(0.9005124373 -0.05749755984 -2.679874924e-18)
(0.9436520881 -0.04281242153 -1.783268553e-17)
(0.9616121743 -0.0315081038 1.177375155e-17)
(0.9863902229 -0.02134930322 1.025996383e-17)
(0.989750869 -0.01355131973 -3.900296351e-18)
(1.003738257 -0.005104060826 -1.02421296e-17)
(0.9964230467 0.002499671677 2.09473421e-17)
(0.3601444648 -0.4357098953 -6.159244763e-18)
(0.5713316887 -0.3070052089 3.043480747e-18)
(0.7223687154 -0.2236931007 4.675083983e-18)
(0.8079585527 -0.1650927314 1.137340606e-17)
(0.8802176385 -0.1240940627 -5.403013421e-18)
(0.9177422089 -0.09358404744 1.49416315e-17)
(0.9565692417 -0.06996514489 1.489149384e-17)
(0.9712110751 -0.05179695417 3.251103498e-17)
(0.9930116242 -0.03548912264 -7.918932099e-18)
(0.9940887944 -0.02298940355 1.219334786e-17)
(1.005606599 -0.009458470137 -4.13964488e-18)
(0.9961075163 0.002577330793 1.322015181e-17)
(0.4747568996 -0.5797098889 5.073914901e-18)
(0.6521614526 -0.4085973572 -2.142959176e-18)
(0.7813330212 -0.2978450199 -2.707491485e-18)
(0.8515428843 -0.2199499306 1.528206284e-18)
(0.913045195 -0.1654652405 -1.436571064e-17)
(0.942564909 -0.1249261527 9.570029836e-18)
(0.9751993216 -0.09355658449 -2.367779268e-17)
(0.9850780607 -0.06943467219 2.061601786e-17)
(1.002607733 -0.04779351259 6.740690944e-18)
(1.000412363 -0.03121693129 2.667697189e-17)
(1.00839186 -0.01327794996 3.14698395e-18)
(0.995777098 0.002594673915 4.244911083e-17)
(0.6185368983 -0.6945926836 1.931473758e-17)
(0.7535697953 -0.4896524952 2.725908781e-18)
(0.8553167681 -0.3570128927 7.315587049e-19)
(0.9062385358 -0.2637283622 4.029684808e-18)
(0.9542517421 -0.1984887932 5.397881261e-18)
(0.9737354717 -0.1499524685 1.874011291e-17)
(0.9986069951 -0.1124039184 -1.527246097e-17)
(1.002517075 -0.08353664882 7.072963251e-18)
(1.014695531 -0.0576455426 1.659273517e-17)
(1.008402473 -0.03782186739 -3.775784037e-17)
(1.011951212 -0.01637195756 -5.04882154e-18)
(0.9954445171 0.00255005935 8.071193076e-18)
(0.7842716199 -0.774595535 2.903279722e-18)
(0.870466542 -0.5461054058 4.325541781e-18)
(0.9406062367 -0.3982294749 -1.744686471e-17)
(0.9692982702 -0.2942335311 1.499135507e-18)
(1.00176747 -0.2215096655 -1.411886139e-17)
(1.009686568 -0.1674096945 1.122218951e-17)
(1.025614867 -0.1255637351 -2.720538104e-17)
(1.022649435 -0.09339786947 -1.815939418e-17)
(1.028665238 -0.06455326429 1.123122839e-17)
(1.017654401 -0.04247506982 4.943702493e-17)
(1.016102418 -0.0185871432 -5.034482298e-17)
(0.9951217875 0.002443612931 3.628730852e-17)
(0.9636498129 -0.8157099419 -1.040276588e-18)
(0.99699171 -0.5751273368 2.873310691e-18)
(1.032925182 -0.4194301071 -1.337133592e-17)
(1.037561286 -0.3099368595 -1.625733805e-17)
(1.05320966 -0.2333746678 2.295541067e-17)
(1.048615822 -0.1764229142 9.410732368e-18)
(1.054867729 -0.1323767328 1.876935763e-17)
(1.044464758 -0.09852413833 -2.594262299e-18)
(1.043814118 -0.06817088265 -1.056620508e-18)
(1.027701743 -0.04494387722 -2.349311874e-17)
(1.020633521 -0.01981353356 2.835893969e-17)
(0.9948208408 0.002279354263 1.056664262e-17)
(1.147674147 -0.815873161 5.585077701e-18)
(1.126796688 -0.5752631497 -3.272390529e-18)
(1.127641287 -0.4195517337 -8.544796601e-19)
(1.107600603 -0.3100522636 -7.50569924e-18)
(1.105995729 -0.2334901916 3.193142431e-18)
(1.088567321 -0.1765424916 7.467300732e-18)
(1.084895733 -0.1325036319 2.186057208e-17)
(1.066865764 -0.09866128471 3.035970605e-18)
(1.059380028 -0.06831983325 6.917205359e-18)
(1.03803785 -0.04510765642 2.943415712e-17)
(1.025314908 -0.01999268224 -2.198395986e-17)
(0.9945532139 0.002061639704 5.26601784e-18)
(1.327116622 -0.7750802908 8.729070486e-18)
(1.253374007 -0.546507748 -4.483373941e-18)
(1.220005458 -0.3985904617 -7.502467665e-18)
(1.175905165 -0.2945749573 8.669306191e-18)
(1.157478411 -0.2218519472 -2.082735078e-17)
(1.127537671 -0.1677632222 5.046428022e-18)
(1.114191633 -0.1259394007 -9.833165332e-18)
(1.08872752 -0.09380356355 1.33234817e-17)
(1.074579388 -0.06499441237 -4.430111785e-18)
(1.048141326 -0.04295995175 -3.522383846e-17)
(1.029907843 -0.01911810259 1.086510754e-17)
(0.9943283591 0.001798834547 -2.219685081e-17)
(1.492977096 -0.6953765971 6.099000198e-18)
(1.370373189 -0.4903040871 9.073594115e-19)
(1.305383708 -0.3575978562 1.500537051e-17)
(1.239046708 -0.2642829637 3.121515818e-18)
(1.205073938 -0.1990451588 3.783630305e-18)
(1.163570023 -0.1505280391 -2.161435544e-17)
(1.141284732 -0.1130156546 3.653249582e-18)
(1.108951845 -0.08419761329 1.516969504e-19)
(1.088648895 -0.05836411657 -1.4417316e-17)
(1.057503898 -0.03861177587 -1.528192699e-17)
(1.034180608 -0.01723680342 1.39325185e-17)
(0.9941550077 0.001499565464 -5.483451159e-18)
(1.636938986 -0.580761923 -7.742493655e-19)
(1.471928772 -0.4094717414 -4.226218927e-19)
(1.379495173 -0.2986315491 1.329824635e-18)
(1.293859783 -0.2206960567 -4.928644706e-18)
(1.246395183 -0.1662151669 4.990289338e-18)
(1.194857194 -0.125702253 -1.050573253e-17)
(1.164814827 -0.09438255053 -7.704490423e-19)
(1.126522994 -0.07032710231 -5.536996954e-18)
(1.100880513 -0.04876448385 -1.733476119e-18)
(1.0656539 -0.03228405745 4.774137586e-18)
(1.037916328 -0.0144470091 1.81583346e-18)
(0.99403949 0.001175002707 -3.589719028e-18)
(1.751781913 -0.4369837766 -6.656629672e-18)
(1.552945881 -0.3080656404 -1.559264917e-18)
(1.438621807 -0.2246491417 3.424413913e-18)
(1.337593603 -0.1660021146 3.964796274e-18)
(1.27936878 -0.1250098054 4.233790021e-18)
(1.219828694 -0.09453338334 -4.593235163e-18)
(1.183601262 -0.0709764806 1.011751983e-17)
(1.14055878 -0.05289037101 -1.092514961e-17)
(1.110660284 -0.03667923221 -5.767016345e-18)
(1.072181472 -0.02429740794 -3.165379005e-18)
(1.040926697 -0.01089164438 1.205613755e-17)
(0.9939859496 0.0008367441785 -1.024477745e-17)
(1.831748116 -0.2712545127 -3.878643891e-18)
(1.609363215 -0.1911715357 -1.178531682e-18)
(1.479799151 -0.1393623429 1.807434299e-18)
(1.368055633 -0.1029444105 1.448320318e-18)
(1.302340843 -0.07749721418 3.582966494e-19)
(1.237231955 -0.05858566555 -1.487204302e-18)
(1.196700876 -0.04397373729 7.12375723e-19)
(1.150354536 -0.03276403973 -6.251689801e-18)
(1.117496646 -0.02271785503 -6.06552523e-19)
(1.076758644 -0.01505531568 -2.759381188e-18)
(1.043060034 -0.006753186027 4.785777988e-18)
(0.9939966191 0.0004976704619 -3.682692944e-18)
(1.872826912 -0.09188482292 -1.897615238e-18)
(1.638350253 -0.06465288075 -6.566509689e-19)
(1.500961243 -0.04704863613 5.881247803e-19)
(1.383717041 -0.03468721698 9.905996375e-19)
(1.314158731 -0.02606125425 5.441150718e-19)
(1.246193447 -0.01966416005 -7.245990332e-19)
(1.203456444 -0.01473005579 -2.283650103e-19)
(1.155418434 -0.0109600796 -3.113131987e-18)
(1.12104642 -0.007582620055 -1.993604204e-18)
(1.079155217 -0.00502461398 -1.917470526e-18)
(1.044208936 -0.002242023776 1.814124472e-18)
(0.994070387 0.0001702450679 -2.618037653e-18)
(1.872959758 0.0921289258 -1.439611588e-19)
(1.638454528 0.06514576652 -6.806797541e-21)
(1.501047424 0.04766123922 -5.500553543e-19)
(1.383792808 0.03534614296 1.435946049e-18)
(1.314229669 0.02671682928 6.957954002e-19)
(1.246263625 0.02027816263 -3.248561759e-19)
(1.203528826 0.01528555405 5.707553512e-19)
(1.155496413 0.01142623018 -2.963761774e-18)
(1.121131562 0.00796440946 -2.545875654e-18)
(1.07925133 0.005289320591 -1.877382634e-18)
(1.044316316 0.00241199805 9.861344553e-19)
(0.9942043474 -0.0001325427953 -3.539674547e-18)
(1.832139596 0.2715594332 1.73912739e-18)
(1.609670054 0.1917139474 7.505642046e-19)
(1.480052666 0.1400174207 -1.176445807e-18)
(1.368278515 0.1036417383 1.425935354e-18)
(1.302549759 0.07818938424 1.629653824e-18)
(1.237438708 0.05923604753 -7.987282989e-19)
(1.196914333 0.04456645477 2.832519592e-18)
(1.150584522 0.03326958479 -5.932945994e-18)
(1.117747903 0.02314159442 -2.972186826e-18)
(1.077042364 0.01536604545 -1.089959355e-18)
(1.043377212 0.006973043741 9.891979191e-19)
(0.994392429 -0.0003995352844 -7.297417899e-18)
(1.752414763 0.4374080427 4.030759051e-18)
(1.553441084 0.3087050066 1.524345897e-18)
(1.43903042 0.2253872493 7.446730417e-19)
(1.33795241 0.1667744168 -2.54693771e-18)
(1.279704896 0.1257734162 3.20741941e-18)
(1.220161256 0.09525491532 -5.124741165e-18)
(1.183944816 0.07164208022 -2.556949128e-18)
(1.14092924 0.05347323637 -9.231060222e-18)
(1.111065581 0.03718533614 1.750912298e-18)
(1.072639624 0.0246985352 -4.927831697e-18)
(1.041439645 0.01120952116 -1.0409376e-18)
(0.9946263923 -0.0006198858476 -7.024832893e-18)
(1.637782665 0.5813587055 1.142080076e-19)
(1.472586903 0.410250962 2.963519623e-18)
(1.380037223 0.2994894087 3.297127228e-18)
(1.294335078 0.2215764905 8.433719251e-19)
(1.24684051 0.1670819483 5.632537368e-18)
(1.195297911 0.1265264243 -3.767481837e-18)
(1.165270888 0.0951534466 1.342556835e-17)
(1.127015356 0.07102157078 -3.001829411e-18)
(1.101420317 0.04938978966 -2.195332884e-18)
(1.066264944 0.03281611889 -6.989066327e-18)
(1.038601884 0.0149072694 -3.934945316e-19)
(0.9948960775 -0.0007857052152 -1.552641106e-17)
(1.493992764 0.6961925307 -6.894088569e-18)
(1.37116257 0.4912601975 -7.47267008e-20)
(1.306032186 0.3586068514 1.710210056e-18)
(1.23961406 0.2652995805 -5.419065567e-19)
(1.205605207 0.2000418737 -4.016167554e-18)
(1.164095657 0.1514816564 -8.895298714e-18)
(1.141829518 0.1139196128 9.934968008e-18)
(1.109540863 0.08503354535 3.028022194e-18)
(1.089296481 0.05914081671 -6.262676132e-18)
(1.058238485 0.03931040634 2.074839646e-17)
(1.035007232 0.01787852828 6.80889609e-18)
(0.995189136 -0.000890526429 -6.827505766e-19)
(1.328254689 0.7761517518 1.638274541e-18)
(1.254253894 0.5476692181 -1.744262649e-18)
(1.220725766 0.3997747753 1.281544092e-17)
(1.176533573 0.2957494917 5.228904511e-19)
(1.158066704 0.2229997038 8.160099241e-18)
(1.128119816 0.1688673197 -5.816184997e-18)
(1.114796623 0.1269985675 1.615931551e-17)
(1.089383118 0.09480445674 1.496018548e-17)
(1.075302892 0.0659483302 -3.136673185e-18)
(1.04896422 0.04385369752 -3.227975511e-17)
(1.030837185 0.01997325843 3.301613978e-17)
(0.9954927557 -0.000931422185 -2.200342573e-17)
(1.148880356 0.8172267376 4.963944374e-19)
(1.127723689 0.5766500173 -1.843710256e-18)
(1.128396816 0.4209279619 8.275430611e-18)
(1.108257271 0.311399188 1.305484589e-17)
(1.106609876 0.2348028535 -1.985420137e-17)
(1.089174822 0.1778110187 -6.045436774e-18)
(1.085528752 0.1337328076 -2.079011315e-17)
(1.067553379 0.09984347341 1.854173089e-19)
(1.060142286 0.0694691329 5.204124789e-18)
(1.038907784 0.04621710059 2.780536993e-17)
(1.026302049 0.02108450273 -2.485105605e-17)
(0.9957928583 -0.0009077420574 -2.102659489e-19)
(0.964863345 0.8173581389 -9.664390097e-18)
(0.9979168072 0.5767480868 2.693032811e-18)
(1.033674603 0.4210052368 -4.028786602e-18)
(1.038209381 0.3114623471 3.731183279e-18)
(1.053815049 0.2348587869 1.880493074e-18)
(1.04921457 0.1778626198 -2.420148193e-18)
(1.055494049 0.1337838677 -2.038240253e-17)
(1.045147654 0.09989622704 -2.601442051e-18)
(1.044575718 0.06952585265 -1.435770046e-18)
(1.028575017 0.04628046085 -2.286988073e-17)
(1.021630199 0.0211557423 2.787179551e-17)
(0.9960762076 -0.0008226027345 4.835179364e-18)
(0.7854319789 0.7765394395 -1.520799414e-17)
(0.8713426855 0.5479592496 2.386707644e-18)
(0.9413103611 0.4000022768 4.358182432e-18)
(0.9699030595 0.2959359401 -1.583421682e-17)
(1.002331073 0.2231637771 2.730434241e-17)
(1.010243532 0.1690192052 9.142554954e-19)
(1.026200043 0.1271479053 1.699010761e-17)
(1.023290199 0.0949594034 -1.315181454e-17)
(1.029385245 0.06611412281 1.361622546e-17)
(1.018484861 0.04403971444 5.683630187e-17)
(1.017057446 0.02018181383 -2.03496563e-17)
(0.9963297976 -0.0006814287881 3.22921692e-17)
(0.619582469 0.6968173078 -1.230346789e-17)
(0.7543485827 0.4917257526 -5.469730435e-18)
(0.8559352136 0.3589716009 -2.914492958e-17)
(0.9067643749 0.2655970544 -5.684049501e-18)
(0.9547397676 0.2003035379 -1.54144822e-17)
(0.9742172209 0.1517227738 3.831539553e-17)
(0.9991162597 0.1141569422 -1.061099453e-17)
(1.003078624 0.0852791135 5.973504971e-18)
(1.015333371 0.05940424889 2.211294807e-17)
(1.009144932 0.039605746 1.328501344e-17)
(1.012813884 0.01821068648 -2.805950062e-17)
(0.9965428068 -0.000493215347 1.630296293e-18)
(0.4756321091 0.5821894399 5.8478077e-19)
(0.6528013336 0.4108681788 -8.746843095e-19)
(0.7818318276 0.2999706585 6.130096872e-19)
(0.8519600684 0.2219674492 8.885433586e-18)
(0.9134293295 0.1674239948 -1.726302642e-17)
(0.9429430248 0.1268406476 1.235272182e-17)
(0.9756026448 0.09546162088 -7.129924016e-18)
(0.9855274323 0.07134038281 1.409533564e-17)
(1.003126635 0.04973156459 -6.337643282e-18)
(1.001024653 0.03320015882 -2.272455997e-17)
(1.009114188 0.01533978324 -8.758626479e-18)
(0.9967059562 -0.0002685455521 4.916872728e-18)
(0.3607980862 0.4384030219 1.603118806e-17)
(0.5717936283 0.3094396757 1.443413349e-18)
(0.7227159377 0.2259571562 -8.901215871e-18)
(0.8082395992 0.1672335764 -1.751321285e-17)
(0.8804717276 0.1261730859 -1.250521479e-17)
(0.9179909204 0.09561928684 3.14968624e-18)
(0.956839142 0.07199863995 -3.932275081e-17)
(0.9715187028 0.05384089174 2.683769514e-17)
(0.9933781987 0.03758023401 7.222861791e-18)
(0.9945332833 0.02514275828 4.787615935e-18)
(1.006144974 0.01171200558 -4.306687115e-17)
(0.9968134181 -2.061313403e-05 2.923267826e-17)
(0.2808397275 0.2726681553 5.545678528e-18)
(0.5153877303 0.1925270601 -9.418094695e-19)
(0.6815534956 0.1406428311 -5.242906074e-18)
(0.7777959495 0.1041407051 -2.70350265e-18)
(0.8575214801 0.07861944789 3.891211273e-18)
(0.9006130593 0.05962458723 -1.197536018e-18)
(0.9437687234 0.04494428313 1.378994424e-18)
(0.9617560853 0.03365804776 6.465524449e-18)
(0.9865791503 0.02355889114 -1.561461952e-17)
(0.9899976939 0.0158370087 1.822523437e-18)
(1.004057493 0.007508061131 -1.536594123e-17)
(0.9968617087 0.0002369714149 4.474282574e-18)
(0.2397659319 0.09329432912 1.321811036e-18)
(0.4864133044 0.06599155433 -2.605023225e-18)
(0.6604088943 0.04830480667 -8.445735272e-18)
(0.762157531 0.0358515544 1.904006625e-18)
(0.8457303209 0.02714690348 -5.193321666e-18)
(0.8916830824 0.02066058833 -1.405211729e-18)
(0.9370481069 0.01565450366 1.413261597e-19)
(0.9567316485 0.01180297676 -6.794432331e-18)
(0.9830720141 0.008369820865 -1.405054839e-18)
(0.9876480328 0.005748391045 -3.968759269e-18)
(1.00295814 0.002937631024 -4.803490622e-18)
(0.996851541 0.0004895823466 1.243371402e-18)
(0.239637698 -0.090723823 -7.343699265e-19)
(0.4863234561 -0.06382113073 -3.645040406e-18)
(0.6603440244 -0.04642599293 -1.146743571e-17)
(0.7621090854 -0.0342087389 4.815684804e-18)
(0.8456914039 -0.02566289218 -5.572384536e-18)
(0.8916497436 -0.01931830645 -2.35335895e-18)
(0.9370165473 -0.01440172142 -2.712950442e-18)
(0.9566987303 -0.0106282231 8.170604228e-19)
(0.9830352867 -0.007225512179 -6.108949849e-18)
(0.9876039216 -0.004617501261 -9.251396088e-18)
(1.002905071 -0.001770822831 2.576388662e-18)
(0.9967860778 0.0007236253178 -1.850537111e-18)
(0.2804616474 -0.270160048 7.287836055e-19)
(0.515124495 -0.1904025222 -3.818650997e-18)
(0.681362964 -0.1388000963 -1.293336866e-17)
(0.7776553277 -0.1025276053 5.940877644e-18)
(0.8574080237 -0.07716232083 1.002180573e-18)
(0.900517386 -0.05830776293 2.682011061e-18)
(0.943677388 -0.04371763509 1.782827812e-17)
(0.9616619974 -0.03251113594 -1.176579546e-17)
(0.9864729432 -0.02244559118 -1.025136856e-17)
(0.9898709091 -0.01474149365 3.90196829e-18)
(1.003903392 -0.006382055759 1.024037682e-17)
(0.9966726499 0.0009262906734 -2.093181218e-17)
(0.3601924726 -0.4360163549 6.164603723e-18)
(0.57137251 -0.3074046731 -3.038716988e-18)
(0.7224133062 -0.2241845036 -4.67045938e-18)
(0.8080171855 -0.1656783467 -1.136707348e-17)
(0.8802944924 -0.1247679687 5.4040887e-18)
(0.9178423018 -0.09435186693 -1.493536746e-17)
(0.9566989603 -0.07082239523 -1.488420184e-17)
(0.9713741385 -0.05274789153 -3.249790194e-17)
(0.9932155527 -0.03652670552 7.917387815e-18)
(0.9943375542 -0.02411569326 -1.218388827e-17)
(1.005906669 -0.01066471383 4.142600368e-18)
(0.9965203367 0.001087200465 -1.320942167e-17)
(0.4748329888 -0.5799768232 -5.067927591e-18)
(0.6522492038 -0.408960838 2.14723133e-18)
(0.7814378282 -0.2982980427 2.71089228e-18)
(0.8516747661 -0.2204942483 -1.52427784e-18)
(0.9132048707 -0.1660928026 1.436529546e-17)
(0.9427587074 -0.1256429603 -9.564928649e-18)
(0.975430431 -0.09435682044 2.367005426e-17)
(0.9853515013 -0.07032340855 -2.061063853e-17)
(1.002927589 -0.04876274333 -6.73738894e-18)
(1.000783686 -0.03226983495 -2.66692922e-17)
(1.008817527 -0.01440423236 -3.146932659e-18)
(0.9963415472 0.001198338477 -4.242778033e-17)
(0.6186366874 -0.6948219215 -1.930875401e-17)
(0.7536994765 -0.4899779577 -2.720952308e-18)
(0.8554782895 -0.3574231382 -7.277037923e-19)
(0.9064393035 -0.2642256887 -4.02619941e-18)
(0.9544905832 -0.1990632423 -5.394150801e-18)
(0.9740180683 -0.1506109397 -1.873330773e-17)
(0.9989347774 -0.1131393902 1.527232698e-17)
(1.0028948 -0.08435534189 -7.072247726e-18)
(1.015125062 -0.05853878221 -1.658539882e-17)
(1.008888506 -0.03879406534 3.774971589e-17)
(1.01249389 -0.01741186215 5.045765263e-18)
(0.9961490519 0.001255030956 -8.063735098e-18)
(0.7843938324 -0.7747929679 -2.898054345e-18)
(0.8706385118 -0.546392933 -4.320834651e-18)
(0.9408233912 -0.3985948832 1.744942239e-17)
(0.9695673259 -0.2946790295 -1.496543753e-18)
(1.002083262 -0.2220256646 1.412099155e-17)
(1.010055965 -0.1680028526 -1.121637388e-17)
(1.026035725 -0.1262277032 2.720765776e-17)
(1.023127822 -0.0941389346 1.815746153e-17)
(1.029199161 -0.06536387792 -1.122993886e-17)
(1.01824958 -0.04335998474 -4.942226609e-17)
(1.016754783 -0.01953595814 5.033755018e-17)
(0.9959574707 0.00125597219 -3.627344454e-17)
(0.963794755 -0.8158785805 1.045109373e-18)
(0.9972029711 -0.5753762544 -2.869148298e-18)
(1.033194946 -0.4197473402 1.337554446e-17)
(1.037893669 -0.3103263171 1.626033787e-17)
(1.053597863 -0.2338269676 -2.295110866e-17)
(1.049066023 -0.1769453993 -9.407095908e-18)
(1.055376273 -0.1329635289 -1.876156378e-17)
(1.045037392 -0.0991821275 2.598689035e-18)
(1.044446845 -0.06889361822 1.058902116e-18)
(1.028399739 -0.04573690406 2.34935337e-17)
(1.021390167 -0.02066760843 -2.83548939e-17)
(0.9957800878 0.001203294327 -1.055973477e-17)
(1.147844582 -0.8160179567 -5.58120523e-18)
(1.127048446 -0.5754732297 3.276274242e-18)
(1.12796239 -0.4198192067 8.592477209e-19)
(1.10799464 -0.3103814925 7.510269363e-18)
(1.106453091 -0.2338745508 -3.192181294e-18)
(1.089095036 -0.1769885023 -7.465973795e-18)
(1.085487492 -0.1330079585 -2.186195373e-17)
(1.067528198 -0.0992300487 -3.033012877e-18)
(1.060106306 -0.06894948994 -6.915614821e-18)
(1.03883376 -0.0458033086 -2.943526331e-17)
(1.026170826 -0.02074816892 2.198627337e-17)
(0.9956302764 0.001102654924 -5.260263624e-18)
(1.327316129 -0.7752023358 -8.726944004e-18)
(1.253664442 -0.5466783819 4.487223371e-18)
(1.220374887 -0.3988053399 7.507289829e-18)
(1.176355361 -0.2948409808 -8.667052453e-18)
(1.157999706 -0.2221641856 2.083372617e-17)
(1.128136272 -0.1681287531 -5.047463196e-18)
(1.114860963 -0.1263564747 9.836395426e-18)
(1.089473471 -0.09427853129 -1.332682614e-17)
(1.075394375 -0.06552587299 4.430396385e-18)
(1.04903012 -0.04355349523 3.523675754e-17)
(1.030859828 -0.01977014917 -1.086341595e-17)
(0.995518463 0.0009624213325 2.220896856e-17)
(1.493210415 -0.6954772585 -6.09782426e-18)
(1.37070337 -0.4904336304 -9.048861415e-19)
(1.30579951 -0.3577584143 -1.500423051e-17)
(1.239549997 -0.2644820201 -3.119843297e-18)
(1.205654594 -0.1992818042 -3.783300471e-18)
(1.164234586 -0.150808128 2.162370077e-17)
(1.142025858 -0.1133409565 -3.652577718e-18)
(1.109775624 -0.0845731808 -1.506519648e-19)
(1.089546802 -0.05879231814 1.442687249e-17)
(1.058480597 -0.03909714603 1.529730449e-17)
(1.035224622 -0.01777992585 -1.39323911e-17)
(0.9954536844 0.0007937707192 5.488045675e-18)
(1.637210226 -0.580838481 7.755629002e-19)
(1.472296926 -0.4095588164 4.246769596e-19)
(1.379953727 -0.2987351416 -1.3270588e-18)
(1.294409958 -0.2208262895 4.933650353e-18)
(1.247028944 -0.1663729581 -4.992076664e-18)
(1.1955801 -0.1258939901 1.051227973e-17)
(1.165620916 -0.09461161684 7.735043085e-19)
(1.127417135 -0.07059879099 5.543424851e-18)
(1.101855145 -0.04908328272 1.737484798e-18)
(1.066712202 -0.03265498102 -4.775361822e-18)
(1.039047956 -0.0148732404 -1.810516877e-18)
(0.9954408658 0.0006091313443 3.593078093e-18)
(1.752094444 -0.437033206 6.658066274e-18)
(1.553351397 -0.3081070086 1.560834933e-18)
(1.43911964 -0.2246938899 -3.423221313e-18)
(1.338185752 -0.1660604 -3.966190228e-18)
(1.280049317 -0.125086216 -4.235208691e-18)
(1.220602972 -0.09463285603 4.59706869e-18)
(1.184464628 -0.07110558468 -1.013001892e-17)
(1.141515539 -0.05305291972 1.093805305e-17)
(1.111703954 -0.03688311922 5.776639036e-18)
(1.073314291 -0.02454643056 3.172602636e-18)
(1.042139724 -0.01119278863 -1.206977489e-17)
(0.9954826735 0.0004224690761 1.02578131e-17)
(1.832103318 -0.2712705305 3.879436429e-18)
(1.609803007 -0.1911651305 1.179356347e-18)
(1.480331334 -0.1393459389 -1.806456113e-18)
(1.368682613 -0.1029301166 -1.448010397e-18)
(1.303060464 -0.07749013001 -3.552030123e-19)
(1.238048522 -0.05859135751 1.488055628e-18)
(1.197612431 -0.04399925349 -7.102276721e-19)
(1.151363894 -0.03281372767 6.258394641e-18)
(1.11859969 -0.02280051444 6.047350288e-19)
(1.077955856 -0.01517549619 2.764407678e-18)
(1.04434529 -0.006919127144 -4.791601189e-18)
(0.995577367 0.0002471109642 3.684233027e-18)
(1.873223626 -0.09186154646 1.897291786e-18)
(1.638820644 -0.06459478804 6.566407337e-19)
(1.501522106 -0.04696964946 -5.88391863e-19)
(1.384371859 -0.03459835746 -9.894152104e-19)
(1.31490915 -0.02596955828 -5.44158467e-19)
(1.247043086 -0.01957367902 7.255644075e-19)
(1.204406039 -0.01464957195 2.310429156e-19)
(1.156469619 -0.01089261988 3.112884726e-18)
(1.122197529 -0.007538936224 1.99667628e-18)
(1.080405192 -0.005008286975 1.918105992e-18)
(1.045554623 -0.00226348351 -1.815482941e-18)
(0.9957207171 9.648195251e-05 2.617972389e-18)
(1.873394316 0.09219906341 1.429229743e-19)
(1.63895021 0.06525734386 6.131363602e-21)
(1.501630335 0.04780418164 5.487268035e-19)
(1.38446736 0.03550867059 -1.434267874e-18)
(1.315001659 0.02689358701 -6.967286542e-19)
(1.247135742 0.02046433019 3.252510195e-19)
(1.204504807 0.01547372821 -5.713322545e-19)
(1.156576473 0.01161244597 2.968328766e-18)
(1.122316793 0.008138950974 2.546315358e-18)
(1.080538987 0.005447425672 1.87392524e-18)
(1.045706557 0.002544123038 -9.847333638e-19)
(0.9959049031 -1.848124587e-05 3.539377354e-18)
(1.83260484 0.271681919 -1.740444834e-18)
(1.610183752 0.1918819157 -7.517589068e-19)
(1.480649632 0.1402243007 1.174560938e-18)
(1.368963857 0.1038781336 -1.424164826e-18)
(1.303333222 0.07845027435 -1.629272919e-18)
(1.238321959 0.05951805753 8.009659878e-19)
(1.197903957 0.04486234224 -2.823274315e-18)
(1.151679279 0.03357635534 5.932719697e-18)
(1.118951527 0.02344950983 2.967907549e-18)
(1.078350415 0.01567089347 1.093308794e-18)
(1.044793039 0.007265257813 -9.836135812e-19)
(0.9961198563 -8.798349648e-05 7.287691713e-18)
(1.752901702 0.4375884315 -4.032273925e-18)
(1.553965304 0.3089295063 -1.525816463e-18)
(1.43963329 0.2256576994 -7.459573783e-19)
(1.338639793 0.1670818898 2.545082787e-18)
(1.280489447 0.1261166545 -3.205151041e-18)
(1.221044014 0.09562970888 5.122597808e-18)
(1.184934401 0.07204434368 2.552878846e-18)
(1.14202343 0.05389871885 9.220526217e-18)
(1.112269991 0.03762717993 -1.746571194e-18)
(1.073948627 0.02515097639 4.923480372e-18)
(1.042858939 0.01166591577 1.04299681e-18)
(0.996353758 -0.0001059864663 7.018525885e-18)
(1.6382791 0.5815985273 -1.160769493e-19)
(1.47311143 0.4105321095 -2.964410871e-18)
(1.380636271 0.2998209424 -3.29672511e-18)
(1.295014168 0.2219528335 -8.435309986e-19)
(1.247614868 0.1675039244 -5.628617469e-18)
(1.196167389 0.126991144 3.766519143e-18)
(1.166245914 0.09565848454 -1.341828798e-17)
(1.128092333 0.07156332393 2.99607991e-18)
(1.102606512 0.04996295254 2.195130028e-18)
(1.067553291 0.03341516672 6.979039978e-18)
(1.040000125 0.01552728399 3.940881514e-19)
(0.9965931269 -6.847946156e-05 1.551324529e-17)
(1.494486364 0.6964925066 6.891459666e-18)
(1.3716788 0.4915953292 7.390309002e-20)
(1.306618557 0.3589967185 -1.709830509e-18)
(1.240276141 0.2657398824 5.419128236e-19)
(1.206358647 0.2005381697 4.017100033e-18)
(1.164940101 0.1520303155 8.891616918e-18)
(1.142775472 0.1145222685 -9.931575501e-18)
(1.110584454 0.08568529667 -3.030870556e-18)
(1.090445018 0.05984019476 6.255278797e-18)
(1.059484568 0.04005027592 -2.073572852e-17)
(1.036358909 0.01865794633 -6.80941284e-18)
(0.9968249241 2.451864571e-05 6.808448792e-19)
(1.328731292 0.7765071557 -1.640136622e-18)
(1.254750364 0.5480545115 1.743977444e-18)
(1.221289217 0.4002174099 -1.281392817e-17)
(1.177167857 0.296248779 -5.227796345e-19)
(1.158787822 0.223563702 -8.156045639e-18)
(1.128926206 0.1694936473 5.815035874e-18)
(1.115698912 0.1276910013 -1.61536265e-17)
(1.090376358 0.09555861457 -1.49564913e-17)
(1.076394391 0.0667648543 3.135230482e-18)
(1.050145612 0.04472564704 3.227079695e-17)
(1.032116661 0.02090199875 -3.300446348e-17)
(0.9970354998 0.000170595085 2.19983157e-17)
(1.149327768 0.8176324191 -4.963378224e-19)
(1.128192458 0.5770796897 1.843629376e-18)
(1.128929025 0.421418111 -8.272865176e-18)
(1.108855984 0.3119505312 -1.305262695e-17)
(1.107288759 0.235427503 1.985418007e-17)
(1.089932542 0.1785061316 6.046089351e-18)
(1.086373803 0.1345058235 2.079190033e-17)
(1.068481274 0.1006890496 -1.826615379e-19)
(1.061158293 0.07039140135 -5.20401597e-18)
(1.040004129 0.04720790496 -2.780378022e-17)
(1.027484948 0.02214879266 2.485056833e-17)
(0.9972133083 0.0003638938259 2.100994247e-19)
(0.9652693726 0.8178031125 9.665535314e-18)
(0.9983473235 0.5772143484 -2.692468259e-18)
(1.034166294 0.4215343878 4.031440678e-18)
(1.038762392 0.3120580991 -3.728214226e-18)
(1.054441366 0.2355346689 -1.881497805e-18)
(1.049911679 0.1786170867 2.420516376e-18)
(1.056269025 0.1346258161 2.038441009e-17)
(1.04599527 0.1008209723 2.603576271e-18)
(1.045499729 0.07053898187 1.435826739e-18)
(1.029567155 0.0473742519 2.28720056e-17)
(1.022695076 0.02233667635 -2.787505101e-17)
(0.9973475803 0.0005965892588 -4.835134475e-18)
(0.7857881036 0.7770139816 1.520926095e-17)
(0.8717295055 0.548453977 -2.385004844e-18)
(0.9417549837 0.4005632751 -4.355555683e-18)
(0.9704044003 0.2965677256 1.583791193e-17)
(1.002896848 0.2238818613 -2.730564218e-17)
(1.010871807 0.1698219972 -9.137548265e-19)
(1.02689418 0.1280463941 -1.69926532e-17)
(1.024045957 0.0959486006 1.31560201e-17)
(1.030202834 0.067201565 -1.361692532e-17)
(1.019357296 0.04521724022 -5.684832289e-17)
(1.017985761 0.02145777294 2.035585975e-17)
(0.9974304269 0.0008582869256 -3.229630194e-17)
(0.6198815992 0.6973064836 1.23051521e-17)
(0.7546839723 0.492238345 5.472354934e-18)
(0.856325742 0.3595539575 2.915054013e-17)
(0.9072056196 0.2662551723 5.686625816e-18)
(0.9552367855 0.2010523863 1.54220775e-17)
(0.9747668337 0.1525621566 -3.832287767e-17)
(0.9997197375 0.1150977864 1.061682163e-17)
(1.003731169 0.08631744907 -5.973532353e-18)
(1.016033054 0.06054753491 -2.211736278e-17)
(1.009884585 0.04084667758 -1.328452263e-17)
(1.01359218 0.01955731931 2.806750287e-17)
(0.997455812 0.001137797608 -1.628317214e-18)
(0.4758716196 0.5826820816 -5.830055904e-19)
(0.653083479 0.411389896 8.769529235e-19)
(0.7821643544 0.3005664572 -6.113010926e-19)
(0.8523376166 0.2226429792 -8.885026155e-18)
(0.9138523019 0.1681937509 1.726949382e-17)
(0.9434089275 0.1277047646 -1.235096658e-17)
(0.9761087115 0.0964309713 7.134957288e-18)
(0.9860700852 0.07241146141 -1.409713729e-17)
(1.003700138 0.05091164067 6.342652922e-18)
(1.001623381 0.03448240484 2.273749144e-17)
(1.009733004 0.01673174198 8.762713857e-18)
(0.9974210895 0.001422220982 -4.914481829e-18)
(0.3609772022 0.4388837802 -1.602908255e-17)
(0.5720184508 0.3099591012 -1.440651278e-18)
(0.722986421 0.2265554027 8.905195643e-18)
(0.8085473091 0.1679159213 1.751953708e-17)
(0.8808150865 0.1269515484 1.251059585e-17)
(0.9183660076 0.09649538283 -3.14749811e-18)
(0.9572416552 0.0729814609 3.9341661e-17)
(0.9719443928 0.05492829664 -2.684437276e-17)
(0.9938198282 0.03877774333 -7.223912684e-18)
(0.994985083 0.02644478993 -4.789790946e-18)
(1.006600149 0.01312384311 4.308766719e-17)
(0.9973254872 0.00169917533 -2.924052088e-17)
(0.2809620734 0.2731281771 -5.542180483e-18)
(0.5155556739 0.1930371449 9.455589709e-19)
(0.6817609955 0.1412361793 5.246695053e-18)