/*--------------------------------*- C++ -*----------------------------------*\
| =========                 |                                                 |
| \\      /  F ield         | foam-extend: Open Source CFD                    |
|  \\    /   O peration     | Version:  3.0                                   |
|   \\  /    A nd           | Web:         http://www.extend-project.de       |
|    \\/     M anipulation  |                                                 |
\*---------------------------------------------------------------------------*/
FoamFile
{
    version     2.0;
    format      ascii;
    class       volScalarField;
    location    "26";
    object      Theta;
}
// * * * * * * * * * * * * * * * * * * * * * * * * * * * * * * * * * * * * * //

dimensions      [0 2 -2 0 0 0 0];

internalField   nonuniform List<scalar> 
3012
(
-2.56878
1.77156
4.16311
-0.282477
25.1285
8.47467
-19.4357
-3.19929
-2.54247
3.67681
-2.80796
3.60948
1.01355
-0.697866
2.52208
0.852297
-18.4673
-22.6226
16.4465
22.092
1.13462
0.0195662
1.75445
0.900515
3.93014
-2.49356
5.3273
-1.7583
-1.55806
3.90115
-0.10961
2.34126
0.456393
2.85304
-0.878933
1.46622
2.63537
7.88271
-6.09983
-1.45766
0.96561
3.10863
1.16021
-0.972457
0.936544
1.08142
-1.16222
3.15472
0.652006
1.5207
0.277215
1.07493
-4.10625
1.70033
1.38392
6.84043
-4.93668
-13.2981
2.66474
11.1636
-13.3921
11.6472
20.5116
-4.12112
0.957307
-1.71756
4.12332
1.40557
1.95246
1.06849
0.98702
0.0648931
2.28071
1.26842
0.0946561
-0.400902
-0.687206
2.72169
1.81429
0.234278
0.918844
-1.44377
1.12793
3.48535
2.87852
0.823328
1.04069
-0.808645
-0.228427
3.79266
-1.50541
2.54901
2.95179
-1.75024
-0.185923
4.00887
-5.74522
3.92083
-3.29797
6.22524
4.02205
2.05872
0.336844
-1.68724
3.38668
-0.894404
3.069
-1.06292
2.19512
0.848831
-0.315004
1.14755
-1.04545
3.2777
1.17586
1.07243
2.44258
0.0823551
2.34337
0.198081
-0.8331
-0.0724576
0.858401
2.67427
4.72317
-9.31856
7.14834
-6.91618
26.668
-28.3176
3.99179
-4.8246
-2.37993
1.67929
9.59627
4.91856
-14.1795
12.2489
22.4679
-7.51532
9.28843
-2.27568
-5.31066
5.2929
6.91031
8.10383
-4.61245
-2.2814
5.6932
-22.6756
-6.00118
20.4167
0.242787
-0.7444
1.80989
2.8495
2.34081
3.3214
-1.14155
-0.135447
2.54193
-0.410176
1.98583
0.0864056
-3.17048
-5.73067
4.9653
7.54427
0.458595
3.01923
-1.06527
1.46492
9.93121
9.48942
-9.26827
-9.53609
-7.88607
11.1343
14.308
-8.47007
-7.6326
2.41681
7.98406
-1.6689
3.43967
-1.57063
-1.10606
4.11538
-0.180637
2.67465
2.13183
-0.772921
2.29801
-0.194874
2.03418
0.0438455
2.04025
3.0808
-1.02654
0.0738748
0.866309
-0.442202
0.812999
2.09421
1.18292
4.52152
-2.13016
1.35699
1.44391
1.22728
1.12736
0.26221
1.11246
1.71118
-0.00331324
1.04933
3.22239
1.41926
0.492089
-1.1791
0.279839
1.04276
0.879622
0.421663
0.172212
-0.247068
1.39092
1.95482
0.910127
1.71507
1.04577
-0.177245
0.915787
0.0776227
1.22034
0.369424
2.99485
2.40286
-0.465551
-1.12768
2.30302
-0.922254
3.15041
-0.0673442
-0.224744
3.22512
2.49094
-0.794638
1.64593
-1.74024
0.56379
4.00838
-1.88559
4.18901
3.81361
-1.4107
5.85427
1.6205
-1.91932
1.53381
1.11066
1.94066
0.131567
-0.415759
0.744171
0.0907453
0.637809
1.46426
2.16926
-0.470765
-1.07519
2.83633
1.29418
4.15791
1.02464
-1.8329
1.52337
-1.22147
3.24178
0.418593
-5.16543
2.5085
0.349464
8.29017
0.889978
1.50132
0.196137
1.04886
16.7849
-16.103
-19.0398
14.3111
-16.7859
22.6865
4.8676
0.321185
-0.37436
-1.9413
2.73247
4.32158
3.039
-0.707461
-1.67027
4.23051
1.98665
-1.32459
3.4597
-0.0529226
-1.00803
-1.28268
1.53291
0.962556
5.54894
-1.2447
-3.77883
2.56676
3.27622
3.59917
-1.06373
-0.785965
0.543132
1.4025
0.375715
1.35952
-0.00332048
-0.863537
2.1293
3.07465
-4.20204
-0.00704311
2.98478
8.62932
2.46647
0.482213
1.53244
-0.503017
2.08468
-0.0179218
2.05225
-0.0945774
1.24604
0.584937
1.35972
0.212174
-0.195336
3.4967
-1.22535
2.12235
1.0756
3.51182
1.28108
-1.15467
0.790741
1.94351
-0.0955179
0.0585901
0.730424
0.147802
1.9241
1.25233
-0.600455
2.57567
2.72726
-0.399087
0.220868
3.23304
-1.10504
1.89563
-0.0409923
2.64902
-1.71214
1.17429
-2.85132
3.66621
6.00407
-0.210156
2.1194
2.05643
-0.379033
-0.158407
-0.457372
0.375386
1.11305
1.83268
-0.0292388
-1.45826
3.63735
2.07999
4.07038
-1.89491
-1.2029
5.09376
3.234
-1.9414
-2.07453
2.93495
-1.03824
2.37891
-0.263037
3.16323
2.36209
-0.911376
-1.03053
2.31305
0.903197
-1.14519
1.37342
3.35264
-1.60621
-4.91309
9.83465
7.76821
1.64312
-2.92535
1.31112
6.11255
-10.3811
9.05019
-10.9821
8.23366
-0.871857
-0.480369
3.26153
2.77608
1.57162
-0.297171
0.679075
1.83912
-0.267555
2.50555
0.761111
1.0014
-1.36076
-0.0610857
2.30669
3.63959
-2.1311
1.37913
3.92888
0.217885
-2.64434
2.66046
4.63525
-0.491568
0.0257434
-0.129663
1.86038
-0.059515
6.04969
0.570492
-3.72211
1.41223
1.3404
1.2432
1.29146
0.74348
-32.8515
5.68556
-8.83512
30.5959
5.45253
2.32967
0.309805
-2.52519
1.19973
1.12214
0.563372
0.532563
8.56291
8.92616
-5.26062
-3.32533
2.86091
5.25883
-2.25303
-0.344517
1.8276
0.237143
0.202928
1.67291
-1.40731
-2.15467
4.82985
4.10443
0.975385
-1.54579
0.920861
3.63319
-20.8387
10.7021
-11.0714
22.0715
1.83761
2.10525
-0.420128
-0.207601
0.788792
-0.689625
1.085
2.60403
-0.650176
2.51023
1.96564
-1.20742
0.201903
3.42512
-1.12246
1.80524
-21.5587
-18.697
15.8798
19.7714
0.0287067
2.8769
2.36286
-0.654034
5.63236
0.119981
3.05991
-2.76003
-0.314767
2.47567
-0.345994
2.49256
-0.0317017
2.18332
-0.184884
1.96464
2.99158
0.577767
-1.13436
1.45454
23.1354
-21.9574
-5.18005
6.24613
4.152
3.24103
-1.68868
-0.939951
4.46018
0.589674
1.73838
-2.23338
0.234319
2.38277
-2.71179
5.42999
0.968743
-1.0859
3.07985
1.29965
2.51709
2.86759
-0.832342
-0.539705
0.52713
1.83989
-2.1362
4.59471
0.0113912
2.22467
-1.07379
3.1843
0.178728
-1.13705
1.34972
2.69778
1.21553
-0.301636
0.0504179
2.17703
3.61321
2.49462
-0.343878
-1.50389
1.19582
-0.536231
0.398197
2.28251
0.132906
0.936317
1.09153
1.87035
-18.8385
29.1802
-31.5978
16.199
0.689454
1.94313
-2.32583
5.06369
3.8784
2.15748
-1.66097
0.176998
-0.554982
5.59161
-2.25213
4.50075
-15.3616
19.8917
-10.5711
13.8915
3.28814
-16.6623
1.40511
21.8884
-2.03258
2.21049
3.77466
-0.567395
-0.303852
3.34684
2.29684
-1.12522
-3.90041
3.75891
-1.71316
6.04092
1.49154
-0.889158
0.284258
3.05253
0.290191
1.4542
0.562996
1.0766
-3.036
2.37935
4.06593
-1.25759
1.58592
2.84996
-0.835467
0.875671
1.0656
0.94457
0.547727
0.930726
2.79673
0.0395783
1.62193
-1.17271
15.0795
0.945495
5.64083
-8.77213
-2.73934
3.54862
-0.425232
5.5262
-1.52912
-3.49126
4.78025
7.31684
-6.06866
6.95254
-4.17285
11.3801
3.7393
-13.2944
11.0207
-5.10601
10.8599
-2.33679
8.40778
-3.47578
-4.0396
4.43242
5.15572
-4.66638
1.21715
1.22083
0.25279
0.394646
-0.294593
5.04011
-2.37502
2.93088
-24.2104
-4.14291
23.9328
4.59238
-1.55116
3.62229
-0.385103
2.47907
5.46219
-2.66866
3.03031
-0.268526
0.778813
1.27086
0.882221
0.913847
4.20951
2.11495
-1.75279
0.327693
1.52403
0.310435
0.177216
0.502418
-17.0039
-20.7624
17.4161
20.8857
2.05255
3.98923
-1.50118
0.231232
3.45611
-1.02632
-0.728086
3.38726
2.84344
0.61451
1.45927
-0.335918
3.39092
2.77915
-1.08372
-0.686374
1.82577
-1.05482
0.58057
3.51086
0.34972
2.22359
1.73073
-0.31748
-9.46958
12.1871
10.9756
-11.3635
0.561077
4.0825
1.1031
-2.74613
-2.90951
2.62628
5.31882
0.00615567
-2.14363
-3.80338
3.10463
4.87746
2.33123
-6.1891
8.92807
0.349505
-0.530621
-2.72979
4.37316
2.56871
0.523819
3.33827
7.4046
-3.99725
2.12048
-0.0729939
2.42037
-0.290651
2.71805
2.07763
-0.205653
-0.774119
-1.9882
1.20562
6.26656
2.11625
1.93561
-0.375085
-0.570377
2.11066
-2.35169
3.19128
5.65402
-0.294399
2.81523
0.157485
1.64969
-0.842178
4.80007
0.439449
2.22319
-2.24698
3.84377
1.21417
-2.10245
0.773243
0.0348135
2.22628
-2.00625
4.29129
-0.444608
0.61136
2.65299
1.44727
1.48422
1.68436
2.71814
-0.397279
3.8916
-1.01494
-1.42707
3.35741
2.26272
-1.28158
2.69201
-0.735953
0.876824
4.53459
1.51064
-2.08889
-1.33423
3.27886
2.50823
-0.498789
3.15378
-1.23038
1.36576
0.386608
-1.08268
3.04261
3.23605
-0.751295
0.761242
1.57362
3.341
-1.13018
-0.448572
0.170654
2.40909
2.1414
0.993245
1.0914
-12.5828
14.5033
-0.374234
3.13033
2.28415
-1.02559
-4.72675
5.6769
5.81356
-5.14115
3.67805
-9.25471
-2.66916
9.58612
2.77286
0.643891
-0.549019
1.33203
8.05438
1.4612
-1.47871
4.82657
2.74958
0.61423
2.14057
6.54634
-0.333062
9.36792
2.49782
-7.72422
-2.85692
3.43941
5.39514
-0.929668
0.863388
0.453918
0.859162
1.18818
1.13329
0.676974
1.00369
0.51856
-5.62749
0.859456
5.89729
-0.223559
2.49102
1.84525
-0.577623
0.3135
1.70168
-0.289263
0.0119695
2.03776
-2.78278
0.870822
5.63579
8.79398
1.44004
-3.65954
1.54511
6.89939
-1.88846
3.14083
4.59758
-0.570535
-3.5031
6.54353
-0.52619
3.77186
3.14956
2.04368
0.0740981
-0.956553
-0.586385
2.93127
-0.672023
2.99005
1.55603
-3.82507
0.252019
5.75611
2.82929
-0.127496
-0.907047
1.79026
1.02363
-1.19897
3.43864
0.944448
4.48346
-2.21166
0.885601
1.34684
-1.39372
0.851868
0.340784
2.53868
2.83318
-0.711908
-0.620606
2.74185
1.55109
0.623304
3.36262
-1.09733
-0.0152159
-0.966464
2.63126
1.62386
0.407702
1.52538
2.19304
-0.231791
1.31301
-0.53242
1.00724
2.67797
-2.42272
3.94016
-1.79663
4.5379
2.99899
1.13773
0.52234
-1.14968
-1.19965
3.23576
2.67865
-0.586789
2.07529
-0.85811
-0.266263
2.60856
-0.607624
2.77029
0.0168378
1.88672
3.7366
-1.6374
-1.45667
3.85497
3.09781
-2.28493
-0.502162
4.89913
1.87311
-1.15511
0.207452
3.37666
3.21081
2.15396
0.0490879
-1.06259
-0.752018
2.8946
1.27053
0.991227
3.61977
2.12028
-0.0621799
-1.6101
9.88179
1.49023
-4.63383
2.67581
0.298617
-0.262558
-10.1482
10.1055
4.85519
0.653077
1.65624
-2.594
1.109
2.25887
0.626616
-0.493707
0.713858
-0.430367
2.35264
1.083
1.48857
-0.986771
3.19557
0.617902
-4.28955
5.70979
4.08106
-2.64687
3.64383
-5.28976
-10.3063
8.66778
1.14625
2.11016
0.621542
-0.339889
1.12554
-1.24359
1.20712
3.4973
0.34039
2.47279
1.64808
-0.417188
-1.05709
2.14195
3.3736
0.0232659
-0.371945
2.88181
2.25326
-1.10278
-0.226817
2.31205
-0.105714
2.07379
15.6
-8.31325
-5.08836
10.2753
-1.07101
0.217598
3.36401
2.0529
2.70239
-0.211696
-0.454008
2.40627
3.85004
-1.52914
3.27185
-1.21466
3.07888
-0.586481
2.91452
-0.602942
2.66015
1.30001
-0.657723
0.669667
1.12398
3.29803
1.09113
-1.07358
4.2347
-1.74613
0.377559
2.26958
3.33138
-0.984075
2.56136
-0.295905
-0.0557931
1.14985
0.680212
1.88277
1.1425
3.87205
1.21857
-1.54884
3.57465
-1.40987
0.553997
1.57322
3.1001
-0.772798
4.17651
-1.8551
-3.49614
-2.87356
4.3458
4.93835
-0.572945
3.70605
2.81511
-1.46592
-0.142039
2.17829
1.62841
0.278577
-0.200208
2.26268
0.874601
1.16358
-0.728365
3.68616
-1.77532
5.35121
0.435366
2.24899
1.41166
-0.31939
3.01902
-0.779208
2.52836
-0.219956
5.51713
3.3866
-3.21858
-0.994596
4.35416
3.20416
-2.05978
-0.963153
-3.18761
10.7737
-12.2407
1.19707
3.44629
1.62058
0.547117
-1.19376
0.415421
0.821415
0.744382
0.376058
0.428381
0.219021
1.00254
1.34344
0.847662
0.173169
0.562037
0.516339
1.15308
-1.47515
1.10161
3.78593
-0.960462
0.390909
0.665347
2.05808
1.76683
-0.0682881
-0.795484
1.02237
1.55286
0.3873
2.70376
-0.699326
-5.97591
3.26931
6.76245
-2.11819
3.20103
-3.54963
7.82473
-7.72686
1.96965
0.610337
1.13731
-0.133096
5.47992
-0.212158
3.61851
-2.74653
0.239124
1.66173
0.316148
1.34046
0.492605
2.93518
1.67635
-0.835304
0.774966
1.2027
0.607519
0.984822
2.93855
1.36895
0.823276
-0.932535
1.63258
0.551262
0.226338
1.01331
-0.532379
-2.31629
3.17907
5.07956
3.23978
-2.26329
3.663
-1.80869
1.52329
0.733936
0.290685
1.09411
1.35753
5.39572
1.28715
-2.7189
1.891
-0.657685
-0.0298223
2.61489
2.35359
-1.88027
0.487221
5.05348
-1.85084
-0.850498
4.2274
5.80093
-0.496117
2.40897
0.680629
1.4445
2.21487
-0.0186773
2.04155
-0.0795085
4.7866
-0.633281
4.59333
-1.58965
3.02887
4.47867
-4.14289
-5.88717
4.75435
-2.30934
2.72603
-0.329977
2.00024
-0.723462
0.129551
2.68249
3.06626
0.619698
1.70655
-0.856945
2.51921
0.557864
1.4392
-0.611271
2.20229
0.0213654
-0.168528
2.05494
-1.22122
2.10027
3.63167
0.260769
-15.2645
15.1421
13.4798
-14.8968
3.36094
-0.67803
-1.4084
2.87166
2.18276
-2.26967
-0.781537
3.63013
0.491799
0.802315
1.31746
0.836674
-0.60768
1.33263
-1.49282
2.37014
4.34861
-1.35025
-1.72315
4.45019
0.00895717
2.73166
-0.660124
2.01646
5.27176
0.332486
2.26185
-2.57484
0.125445
1.65347
0.216874
1.43384
3.15801
-0.688895
-1.98391
1.97269
1.68888
-0.829975
2.73133
0.241451
-1.71657
4.03132
-0.371311
2.65934
0.160113
1.48404
0.199119
1.29297
-1.28975
4.64908
-1.92665
4.11183
1.63792
0.593642
1.27384
0.309196
0.0656825
2.0255
2.46568
-0.532174
1.19785
1.94318
0.717126
0.00713066
-0.917266
1.11498
0.643215
2.88343
-0.767739
-1.4566
3.82185
3.07177
-0.0631415
-0.0714266
1.45079
1.55366
0.00336928
1.09705
1.6023
0.475623
1.96388
-0.17179
0.340573
0.970777
-1.76999
0.714071
0.131533
2.698
2.52117
5.25416
-2.29512
0.487927
17.5053
-11.1794
11.0691
-6.10076
2.24052
1.01872
-0.326181
0.465921
8.13294
-17.3352
23.5385
-2.6167
-5.64846
-1.09482
9.34445
4.77522
2.94303
-2.56448
-0.184765
5.01594
1.3583
0.363538
-1.01368
2.7753
1.05597
0.991662
-0.473248
2.59982
0.13489
1.42281
2.19315
-0.454396
0.576604
0.430207
1.45876
1.23974
1.56057
0.858914
0.168372
0.895288
1.46741
0.531329
5.01766
-1.94926
1.62444
1.99792
-0.0286774
-0.293568
3.29099
-1.02906
-0.898015
3.39292
7.70092
19.4571
-13.4724
-2.20863
-2.00745
3.67595
3.88479
-2.2453
-20.8059
9.20336
18.9313
-12.6605
4.98943
2.63727
1.78804
7.26838
3.06229
-0.663499
2.75024
-0.79126
0.243285
-2.35869
2.75575
5.17701
1.8173
-1.27634
2.44304
-0.645202
1.69831
-0.770441
2.85527
0.545549
-1.11416
3.45496
0.390079
1.83552
0.181492
1.26762
0.456366
1.18807
-1.44892
4.33071
-1.84484
4.44102
0.0790804
0.517433
1.29447
1.06465
-1.88489
4.02705
-1.45633
4.66877
1.92092
-0.551395
2.52932
0.234225
2.01709
-1.82613
4.2535
0.284101
3.30143
3.70023
-1.08761
-1.44213
-0.403743
0.620059
2.50383
1.40685
0.780334
0.728509
-0.921015
2.46166
4.90886
1.95858
-2.96893
0.23234
3.21172
1.33598
-1.11852
0.714157
2.48501
-2.05883
3.57298
-0.719273
5.65778
-4.28606
0.253172
1.15344
3.48278
0.594445
1.59491
-1.51236
1.53013
-0.427571
-2.19093
3.44576
0.19572
-0.219181
1.83921
2.30601
-20.0283
-3.76933
18.0522
3.05515
2.63941
-0.477966
2.14707
-0.0682051
1.14096
0.564897
1.89522
-0.108843
0.230055
0.0770558
1.5651
1.7015
0.89584
-0.439006
2.60607
1.15407
1.95447
0.326122
2.54171
-0.470721
0.472141
0.650641
1.36585
1.24199
-21.6167
14.9915
-12.2423
21.9894
0.392039
0.360068
1.382
1.11623
1.64443
-0.127489
-0.255779
2.02164
1.50185
0.06506
1.9239
0.690474
0.228997
0.445443
1.30818
0.967125
0.326124
2.00297
1.84056
0.177403
-0.174319
1.44135
2.12796
0.410985
-0.762222
2.36005
3.08846
-0.172507
0.635102
0.265366
0.744429
1.18076
1.07737
0.828789
2.92776
-0.801017
-1.60786
-2.03332
6.25327
6.49552
-0.598607
-0.120936
2.25798
2.70929
1.05472
-2.12802
4.6703
1.08832
-1.27269
0.18323
2.00491
3.33001
0.0107776
1.74484
0.319791
1.06285
-0.929877
3.12507
0.775162
1.57078
1.7386
-0.0997251
0.78993
0.683684
-0.461716
2.97374
-1.13596
2.23037
1.86193
-0.0338263
-1.06161
2.98915
-0.460689
3.44173
-1.0169
2.7645
-2.24934
0.875586
1.59877
4.74423
-6.18696
-24.1843
6.55468
25.5829
0.161978
-0.252686
5.22776
4.7831
3.87246
-1.67882
-0.254701
2.1523
5.26042
2.30383
0.680931
-2.66315
3.19019
3.63031
-0.940648
-1.42941
-1.07415
2.72614
2.45679
5.7106
2.97735
-3.38772
5.10647
-1.40496
0.0580903
2.67983
-2.14097
5.28582
-0.736129
-0.368274
2.74083
0.825292
1.92166
0.681147
1.32481
0.187743
-1.7176
1.42274
-0.417895
2.59489
-2.54478
1.76758
1.00723
5.80076
-0.639674
2.37256
0.835528
0.89225
3.38465
3.01238
-1.27401
-1.04182
-0.840914
3.09247
1.94511
0.365192
2.13128
-4.03534
-0.587818
5.5172
-1.51607
-0.58052
3.53603
2.85214
2.44595
-0.0642849
2.03546
-0.444822
2.25555
-0.656645
2.83838
-0.446129
-0.573604
1.7517
0.666329
2.89708
1.81988
-0.787471
0.210983
2.78524
3.68898
-1.57679
0.533913
1.52875
4.95838
-1.67047
-1.40067
4.80112
-0.275344
-0.335262
2.24478
2.41063
1.64533
-0.630273
2.77317
0.36612
-1.14514
1.81982
3.5593
0.466185
-1.00369
-2.08086
3.37881
4.56733
-1.00914
1.01325
3.24182
1.14619
2.15027
-1.06752
1.63803
-1.39667
-0.655899
-2.29747
4.23539
5.40923
1.86587
0.929819
-2.97651
5.84215
1.2351
-0.234825
2.38284
-0.188932
3.62221
-1.38406
3.53312
-1.74816
-0.19072
1.17149
2.16296
0.740238
4.18822
-2.10448
1.41373
0.494245
3.57091
-1.47144
1.90898
0.530334
-4.91023
-4.40828
6.72415
6.14472
4.36609
-2.13483
1.55914
0.599599
0.43197
-1.93481
3.36381
1.28499
-3.06744
7.76729
-4.5621
6.04267
-0.624849
3.68834
-1.61672
2.31222
2.34316
5.29654
-2.36396
0.386697
-1.72292
4.07236
1.33722
0.784548
-12.082
6.91041
-7.79576
12.5676
2.48877
0.964716
0.957306
-0.440037
-0.249202
1.69007
2.27993
0.383902
0.410781
0.363981
1.4834
1.26677
0.931644
0.926643
1.84386
-0.0200054
3.15849
-1.79889
2.21399
-1.09372
-0.127515
2.216
2.9745
-0.77332
-2.03385
4.09044
2.36038
0.116617
-0.976569
3.07398
2.13027
-0.165474
0.972664
1.93866
-0.181483
0.782747
-0.528048
1.71395
3.46395
-2.19564
2.86415
-0.591696
4.97562
1.92842
2.54323
-0.605584
2.74908
-0.432279
0.158833
3.05805
1.68184
-0.556571
1.54358
0.899786
0.626206
3.48537
-0.814964
1.90156
0.526824
3.07855
2.49342
0.821408
-0.567527
1.51601
-0.113486
2.05686
-0.0207768
2.34288
0.512897
-0.720685
1.57449
2.80612
3.40108
-1.55293
0.631514
1.02201
2.1466
-0.0631782
0.576685
1.35212
-0.430923
-0.776719
2.90724
2.57659
1.98334
0.246503
0.131851
1.85877
4.2306
-2.66936
3.78602
-3.0471
2.24465
3.11986
-0.0129953
-1.0707
5.93658
0.0823422
3.49513
-1.20514
2.22751
-0.42994
-4.97815
6.43572
-2.26371
2.86212
-0.696132
4.65159
-0.716226
2.98491
2.69484
-1.06415
3.68363
1.27484
0.670868
-1.77277
1.29134
3.20565
-1.32064
0.482372
-6.15338
3.57236
-2.21541
7.67655
2.86778
-1.81654
4.85171
-0.357411
5.63946
1.12789
1.60362
-2.76606
-3.91905
1.94107
1.31427
7.13012
1.66097
0.00345715
5.10038
3.25693
0.202831
2.67612
1.41503
-1.05062
1.462
-2.05154
3.79234
0.249591
-0.65581
1.07454
2.8137
1.05124
3.20286
-0.28642
2.57286
-0.953433
-1.3338
1.43621
3.60284
0.757274
0.394064
2.59279
-0.498074
1.82887
0.47157
1.95559
-0.035469
1.84144
-3.95683
9.18284
5.73986
-6.85174
0.543749
1.95847
1.42189
0.0144649
0.477953
0.265215
1.50321
1.72098
0.343897
1.70004
2.61999
-0.546282
-0.13319
2.09265
2.18162
-0.0142049
1.98449
1.89599
-0.158941
-0.202615
1.41443
-0.619062
2.37379
0.356918
-0.335604
2.22453
2.32447
-0.273191
-3.25182
2.775
0.251932
6.36061
5.67225
-1.30745
5.12973
-2.26091
3.65808
-0.644425
1.31752
-2.79104
1.61014
0.177718
-1.4888
3.49192
0.770566
0.275568
1.52539
0.877144
0.553882
1.45266
1.3007
0.405524
2.55286
1.46905
0.116486
-0.921415
-1.27635
5.82259
-2.68649
4.61368
-0.100762
2.17932
3.27289
-1.27175
-0.38639
0.773138
5.65761
-4.64782
2.13722
1.99415
6.46489
-2.40962
-2.87221
2.60073
0.596476
6.23014
-0.868579
1.60884
3.59787
-2.79268
-14.0501
23.7143
11.8517
-26.0374
-0.257566
3.2148
4.84398
6.43633
-0.972364
3.31787
3.44317
-1.17796
0.721894
4.69138
0.317092
-3.33276
-1.16911
3.20265
1.47117
0.396793
3.09419
-3.4626
5.06705
-1.77505
3.93671
-0.942165
-2.2709
2.23381
2.81811
-0.533608
2.29275
-1.15116
3.09264
1.51907
-0.997412
0.562389
2.59396
-0.610978
-0.978611
3.10444
1.25962
-5.58892
5.72655
-1.294
1.3214
-0.371631
0.697048
2.24653
-0.194732
1.72008
-0.419529
1.71821
-0.745574
1.10848
0.316231
2.06009
0.0132553
-0.295737
2.32771
2.51368
-0.04068
1.95861
2.15243
0.0462746
1.68907
2.6128
-0.5531
0.273525
4.75173
-2.42369
1.07439
1.19439
-4.36878
-9.76572
10.1351
4.9303
0.0146078
-1.69513
4.09944
2.3424
0.312915
3.84642
2.30889
-1.61356
-4.48984
5.30935
-4.4954
5.44795
2.08405
1.19934
-0.408741
1.0708
2.18766
-0.116316
0.480258
1.61099
-1.41199
3.42546
-2.16015
2.6729
-0.367468
13.6393
4.25134
-9.08924
-19.0127
6.00669
-4.63812
19.6964
-1.4858
-0.972654
2.66692
3.3125
4.95608
0.376044
2.30746
-1.7097
0.875983
-3.361
6.51583
2.15014
7.90202
-0.0336396
1.13875
-7.04451
3.74493
-4.12674
-3.14091
4.86762
-0.924546
1.97717
2.96966
-0.0465373
0.864197
0.689099
0.146439
1.52865
0.066027
2.49763
1.83788
-0.434577
4.24184
1.49077
0.415384
-2.47
-0.421705
2.61337
-0.219684
2.55483
0.860948
-0.498802
1.29555
2.52832
2.41753
-1.42847
3.46156
-0.463221
3.50244
-1.52641
4.03087
-1.11178
0.248145
2.14144
1.59472
-0.26897
-27.3684
8.64111
-11.0264
25.7866
2.29619
-0.299508
2.28421
-0.246121
0.351404
3.47951
-1.70466
1.49202
2.71205
-0.519064
1.39814
0.777607
6.96914
2.33826
-2.97326
1.74635
0.873101
-0.182592
2.14942
1.12077
1.98049
0.214745
0.0722818
1.57144
1.9553
-0.840537
2.8309
0.00842237
2.74313
-0.822976
2.07876
-0.181296
-9.81802
12.3083
15.4877
-3.93445
-2.34816
4.1185
-0.836085
2.8168
5.24548
-2.10559
3.74452
-1.08984
5.364
0.761419
-3.48994
1.6815
2.21697
-3.78197
-0.684977
5.48001
-6.77223
-24.1292
5.23377
21.2541
-2.14283
2.1059
4.24363
0.349984
-3.5535
-2.73396
4.57666
3.79352
-4.43155
-0.155433
3.01331
8.42444
1.63013
0.307625
1.43934
0.368672
-4.22067
4.14001
-3.82
4.08227
-1.24578
2.65975
2.49943
-0.944767
0.679424
0.258088
1.51357
0.894759
0.402549
-1.84912
4.33827
2.0473
-1.04628
3.89197
3.20275
-1.47624
-2.91029
3.18108
-0.903168
5.00213
2.69866
3.64184
-0.511961
-1.45987
3.09862
3.61411
-0.863027
-1.21765
-0.110846
3.87798
-1.8651
1.96914
1.75081
0.000810489
0.849594
1.10639
0.0799198
-1.48911
3.86544
2.10227
-2.63748
1.29588
1.12372
4.63054
-1.21265
-0.848351
3.50578
3.73908
8.1751
0.088886
3.34985
-3.76292
2.23065
4.04894
-1.81973
0.263779
2.82815
1.77672
0.176042
-0.826311
0.820492
0.914849
3.16922
-1.3155
-0.64747
2.30036
2.91108
-0.174928
-0.611138
2.60419
2.8368
-0.288289
1.34404
24.796
4.93017
-18.2764
3.18812
0.0610373
1.83683
-1.32835
2.75833
-2.86005
5.69642
-0.626456
0.631919
4.12751
1.44471
-1.7552
-0.795792
5.80208
-2.56965
3.75812
0.464271
1.33056
0.510236
1.45063
1.65656
0.141849
1.1155
0.653012
-1.66396
2.05119
-1.6558
2.28937
5.12027
-1.40333
4.65833
-1.28983
4.1016
-1.84977
-0.166691
2.45781
4.8477
1.25225
-3.91558
-0.654371
4.75099
-0.956191
-2.25714
3.27869
2.19542
6.21399
-1.03388
-4.10551
-1.8616
1.96025
3.88365
-0.0361873
6.917
-4.9162
-1.88087
4.13703
0.163839
3.7128
-1.67561
1.6892
2.86965
-1.47987
-4.63171
5.94348
-2.62173
1.02706
5.9837
2.13916
11.2253
-16.0211
-10.3839
17.4708
-0.618334
10.2725
5.48655
-0.724203
2.50526
-0.302595
2.0478
-0.663982
2.75818
1.37975
-0.725811
0.554597
2.04194
4.32934
-3.49063
-1.32432
4.3479
4.7944
-1.13387
-0.829092
-0.279138
3.66318
-2.12776
1.72123
2.35001
5.34571
0.616848
-2.47419
5.87594
-0.143715
1.94481
-3.7148
-4.55671
3.01955
6.30295
-1.30619
3.64077
1.61489
0.553656
-1.72907
0.344806
2.59716
1.80911
-0.457712
-0.313903
1.98223
0.1629
2.48041
5.99383
1.28749
2.19239
-2.47415
15.4907
-22.9767
21.0678
-17.4836
0.818558
-1.12257
3.45489
1.5221
1.74268
0.171371
2.30837
-0.123272
2.64878
1.41134
1.00788
-0.43434
-0.533822
2.76521
2.92514
-0.728478
1.7973
-1.42068
0.392636
3.56664
0.288902
1.42157
-1.25091
3.3067
-0.987073
0.709395
3.15367
1.46308
1.85246
0.554082
0.0503584
1.81425
1.88125
-0.00223756
1.99168
0.0841742
2.49312
-0.036842
-0.360281
2.17031
-1.25589
4.16446
3.44775
-1.80621
3.16321
2.06772
-0.933999
-2.3313
-23.0914
9.00534
-7.64613
24.0739
2.20111
-2.4121
4.52429
0.0450444
0.493933
1.37136
-1.53494
3.63149
0.468208
-1.30806
3.42838
1.74634
1.7242
0.507268
-1.8135
4.06505
-0.522425
1.10969
2.64156
0.551451
-0.985333
3.02761
1.43472
0.556611
3.68015
-1.54691
0.792748
1.53753
1.54706
-0.254844
3.60136
-2.42693
-1.24574
0.424434
1.98307
3.47635
-1.74111
2.872
-0.594082
4.12133
2.72145
-0.672572
3.14529
-0.961969
2.84265
-0.0354057
-0.727562
2.05147
0.502311
2.14056
-2.79255
5.53576
8.22911
1.61865
-5.76155
1.43345
5.86846
-3.00948
4.75302
-3.92085
-2.24883
-1.12398
4.83943
3.81499
-1.57314
3.70404
2.83948
-0.669443
5.18418
13.8898
-9.38411
-1.1865
4.36798
7.33784
-1.78335
-3.5903
-4.20953
5.1507
5.30335
-4.54096
0.00415548
0.0074052
1.99533
1.96568
-0.570974
2.48649
1.50092
0.431599
0.304274
1.83042
4.05423
-1.78214
-2.55694
1.10047
5.16421
1.58379
-2.83056
-0.286389
2.98642
5.5634
-2.49646
2.58865
4.36347
-0.883437
2.17391
3.93548
-0.078619
-1.83865
4.63575
1.15406
1.23378
-2.27034
2.82114
-2.47188
2.47574
7.80902
-1.01318
0.771148
3.01343
1.20018
2.06992
2.34736
-0.344566
0.0847232
-0.787674
2.80275
1.26345
0.543668
3.88049
-2.25273
-2.76516
3.17667
-1.447
-0.244385
1.94514
3.303
2.11732
-0.27773
-0.397759
2.067
0.417578
2.22878
-0.301923
1.62817
5.16008
1.06799
1.99684
-2.25079
2.04126
0.835335
-0.106221
1.04999
-0.406455
1.69696
2.4086
0.186075
-19.1181
-17.8969
14.7275
17.5725
0.870122
-0.363307
2.10682
0.834281
-1.70962
0.453959
1.73328
4.13758
-1.32932
2.97593
-0.751696
3.44064
-1.52775
3.06728
4.30146
-0.604138
4.54678
-2.68864
-2.70515
4.70789
5.91303
-0.601246
-2.37274
3.49261
5.94844
0.604285
2.42121
-2.31497
3.05619
-1.1652
3.57322
-0.705153
0.491969
1.37923
2.72545
-0.736587
1.46111
-0.428107
0.52228
2.46527
1.72188
2.42415
-0.282206
-0.413195
1.67766
0.293956
0.0613716
1.45701
2.10883
-4.40296
-0.474095
6.74973
0.251756
0.708273
1.03283
1.43688
1.25316
0.639544
0.0181751
0.627587
4.40303
-1.58171
-2.40274
5.26289
0.226316
0.994539
1.13241
0.304784
6.12384
0.194959
2.62965
-3.24448
-27.2534
1.59517
24.3242
-4.10723
-0.11081
2.3855
2.05524
-0.418165
4.57353
3.47749
-1.94084
-0.333017
2.51861
-0.520844
0.127083
1.86909
2.98653
0.443844
1.38386
-1.03418
0.899351
3.28015
0.702901
-1.54882
4.77413
0.117115
-2.31054
2.33362
7.7623
1.80351
0.640172
-4.25489
4.00548
-1.51149
3.68216
-1.38874
2.90957
-4.0029
-0.755295
5.89485
2.49289
1.27704
-0.441201
0.903492
2.64276
0.165759
-1.10986
1.37238
1.07339
-1.85619
3.31786
0.560632
-2.58702
3.49577
3.5106
-2.04308
4.29819
-0.993566
3.40427
-1.7498
-1.86354
4.18318
1.8925
0.288509
4.26126
-2.08991
1.53242
0.639891
0.847871
2.08209
-0.483278
0.841354
5.02967
3.63978
-0.770103
-1.69936
-1.90007
0.465541
1.72425
4.20043
3.67456
-1.31004
-0.764563
2.94577
-0.189802
-3.73253
6.62574
2.44929
0.618282
1.31532
2.67738
-0.70994
-3.09531
5.12086
3.73214
-4.35993
0.493235
0.778264
1.26358
0.677115
-0.0106645
1.27858
1.83209
0.54524
0.0137934
2.32053
-2.28867
4.55413
0.771827
1.08857
-0.776745
2.67351
-6.93418
4.1135
9.19252
-0.585766
6.73265
-4.93788
8.61679
-2.50362
2.89133
4.7955
-0.350387
-2.32935
6.12895
-0.190938
1.33649
-4.36461
8.97608
-5.09131
2.25555
1.15679
2.65068
2.57301
-1.51605
-0.893845
-2.15108
6.89383
3.72013
-5.45371
4.13013
-3.11043
-0.73168
7.03903
-1.16772
-1.44739
3.53723
3.8575
4.26829
-1.81127
-1.26643
3.74498
3.25716
-1.93327
-1.25779
3.8345
0.938544
0.576598
1.49044
-0.06113
1.5795
0.956955
0.621668
0.0581948
0.00781828
2.13341
-1.40804
3.73423
-0.862667
3.08261
-0.755973
2.96099
-3.90335
-3.22156
4.90972
4.42845
2.19843
0.0137469
-0.392665
1.65747
2.70442
0.524171
1.6415
-0.638686
2.20212
-0.339689
1.62373
0.257481
2.16842
-0.293272
2.42822
-0.576505
3.55529
-1.2291
3.08441
-1.61282
5.68885
-1.35264
4.74155
-2.90744
-5.67937
7.50545
-4.43909
5.25536
0.387244
1.88728
-2.67246
5.1342
)
;

boundaryField
{
    insideCircle
    {
        type            myTemperature;
        value           nonuniform List<scalar> 
24
(
4.98943
2.24269
1.21998
7.52567
-2.68193
-0.852453
6.92162
5.43336
0.374022
-0.618259
5.33513
4.77845
-1.13322
2.25984
3.07312
6.07778
3.2006
0.0628535
5.61864
1.97867
1.64776
-0.0865961
5.22207
3.38048
)
;
    }
    outsideCircle
    {
        type            myTemperature;
        value           nonuniform List<scalar> 
124
(
2.44256
0.326253
1.68973
-0.303248
0.70958
1.54814
2.16683
1.69599
1.28771
0.242287
0.435744
2.43649
-0.105258
1.90566
1.17251
1.20047
2.33117
1.02449
1.34919
-0.772376
-0.463707
0.687606
2.51872
1.5193
1.1057
-0.394717
2.58056
-0.686411
-0.122408
-0.253463
2.44867
1.77184
2.47331
0.793739
-0.433043
1.39081
0.961234
-0.0174179
2.28699
1.02098
-0.467498
1.05693
2.50505
1.07866
0.225482
-0.374069
1.89878
2.6176
0.882047
-0.698575
2.75572
1.21478
1.91379
0.100067
2.2713
-0.16205
0.50062
2.02109
2.00069
-0.261156
-1.75736
-1.45655
4.15464
0.379924
2.64675
0.57289
-0.240539
1.41004
-0.417429
2.18335
-0.0207867
2.55607
2.29484
-0.253177
0.616439
1.57651
1.87912
-0.0449746
0.0643826
1.92068
-0.737533
0.839269
2.85143
1.33195
-0.0095888
2.57134
-0.402794
2.14157
-0.0841619
-0.167773
1.90438
2.32915
1.91811
2.59027
-0.308918
0.416171
2.44327
0.715016
0.0354305
1.01747
2.05958
-0.0880099
0.559208
1.44784
2.41633
-0.486123
1.33595
0.728805
0.171628
2.51771
1.91548
-0.33743
-0.266349
2.07576
-0.017774
2.47172
2.2333
0.150082
2.40183
-0.412733
2.63137
1.10633
0.60554
-0.623422
)
;
    }
    topAndBottom
    {
        type            empty;
    }
}


// ************************************************************************* //
