/*--------------------------------*- C++ -*----------------------------------*\
| =========                 |                                                 |
| \\      /  F ield         | OpenFOAM: The Open Source CFD Toolbox           |
|  \\    /   O peration     | Version:  2.2.0                                 |
|   \\  /    A nd           | Web:      www.OpenFOAM.org                      |
|    \\/     M anipulation  |                                                 |
\*---------------------------------------------------------------------------*/
FoamFile
{
    version     2.0;
    format      ascii;
    class       volScalarField;
    location    "12";
    object      Theta;
}
// * * * * * * * * * * * * * * * * * * * * * * * * * * * * * * * * * * * * * //

dimensions      [0 2 -2 0 0 0 0];

internalField   nonuniform List<scalar> 
7920
(
2.71863
2.9805
3.0959
3.34753
3.4795
3.919
3.71003
5.05605
2.72413
2.92096
3.04817
3.24484
3.39724
3.66923
3.69601
4.28187
2.72552
2.86279
3.00898
3.17102
3.33416
3.5402
3.65407
3.99782
2.68065
2.80128
2.93483
3.07632
3.22832
3.38757
3.53154
3.71681
2.64696
2.75252
2.88129
3.0132
3.15949
3.30076
3.45574
3.57938
2.5872
2.72138
2.83008
2.9649
3.10497
3.23979
3.39803
3.49649
2.62489
2.71499
2.84673
2.9702
3.11398
3.24643
3.40397
3.50136
2.56732
2.77729
2.84426
3.01107
3.1429
3.29238
3.4466
3.57301
2.65913
2.80973
2.92625
3.07766
3.22608
3.38738
3.53141
3.71638
2.70162
2.86946
2.99726
3.16943
3.32815
3.53613
3.65035
3.99329
2.71996
2.92183
3.04603
3.24396
3.39595
3.66762
3.69575
4.27911
2.7394
2.97473
3.10456
3.34782
3.48266
3.92005
3.711
5.05678
2.34535
2.3374
2.39433
2.4305
2.4656
2.55562
2.52285
2.79609
2.33479
2.34042
2.38815
2.41892
2.4635
2.506
2.56248
2.60118
2.36034
2.33978
2.3932
2.4104
2.45002
2.4707
2.52018
2.5069
2.31696
2.36908
2.37257
2.41167
2.43677
2.45495
2.50736
2.47421
2.39647
2.35336
2.41001
2.41088
2.44498
2.44896
2.49289
2.44944
2.40425
2.36227
2.41334
2.4135
2.44342
2.44595
2.4857
2.44335
2.39751
2.36445
2.41129
2.41408
2.44348
2.4467
2.48649
2.44449
2.37954
2.35848
2.40179
2.41026
2.44094
2.44672
2.49032
2.44749
2.3588
2.35096
2.39277
2.40942
2.44457
2.45773
2.51083
2.47737
2.33855
2.34424
2.38352
2.40773
2.4447
2.46707
2.51606
2.5045
2.32554
2.34443
2.38459
2.42017
2.46289
2.50684
2.5626
2.60255
2.31725
2.34495
2.38131
2.42871
2.45917
2.55156
2.51899
2.79145
2.22043
2.18554
2.24072
2.25041
2.28909
2.32526
2.36445
2.42704
2.22389
2.18706
2.23993
2.2455
2.28581
2.30222
2.3727
2.34095
2.22706
2.18816
2.23661
2.23766
2.27092
2.28036
2.33182
2.2997
2.23233
2.19503
2.23921
2.2396
2.26945
2.2786
2.32585
2.30295
2.23886
2.20325
2.24205
2.24131
2.26637
2.27407
2.31182
2.29502
2.24071
2.20976
2.24379
2.24368
2.26618
2.27436
2.30845
2.29809
2.23725
2.21217
2.24246
2.24484
2.26632
2.27513
2.30899
2.29885
2.21758
2.2107
2.2321
2.24126
2.26207
2.27211
2.30943
2.29352
2.23734
2.19342
2.24157
2.23949
2.27038
2.27897
2.32615
2.30354
2.21938
2.18954
2.23284
2.23647
2.26851
2.27866
2.32971
2.2985
2.20947
2.19153
2.23381
2.24538
2.28339
2.30135
2.37142
2.34075
2.19903
2.19263
2.23091
2.2502
2.28478
2.32305
2.36207
2.42425
2.11727
2.09016
2.11642
2.11521
2.13094
2.1387
2.162
2.16296
2.11722
2.0915
2.11567
2.1136
2.12959
2.12978
2.16535
2.12799
2.11622
2.0945
2.11333
2.11135
2.12247
2.12092
2.14319
2.11239
2.11148
2.09959
2.1124
2.11291
2.12193
2.1222
2.14128
2.12093
2.1467
2.09263
2.12924
2.11395
2.12736
2.12371
2.13795
2.12212
2.15653
2.09464
2.13384
2.11655
2.12936
2.12572
2.13793
2.12598
2.14823
2.09631
2.13066
2.11618
2.12828
2.12534
2.13765
2.12601
2.14241
2.09527
2.12685
2.11479
2.12647
2.12368
2.13756
2.12189
2.13024
2.0934
2.12078
2.11284
2.12521
2.12359
2.14269
2.12224
2.12118
2.09186
2.11547
2.11057
2.12283
2.12085
2.14272
2.11299
2.11044
2.09409
2.11284
2.11393
2.12858
2.12981
2.16452
2.12885
2.10365
2.09416
2.1103
2.11484
2.12817
2.13742
2.16019
2.162
2.0823
2.03864
2.07024
2.05989
2.07251
2.07484
2.08739
2.08857
2.08298
2.03944
2.06994
2.05894
2.07141
2.06984
2.08784
2.06975
2.08662
2.03969
2.07085
2.05828
2.06929
2.06662
2.07863
2.06403
2.08713
2.042
2.07143
2.05943
2.06946
2.06739
2.07779
2.06779
2.08682
2.04507
2.07159
2.06055
2.0691
2.0673
2.07517
2.0681
2.08548
2.04783
2.0713
2.06178
2.06921
2.06804
2.07486
2.07009
2.07818
2.05083
2.06819
2.06225
2.06822
2.06786
2.07452
2.06994
2.07016
2.05026
2.06448
2.06071
2.06659
2.06655
2.07435
2.06771
2.08798
2.04484
2.07088
2.06107
2.06951
2.0678
2.07793
2.06755
2.10448
2.03295
2.07882
2.05795
2.07233
2.06792
2.08007
2.06537
2.08162
2.03909
2.06948
2.05835
2.07096
2.06951
2.08716
2.06994
2.08255
2.04033
2.07024
2.06111
2.07292
2.07574
2.08765
2.08974
2.0468
2.01618
2.0365
2.02875
2.03552
2.03653
2.0411
2.04436
2.04945
2.01636
2.03697
2.02845
2.03498
2.03399
2.04073
2.03444
2.04678
2.01816
2.03605
2.02895
2.03438
2.03345
2.03801
2.03307
2.04277
2.02042
2.03439
2.02927
2.03358
2.03316
2.03704
2.03384
2.07107
2.01223
2.04747
2.02957
2.03881
2.0352
2.03867
2.03548
2.07846
2.01035
2.05069
2.02984
2.0399
2.03569
2.0389
2.03594
2.07203
2.01224
2.04821
2.02981
2.03915
2.03546
2.03873
2.03593
2.07034
2.01284
2.04694
2.02997
2.03863
2.03533
2.03865
2.03536
2.06319
2.01407
2.04347
2.02954
2.0373
2.03492
2.03881
2.03532
2.05465
2.0152
2.03919
2.02852
2.03516
2.03369
2.0378
2.03376
2.04905
2.01848
2.03668
2.03007
2.03545
2.03543
2.04086
2.03681
2.02434
2.02452
2.02603
2.0291
2.0312
2.03474
2.03875
2.04266
2.033
2.00387
2.02212
2.01388
2.01886
2.01936
2.01949
2.02596
2.04422
2.00042
2.02664
2.01359
2.02009
2.01848
2.01966
2.02038
2.04535
2.00018
2.02757
2.01382
2.02086
2.01877
2.02041
2.02033
2.05036
1.99965
2.02957
2.01432
2.02162
2.01882
2.0205
2.0194
2.05203
2.00033
2.03045
2.01512
2.02234
2.01941
2.02111
2.0197
2.04849
2.00078
2.02867
2.01436
2.02108
2.01834
2.02006
2.01874
2.05175
2.00208
2.03036
2.01653
2.02291
2.02033
2.02181
2.02019
2.01872
2.01204
2.01545
2.01573
2.01668
2.01732
2.01891
2.01786
2.06611
1.99575
2.03688
2.01533
2.0253
2.02068
2.02301
2.02004
2.07928
1.99009
2.0422
2.01477
2.02703
2.02184
2.02396
2.02273
2.06585
1.9935
2.03619
2.01369
2.02391
2.02022
2.02123
2.0219
2.06233
1.99534
2.03528
2.01542
2.02487
2.02355
2.02252
2.03188
2.02375
1.99837
2.01407
2.00657
2.01041
2.01073
2.00938
2.0162
2.0324
1.99712
2.01736
2.00691
2.01131
2.01019
2.00907
2.01238
2.03286
1.99454
2.01854
2.00648
2.01258
2.01117
2.01146
2.01389
2.03346
2.0025
2.0171
2.01091
2.01289
2.0123
2.01174
2.01265
2.04273
1.9948
2.0227
2.00825
2.01489
2.01225
2.01294
2.01311
2.06147
1.98799
2.03092
2.00808
2.01795
2.01329
2.01425
2.01319
2.05703
1.98979
2.02942
2.00825
2.01773
2.01335
2.01443
2.01339
2.05731
1.98793
2.02907
2.00713
2.01687
2.01257
2.01355
2.01303
2.07113
1.98938
2.03532
2.01143
2.02126
2.01684
2.01643
2.01722
2.03643
1.99063
2.0193
2.00355
2.01081
2.00901
2.00859
2.01264
2.09833
1.98081
2.04633
2.01234
2.02484
2.02067
2.01547
2.02551
1.94041
2.03061
1.97437
2.00828
1.99363
2.00394
1.99961
2.0099
2.02632
1.99144
2.01366
2.00125
2.00703
2.0052
2.00492
2.00762
2.01047
1.99438
2.00671
1.99929
2.00328
2.00188
2.00211
2.00242
2.01775
1.99472
2.01001
2.00132
2.00574
2.00404
2.00462
2.00495
2.01181
1.9946
2.00712
1.99971
2.00368
2.00205
2.0028
2.00258
2.01516
1.99557
2.0086
2.00115
2.00494
2.00327
2.00399
2.00362
2.00965
1.99629
2.00605
2.00019
2.00335
2.00201
2.00273
2.00249
2.01437
1.99465
2.00824
2.0007
2.00458
2.00306
2.00372
2.0035
2.0052
2.00123
2.00307
2.00226
2.00256
2.00254
2.00257
2.0028
2.01306
1.99636
2.00753
2.00124
2.00442
2.00324
2.00351
2.00385
2.00654
1.99848
2.00444
2.00107
2.00297
2.00265
2.00261
2.00382
2.00693
1.99898
2.00447
2.00153
2.00303
2.00297
2.00239
2.00405
2.00507
1.99982
2.0036
2.00176
2.00281
2.00324
2.00245
2.00533
2.01165
1.99467
2.00633
1.99958
2.00288
2.00202
2.00135
2.00389
2.01137
1.99464
2.00586
1.99914
2.00222
2.001
2.00061
2.00167
2.0094
1.99518
2.00547
1.99962
2.00278
2.00177
2.00199
2.00272
2.00628
1.99796
2.00304
2.00015
2.00141
2.00087
2.00084
2.00114
2.02202
1.99097
2.01086
1.99953
2.00479
2.00229
2.00287
2.00246
2.0052
1.99525
2.00362
1.99824
2.00137
2.00007
2.00077
2.0007
2.0122
1.99529
2.00653
1.99993
2.00321
2.00164
2.00206
2.00181
2.00731
1.99565
2.00424
1.99906
2.00184
2.00072
2.00116
2.00128
2.00692
1.99656
2.00403
1.99959
2.00192
2.001
2.00118
2.00139
2.00672
1.9968
2.00376
1.99972
2.00179
2.0011
2.00124
2.00169
2.00452
1.99775
2.00281
1.9999
2.00142
2.001
2.00079
2.00128
2.00527
1.99774
2.00268
1.99984
2.00123
2.00071
2.00119
2.00088
2.00996
1.997
2.00388
2.00021
2.00127
2.00109
1.99979
2.00203
2.0118
1.99141
2.00608
1.9972
2.0015
1.99991
1.99949
2.00075
2.0068
1.99477
2.00374
1.99806
2.00104
1.99985
2.00003
2.00064
2.00963
1.99403
2.00484
1.99828
2.00155
2.00003
2.00029
2.00036
2.00531
1.99468
2.00294
1.99774
2.0006
1.99938
1.99989
1.99993
2.00709
1.99504
2.00354
1.99834
2.00099
1.99974
2.00012
2.00001
2.0024
1.99642
2.00158
1.99835
2.00031
1.99956
1.99991
2.00002
2.00284
1.99635
2.00148
1.99824
2.00001
1.99931
1.99956
1.99977
2.01588
1.99171
2.00764
1.99815
2.00261
2.00049
2.00072
2.00091
2.00055
1.99702
2.00053
1.99818
1.99958
1.99934
1.99912
2.00038
2.00642
1.9963
2.00305
1.99908
2.0008
2.00029
1.99946
2.00088
2.00253
1.99714
2.00121
1.99873
1.99987
1.99985
1.99894
2.00096
2.0025
1.99392
1.99987
1.99574
1.99718
1.99641
1.99487
1.9967
2.00215
1.99367
1.99951
1.9954
1.99676
1.99596
1.99443
1.99627
1.99823
1.99513
1.99826
1.99589
1.997
1.99657
1.99576
1.99722
1.99872
1.99398
1.99816
1.99496
1.99639
1.9956
1.99505
1.99595
2.01634
1.9881
2.00634
1.99526
2.0001
1.99739
1.99738
1.99723
1.99743
1.99382
1.99776
1.99452
1.99626
1.99524
1.99526
1.9954
2.00724
1.99252
2.00206
1.99606
1.99864
1.99702
1.99683
1.99666
2.00142
1.9931
1.99944
1.99507
1.9971
1.99597
1.99577
1.99615
2.00179
1.99386
1.99961
1.99563
1.9973
1.99632
1.9957
1.99641
2.00147
1.99418
1.99939
1.99584
1.99723
1.99659
1.99568
1.99725
1.99827
1.99545
1.99775
1.99569
1.99615
1.99585
1.99415
1.99617
1.99936
1.99493
1.9984
1.99578
1.99657
1.99618
1.99463
1.99635
2.00649
1.98856
2.0001
1.99301
1.99573
1.99458
1.99269
1.99577
1.99546
1.99142
1.99502
1.99218
1.99316
1.993
1.99069
1.99466
2.00241
1.99025
1.99837
1.99349
1.99566
1.99514
1.99407
1.99731
1.99817
1.99004
1.99634
1.99229
1.9943
1.99368
1.99306
1.99502
1.99808
1.99014
1.99635
1.99251
1.99462
1.99401
1.99388
1.99531
1.99785
1.98989
1.99604
1.99229
1.99435
1.99369
1.99369
1.99469
1.99396
1.99133
1.99455
1.9925
1.99399
1.99371
1.99369
1.99478
1.99561
1.99037
1.99522
1.99208
1.99396
1.99351
1.99345
1.9949
2.01127
1.98572
2.00232
1.99246
1.99685
1.99491
1.99435
1.99606
1.99777
1.98991
1.99652
1.99215
1.99441
1.99409
1.99308
1.99681
2.00386
1.98953
1.99882
1.99295
1.99498
1.99435
1.99153
1.99616
1.99966
1.9903
1.99702
1.99258
1.9942
1.99386
1.99153
1.99553
1.97572
1.96304
1.96382
1.95466
1.94938
1.94214
1.93096
1.92633
1.97583
1.96216
1.96374
1.95463
1.94908
1.94416
1.92861
1.9363
1.97228
1.96283
1.96332
1.95605
1.95169
1.94788
1.93672
1.94308
1.97149
1.96061
1.96248
1.95453
1.95091
1.94648
1.93648
1.93967
1.98228
1.95586
1.96715
1.95451
1.95357
1.94799
1.94005
1.94093
1.97192
1.95667
1.96242
1.95287
1.95124
1.94613
1.93905
1.93864
1.97676
1.95632
1.96453
1.95377
1.95246
1.94705
1.93985
1.93923
1.97529
1.95742
1.96419
1.95396
1.95223
1.94718
1.93933
1.94038
1.97599
1.95916
1.96465
1.95455
1.95187
1.94687
1.93698
1.93989
1.97777
1.9606
1.96575
1.95572
1.9525
1.94808
1.93698
1.94333
1.97409
1.96241
1.96319
1.95443
1.94887
1.94405
1.92843
1.93629
1.97349
1.96322
1.96299
1.95434
1.94898
1.94189
1.9308
1.92602
1.98128
1.96751
1.97027
1.96211
1.95848
1.95303
1.94425
1.94205
1.97931
1.96678
1.96945
1.96163
1.95775
1.95443
1.94158
1.95037
1.98113
1.96612
1.97124
1.96321
1.96112
1.95839
1.94969
1.9571
1.97976
1.96451
1.97036
1.96209
1.96058
1.95729
1.94968
1.95389
1.97819
1.96333
1.9697
1.96168
1.96096
1.95771
1.95199
1.9545
1.97806
1.96206
1.96931
1.96101
1.96065
1.95714
1.95209
1.95312
1.97508
1.96302
1.96824
1.96117
1.96045
1.95721
1.95218
1.95322
1.97156
1.96492
1.9668
1.96138
1.95974
1.95707
1.9515
1.95396
1.99
1.96112
1.97501
1.96216
1.96256
1.95808
1.95075
1.95427
1.98617
1.96268
1.97391
1.96207
1.96197
1.9583
1.95006
1.9573
1.98876
1.96316
1.97398
1.96132
1.95956
1.95509
1.94227
1.95097
1.9875
1.9638
1.97361
1.9612
1.95968
1.95352
1.9445
1.94344
2.74832
3.04507
3.1573
3.43092
3.57303
4.0256
3.83438
5.17084
2.74138
3.0148
3.12299
3.35747
3.52488
3.81172
3.88666
4.43559
2.73115
2.9866
3.08962
3.30057
3.46852
3.68608
3.82848
4.12736
2.73392
2.95348
3.05969
3.24449
3.40468
3.57679
3.74238
3.8989
2.70309
2.9418
3.02529
3.20909
3.35634
3.51141
3.67427
3.77829
2.70374
2.92981
3.01261
3.18895
3.33026
3.47594
3.63401
3.71752
2.70172
2.92484
3.0089
3.18299
3.32427
3.46822
3.62704
3.70639
2.7068
2.92892
3.01711
3.19308
3.33856
3.4864
3.64925
3.73557
2.71078
2.93985
3.03438
3.21838
3.37333
3.53702
3.70883
3.8352
2.72375
2.9564
3.06057
3.25596
3.41776
3.61247
3.76075
3.98833
2.72317
2.97676
3.08765
3.30643
3.47461
3.73607
3.84889
4.29721
2.74421
2.98534
3.10942
3.34958
3.48672
3.89004
3.73175
4.88674
2.26394
2.31888
2.34005
2.39564
2.42064
2.52171
2.47199
2.79095
2.25804
2.30998
2.3285
2.3743
2.40543
2.46064
2.48022
2.58261
2.25683
2.30096
2.32043
2.35998
2.39141
2.43035
2.46161
2.51123
2.25026
2.29265
2.3103
2.34595
2.37651
2.40381
2.44644
2.45309
2.24933
2.28711
2.30482
2.33726
2.36644
2.38682
2.43126
2.4145
2.24671
2.28455
2.30156
2.33295
2.36153
2.37935
2.42495
2.39921
2.25205
2.28624
2.30505
2.33578
2.36452
2.38258
2.42701
2.40321
2.24571
2.29474
2.30745
2.34403
2.37284
2.39673
2.4395
2.43305
2.26992
2.29775
2.32514
2.35645
2.3888
2.41855
2.45347
2.47686
2.26679
2.31692
2.33659
2.3809
2.41374
2.4643
2.48748
2.58112
2.28514
2.32589
2.35086
2.39507
2.42308
2.48859
2.47599
2.63845
2.29117
2.34566
2.37276
2.43362
2.46008
2.58526
2.50864
2.93787
2.14761
2.18244
2.19924
2.23336
2.26315
2.31309
2.33968
2.4482
2.14516
2.17621
2.19115
2.21973
2.24832
2.27997
2.32237
2.35011
2.14332
2.1715
2.18572
2.21196
2.2386
2.26664
2.30525
2.32942
2.13813
2.16745
2.17919
2.20421
2.22921
2.25401
2.29371
2.30946
2.14412
2.16212
2.17914
2.19961
2.22478
2.24664
2.28544
2.29546
2.13977
2.16264
2.17602
2.19776
2.22167
2.2431
2.28166
2.29002
2.14535
2.16289
2.17905
2.1993
2.22351
2.24489
2.28218
2.29243
2.14613
2.16672
2.18247
2.20426
2.22905
2.25312
2.28925
2.30856
2.15131
2.17169
2.18804
2.21049
2.23511
2.26187
2.29314
2.32461
2.15769
2.18025
2.19904
2.22518
2.25258
2.28851
2.3176
2.37977
2.16014
2.18664
2.20292
2.23008
2.2541
2.29276
2.30564
2.38419
2.16822
2.1988
2.22045
2.25585
2.28558
2.35086
2.35512
2.54598
2.06934
2.08681
2.08771
2.10059
2.11
2.12434
2.14016
2.16497
2.07393
2.08185
2.08644
2.09424
2.10343
2.10993
2.12899
2.12274
2.07114
2.08004
2.08318
2.09066
2.09844
2.10459
2.11934
2.11742
2.07112
2.07822
2.08166
2.0882
2.09546
2.1009
2.11497
2.11291
2.07088
2.07714
2.0806
2.0866
2.09347
2.09838
2.11149
2.10899
2.0717
2.07707
2.0809
2.08661
2.09346
2.09831
2.11114
2.10908
2.07156
2.07823
2.08152
2.08764
2.0944
2.09965
2.1118
2.11147
2.07526
2.07986
2.0847
2.09064
2.09799
2.10438
2.11596
2.12028
2.08191
2.0805
2.08954
2.09351
2.10177
2.10873
2.11801
2.12752
2.07814
2.08745
2.09209
2.101
2.10967
2.12156
2.13091
2.15446
2.08654
2.08924
2.09678
2.10352
2.11113
2.12232
2.12434
2.15058
2.08736
2.09643
2.10515
2.11724
2.12891
2.15269
2.15676
2.23209
2.03541
2.0435
2.04505
2.05122
2.05691
2.0636
2.07444
2.08272
2.03528
2.04214
2.04335
2.04826
2.05317
2.05662
2.06805
2.06296
2.03529
2.0409
2.04235
2.04663
2.05095
2.05438
2.0631
2.06149
2.03543
2.04022
2.0417
2.04563
2.04962
2.05293
2.06096
2.06027
2.03445
2.04015
2.04089
2.04505
2.04866
2.05197
2.05934
2.05908
2.03637
2.03961
2.0418
2.04513
2.04904
2.05223
2.05941
2.05967
2.03739
2.04002
2.04257
2.04574
2.04973
2.05304
2.05988
2.06105
2.03828
2.04102
2.04385
2.04719
2.05143
2.05527
2.06191
2.06514
2.0401
2.04228
2.04549
2.04878
2.05309
2.05725
2.06305
2.06824
2.04223
2.04434
2.04846
2.05234
2.05756
2.06328
2.06961
2.07993
2.04296
2.04612
2.04976
2.05371
2.0585
2.06375
2.0678
2.0777
2.04625
2.04882
2.05496
2.06026
2.06763
2.0779
2.08461
2.11437
2.00973
2.02276
2.01768
2.0235
2.02468
2.02801
2.03326
2.03568
2.01765
2.01971
2.02042
2.0225
2.02448
2.02582
2.03102
2.02781
2.01383
2.01962
2.01829
2.02109
2.02246
2.02399
2.0279
2.02641
2.01577
2.0192
2.01891
2.02106
2.02246
2.02388
2.02736
2.02656
2.01582
2.01881
2.01874
2.02065
2.02204
2.02338
2.02655
2.02606
2.01641
2.01877
2.01909
2.02078
2.02227
2.02361
2.02669
2.02653
2.01735
2.01887
2.01969
2.02114
2.02276
2.02412
2.02708
2.02735
2.01803
2.01918
2.02038
2.02173
2.02353
2.02504
2.02797
2.029
2.01936
2.01969
2.02146
2.02266
2.02466
2.02627
2.02906
2.0308
2.01884
2.02081
2.02213
2.02393
2.02623
2.02839
2.03158
2.03485
2.02169
2.02142
2.02409
2.02529
2.02789
2.0297
2.03261
2.03513
2.02226
2.02262
2.02593
2.0279
2.03156
2.03543
2.03967
2.05016
2.00492
2.00997
2.00821
2.01058
2.01123
2.01256
2.0153
2.01558
2.0046
2.00961
2.00781
2.0099
2.01043
2.01121
2.01387
2.01187
2.00697
2.00886
2.00847
2.00963
2.01019
2.01081
2.01269
2.01167
2.00591
2.0091
2.00801
2.00955
2.00995
2.01071
2.01238
2.01185
2.00022
2.01125
2.00524
2.0096
2.00868
2.01014
2.01148
2.01144
2.00741
2.00844
2.00867
2.00946
2.01014
2.01081
2.01223
2.0122
2.00555
2.00901
2.00787
2.00936
2.0098
2.01063
2.01208
2.01226
2.0073
2.00888
2.00886
2.00982
2.01054
2.01126
2.01273
2.01294
2.00845
2.00897
2.00959
2.01028
2.01124
2.01192
2.01365
2.01387
2.00946
2.00904
2.01033
2.01071
2.01197
2.01246
2.01449
2.01428
2.01032
2.00954
2.01142
2.01178
2.01353
2.01393
2.01686
2.01585
2.01106
2.00961
2.01234
2.01252
2.0148
2.01559
2.01897
2.01986
1.99048
2.00904
1.99796
2.0049
2.00252
2.00431
2.00551
2.00509
2.00231
2.00424
2.00353
2.00459
2.00469
2.00522
2.00627
2.00565
1.99614
2.00544
2.00059
2.00363
2.00287
2.00375
2.00454
2.00419
2.00005
2.00493
2.00236
2.00429
2.00391
2.00462
2.00524
2.00526
2.00031
2.00455
2.00238
2.004
2.00372
2.00434
2.00491
2.00499
2.00098
2.00436
2.00277
2.00409
2.004
2.00455
2.00516
2.00528
2.00421
2.00369
2.00408
2.0043
2.00456
2.00485
2.00549
2.00552
2.00413
2.00365
2.00419
2.00435
2.00471
2.00496
2.00567
2.00556
1.99916
2.00544
2.00217
2.00459
2.00425
2.00499
2.00606
2.00588
2.00316
2.00418
2.004
2.00459
2.005
2.005
2.00636
2.0049
2.00358
2.00436
2.00478
2.00534
2.00635
2.00633
2.00897
2.00676
2.00511
2.00406
2.00547
2.00541
2.00664
2.00626
2.00903
2.00602
1.99432
2.00321
1.99838
2.00126
2.00039
2.00098
2.00186
2.00087
1.99353
2.00313
1.99815
2.0011
2.00025
2.00091
2.00157
2.00092
1.99819
2.00205
1.99982
2.00115
2.00064
2.00095
2.00128
2.00093
1.99767
2.00202
1.99979
2.00114
2.00074
2.00111
2.00142
2.00127
1.98985
2.00519
1.99609
2.00136
1.99923
2.0005
2.00058
2.0008
1.99741
2.00265
1.99958
2.0015
2.00078
2.0013
2.00145
2.00148
1.99442
2.00298
1.99825
2.00098
2.00003
2.0007
2.001
2.00102
1.99762
2.00268
1.99971
2.00151
2.00088
2.00123
2.0016
2.00115
1.9977
2.00214
1.99981
2.00126
2.00097
2.00116
2.00199
2.00107
2.00102
2.00193
2.0013
2.00176
2.0018
2.00138
2.00256
2.00034
1.99928
2.00139
2.00113
2.00154
2.0023
2.00177
2.00411
2.00099
2.01093
1.99983
2.00552
2.00247
2.00405
2.00233
2.0051
2.00047
2.00148
2.0002
2.00093
2.0006
2.00076
2.00079
2.00076
2.00111
2.00007
2.00024
2.00032
2.00027
2.00036
2.00041
2.0004
2.00052
2.00205
2
2.00119
2.00058
2.00085
2.00078
2.00078
2.0009
2.00102
1.99981
2.00076
2.00024
2.00055
2.00049
2.00055
2.00063
2.00199
1.99981
2.00119
2.00045
2.00083
2.00069
2.00077
2.00077
2.00164
1.99952
2.001
2.00017
2.00061
2.00045
2.00058
2.00056
2.00242
1.99965
2.00143
2.00051
2.001
2.0008
2.00096
2.00083
1.99926
2
2
1.99988
2.00014
2.00004
2.00033
2.00011
2.00708
1.99779
2.00358
2.0004
2.00192
2.00113
2.0016
2.00104
1.99929
1.99998
1.99999
1.99982
2.00013
1.99981
2.00041
1.99949
2.00434
1.99935
2.00246
2.00087
2.00191
2.00125
2.0023
2.00104
2.00206
1.99923
2.00127
2
2.0009
2.00003
2.00136
1.99922
1.99908
1.99991
1.99938
1.99963
1.99949
1.99952
1.99951
1.99943
1.99898
1.99984
1.99938
1.99959
1.99948
1.99954
1.99943
1.99957
1.99896
1.99989
1.99942
1.99966
1.99958
1.99966
1.9996
1.99976
1.99869
1.99983
1.9993
1.99951
1.99946
1.99952
1.99946
1.99964
2.00148
1.99907
2.00049
1.9997
2
1.99985
1.99982
1.99988
1.99945
1.99937
1.99963
1.99941
1.99956
1.99952
1.99955
1.99961
2.00126
1.99914
2.0004
1.99967
1.99998
1.9998
1.99984
1.99977
2.00039
1.999
2.00003
1.99937
1.99971
1.9995
1.99962
1.99942
2.00044
1.99897
2.00009
1.9994
1.99982
1.99958
1.99989
1.99954
2.0011
1.99882
2.00028
1.99934
1.9998
1.99932
1.99968
1.99881
1.99884
1.99924
1.99959
1.99935
1.99984
1.9995
2.0004
1.99928
2.00073
1.9984
2.00025
1.99904
1.99981
1.99908
1.99994
1.998
1.99705
1.99808
1.9971
1.99715
1.9966
1.99625
1.99553
1.99508
1.99812
1.99789
1.99761
1.99737
1.99696
1.99672
1.9959
1.99619
1.99838
1.99779
1.99779
1.99741
1.99712
1.99685
1.99623
1.99631
1.99825
1.99774
1.9978
1.9974
1.99718
1.99689
1.99632
1.9963
1.99852
1.99769
1.99794
1.99743
1.99727
1.99696
1.99646
1.99638
1.99876
1.9976
1.99803
1.99741
1.99729
1.99692
1.99644
1.99626
1.99798
1.99766
1.9978
1.99736
1.99727
1.99693
1.99655
1.99629
1.99939
1.99719
1.99814
1.99713
1.99712
1.99655
1.9962
1.99564
2.00478
1.99477
2.00091
1.99694
1.99841
1.99716
1.9971
1.99634
1.9945
1.99803
1.99591
1.99649
1.99592
1.9955
1.99532
1.99419
2.0017
1.99661
1.9992
1.99741
1.99787
1.99695
1.9972
1.99589
1.99727
1.99659
1.99691
1.99595
1.99596
1.99477
1.99502
1.99209
1.99511
1.99546
1.99485
1.99476
1.99428
1.99391
1.99325
1.99252
1.9954
1.99564
1.99522
1.99521
1.99482
1.99485
1.99389
1.99496
1.99554
1.99559
1.99536
1.9953
1.99504
1.99508
1.99449
1.99522
1.99585
1.9957
1.99558
1.9955
1.99528
1.9953
1.99475
1.99535
1.99425
1.99635
1.99485
1.99561
1.99506
1.9953
1.9948
1.99544
1.99588
1.99557
1.99562
1.99546
1.99533
1.99534
1.99492
1.9954
1.99634
1.99538
1.99574
1.9954
1.99533
1.99524
1.99492
1.99518
1.99532
1.99519
1.99524
1.99499
1.99492
1.99473
1.99454
1.99434
1.99593
1.995
1.99542
1.99498
1.99503
1.9947
1.99484
1.99411
1.99561
1.99451
1.99495
1.99425
1.99426
1.99344
1.99374
1.99154
1.9951
1.99456
1.995
1.99449
1.99486
1.99409
1.99539
1.99282
1.9956
1.99354
1.9944
1.99303
1.99324
1.99125
1.99273
1.98591
1.96895
1.97292
1.96217
1.95957
1.95135
1.94365
1.93583
1.9207
1.98011
1.96972
1.96848
1.96152
1.95582
1.94968
1.93999
1.9367
1.97479
1.97138
1.96669
1.96179
1.9558
1.95028
1.94176
1.93784
1.97773
1.97169
1.96858
1.96322
1.95769
1.95234
1.94389
1.94056
1.97718
1.97179
1.96856
1.96336
1.95799
1.95282
1.94472
1.94165
1.97741
1.97174
1.96874
1.96347
1.95821
1.95302
1.94505
1.94185
1.97733
1.97135
1.96855
1.96313
1.95797
1.95265
1.94497
1.94118
1.9768
1.97054
1.96776
1.96204
1.95681
1.95096
1.94351
1.938
1.97685
1.9696
1.96742
1.96132
1.95638
1.95009
1.94367
1.93621
1.9739
1.96871
1.96464
1.95863
1.95283
1.945
1.93876
1.92574
1.97563
1.96752
1.96541
1.95875
1.95413
1.946
1.94314
1.92786
1.97293
1.96514
1.96161
1.95358
1.94767
1.93506
1.9326
1.89892
1.97838
1.97424
1.9704
1.96558
1.96052
1.95363
1.94871
1.93518
1.97898
1.97507
1.97163
1.96745
1.96261
1.95807
1.95107
1.94827
1.98022
1.97533
1.97262
1.96834
1.96388
1.95965
1.95341
1.95068
1.97968
1.97604
1.97297
1.96921
1.96487
1.96106
1.9548
1.95284
1.97535
1.97793
1.9712
1.96967
1.96458
1.96146
1.95536
1.95406
1.98159
1.9758
1.97407
1.96981
1.96589
1.96219
1.95623
1.95471
1.97875
1.97587
1.97268
1.96912
1.96503
1.96139
1.95576
1.9538
1.97953
1.97509
1.97257
1.96846
1.9644
1.9602
1.95478
1.95111
1.97894
1.97423
1.97191
1.9676
1.96375
1.95915
1.95478
1.94918
1.97834
1.97272
1.97035
1.96522
1.961
1.95474
1.95065
1.93965
1.97768
1.97208
1.97019
1.96519
1.96189
1.95549
1.95474
1.94141
1.97669
1.96966
1.96737
1.96067
1.95641
1.9458
1.94562
1.91536
2.7571
3.04095
3.16203
3.42986
3.57488
4.02401
3.8364
5.15915
2.75297
3.01251
3.1314
3.36085
3.53312
3.81819
3.90185
4.4394
2.73943
2.98693
3.09716
3.30501
3.47637
3.69229
3.83967
4.12826
2.73073
2.96094
3.0637
3.2527
3.41427
3.58791
3.75865
3.9108
2.72262
2.94405
3.0413
3.22029
3.37311
3.52838
3.69568
3.79761
2.71808
2.93508
3.02902
3.20298
3.35042
3.49813
3.66102
3.74662
2.7198
2.93471
3.02962
3.20305
3.35059
3.49818
3.66104
3.7466
2.72249
2.94453
3.04121
3.22056
3.37316
3.52852
3.69573
3.79772
2.72458
2.96266
3.06093
3.25238
3.41298
3.58719
3.75785
3.91022
2.74167
2.98705
3.09799
3.3056
3.47684
3.69279
3.83989
4.12873
2.74802
3.01356
3.12901
3.36026
3.53169
3.81725
3.90065
4.43857
2.75745
3.04093
3.16208
3.43006
3.57488
4.0245
3.83599
5.16033
2.26088
2.31964
2.33877
2.39586
2.4203
2.52304
2.47141
2.79787
2.25513
2.30971
2.32635
2.37314
2.40323
2.45952
2.47587
2.58427
2.25041
2.3008
2.31669
2.35847
2.38892
2.42934
2.45912
2.51386
2.24069
2.29251
2.3045
2.34325
2.37223
2.40066
2.44179
2.45152
2.23786
2.28574
2.29741
2.3331
2.36066
2.38209
2.42566
2.41105
2.23771
2.28158
2.29421
2.32775
2.35478
2.37289
2.41778
2.39226
2.23558
2.28194
2.29335
2.32755
2.35439
2.37266
2.41759
2.39216
2.23858
2.28566
2.29771
2.33322
2.36083
2.38224
2.42576
2.41119
2.24269
2.29242
2.30525
2.34361
2.37261
2.401
2.44201
2.45183
2.2477
2.30164
2.31551
2.35845
2.38847
2.42918
2.45891
2.51385
2.25468
2.31066
2.32614
2.37366
2.40338
2.45982
2.47611
2.58456
2.25923
2.32027
2.33803
2.3959
2.42
2.52288
2.47135
2.7975
2.13991
2.18622
2.19569
2.23455
2.26218
2.31481
2.33871
2.4559
2.1503
2.17435
2.19318
2.22
2.24882
2.28157
2.32024
2.3558
2.13896
2.17109
2.18381
2.21146
2.23798
2.26789
2.30516
2.33585
2.13988
2.16574
2.17956
2.20413
2.22949
2.25529
2.29384
2.31379
2.13572
2.16213
2.17467
2.19836
2.22276
2.24635
2.28494
2.2984
2.13467
2.16032
2.17264
2.1957
2.21967
2.2421
2.28102
2.29104
2.13521
2.16035
2.17276
2.19571
2.21963
2.24201
2.28089
2.29089
2.13487
2.16225
2.17447
2.19841
2.22282
2.24651
2.28511
2.29862
2.13437
2.16775
2.17684
2.2041
2.22824
2.25464
2.29314
2.31311
2.14523
2.16991
2.18657
2.21219
2.23942
2.26888
2.30613
2.33662
2.14485
2.17561
2.19069
2.21938
2.2475
2.28049
2.31941
2.35455
2.14915
2.18214
2.2002
2.23415
2.26407
2.31564
2.3397
2.45703
2.07278
2.0852
2.08956
2.10078
2.11108
2.12627
2.14046
2.17224
2.07125
2.08184
2.08486
2.09344
2.10189
2.10936
2.12537
2.1251
2.07093
2.07942
2.08276
2.09047
2.09818
2.10542
2.11881
2.12224
2.0669
2.07767
2.07921
2.08695
2.09372
2.10001
2.11285
2.11411
2.05921
2.07936
2.07411
2.08527
2.08984
2.09641
2.10868
2.10882
2.07236
2.0736
2.07953
2.08414
2.09121
2.09598
2.10845
2.10713
2.06441
2.07508
2.07607
2.08322
2.08944
2.09477
2.10734
2.10628
2.069
2.0757
2.07879
2.08521
2.09187
2.09735
2.10977
2.10962
2.06875
2.07708
2.07983
2.08683
2.09378
2.09994
2.1127
2.11414
2.07063
2.07951
2.08282
2.09059
2.09836
2.10571
2.11895
2.12275
2.0725
2.08153
2.08531
2.09345
2.10196
2.10945
2.12519
2.12546
2.07392
2.08523
2.09011
2.10109
2.11138
2.12674
2.1403
2.1733
2.02911
2.04663
2.04212
2.05198
2.05603
2.06435
2.07371
2.08704
2.04146
2.04037
2.04575
2.04847
2.0538
2.05748
2.06648
2.06601
2.03239
2.04077
2.04098
2.04608
2.05021
2.05456
2.06236
2.06451
2.03604
2.03951
2.0416
2.04535
2.04932
2.05299
2.06013
2.06168
2.03368
2.03864
2.03998
2.04388
2.04765
2.05121
2.05822
2.05948
2.03379
2.03841
2.03981
2.04359
2.04731
2.05072
2.0577
2.05858
2.0343
2.03818
2.03988
2.04345
2.04717
2.05052
2.0575
2.05837
2.03403
2.03891
2.04027
2.04425
2.04801
2.0516
2.05857
2.05984
2.02792
2.04222
2.03779
2.04517
2.0476
2.05207
2.05917
2.06083
2.03987
2.0396
2.04423
2.04709
2.05195
2.05578
2.06352
2.06544
2.03456
2.04159
2.04268
2.04753
2.05215
2.05615
2.06543
2.06469
2.03819
2.0433
2.04645
2.052
2.05794
2.06533
2.07473
2.08822
2.01691
2.02023
2.02104
2.02368
2.02626
2.02928
2.03412
2.03883
2.01688
2.0195
2.02002
2.02202
2.02396
2.02538
2.02966
2.02817
2.01687
2.01883
2.01951
2.02128
2.02304
2.02461
2.0281
2.0283
2.01596
2.01867
2.01884
2.02078
2.02226
2.02374
2.02683
2.02695
2.00863
2.02098
2.01511
2.02027
2.02026
2.02242
2.02527
2.02569
2.02045
2.01706
2.02027
2.02046
2.02233
2.02337
2.02621
2.02616
2.01328
2.01807
2.01719
2.01943
2.02069
2.02219
2.02516
2.02537
2.01702
2.01825
2.01899
2.02052
2.02199
2.02335
2.02623
2.02644
2.01585
2.01838
2.01866
2.02045
2.02196
2.02345
2.02647
2.02686
2.01662
2.01904
2.01954
2.02147
2.0232
2.02491
2.02818
2.02886
2.0172
2.01932
2.02
2.02186
2.02372
2.02527
2.02917
2.02843
2.01737
2.02043
2.02129
2.02397
2.0264
2.02973
2.03377
2.04009
2.00383
2.01055
2.00781
2.01069
2.01119
2.01282
2.01517
2.01701
2.01023
2.00849
2.0101
2.01031
2.01133
2.01182
2.01363
2.01296
2.0058
2.00871
2.00806
2.00937
2.01003
2.01086
2.01249
2.0126
2.0078
2.00858
2.00873
2.00957
2.01017
2.01083
2.01217
2.01226
2.00676
2.00832
2.00815
2.00911
2.00967
2.01037
2.01169
2.01184
2.00685
2.00835
2.00817
2.00913
2.00967
2.01035
2.01164
2.01175
2.00716
2.00819
2.00822
2.00903
2.00958
2.01023
2.01151
2.01163
2.00677
2.00855
2.00823
2.00932
2.00984
2.01058
2.01186
2.01204
2.00249
2.01016
2.00636
2.00931
2.00909
2.0102
2.01152
2.01173
2.00954
2.0085
2.00964
2.01009
2.01092
2.01158
2.01307
2.01316
2.00598
2.00903
2.00822
2.00961
2.01023
2.01097
2.01283
2.0122
2.00797
2.00948
2.00964
2.01097
2.012
2.0134
2.01554
2.01776
2.003
2.00413
2.00399
2.00467
2.00515
2.00563
2.00692
2.00717
2.00293
2.00402
2.00375
2.00434
2.00464
2.00484
2.00587
2.00507
2.00313
2.00378
2.00363
2.00409
2.00432
2.00458
2.00538
2.00512
2.00274
2.00403
2.00361
2.0043
2.00446
2.00478
2.00541
2.00523
1.99389
2.00656
1.99955
2.00375
2.0025
2.00365
2.00418
2.00449
2.0081
2.00313
2.00563
2.00476
2.00526
2.00526
2.00568
2.00556
1.99979
2.00382
2.00212
2.00336
2.00334
2.00386
2.00447
2.00468
2.00384
2.004
2.00396
2.00441
2.00454
2.00485
2.00531
2.0054
2.00239
2.0038
2.0033
2.00395
2.00406
2.00446
2.00495
2.00518
2.00267
2.00404
2.0036
2.0043
2.00446
2.00496
2.00541
2.00593
2.00346
2.00386
2.00375
2.00419
2.00429
2.00472
2.00509
2.00543
2.00262
2.00443
2.00387
2.00488
2.00504
2.00612
2.0062
2.00891
1.99659
2.00395
1.99917
2.00214
2.001
2.00172
2.00212
2.00207
2.00533
2.00034
2.00329
2.00192
2.00261
2.00241
2.0027
2.00245
1.998
2.00184
2.00006
2.00108
2.00093
2.00118
2.00156
2.00139
2.00245
2.00156
2.00195
2.00191
2.002
2.00203
2.00221
2.00209
2.00007
2.00143
2.00087
2.00127
2.00127
2.00143
2.00166
2.00165
2.00067
2.00166
2.00119
2.00158
2.00156
2.00171
2.0019
2.0019
2.00115
2.0014
2.00121
2.00141
2.00137
2.00148