/*--------------------------------*- C++ -*----------------------------------*\
| =========                 |                                                 |
| \\      /  F ield         | foam-extend: Open Source CFD                    |
|  \\    /   O peration     | Version:  3.0                                   |
|   \\  /    A nd           | Web:         http://www.extend-project.de       |
|    \\/     M anipulation  |                                                 |
\*---------------------------------------------------------------------------*/
FoamFile
{
    version     2.0;
    format      ascii;
    class       volScalarField;
    location    "2.9";
    object      p;
}
// * * * * * * * * * * * * * * * * * * * * * * * * * * * * * * * * * * * * * //

dimensions      [0 0 0 0 0 0 0];

internalField   nonuniform List<scalar> 
400
(
0.978001
0.910924
0.901487
0.878089
0.894278
0.893977
0.92315
0.935125
0.970592
0.987896
1.02548
1.0427
1.07878
1.09032
1.11997
1.11849
1.13408
1.10893
1.09784
1.03013
1.04081
0.980944
0.972227
0.948867
0.960239
0.953452
0.97239
0.972725
0.993946
0.996603
1.01814
1.02029
1.04116
1.04005
1.05812
1.04925
1.05903
1.03368
1.02298
0.963158
1.00381
0.947878
0.94091
0.919403
0.934886
0.931127
0.955634
0.960325
0.988172
0.99608
1.02515
1.03274
1.06173
1.06536
1.09136
1.0856
1.10153
1.07731
1.0687
1.01201
1.00145
0.942287
0.938143
0.917533
0.934738
0.931887
0.955703
0.96041
0.985685
0.99306
1.01886
1.02611
1.05251
1.05665
1.08198
1.07753
1.09502
1.07125
1.06439
1.00293
0.961527
0.894571
0.895657
0.877225
0.902073
0.904345
0.936034
0.946882
0.980521
0.994561
1.02988
1.04406
1.08164
1.09252
1.13073
1.13165
1.16225
1.13903
1.13982
1.06479
0.944942
0.869455
0.875036
0.858832
0.887335
0.893047
0.925293
0.938894
0.970773
0.987175
1.01983
1.03683
1.07253
1.08745
1.12641
1.13227
1.16722
1.14577
1.15038
1.05948
0.910733
0.825042
0.838421
0.8258
0.861762
0.873067
0.911317
0.93046
0.968277
0.990165
1.03015
1.05299
1.09881
1.12027
1.17345
1.18589
1.23906
1.21921
1.23892
1.1234
0.89037
0.801251
0.81957
0.811728
0.849357
0.864781
0.901162
0.922982
0.956463
0.980378
1.01466
1.04006
1.08025
1.10611
1.15596
1.17521
1.23002
1.21557
1.24019
1.10714
0.858868
0.772961
0.797451
0.79623
0.836453
0.857192
0.894856
0.920756
0.955885
0.983281
1.02083
1.04998
1.09654
1.12745
1.18876
1.21498
1.28804
1.2793
1.32477
1.17415
0.830951
0.762556
0.789144
0.796283
0.833528
0.858039
0.890285
0.917537
0.94518
0.972846
1.00083
1.0305
1.06573
1.09917
1.14874
1.18169
1.24596
1.24872
1.29312
1.14767
0.792588
0.752425
0.781073
0.798944
0.832723
0.8623
0.891046
0.920822
0.945927
0.974825
1.00171
1.03247
1.06905
1.10507
1.1606
1.19999
1.27837
1.29376
1.36327
1.23103
0.749911
0.751515
0.780847
0.810768
0.83922
0.87218
0.893803
0.923404
0.939309
0.966342
0.98106
1.00957
1.02999
1.06531
1.10016
1.14441
1.19971
1.23342
1.28881
1.20415
0.702662
0.751143
0.780313
0.824723
0.846803
0.885049
0.9006
0.931445
0.942036
0.968205
0.978339
1.00522
1.02231
1.05722
1.09221
1.14161
1.20652
1.26055
1.34834
1.31743
0.650351
0.750496
0.784817
0.843014
0.861981
0.903004
0.912146
0.941325
0.942828
0.965222
0.96275
0.984755
0.983711
1.01417
1.02292
1.07337
1.10295
1.17868
1.23434
1.29292
0.610807
0.757936
0.790744
0.864664
0.877423
0.923447
0.925863
0.954923
0.949785
0.969537
0.960363
0.978399
0.970484
0.997344
1.00098
1.05381
1.08852
1.18911
1.28637
1.43261
0.574162
0.761887
0.807637
0.892271
0.905128
0.951635
0.948752
0.974364
0.961292
0.975938
0.955786
0.967181
0.942645
0.961469
0.938645
0.98618
0.979339
1.09576
1.13839
1.39581
0.57421
0.7898
0.829509
0.926374
0.933056
0.98206
0.972087
0.995647
0.975604
0.986348
0.958893
0.964854
0.931489
0.943656
0.91091
0.955363
0.945783
1.08305
1.1664
1.53016
0.607363
0.826181
0.879288
0.975701
0.980452
1.02456
1.00876
1.02671
1.00031
1.00556
0.970431
0.969518
0.924169
0.925866
0.871913
0.902259
0.853734
0.985624
0.991955
1.44182
0.686708
0.892424
0.933254
1.03115
1.02715
1.06789
1.04417
1.05764
1.0249
1.02578
0.984487
0.97802
0.924164
0.917055
0.849873
0.868675
0.804372
0.937434
0.951137
1.49018
0.88654
1.01014
1.04014
1.11552
1.09949
1.12624
1.09534
1.10082
1.06436
1.06025
1.01644
1.00441
0.946403
0.92811
0.850918
0.84455
0.756826
0.840784
0.78213
1.26658
)
;

boundaryField
{
    cavity
    {
        type            implicitExtrapolation;
    }
    lid
    {
        type            implicitExtrapolation;
    }
    frontAndBack
    {
        type            empty;
    }
}


// ************************************************************************* //
