/*--------------------------------*- C++ -*----------------------------------*\
| =========                 |                                                 |
| \\      /  F ield         | foam-extend: Open Source CFD                    |
|  \\    /   O peration     | Version:  3.0                                   |
|   \\  /    A nd           | Web:         http://www.extend-project.de       |
|    \\/     M anipulation  |                                                 |
\*---------------------------------------------------------------------------*/
FoamFile
{
    version     2.0;
    format      ascii;
    class       volVectorField;
    location    "2.9";
    object      s;
}
// * * * * * * * * * * * * * * * * * * * * * * * * * * * * * * * * * * * * * //

dimensions      [0 0 0 0 0 0 0];

internalField   nonuniform List<vector> 
400
(
(-0.00254756 0.000891088 2.90819e-318)
(-0.00384103 0.00164406 5.05985e-318)
(-0.00598354 0.00195877 5.78123e-318)
(-0.00757761 0.00202641 5.89955e-318)
(-0.00932426 0.00178214 5.74485e-318)
(-0.0106978 0.00150981 5.47389e-318)
(-0.0119454 0.00104517 5.08911e-318)
(-0.0128437 0.000557773 4.69309e-318)
(-0.0134907 -3.70908e-05 4.20931e-318)
(-0.0137993 -0.000656583 3.74926e-318)
(-0.0137773 -0.0013291 3.22151e-318)
(-0.0134245 -0.00198809 2.74262e-318)
(-0.0126785 -0.00266332 2.22001e-318)
(-0.0116297 -0.00325076 1.76536e-318)
(-0.0101413 -0.00384247 1.29494e-318)
(-0.00844669 -0.00423955 8.91181e-319)
(-0.00629458 -0.00461211 5.17015e-319)
(-0.00423865 -0.00464055 1.83101e-319)
(-0.00166126 -0.00419246 -4.15559e-320)
(-0.000196255 -0.00266382 -1.57498e-319)
(-0.00264594 0.00122858 2.82982e-318)
(-0.00501824 0.00287691 5.9026e-318)
(-0.00834273 0.00375324 7.45634e-318)
(-0.010967 0.00395676 8.19668e-318)
(-0.0137885 0.00363659 8.38223e-318)
(-0.0159749 0.00305336 8.3006e-318)
(-0.0179531 0.0022218 7.93925e-318)
(-0.0193438 0.00130733 7.48002e-318)
(-0.0203295 0.000286234 6.83811e-318)
(-0.0207654 -0.000764777 6.17416e-318)
(-0.0206866 -0.00186811 5.38783e-318)
(-0.0200832 -0.00296833 4.63483e-318)
(-0.0188797 -0.00407989 3.81008e-318)
(-0.0172122 -0.00510259 3.06199e-318)
(-0.0148871 -0.00603949 2.28615e-318)
(-0.012305 -0.0066823 1.60939e-318)
(-0.00910192 -0.00697978 9.52366e-319)
(-0.00615379 -0.00660017 4.00756e-319)
(-0.00275956 -0.00522542 -2.40511e-320)
(-0.000451243 -0.00249654 -2.15141e-319)
(-0.00235668 0.00347918 2.1707e-318)
(-0.00482569 0.00741867 5.07061e-318)
(-0.00828081 0.00919504 6.82746e-318)
(-0.0111479 0.0096573 7.8374e-318)
(-0.0142133 0.00901031 8.26169e-318)
(-0.0165902 0.00781198 8.32782e-318)
(-0.0187689 0.00609389 8.0698e-318)
(-0.0202921 0.00415049 7.64522e-318)
(-0.0214008 0.00197115 7.02467e-318)
(-0.0219051 -0.000305841 6.34115e-318)
(-0.0218566 -0.00268901 5.5418e-318)
(-0.0212431 -0.00506975 4.74967e-318)
(-0.0199617 -0.00743758 3.90396e-318)
(-0.0181935 -0.00959491 3.12166e-318)
(-0.0156765 -0.0115026 2.34371e-318)
(-0.0129015 -0.0127501 1.67642e-318)
(-0.00943596 -0.0132512 1.08065e-318)
(-0.00622194 -0.0122965 6.37552e-319)
(-0.00267173 -0.00965702 3.27956e-319)
(-0.000184657 -0.00436464 1.5651e-319)
(-0.00235258 0.00448239 1.23372e-318)
(-0.00446987 0.00989539 3.45994e-318)
(-0.00771842 0.0122495 5.10427e-318)
(-0.0101797 0.0128278 6.23009e-318)
(-0.012924 0.0119037 6.86092e-318)
(-0.0149095 0.0102648 7.13067e-318)
(-0.0167923 0.00800607 7.07469e-318)
(-0.0180547 0.00548593 6.80455e-318)
(-0.0190194 0.00271181 6.33571e-318)
(-0.0194766 -0.000174716 5.76039e-318)
(-0.0194989 -0.00318794 5.07842e-318)
(-0.0190745 -0.00622414 4.37088e-318)
(-0.018065 -0.00927123 3.62917e-318)
(-0.0166725 -0.012101 2.92641e-318)
(-0.0145258 -0.0146361 2.24932e-318)
(-0.012182 -0.0163347 1.66344e-318)
(-0.00899947 -0.0170426 1.15166e-318)
(-0.00609656 -0.0157248 7.61217e-319)
(-0.00256881 -0.0122279 4.57317e-319)
(-0.000232113 -0.00519006 2.06124e-319)
(-0.0023913 0.00621214 9.25464e-319)
(-0.00405998 0.0133501 2.70703e-318)
(-0.00710536 0.0162788 4.11077e-318)
(-0.00908481 0.0168713 5.12843e-318)
(-0.0114707 0.0155795 5.74768e-318)
(-0.0130285 0.013413 6.04439e-318)
(-0.0146129 0.0105216 6.05381e-318)
(-0.0156238 0.00732551 5.85664e-318)
(-0.0164717 0.00383898 5.47798e-318)
(-0.0169155 0.000209736 4.98899e-318)
(-0.0170468 -0.00358535 4.4005e-318)
(-0.0168555 -0.00744306 3.77489e-318)
(-0.0161576 -0.0113549 3.11519e-318)
(-0.0151927 -0.0150568 2.47548e-318)
(-0.0134478 -0.018449 1.85537e-318)
(-0.01159 -0.0208441 1.30087e-318)
(-0.00867595 -0.0220266 8.13202e-319)
(-0.00612079 -0.020583 4.27174e-319)
(-0.0024769 -0.0162885 1.42716e-319)
(-0.000383243 -0.00706864 -8.34477e-321)
(-0.00257841 0.00762056 5.44821e-319)
(-0.0037121 0.0159717 1.88193e-318)
(-0.00647155 0.0191552 3.06586e-318)
(-0.00776952 0.0195597 3.99094e-318)
(-0.00962293 0.0178775 4.60642e-318)
(-0.0105762 0.015276 4.946e-318)
(-0.0117142 0.0119662 5.03155e-318)
(-0.0123584 0.00837896 4.91898e-318)
(-0.0130099 0.00452796 4.64e-318)
(-0.013405 0.000529705 4.2473e-318)
(-0.0136548 -0.00366182 3.76607e-318)
(-0.0137556 -0.00798102 3.242e-318)
(-0.0134765 -0.0124416 2.6934e-318)
(-0.0130969 -0.0167923 2.15851e-318)
(-0.0119426 -0.0209272 1.64959e-318)
(-0.010801 -0.0240655 1.19784e-318)
(-0.00834442 -0.0259197 8.06384e-319)
(-0.00635548 -0.0246867 4.99318e-319)
(-0.00258642 -0.0199681 2.6766e-319)
(-0.000778703 -0.00882981 1.01002e-319)
(-0.00274878 0.00934469 5.91723e-319)
(-0.00317633 0.0186469 1.74377e-318)
(-0.00560181 0.0219495 2.71586e-318)
(-0.00615276 0.0219969 3.46531e-318)
(-0.00747575 0.0199324 3.96929e-318)
(-0.00783498 0.0169131 4.24354e-318)
(-0.00855149 0.0132672 4.31207e-318)
(-0.0088499 0.00936856 4.21251e-318)
(-0.0093151 0.0052499 3.97307e-318)
(-0.00965776 0.000972016 3.63309e-318)
(-0.0100081 -0.00352477 3.21628e-318)
(-0.0103745 -0.00823151 2.75677e-318)
(-0.0104849 -0.0131786 2.27313e-318)
(-0.0106759 -0.0181679 1.79123e-318)
(-0.0101044 -0.0230725 1.32462e-318)
(-0.00973525 -0.0271096 8.91645e-319)
(-0.0077615 -0.0298406 5.04871e-319)
(-0.00651774 -0.029235 1.8022e-319)
(-0.00258578 -0.024372 -5.42237e-320)
(-0.00135266 -0.0114491 -1.31525e-319)
(-0.00272393 0.0107098 4.62811e-319)
(-0.00241941 0.0204659 1.42181e-318)
(-0.00429366 0.0237548 2.25889e-318)
(-0.00407443 0.0233525 2.91725e-318)
(-0.00479552 0.0209992 3.36816e-318)
(-0.00456298 0.0176713 3.6237e-318)
(-0.00482901 0.0138772 3.69861e-318)
(-0.00477162 0.00986719 3.62376e-318)
(-0.00501899 0.00571604 3.42586e-318)
(-0.00527707 0.00140136 3.1371e-318)
(-0.00568865 -0.00314312 2.7826e-318)
(-0.00627891 -0.00799009 2.39178e-318)
(-0.00675338 -0.0131827 1.9848e-318)
(-0.00749518 -0.0186276 1.58378e-318)
(-0.00753851 -0.0241574 1.20286e-318)
(-0.00798523 -0.0290971 8.57905e-319)
(-0.00662988 -0.0327694 5.54322e-319)
(-0.00625425 -0.0330935 3.043e-319)
(-0.00240013 -0.0283453 1.15839e-319)
(-0.00181101 -0.013986 5.35567e-321)
(-0.00244103 0.0116933 5.77489e-319)
(-0.00141744 0.0215238 1.48974e-318)
(-0.00256208 0.0248003 2.20192e-318)
(-0.00161937 0.0239502 2.72924e-318)
(-0.00172893 0.0214576 3.07866e-318)
(-0.00096167 0.0179227 3.26093e-318)
(-0.000792795 0.0141234 3.29674e-318)
(-0.000398637 0.0101199 3.20847e-318)
(-0.000409562 0.00606885 3.01966e-318)
(-0.000542706 0.00184484 2.75608e-318)
(-0.000948021 -0.0026042 2.43919e-318)
(-0.00166918 -0.0074483 2.09202e-318)
(-0.00241462 -0.0127233 1.73243e-318)
(-0.00360564 -0.0184887 1.37664e-318)
(-0.00420977 -0.0244909 1.03677e-318)
(-0.00544869 -0.0303063 7.19414e-319)
(-0.00478244 -0.0348711 4.33212e-319)
(-0.00542177 -0.0363986 1.78101e-319)
(-0.00187128 -0.0319358 -2.20501e-320)
(-0.00218557 -0.0166734 -1.15656e-319)
(-0.00180428 0.0120594 5.07529e-319)
(-0.000293069 0.0216304 1.33756e-318)
(-0.000445141 0.0248692 1.98976e-318)
(0.00107842 0.0236556 2.46894e-318)
(0.00163358 0.0211641 2.77801e-318)
(0.00285521 0.0175485 2.93633e-318)
(0.00346825 0.0138844 2.95953e-318)
(0.00418044 0.0100193 2.8719e-318)
(0.00443733 0.00621029 2.69649e-318)
(0.00447502 0.00222547 2.45719e-318)
(0.00415142 -0.00196294 2.17546e-318)
(0.00340649 -0.00662547 1.87212e-318)
(0.00249303 -0.0117807 1.56636e-318)
(0.000995679 -0.0176685 1.27343e-318)
(-0.000111295 -0.0239283 1.00538e-318)
(-0.00201532 -0.0304817 7.70214e-319)
(-0.00216961 -0.0358211 5.68072e-319)
(-0.00374435 -0.0386352 3.95149e-319)
(-0.00101974 -0.0346473 2.40027e-319)
(-0.00204392 -0.0188874 7.99201e-320)
(-0.0010144 0.0116737 5.89252e-319)
(0.000781172 0.0207962 1.41402e-318)
(0.00173337 0.0240162 2.00045e-318)
(0.00371957 0.0225916 2.4e-318)
(0.00495839 0.0202446 2.64025e-318)
(0.0065757 0.0166756 2.74246e-318)
(0.00763407 0.0132582 2.73065e-318)
(0.00865239 0.00962822 2.62562e-318)
(0.00920492 0.00615357 2.44883e-318)
(0.00946264 0.00250414 2.2213e-318)
(0.00930225 -0.00131199 1.9623e-318)
(0.00865317 -0.00565742 1.68968e-318)
(0.00769788 -0.0105183 1.42076e-318)
(0.00605559 -0.016325 1.16792e-318)
(0.00454369 -0.0225826 9.4246e-319)
(0.00208527 -0.029643 7.46439e-319)
(0.00104092 -0.0354755 5.82454e-319)
(-0.0015308 -0.0395278 4.31122e-319)
(5.58145e-05 -0.0360119 2.79024e-319)
(-0.00185766 -0.0204009 9.10217e-320)
(-0.000122693 0.0108889 5.18547e-319)
(0.00166002 0.019383 1.30787e-318)
(0.00382963 0.0224713 1.87604e-318)
(0.00610929 0.0209675 2.25751e-318)
(0.00806369 0.0188191 2.4721e-318)
(0.00999093 0.0154049 2.55332e-318)
(0.0114894 0.0123018 2.52549e-318)
(0.0127799 0.00898408 2.41351e-318)
(0.0136387 0.00590594 2.23919e-318)
(0.014146 0.00266503 2.02364e-318)
(0.0142156 -0.000698619 1.78521e-318)
(0.013777 -0.00461508 1.5423e-318)
(0.0129106 -0.0090414 1.31119e-318)
(0.0113285 -0.0145726 1.10526e-318)
(0.00954238 -0.0206097 9.36847e-319)
(0.0067998 -0.0279162 8.11686e-319)
(0.00479808 -0.0340727 7.26612e-319)
(0.00154086 -0.0392375 6.62246e-319)
(0.00137323 -0.0365418 5.65809e-319)
(-0.000944043 -0.0215648 3.22185e-319)
(0.000612084 0.00955071 5.50691e-319)
(0.00228923 0.0173687 1.35358e-318)
(0.00553995 0.0202267 1.886e-318)
(0.00804044 0.0188006 2.21371e-318)
(0.0106643 0.0168956 2.37738e-318)
(0.0128519 0.0137505 2.41579e-318)
(0.0147535 0.0110163 2.35999e-318)
(0.0162801 0.00807648 2.23311e-318)
(0.0174298 0.00543211 2.05639e-318)
(0.0181946 0.00264592 1.84776e-318)
(0.0185363 -0.000217489 1.62474e-318)
(0.0183915 -0.00361947 1.40411e-318)
(0.0177302 -0.00749033 1.19998e-318)
(0.0163674 -0.0125392 1.0246e-318)
(0.0144576 -0.0180859 8.8957e-319)
(0.0115814 -0.0252542 7.97234e-319)
(0.00868216 -0.0313016 7.46602e-319)
(0.00466439 -0.0371674 7.08609e-319)
(0.00270067 -0.0349928 6.25092e-319)
(-0.000505695 -0.0211591 3.69423e-319)
(0.00106646 0.00817647 5.00493e-319)
(0.00254778 0.0151611 1.29769e-318)
(0.00676686 0.0176914 1.81291e-318)
(0.00940401 0.0163919 2.11587e-318)
(0.0126405 0.0147252 2.24823e-318)
(0.014996 0.0119183 2.26202e-318)
(0.0172242 0.00957404 2.18847e-318)
(0.018908 0.00704747 2.05388e-318)
(0.0202926 0.00484373 1.87785e-318)
(0.0212858 0.00252337 1.67787e-318)
(0.021909 0.000165744 1.47019e-318)
(0.0221196 -0.00268694 1.27e-318)
(0.0217746 -0.00594947 1.09128e-318)
(0.0208328 -0.010382 9.46595e-319)
(0.0190083 -0.0152914 8.4716e-319)
(0.0163892 -0.0220411 7.9839e-319)
(0.0127308 -0.0278549 7.9591e-319)
(0.00856659 -0.0342416 8.16127e-319)
(0.00430236 -0.0331712 7.74902e-319)
(0.00111625 -0.0213394 5.09653e-319)
(0.00147366 0.0067858 5.20888e-319)
(0.00264688 0.0128062 1.32785e-318)
(0.00749537 0.0147779 1.7946e-318)
(0.010175 0.0136904 2.03485e-318)
(0.0138354 0.0122457 2.11741e-318)
(0.0162597 0.00986928 2.09491e-318)
(0.0186825 0.00793217 2.00239e-318)
(0.0204269 0.00585395 1.86121e-318)
(0.021954 0.00408205 1.68905e-318)
(0.0231066 0.00222261 1.50021e-318)
(0.023974 0.000351044 1.30857e-318)
(0.024526 -0.00194055 1.12779e-318)
(0.0245476 -0.00456785 9.69762e-319)
(0.024093 -0.0082515 8.45677e-319)
(0.0225285 -0.0123425 7.64833e-319)
(0.0202701 -0.0182606 7.28856e-319)
(0.0161589 -0.0233458 7.32946e-319)
(0.0116774 -0.0294663 7.49898e-319)
(0.0056983 -0.0286415 7.0058e-319)
(0.00142966 -0.0185153 4.52525e-319)
(0.00102891 0.00517847 6.11026e-319)
(0.00230818 0.0103833 1.37683e-318)
(0.00755515 0.0119313 1.75983e-318)
(0.0103291 0.0110152 1.92677e-318)
(0.0142619 0.00981433 1.95643e-318)
(0.0166349 0.00787918 1.90269e-318)
(0.0190888 0.00635348 1.79486e-318)
(0.0207645 0.00471677 1.65142e-318)
(0.022307 0.00335404 1.4859e-318)
(0.0235274 0.00192055 1.30982e-318)
(0.0245684 0.000495375 1.13479e-318)
(0.0254363 -0.00127099 9.72484e-319)
(0.0258539 -0.00328757 8.3335e-319)
(0.0260086 -0.00620087 7.27719e-319)
(0.0249146 -0.00943572 6.63362e-319)
(0.0234581 -0.0143813 6.43614e-319)
(0.0192375 -0.0187075 6.60062e-319)
(0.0154789 -0.0245835 6.93204e-319)
(0.00739276 -0.0248125 6.56416e-319)
(0.00406917 -0.0180728 4.2915e-319)
(0.0012658 0.00448369 5.78141e-319)
(0.00178971 0.00806906 1.27068e-318)
(0.00703791 0.00889991 1.57314e-318)
(0.00953023 0.00820761 1.675e-318)
(0.0133469 0.00725967 1.67324e-318)
(0.0154653 0.00585473 1.60819e-318)
(0.0177229 0.00473787 1.50578e-318)
(0.0191881 0.00355058 1.37741e-318)
(0.0205994 0.00255478 1.23389e-318)
(0.0217449 0.00150732 1.08363e-318)
(0.0228363 0.000460978 9.3622e-319)
(0.0238484 -0.000830358 8.00292e-319)
(0.0245753 -0.00230475 6.85541e-319)
(0.0251559 -0.00443239 5.99677e-319)
(0.0246126 -0.00679828 5.47509e-319)
(0.0237841 -0.0104633 5.29218e-319)
(0.0200228 -0.013671 5.34619e-319)
(0.0165254 -0.0181205 5.39169e-319)
(0.00813677 -0.0180275 4.73794e-319)
(0.00366465 -0.0122336 2.66543e-319)
(-0.000121964 0.00278569 9.30928e-319)
(0.00126685 0.00598676 1.40506e-318)
(0.00636114 0.00634545 1.51712e-318)
(0.00877992 0.00582514 1.49683e-318)
(0.0123643 0.0051202 1.43144e-318)
(0.0140807 0.00414485 1.33774e-318)
(0.0159868 0.00341144 1.228e-318)
(0.0171086 0.00261157 1.10609e-318)
(0.0182579 0.00196126 9.77613e-319)
(0.01924 0.00124851 8.47263e-319)
(0.0202547 0.000559258 7.21281e-319)
(0.0213606 -0.000318497 6.05888e-319)
(0.022287 -0.00127677 5.08764e-319)
(0.0233611 -0.00271011 4.35455e-319)
(0.0233747 -0.00423156 3.90169e-319)
(0.0236329 -0.00679212 3.7424e-319)
(0.0204751 -0.00894279 3.78439e-319)
(0.0187968 -0.012712 3.86354e-319)
(0.00919171 -0.013258 3.3633e-319)
(0.00787556 -0.0120421 1.73422e-319)
(3.6735e-05 0.00285805 4.09165e-319)
(-5.8944e-05 0.0033994 7.44127e-319)
(0.00380612 0.00348192 8.47693e-319)
(0.00524401 0.00324038 8.57115e-319)
(0.007679 0.00292601 8.3669e-319)
(0.00874969 0.00251779 7.9384e-319)
(0.00995038 0.00214127 7.38203e-319)
(0.0106326 0.0017351 6.72211e-319)
(0.011357 0.00135151 6.00349e-319)
(0.0119695 0.000935182 5.26032e-319)
(0.0127076 0.000497876 4.53621e-319)
(0.0134544 -2.54422e-05 3.87762e-319)
(0.0142912 -0.00062137 3.33203e-319)
(0.0150931 -0.00140649 2.93697e-319)
(0.015511 -0.00228716 2.70639e-319)
(0.015799 -0.00350533 2.62734e-319)
(0.0142028 -0.00466822 2.6101e-319)
(0.0127999 -0.00597391 2.46801e-319)
(0.00676361 -0.00598722 1.83387e-319)
(0.00408643 -0.00266891 4.33246e-320)
(-0.000875148 0.00127145 9.63458e-319)
(0.000468405 0.00257729 8.46102e-319)
(0.00344044 0.0021053 7.15032e-319)
(0.00420287 0.00195549 6.0315e-319)
(0.00590146 0.00172109 5.30162e-319)
(0.00619985 0.00146495 4.6662e-319)
(0.00687791 0.00136083 4.10203e-319)
(0.00706388 0.00118361 3.54971e-319)
(0.00740945 0.00111336 3.01578e-319)
(0.00772735 0.000960837 2.49819e-319)
(0.0081067 0.000891563 2.00497e-319)
(0.008718 0.000707223 1.55433e-319)
(0.00921763 0.000620647 1.16595e-319)
(0.0101992 0.000320284 8.5755e-320)
(0.0105183 0.000204027 6.46435e-320)
(0.0117927 -0.000431411 5.48413e-320)
(0.010633 -0.00054622 5.33344e-320)
(0.0119484 -0.00213145 5.69658e-320)
(0.00583382 -0.00201768 3.84136e-320)
(0.00889099 -0.00557231 -1.70848e-320)
)
;

boundaryField
{
    cavity
    {
        type            myHeatFlux;
        ThetaWall       uniform 0;
        value           nonuniform List<vector> 
60
(
(0.001 0 0)
(0.001 0 0)
(0.001 0 0)
(0.001 0 0)
(0.001 0 0)
(0.001 0 0)
(0.001 0 0)
(0.001 0 0)
(0.001 0 0)
(0.001 0 0)
(0.001 0 0)
(0.001 0 0)
(0.001 0 0)
(0.001 0 0)
(0.001 0 0)
(0.001 0 0)
(0.001 0 0)
(0.001 0 0)
(0.001 0 0)
(0.001 0 0)
(0 -0.001 0)
(0 -0.001 0)
(0 -0.001 0)
(0 -0.001 0)
(0 -0.001 0)
(0 -0.001 0)
(0 -0.001 0)
(0 -0.001 0)
(0 -0.001 0)
(0 -0.001 0)
(0 -0.001 0)
(0 -0.001 0)
(0 -0.001 0)
(0 -0.001 0)
(0 -0.001 0)
(0 -0.001 0)
(0 -0.001 0)
(0 -0.001 0)
(0 -0.001 0)
(0 -0.001 0)
(-0.001 0 0)
(-0.001 0 0)
(-0.001 0 0)
(-0.001 0 0)
(-0.001 0 0)
(-0.001 0 0)
(-0.001 0 0)
(-0.001 0 0)
(-0.001 0 0)
(-0.001 0 0)
(-0.001 0 0)
(-0.001 0 0)
(-0.001 0 0)
(-0.001 0 0)
(-0.001 0 0)
(-0.001 0 0)
(-0.001 0 0)
(-0.001 0 0)
(-0.001 0 0)
(-0.001 0 0)
)
;
    }
    lid
    {
        type            myHeatFlux;
        ThetaWall       uniform 0;
        value           nonuniform List<vector> 
20
(
(0.000135815 0.0009 0)
(0.000135815 0.0009 0)
(0.000135815 0.0009 0)
(0.000135815 0.0009 0)
(0.000135815 0.0009 0)
(0.000135815 0.0009 0)
(0.000135815 0.0009 0)
(0.000135815 0.0009 0)
(0.000135815 0.0009 0)
(0.000135815 0.0009 0)
(0.000135815 0.0009 0)
(0.000135815 0.0009 0)
(0.000135815 0.0009 0)
(0.000135815 0.0009 0)
(0.000135815 0.0009 0)
(0.000135815 0.0009 0)
(0.000135815 0.0009 0)
(0.000135815 0.0009 0)
(0.000135815 0.0009 0)
(0.000135815 0.0009 0)
)
;
    }
    frontAndBack
    {
        type            empty;
    }
}


// ************************************************************************* //
