/*--------------------------------*- C++ -*----------------------------------*\
| =========                 |                                                 |
| \\      /  F ield         | foam-extend: Open Source CFD                    |
|  \\    /   O peration     | Version:  3.0                                   |
|   \\  /    A nd           | Web:         http://www.extend-project.de       |
|    \\/     M anipulation  |                                                 |
\*---------------------------------------------------------------------------*/
FoamFile
{
    version     2.0;
    format      ascii;
    class       volSymmTensorField;
    location    "2.9";
    object      sigma;
}
// * * * * * * * * * * * * * * * * * * * * * * * * * * * * * * * * * * * * * //

dimensions      [0 0 0 0 0 0 0];

internalField   nonuniform List<symmTensor> 
400
(
(0.0396793 -0.0300067 4.46523e-317 -0.0528099 6.25769e-317 0.0131306)
(0.0853538 -0.0318888 5.05712e-317 -0.0596368 7.34117e-317 -0.025717)
(0.107751 -0.0316679 5.10997e-317 -0.0599761 7.08789e-317 -0.0477751)
(0.117902 -0.035486 5.04361e-317 -0.0588954 6.50749e-317 -0.0590062)
(0.115174 -0.0387087 4.73497e-317 -0.0532859 5.60851e-317 -0.0618885)
(0.105847 -0.0449833 4.39469e-317 -0.0470944 4.9299e-317 -0.0587522)
(0.0892423 -0.0506066 3.98819e-317 -0.0382861 4.08995e-317 -0.0509562)
(0.0684226 -0.0566036 3.58528e-317 -0.028935 3.56574e-317 -0.0394876)
(0.0439226 -0.0608905 3.19009e-317 -0.0182586 2.89738e-317 -0.0256641)
(0.0172007 -0.0635487 2.82464e-317 -0.00721153 2.54923e-317 -0.00998919)
(-0.010558 -0.0638409 2.49716e-317 0.00441686 2.04734e-317 0.00614118)
(-0.0381798 -0.0618219 2.21451e-317 0.0158863 1.85199e-317 0.0222935)
(-0.0644757 -0.058056 1.9802e-317 0.0274838 1.48576e-317 0.0369919)
(-0.0873722 -0.0525638 1.78703e-317 0.0378211 1.40427e-317 0.0495511)
(-0.106397 -0.0473669 1.63977e-317 0.047926 1.13135e-317 0.0584708)
(-0.117407 -0.0414798 1.48985e-317 0.0549106 1.10548e-317 0.0624962)
(-0.121423 -0.0386103 1.38354e-317 0.0612732 8.77824e-318 0.0601497)
(-0.11108 -0.0349926 1.13814e-317 0.0621409 8.11924e-318 0.0489388)
(-0.08785 -0.03512 9.24124e-318 0.0613279 5.62778e-318 0.0265221)
(-0.0405145 -0.0328333 2.92877e-318 0.0534672 2.51155e-318 -0.0129527)
(0.037412 -0.0152242 8.77108e-318 -0.0907726 2.85121e-317 0.0533606)
(0.0786139 -0.0121496 1.68709e-317 -0.0973897 4.73766e-317 0.0187757)
(0.097998 -0.00940588 2.28831e-317 -0.0964985 5.16878e-317 -0.00149947)
(0.103241 -0.00852773 2.67322e-317 -0.0906027 5.04116e-317 -0.0126384)
(0.0989342 -0.00827205 2.86172e-317 -0.0808479 4.51426e-317 -0.0180863)
(0.0883926 -0.0101012 2.9151e-317 -0.0690788 4.03437e-317 -0.0193138)
(0.0734385 -0.0118282 2.86192e-317 -0.0554631 3.40649e-317 -0.0179754)
(0.0554614 -0.0141471 2.74319e-317 -0.0410649 2.97071e-317 -0.0143965)
(0.0355954 -0.0155244 2.58315e-317 -0.0258382 2.44235e-317 -0.00975721)
(0.0141859 -0.0161079 2.4061e-317 -0.010175 2.13321e-317 -0.00401084)
(-0.0076781 -0.0155647 2.22945e-317 0.00592013 1.73708e-317 0.00175797)
(-0.0298489 -0.0137308 2.06741e-317 0.0221757 1.55739e-317 0.00767319)
(-0.0512562 -0.0115905 1.93116e-317 0.0386489 1.28292e-317 0.0126074)
(-0.0710625 -0.00868767 1.82625e-317 0.0544947 1.2144e-317 0.0165678)
(-0.088233 -0.00714248 1.76298e-317 0.0699594 1.04276e-317 0.0182736)
(-0.100406 -0.0059948 1.73037e-317 0.0830532 1.06574e-317 0.0173531)
(-0.106084 -0.00764982 1.75797e-317 0.0940116 9.95118e-318 0.0120721)
(-0.10078 -0.0104758 1.77942e-317 0.0998124 1.10988e-317 0.000967819)
(-0.0807221 -0.0149858 1.87772e-317 0.100079 1.2061e-317 -0.0193565)
(-0.0378608 -0.0200041 1.8054e-317 0.0918018 1.48481e-317 -0.053941)
(0.0355245 -0.0198585 3.02338e-318 -0.105158 1.61745e-317 0.0696334)
(0.077944 -0.00695477 8.35393e-318 -0.116208 3.11284e-317 0.0382636)
(0.0957134 0.00350137 1.34554e-317 -0.114551 3.65755e-317 0.0188375)
(0.100467 0.0106162 1.74648e-317 -0.107795 3.7254e-317 0.00732879)
(0.0946467 0.0161468 1.99664e-317 -0.0952119 3.48178e-317 0.000565245)
(0.0835094 0.0181585 2.1403e-317 -0.0807513 3.17272e-317 -0.00275814)
(0.0688712 0.0199575 2.18721e-317 -0.0646375 2.77022e-317 -0.00423372)
(0.0518704 0.020101 2.17238e-317 -0.0478035 2.4305e-317 -0.00406693)
(0.0341375 0.0209223 2.11488e-317 -0.0308239 2.06119e-317 -0.00331355)
(0.0148816 0.0217567 2.03615e-317 -0.013105 1.78852e-317 -0.00177659)
(-0.00431361 0.0231747 1.95224e-317 0.00468699 1.50014e-317 -0.000373376)
(-0.0246373 0.0252415 1.87695e-317 0.0234399 1.31154e-317 0.00119738)
(-0.044574 0.0265612 1.8219e-317 0.0425844 1.10329e-317 0.00198963)
(-0.0642957 0.0279782 1.79384e-317 0.062087 9.85737e-318 0.00220876)
(-0.0824207 0.0262771 1.80301e-317 0.0816911 8.37999e-318 0.000729609)
(-0.0963405 0.0232383 1.8401e-317 0.0989688 7.67421e-318 -0.0026283)
(-0.104869 0.0149979 1.92607e-317 0.114384 6.70041e-318 -0.00951459)
(-0.100411 0.00401205 2.00432e-317 0.121575 6.61124e-318 -0.0211643)
(-0.082116 -0.0106467 2.12531e-317 0.122799 7.64535e-318 -0.0406827)
(-0.0365705 -0.0279709 2.17074e-317 0.108442 1.2731e-317 -0.0718716)
(0.0362041 -0.0156825 -7.70251e-318 -0.122017 4.3885e-318 0.0858124)
(0.0753714 0.00409917 -2.82273e-318 -0.127056 1.79041e-317 0.0516851)
(0.0890341 0.0204822 2.95192e-318 -0.11954 2.38824e-317 0.0305059)
(0.0899781 0.0295982 7.7888e-318 -0.107621 2.59811e-317 0.017643)
(0.0823388 0.0366582 1.15667e-317 -0.0919718 2.53611e-317 0.00963293)
(0.070578 0.0385319 1.4156e-317 -0.0755755 2.38402e-317 0.00499757)
(0.0575917 0.0403675 1.57733e-317 -0.0596754 2.136e-317 0.00208371)
(0.0431264 0.040328 1.66237e-317 -0.0437618 1.90839e-317 0.000635328)
(0.0295249 0.0413677 1.69276e-317 -0.0291611 1.64805e-317 -0.000363777)
(0.0145192 0.0427954 1.68786e-317 -0.0138053 1.44527e-317 -0.000713946)
(0.000257651 0.0451121 1.66372e-317 0.000992096 1.22928e-317 -0.00124975)
(-0.0160244 0.0486418 1.63266e-317 0.0176753 1.08008e-317 -0.00165091)
(-0.0321684 0.0513252 1.6033e-317 0.0349436 9.20802e-318 -0.00277519)
(-0.0501022 0.054545 1.57989e-317 0.0545122 8.28479e-318 -0.00440999)
(-0.0674991 0.0535243 1.56298e-317 0.0751304 7.27258e-318 -0.00763132)
(-0.0833464 0.050948 1.54692e-317 0.0960148 6.97295e-318 -0.0126684)
(-0.0950713 0.0399795 1.52251e-317 0.116304 6.7722e-318 -0.0212322)
(-0.095309 0.0248389 1.47432e-317 0.130039 7.56403e-318 -0.0347302)
(-0.081592 0.000589066 1.38612e-317 0.138135 9.10173e-318 -0.0565427)
(-0.0379209 -0.0281704 1.26925e-317 0.128878 1.17195e-317 -0.0909575)
(0.0394193 -0.00683054 1.39696e-318 -0.143724 5.45699e-318 0.104304)
(0.0774371 0.0164818 2.75596e-318 -0.141531 1.20257e-317 0.0640935)
(0.0879969 0.0356609 5.37638e-318 -0.127292 1.60099e-317 0.0392951)
(0.085479 0.0444131 8.11005e-318 -0.109685 1.79099e-317 0.0242065)
(0.0762438 0.0511135 1.03788e-317 -0.0909548 1.81264e-317 0.0147109)
(0.0636563 0.0513686 1.2151e-317 -0.0726117 1.74715e-317 0.00895537)
(0.0519762 0.0521495 1.33573e-317 -0.0570631 1.61267e-317 0.00508694)
(0.0392131 0.0509658 1.41222e-317 -0.0419335 1.46394e-317 0.00272036)
(0.0288213 0.0516198 1.45394e-317 -0.0296229 1.29485e-317 0.000801625)
(0.0167605 0.0530637 1.47341e-317 -0.01625 1.14351e-317 -0.000510494)
(0.00616413 0.0561763 1.4815e-317 -0.00412256 9.91694e-318 -0.00204157)
(-0.00755109 0.0611163 1.48815e-317 0.0110384 8.69345e-318 -0.00348727)
(-0.0212638 0.0657391 1.50183e-317 0.0269731 7.53378e-318 -0.0057093)
(-0.0388147 0.071547 1.52807e-317 0.0473444 6.71418e-318 -0.00852977)
(-0.0568352 0.0726621 1.57306e-317 0.0699435 6.01293e-318 -0.0131083)
(-0.0758876 0.0725308 1.63269e-317 0.0956932 5.74365e-318 -0.0198056)
(-0.0921765 0.0612295 1.71541e-317 0.122807 5.81286e-318 -0.0306308)
(-0.0979779 0.04514 1.79611e-317 0.145384 6.70648e-318 -0.047406)
(-0.0889734 0.0142958 1.89315e-317 0.163315 8.88582e-318 -0.0743412)
(-0.04402 -0.0221399 1.97168e-317 0.160964 1.39062e-317 -0.116944)
(0.0414685 0.013053 -1.21776e-318 -0.166724 3.18066e-318 0.125255)
(0.0746846 0.0356576 1.90107e-319 -0.151366 8.00379e-318 0.0766818)
(0.0805892 0.0536452 2.80692e-318 -0.127647 1.0889e-317 0.0470582)
(0.0730953 0.0575506 5.42285e-318 -0.102328 1.25034e-317 0.0292326)
(0.062585 0.0603365 7.8008e-318 -0.0807449 1.29929e-317 0.0181599)
(0.049569 0.056038 9.65333e-318 -0.0609923 1.28199e-317 0.0114232)
(0.0403284 0.0534325 1.10207e-317 -0.0472231 1.2094e-317 0.00689473)
(0.0305168 0.0495769 1.19484e-317 -0.0345026 1.11673e-317 0.00398575)
(0.0247725 0.0487102 1.25419e-317 -0.0263697 1.0036e-317 0.00159722)
(0.0173004 0.0498337 1.29026e-317 -0.0170923 8.95322e-318 -0.000208102)
(0.012152 0.0538161 1.31233e-317 -0.0099169 7.83744e-318 -0.00223508)
(0.00293509 0.0610937 1.32793e-317 0.00132727 6.88762e-318 -0.00426236)
(-0.00608706 0.0691451 1.34226e-317 0.0132274 5.99187e-318 -0.00714032)
(-0.0213661 0.0800336 1.35768e-317 0.0321875 5.34472e-318 -0.0108214)
(-0.0376206 0.0864097 1.3731e-317 0.0541757 4.85996e-318 -0.0165551)
(-0.0591738 0.0929876 1.38584e-317 0.0841706 4.79207e-318 -0.0249968)
(-0.0788541 0.0857071 1.38514e-317 0.117422 5.16826e-318 -0.0385675)
(-0.0925411 0.0738769 1.37084e-317 0.152394 6.377e-318 -0.0598529)
(-0.0900265 0.0397142 1.32193e-317 0.184322 8.5459e-318 -0.0942958)
(-0.0486328 -0.00209142 1.25899e-317 0.197714 1.16412e-317 -0.149082)
(0.0450511 0.046415 7.92769e-318 -0.192541 6.78316e-318 0.14749)
(0.0717099 0.060719 7.10697e-318 -0.159813 6.88963e-318 0.0881028)
(0.0736186 0.0713803 7.32015e-318 -0.126651 7.89156e-318 0.0530325)
(0.0607997 0.066727 8.13148e-318 -0.0932518 8.766e-318 0.0324522)
(0.0500181 0.0626568 9.01701e-318 -0.0700035 9.19678e-318 0.0199854)
(0.0367837 0.0525099 9.90089e-318 -0.0492895 9.23253e-318 0.0125057)
(0.0304514 0.045348 1.06143e-317 -0.0380172 8.90372e-318 0.0075658)
(0.0235405 0.0381996 1.11701e-317 -0.0279086 8.36367e-318 0.00436819)
(0.0224161 0.0351925 1.1574e-317 -0.0241717 7.64999e-318 0.00175559)
(0.0192718 0.0352579 1.18777e-317 -0.0189848 6.89276e-318 -0.000286993)
(0.0194035 0.0396343 1.21357e-317 -0.0168316 6.09839e-318 -0.00257189)
(0.0144917 0.0483689 1.24061e-317 -0.00955966 5.37046e-318 -0.00493209)
(0.0101565 0.0598454 1.27478e-317 -0.00189952 4.70199e-318 -0.00825703)
(-0.00287898 0.0755151 1.32042e-317 0.0154751 4.20352e-318 -0.0125961)
(-0.0172248 0.0887149 1.38358e-317 0.0366011 3.89907e-318 -0.0193762)
(-0.0416837 0.103965 1.46372e-317 0.0712352 3.96239e-318 -0.0295516)
(-0.0651214 0.1055 1.57071e-317 0.111292 4.53378e-318 -0.0461709)
(-0.0888999 0.104544 1.68761e-317 0.161758 5.95716e-318 -0.0728576)
(-0.0942819 0.0757419 1.82924e-317 0.211465 8.73602e-318 -0.117183)
(-0.0583756 0.0403967 1.95227e-317 0.248539 1.40668e-317 -0.190163)
(0.0442397 0.0915299 5.40286e-318 -0.208193 6.04124e-318 0.163953)
(0.0607502 0.0909538 5.44768e-318 -0.156319 5.90644e-318 0.0955691)
(0.0592774 0.0885091 6.27088e-318 -0.115586 6.13613e-318 0.0563083)
(0.0415202 0.0723153 7.26232e-318 -0.0753858 6.51845e-318 0.0338656)
(0.0316187 0.0588102 8.31001e-318 -0.0522672 6.76424e-318 0.0206485)
(0.0190552 0.0418008 9.17723e-318 -0.0319271 6.81778e-318 0.0128719)
(0.0161758 0.0290075 9.86432e-318 -0.0240308 6.64578e-318 0.00785499)
(0.0128794 0.01823 1.03645e-317 -0.0175011 6.30896e-318 0.00462171)
(0.0166117 0.0125909 1.07217e-317 -0.0186263 5.82586e-318 0.0020146)
(0.0185214 0.0115448 1.09864e-317 -0.0184553 5.2717e-318 -6.60432e-05)
(0.0244071 0.0162026 1.12089e-317 -0.0220185 4.66155e-318 -0.00238852)
(0.024964 0.0267037 1.14349e-317 -0.0200882 4.06445e-318 -0.00487581)
(0.0266805 0.0421392 1.16988e-317 -0.0182899 3.49687e-318 -0.0083906)
(0.0178138 0.0637183 1.20231e-317 -0.00467589 3.04687e-318 -0.0131379)
(0.00819357 0.0856898 1.24098e-317 0.0124415 2.77433e-318 -0.020635)
(-0.0169285 0.112441 1.28612e-317 0.0491573 2.85103e-318 -0.0322288)
(-0.0401811 0.12739 1.33036e-317 0.0917123 3.47369e-318 -0.0515311)
(-0.0739103 0.142883 1.37662e-317 0.157338 5.01668e-318 -0.0834273)
(-0.0852427 0.127253 1.40205e-317 0.22297 7.84279e-318 -0.137727)
(-0.0618167 0.105682 1.40982e-317 0.29118 1.21928e-317 -0.229364)
(0.0419097 0.143472 1.17613e-317 -0.21117 8.62159e-318 0.169261)
(0.0474475 0.121974 1.04463e-317 -0.143113 5.80017e-318 0.0956653)
(0.0437751 0.101012 9.7319e-318 -0.0987622 4.92312e-318 0.0549871)
(0.0221506 0.0723148 9.59672e-318 -0.0545668 4.76753e-318 0.0324162)
(0.0141541 0.0477466 9.63817e-318 -0.0336542 4.83844e-318 0.0195002)
(0.00273891 0.0242096 9.83112e-318 -0.0147884 4.90531e-318 0.0120494)
(0.00345178 0.0054371 1.00159e-317 -0.0107894 4.86027e-318 0.00733758)
(0.00363041 -0.00890479 1.01853e-317 -0.0079499 4.68631e-318 0.00431949)
(0.0118997 -0.0175181 1.03223e-317 -0.0137928 4.38171e-318 0.00189308)
(0.0184834 -0.0204139 1.04518e-317 -0.0184141 3.98421e-318 -6.93602e-05)
(0.0297469 -0.0162626 1.06021e-317 -0.0274518 3.5141e-318 -0.0022951)
(0.0355428 -0.00568258 1.08102e-317 -0.0308046 3.01985e-318 -0.00473824)
(0.0432018 0.0127165 1.11192e-317 -0.0349418 2.53284e-318 -0.00826003)
(0.0387235 0.0380057 1.15715e-317 -0.0255962 2.12459e-318 -0.0131272)
(0.0341125 0.0688759 1.22356e-317 -0.0131484 1.87428e-318 -0.0209642)
(0.00882689 0.106216 1.31378e-317 0.0245252 1.94337e-318 -0.033352)
(-0.0140243 0.138839 1.44208e-317 0.0684713 2.56369e-318 -0.054447)
(-0.0582709 0.175494 1.5965e-317 0.148502 4.15039e-318 -0.0902315)
(-0.0768703 0.185291 1.79693e-317 0.229891 7.39064e-318 -0.153021)
(-0.0682422 0.194015 1.98289e-317 0.33145 1.37125e-317 -0.263208)
(0.0324844 0.193445 8.54795e-318 -0.18843 7.66532e-318 0.155946)
(0.0269968 0.1495 8.41398e-318 -0.113038 5.35217e-318 0.0860414)
(0.0223744 0.108016 8.70766e-318 -0.0709378 4.14494e-318 0.0485634)
(-0.00061788 0.067432 9.03696e-318 -0.027696 3.69552e-318 0.0283139)
(-0.00613578 0.0314598 9.40371e-318 -0.0108726 3.60685e-318 0.0170084)
(-0.0152922 0.00200093 9.64947e-318 0.00470548 3.6303e-318 0.0105867)
(-0.0114599 -0.0227758 9.80642e-318 0.00488942 3.62275e-318 0.0065705)
(-0.00768847 -0.0403693 9.88326e-318 0.00369113 3.52462e-318 0.00399734)
(0.00411296 -0.0520228 9.91655e-318 -0.0060298 3.31363e-318 0.00191683)
(0.0150871 -0.0566703 9.94123e-318 -0.0152885 3.00249e-318 0.000201364)
(0.0306607 -0.0532188 9.99e-318 -0.0288855 2.60447e-318 -0.00177516)
(0.0417384 -0.0425684 1.00915e-317 -0.037725 2.15081e-318 -0.00401342)
(0.0549893 -0.0213544 1.0271e-317 -0.0477053 1.67036e-318 -0.00728395)
(0.0562438 0.00784759 1.055e-317 -0.0443094 1.21857e-318 -0.0119344)
(0.058331 0.0482169 1.09476e-317 -0.0388179 8.7418e-319 -0.0195132)
(0.0363693 0.0972202 1.14887e-317 -0.00458588 7.94462e-319 -0.0317834)
(0.019083 0.15034 1.21602e-317 0.0339471 1.23597e-318 -0.0530302)
(-0.0311672 0.210929 1.30304e-317 0.121151 2.67998e-318 -0.0899837)
(-0.0507433 0.252633 1.39631e-317 0.20706 5.80637e-318 -0.156316)
(-0.0612204 0.295445 1.489e-317 0.336597 1.15598e-317 -0.275377)
(0.0206264 0.230495 1.26477e-317 -0.14352 8.99848e-318 0.122894)
(0.00586366 0.167008 1.16457e-317 -0.071832 5.0567e-318 0.0659684)
(0.000435855 0.105594 1.09743e-317 -0.0371928 3.29655e-318 0.0367569)
(-0.0217842 0.0561312 1.0661e-317 0.000365569 2.61534e-318 0.0214186)
(-0.0246355 0.00967853 1.03951e-317 0.011609 2.4892e-318 0.0130265)
(-0.0309438 -0.0241378 1.02088e-317 0.0226659 2.55935e-318 0.00827791)
(-0.0242678 -0.0541884 1.00141e-317 0.0189828 2.63475e-318 0.00528492)
(-0.0171353 -0.0744381 9.8353e-318 0.0138016 2.62688e-318 0.00333369)
(-0.00237882 -0.0889326 9.67399e-318 0.000675909 2.50084e-318 0.00170291)
(0.012375 -0.0957155 9.55128e-318 -0.0126998 2.26184e-318 0.000324728)
(0.0315841 -0.0936828 9.48551e-318 -0.0302584 1.92059e-318 -0.00132575)
(0.0473886 -0.08473 9.49858e-318 -0.044155 1.50173e-318 -0.00323351)
(0.0657431 -0.0624705 9.61674e-318 -0.0596472 1.03101e-318 -0.00609585)
(0.072768 -0.0328795 9.86952e-318 -0.0625521 5.54495e-319 -0.0102159)
(0.0813788 0.0149257 1.03221e-317 -0.0643468 1.40873e-319 -0.017032)
(0.0637614 0.0707779 1.1014e-317 -0.0355874 -6.95694e-320 -0.0281739)
(0.0514698 0.144834 1.21309e-317 -0.00371131 1.7154e-319 -0.0477585)
(-0.00336761 0.226834 1.36253e-317 0.0858018 1.35613e-318 -0.0824342)
(-0.0276002 0.30864 1.58647e-317 0.173948 4.41672e-318 -0.146348)
(-0.05754 0.396337 1.82937e-317 0.323148 1.13319e-317 -0.265608)
(0.00207929 0.249289 9.22561e-318 -0.0721777 7.77527e-318 0.0700985)
(-0.0184839 0.171738 9.53322e-318 -0.0186959 4.40037e-318 0.0371798)
(-0.0251479 0.0949419 1.00641e-317 0.00403552 2.57519e-318 0.0211124)
(-0.0429627 0.0394938 1.02927e-317 0.0300645 1.8576e-318 0.0128982)
(-0.0436173 -0.0154882 1.03564e-317 0.035222 1.74447e-318 0.00839529)
(-0.0457291 -0.0524865 1.0202e-317 0.0399728 1.85452e-318 0.00575632)
(-0.0371034 -0.0869876 9.9505e-318 0.0331295 1.97891e-318 0.00397389)
(-0.0267488 -0.109282 9.65606e-318 0.024012 2.01861e-318 0.00273671)
(-0.0105633 -0.126218 9.3714e-318 0.00894933 1.93757e-318 0.00161393)
(0.00698492 -0.134804 9.12759e-318 -0.00760656 1.73483e-318 0.000621637)
(0.0277445 -0.134205 8.94277e-318 -0.0271177 1.42126e-318 -0.000626828)
(0.0472458 -0.126881 8.82777e-318 -0.0451324 1.01247e-318 -0.0021134)
(0.0686042 -0.104038 8.78861e-318 -0.0642181 5.26625e-319 -0.00438602)
(0.0817085 -0.0740617 8.83026e-318 -0.0739966 -6.7687e-321 -0.00771195)
(0.0961971 -0.0194609 8.96279e-318 -0.0829798 -5.36921e-319 -0.0132173)
(0.0868314 0.0435693 9.20437e-318 -0.0645568 -9.49797e-319 -0.0222746)
(0.0833043 0.138247 9.57657e-318 -0.0451004 -1.01709e-318 -0.0382039)
(0.0330522 0.241869 1.0186e-317 0.033694 -2.48658e-319 -0.0667463)
(0.0136804 0.362919 1.10603e-317 0.106426 2.25841e-318 -0.120107)
(-0.0329861 0.48939 1.23751e-317 0.254078 8.10982e-318 -0.221091)
(-0.0161333 0.24059 1.21642e-317 0.0103225 8.20003e-318 0.00581074)
(-0.0412013 0.159269 1.1907e-317 0.037842 3.54351e-318 0.00335921)
(-0.0495672 0.0734478 1.17908e-317 0.0460768 1.56131e-318 0.00349031)
(-0.0615044 0.0160702 1.15524e-317 0.0578707 9.55108e-319 0.00363378)
(-0.0599481 -0.0442287 1.11023e-317 0.0564746 1.01149e-318 0.00347349)
(-0.0573018 -0.0826187 1.05846e-317 0.0542214 1.26231e-318 0.00308039)
(-0.0468314 -0.119621 1.00345e-317 0.0442906 1.4827e-318 0.0025408)
(-0.0334313 -0.14286 9.52291e-318 0.0314138 1.58465e-318 0.00201753)
(-0.0162851 -0.161229 9.07108e-318 0.01489 1.54569e-318 0.00139507)
(0.00335971 -0.171264 8.69658e-318 -0.00415415 1.37414e-318 0.000794438)
(0.0250052 -0.172346 8.40135e-318 -0.0249557 1.086e-318 -4.95075e-05)
(0.0474092 -0.167664 8.18291e-318 -0.0463336 6.96074e-319 -0.00107564)
(0.0712869 -0.146307 8.03986e-318 -0.0685735 2.19296e-319 -0.00271334)
(0.0902408 -0.119479 7.96985e-318 -0.0851452 -3.23761e-319 -0.0050956)
(0.110523 -0.0624335 8.00347e-318 -0.101491 -8.99758e-319 -0.00903179)
(0.110402 9.65356e-05 8.14873e-318 -0.0950637 -1.4249e-318 -0.0153383)
(0.114632 0.109809 8.57002e-318 -0.0884015 -1.71621e-318 -0.0262305)
(0.0700921 0.223349 9.25636e-318 -0.0245958 -1.36866e-318 -0.0454963)
(0.0476961 0.382036 1.0691e-317 0.0344533 5.7198e-319 -0.0821495)
(-0.0197855 0.545264 1.27775e-317 0.175659 6.18241e-318 -0.155874)
(-0.0374944 0.210119 9.8597e-318 0.100761 7.07939e-318 -0.0632665)
(-0.0626999 0.130253 1.07042e-317 0.0932689 2.62335e-318 -0.030569)
(-0.0747094 0.0429616 1.15651e-317 0.0879854 7.87358e-319 -0.013276)
(-0.0772088 -0.0135497 1.15634e-317 0.0819964 4.21838e-319 -0.00478765)
(-0.0738456 -0.0759406 1.11882e-317 0.0746988 6.42429e-319 -0.000853215)
(-0.065195 -0.114307 1.0551e-317 0.064401 9.84727e-319 0.000793975)
(-0.0535039 -0.152216 9.86647e-318 0.0521621 1.24325e-318 0.00134189)
(-0.0375046 -0.175409 9.21828e-318 0.0360633 1.35746e-318 0.00144134)
(-0.0208656 -0.194289 8.65158e-318 0.0196035 1.32219e-318 0.00126215)
(-0.000592596 -0.205136 8.17863e-318 -0.000427712 1.1558e-318 0.00102031)
(0.0195492 -0.207607 7.79125e-318 -0.020121 8.76408e-319 0.000571751)
(0.0429279 -0.205316 7.4719e-318 -0.0429279 4.99327e-319 9.4692e-09)
(0.0660336 -0.185987 7.19895e-318 -0.0650624 3.2638e-320 -0.000971142)
(0.0895762 -0.162286 6.94213e-318 -0.0872008 -5.15029e-319 -0.00237535)
(0.112177 -0.104422 6.67518e-318 -0.107582 -1.12641e-318 -0.00459496)
(0.12385 -0.0418845 6.36857e-318 -0.11598 -1.75128e-318 -0.00787015)
(0.135599 0.0798663 6.0018e-318 -0.122747 -2.24836e-318 -0.0128516)
(0.109139 0.204894 5.66068e-318 -0.0884703 -2.30093e-318 -0.0206683)
(0.0951636 0.394665 5.37541e-318 -0.0608056 -1.13004e-318 -0.0343581)
(0.0234161 0.586743 5.87584e-318 0.0377881 2.62228e-318 -0.0612041)
(-0.0564863 0.154793 1.37358e-317 0.181365 6.86027e-318 -0.124879)
(-0.08029 0.0850117 1.36119e-317 0.139586 1.18074e-318 -0.059296)
(-0.0938693 0.00370112 1.33971e-317 0.120661 -3.70426e-319 -0.0267914)
(-0.087579 -0.0502333 1.26259e-317 0.0989541 -2.7062e-319 -0.0113751)
(-0.0819527 -0.110101 1.15863e-317 0.0861648 2.49251e-319 -0.00421208)
(-0.0675214 -0.146669 1.05449e-317 0.0685512 7.47462e-319 -0.00102985)
(-0.0546685 -0.182474 9.58675e-318 0.0543391 1.06625e-318 0.000329401)
(-0.0365436 -0.204034 8.77251e-318 0.0356493 1.1991e-318 0.000894315)
(-0.0208268 -0.22177 8.09799e-318 0.019765 1.17045e-318 0.00106188)
(-0.000719039 -0.232379 7.55092e-318 -0.000397095 1.01433e-318 0.00111613)
(0.0174256 -0.235884 7.10351e-318 -0.0184258 7.55416e-319 0.00100017)
(0.0408298 -0.235844 6.72442e-318 -0.0416605 4.11171e-319 0.000830724)
(0.0629605 -0.220228 6.38108e-318 -0.0633963 -1.0321e-320 0.000435828)
(0.0903508 -0.201827 6.03428e-318 -0.0902631 -5.04485e-319 -8.76932e-05)
(0.115913 -0.148878 5.66292e-318 -0.115126 -1.06341e-318 -0.000787024)
(0.139326 -0.0944002 5.22074e-318 -0.138081 -1.65962e-318 -0.00124571)
(0.159391 0.0273381 4.77792e-318 -0.158791 -2.20003e-318 -0.000599716)
(0.148684 0.143713 4.3057e-318 -0.15188 -2.49664e-318 0.00319549)
(0.134633 0.349684 4.15282e-318 -0.148131 -1.9258e-318 0.0134978)
(0.0383989 0.547847 4.78347e-318 -0.0702008 6.81974e-319 0.0318019)
(-0.0711525 0.079365 1.44462e-317 0.240685 7.14539e-318 -0.169532)
(-0.0930729 0.0235932 1.43136e-317 0.170942 1.33624e-318 -0.0778695)
(-0.108585 -0.0446032 1.39398e-317 0.1434 -1.26506e-319 -0.0348152)
(-0.0909906 -0.0925446 1.27143e-317 0.106099 1.15172e-319 -0.015108)
(-0.0823154 -0.14639 1.13673e-317 0.0884483 6.13911e-319 -0.00613293)
(-0.06207 -0.179274 1.0081e-317 0.0641961 1.02016e-318 -0.00212616)
(-0.0486192 -0.211048 8.97872e-318 0.0489503 1.23134e-318 -0.000331053)
(-0.0295983 -0.229803 8.07757e-318 0.0290932 1.27011e-318 0.000505051)
(-0.0161021 -0.245329 7.35537e-318 0.0152028 1.17443e-318 0.000899385)
(0.00213681 -0.254937 6.77957e-318 -0.00330343 9.77889e-319 0.00116663)
(0.016283 -0.258987 6.30854e-318 -0.0175937 7.04666e-319 0.00131071)
(0.037362 -0.260671 5.90001e-318 -0.0388199 3.68138e-319 0.00145791)
(0.0550275 -0.249066 5.50736e-318 -0.0565612 -2.66894e-320 0.00153363)
(0.0831454 -0.235657 5.07254e-318 -0.0848457 -4.78878e-319 0.00170029)
(0.105726 -0.18955 4.53381e-318 -0.107937 -9.8575e-319 0.00221142)
(0.139552 -0.142158 3.81509e-318 -0.143491 -1.53572e-318 0.00393901)
(0.160882 -0.0247082 2.81872e-318 -0.170052 -2.05933e-318 0.0091702)
(0.17865 0.0893471 1.58541e-318 -0.201622 -2.44515e-318 0.0229721)
(0.171594 0.30578 -4.82159e-320 -0.228655 -2.30713e-318 0.0570618)
(0.0992609 0.521917 -9.92716e-319 -0.234375 -1.3669e-318 0.135114)
(-0.0872824 0.00535041 1.94033e-317 0.276848 5.04624e-318 -0.189565)
(-0.0916435 -0.0470197 1.72314e-317 0.174647 -9.65765e-319 -0.0830031)
(-0.106386 -0.0993143 1.48072e-317 0.142682 -1.51644e-318 -0.0362962)
(-0.0811624 -0.143026 1.25823e-317 0.0969303 -6.01569e-319 -0.0157679)
(-0.0706951 -0.186704 1.06253e-317 0.0773108 1.90877e-319 -0.00661571)
(-0.0470496 -0.213883 9.10746e-318 0.0496136 7.18702e-319 -0.00256395)
(-0.0339463 -0.238839 7.91701e-318 0.0346538 9.75315e-319 -0.000707435)
(-0.0153002 -0.253307 7.01011e-318 0.0150993 1.04329e-318 0.000200926)
(-0.00443289 -0.265205 6.31081e-318 0.00373429 9.82361e-319 0.000698598)
(0.0111848 -0.272869 5.76581e-318 -0.0122694 8.35267e-319 0.00108459)
(0.0213728 -0.276726 5.32353e-318 -0.0227619 6.28708e-319 0.00138912)
(0.0393373 -0.279438 4.93684e-318 -0.0410791 3.79477e-319 0.00174181)
(0.0529751 -0.272262 4.55895e-318 -0.0550904 9.43369e-320 0.00211527)
(0.0803653 -0.264354 4.13342e-318 -0.0830792 -2.24839e-319 0.00271392)
(0.10147 -0.22959 3.61087e-318 -0.105394 -5.77276e-319 0.00392396)
(0.142746 -0.195082 2.91943e-318 -0.149625 -9.60721e-319 0.00687839)
(0.169886 -0.0969068 2.04953e-318 -0.184537 -1.34754e-318 0.0146512)
(0.205761 -0.00994893 9.71205e-319 -0.240244 -1.71347e-318 0.034483)
(0.207708 0.185989 -1.90754e-319 -0.291949 -1.88277e-318 0.0842415)
(0.103839 0.35506 -8.61858e-319 -0.302925 -1.80675e-318 0.199086)
(-0.0786012 -0.106346 2.10847e-317 0.249246 1.06285e-317 -0.170645)
(-0.088872 -0.128928 1.79397e-317 0.161365 4.05785e-318 -0.0724934)
(-0.0918066 -0.152496 1.43762e-317 0.122917 2.32913e-318 -0.0311109)
(-0.0600982 -0.18526 1.15121e-317 0.0735715 2.13466e-318 -0.0134733)
(-0.0457523 -0.213825 9.30278e-318 0.0515062 2.09097e-318 -0.00575386)
(-0.020571 -0.234057 7.72209e-318 0.0229313 1.99495e-318 -0.0023603)
(-0.00909905 -0.250516 6.56417e-318 0.00988257 1.81226e-318 -0.000783523)
(0.00728115 -0.260369 5.7232e-318 -0.00730222 1.56876e-318 2.10655e-05)
(0.0143216 -0.26811 5.09687e-318 -0.0148231 1.28669e-318 0.000501494)
(0.026005 -0.272991 4.62072e-318 -0.0269127 9.80918e-319 0.000907699)
(0.0310621 -0.276199 4.24065e-318 -0.03233 6.61663e-319 0.00126793)
(0.0441396 -0.277955 3.90945e-318 -0.0458392 3.32294e-319 0.00169959)
(0.0510733 -0.274789 3.5797e-318 -0.0532716 -3.78948e-321 0.00219828)
(0.0738429 -0.269187 3.19345e-318 -0.0767947 -3.47002e-319 0.00295182)
(0.0865715 -0.246966 2.68253e-318 -0.0909329 -6.90249e-319 0.00436144)
(0.129654 -0.220785 1.96545e-318 -0.137145 -1.0236e-318 0.0074908)
(0.147333 -0.148323 9.17218e-319 -0.162826 -1.30068e-318 0.0154926)
(0.211397 -0.0746477 -4.27732e-319 -0.247539 -1.48002e-318 0.0361416)
(0.206566 0.0917939 -2.33372e-318 -0.298529 -1.49551e-318 0.0919634)
(0.181344 0.28364 -3.8747e-318 -0.426019 -1.75687e-318 0.244676)
(-0.0720076 -0.156108 1.82554e-317 0.19455 -6.88505e-319 -0.122543)
(-0.0304972 -0.210655 1.43316e-317 0.0795122 -3.25776e-318 -0.049015)
(-0.0389878 -0.228329 1.02636e-317 0.0596603 -2.42554e-318 -0.0206725)
(-0.0105482 -0.25272 7.82081e-318 0.0195152 -1.20804e-318 -0.00896705)
(-0.000626677 -0.271512 6.09352e-318 0.00452253 -4.75677e-319 -0.00389586)
(0.0186902 -0.282289 4.98339e-318 -0.0170104 -3.50194e-320 -0.0016798)
(0.0265693 -0.291452 4.20192e-318 -0.0259417 2.01366e-319 -0.000627671)
(0.0380839 -0.296139 3.6533e-318 -0.038016 3.18643e-319 -6.7848e-05)
(0.0420231 -0.300014 3.24891e-318 -0.0423141 3.64522e-319 0.000291089)
(0.0493403 -0.303078 2.9428e-318 -0.0499584 3.67323e-319 0.000618045)
(0.0513691 -0.305077 2.69658e-318 -0.0522919 3.47412e-319 0.000922832)
(0.0594199 -0.308097 2.47821e-318 -0.0607185 3.16148e-319 0.00129863)
(0.0626386 -0.307524 2.25761e-318 -0.0643758 2.81637e-319 0.00173714)
(0.0783718 -0.308386 1.99936e-318 -0.0807494 2.48574e-319 0.00237755)
(0.0866756 -0.297342 1.67051e-318 -0.090178 2.15353e-319 0.00350246)
(0.120433 -0.287947 1.2291e-318 -0.126284 1.72953e-319 0.00585074)
(0.137887 -0.243489 6.68219e-319 -0.14964 9.72469e-320 0.0117529)
(0.192585 -0.210035 -4.53552e-321 -0.219791 -5.47326e-320 0.0272064)
(0.213429 -0.0949677 -6.8807e-319 -0.284897 -3.82165e-319 0.071468)
(0.14319 -0.031935 -1.24427e-318 -0.343922 -1.13615e-318 0.200733)
(0.0197725 -0.303199 1.41463e-317 0.0128285 2.00077e-317 -0.032601)
(-0.00334036 -0.281086 1.07736e-317 0.0197125 1.23768e-317 -0.0163722)
(0.0229684 -0.23781 6.88071e-318 -0.0158048 8.65773e-318 -0.0071636)
(0.043974 -0.247258 4.80874e-318 -0.0408032 6.33416e-318 -0.00317083)
(0.0535293 -0.237921 3.46418e-318 -0.0521101 4.95465e-318 -0.00141922)
(0.0678766 -0.243741 2.69434e-318 -0.0672255 3.91323e-318 -0.000651125)
(0.0701909 -0.241523 2.18992e-318 -0.0699166 3.0982e-318 -0.000274274)
(0.0765749 -0.243491 1.86e-318 -0.0765159 2.4033e-318 -5.90593e-05)
(0.0756758 -0.242884 1.62929e-318 -0.0757623 1.79364e-318 8.651e-05)
(0.0786127 -0.241664 1.4642e-318 -0.0788467 1.24108e-318 0.000233948)
(0.0759908 -0.241746 1.33992e-318 -0.0763617 7.31785e-319 0.00037094)
(0.0789023 -0.236946 1.23664e-318 -0.0794518 2.56336e-319 0.000549448)
(0.0753831 -0.237415 1.13512e-318 -0.076134 -1.86742e-319 0.000750969)
(0.0830355 -0.227012 1.00978e-318 -0.0840754 -5.93773e-319 0.00103991)
(0.0797009 -0.227664 8.26438e-319 -0.0812088 -9.4578e-319 0.00150794)
(0.103962 -0.20759 5.37e-319 -0.106377 -1.21765e-318 0.00241466)
(0.100784 -0.209784 5.45152e-320 -0.105412 -1.35038e-318 0.00462787)
(0.168301 -0.174615 -5.96569e-319 -0.17876 -1.26437e-318 0.0104596)
(0.148115 -0.184558 -1.62208e-318 -0.177514 -9.91708e-319 0.0293995)
(0.219901 -0.0654152 -2.47372e-318 -0.330343 -6.77147e-319 0.110441)
)
;

boundaryField
{
    cavity
    {
        type            mySigma;
    }
    lid
    {
        type            fixedValue;
        value           uniform (0.1 -0.3 0 -0.1 0 0);
    }
    frontAndBack
    {
        type            empty;
    }
}


// ************************************************************************* //
