/*--------------------------------*- C++ -*----------------------------------*\
| =========                 |                                                 |
| \\      /  F ield         | foam-extend: Open Source CFD                    |
|  \\    /   O peration     | Version:  3.0                                   |
|   \\  /    A nd           | Web:         http://www.extend-project.de       |
|    \\/     M anipulation  |                                                 |
\*---------------------------------------------------------------------------*/
FoamFile
{
    version     2.0;
    format      ascii;
    class       volScalarField;
    location    "6.9";
    object      p;
}
// * * * * * * * * * * * * * * * * * * * * * * * * * * * * * * * * * * * * * //

dimensions      [0 0 0 0 0 0 0];

internalField   nonuniform List<scalar> 
400
(
1.41814
0.816312
0.825932
0.640268
0.818587
0.745669
0.954658
0.911172
1.11794
1.08111
1.28486
1.24634
1.44908
1.39732
1.58771
1.49508
1.62941
1.42466
1.38389
0.838875
2.19408
1.69793
1.6226
1.35693
1.41835
1.23679
1.3283
1.17648
1.26779
1.12326
1.20768
1.05755
1.13331
0.966537
1.02773
0.828415
0.84951
0.580615
0.477376
0.0410511
1.85223
1.39031
1.37377
1.16627
1.26583
1.13561
1.26219
1.15365
1.28594
1.1807
1.3169
1.20689
1.34652
1.22325
1.35562
1.20091
1.28946
1.05836
1.01044
0.589548
1.88536
1.5469
1.48381
1.30298
1.34017
1.20976
1.27055
1.15291
1.21705
1.10195
1.16884
1.05335
1.1255
1.00472
1.07567
0.933111
0.968478
0.760892
0.66953
0.322031
1.60514
1.27641
1.27645
1.13218
1.22085
1.12862
1.24203
1.16145
1.28968
1.21085
1.36005
1.28128
1.45732
1.37326
1.56703
1.4544
1.61703
1.4104
1.41048
0.967025
1.51189
1.2523
1.23249
1.12328
1.16538
1.09122
1.14375
1.07479
1.13243
1.06664
1.13909
1.08127
1.18072
1.13029
1.25843
1.19078
1.3108
1.13935
1.11606
0.62539
1.35099
1.12745
1.14711
1.0673
1.13896
1.08706
1.17659
1.12614
1.23877
1.18925
1.34227
1.30008
1.51241
1.47828
1.75477
1.7
1.9919
1.80211
1.91104
1.25376
1.20024
1.06558
1.07193
1.02781
1.05346
1.01855
1.04355
1.00472
1.03651
1.00097
1.0574
1.03882
1.14322
1.14996
1.3198
1.32605
1.53425
1.40328
1.46413
0.760482
1.09771
1.05362
1.07228
1.05961
1.08706
1.06457
1.10506
1.07013
1.13934
1.10151
1.22427
1.19943
1.40932
1.41006
1.7369
1.74063
2.15906
2.01203
2.27868
1.42088
0.909657
0.979724
0.994284
1.01592
1.00253
0.992143
0.970078
0.941024
0.924141
0.892768
0.900951
0.890593
0.954581
0.989175
1.14412
1.2149
1.45838
1.41154
1.5468
0.764456
0.839006
1.03124
1.03315
1.08848
1.05781
1.05593
1.03333
0.999475
1.00231
0.954457
1.00804
0.971311
1.11957
1.12413
1.42623
1.47643
1.95977
1.91266
2.36915
1.51977
0.644009
0.941142
0.95895
1.04356
0.988372
0.994652
0.920846
0.88686
0.808154
0.756591
0.688844
0.651231
0.625564
0.645737
0.709891
0.819605
1.00639
1.1042
1.27421
0.717133
0.60915
1.01884
1.00545
1.12269
1.0446
1.05961
0.977752
0.935263
0.861724
0.784656
0.738813
0.658868
0.685415
0.651883
0.832426
0.898719
1.33509
1.45123
2.09362
1.61802
0.452096
0.926993
0.951949
1.09059
1.00819
1.0286
0.911476
0.864055
0.72224
0.632247
0.474135
0.376881
0.22566
0.182181
0.0869041
0.187141
0.214838
0.499784
0.633027
0.7158
0.475325
1.01598
1.00237
1.1686
1.06829
1.09838
0.971448
0.914559
0.767233
0.648255
0.490438
0.342164
0.20624
0.09027
0.0595543
0.0891514
0.33451
0.644663
1.39572
1.74594
0.417964
0.97233
1.00605
1.18315
1.09042
1.12166
0.972584
0.906599
0.709109
0.571566
0.325771
0.148431
-0.138678
-0.29075
-0.583596
-0.565285
-0.776389
-0.328099
-0.327577
0.808706
0.54099
1.08439
1.08444
1.27918
1.17564
1.2138
1.05369
0.977573
0.767679
0.603351
0.342886
0.116206
-0.188008
-0.420264
-0.713747
-0.793873
-0.885484
-0.437254
0.205528
1.77699
0.670029
1.16998
1.1989
1.38701
1.28471
1.31336
1.13663
1.04653
0.806312
0.623026
0.310532
0.0528627
-0.348265
-0.634237
-1.11704
-1.26907
-1.74783
-1.28995
-1.52719
0.84526
0.94767
1.34331
1.34916
1.53694
1.42217
1.44655
1.25466
1.15222
0.897139
0.694165
0.362877
0.0688534
-0.365846
-0.723017
-1.2631
-1.53333
-2.05354
-1.67554
-1.58815
1.24301
1.38396
1.66014
1.64027
1.78464
1.64395
1.63356
1.4259
1.30064
1.03861
0.819904
0.483085
0.16629
-0.287425
-0.702034
-1.30367
-1.71561
-2.40364
-2.2973
-2.80004
0.163891
)
;

boundaryField
{
    cavity
    {
        type            implicitExtrapolation;
    }
    lid
    {
        type            implicitExtrapolation;
    }
    frontAndBack
    {
        type            empty;
    }
}


// ************************************************************************* //
