/*--------------------------------*- C++ -*----------------------------------*\
| =========                 |                                                 |
| \\      /  F ield         | foam-extend: Open Source CFD                    |
|  \\    /   O peration     | Version:  3.0                                   |
|   \\  /    A nd           | Web:         http://www.extend-project.de       |
|    \\/     M anipulation  |                                                 |
\*---------------------------------------------------------------------------*/
FoamFile
{
    version     2.0;
    format      ascii;
    class       volVectorField;
    location    "6.9";
    object      s;
}
// * * * * * * * * * * * * * * * * * * * * * * * * * * * * * * * * * * * * * //

dimensions      [0 0 0 0 0 0 0];

internalField   nonuniform List<vector> 
400
(
(-0.0121689 0.0220889 9.18561e-318)
(-0.0203917 0.0321421 1.60137e-317)
(-0.0438986 0.0334293 1.80945e-317)
(-0.0564883 0.0278292 1.81189e-317)
(-0.0741302 0.0236498 1.7297e-317)
(-0.0845622 0.0176079 1.61407e-317)
(-0.0957163 0.0132721 1.48838e-317)
(-0.102304 0.00838831 1.36571e-317)
(-0.107596 0.00438142 1.24744e-317)
(-0.109823 4.62876e-05 1.14004e-317)
(-0.10956 -0.00408745 1.03908e-317)
(-0.107039 -0.00866188 9.49532e-318)
(-0.100985 -0.0133063 8.66219e-318)
(-0.0934629 -0.0185383 7.91914e-318)
(-0.0812234 -0.0234552 7.22874e-318)
(-0.0692139 -0.0290415 6.5758e-318)
(-0.051078 -0.0327917 5.9195e-318)
(-0.0371518 -0.0364908 5.15236e-318)
(-0.015633 -0.0337673 4.05884e-318)
(-0.0072 -0.021955 2.11788e-318)
(-0.0134035 0.0132687 1.15485e-317)
(-0.0304966 0.0303161 2.24684e-317)
(-0.0571863 0.037408 2.69799e-317)
(-0.0769646 0.0370891 2.81466e-317)
(-0.0995735 0.0331975 2.76422e-317)
(-0.115911 0.0270439 2.63686e-317)
(-0.131562 0.0202632 2.4734e-317)
(-0.141923 0.0130117 2.30309e-317)
(-0.149737 0.00575125 2.13066e-317)
(-0.153114 -0.00159244 1.96923e-317)
(-0.152766 -0.00898859 1.81336e-317)
(-0.148666 -0.0163754 1.6714e-317)
(-0.13993 -0.0237167 1.53539e-317)
(-0.128341 -0.0306425 1.41019e-317)
(-0.11148 -0.0367687 1.28722e-317)
(-0.093572 -0.0411808 1.16554e-317)
(-0.0704293 -0.0427591 1.03255e-317)
(-0.0498295 -0.0396415 8.73427e-318)
(-0.0251187 -0.0296838 6.5162e-318)
(-0.00895553 -0.0113117 3.0598e-318)
(-0.0133127 0.0403984 1.00962e-317)
(-0.0294676 0.072778 2.05514e-317)
(-0.056121 0.0827596 2.5522e-317)
(-0.075154 0.0787863 2.7396e-317)
(-0.0967586 0.0697551 2.75519e-317)
(-0.112438 0.0567936 2.68156e-317)
(-0.127339 0.043251 2.55868e-317)
(-0.137496 0.0287783 2.41687e-317)
(-0.145215 0.0144165 2.2642e-317)
(-0.148922 -0.000283743 2.1145e-317)
(-0.149081 -0.0151126 1.96526e-317)
(-0.145715 -0.0301745 1.82457e-317)
(-0.137835 -0.0452792 1.68602e-317)
(-0.127065 -0.0599231 1.5535e-317)
(-0.111008 -0.0732937 1.41802e-317)
(-0.0935668 -0.0840199 1.27728e-317)
(-0.0706337 -0.0898412 1.11637e-317)
(-0.0498438 -0.0880095 9.20817e-318)
(-0.0243473 -0.0729928 6.57766e-318)
(-0.00831958 -0.0374277 2.83839e-318)
(-0.00936798 0.0407729 7.21266e-318)
(-0.0229713 0.0785718 1.54905e-317)
(-0.042221 0.0920366 2.00106e-317)
(-0.0573975 0.0895885 2.22552e-317)
(-0.0742159 0.080148 2.3076e-317)
(-0.0870308 0.066082 2.30753e-317)
(-0.0993408 0.0505364 2.25408e-317)
(-0.1081 0.0338382 2.17323e-317)
(-0.115028 0.0168117 2.07294e-317)
(-0.118835 -0.000673409 1.96616e-317)
(-0.119761 -0.018567 1.85269e-317)
(-0.117908 -0.0367129 1.73966e-317)
(-0.112162 -0.0550706 1.62256e-317)
(-0.104094 -0.0725794 1.50394e-317)
(-0.0912682 -0.0886617 1.37527e-317)
(-0.0771912 -0.100572 1.23239e-317)
(-0.0582709 -0.106544 1.06065e-317)
(-0.040635 -0.101236 8.45148e-318)
(-0.020039 -0.0805552 5.66492e-318)
(-0.00559168 -0.036484 2.05375e-318)
(-0.0080839 0.0509216 4.27994e-318)
(-0.0172975 0.0962276 1.01264e-317)
(-0.0326381 0.111559 1.3933e-317)
(-0.0434394 0.108587 1.63442e-317)
(-0.0564947 0.097312 1.76976e-317)
(-0.0660432 0.0806861 1.8349e-317)
(-0.0758292 0.0622796 1.847e-317)
(-0.0829433 0.0423924 1.82578e-317)
(-0.0890455 0.0220255 1.77864e-317)
(-0.0930205 0.000877482 1.71713e-317)
(-0.0949007 -0.0209456 1.64284e-317)
(-0.0949812 -0.0434157 1.56263e-317)
(-0.0916966 -0.0664549 1.47396e-317)
(-0.0869486 -0.0888806 1.37917e-317)
(-0.0773144 -0.109992 1.27179e-317)
(-0.0671407 -0.126289 1.1478e-317)
(-0.050814 -0.135736 9.94943e-318)
(-0.0366865 -0.130934 7.997e-318)
(-0.016809 -0.107208 5.4467e-318)
(-0.0055829 -0.0512602 2.08912e-318)
(-0.00556222 0.0511387 1.56726e-318)
(-0.0114121 0.0979443 5.11975e-318)
(-0.0209563 0.114721 8.17549e-318)
(-0.0275719 0.112175 1.06283e-317)
(-0.036174 0.101205 1.23869e-317)
(-0.0425513 0.0843675 1.35834e-317)
(-0.0496209 0.0656941 1.42833e-317)
(-0.0551252 0.0452324 1.4621e-317)
(-0.0603339 0.0241586 1.46578e-317)
(-0.0644614 0.0019656 1.44918e-317)
(-0.0672856 -0.021205 1.41542e-317)
(-0.0693248 -0.0454968 1.37066e-317)
(-0.0686651 -0.0708402 1.31459e-317)
(-0.0674389 -0.0960383 1.24928e-317)
(-0.0615084 -0.120321 1.17041e-317)
(-0.0556485 -0.139526 1.07409e-317)
(-0.0428411 -0.151313 9.49608e-318)
(-0.0325393 -0.146186 7.8264e-318)
(-0.014468 -0.119211 5.52587e-318)
(-0.00564644 -0.0545545 2.27572e-318)
(-0.00404056 0.0530907 -3.097e-319)
(-0.00659079 0.101686 1.48405e-318)
(-0.0120606 0.119264 3.85657e-318)
(-0.0150755 0.116934 6.2117e-318)
(-0.0201318 0.106105 8.16817e-318)
(-0.0237175 0.0890277 9.69247e-318)
(-0.028415 0.0701869 1.07719e-317)
(-0.0323977 0.0492513 1.1487e-317)
(-0.0367017 0.0276786 1.1887e-317)
(-0.0408575 0.00458256 1.20531e-317)
(-0.044418 -0.0197446 1.20228e-317)
(-0.0482264 -0.0458747 1.18536e-317)
(-0.0499036 -0.0735772 1.1556e-317)
(-0.0521274 -0.102126 1.11524e-317)
(-0.0495256 -0.130293 1.06182e-317)
(-0.0481529 -0.154188 9.92038e-318)
(-0.0380208 -0.170214 8.96677e-318)
(-0.0318674 -0.168206 7.60528e-318)
(-0.0133253 -0.140482 5.57861e-318)
(-0.00758444 -0.0674945 2.45397e-318)
(-0.00195739 0.0513092 -1.58972e-318)
(-0.00230181 0.0982976 -1.10534e-318)
(-0.0030992 0.116018 6.74474e-319)
(-0.00306208 0.113936 2.84168e-318)
(-0.00436897 0.104124 4.85216e-318)
(-0.00538409 0.0878404 6.55471e-318)
(-0.00755886 0.0701097 7.8786e-318)
(-0.0099516 0.050041 8.86043e-318)
(-0.0130842 0.0293929 9.5337e-318)
(-0.0169421 0.00687341 9.96245e-318)
(-0.0208674 -0.0171015 1.01865e-317)
(-0.0259596 -0.0435549 1.02572e-317)
(-0.0296979 -0.0721897 1.01961e-317)
(-0.0349105 -0.102823 1.00267e-317)
(-0.035822 -0.133978 9.73619e-318)
(-0.0386679 -0.162034 9.2999e-318)
(-0.0321984 -0.182475 8.63148e-318)
(-0.0299871 -0.183793 7.57769e-318)
(-0.0126331 -0.156088 5.82009e-318)
(-0.00890601 -0.0750897 2.79033e-318)
(-0.000121442 0.0492004 -2.11153e-318)
(0.0014426 0.0946247 -2.42386e-318)
(0.00458176 0.112027 -1.14107e-318)
(0.0070761 0.110437 7.49675e-319)
(0.00900886 0.101572 2.65603e-318)
(0.0102157 0.0863191 4.36145e-318)
(0.0104169 0.0698437 5.7634e-318)
(0.00964117 0.050923 6.86208e-318)
(0.00790072 0.0315243 7.67755e-318)
(0.00471384 0.00998527 8.25617e-318)
(0.000946148 -0.0131084 8.63375e-318)
(-0.00486641 -0.0393606 8.85296e-318)
(-0.0100182 -0.0682334 8.93806e-318)
(-0.0178262 -0.100561 8.91005e-318)
(-0.0217615 -0.134132 8.76384e-318)
(-0.0291523 -0.16689 8.477e-318)
(-0.0260932 -0.192013 7.97181e-318)
(-0.0292155 -0.199531 7.10297e-318)
(-0.0120275 -0.173552 5.5354e-318)
(-0.0123719 -0.0881075 2.7075e-318)
(0.00155461 0.0451275 -2.25912e-318)
(0.00448559 0.0870687 -3.04539e-318)
(0.0113843 0.103851 -2.16498e-318)
(0.0160514 0.102671 -5.74297e-319)
(0.0211731 0.095137 1.15776e-318)
(0.024548 0.081344 2.78496e-318)
(0.0272455 0.0666661 4.18148e-318)
(0.028299 0.0495098 5.32359e-318)
(0.0283126 0.0320235 6.21436e-318)
(0.0263477 0.0122599 6.88584e-318)
(0.0233576 -0.00910876 7.36658e-318)
(0.0177516 -0.0341279 7.6922e-318)
(0.0118928 -0.0622362 7.88488e-318)
(0.00271349 -0.0950774 7.9638e-318)
(-0.00399058 -0.130302 7.92307e-318)
(-0.014617 -0.166934 7.74347e-318)
(-0.0161579 -0.197255 7.34754e-318)
(-0.0233341 -0.21116 6.60559e-318)
(-0.0101285 -0.18923 5.19241e-318)
(-0.0123951 -0.099371 2.58573e-318)
(0.00351202 0.0412091 -2.04385e-318)
(0.00712875 0.0796767 -3.03109e-318)
(0.0173741 0.0951434 -2.46978e-318)
(0.0235138 0.0945177 -1.18698e-318)
(0.0313916 0.0879917 3.15545e-319)
(0.0365385 0.0757746 1.78736e-318)
(0.0415641 0.0628249 3.09862e-318)
(0.0444104 0.047576 4.20537e-318)
(0.0463567 0.0321475 5.09857e-318)
(0.0459554 0.0144608 5.79494e-318)
(0.04432 -0.00471936 6.31542e-318)
(0.0395787 -0.0278779 6.68528e-318)
(0.033927 -0.0542359 6.92119e-318)
(0.0239853 -0.086574 7.03516e-318)
(0.0154512 -0.121798 7.01942e-318)
(0.00121261 -0.16139 6.8503e-318)
(-0.00434858 -0.194867 6.45516e-318)
(-0.0182197 -0.216119 5.72164e-318)
(-0.00762362 -0.197221 4.38182e-318)
(-0.0166779 -0.108242 2.06545e-318)
(0.00432525 0.035199 -1.71902e-318)
(0.00900216 0.0695918 -2.76029e-318)
(0.0216675 0.084031 -2.44063e-318)
(0.0294479 0.0839488 -1.43228e-318)
(0.0397519 0.0786608 -1.59331e-319)
(0.0467439 0.0681011 1.14296e-318)
(0.0540214 0.0570295 2.34146e-318)
(0.0588091 0.0438459 3.38171e-318)
(0.0628698 0.0306441 4.24338e-318)
(0.0644969 0.0153248 4.93266e-318)
(0.0647685 -0.00135009 5.46213e-318)
(0.0619414 -0.0220428 5.84934e-318)
(0.0574156 -0.0460423 6.10526e-318)
(0.0485852 -0.0767566 6.23704e-318)
(0.0390023 -0.111261 6.23157e-318)
(0.0239732 -0.15243 6.06387e-318)
(0.0133658 -0.189657 5.66084e-318)
(-0.00338722 -0.218249 4.92816e-318)
(-0.00191757 -0.207203 3.66343e-318)
(-0.0120908 -0.12146 1.62171e-318)
(0.00594594 0.0310961 -1.45201e-318)
(0.0101597 0.0609128 -2.45401e-318)
(0.0250158 0.0733049 -2.28153e-318)
(0.0334023 0.0735242 -1.48322e-318)
(0.0456244 0.0689635 -4.08948e-319)
(0.053831 0.0599971 7.26785e-319)
(0.0629553 0.0505807 1.80136e-318)
(0.069332 0.0394242 2.75474e-318)
(0.075346 0.0283709 3.56102e-318)
(0.0789471 0.0154668 4.21745e-318)
(0.0813769 0.001461 4.72992e-318)
(0.0807529 -0.0163857 5.1076e-318)
(0.0781894 -0.0372429 5.35654e-318)
(0.0708829 -0.065204 5.47607e-318)
(0.061695 -0.0968774 5.44989e-318)
(0.0453156 -0.137447 5.24829e-318)
(0.031538 -0.174082 4.80659e-318)
(0.00783235 -0.207527 4.04393e-318)
(0.00410992 -0.198252 2.83502e-318)
(-0.0167457 -0.1185 1.07577e-318)
(0.00566693 0.0241043 -1.06669e-318)
(0.0107908 0.0502801 -1.96551e-318)
(0.0264948 0.0613245 -1.91499e-318)
(0.0360904 0.0620261 -1.30755e-318)
(0.0497345 0.0583558 -4.2916e-319)
(0.0592249 0.0509015 5.36333e-319)
(0.0698667 0.0431157 1.47254e-318)
(0.0777264 0.0338883 2.32019e-318)
(0.0855106 0.0248767 3.04883e-318)
(0.0911795 0.0143136 3.64984e-318)
(0.0959199 0.00288944 4.12376e-318)
(0.0982393 -0.0119775 4.47469e-318)
(0.0983229 -0.0295583 4.70469e-318)
(0.0945855 -0.0540501 4.81015e-318)
(0.0867926 -0.0824876 4.77192e-318)
(0.0733878 -0.121066 4.56178e-318)
(0.0557742 -0.15798 4.12175e-318)
(0.0330283 -0.196779 3.38522e-318)
(0.0146992 -0.19756 2.28404e-318)
(-0.00359023 -0.132227 7.78524e-319)
(0.00623894 0.020832 -1.14853e-318)
(0.00991435 0.0418068 -1.89569e-318)
(0.0261967 0.0504196 -1.83056e-318)
(0.0355886 0.0509324 -1.29778e-318)
(0.0498844 0.0477388 -5.35582e-319)
(0.0597043 0.0416738 3.08248e-319)
(0.0710499 0.0353157 1.13568e-318)
(0.0796085 0.0279022 1.89275e-318)
(0.0884694 0.020715 2.55079e-318)
(0.0955088 0.0123199 3.09915e-318)
(0.102139 0.00329137 3.53487e-318)
(0.106803 -0.00861665 3.85854e-318)
(0.109732 -0.0227175 4.06889e-318)
(0.108989 -0.0430029 4.15887e-318)
(0.104086 -0.0666012 4.1103e-318)
(0.0921576 -0.100387 3.89417e-318)
(0.074603 -0.132205 3.46649e-318)
(0.0466588 -0.169245 2.77242e-318)
(0.0236653 -0.167667 1.79072e-318)
(-0.00939006 -0.108903 5.27583e-319)
(0.00499851 0.0142958 -5.77731e-319)
(0.00926517 0.0324098 -1.23057e-318)
(0.0252367 0.0392998 -1.27676e-318)
(0.0352367 0.0400786 -9.18226e-319)
(0.0498855 0.0374274 -3.34897e-319)
(0.0599475 0.0326287 3.40762e-319)
(0.07161 0.0276225 1.02095e-318)
(0.0804802 0.0218163 1.65258e-318)
(0.0899733 0.0162901 2.20753e-318)
(0.0980905 0.00980993 2.67213e-318)
(0.106278 0.00294889 3.04207e-318)
(0.113521 -0.00624418 3.31601e-318)
(0.119325 -0.0170482 3.49165e-318)
(0.123255 -0.0331476 3.56185e-318)
(0.121737 -0.0519426 3.50996e-318)
(0.116491 -0.080696 3.31367e-318)
(0.0981853 -0.108709 2.93695e-318)
(0.0779831 -0.147171 2.34068e-318)
(0.0375127 -0.155063 1.52065e-318)
(0.0166514 -0.123578 4.79179e-319)
(0.00377874 0.0121503 -1.05437e-318)
(0.006059 0.0245839 -1.46422e-318)
(0.0205631 0.0290578 -1.38492e-318)
(0.0294109 0.029265 -1.007e-318)
(0.0427517 0.027138 -4.81882e-319)
(0.051811 0.0236267 1.05508e-319)
(0.062294 0.0198919 6.88668e-319)
(0.0703491 0.0156493 1.2289e-318)
(0.0791405 0.0115035 1.7052e-318)
(0.0869387 0.00670294 2.10528e-318)
(0.095356 0.00154749 2.42655e-318)
(0.10321 -0.00523179 2.66622e-318)
(0.110803 -0.0132394 2.82156e-318)
(0.116668 -0.02496 2.88511e-318)
(0.119036 -0.0387484 2.84348e-318)
(0.11627 -0.0596496 2.67771e-318)
(0.103093 -0.079943 2.36579e-318)
(0.08063 -0.107244 1.88027e-318)
(0.0439612 -0.107947 1.23148e-318)
(0.00540463 -0.0726866 4.1714e-319)
(0.00199379 0.00747406 6.09134e-320)
(0.00463143 0.0175452 -4.77317e-319)
(0.0185596 0.0201222 -6.05235e-319)
(0.0268554 0.0204378 -4.63666e-319)
(0.0395347 0.0186999 -1.33521e-319)
(0.047228 0.0161931 2.68273e-319)
(0.0567262 0.013633 6.87319e-319)
(0.063498 0.0106401 1.07991e-318)
(0.0714536 0.00788893 1.42852e-318)
(0.0786673 0.00452974 1.72094e-318)
(0.0869234 0.00116093 1.95448e-318)
(0.095593 -0.00353029 2.12688e-318)
(0.104371 -0.00864593 2.2362e-318)
(0.113695 -0.0167605 2.27785e-318)
(0.119113 -0.0254919 2.24069e-318)
(0.124413 -0.0409045 2.11299e-318)
(0.11365 -0.0545523 1.87772e-318)
(0.106559 -0.0812924 1.51803e-318)
(0.0551717 -0.0876876 1.03955e-318)
(0.047568 -0.0931202 4.22564e-319)
(-0.000633034 0.00582996 -8.44719e-319)
(7.70041e-06 0.00960127 -9.50795e-319)
(0.00905268 0.0105086 -8.54269e-319)
(0.014484 0.0104211 -6.26791e-319)
(0.0223849 0.0095662 -3.48148e-319)
(0.0274059 0.00845455 -4.54046e-320)
(0.0330562 0.0070272 2.50649e-319)
(0.0373532 0.00547079 5.2371e-319)
(0.0421889 0.0036937 7.64265e-319)
(0.0467253 0.00167788 9.6742e-319)
(0.0522588 -0.00066325 1.13155e-318)
(0.0578083 -0.0035244 1.25493e-318)
(0.0646342 -0.00697977 1.33634e-318)
(0.0707401 -0.0114044 1.37186e-318)
(0.0770139 -0.0168048 1.35511e-318)
(0.0799767 -0.0235557 1.27898e-318)
(0.0778448 -0.0310748 1.13759e-318)
(0.0679032 -0.0376289 9.2494e-319)
(0.0416165 -0.0371362 6.50447e-319)
(0.0140159 -0.0109597 3.00723e-319)
(-0.0010661 0.00311537 6.70131e-319)
(0.000736515 0.00581071 1.81569e-319)
(0.00849703 0.0055144 3.32062e-320)
(0.0113398 0.00549065 -4.79738e-321)
(0.0174746 0.00486929 7.43865e-320)
(0.0193786 0.00415253 1.77473e-319)
(0.0233966 0.00374084 2.93599e-319)
(0.0251465 0.00299227 4.00312e-319)
(0.0283398 0.00270193 4.94579e-319)
(0.0309216 0.00193965 5.72434e-319)
(0.0345121 0.00167836 6.33891e-319)
(0.0388341 0.000660669 6.78787e-319)
(0.0434679 0.000361741 7.07235e-319)
(0.0502212 -0.00147185 7.18604e-319)
(0.0549868 -0.00181245 7.09488e-319)
(0.0639888 -0.00611258 6.76885e-319)
(0.0624555 -0.00615092 6.14959e-319)
(0.0720369 -0.0191612 5.19471e-319)
(0.0393965 -0.0173633 3.97688e-319)
(0.0620222 -0.0549016 2.32759e-319)
)
;

boundaryField
{
    cavity
    {
        type            myHeatFlux;
        ThetaWall       uniform 0;
        value           nonuniform List<vector> 
60
(
(0.001 0 0)
(0.001 0 0)
(0.001 0 0)
(0.001 0 0)
(0.001 0 0)
(0.001 0 0)
(0.001 0 0)
(0.001 0 0)
(0.001 0 0)
(0.001 0 0)
(0.001 0 0)
(0.001 0 0)
(0.001 0 0)
(0.001 0 0)
(0.001 0 0)
(0.001 0 0)
(0.001 0 0)
(0.001 0 0)
(0.001 0 0)
(0.001 0 0)
(0 -0.001 0)
(0 -0.001 0)
(0 -0.001 0)
(0 -0.001 0)
(0 -0.001 0)
(0 -0.001 0)
(0 -0.001 0)
(0 -0.001 0)
(0 -0.001 0)
(0 -0.001 0)
(0 -0.001 0)
(0 -0.001 0)
(0 -0.001 0)
(0 -0.001 0)
(0 -0.001 0)
(0 -0.001 0)
(0 -0.001 0)
(0 -0.001 0)
(0 -0.001 0)
(0 -0.001 0)
(-0.001 0 0)
(-0.001 0 0)
(-0.001 0 0)
(-0.001 0 0)
(-0.001 0 0)
(-0.001 0 0)
(-0.001 0 0)
(-0.001 0 0)
(-0.001 0 0)
(-0.001 0 0)
(-0.001 0 0)
(-0.001 0 0)
(-0.001 0 0)
(-0.001 0 0)
(-0.001 0 0)
(-0.001 0 0)
(-0.001 0 0)
(-0.001 0 0)
(-0.001 0 0)
(-0.001 0 0)
)
;
    }
    lid
    {
        type            myHeatFlux;
        ThetaWall       uniform 0;
        value           nonuniform List<vector> 
20
(
(0.000135815 0.0009 0)
(0.000135815 0.0009 0)
(0.000135815 0.0009 0)
(0.000135815 0.0009 0)
(0.000135815 0.0009 0)
(0.000135815 0.0009 0)
(0.000135815 0.0009 0)
(0.000135815 0.0009 0)
(0.000135815 0.0009 0)
(0.000135815 0.0009 0)
(0.000135815 0.0009 0)
(0.000135815 0.0009 0)
(0.000135815 0.0009 0)
(0.000135815 0.0009 0)
(0.000135815 0.0009 0)
(0.000135815 0.0009 0)
(0.000135815 0.0009 0)
(0.000135815 0.0009 0)
(0.000135815 0.0009 0)
(0.000135815 0.0009 0)
)
;
    }
    frontAndBack
    {
        type            empty;
    }
}


// ************************************************************************* //
