/*--------------------------------*- C++ -*----------------------------------*\
| =========                 |                                                 |
| \\      /  F ield         | foam-extend: Open Source CFD                    |
|  \\    /   O peration     | Version:  3.0                                   |
|   \\  /    A nd           | Web:         http://www.extend-project.de       |
|    \\/     M anipulation  |                                                 |
\*---------------------------------------------------------------------------*/
FoamFile
{
    version     2.0;
    format      ascii;
    class       volScalarField;
    location    "1.1";
    object      p;
}
// * * * * * * * * * * * * * * * * * * * * * * * * * * * * * * * * * * * * * //

dimensions      [0 0 0 0 0 0 0];

internalField   nonuniform List<scalar> 
300
(
4.27775e+11
-5.94337e+11
1.57829e+11
-1.09817e+11
-3.14802e+11
-3.73683e+10
3.32353e+10
-1.16034e+10
1.02545e+10
2.79673e+09
-3.38563e+10
-1.32887e+10
4.10231e+09
3.11073e+10
-3.97694e+10
1.50191e+10
-1.72578e+10
4.6049e+09
-4.83547e+09
-1.13805e+09
-2.40047e+10
3.52963e+10
2.24581e+10
-3.47498e+10
4.30217e+10
-1.6231e+10
2.08493e+10
-5.52748e+09
5.89331e+09
1.59013e+09
-6.21972e+10
-1.79485e+10
-6.83122e+09
7.78368e+09
-1.14023e+10
4.54008e+09
-5.60015e+09
1.49782e+09
-1.69817e+09
-4.59388e+08
6.24944e+10
3.02412e+10
2.04182e+10
-5.86438e+09
1.75148e+10
-4.95473e+09
8.08305e+09
-1.81099e+09
2.39567e+09
7.71892e+08
-3.71088e+10
-1.49403e+10
-7.85168e+09
-1.1276e+08
-4.62386e+09
9.68524e+08
-2.06295e+09
3.9851e+08
-6.30954e+08
-1.94798e+08
3.73507e+10
2.03141e+10
1.36331e+10
1.25759e+09
7.80577e+09
-9.32812e+08
3.33411e+09
-4.28943e+08
1.00563e+09
3.94991e+08
-2.21769e+10
-1.08084e+10
-6.27791e+09
-1.89203e+09
-2.4878e+09
-1.54392e+08
-9.18509e+08
1.858e+07
-2.69007e+08
-1.04831e+08
2.16414e+10
1.28154e+10
8.44951e+09
2.42303e+09
3.86641e+09
2.29633e+08
1.50394e+09
4.30561e+06
4.53659e+08
2.1695e+08
-1.32514e+10
-7.24571e+09
-4.35446e+09
-1.82155e+09
-1.50736e+09
-3.86783e+08
-4.86925e+08
-8.23453e+07
-1.36886e+08
-6.79967e+07
1.24842e+10
7.84559e+09
5.06811e+09
2.03745e+09
2.05667e+09
4.33003e+08
7.37537e+08
1.02633e+08
2.21105e+08
1.24573e+08
-7.87901e+09
-4.64233e+09
-2.81465e+09
-1.35152e+09
-9.35168e+08
-3.45478e+08
-2.83116e+08
-8.69611e+07
-7.82738e+07
-4.59592e+07
7.19199e+09
4.71486e+09
2.98552e+09
1.41982e+09
1.13704e+09
3.67098e+08
3.84837e+08
9.88224e+07
1.14797e+08
7.30064e+07
-4.66052e+09
-2.89087e+09
-1.74991e+09
-9.07995e+08
-5.76099e+08
-2.50281e+08
-1.69787e+08
-6.67251e+07
-4.68674e+07
-3.03543e+07
4.14076e+09
2.79803e+09
1.73982e+09
9.13172e+08
6.40079e+08
2.57442e+08
2.0869e+08
7.2619e+07
6.21537e+07
4.29919e+07
-2.74472e+09
-1.76643e+09
-1.06313e+09
-5.80343e+08
-3.50381e+08
-1.66284e+08
-1.02247e+08
-4.55692e+07
-2.83343e+07
-1.94347e+07
2.38345e+09
1.64592e+09
1.00729e+09
5.6309e+08
3.63122e+08
1.66201e+08
1.15606e+08
4.79887e+07
3.4455e+07
2.52268e+07
-1.61053e+09
-1.06508e+09
-6.36564e+08
-3.60303e+08
-2.10626e+08
-1.05646e+08
-6.12989e+07
-2.94118e+07
-1.70793e+07
-1.21465e+07
1.3718e+09
9.62154e+08
5.8093e+08
3.38796e+08
2.06673e+08
1.02673e+08
6.47663e+07
3.00301e+07
1.93291e+07
1.47039e+07
-9.41817e+08
-6.35823e+08
-3.77446e+08
-2.19526e+08
-1.25434e+08
-6.53656e+07
-3.65183e+07
-1.83889e+07
-1.02334e+07
-7.46353e+06
7.89381e+08
5.5986e+08
3.34286e+08
2.00754e+08
1.17812e+08
6.18078e+07
3.65086e+07
1.82088e+07
1.09064e+07
8.51311e+06
-5.4857e+08
-3.7636e+08
-2.22139e+08
-1.31951e+08
-7.41369e+07
-3.97379e+07
-2.16211e+07
-1.12672e+07
-6.09345e+06
-4.53007e+06
4.53877e+08
3.24469e+08
1.92045e+08
1.17745e+08
6.72118e+07
3.66083e+07
2.06555e+07
1.08277e+07
6.17213e+06
4.90214e+06
-3.17382e+08
-2.20527e+08
-1.29659e+08
-7.8323e+07
-4.34831e+07
-2.38208e+07
-1.27181e+07
-6.80075e+06
-3.60495e+06
-2.7226e+06
2.60375e+08
1.8698e+08
1.1e+08
6.84423e+07
3.8316e+07
2.14283e+07
1.17055e+07
6.35321e+06
3.49668e+06
2.81112e+06
-1.80945e+08
-1.26514e+08
-7.43425e+07
-4.54798e+07
-2.50996e+07
-1.3993e+07
-7.38285e+06
-4.02921e+06
-2.10641e+06
-1.6169e+06
1.48605e+08
1.06181e+08
6.2304e+07
3.91003e+07
2.16404e+07
1.23312e+07
6.59314e+06
3.66764e+06
1.96779e+06
1.60163e+06
-9.95602e+07
-6.78288e+07
-4.00307e+07
-2.43897e+07
-1.35155e+07
-7.60287e+06
-4.00908e+06
-2.21851e+06
-1.14974e+06
-909645
8.41782e+07
5.73366e+07
3.36151e+07
2.07956e+07
1.1479e+07
6.57302e+06
3.47945e+06
1.95833e+06
1.0248e+06
861399
-5.03155e+07
-2.67485e+07
-1.58081e+07
-7.81811e+06
-4.34197e+06
-2.07183e+06
-1.10851e+06
-530080
-273384
-169590
)
;

boundaryField
{
    frontAndBack
    {
        type            empty;
    }
    symm
    {
        type            symmetryPlane;
    }
    in
    {
        type            implicitExtrapolation;
    }
    out
    {
        type            implicitExtrapolation;
    }
}


// ************************************************************************* //
