/*--------------------------------*- C++ -*----------------------------------*\
| =========                 |                                                 |
| \\      /  F ield         | foam-extend: Open Source CFD                    |
|  \\    /   O peration     | Version:  3.0                                   |
|   \\  /    A nd           | Web:         http://www.extend-project.de       |
|    \\/     M anipulation  |                                                 |
\*---------------------------------------------------------------------------*/
FoamFile
{
    version     2.0;
    format      ascii;
    class       volSymmTensorField;
    location    "1.1";
    object      sigma;
}
// * * * * * * * * * * * * * * * * * * * * * * * * * * * * * * * * * * * * * //

dimensions      [0 0 0 0 0 0 0];

internalField   nonuniform List<symmTensor> 
300
(
(-4.55997e+09 9.06479e+09 0.000168292 3.93365e+09 0.00101978 -0.000287426)
(1.05986e+10 -1.30586e+09 0.00343308 -8.80425e+09 0.00481286 -0.00293152)
(-5.79221e+09 2.90741e+09 0.0105545 3.15789e+09 0.0102997 -0.00838106)
(-5.60316e+09 1.19447e+09 0.0161665 -1.63873e+08 0.0117714 -0.0118394)
(1.644e+09 -2.94286e+07 0.00721324 -6.19244e+09 -0.00264007 -0.00184496)
(-1.51843e+08 1.78925e+08 -0.0321935 3.9376e+08 -0.0456669 0.0351155)
(2.42493e+09 1.8525e+07 -0.106487 -4.37856e+08 -0.118346 0.101456)
(4.70066e+08 1.83486e+08 -0.185444 1.57307e+08 -0.190792 0.167739)
(9.37503e+08 5.81003e+06 -0.181235 -1.10399e+08 -0.184306 0.153564)
(3.16632e+08 1.35671e+08 0.0508507 1.19288e+07 0.0276579 -0.0697005)
(2.24074e+09 -2.34056e+09 -0.000130869 -8.75359e+08 0.000724617 -4.06539e-05)
(6.76733e+08 -3.28304e+09 0.00267658 -1.51936e+09 0.00444649 -0.00243622)
(-2.24958e+09 2.40885e+09 0.0114582 3.38486e+08 0.012318 -0.00972323)
(-3.67989e+09 3.16049e+09 0.0233503 1.21334e+09 0.0203508 -0.0193545)
(1.84404e+09 -7.5811e+08 0.0224496 -1.15139e+09 0.0127323 -0.0166345)
(1.30522e+07 1.73357e+09 -0.0257277 2.41693e+08 -0.0420115 0.0312769)
(9.60456e+08 1.26816e+08 -0.164708 -3.36012e+08 -0.181535 0.167129)
(2.50409e+08 7.37667e+08 -0.397573 6.40173e+07 -0.404054 0.395323)
(3.22458e+08 1.05186e+08 -0.559666 -8.60979e+07 -0.551424 0.553808)
(8.15481e+07 2.04442e+08 -0.0604457 -2.07519e+07 -0.076338 0.0586383)
(7.80712e+08 -1.06737e+09 -0.000377502 -6.18949e+06 0.000416907 0.000156393)
(2.24651e+09 -1.46284e+09 0.00169431 -2.11562e+09 0.00355331 -0.0016364)
(1.05359e+09 1.72543e+09 0.0108986 -1.59463e+09 0.0123914 -0.0093658)
(-9.05564e+08 2.68513e+09 0.0280738 -8.24214e+08 0.0263059 -0.0241515)
(1.12454e+08 2.32281e+08 0.0431091 7.66594e+08 0.0346115 -0.0375618)
(-1.62774e+07 4.44577e+08 0.0245085 9.01117e+07 0.00847943 -0.0208989)
(4.40529e+08 2.42891e+08 -0.0818251 3.59656e+08 -0.0990548 0.0783629)
(1.72331e+08 1.4026e+08 -0.313521 6.32075e+07 -0.317325 0.301363)
(2.26649e+08 1.23601e+08 -0.543295 1.10303e+08 -0.523542 0.528651)
(1.11611e+08 1.90416e+07 -0.06239 2.50627e+07 -0.0779768 0.0598663)
(4.3663e+08 2.29268e+08 -0.000570399 2.35326e+08 0.000178751 0.000303749)
(1.29731e+08 9.77134e+08 0.000628686 -2.07167e+07 0.00257905 -0.000774247)
(7.87029e+06 1.60764e+09 0.0086329 -2.26762e+08 0.0107301 -0.00739454)
(-6.72397e+08 1.45315e+09 0.0255133 -8.05504e+07 0.0250322 -0.0216699)
(2.68911e+08 2.89294e+08 0.0439045 -1.41171e+08 0.0369785 -0.0377619)
(-2.68608e+08 6.25286e+08 0.0350433 3.20298e+08 0.0199695 -0.030059)
(1.40883e+08 1.71396e+08 -0.0566658 4.40192e+07 -0.0737659 0.054424)
(-5.24835e+07 2.8194e+08 -0.280002 1.61399e+08 -0.281941 0.267078)
(6.07686e+07 7.85171e+07 -0.525014 2.20206e+07 -0.497178 0.507005)
(-1.44717e+07 8.26231e+07 -0.0576774 3.59359e+07 -0.0709986 0.0534578)
(3.76026e+07 -1.50774e+08 -0.000680832 7.62503e+08 1.56137e-05 0.000379606)
(3.29253e+08 5.07288e+08 -0.000135237 1.71135e+08 0.00185353 -0.000209828)
(3.03042e+08 9.70885e+08 0.00666446 -4.05681e+07 0.00917617 -0.00578225)
(-1.16054e+08 1.14985e+09 0.0222533 -2.13507e+08 0.0226418 -0.0186486)
(4.52914e+07 2.34976e+08 0.0406899 3.15301e+08 0.0345828 -0.0340459)
(-3.90904e+07 2.48879e+08 0.0348957 8.58353e+07 0.0195044 -0.028035)
(8.70295e+07 1.19476e+08 -0.0508869 2.13341e+08 -0.0699471 0.0516793)
(3.08823e+07 7.75759e+07 -0.26998 6.58674e+07 -0.273183 0.259297)
(5.38422e+07 5.63128e+07 -0.519371 8.29652e+07 -0.48728 0.500174)
(3.57534e+07 1.49211e+07 -0.0564886 2.27518e+07 -0.0673544 0.0510055)
(-2.86284e+07 7.95214e+07 -0.000723672 3.7712e+08 -8.90403e-05 0.000400278)
(-3.25073e+08 6.00034e+08 -0.00059275 5.70701e+08 0.00139011 6.54907e-05)
(-2.50211e+08 7.4046e+08 0.00536023 3.75451e+08 0.00814848 -0.00486234)
(-3.25808e+08 6.76486e+08 0.01993 1.58417e+08 0.0209188 -0.0167051)
(-2.22355e+06 2.591e+08 0.0380595 7.33657e+07 0.0323657 -0.0311598)
(-2.04907e+08 2.36586e+08 0.0337209 2.19014e+08 0.0174562 -0.0251223)
(-7.32891e+06 9.71598e+07 -0.0489844 7.48469e+07 -0.0708392 0.0531644)
(-7.81102e+07 9.48625e+07 -0.266187 1.1542e+08 -0.272023 0.258687)
(-1.05131e+06 3.71739e+07 -0.518454 3.33877e+07 -0.483954 0.498824)
(-2.21298e+07 2.69275e+07 -0.0568463 3.08571e+07 -0.0651887 0.0504358)
(-4.41716e+07 -1.69237e+08 -0.000725844 4.87223e+08 -0.000158632 0.000391311)
(-3.69051e+07 2.32005e+08 -0.000850149 4.5132e+08 0.00109953 0.000163975)
(-4.67615e+06 3.67582e+08 0.00454748 3.23182e+08 0.00754232 -0.004438)
(-8.61917e+07 4.67157e+08 0.0184654 1.18477e+08 0.0199645 -0.0157175)
(3.61655e+07 1.35398e+08 0.0364952 1.7123e+08 0.0311914 -0.0295667)
(-2.77694e+07 1.23919e+08 0.0333363 8.61586e+07 0.0163367 -0.0232706)
(2.6232e+07 5.5647e+07 -0.0471564 1.08581e+08 -0.0715707 0.0546301)
(3.33943e+06 3.84203e+07 -0.263441 4.79955e+07 -0.271964 0.259332)
(1.47748e+07 2.3431e+07 -0.518706 4.65839e+07 -0.482486 0.498864)
(1.2252e+07 8.92793e+06 -0.0575287 1.50314e+07 -0.0631186 0.0503973)
(-8.92018e+07 -2.51971e+07 -0.00070961 2.60723e+08 -0.000213542 0.000373223)
(-3.05547e+08 1.7502e+08 -0.00100704 4.90002e+08 0.000886866 0.000188859)
(-2.6141e+08 2.34903e+08 0.00399298 3.94265e+08 0.00714696 -0.00425761)
(-2.41416e+08 2.4471e+08 0.0174681 2.31579e+08 0.0194532 -0.015253)
(-6.74125e+07 1.18255e+08 0.0355466 1.17279e+08 0.0307642 -0.028772)
(-1.25642e+08 7.38805e+07 0.033512 1.37608e+08 0.0162227 -0.0222718)
(-3.17506e+07 3.96759e+07 -0.0450641 6.09747e+07 -0.0713018 0.0555601)
(-5.0998e+07 2.44785e+07 -0.260776 6.57447e+07 -0.271426 0.25996)
(-1.18661e+07 1.31903e+07 -0.519155 2.51834e+07 -0.481461 0.499148)
(-1.42379e+07 5.84695e+06 -0.0581565 1.76286e+07 -0.0607173 0.0504631)
(-1.35814e+07 -1.4852e+08 -0.000688107 2.51495e+08 -0.000267092 0.000358107)
(-5.25632e+07 2.37495e+07 -0.00112619 3.22424e+08 0.000684081 0.000206828)
(-3.91242e+07 8.41191e+07 0.00353747 2.659e+08 0.00679232 -0.00414502)
(-6.62673e+07 1.55721e+08 0.0166405 1.5874e+08 0.0190743 -0.0149784)
(1.52646e+07 5.72093e+07 0.0347834 1.11414e+08 0.0306582 -0.0283056)
(-1.55614e+07 4.96334e+07 0.0337732 6.81866e+07 0.0167067 -0.0216592)
(1.00158e+07 2.35439e+07 -0.043072 5.90708e+07 -0.0702243 0.0562074)
(-276439 1.62976e+07 -0.258318 3.15455e+07 -0.270299 0.260522)
(4.99039e+06 9.35515e+06 -0.519698 2.53722e+07 -0.480667 0.499521)
(4.42483e+06 4.51852e+06 -0.0586706 9.39943e+06 -0.057978 0.0505631)
(-5.66896e+07 -5.41181e+07 -0.000666987 1.38704e+08 -0.000325599 0.000351192)
(-1.80296e+08 -1.12133e+07 -0.00123948 2.9135e+08 0.000451869 0.000253922)
(-1.69133e+08 2.02768e+07 0.00309422 2.55294e+08 0.00637163 -0.00399778)
(-1.52219e+08 4.59806e+07 0.0158191 1.71834e+08 0.0186251 -0.0146992)
(-6.21979e+07 2.74757e+07 0.0339585 9.2849e+07 0.0305761 -0.0278906)
(-6.92669e+07 7.45744e+06 0.0338122 7.86905e+07 0.0174508 -0.0211393)
(-2.62334e+07 7.27e+06 -0.0414904 3.98208e+07 -0.0686234 0.0567847)
(-2.73189e+07 -191121 -0.256302 3.3697e+07 -0.268759 0.261119)
(-9.60409e+06 1.5226e+06 -0.520417 1.51177e+07 -0.48022 0.500048)
(-7.28478e+06 -786710 -0.0591398 8.36885e+06 -0.0550785 0.050748)
(1.76348e+07 -1.03566e+08 -0.000647335 1.09346e+08 -0.000389963 0.000353306)
(-1.15902e+07 -4.21789e+07 -0.00136075 1.71946e+08 0.000171861 0.000347325)
(-1.24125e+07 -9.91549e+06 0.00261636 1.51587e+08 0.00582366 -0.00375632)
(-3.30741e+07 3.3941e+07 0.014924 1.09837e+08 0.0179939 -0.014312)
(6.35766e+06 1.58056e+07 0.0329821 6.94785e+07 0.0303733 -0.0274177)
(-6.72693e+06 1.47232e+07 0.033564 4.52229e+07 0.0183274 -0.0206719)
(4.34416e+06 7.88841e+06 -0.0403055 3.34867e+07 -0.0665315 0.0571769)
(-109916 5.54761e+06 -0.254588 1.95432e+07 -0.266721 0.261491)
(2.01946e+06 3.26364e+06 -0.521121 1.4041e+07 -0.480084 0.500538)
(1.65801e+06 1.97366e+06 -0.059722 5.75404e+06 -0.052371 0.0511087)
(-2.30684e+07 -4.66033e+07 -0.000627763 6.13936e+07 -0.000457137 0.000362568)
(-8.17386e+07 -5.85067e+07 -0.00149461 1.42505e+08 -0.000160368 0.000493094)
(-8.35853e+07 -4.39068e+07 0.00206925 1.31537e+08 0.00510996 -0.00337803)
(-7.70078e+07 -2.22872e+07 0.0139083 9.45233e+07 0.0171202 -0.0137558)
(-3.74739e+07 -1.06701e+07 0.0318866 5.4422e+07 0.0300422 -0.0269127)
(-3.32676e+07 -1.37103e+07 0.03328 3.93675e+07 0.0195118 -0.0205466)
(-1.51666e+07 -5.72677e+06 -0.0388692 2.15732e+07 -0.0634016 0.0566222)
(-1.25891e+07 -6.69359e+06 -0.251959 1.54446e+07 -0.263126 0.260303)
(-5.33612e+06 -2.59974e+06 -0.52035 7.5705e+06 -0.479126 0.499578)
(-3.14226e+06 -2.07879e+06 -0.0604691 3.32769e+06 -0.0503458 0.0515887)
(2.91535e+07 -6.06774e+07 -0.000605301 3.85477e+07 -0.000520871 0.000375065)
(1.46396e+07 -4.29666e+07 -0.00163888 7.65215e+07 -0.000537831 0.000687934)
(8.09245e+06 -2.58706e+07 0.00141526 7.20697e+07 0.00419782 -0.00282259)
(-8.84776e+06 -3.20797e+06 0.0127103 5.9987e+07 0.0159491 -0.0129651)
(5.03496e+06 -334749 0.0307893 3.91944e+07 0.029684 -0.0264983)
(-1.33252e+06 1.43211e+06 0.0336498 2.65764e+07 0.0216017 -0.0214946)
(2.46045e+06 1.17627e+06 -0.0354422 1.88177e+07 -0.0576618 0.0532549)
(350608 1.01055e+06 -0.24504 1.15558e+07 -0.254789 0.254021)
(982952 698994 -0.513076 7.85639e+06 -0.472685 0.492289)
(641640 684299 -0.0594332 3.47216e+06 -0.0478836 0.0505404)
(-4.71634e+06 -3.03526e+07 -0.000575473 2.21504e+07 -0.000571884 0.000384841)
(-2.64864e+07 -5.25617e+07 -0.00178117 5.79406e+07 -0.000939235 0.000915655)
(-3.04831e+07 -4.72593e+07 0.000613572 5.51853e+07 0.00305469 -0.00205087)
(-2.97663e+07 -3.28365e+07 0.0111964 4.06642e+07 0.0143665 -0.0118105)
(-1.59471e+07 -1.89048e+07 0.0297678 2.46292e+07 0.0293941 -0.0262614)
(-1.26131e+07 -1.56253e+07 0.0358351 1.60594e+07 0.0256612 -0.024686)
(-6.32365e+06 -8.14452e+06 -0.0267404 9.30389e+06 -0.0463253 0.0437316)
(-4.56367e+06 -6.52489e+06 -0.227534 5.84214e+06 -0.235578 0.236086)
(-2.12563e+06 -3.08498e+06 -0.488004 2.99845e+06 -0.448964 0.467303)
(-1.04802e+06 -1.72673e+06 -0.0418617 949671 -0.0297722 0.0355773)
(2.7043e+07 -3.03069e+07 -0.000532295 9.06902e+06 -0.000598136 0.000383896)
(2.17226e+07 -2.6954e+07 -0.00189196 2.88632e+07 -0.00132158 0.00114036)
(1.45991e+07 -1.89526e+07 -0.000356019 3.0126e+07 0.00166603 -0.00104679)
(2.57964e+06 -9.08784e+06 0.00910318 2.85647e+07 0.0121176 -0.0100347)
(5.12943e+06 -4.06321e+06 0.0284972 2.01255e+07 0.0289007 -0.0258821)
(1.28798e+06 -2.17269e+06 0.0409948 1.42562e+07 0.0328209 -0.0311867)
(1.90351e+06 -1.03597e+06 -0.00771605 1.01435e+07 -0.0248912 0.0233528)
(656649 -554814 -0.191311 6.48946e+06 -0.198201 0.198538)
(633848 -256893 -0.43676 4.32837e+06 -0.39757 0.414368)
(286281 94525.3 0.0392036 2.03815e+06 0.0630989 -0.0413784)
(2.16482e+06 -1.67394e+07 -0.000469185 5.47745e+06 -0.000586474 0.000363135)
(-1.94994e+06 -3.43826e+07 -0.00191941 1.75798e+07 -0.00161301 0.00130163)
(-4.65968e+06 -3.31754e+07 -0.00143138 1.67271e+07 9.84437e-05 0.00012318)
(-6.29989e+06 -2.46287e+07 0.00607956 1.21233e+07 0.0088107 -0.00728875)
(-3.36869e+06 -1.5206e+07 0.0255914 7.5116e+06 0.0268393 -0.0239944)
(-2.48256e+06 -1.12837e+07 0.0482009 4.2105e+06 0.0423595 -0.0399397)
(-1.23473e+06 -6.35333e+06 0.0278871 2.55561e+06 0.0124105 -0.0129056)
(-760615 -4.49632e+06 -0.12197 1.30041e+06 -0.132327 0.1313)
(-354881 -2.27898e+06 -0.403727 664288 -0.373162 0.385019)
(-136803 -1.07629e+06 -0.188341 -15671.3 -0.169572 0.185643)
(1.97658e+07 -1.25372e+07 -0.000381774 -476676 -0.000527134 0.00031536)
(1.85651e+07 -1.2787e+07 -0.00179706 9.1096e+06 -0.0017191 0.00132309)
(1.30464e+07 -9.87403e+06 -0.00237816 1.14754e+07 -0.00138983 0.00122275)
(5.6121e+06 -6.50332e+06 0.00208002 1.24936e+07 0.0042991 -0.00351119)
(4.53549e+06 -3.39577e+06 0.0183907 9.65113e+06 0.0203213 -0.0180257)
(2.04598e+06 -2.24848e+06 0.0489268 7.14853e+06 0.0460837 -0.042942)
(1.60191e+06 -1.29983e+06 0.0759188 5.19378e+06 0.0631902 -0.0616721)
(756779 -832232 0.0485536 3.44262e+06 0.0292081 -0.0315459)
(508436 -476909 -0.0718759 2.29205e+06 -0.0763651 0.0745928)
(178017 -122393 -0.0385098 1.14218e+06 -0.0355079 0.0391794)
(3.40009e+06 -8.10479e+06 -0.000272452 -229078 -0.00042121 0.000240339)
(5.9253e+06 -1.87186e+07 -0.00147865 1.56063e+06 -0.00156323 0.00114798)
(4.71745e+06 -1.87975e+07 -0.00277873 900674 -0.00230204 0.00183646)
(2.57725e+06 -1.42203e+07 -0.00174962 215465 -0.000292803 0.000239868)
(1.88576e+06 -9.15324e+06 0.0063017 -73781.3 0.00820063 -0.00727547)
(1.3679e+06 -6.43422e+06 0.0248948 -620103 0.0248592 -0.022906)
(886085 -3.7776e+06 0.0477437 -363212 0.0423926 -0.0405485)
(643160 -2.50252e+06 0.0504463 -455255 0.039819 -0.039978)
(354733 -1.30942e+06 0.00732728 -277583 0.000786266 -0.00238227)
(165702 -544934 0.000361686 -301655 -0.000702738 0.00136067)
(1.24121e+07 -3.73771e+06 -0.000153416 -2.0817e+06 -0.000286506 0.000148787)
(1.25257e+07 -4.41738e+06 -0.000993901 2.48949e+06 -0.0011629 0.000795203)
(8.99923e+06 -3.94182e+06 -0.00233479 4.31382e+06 -0.00222525 0.00165682)
(4.92754e+06 -3.33447e+06 -0.00301765 5.31785e+06 -0.00227578 0.00173905)
(3.37544e+06 -1.98209e+06 -0.000426886 4.49623e+06 0.000872571 -0.000975759)
(1.84538e+06 -1.48846e+06 0.00795345 3.44676e+06 0.00875497 -0.00816128)
(1.25348e+06 -954966 0.0201838 2.5501e+06 0.0186934 -0.0177548)
(687228 -662501 0.0256516 1.73321e+06 0.0213217 -0.0210669)
(418829 -408450 0.0119981 1.15652e+06 0.00834892 -0.00908108)
(142892 -159492 0.00400835 605038 0.00287435 -0.00286646)
(2.68091e+06 -3.45784e+06 -4.17536e-05 -1.47375e+06 -0.000151374 5.8505e-05)
(6.52678e+06 -8.65253e+06 -0.000457608 -3.07462e+06 -0.000659272 0.000370094)
(6.20015e+06 -8.8743e+06 -0.00140168 -3.72281e+06 -0.00151748 0.000978691)
(4.3637e+06 -6.69582e+06 -0.00236328 -3.16856e+06 -0.00213628 0.00145701)
(3.00653e+06 -4.4012e+06 -0.00202406 -2.31584e+06 -0.00135965 0.000805694)
(2.10359e+06 -2.96775e+06 0.001115 -1.85592e+06 0.00183178 -0.00198707)
(1.31404e+06 -1.77939e+06 0.00663873 -1.15842e+06 0.00657027 -0.00635374)
(874726 -1.12168e+06 0.0102077 -846901 0.00888418 -0.00880063)
(477723 -591186 0.00649329 -491010 0.00504176 -0.0054497)
(196625 -212570 0.00230968 -301071 0.00173646 -0.00188022)
(6.91783e+06 -153206 5.39752e-05 -1.35719e+06 -3.3842e-05 -1.86167e-05)
(7.22078e+06 -651017 5.04079e-05 896261 -0.000168074 -4.49397e-05)
(5.28861e+06 -1.07908e+06 -0.000351495 1.90443e+06 -0.000620247 0.000140976)
(3.31359e+06 -1.37181e+06 -0.000939071 2.39112e+06 -0.00107386 0.000406418)
(2.19238e+06 -960818 -0.00111447 2.1379e+06 -0.000965182 0.000339702)
(1.33781e+06 -819040 -8.04735e-05 1.6518e+06 0.000283299 -0.000586102)
(885805 -572205 0.00219727 1.22575e+06 0.00244811 -0.00231308)
(533698 -423051 0.0040471 839136 0.00390126 -0.00362286)
(322071 -274410 0.0032204 558309 0.00292485 -0.00298514)
(119033 -128870 0.00114462 302330 0.00101861 -0.00122828)
(1.67759e+06 -1.25148e+06 0.000135709 -1.2767e+06 6.44782e-05 -8.00555e-05)
(4.82397e+06 -3.22301e+06 0.000518937 -3.28989e+06 0.000277619 -0.000426771)
(4.83663e+06 -3.30282e+06 0.000673146 -3.81634e+06 0.00026376 -0.000715201)
(3.53096e+06 -2.43332e+06 0.00062962 -3.0983e+06 0.000203714 -0.000840761)
(2.44276e+06 -1.58663e+06 0.000553471 -2.24857e+06 0.000310094 -0.000775117)
(1.66498e+06 -1.01186e+06 0.000798413 -1.64061e+06 0.000839482 -0.000670644)
(1.04552e+06 -603276 0.00150904 -1.04263e+06 0.0017715 -0.000617804)
(669878 -355315 0.00222335 -704733 0.00256993 -0.000590709)
(366294 -180552 0.00211965 -407737 0.00249826 -0.000789479)
(137455 -44198.5 0.000908814 -212313 0.0011768 -0.0012576)
(3.46074e+06 885982 0.000210254 -435272 0.000151987 -0.000128329)
(3.66378e+06 548357 0.000977348 736620 0.000701672 -0.000788429)
(2.76041e+06 -44618.2 0.00170437 1.12846e+06 0.00113301 -0.00161039)
(1.9283e+06 -463545 0.00219622 1.2225e+06 0.00148657 -0.00215971)
(1.29239e+06 -422706 0.00220603 1.07888e+06 0.00166713 -0.00179468)
(859640 -411345 0.00173454 809203 0.00163381 -0.000142673)
(575779 -309192 0.000965277 589097 0.00136494 0.00276705)
(372743 -239606 0.000281061 396651 0.00104027 0.00608569)
(228782 -161449 0.000329631 260067 0.00123645 0.00685044)
(93706.9 -85630.4 0.00103259 142366 0.00172532 -6.4907e-05)
(920350 -312762 0.000283658 -804141 0.000239257 -0.000165919)
(2.9492e+06 -710518 0.00146149 -2.27e+06 0.00114617 -0.00114688)
(3.02024e+06 -680219 0.00284883 -2.62632e+06 0.00208022 -0.00263598)
(2.20361e+06 -448132 0.00385951 -2.08979e+06 0.00282261 -0.00370439)
(1.52668e+06 -248627 0.00353574 -1.52231e+06 0.0027641 -0.00251174)
(1.01291e+06 -119439 0.00129342 -1.06678e+06 0.00135232 0.00259663)
(637675 -55597.3 -0.00271248 -684678 -0.00170301 0.0119953)
(395337 -14880.9 -0.00711454 -445450 -0.00570938 0.0239057)
(214454 2975.91 -0.00830821 -257568 -0.0072991 0.0318059)
(71360.5 21045.5 -0.000794409 -122657 -0.000301107 0.0149076)
(1.55516e+06 924309 0.000357966 130142 0.000333899 -0.000192435)
(1.66251e+06 670019 0.00199047 766311 0.00164484 -0.0015003)
(1.32429e+06 184149 0.00422031 805711 0.00322089 -0.00387771)
(1.03547e+06 -127090 0.00584543 711332 0.00438216 -0.00582196)
(722277 -184164 0.0044664 580544 0.00343596 -0.00329875)
(518619 -199520 -0.00201133 409612 -0.00140625 0.00868491)
(355405 -158729 -0.013768 286185 -0.0111519 0.0320106)
(243401 -125568 -0.0278936 184969 -0.0249163 0.0611544)
(152795 -86820.1 -0.0363175 117563 -0.0361573 0.0845125)
(68907.2 -50132.8 -0.0177709 62840 -0.0209102 0.0917904)
(465148 47684.7 0.000430286 -407270 0.000438005 -0.000204584)
(1.57024e+06 259457 0.0025531 -1.21055e+06 0.00220756 -0.00181781)
(1.60875e+06 316903 0.00589004 -1.42895e+06 0.00464921 -0.00533743)
(1.15036e+06 280989 0.00849102 -1.12269e+06 0.00644198 -0.0089582)
(788392 236853 0.0053714 -823449 0.00382171 -0.00559125)
(504847 184501 -0.00937945 -562808 -0.00805794 0.0171024)
(315242 129413 -0.0375413 -363528 -0.0317446 0.0680206)
(187267 91727.4 -0.0713494 -230399 -0.0636468 0.128164)
(98639 58297.2 -0.0950567 -132947 -0.0940591 0.113593)
(25666.4 34270.6 -0.0961715 -59359.9 -0.110069 -0.135395)
(627953 715509 0.000494059 352829 0.000547513 -0.000199007)
(707934 515602 0.00310327 712242 0.00281191 -0.00204723)
(631450 189414 0.00782119 599021 0.0063846 -0.00684554)
(560719 -3037.18 0.0121674 449054 0.00935943 -0.0132715)
(413025 -71028.3 0.00760749 328648 0.00487032 -0.0119911)
(314460 -87604.8 -0.0197431 214871 -0.0186574 0.0200536)
(219368 -74726.2 -0.0789776 141434 -0.0695951 0.117221)
(155378 -59543.8 -0.147757 85968.7 -0.130368 0.291697)
(98890 -42409.4 -0.133554 51736.5 -0.121159 0.424442)
(47817.7 -26240.8 0.134036 25767.3 0.117415 0.0108878)
(239132 170956 0.000542909 -158350 0.000653641 -0.000177331)
(760394 538656 0.00357157 -434494 0.00340539 -0.00215012)
(756834 585175 0.00978962 -556561 0.00829417 -0.0080557)
(527915 463248 0.0168755 -431432 0.013286 -0.0178228)
(350952 344387 0.013437 -323967 0.00862191 -0.0231964)
(214062 238409 -0.0256191 -217756 -0.0276877 0.000801164)
(129840 156729 -0.134367 -142876 -0.127003 0.0988012)
(71411.9 100315 -0.319689 -88772.3 -0.298615 0.304434)
(34179.8 58787.9 -0.452335 -51463 -0.426747 0.505497)
(2028.43 27688.4 -0.0151295 -21291.2 -0.025188 0.0495207)
(225189 550784 0.000576892 363998 0.000747365 -0.000150027)
(385844 428501 0.00390439 559847 0.00393139 -0.00215505)
(385899 252632 0.0113981 453514 0.0100708 -0.0087296)
(399282 136836 0.0214757 295252 0.0174629 -0.0205664)
(307662 52396.3 0.0227796 198740 0.0157956 -0.0300584)
(241649 18446.7 -0.0126745 118232 -0.0202371 -0.0114039)
(167841 -205.284 -0.128338 73578.4 -0.130864 0.0845139)
(118067 -6382.43 -0.347985 41012.1 -0.339734 0.300669)
(73158.3 -9642.73 -0.544833 22473.6 -0.527707 0.529429)
(34974.4 -12382.5 -0.0597045 8977.26 -0.0711756 0.0622431)
(175033 189520 0.000604811 -97514.9 0.000790353 -0.000132469)
(538611 856043 0.004106 -89119.6 0.00423887 -0.00216383)
(489916 1.01021e+06 0.0123633 -74542.6 0.0112583 -0.00921051)
(405164 790551 0.0238551 -48926.8 0.0201159 -0.0222363)
(282176 586193 0.0262012 -30457.6 0.019289 -0.0329906)
(196640 391507 -0.0117184 -16789.4 -0.0201858 -0.0126411)
(127127 255465 -0.137928 -8704.57 -0.144223 0.0933985)
(80229.3 156197 -0.377648 -4116.28 -0.378838 0.331125)
(43801.3 86025.2 -0.593412 -1473.58 -0.589651 0.581613)
(13132.3 33965.8 -0.088741 -455.074 -0.0953374 0.103859)
)
;

boundaryField
{
    frontAndBack
    {
        type            empty;
    }
    symm
    {
        type            symmetryPlane;
    }
    in
    {
        type            mySigma;
    }
    out
    {
        type            mySigma;
    }
}


// ************************************************************************* //
