/*--------------------------------*- C++ -*----------------------------------*\
| =========                 |                                                 |
| \\      /  F ield         | foam-extend: Open Source CFD                    |
|  \\    /   O peration     | Version:  3.0                                   |
|   \\  /    A nd           | Web:         http://www.extend-project.de       |
|    \\/     M anipulation  |                                                 |
\*---------------------------------------------------------------------------*/
FoamFile
{
    version     2.0;
    format      ascii;
    class       volSymmTensorField;
    location    "0.3";
    object      sigma;
}
// * * * * * * * * * * * * * * * * * * * * * * * * * * * * * * * * * * * * * //

dimensions      [0 0 0 0 0 0 0];

internalField   nonuniform List<symmTensor> 
300
(
(-1.37128 2.64077 -0.000108256 1.18217 -0.000124193 7.58093e-05)
(3.18944 -0.331279 -0.000543419 -2.64715 -0.00053975 0.000403835)
(-1.73808 0.923212 -0.00154209 0.95278 -0.00136717 0.00117474)
(-1.67881 0.374017 -0.00330685 -0.0530358 -0.00269796 0.00257363)
(0.504041 0.0266155 -0.00544621 -1.87687 -0.00403555 0.00426239)
(-0.0434551 0.117087 -0.00615135 0.119656 -0.0035612 0.00457477)
(0.738198 0.112751 -0.00102563 -0.131061 0.0029252 -0.000674539)
(0.142073 0.218331 0.0181255 0.0475105 0.0230624 -0.0194427)
(0.280385 0.223886 0.0637543 -0.0317488 0.0681483 -0.0638805)
(0.0862194 0.288615 0.151435 0.00996396 0.150813 -0.148008)
(0.676164 -0.761259 -7.22648e-05 -0.259607 -9.9228e-05 5.2227e-05)
(0.191997 -0.934408 -0.000410136 -0.441825 -0.000459143 0.000313326)
(-0.675164 0.762043 -0.00129002 0.10109 -0.0012741 0.00101702)
(-1.10327 0.964981 -0.00317634 0.365992 -0.00291991 0.00260595)
(0.563916 -0.217701 -0.00643212 -0.348832 -0.0056465 0.00550138)
(0.00761512 0.542995 -0.010657 0.0743072 -0.00898529 0.00950034)
(0.29483 0.0628931 -0.013135 -0.101328 -0.010284 0.0122037)
(0.0759858 0.262816 -0.00571371 0.0252627 -0.00164322 0.00561184)
(0.0854431 0.105154 0.0309428 -0.00877684 0.0359404 -0.030529)
(-0.0142296 0.214283 0.142124 0.0344708 0.143707 -0.140749)
(0.238536 -0.356804 -5.19729e-05 -0.00188927 -8.24138e-05 3.90476e-05)
(0.652686 -0.408772 -0.000322247 -0.617149 -0.000395743 0.000250298)
(0.309054 0.539399 -0.00106191 -0.476068 -0.00113377 0.000840176)
(-0.273215 0.815111 -0.00270892 -0.245945 -0.0026694 0.00221351)
(0.0356959 0.0724767 -0.00566234 0.235265 -0.00529983 0.00479964)
(-0.000973305 0.137695 -0.00968358 0.0270554 -0.00869653 0.00852188)
(0.137254 0.0766834 -0.0123891 0.108862 -0.0104768 0.0113027)
(0.0517921 0.0507081 -0.00603079 0.0243106 -0.0030678 0.00560389)
(0.0513658 0.070123 0.0288153 0.0550384 0.0326493 -0.028852)
(-0.0270215 0.118314 0.140713 0.0695491 0.140923 -0.139532)
(0.135016 0.0423406 -4.01039e-05 0.0689802 -7.31638e-05 3.22049e-05)
(0.0336563 0.303938 -0.000269726 -0.000951659 -0.000360645 0.000216456)
(0.00265378 0.492922 -0.0009246 -0.0697615 -0.00105468 0.000743093)
(-0.199343 0.439822 -0.00242126 -0.0247199 -0.00251275 0.00198853)
(0.0834483 0.088117 -0.00516904 -0.0416143 -0.00502828 0.00437106)
(-0.0774913 0.188021 -0.00900316 0.0966905 -0.00829547 0.00785432)
(0.046462 0.0485525 -0.011691 0.0131429 -0.0099992 0.0104814)
(-0.0157893 0.0824637 -0.00564879 0.0536634 -0.00268707 0.00488392)
(0.000135136 0.0372415 0.0285939 0.0295586 0.0325825 -0.0291586)
(-0.0743374 0.103571 0.140545 0.082257 0.14042 -0.139467)
(0.0134393 -0.0581815 -3.21767e-05 0.223654 -6.70666e-05 2.83418e-05)
(0.095043 0.161363 -0.000234782 0.0529174 -0.000339128 0.000197787)
(0.0905761 0.299852 -0.000836007 -0.0137458 -0.00101087 0.000691876)
(-0.0338589 0.348301 -0.00224361 -0.0641472 -0.00243291 0.00187382)
(0.0150374 0.0708841 -0.00488224 0.0962078 -0.00489674 0.0041587)
(-0.00862348 0.0732208 -0.00864362 0.0254205 -0.00810182 0.00753094)
(0.0305866 0.0313607 -0.0113918 0.0631621 -0.00974996 0.010086)
(0.0110966 0.017258 -0.00562072 0.021946 -0.00243261 0.00451746)
(0.00152095 0.0198858 0.0282575 0.0432537 0.0326471 -0.0293865)
(-0.0562699 0.0525785 0.140463 0.0747782 0.140282 -0.139515)
(-0.00813318 0.0171185 -2.61259e-05 0.110977 -6.1958e-05 2.57431e-05)
(-0.0971425 0.185776 -0.000208219 0.17153 -0.000322673 0.000186132)
(-0.0730647 0.227759 -0.00077083 0.111374 -0.000982138 0.000663238)
(-0.0955777 0.205504 -0.00211904 0.0476394 -0.0023904 0.00181519)
(0.00105132 0.0784413 -0.00469458 0.0228968 -0.004841 0.00405721)
(-0.0587923 0.0697726 -0.00843755 0.0657576 -0.0080348 0.0073839)
(0.00217964 0.0250807 -0.0112876 0.021037 -0.00967377 0.00991201)
(-0.0197805 0.02183 -0.00578699 0.0344039 -0.00236539 0.00435683)
(-0.00862887 0.00761177 0.0278001 0.0212787 0.0325758 -0.0294935)
(-0.0586258 0.0299876 0.140328 0.0621047 0.140202 -0.139547)
(-0.0148343 -0.0526936 -2.09916e-05 0.143762 -5.6727e-05 2.34966e-05)
(-0.0120055 0.0752753 -0.000185374 0.136102 -0.000306363 0.000176792)
(-0.00141302 0.115354 -0.000715516 0.0976783 -0.000955561 0.000643237)
(-0.0253453 0.14263 -0.00201589 0.0369901 -0.00235708 0.00177956)
(0.0114826 0.0413769 -0.00454502 0.0532265 -0.00480979 0.00400225)
(-0.00653382 0.0363473 -0.00828752 0.0264441 -0.00801819 0.0073109)
(0.0116959 0.0137409 -0.0112517 0.0313216 -0.00968377 0.00983073)
(0.00619772 0.00604923 -0.00601943 0.011802 -0.00242182 0.00428428)
(0.00411409 0.00120137 0.0273104 0.0162993 0.0323781 -0.0295418)
(-0.0242228 0.00721255 0.140151 0.0330784 0.140143 -0.139562)
(-0.0292225 -0.00793082 -1.63412e-05 0.0775556 -5.0816e-05 2.1112e-05)
(-0.0917836 0.0567551 -0.000163878 0.148238 -0.000287295 0.00016696)
(-0.0780644 0.074258 -0.00066298 0.119822 -0.000922959 0.000623451)
(-0.0720661 0.0755223 -0.00191789 0.0717341 -0.00231496 0.00174767)
(-0.0201261 0.0362165 -0.00440289 0.0375773 -0.00477065 0.00395806)
(-0.0369459 0.0216564 -0.00814496 0.042819 -0.00800374 0.00725755)
(-0.00684928 0.0100322 -0.0112192 0.0176525 -0.00972259 0.00977574)
(-0.00942385 0.003916 -0.00624522 0.0156023 -0.00255063 0.00423816)
(0.00412924 -0.000390151 0.0268517 0.00086278 0.0320877 -0.0295705)
(-0.00310419 0.000242101 0.139949 0.00462263 0.140106 -0.13957)
(-0.00784573 -0.043912 -1.20087e-05 0.0754085 -4.40077e-05 1.83498e-05)
(-0.0173408 0.0106647 -0.000142512 0.0988089 -0.00026377 0.000154889)
(-0.0129382 0.0281133 -0.000609254 0.082706 -0.000878924 0.000598267)
(-0.0207262 0.0482387 -0.00181599 0.0508355 -0.00225202 0.00170693)
(0.00362465 0.0175194 -0.00425152 0.036738 -0.00470217 0.00390228)
(-0.00525768 0.0143142 -0.00798283 0.023036 -0.00795939 0.0071907)
(0.00404206 0.00597624 -0.0111503 0.0182108 -0.00974986 0.00970629)
(0.00542246 0.00396467 -0.00641308 0.00479423 -0.00271003 0.00417876)
(0.0157667 0.00346547 0.0264748 -0.00669295 0.031741 -0.0296073)
(0.0314361 0.00625923 0.139744 -0.0269746 0.1401 -0.139579)
(-0.0209459 -0.0157309 -7.97082e-06 0.0424577 -3.63337e-05 1.51464e-05)
(-0.0556192 -0.000970575 -0.000120641 0.0898164 -0.00023492 0.000139503)
(-0.0519621 0.00798287 -0.000551579 0.0797987 -0.000819557 0.000563362)
(-0.0468272 0.0146851 -0.00170342 0.0551637 -0.00215882 0.00164701)
(-0.020184 0.00806737 -0.00407849 0.0315783 -0.00458745 0.00381664)
(-0.0225455 0.00127011 -0.00778045 0.0270622 -0.00785898 0.00708324)
(-0.00871069 0.0013583 -0.0110109 0.013671 -0.00972862 0.00958647)
(-0.00415135 0.00145317 -0.0064711 0.00590163 -0.00285354 0.00406519)
(0.0152561 0.00863561 0.0262374 -0.0147316 0.0313856 -0.0296869)
(0.0517162 0.0223351 0.13956 -0.0513112 0.140137 -0.1396)
(0.00110294 -0.0310218 -4.29667e-06 0.0340348 -2.80403e-05 1.1589e-05)
(-0.00568007 -0.0113113 -9.801e-05 0.0542009 -0.000200612 0.000120322)
(-0.00557349 -0.00210518 -0.00048757 0.0490336 -0.000741908 0.000515163)
(-0.0115652 0.0102893 -0.00157312 0.0367255 -0.00202651 0.0015578)
(-0.00016139 0.00384418 -0.00387076 0.0248551 -0.00441015 0.0036827)
(-0.00479415 0.00274137 -0.00751824 0.0176476 -0.00767803 0.00690889)
(-0.0014445 0.00130173 -0.0107692 0.0130525 -0.0096218 0.00938077)
(0.00157722 0.00519134 -0.00636217 0.00310539 -0.00292309 0.00384794)
(0.0190967 0.0180165 0.0262197 -0.0164557 0.0310971 -0.0298671)
(0.0688653 0.0491185 0.139448 -0.0668226 0.140251 -0.139663)
(-0.01062 -0.0145304 -1.13531e-06 0.0198718 -1.95782e-05 7.91259e-06)
(-0.0265551 -0.01721 -7.47927e-05 0.0450883 -0.000161594 9.76155e-05)
(-0.0267594 -0.013061 -0.000415216 0.0426473 -0.000644156 0.000451146)
(-0.0247259 -0.00720716 -0.0014167 0.0318549 -0.00184597 0.0014289)
(-0.0134093 -0.00474605 -0.00361227 0.0201 -0.00415253 0.0034804)
(-0.0133277 -0.00661682 -0.0071801 0.0160539 -0.00739654 0.00664581)
(-0.0088732 -0.0035032 -0.0104172 0.0104283 -0.00941114 0.00907524)
(-0.00518507 0.0027521 -0.00606771 0.00399566 -0.00288108 0.00350697)
(0.0135783 0.0248973 0.0264972 -0.0160251 0.0309714 -0.030211)
(0.0699751 0.0776464 0.139524 -0.0703944 0.140541 -0.139844)
(0.00572114 -0.0194676 1.28104e-06 0.0128837 -1.15857e-05 4.4924e-06)
(0.00250192 -0.013468 -5.17985e-05 0.0247899 -0.000119758 7.26474e-05)
(0.000871079 -0.00838891 -0.000333684 0.0243581 -0.000526619 0.000370926)
(-0.00412744 -0.00202982 -0.00122485 0.0209705 -0.00160819 0.00125073)
(-0.000501802 -0.00222058 -0.00328146 0.0150552 -0.00379299 0.00318684)
(-0.00384002 -0.00294629 -0.00675665 0.0119586 -0.00700454 0.00628299)
(-0.00457921 -0.00261545 -0.0100269 0.0101832 -0.00915601 0.00873852)
(-0.00442621 0.00506608 -0.00578956 0.00538962 -0.00287753 0.00323051)
(0.00894606 0.0326589 0.0268791 -0.00995961 0.0309181 -0.0305549)
(0.0610958 0.1071 0.139954 -0.0606403 0.141233 -0.140273)
(-0.00345769 -0.0108334 2.64474e-06 0.0077212 -4.83248e-06 1.80661e-06)
(-0.00932893 -0.0169953 -3.07075e-05 0.0183964 -7.84024e-05 4.78747e-05)
(-0.0102984 -0.0151928 -0.000244963 0.0184986 -0.000393736 0.000278059)
(-0.0100548 -0.0112115 -0.000990117 0.014416 -0.00130722 0.00101789)
(-0.00636125 -0.00807842 -0.00284592 0.00986206 -0.00330004 0.00277233)
(-0.00678922 -0.0087803 -0.00622467 0.00806532 -0.00648505 0.00580374)
(-0.00728628 -0.00706846 -0.00979879 0.00723796 -0.00906318 0.00858571)
(-0.00823269 0.00065543 -0.00639528 0.00601719 -0.00372278 0.00389)
(-0.000184284 0.0335575 0.0257004 -0.00304747 0.0295105 -0.0293231)
(0.0395939 0.128012 0.140023 -0.0405726 0.141968 -0.140387)
(0.00724765 -0.011184 2.61775e-06 0.00330327 -9.08903e-08 3.46486e-07)
(0.00581418 -0.00976218 -1.41097e-05 0.00873218 -4.21601e-05 2.68064e-05)
(0.00370988 -0.00693239 -0.000156062 0.0101928 -0.000256734 0.000182067)
(9.20109e-05 -0.00414851 -0.000714582 0.00998386 -0.000948807 0.000737229)
(0.000569722 -0.00360432 -0.00226006 0.00761426 -0.00262742 0.00219842)
(-0.00168366 -0.00512722 -0.00545824 0.00642557 -0.00571972 0.00509557)
(-0.00365859 -0.00705522 -0.00984922 0.00657706 -0.00930538 0.00877294)
(-0.00683654 -0.00366153 -0.00981411 0.00738243 -0.007437 0.0075159)
(-0.00572508 0.0243333 0.015915 0.0059484 0.0198411 -0.0193963)
(0.013517 0.129714 0.128744 -0.0127375 0.132225 -0.129994)
(0.000975306 -0.00717189 9.2814e-07 0.00178825 2.07718e-06 4.73586e-07)
(-0.000611432 -0.0120846 -5.03363e-06 0.004286 -1.61363e-05 1.32208e-05)
(-0.00164988 -0.0111441 -8.036e-05 0.00531388 -0.000135218 9.89957e-05)
(-0.00221634 -0.00866787 -0.000425582 0.00425656 -0.000568954 0.000442557)
(-0.0015081 -0.00656449 -0.00150069 0.00296887 -0.00174973 0.00145366)
(-0.00194472 -0.00754474 -0.00410813 0.00219061 -0.00433745 0.00382513)
(-0.00309566 -0.0101295 -0.00914124 0.00246376 -0.00888687 0.00828271)
(-0.0055665 -0.0151123 -0.0162239 0.00389864 -0.0145473 0.01434)
(-0.00715054 -0.0155945 -0.0193739 0.00603683 -0.0153841 0.0164033)
(-0.00112278 0.00734301 0.00509369 0.0013389 0.00762399 -0.00657135)
(0.00738468 -0.00578419 -2.50795e-06 -0.000510239 1.55876e-06 2.27164e-06)
(0.00635837 -0.00545072 -5.75993e-06 0.000764485 -3.95018e-06 9.67153e-06)
(0.00408616 -0.00390164 -3.46138e-05 0.00306305 -5.29351e-05 4.6991e-05)
(0.00163777 -0.00286691 -0.000190767 0.00381174 -0.000253198 0.000205657)
(0.00114191 -0.00224059 -0.000707022 0.00317021 -0.000821988 0.000687814)
(-5.30418e-06 -0.00300269 -0.00197716 0.0024832 -0.0020817 0.00182477)
(-0.000983223 -0.00478273 -0.00440203 0.00213667 -0.0042846 0.00393635)
(-0.00254808 -0.0075512 -0.00776637 0.00223383 -0.0070578 0.00679248)
(-0.00367212 -0.00837737 -0.00972051 0.00280924 -0.00818977 0.00832036)
(-0.00155651 -0.00163746 -0.00281899 0.00148631 -0.00196447 0.0021993)
(0.00355286 -0.0041078 -7.52912e-06 -0.000772653 -1.21575e-06 5.50056e-06)
(0.00306476 -0.00673557 -1.64017e-05 -0.00241716 -5.39089e-06 1.60352e-05)
(0.00177098 -0.00615078 -2.79063e-05 -0.000743729 -2.22054e-05 3.45331e-05)
(0.000841475 -0.0047835 -8.62408e-05 -0.000395514 -9.83821e-05 9.88992e-05)
(0.000459415 -0.00337184 -0.000291578 -0.000110301 -0.000325655 0.000292015)
(8.39984e-05 -0.00301363 -0.000808972 -0.000163042 -0.000833864 0.000744718)
(-0.000515117 -0.00303871 -0.00178476 3.16804e-05 -0.00170339 0.00156268)
(-0.00122313 -0.00376411 -0.00307286 0.000271038 -0.00273461 0.0026031)
(-0.00186582 -0.00371639 -0.0037233 0.000731362 -0.00307751 0.00307163)
(-0.000799032 -0.00124861 -0.00149532 0.000369357 -0.00113781 0.00119365)
(0.00682531 -0.0025075 -1.38419e-05 -0.0015941 -5.53033e-06 9.74936e-06)
(0.0056204 -0.00181411 -3.49749e-05 -0.0027895 -1.64798e-05 2.98896e-05)
(0.00319797 -0.00114929 -5.10213e-05 -7.07892e-05 -2.81741e-05 5.16691e-05)
(0.00157854 -0.00109861 -7.89594e-05 0.000860282 -5.99113e-05 8.83455e-05)
(0.000915251 -0.000839308 -0.000156287 0.00109795 -0.000146514 0.000168349)
(0.000335538 -0.000937635 -0.000346803 0.000934687 -0.000336008 0.000337681)
(-4.5077e-05 -0.00111933 -0.000702019 0.000750034 -0.000651233 0.000626779)
(-0.000450216 -0.00143292 -0.00114989 0.000598888 -0.00100031 0.000965089)
(-0.000726648 -0.00139079 -0.00132598 0.000581359 -0.00106744 0.00106212)
(-0.000335641 -0.000443629 -0.000563962 0.000337987 -0.000417387 0.000434416)
(0.00461814 -0.00194207 -2.12361e-05 -0.00139918 -1.08813e-05 1.46863e-05)
(0.00379464 -0.00224692 -6.00572e-05 -0.00488101 -3.40512e-05 4.93038e-05)
(0.00213386 -0.00201824 -9.56871e-05 -0.00272978 -5.66693e-05 8.93459e-05)
(0.00120027 -0.00166883 -0.000132563 -0.00193032 -8.71693e-05 0.000137381)
(0.000635791 -0.0012838 -0.000178503 -0.00111197 -0.000135712 0.000196676)
(0.000324366 -0.00110612 -0.000252708 -0.000765359 -0.00021593 0.000277667)
(1.38351e-05 -0.000952237 -0.000369563 -0.000459738 -0.000328799 0.000383104)
(-0.000173236 -0.000912972 -0.00049691 -0.000302957 -0.000430981 0.000474812)
(-0.000326633 -0.000729494 -0.000504746 -0.000117717 -0.000408277 0.000444027)
(-0.000140593 -0.00023823 -0.00020386 -6.563e-05 -0.000149139 0.000165492)
(0.00560481 -0.00134694 -2.95839e-05 -0.00146614 -1.70592e-05 2.00864e-05)
(0.00410357 0.000829556 -9.13093e-05 -0.00377436 -5.68815e-05 7.33988e-05)
(0.0016094 0.000928793 -0.000159555 -0.00094592 -0.000101737 0.000144321)
(0.000613866 0.000347714 -0.000232223 -0.00018526 -0.000156327 0.000230987)
(0.000142399 -4.28163e-05 -0.00029925 0.000291571 -0.000218817 0.000320561)
(-9.73879e-05 -0.00036903 -0.000355972 0.000332992 -0.000286385 0.000403825)
(-0.000215734 -0.000522681 -0.000397107 0.00027023 -0.000346689 0.000471601)
(-0.000253343 -0.000573256 -0.000400143 0.000171678 -0.000365238 0.000492997)
(-0.000229281 -0.000456565 -0.000315279 0.000114135 -0.000287072 0.000399376)
(-7.71937e-05 -0.000149542 -0.00010211 5.36088e-05 -8.93567e-05 0.000133533)
(0.00419998 -0.00166591 -3.87273e-05 -0.000819558 -2.39997e-05 2.57416e-05)
(0.00264869 0.000694097 -0.000128796 -0.00474076 -8.49028e-05 0.00010168)
(0.000798713 0.000812973 -0.000244143 -0.00245021 -0.000163196 0.000216937)
(0.000112963 0.000470003 -0.000379232 -0.00172585 -0.00026338 0.000369936)
(-0.000205519 -2.48339e-05 -0.000506961 -0.000958328 -0.000374918 0.000529629)
(-0.00031829 -0.000399497 -0.000601797 -0.000598355 -0.000484098 0.000661126)
(-0.000393294 -0.000631469 -0.00064417 -0.000391413 -0.000569655 0.000747021)
(-0.000342971 -0.000704291 -0.000606974 -0.000309967 -0.000587025 0.000774773)
(-0.000252789 -0.000562038 -0.000444794 -0.000234034 -0.00046419 0.0006746)
(-6.96187e-05 -0.000183607 -0.000133106 -0.000168564 -0.000155382 0.000285238)
(0.00372497 -0.00363762 -4.83755e-05 -0.00127466 -3.1625e-05 3.13839e-05)
(0.0020216 0.00172834 -0.000172157 -0.00315941 -0.000118214 0.000133256)
(-0.000353911 0.0021626 -0.000351765 -0.000528369 -0.000243116 0.000307851)
(-0.000831207 0.00141673 -0.000582463 -2.66072e-05 -0.000413945 0.000562083)
(-0.000947134 0.000500502 -0.000813754 0.000364061 -0.000608238 0.000838005)
(-0.000871245 -0.000240097 -0.000984568 0.000381556 -0.000794418 0.00103512)
(-0.000754639 -0.000745139 -0.0010572 0.000253464 -0.000945326 0.00108564)
(-0.000559645 -0.00100535 -0.00101705 7.70212e-05 -0.00102166 0.00104075)
(-0.000350133 -0.000926176 -0.000812827 -4.95184e-05 -0.000911746 0.00100141)
(-9.40685e-05 -0.000389252 -0.000308867 -0.000139869 -0.000401445 0.000705583)
(0.00228315 -0.00593439 -5.80555e-05 0.00045069 -3.97377e-05 3.66669e-05)
(0.000440515 0.000786617 -0.000219936 -0.0029771 -0.000156308 0.000166333)
(-0.00121282 0.00215309 -0.000482656 -0.00105858 -0.000342981 0.000415008)
(-0.0015589 0.00184728 -0.000851511 -0.000598847 -0.000616444 0.000814825)
(-0.00143506 0.000900276 -0.00124145 -9.16797e-05 -0.000932621 0.00127616)
(-0.00118957 4.21781e-05 -0.00150632 0.000118458 -0.00120465 0.00153848)
(-0.000861938 -0.000656246 -0.001534 5.84978e-05 -0.00136214 0.0012588)
(-0.000435401 -0.00114935 -0.00136552 -0.000167562 -0.00142023 0.00039395)
(-0.000136539 -0.0013232 -0.00114808 -0.000305941 -0.00140472 -0.000226232)
(-0.000134814 -0.000845811 -0.000693686 -0.000315471 -0.000944219 0.000819236)
(0.0014388 -0.0131213 -6.71379e-05 -0.0023928 -4.79772e-05 4.122e-05)
(5.69563e-05 -0.00116325 -0.000269224 -0.00196355 -0.000197572 0.000198172)
(-0.00210762 0.00213551 -0.000632252 0.000286087 -0.000461249 0.000531072)
(-0.00223566 0.00233091 -0.00119002 0.000724121 -0.000877052 0.00112541)
(-0.00196455 0.00148731 -0.00181724 0.00102549 -0.00136928 0.00188801)
(-0.00144401 0.000617312 -0.00217731 0.000987876 -0.00170157 0.00228904)
(-0.000672567 -5.3282e-05 -0.00183149 0.000573262 -0.00154427 0.00111384)
(0.000510311 -0.00045392 -0.000689336 -0.000321323 -0.000813945 -0.00319558)
(0.00135817 -0.000781793 0.000310712 -0.00108067 -0.000212469 -0.0101294)
(0.000489089 -0.00131368 -0.000543815 -0.000936198 -0.00102011 -0.00956754)
(-0.00117428 -0.0215664 -7.49474e-05 0.00209213 -5.58443e-05 4.47653e-05)
(-0.00161965 -0.00527958 -0.000315843 -0.000420701 -0.000239158 0.000225746)
(-0.00272804 0.00136231 -0.000789052 0.000555106 -0.000591111 0.000642635)
(-0.00296129 0.00294563 -0.00158612 0.000778758 -0.00119264 0.00146577)
(-0.00242593 0.0028133 -0.00257021 0.00114783 -0.00195093 0.00269377)
(-0.00168692 0.00242031 -0.00309831 0.00136492 -0.00235833 0.00363014)
(-0.000155753 0.00249157 -0.00177687 0.000810652 -0.00123749 0.00167813)
(0.00316239 0.00370542 0.0031136 -0.00151822 0.00297906 -0.00994872)
(0.00778271 0.00589687 0.0109446 -0.00528421 0.00998994 -0.0458732)
(0.00725078 0.00442648 0.0106541 -0.00685425 0.0102639 -0.132971)
(-0.00104857 -0.0393627 -8.09443e-05 -0.00621666 -6.27919e-05 4.72426e-05)
(4.26184e-05 -0.0128909 -0.000355336 -0.00183326 -0.00027742 0.000247085)
(-0.002236 -0.000639032 -0.000934757 0.000219594 -0.000719345 0.000734383)
(-0.00267197 0.00351802 -0.00199847 0.00120366 -0.00153757 0.00177149)
(-0.00230516 0.00492886 -0.00349214 0.00169091 -0.00269613 0.00355576)
(-0.00153999 0.00592612 -0.00457135 0.00199123 -0.00347946 0.00574125)
(0.000426276 0.00776567 -0.00238559 0.00110096 -0.00132199 0.00613478)
(0.00722218 0.0139116 0.0101498 -0.00465406 0.0104803 -0.00229654)
(0.0256682 0.0315164 0.0477763 -0.0222773 0.04654 -0.0376933)
(0.0682583 0.0750105 0.134642 -0.0675707 0.135013 -0.14169)
(-0.00631685 -0.0664171 -8.49105e-05 0.00442059 -6.83494e-05 4.88365e-05)
(-0.00109821 -0.0264909 -0.000384672 0.00212814 -0.000309002 0.000262541)
(-0.00141858 -0.00471087 -0.00105002 0.00169238 -0.00082903 0.000800354)
(-0.00256937 0.00373955 -0.00234984 0.00156292 -0.00185055 0.00197889)
(-0.00210531 0.00862061 -0.00440854 0.00188601 -0.00348382 0.00409953)
(-0.00183996 0.0124274 -0.00668586 0.00284907 -0.00526965 0.00698488)
(-0.0012693 0.0167354 -0.00669087 0.00378356 -0.00495089 0.00863138)
(0.00229422 0.0247861 0.00280645 0.00147393 0.00438459 0.00194601)
(0.0165644 0.0466292 0.0393336 -0.012671 0.0404431 -0.0324047)
(0.0628921 0.109647 0.143099 -0.0625726 0.143732 -0.140592)
(-0.00512627 -0.107693 -8.7012e-05 -0.0123047 -7.22111e-05 4.98171e-05)
(0.00564909 -0.0465603 -0.000403722 -0.00515349 -0.000332049 0.000274185)
(0.00325079 -0.0118969 -0.00112701 -0.00288167 -0.000908657 0.000851777)
(0.000277576 0.00392621 -0.00257124 1.94865e-05 -0.00206088 0.0021306)
(-0.000130864 0.0149668 -0.00492793 0.00059514 -0.00394455 0.00444671)
(-0.000616035 0.0262897 -0.00773605 0.00210608 -0.0061352 0.00763138)
(-0.00109226 0.0392654 -0.00858029 0.00383215 -0.00637092 0.0096319)
(-0.000626079 0.0557222 -0.000227917 0.00467192 0.00237914 0.0032357)
(0.00693716 0.0816854 0.0353126 -0.00272155 0.0383917 -0.0310944)
(0.0415255 0.146197 0.142145 -0.0411711 0.144473 -0.140073)
(-0.0142458 -0.187053 -8.76319e-05 0.0104507 -7.4186e-05 5.03073e-05)
(0.00984667 -0.0747517 -0.000414635 0.00154255 -0.000347544 0.000282873)
(0.0108698 -0.0232316 -0.00117737 0.00103504 -0.000970179 0.000896428)
(0.00512483 0.00329118 -0.00270899 0.00021721 -0.00222565 0.00226772)
(0.00348781 0.0241224 -0.00519031 0.000298891 -0.00426993 0.00474819)
(0.00155206 0.0502144 -0.00802896 0.000600726 -0.0065527 0.00807765)
(-0.000164593 0.0857457 -0.00845134 0.00194332 -0.00640479 0.00985239)
(-0.00334416 0.133808 0.00127686 0.00471851 0.00393547 0.00219218)
(-0.00420813 0.191041 0.0388649 0.00676456 0.0430626 -0.0347727)
(0.00971455 0.246507 0.144378 -0.00638171 0.150555 -0.144704)
)
;

boundaryField
{
    frontAndBack
    {
        type            empty;
    }
    symm
    {
        type            symmetryPlane;
    }
    in
    {
        type            mySigma;
    }
    out
    {
        type            mySigma;
    }
}


// ************************************************************************* //
