/*--------------------------------*- C++ -*----------------------------------*\
| =========                 |                                                 |
| \\      /  F ield         | foam-extend: Open Source CFD                    |
|  \\    /   O peration     | Version:  3.0                                   |
|   \\  /    A nd           | Web:         http://www.extend-project.de       |
|    \\/     M anipulation  |                                                 |
\*---------------------------------------------------------------------------*/
FoamFile
{
    version     2.0;
    format      ascii;
    class       volVectorField;
    location    "0.3";
    object      u;
}
// * * * * * * * * * * * * * * * * * * * * * * * * * * * * * * * * * * * * * //

dimensions      [0 0 0 0 0 0 0];

internalField   nonuniform List<vector> 
300
(
(368.639 -213.357 0.000371223)
(20.1313 273.369 0.0010325)
(-51.0902 -61.7505 0.00286892)
(95.6334 28.2825 0.00660199)
(-2.30609 91.9438 0.013273)
(40.0055 6.75451 0.0239963)
(-8.51652 -3.65216 0.0396105)
(13.0075 1.71584 0.0600264)
(-2.86737 -1.16823 0.0829153)
(6.35705 0.0513231 0.121807)
(-11.4429 38.1858 0.000323568)
(-1.12754 -16.7867 0.000914249)
(-0.647031 -23.5879 0.00235551)
(12.3756 -31.0201 0.00497766)
(4.48454 31.3194 0.00883845)
(-2.11534 -8.87071 0.0129046)
(2.53621 10.243 0.0135816)
(-1.21192 -3.01101 0.00209106)
(2.07481 2.66542 -0.0400844)
(-0.465598 -0.0671706 -0.0239161)
(-28.2183 10.0426 0.000294521)
(58.7644 17.8978 0.000885547)
(16.8481 7.806 0.00232821)
(0.445422 9.90034 0.00503713)
(-2.63071 -9.36552 0.00922405)
(7.77304 4.80933 0.0140727)
(-1.28744 -3.66468 0.0160738)
(4.49556 1.78832 0.00571949)
(-0.392535 -1.20351 -0.0389605)
(3.10477 0.438176 -0.0128518)
(-17.247 26.1026 0.000276544)
(-8.76272 3.55426 0.000861277)
(-3.27675 1.7562 0.00229212)
(4.75 -9.14076 0.0050278)
(-0.509912 9.94789 0.00936121)
(0.400085 -3.81457 0.0145865)
(0.743421 3.85947 0.0172549)
(0.400745 -1.33434 0.00767462)
(1.12706 1.16237 -0.0366159)
(0.464231 -0.0926617 0.000443452)
(12.7141 -11.7574 0.000263128)
(14.3981 4.40045 0.000839747)
(8.39337 3.07988 0.00226027)
(2.3728 3.67034 0.00501058)
(1.26401 -2.56233 0.00943397)
(3.13595 2.22613 0.0148992)
(0.608014 -1.29808 0.018033)
(2.12881 0.916358 0.00916736)
(0.594722 -0.529304 -0.0339642)
(1.76563 0.32301 0.0143411)
(-10.5891 12.4108 0.000250262)
(-6.60598 2.44995 0.000815943)
(-3.09673 2.10363 0.00222075)
(1.43991 -2.68825 0.00496556)
(-0.654918 3.19885 0.00942576)
(0.946635 -1.38265 0.0150324)
(0.516044 1.32994 0.0185211)
(0.877176 -0.513153 0.0103952)
(0.914962 0.441618 -0.0310809)
(0.829911 -0.0509905 0.0280516)
(8.65328 -5.75779 0.000235269)
(7.30756 1.91197 0.000785419)
(5.07027 1.55985 0.00216352)
(2.39949 1.72087 0.0048773)
(1.7477 -0.533775 0.00932376)
(1.83372 1.03975 0.0149948)
(1.06251 -0.388606 0.0187691)
(1.38464 0.439138 0.0114418)
(0.909723 -0.194601 -0.0279322)
(1.27303 0.195104 0.0414082)
(-6.33465 5.7904 0.000216481)
(-4.1548 0.966721 0.000745051)
(-2.07954 0.958127 0.00208207)
(0.523684 -0.91059 0.00473671)
(-0.151484 0.958993 0.00912133)
(0.922544 -0.509616 0.014791)
(0.645038 0.414297 0.0188002)
(0.962072 -0.193698 0.0123391)
(0.908716 0.157693 -0.0245152)
(0.941883 -0.00929357 0.0543132)
(5.7823 -2.62417 0.000192989)
(4.52682 1.13124 0.000692728)
(3.36151 1.02498 0.00197216)
(1.98263 0.991245 0.00453835)
(1.58593 0.0400065 0.0088155)
(1.37787 0.520932 0.0144264)
(1.11978 -0.0766037 0.0186313)
(1.14234 0.213984 0.0131077)
(0.991065 -0.0515306 -0.0208367)
(1.08835 0.118333 0.0666769)
(-3.59078 2.52084 0.00016456)
(-2.26518 0.138469 0.000627013)
(-1.0428 0.178453 0.00183049)
(0.435423 -0.434238 0.00427795)
(0.297624 0.20822 0.00840461)
(0.899686 -0.223744 0.0139083)
(0.787321 0.100452 0.018285)
(0.975837 -0.0786081 0.0137826)
(0.93477 0.0594307 -0.0168786)
(0.963294 0.0138185 0.0784381)
(3.9414 -1.06416 0.00013171)
(3.04475 0.821298 0.000547103)
(2.34619 0.767117 0.00165395)
(1.59067 0.636277 0.00395046)
(1.36514 0.177397 0.00788541)
(1.18275 0.286412 0.0132434)
(1.08888 0.0208163 0.0177909)
(1.05701 0.114378 0.0144305)
(1.00094 0.00614547 -0.0125494)
(1.00928 0.0746234 0.089643)
(-1.81544 0.945971 9.5867e-05)
(-0.981372 -0.237834 0.000453212)
(-0.241473 -0.175388 0.00143969)
(0.575308 -0.288741 0.00354849)
(0.600675 -0.0295362 0.00724922)
(0.916902 -0.122477 0.0124308)
(0.882645 0.00423585 0.0171736)
(0.981047 -0.0324374 0.0151398)
(0.952011 0.0302849 -0.00763446)
(0.955489 0.0172758 0.100674)
(2.76413 -0.326056 5.94924e-05)
(2.16403 0.631738 0.000347475)
(1.72771 0.575022 0.00118623)
(1.31938 0.42077 0.00306138)
(1.19853 0.178123 0.00647646)
(1.08598 0.171071 0.0114513)
(1.04978 0.0456583 0.0164207)
(1.02107 0.071994 0.0159229)
(0.991159 0.027031 -0.00192688)
(0.97013 0.0398865 0.112732)
(-0.687592 0.229089 2.59371e-05)
(-0.151322 -0.354813 0.00023529)
(0.29851 -0.274153 0.000896997)
(0.733306 -0.216005 0.00247698)
(0.786378 -0.085718 0.00552875)
(0.945544 -0.0745344 0.010254)
(0.938088 -0.0161006 0.0154738)
(0.984765 -0.00939874 0.0165409)
(0.960182 0.0191191 0.00375134)
(0.944857 -5.11629e-05 0.126767)
(2.02151 -0.0163156 -1.21455e-06)
(1.6324 0.473581 0.000126435)
(1.3638 0.409787 0.000587077)
(1.15528 0.275357 0.00179243)
(1.0943 0.140386 0.00433926)
(1.0359 0.108774 0.00871405)
(1.0227 0.0468283 0.0143393)
(1.00506 0.052347 0.017173)
(0.984269 0.0243278 0.00651709)
(0.94917 -0.0203345 0.121677)
(0.0103772 -0.0669242 -1.94266e-05)
(0.365371 -0.343877 3.4262e-05)
(0.63162 -0.257848 0.000291793)
(0.852505 -0.160686 0.00104871)
(0.895251 -0.0811487 0.00283584)
(0.972941 -0.0444344 0.00641208)
(0.980191 -0.0107891 0.0124825)
(1.00838 0.00749118 0.0206563)
(1.01628 0.0182721 0.0269263)
(1.00679 -0.0395433 -0.00485857)
(1.5705 0.0766924 -2.87533e-05)
(1.31961 0.335027 -2.97169e-05)
(1.16232 0.272979 6.52235e-05)
(1.06553 0.17265 0.000396065)
(1.038 0.0950685 0.00121855)
(1.01285 0.0632285 0.00288984)
(1.01465 0.0307028 0.00573077)
(1.01182 0.0267677 0.00958469)
(1.02864 0.0146633 0.0129874)
(1.0072 -0.000652413 0.00173295)
(0.425572 -0.168698 -3.24993e-05)
(0.67626 -0.28384 -6.59949e-05)
(0.824388 -0.205886 -6.07005e-05)
(0.928548 -0.117689 3.82787e-05)
(0.952495 -0.0650705 0.000338891)
(0.986176 -0.0339707 0.000989431)
(0.989382 -0.015301 0.00211853)
(1.00037 -0.00466716 0.00365253)
(1.00391 0.000989558 0.00495565)
(1 -0.00541592 0.00137637)
(1.32169 0.0687294 -3.55821e-05)
(1.1439 0.220716 -9.01163e-05)
(1.0587 0.169297 -0.000131766)
(1.02054 0.102851 -0.000140099)
(1.00881 0.0584326 -6.58161e-05)
(1.00024 0.0347493 0.000157772)
(1.00176 0.0173674 0.000589787)
(1.00067 0.0117604 0.0012033)
(1.00511 0.00560851 0.00171168)
(1.00203 0.00222347 0.000619196)
(0.649393 -0.195628 -4.18132e-05)
(0.858392 -0.214596 -0.000116063)
(0.932236 -0.152345 -0.000194075)
(0.974115 -0.0836281 -0.00026598)
(0.982635 -0.0470676 -0.000299533)
(0.995043 -0.024484 -0.000253212)
(0.995162 -0.0126985 -8.87582e-05)
(0.999301 -0.00604169 0.000192011)
(0.999622 -0.00228958 0.000461609)
(0.999928 -0.00222674 0.000214178)
(1.22542 0.0264133 -5.34753e-05)
(1.05192 0.133903 -0.000152145)
(1.01068 0.0973619 -0.000275808)
(1.00119 0.0574711 -0.000416795)
(0.996458 0.0328429 -0.000542156)
(0.995712 0.0178468 -0.000608602)
(0.996869 0.00862567 -0.000572104)
(0.997605 0.00458961 -0.000407818)
(0.999491 0.00167205 -0.000157285)
(0.999905 0.000816745 -1.92492e-05)
(0.728668 -0.224804 -7.18498e-05)
(0.962078 -0.154919 -0.000202698)
(0.992624 -0.109411 -0.000392589)
(1.00109 -0.0582164 -0.000636796)
(0.998036 -0.0326361 -0.00089553)
(0.999733 -0.017602 -0.00110764)
(0.997372 -0.0101441 -0.00120223)
(0.99881 -0.00582359 -0.00111054)
(0.998651 -0.00335306 -0.000789339)
(1.00015 -0.00221077 -0.000293165)
(1.26522 0.00156132 -9.75283e-05)
(1.00956 0.077473 -0.000269753)
(0.991342 0.0531763 -0.000553036)
(0.994992 0.030104 -0.000953536)
(0.992293 0.0168856 -0.00142681)
(0.994201 0.00823058 -0.00188095)
(0.994371 0.00234634 -0.00219456)
(0.995956 -0.00036937 -0.00223511)
(0.997373 -0.00224962 -0.00185222)
(0.999946 -0.00189784 -0.000890211)
(0.678941 -0.339279 -0.000130334)
(1.01662 -0.118735 -0.000353553)
(1.02816 -0.0809577 -0.00076038)
(1.0188 -0.0394962 -0.00138227)
(1.00698 -0.0216849 -0.00218126)
(1.00229 -0.0125937 -0.00302059)
(0.997282 -0.00904383 -0.00368014)
(0.997342 -0.00662251 -0.00392294)
(0.997568 -0.0060214 -0.00354335)
(1.00293 -0.00419762 -0.00226706)
(1.44851 0.0674533 -0.000169069)
(0.994025 0.0646287 -0.000452209)
(0.984851 0.0364483 -0.00101129)
(0.995246 0.017523 -0.00192132)
(0.992887 0.0104613 -0.00317074)
(0.994917 0.00649314 -0.0045621)
(0.994848 0.00141537 -0.00565966)
(0.996363 -0.00142868 -0.00588876)
(0.999849 -0.0049592 -0.00492471)
(1.00616 -0.0060245 -0.0038634)
(0.507301 -0.673845 -0.000211437)
(1.03978 -0.136327 -0.00056112)
(1.05151 -0.0764439 -0.00129394)
(1.03489 -0.0263012 -0.00254414)
(1.01713 -0.0117761 -0.00434767)
(1.00915 -0.00622209 -0.00643489)
(1.00187 -0.00498693 -0.00797215)
(1.00115 -0.0049521 -0.00733425)
(1.00436 -0.00848407 -0.00190769)
(1.02534 -0.0186907 0.00984825)
(1.77433 0.365886 -0.000254447)
(0.974642 0.142944 -0.000672955)
(0.978431 0.0643472 -0.00158759)
(0.998031 0.0216095 -0.0031967)
(0.999232 0.0170665 -0.00558431)
(1.00204 0.0187308 -0.00837943)
(1.0057 0.0223949 -0.010221)
(1.00787 0.0259871 -0.00812762)
(1.02076 0.0398019 0.00371848)
(1.04847 0.0307992 0.0952104)
(0.260284 -1.46157 -0.000295304)
(1.06218 -0.289256 -0.000779214)
(1.07379 -0.135192 -0.00186662)
(1.05735 -0.0248508 -0.00381023)
(1.03733 -0.00483809 -0.00670776)
(1.03879 0.0040536 -0.00995383)
(1.03525 0.00996274 -0.0111353)
(1.04249 0.0117938 -0.0038352)
(1.0414 0.028465 0.0276827)
(1.02435 0.0314485 0.0692261)
(2.13799 1.1563 -0.000331396)
(0.864906 0.43744 -0.000873091)
(0.93774 0.207148 -0.00211698)
(0.991353 0.0548873 -0.00435942)
(1.01054 0.0409831 -0.00770151)
(1.02331 0.0345694 -0.0113497)
(1.04175 0.0452767 -0.0122247)
(1.05525 0.0497316 -0.00221482)
(1.0685 0.0665842 0.038188)
(1.0366 0.0432136 0.0643914)
(0.146787 -3.07062 -0.000362041)
(0.41728 -0.693354 -0.000869227)
(0.87951 -0.362879 -0.00186723)
(0.944798 -0.0541174 -0.00331222)
(1.02901 -0.0348164 -0.0044885)
(1.06406 0.00279261 -0.00296151)
(1.09661 0.00235561 0.00734886)
(1.14583 -0.00045934 0.0395253)
(1.14027 -0.0112204 0.120019)
(1.10545 -0.00274753 0.200169)
)
;

boundaryField
{
    frontAndBack
    {
        type            empty;
    }
    symm
    {
        type            symmetryPlane;
    }
    in
    {
        type            myVelocity;
    }
    out
    {
        type            fixedValue;
        value           uniform (1 0 0);
    }
}


// ************************************************************************* //
