/*--------------------------------*- C++ -*----------------------------------*\
| =========                 |                                                 |
| \\      /  F ield         | OpenFOAM: The Open Source CFD Toolbox           |
|  \\    /   O peration     | Version:  2.2.0                                 |
|   \\  /    A nd           | Web:      www.OpenFOAM.org                      |
|    \\/     M anipulation  |                                                 |
\*---------------------------------------------------------------------------*/
FoamFile
{
    version     2.0;
    format      ascii;
    class       volScalarField;
    location    "12";
    object      Theta;
}
// * * * * * * * * * * * * * * * * * * * * * * * * * * * * * * * * * * * * * //

dimensions      [0 2 -2 0 0 0 0];

internalField   nonuniform List<scalar> 
7920
(
3.01984
2.85946
3.26047
3.34112
3.56517
3.96102
3.77222
5.11115
3.00353
2.80567
3.20336
3.23745
3.47869
3.70933
3.75614
4.33465
2.98266
2.75246
3.1545
3.16226
3.4111
3.57799
3.71103
4.04907
2.95798
2.68529
3.09017
3.06831
3.30979
3.428
3.59078
3.771
2.93447
2.62722
3.04089
3.00086
3.24054
3.33889
3.51337
3.63195
2.91955
2.58911
3.00959
2.95833
3.19658
3.28502
3.46235
3.55382
2.9208
2.58878
3.01013
2.95839
3.19681
3.28514
3.46248
3.55389
2.93774
2.62633
3.04233
3.00102
3.24118
3.33923
3.51374
3.63218
2.96248
2.68404
3.09216
3.06851
3.31066
3.42846
3.59126
3.77132
2.98739
2.75113
3.15661
3.16247
3.41205
3.57854
3.71156
4.04962
3.00787
2.80445
3.20528
3.23762
3.47948
3.70978
3.75642
4.33509
3.02217
2.85881
3.26148
3.34127
3.56564
3.96145
3.77236
5.11197
2.37634
2.31447
2.41091
2.41883
2.46899
2.54727
2.52146
2.78002
2.37778
2.3181
2.41058
2.41141
2.47133
2.50306
2.56437
2.59395
2.37879
2.32121
2.40344
2.3981
2.44954
2.46129
2.51411
2.49435
2.38271
2.33261
2.40532
2.39947
2.44619
2.45106
2.50701
2.4683
2.38796
2.34578
2.40703
2.40049
2.43939
2.43902
2.48451
2.4384
2.39128
2.3566
2.40977
2.40433
2.43904
2.43793
2.47901
2.43512
2.38906
2.35729
2.40878
2.4043
2.43863
2.43775
2.47879
2.43503
2.38244
2.34754
2.40455
2.40042
2.43834
2.43856
2.48394
2.4381
2.37586
2.33476
2.40221
2.39935
2.44484
2.45043
2.50629
2.46784
2.3726
2.32319
2.40056
2.39796
2.44824
2.46058
2.51337
2.49361
2.37267
2.31971
2.4082
2.41129
2.47029
2.50247
2.56395
2.5933
2.37316
2.3155
2.40939
2.41871
2.46826
2.54673
2.5211
2.7791
2.1894
2.19282
2.23042
2.24938
2.28729
2.32405
2.3688
2.42377
2.19265
2.19415
2.23037
2.24497
2.28518
2.30283
2.37865
2.34279
2.19682
2.19466
2.22638
2.23582
2.26816
2.2787
2.33332
2.29863
2.20382
2.20115
2.2302
2.23821
2.26766
2.27833
2.32832
2.30532
2.21233
2.20837
2.23389
2.23954
2.26451
2.27352
2.3134
2.29721
2.21868
2.21435
2.23793
2.2427
2.26579
2.275
2.31114
2.3017
2.21888
2.21431
2.23803
2.24272
2.26584
2.27503
2.31116
2.30172
2.21275
2.20832
2.23409
2.23959
2.26462
2.27359
2.31347
2.29726
2.20414
2.20118
2.23035
2.2383
2.26777
2.27842
2.32841
2.30539
2.19684
2.19479
2.22641
2.23591
2.26823
2.27875
2.33338
2.29864
2.19253
2.19432
2.23035
2.24508
2.28526
2.3029
2.37879
2.34282
2.1895
2.19284
2.23048
2.24942
2.28737
2.3241
2.36891
2.42376
2.09833
2.09439
2.10856
2.1129
2.12697
2.13411
2.16033
2.15365
2.10018
2.09555
2.10935
2.11209
2.12711
2.12693
2.16536
2.12275
2.10252
2.09589
2.10758
2.10781
2.11833
2.11581
2.1395
2.10471
2.10646
2.09966
2.11061
2.11058
2.11998
2.11905
2.13919
2.11628
2.11123
2.10349
2.11322
2.11208
2.11943
2.11829
2.13248
2.11583
2.11487
2.1066
2.11587
2.11431
2.12098
2.12032
2.13246
2.12067
2.11518
2.10649
2.11601
2.1143
2.12103
2.12033
2.13247
2.12067
2.11194
2.10321
2.11354
2.11204
2.11955
2.11831
2.13252
2.11584
2.10719
2.09936
2.11095
2.11053
2.1201
2.11907
2.13924
2.1163
2.10297
2.09568
2.1078
2.10776
2.11841
2.11581
2.13954
2.10472
2.1004
2.09542
2.10948
2.11206
2.12717
2.12693
2.16539
2.12275
2.09857
2.09425
2.1087
2.11286
2.12703
2.13411
2.16037
2.15361
2.04995
2.04818
2.05586
2.05817
2.06602
2.0694
2.08522
2.07832
2.05091
2.04875
2.05625
2.0578
2.06595
2.06612
2.08699
2.06426
2.05212
2.04893
2.05541
2.05571
2.06156
2.06079
2.07378
2.05626
2.05414
2.05083
2.05702
2.05722
2.06254
2.06276
2.07375
2.06313
2.05658
2.05275
2.05842
2.05806
2.06241
2.06263
2.07059
2.06356
2.05843
2.05429
2.0598
2.05923
2.06328
2.06377
2.0707
2.0663
2.05861
2.05422
2.05989
2.05922
2.06331
2.06378
2.07072
2.0663
2.057
2.05258
2.05862
2.05804
2.06249
2.06265
2.07062
2.06357
2.05458
2.05064
2.05724
2.05719
2.06262
2.06278
2.07379
2.06314
2.05241
2.04879
2.05556
2.05569
2.06162
2.06081
2.07382
2.05628
2.05107
2.04866
2.05635
2.05778
2.06599
2.06613
2.08702
2.06428
2.05011
2.04809
2.05595
2.05815
2.06607
2.06942
2.08526
2.07834
2.02398
2.02252
2.02617
2.02691
2.03041
2.03155
2.03896
2.03453
2.02443
2.02279
2.02635
2.02674
2.03034
2.03006
2.03963
2.0281
2.02501
2.02287
2.02596
2.02578
2.02829
2.02761
2.03339
2.02452
2.02596
2.02376
2.02673
2.0265
2.02877
2.02858
2.03338
2.02793
2.02712
2.02466
2.02741
2.02692
2.02876
2.02858
2.03195
2.02828
2.028
2.02537
2.02807
2.02748
2.02919
2.02914
2.03203
2.02963
2.02809
2.02534
2.02811
2.02747
2.0292
2.02914
2.03204
2.02963
2.02734
2.02457
2.02751
2.02691
2.0288
2.02859
2.03197
2.02829
2.0262
2.02366
2.02685
2.02648
2.02882
2.02859
2.0334
2.02794
2.02516
2.02279
2.02604
2.02576
2.02832
2.02761
2.03341
2.02453
2.02452
2.02274
2.0264
2.02673
2.03036
2.03007
2.03965
2.02811
2.02406
2.02247
2.02622
2.0269
2.03044
2.03156
2.03897
2.03454
2.01086
2.00998
2.01177
2.01202
2.01362
2.01412
2.01744
2.01539
2.01107
2.0101
2.01184
2.01195
2.01357
2.01347
2.0177
2.01259
2.01133
2.01014
2.01169
2.01153
2.01269
2.01241
2.01497
2.01106
2.01176
2.01054
2.01204
2.01186
2.01291
2.01284
2.01497
2.0126
2.01229
2.01094
2.01235
2.01206
2.01292
2.01286
2.01437
2.0128
2.01269
2.01126
2.01265
2.0123
2.01312
2.01311
2.01441
2.0134
2.01274
2.01124
2.01267
2.0123
2.01313
2.01312
2.01442
2.0134
2.0124
2.0109
2.0124
2.01205
2.01294
2.01287
2.01438
2.0128
2.01188
2.01049
2.01209
2.01185
2.01293
2.01285
2.01498
2.01261
2.01141
2.0101
2.01173
2.01152
2.0127
2.01241
2.01498
2.01107
2.01111
2.01007
2.01187
2.01194
2.01359
2.01347
2.01771
2.0126
2.0109
2.00996
2.01179
2.01201
2.01363
2.01412
2.01745
2.0154
2.00462
2.00415
2.00496
2.00504
2.00572
2.00593
2.00731
2.00647
2.00471
2.0042
2.00499
2.005
2.00569
2.00566
2.0074
2.00529
2.00482
2.00422
2.00493
2.00484
2.00533
2.00522
2.00627
2.00466
2.005
2.00439
2.00507
2.00497
2.00542
2.00539
2.00627
2.00529
2.00522
2.00456
2.00521
2.00505
2.00543
2.00541
2.00603
2.00538
2.00539
2.00469
2.00533
2.00516
2.00551
2.00551
2.00604
2.00563
2.00541
2.00468
2.00534
2.00516
2.00551
2.00551
2.00605
2.00563
2.00527
2.00453
2.00523
2.00505
2.00544
2.00541
2.00603
2.00539
2.00505
2.00436
2.0051
2.00496
2.00543
2.0054
2.00627
2.00529
2.00485
2.0042
2.00495
2.00483
2.00534
2.00522
2.00628
2.00467
2.00473
2.00419
2.005
2.005
2.00569
2.00566
2.0074
2.00529
2.00464
2.00414
2.00497
2.00503
2.00572
2.00593
2.00731
2.00647
2.00176
2.00154
2.00187
2.00189
2.00215
2.00223
2.00274
2.00244
2.00179
2.00156
2.00188
2.00188
2.00213
2.00213
2.00276
2.002
2.00184
2.00157
2.00186
2.00182
2.002
2.00197
2.00236
2.00177
2.00191
2.00163
2.00192
2.00186
2.00204
2.00203
2.00235
2.002
2.00199
2.00169
2.00197
2.0019
2.00204
2.00204
2.00227
2.00204
2.00206
2.00174
2.00202
2.00194
2.00207
2.00208
2.00227
2.00213
2.00207
2.00174
2.00202
2.00194
2.00208
2.00208
2.00228
2.00213
2.00201
2.00168
2.00198
2.0019
2.00205
2.00204
2.00227
2.00204
2.00193
2.00162
2.00193
2.00186
2.00204
2.00203
2.00235
2.002
2.00185
2.00156
2.00187
2.00181
2.00201
2.00197
2.00236
2.00177
2.0018
2.00156
2.00189
2.00187
2.00214
2.00213
2.00277
2.002
2.00177
2.00154
2.00188
2.00189
2.00215
2.00223
2.00274
2.00244
2.00039
2.00032
2.00039
2.00039
2.00044
2.00045
2.00055
2.00048
2.00039
2.00032
2.00039
2.00039
2.00043
2.00043
2.00054
2.00039
2.0004
2.00033
2.00039
2.00038
2.00041
2.0004
2.00047
2.00035
2.00042
2.00034
2.0004
2.00039
2.00041
2.00041
2.00046
2.00039
2.00044
2.00035
2.00041
2.00039
2.00042
2.00041
2.00045
2.0004
2.00045
2.00036
2.00042
2.0004
2.00042
2.00042
2.00045
2.00042
2.00046
2.00036
2.00043
2.0004
2.00042
2.00042
2.00045
2.00042
2.00045
2.00035
2.00042
2.00039
2.00042
2.00041
2.00045
2.0004
2.00043
2.00033
2.00041
2.00038
2.00042
2.00041
2.00046
2.00039
2.00041
2.00032
2.00039
2.00038
2.00041
2.0004
2.00047
2.00035
2.0004
2.00032
2.0004
2.00039
2.00043
2.00043
2.00054
2.00039
2.00039
2.00032
2.00039
2.00039
2.00044
2.00045
2.00055
2.00048
1.99933
1.99952
1.99935
1.9994
1.9993
1.99931
1.99914
1.9993
1.99932
1.99951
1.99934
1.9994
1.9993
1.99935
1.99911
1.99945
1.9993
1.99952
1.99935
1.99943
1.99935
1.99941
1.99927
1.99954
1.99927
1.9995
1.99933
1.99941
1.99934
1.99938
1.99927
1.99944
1.99924
1.99948
1.99931
1.9994
1.99934
1.99938
1.99931
1.99944
1.99923
1.99946
1.9993
1.99939
1.99933
1.99937
1.99931
1.9994
1.99923
1.99945
1.9993
1.99939
1.99933
1.99937
1.99931
1.9994
1.99926
1.99947
1.99932
1.9994
1.99934
1.99938
1.99931
1.99944
1.99929
1.99949
1.99934
1.99941
1.99934
1.99938
1.99927
1.99944
1.99932
1.99951
1.99936
1.99943
1.99935
1.99941
1.99928
1.99954
1.99933
1.99951
1.99935
1.9994
1.9993
1.99935
1.99911
1.99945
1.99934
1.99952
1.99935
1.9994
1.9993
1.99931
1.99914
1.9993
1.99723
1.99751
1.99683
1.9968
1.99621
1.99598
1.99501
1.99525
1.99718
1.99748
1.99681
1.99682
1.99622
1.99617
1.99492
1.99601
1.9971
1.99748
1.99685
1.99694
1.99644
1.99644
1.99562
1.99642
1.99698
1.9974
1.99676
1.99686
1.99639
1.99634
1.99562
1.99606
1.99685
1.9973
1.99669
1.99682
1.9964
1.99635
1.99578
1.99604
1.99677
1.99722
1.99663
1.99676
1.99636
1.99629
1.99578
1.99589
1.99679
1.99721
1.99663
1.99676
1.99636
1.99629
1.99578
1.99589
1.99689
1.99728
1.99671
1.99681
1.99641
1.99635
1.99579
1.99604
1.99703
1.99737
1.99679
1.99686
1.9964
1.99634
1.99562
1.99606
1.99713
1.99747
1.99687
1.99693
1.99645
1.99644
1.99562
1.99642
1.99719
1.99747
1.99682
1.99682
1.99622
1.99617
1.99493
1.99602
1.99725
1.9975
1.99684
1.9968
1.99621
1.99598
1.99501
1.99525
1.99118
1.99473
1.99167
1.99296
1.99139
1.99163
1.98968
1.99122
1.99101
1.99464
1.99156
1.99296
1.99128
1.99201
1.98916
1.99299
1.99076
1.99464
1.99164
1.99326
1.99191
1.99278
1.99109
1.99419
1.99037
1.99439
1.99135
1.99302
1.99172
1.99244
1.99102
1.99311
1.98995
1.99414
1.99113
1.9929
1.99173
1.99245
1.99149
1.99306
1.9897
1.99391
1.99094
1.99273
1.9916
1.99228
1.99147
1.99264
1.98976
1.99389
1.99096
1.99273
1.99161
1.99228
1.99147
1.99264
1.9901
1.99409
1.99119
1.9929
1.99176
1.99246
1.9915
1.99306
1.99052
1.99433
1.99143
1.99302
1.99175
1.99245
1.99104
1.99312
1.99086
1.9946
1.9917
1.99326
1.99193
1.99279
1.9911
1.9942
1.99107
1.99461
1.99159
1.99295
1.9913
1.99201
1.98917
1.993
1.99124
1.99471
1.9917
1.99296
1.9914
1.99164
1.98969
1.99123
1.9653
1.97314
1.95756
1.95968
1.94826
1.94396
1.93261
1.9269
1.96477
1.97271
1.95734
1.95991
1.94819
1.94635
1.93073
1.93753
1.96405
1.97247
1.9578
1.96109
1.95065
1.94971
1.93791
1.9436
1.9629
1.9712
1.95692
1.96027
1.95024
1.94898
1.93815
1.94105
1.96159
1.96986
1.95617
1.95975
1.9504
1.94924
1.94013
1.94147
1.96068
1.96878
1.95546
1.95906
1.95
1.9487
1.94023
1.94024
1.96071
1.96877
1.95547
1.95906
1.95
1.9487
1.94023
1.94024
1.96168
1.96983
1.95621
1.95975
1.95042
1.94924
1.94014
1.94147
1.96299
1.97117
1.95697
1.96027
1.95026
1.94898
1.93816
1.94106
1.96411
1.97244
1.95783
1.96109
1.95067
1.94972
1.93792
1.9436
1.96481
1.9727
1.95736
1.95991
1.9482
1.94636
1.93074
1.93754
1.96533
1.97313
1.95758
1.95968
1.94827
1.94397
1.93262
1.9269
1.72213
2.06679
1.83217
1.96426
1.88714
1.91637
1.8938
1.89508
1.72172
2.06643
1.83219
1.96449
1.88757
1.91854
1.89269
1.90516
1.72123
2.06625
1.83277
1.96562
1.88998
1.92168
1.89918
1.91089
1.72042
2.06521
1.83226
1.96509
1.89001
1.9213
1.89995
1.90905
1.71941
2.0641
1.83176
1.96475
1.89035
1.92165
1.90186
1.90949
1.71861
2.06323
1.83122
1.96426
1.89014
1.92131
1.90216
1.90858
1.7185
2.06327
1.83116
1.96426
1.89012
1.92131
1.90215
1.90858
1.71914
2.06419
1.83164
1.96476
1.8903
1.92164
1.90184
1.90948
1.72013
2.06532
1.83212
1.96509
1.88995
1.92128
1.89992
1.90903
1.72104
2.06633
1.83268
1.96563
1.88994
1.92166
1.89915
1.91088
1.72162
2.06648
1.83212
1.96449
1.88753
1.91852
1.89266
1.90513
1.72203
2.06683
1.83211
1.96426
1.88711
1.91636
1.89378
1.89509
3.04316
2.92517
3.32028
3.42512
3.65917
4.06964
3.89765
5.23064
3.03543
2.89484
3.28519
3.35123
3.60995
3.85505
3.94893
4.4934
3.02644
2.8669
3.25265
3.29518
3.55447
3.7303
3.89187
4.1855
3.01793
2.83767
3.21719
3.23879
3.48791
3.6195
3.8039
3.95537
3.01168
2.8178
3.19399
3.2036
3.44424
3.55626
3.73817
3.83626
3.00813
2.8052
3.17957
3.18192
3.4168
3.5194
3.69677
3.77424
3.00756
2.8015
3.17653
3.17715
3.4116
3.51252
3.69043
3.76358
3.00978
2.8058
3.18335
3.18681
3.42512
3.53024
3.71219
3.79261
3.01446
2.81809
3.20076
3.21303
3.46018
3.58131
3.7718
3.89251
3.02036
2.83568
3.22377
3.24973
3.50306
3.65584
3.82298
4.0457
3.02598
2.85689
3.25321
3.30185
3.56118
3.78048
3.91101
4.35541
3.02708
2.8689
3.26648
3.34269
3.56957
3.93156
3.79261
4.9435
2.35636
2.28021
2.38486
2.38857
2.43803
2.52373
2.47816
2.78961
2.35135
2.27137
2.37369
2.36766
2.423
2.46346
2.48617
2.5832
2.34406
2.2635
2.36301
2.35282
2.40773
2.43259
2.46691
2.51174
2.33712
2.25595
2.35272
2.33924
2.3929
2.40642
2.45172
2.45414
2.3319
2.25083
2.34532
2.32989
2.38174
2.38878
2.43586
2.41534
2.32949
2.24905
2.34223
2.32621
2.3772
2.38179
2.42985
2.40046
2.33028
2.25096
2.34353
2.32797
2.37869
2.3838
2.43069
2.40349
2.33434
2.25734
2.35055
2.33737
2.38934
2.39962
2.44464
2.43476
2.34141
2.26621
2.35994
2.34924
2.40123
2.41906
2.45564
2.47629
2.35077
2.28085
2.37755
2.37414
2.42923
2.46694
2.4918
2.58374
2.36109
2.29113
2.38702
2.38599
2.43443
2.48749
2.47512
2.63688
2.37113
2.31139
2.41133
2.42652
2.47389
2.58681
2.51032
2.94102
2.16844
2.1735
2.21252
2.23435
2.27207
2.32001
2.34846
2.45951
2.16582
2.16742
2.20427
2.22069
2.25711
2.28655
2.33127
2.36008
2.16224
2.16283
2.19801
2.21254
2.24686
2.27268
2.31382
2.33862
2.15897
2.15864
2.19225
2.20512
2.23784
2.26025
2.30246
2.31848
2.15669
2.15601
2.18843
2.2003
2.23174
2.25199
2.29321
2.30369
2.15594
2.15528
2.18706
2.19858
2.22944
2.24892
2.28986
2.29864
2.15701
2.15656
2.18808
2.19967
2.2302
2.25001
2.28957
2.30056
2.15999
2.1604
2.1925
2.20522
2.23642
2.25899
2.2972
2.31774
2.16468
2.16528
2.19774
2.21114
2.24196
2.26732
2.30004
2.33348
2.17086
2.17409
2.20901
2.22635
2.26005
2.29534
2.32544
2.39223
2.17754
2.17912
2.21359
2.23025
2.26009
2.2979
2.30942
2.39434
2.18479
2.19238
2.2315
2.2574
2.29292
2.35897
2.36075
2.56449
2.0848
2.08136
2.09525
2.10052
2.1134
2.12591
2.14175
2.16661
2.08351
2.0785
2.09124
2.09411
2.10564
2.11073
2.13012
2.1232
2.08178
2.07654
2.08848
2.09074
2.10096
2.10566
2.12069
2.11811
2.08033
2.07495
2.08624
2.08804
2.09752
2.10158
2.11594
2.11318
2.07944
2.07412
2.08493
2.08649
2.09544
2.09906
2.11241
2.10925
2.07934
2.07422
2.08482
2.08641
2.09521
2.09887
2.1119
2.1093
2.08016
2.07523
2.08576
2.08747
2.09618
2.1002
2.1124
2.11166
2.08194
2.07745
2.08833
2.09064
2.09975
2.10523
2.11677
2.12121
2.08458
2.08002
2.09105
2.09354
2.10236
2.10891
2.11757
2.12775
2.08799
2.0847
2.09713
2.10158
2.11215
2.12346
2.13199
2.15787
2.09162
2.08701
2.09905
2.10254
2.11096
2.12183
2.12149
2.15116
2.09571
2.09441
2.10939
2.11777
2.13066
2.1548
2.15618
2.23829
2.04226
2.04117
2.04855
2.0515
2.05882
2.06495
2.07577
2.08482
2.04166
2.03978
2.04657
2.04838
2.05488
2.05771
2.0694
2.06451
2.04087
2.03887
2.04526
2.04679
2.05256
2.05541
2.06442
2.0628
2.04026
2.03819
2.04428
2.04563
2.05102
2.05376
2.06214
2.06136
2.03993
2.03789
2.04377
2.04502
2.05015
2.0528
2.06051
2.0601
2.04001
2.03804
2.04385
2.04512
2.05019
2.05293
2.06039
2.0606
2.04053
2.03862
2.04442
2.04574
2.05076
2.0537
2.06071
2.062
2.04151
2.03977
2.04575
2.04734
2.05255
2.05618
2.06284
2.06668
2.04288
2.04106
2.04712
2.04875
2.05382
2.05787
2.06315
2.06956
2.04464
2.04338
2.05014
2.05269
2.05864
2.06488
2.07032
2.08393
2.04649
2.0445
2.05106
2.05303
2.05795
2.06362
2.06499
2.07933
2.04859
2.04821
2.05632
2.06067
2.06806
2.07993
2.08344
2.12182
2.02001
2.01893
2.02232
2.02334
2.02654
2.02886
2.03394
2.03676
2.01974
2.0183
2.02141
2.02191
2.0247
2.02555
2.03088
2.02746
2.01938
2.01788
2.02081
2.02117
2.02359
2.02448
2.02842
2.02674
2.01912
2.0176
2.02039
2.02068
2.02292
2.0238
2.02738
2.02632
2.01901
2.01749
2.0202
2.02045
2.02257
2.02344
2.02666
2.02591
2.01908
2.01761
2.02029
2.02055
2.02265
2.02359
2.02667
2.02632
2.01937
2.01791
2.0206
2.0209
2.02299
2.02403
2.0269
2.02712
2.01986
2.01848
2.02127
2.02169
2.02388
2.02524
2.02795
2.02939
2.02055
2.01912
2.02195
2.02239
2.02452
2.02608
2.02818
2.03081
2.0214
2.02022
2.0234
2.02426
2.02683
2.02937
2.03162
2.03752
2.0223
2.02077
2.02387
2.02444
2.02655
2.02879
2.0292
2.03527
2.02332
2.02254
2.02639
2.02808
2.03141
2.03649
2.0382
2.05524
2.00897
2.00831
2.00994
2.01033
2.01179
2.0128
2.01513
2.01621
2.00885
2.00804
2.00955
2.00972
2.01099
2.01137
2.01379
2.0122
2.0087
2.00786
2.00929
2.00939
2.01051
2.0109
2.01269
2.01189
2.00859
2.00775
2.00912
2.00919
2.01023
2.01063
2.01225
2.01177
2.00855
2.00771
2.00904
2.0091
2.01009
2.01049
2.01195
2.01163
2.0086
2.00777
2.0091
2.00917
2.01014
2.01058
2.01197
2.01186
2.00874
2.00792
2.00925
2.00933
2.01031
2.01079
2.01209
2.01224
2.00898
2.00818
2.00956
2.00969
2.01071
2.01133
2.01256
2.01325
2.00929
2.00847
2.00987
2.01001
2.01101
2.01171
2.01268
2.01389
2.00969
2.00896
2.01052
2.01083
2.01202
2.01315
2.01418
2.01682
2.01009
2.0092
2.01074
2.01092
2.01192
2.0129
2.01314
2.01583
2.01056
2.00998
2.01185
2.01252
2.01407
2.01628
2.01714
2.02459
2.00378
2.00343
2.00416
2.0043
2.00491
2.00532
2.0063
2.00672
2.00374
2.00332
2.004
2.00404
2.00458
2.00474
2.00575
2.00506
2.00367
2.00325
2.00389
2.00391
2.00438
2.00453
2.00528
2.00493
2.00363
2.00321
2.00382
2.00383
2.00427
2.00443
2.0051
2.00489
2.00362
2.00319
2.00379
2.00379
2.00421
2.00437
2.00498
2.00484
2.00364
2.00322
2.00382
2.00382
2.00424
2.00442
2.00499
2.00494
2.0037
2.00329
2.00389
2.0039
2.00431
2.00451
2.00505
2.00512
2.00381
2.0034
2.00402
2.00405
2.00448
2.00474
2.00525
2.00554
2.00394
2.00352
2.00416
2.00419
2.00462
2.00491
2.00531
2.00582
2.00411
2.00372
2.00443
2.00453
2.00504
2.0055
2.00594
2.00703
2.00429
2.00383
2.00453
2.00458
2.00501
2.00541
2.00553
2.00664
2.00449
2.00415
2.00499
2.00524
2.00591
2.00681
2.0072
2.01027
2.00144
2.00127
2.00156
2.0016
2.00184
2.00199
2.00236
2.00251
2.00142
2.00123
2.0015
2.00151
2.00172
2.00177
2.00215
2.0019
2.0014
2.0012
2.00146
2.00146
2.00164
2.0017
2.00198
2.00184
2.00138
2.00119
2.00144
2.00143
2.0016
2.00166
2.00191
2.00183
2.00137
2.00118
2.00143
2.00142
2.00158
2.00164
2.00187
2.00182
2.00138
2.00119
2.00144
2.00143
2.00159
2.00166
2.00187
2.00186
2.00141
2.00122
2.00147
2.00146
2.00162
2.0017
2.0019
2.00193
2.00145
2.00126
2.00152
2.00152
2.00168
2.00178
2.00197
2.00208
2.0015
2.00131
2.00157
2.00157
2.00174
2.00185
2.002
2.00219
2.00157
2.00138
2.00167
2.0017
2.00189
2.00206
2.00223
2.00263
2.00163
2.00142
2.00171
2.00172
2.00189
2.00204
2.00209
2.0025
2.00171
2.00154
2.00188
2.00196
2.00222
2.00255
2.00271
2.00384
2.00031
2.00026
2.00032
2.00032
2.00037
2.00039
2.00046
2.00048
2.00031
2.00025
2.00031
2.0003
2.00034
2.00035
2.00042
2.00036
2.00031
2.00024
2.0003
2.00029
2.00033
2.00033
2.00038
2.00035
2.0003
2.00024
2.0003
2.00029
2.00032
2.00033
2.00037
2.00034
2.0003
2.00024
2.00029
2.00029
2.00031
2.00032
2.00036
2.00034
2.0003
2.00024
2.0003
2.00029
2.00032
2.00033
2.00036
2.00035
2.00031
2.00025
2.0003
2.0003
2.00032
2.00034
2.00037
2.00037
2.00031
2.00026
2.00031
2.00031
2.00034
2.00035
2.00038
2.0004
2.00033
2.00027
2.00033
2.00032
2.00035
2.00037
2.00039
2.00043
2.00034
2.00029
2.00035
2.00035
2.00038
2.00041
2.00044
2.00051
2.00035
2.0003
2.00036
2.00035
2.00038
2.00041
2.00042
2.00049
2.00037
2.00032
2.00039
2.0004
2.00045
2.00051
2.00054
2.00076
1.99945
1.9996
1.99945
1.99949
1.9994
1.99938
1.99927
1.99924
1.99946
1.99961
1.99948
1.99952
1.99944
1.99946
1.99934
1.99946
1.99947
1.99962
1.99949
1.99954
1.99947
1.99948
1.9994
1.99948
1.99948
1.99963
1.9995
1.99955
1.99949
1.9995
1.99942
1.99948
1.99948
1.99963
1.99951
1.99956
1.9995
1.99951
1.99944
1.99949
1.99947
1.99963
1.9995
1.99955
1.99949
1.9995
1.99944
1.99948
1.99946
1.99962
1.99949
1.99954
1.99948
1.99949
1.99943
1.99946
1.99944
1.99961
1.99947
1.99952
1.99946
1.99946
1.99941
1.9994
1.99942
1.9996
1.99945
1.99951
1.99945
1.99944
1.99941
1.99937
1.9994
1.99957
1.99942
1.99946
1.99939
1.99935
1.99932
1.99919
1.99937
1.99956
1.99941
1.99946
1.9994
1.99938
1.9994
1.99926
1.99935
1.99952
1.99934
1.99937
1.99928
1.99918
1.99917
1.99875
1.9977
1.99786
1.99727
1.99717
1.99663
1.99627
1.99555
1.99502
1.99774
1.99793
1.99737
1.99733
1.99684
1.99665
1.99588
1.9961
1.99778
1.99797
1.99744
1.99741
1.99696
1.99677
1.99616
1.99618
1.9978
1.998
1.99749
1.99747
1.99704
1.99685
1.99628
1.99624
1.99781
1.99802
1.99751
1.9975
1.99708
1.9969
1.99636
1.99629
1.99779
1.99801
1.99749
1.99749
1.99707
1.99688
1.99636
1.99624
1.99775
1.99798
1.99746
1.99745
1.99703
1.99683
1.99634
1.99616
1.99769
1.99793
1.99738
1.99737
1.99693
1.9967
1.99622
1.99591
1.9976
1.99787
1.9973
1.99729
1.99686
1.99661
1.9962
1.99576
1.9975
1.99775
1.99714
1.99709
1.99661
1.99624
1.99581
1.99501
1.9974
1.9977
1.99709
1.99707
1.99664
1.99631
1.99609
1.99526
1.99729
1.9975
1.99681
1.99667
1.9961
1.99543
1.9951
1.993
1.99259
1.99568
1.99288
1.99395
1.99252
1.99231
1.99113
1.99029
1.99272
1.99585
1.99315
1.99435
1.993
1.99328
1.99185
1.99302
1.99284
1.99596
1.99333
1.99456
1.99331
1.99359
1.99253
1.99326
1.99293
1.99604
1.99345
1.99471
1.99351
1.9938
1.99281
1.99344
1.99296
1.99608
1.9935
1.99478
1.99361
1.99392
1.99302
1.9936
1.99292
1.99605
1.99347
1.99475
1.99359
1.99388
1.99302
1.9935
1.9928
1.99598
1.99337
1.99466
1.99349
1.99375
1.99297
1.99328
1.99261
1.99583
1.99315
1.99442
1.99322
1.99338
1.99265
1.99256
1.99235
1.99567
1.99294
1.99423
1.99305
1.99315
1.99265
1.99215
1.99204
1.99535
1.99248
1.99366
1.99235
1.99211
1.99162
1.98998
1.99171
1.99523
1.99235
1.99365
1.99251
1.99236
1.99256
1.99074
1.99137
1.99471
1.99159
1.99256
1.99109
1.99001
1.99
1.98465
1.96882
1.97715
1.9612
1.96329
1.95205
1.94633
1.93774
1.92348
1.96913
1.97798
1.96234
1.96517
1.95425
1.95098
1.94067
1.93751
1.9695
1.97857
1.96309
1.96617
1.95557
1.95262
1.94322
1.93977
1.96978
1.97907
1.9637
1.967
1.95662
1.95398
1.94469
1.94181
1.96992
1.97934
1.96403
1.96747
1.95723
1.95477
1.94575
1.94319
1.96988
1.97934
1.96405
1.96751
1.95732
1.95488
1.94598
1.94333
1.96963
1.97906
1.96378
1.96721
1.95705
1.95452
1.94585
1.94268
1.96917
1.97841
1.96306
1.9663
1.95602
1.95305
1.94456
1.93983
1.96852
1.97764
1.96233
1.96546
1.95529
1.95195
1.94433
1.93775
1.96771
1.97623
1.96064
1.96309
1.95244
1.94759
1.94011
1.92848
1.96684
1.97549
1.96017
1.96276
1.95282
1.94785
1.94332
1.92955
1.96589
1.97326
1.95728
1.95833
1.94723
1.93806
1.93386
1.90272
1.72476
2.07054
1.83503
1.96723
1.89008
1.91784
1.8979
1.89071
1.72497
2.07131
1.83614
1.96884
1.89238
1.92189
1.90082
1.90375
1.72526
2.07188
1.83683
1.96971
1.89361
1.9234
1.90296
1.90612
1.72551
2.07239
1.83748
1.97055
1.89479
1.92478
1.90468
1.90841
1.72565
2.07265
1.83781
1.97098
1.8954
1.92551
1.90567
1.90975
1.72566
2.07265
1.83789
1.97108
1.89558
1.92571
1.90603
1.91008
1.72551
2.07237
1.83768
1.97082
1.89537
1.92541
1.90596
1.90954
1.72518
2.07172
1.83705
1.96997
1.89441
1.92405
1.90471
1.90686
1.72471
2.07097
1.83643
1.96922
1.89375
1.92311
1.90455
1.905
1.72407
2.0696
1.83487
1.96704
1.89102
1.91913
1.90046
1.89638
1.72344
2.06888
1.83449
1.96681
1.89138
1.91943
1.90356
1.89718
1.72266
2.06686
1.83186
1.96297
1.88613
1.91092
1.89485
1.87303
3.04346
2.92556
3.32046
3.42498
3.6592
4.06738
3.89893
5.21754
3.03637
2.89773
3.28843
3.35576
3.61648
3.86132
3.96374
4.4969
3.02793
2.87086
3.25638
3.30019
3.5606
3.73583
3.90207
4.18552
3.02011
2.8439
3.22333
3.24741
3.49838
3.63118
3.82073
3.96756
3.01465
2.82626
3.20212
3.21507
3.4577
3.57186
3.75801
3.85435
3.01206
2.81664
3.19067
3.19774
3.43531
3.54168
3.72343
3.80326
3.01267
2.81645
3.19095
3.19776
3.43543
3.54174
3.7235
3.80329
3.01639
2.82572
3.20292
3.21512
3.45806
3.57204
3.75823
3.85447
3.02288
2.84304
3.22458
3.24747
3.49892
3.63144
3.82102
3.96772
3.03121
2.86985
3.25788
3.30028
3.56126
3.73619
3.90243
4.18592
3.03961
2.89673
3.28988
3.35581
3.61704
3.86158
3.96387
4.49716
3.04504
2.92498
3.32111
3.42502
3.65951
4.06773
3.89896
5.21838
2.35613
2.28015
2.38493
2.38902
2.43834
2.52575
2.47779
2.79783
2.35075
2.27032
2.37277
2.36669
2.42149
2.46302
2.48233
2.58601
2.34306
2.26189
2.36194
2.3518
2.40672
2.43274
2.46554
2.51585
2.33555
2.25322
2.35065
2.33684
2.39043
2.40444
2.44837
2.45393
2.32967
2.24695
2.34238
2.32643
2.37839
2.38567
2.43208
2.41356
2.32642
2.24359
2.33791
2.32094
2.37198
2.37622
2.42393
2.39469
2.32613
2.24367
2.33778
2.32092
2.37191
2.37618
2.42389
2.39468
2.32883
2.24718
2.342
2.32639
2.37821
2.38557
2.43196
2.41351
2.33416
2.2536
2.35002
2.33678
2.39014
2.40429
2.44821
2.45385
2.34137
2.26234
2.36117
2.35171
2.40637
2.43253
2.46534
2.51567
2.34912
2.27079
2.37204
2.36663
2.42119
2.46285
2.48225
2.58586
2.35537
2.28043
2.38463
2.389
2.4382
2.5256
2.47775
2.79744
2.16828
2.17359
2.21275
2.23504
2.27263
2.32246
2.34827
2.46848
2.16526
2.16694
2.20382
2.22051
2.25647
2.28747
2.32853
2.36537
2.16121
2.16221
2.1977
2.21285
2.24738
2.275
2.3147
2.34637
2.15732
2.15732
2.19121
2.20456
2.23748
2.26118
2.30231
2.32292
2.15425
2.15401
2.18683
2.19927
2.23117
2.25264
2.29377
2.30775
2.15252
2.15224
2.18441
2.1964
2.22777
2.24809
2.28953
2.30002
2.15233
2.15232
2.18432
2.19641
2.22774
2.24808
2.28952
2.30002
2.15373
2.15422
2.18658
2.19929
2.23108
2.25261
2.29373
2.30773
2.15653
2.15766
2.19085
2.20461
2.23734
2.26114
2.30227
2.32288
2.16031
2.16259
2.19728
2.21289
2.24722
2.27494
2.31464
2.34626
2.16443
2.16729
2.20344
2.22057
2.25636
2.28742
2.32855
2.36526
2.1679
2.17371
2.21255
2.23503
2.27258
2.32242
2.34829
2.46841
2.08468
2.08143
2.09545
2.10108
2.11388
2.12798
2.14158
2.17474
2.08306
2.07797
2.09067
2.09362
2.10462
2.11086
2.12671
2.12701
2.08097
2.07588
2.088
2.09062
2.10086
2.10691
2.1204
2.12397
2.07904
2.07366
2.08503
2.08698
2.09637
2.1012
2.11423
2.11526
2.07753
2.07222
2.08315
2.08487
2.09386
2.09809
2.11086
2.1103
2.07667
2.07145
2.08209
2.08369
2.09247
2.09633
2.10915
2.10749
2.07657
2.07149
2.08204
2.08369
2.09245
2.09632
2.10914
2.10749
2.07725
2.07233
2.08301
2.08487
2.0938
2.09807
2.11082
2.11029
2.0786
2.07383
2.08482
2.087
2.09628
2.10117
2.11419
2.11524
2.08047
2.07608
2.08776
2.09062
2.10076
2.10685
2.12035
2.1239
2.08255
2.07815
2.09044
2.09363
2.10454
2.11081
2.12671
2.12694
2.08443
2.08152
2.09534
2.10107
2.11383
2.12793
2.14157
2.17462
2.04219
2.04122
2.04869
2.05187
2.05916
2.06632
2.07569
2.0902
2.04136
2.03945
2.04622
2.04809
2.05427
2.05785
2.06722
2.06713
2.04034
2.03848
2.04498
2.04676
2.05257
2.05632
2.06436
2.06682
2.0394
2.0374
2.04354
2.04502
2.05038
2.05365
2.06121
2.06292
2.03869
2.03673
2.04268
2.04408
2.04927
2.05234
2.05972
2.06101
2.03829
2.03637
2.04219
2.04354
2.04863
2.05155
2.05893
2.0598
2.03824
2.03639
2.04217
2.04354
2.04862
2.05155
2.05892
2.0598
2.03855
2.03678
2.04262
2.04408
2.04924
2.05233
2.05971
2.061
2.0392
2.03748
2.04345
2.04503
2.05034
2.05363
2.06119
2.06291
2.04009
2.03857
2.04487
2.04677
2.05253
2.0563
2.06434
2.06679
2.0411
2.03955
2.0461
2.0481
2.05423
2.05782
2.06723
2.06709
2.04205
2.04126
2.04862
2.05187
2.05913
2.0663
2.07569
2.09017
2.01996
2.01895
2.0224
2.02355
2.02674
2.02963
2.0339
2.03985
2.01956
2.0181
2.0212
2.02172
2.02432
2.02558
2.02959
2.02893
2.01907
2.01764
2.02063
2.02112
2.02356
2.02494
2.02833
2.02897
2.01863
2.01713
2.01994
2.02029
2.02251
2.02366
2.02676
2.02709
2.01829
2.01682
2.01954
2.01986
2.02199
2.02307
2.02609
2.02626
2.0181
2.01665
2.01931
2.01961
2.02169
2.0227
2.0257
2.0257
2.01808
2.01666
2.0193
2.01961
2.02169
2.0227
2.0257
2.0257
2.01822
2.01685
2.01951
2.01986
2.02198
2.02307
2.02608
2.02626
2.01853
2.01717
2.0199
2.02029
2.02249
2.02365
2.02675
2.02708
2.01895
2.01769
2.02057
2.02113
2.02354
2.02493
2.02832
2.02896
2.01943
2.01815
2.02114
2.02172
2.0243
2.02557
2.02959
2.02891
2.01989
2.01898
2.02237
2.02355
2.02672
2.02963
2.0339
2.03984
2.00895
2.00832
2.00998
2.01044
2.01189
2.01318
2.01511
2.01776
2.00877
2.00794
2.00944
2.00962
2.01081
2.01138
2.01316
2.01293
2.00854
2.00774
2.00919
2.00937
2.01049
2.01112
2.01264
2.013
2.00834
2.00751
2.00889
2.009
2.01002
2.01055
2.01194
2.01215
2.00819
2.00738
2.00871
2.00881
2.0098
2.0103
2.01166
2.0118
2.0081
2.0073
2.00861
2.0087
2.00967
2.01014
2.01149
2.01155
2.00809
2.00731
2.00861
2.0087
2.00967
2.01014
2.01149
2.01155
2.00816
2.00739
2.0087
2.00881
2.00979
2.0103
2.01166
2.0118
2.00829
2.00753
2.00887
2.009
2.01001
2.01055
2.01194
2.01215
2.00848
2.00776
2.00917
2.00937
2.01048
2.01112
2.01264
2.01299
2.0087
2.00796
2.00941
2.00962
2.0108
2.01138
2.01316
2.01292
2.00891
2.00833
2.00997
2.01043
2.01189
2.01317
2.01511
2.01775
2.00377
2.00344
2.00418
2.00434
2.00496
2.00549
2.0063
2.00741
2.0037
2.00328
2.00395
2.004
2.0045
2.00474
2.00547
2.00539
2.0036
2.0032
2.00384
2.00389
2.00437
2.00463
2.00526
2.00542
2.00351
2.0031
2.00371
2.00374
2.00417
2.00439
2.00496
2.00505
2.00345
2.00304
2.00364
2.00366
2.00408
2.00428
2.00484
2.0049
2.00341
2.00301
2.0036
2.00361
2.00402
2.00421
2.00477
2.00479
2.00341
2.00302
2.00359
2.00361
2.00402
2.00421
2.00477
2.00479
2.00343
2.00305
2.00363
2.00366
2.00407
2.00428
2.00484
2.0049
2.00349
2.00311
2.0037
2.00374
2.00417
2.00439
2.00496
2.00505
2.00357
2.00321
2.00383
2.00389
2.00436
2.00463
2.00526
2.00541
2.00367
2.00329
2.00394
2.004
2.0045
2.00474
2.00546
2.00539
2.00376
2.00344
2.00417
2.00434
2.00496
2.00549
2.0063
2.00741
2.00143
2.00127
2.00157
2.00162
2.00186
2.00205
2.00236
2.00277
2.0014
2.00121
2.00148
2.00149
2.00168
2.00178
2.00204
2.00203
2.00137
2.00118
2.00144
2.00145
2.00163
2.00173
2.00197
2.00203
2.00133
2.00115
2.0014
2.00139
2.00156
2.00164
2.00186
2.0019
2.00131
2.00112
2.00137
2.00136
2.00153
2.0016
2.00181
2.00184
2.00129
2.00111
2.00135
2.00135
2.0015
2.00158
2.00179
2.0018
2.00129
2.00111