/*--------------------------------*- C++ -*----------------------------------*\
| =========                 |                                                 |
| \\      /  F ield         | foam-extend: Open Source CFD                    |
|  \\    /   O peration     | Version:  3.0                                   |
|   \\  /    A nd           | Web:         http://www.extend-project.de       |
|    \\/     M anipulation  |                                                 |
\*---------------------------------------------------------------------------*/
FoamFile
{
    version     2.0;
    format      ascii;
    class       volVectorField;
    location    "15";
    object      s;
}
// * * * * * * * * * * * * * * * * * * * * * * * * * * * * * * * * * * * * * //

dimensions      [0 1 -1 0 0 0 0];

internalField   nonuniform List<vector> 
3012
(
(0.25453 -0.0462148 1.03318e-19)
(-0.0461412 -0.255023 -1.04224e-19)
(-0.255247 0.0457069 1.35561e-21)
(0.0459368 0.254596 3.24603e-19)
(-0.0636934 0.472613 -2.32211e-19)
(0.471956 0.0634394 -2.23981e-19)
(0.0633282 -0.474707 -1.20902e-19)
(-0.474448 -0.064234 7.70358e-20)
(0.183633 -0.183003 1.87549e-20)
(-0.183089 -0.184047 -4.10379e-20)
(0.182327 0.183228 2.33211e-19)
(-0.184023 0.182681 1.43995e-19)
(-0.0102913 -0.173599 -2.34379e-20)
(0.173093 -0.0102278 9.472e-21)
(-0.173754 0.00999015 8.26369e-20)
(0.00997791 0.173206 2.65188e-20)
(-0.104551 0.455012 -2.98493e-19)
(0.454242 0.104248 -1.39887e-19)
(0.104468 -0.456826 -1.1411e-19)
(-0.456578 -0.105205 -9.6452e-22)
(-0.0633386 0.132299 -4.45527e-21)
(0.132015 0.0629763 -2.38913e-20)
(-0.132761 -0.0633297 4.08967e-20)
(0.0630837 -0.1326 1.34659e-19)
(-0.290484 0.00875907 4.68778e-20)
(-0.00931024 -0.290381 5.05277e-20)
(0.00884454 0.289888 1.81829e-19)
(0.289452 -0.00928376 4.90565e-20)
(0.157637 -0.0860782 -4.35553e-20)
(-0.158116 0.0859538 4.16533e-20)
(0.0857033 0.157453 1.91736e-19)
(-0.0862284 -0.158118 1.21809e-19)
(0.0734988 0.157758 2.11184e-19)
(-0.158396 0.0737986 6.8603e-20)
(0.157884 -0.0739173 -5.83891e-20)
(-0.0740462 -0.158372 2.41264e-19)
(-0.0159073 -0.306962 -2.11217e-20)
(-0.306768 0.015457 1.09434e-19)
(0.30568 -0.015908 1.20227e-19)
(0.0154094 0.30634 1.85105e-19)
(-0.00856562 -0.158188 1.11943e-20)
(-0.15834 0.00828308 3.96934e-20)
(0.00822686 0.157805 3.99834e-21)
(0.157676 -0.00850526 3.51161e-20)
(0.0634375 0.164408 -1.26839e-21)
(-0.0638544 -0.165042 -2.66292e-20)
(0.164492 -0.0637049 -1.73384e-20)
(-0.165099 0.0636256 1.62714e-20)
(-0.053868 -0.144691 4.97488e-20)
(-0.144744 0.0536189 1.4609e-20)
(0.144195 -0.0537373 5.48445e-21)
(0.0534989 0.144171 5.02591e-22)
(0.246518 -0.0412996 1.24661e-19)
(-0.0412089 -0.247152 -1.43261e-20)
(0.0409832 0.246516 2.25722e-19)
(-0.247218 0.0407588 -1.14836e-19)
(0.210185 -0.380356 1.48979e-20)
(0.378975 0.209383 2.7102e-20)
(-0.210577 0.37972 -7.29889e-20)
(-0.380301 -0.210571 -1.99788e-19)
(0.184965 -0.415961 -9.4487e-20)
(0.414254 0.184287 -1.34286e-19)
(-0.185403 0.415226 1.31927e-20)
(-0.415907 -0.185436 -2.91463e-19)
(-0.000176805 -0.17976 3.11133e-21)
(0.179086 -0.000191459 1.18288e-20)
(-0.179981 -0.000134989 3.8608e-20)
(-0.000193361 0.179431 1.55746e-20)
(-0.157561 -0.0269671 9.75433e-20)
(-0.0269681 0.157057 -4.39066e-20)
(0.0267322 -0.157472 -3.28862e-20)
(0.156872 0.0266557 -9.81062e-21)
(-0.125397 0.0989542 2.93639e-20)
(-0.0992035 -0.125475 -2.42974e-20)
(0.0986527 0.124859 7.75646e-20)
(0.124997 -0.0990552 -5.3905e-20)
(0.128636 -0.0809139 1.0181e-19)
(-0.129072 0.0807303 -5.54761e-20)
(-0.0810809 -0.129067 3.20196e-20)
(0.0805725 0.128492 9.56567e-21)
(0.0026583 -0.194071 3.69028e-20)
(0.193313 0.00256927 5.2584e-20)
(-0.00315537 0.193627 -7.88112e-20)
(-0.194229 -0.00309403 -2.79776e-20)
(-0.152037 -0.00928072 1.49803e-19)
(-0.00929009 0.15143 6.95907e-20)
(0.00909742 -0.151981 -4.55256e-20)
(0.151261 0.0090339 -9.66267e-20)
(0.0685065 0.142427 5.78685e-20)
(-0.143096 0.068723 7.4686e-20)
(0.142494 -0.068724 1.88657e-19)
(-0.0689246 -0.143066 -1.21925e-19)
(-0.195392 -0.181185 -4.70342e-21)
(0.180767 -0.195325 1.55774e-20)
(0.194517 0.180437 2.59944e-19)
(-0.181152 0.194955 1.50452e-19)
(0.300659 0.115109 1.95815e-19)
(-0.115675 0.301142 2.48498e-19)
(0.115347 -0.301732 3.26789e-19)
(-0.301816 -0.115709 1.30829e-19)
(-0.152929 -0.0288577 1.02157e-19)
(-0.0288519 0.152436 -3.84678e-20)
(0.0286151 -0.152858 2.21401e-20)
(0.152236 0.0285472 -2.1359e-19)
(-0.12043 0.098398 2.16507e-20)
(0.0980963 0.119902 6.17098e-20)
(-0.0986485 -0.120466 -8.72903e-21)
(0.120053 -0.0985037 -3.03981e-20)
(-0.125378 -0.070874 1.88706e-19)
(0.070637 -0.125244 1.06174e-19)
(0.124662 0.070507 1.37539e-19)
(-0.0708873 0.124962 1.41499e-19)
(0.167433 -0.0470714 3.64765e-19)
(-0.168014 0.0469766 2.9569e-20)
(-0.0472089 -0.167975 2.01971e-19)
(0.0467995 0.167407 3.15705e-19)
(-0.0966912 -0.095995 -1.883e-21)
(0.0961367 0.095501 5.37151e-21)
(-0.0959529 0.0964095 -1.69653e-21)
(0.095673 -0.0965569 -4.03837e-21)
(0.129904 0.0385475 2.50862e-20)
(0.0386282 -0.130491 -2.34466e-20)
(-0.0388303 0.130148 3.77139e-20)
(-0.13057 -0.0388551 4.93429e-20)
(-0.119049 -0.345688 -3.16407e-19)
(0.34474 -0.11877 -4.67962e-20)
(-0.3454 0.118583 -3.73317e-19)
(0.118207 0.344838 9.08951e-20)
(-0.247129 -0.396043 -4.19771e-20)
(0.246335 0.395099 2.04589e-20)
(-0.396139 0.246731 -9.76476e-20)
(0.395483 -0.246975 -9.1397e-20)
(-0.0991258 -0.375158 -3.03149e-19)
(0.374048 -0.0989333 -1.4255e-19)
(0.0984741 0.374136 -1.81956e-19)
(-0.374803 0.0988258 -1.36652e-19)
(-0.292142 -0.375539 -2.85981e-19)
(-0.375591 0.291723 -4.15352e-20)
(0.291166 0.374825 -2.71523e-19)
(0.375013 -0.292064 -4.27748e-20)
(-0.28146 0.0179406 2.05254e-20)
(0.0180139 0.280823 1.76398e-19)
(0.280579 -0.0183573 9.82153e-20)
(-0.0183977 -0.281373 5.19551e-20)
(-0.301881 0.325293 6.66614e-20)
(0.324729 0.301308 -2.01024e-19)
(0.301301 -0.325252 2.7895e-19)
(-0.325808 -0.30196 -2.29502e-19)
(-0.321454 0.291757 3.00469e-20)
(0.29122 0.320694 -1.47104e-19)
(0.320673 -0.29181 7.50003e-20)
(-0.292199 -0.321475 -3.55442e-19)
(0.0397007 0.141238 1.80035e-19)
(0.141265 -0.0399367 2.10613e-19)
(-0.0400489 -0.141781 2.22568e-19)
(-0.141781 0.0398512 1.44226e-19)
(-0.0589022 -0.146616 1.43819e-19)
(-0.146655 0.0586374 1.06215e-19)
(0.146069 -0.0587208 6.31897e-20)
(0.0585142 0.146014 7.30815e-20)
(-0.12073 -0.0776846 8.16388e-20)
(0.120079 0.0772413 3.6687e-20)
(-0.0776407 0.120382 4.64576e-20)
(0.0773887 -0.120621 -1.21132e-20)
(0.354494 -0.00097803 1.42392e-19)
(-0.000751309 -0.356012 8.4512e-20)
(-0.355717 0.000655575 3.38956e-21)
(0.000492528 0.354883 1.02175e-19)
(0.0786289 0.154788 2.00182e-19)
(-0.155397 0.0788814 8.51775e-20)
(0.154965 -0.0790565 -1.46859e-19)
(-0.0791831 -0.155434 1.7698e-20)
(-0.26192 0.329115 7.95736e-20)
(-0.329689 -0.261984 -1.54327e-19)
(0.261447 -0.329111 2.41513e-19)
(0.328482 0.261119 -2.82975e-19)
(0.303792 -0.253537 -9.30777e-20)
(-0.304598 0.253543 4.99886e-20)
(0.253025 0.303604 1.16262e-20)
(-0.253901 -0.304563 -8.54284e-20)
(0.364873 -0.0206067 4.48513e-20)
(-0.0207675 -0.366551 1.83681e-19)
(-0.36603 0.0203788 2.64138e-19)
(0.020274 0.365062 3.62673e-19)
(-0.0909811 0.169446 2.16867e-19)
(0.16909 0.090517 2.69924e-19)
(0.090695 -0.169786 8.00074e-20)
(-0.16988 -0.0910236 1.12837e-19)
(0.104511 -0.161681 -1.77418e-21)
(-0.161827 -0.104802 -4.45575e-20)
(-0.1048 0.16138 7.45872e-20)
(0.160992 0.104264 4.57888e-20)
(-0.124294 -0.0755533 1.27945e-19)
(0.123635 0.0751326 9.29467e-20)
(-0.0755268 0.123941 8.31541e-20)
(0.0752805 -0.124189 -1.67289e-20)
(-0.0959107 -0.169656 2.42802e-19)
(-0.169651 0.0956221 1.59074e-20)
(0.169157 -0.095752 -5.09703e-20)
(0.0953511 0.168979 2.62775e-19)
(0.00505022 -0.17728 3.47806e-20)
(0.17657 0.00501376 3.53206e-20)
(-0.00545916 0.176848 2.89923e-20)
(-0.177346 -0.00547031 3.05866e-20)
(-0.0147901 -0.177341 -5.26434e-20)
(-0.177481 0.0145291 -1.7341e-19)
(0.1768 -0.0147226 -1.59985e-20)
(0.0144504 0.176964 -2.43888e-19)
(-0.0303404 -0.139125 2.14466e-19)
(-0.139089 0.0301859 1.13044e-19)
(0.0300631 0.138562 1.74924e-19)
(0.138556 -0.0302836 2.02184e-19)
(0.0421282 -0.132464 -5.62067e-20)
(0.131871 0.0420385 7.22494e-20)
(-0.132545 -0.0423597 2.06228e-20)
(-0.0423335 0.132128 7.54641e-20)
(-0.194176 -0.0100951 3.22281e-20)
(-0.0101377 0.193577 -1.63967e-19)
(0.00970656 -0.194006 3.42914e-20)
(0.193232 0.00969516 1.2468e-19)
(-0.100731 -0.0960422 -4.22375e-21)
(0.0957235 -0.100599 -8.001e-21)
(0.100159 0.095546 6.94252e-21)
(-0.0959972 0.100439 -5.32812e-21)
(0.0891059 0.152555 6.08667e-20)
(0.152664 -0.0894858 -5.20448e-20)
(-0.0896389 -0.153135 -1.8751e-20)
(-0.153121 0.0893636 -6.45097e-20)
(0.0449952 -0.137843 -1.48587e-19)
(0.137232 0.0449014 -1.95458e-19)
(-0.0452256 0.137488 -2.17184e-19)
(-0.137926 -0.0452375 -1.72864e-19)
(0.105256 0.0989065 1.84843e-20)
(-0.0993723 0.105541 -1.45182e-20)
(0.0990606 -0.105712 -2.17806e-20)
(-0.105842 -0.0993847 -1.15852e-20)
(-0.165369 0.101958 1.85638e-20)
(-0.102232 -0.165359 1.69394e-19)
(0.101674 0.164723 2.93139e-19)
(0.164876 -0.102077 -7.37464e-20)
(-0.0619451 0.136232 -5.77675e-20)
(0.135932 0.061606 -8.50262e-20)
(-0.136645 -0.0619918 -1.07856e-20)
(0.0616902 -0.136523 1.12908e-19)
(0.0690012 -0.13044 1.6569e-19)
(-0.130588 -0.0692347 1.55928e-19)
(-0.0692655 0.130154 1.27338e-19)
(0.129872 0.0688901 1.06219e-19)
(-0.0960931 0.172606 2.3362e-19)
(0.172234 0.0956109 2.09122e-19)
(0.0958006 -0.17294 1.13142e-19)
(-0.173044 -0.096128 1.06074e-19)
(0.104727 -0.168633 2.13969e-19)
(-0.105021 0.168313 3.33481e-19)
(-0.168786 -0.105013 2.03213e-19)
(0.167912 0.104483 1.38889e-19)
(-0.260073 -0.133358 -9.66333e-20)
(0.132926 -0.26 1.59455e-19)
(0.258988 0.132632 1.59469e-19)
(-0.133253 0.259448 1.67863e-19)
(0.064172 0.131413 -1.31253e-20)
(0.131516 -0.0644225 -1.15451e-19)
(-0.0645891 -0.131954 -1.48506e-19)
(-0.131968 0.0643589 -1.04637e-20)
(-0.00669883 -0.146558 4.6984e-20)
(-0.146599 0.00647245 7.46006e-20)
(0.00640532 0.146086 2.65628e-20)
(0.145953 -0.00664408 3.20475e-21)
(-0.1098 0.174756 5.65831e-20)
(0.109485 -0.175085 -1.23007e-19)
(0.174348 0.109246 2.07132e-19)
(-0.17531 -0.109706 -9.21539e-20)
(-0.00880591 -0.162346 4.79507e-21)
(-0.162525 0.00849345 2.73933e-20)
(0.00851119 0.161925 -1.68135e-20)
(0.161881 -0.00875806 3.49432e-20)
(-0.00499271 -0.173852 -8.74107e-21)
(0.173261 -0.00494599 1.14878e-20)
(-0.17404 0.00472026 2.07241e-20)
(0.00472513 0.173451 -1.54833e-20)
(0.272335 -0.036663 1.17256e-19)
(-0.036582 -0.272815 -2.07497e-20)
(0.0363015 0.272581 2.09911e-19)
(-0.273096 0.0361799 1.57546e-19)
(0.0365616 0.140933 1.30094e-19)
(-0.141472 0.0367031 8.88532e-20)
(0.140947 -0.0367927 1.58058e-19)
(-0.0368962 -0.141476 1.57341e-19)
(-0.040009 -0.418162 4.35061e-20)
(0.417236 -0.0399127 -3.1944e-20)
(0.0393498 0.417026 -1.89812e-19)
(-0.418402 0.039703 -1.924e-20)
(-0.0142449 -0.444931 2.06727e-20)
(0.0137101 0.44366 -8.32106e-20)
(0.443771 -0.0141618 -3.37153e-20)
(-0.445088 0.0139392 -4.01127e-21)
(0.0603671 0.161479 -1.79091e-20)
(0.161628 -0.0605946 -8.13554e-20)
(-0.0607547 -0.162121 -9.79871e-20)
(-0.162197 0.060532 9.63657e-20)
(-0.11737 0.176034 1.28184e-19)
(0.117051 -0.176365 -1.41424e-19)
(0.175639 0.116822 2.17268e-19)
(-0.176601 -0.11729 -1.03844e-19)
(-0.0500795 -0.16333 -2.01548e-19)
(0.162777 -0.0499335 -2.37812e-20)
(-0.163351 0.0498556 5.44257e-20)
(0.0496705 0.162777 -7.44642e-20)
(0.271319 -0.0291759 1.5751e-19)
(-0.0290991 -0.272044 2.53002e-20)
(0.0288269 0.27154 1.75709e-19)
(-0.272151 0.0286546 1.67784e-19)
(-0.257629 -0.11828 1.08285e-19)
(0.117851 -0.25755 4.03772e-19)
(0.256468 0.117507 1.2491e-19)
(-0.11799 0.256978 1.85465e-19)
(-0.13898 -0.106056 8.48209e-20)
(-0.106008 0.138614 5.50418e-20)
(0.105725 -0.138855 5.5145e-21)
(0.138283 0.105525 8.51787e-20)
(0.0044778 -0.152927 -2.00907e-20)
(-0.152988 -0.00468516 8.53685e-20)
(0.152276 0.00446222 -5.35598e-20)
(-0.00470451 0.152432 3.35873e-20)
(0.0710127 -0.159687 1.28386e-19)
(0.159021 0.0708565 1.17997e-19)
(-0.0712763 0.159351 6.69432e-20)
(-0.159782 -0.0712992 4.33279e-20)
(0.28551 0.103243 1.50764e-19)
(-0.103739 0.286027 2.42075e-19)
(0.103644 -0.286499 1.96482e-19)
(-0.286636 -0.10383 6.70071e-20)
(-0.156019 -0.0125935 1.34503e-19)
(0.0123884 -0.155925 -2.65582e-20)
(-0.0125927 0.155393 3.65166e-20)
(0.155213 0.0123285 -7.65187e-20)
(-0.13095 0.0855085 4.29792e-21)
(0.130489 -0.0856955 1.40549e-19)
(-0.0858813 -0.13099 -1.0168e-19)
(0.0853518 0.130375 4.87672e-20)
(-0.13205 0.0771188 1.67702e-19)
(0.131676 -0.0773087 6.06764e-20)
(-0.0774824 -0.13212 -1.98747e-19)
(0.0769008 0.131501 -3.43599e-20)
(0.0861097 0.119247 3.1357e-20)
(-0.11981 0.0863005 3.71755e-21)
(0.119407 -0.0864754 2.89889e-20)
(-0.0866217 -0.119799 1.56849e-20)
(0.0183907 -0.146532 -8.41421e-21)
(-0.146601 -0.0185886 1.40683e-20)
(-0.0185627 0.146009 -6.38384e-20)
(0.145814 0.0183015 -1.34914e-19)
(-0.0271687 -0.139504 2.96111e-19)
(-0.139478 0.0270066 1.20758e-19)
(0.026893 0.138954 2.25421e-19)
(0.138934 -0.0271097 2.66078e-19)
(0.0430848 0.134799 -1.05086e-20)
(0.134839 -0.0433215 9.5283e-21)
(-0.135335 0.0432916 -1.6527e-20)
(-0.043435 -0.13533 3.67488e-21)
(0.0891477 0.121293 4.55605e-20)
(-0.121848 0.0893562 9.75769e-21)
(-0.0896655 -0.121852 2.9422e-20)
(0.121457 -0.089524 1.99124e-20)
(0.0200776 -0.149794 -8.60937e-21)
(-0.149852 -0.0202799 5.76101e-20)
(0.149079 0.0199834 -1.75346e-19)
(-0.0202528 0.14928 -3.02014e-22)
(0.159177 -0.134356 3.47218e-21)
(-0.134508 -0.159622 -2.15254e-19)
(0.133852 0.158967 -4.35855e-20)
(-0.159589 0.134176 -6.36334e-20)
(0.169691 -0.132214 -2.18228e-20)
(-0.132365 -0.170163 -2.14527e-19)
(-0.170117 0.132025 -1.20824e-19)
(0.131725 0.169492 -3.08706e-20)
(-0.173065 -0.0633238 3.02167e-19)
(-0.0632978 0.172588 -1.47533e-20)
(0.172289 0.0628103 9.91079e-21)
(0.0630322 -0.172975 3.19514e-19)
(0.137897 0.121156 2.45872e-19)
(0.12138 -0.138424 5.78243e-20)
(-0.121695 0.138239 1.62154e-19)
(-0.138595 -0.12174 1.61414e-20)
(0.0618515 0.169472 4.14091e-20)
(0.169565 -0.0621032 5.1721e-20)
(-0.170141 0.0619942 4.07755e-20)
(-0.0622524 -0.170125 3.43289e-20)
(-0.115865 0.195322 8.78993e-20)
(0.194954 0.115342 2.09273e-19)
(0.115664 -0.195758 6.29667e-21)
(-0.195975 -0.115871 -2.59841e-20)
(-0.118911 0.204968 1.47174e-19)
(0.204612 0.118404 1.79221e-19)
(0.118851 -0.205502 2.86792e-19)
(-0.205636 -0.119105 3.77203e-20)
(0.136761 0.0816701 -7.57734e-20)
(-0.0820989 0.137071 1.6409e-20)
(0.0818395 -0.137356 -3.89645e-20)
(-0.137456 -0.0821425 8.82108e-20)
(-0.041409 0.203836 1.97701e-19)
(0.0410919 -0.204341 2.74795e-19)
(0.203569 0.0410271 2.19707e-20)
(-0.204434 -0.041408 1.73697e-19)
(-0.0252904 -0.1734 -7.61136e-20)
(0.172769 -0.0251619 7.83117e-20)
(0.0248936 0.172905 -1.48226e-19)
(-0.173469 0.0249493 -5.98734e-20)
(-0.142565 -0.291781 -1.87331e-19)
(0.291141 -0.142137 5.38019e-20)
(-0.291862 0.142168 -7.91806e-21)
(0.141836 0.291139 2.22343e-19)
(-0.0344729 0.21191 2.55899e-19)
(0.211674 0.0341183 8.36716e-20)
(0.0341396 -0.212457 2.94518e-19)
(-0.212529 -0.0344523 -8.04932e-20)
(0.175349 0.373421 7.77679e-20)
(-0.374125 0.175543 3.85358e-20)
(0.373394 -0.175775 1.14119e-20)
(-0.175974 -0.374104 -1.05616e-19)
(0.10673 0.113967 6.11089e-20)
(0.114112 -0.107104 -2.86364e-20)
(-0.10727 -0.114516 -7.26179e-21)
(-0.1145 0.106974 2.27465e-20)
(-0.0573924 -0.125715 7.44326e-21)
(0.125299 -0.0571932 1.30576e-20)
(0.0569924 0.125206 -7.01971e-21)
(-0.125755 0.0571476 5.11706e-20)
(0.137142 -0.0100182 7.88163e-20)
(-0.137733 0.00987347 2.94655e-20)
(0.00981233 0.137233 1.98823e-20)
(-0.0100798 -0.137711 1.95536e-20)
(0.151169 0.0389178 -1.75546e-19)
(0.0389903 -0.151758 -7.9207e-20)
(-0.0392249 0.151359 -1.66854e-19)
(-0.151833 -0.0392396 -2.27766e-20)
(0.21931 0.079252 2.43293e-19)
(-0.0796305 0.219832 -6.08206e-20)
(-0.220326 -0.0798112 8.2896e-20)
(0.0794702 -0.220221 1.81081e-19)
(0.225267 0.0706022 2.40813e-19)
(-0.0709622 0.225689 -7.74912e-20)
(-0.226312 -0.0711473 1.26136e-19)
(0.0708001 -0.2262 2.46126e-19)
(-0.0954623 -0.100118 -1.76537e-21)
(0.0949143 0.0996137 1.06876e-20)
(-0.100079 0.0951846 1.05288e-22)
(0.0997859 -0.0953254 -4.96056e-21)
(-0.245917 -0.0753939 8.90417e-20)
(-0.0755294 0.245561 1.8747e-19)
(0.244795 0.0748262 1.65456e-19)
(0.0751388 -0.24574 2.60087e-19)
(-0.035777 0.133163 -9.37012e-20)
(0.0355692 -0.133523 -1.52225e-19)
(0.132927 0.035498 -1.33012e-19)
(-0.133599 -0.0357963 5.91085e-21)
(0.489028 0.300873 -8.96831e-20)
(0.301697 -0.490203 5.85387e-20)
(-0.301907 0.489563 -8.49115e-20)
(-0.490324 -0.302197 -1.12823e-19)
(-0.169469 -0.0594794 2.94171e-19)
(-0.0594731 0.168992 4.14322e-20)
(0.0591986 -0.169382 2.69298e-19)
(0.168684 0.0590306 -4.79234e-20)
(-0.136265 0.0407514 -2.06325e-20)
(0.0405982 0.135735 -1.03057e-20)
(-0.04094 -0.136266 6.84342e-21)
(0.135765 -0.0408291 7.90449e-21)
(0.190476 0.301552 2.43628e-19)
(-0.302373 0.190684 4.9877e-20)
(0.301741 -0.190746 -2.34305e-20)
(-0.19105 -0.302315 -4.1211e-19)
(-0.0669482 0.237526 2.21926e-19)
(-0.238147 -0.0670677 1.47809e-19)
(0.237067 0.0665387 2.31422e-20)
(0.0668149 -0.237992 2.41324e-19)
(-0.0877529 0.137064 3.99478e-20)
(0.136752 0.0873095 2.1083e-19)
(0.0874896 -0.137343 2.21012e-19)
(-0.137443 -0.0877971 8.49e-20)
(0.132771 0.119726 1.88594e-19)
(0.119895 -0.133305 5.51438e-20)
(-0.120263 0.13311 1.43213e-19)
(-0.133455 -0.12031 1.05864e-20)
(-0.00226187 -0.187002 -1.96234e-20)
(0.186329 -0.0023378 -1.19006e-20)
(0.00179321 0.186653 2.50002e-20)
(-0.187256 0.00185177 6.1314e-20)
(0.457133 0.196224 -1.30654e-19)
(0.196463 -0.458375 -6.44714e-20)
(-0.196796 0.457526 -3.10964e-19)
(-0.458521 -0.197019 -1.93086e-19)
(-0.13423 -0.108191 1.57891e-19)
(-0.108142 0.133873 1.99021e-19)
(0.107852 -0.1341 1.5276e-19)
(0.133546 0.107651 1.22494e-19)
(0.0657414 -0.159179 1.01704e-19)
(0.158511 0.0655946 -6.86143e-20)
(-0.0660785 0.158832 -2.02362e-19)
(-0.159271 -0.0660207 2.67009e-19)
(0.0821609 0.200771 2.46935e-19)
(-0.201643 0.0823271 1.92483e-19)
(-0.0826189 -0.201587 2.01918e-19)
(0.200962 -0.0825259 1.38306e-19)
(0.0702276 0.146716 2.72329e-19)
(-0.147324 0.0704695 2.6814e-19)
(0.146752 -0.0705306 1.67518e-20)
(-0.0707374 -0.147337 1.20805e-19)
(0.430965 0.0240988 -1.98708e-19)
(-0.0242596 0.431066 -2.50285e-21)
(0.0237477 -0.432698 1.50076e-20)
(-0.43271 -0.0244689 1.74566e-19)
(0.0600642 -0.13009 2.21662e-21)
(-0.130223 -0.060297 2.75555e-20)
(-0.0602973 0.129791 -2.75093e-20)
(0.129493 0.059947 -4.14098e-20)
(-0.203218 0.0908058 -9.18027e-21)
(0.0905913 0.202446 4.23162e-19)
(-0.0911073 -0.203207 -1.80727e-20)
(0.202579 -0.0909798 -6.17659e-20)
(0.0854313 -0.114883 -4.2187e-20)
(-0.114996 -0.0857738 -1.88685e-20)
(0.11437 0.0853025 -1.92333e-21)
(-0.0857241 0.114668 -4.2823e-20)
(0.0865189 -0.118322 -6.8092e-20)
(-0.118431 -0.0868663 -4.07118e-20)
(0.117793 0.0863907 -9.56355e-21)
(-0.0868172 0.118096 -7.60494e-20)
(-0.187216 0.039799 -3.54671e-20)
(0.0397244 0.186578 2.25842e-19)
(0.186411 -0.0400207 -7.89852e-20)
(-0.0401329 -0.187084 -8.77501e-20)
(-0.188731 -0.466363 8.74018e-21)
(0.188035 0.465587 -4.20986e-20)
(0.465668 -0.188585 -5.83432e-20)
(-0.466497 0.188398 -7.23446e-20)
(-0.127466 0.123496 1.0471e-19)
(-0.123817 -0.127455 -4.1457e-20)
(0.127056 -0.123672 -1.05864e-20)
(0.123177 0.126874 1.20782e-19)
(-0.180503 0.0678109 8.25313e-20)
(0.067664 0.17981 2.03624e-19)
(-0.0680887 -0.180495 2.1526e-19)
(0.179893 -0.0679552 1.57562e-19)
(0.0448404 0.190082 2.39058e-19)
(-0.0452234 -0.190666 1.01274e-19)
(0.190019 -0.0451254 1.36025e-19)
(-0.190733 0.0449321 -2.50853e-20)
(0.0417862 0.143468 2.0245e-19)
(0.143479 -0.0420385 2.42879e-19)
(-0.144021 0.0419465 2.49662e-20)
(-0.0421518 -0.143997 2.75038e-19)
(-0.132659 0.124398 1.19925e-19)
(-0.124729 -0.13269 -8.05525e-20)
(0.124088 0.132092 1.18267e-19)
(0.132297 -0.124564 -9.87064e-21)
(0.0473176 -0.171084 2.30654e-20)
(-0.0475686 0.170659 -9.71779e-20)
(0.170404 0.0471322 2.13415e-20)
(-0.171162 -0.0475858 1.25519e-21)
(0.0456199 -0.176101 9.10405e-20)
(-0.0458788 0.175664 -6.51034e-20)
(0.175402 0.0454413 1.72748e-20)
(-0.176179 -0.0458901 3.32231e-20)
(0.0465098 0.197154 8.93104e-20)
(0.197101 -0.0467818 1.14304e-19)
(-0.0468871 -0.197719 6.77388e-20)
(-0.197837 0.0465482 -5.68874e-20)
(-0.102435 -0.115167 -6.41648e-21)
(0.114768 -0.102289 -2.50483e-20)
(0.101875 0.114625 5.50567e-20)
(-0.115136 0.102148 1.89837e-20)
(-0.183604 0.0723471 1.29274e-19)
(-0.0726355 -0.18359 1.28539e-19)
(0.0722083 0.182779 1.89327e-19)
(0.182992 -0.072491 1.74018e-19)
(-0.0203138 -0.172144 -7.25912e-20)
(0.171565 -0.0202443 2.43956e-20)
(0.0199527 0.171662 -1.32111e-19)
(-0.172176 0.0200226 -4.8294e-20)
(0.149421 0.0343813 -2.06589e-19)
(0.0344595 -0.150029 1.42172e-19)
(-0.0346928 0.149625 6.68471e-20)
(-0.150103 -0.0347041 1.76974e-19)
(0.572552 -0.130827 6.98242e-20)
(-0.131228 -0.573394 -7.43058e-20)
(0.130306 0.572745 5.66992e-20)
(-0.573627 0.130688 9.21152e-21)
(0.0413684 0.203518 8.14119e-20)
(-0.0417362 -0.204064 5.97306e-20)
(0.203408 -0.041673 8.5965e-20)
(-0.204198 0.0413736 -1.09101e-19)
(-0.185081 0.0922872 1.14259e-19)
(-0.0925802 -0.185084 -1.21585e-19)
(0.184497 -0.0924359 -4.42749e-20)
(0.092013 0.184285 3.89497e-19)
(0.171935 0.17595 2.05464e-19)
(-0.176648 0.172261 2.46099e-20)
(0.176259 -0.172574 5.24551e-20)
(-0.172655 -0.176684 -1.41356e-19)
(-0.158649 -0.445656 -1.08014e-20)
(0.157893 0.444734 7.00973e-20)
(0.444995 -0.158381 7.86406e-20)
(-0.445862 0.158211 6.70376e-20)
(0.392825 0.0384468 1.87889e-19)
(0.0384308 -0.394189 1.26009e-19)
(-0.394401 -0.0389488 -8.77856e-20)
(-0.0387203 0.392908 -8.18377e-20)
(0.199923 -0.109594 1.24665e-19)
(-0.109758 -0.200469 6.6441e-20)
(-0.20046 0.109444 1.23812e-19)
(0.109179 0.199757 3.93778e-19)
(0.0721896 0.162743 -6.17338e-20)
(-0.163463 0.0724835 6.86619e-20)
(-0.0727036 -0.163404 2.38883e-19)
(0.162886 -0.0725574 -8.10825e-21)
(0.255217 -0.1121 1.31511e-19)
(-0.112411 -0.255861 -3.23498e-19)
(0.111795 0.255153 4.33624e-19)
(-0.255929 0.112046 1.83394e-20)
(-0.0340036 -0.143436 8.51947e-20)
(0.142867 -0.0339356 1.03981e-19)
(0.0337071 0.142866 7.1562e-20)
(-0.143407 0.033841 1.49867e-20)
(-0.0553626 -0.129156 -2.32216e-21)
(0.128721 -0.0551833 3.68502e-21)
(-0.129235 0.0551146 2.33084e-20)
(0.0549708 0.128645 -7.64778e-20)
(0.253542 -0.124051 3.09538e-19)
(-0.124444 -0.254177 -1.01794e-19)
(-0.254216 0.124092 4.91489e-20)
(0.123821 0.253437 4.15285e-19)
(-0.0328767 -0.146428 7.99888e-20)
(-0.146371 0.0327073 2.73971e-20)
(0.145824 -0.0328195 1.2982e-19)
(0.0325837 0.145823 9.0938e-20)
(0.139276 -0.0135234 1.65658e-19)
(0.0133156 0.139363 4.82471e-20)
(-0.139864 0.0133858 1.03864e-19)
(-0.0135948 -0.139849 8.48161e-20)
(-0.184429 0.0859088 1.42316e-19)
(0.0856505 0.18349 2.93572e-19)
(-0.0861989 -0.184419 1.16331e-19)
(0.183837 -0.0860608 7.57373e-20)
(-0.136472 0.357036 1.37668e-19)
(-0.357633 -0.136453 -1.0782e-19)
(0.356223 0.135739 9.16296e-20)
(0.135825 -0.357492 1.24918e-19)
(0.194174 -0.10517 5.24863e-20)
(-0.105331 -0.194711 8.87694e-20)
(0.104764 0.194003 3.27402e-19)
(-0.194704 0.105017 1.72029e-19)
(-0.0396601 0.320554 1.82895e-20)
(0.320023 0.0394338 -1.37503e-19)
(0.0393123 -0.320975 2.02711e-19)
(-0.321326 -0.0397548 -6.23051e-20)
(0.378973 0.246343 -3.83555e-19)
(0.246991 -0.380011 1.01239e-19)
(-0.247262 0.379503 -7.74893e-20)
(-0.380176 -0.247436 -1.7323e-19)
(-0.312335 0.164324 2.91244e-20)
(0.164105 0.311681 2.73975e-19)
(-0.164698 -0.312239 -1.2598e-19)
(0.311638 -0.164413 6.28717e-21)
(0.153838 0.342382 -5.22489e-20)
(0.342288 -0.15434 -8.14292e-21)
(-0.343021 0.154085 4.43096e-20)
(-0.154517 -0.342959 -1.17415e-19)
(0.0216736 -0.314086 8.65548e-20)
(-0.0220651 0.313419 2.28569e-19)
(-0.314005 -0.022021 -3.31509e-19)
(0.312803 0.0213512 1.09186e-19)
(0.0573573 0.13531 -1.81044e-19)
(0.13537 -0.0575617 -5.73069e-20)
(-0.0577404 -0.135812 -9.07247e-20)
(-0.135921 0.0574226 -5.12032e-20)
(0.0611261 0.135827 -3.56035e-20)
(-0.136409 0.0612759 1.03472e-19)
(0.1359 -0.0613376 -1.1086e-19)
(-0.0615158 -0.136332 -1.85932e-19)
(0.262686 -0.512468 4.27916e-20)
(0.511381 0.262114 -1.08216e-19)
(-0.262875 0.511631 -1.60973e-19)
(-0.512598 -0.263197 -1.14852e-19)
(0.165759 -0.0877299 -9.74311e-20)
(-0.166253 0.0876038 -3.07942e-20)
(0.0873145 0.16556 1.80719e-19)
(-0.0878806 -0.166259 2.26058e-19)
(-0.210526 0.0742632 2.16473e-19)
(0.209843 -0.0744296 1.32334e-19)
(-0.074739 -0.210389 1.97196e-19)
(0.0742949 0.20963 3.23308e-19)
(-0.037528 0.140772 -5.01604e-20)
(0.037307 -0.141147 8.29621e-20)
(0.140533 0.0372358 -1.36662e-19)
(-0.141223 -0.0375447 9.95875e-20)
(-0.141616 -0.0418724 -1.38096e-19)
(-0.0418486 0.14117 -2.65155e-19)
(0.140918 0.0415457 -1.59621e-19)
(0.0416311 -0.141536 -1.49567e-19)
(-0.105931 0.10038 2.9361e-21)
(-0.100667 -0.105967 -4.86097e-21)
(0.105622 -0.100528 -1.52273e-20)
(0.100108 0.105445 3.05986e-20)
(-0.182222 -0.558109 -3.27007e-20)
(0.557288 -0.182033 1.41624e-20)
(0.181472 0.557264 1.17246e-20)
(-0.558215 0.181878 -1.72466e-20)
(-0.0542509 -0.140346 -3.75213e-20)
(-0.140427 0.053934 -2.07867e-20)
(0.139862 -0.0541203 -4.90504e-20)
(0.053884 0.139819 -5.94689e-20)
(-0.104219 0.10437 -2.60543e-21)
(0.103893 -0.104528 -2.00657e-20)
(0.104093 0.103733 3.10339e-20)
(-0.104662 -0.104231 -7.65446e-21)
(-0.135619 0.0317702 1.18576e-20)
(0.0316437 0.135098 3.29795e-20)
(-0.0319469 -0.135623 4.67671e-20)
(0.135101 -0.0318629 4.30027e-20)
(-0.104237 0.0967582 2.0194e-21)
(-0.0970388 -0.104274 -2.6754e-21)
(0.103934 -0.0969009 -8.88176e-21)
(0.0964873 0.103758 2.13395e-20)
(-0.0351647 0.137551 -1.09043e-19)
(0.137314 0.034882 -1.89113e-19)
(0.034948 -0.137923 1.21698e-19)
(-0.137999 -0.0351801 1.13619e-19)
(0.07261 -0.133888 2.35221e-19)
(-0.134013 -0.0728914 2.07699e-19)
(-0.0728706 0.133619 2.10901e-19)
(0.133333 0.0724892 1.70269e-19)
(0.366595 0.0231032 2.23369e-19)
(0.02337 -0.367698 1.9734e-19)
(-0.367899 -0.0235824 4.89037e-20)
(-0.0236573 0.36686 -4.72908e-20)
(0.0563946 0.227698 9.88072e-20)
(-0.228444 0.056122 -2.27233e-19)
(-0.056708 -0.228319 -1.4258e-20)
(0.227761 -0.0564521 7.86142e-20)
(0.285924 -0.0529766 2.02645e-19)
(-0.0529394 -0.286539 -2.81449e-20)
(-0.286683 0.0526271 -1.35607e-19)
(0.0526091 0.286153 1.3577e-19)
(0.222431 0.160747 8.40643e-20)
(0.161147 -0.223274 1.07464e-19)
(-0.22339 -0.161561 -1.24269e-19)
(-0.161486 0.222882 -1.32012e-20)
(-0.0517523 -0.299841 2.6368e-19)
(0.298698 -0.0518849 2.18408e-19)
(-0.299643 0.0515108 1.56918e-19)
(0.0515133 0.298908 2.32928e-19)
(-0.0331692 -0.312819 1.03351e-19)
(0.311347 -0.0332794 1.36565e-19)
(-0.312387 0.0329283 5.1256e-20)
(0.0328401 0.31182 2.20438e-19)
(0.137351 0.258027 4.49697e-19)
(-0.138011 -0.258801 -5.81296e-20)
(-0.258817 0.13765 9.13249e-20)
(0.258128 -0.137461 3.567e-19)
(-0.12567 0.104506 3.93345e-20)
(0.125265 -0.104645 -6.28244e-20)
(-0.104819 -0.125756 -1.33167e-20)
(0.104222 0.125125 8.61809e-20)
(-0.187731 -0.0663103 5.99705e-20)
(-0.0663399 0.187228 -3.35736e-20)
(0.0660649 -0.187652 1.75969e-19)
(0.18696 0.0658856 3.53026e-20)
(0.238759 0.158204 1.52599e-20)
(0.158572 -0.239684 1.78289e-19)
(-0.239781 -0.159001 1.11749e-19)
(-0.158927 0.239238 2.5914e-19)
(-0.133162 0.147018 -2.89247e-20)
(0.132897 -0.147243 -8.56186e-20)
(0.146657 0.132562 1.51274e-19)
(-0.147385 -0.13321 -9.82122e-20)
(0.202728 0.0921452 2.15681e-19)
(-0.0926298 0.203105 -5.07828e-20)
(-0.203642 -0.092686 6.53732e-20)
(0.0924342 -0.203601 -8.67051e-22)
(-0.160485 -0.0317407 6.65276e-20)
(0.0314986 -0.160388 -7.09028e-20)
(-0.0317376 0.159981 -6.34693e-20)
(0.159788 0.0314077 -1.0568e-19)
(-0.23247 0.0667059 6.33682e-20)
(0.066878 0.231656 5.42402e-19)
(-0.0672394 -0.232292 6.08176e-20)
(0.231755 -0.0668834 8.24215e-20)
(-0.206781 0.0670072 1.03266e-19)
(-0.0675163 -0.206611 -1.77487e-20)
(0.206094 -0.0671871 1.36805e-19)
(0.0670737 0.205843 2.71502e-19)
(0.0596408 -0.194949 2.77333e-19)
(-0.0599225 0.194498 3.58783e-20)
(0.194194 0.0595307 8.51198e-20)
(-0.195013 -0.0598999 8.16435e-20)
(0.131177 -0.04435 2.16946e-20)
(0.0441148 0.131131 -1.9914e-20)
(-0.131661 0.0443471 -9.83692e-21)
(-0.0444646 -0.131655 4.19977e-21)
(-0.0243386 -0.136669 2.1755e-19)
(0.0240387 0.136137 2.74922e-19)
(-0.136652 0.0241452 3.31215e-19)
(0.13611 -0.0242509 2.07425e-19)
(-0.14499 -0.142516 -1.82056e-19)
(0.142124 -0.144862 2.58626e-20)
(0.144275 0.141855 1.51995e-19)
(-0.142473 0.144634 -1.93127e-20)
(-0.0966961 0.195455 -6.66409e-21)
(0.195072 0.0962082 2.64999e-19)
(-0.195985 -0.0967423 4.4419e-20)
(0.0965364 -0.195921 4.57554e-20)
(0.0568852 0.186062 5.47627e-20)
(-0.186782 0.0570176 8.469e-20)
(-0.0573039 -0.186744 3.94561e-20)
(0.186131 -0.0571723 1.13648e-19)
(0.17209 -0.0506425 2.03627e-19)
(-0.172655 0.0504983 2.95604e-20)
(-0.0507813 -0.172635 1.03057e-19)
(0.0504094 0.172006 2.02656e-19)
(-0.18336 0.0150592 -2.14727e-19)
(0.182558 -0.0151863 -6.81117e-20)
(-0.0152648 -0.183181 -6.68545e-20)
(0.0149683 0.182742 -2.67522e-19)
(0.130264 -0.152478 -4.65246e-20)
(-0.152634 -0.130585 -1.27052e-19)
(-0.130535 0.152247 -5.82293e-20)
(0.151916 0.129869 2.44778e-19)
(0.0575188 -0.154374 4.38148e-20)
(-0.0578707 0.154088 -1.89504e-19)
(-0.154461 -0.0577842 1.11413e-19)
(0.153725 0.057399 -2.27661e-20)
(0.105141 -0.0843965 1.96063e-21)
(0.0840314 0.104979 5.23962e-21)
(-0.10546 0.0842795 6.69985e-22)
(-0.08454 -0.105496 2.55456e-22)
(-0.273948 0.249174 2.19186e-20)
(0.273256 -0.24913 3.0977e-20)
(0.248641 0.273027 2.91448e-19)
(-0.249804 -0.274081 -1.8007e-19)
(0.124136 0.107443 1.16776e-19)
(-0.107937 0.124451 5.19893e-20)
(-0.124783 -0.107979 6.67023e-20)
(0.107637 -0.124654 2.13306e-20)
(0.30901 0.210659 -2.53906e-20)
(-0.310172 -0.21136 -2.51569e-19)
(-0.211456 0.309527 1.78647e-19)
(0.210648 -0.309395 -1.08102e-20)
(-0.277932 0.195603 2.42296e-20)
(0.195243 0.277106 1.97956e-19)
(0.277358 -0.195634 -4.58536e-20)
(-0.196019 -0.277957 -3.14951e-19)
(-0.133074 -0.0236506 -3.03413e-19)
(0.0234343 -0.133006 -2.39168e-19)
(0.132418 0.0233945 -1.97026e-19)
(-0.0236481 0.132621 -1.56873e-19)
(0.0392954 0.388548 7.30931e-20)
(0.388641 -0.0397236 3.50544e-21)
(-0.0400386 -0.389821 9.11242e-20)
(-0.389746 0.0394931 -4.20872e-20)
(-0.243076 0.307839 1.72937e-19)