/*--------------------------------*- C++ -*----------------------------------*\
| =========                 |                                                 |
| \\      /  F ield         | foam-extend: Open Source CFD                    |
|  \\    /   O peration     | Version:  3.0                                   |
|   \\  /    A nd           | Web:         http://www.extend-project.de       |
|    \\/     M anipulation  |                                                 |
\*---------------------------------------------------------------------------*/
FoamFile
{
    version     2.0;
    format      ascii;
    class       volScalarField;
    location    "67";
    object      p;
}
// * * * * * * * * * * * * * * * * * * * * * * * * * * * * * * * * * * * * * //

dimensions      [0 0 0 0 0 0 0];

internalField   nonuniform List<scalar> 
7680
(
-0.231934
-0.219901
-0.210948
-0.201503
-0.194612
-0.187075
-0.181715
-0.175629
-0.171436
-0.166482
-0.163198
-0.159145
-0.156579
-0.153253
-0.151263
-0.148526
-0.147002
-0.144744
-0.143593
-0.141719
-0.140861
-0.139288
-0.138646
-0.1373
-0.136802
-0.135617
-0.135194
-0.134111
-0.133698
-0.132659
-0.132194
-0.13114
-0.130556
-0.129428
-0.128655
-0.127396
-0.126365
-0.124919
-0.123567
-0.121897
-0.231613
-0.219592
-0.210647
-0.201212
-0.194327
-0.186797
-0.181442
-0.175362
-0.171173
-0.166224
-0.162943
-0.158894
-0.156331
-0.153008
-0.151021
-0.148288
-0.146767
-0.144512
-0.143365
-0.141494
-0.140641
-0.139071
-0.138435
-0.137091
-0.136598
-0.135416
-0.134996
-0.133915
-0.133505
-0.132466
-0.132003
-0.130949
-0.130365
-0.129236
-0.128463
-0.127201
-0.126173
-0.124723
-0.123387
-0.12171
-0.231137
-0.219134
-0.210203
-0.200783
-0.19391
-0.186393
-0.181049
-0.174979
-0.1708
-0.16586
-0.162588
-0.158547
-0.155993
-0.152677
-0.150698
-0.14797
-0.146455
-0.144205
-0.143063
-0.141194
-0.140344
-0.138774
-0.138139
-0.136794
-0.136299
-0.135114
-0.134691
-0.133606
-0.133193
-0.13215
-0.131683
-0.130624
-0.130037
-0.128902
-0.128123
-0.126851
-0.125808
-0.124346
-0.122976
-0.121305
-0.230321
-0.218356
-0.209454
-0.200063
-0.193211
-0.185718
-0.18039
-0.17434
-0.170173
-0.165249
-0.161987
-0.157959
-0.155412
-0.152106
-0.150133
-0.147415
-0.145905
-0.143662
-0.142526
-0.140663
-0.139818
-0.138253
-0.137624
-0.136283
-0.135795
-0.134613
-0.134197
-0.133114
-0.132706
-0.131666
-0.131205
-0.130148
-0.129566
-0.128433
-0.127658
-0.126388
-0.125349
-0.123884
-0.122514
-0.12083
-0.229355
-0.217435
-0.208566
-0.19921
-0.192386
-0.184921
-0.179615
-0.173589
-0.169441
-0.164537
-0.16129
-0.157279
-0.154746
-0.151454
-0.149493
-0.146786
-0.145287
-0.143053
-0.141925
-0.140069
-0.139231
-0.13767
-0.137044
-0.135705
-0.135218
-0.134036
-0.133618
-0.132536
-0.132125
-0.131084
-0.13062
-0.129563
-0.128981
-0.127847
-0.127078
-0.125807
-0.124782
-0.123317
-0.121973
-0.120256
-0.228049
-0.216192
-0.207371
-0.198066
-0.191277
-0.183852
-0.178574
-0.17258
-0.168453
-0.163576
-0.160345
-0.156355
-0.153835
-0.150561
-0.14861
-0.145917
-0.144426
-0.142204
-0.141082
-0.139235
-0.138402
-0.136849
-0.136228
-0.134896
-0.134413
-0.133237
-0.132825
-0.131746
-0.131341
-0.130303
-0.129846
-0.128791
-0.128215
-0.127084
-0.12632
-0.125053
-0.124028
-0.122559
-0.121197
-0.119466
-0.226599
-0.214812
-0.206043
-0.196793
-0.190046
-0.182666
-0.177422
-0.171464
-0.167365
-0.162517
-0.15931
-0.155345
-0.152843
-0.149591
-0.147656
-0.144981
-0.143503
-0.141295
-0.140185
-0.13835
-0.137526
-0.135981
-0.135366
-0.13404
-0.133561
-0.132389
-0.131978
-0.130903
-0.130498
-0.129463
-0.129007
-0.127955
-0.127382
-0.126254
-0.1255
-0.124233
-0.123225
-0.121748
-0.120405
-0.118619
-0.224808
-0.213111
-0.204408
-0.195229
-0.188533
-0.181209
-0.176003
-0.170091
-0.166022
-0.161211
-0.158026
-0.154092
-0.151608
-0.14838
-0.146458
-0.143803
-0.142335
-0.140144
-0.139041
-0.137219
-0.1364
-0.134866
-0.134256
-0.132938
-0.132462
-0.131298
-0.13089
-0.12982
-0.129419
-0.128389
-0.127935
-0.126887
-0.126318
-0.125193
-0.124439
-0.123174
-0.12216
-0.120681
-0.119318
-0.117528
-0.222878
-0.211277
-0.202646
-0.193542
-0.186902
-0.179639
-0.174478
-0.168615
-0.164581
-0.159811
-0.156656
-0.152755
-0.150295
-0.147096
-0.145194
-0.142562
-0.141111
-0.138939
-0.137849
-0.136043
-0.135235
-0.133714
-0.133112
-0.131805
-0.131335
-0.130179
-0.129776
-0.128713
-0.128316
-0.127291
-0.126842
-0.125799
-0.125235
-0.124115
-0.123369
-0.122106
-0.121102
-0.119617
-0.11826
-0.116444
-0.22061
-0.209124
-0.200579
-0.191565
-0.18499
-0.177799
-0.172688
-0.166884
-0.162889
-0.158166
-0.155041
-0.151179
-0.148741
-0.145573
-0.143688
-0.141083
-0.139644
-0.137493
-0.136411
-0.134623
-0.13382
-0.132314
-0.131715
-0.13042
-0.129952
-0.128805
-0.128403
-0.127349
-0.126952
-0.125935
-0.125486
-0.12445
-0.123886
-0.122772
-0.122023
-0.120765
-0.119757
-0.118276
-0.116912
-0.11511
-0.21821
-0.206845
-0.19839
-0.189472
-0.182967
-0.175852
-0.170796
-0.165054
-0.161103
-0.156431
-0.153341
-0.149521
-0.147113
-0.143979
-0.142118
-0.139541
-0.138121
-0.135994
-0.134929
-0.13316
-0.132371
-0.13088
-0.130292
-0.12901
-0.128551
-0.127415
-0.12702
-0.125975
-0.125585
-0.124576
-0.124133
-0.123105
-0.122547
-0.12144
-0.120699
-0.119447
-0.118446
-0.116971
-0.115617
-0.113821
-0.215475
-0.20425
-0.195899
-0.187091
-0.180666
-0.173638
-0.168644
-0.162972
-0.159069
-0.154455
-0.151401
-0.147628
-0.145248
-0.142153
-0.140312
-0.137767
-0.136363
-0.134262
-0.133206
-0.131459
-0.130676
-0.129204
-0.128619
-0.127352
-0.126895
-0.125772
-0.125377
-0.124344
-0.123954
-0.122956
-0.122512
-0.121495
-0.120936
-0.11984
-0.119099
-0.117859
-0.116861
-0.115403
-0.114057
-0.112294
-0.212614
-0.201535
-0.193293
-0.184599
-0.178258
-0.171322
-0.166394
-0.160796
-0.156945
-0.152392
-0.14938
-0.145657
-0.14331
-0.140256
-0.138442
-0.135932
-0.134548
-0.132476
-0.131438
-0.129714
-0.128945
-0.127493
-0.126919
-0.125669
-0.12522
-0.124112
-0.123725
-0.122704
-0.12232
-0.121333
-0.120896
-0.119889
-0.119337
-0.118252
-0.117519
-0.116292
-0.115306
-0.113865
-0.112539
-0.110804
-0.209424
-0.198509
-0.190389
-0.181824
-0.175577
-0.168744
-0.163888
-0.158373
-0.154579
-0.150092
-0.147124
-0.143456
-0.141142
-0.138134
-0.136345
-0.133872
-0.132507
-0.130465
-0.12944
-0.127742
-0.126981
-0.12555
-0.124981
-0.123749
-0.123304
-0.122212
-0.121826
-0.120819
-0.120436
-0.119463
-0.119027
-0.118034
-0.117484
-0.116415
-0.115687
-0.11448
-0.113504
-0.112092
-0.110787
-0.109097
-0.206115
-0.19537
-0.187377
-0.178945
-0.172795
-0.166069
-0.161289
-0.155861
-0.152126
-0.14771
-0.14479
-0.141179
-0.138904
-0.135943
-0.134184
-0.13175
-0.130409
-0.1284
-0.127393
-0.125722
-0.124976
-0.123567
-0.12301
-0.121798
-0.121362
-0.120286
-0.119908
-0.118916
-0.11854
-0.11758
-0.117151
-0.116171
-0.11563
-0.114575
-0.113858
-0.11267
-0.11171
-0.110325
-0.109048
-0.107399
-0.202483
-0.191927
-0.184073
-0.175789
-0.169746
-0.163137
-0.158441
-0.153107
-0.149437
-0.145098
-0.142228
-0.138681
-0.136443
-0.133535
-0.131805
-0.129414
-0.128093
-0.12612
-0.125128
-0.123488
-0.122751
-0.121368
-0.120818
-0.119627
-0.119195
-0.118138
-0.117764
-0.116789
-0.116415
-0.115473
-0.115046
-0.114084
-0.113548
-0.112513
-0.111806
-0.110643
-0.1097
-0.10835
-0.107102
-0.105505
-0.198741
-0.188377
-0.180667
-0.172534
-0.166603
-0.160115
-0.155505
-0.150269
-0.146667
-0.142407
-0.13959
-0.136109
-0.133913
-0.131058
-0.129362
-0.127015
-0.125721
-0.123784
-0.122812
-0.121202
-0.120481
-0.119123
-0.118585
-0.117415
-0.116993
-0.115955
-0.115589
-0.114631
-0.114265
-0.113337
-0.112919
-0.111973
-0.111446
-0.110429
-0.109735
-0.108596
-0.107672
-0.106355
-0.105139
-0.10359
-0.194682
-0.18453
-0.176977
-0.16901
-0.163198
-0.156842
-0.152326
-0.147196
-0.143666
-0.139494
-0.136733
-0.133323
-0.13117
-0.128374
-0.12671
-0.124412
-0.123142
-0.121245
-0.120291
-0.118714
-0.118006
-0.116677
-0.116147
-0.115002
-0.114587
-0.11357
-0.113209
-0.112271
-0.11191
-0.111002
-0.11059
-0.109664
-0.109145
-0.108152
-0.10747
-0.106359
-0.105456
-0.104177
-0.102994
-0.101497
-0.190522
-0.180585
-0.173192
-0.165394
-0.159706
-0.153485
-0.149065
-0.144044
-0.14059
-0.136506
-0.133805
-0.130466
-0.128361
-0.125624
-0.123997
-0.121747
-0.120505
-0.118649
-0.117716
-0.116173
-0.115481
-0.11418
-0.113663
-0.112542
-0.112136
-0.111141
-0.110788
-0.109869
-0.109516
-0.108626
-0.108222
-0.107315
-0.106807
-0.105835
-0.105168
-0.104083
-0.103202
-0.101957
-0.100807
-0.0993583
-0.186055
-0.176351
-0.169132
-0.161516
-0.155961
-0.149886
-0.145568
-0.140665
-0.137291
-0.133303
-0.130664
-0.127405
-0.125347
-0.122675
-0.121084
-0.118888
-0.117674
-0.115862
-0.11495
-0.113443
-0.112766
-0.111497
-0.11099
-0.109897
-0.1095
-0.108529
-0.108183
-0.107287
-0.106941
-0.106074
-0.105678
-0.104794
-0.104297
-0.10335
-0.102699
-0.101643
-0.100785
-0.0995775
-0.0984611
-0.0970605
-0.181495
-0.172028
-0.164985
-0.157555
-0.152136
-0.146209
-0.141997
-0.137213
-0.133922
-0.130031
-0.127457
-0.124277
-0.12227
-0.119663
-0.118112
-0.115969
-0.114785
-0.113017
-0.112128
-0.110658
-0.109998
-0.10876
-0.108266
-0.107199
-0.106812
-0.105865
-0.105528
-0.104653
-0.104316
-0.103469
-0.103083
-0.10222
-0.101736
-0.100812
-0.100177
-0.0991499
-0.0983139
-0.0971409
-0.096056
-0.0947003
-0.176638
-0.167425
-0.16057
-0.15334
-0.148066
-0.142298
-0.138198
-0.133543
-0.130339
-0.126553
-0.124047
-0.120952
-0.118998
-0.116461
-0.11495
-0.112865
-0.111712
-0.109993
-0.109126
-0.107697
-0.107054
-0.10585
-0.105369
-0.104332
-0.103956
-0.103035
-0.102708
-0.101858
-0.101531
-0.100709
-0.100334
-0.0994959
-0.0990251
-0.0981287
-0.097512
-0.0965149
-0.0957032
-0.0945652
-0.0935128
-0.0921991
-0.171698
-0.162742
-0.156079
-0.14905
-0.143923
-0.138316
-0.134331
-0.129806
-0.126692
-0.123011
-0.120575
-0.117566
-0.115667
-0.1132
-0.111732
-0.109705
-0.108585
-0.106913
-0.106071
-0.104681
-0.104056
-0.102886
-0.102419
-0.101411
-0.101045
-0.10015
-0.0998318
-0.0990066
-0.098688
-0.0978899
-0.0975253
-0.0967123
-0.0962546
-0.0953848
-0.0947851
-0.0938176
-0.0930285
-0.0919241
-0.0909012
-0.0896269
-0.166471
-0.15779
-0.15133
-0.144517
-0.139546
-0.13411
-0.130246
-0.125859
-0.122839
-0.119271
-0.116909
-0.113992
-0.11215
-0.109759
-0.108335
-0.106371
-0.105284
-0.103663
-0.102847
-0.101501
-0.100895
-0.099761
-0.0993084
-0.0983329
-0.0979787
-0.0971135
-0.0968062
-0.0960084
-0.0957015
-0.0949302
-0.0945792
-0.0937934
-0.0933525
-0.0925113
-0.0919328
-0.0909958
-0.090233
-0.0891613
-0.0881699
-0.0869302
-0.161172
-0.152766
-0.146513
-0.139916
-0.135104
-0.129841
-0.1261
-0.121853
-0.118929
-0.115474
-0.113187
-0.110363
-0.10858
-0.106264
-0.104886
-0.102983
-0.101931
-0.100362
-0.0995711
-0.0982676
-0.0976808
-0.0965832
-0.0961449
-0.0952008
-0.0948576
-0.0940209
-0.0937232
-0.0929522
-0.0926553
-0.0919105
-0.0915712
-0.0908128
-0.0903865
-0.0895745
-0.0890148
-0.0881092
-0.0873699
-0.0863316
-0.0853683
-0.0841635
-0.155598
-0.147486
-0.141449
-0.135082
-0.130437
-0.125357
-0.121746
-0.117646
-0.114824
-0.111489
-0.10928
-0.106555
-0.104833
-0.102598
-0.101267
-0.0994307
-0.0984144
-0.0969004
-0.0961372
-0.0948798
-0.0943136
-0.0932554
-0.0928331
-0.0919233
-0.0915935
-0.0907877
-0.0905026
-0.0897608
-0.0894772
-0.0887609
-0.0884374
-0.0877081
-0.0873013
-0.0865196
-0.0859843
-0.0851103
-0.0844006
-0.0833938
-0.0824633
-0.0812867
-0.149962
-0.142144
-0.136327
-0.130191
-0.125714
-0.120819
-0.117339
-0.113387
-0.110667
-0.107453
-0.105325
-0.102697
-0.101038
-0.0988838
-0.0976005
-0.0958305
-0.094851
-0.0933915
-0.0926558
-0.0914437
-0.0908979
-0.089878
-0.0894708
-0.0885945
-0.0882765
-0.087501
-0.0872264
-0.0865133
-0.0862405
-0.0855529
-0.0852421
-0.0845425
-0.0841518
-0.0834021
-0.0828872
-0.0820476
-0.081363
-0.0803919
-0.0794899
-0.0783478
-0.144065
-0.136557
-0.13097
-0.125078
-0.120778
-0.116077
-0.112734
-0.108939
-0.106326
-0.103239
-0.101194
-0.0986709
-0.0970763
-0.0950078
-0.0937746
-0.0920749
-0.0911338
-0.0897325
-0.0890259
-0.0878624
-0.0873387
-0.0863601
-0.0859701
-0.0851298
-0.0848261
-0.0840831
-0.0838219
-0.0831394
-0.082881
-0.0822233
-0.0819299
-0.0812609
-0.080892
-0.0801743
-0.0796874
-0.0788812
-0.0782313
-0.0772931
-0.0764294
-0.0753118
-0.138116
-0.13092
-0.125565
-0.119916
-0.115795
-0.111288
-0.108084
-0.104446
-0.101941
-0.0989818
-0.0970214
-0.0946022
-0.0930733
-0.0910898
-0.0899075
-0.0882776
-0.0873752
-0.0860313
-0.0853537
-0.0842379
-0.0837358
-0.0827975
-0.0824237
-0.0816184
-0.0813274
-0.0806161
-0.0803662
-0.0797137
-0.0794669
-0.0788392
-0.0785591
-0.0779215
-0.0775692
-0.0768857
-0.0764198
-0.0756516
-0.0750278
-0.074131
-0.0732976
-0.0722229
-0.13192
-0.12505
-0.119937
-0.114545
-0.11061
-0.106307
-0.103247
-0.0997743
-0.097382
-0.0945565
-0.092684
-0.0903742
-0.0889137
-0.08702
-0.0858904
-0.0843344
-0.0834723
-0.0821895
-0.0815425
-0.0804776
-0.0799987
-0.0791035
-0.0787477
-0.0779799
-0.0777038
-0.0770262
-0.0767901
-0.0761692
-0.0759373
-0.0753406
-0.0750784
-0.0744725
-0.0741435
-0.0734934
-0.0730583
-0.0723257
-0.0717419
-0.070882
-0.0700966
-0.0690483
-0.125685
-0.119141
-0.114272
-0.109136
-0.105388
-0.101289
-0.0983749
-0.0950665
-0.0927875
-0.0900958
-0.0883119
-0.0861113
-0.0847197
-0.0829153
-0.0818389
-0.080356
-0.0795345
-0.0783118
-0.0776953
-0.0766804
-0.0762241
-0.075371
-0.0750321
-0.0743008
-0.0740381
-0.0733934
-0.0731691
-0.0725791
-0.0723591
-0.0717931
-0.0715444
-0.0709705
-0.0706577
-0.0700428
-0.0696276
-0.0689353
-0.0683756
-0.0675639
-0.0668085
-0.065824
-0.119217
-0.113014
-0.108398
-0.103529
-0.0999756
-0.0960905
-0.0933271
-0.0901907
-0.0880296
-0.0854778
-0.0837858
-0.0816995
-0.0803794
-0.0786687
-0.0776474
-0.0762416
-0.0754622
-0.0743031
-0.0737184
-0.0727565
-0.0723241
-0.0715159
-0.0711954
-0.0705029
-0.0702553
-0.0696453
-0.0694349
-0.0688774
-0.0686721
-0.0681378
-0.0679068
-0.0673655
-0.0670758
-0.0664954
-0.0661113
-0.0654567
-0.06494
-0.0641696
-0.0634732
-0.0625217
-0.112721
-0.106859
-0.102496
-0.0978947
-0.0945363
-0.0908643
-0.0882524
-0.0852878
-0.0832449
-0.0808326
-0.079233
-0.0772604
-0.0760122
-0.0743945
-0.0734287
-0.0720991
-0.0713619
-0.0702655
-0.0697125
-0.0688025
-0.0683937
-0.0676292
-0.0673264
-0.0666716
-0.0664381
-0.0658618
-0.0656636
-0.0651378
-0.0649446
-0.0644416
-0.0642241
-0.0637152
-0.0634413
-0.0628962
-0.0625302
-0.0619159
-0.0614183
-0.0606984
-0.0600235
-0.0591615
-0.106008
-0.1005
-0.0963999
-0.0920761
-0.08892
-0.0854695
-0.0830145
-0.0802286
-0.0783082
-0.0760411
-0.0745371
-0.0726832
-0.0715092
-0.0699888
-0.0690802
-0.0678306
-0.067137
-0.0661066
-0.0655864
-0.0647312
-0.064347
-0.0636287
-0.0633446
-0.0627298
-0.0625113
-0.0619708
-0.0617861
-0.0612935
-0.0611145
-0.060644
-0.0604434
-0.059968
-0.0597161
-0.0592071
-0.0588711
-0.0582969
-0.0578417
-0.0571673
-0.0565566
-0.0557365
-0.0992795
-0.0941243
-0.0902874
-0.0862407
-0.0832868
-0.0800571
-0.0777592
-0.0751514
-0.0733535
-0.0712311
-0.0698228
-0.0680869
-0.0669873
-0.0655634
-0.0647122
-0.0635416
-0.0628917
-0.0619263
-0.0614388
-0.0606375
-0.0602776
-0.0596046
-0.0593388
-0.0587629
-0.0585588
-0.0580529
-0.0578809
-0.0574206
-0.0572543
-0.0568157
-0.0566294
-0.0561873
-0.0559527
-0.0554801
-0.0551647
-0.0546315
-0.054198
-0.0535716
-0.0529796
-0.0522425
-0.0923498
-0.0875598
-0.0839947
-0.0802347
-0.0774897
-0.0744888
-0.0723531
-0.0699298
-0.0682586
-0.0662862
-0.0649766
-0.0633633
-0.0623405
-0.061017
-0.0602249
-0.0591369
-0.0585318
-0.0576345
-0.0571807
-0.0564359
-0.0561009
-0.0554756
-0.0552284
-0.0546936
-0.0545042
-0.054035
-0.0538759
-0.0534498
-0.0532966
-0.0528916
-0.0527211
-0.0523142
-0.0521003
-0.0516667
-0.05138
-0.0508923
-0.0504989
-0.0499257
-0.0493898
-0.0487081
-0.0854173
-0.0809916
-0.0776973
-0.074223
-0.0716864
-0.0689132
-0.0669394
-0.0646997
-0.0631549
-0.0613316
-0.0601207
-0.0586291
-0.0576831
-0.0564591
-0.0557262
-0.0547197
-0.0541597
-0.0533294
-0.0529092
-0.05222
-0.05191
-0.0513313
-0.0511028
-0.0506081
-0.0504334
-0.0499998
-0.0498537
-0.0494606
-0.0493207
-0.0489484
-0.0487934
-0.0484211
-0.048228
-0.0478339
-0.0475767
-0.0471368
-0.0467872
-0.0462739
-0.045803
-0.0451801
-0.0783001
-0.0742497
-0.0712346
-0.0680548
-0.065733
-0.0631948
-0.0613877
-0.0593377
-0.0579229
-0.0562539
-0.0551446
-0.0537789
-0.0529118
-0.0517911
-0.0511189
-0.0501972
-0.0496832
-0.0489228
-0.048537
-0.0479058
-0.047621
-0.0470912
-0.0468812
-0.0464287
-0.0462683
-0.0458722
-0.0457382
-0.04538
-0.0452522
-0.0449143
-0.0447734
-0.0444375
-0.0442628
-0.04391
-0.0436787
-0.0432886
-0.0429751
-0.0425225
-0.042098
-0.0415495
-0.0711933
-0.0675163
-0.064779
-0.0618922
-0.0597841
-0.0574795
-0.0558385
-0.0539768
-0.0526917
-0.0511757
-0.0501677
-0.0489269
-0.0481385
-0.04712
-0.0465085
-0.0456705
-0.0452028
-0.0445112
-0.04416
-0.0435859
-0.0433266
-0.0428447
-0.0426538
-0.0422423
-0.042097
-0.0417372
-0.0416164
-0.0412919
-0.0411775
-0.0408725
-0.0407478
-0.0404466
-0.0402939
-0.0399805
-0.0397815
-0.0394383
-0.0391739
-0.0387771
-0.0384241
-0.0379219
-0.0639186
-0.0606253
-0.0581735
-0.0555878
-0.0536992
-0.0516349
-0.0501644
-0.0484966
-0.0473447
-0.0459863
-0.0450823
-0.0439703
-0.0432628
-0.0423498
-0.0418005
-0.0410493
-0.0406286
-0.0400085
-0.0396922
-0.0391774
-0.0389436
-0.0385116
-0.0383392
-0.0379708
-0.0378393
-0.0375178
-0.0374085
-0.0371193
-0.0370158
-0.0367455
-0.0366328
-0.0363678
-0.0362302
-0.0359571
-0.035778
-0.035482
-0.0352437
-0.0349043
-0.0345835
-0.0341633
-0.0566676
-0.0537554
-0.0515871
-0.0493003
-0.0476299
-0.0458039
-0.044503
-0.0430274
-0.0420079
-0.0408058
-0.0400052
-0.0390208
-0.0383939
-0.0375852
-0.037098
-0.0364324
-0.0360589
-0.0355093
-0.0352283
-0.0347719
-0.0345642
-0.0341813
-0.0340284
-0.0337019
-0.0335857
-0.0333012
-0.0332051
-0.0329499
-0.0328598
-0.0326223
-0.0325253
-0.032294
-0.0321771
-0.0319408
-0.0317912
-0.0315373
-0.0313424
-0.0310521
-0.0307949
-0.0304294
-0.0492662
-0.0467443
-0.0448664
-0.042886
-0.041439
-0.0398574
-0.0387302
-0.0374519
-0.036568
-0.0355264
-0.0348318
-0.0339785
-0.033434
-0.0327329
-0.0323091
-0.0317317
-0.0314063
-0.0309295
-0.030684
-0.030288
-0.0301061
-0.029774
-0.0296397
-0.0293569
-0.0292545
-0.0290088
-0.0289238
-0.0287044
-0.0286244
-0.0284215
-0.0283352
-0.0281395
-0.0280353
-0.0278379
-0.0277045
-0.0274955
-0.0273226
-0.0270898
-0.0268659
-0.026597
-0.0419019
-0.039767
-0.038177
-0.0365002
-0.0352748
-0.0339354
-0.0329803
-0.0318974
-0.0311481
-0.0302653
-0.029676
-0.0289524
-0.0284898
-0.0278948
-0.0275344
-0.0270441
-0.0267668
-0.0263617
-0.0261524
-0.0258158
-0.0256607
-0.0253785
-0.0252641
-0.0250241
-0.0249373
-0.0247291
-0.0246577
-0.0244725
-0.024406
-0.0242357
-0.0241649
-0.0240019
-0.0239175
-0.0237549
-0.0236487
-0.023479
-0.0233453
-0.0231598
-0.0229943
-0.0227843
-0.0344049
-0.0326653
-0.0313694
-0.0300029
-0.0290037
-0.0279119
-0.0271328
-0.0262497
-0.0256379
-0.0249177
-0.0244359
-0.0238453
-0.0234664
-0.0229804
-0.0226844
-0.0222837
-0.0220553
-0.021724
-0.0215509
-0.0212756
-0.0211467
-0.0209161
-0.0208206
-0.0206249
-0.0205521
-0.0203832
-0.0203229
-0.0201738
-0.0201176
-0.0199821
-0.0199219
-0.0197946
-0.0197228
-0.019599
-0.0195094
-0.019385
-0.0192753
-0.0191486
-0.0190222
-0.0189073
-0.0269585
-0.0256101
-0.0246053
-0.0235457
-0.0227706
-0.0219236
-0.0213187
-0.0206332
-0.0201577
-0.0195981
-0.0192229
-0.0187635
-0.0184677
-0.0180892
-0.0178575
-0.017545
-0.0173656
-0.0171069
-0.0169707
-0.0167556
-0.0166541
-0.016474
-0.0163991
-0.0162468
-0.0161901
-0.0160593
-0.0160132
-0.0158987
-0.0158564
-0.0157537
-0.0157096
-0.015615
-0.0155636
-0.0154744
-0.0154124
-0.0153271
-0.0152564
-0.0151768
-0.0151063
-0.0150486
-0.0193976
-0.0184476
-0.0177393
-0.0169924
-0.0164455
-0.0158481
-0.0154207
-0.0149368
-0.0146001
-0.0142045
-0.013938
-0.0136127
-0.0134016
-0.0131332
-0.0129668
-0.0127447
-0.012615
-0.0124308
-0.0123314
-0.0121783
-0.0121036
-0.0119757
-0.0119201
-0.0118126
-0.0117703
-0.0116793
-0.0116449
-0.0115669
-0.0115356
-0.0114682
-0.0114359
-0.0113773
-0.0113403
-0.0112902
-0.0112477
-0.0112078
-0.0111649
-0.0111421
-0.0111136
-0.0111347
-0.0119006
-0.0113443
-0.0109289
-0.0104909
-0.0101696
-0.00981859
-0.00956671
-0.00928169
-0.00908227
-0.0088485
-0.00868951
-0.00849649
-0.00836935
-0.00820927
-0.00810784
-0.00797472
-0.00789462
-0.0077838
-0.00772176
-0.00762947
-0.00758265
-0.00750585
-0.00747133
-0.00740764
-0.00738218
-0.00732966
-0.00731009
-0.00726723
-0.00725092
-0.00721677
-0.0072017
-0.00717622
-0.00716114
-0.00714593
-0.00713246
-0.00713148
-0.00712786
-0.00715027
-0.00717372
-0.00724404
-0.00430757
-0.00415115
-0.00403325
-0.00390908
-0.00381683
-0.00371637
-0.00364278
-0.00356012
-0.00350022
-0.00343123
-0.00338154
-0.00332335
-0.0032815
-0.00323207
-0.00319656
-0.00315444
-0.00312449
-0.00308876
-0.00306411
-0.0030342
-0.00301473
-0.00299047
-0.00297589
-0.00295741
-0.00294706
-0.00293461
-0.00292764
-0.00292167
-0.00291747
-0.00291885
-0.00291724
-0.00292781
-0.00292946
-0.00295281
-0.00296139
-0.00300385
-0.00302971
-0.00310303
-0.00316598
-0.0032977
0.00320816
0.00297023
0.00279466
0.00260936
0.00247559
0.00232907
0.00222672
0.00210997
0.0020321
0.00193883
0.0018805
0.00180603
0.00176347
0.00170415
0.00167423
0.001627
0.00160687
0.00156896
0.00155583
0.00152461
0.00151581
0.00148867
0.0014818
0.00145617
0.00144928
0.00142283
0.00141437
0.00138487
0.00137328
0.00133821
0.00132159
0.00127755
0.00125307
0.00119499
0.00115693
0.00107712
0.00101355
0.000899529
0.000790281
0.000619649
0.0108014
0.010164
0.00969112
0.00919228
0.00882952
0.00843267
0.00815201
0.00783299
0.00761547
0.00735743
0.0071896
0.00698024
0.0068521
0.00668202
0.00658585
0.00644748
0.0063768
0.00626366
0.00621269
0.00611891
0.00608227
0.00600241
0.00597503
0.005904
0.00588132
0.0058146
0.00579266
0.00572612
0.00570125
0.00563062
0.005599
0.00551929
0.0054763
0.00538111
0.00531976
0.00520031
0.00510861
0.00495183
0.00481041
0.00459131
0.018304
0.0172734
0.0165079
0.0157004
0.0151121
0.0144689
0.0140125
0.0134945
0.0131393
0.0127193
0.0124434
0.0121015
0.0118889
0.0116101
0.0114483
0.0112206
0.0110997
0.0109129
0.0108239
0.010669
0.0106039
0.0104726
0.0104237
0.0103085
0.0102684
0.0101627
0.0101251
0.0100229
0.00998201
0.00987755
0.00982743
0.0097143
0.0096485
0.0095193
0.00942945
0.00927492
0.00914876
0.00895643
0.00877532
0.008526
0.0258654
0.0244375
0.0233763
0.0222569
0.0214408
0.0205485
0.0199146
0.0191953
0.0187009
0.0181168
0.0177317
0.0172555
0.0169573
0.0165682
0.0163401
0.0160215
0.0158499
0.015588
0.015461
0.0152437
0.0151504
0.0149665
0.0148966
0.0147361
0.0146797
0.0145339
0.0144821
0.0143431
0.014288
0.0141482
0.014082
0.0139338
0.0138481
0.0136833
0.013569
0.0133782
0.0132244
0.0129967
0.0127889
0.0125056
0.0333234
0.0315052
0.0301533
0.0287275
0.0276873
0.0265503
0.0257418
0.0248247
0.0241934
0.0234482
0.0229555
0.0223475
0.0219651
0.0214677
0.0211742
0.0207667
0.0205448
0.0202097
0.0200447
0.0197665
0.019645
0.0194099
0.0193185
0.0191141
0.0190406
0.0188559
0.0187888
0.0186143
0.0185436
0.0183702
0.0182861
0.0181048
0.0179973
0.0177989
0.0176578
0.0174331
0.0172482
0.0169876
0.0167477
0.016438
0.040821
0.0386096
0.0369649
0.0352303
0.0339643
0.0325806
0.0315961
0.0304795
0.0297102
0.0288024
0.0282012
0.0274599
0.0269925
0.0263857
0.0260261
0.0255285
0.0252559
0.0248463
0.0246433
0.0243032
0.0241533
0.0238661
0.0237537
0.0235044
0.0234143
0.02319
0.0231086
0.0228977
0.0228126
0.0226045
0.0225038
0.0222882
0.0221601
0.0219268
0.0217595
0.0214991
0.0212818
0.0209858
0.0207086
0.0203742
0.0482028
0.0456057
0.0436738
0.0416363
0.0401487
0.0385231
0.0373658
0.0360535
0.0351485
0.0340813
0.0333735
0.0325016
0.0319506
0.0312366
0.0308119
0.0302262
0.0299038
0.0294215
0.0291808
0.0287804
0.0286025
0.0282647
0.0281313
0.0278386
0.027732
0.0274695
0.0273736
0.0271279
0.0270282
0.0267871
0.02667
0.0264219
0.0262738
0.0260077
0.0258158
0.0255218
0.0252765
0.0249476
0.0246431
0.0242802
0.0556052
0.0526206
0.0503999
0.0480581
0.0463479
0.044479
0.0431479
0.041639
0.0405975
0.0393699
0.0385547
0.0375514
0.0369161
0.0360941
0.0356039
0.0349292
0.0345565
0.0340007
0.0337221
0.0332607
0.0330547
0.0326656
0.0325112
0.0321746
0.0320518
0.0317505
0.0316405
0.0313595
0.031246
0.0309714
0.0308385
0.0305573
0.0303894
0.0300898
0.0298726
0.0295442
0.0292672
0.0289044
0.0285638
0.0281769
0.0628797
0.0595159
0.0570127
0.0543728
0.0524445
0.0503374
0.0488362
0.0471345
0.0459594
0.0445746
0.0436541
0.0425221
0.0418042
0.0408764
0.0403219
0.0395602
0.0391382
0.0385108
0.038195
0.0376742
0.0374407
0.0370018
0.0368271
0.036448
0.0363095
0.0359709
0.0358477
0.035533
0.0354064
0.0351001
0.0349528
0.0346403
0.034455
0.0341235
0.0338845
0.033523
0.0332201
0.0328228
0.0324537
0.0320308
0.0701555
0.0664117
0.0636252
0.0606868
0.0585398
0.056194
0.054522
0.0526272
0.0513178
0.0497755
0.0487493
0.0474881
0.0466872
0.0456533
0.045034
0.044185
0.0437132
0.0430137
0.0426605
0.04208
0.0418187
0.0413297
0.0411345
0.0407128
0.0405585
0.0401827
0.0400463
0.0396977
0.0395585
0.0392203
0.0390589
0.0387152
0.0385123
0.0381488
0.0378871
0.0374921
0.0371602
0.0367275
0.036323
0.035864
0.0772923
0.0731774
0.0701141
0.066884
0.0645233
0.0619442
0.0601053
0.0580216
0.056581
0.0548846
0.053755
0.0523674
0.0514852
0.0503475
0.0496649
0.0487305
0.0482101
0.0474403
0.0470505
0.0464117
0.0461236
0.045586
0.0453712
0.0449082
0.0447392
0.0443274
0.0441791
0.0437982
0.0436479
0.0432794
0.0431058
0.0427323
0.0425146
0.0421204
0.0418395
0.0414112
0.0410543
0.0405835
0.0401464
0.0396405
0.0844106
0.079925
0.0765851
0.0730635
0.070489
0.0676769
0.0656708
0.0633985
0.0618263
0.0599759
0.0587425
0.0572287
0.0562649
0.0550235
0.0542772
0.0532575
0.0526881
0.051848
0.0514213
0.0507245
0.0504092
0.0498231
0.0495885
0.0490843
0.0489005
0.048453
0.0482927
0.0478799
0.0477184
0.04732
0.0471344
0.0467315
0.0464988
0.046074
0.0457731
0.0453111
0.0449266
0.0444166
0.0439415
0.0433863
0.0913797
0.0865328
0.0829233
0.0791175
0.0763347
0.073295
0.0711261
0.0686696
0.0669693
0.0649684
0.063634
0.0619968
0.0609535
0.0596105
0.0588023
0.057699
0.057082
0.0561731
0.0557106
0.054957
0.0546155
0.0539822
0.0537287
0.0531846
0.0529871
0.0525051
0.0523341
0.0518904
0.0517196
0.0512924
0.0510968
0.0506655
0.0504203
0.0499656
0.0496474
0.0491513
0.0487419
0.0481898
0.0476776
0.047065
0.0983104
0.0931036
0.0892253
0.0851364
0.0821456
0.0788794
0.0765478
0.0739077
0.0720791
0.0699285
0.0684926
0.0667326
0.0656093
0.0641655
0.0632948
0.0621086
0.0614435
0.0604665
0.0599679
0.0591581
0.0587899
0.05811
0.0578373
0.057254
0.0570426
0.0565268
0.056345
0.0558713
0.0556909
0.0552357
0.0550301
0.054571
0.0543131
0.0538287
0.0534925
0.0529622
0.0525259
0.0519308
0.0513777
0.0507063
0.105083
0.099526
0.0953864
0.091022
0.0878292
0.0843425
0.0818528
0.079034
0.0770809
0.0747843
0.0732502
0.0713702
0.0701696
0.0686271
0.0676959
0.0664284
0.0657169
0.0646729
0.0641394
0.0632743
0.0628808
0.0621549
0.0618642
0.0612422
0.061018
0.060469
0.0602777
0.0597745
0.0595861
0.0591035
0.0588895
0.0584031
0.0581344
0.0576206
0.0572684
0.0567035
0.0562421
0.0556023
0.0550092
0.0542734
0.111796
0.105892
0.101493
0.0968547
0.0934606
0.0897548
0.0871072
0.0841109
0.0820331
0.0795915
0.0779586
0.0759598
0.074681
0.0730409
0.0720485
0.0707009
0.0699421
0.0688325
0.0682634
0.0673444
0.0669248
0.0661545
0.0658451
0.065186
0.0649485
0.0643678
0.0641666
0.0636354
0.0634387
0.06293
0.0627074
0.0621947
0.0619148
0.0613722
0.0610034
0.0604041
0.0599163
0.0592317
0.0585963
0.0577975
0.118344
0.112102
0.107451
0.102548
0.0989588
0.0950402
0.0922403
0.0890715
0.0868737
0.0842911
0.0825634
0.0804486
0.0790951
0.0773595
0.0763086
0.0748824
0.0740785
0.072904
0.0723011
0.0713285
0.0708843
0.0700694
0.0697427
0.0690461
0.0687966
0.0681837
0.0679739
0.0674141
0.0672103
0.066675
0.0664449
0.0659057
0.0656158
0.0650442
0.06466
0.064026
0.0635134
0.0627833
0.0621076
0.0612426
0.124812
0.118237
0.113336
0.108169
0.104386
0.100257
0.0973048
0.0939651
0.0916465
0.0889243
0.0871005
0.0848713
0.0834415
0.0816119
0.0805009
0.0789976
0.0781472
0.0769097
0.0762714
0.0752475
0.0747774
0.0739204
0.0735753
0.0728439
0.0725815
0.0719392
0.0717201
0.0711344
0.0709232
0.0703635
0.0701259
0.0695618
0.0692618
0.0686623
0.0682623
0.0675944
0.067056
0.0662817
0.0655642
0.0646376
0.131107
0.124209
0.119067
0.113646
0.109677
0.105343
0.102245
0.0987401
0.0963067
0.0934491
0.0915346
0.0891941
0.0876928
0.0857714
0.0846045
0.0830254
0.0821319
0.0808318
0.0801611
0.0790853
0.0785917
0.0776915
0.0773299
0.0765619
0.0762881
0.0756143
0.075387
0.0747733
0.0745553
0.0739693
0.0737245
0.0731339
0.0728239
0.0721953
0.0717799
0.0710773
0.0705143
0.0696956
0.0689393
0.0679507
0.137301
0.130085
0.124704
0.119032
0.114877
0.110342
0.107097
0.103429
0.100879
0.0978874
0.0958795
0.0934293
0.0918533
0.0898419
0.0886155
0.0869628
0.0860227
0.0846626
0.0839563
0.0828318
0.0823117
0.081372
0.0809915
0.0801914
0.0799044
0.0792037
0.0789672
0.07833
0.0781049
0.0774969
0.077245
0.0766315
0.0763119
0.0756571
0.0752264
0.0744913
0.0739035
0.0730426
0.072247
0.0712021
0.143318
0.135795
0.130184
0.12427
0.119937
0.115209
0.111825
0.107999
0.10534
0.10222
0.100126
0.0975703
0.0959267
0.0938279
0.0925488
0.0908237
0.0898431
0.088423
0.0876864
0.086512
0.08597
0.0849885
0.0845926
0.0837568
0.0834592
0.0827273
0.0824832
0.0818178
0.0815863
0.0809514
0.0806923
0.0800514
0.0797216
0.0790368
0.07859
0.0778199
0.0772072
0.0763036
0.0754708
0.0743726
0.149212
0.141387
0.13555
0.129397
0.124887
0.119967
0.116444
0.112462
0.109691
0.106443
0.104259
0.101598
0.0998806
0.0976957
0.0963573
0.0945619
0.0935338
0.0920567
0.0912829
0.0900626
0.0894922
0.088474
0.0880573
0.0871922
0.0868797
0.0861241
0.0858694
0.085184
0.0849444
0.084291
0.0840245
0.0833642
0.083025
0.0823171
0.0818559
0.0810564
0.0804207
0.0794786
0.0786107
0.0774638
0.154926
0.146811
0.140756
0.134375
0.129698
0.124594
0.12094
0.11681
0.113937
0.110568
0.108303
0.105542
0.103763
0.101495
0.100109
0.098245
0.0971803
0.0956464
0.0948456
0.0935777
0.0929882
0.0919297
0.0914999
0.0905999
0.0902787
0.089492
0.089231
0.0885167
0.0882715
0.08759
0.0873165
0.0866273
0.0862776
0.0855384
0.0850604
0.0842252
0.0835638
0.0825804
0.0816753
0.0804826
0.160494
0.152095
0.145827
0.139221