/*--------------------------------*- C++ -*----------------------------------*\
| =========                 |                                                 |
| \\      /  F ield         | foam-extend: Open Source CFD                    |
|  \\    /   O peration     | Version:  3.0                                   |
|   \\  /    A nd           | Web:         http://www.extend-project.de       |
|    \\/     M anipulation  |                                                 |
\*---------------------------------------------------------------------------*/
FoamFile
{
    version     2.0;
    format      ascii;
    class       volScalarField;
    location    "50";
    object      p;
}
// * * * * * * * * * * * * * * * * * * * * * * * * * * * * * * * * * * * * * //

dimensions      [0 0 0 0 0 0 0];

internalField   nonuniform List<scalar> 
672
(
-0.2335348955
-0.1982163503
-0.1870231188
-0.1685557347
-0.1659495368
-0.1553789651
-0.1564069202
-0.1500033574
-0.1517172423
-0.1471357278
-0.1469029389
-0.1418710496
-0.2306180886
-0.1957398876
-0.1846854975
-0.1664482871
-0.1638737068
-0.153435124
-0.1544494125
-0.1481259026
-0.1498181362
-0.1452930575
-0.1450640766
-0.1400909592
-0.2247622548
-0.1907708004
-0.1799981395
-0.1622251289
-0.1597169255
-0.1495442701
-0.1505336007
-0.1443715082
-0.1460207064
-0.1416118388
-0.141387089
-0.1365429721
-0.2161196115
-0.1834345854
-0.173075236
-0.1559855623
-0.153572958
-0.1437919044
-0.1447425147
-0.1388179359
-0.1404036394
-0.1361640272
-0.1359488864
-0.1312879624
-0.2047195792
-0.1737600427
-0.1639481049
-0.1477615959
-0.145477055
-0.1362136831
-0.1371146434
-0.1315044268
-0.1330061557
-0.1289920722
-0.1287867313
-0.1243730536
-0.190785389
-0.1619325499
-0.1527876568
-0.1377030249
-0.1355732743
-0.1269411253
-0.1277801235
-0.1225527641
-0.1239518482
-0.1202114145
-0.120020074
-0.1159047449
-0.1744115062
-0.1480365787
-0.1396774138
-0.125889663
-0.1239433282
-0.1160545786
-0.1168219642
-0.112045892
-0.1133248768
-0.1099075864
-0.1097321235
-0.1059701125
-0.1558853123
-0.132311415
-0.1248395318
-0.1125165624
-0.1107764545
-0.1037264668
-0.1044117393
-0.1001442721
-0.1012864576
-0.09823327876
-0.09807513025
-0.09471177641
-0.1353573144
-0.114889679
-0.1084024998
-0.097705088
-0.09619455166
-0.09007629314
-0.09067153434
-0.08696948859
-0.08796137371
-0.08531257557
-0.08517545982
-0.08225339766
-0.1131688498
-0.09605584329
-0.09063163831
-0.0816880843
-0.08042492905
-0.07531043293
-0.07580776454
-0.07271396185
-0.07354230338
-0.07132930412
-0.07121279203
-0.06877050486
-0.08951482373
-0.07598081928
-0.07169098975
-0.06462010467
-0.06362115303
-0.05957984794
-0.05997308968
-0.0575303637
-0.05818532053
-0.05643763147
-0.05634555719
-0.05440997922
-0.06477743246
-0.05498320214
-0.05187864414
-0.04676245442
-0.04603960658
-0.04311638993
-0.04340090863
-0.04163514404
-0.04210827982
-0.0408458021
-0.04077706076
-0.03937838166
-0.03918232766
-0.03326050226
-0.03138322545
-0.02829282359
-0.02785568056
-0.02609304195
-0.02626480203
-0.02520274584
-0.02548835053
-0.02472853505
-0.02468667192
-0.02383544888
-0.01313719326
-0.01115256529
-0.01052328849
-0.009490228004
-0.00934391976
-0.008757504618
-0.008814951843
-0.008464559833
-0.008558813898
-0.008309150191
-0.008291704031
-0.008006493201
0.01311656785
0.01112943925
0.0104999299
0.009455723338
0.009308978079
0.008705854371
0.008763899756
0.00839360218
0.008491192739
0.008226265972
0.008215261929
0.007938560205
0.03916260095
0.03323843415
0.03136091745
0.02825995687
0.02782237174
0.02604386439
0.02621622692
0.02513522197
0.02542419505
0.02464986589
0.02461453814
0.02377188559
0.0647594335
0.05496317121
0.05185835661
0.04673276973
0.04600938168
0.04307204229
0.0433568341
0.0415742739
0.04205001623
0.04077477846
0.04071142271
0.03932018723
0.08949934737
0.07596375571
0.07167363729
0.06459500156
0.06359544297
0.0595424029
0.05993574075
0.0574790246
0.05813619763
0.05637798735
0.0562907613
0.05436209303
0.1131564998
0.09604245496
0.09061795152
0.08166870261
0.08040486155
0.07528165001
0.07577879717
0.07267458094
0.07350448738
0.07128378008
0.07117116127
0.06873465166
0.135348633
0.1148805954
0.108393056
0.09769231623
0.09618093871
0.09005743657
0.09065200732
0.08694372723
0.08793600303
0.08528285952
0.08514780677
0.0822297823
0.1558805529
0.1323069257
0.1248346756
0.1125109076
0.1107699
0.1037183419
0.1044027325
0.100133299
0.1012753836
0.0982211519
0.09806437088
0.09470401564
0.1744108789
0.1480369116
0.1396773202
0.1258913448
0.123943991
0.116057424
0.1168235012
0.1120499351
0.1133277086
0.1099129116
0.1097370164
0.1059762235
0.190788731
0.1619375094
0.1527921552
0.1377118187
0.1355809084
0.1269546306
0.1277918789
0.1225713862
0.123968241
0.1202336936
0.1200404019
0.1159244843
0.2047267563
0.1737694297
0.1639570147
0.1477770199
0.1454913542
0.1362370364
0.1371361943
0.1315365138
0.133035668
0.129030276
0.1288222863
0.1244071887
0.2161300793
0.1834477649
0.1730878737
0.1560067211
0.1535928136
0.1438237588
0.1447720447
0.1388615163
0.1404434337
0.1362152276
0.1359955915
0.1313310631
0.2247755608
0.1907871858
0.1800140245
0.1622509324
0.1597415851
0.1495829247
0.1505700821
0.1444243037
0.1460696678
0.1416738555
0.1414441878
0.1365959301
0.2306334515
0.1957585503
0.1847036049
0.1664773856
0.1639016015
0.1534785467
0.1544904967
0.1481850371
0.1498729851
0.1453621444
0.1451274826
0.1401487942
0.2335515744
0.1982363905
0.1870427443
0.1685866173
0.1659794831
0.1554248593
0.156450696
0.1500657093
0.1517752147
0.147208278
0.1469691468
0.1419311011
0.2335713318
0.1982522414
0.187056578
0.168598288
0.1659898459
0.1554341489
0.1564591139
0.1500734514
0.1517828699
0.1472145198
0.1469765641
0.1419337676
0.2306145691
0.1957433278
0.1846905401
0.1664661185
0.1638919893
0.1534695443
0.154482808
0.148177402
0.1498658266
0.1453555855
0.1451198303
0.140145029
0.2247963724
0.1908037639
0.1800287765
0.1622630498
0.1597528181
0.1495924929
0.1505792299
0.144432109
0.1460775382
0.1416796966
0.1414506741
0.1365973682
0.216111909
0.1834331236
0.1730754653
0.1559959625
0.153583927
0.143815349
0.1447652652
0.1388545243
0.1404373538
0.1362090825
0.1359888398
0.1313267648
0.2047487816
0.1737868617
0.1639728493
0.1477897579
0.145503693
0.1362471547
0.1371464083
0.1315448374
0.1330442235
0.129036507
0.1288285438
0.1244090325
0.1907711457
0.1619234456
0.1527803328
0.1377017661
0.1355727813
0.1269472866
0.1277862265
0.1225658303
0.1239637425
0.1202289022
0.120035335
0.1159196942
0.1744342048
0.1480553011
0.1396943572
0.1259049216
0.1239576837
0.1160684928
0.1168352523
0.1120594643
0.113337775
0.1099206919
0.1097444058
0.1059806786
0.1558634627
0.1322934494
0.1248234046
0.1125017566
0.1107626182
0.1037125124
0.1043985015
0.1001299431
0.1012730826
0.09821873062
0.09806196626
0.09469945531
0.1353732202
0.1148999641
0.1084112931
0.09770689158
0.09619607185
0.09006980563
0.09066551612
0.08695506209
0.08794798372
0.08529300531
0.0851569239
0.0822374889
0.113139831
0.09602954872
0.09060719671
0.0816605482
0.08039848247
0.07527757388
0.07577623013
0.07267388339
0.0735049836
0.07128458502
0.07117262315
0.06873211074
0.08952499981
0.07598400055
0.07169291046
0.06461058648
0.06361187566
0.05955620722
0.05995090423
0.05749243998
0.05815007962
0.05639082551
0.05630172821
0.05437281625
0.06474310219
0.05495075331
0.05184803355
0.04672552746
0.04600379789
0.04306960068
0.04335577252
0.04157610434
0.04205311595
0.04077880438
0.04071666878
0.03932026426
0.03918897445
0.03325931427
0.03138091126
0.02827635556
0.02783976435
0.02605889585
0.02623271756
0.02515047219
0.02543981419
0.02466518249
0.02462759213
0.02378563804
0.0131004645
0.01111734816
0.01048989312
0.009449096907
0.00930389825
0.008704503797
0.008763734153
0.008397106934
0.008495761792
0.008232364197
0.008222550853
0.007939989253
-0.01311055139
-0.01113140592
-0.01050300681
-0.009473410973
-0.009326092573
-0.008741809943
-0.008797764984
-0.008448305086
-0.008542105096
-0.008292408421
-0.008277060241
-0.007990696106
-0.03919833902
-0.03327249213
-0.03139315921
-0.02829929151
-0.02786062965
-0.02609416337
-0.02626483284
-0.02519893659
-0.02548369096
-0.02472211876
-0.02467939216
-0.0238339627
-0.0647510213
-0.05496217728
-0.05185856622
-0.04674572792
-0.04602200165
-0.04310080607
-0.04338396259
-0.04161908643
-0.0420917823
-0.04082940507
-0.04076254722
-0.03936326761
-0.08953090196
-0.07599295991
-0.07170102082
-0.06462691578
-0.06362634912
-0.05958167386
-0.05997369833
-0.05752771166
-0.0581817666
-0.05643263776
-0.05633989865
-0.05440902841
-0.1131431374
-0.0960353466
-0.09061222493
-0.08167193721
-0.08040816692
-0.07529569919
-0.07579196058
-0.07269923766
-0.07352729848
-0.07131492673
-0.07120013978
-0.0687587169
-0.1353736369
-0.1149022065
-0.1084128361
-0.09771266235
-0.09620035286
-0.09007956776
-0.09067337153
-0.0869691372
-0.08796001647
-0.08531041666
-0.08517294423
-0.08225390154
-0.1558606682
-0.1322917517
-0.1248211297
-0.1125013475
-0.1107609483
-0.1037130775
-0.1043975705
-0.1001315697
-0.1012734574
-0.0982217198
-0.09806472831
-0.09470384406
-0.1744282605
-0.1480496792
-0.1396882581
-0.1258982452
-0.1239500184
-0.1160596675
-0.1168254837
-0.1120483547
-0.113326457
-0.1099089676
-0.1097338754
-0.1059732109
-0.1907620506
-0.1619139016
-0.1527704729
-0.1376888975
-0.1355592134
-0.1269292208
-0.1277677078
-0.1225421663
-0.1239407702
-0.1202025503
-0.1200114549
-0.1158999078
-0.2047369576
-0.173773839
-0.1639596466
-0.1477712205
-0.1454847788
-0.1362205042
-0.1371198691
-0.1315094311
-0.1330104425
-0.1289964655
-0.1287921278
-0.1243780438
-0.2160976838
-0.1834170162
-0.1730593546
-0.1559724858
-0.1535603826
-0.1437812838
-0.1447318102
-0.1388089737
-0.1403942794
-0.136157081
-0.135941578
-0.1312854255
-0.2247804551
-0.1907853772
-0.1800105536
-0.1622356785
-0.1597257253
-0.1495524011
-0.1505402429
-0.1443781836
-0.1460267127
-0.1416177374
-0.141394022
-0.1365474769
-0.230597553
-0.1957233818
-0.1846708853
-0.1664361259
-0.1638625251
-0.1534254327
-0.1544402384
-0.1481178834
-0.1498101338
-0.1452869062
-0.1450573278
-0.1400892496
-0.2335541048
-0.1982317769
-0.1870365429
-0.1685670743
-0.1659594486
-0.155387947
-0.1564147647
-0.1500108482
-0.1517242309
-0.1471418611
-0.1469098186
-0.1418737328
)
;

boundaryField
{
    out
    {
        type            implicitExtrapolation;
    }
    in
    {
        type            implicitExtrapolation;
    }
    frontAndBack
    {
        type            empty;
    }
}


// ************************************************************************* //
