/*--------------------------------*- C++ -*----------------------------------*\
| =========                 |                                                 |
| \\      /  F ield         | foam-extend: Open Source CFD                    |
|  \\    /   O peration     | Version:  3.0                                   |
|   \\  /    A nd           | Web:         http://www.extend-project.de       |
|    \\/     M anipulation  |                                                 |
\*---------------------------------------------------------------------------*/
FoamFile
{
    version     2.0;
    format      ascii;
    class       volScalarField;
    location    "13";
    object      p;
}
// * * * * * * * * * * * * * * * * * * * * * * * * * * * * * * * * * * * * * //

dimensions      [0 0 0 0 0 0 0];

internalField   nonuniform List<scalar> 
7680
(
-0.23443
-0.222246
-0.213171
-0.203637
-0.196646
-0.189072
-0.183628
-0.177544
-0.173281
-0.168356
-0.165009
-0.161002
-0.158375
-0.155105
-0.153049
-0.150373
-0.148771
-0.146575
-0.145332
-0.143523
-0.142557
-0.141055
-0.140298
-0.139033
-0.13842
-0.137327
-0.1368
-0.13582
-0.135321
-0.134394
-0.133866
-0.132932
-0.132316
-0.131311
-0.130543
-0.129401
-0.12841
-0.127057
-0.125767
-0.124117
-0.234211
-0.222038
-0.212973
-0.203449
-0.196465
-0.188898
-0.183461
-0.177383
-0.173124
-0.168205
-0.164861
-0.16086
-0.158236
-0.154969
-0.152916
-0.150243
-0.148643
-0.14645
-0.145209
-0.143402
-0.142438
-0.140938
-0.140182
-0.138919
-0.138307
-0.137217
-0.136691
-0.135712
-0.135214
-0.134288
-0.133762
-0.132828
-0.132212
-0.131209
-0.130441
-0.1293
-0.12831
-0.126957
-0.125667
-0.124018
-0.233698
-0.221553
-0.21251
-0.203008
-0.196041
-0.188492
-0.183067
-0.177005
-0.172756
-0.167849
-0.164513
-0.160522
-0.157904
-0.154646
-0.152598
-0.149932
-0.148337
-0.14615
-0.144912
-0.14311
-0.14215
-0.140654
-0.139901
-0.138641
-0.138032
-0.136944
-0.13642
-0.135444
-0.134948
-0.134025
-0.1335
-0.132568
-0.131955
-0.130953
-0.130187
-0.129048
-0.12806
-0.12671
-0.125423
-0.123778
-0.232977
-0.22087
-0.211856
-0.202384
-0.195439
-0.187914
-0.182507
-0.176463
-0.172228
-0.167337
-0.164012
-0.160034
-0.157425
-0.154177
-0.152137
-0.149479
-0.14789
-0.14571
-0.144476
-0.142681
-0.141724
-0.140233
-0.139482
-0.138227
-0.13762
-0.136537
-0.136015
-0.135042
-0.134548
-0.133627
-0.133104
-0.132175
-0.131563
-0.130565
-0.1298
-0.128665
-0.12768
-0.126334
-0.125051
-0.123413
-0.231964
-0.219912
-0.210938
-0.201509
-0.194595
-0.187104
-0.181722
-0.175705
-0.17149
-0.166621
-0.163312
-0.159351
-0.156755
-0.153522
-0.151491
-0.148846
-0.147265
-0.145095
-0.143868
-0.142081
-0.141129
-0.139646
-0.138899
-0.13765
-0.137046
-0.135968
-0.135448
-0.13448
-0.133989
-0.133072
-0.132551
-0.131627
-0.131017
-0.130023
-0.129262
-0.128132
-0.127151
-0.125812
-0.124536
-0.122907
-0.230744
-0.218757
-0.20983
-0.200452
-0.193575
-0.186124
-0.18077
-0.174786
-0.170593
-0.165751
-0.162459
-0.15852
-0.155938
-0.152723
-0.150703
-0.148073
-0.1465
-0.144342
-0.143122
-0.141345
-0.140398
-0.138923
-0.13818
-0.136938
-0.136337
-0.135265
-0.134748
-0.133785
-0.133296
-0.132385
-0.131866
-0.130946
-0.13034
-0.129351
-0.128593
-0.127469
-0.126494
-0.125163
-0.123894
-0.122277
-0.229236
-0.217328
-0.208461
-0.199145
-0.192314
-0.184914
-0.179596
-0.173652
-0.169488
-0.164678
-0.161409
-0.157496
-0.154932
-0.151739
-0.149733
-0.14712
-0.145559
-0.143416
-0.142204
-0.140439
-0.139499
-0.138035
-0.137297
-0.136064
-0.135468
-0.134402
-0.133889
-0.132933
-0.132447
-0.131541
-0.131026
-0.130113
-0.12951
-0.128527
-0.127775
-0.126659
-0.12569
-0.124369
-0.12311
-0.121507
-0.227523
-0.215705
-0.206905
-0.19766
-0.19088
-0.183535
-0.178258
-0.172359
-0.168226
-0.163453
-0.160208
-0.156326
-0.153781
-0.150612
-0.148622
-0.146029
-0.144479
-0.142353
-0.14115
-0.139399
-0.138466
-0.137012
-0.136281
-0.135056
-0.134465
-0.133407
-0.132898
-0.131949
-0.131466
-0.130567
-0.130055
-0.129148
-0.12855
-0.127575
-0.126827
-0.12572
-0.124759
-0.12345
-0.122202
-0.120615
-0.225526
-0.213813
-0.205091
-0.195928
-0.189209
-0.18193
-0.1767
-0.170854
-0.166758
-0.162027
-0.158812
-0.154965
-0.152443
-0.149303
-0.147331
-0.144761
-0.143226
-0.141119
-0.139927
-0.138192
-0.137268
-0.135827
-0.135103
-0.133889
-0.133303
-0.132255
-0.13175
-0.13081
-0.130331
-0.12944
-0.128932
-0.128034
-0.12744
-0.126474
-0.125733
-0.124636
-0.123684
-0.122388
-0.121153
-0.119584
-0.223328
-0.21173
-0.203094
-0.19402
-0.187367
-0.18016
-0.174981
-0.169192
-0.165137
-0.160453
-0.157269
-0.15346
-0.150963
-0.147853
-0.145901
-0.143357
-0.141837
-0.13975
-0.138571
-0.136852
-0.135937
-0.134511
-0.133793
-0.132592
-0.132011
-0.130973
-0.130473
-0.129541
-0.129067
-0.128184
-0.127681
-0.126791
-0.126202
-0.125246
-0.124512
-0.123427
-0.122485
-0.121204
-0.119983
-0.118433
-0.220849
-0.209381
-0.200842
-0.19187
-0.185293
-0.178166
-0.173045
-0.167322
-0.163312
-0.158681
-0.155534
-0.151767
-0.149299
-0.146225
-0.144294
-0.141779
-0.140276
-0.138214
-0.137048
-0.135349
-0.134444
-0.133034
-0.132325
-0.131137
-0.130563
-0.129537
-0.129042
-0.12812
-0.127651
-0.126779
-0.126281
-0.125401
-0.124819
-0.123873
-0.123148
-0.122076
-0.121144
-0.11988
-0.118674
-0.117146
-0.218175
-0.206846
-0.198411
-0.189549
-0.183051
-0.176011
-0.170953
-0.165299
-0.161339
-0.156764
-0.153655
-0.149934
-0.147496
-0.144459
-0.142553
-0.140068
-0.138584
-0.136546
-0.135394
-0.133716
-0.132822
-0.131429
-0.130728
-0.129555
-0.128987
-0.127973
-0.127484
-0.126574
-0.12611
-0.125248
-0.124755
-0.123886
-0.123311
-0.122377
-0.121661
-0.120602
-0.119683
-0.118436
-0.117247
-0.115742
-0.215226
-0.204052
-0.195732
-0.18699
-0.180581
-0.173637
-0.168648
-0.163072
-0.159166
-0.154654
-0.151588
-0.147918
-0.145513
-0.142518
-0.140638
-0.138188
-0.136724
-0.134714
-0.133578
-0.131923
-0.131042
-0.129668
-0.128976
-0.127819
-0.127259
-0.126259
-0.125777
-0.124878
-0.124421
-0.12357
-0.123085
-0.122227
-0.12166
-0.120739
-0.120033
-0.11899
-0.118084
-0.116856
-0.115685
-0.114204
-0.212087
-0.201076
-0.192878
-0.184265
-0.177949
-0.171107
-0.166192
-0.160697
-0.156848
-0.152402
-0.149381
-0.145765
-0.143395
-0.140444
-0.138591
-0.136177
-0.134734
-0.132754
-0.131635
-0.130004
-0.129136
-0.127782
-0.1271
-0.125959
-0.125407
-0.124422
-0.123946
-0.123061
-0.12261
-0.121771
-0.121292
-0.120447
-0.119888
-0.118981
-0.118286
-0.117259
-0.116368
-0.11516
-0.114008
-0.112551
-0.20868
-0.197848
-0.189782
-0.181308
-0.175095
-0.168364
-0.163528
-0.158122
-0.154336
-0.149962
-0.14699
-0.143433
-0.141102
-0.138199
-0.136376
-0.134002
-0.132582
-0.130635
-0.129534
-0.127929
-0.127075
-0.125743
-0.125073
-0.12395
-0.123407
-0.122438
-0.12197
-0.121099
-0.120655
-0.11983
-0.119359
-0.118528
-0.117978
-0.117086
-0.116402
-0.115393
-0.114517
-0.11333
-0.112199
-0.110768
-0.205091
-0.194445
-0.186518
-0.17819
-0.172085
-0.165469
-0.160717
-0.155405
-0.151684
-0.147385
-0.144465
-0.140969
-0.138678
-0.135826
-0.134035
-0.131701
-0.130306
-0.128392
-0.12731
-0.125733
-0.124893
-0.123584
-0.122925
-0.121822
-0.121288
-0.120335
-0.119875
-0.119019
-0.118582
-0.117771
-0.117308
-0.116492
-0.115951
-0.115075
-0.114404
-0.113413
-0.112553
-0.111388
-0.110278
-0.108875
-0.201241
-0.190796
-0.183019
-0.174848
-0.168858
-0.162368
-0.157706
-0.152494
-0.148843
-0.144626
-0.141761
-0.138332
-0.136085
-0.133286
-0.131529
-0.129239
-0.127871
-0.125993
-0.124932
-0.123385
-0.122561
-0.121277
-0.120631
-0.119548
-0.119025
-0.11809
-0.117638
-0.116798
-0.11637
-0.115575
-0.115121
-0.11432
-0.11379
-0.112931
-0.112273
-0.111302
-0.110459
-0.109318
-0.10823
-0.106856
-0.197216
-0.18698
-0.179359
-0.171352
-0.165482
-0.159122
-0.154553
-0.149446
-0.145869
-0.141736
-0.138929
-0.135568
-0.133366
-0.130623
-0.128902
-0.126658
-0.125317
-0.123477
-0.122437
-0.120921
-0.120114
-0.118855
-0.118221
-0.117161
-0.116647
-0.115731
-0.115288
-0.114465
-0.114045
-0.113266
-0.112821
-0.112036
-0.111517
-0.110676
-0.110031
-0.109081
-0.108256
-0.107139
-0.106075
-0.10473
-0.192939
-0.182926
-0.175471
-0.167639
-0.161897
-0.155676
-0.151207
-0.146211
-0.142712
-0.13867
-0.135924
-0.132636
-0.130483
-0.1278
-0.126116
-0.123922
-0.122611
-0.120811
-0.119793
-0.118311
-0.117521
-0.11629
-0.11567
-0.114633
-0.114131
-0.113235
-0.112802
-0.111997
-0.111586
-0.110824
-0.110389
-0.109622
-0.109114
-0.108292
-0.107662
-0.106734
-0.105927
-0.104836
-0.103796
-0.102482
-0.188495
-0.178713
-0.171431
-0.163779
-0.15817
-0.152092
-0.147726
-0.142846
-0.139427
-0.135479
-0.132796
-0.129585
-0.127481
-0.12486
-0.123215
-0.121071
-0.11979
-0.118032
-0.117038
-0.115589
-0.114818
-0.113615
-0.113009
-0.111996
-0.111505
-0.11063
-0.110207
-0.10942
-0.109019
-0.108275
-0.10785
-0.107101
-0.106605
-0.105803
-0.105188
-0.104281
-0.103495
-0.10243
-0.101415
-0.100133
-0.18381
-0.174272
-0.167171
-0.159711
-0.154241
-0.148316
-0.144059
-0.139301
-0.135968
-0.132118
-0.129503
-0.126372
-0.124321
-0.121766
-0.120162
-0.118072
-0.116823
-0.115109
-0.11414
-0.112728
-0.111976
-0.110804
-0.110213
-0.109225
-0.108747
-0.107893
-0.107481
-0.106715
-0.106324
-0.105598
-0.105184
-0.104454
-0.103971
-0.10319
-0.102591
-0.101708
-0.100942
-0.0999047
-0.0989163
-0.0976674
-0.178967
-0.169681
-0.162768
-0.155504
-0.150179
-0.14441
-0.140265
-0.135633
-0.132388
-0.12864
-0.126094
-0.123045
-0.121049
-0.118561
-0.117
-0.114965
-0.113749
-0.11208
-0.111136
-0.109762
-0.109029
-0.107888
-0.107313
-0.106351
-0.105885
-0.105054
-0.104653
-0.103907
-0.103526
-0.10282
-0.102417
-0.101707
-0.101237
-0.100476
-0.0998937
-0.0990349
-0.0982898
-0.0972811
-0.0963198
-0.095105
-0.173893
-0.164871
-0.158155
-0.151098
-0.145925
-0.140319
-0.136293
-0.131793
-0.128641
-0.125
-0.122526
-0.119565
-0.117625
-0.115209
-0.113692
-0.111715
-0.110535
-0.108913
-0.107997
-0.106661
-0.10595
-0.104841
-0.104283
-0.103349
-0.102897
-0.10209
-0.1017
-0.100975
-0.100606
-0.0999203
-0.099529
-0.0988395
-0.0983836
-0.0976455
-0.09708
-0.0962464
-0.0955233
-0.0945442
-0.0936111
-0.0924319
-0.168673
-0.159922
-0.153407
-0.146562
-0.141545
-0.136108
-0.132203
-0.127838
-0.124781
-0.121249
-0.11885
-0.115978
-0.114097
-0.111753
-0.110282
-0.108365
-0.107219
-0.105647
-0.104758
-0.103463
-0.102773
-0.101697
-0.101156
-0.10025
-0.0998112
-0.0990284
-0.0986504
-0.0979477
-0.0975894
-0.0969248
-0.0965455
-0.0958771
-0.0954353
-0.0947199
-0.0941719
-0.0933641
-0.0926634
-0.0917146
-0.0908105
-0.0896676
-0.163232
-0.154764
-0.14846
-0.141837
-0.136982
-0.131722
-0.127943
-0.12372
-0.120762
-0.117345
-0.115024
-0.112245
-0.110425
-0.108157
-0.106734
-0.104879
-0.103771
-0.10225
-0.10139
-0.100137
-0.0994701
-0.0984297
-0.0979061
-0.0970295
-0.0966055
-0.0958483
-0.0954829
-0.0948033
-0.094457
-0.0938144
-0.0934479
-0.0928016
-0.0923746
-0.0916829
-0.0911534
-0.0903724
-0.0896951
-0.0887777
-0.0879037
-0.0867985
-0.157656
-0.149477
-0.143389
-0.136992
-0.132304
-0.127223
-0.123574
-0.119495
-0.116639
-0.113338
-0.111097
-0.108413
-0.106655
-0.104465
-0.103091
-0.1013
-0.10023
-0.0987604
-0.0979304
-0.0967202
-0.0960758
-0.0950711
-0.0945654
-0.0937189
-0.0933095
-0.0925783
-0.0922255
-0.0915694
-0.0912351
-0.0906147
-0.090261
-0.0896372
-0.0892252
-0.0885577
-0.0880468
-0.0872931
-0.0866397
-0.0857544
-0.0849109
-0.0838443
-0.151871
-0.143994
-0.13813
-0.131968
-0.127452
-0.122559
-0.119045
-0.115116
-0.112365
-0.109187
-0.107028
-0.104443
-0.102751
-0.100642
-0.0993184
-0.0975932
-0.0965631
-0.0951481
-0.094349
-0.0931837
-0.0925635
-0.0915961
-0.0911094
-0.0902944
-0.0899004
-0.0891965
-0.0888571
-0.0882255
-0.087904
-0.0873069
-0.0869667
-0.0863664
-0.0859702
-0.0853278
-0.0848363
-0.084111
-0.0834823
-0.0826302
-0.0818185
-0.0807917
-0.145963
-0.138392
-0.132757
-0.126835
-0.122496
-0.117793
-0.114416
-0.11064
-0.107996
-0.104942
-0.102867
-0.100383
-0.0987567
-0.09673
-0.0954583
-0.0938005
-0.0928105
-0.0914508
-0.0906829
-0.0895631
-0.0889671
-0.0880374
-0.0875698
-0.0867867
-0.0864082
-0.0857319
-0.0854059
-0.0847991
-0.0844904
-0.0839168
-0.0835902
-0.0830137
-0.0826333
-0.0820164
-0.0815445
-0.080848
-0.0802443
-0.0794261
-0.0786466
-0.0776605
-0.13986
-0.132606
-0.127207
-0.121534
-0.117377
-0.112871
-0.109636
-0.106019
-0.103486
-0.10056
-0.0985733
-0.096194
-0.0946361
-0.0926947
-0.0914769
-0.0898889
-0.0889409
-0.0876386
-0.0869033
-0.0858308
-0.0852603
-0.08437
-0.0839224
-0.0831726
-0.0828104
-0.0821629
-0.081851
-0.0812702
-0.0809748
-0.0804259
-0.0801135
-0.0795616
-0.0791977
-0.0786073
-0.0781558
-0.0774891
-0.0769114
-0.076128
-0.0753818
-0.0744376
-0.133646
-0.126715
-0.121556
-0.116135
-0.112163
-0.107858
-0.104767
-0.101311
-0.0988909
-0.096095
-0.0941966
-0.0919232
-0.0904348
-0.0885799
-0.0874164
-0.0858992
-0.0849935
-0.0837493
-0.0830469
-0.0820223
-0.0814773
-0.0806268
-0.0801993
-0.079483
-0.079137
-0.0785186
-0.0782208
-0.0776661
-0.0773841
-0.0768599
-0.0765618
-0.0760349
-0.0756876
-0.0751239
-0.074693
-0.0740565
-0.073505
-0.072757
-0.0720446
-0.0711429
-0.127249
-0.120651
-0.11574
-0.110579
-0.106798
-0.1027
-0.0997573
-0.0964675
-0.0941644
-0.0915031
-0.0896963
-0.0875324
-0.0861159
-0.0843505
-0.0832433
-0.0817994
-0.0809376
-0.0797536
-0.0790853
-0.0781104
-0.077592
-0.0767828
-0.0763762
-0.0756948
-0.075366
-0.0747777
-0.0744947
-0.0739671
-0.0736992
-0.0732007
-0.0729174
-0.0724164
-0.0720863
-0.0715502
-0.0711406
-0.0705352
-0.0700108
-0.0692993
-0.0686216
-0.0677637
-0.120756
-0.114494
-0.109834
-0.104937
-0.101349
-0.0974607
-0.0946688
-0.0915472
-0.0893619
-0.0868368
-0.0851225
-0.0830694
-0.0817254
-0.0800504
-0.079
-0.0776301
-0.0768126
-0.0756892
-0.0750553
-0.0741304
-0.0736387
-0.0728711
-0.0724855
-0.0718391
-0.0715274
-0.0709694
-0.0707012
-0.0702008
-0.069947
-0.0694743
-0.0692058
-0.0687308
-0.068418
-0.0679098
-0.0675215
-0.0669476
-0.0664505
-0.0657759
-0.0651334
-0.0643199
-0.114093
-0.108179
-0.103776
-0.0991508
-0.0957613
-0.0920883
-0.0894513
-0.0865028
-0.0844389
-0.0820539
-0.0804349
-0.0784959
-0.0772268
-0.075645
-0.0746532
-0.0733595
-0.0725878
-0.0715271
-0.0709288
-0.0700556
-0.0695916
-0.068867
-0.0685033
-0.0678932
-0.0675992
-0.0670727
-0.0668198
-0.0663477
-0.0661085
-0.0656625
-0.0654095
-0.0649613
-0.0646664
-0.0641869
-0.0638207
-0.0632791
-0.0628101
-0.0621733
-0.061567
-0.0607989
-0.107348
-0.101783
-0.097642
-0.0932903
-0.0901016
-0.0866462
-0.0841655
-0.0813917
-0.0794503
-0.0772067
-0.0756838
-0.0738598
-0.0726662
-0.0711782
-0.0702454
-0.0690286
-0.0683028
-0.0673052
-0.0667426
-0.0659213
-0.0654851
-0.0648036
-0.0644618
-0.0638881
-0.0636118
-0.0631168
-0.0628793
-0.0624354
-0.0622107
-0.0617915
-0.0615539
-0.0611327
-0.0608558
-0.0604051
-0.0600611
-0.0595521
-0.0591113
-0.0585128
-0.0579429
-0.0572209
-0.100449
-0.095243
-0.0913687
-0.0872977
-0.0843149
-0.0810825
-0.0787622
-0.0761676
-0.0743518
-0.0722533
-0.0708292
-0.0691233
-0.0680071
-0.0666156
-0.0657436
-0.0646057
-0.0639273
-0.0629946
-0.0624689
-0.0617011
-0.0612936
-0.0606567
-0.0603375
-0.0598014
-0.0595435
-0.059081
-0.0588594
-0.0584448
-0.0582352
-0.0578436
-0.0576219
-0.0572284
-0.05697
-0.056549
-0.0562278
-0.0557521
-0.0553404
-0.054781
-0.0542484
-0.0535734
-0.0934816
-0.088637
-0.0850319
-0.0812438
-0.0784684
-0.0754608
-0.0733019
-0.0708879
-0.0691985
-0.0672461
-0.0659213
-0.0643342
-0.0632959
-0.0620014
-0.0611903
-0.0601318
-0.0595009
-0.0586333
-0.0581445
-0.0574304
-0.0570516
-0.0564592
-0.0561626
-0.0556641
-0.0554245
-0.0549945
-0.0547887
-0.0544033
-0.0542087
-0.0538448
-0.053639
-0.0532733
-0.0530333
-0.0526421
-0.0523437
-0.0519017
-0.0515192
-0.0509992
-0.0505042
-0.0498767
-0.0863749
-0.0818997
-0.0785698
-0.0750708
-0.0725075
-0.0697296
-0.0677359
-0.0655064
-0.0639465
-0.0621436
-0.0609204
-0.0594549
-0.0584965
-0.0573013
-0.0565527
-0.0555756
-0.0549935
-0.0541927
-0.0537419
-0.0530829
-0.0527337
-0.0521872
-0.0519139
-0.051454
-0.0512335
-0.0508369
-0.0506475
-0.0502922
-0.0501131
-0.0497776
-0.0495882
-0.0492511
-0.04903
-0.0486693
-0.0483944
-0.0479867
-0.0476339
-0.0471542
-0.0466976
-0.0461185
-0.0792147
-0.0751111
-0.0720579
-0.0688496
-0.0664995
-0.0639525
-0.0621247
-0.0600807
-0.0586508
-0.0569979
-0.0558767
-0.0545334
-0.053655
-0.0525595
-0.0518736
-0.0509781
-0.0504448
-0.0497109
-0.049298
-0.0486942
-0.0483744
-0.0478737
-0.0476236
-0.0472024
-0.0470006
-0.0466375
-0.0464643
-0.046139
-0.0459753
-0.0456682
-0.045495
-0.0451865
-0.0449844
-0.0446542
-0.0444027
-0.0440295
-0.0437067
-0.0432675
-0.0428494
-0.0423191
-0.0719308
-0.0682059
-0.0654347
-0.0625227
-0.0603899
-0.0580784
-0.0564198
-0.054565
-0.0532677
-0.051768
-0.050751
-0.0495323
-0.0487358
-0.0477421
-0.0471202
-0.0463081
-0.0458248
-0.0451594
-0.0447854
-0.0442381
-0.0439486
-0.0434949
-0.0432687
-0.0428871
-0.0427048
-0.0423759
-0.0422195
-0.041925
-0.0417772
-0.0414992
-0.0413428
-0.0410634
-0.0408808
-0.0405817
-0.0403542
-0.0400161
-0.0397239
-0.0393259
-0.0389471
-0.0384664
-0.0646088
-0.0612638
-0.0587756
-0.0561609
-0.054246
-0.0521707
-0.0506819
-0.0490167
-0.0478523
-0.0465061
-0.0455934
-0.0444996
-0.0437849
-0.0428931
-0.0423353
-0.0416066
-0.0411732
-0.0405763
-0.0402411
-0.0397502
-0.0394909
-0.039084
-0.0388815
-0.0385395
-0.0383763
-0.0380816
-0.0379418
-0.0376779
-0.0375458
-0.0372968
-0.037157
-0.0369069
-0.0367435
-0.0364757
-0.0362721
-0.0359692
-0.0357075
-0.0353509
-0.0350115
-0.0345807
-0.0571789
-0.0542201
-0.0520196
-0.0497071
-0.0480139
-0.0461788
-0.0448626
-0.0433904
-0.0423612
-0.0411712
-0.0403648
-0.0393981
-0.0387669
-0.037979
-0.0374866
-0.0368429
-0.0364605
-0.0359335
-0.0356379
-0.0352046
-0.0349762
-0.0346173
-0.0344391
-0.0341375
-0.0339941
-0.0337344
-0.0336116
-0.0333792
-0.0332633
-0.0330439
-0.0329212
-0.0327008
-0.0325572
-0.0323212
-0.032142
-0.0318749
-0.0316443
-0.0313297
-0.0310304
-0.03065
-0.0497264
-0.0471545
-0.0452419
-0.0432321
-0.0417608
-0.040166
-0.0390225
-0.0377433
-0.0368494
-0.0358157
-0.0351155
-0.0342759
-0.033728
-0.0330438
-0.0326165
-0.0320578
-0.0317262
-0.0312688
-0.0310127
-0.0306368
-0.0304391
-0.0301279
-0.0299738
-0.0297124
-0.0295886
-0.0293636
-0.0292578
-0.0290565
-0.0289566
-0.0287667
-0.0286609
-0.0284702
-0.0283462
-0.0281419
-0.027987
-0.0277558
-0.0275562
-0.0272837
-0.0270245
-0.0266949
-0.0421822
-0.0400025
-0.038382
-0.036679
-0.0354328
-0.0340819
-0.0331137
-0.0320304
-0.0312739
-0.0303988
-0.0298065
-0.0290959
-0.0286328
-0.028054
-0.0276931
-0.0272207
-0.026941
-0.0265545
-0.0263387
-0.0260213
-0.0258549
-0.0255924
-0.025463
-0.0252426
-0.0251389
-0.0249494
-0.0248609
-0.0246914
-0.0246079
-0.0244482
-0.0243596
-0.0241991
-0.0240952
-0.0239231
-0.023793
-0.0235981
-0.0234301
-0.0232002
-0.0229816
-0.0227033
-0.0346315
-0.0328437
-0.031515
-0.0301186
-0.0290972
-0.0279898
-0.0271966
-0.026309
-0.0256895
-0.0249726
-0.0244879
-0.0239062
-0.0235274
-0.0230538
-0.0227589
-0.0223726
-0.0221443
-0.0218284
-0.0216525
-0.0213933
-0.0212581
-0.0210438
-0.0209389
-0.0207593
-0.0206754
-0.0205211
-0.0204496
-0.0203118
-0.0202444
-0.0201145
-0.0200431
-0.0199126
-0.0198285
-0.0196886
-0.0195831
-0.0194245
-0.0192879
-0.0191006
-0.0189226
-0.0186957
-0.0270052
-0.0256139
-0.0245805
-0.0234943
-0.0227005
-0.0218396
-0.0212236
-0.020534
-0.0200533
-0.0194968
-0.0191212
-0.0186699
-0.0183768
-0.0180098
-0.017782
-0.0174829
-0.017307
-0.0170628
-0.0169277
-0.0167276
-0.016624
-0.0164589
-0.016379
-0.0162408
-0.0161772
-0.0160587
-0.0160048
-0.0158991
-0.0158484
-0.0157489
-0.0156949
-0.0155949
-0.0155311
-0.0154238
-0.0153432
-0.0152213
-0.0151166
-0.0149724
-0.0148354
-0.0146603
-0.0193885
-0.0183926
-0.0176536
-0.0168767
-0.0163096
-0.0156945
-0.0152549
-0.0147627
-0.0144202
-0.0140234
-0.0137563
-0.0134349
-0.013227
-0.012966
-0.0128049
-0.0125926
-0.0124685
-0.0122955
-0.0122008
-0.0120594
-0.0119872
-0.0118708
-0.0118155
-0.0117184
-0.0116748
-0.0115918
-0.0115551
-0.0114813
-0.0114468
-0.0113774
-0.0113407
-0.011271
-0.0112272
-0.0111522
-0.0110965
-0.0110112
-0.0109382
-0.0108369
-0.0107409
-0.0106176
-0.0117129
-0.011116
-0.0106742
-0.0102096
-0.00987146
-0.00950443
-0.00924326
-0.00895029
-0.00874763
-0.00851217
-0.00835483
-0.0081648
-0.00804305
-0.00788933
-0.00779573
-0.00767126
-0.00759994
-0.00749908
-0.00744528
-0.00736337
-0.00732311
-0.00725621
-0.00722604
-0.00717069
-0.00714749
-0.00710056
-0.00708146
-0.00704
-0.00702224
-0.00698341
-0.00696423
-0.00692519
-0.00690178
-0.0068596
-0.006829
-0.0067806
-0.00673965
-0.00668172
-0.00662697
-0.00655588
-0.00406295
-0.00386326
-0.00371711
-0.0035632
-0.00345284
-0.0033326
-0.00324871
-0.00315394
-0.00309011
-0.00301505
-0.00296671
-0.00290715
-0.00287092
-0.00282372
-0.00279702
-0.00275973
-0.00274054
-0.00271122
-0.00269791
-0.00267496
-0.00266617
-0.00264824
-0.00264279
-0.00262871
-0.00262557
-0.00261428
-0.00261247
-0.002603
-0.0026016
-0.00259301
-0.00259111
-0.00258246
-0.00257914
-0.00256947
-0.00256378
-0.00255209
-0.00254298
-0.00252819
-0.00251455
-0.00249549
0.00362938
0.00342911
0.0032774
0.00311836
0.0029992
0.00287078
0.00277593
0.00267094
0.00259471
0.00250806
0.00244637
0.00237432
0.00232415
0.00226386
0.00222288
0.00217214
0.00213852
0.00209556
0.00206778
0.00203112
0.00200792
0.00197629
0.00195654
0.00192882
0.00191151
0.00188666
0.00187082
0.00184787
0.00183257
0.00181054
0.00179484
0.00177275
0.00175568
0.00173252
0.00171304
0.00168773
0.00166473
0.00163611
0.00160838
0.00157517
0.0112796
0.0106821
0.0102347
0.00976495
0.00941802
0.00904278
0.00877063
0.00846743
0.00825235
0.00800529
0.0078346
0.00763206
0.00749637
0.00732956
0.00722166
0.00708375
0.00699798
0.00688348
0.00681521
0.0067196
0.00666492
0.00658433
0.00653984
0.00647086
0.0064335
0.00637301
0.0063399
0.00628496
0.00625331
0.00620105
0.00616808
0.00611561
0.00607845
0.00602278
0.00597842
0.0059164
0.00586158
0.00578982
0.005721
0.00563577
0.0189557
0.0179591
0.0172144
0.0164323
0.0158564
0.015233
0.0147825
0.0142799
0.0139251
0.0135166
0.0132361
0.0129023
0.0126803
0.0124063
0.0122308
0.0120051
0.0118666
0.01168
0.0115707
0.0114156
0.011329
0.011199
0.0111293
0.0110187
0.0109609
0.0108644
0.0108136
0.0107263
0.010678
0.0105952
0.0105447
0.0104616
0.0104041
0.0103157
0.0102462
0.0101473
0.0100604
0.00994533
0.00983524
0.00969786
0.0265735
0.0251813
0.0241421
0.0230506
0.0222478
0.0213786
0.0207516
0.0200516
0.0195585
0.0189904
0.0186013
0.0181375
0.0178304
0.0174503
0.0172082
0.0168957
0.0167053
0.0164474
0.0162978
0.016084
0.0159661
0.0157873
0.015693
0.0155413
0.0154635
0.0153315
0.0152636
0.0151445
0.0150799
0.014967
0.0148993
0.0147859
0.0147084
0.0145876
0.0144934
0.0143579
0.0142394
0.0140814
0.0139303
0.0137412
0.0342006
0.0324117
0.0310772
0.0296754
0.0286449
0.0275292
0.0267249
0.0258269
0.0251949
0.0244663
0.0239682
0.0233739
0.0229811
0.0224944
0.0221852
0.0217854
0.0215426
0.0212131
0.0210228
0.0207499
0.0206002
0.0203723
0.020253
0.0200598
0.0199618
0.019794
0.0197086
0.0195573
0.0194762
0.0193329
0.0192478
0.0191039
0.0190063
0.018853
0.0187338
0.0185616
0.0184113
0.0182102
0.0180182
0.0177772
0.0417531
0.039572
0.0379455
0.0362369
0.0349816
0.0336221
0.0326428
0.031549
0.03078
0.0298931
0.0292873
0.0285642
0.028087
0.0274951
0.0271199
0.0266339
0.0263397
0.0259395
0.0257092
0.0253781
0.0251974
0.0249211
0.0247775
0.0245436
0.0244258
0.0242227
0.0241203
0.0239375
0.0238402
0.0236671
0.0235649
0.0233911
0.0232736
0.0230882
0.0229445
0.0227361
0.0225544
0.0223108
0.0220782
0.0217859
0.0492986
0.0467251
0.0448063
0.0427907
0.0413102
0.0397068
0.038552
0.0372623
0.0363559
0.0353103
0.0345966
0.0337444
0.0331824
0.032485
0.0320434
0.0314712
0.0311251
0.030654
0.0303834
0.0299939
0.0297817
0.0294569
0.0292885
0.0290136
0.0288757
0.0286373
0.0285175
0.0283029
0.0281893
0.0279862
0.0278668
0.0276628
0.0275253
0.0273078
0.0271393
0.0268947
0.0266815
0.0263953
0.0261222
0.0257786
0.0567535
0.0537928
0.0515858
0.0492673
0.0475648
0.0457208
0.0443933
0.0429104
0.0418686
0.0406667
0.0398468
0.0388674
0.0382221
0.0374209
0.0369141
0.0362569
0.03586
0.0353192
0.0350092
0.0345621
0.0343194
0.0339468
0.0337543
0.0334392
0.0332818
0.0330086
0.0328721
0.0326263
0.0324968
0.0322642
0.032128
0.0318944
0.0317374
0.0314882
0.0312955
0.0310151
0.0307709
0.0304428
0.0301296
0.0297354
0.0641852
0.0608379
0.0583431
0.0557221
0.0537978
0.0517135
0.0502133
0.0485374
0.0473602
0.0460021
0.0450759
0.0439692
0.0432404
0.0423354
0.0417632
0.0410209
0.040573
0.0399624
0.0396126
0.039108
0.0388343
0.0384138
0.038197
0.0378415
0.0376644
0.0373563
0.0372027
0.0369256
0.03678
0.0365178
0.0363646
0.0361014
0.0359247
0.0356438
0.0354268
0.0351107
0.0348356
0.0344655
0.0341124
0.0336677
0.0715104
0.0677826
0.0650046
0.062086
0.0599436
0.0576229
0.0559528
0.0540871
0.052777
0.0512652
0.0502346
0.049003
0.0481923
0.0471853
0.046549
0.0457232
0.0452254
0.0445463
0.0441577
0.0435967
0.0432928
0.0428255
0.042585
0.04219
0.0419937
0.0416515
0.0414814
0.0411737
0.0410124
0.0407213
0.0405516
0.0402593
0.0400634
0.0397514
0.0395106
0.0391594
0.0388538
0.0384424
0.03805
0.0375555
0.0787965
0.0746897
0.0716294
0.0684143
0.0660544
0.0634981
0.0616587
0.0596037
0.0581609
0.0564958
0.055361
0.0540047
0.0531122
0.0520033
0.0513029
0.0503937
0.0498458
0.0490982
0.0486707
0.0480532
0.0477191
0.0472048
0.0469404
0.0465058
0.0462901
0.0459137
0.0457269
0.0453885
0.0452114
0.0448914
0.044705
0.0443836
0.0441684
0.0438253
0.0435607
0.0431745
0.0428385
0.042386
0.0419545
0.0414106
0.0859606
0.0814817
0.0781444
0.0746382
0.0720649
0.0692774
0.0672719
0.0650312
0.0634584
0.0616431
0.0604062
0.0589277
0.057955
0.0567464
0.0559833
0.0549925
0.0543958
0.0535812
0.0531158
0.052443
0.0520794
0.0515193
0.0512318
0.0507586
0.0505241
0.0501144
0.0499113
0.049543
0.0493506
0.0490023
0.0487998
0.0484499
0.048216
0.0478425
0.0475546
0.0471341
0.0467683
0.0462755
0.0458055
0.0452129
0.0930701
0.0882213
0.0846085
0.0808129
0.0780274
0.07501
0.0728393
0.0704139
0.0687115
0.0667467
0.0654081
0.0638079
0.0627553
0.0614473
0.0606216
0.0595494
0.0589039
0.0580224
0.0575191
0.0567912
0.056398
0.0557921
0.0554813
0.0549694
0.0547161
0.0542729
0.0540536
0.0536553
0.0534475
0.0530709
0.0528521
0.0524739
0.0522211
0.0518173
0.0515062
0.0510515
0.050656
0.0501231
0.049615
0.0489741
0.100042
0.0948313
0.0909489
0.08687
0.0838769
0.0806345
0.0783021
0.075696
0.0738671
0.0717561
0.070318
0.0685989
0.0674684
0.0660633
0.0651766
0.0640249
0.0633319
0.0623852
0.061845
0.0610634
0.0606415
0.059991
0.0596577
0.0591082
0.0588365
0.0583609
0.0581259
0.0576985
0.0574758
0.0570716
0.0568371
0.0564313
0.0561602
0.0557268
0.055393
0.0549049
0.0544805
0.0539084
0.0533628
0.0526745
0.106945
0.101375
0.0972247
0.0928649
0.0896656
0.0862
0.0837071
0.0809217
0.078967
0.0767108
0.075174
0.0733367
0.0721287
0.070627
0.0696796
0.0684489
0.0677084
0.0666969
0.0661197
0.0652846
0.064834
0.064139
0.0637831
0.0631961
0.0629061
0.062398
0.0621471
0.0616906
0.061453
0.0610214
0.0607711
0.0603377
0.0600483
0.0595855
0.0592291
0.0587079
0.0582547
0.0576436
0.0570609
0.0563259
0.113695
0.107774
0.103363
0.0987293
0.095329
0.0916455
0.0889961
0.0860357
0.0839585
0.0815607
0.0799277
0.0779753
0.0766917
0.0750961
0.0740896
0.072782
0.0719955
0.0709208
0.0703079
0.0694208
0.0689425
0.0682042
0.0678265
0.0672031
0.0668954
0.066356
0.0660898
0.0656051
0.0653531
0.0648948
0.0646293
0.0641691
0.063862
0.0633706
0.0629923
0.0624387
0.0619575
0.0613084
0.0606895
0.0599086
0.120361
0.114093
0.109424
0.104519
0.100919
0.0970201
0.0942158
0.0910822
0.0888835
0.0863455
0.0846171
0.0825505
0.0811921
0.0795032
0.078438
0.0770541
0.0762218
0.0750845
0.0744359
0.0734971
0.072991
0.0722098
0.0718102
0.0711506
0.0708252
0.0702544
0.069973
0.0694602
0.0691936
0.0687088
0.0684281
0.0679413
0.0676165
0.0670966
0.0666966
0.0661109
0.0656019
0.0649153
0.0642606
0.0634345
0.126861
0.120255
0.115335
0.110165
0.106372
0.102263
0.0993082
0.0960062
0.0936895
0.0910152
0.0891942
0.0870167
0.0855856
0.0838062
0.0826842
0.0812261
0.0803496
0.0791514
0.0784685
0.0774796
0.0769468
0.076124
0.0757034
0.0750087
0.0746663
0.0740652
0.0737692
0.0732292
0.0729488
0.0724384
0.072143
0.0716304
0.0712886
0.0707411
0.07032
0.0697032
0.0691672
0.068444
0.0677544
0.0668841
0.133262
0.126323
0.121155
0.115724
0.11174
0.107424
0.10432
0.100852
0.0984186
0.0956096
0.0936969
0.0914099
0.0899068
0.0880379
0.0868595
0.0853282
0.0844076
0.0831493
0.0824321
0.0813936
0.0808341
0.07997
0.0795284
0.078799
0.0784395
0.0778083
0.0774976
0.0769306
0.0766363
0.0761004
0.0757904
0.0752522
0.0748935
0.0743187
0.0738766
0.0732291
0.0726664
0.0719071
0.0711832
0.0702695
0.139483
0.132221
0.126812
0.121129
0.116959
0.112442
0.109194
0.105565
0.103019
0.100079
0.0980777
0.0956845
0.0941119
0.0921563
0.0909236
0.0893213
0.0883584
0.0870419
0.0862918
0.0852053
0.0846203
0.0837164
0.0832547
0.0824917
0.0821159
0.0814558
0.081131
0.0805381
0.0802305
0.0796701
0.079346
0.0787832
0.0784082
0.077807
0.0773447
0.0766674
0.0760789
0.0752846
0.0745273
0.0735714
0.145591
0.138012
0.132366
0.126434
0.122082
0.117368
0.113977
0.110189
0.107531
0.104463
0.102375
0.0998769
0.0982355
0.0961946
0.094908
0.0932358
0.0922308
0.0908569
0.0900741
0.0889402
0.0883297
0.0873865
0.0869047
0.0861085
0.0857165
0.0850276
0.0846888
0.0840701
0.0837493
0.0831645
0.0828265
0.0822392
0.081848
0.0812208
0.0807386
0.0800319
0.0794179
0.0785892
0.0777992
0.0768018
0.151507
0.14362
0.137745
0.131573
0.127045
0.12214
0.118612
0.11467
0.111906
0.108713
0.10654
0.103942
0.102234
0.100111
0.0987726
0.0970329
0.0959877
0.0945584
0.0937444
0.0925649
0.0919301
0.090949
0.0904482
0.08962
0.0892125
0.0884962
0.088144
0.0875006
0.0871672
0.086559
0.0862077
0.085597
0.0851903
0.084538
0.0840366
0.0833016
0.0826631
0.081801
0.0809793
0.0799418
0.157297
0.149109
0.14301
0.136602
0.131901
0.126808
0.123146
0.119054
0.116183
0.112869
0.110613
0.107915
0.106143
0.103938
0.102549
0.100743
0.099658
0.0981743
0.0973293
0.0961049
0.0954459
0.0944275
0.0939076
0.093048
0.0926251
0.0918815
0.091516
0.0908482
0.0905021
0.089871
0.0895064
0.0888725
0.0884505
0.0877735
0.0872532
0.0864903
0.0858277
0.0849331
0.0840802
0.0830035
0.162882
0.154404
0.148088
0.141453
0.136586
0.131313
0.127522
0.123285
0.120313
0.116882
0.114546
0.111753