/*--------------------------------*- C++ -*----------------------------------*\
| =========                 |                                                 |
| \\      /  F ield         | foam-extend: Open Source CFD                    |
|  \\    /   O peration     | Version:  3.0                                   |
|   \\  /    A nd           | Web:         http://www.extend-project.de       |
|    \\/     M anipulation  |                                                 |
\*---------------------------------------------------------------------------*/
FoamFile
{
    version     2.0;
    format      ascii;
    class       volScalarField;
    location    "23";
    object      p;
}
// * * * * * * * * * * * * * * * * * * * * * * * * * * * * * * * * * * * * * //

dimensions      [0 0 0 0 0 0 0];

internalField   nonuniform List<scalar> 
7680
(
-0.235645
-0.223537
-0.214543
-0.205092
-0.198186
-0.190698
-0.185343
-0.179349
-0.175177
-0.170346
-0.167093
-0.163183
-0.160654
-0.157482
-0.155526
-0.15295
-0.151451
-0.149357
-0.148218
-0.146512
-0.145652
-0.144254
-0.143603
-0.142442
-0.141935
-0.140946
-0.140524
-0.139647
-0.139252
-0.138425
-0.137999
-0.137162
-0.136644
-0.135735
-0.135062
-0.134012
-0.133114
-0.131851
-0.130652
-0.129095
-0.235416
-0.22332
-0.214336
-0.204894
-0.197994
-0.190514
-0.185164
-0.179176
-0.175009
-0.170183
-0.166933
-0.163027
-0.1605
-0.157332
-0.155378
-0.152805
-0.151308
-0.149216
-0.148078
-0.146375
-0.145515
-0.144119
-0.143469
-0.142309
-0.141803
-0.140816
-0.140395
-0.139518
-0.139124
-0.138298
-0.137872
-0.137036
-0.136519
-0.135611
-0.134938
-0.133889
-0.132992
-0.13173
-0.130531
-0.128975
-0.234898
-0.222829
-0.213865
-0.204445
-0.197562
-0.190098
-0.184762
-0.178788
-0.17463
-0.169815
-0.166573
-0.162676
-0.160156
-0.156995
-0.155046
-0.15248
-0.150986
-0.1489
-0.147765
-0.146065
-0.145209
-0.143816
-0.143168
-0.142011
-0.141507
-0.140522
-0.140102
-0.139228
-0.138835
-0.138012
-0.137587
-0.136754
-0.136238
-0.135331
-0.13466
-0.133613
-0.132718
-0.131458
-0.130262
-0.128709
-0.234165
-0.222134
-0.213199
-0.203808
-0.196946
-0.189506
-0.184186
-0.178231
-0.174087
-0.169287
-0.166056
-0.162171
-0.159659
-0.156508
-0.154565
-0.152007
-0.150518
-0.148439
-0.147307
-0.145614
-0.14476
-0.143372
-0.142726
-0.141573
-0.14107
-0.140089
-0.139671
-0.138799
-0.138408
-0.137587
-0.137164
-0.136333
-0.135819
-0.134915
-0.134246
-0.133202
-0.13231
-0.131054
-0.129861
-0.128312
-0.233144
-0.221167
-0.212271
-0.202922
-0.196091
-0.188684
-0.183388
-0.17746
-0.173334
-0.168556
-0.165339
-0.161472
-0.158971
-0.155834
-0.153901
-0.151354
-0.149872
-0.147803
-0.146677
-0.144991
-0.144142
-0.14276
-0.142117
-0.14097
-0.14047
-0.139494
-0.139078
-0.13821
-0.137821
-0.137004
-0.136583
-0.135756
-0.135244
-0.134344
-0.133678
-0.132639
-0.131751
-0.1305
-0.129313
-0.12777
-0.23191
-0.219997
-0.211148
-0.201849
-0.195054
-0.187687
-0.182419
-0.176522
-0.172418
-0.167666
-0.164466
-0.16062
-0.158132
-0.155012
-0.153089
-0.150556
-0.149082
-0.147024
-0.145904
-0.144228
-0.143383
-0.142009
-0.141369
-0.140228
-0.139731
-0.13876
-0.138346
-0.137484
-0.137096
-0.136283
-0.135865
-0.135042
-0.134533
-0.133638
-0.132976
-0.131942
-0.131058
-0.129814
-0.128633
-0.127099
-0.230391
-0.218557
-0.209767
-0.200529
-0.19378
-0.186461
-0.181229
-0.175371
-0.171294
-0.166574
-0.163396
-0.159575
-0.157104
-0.154005
-0.152096
-0.14958
-0.148116
-0.146071
-0.14496
-0.143294
-0.142455
-0.141091
-0.140456
-0.139323
-0.13883
-0.137865
-0.137454
-0.136598
-0.136213
-0.135406
-0.13499
-0.134173
-0.133668
-0.132779
-0.132121
-0.131094
-0.130216
-0.12898
-0.127807
-0.126283
-0.228663
-0.216917
-0.208194
-0.199025
-0.192326
-0.185063
-0.17987
-0.174056
-0.17001
-0.165325
-0.162171
-0.158379
-0.155927
-0.152852
-0.150957
-0.14846
-0.147007
-0.144978
-0.143874
-0.142222
-0.141389
-0.140035
-0.139405
-0.138281
-0.137791
-0.136833
-0.136426
-0.135576
-0.135194
-0.134393
-0.13398
-0.133169
-0.132668
-0.131785
-0.131132
-0.130113
-0.129242
-0.128016
-0.126852
-0.12534
-0.226652
-0.21501
-0.206364
-0.197277
-0.190638
-0.183439
-0.178292
-0.17253
-0.168521
-0.163877
-0.160751
-0.156994
-0.154564
-0.151516
-0.149638
-0.147163
-0.145724
-0.143713
-0.142619
-0.140982
-0.140157
-0.138815
-0.138191
-0.137077
-0.136592
-0.135643
-0.135239
-0.134397
-0.134019
-0.133225
-0.132816
-0.132013
-0.131515
-0.130641
-0.129994
-0.128984
-0.12812
-0.126905
-0.125752
-0.124254
-0.224435
-0.212908
-0.204347
-0.195349
-0.188774
-0.181646
-0.176549
-0.170844
-0.166874
-0.162276
-0.159181
-0.15546
-0.153053
-0.150035
-0.148176
-0.145725
-0.1443
-0.142309
-0.141227
-0.139605
-0.138788
-0.13746
-0.136841
-0.135738
-0.135258
-0.134318
-0.133919
-0.133085
-0.13271
-0.131924
-0.131519
-0.130723
-0.130231
-0.129365
-0.128724
-0.127725
-0.126869
-0.125667
-0.124525
-0.123043
-0.221941
-0.210543
-0.202077
-0.19318
-0.186679
-0.179631
-0.174592
-0.16895
-0.165025
-0.160478
-0.157418
-0.153739
-0.15136
-0.148376
-0.146537
-0.144115
-0.142706
-0.140737
-0.139667
-0.138064
-0.137256
-0.135943
-0.135332
-0.134241
-0.133766
-0.132838
-0.132443
-0.131618
-0.131248
-0.130471
-0.13007
-0.129283
-0.128797
-0.127941
-0.127307
-0.126319
-0.125474
-0.124285
-0.123156
-0.121691
-0.219247
-0.207987
-0.199624
-0.190835
-0.184413
-0.177451
-0.172472
-0.1669
-0.163022
-0.158531
-0.155508
-0.151873
-0.149523
-0.146575
-0.144759
-0.142366
-0.140974
-0.139029
-0.137972
-0.136389
-0.135591
-0.134294
-0.13369
-0.132613
-0.132143
-0.131226
-0.130835
-0.130021
-0.129655
-0.128887
-0.128492
-0.127714
-0.127233
-0.126388
-0.125762
-0.124786
-0.123951
-0.122777
-0.121663
-0.120217
-0.21628
-0.205173
-0.196924
-0.188255
-0.181921
-0.175053
-0.170142
-0.164646
-0.160821
-0.156391
-0.153409
-0.149824
-0.147507
-0.144599
-0.142808
-0.140448
-0.139075
-0.137157
-0.136114
-0.134552
-0.133766
-0.132486
-0.131891
-0.130829
-0.130366
-0.129461
-0.129076
-0.128273
-0.127912
-0.127155
-0.126765
-0.125998
-0.125524
-0.12469
-0.124073
-0.12311
-0.122287
-0.12113
-0.120031
-0.118606
-0.213119
-0.202175
-0.194046
-0.185504
-0.179262
-0.172495
-0.167656
-0.16224
-0.158471
-0.154106
-0.151167
-0.147635
-0.145351
-0.142486
-0.140721
-0.138395
-0.137043
-0.135153
-0.134126
-0.132586
-0.131811
-0.13055
-0.129964
-0.128917
-0.128461
-0.127569
-0.127189
-0.126398
-0.126042
-0.125296
-0.124912
-0.124156
-0.123689
-0.122867
-0.122259
-0.121311
-0.1205
-0.11936
-0.118278
-0.116875
-0.209692
-0.198925
-0.190928
-0.182523
-0.176382
-0.169724
-0.164964
-0.159635
-0.155927
-0.151633
-0.148742
-0.145267
-0.14302
-0.140202
-0.138466
-0.136178
-0.134847
-0.132988
-0.131977
-0.130463
-0.129701
-0.128461
-0.127884
-0.126854
-0.126405
-0.125528
-0.125155
-0.124376
-0.124026
-0.123292
-0.122914
-0.122171
-0.121711
-0.120903
-0.120305
-0.119373
-0.118575
-0.117454
-0.11639
-0.115011
-0.206078
-0.195496
-0.187637
-0.179377
-0.173342
-0.166799
-0.162121
-0.156884
-0.15324
-0.14902
-0.146179
-0.142764
-0.140556
-0.137786
-0.13608
-0.133831
-0.132523
-0.130696
-0.129703
-0.128215
-0.127466
-0.126246
-0.125679
-0.124667
-0.124226
-0.123364
-0.122997
-0.122231
-0.121888
-0.121166
-0.120794
-0.120064
-0.119612
-0.118818
-0.118231
-0.117315
-0.116531
-0.11543
-0.114386
-0.113031
-0.202206
-0.191824
-0.184113
-0.176009
-0.170088
-0.163668
-0.159078
-0.15394
-0.150365
-0.146224
-0.143438
-0.140087
-0.137921
-0.135203
-0.133529
-0.131323
-0.130041
-0.128248
-0.127274
-0.125814
-0.125079
-0.123883
-0.123327
-0.122334
-0.121901
-0.121055
-0.120696
-0.119945
-0.119607
-0.1189
-0.118535
-0.117819
-0.117375
-0.116597
-0.11602
-0.115122
-0.114354
-0.113274
-0.11225
-0.110921
-0.198155
-0.18798
-0.180424
-0.172482
-0.16668
-0.160389
-0.155891
-0.150856
-0.147352
-0.143295
-0.140564
-0.13728
-0.135157
-0.132494
-0.130854
-0.128692
-0.127435
-0.125678
-0.124723
-0.123293
-0.122572
-0.1214
-0.120855
-0.119882
-0.119458
-0.118629
-0.118276
-0.11754
-0.117209
-0.116516
-0.116158
-0.115456
-0.115022
-0.114259
-0.113694
-0.112814
-0.112062
-0.111005
-0.110001
-0.108701
-0.193854
-0.183901
-0.176509
-0.16874
-0.163064
-0.15691
-0.152511
-0.147585
-0.144158
-0.140189
-0.137518
-0.134306
-0.132229
-0.129625
-0.12802
-0.125905
-0.124676
-0.122958
-0.122024
-0.120624
-0.11992
-0.118774
-0.11824
-0.117288
-0.116874
-0.116063
-0.115718
-0.114998
-0.114675
-0.113996
-0.113647
-0.112961
-0.112536
-0.11179
-0.111237
-0.110377
-0.109641
-0.108608
-0.107627
-0.106355
-0.189382
-0.179659
-0.172438
-0.164848
-0.159303
-0.153291
-0.148993
-0.144181
-0.140833
-0.136955
-0.134346
-0.131208
-0.129179
-0.126634
-0.125067
-0.123001
-0.1218
-0.120121
-0.119209
-0.117841
-0.117153
-0.116033
-0.115512
-0.114582
-0.114177
-0.113384
-0.113047
-0.112344
-0.112028
-0.111365
-0.111024
-0.110353
-0.109938
-0.109209
-0.10867
-0.10783
-0.107111
-0.106102
-0.105145
-0.103904
-0.184671
-0.17519
-0.168149
-0.160748
-0.155342
-0.14948
-0.145289
-0.140597
-0.137333
-0.133553
-0.131008
-0.127949
-0.125971
-0.12349
-0.121962
-0.119947
-0.118776
-0.117139
-0.11625
-0.114917
-0.114246
-0.113154
-0.112646
-0.111739
-0.111345
-0.110572
-0.110244
-0.109558
-0.10925
-0.108604
-0.108271
-0.107618
-0.107213
-0.106503
-0.105977
-0.105158
-0.104458
-0.103475
-0.102542
-0.101333
-0.179799
-0.170568
-0.163712
-0.156507
-0.151244
-0.145536
-0.141456
-0.136888
-0.13371
-0.130029
-0.127551
-0.124573
-0.122647
-0.120231
-0.118743
-0.116782
-0.115642
-0.114048
-0.113182
-0.111884
-0.111231
-0.110168
-0.109673
-0.10879
-0.108405
-0.107653
-0.107333
-0.106666
-0.106366
-0.105737
-0.105413
-0.104776
-0.104383
-0.103691
-0.10318
-0.102383
-0.101701
-0.100745
-0.0998367
-0.0986603
-0.174697
-0.165729
-0.159068
-0.152068
-0.146954
-0.141409
-0.137445
-0.133007
-0.129919
-0.126343
-0.123937
-0.121043
-0.119172
-0.116825
-0.11538
-0.113475
-0.112367
-0.110819
-0.109978
-0.108717
-0.108082
-0.107049
-0.106569
-0.105711
-0.105338
-0.104607
-0.104296
-0.103648
-0.103357
-0.102746
-0.102431
-0.101813
-0.101431
-0.100759
-0.100262
-0.0994888
-0.0988271
-0.0978982
-0.0970165
-0.0958742
-0.169445
-0.160746
-0.154286
-0.147496
-0.142536
-0.137158
-0.133313
-0.129008
-0.126013
-0.122545
-0.12021
-0.117404
-0.115589
-0.113313
-0.111911
-0.110063
-0.108988
-0.107486
-0.10667
-0.105447
-0.104832
-0.10383
-0.103364
-0.102532
-0.102169
-0.101461
-0.101159
-0.10053
-0.100247
-0.0996548
-0.0993496
-0.0987502
-0.0983795
-0.0977284
-0.0972468
-0.0964967
-0.0958553
-0.0949548
-0.0941002
-0.092993
-0.163975
-0.155557
-0.149306
-0.142736
-0.137936
-0.132732
-0.129012
-0.124846
-0.121949
-0.118592
-0.116334
-0.113618
-0.111862
-0.10966
-0.108303
-0.106515
-0.105476
-0.104023
-0.103233
-0.10205
-0.101455
-0.100485
-0.100034
-0.0992295
-0.098879
-0.0981935
-0.0979017
-0.0972932
-0.0970199
-0.0964467
-0.0961516
-0.0955718
-0.0952133
-0.0945836
-0.0941179
-0.0933924
-0.0927721
-0.0919013
-0.0910748
-0.0900041
-0.158366
-0.150236
-0.144199
-0.137853
-0.133218
-0.128192
-0.124598
-0.120576
-0.117777
-0.114535
-0.112354
-0.109731
-0.108035
-0.105908
-0.104598
-0.102871
-0.101867
-0.100464
-0.0997012
-0.0985584
-0.097983
-0.0970467
-0.0966111
-0.0958337
-0.095495
-0.0948329
-0.0945511
-0.0939633
-0.0936993
-0.0931457
-0.0928607
-0.0923008
-0.0919546
-0.0913467
-0.090897
-0.0901967
-0.089598
-0.0887574
-0.0879598
-0.0869264
-0.15255
-0.144719
-0.138904
-0.132792
-0.128328
-0.123486
-0.120025
-0.116151
-0.113455
-0.110333
-0.108232
-0.105706
-0.104073
-0.102024
-0.100762
-0.0990992
-0.0981323
-0.0967809
-0.0960466
-0.0949461
-0.0943921
-0.0934904
-0.093071
-0.0923224
-0.0919964
-0.0913588
-0.0910875
-0.0905215
-0.0902675
-0.0897345
-0.0894601
-0.0889211
-0.0885879
-0.0880027
-0.0875698
-0.0868957
-0.0863194
-0.0855102
-0.0847423
-0.0837475
-0.146608
-0.139082
-0.133494
-0.12762
-0.123329
-0.118676
-0.11535
-0.111626
-0.109036
-0.106035
-0.104016
-0.101588
-0.100019
-0.0980497
-0.096837
-0.0952384
-0.0943091
-0.0930102
-0.0923045
-0.0912467
-0.0907143
-0.0898476
-0.0894445
-0.0887249
-0.0884115
-0.0877987
-0.0875379
-0.086994
-0.0867498
-0.0862375
-0.0859739
-0.085456
-0.0851359
-0.0845736
-0.0841578
-0.0835102
-0.0829567
-0.0821794
-0.081442
-0.0804866
-0.140472
-0.133262
-0.127907
-0.12228
-0.118169
-0.113711
-0.110525
-0.106957
-0.104476
-0.101601
-0.0996669
-0.0973409
-0.0958375
-0.0939513
-0.0927897
-0.0912584
-0.0903682
-0.089124
-0.0884481
-0.0874349
-0.0869249
-0.0860948
-0.0857088
-0.0850196
-0.0847195
-0.0841327
-0.083883
-0.0833621
-0.0831283
-0.0826378
-0.0823854
-0.0818895
-0.0815831
-0.0810447
-0.0806466
-0.0800265
-0.0794966
-0.0787524
-0.0780463
-0.0771314
-0.134223
-0.127333
-0.122217
-0.11684
-0.112911
-0.108652
-0.105607
-0.102199
-0.0998274
-0.0970807
-0.0952324
-0.0930099
-0.0915733
-0.0897709
-0.088661
-0.0871977
-0.0863472
-0.0851582
-0.0845123
-0.0835441
-0.0830568
-0.0822635
-0.0818946
-0.081236
-0.0809492
-0.0803884
-0.0801498
-0.0796521
-0.0794287
-0.07896
-0.0787189
-0.0782452
-0.0779525
-0.0774382
-0.0770581
-0.0764659
-0.0759598
-0.0752491
-0.0745749
-0.0737013
-0.127792
-0.121233
-0.116362
-0.111243
-0.107504
-0.103449
-0.100551
-0.0973057
-0.0950484
-0.0924337
-0.0906744
-0.0885587
-0.0871914
-0.0854757
-0.0844192
-0.0830264
-0.0822169
-0.0810852
-0.0804706
-0.079549
-0.0790853
-0.0783304
-0.0779794
-0.0773526
-0.0770798
-0.0765462
-0.0763192
-0.0758456
-0.0756332
-0.0751873
-0.074958
-0.0745073
-0.0742289
-0.0737396
-0.073378
-0.0728146
-0.0723331
-0.071657
-0.0710155
-0.0701843
-0.121262
-0.115038
-0.110416
-0.105559
-0.10201
-0.0981628
-0.0954125
-0.0923333
-0.0901913
-0.0877102
-0.0860408
-0.0840332
-0.0827357
-0.0811076
-0.0801051
-0.0787835
-0.0780153
-0.0769414
-0.0763581
-0.0754836
-0.0750435
-0.0743271
-0.073994
-0.0733992
-0.0731403
-0.0726339
-0.0724185
-0.0719691
-0.0717676
-0.0713445
-0.071127
-0.0706994
-0.0704354
-0.0699713
-0.0696284
-0.0690941
-0.0686375
-0.0679963
-0.067388
-0.0665998
-0.114565
-0.108685
-0.104319
-0.0997304
-0.0963785
-0.0927438
-0.0901458
-0.0872372
-0.0852139
-0.0828703
-0.0812934
-0.0793972
-0.0781717
-0.0766339
-0.0756871
-0.0744388
-0.0737134
-0.0726992
-0.0721484
-0.0713225
-0.070907
-0.0702305
-0.0699161
-0.0693544
-0.0691101
-0.068632
-0.0684287
-0.0680045
-0.0678143
-0.0674149
-0.0672097
-0.0668061
-0.0665569
-0.0661189
-0.0657952
-0.0652908
-0.0648599
-0.0642545
-0.0636803
-0.0629361
-0.107783
-0.102251
-0.0981433
-0.0938261
-0.0906726
-0.0872531
-0.0848089
-0.0820725
-0.080169
-0.0779641
-0.0764806
-0.0746966
-0.0735436
-0.0720969
-0.0712062
-0.0700318
-0.0693493
-0.0683951
-0.0678769
-0.0670999
-0.066709
-0.0660725
-0.0657766
-0.0652482
-0.0650184
-0.0645685
-0.0643774
-0.0639783
-0.0637994
-0.0634237
-0.0632308
-0.0628511
-0.0626169
-0.062205
-0.0619007
-0.0614264
-0.0610213
-0.0604522
-0.0599123
-0.0592127
-0.100847
-0.0956721
-0.0918292
-0.0877903
-0.0848403
-0.0816413
-0.0793549
-0.076795
-0.0750144
-0.0729519
-0.0715643
-0.0698955
-0.0688172
-0.0674639
-0.0666309
-0.0655324
-0.0648942
-0.0640018
-0.0635173
-0.0627906
-0.0624252
-0.06183
-0.0615535
-0.0610594
-0.0608446
-0.0604241
-0.0602455
-0.0598724
-0.0597053
-0.0593542
-0.0591739
-0.0588191
-0.0586002
-0.0582152
-0.0579309
-0.0574875
-0.0571089
-0.0565768
-0.0560722
-0.0554181
-0.0938417
-0.0890257
-0.0854499
-0.0816916
-0.0789465
-0.0759697
-0.0738422
-0.0714602
-0.0698034
-0.0678842
-0.066593
-0.0650402
-0.0640368
-0.0627776
-0.0620024
-0.0609803
-0.0603864
-0.059556
-0.0591052
-0.058429
-0.058089
-0.0575351
-0.0572779
-0.0568181
-0.0566183
-0.056227
-0.0560609
-0.0557137
-0.0555584
-0.0552317
-0.0550641
-0.0547341
-0.0545306
-0.0541725
-0.0539082
-0.0534959
-0.0531439
-0.0526492
-0.05218
-0.0515719
-0.0866979
-0.0822491
-0.078946
-0.0754744
-0.0729388
-0.0701892
-0.0682241
-0.066024
-0.0644938
-0.0627212
-0.0615288
-0.0600946
-0.059168
-0.0580052
-0.0572895
-0.0563456
-0.0557973
-0.0550305
-0.0546144
-0.0539901
-0.0536763
-0.053165
-0.0529276
-0.0525033
-0.052319
-0.0519578
-0.0518047
-0.0514843
-0.0513411
-0.0510397
-0.0508852
-0.0505806
-0.050393
-0.0500626
-0.0498188
-0.0494383
-0.0491135
-0.048657
-0.048224
-0.0476627
-0.0794988
-0.0754194
-0.0723907
-0.0692073
-0.0668824
-0.0643612
-0.0625594
-0.060542
-0.059139
-0.0575137
-0.0564203
-0.0551054
-0.0542558
-0.0531896
-0.0525333
-0.0516679
-0.0511652
-0.0504622
-0.0500806
-0.0495082
-0.0492206
-0.0487518
-0.0485342
-0.0481451
-0.0479762
-0.0476451
-0.0475048
-0.0472111
-0.0470799
-0.0468036
-0.0466621
-0.0463831
-0.0462112
-0.0459085
-0.0456852
-0.0453367
-0.0450392
-0.044621
-0.0442244
-0.0437102
-0.072177
-0.068474
-0.0657248
-0.0628352
-0.060725
-0.0584366
-0.0568014
-0.0549703
-0.0536971
-0.052222
-0.0512299
-0.0500366
-0.0492658
-0.0482982
-0.0477029
-0.0469176
-0.0464617
-0.0458239
-0.0454779
-0.0449587
-0.0446979
-0.0442727
-0.0440755
-0.0437227
-0.0435697
-0.0432695
-0.0431425
-0.0428763
-0.0427575
-0.0425071
-0.042379
-0.042126
-0.0419704
-0.041696
-0.0414937
-0.0411778
-0.0409081
-0.040529
-0.0401694
-0.0397032
-0.0648156
-0.0614903
-0.0590216
-0.0564269
-0.0545321
-0.0524772
-0.0510089
-0.0493648
-0.0482216
-0.0468971
-0.0460063
-0.0449349
-0.0442428
-0.0433741
-0.0428396
-0.0421346
-0.0417253
-0.0411526
-0.0408421
-0.0403759
-0.0401418
-0.0397601
-0.0395832
-0.0392665
-0.0391292
-0.0388598
-0.0387458
-0.0385069
-0.0384004
-0.0381757
-0.0380609
-0.037834
-0.0376945
-0.0374484
-0.037267
-0.0369837
-0.0367419
-0.036402
-0.0360796
-0.0356616
-0.0573471
-0.0544057
-0.0522222
-0.0499272
-0.0482514
-0.046434
-0.0451355
-0.0436815
-0.0426706
-0.0414994
-0.0407119
-0.0397645
-0.0391528
-0.0383847
-0.0379124
-0.0372892
-0.0369275
-0.0364214
-0.0361471
-0.0357352
-0.0355285
-0.0351913
-0.0350352
-0.0347555
-0.0346344
-0.0343965
-0.0342961
-0.0340852
-0.0339914
-0.0337931
-0.0336919
-0.0334916
-0.0333687
-0.0331514
-0.0329915
-0.0327413
-0.032528
-0.0322278
-0.0319432
-0.031574
-0.049855
-0.047298
-0.0454
-0.0434051
-0.0419485
-0.0403688
-0.0392402
-0.0379765
-0.037098
-0.03608
-0.0353956
-0.0345723
-0.0340407
-0.0333733
-0.0329629
-0.0324213
-0.0321071
-0.0316673
-0.0314291
-0.0310712
-0.0308917
-0.0305988
-0.0304633
-0.0302203
-0.0301153
-0.0299086
-0.0298216
-0.0296385
-0.0295571
-0.029385
-0.0292973
-0.0291236
-0.029017
-0.0288285
-0.0286898
-0.0284729
-0.0282879
-0.0280275
-0.0277807
-0.0274605
-0.0422718
-0.0401046
-0.0384962
-0.0368055
-0.0355713
-0.0342327
-0.0332766
-0.0322059
-0.0314618
-0.0305994
-0.0300199
-0.0293225
-0.0288725
-0.0283073
-0.02796
-0.0275015
-0.0272357
-0.0268634
-0.026662
-0.0263592
-0.0262076
-0.0259598
-0.0258455
-0.02564
-0.0255515
-0.0253769
-0.0253036
-0.0251489
-0.0250805
-0.0249351
-0.0248613
-0.0247145
-0.0246247
-0.0244655
-0.0243486
-0.0241653
-0.0240091
-0.0237891
-0.0235806
-0.0233099
-0.0346811
-0.0329035
-0.0315843
-0.0301977
-0.0291855
-0.0280878
-0.0273039
-0.0264259
-0.0258158
-0.0251088
-0.0246338
-0.0240621
-0.0236933
-0.02323
-0.0229455
-0.0225697
-0.022352
-0.022047
-0.0218821
-0.021634
-0.02151
-0.021307
-0.0212136
-0.0210454
-0.0209731
-0.0208302
-0.0207704
-0.0206438
-0.0205881
-0.0204692
-0.0204091
-0.0202892
-0.0202159
-0.0200859
-0.0199905
-0.0198408
-0.0197134
-0.0195337
-0.0193635
-0.0191424
-0.0270156
-0.025632
-0.0246055
-0.0235265
-0.0227392
-0.0218852
-0.0212756
-0.0205927
-0.0201185
-0.0195688
-0.0191997
-0.0187554
-0.018469
-0.0181091
-0.0178883
-0.0175965
-0.0174278
-0.017191
-0.0170634
-0.016871
-0.0167751
-0.0166178
-0.0165457
-0.0164155
-0.0163599
-0.0162493
-0.0162034
-0.0161056
-0.0160629
-0.0159711
-0.0159249
-0.0158323
-0.0157761
-0.0156756
-0.0156021
-0.0154865
-0.0153881
-0.0152492
-0.0151177
-0.0149467
-0.0193589
-0.0183682
-0.0176336
-0.0168613
-0.016298
-0.0156869
-0.015251
-0.0147626
-0.0144236
-0.0140306
-0.013767
-0.0134494
-0.013245
-0.0129878
-0.0128304
-0.012622
-0.0125019
-0.0123329
-0.0122421
-0.0121049
-0.0120369
-0.0119248
-0.0118738
-0.0117811
-0.0117419
-0.0116633
-0.0116311
-0.0115616
-0.0115317
-0.0114666
-0.0114343
-0.0113687
-0.0113292
-0.0112581
-0.0112064
-0.0111246
-0.0110552
-0.0109569
-0.010864
-0.010743
-0.0116438
-0.0110498
-0.0106097
-0.010147
-0.00980995
-0.00944422
-0.00918375
-0.00889172
-0.00868953
-0.0084548
-0.00829784
-0.00810843
-0.00798703
-0.0078339
-0.00774066
-0.00761679
-0.00754589
-0.00744568
-0.00739238
-0.00731119
-0.00727153
-0.00720541
-0.00717592
-0.00712142
-0.00709901
-0.00705298
-0.00703474
-0.00699423
-0.00697737
-0.00693951
-0.00692127
-0.00688318
-0.00686071
-0.00681944
-0.00678974
-0.00674217
-0.00670204
-0.0066448
-0.00659074
-0.00652013
-0.00395399
-0.00375465
-0.00360765
-0.003453
-0.00334102
-0.00321929
-0.00313324
-0.00303649
-0.00297016
-0.00289279
-0.00284171
-0.00277964
-0.00274053
-0.00269067
-0.00266102
-0.002621
-0.00259883
-0.00256674
-0.00255046
-0.00252474
-0.00251301
-0.00249235
-0.00248401
-0.00246725
-0.00246127
-0.00244739
-0.00244283
-0.00243085
-0.0024268
-0.00241581
-0.0024114
-0.00240049
-0.00239481
-0.00238305
-0.00237517
-0.00236159
-0.00235053
-0.0023341
-0.00231878
-0.00229838
0.00377769
0.00357957
0.00343132
0.00327569
0.00316092
0.00303679
0.00294698
0.00284691
0.00277619
0.0026949
0.00263907
0.00257269
0.00252862
0.00247424
0.00243954
0.00239488
0.00236765
0.00233087
0.00230956
0.00227913
0.00226243
0.00223705
0.00222379
0.00220227
0.0021914
0.00217268
0.00216318
0.0021462
0.0021371
0.00212084
0.00211111
0.0020945
0.0020831
0.00206504
0.00205082
0.00203012
0.00201186
0.0019872
0.00196354
0.00193349
0.0114676
0.0108747
0.0104333
0.00996965
0.00962984
0.00926169
0.00899745
0.00870208
0.00849551
0.00825684
0.00809512
0.00790139
0.00777502
0.00761736
0.00751906
0.00739055
0.00731458
0.00720966
0.00715134
0.00706542
0.00702079
0.00694994
0.00691554
0.00685627
0.00682896
0.00677809
0.00675491
0.0067094
0.00668749
0.00664435
0.0066208
0.00657703
0.00654883
0.00650127
0.00646525
0.00641056
0.00636325
0.00629779
0.00623541
0.00615516
0.0191828
0.0181933
0.0174573
0.016684
0.0161179
0.0155044
0.0150647
0.0145729
0.0142295
0.0138325
0.0135641
0.0132422
0.0130328
0.0127711
0.0126086
0.0123956
0.0122703
0.0120967
0.0120008
0.0118589
0.0117859
0.0116691
0.0116131
0.0115156
0.0114715
0.0113881
0.0113509
0.0112765
0.0112414
0.0111711
0.0111335
0.0110622
0.011017
0.0109397
0.0108816
0.0107927
0.0107162
0.0106097
0.0105085
0.0103779
0.0268397
0.0254572
0.0244293
0.0233492
0.022559
0.0217025
0.0210891
0.0204028
0.0199242
0.0193705
0.0189966
0.0185479
0.0182566
0.0178921
0.0176662
0.0173697
0.0171959
0.0169544
0.0168217
0.0166245
0.0165236
0.0163616
0.0162845
0.0161495
0.016089
0.0159735
0.0159227
0.0158199
0.0157721
0.015675
0.0156236
0.0155253
0.0154634
0.0153567
0.0152769
0.0151542
0.0150487
0.0149017
0.0147619
0.0145813
0.0345056
0.0327289
0.0314083
0.0300205
0.0290054
0.0279052
0.0271173
0.0262359
0.0256214
0.0249103
0.0244305
0.0238544
0.0234805
0.0230126
0.022723
0.0223425
0.0221197
0.0218099
0.0216399
0.021387
0.021258
0.0210502
0.0209518
0.0207787
0.0207015
0.0205538
0.020489
0.0203575
0.0202966
0.0201725
0.0201071
0.0199815
0.0199026
0.0197664
0.0196647
0.0195081
0.0193735
0.0191858
0.0190073
0.0187768
0.0420967
0.0399303
0.0383203
0.0366283
0.0353911
0.0340499
0.0330899
0.0320157
0.031267
0.0304006
0.0298162
0.0291143
0.0286593
0.0280894
0.0277369
0.0272736
0.0270027
0.0266256
0.0264191
0.0261114
0.0259548
0.0257022
0.0255828
0.0253726
0.0252791
0.0250996
0.0250213
0.0248616
0.0247881
0.0246375
0.0245584
0.0244061
0.0243106
0.0241453
0.0240221
0.0238319
0.0236687
0.0234406
0.023224
0.0229439
0.0496804
0.0471241
0.0452244
0.0432281
0.0417684
0.040186
0.0390534
0.0377861
0.036903
0.0358809
0.0351916
0.0343637
0.033827
0.0331549
0.0327393
0.0321929
0.0318735
0.0314288
0.0311854
0.0308226
0.0306381
0.0303403
0.0301997
0.0299519
0.0298419
0.0296304
0.0295383
0.0293502
0.0292638
0.0290865
0.0289935
0.0288142
0.028702
0.0285074
0.0283626
0.0281387
0.0279468
0.0276785
0.0274237
0.0270942
0.057173
0.054232
0.0520467
0.0497502
0.0480712
0.046251
0.0449484
0.0434908
0.0424753
0.0412998
0.0405073
0.0395554
0.0389385
0.0381657
0.0376881
0.03706
0.0366931
0.036182
0.0359025
0.0354857
0.0352739
0.0349317
0.0347706
0.034486
0.0343599
0.0341171
0.0340117
0.0337958
0.0336969
0.0334934
0.033387
0.0331812
0.0330526
0.0328293
0.0326632
0.0324063
0.0321861
0.0318781
0.0315855
0.0312071
0.0646423
0.0613172
0.0588465
0.0562501
0.054352
0.0522942
0.0508218
0.0491739
0.048026
0.0466972
0.0458014
0.0447253
0.044028
0.0431544
0.0426146
0.0419047
0.04149
0.0409124
0.0405965
0.0401254
0.0398861
0.0394995
0.0393174
0.0389958
0.0388535
0.0385791
0.0384601
0.0382162
0.0381047
0.0378748
0.0377547
0.0375223
0.0373773
0.0371252
0.0369378
0.0366478
0.0363993
0.0360516
0.0357214
0.0352943
0.0720043
0.0683012
0.0655499
0.0626585
0.0605449
0.0582535
0.056614
0.0547791
0.0535011
0.0520216
0.0510244
0.0498263
0.0490502
0.0480777
0.047477
0.0466868
0.0462255
0.0455826
0.0452313
0.044707
0.044441
0.0440108
0.0438084
0.0434507
0.0432926
0.0429875
0.0428553
0.0425841
0.0424603
0.0422047
0.0420714
0.041813
0.0416519
0.0413716
0.0411633
0.0408408
0.0405645
0.0401778
0.0398106
0.0393355
0.0793271
0.0752474
0.0722164
0.069031
0.0667025
0.0641781
0.062372
0.0603506
0.0589427
0.0573129
0.0562144
0.0548946
0.0540397
0.0529684
0.0523067
0.0514362
0.0509281
0.0502199
0.0498329
0.0492555
0.0489624
0.0484886
0.0482658
0.0478717
0.0476977
0.0473616
0.0472162
0.0469175
0.0467812
0.0464998
0.0463531
0.0460686
0.0458913
0.0455828
0.0453536
0.0449987
0.0446946
0.044269
0.043865
0.0433421
0.086527
0.0820776
0.078772
0.0752981
0.0727589
0.070006
0.0680365
0.0658322
0.0642971
0.0625199
0.0613222
0.0598832
0.0589511
0.0577832
0.0570619
0.0561128
0.055559
0.054787
0.0543654
0.0537359
0.0534168
0.0529003
0.0526577
0.0522283
0.0520388
0.0516727
0.0515144
0.051189
0.0510407
0.0507342
0.0505745
0.0502646
0.0500716
0.0497355
0.0494859
0.0490992
0.048768
0.0483042
0.0478639
0.0472942
0.093672
0.0888551
0.0852766
0.0815158
0.078767
0.0757867
0.0736546
0.0712684
0.0696065
0.0676826
0.066386
0.0648282
0.0638192
0.0625549
0.0617741
0.0607467
0.0601472
0.0593115
0.0588551
0.0581737
0.0578282
0.0572691
0.0570065
0.0565417
0.0563366
0.0559402
0.055769
0.0554168
0.0552563
0.0549246
0.0547518
0.0544165
0.0542078
0.0538441
0.0535741
0.0531557
0.0527974
0.0522957
0.0518194
0.0512031
0.100679
0.0955021
0.0916564
0.0876149
0.0846609
0.0814582
0.0791671
0.0766029
0.0748172
0.0727498
0.0713568
0.0696829
0.0685989
0.0672404
0.0664016
0.0652978
0.0646538
0.063756
0.0632658
0.0625339
0.0621629
0.0615624
0.0612805
0.0607812
0.0605612
0.0601355
0.0599518
0.0595736
0.0594015
0.0590453
0.0588599
0.0584999
0.0582758
0.0578853
0.0575954
0.0571461
0.0567614
0.0562226
0.055711
0.055049
0.107616
0.102082
0.0979714
0.0936513
0.0904937
0.0870703
0.0846214
0.0818804
0.0799717
0.0777619
0.0762728
0.0744835
0.0733248
0.0718727
0.0709762
0.0697963
0.0691079
0.0681483
0.0676243
0.0668419
0.0664453
0.0658035
0.0655021
0.0649685
0.0647332
0.0642783
0.0640819
0.0636777
0.0634938
0.0631131
0.062915
0.0625303
0.0622909
0.0618736
0.061564
0.0610839
0.0606729
0.0600973
0.0595508
0.0588436
0.114399
0.108517
0.104148
0.099556
0.0961998
0.0925611
0.0899582
0.0870449
0.0850163
0.0826676
0.0810851
0.0791835
0.0779521
0.0764089
0.0754562
0.0742023
0.0734709
0.0724511
0.0718945
0.0710631
0.0706419
0.0699599
0.0696399
0.0690729
0.0688232
0.0683399
0.0681314
0.067702
0.0675068
0.0671024
0.0668921
0.0664835
0.0662292
0.065786
0.0654571
0.0649471
0.0645105
0.0638989
0.0633184
0.0625669
0.121098
0.114872
0.110246
0.105385
0.101833
0.0979806
0.0952253
0.0921413
0.0899938
0.0875075
0.0858323
0.0838193
0.0825158
0.0808821
0.0798736
0.0785462
0.077772
0.0766924
0.0761031
0.075223
0.0747771
0.0740551
0.0737163
0.0731162
0.0728517
0.0723401
0.0721194
0.071665
0.0714582
0.0710302
0.0708077
0.0703752
0.0701061
0.069637
0.0692891
0.0687493
0.0682874
0.0676403
0.067026
0.0662309
0.127629
0.121068
0.116193
0.11107
0.107326
0.103267
0.100364
0.0971137
0.0948508
0.0922308
0.0904656
0.0883443
0.0869709
0.0852495
0.0841869
0.0827883
0.0819726
0.0808352
0.0802144
0.0792871
0.0788175
0.0780569
0.0777001
0.0770679
0.0767895
0.0762505
0.0760182
0.0755395
0.0753219
0.0748711
0.0746368
0.0741812
0.073898
0.0734038
0.0730373
0.0724688
0.0719822
0.0713005
0.0706533
0.0698157
0.134062
0.127169
0.122049
0.116668
0.112735
0.108471
0.105421
0.102007
0.0996301
0.096878
0.0950237
0.0927955
0.0913528
0.0895445
0.0884283
0.0869591
0.0861022
0.0849074
0.0842553
0.0832812
0.0827878
0.0819888
0.081614
0.0809498
0.0806573
0.0800912
0.0798471
0.0793443
0.0791157
0.0786421
0.0783961
0.0779176
0.0776201
0.0771012
0.0767163
0.0761193
0.0756083
0.0748924
0.0742129
0.0733334
0.140313
0.133099
0.12774
0.122109
0.117993
0.113531
0.110339
0.106766
0.104279
0.101398
0.099458
0.0971263
0.0956166
0.0937244
0.0925564
0.091019
0.0901225
0.0888723
0.08819
0.0871708
0.0866547
0.0858187
0.0854267
0.0847318
0.084426
0.0838337
0.0835785
0.0830525
0.0828135
0.0823181
0.0820608
0.0815602
0.0812491
0.0807062
0.0803037
0.079679
0.0791445
0.0783955
0.0776846
0.0767643
0.146451
0.138922
0.133328
0.12745
0.123154
0.118496
0.115165
0.111436
0.108839
0.105833
0.103808
0.101374
0.0997979
0.0978228
0.0966036
0.0949989
0.0940631
0.092758
0.0920458
0.090982
0.0904431
0.0895705
0.0891613
0.0884359
0.0881166
0.0874984
0.087232
0.0866829
0.0864334
0.0859163
0.0856478
0.0851253
0.0848006
0.0842341
0.083814
0.0831621
0.0826044
0.0818228
0.0810809
0.0801207
0.152395
0.14456
0.13874
0.132624
0.128154
0.123307
0.119841
0.115961
0.113259
0.110131
0.108024
0.105492
0.103852
0.101797
0.100529
0.0988593
0.0978858
0.0965281
0.0957872
0.0946804
0.09412
0.0932123
0.0927866
0.0920321
0.0917001
0.091057
0.09078
0.0902088
0.0899495
0.0894116
0.0891324
0.088589
0.0882513
0.087662
0.0872251
0.086547
0.0859668
0.0851538
0.084382
0.0833831
0.158214
0.150079
0.144037
0.137687
0.133046
0.128014
0.124415
0.120387
0.117582
0.114334
0.112147
0.109517
0.107815
0.105682
0.104365
0.102631
0.10162
0.100211
0.0994415
0.0982924
0.0977105
0.0967679
0.0963259
0.0955425
0.0951977
0.09453
0.0942424
0.0936494
0.09338
0.0928217
0.0925318
0.0919676
0.091617
0.0910052
0.0905517
0.0898479
0.0892456
0.0884017
0.0876007
0.0865638
0.163825
0.155402
0.149146
0.142571
0.137766
0.132556
0.128829
0.124658
0.121754
0.118392
0.116127
0.113405
0.111643