/*--------------------------------*- C++ -*----------------------------------*\
| =========                 |                                                 |
| \\      /  F ield         | foam-extend: Open Source CFD                    |
|  \\    /   O peration     | Version:  3.0                                   |
|   \\  /    A nd           | Web:         http://www.extend-project.de       |
|    \\/     M anipulation  |                                                 |
\*---------------------------------------------------------------------------*/
FoamFile
{
    version     2.0;
    format      ascii;
    class       volSymmTensorField;
    location    "23";
    object      sigma;
}
// * * * * * * * * * * * * * * * * * * * * * * * * * * * * * * * * * * * * * //

dimensions      [0 0 0 0 0 0 0];

internalField   nonuniform List<symmTensor> 
7680
(
(-0.179286 -0.00270597 3.79925e-22 0.179283 -1.11924e-21 3.12657e-06)
(-0.178632 -0.00309963 6.15322e-22 0.178624 -2.28931e-21 8.85306e-06)
(-0.175909 -0.0033518 1.12445e-22 0.175895 -5.63617e-21 1.42286e-05)
(-0.171804 -0.00350165 -4.3249e-22 0.171785 -6.29818e-21 1.92926e-05)
(-0.166794 -0.00357705 -6.02892e-22 0.16677 -5.85542e-21 2.40759e-05)
(-0.161211 -0.0035981 -1.3287e-21 0.161182 -3.73344e-21 2.86019e-05)
(-0.155287 -0.00357943 -1.09285e-21 0.155254 -2.38763e-21 3.28885e-05)
(-0.149187 -0.0035318 -1.49496e-21 0.14915 -1.28525e-21 3.69485e-05)
(-0.143027 -0.00346318 -1.5425e-21 0.142986 1.10806e-21 4.07912e-05)
(-0.136887 -0.00337951 -7.69197e-22 0.136843 -3.36032e-22 4.4422e-05)
(-0.130825 -0.00328528 -9.70182e-22 0.130777 -2.49928e-21 4.7844e-05)
(-0.124879 -0.00318384 -9.23625e-22 0.124828 -3.23103e-21 5.10572e-05)
(-0.119076 -0.00307775 -1.64714e-21 0.119022 -3.04042e-21 5.40599e-05)
(-0.113434 -0.00296894 -3.68797e-21 0.113377 1.8092e-22 5.68478e-05)
(-0.107964 -0.00285891 -7.6221e-21 0.107905 2.33593e-21 5.94154e-05)
(-0.102672 -0.00274876 -8.31444e-21 0.10261 4.14975e-21 6.17548e-05)
(-0.0975611 -0.00263938 -8.64526e-21 0.0974972 7.54015e-21 6.38571e-05)
(-0.0926323 -0.00253142 -9.81724e-21 0.0925666 1.04818e-20 6.57112e-05)
(-0.087885 -0.00242539 -1.32913e-20 0.0878177 1.20575e-20 6.73051e-05)
(-0.0833176 -0.00232169 -1.61265e-20 0.083249 1.29144e-20 6.86249e-05)
(-0.078928 -0.00222063 -2.29467e-20 0.0788583 1.20146e-20 6.96558e-05)
(-0.0747137 -0.00212245 -2.42189e-20 0.0746433 1.28623e-20 7.03811e-05)
(-0.0706723 -0.00202736 -2.47919e-20 0.0706015 1.50865e-20 7.07831e-05)
(-0.0668017 -0.00193552 -2.41719e-20 0.0667309 1.73249e-20 7.08426e-05)
(-0.0630999 -0.00184708 -2.39353e-20 0.0630294 1.82196e-20 7.05393e-05)
(-0.0595654 -0.00176218 -2.36106e-20 0.0594956 2.2469e-20 6.98513e-05)
(-0.0561972 -0.00168095 -2.14925e-20 0.0561284 2.55047e-20 6.87558e-05)
(-0.0529947 -0.00160352 -1.71294e-20 0.0529275 2.46229e-20 6.72283e-05)
(-0.0499581 -0.00153004 -1.77626e-20 0.0498929 2.08211e-20 6.52438e-05)
(-0.0470883 -0.00146067 -2.01056e-20 0.0470256 1.6815e-20 6.27751e-05)
(-0.0443867 -0.00139557 -1.96161e-20 0.0443269 1.36845e-20 5.97949e-05)
(-0.0418556 -0.00133494 -1.39485e-20 0.0417994 1.07907e-20 5.62739e-05)
(-0.039498 -0.001279 -5.61421e-21 0.0394458 7.42932e-21 5.21826e-05)
(-0.0373179 -0.00122798 -2.39926e-21 0.0372704 8.56703e-21 4.74894e-05)
(-0.0353198 -0.00118211 -1.12104e-20 0.0352776 9.05093e-21 4.21631e-05)
(-0.0335096 -0.00114159 -1.68297e-20 0.0334734 7.83875e-21 3.61701e-05)
(-0.0318938 -0.00110649 -1.65431e-20 0.0318644 3.17423e-21 2.94777e-05)
(-0.0304803 -0.00107656 -6.26145e-21 0.0304582 3.52524e-21 2.20508e-05)
(-0.0292774 -0.00105068 -3.72467e-21 0.0292635 8.98458e-22 1.3855e-05)
(-0.0282946 -0.00102581 -8.88145e-22 0.0282898 -1.4874e-21 4.85412e-06)
(-0.17915 -0.00812046 1.07819e-21 0.179146 -1.67475e-21 3.12026e-06)
(-0.178388 -0.00932806 1.51057e-21 0.178379 -2.90425e-21 8.83522e-06)
(-0.175587 -0.010109 6.98795e-22 0.175572 -6.0083e-21 1.41998e-05)
(-0.171427 -0.0105813 1.03137e-21 0.171407 -6.15863e-21 1.92533e-05)
(-0.166378 -0.0108292 1.93914e-21 0.166354 -6.27884e-21 2.40267e-05)
(-0.160769 -0.0109133 1.73568e-21 0.16074 -3.68332e-21 2.85432e-05)
(-0.154829 -0.0108775 1.42869e-21 0.154796 -2.37826e-21 3.28207e-05)
(-0.148719 -0.0107544 1.26349e-21 0.148683 -2.55645e-22 3.6872e-05)
(-0.142555 -0.0105679 9.75634e-22 0.142514 3.17613e-21 4.07063e-05)
(-0.136415 -0.0103361 -9.86486e-22 0.136371 1.03235e-21 4.4329e-05)
(-0.130356 -0.0100725 -1.60422e-21 0.130308 -2.04361e-21 4.77432e-05)
(-0.124415 -0.00978711 -8.08632e-22 0.124364 -2.07849e-21 5.0949e-05)
(-0.118619 -0.00948777 -7.59697e-22 0.118565 -2.61696e-22 5.39445e-05)
(-0.112985 -0.00918033 -2.29422e-21 0.112928 3.11807e-21 5.67257e-05)
(-0.107524 -0.00886925 -6.00789e-21 0.107465 7.36783e-21 5.92869e-05)
(-0.102241 -0.00855798 -6.57499e-21 0.102179 1.01557e-20 6.16204e-05)
(-0.09714 -0.00824914 -6.47926e-21 0.0970763 1.50397e-20 6.37171e-05)
(-0.0922212 -0.00794474 -5.77165e-21 0.0921557 1.36758e-20 6.55661e-05)
(-0.087484 -0.00764633 -9.64391e-21 0.0874168 1.51608e-20 6.71554e-05)
(-0.0829265 -0.00735512 -1.5574e-20 0.0828581 1.34512e-20 6.84712e-05)
(-0.0785467 -0.00707204 -2.31484e-20 0.0784772 1.37138e-20 6.94987e-05)
(-0.074342 -0.00679783 -2.27692e-20 0.0742718 1.45983e-20 7.02211e-05)
(-0.0703099 -0.00653307 -2.13352e-20 0.0702393 1.768e-20 7.06211e-05)
(-0.0664483 -0.00627825 -2.08074e-20 0.0663776 1.89362e-20 7.06792e-05)
(-0.0627551 -0.00603379 -2.43253e-20 0.0626847 2.54183e-20 7.03755e-05)
(-0.0592288 -0.00580003 -1.65245e-20 0.0591591 3.03478e-20 6.96879e-05)
(-0.0558683 -0.00557733 -1.50505e-20 0.0557997 3.38572e-20 6.85938e-05)
(-0.0526731 -0.00536601 -1.58323e-20 0.052606 2.91514e-20 6.70688e-05)
(-0.0496434 -0.0051664 -1.95267e-20 0.0495783 2.5096e-20 6.5088e-05)
(-0.0467799 -0.00497886 -2.10426e-20 0.0467173 2.21667e-20 6.26242e-05)
(-0.0440841 -0.00480376 -2.15292e-20 0.0440245 2.12395e-20 5.96503e-05)
(-0.0415583 -0.00464154 -2.13717e-20 0.0415022 1.99907e-20 5.6137e-05)
(-0.0392055 -0.00449264 -1.10962e-20 0.0391534 1.15782e-20 5.20549e-05)
(-0.0370295 -0.00435758 2.28373e-21 0.0369821 4.23249e-21 4.73726e-05)
(-0.035035 -0.00423687 -6.36973e-21 0.0349929 1.07899e-20 4.20589e-05)
(-0.0332278 -0.00413106 -1.40089e-20 0.0331917 1.24404e-20 3.60804e-05)
(-0.0316144 -0.00404061 -2.05711e-20 0.031585 1.20226e-20 2.94043e-05)
(-0.0302026 -0.00396573 -6.71764e-21 0.0301806 1.2876e-20 2.19957e-05)
(-0.029001 -0.00390593 -7.62216e-21 0.0289872 7.96164e-21 1.38203e-05)
(-0.0280191 -0.00385922 -4.97116e-21 0.0280143 3.45744e-21 4.84193e-06)
(-0.17888 -0.0135345 1.72103e-21 0.178877 -2.29471e-21 3.11048e-06)
(-0.177902 -0.0155387 2.411e-21 0.177893 -4.25512e-21 8.8074e-06)
(-0.174946 -0.0168356 1.23227e-21 0.174931 -5.72882e-21 1.41551e-05)
(-0.170675 -0.0176213 2.83185e-21 0.170656 -6.7257e-21 1.91928e-05)
(-0.16555 -0.018035 3.0234e-21 0.165526 -5.88669e-21 2.39511e-05)
(-0.159889 -0.0181772 4.14761e-21 0.15986 -3.78898e-21 2.84532e-05)
(-0.153916 -0.0181209 3.66836e-21 0.153883 -2.78649e-21 3.27171e-05)
(-0.147787 -0.0179201 5.07309e-21 0.147751 -6.20204e-22 3.67553e-05)
(-0.141614 -0.0176145 5.91665e-21 0.141574 1.30962e-21 4.05771e-05)
(-0.135474 -0.0172338 -3.36544e-22 0.13543 -2.3391e-22 4.41879e-05)
(-0.12942 -0.0168004 -3.46563e-21 0.129373 -9.74857e-22 4.75908e-05)
(-0.12349 -0.0163312 2.27501e-22 0.123439 -5.33452e-22 5.07859e-05)
(-0.117707 -0.015839 3.46872e-21 0.117654 1.2599e-21 5.37713e-05)
(-0.112089 -0.0153336 1.31716e-21 0.112033 8.08851e-21 5.65429e-05)
(-0.106646 -0.0148222 -4.1587e-21 0.106587 1.73295e-20 5.90952e-05)
(-0.101382 -0.0143107 -5.09299e-21 0.10132 2.04228e-20 6.14203e-05)
(-0.0963002 -0.0138034 6.43448e-22 0.0962367 2.02875e-20 6.35094e-05)
(-0.0914013 -0.0133036 -9.81842e-21 0.0913359 1.80166e-20 6.53515e-05)
(-0.086684 -0.0128138 -6.0589e-21 0.0866171 1.38084e-20 6.69348e-05)
(-0.0821464 -0.0123362 -1.73884e-20 0.0820782 1.58839e-20 6.82453e-05)
(-0.0777861 -0.0118721 -2.1055e-20 0.0777168 1.62073e-20 6.92684e-05)
(-0.0736005 -0.0114229 -2.26193e-20 0.0735305 1.96676e-20 6.99875e-05)
(-0.069587 -0.0109895 -1.94668e-20 0.0695166 2.2985e-20 7.03851e-05)
(-0.0657433 -0.0105727 -2.22122e-20 0.0656728 2.864e-20 7.04421e-05)
(-0.0620672 -0.0101732 -1.09872e-20 0.0619971 3.62991e-20 7.01383e-05)
(-0.0585573 -0.00979147 -1.16289e-20 0.0584878 4.2005e-20 6.9452e-05)
(-0.0552123 -0.00942815 -1.19515e-20 0.055144 4.46312e-20 6.83608e-05)
(-0.0520318 -0.00908375 -2.12612e-20 0.051965 3.87586e-20 6.684e-05)
(-0.0490158 -0.00875877 -2.00734e-20 0.0489509 3.29201e-20 6.48651e-05)
(-0.046165 -0.00845376 -1.95345e-20 0.0461026 2.95573e-20 6.24089e-05)
(-0.0434809 -0.00816931 -1.55701e-20 0.0434214 3.04658e-20 5.94445e-05)
(-0.0409656 -0.00790606 -1.7268e-20 0.0409097 3.58415e-20 5.59426e-05)
(-0.0386222 -0.0076647 -2.45912e-20 0.0385704 2.61914e-20 5.18741e-05)
(-0.0364545 -0.00744602 -1.20018e-20 0.0364073 8.19356e-21 4.72076e-05)
(-0.0344672 -0.00725082 1.24952e-21 0.0344253 2.09345e-20 4.1912e-05)
(-0.0326658 -0.00708001 -9.5266e-21 0.0326299 2.07704e-20 3.5954e-05)
(-0.031057 -0.0069344 -1.21153e-20 0.0310277 2.2671e-20 2.93011e-05)
(-0.0296485 -0.00681468 -2.22896e-21 0.0296266 2.35308e-20 2.19183e-05)
(-0.0284487 -0.00672101 -5.52979e-21 0.028435 1.17201e-20 1.37716e-05)
(-0.0274674 -0.00665242 -1.14373e-21 0.0274626 3.79402e-21 4.82483e-06)
(-0.178477 -0.0189481 2.38612e-21 0.178473 -3.11298e-21 3.09744e-06)
(-0.177176 -0.0217201 3.97672e-21 0.177168 -6.07666e-21 8.77038e-06)
(-0.173989 -0.023512 2.41897e-21 0.173975 -5.35705e-21 1.40956e-05)
(-0.169555 -0.0245954 3.67948e-21 0.169536 -6.99851e-21 1.91121e-05)
(-0.164316 -0.0251638 4.76209e-21 0.164292 -3.63654e-21 2.38503e-05)
(-0.158577 -0.0253561 6.20068e-21 0.158549 -3.74296e-21 2.83334e-05)
(-0.152555 -0.0252739 5.08114e-21 0.152522 -2.87809e-21 3.2579e-05)
(-0.146398 -0.0249916 6.05244e-21 0.146361 -6.9966e-22 3.66e-05)
(-0.140212 -0.0245644 4.84631e-21 0.140172 2.66965e-22 4.04053e-05)
(-0.134072 -0.0240336 -2.82457e-21 0.134028 1.61949e-21 4.40005e-05)
(-0.128026 -0.0234301 -3.87846e-21 0.127979 3.12808e-21 4.73886e-05)
(-0.122111 -0.0227773 -6.4909e-22 0.12206 2.71019e-21 5.05695e-05)
(-0.116349 -0.0220929 5.15068e-21 0.116295 2.27892e-21 5.35417e-05)
(-0.110754 -0.0213904 1.09722e-20 0.110698 1.20902e-20 5.63009e-05)
(-0.105337 -0.0206801 1.17444e-20 0.105278 2.188e-20 5.88416e-05)
(-0.100101 -0.0199698 2.74336e-21 0.10004 2.50747e-20 6.1156e-05)
(-0.0950485 -0.0192655 4.23708e-21 0.0949853 1.50806e-20 6.32354e-05)
(-0.0901793 -0.018572 -5.38659e-21 0.0901142 1.8792e-20 6.50688e-05)
(-0.0854918 -0.0178926 -1.51979e-20 0.0854251 1.74594e-20 6.66444e-05)
(-0.0809838 -0.0172302 -1.20581e-20 0.0809159 2.10097e-20 6.79484e-05)
(-0.0766527 -0.016587 -2.35147e-20 0.0765837 2.40039e-20 6.89663e-05)
(-0.0724956 -0.0159645 -1.80368e-20 0.0724259 2.8628e-20 6.96813e-05)
(-0.0685098 -0.0153641 -1.40841e-20 0.0684397 3.14192e-20 7.00763e-05)
(-0.0646928 -0.014787 -4.91967e-21 0.0646227 3.51236e-20 7.01321e-05)
(-0.0610424 -0.0142339 -4.78084e-22 0.0609726 3.90673e-20 6.98289e-05)
(-0.057557 -0.0137058 7.02304e-21 0.0574878 4.43408e-20 6.91448e-05)
(-0.0542352 -0.0132033 1.38086e-21 0.0541672 4.88782e-20 6.80575e-05)
(-0.0510766 -0.0127271 -1.69445e-20 0.05101 4.75063e-20 6.65428e-05)
(-0.048081 -0.012278 -2.24858e-20 0.0480164 4.20275e-20 6.45759e-05)
(-0.0452491 -0.0118567 -2.26783e-20 0.045187 4.38672e-20 6.213e-05)
(-0.0425824 -0.0114639 -8.08669e-21 0.0425233 3.86022e-20 5.91783e-05)
(-0.040083 -0.0111005 4.75004e-21 0.0400273 3.41166e-20 5.56915e-05)
(-0.0377537 -0.0107675 -2.46478e-20 0.0377021 3.61227e-20 5.16408e-05)
(-0.0355984 -0.0104659 -2.86146e-20 0.0355514 2.93889e-20 4.69949e-05)
(-0.0336216 -0.0101968 1.93441e-20 0.0335799 3.37557e-20 4.17228e-05)
(-0.031829 -0.00996135 -1.62311e-21 0.0317932 2.56396e-20 3.57915e-05)
(-0.0302269 -0.00976086 -3.55043e-21 0.0301977 2.4094e-20 2.91684e-05)
(-0.028823 -0.00959645 5.59127e-21 0.0288012 1.91552e-20 2.18189e-05)
(-0.0276258 -0.00946888 -1.54787e-20 0.0276121 6.36069e-22 1.3709e-05)
(-0.0266449 -0.00937824 -6.25389e-21 0.0266401 -6.85635e-21 4.80286e-06)
(-0.177938 -0.0243611 2.57748e-21 0.177935 -2.96007e-21 3.0811e-06)
(-0.176214 -0.0278609 4.65149e-21 0.176205 -4.79795e-21 8.72411e-06)
(-0.172722 -0.0301184 4.59279e-21 0.172708 -6.2635e-21 1.40213e-05)
(-0.168072 -0.0314783 2.58107e-21 0.168053 -1.13e-21 1.90113e-05)
(-0.162682 -0.0321858 6.52087e-21 0.162659 -5.20121e-24 2.37245e-05)
(-0.156843 -0.0324173 6.70578e-21 0.156814 -3.61304e-21 2.81837e-05)
(-0.150755 -0.0323013 6.48422e-21 0.150723 -2.35033e-21 3.24068e-05)
(-0.144561 -0.0319324 8.40933e-21 0.144525 3.02446e-22 3.64062e-05)
(-0.138359 -0.0313804 7.05269e-21 0.138319 2.91329e-21 4.01911e-05)
(-0.132218 -0.0306977 -1.35464e-21 0.132174 8.50656e-21 4.37669e-05)
(-0.126184 -0.0299235 -3.89127e-21 0.126137 9.76627e-21 4.71366e-05)
(-0.120289 -0.0290873 -4.10396e-21 0.120239 1.00028e-20 5.03002e-05)
(-0.114553 -0.0282116 3.68997e-21 0.1145 6.45653e-21 5.3256e-05)
(-0.108991 -0.0273134 2.23529e-20 0.108935 9.69618e-21 5.59999e-05)
(-0.103608 -0.0264059 2.16752e-20 0.10355 1.57609e-20 5.85265e-05)
(-0.0984094 -0.0254988 1.09841e-20 0.0983486 1.53533e-20 6.08279e-05)
(-0.0933954 -0.0245998 -6.18786e-21 0.0933325 1.03695e-20 6.28955e-05)
(-0.0885654 -0.0237148 6.42764e-22 0.0885007 1.725e-20 6.47184e-05)
(-0.0839174 -0.0228483 -5.27151e-21 0.0838511 2.12788e-20 6.62848e-05)
(-0.0794487 -0.0220036 -7.8877e-21 0.0793811 2.53803e-20 6.7581e-05)
(-0.0751562 -0.0211836 -1.87893e-20 0.0750876 3.82227e-20 6.85926e-05)
(-0.0710368 -0.0203902 -1.53514e-20 0.0709675 3.95773e-20 6.9303e-05)
(-0.0670877 -0.0196252 -3.87877e-21 0.067018 2.88324e-20 6.96951e-05)
(-0.0633061 -0.0188899 -3.08642e-21 0.0632364 3.02186e-20 6.97499e-05)
(-0.0596897 -0.0181855 1.26195e-21 0.0596203 4.35143e-20 6.94476e-05)
(-0.0562367 -0.017513 9.66966e-21 0.0561679 4.34823e-20 6.87665e-05)
(-0.0529457 -0.0168733 1.84806e-20 0.052878 3.9349e-20 6.76845e-05)
(-0.0498159 -0.0162672 -5.31224e-21 0.0497498 4.61728e-20 6.61775e-05)
(-0.0468474 -0.0156956 -1.45757e-20 0.0467832 4.6656e-20 6.42208e-05)
(-0.0440407 -0.0151595 -1.41281e-22 0.0439789 4.13297e-20 6.17878e-05)
(-0.0413971 -0.0146598 -2.07091e-22 0.0413382 1.8642e-20 5.88518e-05)
(-0.0389186 -0.0141976 6.71516e-21 0.0388632 6.8039e-21 5.53839e-05)
(-0.0366081 -0.0137741 8.39176e-21 0.0365567 1.53973e-20 5.13552e-05)
(-0.0344692 -0.0133904 -5.00008e-21 0.0344224 2.50024e-20 4.67347e-05)
(-0.0325064 -0.0130481 2.81064e-20 0.0324649 1.73622e-20 4.14915e-05)
(-0.0307252 -0.0127487 1.05601e-20 0.0306896 -7.18993e-21 3.55929e-05)
(-0.029132 -0.0124937 1.34671e-20 0.029103 -1.49467e-20 2.90064e-05)
(-0.0277342 -0.0122847 6.64029e-21 0.0277125 -1.74732e-20 2.16975e-05)
(-0.0265402 -0.0121232 -3.20766e-20 0.0265266 -2.27398e-20 1.36327e-05)
(-0.0255593 -0.0120102 -1.75702e-20 0.0255546 -1.16149e-20 4.77606e-06)
(-0.177263 -0.029773 3.17952e-21 0.17726 -1.76262e-21 3.06156e-06)
(-0.175017 -0.0339499 4.53571e-21 0.175008 -1.34157e-22 8.66872e-06)
(-0.171151 -0.0366359 4.92165e-21 0.171137 -1.51704e-21 1.39323e-05)
(-0.166236 -0.0382452 7.88413e-21 0.166217 2.95761e-21 1.88905e-05)
(-0.160661 -0.0390721 5.68686e-21 0.160638 3.84633e-21 2.35737e-05)
(-0.154697 -0.0393286 1.25369e-21 0.154669 3.37971e-21 2.80045e-05)
(-0.14853 -0.0391692 5.25487e-21 0.148498 2.37161e-21 3.22006e-05)
(-0.142291 -0.038707 1.0677e-20 0.142255 1.53754e-21 3.61743e-05)
(-0.13607 -0.0380262 1.37207e-20 0.13603 2.59777e-21 3.99348e-05)
(-0.129928 -0.0371894 5.49225e-21 0.129885 1.28687e-20 4.34875e-05)
(-0.123908 -0.0362436 -3.30264e-21 0.123862 1.74168e-20 4.68352e-05)
(-0.118039 -0.0352243 -3.72366e-21 0.117989 1.74963e-20 4.99782e-05)
(-0.112336 -0.0341585 -2.0015e-21 0.112283 1.17919e-20 5.29146e-05)
(-0.106813 -0.0330665 1.9769e-20 0.106757 5.97502e-21 5.56405e-05)
(-0.101473 -0.0319639 3.13366e-20 0.101415 2.74726e-21 5.81503e-05)
(-0.0963208 -0.0308626 1.35175e-20 0.0962604 1.12681e-21 6.04364e-05)
(-0.0913546 -0.0297718 -6.71453e-22 0.0912921 9.33515e-21 6.24901e-05)
(-0.0865733 -0.0286983 1.18016e-20 0.086509 1.06614e-20 6.43005e-05)
(-0.0819741 -0.0276475 6.76116e-21 0.0819083 1.05163e-20 6.58562e-05)
(-0.077554 -0.0266237 1.23802e-20 0.0774868 1.69501e-20 6.71434e-05)
(-0.0733093 -0.0256299 1.50167e-20 0.0732412 2.99773e-20 6.81478e-05)
(-0.0692368 -0.0246686 1.54184e-21 0.0691679 2.53875e-20 6.8853e-05)
(-0.0653331 -0.0237419 -1.91901e-20 0.0652638 1.89216e-20 6.92419e-05)
(-0.0615953 -0.0228514 6.53719e-21 0.061526 2.57557e-20 6.92957e-05)
(-0.058021 -0.0219985 3.68558e-20 0.057952 3.15978e-20 6.89948e-05)
(-0.0546081 -0.0211842 1.99629e-20 0.0545398 3.24673e-20 6.83176e-05)
(-0.0513551 -0.0204097 2.21553e-20 0.0512879 1.74221e-20 6.72422e-05)
(-0.0482613 -0.019676 2.15277e-20 0.0481956 2.98372e-20 6.57445e-05)
(-0.0453263 -0.0189842 -3.64704e-21 0.0452625 3.75241e-20 6.38001e-05)
(-0.0425508 -0.0183353 -1.53824e-20 0.0424894 1.94225e-20 6.13827e-05)
(-0.0399357 -0.0177305 -3.1216e-20 0.0398773 -1.08278e-20 5.84656e-05)
(-0.0374832 -0.017171 -9.32012e-21 0.0374282 -9.38539e-21 5.50202e-05)
(-0.0351958 -0.0166583 1.21722e-20 0.0351448 -1.33122e-20 5.10177e-05)
(-0.0330773 -0.0161938 6.68313e-21 0.0330308 -4.88317e-21 4.64273e-05)
(-0.0311318 -0.0157792 2.55995e-20 0.0310906 -3.09661e-20 4.12184e-05)
(-0.0293649 -0.0154165 -3.27347e-20 0.0293295 -4.50241e-20 3.53584e-05)
(-0.0277826 -0.0151074 -1.89571e-20 0.0277538 -4.57785e-20 2.88151e-05)
(-0.0263923 -0.0148541 3.9135e-21 0.0263708 -5.33262e-20 2.15544e-05)
(-0.0252022 -0.0146585 -2.62397e-20 0.0251887 -4.95174e-20 1.35426e-05)
(-0.0242213 -0.0145227 -1.50286e-20 0.0242166 -8.4332e-21 4.74443e-06)
(-0.176449 -0.0351832 4.56536e-21 0.176446 -1.25721e-22 3.03877e-06)
(-0.173589 -0.0399763 7.89111e-21 0.17358 -3.3909e-22 8.60421e-06)
(-0.169284 -0.0430462 6.51863e-21 0.16927 2.05301e-21 1.38286e-05)
(-0.164057 -0.0448721 9.03457e-21 0.164038 6.37015e-21 1.87499e-05)
(-0.158266 -0.0457949 9.22314e-21 0.158242 5.47294e-21 2.33982e-05)
(-0.152155 -0.0460596 6.44445e-21 0.152127 4.87074e-21 2.77959e-05)
(-0.145896 -0.0458449 6.7159e-21 0.145864 2.66471e-21 3.19605e-05)
(-0.139604 -0.0452816 8.3414e-21 0.139568 2.94292e-21 3.59044e-05)
(-0.13336 -0.044467 1.4454e-20 0.133321 3.32498e-21 3.96366e-05)
(-0.127219 -0.0434734 1.98829e-20 0.127176 9.06623e-21 4.31625e-05)
(-0.121217 -0.0423551 1.20725e-20 0.12117 1.19538e-20 4.64849e-05)
(-0.115377 -0.0411532 2.09645e-21 0.115328 1.52355e-20 4.96039e-05)
(-0.109715 -0.0398986 -8.28666e-21 0.109663 1.58036e-20 5.2518e-05)
(-0.104238 -0.0386149 6.41754e-21 0.104183 9.28343e-21 5.5223e-05)
(-0.0989503 -0.03732 2.39979e-20 0.0988926 -8.17664e-21 5.77134e-05)
(-0.0938524 -0.0360276 1.65341e-20 0.0937924 -8.66117e-21 5.99819e-05)
(-0.088943 -0.0347482 1.65698e-20 0.088881 -4.97384e-21 6.20196e-05)
(-0.0842194 -0.0334898 1.57408e-20 0.0841556 -7.75266e-21 6.38159e-05)
(-0.0796783 -0.0322585 1.51317e-20 0.079613 -1.64593e-20 6.53593e-05)
(-0.0753158 -0.0310591 2.46877e-20 0.0752492 -9.45825e-21 6.66363e-05)
(-0.0711279 -0.0298953 2.60874e-20 0.0710603 8.65854e-22 6.76325e-05)
(-0.0671109 -0.0287698 -1.90579e-21 0.0670426 2.83283e-21 6.83318e-05)
(-0.0632611 -0.027685 -1.50714e-20 0.0631924 1.7276e-20 6.87173e-05)
(-0.0595754 -0.0266427 9.16006e-21 0.0595066 1.55582e-20 6.87702e-05)
(-0.056051 -0.0256445 3.31337e-20 0.0559825 3.16372e-21 6.84711e-05)
(-0.0526857 -0.0246916 3.45098e-20 0.0526179 -4.77105e-24 6.77986e-05)
(-0.0494779 -0.0237853 1.49589e-20 0.0494111 -1.02924e-20 6.67309e-05)
(-0.0464266 -0.0229268 4.46486e-20 0.0463613 4.68688e-22 6.52442e-05)
(-0.0435314 -0.0221173 4.49629e-21 0.0434681 3.63399e-20 6.33144e-05)
(-0.0407928 -0.021358 -3.84971e-20 0.0407319 2.26555e-20 6.09151e-05)
(-0.0382117 -0.0206502 -8.46696e-20 0.0381537 2.12319e-20 5.802e-05)
(-0.03579 -0.0199954 -2.44592e-20 0.0357354 1.33856e-20 5.46006e-05)
(-0.0335302 -0.0193952 -1.28733e-20 0.0334796 -6.25931e-21 5.06284e-05)
(-0.0314358 -0.0188513 -2.28596e-20 0.0313897 6.38764e-21 4.60729e-05)
(-0.0295109 -0.0183656 -3.91285e-20 0.02947 -2.47242e-20 4.09037e-05)
(-0.0277609 -0.0179403 -4.117e-20 0.0277258 -2.82498e-20 3.50883e-05)
(-0.0261916 -0.0175777 -4.06532e-20 0.026163 -2.42665e-20 2.85949e-05)
(-0.0248103 -0.0172802 -4.96132e-20 0.0247889 -3.58988e-20 2.13895e-05)
(-0.0236249 -0.0170504 -5.60502e-20 0.0236114 -2.65002e-20 1.34389e-05)
(-0.0226438 -0.0168913 4.6012e-21 0.0226391 7.14537e-21 4.70801e-06)
(-0.175494 -0.0405908 4.81277e-21 0.175491 1.73796e-21 3.01281e-06)
(-0.171935 -0.0459295 9.73032e-21 0.171926 -7.4726e-22 8.53069e-06)
(-0.16713 -0.0493315 1.00454e-20 0.167116 2.70071e-21 1.37104e-05)
(-0.161548 -0.0513364 1.35549e-20 0.16153 4.96704e-21 1.85897e-05)
(-0.155511 -0.0523276 1.21398e-20 0.155487 1.55435e-22 2.31981e-05)
(-0.149235 -0.052581 6.97714e-21 0.149207 -1.57047e-22 2.75582e-05)
(-0.142871 -0.0522974 4.36165e-21 0.142839 2.76416e-21 3.1687e-05)
(-0.13652 -0.0516239 1.02331e-20 0.136484 3.01099e-21 3.55969e-05)
(-0.130251 -0.0506699 1.43944e-20 0.130212 5.09875e-21 3.9297e-05)
(-0.124112 -0.0495164 1.98361e-20 0.124069 4.72603e-21 4.27923e-05)
(-0.11813 -0.0482247 6.40981e-21 0.118084 1.09964e-20 4.60859e-05)
(-0.112326 -0.0468405 8.27902e-21 0.112277 1.10752e-20 4.91778e-05)
(-0.10671 -0.0453988 -4.31124e-21 0.106658 1.72603e-20 5.20665e-05)
(-0.101287 -0.0439259 2.47739e-21 0.101233 9.39953e-21 5.47478e-05)
(-0.0960591 -0.0424418 2.63687e-21 0.0960019 -7.78141e-21 5.72165e-05)
(-0.0910244 -0.0409619 8.78551e-21 0.0909649 -9.34039e-21 5.94649e-05)
(-0.0861805 -0.0394979 2.53765e-21 0.086119 -1.20563e-20 6.14846e-05)
(-0.0815235 -0.0380587 6.20392e-21 0.0814603 -2.05162e-20 6.3265e-05)
(-0.0770492 -0.0366511 -1.28049e-20 0.0769845 -2.6311e-20 6.47946e-05)
(-0.0727531 -0.0352805 1.43544e-20 0.0726871 -1.72321e-20 6.606e-05)
(-0.0686306 -0.0339509 3.24516e-20 0.0685636 -1.24032e-20 6.70472e-05)
(-0.0646775 -0.0326654 1.03253e-20 0.0646097 -4.2147e-21 6.774e-05)
(-0.0608897 -0.0314266 4.61964e-21 0.0608216 1.08968e-20 6.81218e-05)
(-0.0572638 -0.0302366 -8.12083e-21 0.0571956 1.08968e-20 6.81738e-05)
(-0.0537969 -0.0290969 7.11718e-21 0.053729 -5.39451e-21 6.7877e-05)
(-0.0504864 -0.0280091 2.07275e-20 0.0504192 -2.36911e-20 6.721e-05)
(-0.0473306 -0.0269745 -9.07772e-21 0.0472644 -1.10183e-20 6.61513e-05)
(-0.0443283 -0.0259945 4.06929e-20 0.0442636 1.87832e-21 6.46773e-05)
(-0.041479 -0.0250703 8.26059e-20 0.0414162 2.37934e-20 6.2764e-05)
(-0.0387829 -0.0242033 9.32457e-22 0.0387225 9.07817e-21 6.03854e-05)
(-0.0362409 -0.0233951 -3.39043e-20 0.0361833 3.34326e-20 5.75153e-05)
(-0.0338546 -0.0226472 -4.50909e-20 0.0338005 2.87911e-20 5.41256e-05)
(-0.0316266 -0.0219613 -3.5226e-20 0.0315764 2.5305e-20 5.01878e-05)
(-0.02956 -0.0213396 1.66659e-20 0.0295144 2.0507e-20 4.56719e-05)
(-0.027659 -0.0207841 -5.343e-20 0.0276184 1.24404e-20 4.05475e-05)
(-0.0259285 -0.0202973 -6.99238e-20 0.0258937 1.49126e-20 3.47827e-05)
(-0.0243743 -0.0198818 -5.57303e-20 0.0243459 3.05378e-20 2.83457e-05)
(-0.0230033 -0.0195404 -5.08222e-20 0.0229821 1.56397e-20 2.12029e-05)
(-0.0218232 -0.0192762 -3.26812e-20 0.0218099 -6.24658e-22 1.33216e-05)
(-0.0208421 -0.019093 1.13081e-20 0.0208374 1.04922e-20 4.66682e-06)
(-0.174396 -0.0459946 3.86974e-21 0.174393 4.33556e-21 2.98367e-06)
(-0.170059 -0.0517993 9.87334e-21 0.170051 1.04358e-21 8.4482e-06)
(-0.164698 -0.0554752 1.28382e-20 0.164685 9.82389e-22 1.35778e-05)
(-0.158724 -0.0576165 1.52746e-20 0.158706 6.63793e-23 1.84099e-05)
(-0.152414 -0.0586455 7.36356e-21 0.152391 1.09043e-21 2.29737e-05)
(-0.145955 -0.0588656 3.46243e-21 0.145928 4.25265e-21 2.72915e-05)
(-0.139476 -0.0584977 7.38438e-21 0.139445 2.4189e-21 3.13802e-05)
(-0.133061 -0.0577038 9.55066e-21 0.133025 2.23762e-21 3.52522e-05)
(-0.126766 -0.0566039 1.38785e-20 0.126727 7.34999e-21 3.89161e-05)
(-0.120629 -0.0552873 1.73377e-20 0.120587 1.08573e-20 4.23773e-05)
(-0.114673 -0.0538208 6.78208e-21 0.114627 2.36336e-20 4.56387e-05)
(-0.108909 -0.0522551 -3.72495e-21 0.108861 2.34707e-20 4.87004e-05)
(-0.103346 -0.0506281 -6.42498e-21 0.103294 2.3198e-20 5.15607e-05)
(-0.0979843 -0.0489687 -1.61051e-20 0.0979301 1.81977e-20 5.42156e-05)
(-0.0928233 -0.047299 -1.62147e-20 0.0927667 7.00138e-21 5.66599e-05)
(-0.0878599 -0.0456357 5.94758e-21 0.087801 -3.9644e-21 5.8886e-05)
(-0.0830898 -0.0439915 -4.97151e-21 0.0830289 -4.65938e-21 6.08857e-05)
(-0.0785079 -0.0423762 -5.43943e-21 0.0784452 -1.95003e-20 6.26483e-05)
(-0.0741089 -0.0407972 -2.33889e-20 0.0740448 -1.01638e-20 6.41627e-05)
(-0.0698875 -0.0392603 8.25415e-22 0.0698221 2.08933e-21 6.54154e-05)
(-0.0658386 -0.0377697 1.79342e-20 0.0657722 -1.7696e-21 6.63926e-05)
(-0.0619573 -0.036329 8.71206e-21 0.0618902 2.10382e-21 6.70783e-05)
(-0.0582393 -0.0349409 1.97407e-20 0.0581719 1.78081e-22 6.7456e-05)
(-0.0546808 -0.0336076 3.624e-21 0.0546133 7.17611e-21 6.75073e-05)
(-0.0512785 -0.0323308 -1.78702e-20 0.0512113 1.45768e-21 6.7213e-05)
(-0.0480297 -0.0311122 -5.25229e-21 0.0479631 -1.92252e-20 6.65524e-05)
(-0.0449323 -0.0299533 -3.16391e-22 0.0448668 1.77247e-20 6.55038e-05)
(-0.0419852 -0.0288554 1.44847e-20 0.0419211 4.31887e-20 6.40441e-05)
(-0.0391874 -0.0278199 4.18028e-20 0.0391253 3.33815e-20 6.21494e-05)
(-0.0365392 -0.0268485 -2.99428e-20 0.0364794 1.69425e-20 5.9794e-05)
(-0.0340412 -0.0259426 -8.67705e-21 0.0339843 1.62739e-20 5.6952e-05)
(-0.031695 -0.0251041 -5.19386e-21 0.0316414 9.40762e-21 5.35954e-05)
(-0.0295028 -0.0243348 -1.22001e-20 0.0294531 1.36753e-20 4.96962e-05)
(-0.0274676 -0.0236371 1.49424e-20 0.0274224 -2.1784e-20 4.52244e-05)
(-0.0255934 -0.0230133 -1.571e-20 0.0255532 1.40551e-20 4.01503e-05)
(-0.0238849 -0.0224661 -1.54262e-20 0.0238505 2.02945e-20 3.44418e-05)
(-0.0223478 -0.0219983 4.95032e-21 0.0223197 2.65279e-20 2.80678e-05)
(-0.0209887 -0.0216132 -5.74539e-20 0.0209677 8.99118e-21 2.09949e-05)
(-0.0198147 -0.0213145 -9.68649e-20 0.0198015 2.34444e-20 1.31907e-05)
(-0.0188336 -0.0211066 1.68564e-20 0.018829 2.19028e-20 4.62089e-06)
(-0.17315 -0.051393 5.50467e-21 0.173148 -1.95289e-22 2.95142e-06)
(-0.167968 -0.057576 1.1934e-20 0.16796 -4.47565e-21 8.35686e-06)
(-0.162002 -0.0614616 1.18244e-20 0.161989 1.2825e-21 1.3431e-05)
(-0.155601 -0.0636925 1.19703e-20 0.155583 6.20231e-21 1.82108e-05)
(-0.148995 -0.0647252 9.19577e-21 0.148972 6.30319e-21 2.27252e-05)
(-0.142339 -0.0648878 1.26824e-20 0.142312 -2.63172e-21 2.69962e-05)
(-0.135736 -0.0644189 6.42306e-21 0.135705 -1.70003e-21 3.10406e-05)
(-0.129252 -0.0634934 1.01338e-20 0.129217 1.36686e-21 3.48705e-05)
(-0.122931 -0.0622407 1.33309e-20 0.122893 1.39129e-20 3.84946e-05)
(-0.116799 -0.0607571 1.79066e-20 0.116757 2.59262e-20 4.19181e-05)
(-0.110871 -0.0591147 2.40516e-20 0.110825 3.05878e-20 4.51439e-05)
(-0.105153 -0.057368 1.006e-20 0.105105 2.87653e-20 4.81721e-05)
(-0.0996486 -0.0555578 -4.92049e-21 0.0995976 2.96764e-20 5.1001e-05)
(-0.0943551 -0.0537153 -4.58819e-21 0.0943015 1.99298e-20 5.36269e-05)
(-0.089269 -0.0518639 -2.15992e-20 0.0892129 1.34386e-20 5.60443e-05)
(-0.0843847 -0.0500217 -1.55291e-20 0.0843265 7.13836e-21 5.82459e-05)
(-0.0796964 -0.0482023 -7.03613e-21 0.0796362 1.7545e-21 6.02235e-05)
(-0.0751976 -0.0464161 -2.08606e-20 0.0751356 -9.86651e-21 6.19667e-05)
(-0.0708819 -0.0446709 -1.62134e-20 0.0708184 6.45839e-21 6.34642e-05)
(-0.0667432 -0.042973 3.76819e-21 0.0666785 2.39259e-20 6.4703e-05)
(-0.0627756 -0.0413269 4.27655e-21 0.0627099 2.36438e-20 6.56693e-05)
(-0.0589737 -0.0397363 2.30178e-21 0.0589074 1.5383e-20 6.63472e-05)
(-0.0553329 -0.0382041 3.53135e-21 0.0552662 -2.55595e-21 6.67206e-05)
(-0.0518488 -0.0367325 1.81882e-20 0.051782 -2.94832e-21 6.67711e-05)
(-0.0485179 -0.0353235 -7.91169e-21 0.0484514 8.93582e-22 6.64799e-05)
(-0.0453372 -0.0339787 -3.18308e-20 0.0452714 4.03789e-21 6.58263e-05)
(-0.0423045 -0.0326997 4.3434e-20 0.0422397 3.71037e-20 6.47892e-05)
(-0.0394183 -0.031488 8.78603e-20 0.0393549 4.37471e-20 6.33453e-05)
(-0.0366776 -0.030345 8.79627e-20 0.0366161 3.4053e-20 6.14712e-05)
(-0.0340823 -0.0292725 -1.05678e-20 0.0340231 2.30433e-20 5.91415e-05)
(-0.031633 -0.0282721 -3.20762e-20 0.0315766 -6.17628e-22 5.63306e-05)
(-0.029331 -0.0273458 -3.42893e-20 0.029278 -1.79559e-20 5.30106e-05)
(-0.0271784 -0.0264956 -1.03133e-20 0.0271292 -3.44841e-20 4.9154e-05)
(-0.025178 -0.025724 -3.56898e-20 0.0251333 -3.26139e-20 4.4731e-05)
(-0.0233336 -0.0250334 2.99761e-20 0.0232939 4.98594e-21 3.97121e-05)
(-0.0216497 -0.024427 -3.09626e-20 0.0216156 -3.77135e-21 3.40659e-05)
(-0.0201316 -0.0239077 -6.48264e-21 0.0201038 8.68572e-21 2.77614e-05)
(-0.0187856 -0.0234793 -3.68192e-20 0.0187648 3.25161e-20 2.07656e-05)
(-0.0176187 -0.0231458 -1.71922e-20 0.0176056 6.1959e-20 1.30465e-05)
(-0.0166378 -0.0229124 2.0091e-20 0.0166332 2.06497e-20 4.57026e-06)
(-0.171756 -0.056784 9.79876e-21 0.171753 -1.16134e-20 2.91605e-06)
(-0.165667 -0.0632503 1.60865e-20 0.165658 -1.19177e-20 8.25674e-06)
(-0.159054 -0.067276 1.88119e-20 0.159041 -2.24934e-21 1.32701e-05)
(-0.152197 -0.0695458 2.57945e-20 0.152179 -5.27272e-21 1.79926e-05)
(-0.145276 -0.0705457 1.4101e-20 0.145254 -3.85321e-21 2.24529e-05)
(-0.138411 -0.0706247 1.21357e-21 0.138384 -2.85974e-21 2.66727e-05)
(-0.131677 -0.0700365 2.54262e-21 0.131646 1.2839e-21 3.06685e-05)
(-0.125122 -0.0689672 -1.25952e-21 0.125087 1.76416e-20 3.44523e-05)
(-0.118774 -0.0675542 1.36411e-20 0.118736 2.99816e-20 3.80328e-05)
(-0.112649 -0.0658996 3.93202e-20 0.112608 2.24935e-20 4.1415e-05)
(-0.106753 -0.0640802 3.68019e-20 0.106708 1.95078e-20 4.46019e-05)
(-0.101087 -0.0621532 1.40303e-20 0.101039 2.46457e-20 4.75935e-05)
(-0.0956473 -0.0601622 -1.05787e-21 0.0955969 3.0962e-20 5.03882e-05)
(-0.0904288 -0.0581399 -2.26453e-20 0.0903758 2.44131e-20 5.29822e-05)
(-0.0854246 -0.0561112 -3.39063e-20 0.0853692 2.51249e-20 5.53703e-05)
(-0.080627 -0.0540951 -2.61128e-20 0.0805694 2.69461e-20 5.75452e-05)
(-0.076028 -0.0521058 -2.33529e-20 0.0759685 1.45882e-20 5.94987e-05)
(-0.0716199 -0.0501543 -4.22661e-20 0.0715586 1.54111e-20 6.12207e-05)