/*--------------------------------*- C++ -*----------------------------------*\
| =========                 |                                                 |
| \\      /  F ield         | foam-extend: Open Source CFD                    |
|  \\    /   O peration     | Version:  3.0                                   |
|   \\  /    A nd           | Web:         http://www.extend-project.de       |
|    \\/     M anipulation  |                                                 |
\*---------------------------------------------------------------------------*/
FoamFile
{
    version     2.0;
    format      ascii;
    class       volScalarField;
    location    "9";
    object      p;
}
// * * * * * * * * * * * * * * * * * * * * * * * * * * * * * * * * * * * * * //

dimensions      [0 0 0 0 0 0 0];

internalField   nonuniform List<scalar> 
120
(
-0.281093
-0.20806
-0.216912
-0.206303
-0.206094
-0.262054
-0.193925
-0.202155
-0.192252
-0.192081
-0.224882
-0.166427
-0.173512
-0.165039
-0.164934
-0.17268
-0.127781
-0.133216
-0.126716
-0.12667
-0.10845
-0.0802858
-0.0837332
-0.0797055
-0.0797386
-0.0371217
-0.0275061
-0.0287098
-0.027392
-0.0274855
0.0370097
0.0273069
0.0283991
0.0268637
0.026703
0.108339
0.0800963
0.0834386
0.0792017
0.0790028
0.172583
0.127618
0.13296
0.126273
0.126034
0.224796
0.1663
0.173316
0.164697
0.164451
0.262001
0.193853
0.202046
0.192056
0.191799
0.281069
0.208039
0.216884
0.206268
0.206032
0.281282
0.208228
0.217098
0.206532
0.206315
0.26201
0.194027
0.202339
0.192585
0.192419
0.225167
0.166755
0.173906
0.165558
0.165441
0.172644
0.127896
0.133416
0.127072
0.127033
0.108646
0.080477
0.0839555
0.0799819
0.0800061
0.036922
0.0273718
0.0285958
0.0273102
0.0274124
-0.0370073
-0.0274102
-0.0285499
-0.0271038
-0.0269504
-0.10871
-0.080492
-0.0838838
-0.0797428
-0.079534
-0.172688
-0.127882
-0.133316
-0.126797
-0.126566
-0.225175
-0.166711
-0.173781
-0.16527
-0.165013
-0.262022
-0.193987
-0.202234
-0.19235
-0.192101
-0.281281
-0.2082
-0.217035
-0.206404
-0.206159
)
;

boundaryField
{
    out
    {
        type            implicitExtrapolation;
    }
    in
    {
        type            implicitExtrapolation;
    }
    frontAndBack
    {
        type            empty;
    }
}


// ************************************************************************* //
