/*--------------------------------*- C++ -*----------------------------------*\
| =========                 |                                                 |
| \\      /  F ield         | foam-extend: Open Source CFD                    |
|  \\    /   O peration     | Version:  3.0                                   |
|   \\  /    A nd           | Web:         http://www.extend-project.de       |
|    \\/     M anipulation  |                                                 |
\*---------------------------------------------------------------------------*/
FoamFile
{
    version     2.0;
    format      ascii;
    class       volSymmTensorField;
    location    "9";
    object      sigma;
}
// * * * * * * * * * * * * * * * * * * * * * * * * * * * * * * * * * * * * * //

dimensions      [0 0 0 0 0 0 0];

internalField   nonuniform List<symmTensor> 
120
(
(-0.131046 -0.0229331 1.93137e-19 0.131316 -7.52586e-21 -0.000269268)
(-0.0931894 -0.0229554 5.32886e-19 0.0937565 4.38952e-19 -0.00056703)
(-0.0543926 -0.0185235 1.17889e-18 0.0551166 -6.06725e-19 -0.000723978)
(-0.0231702 -0.0147293 -8.61345e-19 0.0238456 5.88704e-20 -0.000675472)
(-0.000592836 -0.0120737 -9.2307e-19 0.000915932 2.57647e-21 -0.000323096)
(-0.111715 -0.0630312 3.36699e-19 0.111884 -9.89683e-20 -0.00016868)
(-0.0682441 -0.0584827 1.65653e-18 0.0685971 -7.80848e-19 -0.000352936)
(-0.0316746 -0.0442978 9.86174e-19 0.0321197 -1.6065e-18 -0.000445114)
(-0.00286389 -0.0321435 1.39819e-18 0.00326976 -1.04102e-18 -0.00040587)
(0.0177279 -0.0230577 7.38296e-19 -0.0175433 -1.37211e-18 -0.000184543)
(-0.0804055 -0.0883498 1.26855e-20 0.0804612 -2.96082e-19 -5.56738e-05)
(-0.0310611 -0.0714843 -3.42278e-19 0.0311746 -1.29368e-18 -0.000113469)
(0.000845581 -0.048224 -1.319e-18 -0.000710604 -1.68973e-18 -0.000134977)
(0.0250119 -0.029011 -1.95409e-18 -0.0249037 -1.83042e-18 -0.000108231)
(0.0418015 -0.0148716 -3.29662e-18 -0.0417683 5.72839e-19 -3.32581e-05)
(-0.0479533 -0.0971455 -9.69671e-20 0.0478924 -2.13103e-19 6.09222e-05)
(0.00048544 -0.0611283 -5.5607e-19 -0.000618607 -7.55234e-19 0.000133167)
(0.0253907 -0.0301214 -3.03049e-18 -0.0255743 1.84612e-19 0.000183589)
(0.0434105 -0.00566388 -1.04898e-18 -0.0436066 9.30629e-19 0.00019609)
(0.0555062 0.0117735 -5.4707e-19 -0.0556261 1.65484e-18 0.000119892)
(-0.0227359 -0.0949635 6.41096e-20 0.0225629 -1.81892e-19 0.000173016)
(0.0134306 -0.0390081 -7.58885e-19 -0.0138006 -4.78747e-20 0.00036997)
(0.0293317 -0.002288 -8.62089e-20 -0.0298204 4.08918e-19 0.00048874)
(0.0404254 0.0255127 -3.82964e-19 -0.0409116 9.86415e-19 0.000486231)
(0.0477257 0.0447222 2.90805e-18 -0.0479902 -3.63051e-20 0.000264477)
(-0.00648358 -0.0906605 -2.5047e-19 0.00621064 -8.52399e-20 0.000272945)
(0.00693849 -0.0219808 -1.00856e-18 -0.00751928 2.00069e-19 0.000580794)
(0.0124638 0.0178008 7.73912e-19 -0.0132234 3.94031e-19 0.000759631)
(0.016335 0.0472172 2.20182e-19 -0.0170773 6.39835e-19 0.000742309)
(0.0190496 0.0671894 6.26121e-19 -0.0194401 -3.12622e-19 0.000390588)
(0.00584861 -0.0906938 -2.45165e-19 -0.00620263 -4.62476e-20 0.000354027)
(-0.00766424 -0.0220336 -5.74244e-19 0.00691269 1.56612e-19 0.000751558)
(-0.0130113 0.0177916 7.0743e-19 0.0120331 3.52147e-19 0.000978144)
(-0.0164486 0.0472657 1.89593e-19 0.0155014 4.80296e-19 0.000947153)
(-0.0182676 0.0673494 -1.08374e-18 0.0177779 -2.24363e-19 0.000489738)
(0.0221303 -0.0950653 -3.45732e-19 -0.0225412 -1.12966e-20 0.000410876)
(-0.0140308 -0.0391288 8.86521e-19 0.0131598 3.39514e-19 0.000870938)
(-0.0297734 -0.00228369 -4.79477e-19 0.0286436 7.73641e-20 0.0011298)
(-0.0405051 0.0256704 5.35268e-19 0.0394179 -6.08467e-20 0.00108717)
(-0.0471028 0.0451427 8.40683e-20 0.0465475 -3.95907e-19 0.000555344)
(0.0474095 -0.0973185 -2.16219e-19 -0.0478493 3.07376e-19 0.000439814)
(-0.000892063 -0.061227 -9.61983e-19 -3.91649e-05 5.39778e-19 0.000931228)
(-0.0256727 -0.0300281 -1.88916e-18 0.0244678 3.44512e-19 0.00120489)
(-0.043447 -0.00537171 -1.24522e-18 0.0422934 7.56498e-19 0.00115359)
(-0.0551111 0.0123288 -3.14911e-18 0.0545276 -1.43102e-19 0.000583405)
(0.079959 -0.0885933 1.14118e-19 -0.0803979 4.10498e-19 0.000438955)
(0.0308352 -0.0714746 1.25887e-19 -0.0317638 9.40842e-19 0.000928554)
(-0.000987626 -0.0479722 -6.7475e-19 -0.000211033 1.08516e-18 0.00119866)
(-0.0250281 -0.0285691 1.79945e-18 0.0238857 1.16712e-19 0.00114234)
(-0.0416117 -0.0142793 2.39026e-18 0.0410395 2.55095e-18 0.00057224)
(0.111401 -0.0633365 2.96486e-19 -0.111809 2.26927e-19 0.000408436)
(0.0681279 -0.0583337 5.23986e-19 -0.0689912 2.12751e-19 0.000863253)
(0.0315988 -0.043872 2.13589e-18 -0.0327106 1.19075e-18 0.0011118)
(0.00282499 -0.031566 1.19717e-18 -0.00387954 -4.42916e-19 0.00105456)
(-0.0176989 -0.0224599 2.36274e-18 0.017176 -1.88386e-19 0.00052289)
(0.130894 -0.0232797 1.32829e-19 -0.131245 -5.08709e-22 0.000350241)
(0.0931055 -0.0227108 4.69838e-19 -0.0938451 5.07691e-20 0.000739565)
(0.0543025 -0.0179815 1.68766e-18 -0.0552524 -1.34668e-19 0.000949903)
(0.0230643 -0.0140651 1.42402e-19 -0.0239602 -6.03404e-19 0.000895842)
(0.000479039 -0.011467 -1.05611e-19 -0.000917484 -2.11355e-18 0.000438445)
(0.130974 0.0226922 1.92906e-19 -0.131242 -9.00546e-21 0.000268256)
(0.0932284 0.022118 5.31798e-19 -0.093794 4.36067e-19 0.000565648)
(0.0545564 0.0169588 1.17649e-18 -0.0552799 -6.04536e-19 0.000723548)
(0.0235344 0.0121144 -8.66001e-19 -0.0242109 5.97417e-20 0.000676418)
(0.00130591 0.007856 -9.21267e-19 -0.00163025 -1.08122e-21 0.000324344)
(0.111645 0.0627605 3.36298e-19 -0.111813 -1.00463e-19 0.00016786)
(0.0684956 0.0577693 1.65409e-18 -0.0688485 -7.79421e-19 0.000352875)
(0.0323101 0.0430243 9.84857e-19 -0.0327575 -1.60808e-18 0.00044738)
(0.00409527 0.0300715 1.39504e-18 -0.00450553 -1.03616e-18 0.000410261)
(-0.0154786 0.019765 7.37273e-19 0.0152909 -1.36612e-18 0.000187736)
(0.0803716 0.0880638 1.1329e-20 -0.0804275 -2.97175e-19 5.58456e-05)
(0.0314334 0.0709838 -3.44239e-19 -0.0315489 -1.29719e-18 0.000115537)
(4.23125e-05 0.0474341 -1.32047e-18 -0.000182185 -1.69691e-18 0.000139872)
(-0.0233242 0.0278323 -1.95891e-18 0.0232092 -1.83744e-18 0.000115037)
(-0.0387033 0.013141 -3.28347e-18 0.0386656 5.69736e-19 3.76994e-05)
(0.0479585 0.0968846 -9.88944e-20 -0.0478982 -2.12887e-19 -6.02774e-05)
(-0.000114844 0.0608723 -5.59728e-19 0.000245248 -7.54051e-19 -0.000130403)
(-0.0245254 0.0298648 -3.02981e-18 0.0247037 1.83502e-19 -0.000178328)
(-0.0417727 0.00546169 -1.04922e-18 0.0419621 9.34768e-19 -0.000189453)
(-0.052451 -0.0117489 -5.4895e-19 0.0525668 1.65349e-18 -0.000115787)
(0.0227447 0.0947553 6.20317e-20 -0.0225723 -1.81137e-19 -0.000172446)
(-0.0131823 0.0389625 -7.60451e-19 0.0135502 -4.57506e-20 -0.000367898)
(-0.0287411 0.00247561 -9.14428e-20 0.0292262 4.14321e-19 -0.000485027)
(-0.0392934 -0.0249089 -3.81644e-19 0.0397752 9.8981e-19 -0.000481799)
(-0.0455615 -0.043211 2.88359e-18 0.0458232 -2.88958e-20 -0.00026176)
(0.00645106 0.0904902 -2.51445e-19 -0.00617801 -8.48322e-20 -0.000273052)
(-0.00690031 0.0220566 -1.00871e-18 0.007481 2.01263e-19 -0.000580684)
(-0.012321 -0.0173612 7.70298e-19 0.0130801 3.96738e-19 -0.000759156)
(-0.0160187 -0.0461572 2.19509e-19 0.0167604 6.4105e-19 -0.000741766)
(-0.0183765 -0.0648273 6.30598e-19 0.0187667 -3.14866e-19 -0.000390189)
(-0.00593722 0.0905149 -2.45839e-19 0.0062922 -4.62033e-20 -0.000354974)
(0.00746008 0.02211 -5.74184e-19 -0.00670635 1.5706e-19 -0.000753733)
(0.0126409 -0.0173465 7.03583e-19 -0.0116597 3.53164e-19 -0.00098114)
(0.0158328 -0.0461945 1.88953e-19 -0.0148823 4.84527e-19 -0.000950528)
(0.0172255 -0.0649778 -1.07709e-18 -0.016734 -2.28032e-19 -0.000491477)
(-0.0222454 0.0948401 -3.46009e-19 0.0226581 -1.17433e-20 -0.000412763)
(0.0136155 0.0390846 8.80908e-19 -0.0127401 3.37283e-19 -0.00087538)
(0.0289457 0.00248224 -4.85517e-19 -0.0278096 7.48658e-20 -0.00113609)
(0.0390536 -0.0250443 5.21284e-19 -0.0379594 -6.42874e-20 -0.00109418)
(0.044552 -0.0436121 6.55817e-20 -0.0439928 -4.03998e-19 -0.000559157)
(-0.0475062 0.0970494 -2.1649e-19 0.0479484 3.07898e-19 -0.000442258)
(0.000352929 0.0609721 -9.63812e-19 0.000584046 5.42441e-19 -0.000936975)
(0.0245599 0.0297774 -1.89062e-18 -0.0233471 3.49613e-19 -0.00121284)
(0.041469 0.00518066 -1.25015e-18 -0.0403068 7.659e-19 -0.00116218)
(0.051651 -0.0122943 -3.13176e-18 -0.0510632 -1.37631e-19 -0.000587885)
(-0.080017 0.0883167 1.14054e-19 0.0804587 4.11529e-19 -0.000441752)
(-0.0313767 0.0709743 1.24543e-19 0.0323115 9.44264e-19 -0.000934784)
(-0.000148854 0.0471778 -6.68787e-19 0.0013558 1.09748e-18 -0.00120695)
(0.0229991 0.0273794 1.80851e-18 -0.0218481 1.25268e-19 -0.00115099)
(0.0381075 0.0125396 2.40651e-18 -0.0375308 2.57298e-18 -0.000576706)
(-0.111438 0.0630836 2.9641e-19 0.11185 2.27817e-19 -0.000411149)
(-0.0685481 0.0576198 5.24733e-19 0.0694169 2.16535e-19 -0.000868742)
(-0.0324746 0.0425884 2.13753e-18 0.0335929 1.19278e-18 -0.00111831)
(-0.00437913 0.0294719 1.20538e-18 0.0054398 -4.39377e-19 -0.00106067)
(0.0150594 0.0191491 2.35417e-18 -0.0145338 -2.06508e-19 -0.000525614)
(-0.130944 0.0230479 1.32998e-19 0.131297 1.10694e-21 -0.000353014)
(-0.0933127 0.0218734 4.71242e-19 0.0940566 5.48756e-20 -0.000743895)
(-0.0546985 0.0164116 1.68937e-18 0.0556521 -1.36158e-19 -0.000953663)
(-0.023733 0.0114392 1.47969e-19 0.0246314 -6.0214e-19 -0.000898467)
(-0.00156691 0.00724148 -1.06775e-19 0.00200623 -2.11079e-18 -0.000439322)
)
;

boundaryField
{
    out
    {
        type            mySigma;
    }
    in
    {
        type            mySigma;
    }
    frontAndBack
    {
        type            empty;
    }
}


// ************************************************************************* //
