/*--------------------------------*- C++ -*----------------------------------*\
| =========                 |                                                 |
| \\      /  F ield         | foam-extend: Open Source CFD                    |
|  \\    /   O peration     | Version:  3.0                                   |
|   \\  /    A nd           | Web:         http://www.extend-project.de       |
|    \\/     M anipulation  |                                                 |
\*---------------------------------------------------------------------------*/
FoamFile
{
    version     2.0;
    format      ascii;
    class       volVectorField;
    location    "1.7";
    object      s;
}
// * * * * * * * * * * * * * * * * * * * * * * * * * * * * * * * * * * * * * //

dimensions      [0 0 0 0 0 0 0];

internalField   nonuniform List<vector> 
400
(
(-0.00137865 -0.000155202 3.88981e-318)
(-0.00155041 0.000618952 6.97174e-318)
(-0.00216949 0.0011455 8.07565e-318)
(-0.002752 0.0016642 8.20918e-318)
(-0.00353963 0.00174821 7.79524e-318)
(-0.00430617 0.00165392 7.1206e-318)
(-0.00504642 0.00129616 6.17835e-318)
(-0.00565866 0.000803216 5.24568e-318)
(-0.00609772 0.000182887 4.20713e-318)
(-0.00631928 -0.000496659 3.31408e-318)
(-0.00629797 -0.0012131 2.40074e-318)
(-0.00602665 -0.00191588 1.68125e-318)
(-0.00550889 -0.00258067 9.57089e-319)
(-0.00477919 -0.0031381 4.20114e-319)
(-0.00385892 -0.00357496 -1.36594e-319)
(-0.00285308 -0.0037696 -5.32766e-319)
(-0.00173452 -0.00378983 -9.19031e-319)
(-0.000763805 -0.00338517 -1.17464e-318)
(0.000311342 -0.00280135 -1.15512e-318)
(0.000778131 -0.0013936 -7.85629e-319)
(-0.00151951 0.000875442 3.69096e-318)
(-0.00196684 0.00244843 8.04891e-318)
(-0.00338729 0.00344295 1.03175e-317)
(-0.00438018 0.00404414 1.13578e-317)
(-0.00560866 0.00409479 1.13775e-317)
(-0.00661286 0.00378315 1.08751e-317)
(-0.00754325 0.00311573 9.82126e-318)
(-0.00825633 0.00220507 8.62005e-318)
(-0.0087518 0.00110518 7.16272e-318)
(-0.00897956 -0.000108115 5.79596e-318)
(-0.00892214 -0.00137305 4.34787e-318)
(-0.00857155 -0.00262146 3.10817e-318)
(-0.00792551 -0.00378756 1.85452e-318)
(-0.00702478 -0.00478793 8.38914e-319)
(-0.00586018 -0.00555669 -1.82142e-319)
(-0.00458548 -0.00596998 -9.65498e-319)
(-0.00306739 -0.00599038 -1.71488e-318)
(-0.00180142 -0.00539149 -2.16121e-318)
(-0.000187954 -0.00417234 -2.22478e-318)
(0.000392428 -0.00187777 -1.44368e-318)
(-0.00131354 0.00236853 3.23851e-318)
(-0.00179169 0.00557611 7.52469e-318)
(-0.00339335 0.00741838 9.9805e-318)
(-0.00456639 0.00829987 1.11894e-317)
(-0.00598813 0.00823305 1.13918e-317)
(-0.00708325 0.00751505 1.09861e-317)
(-0.00807257 0.0062245 1.00389e-317)
(-0.00878827 0.00454394 8.86986e-318)
(-0.00927965 0.0025689 7.45281e-318)
(-0.00950247 0.000417942 6.04588e-318)
(-0.00945574 -0.00181696 4.56381e-318)
(-0.00913113 -0.00403104 3.21487e-318)
(-0.00850813 -0.00612293 1.87108e-318)
(-0.00762111 -0.00795297 7.12235e-319)
(-0.00641102 -0.00939697 -3.99996e-319)
(-0.00505711 -0.0102286 -1.28056e-318)
(-0.00335548 -0.0103187 -2.00892e-318)
(-0.00191777 -0.00929032 -2.35106e-318)
(-0.000106729 -0.00704156 -2.18005e-318)
(0.000558432 -0.00301936 -1.13918e-318)
(-0.00131917 0.00339839 2.16503e-318)
(-0.00172676 0.0078985 5.62279e-318)
(-0.00332287 0.0103081 7.94103e-318)
(-0.00437345 0.0112961 9.28962e-318)
(-0.00566917 0.011031 9.76997e-318)
(-0.00656147 0.00994856 9.62704e-318)
(-0.00736163 0.00820069 8.97318e-318)
(-0.00789591 0.0060161 8.01452e-318)
(-0.00826428 0.00351237 6.82082e-318)
(-0.00843169 0.000816178 5.54758e-318)
(-0.00841246 -0.00197629 4.21729e-318)
(-0.00819829 -0.00475868 2.94375e-318)
(-0.0077508 -0.00742178 1.71545e-318)
(-0.00709421 -0.00980697 6.24514e-319)
(-0.00611288 -0.0117573 -3.4674e-319)
(-0.00498929 -0.0129758 -1.09747e-318)
(-0.00341594 -0.0132539 -1.62013e-318)
(-0.00207439 -0.0120543 -1.77413e-318)
(-0.000192819 -0.00917999 -1.49907e-318)
(0.000508692 -0.00388639 -6.68644e-319)
(-0.00130368 0.00474949 2.10154e-318)
(-0.00159669 0.010679 5.14524e-318)
(-0.00315806 0.0136336 7.11744e-318)
(-0.00403003 0.014667 8.22848e-318)
(-0.00516141 0.0141182 8.62925e-318)
(-0.00581781 0.0125998 8.49056e-318)
(-0.00641435 0.0103313 7.92612e-318)
(-0.00676137 0.00759918 7.0843e-318)
(-0.00701116 0.00453436 6.03467e-318)
(-0.00713287 0.00126949 4.8911e-318)
(-0.00715509 -0.00210625 3.687e-318)
(-0.00706914 -0.00549222 2.50613e-318)
(-0.0068153 -0.00878304 1.35768e-318)
(-0.00641168 -0.0118044 3.07793e-319)
(-0.00567512 -0.0143751 -6.37641e-319)
(-0.00480441 -0.016113 -1.4047e-318)
(-0.00335958 -0.0167311 -1.9521e-318)
(-0.00213213 -0.0154704 -2.17001e-318)
(-0.000162157 -0.0120042 -1.92208e-318)
(0.000511631 -0.00520254 -9.79589e-319)
(-0.00138032 0.005944 1.55034e-318)
(-0.00153062 0.0131068 4.03769e-318)
(-0.00298493 0.0163958 5.78714e-318)
(-0.00353498 0.0173353 6.85574e-318)
(-0.00436155 0.0164355 7.3085e-318)
(-0.00464809 0.0145027 7.27338e-318)
(-0.00493612 0.0118094 6.84669e-318)
(-0.0050176 0.00868519 6.1438e-318)
(-0.00509978 0.00525683 5.24401e-318)
(-0.00515243 0.00164494 4.23417e-318)
(-0.0052185 -0.00208619 3.1668e-318)
(-0.00528987 -0.00586072 2.10479e-318)
(-0.00528683 -0.00959719 1.08213e-318)
(-0.00522658 -0.013128 1.51056e-319)
(-0.00485203 -0.0162693 -6.54889e-319)
(-0.00438309 -0.0185697 -1.27224e-318)
(-0.00320983 -0.0196728 -1.65188e-318)
(-0.00224171 -0.0185549 -1.70264e-318)
(-0.000228168 -0.0147283 -1.36728e-318)
(0.000403313 -0.00649316 -5.78245e-319)
(-0.00153777 0.00731334 1.69675e-318)
(-0.00139993 0.0155563 4.0107e-318)
(-0.00268253 0.0189936 5.48913e-318)
(-0.00276603 0.0196913 6.31311e-318)
(-0.00319369 0.0183815 6.62337e-318)
(-0.00302293 0.0160352 6.51854e-318)
(-0.00294679 0.0129707 6.09428e-318)
(-0.00272207 0.00953924 5.43603e-318)
(-0.00261133 0.00585426 4.61118e-318)
(-0.00257892 0.00201243 3.68658e-318)
(-0.00268198 -0.00195441 2.70896e-318)
(-0.00291518 -0.00600637 1.72828e-318)
(-0.00318218 -0.0100956 7.77635e-319)
(-0.00350982 -0.0140793 -1.03561e-319)
(-0.00356468 -0.0177835 -8.82278e-319)
(-0.00361155 -0.0207148 -1.51335e-318)
(-0.00282271 -0.0224478 -1.93796e-318)
(-0.00229618 -0.0217005 -2.08485e-318)
(-0.000277612 -0.0177344 -1.81607e-318)
(0.000137026 -0.00811654 -9.31067e-319)
(-0.00171981 0.00861366 1.37835e-318)
(-0.00115203 0.0175922 3.41035e-318)
(-0.00211664 0.0209647 4.77853e-318)
(-0.00159322 0.0212852 5.57825e-318)
(-0.0015144 0.0195617 5.8907e-318)
(-0.000810982 0.016861 5.81766e-318)
(-0.000317783 0.0135451 5.44136e-318)
(0.000248893 0.00995493 4.8429e-318)
(0.000579473 0.00618478 4.08902e-318)
(0.000718226 0.00229515 3.23972e-318)
(0.00059461 -0.00171949 2.34295e-318)
(0.000208946 -0.00586471 1.44299e-318)
(-0.000333054 -0.0101338 5.76772e-319)
(-0.00107569 -0.0144297 -2.16677e-319)
(-0.00162015 -0.0185997 -8.99624e-319)
(-0.00228681 -0.0221547 -1.42363e-318)
(-0.00202291 -0.0245972 -1.7364e-318)
(-0.00212953 -0.0244503 -1.76086e-318)
(-0.000247721 -0.020615 -1.42631e-318)
(-0.000208806 -0.00986613 -6.37216e-319)
(-0.00186569 0.00982103 1.53325e-318)
(-0.000660424 0.0191031 3.51336e-318)
(-0.00116204 0.0222673 4.71935e-318)
(7.94976e-05 0.0221214 5.34832e-318)
(0.000725346 0.0200446 5.5476e-318)
(0.00198719 0.0170733 5.4047e-318)
(0.00290986 0.0136335 5.00549e-318)
(0.00382269 0.0100166 4.41628e-318)
(0.00438318 0.00630499 3.69543e-318)
(0.00464611 0.00251368 2.89325e-318)
(0.00453003 -0.00139606 2.05204e-318)
(0.00402836 -0.00548052 1.20956e-318)
(0.0032463 -0.0097718 3.98469e-319)
(0.00211565 -0.0142384 -3.49833e-319)
(0.00107838 -0.0187455 -1.00375e-318)
(-0.000254157 -0.0228727 -1.52897e-318)
(-0.000615109 -0.0260206 -1.87424e-318)
(-0.00155236 -0.0266752 -1.98383e-318)
(2.56294e-05 -0.0231935 -1.72552e-318)
(-0.000628 -0.0117476 -9.012e-319)
(-0.00179099 0.0106833 1.31937e-318)
(0.000122821 0.0198097 3.15619e-318)
(0.000276457 0.0227029 4.32687e-318)
(0.00223874 0.0220798 4.96114e-318)
(0.00347721 0.0197692 5.15803e-318)
(0.00526163 0.0166426 5.02182e-318)
(0.0065959 0.0132204 4.63445e-318)
(0.00783127 0.00971063 4.0675e-318)
(0.00861853 0.00619551 3.37956e-318)
(0.00901851 0.00264045 2.61982e-318)
(0.00894339 -0.00101935 1.82889e-318)
(0.00837977 -0.00489033 1.04302e-318)
(0.00741965 -0.00903707 2.93974e-319)
(0.0059752 -0.0135076 -3.85855e-319)
(0.00449021 -0.0181742 -9.64184e-319)
(0.00253293 -0.0227529 -1.40245e-318)
(0.0014872 -0.0264988 -1.65748e-318)
(-0.000346462 -0.0280607 -1.66805e-318)
(0.000659564 -0.0250759 -1.36541e-318)
(-0.000824994 -0.0134515 -6.43871e-319)
(-0.00144708 0.0109631 1.43938e-318)
(0.0011631 0.019532 3.27148e-318)
(0.00210984 0.0222118 4.34396e-318)
(0.0047336 0.0211821 4.86138e-318)
(0.0065504 0.0188056 4.97631e-318)
(0.00878665 0.0156507 4.78357e-318)
(0.0104909 0.0123807 4.37051e-318)
(0.0120048 0.00909051 3.80148e-318)
(0.0130033 0.00588074 3.13057e-318)
(0.0135473 0.0026662 2.40132e-318)
(0.0135502 -0.000632256 1.65145e-318)
(0.0129933 -0.00416732 9.12406e-319)
(0.0119423 -0.00802364 2.13817e-319)
(0.010299 -0.012337 -4.17574e-319)
(0.00845735 -0.016966 -9.53957e-319)
(0.00597928 -0.0218264 -1.36851e-318)
(0.00423982 -0.0259603 -1.62204e-318)
(0.00149834 -0.0284213 -1.68211e-318)
(0.00168462 -0.0259174 -1.44629e-318)
(-0.000793523 -0.0146824 -7.67511e-319)
(-0.00072481 0.0106392 1.28595e-318)
(0.00231516 0.0184306 3.04941e-318)
(0.0042101 0.0209345 4.11645e-318)
(0.00732119 0.0196114 4.64153e-318)
(0.00968764 0.0173085 4.74395e-318)
(0.0122637 0.0142406 4.54238e-318)
(0.0142803 0.0112277 4.12538e-318)
(0.0160091 0.00824285 3.56413e-318)
(0.0171903 0.00541379 2.91282e-318)
(0.0178742 0.00261025 2.21494e-318)
(0.0179854 -0.000252243 1.50533e-318)
(0.0175039 -0.00336221 8.14774e-319)
(0.0164563 -0.0068137 1.7112e-319)
(0.0147536 -0.010826 -3.9758e-319)
(0.0126752 -0.0152308 -8.625e-319)
(0.00985929 -0.0201795 -1.19289e-318)
(0.0074532 -0.0244741 -1.35543e-318)
(0.00399199 -0.027732 -1.31349e-318)
(0.00302809 -0.0257123 -1.03126e-318)
(-0.000189368 -0.0152997 -4.74165e-319)
(0.000115458 0.00951588 1.37628e-318)
(0.00333607 0.0164706 3.1563e-318)
(0.00620504 0.0188791 4.14613e-318)
(0.00966577 0.0174294 4.57036e-318)
(0.0125418 0.0153372 4.59893e-318)
(0.0153595 0.0124729 4.3465e-318)
(0.0176239 0.0098047 3.90704e-318)
(0.0194973 0.00719164 3.34526e-318)
(0.0208201 0.00479139 2.71116e-318)
(0.0216276 0.00243919 2.04361e-318)
(0.0218671 5.40572e-05 1.37411e-318)
(0.0215212 -0.00257403 7.29824e-319)
(0.02057 -0.00553734 1.36985e-319)
(0.018948 -0.00912203 -3.7921e-319)
(0.0167651 -0.0131251 -7.91913e-319)
(0.0137961 -0.0179319 -1.07817e-318)
(0.0107797 -0.0221011 -1.20662e-318)
(0.00674762 -0.0259006 -1.16908e-318)
(0.00444223 -0.0241885 -9.18888e-319)
(0.000568223 -0.0148784 -4.37179e-319)
(0.00104415 0.00818424 1.29018e-318)
(0.0040471 0.014288 3.03554e-318)
(0.00791825 0.0164674 3.99514e-318)
(0.0115215 0.0149941 4.39098e-318)
(0.0148446 0.0131506 4.38226e-318)
(0.0177718 0.0105701 4.10764e-318)
(0.0201939 0.00829122 3.66146e-318)
(0.0221202 0.00608621 3.11e-318)
(0.0235237 0.00412825 2.50153e-318)
(0.0244199 0.00223304 1.87022e-318)
(0.0247897 0.000327591 1.24529e-318)
(0.0246217 -0.00180238 6.51401e-319)
(0.0238494 -0.00424073 1.12647e-319)
(0.0224463 -0.00731383 -3.44556e-319)
(0.0203109 -0.0107962 -6.92744e-319)
(0.0174335 -0.0152677 -9.0413e-319)
(0.0139252 -0.0191399 -9.48058e-319)
(0.00969516 -0.0232716 -8.08973e-319)
(0.00581955 -0.0220251 -4.99649e-319)
(0.00189737 -0.0141303 -1.11654e-319)
(0.00159794 0.00634716 1.39497e-318)
(0.0043259 0.011696 3.1259e-318)
(0.00899862 0.0135881 3.96747e-318)
(0.0126679 0.0122583 4.23731e-318)
(0.0163348 0.0107201 4.14906e-318)
(0.0192667 0.00852232 3.83217e-318)
(0.0217392 0.00667133 3.37829e-318)
(0.0236223 0.00490084 2.84321e-318)
(0.0250303 0.00337961 2.26814e-318)
(0.0259641 0.00192545 1.68167e-318)
(0.0264464 0.000475862 1.10815e-318)
(0.0264716 -0.00116688 5.69006e-319)
(0.0259375 -0.00307485 8.54388e-320)
(0.0248526 -0.00557294 -3.18564e-319)
(0.0229043 -0.00843557 -6.1696e-319)
(0.0202927 -0.0123383 -7.86775e-319)
(0.0164498 -0.0156721 -7.98128e-319)
(0.012166 -0.0196828 -6.53135e-319)
(0.00684599 -0.0186422 -3.59788e-319)
(0.00272774 -0.0120276 -1.85769e-320)
(0.0018017 0.00497866 1.43511e-318)
(0.00409261 0.00941657 3.05345e-318)
(0.00939013 0.0108213 3.76768e-318)
(0.012946 0.00964283 3.94523e-318)
(0.0167736 0.0083864 3.80045e-318)
(0.0195407 0.00660936 3.4669e-318)
(0.0219095 0.00518568 3.02542e-318)
(0.0236299 0.00384149 2.52452e-318)
(0.0249469 0.00272483 1.99797e-318)
(0.0258519 0.00166794 1.46921e-318)
(0.026408 0.000624394 9.57109e-319)
(0.026616 -0.000576645 4.80306e-319)
(0.0263565 -0.00198821 5.68126e-320)
(0.0256708 -0.00390771 -2.91044e-319)
(0.0240718 -0.00612807 -5.38077e-319)
(0.0219727 -0.00934786 -6.5773e-319)
(0.018094 -0.0120946 -6.22093e-319)
(0.0142787 -0.015851 -4.18978e-319)
(0.00763912 -0.0153696 -9.67924e-320)
(0.00424912 -0.0106841 1.99588e-319)
(0.00175701 0.00354903 1.49035e-318)
(0.00363788 0.00699827 2.93517e-318)
(0.00908701 0.00783904 3.46277e-318)
(0.0124015 0.00696922 3.50745e-318)
(0.0161213 0.00602968 3.31231e-318)
(0.0185717 0.00474594 2.97911e-318)
(0.0206726 0.00374655 2.57385e-318)
(0.022119 0.00281488 2.1308e-318)
(0.0232494 0.00205683 1.67432e-318)
(0.0240482 0.00134324 1.22139e-318)
(0.0246226 0.000640004 7.86172e-319)
(0.0249583 -0.000179254 3.83765e-319)
(0.0249651 -0.00115492 2.84582e-320)
(0.0246658 -0.00251102 -2.61351e-319)
(0.0235156 -0.00409622 -4.64792e-319)
(0.0219898 -0.00647444 -5.60068e-319)
(0.0183823 -0.00849239 -5.241e-319)
(0.0150516 -0.0114042 -3.56626e-319)
(0.00785116 -0.011003 -9.57746e-320)
(0.00444481 -0.00723032 1.62829e-319)
(0.000622623 0.00248328 1.68641e-318)
(0.00261348 0.00506215 2.7559e-318)
(0.00789387 0.00539743 3.02422e-318)
(0.0107918 0.0047402 2.9399e-318)
(0.0140847 0.00409189 2.70619e-318)
(0.016013 0.00325391 2.39293e-318)
(0.017663 0.00263625 2.04259e-318)
(0.0187319 0.00205735 1.67455e-318)
(0.0195832 0.00160132 1.30438e-318)
(0.0202159 0.00116147 9.41823e-319)
(0.0207349 0.000736122 5.96268e-319)
(0.0211459 0.000222998 2.77942e-319)
(0.0213637 -0.000379372 -2.65807e-321)
(0.0214462 -0.00124773 -2.31875e-319)
(0.0208156 -0.00224774 -3.91394e-319)
(0.0200573 -0.00384597 -4.61018e-319)
(0.0170989 -0.00517806 -4.22001e-319)
(0.01495 -0.00746005 -2.60466e-319)
(0.00756725 -0.00747064 -2.99305e-320)
(0.00602556 -0.00608821 1.84188e-319)
(0.000827025 0.00214605 1.06875e-318)
(0.00156988 0.00288027 1.78965e-318)
(0.0057115 0.00288685 1.95849e-318)
(0.00766053 0.00263735 1.8888e-318)
(0.010003 0.00233363 1.73545e-318)
(0.0112454 0.00196665 1.53204e-318)
(0.0122951 0.00167444 1.30648e-318)
(0.0129314 0.00139754 1.07017e-318)
(0.0134551 0.00116945 8.32254e-319)
(0.0138385 0.000941884 5.99623e-319)
(0.01423 0.000715268 3.77698e-319)
(0.0145389 0.000439938 1.73195e-319)
(0.0148488 0.000111209 -6.35862e-321)
(0.0150243 -0.00034085 -1.52454e-319)
(0.0148597 -0.000877206 -2.54261e-319)
(0.0145157 -0.0016575 -3.00194e-319)
(0.0126676 -0.0023604 -2.80886e-319)
(0.0112389 -0.00329994 -1.99024e-319)
(0.00587783 -0.00329224 -9.20444e-320)
(0.00433731 -0.00141277 1.25344e-320)
(-0.000875627 0.000983303 1.41131e-318)
(0.000946784 0.00210622 1.41418e-318)
(0.0037057 0.00165946 1.24902e-318)
(0.00464906 0.00148189 1.06373e-318)
(0.00590951 0.00132576 9.06729e-319)
(0.00627882 0.00117652 7.60239e-319)
(0.00668492 0.00111745 6.24301e-319)
(0.00684268 0.00103233 4.9575e-319)
(0.00700694 0.000998937 3.73934e-319)
(0.00717325 0.000931576 2.59073e-319)
(0.00733857 0.000899765 1.51135e-319)
(0.00762006 0.000815601 5.11951e-320)
(0.00782805 0.000766485 -3.8631e-320)
(0.00825455 0.000620115 -1.15374e-319)
(0.00830008 0.000535938 -1.7404e-319)
(0.00877623 0.000217487 -2.07458e-319)
(0.00777163 0.000114525 -2.06762e-319)
(0.00814916 -0.000685235 -1.61298e-319)
(0.00378985 -0.000613149 -9.11403e-320)
(0.00536334 -0.00187564 -3.12744e-321)
)
;

boundaryField
{
    cavity
    {
        type            myHeatFlux;
        ThetaWall       uniform 0;
        value           nonuniform List<vector> 
60
(
(0.001 0 0)
(0.001 0 0)
(0.001 0 0)
(0.001 0 0)
(0.001 0 0)
(0.001 0 0)
(0.001 0 0)
(0.001 0 0)
(0.001 0 0)
(0.001 0 0)
(0.001 0 0)
(0.001 0 0)
(0.001 0 0)
(0.001 0 0)
(0.001 0 0)
(0.001 0 0)
(0.001 0 0)
(0.001 0 0)
(0.001 0 0)
(0.001 0 0)
(0 -0.001 0)
(0 -0.001 0)
(0 -0.001 0)
(0 -0.001 0)
(0 -0.001 0)
(0 -0.001 0)
(0 -0.001 0)
(0 -0.001 0)
(0 -0.001 0)
(0 -0.001 0)
(0 -0.001 0)
(0 -0.001 0)
(0 -0.001 0)
(0 -0.001 0)
(0 -0.001 0)
(0 -0.001 0)
(0 -0.001 0)
(0 -0.001 0)
(0 -0.001 0)
(0 -0.001 0)
(-0.001 0 0)
(-0.001 0 0)
(-0.001 0 0)
(-0.001 0 0)
(-0.001 0 0)
(-0.001 0 0)
(-0.001 0 0)
(-0.001 0 0)
(-0.001 0 0)
(-0.001 0 0)
(-0.001 0 0)
(-0.001 0 0)
(-0.001 0 0)
(-0.001 0 0)
(-0.001 0 0)
(-0.001 0 0)
(-0.001 0 0)
(-0.001 0 0)
(-0.001 0 0)
(-0.001 0 0)
)
;
    }
    lid
    {
        type            myHeatFlux;
        ThetaWall       uniform 0;
        value           nonuniform List<vector> 
20
(
(0.000135815 0.0009 0)
(0.000135815 0.0009 0)
(0.000135815 0.0009 0)
(0.000135815 0.0009 0)
(0.000135815 0.0009 0)
(0.000135815 0.0009 0)
(0.000135815 0.0009 0)
(0.000135815 0.0009 0)
(0.000135815 0.0009 0)
(0.000135815 0.0009 0)
(0.000135815 0.0009 0)
(0.000135815 0.0009 0)
(0.000135815 0.0009 0)
(0.000135815 0.0009 0)
(0.000135815 0.0009 0)
(0.000135815 0.0009 0)
(0.000135815 0.0009 0)
(0.000135815 0.0009 0)
(0.000135815 0.0009 0)
(0.000135815 0.0009 0)
)
;
    }
    frontAndBack
    {
        type            empty;
    }
}


// ************************************************************************* //
