/*--------------------------------*- C++ -*----------------------------------*\
| =========                 |                                                 |
| \\      /  F ield         | foam-extend: Open Source CFD                    |
|  \\    /   O peration     | Version:  3.0                                   |
|   \\  /    A nd           | Web:         http://www.extend-project.de       |
|    \\/     M anipulation  |                                                 |
\*---------------------------------------------------------------------------*/
FoamFile
{
    version     2.0;
    format      ascii;
    class       volSymmTensorField;
    location    "1.7";
    object      sigma;
}
// * * * * * * * * * * * * * * * * * * * * * * * * * * * * * * * * * * * * * //

dimensions      [0 0 0 0 0 0 0];

internalField   nonuniform List<symmTensor> 
400
(
(0.0183903 -0.0129578 5.52424e-317 -0.0163851 7.32135e-317 -0.00200517)
(0.0440138 -0.0105211 6.08917e-317 -0.0237395 8.03601e-317 -0.0202743)
(0.0566059 -0.0064036 5.88378e-317 -0.0259601 7.27608e-317 -0.0306457)
(0.0625368 -0.00586782 5.53477e-317 -0.0270489 6.38399e-317 -0.0354879)
(0.0609161 -0.00596876 4.87693e-317 -0.0250913 5.07345e-317 -0.0358248)
(0.055336 -0.00801386 4.18437e-317 -0.0223482 4.24053e-317 -0.0329879)
(0.046004 -0.0102507 3.48327e-317 -0.0180571 3.1741e-317 -0.0279469)
(0.0346746 -0.0126908 2.85355e-317 -0.0133722 2.67518e-317 -0.0213023)
(0.0218146 -0.0144914 2.32109e-317 -0.00798778 1.94786e-317 -0.0138268)
(0.00814151 -0.0155431 1.90008e-317 -0.00248265 1.76093e-317 -0.00565885)
(-0.00586381 -0.015589 1.58866e-317 0.00329756 1.30029e-317 0.00256626)
(-0.0198131 -0.0146283 1.37641e-317 0.00895316 1.32859e-317 0.01086)
(-0.0331926 -0.0128818 1.24747e-317 0.0146164 1.03127e-317 0.0185762)
(-0.045214 -0.010466 1.18145e-317 0.0196751 1.17198e-317 0.0255389)
(-0.055318 -0.00821487 1.15549e-317 0.0243761 9.36246e-318 0.0309419)
(-0.061592 -0.00615766 1.12571e-317 0.0274773 1.07973e-317 0.0341147)
(-0.0637074 -0.00605486 1.07809e-317 0.0296685 7.92761e-318 0.034039)
(-0.0578805 -0.00668258 8.36221e-318 0.0285549 7.71898e-318 0.0293257)
(-0.044979 -0.0109351 5.65714e-318 0.0260227 3.22325e-318 0.0189563)
(-0.0186282 -0.0134066 -3.246e-318 0.0179617 -1.93558e-318 0.000666476)
(0.0225898 -0.00899269 1.63655e-317 -0.0385355 3.38104e-317 0.0159458)
(0.046184 -0.00485447 2.39956e-317 -0.0425124 4.8748e-317 -0.00367158)
(0.0576814 -0.000116229 2.95819e-317 -0.0433494 4.95038e-317 -0.014332)
(0.0609038 0.00277234 3.21023e-317 -0.0414869 4.62552e-317 -0.0194169)
(0.0584768 0.00498844 3.20568e-317 -0.037543 3.86653e-317 -0.0209338)
(0.0523461 0.00561972 3.02589e-317 -0.032402 3.31314e-317 -0.0199441)
(0.0433835 0.00583962 2.74247e-317 -0.0259575 2.58376e-317 -0.017426)
(0.0326174 0.00543583 2.42104e-317 -0.0189302 2.19773e-317 -0.0136872)
(0.0206017 0.005179 2.1075e-317 -0.0112022 1.68131e-317 -0.00939952)
(0.00778328 0.00503461 1.83306e-317 -0.00322435 1.51226e-317 -0.00455893)
(-0.00529277 0.00525584 1.61505e-317 0.00503313 1.19353e-317 0.000259636)
(-0.0183672 0.00582547 1.46081e-317 0.0132188 1.19394e-317 0.00514846)
(-0.0308613 0.0064397 1.37054e-317 0.0213313 1.01547e-317 0.00953004)
(-0.0422682 0.00710736 1.33965e-317 0.0288711 1.13062e-317 0.0133971)
(-0.0519539 0.00697812 1.36078e-317 0.0358811 1.04779e-317 0.0160728)
(-0.0587427 0.0062682 1.42171e-317 0.0415072 1.24662e-317 0.0172355)
(-0.061709 0.00373682 1.51693e-317 0.0457956 1.24774e-317 0.0159134)
(-0.0586813 0.000356341 1.60074e-317 0.0476238 1.52196e-317 0.0110575)
(-0.0471189 -0.00497788 1.7146e-317 0.0463987 1.61365e-317 0.000720282)
(-0.0230528 -0.00966608 1.60075e-317 0.0414332 1.75509e-317 -0.0183804)
(0.0234698 -0.0106716 2.10359e-317 -0.0475223 2.71721e-317 0.0240525)
(0.0493784 -0.00353546 2.2764e-317 -0.0540331 3.38599e-317 0.00465471)
(0.0609076 0.00363945 2.44217e-317 -0.0546764 3.49531e-317 -0.00623121)
(0.063599 0.00955564 2.54765e-317 -0.0518447 3.32139e-317 -0.0117543)
(0.0600724 0.0144951 2.51914e-317 -0.0461257 2.92388e-317 -0.0139468)
(0.0529689 0.0174365 2.40801e-317 -0.0390813 2.53335e-317 -0.0138876)
(0.0434406 0.0196218 2.23388e-317 -0.0309412 2.09529e-317 -0.0124994)
(0.0324218 0.0206055 2.0354e-317 -0.0223442 1.77029e-317 -0.0100776)
(0.0206402 0.0214137 1.84019e-317 -0.0134367 1.44863e-317 -0.00720351)
(0.00814154 0.0218781 1.67124e-317 -0.00426903 1.25829e-317 -0.0038725)
(-0.00441158 0.0223658 1.54482e-317 0.00499337 1.06936e-317 -0.000581783)
(-0.0172499 0.0228169 1.47181e-317 0.0144886 9.99132e-318 0.00276137)
(-0.0296631 0.0227961 1.45968e-317 0.0240134 9.12967e-318 0.00564974)
(-0.0415795 0.0223802 1.5137e-317 0.0334689 9.27042e-318 0.00811069)
(-0.0521501 0.0204047 1.63981e-317 0.0426101 9.07851e-318 0.00954001)
(-0.0602888 0.0173213 1.8375e-317 0.050601 9.74739e-318 0.00968782)
(-0.0647297 0.0117432 2.12299e-317 0.0571109 1.00657e-317 0.00761881)
(-0.0624624 0.00487512 2.4504e-317 0.0601341 1.14549e-317 0.00232831)
(-0.0509276 -0.00345224 2.88461e-317 0.059101 1.39372e-317 -0.00817334)
(-0.0241825 -0.0116553 3.20353e-317 0.0510992 2.13718e-317 -0.0269167)
(0.0248293 -0.00913205 7.55845e-318 -0.0557965 1.51033e-317 0.0309671)
(0.0513466 0.000928174 1.01776e-317 -0.0620265 2.16633e-317 0.0106798)
(0.0617492 0.0104244 1.36788e-317 -0.0608084 2.34653e-317 -0.000940765)
(0.0630311 0.0176102 1.61442e-317 -0.0559223 2.315e-317 -0.00710877)
(0.0583055 0.0234392 1.75857e-317 -0.0483838 2.11094e-317 -0.00992171)
(0.0504149 0.0267079 1.79551e-317 -0.0399125 1.8879e-317 -0.0105024)
(0.0408741 0.0291662 1.75784e-317 -0.0310948 1.61544e-317 -0.00977934)
(0.030263 0.030241 1.67585e-317 -0.0221925 1.40302e-317 -0.00807055)
(0.0195085 0.0312301 1.57838e-317 -0.0135779 1.18538e-317 -0.00593062)
(0.00814626 0.0318845 1.48818e-317 -0.00477455 1.04883e-317 -0.00337171)
(-0.0030246 0.0326506 1.42169e-317 0.00388253 9.12861e-318 -0.000857936)
(-0.0147999 0.0334596 1.38949e-317 0.0131101 8.54757e-318 0.00168989)
(-0.0263099 0.0337543 1.3969e-317 0.0225156 7.89929e-318 0.00379433)
(-0.038074 0.0336888 1.44434e-317 0.0325967 7.95392e-318 0.00547728)
(-0.0489705 0.0316981 1.52696e-317 0.042818 7.89553e-318 0.00615254)
(-0.0583308 0.0284086 1.63521e-317 0.0527646 8.56868e-318 0.00556624)
(-0.0644067 0.0216921 1.7492e-317 0.0616401 9.31073e-318 0.00276665)
(-0.0638448 0.0130834 1.85312e-317 0.0671176 1.1179e-317 -0.00327277)
(-0.0535452 0.00158393 1.90529e-317 0.0681438 1.38833e-317 -0.0145986)
(-0.0257374 -0.0105558 1.91407e-317 0.0599599 1.79927e-317 -0.0342224)
(0.0270168 -0.00700633 2.13432e-317 -0.0658288 1.91651e-317 0.038812)
(0.0547813 0.00553232 1.91756e-317 -0.0714598 1.7637e-317 0.0166785)
(0.0642448 0.016832 1.80343e-317 -0.0680441 1.7139e-317 0.00379933)
(0.0640802 0.024434 1.76101e-317 -0.0608029 1.64414e-317 -0.00327732)
(0.0579869 0.0302787 1.70913e-317 -0.0512094 1.52068e-317 -0.0067775)
(0.0491188 0.0328918 1.65214e-317 -0.0411719 1.37816e-317 -0.00794691)
(0.0393751 0.0347538 1.57974e-317 -0.031646 1.21687e-317 -0.00772906)
(0.0289746 0.0351641 1.5021e-317 -0.0224464 1.07283e-317 -0.00652811)
(0.0191021 0.035799 1.42916e-317 -0.0142394 9.36496e-318 -0.00486266)
(0.00869896 0.0363256 1.37268e-317 -0.0058864 8.33611e-318 -0.00281256)
(-0.00121949 0.0373463 1.34292e-317 0.00201363 7.46038e-318 -0.000794149)
(-0.0121465 0.038741 1.34839e-317 0.0109284 6.93795e-318 0.00121814)
(-0.0229597 0.0398993 1.39599e-317 0.0201799 6.56048e-318 0.00277989)
(-0.0349137 0.0409744 1.49083e-317 0.0310428 6.52845e-318 0.00387087)
(-0.0465157 0.0399738 1.63801e-317 0.0426162 6.66612e-318 0.00389947)
(-0.0575967 0.0376355 1.83749e-317 0.0550311 7.25163e-318 0.0025656)
(-0.0658345 0.0307868 2.09942e-317 0.0669936 8.27262e-318 -0.00115914)
(-0.0673845 0.021407 2.39592e-317 0.0757785 1.03207e-317 -0.00839395)
(-0.0583965 0.00708166 2.76189e-317 0.0797948 1.4211e-317 -0.0213984)
(-0.0286682 -0.00870477 3.10295e-317 0.0721469 2.24518e-317 -0.0434787)
(0.0285716 -0.00249759 1.2853e-317 -0.0766768 1.45135e-317 0.0481052)
(0.0561221 0.0123295 1.28004e-317 -0.0793925 1.39199e-317 0.0232704)
(0.0636617 0.0247064 1.35819e-317 -0.0722332 1.30644e-317 0.00857147)
(0.0613113 0.0311418 1.40883e-317 -0.0616037 1.22529e-317 0.000292335)
(0.0538888 0.0354994 1.43806e-317 -0.0498619 1.12882e-317 -0.00402694)
(0.0442855 0.0359316 1.42942e-317 -0.0384924 1.02903e-317 -0.00579312)
(0.0349729 0.0359727 1.39637e-317 -0.028943 9.21925e-318 -0.00602996)
(0.0254824 0.0347674 1.35052e-317 -0.0202545 8.24572e-318 -0.00522794)
(0.0173069 0.0344199 1.30544e-317 -0.0133956 7.323e-318 -0.0039113)
(0.00871631 0.0345143 1.2728e-317 -0.00649868 6.58904e-318 -0.00221763)
(0.000949938 0.0358158 1.26178e-317 -0.000405317 5.96008e-318 -0.000544621)
(-0.00819598 0.0381752 1.27875e-317 0.00711321 5.54795e-318 0.00108277)
(-0.0173211 0.0409467 1.32676e-317 0.0150894 5.26152e-318 0.0022317)
(-0.0285943 0.0443266 1.40524e-317 0.0257703 5.22577e-318 0.00282408)
(-0.0400343 0.0458058 1.50877e-317 0.0377947 5.39679e-318 0.00223959)
(-0.0525323 0.0463103 1.62797e-317 0.0524479 5.99529e-318 8.43796e-05)
(-0.0628359 0.0410848 1.74221e-317 0.0676325 7.14057e-318 -0.0047966)
(-0.067468 0.0327326 1.84343e-317 0.0811791 9.30563e-318 -0.0137111)
(-0.0609646 0.0160522 1.88616e-317 0.0901875 1.28448e-317 -0.0292229)
(-0.0309311 -0.00366842 1.91532e-317 0.0858306 1.788e-317 -0.0548995)
(0.0311527 0.00622191 2.41552e-317 -0.0907491 1.88488e-317 0.0595964)
(0.0573657 0.0211916 2.09044e-317 -0.0878596 1.32093e-317 0.0304939)
(0.0622398 0.0326424 1.83332e-317 -0.0755392 1.06846e-317 0.0132994)
(0.0570406 0.0359286 1.67383e-317 -0.0605813 9.31543e-318 0.00354066)
(0.0483406 0.0371941 1.54389e-317 -0.0466702 8.37444e-318 -0.0016703)
(0.0381305 0.0343196 1.44618e-317 -0.0341088 7.60669e-318 -0.0040217)
(0.029626 0.0316472 1.36318e-317 -0.0249822 6.8893e-318 -0.00464375)
(0.0213802 0.0282755 1.29532e-317 -0.0172187 6.23414e-318 -0.00416154)
(0.0152917 0.0265118 1.24428e-317 -0.0121986 5.62105e-318 -0.00309312)
(0.00886173 0.0258928 1.2149e-317 -0.00719896 5.09937e-318 -0.00166277)
(0.00365105 0.0273396 1.21228e-317 -0.00341699 4.65509e-318 -0.000234066)
(-0.00332744 0.0306017 1.2413e-317 0.00223046 4.33809e-318 0.00109699)
(-0.0102778 0.0352563 1.30603e-317 0.00836366 4.14533e-318 0.00191411)
(-0.0204879 0.0413618 1.40975e-317 0.0184238 4.15347e-318 0.00206407)
(-0.0313308 0.0463654 1.55639e-317 0.0304538 4.41502e-318 0.000877038)
(-0.0452834 0.0511379 1.74614e-317 0.0474522 5.10373e-318 -0.00216879)
(-0.0578699 0.0496626 1.99008e-317 0.066314 6.43798e-318 -0.00844404)
(-0.0668613 0.0450354 2.26699e-317 0.0864402 8.86899e-318 -0.0195789)
(-0.0641963 0.0284189 2.61442e-317 0.102976 1.32204e-317 -0.0387794)
(-0.0351253 0.00743828 2.94633e-317 0.105717 2.14646e-317 -0.0705914)
(0.0322311 0.020736 1.64768e-317 -0.104247 1.56505e-317 0.0720155)
(0.0544192 0.0332179 1.57095e-317 -0.0922311 1.17749e-317 0.0378119)
(0.0562023 0.041201 1.54125e-317 -0.0739563 9.15099e-318 0.017754)
(0.0478607 0.0391731 1.48824e-317 -0.0542844 7.56562e-318 0.00642368)
(0.0386057 0.0357021 1.43344e-317 -0.0389551 6.54662e-318 0.000349409)
(0.0284401 0.0284399 1.36695e-317 -0.0259307 5.83021e-318 -0.00250939)
(0.0215368 0.022278 1.29974e-317 -0.0181021 5.25328e-318 -0.00343469)
(0.0152548 0.016286 1.23854e-317 -0.0120741 4.75878e-318 -0.00318065)
(0.0118547 0.0127933 1.19118e-317 -0.00957749 4.30735e-318 -0.00227722)
(0.00824402 0.0112964 1.16423e-317 -0.00722544 3.90803e-318 -0.00101858)
(0.00617876 0.0128406 1.16298e-317 -0.00643375 3.556e-318 0.000254994)
(0.00216434 0.017072 1.19121e-317 -0.00354898 3.28088e-318 0.00138464)
(-0.00171688 0.023921 1.25067e-317 -0.000251823 3.10188e-318 0.0019687)
(-0.0097664 0.0333054 1.34085e-317 0.00799818 3.087e-318 0.00176822)
(-0.0186658 0.0429081 1.45773e-317 0.0185998 3.32118e-318 6.60104e-05)
(-0.0330323 0.0535552 1.59397e-317 0.0368726 3.98501e-318 -0.00384028)
(-0.0466474 0.0581749 1.73176e-317 0.0582235 5.34342e-318 -0.011576)
(-0.0604764 0.0603867 1.86397e-317 0.0857447 7.84658e-318 -0.0252683)
(-0.0621196 0.0469425 1.94205e-317 0.111092 1.2008e-317 -0.0489727)
(-0.0375895 0.0277899 2.00446e-317 0.126054 1.80709e-317 -0.088465)
(0.0334069 0.0419091 2.49431e-317 -0.117454 1.86685e-317 0.0840473)
(0.0494262 0.0470976 2.17452e-317 -0.0932948 1.15496e-317 0.0438687)
(0.0479317 0.0477596 1.89309e-317 -0.068902 7.99332e-318 0.0209703)
(0.0363219 0.0383833 1.69963e-317 -0.0446093 6.09154e-318 0.00828742)
(0.0271139 0.0286553 1.53616e-317 -0.0287051 5.03979e-318 0.00159124)
(0.0174622 0.0166391 1.40931e-317 -0.0158752 4.40837e-318 -0.00158699)
(0.0126478 0.00664063 1.3044e-317 -0.00998742 3.96552e-318 -0.00266034)
(0.00867897 -0.00191873 1.22194e-317 -0.00615879 3.60371e-318 -0.00252017)
(0.00821982 -0.00724224 1.16258e-317 -0.00654058 3.27006e-318 -0.00167924)
(0.00763617 -0.0097447 1.12926e-317 -0.00713026 2.95511e-318 -0.000505903)
(0.0089159 -0.00835268 1.12522e-317 -0.00961712 2.65936e-318 0.000701213)
(0.00813907 -0.00362116 1.15368e-317 -0.00985959 2.40663e-318 0.00172052)
(0.00773703 0.00510228 1.21755e-317 -0.00991086 2.23115e-318 0.00217383)
(0.00237026 0.0172343 1.3196e-317 -0.00411677 2.20349e-318 0.00174651)
(-0.00382332 0.0317326 1.46384e-317 0.00415149 2.43259e-318 -0.000328167)
(-0.0180599 0.0486765 1.65205e-317 0.0229846 3.1129e-318 -0.00492462)
(-0.0320098 0.0617751 1.89695e-317 0.0459851 4.54627e-318 -0.0139752)
(-0.0514359 0.074169 2.18108e-317 0.0816542 7.22776e-318 -0.0302183)
(-0.0581794 0.0696377 2.54305e-317 0.117147 1.20191e-317 -0.0589675)
(-0.0413362 0.0596373 2.88535e-317 0.149732 2.07471e-317 -0.108396)
(0.0312753 0.0681959 1.81244e-317 -0.123175 1.60667e-317 0.0919002)
(0.0386881 0.062139 1.72923e-317 -0.0857865 1.06549e-317 0.0470985)
(0.035061 0.0521059 1.67292e-317 -0.0574361 7.16228e-318 0.022375)
(0.0211239 0.0340586 1.58152e-317 -0.0301613 5.17175e-318 0.00903736)
(0.0132094 0.0170812 1.48501e-317 -0.0153828 4.07564e-318 0.00217349)
(0.00500013 0.000181609 1.38069e-317 -0.00396076 3.46179e-318 -0.00103938)
(0.00275173 -0.0137528 1.2821e-317 -0.000665247 3.07478e-318 -0.00208648)
(0.00146979 -0.0247573 1.19702e-317 0.000469701 2.77703e-318 -0.00193949)
(0.00388669 -0.0318687 1.13238e-317 -0.00281049 2.50038e-318 -0.0010762)
(0.00636962 -0.0353722 1.09324e-317 -0.00646066 2.22072e-318 9.10345e-05)
(0.0107688 -0.0342219 1.08331e-317 -0.0120793 1.93624e-318 0.00131054)
(0.0133684 -0.0292012 1.10531e-317 -0.0156809 1.66503e-318 0.00231255)
(0.01655 -0.018776 1.16086e-317 -0.01931 1.44102e-318 0.00276006)
(0.0146245 -0.00413325 1.25029e-317 -0.0168939 1.33114e-318 0.00226937)
(0.0121908 0.0155095 1.37218e-317 -0.012267 1.44949e-318 7.61993e-05)
(-0.000255738 0.0392011 1.5231e-317 0.00511689 2.00072e-318 -0.00486116)
(-0.0121525 0.0627161 1.69075e-317 0.0268427 3.3246e-318 -0.0146902)
(-0.0358341 0.087995 1.86981e-317 0.0686364 5.98149e-318 -0.0328024)
(-0.0456183 0.0976921 2.01193e-317 0.111371 1.07152e-317 -0.0657522)
(-0.0406063 0.102919 2.13721e-317 0.164864 1.82166e-317 -0.124258)
(0.0276912 0.0950726 2.45518e-317 -0.119819 1.79715e-317 0.0921282)
(0.0257894 0.0739403 2.1785e-317 -0.071275 1.02406e-317 0.0454856)
(0.0206156 0.05002 1.92475e-317 -0.0415416 6.26223e-318 0.0209261)
(0.00527741 0.0234753 1.73651e-317 -0.0133863 4.20015e-318 0.00810884)
(-0.000722949 -0.000991923 1.56332e-317 -0.00102443 3.18344e-318 0.00174738)
(-0.00694808 -0.0218429 1.41667e-317 0.00808599 2.67703e-318 -0.00113791)
(-0.00648311 -0.039209 1.28929e-317 0.00843257 2.38743e-318 -0.00194946)
(-0.00501963 -0.0519727 1.1854e-317 0.00669506 2.16113e-318 -0.00167543)
(8.14172e-05 -0.0605543 1.10743e-317 0.000623873 1.9295e-318 -0.00070529)
(0.00541163 -0.0649488 1.0584e-317 -0.00593292 1.66842e-318 0.000521284)
(0.0126101 -0.0642751 1.04069e-317 -0.0144283 1.37815e-318 0.00181822)
(0.0183802 -0.0596121 1.0564e-317 -0.0212622 1.07608e-318 0.00288201)
(0.0249819 -0.0483286 1.10776e-317 -0.0284107 7.96582e-319 0.00342875)
(0.0266528 -0.0326119 1.19722e-317 -0.0296986 6.06026e-319 0.00304579)
(0.0283036 -0.0087845 1.32973e-317 -0.0293103 6.21095e-319 0.00100663)
(0.0183915 0.0199829 1.50968e-317 -0.0146055 1.0538e-318 -0.00378599)
(0.00948928 0.054704 1.75415e-317 0.00408271 2.2687e-318 -0.013572)
(-0.0178082 0.0933612 2.05278e-317 0.0499747 4.89163e-318 -0.0321665)
(-0.0303318 0.123694 2.45258e-317 0.0975689 9.98971e-318 -0.067237)
(-0.0395008 0.152363 2.84267e-317 0.172131 1.9684e-317 -0.13263)
(0.0185201 0.117033 1.88099e-317 -0.0986005 1.57989e-317 0.0800804)
(0.00834567 0.0808679 1.8213e-317 -0.0462242 9.3471e-318 0.0378786)
(0.00348571 0.042456 1.77554e-317 -0.020061 5.51142e-318 0.0165753)
(-0.0108532 0.0083044 1.66955e-317 0.005055 3.53463e-318 0.00579816)
(-0.0140835 -0.0232589 1.54379e-317 0.0134137 2.60649e-318 0.000669801)
(-0.0173865 -0.0473679 1.40584e-317 0.0189218 2.1815e-318 -0.00153538)
(-0.0143505 -0.0676511 1.27511e-317 0.0162987 1.95258e-318 -0.00194816)
(-0.0102215 -0.0816965 1.16239e-317 0.0116815 1.76249e-318 -0.00146008)
(-0.0031486 -0.0914163 1.07489e-317 0.00348636 1.54543e-318 -0.000337759)
(0.00443849 -0.096527 1.01668e-317 -0.00542599 1.27813e-318 0.000987508)
(0.0134462 -0.096349 9.90048e-318 -0.0158487 9.62558e-319 0.00240252)
(0.0217574 -0.0922679 9.96162e-318 -0.0253433 6.12251e-319 0.00358591)
(0.0308571 -0.0805317 1.03584e-317 -0.0351872 2.55323e-319 0.00433014)
(0.0361245 -0.0643683 1.10959e-317 -0.0403392 -5.35913e-320 0.00421468)
(0.041712 -0.0369039 1.21802e-317 -0.0443532 -2.12755e-319 0.00264119)
(0.0360184 -0.00385892 1.36149e-317 -0.0345708 -2.11855e-320 -0.00144763)
(0.0320688 0.0423021 1.53677e-317 -0.0219944 8.92757e-319 -0.0100743)
(0.00507374 0.0941766 1.74545e-317 0.0219919 3.22391e-318 -0.0270657)
(-0.00594236 0.148094 1.9557e-317 0.0661466 8.06561e-318 -0.0602043)
(-0.0294645 0.202404 2.17539e-317 0.154051 1.70035e-317 -0.124586)
(0.00795049 0.124942 2.40679e-317 -0.0632646 1.68889e-317 0.0553141)
(-0.0086124 0.0765344 2.18958e-317 -0.0155841 8.55526e-318 0.0241965)
(-0.0134684 0.0248562 1.97845e-317 0.00401747 4.57577e-318 0.00945098)
(-0.0252718 -0.0139839 1.792e-317 0.0230714 2.78966e-318 0.00220045)
(-0.0255799 -0.0510182 1.59976e-317 0.0266277 2.08147e-318 -0.00104785)
(-0.0254752 -0.0766359 1.42352e-317 0.0277779 1.81295e-318 -0.0023027)
(-0.0199939 -0.0985618 1.2662e-317 0.022194 1.67133e-318 -0.00220011)
(-0.0133644 -0.112889 1.13582e-317 0.0148155 1.51728e-318 -0.00145105)
(-0.00476916 -0.123074 1.03565e-317 0.00492344 1.30485e-318 -0.000154287)
(0.0045669 -0.128551 9.67526e-318 -0.00584927 1.02199e-318 0.00128236)
(0.0147543 -0.128934 9.31963e-318 -0.0175819 6.76282e-319 0.00282752)
(0.0250408 -0.125859 9.29034e-318 -0.0291969 2.80684e-319 0.00415606)
(0.036034 -0.11467 9.58891e-318 -0.0411752 -1.42266e-319 0.00514121)
(0.0446478 -0.0996432 1.02246e-317 -0.0500467 -5.4909e-319 0.00539896)
(0.0538692 -0.0706116 1.12377e-317 -0.0583701 -8.53103e-319 0.00450089)
(0.0530015 -0.036598 1.26809e-317 -0.0546039 -8.74605e-319 0.00160242)
(0.0541401 0.0187018 1.47693e-317 -0.049313 -2.5937e-319 -0.00482711)
(0.0291036 0.0790427 1.75056e-317 -0.0111714 1.69805e-318 -0.0179321)
(0.0186572 0.157702 2.1595e-317 0.0258309 6.33633e-318 -0.044488)
(-0.0191905 0.237893 2.60471e-317 0.118708 1.64743e-317 -0.0995175)
(-0.00871752 0.117628 2.00251e-317 -0.00925595 1.50855e-317 0.0179735)
(-0.0263362 0.0619196 1.96147e-317 0.0201941 7.509e-318 0.00614213)
(-0.0303776 0.000838397 1.91116e-317 0.0295035 3.8257e-318 0.000874085)
(-0.0363545 -0.0408443 1.76339e-317 0.0381616 2.34269e-318 -0.00180707)
(-0.0336357 -0.0816601 1.5858e-317 0.0364778 1.83726e-318 -0.00284213)
(-0.0293864 -0.107842 1.40054e-317 0.0324336 1.67632e-318 -0.00304718)
(-0.0220374 -0.130441 1.23181e-317 0.0244611 1.5738e-318 -0.00242368)
(-0.0133683 -0.144418 1.09067e-317 0.0147938 1.42012e-318 -0.00142555)
(-0.00424057 -0.154538 9.81755e-318 0.00422093 1.18684e-318 1.96316e-05)
(0.0058922 -0.160063 9.06084e-318 -0.00743946 8.75964e-319 0.00154726)
(0.0159844 -0.160901 8.62854e-318 -0.0191875 4.9661e-319 0.00320304)
(0.0271228 -0.158876 8.50611e-318 -0.0317901 5.92187e-320 0.00466726)
(0.0384682 -0.14863 8.67714e-318 -0.0443717 -4.20257e-319 0.0059035)
(0.0496256 -0.13525 9.12602e-318 -0.0562005 -9.17223e-319 0.00657487)
(0.0609884 -0.105679 9.84692e-318 -0.0674738 -1.37226e-318 0.00648547)
(0.0659873 -0.0718189 1.08414e-317 -0.071079 -1.64693e-318 0.00509167)
(0.0721524 -0.00908127 1.21318e-317 -0.0738485 -1.43551e-318 0.00169615)
(0.0549855 0.0575741 1.3801e-317 -0.0495016 -6.15013e-320 -0.00548394)
(0.0490157 0.15808 1.58112e-317 -0.0287234 3.79756e-318 -0.0202922)
(0.00400448 0.258912 1.85166e-317 0.0487155 1.26215e-317 -0.05272)
(-0.0230083 0.0855936 2.54032e-317 0.046876 1.55376e-317 -0.0238677)
(-0.040653 0.0306805 2.32742e-317 0.0535854 6.43743e-318 -0.0129324)
(-0.0447098 -0.0336427 2.0891e-317 0.0523399 3.00155e-318 -0.00763011)
(-0.0438416 -0.0744393 1.84335e-317 0.0494197 1.94399e-318 -0.00557805)
(-0.0379431 -0.115552 1.59284e-317 0.0424111 1.70238e-318 -0.00446805)
(-0.0293478 -0.140357 1.36951e-317 0.0330679 1.65896e-318 -0.00372014)
(-0.020312 -0.161759 1.17893e-317 0.0229637 1.58122e-318 -0.00265171)
(-0.00997373 -0.174362 1.0262e-317 0.01144 1.41055e-318 -0.00146625)
(-0.000797101 -0.183571 9.1063e-318 0.000721746 1.14695e-318 7.53552e-05)
(0.00953854 -0.188662 8.30164e-318 -0.0111844 8.05287e-319 0.00164583)
(0.0189323 -0.189814 7.81786e-318 -0.0222949 3.99516e-319 0.00336264)
(0.0302679 -0.188822 7.62565e-318 -0.0351839 -6.07256e-320 0.00491602)
(0.0413339 -0.180312 7.69576e-318 -0.047683 -5.66945e-319 0.0063491)
(0.0545373 -0.169542 8.00096e-318 -0.0619252 -1.1064e-318 0.00738786)
(0.0675712 -0.142127 8.54074e-318 -0.0756268 -1.64253e-318 0.00805565)
(0.0787021 -0.111874 9.32206e-318 -0.0868878 -2.0761e-318 0.0081857)
(0.0895768 -0.0475867 1.05262e-317 -0.0976162 -2.16889e-318 0.00803935)
(0.0815325 0.0165806 1.21922e-317 -0.08932 -1.35265e-318 0.0077875)
(0.0769961 0.130968 1.52028e-317 -0.084775 1.69342e-318 0.00777884)
(0.0215391 0.240496 1.91977e-317 -0.0263603 1.0001e-317 0.00482113)
(-0.0411435 0.0397584 2.36854e-317 0.105434 1.43088e-317 -0.0642908)
(-0.0502809 -0.0122562 2.23146e-317 0.079257 5.84622e-318 -0.028976)
(-0.0540981 -0.0744288 2.04904e-317 0.0682029 2.82486e-318 -0.0141048)
(-0.0437729 -0.113042 1.78388e-317 0.0519526 2.06969e-318 -0.00817973)
(-0.0352118 -0.151949 1.51999e-317 0.0406675 1.91555e-318 -0.00545578)
(-0.0225812 -0.174243 1.28325e-317 0.0266187 1.853e-318 -0.0040375)
(-0.0128471 -0.193213 1.08662e-317 0.0155431 1.71352e-318 -0.00269604)
(-0.0018173 -0.203766 9.3204e-318 0.0032462 1.47837e-318 -0.0014289)
(0.00642096 -0.211526 8.16667e-318 -0.00654077 1.16278e-318 0.00011981)
(0.0159345 -0.215836 7.36269e-318 -0.0175922 7.84907e-319 0.00165772)
(0.0235869 -0.217141 6.86444e-318 -0.0269438 3.59067e-319 0.00335685)
(0.0338997 -0.21703 6.62753e-318 -0.0388196 -1.08971e-319 0.0049199)
(0.043167 -0.210529 6.60654e-318 -0.0496266 -6.18461e-319 0.00645955)
(0.0568415 -0.202554 6.75334e-318 -0.0645917 -1.16701e-318 0.00775018)
(0.0691368 -0.178533 7.02091e-318 -0.0781492 -1.74113e-318 0.00901237)
(0.0855926 -0.152631 7.35325e-318 -0.0959901 -2.28531e-318 0.0103975)
(0.0983118 -0.0897952 7.72429e-318 -0.111437 -2.63469e-318 0.0131254)
(0.104849 -0.0291202 8.1712e-318 -0.124329 -2.36162e-318 0.0194799)
(0.10316 0.0933713 8.72402e-318 -0.1386 -3.56908e-319 0.0354401)
(0.0560089 0.209021 1.04413e-317 -0.127407 5.60294e-318 0.0713985)
(-0.0519114 -0.0269717 2.87168e-317 0.141428 1.32355e-317 -0.0895165)
(-0.0532187 -0.0706149 2.50242e-317 0.0909594 4.5257e-318 -0.0377407)
(-0.0549688 -0.121219 2.07734e-317 0.0721202 2.24909e-318 -0.0171514)
(-0.0366396 -0.15475 1.71291e-317 0.0458137 1.96813e-318 -0.00917413)
(-0.0254635 -0.186852 1.3956e-317 0.031132 1.96792e-318 -0.00566854)
(-0.00980902 -0.204937 1.14568e-317 0.0137843 1.91648e-318 -0.0039753)
(7.53105e-05 -0.219727 9.50269e-318 0.00249084 1.74096e-318 -0.00256615)
(0.0110216 -0.227629 8.02966e-318 -0.00967388 1.46897e-318 -0.00134768)
(0.0178724 -0.233376 6.95438e-318 -0.0179765 1.13069e-318 0.000104053)
(0.0260399 -0.236604 6.21083e-318 -0.0275534 7.49794e-319 0.00151351)
(0.031646 -0.237804 5.74251e-318 -0.0347392 3.38845e-319 0.0030932)
(0.0404244 -0.238209 5.49826e-318 -0.0449827 -9.83092e-320 0.00455822)
(0.0475627 -0.233885 5.42724e-318 -0.0536323 -5.62054e-319 0.0060696)
(0.0609615 -0.228666 5.47456e-318 -0.0683983 -1.05666e-318 0.00743683)
(0.0722163 -0.210216 5.59024e-318 -0.0812124 -1.57791e-318 0.00899611)
(0.0931571 -0.190717 5.70676e-318 -0.104261 -2.10016e-318 0.0111038)
(0.108061 -0.137555 5.88062e-318 -0.123678 -2.52743e-318 0.0156167)
(0.127809 -0.0900394 6.07013e-318 -0.154335 -2.60273e-318 0.0265255)
(0.128781 0.0216282 6.95343e-318 -0.183621 -1.48466e-318 0.05484)
(0.0732487 0.116224 8.98501e-318 -0.196111 2.72671e-318 0.122862)
(-0.0546087 -0.106772 2.64862e-317 0.147174 1.47884e-317 -0.0925654)
(-0.0433272 -0.140199 2.28336e-317 0.0800597 6.86432e-318 -0.0367325)
(-0.0409892 -0.175105 1.84911e-317 0.057045 4.20866e-318 -0.0160558)
(-0.0164831 -0.201343 1.47279e-317 0.0247956 3.36326e-318 -0.00831252)
(-0.00440725 -0.224184 1.16824e-317 0.00939245 2.88169e-318 -0.0049852)
(0.0117013 -0.237013 9.37777e-318 -0.00827119 2.46878e-318 -0.0034301)
(0.020127 -0.24679 7.64635e-318 -0.0179491 2.0479e-318 -0.00217787)
(0.0295207 -0.251697 6.37668e-318 -0.0283738 1.62077e-318 -0.00114688)
(0.0342436 -0.255282 5.46709e-318 -0.0343262 1.191e-318 8.25744e-05)
(0.0403529 -0.25714 4.84443e-318 -0.0416032 7.6264e-319 0.00125037)
(0.0435225 -0.258198 4.44991e-318 -0.0461075 3.35189e-319 0.00258508)
(0.0499585 -0.258569 4.23327e-318 -0.0537805 -9.59031e-320 0.00382194)
(0.0540865 -0.256512 4.14256e-318 -0.0592335 -5.36298e-319 0.00514707)
(0.0652083 -0.253308 4.11851e-318 -0.0715961 -9.92499e-319 0.00638779)
(0.0728251 -0.24147 4.08776e-318 -0.0807373 -1.46366e-318 0.00791214)
(0.0942868 -0.227696 3.94119e-318 -0.104385 -1.93611e-318 0.0100983)
(0.105395 -0.187964 3.55565e-318 -0.120356 -2.33886e-318 0.0149613)
(0.138126 -0.150937 2.85249e-318 -0.165274 -2.51619e-318 0.0271485)
(0.135136 -0.0552264 1.5863e-318 -0.196411 -1.88514e-318 0.0612748)
(0.11283 0.0391158 1.32148e-318 -0.269279 3.07981e-319 0.156449)
(-0.0464842 -0.171238 2.33623e-317 0.114568 5.34891e-318 -0.0680841)
(-0.0106164 -0.211177 1.8712e-317 0.0366421 1.21327e-318 -0.0260257)
(-0.00672279 -0.225939 1.36172e-317 0.0179908 8.98113e-319 -0.0112681)
(0.0171917 -0.243909 1.03639e-317 -0.011338 1.21901e-318 -0.0058537)
(0.0274665 -0.256205 7.93207e-318 -0.0239591 1.33997e-318 -0.00350739)
(0.0407918 -0.263247 6.25406e-318 -0.0383584 1.30081e-318 -0.00243336)
(0.0467402 -0.26808 5.03978e-318 -0.0452037 1.15532e-318 -0.00153645)
(0.0534168 -0.270487 4.17337e-318 -0.052589 9.54485e-319 -0.000827763)
(0.055962 -0.272057 3.56024e-318 -0.0560069 7.25165e-319 4.48696e-05)
(0.0597078 -0.273104 3.14291e-318 -0.060555 4.8452e-319 0.000847192)
(0.0608638 -0.273627 2.87789e-318 -0.0626575 2.41114e-319 0.00179364)
(0.0647499 -0.274304 2.72795e-318 -0.067408 -1.48714e-321 0.00265808)
(0.066447 -0.273505 2.65654e-318 -0.0700661 -2.41346e-319 0.00361909)
(0.0742671 -0.272716 2.62051e-318 -0.0787889 -4.7787e-319 0.00452189)
(0.0788074 -0.266645 2.57053e-318 -0.084479 -7.12522e-319 0.00567165)
(0.0970793 -0.260211 2.42944e-318 -0.10439 -9.48018e-319 0.00731032)
(0.106372 -0.236869 2.1715e-318 -0.117378 -1.18217e-318 0.0110061)
(0.141219 -0.218442 1.7055e-318 -0.161711 -1.40801e-318 0.0204919)
(0.147291 -0.158451 1.29868e-318 -0.196402 -1.48113e-318 0.0491115)
(0.118377 -0.122605 1.51247e-318 -0.257379 -9.61985e-319 0.139001)
(0.0330145 -0.293075 1.41746e-317 -0.0180527 2.16077e-317 -0.0149618)
(0.0315593 -0.28427 1.11786e-317 -0.0228655 1.38442e-317 -0.00869383)
(0.0494888 -0.26437 7.55658e-318 -0.0454086 9.51363e-318 -0.00408019)
(0.0641201 -0.269743 5.3753e-318 -0.0618936 6.70875e-318 -0.00222646)
(0.070406 -0.267313 3.88169e-318 -0.0690387 4.96085e-318 -0.00136736)
(0.0778369 -0.270108 2.93563e-318 -0.0768557 3.69484e-318 -0.000981149)
(0.0796519 -0.270019 2.29293e-318 -0.0790344 2.74053e-318 -0.000617536)
(0.0826421 -0.270771 1.85551e-318 -0.0822945 1.97817e-318 -0.000347571)
(0.0827058 -0.271069 1.55749e-318 -0.0827184 1.34539e-318 1.25226e-05)
(0.0841021 -0.27036 1.36087e-318 -0.0844249 7.976e-319 0.000322837)
(0.0833954 -0.270884 1.23972e-318 -0.0841075 3.03228e-319 0.000712097)
(0.0848049 -0.268645 1.17446e-318 -0.0858579 -1.60127e-319 0.00105305)
(0.0837919 -0.269345 1.14447e-318 -0.0852452 -6.09455e-319 0.0014533)
(0.0872723 -0.264641 1.12256e-318 -0.0890908 -1.05023e-318 0.00181856)
(0.0865954 -0.265464 1.06916e-318 -0.0888909 -1.47289e-318 0.0022955)
(0.0975698 -0.256291 9.10657e-319 -0.100501 -1.84739e-318 0.00293148)
(0.0972429 -0.258126 5.25552e-319 -0.101592 -2.07294e-318 0.00434928)
(0.129333 -0.242403 -2.11144e-319 -0.137304 -2.00612e-318 0.00797103)
(0.115969 -0.252089 -1.72491e-318 -0.136143 -1.33857e-318 0.020174)
(0.139334 -0.196135 -2.81211e-318 -0.211405 5.79341e-320 0.0720709)
)
;

boundaryField
{
    cavity
    {
        type            mySigma;
    }
    lid
    {
        type            fixedValue;
        value           uniform (0.1 -0.3 0 -0.1 0 0);
    }
    frontAndBack
    {
        type            empty;
    }
}


// ************************************************************************* //
