/*--------------------------------*- C++ -*----------------------------------*\
| =========                 |                                                 |
| \\      /  F ield         | foam-extend: Open Source CFD                    |
|  \\    /   O peration     | Version:  3.0                                   |
|   \\  /    A nd           | Web:         http://www.extend-project.de       |
|    \\/     M anipulation  |                                                 |
\*---------------------------------------------------------------------------*/
FoamFile
{
    version     2.0;
    format      ascii;
    class       volScalarField;
    location    "1.7";
    object      Theta;
}
// * * * * * * * * * * * * * * * * * * * * * * * * * * * * * * * * * * * * * //

dimensions      [0 0 0 0 0 0 0];

internalField   nonuniform List<scalar> 
400
(
0.0846567
0.0701953
0.0648031
0.0611803
0.0618358
0.0641998
0.0685376
0.0739244
0.080168
0.0868254
0.0936529
0.100295
0.106505
0.11177
0.115912
0.117811
0.117838
0.112957
0.106022
0.0887332
0.0989546
0.0823898
0.0784079
0.0748883
0.0754046
0.0765598
0.0789695
0.0817947
0.0850012
0.0883654
0.091752
0.095028
0.0980664
0.100612
0.102665
0.103325
0.103275
0.0990868
0.0943796
0.0773489
0.0955052
0.0775498
0.0730437
0.0689758
0.0699685
0.0716248
0.0750344
0.0788898
0.0833128
0.087902
0.0925867
0.0971408
0.101494
0.105212
0.108423
0.10975
0.110316
0.105643
0.100433
0.0817876
0.0931525
0.0738837
0.0696919
0.0656771
0.0673831
0.0695336
0.0735925
0.0779582
0.0828957
0.0879446
0.0931108
0.0981646
0.103112
0.10745
0.11145
0.113407
0.114819
0.110247
0.105344
0.0851855
0.0856031
0.064328
0.0605343
0.0567412
0.0597014
0.0629847
0.0685313
0.0743268
0.0808006
0.0873734
0.0941229
0.10077
0.107392
0.113344
0.119069
0.122346
0.125214
0.120772
0.116145
0.0931756
0.0773458
0.0542306
0.0514299
0.0483111
0.0528957
0.0574556
0.0644728
0.0715248
0.0792621
0.0870227
0.095003
0.102914
0.110961
0.118387
0.125893
0.130712
0.13554
0.131725
0.128014
0.102102
0.0669078
0.041175
0.0401702
0.0380617
0.0447919
0.0509212
0.0596771
0.0681648
0.0773187
0.0863944
0.095733
0.105047
0.1147
0.123832
0.133485
0.140254
0.147783
0.144988
0.143227
0.112787
0.0550803
0.027537
0.0290301
0.0284636
0.0375739
0.045342
0.0557358
0.0654673
0.0757709
0.0858582
0.0962321
0.106639
0.117625
0.128278
0.140025
0.148902
0.159559
0.158461
0.159595
0.125023
0.041917
0.01313
0.0180838
0.0194668
0.0311297
0.0405315
0.0524239
0.0632107
0.0744203
0.0852587
0.0963815
0.107599
0.119631
0.131584
0.145272
0.156309
0.170461
0.171644
0.177194
0.138275
0.0274831
0.000420219
0.00897438
0.0128174
0.0266686
0.0375213
0.0504964
0.0619854
0.0736841
0.0848658
0.0962896
0.107866
0.120429
0.133222
0.148285
0.161242
0.178476
0.182665
0.193011
0.153137
0.0116217
-0.0107917
0.00177548
0.00848853
0.024169
0.0362604
0.0498893
0.0617252
0.0734942
0.0846147
0.0958851
0.107354
0.119888
0.133006
0.148765
0.163298
0.183109
0.190947
0.20712
0.169498
-0.0052221
-0.0176402
-0.00219942
0.00786858
0.0244312
0.037453
0.0511325
0.0629107
0.0742889
0.084931
0.0955788
0.106451
0.118323
0.131138
0.146598
0.162101
0.182933
0.195045
0.215438
0.187926
-0.0243961
-0.0231257
-0.00440698
0.00957106
0.0266794
0.0404788
0.0537993
0.0651929
0.0757924
0.0855881
0.0951968
0.105031
0.115673
0.127633
0.141966
0.157993
0.178958
0.196156
0.221688
0.21
-0.0428809
-0.0229582
-0.00282394
0.0154054
0.0320812
0.0463217
0.0587355
0.0693815
0.0788372
0.0874676
0.0956981
0.104115
0.113019
0.12353
0.135735
0.15147
0.170445
0.192855
0.219499
0.233374
-0.0632713
-0.0238065
-0.000494567
0.0225067
0.0389902
0.0535895
0.0648732
0.0745197
0.0825755
0.089797
0.0963951
0.103107
0.109906
0.118552
0.128083
0.143181
0.159889
0.188393
0.219096
0.262683
-0.0766969
-0.0167086
0.00775914
0.0347631
0.050115
0.0643677
0.0740313
0.0822976
0.088733
0.0943641
0.0992118
0.104031
0.108509
0.1148
0.120974
0.13419
0.146417
0.179074
0.206429
0.285655
-0.0867431
-0.0103003
0.0170814
0.0479217
0.0624376
0.0760829
0.0839516
0.0906307
0.0953182
0.0992731
0.102307
0.105156
0.107203
0.110927
0.113554
0.124612
0.13284
0.170174
0.199872
0.315075
-0.0761298
0.00944697
0.0376693
0.0687642
0.0809896
0.0924803
0.0980251
0.102661
0.105564
0.107807
0.109195
0.110105
0.109918
0.110715
0.109644
0.116518
0.118707
0.154125
0.173741
0.316251
-0.0539479
0.0330256
0.0599876
0.0905841
0.100056
0.109042
0.112054
0.114571
0.115675
0.116295
0.116114
0.115223
0.112873
0.110808
0.106034
0.108632
0.105265
0.139044
0.154095
0.323815
0.0205176
0.0793664
0.101267
0.123021
0.127406
0.131275
0.131448
0.131333
0.130993
0.130066
0.128952
0.126469
0.122884
0.11775
0.110324
0.105658
0.0966109
0.114669
0.114082
0.256313
)
;

boundaryField
{
    cavity
    {
        type            implicitExtrapolation;
    }
    lid
    {
        type            implicitExtrapolation;
    }
    frontAndBack
    {
        type            empty;
    }
}


// ************************************************************************* //
