/*--------------------------------*- C++ -*----------------------------------*\
| =========                 |                                                 |
| \\      /  F ield         | foam-extend: Open Source CFD                    |
|  \\    /   O peration     | Version:  3.0                                   |
|   \\  /    A nd           | Web:         http://www.extend-project.de       |
|    \\/     M anipulation  |                                                 |
\*---------------------------------------------------------------------------*/
FoamFile
{
    version     2.0;
    format      ascii;
    class       volVectorField;
    location    "1.7";
    object      u;
}
// * * * * * * * * * * * * * * * * * * * * * * * * * * * * * * * * * * * * * //

dimensions      [0 0 0 0 0 0 0];

internalField   nonuniform List<vector> 
400
(
(0.00413816 -0.0135677 6.36075e-316)
(-0.0731219 0.0445229 5.68553e-316)
(-0.107827 0.0463325 4.36073e-316)
(-0.177883 0.0674038 4.18665e-316)
(-0.226229 0.0594908 2.76587e-316)
(-0.280723 0.0566777 2.92755e-316)
(-0.321501 0.0438457 1.66224e-316)
(-0.355947 0.0319691 2.0407e-316)
(-0.378854 0.0179987 9.44993e-317)
(-0.391434 0.00361042 1.47143e-316)
(-0.392357 -0.0105302 4.91133e-317)
(-0.382358 -0.0254469 1.10351e-316)
(-0.360698 -0.0402127 1.82053e-317)
(-0.327713 -0.053491 8.2905e-317)
(-0.286676 -0.0675933 -7.61194e-318)
(-0.231831 -0.072017 5.58598e-317)
(-0.181697 -0.0806619 -3.34484e-317)
(-0.109895 -0.0600387 1.81826e-317)
(-0.0733371 -0.0570091 -5.07697e-317)
(0.00513649 0.00482379 -3.89695e-317)
(-0.0335766 0.0799912 1.91216e-316)
(-0.0816571 0.0985765 2.50867e-316)
(-0.128658 0.0887938 2.41134e-316)
(-0.172011 0.0953445 2.42435e-316)
(-0.208688 0.0805793 2.06394e-316)
(-0.242385 0.0763334 1.91714e-316)
(-0.269979 0.0587085 1.50313e-316)
(-0.291599 0.0474056 1.36546e-316)
(-0.306922 0.0279139 9.94664e-317)
(-0.314849 0.0129924 9.15971e-317)
(-0.315174 -0.00745236 6.05491e-317)
(-0.308631 -0.0228578 5.80903e-317)
(-0.293707 -0.0433815 3.14087e-317)
(-0.273024 -0.0558332 3.21567e-317)
(-0.245299 -0.0751297 7.57417e-318)
(-0.211769 -0.0803405 9.21742e-318)
(-0.174697 -0.0965566 -1.5116e-317)
(-0.130584 -0.0896577 -1.71018e-317)
(-0.0835563 -0.0996006 -4.19309e-317)
(-0.0339337 -0.0783377 -6.83921e-317)
(-0.0241732 0.123005 3.46036e-316)
(-0.0831935 0.151838 3.02709e-316)
(-0.135183 0.148681 2.57163e-316)
(-0.186508 0.157335 2.26374e-316)
(-0.232798 0.137 1.82562e-316)
(-0.270253 0.125472 1.63185e-316)
(-0.304335 0.0967895 1.25808e-316)
(-0.327037 0.0727155 1.1395e-316)
(-0.345447 0.0406912 8.26137e-317)
(-0.353989 0.0107186 7.59598e-317)
(-0.355036 -0.0225393 4.85975e-317)
(-0.349527 -0.0534028 4.45053e-317)
(-0.332622 -0.0868405 1.80267e-317)
(-0.312098 -0.113062 1.27178e-317)
(-0.278039 -0.144076 -1.7501e-317)
(-0.241008 -0.157505 -3.06808e-317)
(-0.193264 -0.17984 -7.17837e-317)
(-0.140022 -0.170918 -1.07676e-316)
(-0.0865019 -0.173883 -1.67304e-316)
(-0.0240829 -0.142263 -2.55636e-316)
(-0.0283002 0.198671 3.88489e-317)
(-0.0879229 0.225598 1.00179e-316)
(-0.142562 0.207884 1.17168e-316)
(-0.184806 0.209855 1.27742e-316)
(-0.228675 0.177495 1.20833e-316)
(-0.255156 0.159776 1.11915e-316)
(-0.285327 0.123045 9.62096e-317)
(-0.299981 0.0939815 8.30046e-317)
(-0.315862 0.0562615 6.64304e-317)
(-0.321391 0.021682 5.39603e-317)
(-0.322586 -0.0168597 3.87448e-317)
(-0.319797 -0.0527248 2.76666e-317)
(-0.305647 -0.0928923 1.35997e-317)
(-0.293252 -0.125104 3.49855e-318)
(-0.263077 -0.166313 -9.42648e-318)
(-0.237425 -0.186905 -1.72079e-317)
(-0.191692 -0.224285 -2.61174e-317)
(-0.147551 -0.22179 -2.38805e-317)
(-0.091142 -0.241722 -2.05648e-317)
(-0.026987 -0.209475 1.06104e-317)
(-0.0331641 0.251272 2.87253e-316)
(-0.100967 0.279772 2.23595e-316)
(-0.167506 0.254527 1.8644e-316)
(-0.212876 0.251261 1.52357e-316)
(-0.266449 0.211074 1.26573e-316)
(-0.29297 0.18453 1.06172e-316)
(-0.329365 0.141679 8.68685e-317)
(-0.343468 0.102762 7.18721e-317)
(-0.362762 0.0605192 5.6032e-317)
(-0.368894 0.0158168 4.35308e-317)
(-0.37132 -0.0265375 2.92051e-317)
(-0.370909 -0.0729583 1.72259e-317)
(-0.355269 -0.117492 2.2327e-318)
(-0.346201 -0.16072 -1.20253e-317)
(-0.31012 -0.208207 -3.1365e-317)
(-0.28624 -0.23889 -5.35228e-317)
(-0.228767 -0.285102 -8.39572e-317)
(-0.180838 -0.2876 -1.2734e-316)
(-0.108917 -0.316255 -1.78938e-316)
(-0.0324029 -0.278666 -2.66877e-316)
(-0.0404804 0.344568 2.64034e-317)
(-0.10425 0.374255 7.27453e-317)
(-0.178217 0.3295 8.54663e-317)
(-0.211387 0.317144 9.27588e-317)
(-0.265675 0.262252 8.81942e-317)
(-0.279641 0.225205 8.02411e-317)
(-0.313952 0.174407 6.91503e-317)
(-0.319229 0.126773 5.77009e-317)
(-0.33694 0.0808431 4.55438e-317)
(-0.339619 0.0285051 3.40201e-317)
(-0.342566 -0.0165014 2.21319e-317)
(-0.344866 -0.0715534 1.08136e-317)
(-0.331678 -0.121228 -1.06478e-318)
(-0.331798 -0.175996 -1.24257e-317)
(-0.297958 -0.235028 -2.39752e-317)
(-0.288567 -0.279913 -3.34312e-317)
(-0.22896 -0.347138 -4.08722e-317)
(-0.195646 -0.360312 -3.83902e-317)
(-0.113078 -0.415336 -3.16685e-317)
(-0.0406561 -0.370879 6.96653e-318)
(-0.0588229 0.407514 2.7269e-316)
(-0.121736 0.430244 1.97236e-316)
(-0.215363 0.368621 1.58398e-316)
(-0.239666 0.343272 1.2331e-316)
(-0.302789 0.28059 1.00457e-316)
(-0.308172 0.2319 8.15907e-317)
(-0.346114 0.17983 6.6018e-317)
(-0.346211 0.123561 5.24593e-317)
(-0.365962 0.0798376 3.98603e-317)
(-0.367966 0.0205417 2.815e-317)
(-0.372864 -0.0206494 1.64369e-317)
(-0.379599 -0.0832436 4.74751e-318)
(-0.367657 -0.129255 -7.94608e-318)
(-0.377549 -0.194527 -2.19137e-317)
(-0.341164 -0.253106 -3.85857e-317)
(-0.345583 -0.312623 -5.96973e-317)
(-0.273762 -0.387985 -8.65206e-317)
(-0.2525 -0.416014 -1.28058e-316)
(-0.140867 -0.491748 -1.76241e-316)
(-0.06492 -0.449007 -2.65436e-316)
(-0.0822084 0.532847 3.22328e-317)
(-0.119401 0.537804 7.27948e-317)
(-0.226466 0.449517 8.02609e-317)
(-0.225226 0.403562 8.34681e-317)
(-0.28755 0.328003 7.68198e-317)
(-0.274894 0.263635 6.76435e-317)
(-0.308572 0.208357 5.67225e-317)
(-0.297762 0.142004 4.55625e-317)
(-0.314758 0.10012 3.44265e-317)
(-0.31194 0.0333678 2.35469e-317)
(-0.317459 -0.00446379 1.27063e-317)
(-0.325735 -0.0760757 1.84769e-318)
(-0.317753 -0.120854 -9.32388e-318)
(-0.337664 -0.201156 -2.07178e-317)
(-0.306142 -0.265896 -3.22464e-317)
(-0.33252 -0.34935 -4.2628e-317)
(-0.259333 -0.44607 -5.11395e-317)
(-0.273083 -0.502747 -5.04296e-317)
(-0.138876 -0.620154 -4.54844e-317)
(-0.0978885 -0.592292 -6.11877e-318)
(-0.120116 0.614562 2.63731e-316)
(-0.129675 0.578053 1.84055e-316)
(-0.262776 0.474582 1.45123e-316)
(-0.237164 0.401605 1.10488e-316)
(-0.304931 0.326848 8.86352e-317)
(-0.27661 0.248067 7.06489e-317)
(-0.309804 0.199114 5.60857e-317)
(-0.290673 0.126314 4.32863e-317)
(-0.307662 0.0928206 3.16286e-317)
(-0.302817 0.0231026 2.06323e-317)
(-0.311058 -0.00456636 9.85799e-318)
(-0.324004 -0.0797056 -1.06833e-318)
(-0.321061 -0.112207 -1.26812e-317)
(-0.35435 -0.201281 -2.55857e-317)
(-0.326141 -0.252995 -4.0689e-317)
(-0.377542 -0.356503 -5.99957e-317)
(-0.294716 -0.446834 -8.44341e-317)
(-0.345449 -0.539577 -1.23742e-316)
(-0.165085 -0.675831 -1.69868e-316)
(-0.157703 -0.694885 -2.61751e-316)
(-0.154861 0.775009 3.97766e-317)
(-0.10403 0.672644 7.93035e-317)
(-0.248672 0.548613 8.30424e-317)
(-0.188995 0.436366 8.2925e-317)
(-0.250149 0.35901 7.3845e-317)
(-0.204903 0.260044 6.30299e-317)
(-0.230097 0.215808 5.13624e-317)
(-0.201769 0.134201 3.99503e-317)
(-0.214322 0.10885 2.89905e-317)
(-0.203793 0.0349107 1.84671e-317)
(-0.21238 0.0170667 8.15974e-318)
(-0.22258 -0.0640876 -2.14744e-318)
(-0.225047 -0.0867783 -1.27486e-317)
(-0.26176 -0.191249 -2.37685e-317)
(-0.242751 -0.236994 -3.51519e-317)
(-0.31306 -0.37507 -4.60408e-317)
(-0.235184 -0.472911 -5.57271e-317)
(-0.337975 -0.627957 -5.72666e-317)
(-0.130256 -0.805355 -5.53148e-317)
(-0.218291 -0.910647 -1.76423e-317)
(-0.192679 0.85926 2.56293e-316)
(-0.0920206 0.66447 1.76113e-316)
(-0.255396 0.551797 1.38407e-316)
(-0.168305 0.398007 1.04884e-316)
(-0.22629 0.337639 8.36063e-317)
(-0.166947 0.224304 6.59444e-317)
(-0.185966 0.193073 5.15771e-317)
(-0.150335 0.108885 3.89912e-317)
(-0.160466 0.0944269 2.7672e-317)
(-0.147118 0.0221595 1.71297e-317)
(-0.158987 0.0163026 6.96813e-318)
(-0.171046 -0.0634061 -3.18956e-318)
(-0.182735 -0.0691024 -1.38221e-317)
(-0.228913 -0.178019 -2.55e-317)
(-0.222172 -0.197243 -3.89827e-317)
(-0.316319 -0.357475 -5.61978e-317)
(-0.240071 -0.41801 -7.80506e-317)
(-0.392385 -0.636092 -1.14715e-316)
(-0.1362 -0.789174 -1.58497e-316)
(-0.300902 -1.0252 -2.54194e-316)
(-0.187505 1.02531 4.74415e-317)
(-0.0291124 0.719979 8.9071e-317)
(-0.174646 0.609262 8.95926e-317)
(-0.0720426 0.40069 8.62798e-317)
(-0.111618 0.350275 7.45501e-317)
(-0.0490524 0.216132 6.19132e-317)
(-0.0562406 0.195493 4.92128e-317)
(-0.0181323 0.106666 3.73486e-317)
(-0.0227656 0.10373 2.63726e-317)
(-0.00413213 0.0326565 1.61372e-317)
(-0.0157519 0.0399339 6.35103e-318)
(-0.01848 -0.0399499 -3.28337e-318)
(-0.0357818 -0.0300015 -1.30781e-317)
(-0.0696169 -0.150016 -2.32509e-317)
(-0.0765376 -0.151112 -3.38652e-317)
(-0.163505 -0.35175 -4.43267e-317)
(-0.107844 -0.396256 -5.40573e-317)
(-0.287843 -0.714775 -5.68771e-317)
(-0.0382922 -0.880737 -5.67715e-317)
(-0.325376 -1.2983 -2.17026e-317)
(-0.175603 1.04595 2.51131e-316)
(-0.00140696 0.650502 1.73729e-316)
(-0.127562 0.585555 1.36905e-316)
(-0.0178579 0.339182 1.03909e-316)
(-0.0369606 0.314383 8.22441e-317)
(0.0301617 0.172834 6.41902e-317)
(0.0363119 0.164515 4.94798e-317)
(0.0777843 0.0786103 3.68027e-317)
(0.0779042 0.0831593 2.56313e-317)
(0.0994741 0.0179057 1.5479e-317)
(0.0844487 0.0326855 5.94416e-318)
(0.0843622 -0.0410429 -3.36668e-318)
(0.0541673 -0.0181395 -1.28621e-317)
(0.0208511 -0.135406 -2.30427e-317)
(-0.0106602 -0.108023 -3.44882e-317)
(-0.104776 -0.322714 -4.8909e-317)
(-0.0790455 -0.303982 -6.69702e-317)
(-0.285944 -0.690837 -9.91043e-317)
(-0.0335998 -0.754854 -1.37519e-316)
(-0.373116 -1.33725 -2.34319e-316)
(-0.0615294 1.16283 5.9954e-317)
(0.0822569 0.671006 1.05283e-316)
(0.0394 0.614965 1.00458e-316)
(0.120332 0.318639 9.23559e-317)
(0.135302 0.30507 7.69991e-317)
(0.186948 0.150536 6.20207e-317)
(0.206586 0.15289 4.8079e-317)
(0.242718 0.0696025 3.57483e-317)
(0.247714 0.0850126 2.47742e-317)
(0.272974 0.0272675 1.49073e-317)
(0.258864 0.0542099 5.7388e-318)
(0.273223 -0.0121409 -3.05683e-318)
(0.239329 0.0265644 -1.17918e-317)
(0.235529 -0.0912849 -2.068e-317)
(0.188607 -0.0415877 -2.97733e-317)
(0.143868 -0.28808 -3.85944e-317)
(0.125731 -0.239534 -4.63625e-317)
(-0.0238546 -0.742193 -4.75925e-317)
(0.125767 -0.798063 -4.47879e-317)
(-0.237638 -1.61728 -5.89072e-318)
(0.00446381 1.03589 2.58898e-316)
(0.0990177 0.571069 1.81381e-316)
(0.133598 0.554321 1.4138e-316)
(0.200424 0.260868 1.06042e-316)
(0.257645 0.2601 8.23598e-317)
(0.306507 0.114258 6.3091e-317)
(0.345064 0.120033 4.77439e-317)
(0.380867 0.0457472 3.49267e-317)
(0.391539 0.0611864 2.39968e-317)
(0.419044 0.0115874 1.43379e-317)
(0.402113 0.0373832 5.53201e-318)
(0.422474 -0.0199984 -2.80891e-318)
(0.374871 0.0193233 -1.10729e-317)
(0.380881 -0.087262 -1.95867e-317)
(0.29837 -0.0265162 -2.8679e-317)
(0.265409 -0.264255 -3.96114e-317)
(0.173922 -0.164556 -5.24276e-317)
(0.0345076 -0.684465 -7.68623e-317)
(0.0874869 -0.58798 -1.04501e-316)
(-0.252827 -1.43011 -1.90344e-316)
(0.220301 1.08156 1.04516e-316)
(0.172123 0.568806 1.37552e-316)
(0.349755 0.535309 1.18945e-316)
(0.35797 0.221978 1.00774e-316)
(0.453065 0.223406 7.9907e-317)
(0.476856 0.0823668 6.19058e-317)
(0.523894 0.096114 4.66753e-317)
(0.549757 0.0334844 3.39762e-317)
(0.562144 0.0569854 2.31859e-317)
(0.590999 0.0200969 1.38141e-317)
(0.575452 0.054278 5.36382e-318)
(0.610509 0.0112236 -2.53875e-318)
(0.563874 0.0621214 -1.01834e-317)
(0.606907 -0.0294423 -1.7705e-317)
(0.516032 0.0499028 -2.49899e-317)
(0.565067 -0.189477 -3.14698e-317)
(0.420244 -0.0622659 -3.57394e-317)
(0.45 -0.669224 -3.19915e-317)
(0.284962 -0.57564 -2.08763e-317)
(0.1678 -1.71988 3.7134e-317)
(0.321951 0.777637 2.92706e-316)
(0.216831 0.48103 1.91573e-316)
(0.501961 0.425892 1.43978e-316)
(0.502946 0.184998 1.0383e-316)
(0.646684 0.175274 7.85278e-317)
(0.66751 0.0614837 5.87915e-317)
(0.730198 0.0681879 4.37327e-317)
(0.752246 0.0180828 3.15716e-317)
(0.768054 0.0341803 2.14635e-317)
(0.796315 0.00480938 1.27647e-317)
(0.779919 0.0292527 4.97687e-318)
(0.819996 -0.00545575 -2.25024e-318)
(0.765926 0.0314122 -9.19339e-318)
(0.819975 -0.0437768 -1.60857e-317)
(0.697956 0.015926 -2.29493e-317)
(0.76112 -0.185602 -3.04884e-317)
(0.51733 -0.0701869 -3.80765e-317)
(0.550641 -0.583024 -5.33265e-317)
(0.196513 -0.388759 -6.82487e-317)
(0.014462 -1.13973 -1.29435e-316)
(0.38984 0.725194 2.56762e-316)
(0.267124 0.446425 2.1207e-316)
(0.659983 0.345493 1.58915e-316)
(0.6347 0.123775 1.1856e-316)
(0.792967 0.113474 8.79122e-317)
(0.791938 0.0246234 6.48305e-317)
(0.85087 0.0391063 4.73002e-317)
(0.863425 0.00706939 3.36079e-317)
(0.875853 0.0284732 2.25248e-317)
(0.905661 0.0131473 1.31796e-317)
(0.889421 0.0416889 4.92487e-318)
(0.943714 0.0239602 -2.66384e-318)
(0.894354 0.0675461 -9.93412e-318)
(0.985874 0.0207584 -1.69138e-317)
(0.869756 0.0952328 -2.33812e-317)
(1.02646 -0.0650265 -2.83927e-317)
(0.749929 0.0814951 -2.97631e-317)
(1.04237 -0.452396 -1.98671e-317)
(0.389757 -0.218579 2.41639e-318)
(0.892486 -1.55126 9.16185e-317)
(0.923547 0.384463 2.13282e-316)
(0.533037 0.315322 1.06612e-316)
(0.949261 0.199796 8.08355e-317)
(0.919985 0.097818 5.70595e-317)
(1.06879 0.0748651 4.44259e-317)
(1.06746 0.0211411 3.39721e-317)
(1.11996 0.0220513 2.59074e-317)
(1.1225 0.000993232 1.90634e-317)
(1.13441 0.00932607 1.31977e-317)
(1.15021 -0.00135011 8.02484e-318)
(1.14133 0.0111108 3.33145e-318)
(1.17754 -0.0018025 -1.0327e-318)
(1.1438 0.0156886 -5.1385e-318)
(1.20618 -0.0170631 -9.08321e-318)
(1.11115 0.00702698 -1.28018e-317)
(1.20791 -0.0963783 -1.67901e-317)
(0.949303 -0.057907 -2.08769e-317)
(1.07612 -0.350272 -3.10731e-317)
(0.50478 -0.277911 -4.4168e-317)
(0.25248 -0.396925 -9.64057e-317)
(-0.18103 -0.111308 7.56083e-316)
(0.649151 0.420218 4.71907e-316)
(1.16865 0.116812 3.19802e-316)
(1.21855 0.0502604 2.17437e-316)
(1.42805 0.0248837 1.53897e-316)
(1.39139 -0.00832273 1.09803e-316)
(1.44193 0.00507012 7.83133e-317)
(1.43571 -0.00317448 5.45599e-317)
(1.43402 0.0122137 3.58528e-317)
(1.47572 0.00967716 2.03048e-317)
(1.45181 0.0281543 6.63912e-318)
(1.55484 0.0257997 -6.03189e-318)
(1.50562 0.0555915 -1.84032e-317)
(1.70057 0.0451958 -3.06712e-317)
(1.57574 0.0998747 -4.24681e-317)
(1.92171 0.0351679 -5.21885e-317)
(1.49172 0.160681 -5.55175e-317)
(2.1484 -0.185777 -4.11498e-317)
(0.538789 0.251374 7.60066e-319)
(2.15597 -1.05668 1.39133e-316)
)
;

boundaryField
{
    cavity
    {
        type            myImplicitVelocity;
    }
    lid
    {
        type            fixedValue;
        value           uniform (1 0 0);
    }
    frontAndBack
    {
        type            empty;
    }
}


// ************************************************************************* //
