/*--------------------------------*- C++ -*----------------------------------*\
| =========                 |                                                 |
| \\      /  F ield         | foam-extend: Open Source CFD                    |
|  \\    /   O peration     | Version:  3.0                                   |
|   \\  /    A nd           | Web:         http://www.extend-project.de       |
|    \\/     M anipulation  |                                                 |
\*---------------------------------------------------------------------------*/
FoamFile
{
    version     2.0;
    format      ascii;
    class       volScalarField;
    location    "63";
    object      p;
}
// * * * * * * * * * * * * * * * * * * * * * * * * * * * * * * * * * * * * * //

dimensions      [0 0 0 0 0 0 0];

internalField   nonuniform List<scalar> 
7680
(
-0.230644
-0.218502
-0.209463
-0.199921
-0.192966
-0.185341
-0.179936
-0.173769
-0.169544
-0.164511
-0.161202
-0.157064
-0.154473
-0.151052
-0.149027
-0.146184
-0.144605
-0.142226
-0.140995
-0.138988
-0.138019
-0.136304
-0.135523
-0.134026
-0.133364
-0.13202
-0.131408
-0.130152
-0.129524
-0.128297
-0.127585
-0.126337
-0.12548
-0.124177
-0.123135
-0.121796
-0.120588
-0.119342
-0.118115
-0.117274
-0.230347
-0.21822
-0.209194
-0.199665
-0.192718
-0.185105
-0.179706
-0.173548
-0.169327
-0.164301
-0.160994
-0.156863
-0.154272
-0.150858
-0.148832
-0.145995
-0.144416
-0.142044
-0.140812
-0.138812
-0.137844
-0.136135
-0.135355
-0.133866
-0.133204
-0.131867
-0.131255
-0.130005
-0.129373
-0.128147
-0.127425
-0.126163
-0.125281
-0.123943
-0.122848
-0.121448
-0.120153
-0.118859
-0.117579
-0.116909
-0.22991
-0.217804
-0.208794
-0.199282
-0.19235
-0.184751
-0.179364
-0.173218
-0.169009
-0.163993
-0.160697
-0.156575
-0.153995
-0.150589
-0.148574
-0.145745
-0.144176
-0.141811
-0.140591
-0.138598
-0.137643
-0.135942
-0.135175
-0.133694
-0.133048
-0.131719
-0.131124
-0.129881
-0.129266
-0.128045
-0.127334
-0.126069
-0.125184
-0.123825
-0.122688
-0.121231
-0.11981
-0.118419
-0.116872
-0.116329
-0.229121
-0.217056
-0.208076
-0.198597
-0.191689
-0.184116
-0.178748
-0.172624
-0.168429
-0.163431
-0.160145
-0.156039
-0.153466
-0.150074
-0.148065
-0.145248
-0.143685
-0.141332
-0.140116
-0.138136
-0.137185
-0.135498
-0.134738
-0.133273
-0.132635
-0.131324
-0.130742
-0.12952
-0.128923
-0.127724
-0.127037
-0.125796
-0.124937
-0.123594
-0.122483
-0.121018
-0.119602
-0.118145
-0.116546
-0.115801
-0.228191
-0.216173
-0.20723
-0.197788
-0.190909
-0.183367
-0.178022
-0.171924
-0.167748
-0.162772
-0.159503
-0.155415
-0.152858
-0.149482
-0.147487
-0.144685
-0.143135
-0.140796
-0.139594
-0.137627
-0.136691
-0.135018
-0.134276
-0.132825
-0.13221
-0.130917
-0.130364
-0.129165
-0.128605
-0.127436
-0.1268
-0.125595
-0.124807
-0.123504
-0.122491
-0.121057
-0.119781
-0.118282
-0.116845
-0.11558
-0.226912
-0.214961
-0.206068
-0.19668
-0.189839
-0.18234
-0.177025
-0.170962
-0.166809
-0.161862
-0.158611
-0.154547
-0.152004
-0.148649
-0.146665
-0.143881
-0.14234
-0.140019
-0.138825
-0.136875
-0.135949
-0.134293
-0.133562
-0.132132
-0.131532
-0.130265
-0.129733
-0.128566
-0.12804
-0.126912
-0.126325
-0.125172
-0.124455
-0.123212
-0.122292
-0.120903
-0.119717
-0.118147
-0.116662
-0.114889
-0.225494
-0.213616
-0.204778
-0.195448
-0.18865
-0.181198
-0.175918
-0.169893
-0.165769
-0.160854
-0.157627
-0.15359
-0.151067
-0.147735
-0.145769
-0.143005
-0.141481
-0.139177
-0.138
-0.136067
-0.135158
-0.13352
-0.132809
-0.131398
-0.130823
-0.129579
-0.12908
-0.127944
-0.127465
-0.126377
-0.125858
-0.124757
-0.124136
-0.122953
-0.122163
-0.12081
-0.119767
-0.118097
-0.116639
-0.114274
-0.223731
-0.211946
-0.203177
-0.19392
-0.187176
-0.179783
-0.174544
-0.168567
-0.164475
-0.1596
-0.156397
-0.152394
-0.14989
-0.146586
-0.144635
-0.141896
-0.140384
-0.138103
-0.136936
-0.135024
-0.134125
-0.132508
-0.131809
-0.130421
-0.129861
-0.128644
-0.128168
-0.127064
-0.126617
-0.125572
-0.1251
-0.124052
-0.123496
-0.122369
-0.121655
-0.120332
-0.119339
-0.11758
-0.116038
-0.113258
-0.22183
-0.210143
-0.201449
-0.19227
-0.185584
-0.178253
-0.173061
-0.167135
-0.16308
-0.158247
-0.155074
-0.151106
-0.148628
-0.145353
-0.143424
-0.14071
-0.139217
-0.136957
-0.135808
-0.133916
-0.133034
-0.131437
-0.130756
-0.129388
-0.12885
-0.127655
-0.127206
-0.12613
-0.125721
-0.124708
-0.124289
-0.123279
-0.122791
-0.121701
-0.121064
-0.119747
-0.118808
-0.116958
-0.115366
-0.112277
-0.219591
-0.208022
-0.199416
-0.19033
-0.183712
-0.176456
-0.171316
-0.165451
-0.161436
-0.156653
-0.153512
-0.149586
-0.147132
-0.143892
-0.141982
-0.139298
-0.13782
-0.135586
-0.134449
-0.132581
-0.131709
-0.130133
-0.129462
-0.128116
-0.127589
-0.126416
-0.125981
-0.124929
-0.124537
-0.123553
-0.123155
-0.122175
-0.121712
-0.120646
-0.120026
-0.118711
-0.117758
-0.115857
-0.114186
-0.110985
-0.217215
-0.20577
-0.197257
-0.188269
-0.181723
-0.174546
-0.169462
-0.163661
-0.159692
-0.154961
-0.151857
-0.147973
-0.145549
-0.142345
-0.140459
-0.137806
-0.136348
-0.13414
-0.13302
-0.131174
-0.130318
-0.128761
-0.128105
-0.126776
-0.126263
-0.125107
-0.124687
-0.123651
-0.123277
-0.122307
-0.121928
-0.12096
-0.120515
-0.119453
-0.118842
-0.117517
-0.116553
-0.114627
-0.112926
-0.109742
-0.214509
-0.203207
-0.1948
-0.185925
-0.179461
-0.172374
-0.167354
-0.161626
-0.157706
-0.153035
-0.149969
-0.146135
-0.14374
-0.140578
-0.138715
-0.136095
-0.134655
-0.132477
-0.13137
-0.129548
-0.128702
-0.127167
-0.126517
-0.125206
-0.124697
-0.123556
-0.123138
-0.122114
-0.121736
-0.120775
-0.120386
-0.119422
-0.118956
-0.117891
-0.117248
-0.115917
-0.114911
-0.113009
-0.111293
-0.108269
-0.211669
-0.200515
-0.19222
-0.183462
-0.177083
-0.17009
-0.165138
-0.159486
-0.155619
-0.15101
-0.147987
-0.144204
-0.141843
-0.138723
-0.136887
-0.134303
-0.132884
-0.130734
-0.129645
-0.127847
-0.127014
-0.125497
-0.124858
-0.123561
-0.123059
-0.121927
-0.121511
-0.120491
-0.12011
-0.119145
-0.118744
-0.117769
-0.11728
-0.116199
-0.115522
-0.114185
-0.113149
-0.111299
-0.109614
-0.106832
-0.208508
-0.197522
-0.189351
-0.180724
-0.174441
-0.167553
-0.162675
-0.157108
-0.153299
-0.14876
-0.14578
-0.142055
-0.139728
-0.136656
-0.134846
-0.132301
-0.130902
-0.128785
-0.127709
-0.125938
-0.125114
-0.123619
-0.122982
-0.121702
-0.121197
-0.120075
-0.119649
-0.118631
-0.118231
-0.11726
-0.116828
-0.115838
-0.115304
-0.114207
-0.113475
-0.112143
-0.11107
-0.109309
-0.107676
-0.105207
-0.205215
-0.194401
-0.18636
-0.177869
-0.171686
-0.164907
-0.160106
-0.154627
-0.150879
-0.146411
-0.143481
-0.139814
-0.137526
-0.134501
-0.132722
-0.130216
-0.12884
-0.126755
-0.125697
-0.123951
-0.123139
-0.121663
-0.121033
-0.119765
-0.119261
-0.118145
-0.117711
-0.116691
-0.116273
-0.11529
-0.114829
-0.113818
-0.113242
-0.112126
-0.111348
-0.110024
-0.10893
-0.107273
-0.105721
-0.103591
-0.201612
-0.19099
-0.18309
-0.174749
-0.168675
-0.162015
-0.157299
-0.151917
-0.148234
-0.143846
-0.140966
-0.137364
-0.135115
-0.132144
-0.130394
-0.127933
-0.126579
-0.12453
-0.123487
-0.12177
-0.120966
-0.119513
-0.118885
-0.117633
-0.117124
-0.116015
-0.115568
-0.114547
-0.114105
-0.113112
-0.112612
-0.111586
-0.11096
-0.109831
-0.109003
-0.1077
-0.106588
-0.10505
-0.103588
-0.101806
-0.197881
-0.187455
-0.179701
-0.171515
-0.165553
-0.159017
-0.154388
-0.149105
-0.145492
-0.141184
-0.138358
-0.134823
-0.132616
-0.129699
-0.127982
-0.125565
-0.124236
-0.122223
-0.121198
-0.119509
-0.118718
-0.117285
-0.116664
-0.115425
-0.114915
-0.113813
-0.113357
-0.112334
-0.111872
-0.11087
-0.11034
-0.109298
-0.108634
-0.107495
-0.106631
-0.105351
-0.104236
-0.102816
-0.101452
-0.099995
-0.193852
-0.18364
-0.176044
-0.168026
-0.162186
-0.155784
-0.151249
-0.146075
-0.142534
-0.138315
-0.135546
-0.132083
-0.129919
-0.127062
-0.125378
-0.12301
-0.121706
-0.119733
-0.118725
-0.117068
-0.116287
-0.11488
-0.114263
-0.113042
-0.11253
-0.111439
-0.110972
-0.109953
-0.109473
-0.108467
-0.10791
-0.106862
-0.106165
-0.105027
-0.104134
-0.102886
-0.101775
-0.100468
-0.0991971
-0.0980277
-0.189698
-0.179705
-0.172273
-0.164426
-0.158712
-0.152446
-0.148009
-0.142945
-0.139481
-0.135351
-0.132642
-0.129252
-0.127136
-0.124338
-0.122691
-0.120371
-0.119094
-0.117161
-0.116173
-0.114548
-0.113781
-0.112398
-0.111789
-0.110586
-0.110076
-0.108997
-0.108527
-0.107513
-0.107023
-0.106019
-0.105447
-0.104399
-0.103684
-0.102553
-0.10165
-0.100435
-0.0993403
-0.0981307
-0.0969446
-0.0960037
-0.18526
-0.175502
-0.168245
-0.160583
-0.155002
-0.148884
-0.144551
-0.139606
-0.136223
-0.13219
-0.129543
-0.126233
-0.124165
-0.121433
-0.119822
-0.117557
-0.116308
-0.114419
-0.113451
-0.111862
-0.111109
-0.109755
-0.109154
-0.107975
-0.107468
-0.106407
-0.105936
-0.104937
-0.104443
-0.103451
-0.102873
-0.101838
-0.101118
-0.100007
-0.0991067
-0.0979318
-0.0968613
-0.0957322
-0.0946169
-0.0938369
-0.180702
-0.171185
-0.164106
-0.156633
-0.15119
-0.145223
-0.140996
-0.136172
-0.132872
-0.128938
-0.126356
-0.123127
-0.121109
-0.118443
-0.116872
-0.11466
-0.11344
-0.111595
-0.11065
-0.109098
-0.10836
-0.107036
-0.106447
-0.105292
-0.104793
-0.103753
-0.103287
-0.102307
-0.101818
-0.100845
-0.100273
-0.0992601
-0.0985517
-0.0974699
-0.0965896
-0.095455
-0.0944187
-0.0933476
-0.0922869
-0.091591
-0.175873
-0.166613
-0.159724
-0.152452
-0.147155
-0.141348
-0.137234
-0.13254
-0.129327
-0.125499
-0.122985
-0.119842
-0.117877
-0.115283
-0.113752
-0.111599
-0.11041
-0.108614
-0.107692
-0.106181
-0.10546
-0.104171
-0.103594
-0.10247
-0.101982
-0.100969
-0.100515
-0.099562
-0.0990864
-0.0981431
-0.0975907
-0.0966124
-0.0959321
-0.0948907
-0.0940485
-0.0929575
-0.091966
-0.0909314
-0.08991
-0.0892206
-0.17093
-0.161931
-0.155237
-0.148169
-0.143021
-0.137377
-0.133379
-0.128816
-0.125694
-0.121972
-0.119529
-0.116473
-0.114563
-0.11204
-0.110551
-0.108457
-0.107301
-0.105554
-0.104656
-0.103185
-0.102485
-0.10123
-0.100669
-0.0995752
-0.0991013
-0.0981183
-0.0976798
-0.0967581
-0.0963032
-0.0953957
-0.0948726
-0.0939371
-0.0932975
-0.0923049
-0.0915141
-0.0904686
-0.0895288
-0.0885106
-0.0875119
-0.0867569
-0.165732
-0.157009
-0.150519
-0.143668
-0.138677
-0.133205
-0.129328
-0.124905
-0.121877
-0.11827
-0.1159
-0.112937
-0.111084
-0.108638
-0.107193
-0.105163
-0.104041
-0.102347
-0.101476
-0.10005
-0.0993698
-0.0981545
-0.0976113
-0.0965542
-0.096098
-0.0951508
-0.0947335
-0.0938504
-0.0934242
-0.0925613
-0.0920791
-0.0911959
-0.0906125
-0.0896774
-0.0889552
-0.0879577
-0.0870823
-0.0860634
-0.0850795
-0.0841938
-0.160426
-0.151984
-0.145702
-0.139071
-0.13424
-0.128943
-0.12519
-0.120908
-0.117977
-0.114483
-0.112189
-0.10932
-0.107526
-0.105156
-0.103757
-0.101791
-0.100704
-0.0990622
-0.0982186
-0.0968374
-0.0961793
-0.0950028
-0.0944787
-0.0934576
-0.0930205
-0.0921095
-0.0917149
-0.0908717
-0.0904764
-0.0896608
-0.0892224
-0.0883962
-0.0878727
-0.0870008
-0.086352
-0.085406
-0.0845977
-0.0835696
-0.082591
-0.0815306
-0.15488
-0.146732
-0.140669
-0.134268
-0.129604
-0.124492
-0.120869
-0.116735
-0.113905
-0.110533
-0.108317
-0.105548
-0.103814
-0.101527
-0.100175
-0.0982775
-0.0972268
-0.0956429
-0.0948279
-0.093496
-0.0928611
-0.0917281
-0.0912249
-0.0902443
-0.0898289
-0.0889585
-0.0885904
-0.0877915
-0.0874324
-0.0866684
-0.0862812
-0.0855157
-0.0850624
-0.0842568
-0.0836943
-0.0828014
-0.0820744
-0.0810316
-0.0800657
-0.078799
-0.149235
-0.141385
-0.135544
-0.129377
-0.124883
-0.119957
-0.116466
-0.112482
-0.109754
-0.106504
-0.104369
-0.101698
-0.100028
-0.0978225
-0.0965192
-0.0946888
-0.0936759
-0.0921483
-0.0913628
-0.0900787
-0.0894676
-0.0883766
-0.087894
-0.0869522
-0.0865574
-0.0857259
-0.0853817
-0.0846253
-0.0842978
-0.0835834
-0.0832404
-0.0825344
-0.0821419
-0.0814031
-0.0809172
-0.0800816
-0.0794296
-0.0783815
-0.0774286
-0.0759634
-0.143364
-0.135826
-0.130216
-0.124293
-0.119976
-0.115245
-0.111891
-0.108065
-0.105444
-0.102322
-0.10027
-0.0977056
-0.0960996
-0.0939815
-0.0927285
-0.0909706
-0.0899967
-0.08853
-0.0877752
-0.0865432
-0.085957
-0.0849118
-0.0844512
-0.0835515
-0.0831787
-0.0823884
-0.0820699
-0.0813568
-0.0810629
-0.0803969
-0.0801001
-0.0794498
-0.0791209
-0.0784438
-0.0780397
-0.0772589
-0.0766944
-0.0756485
-0.0747346
-0.07309
-0.137403
-0.13018
-0.124804
-0.119128
-0.114991
-0.110456
-0.107242
-0.103574
-0.101061
-0.0980682
-0.0961006
-0.0936411
-0.0921012
-0.0900695
-0.0888678
-0.0871812
-0.0862471
-0.08484
-0.0841161
-0.0829344
-0.0823728
-0.0813712
-0.0809311
-0.0800709
-0.0797168
-0.0789643
-0.0786654
-0.0779908
-0.07772
-0.0770961
-0.0768291
-0.0762267
-0.0759374
-0.075315
-0.0749633
-0.0742383
-0.0737352
-0.0727177
-0.0718425
-0.0700996
-0.131233
-0.124338
-0.119204
-0.113785
-0.109834
-0.105504
-0.102434
-0.0989315
-0.0965313
-0.0936732
-0.0917931
-0.0894446
-0.0879728
-0.0860327
-0.0848838
-0.0832735
-0.0823804
-0.0810372
-0.0803452
-0.0792178
-0.0786816
-0.077727
-0.0773082
-0.0764898
-0.0761552
-0.0754414
-0.0751624
-0.074525
-0.0742769
-0.0736902
-0.073451
-0.0728874
-0.0726344
-0.0720535
-0.0717509
-0.071071
-0.0706347
-0.0696573
-0.0688569
-0.0670881
-0.124982
-0.118417
-0.113529
-0.108369
-0.104606
-0.100482
-0.0975578
-0.0942216
-0.0919353
-0.0892119
-0.0874206
-0.0851824
-0.0837799
-0.0819304
-0.0808353
-0.0792998
-0.0784482
-0.0771672
-0.0765073
-0.0754321
-0.0749207
-0.0740106
-0.0736112
-0.0728315
-0.0725124
-0.071833
-0.0715666
-0.0709606
-0.0707225
-0.0701648
-0.0699325
-0.0693962
-0.0691463
-0.068594
-0.0682924
-0.0676515
-0.0672247
-0.0663183
-0.065563
-0.0639239
-0.11854
-0.112316
-0.107681
-0.102789
-0.0992207
-0.0953107
-0.0925366
-0.0893734
-0.0872043
-0.0846221
-0.0829222
-0.0807998
-0.0794685
-0.0777147
-0.0766749
-0.0752189
-0.07441
-0.0731954
-0.0725684
-0.0715491
-0.0710632
-0.0702006
-0.0698212
-0.0690824
-0.0687793
-0.0681353
-0.0678818
-0.0673061
-0.0670778
-0.0665449
-0.0663187
-0.0658011
-0.0655526
-0.0650142
-0.0647121
-0.0640921
-0.06368
-0.0628428
-0.0621695
-0.0607355
-0.112026
-0.106147
-0.101767
-0.0971445
-0.0937728
-0.0900773
-0.0874555
-0.0844652
-0.0824148
-0.079973
-0.0783659
-0.0763584
-0.0750993
-0.07344
-0.0724562
-0.0710781
-0.0703124
-0.0691624
-0.0685684
-0.067603
-0.067142
-0.0663247
-0.0659638
-0.065263
-0.0649729
-0.0643607
-0.0641147
-0.0635648
-0.063337
-0.0628231
-0.0625866
-0.0620798
-0.0618043
-0.06127
-0.0609182
-0.0603106
-0.0598331
-0.059083
-0.0584006
-0.0573529
-0.105338
-0.0998128
-0.0956961
-0.0913514
-0.0881813
-0.0847079
-0.0822424
-0.0794316
-0.077503
-0.0752077
-0.0736956
-0.0718084
-0.0706233
-0.0690633
-0.0681369
-0.0668413
-0.0661197
-0.0650384
-0.0644781
-0.0635702
-0.0631348
-0.0623658
-0.062024
-0.061364
-0.0610877
-0.0605094
-0.0602721
-0.0597494
-0.0595246
-0.0590303
-0.058789
-0.0582929
-0.0580012
-0.0574688
-0.0570881
-0.0564859
-0.0559817
-0.0553017
-0.054683
-0.0539738
-0.0985899
-0.0934209
-0.0895692
-0.0855034
-0.0825368
-0.0792856
-0.0769779
-0.0743462
-0.0725407
-0.0703911
-0.068975
-0.067207
-0.0660968
-0.0646347
-0.0637664
-0.0625516
-0.0618747
-0.0608603
-0.0603342
-0.0594818
-0.0590721
-0.0583494
-0.0580264
-0.057405
-0.0571416
-0.0565953
-0.0563653
-0.0558685
-0.0556445
-0.0551698
-0.0549202
-0.054437
-0.0541232
-0.0535979
-0.0531724
-0.0525802
-0.0519956
-0.0513765
-0.0506581
-0.0503707
-0.0916845
-0.0868811
-0.0833004
-0.0795217
-0.0767632
-0.0737412
-0.0715949
-0.0691486
-0.0674689
-0.0654705
-0.0641527
-0.0625089
-0.0614752
-0.0601158
-0.0593067
-0.058177
-0.0575457
-0.0566021
-0.0561106
-0.0553175
-0.0549338
-0.0542608
-0.053957
-0.0533775
-0.0531278
-0.052617
-0.0523962
-0.0519295
-0.0517107
-0.0512616
-0.0510138
-0.0505537
-0.0502394
-0.0497392
-0.0493151
-0.0487624
-0.0481945
-0.0476609
-0.0470127
-0.0469343
-0.0847313
-0.0802945
-0.0769867
-0.0734952
-0.0709464
-0.0681533
-0.0661697
-0.063908
-0.0623551
-0.0605069
-0.0592882
-0.0577674
-0.056811
-0.0555526
-0.0548036
-0.0537573
-0.0531724
-0.0522978
-0.0518418
-0.051106
-0.0507492
-0.0501242
-0.0498406
-0.0493017
-0.0490673
-0.0485913
-0.0483824
-0.0479466
-0.0477381
-0.0473187
-0.0470826
-0.046655
-0.0463602
-0.0459039
-0.0455219
-0.0450397
-0.0445704
-0.0441498
-0.0437056
-0.0436505
-0.0776381
-0.0735764
-0.0705468
-0.0673501
-0.065015
-0.0624574
-0.0606396
-0.0585683
-0.0571448
-0.055452
-0.0543344
-0.0529412
-0.0520636
-0.0509107
-0.0502227
-0.0492638
-0.0487259
-0.0479242
-0.0475038
-0.0468291
-0.0464992
-0.0459257
-0.0456623
-0.0451675
-0.0449484
-0.0445113
-0.0443149
-0.0439152
-0.043719
-0.0433364
-0.0431165
-0.042732
-0.0424642
-0.0420657
-0.0417328
-0.041333
-0.040946
-0.0406218
-0.0402706
-0.0402168
-0.0705097
-0.0668235
-0.0640736
-0.0611711
-0.0590509
-0.056728
-0.055077
-0.053195
-0.0519017
-0.050363
-0.0493471
-0.0480802
-0.047282
-0.0462329
-0.0456068
-0.0447337
-0.0442435
-0.043513
-0.0431295
-0.0425141
-0.0422125
-0.0416891
-0.0414479
-0.040996
-0.0407955
-0.0403968
-0.040218
-0.0398551
-0.0396795
-0.0393363
-0.039146
-0.0388094
-0.0385901
-0.0382551
-0.0380036
-0.0376848
-0.0374239
-0.0371672
-0.036956
-0.0367967
-0.063259
-0.0599557
-0.0574901
-0.0548887
-0.052987
-0.0509046
-0.0494233
-0.0477359
-0.046575
-0.0451952
-0.0442827
-0.0431464
-0.042429
-0.0414878
-0.0409243
-0.0401408
-0.0396989
-0.039043
-0.0386964
-0.0381437
-0.0378702
-0.0374
-0.0371803
-0.0367748
-0.0365914
-0.0362348
-0.0360716
-0.0357496
-0.0355915
-0.0352924
-0.0351262
-0.0348417
-0.034659
-0.034389
-0.0341911
-0.0339472
-0.0337506
-0.033549
-0.0333724
-0.0331666
-0.0559861
-0.0530657
-0.0508851
-0.0485839
-0.0469014
-0.0450584
-0.0437472
-0.0422531
-0.0412251
-0.0400027
-0.0391943
-0.0381869
-0.0375508
-0.0367158
-0.0362157
-0.03552
-0.0351274
-0.0345444
-0.034236
-0.0337444
-0.0335007
-0.0330823
-0.0328867
-0.0325262
-0.032364
-0.0320482
-0.0319063
-0.0316244
-0.0314919
-0.0312355
-0.0311046
-0.0308698
-0.0307382
-0.0305266
-0.0304001
-0.0302167
-0.0301067
-0.0299386
-0.0298332
-0.0295658
-0.0486087
-0.0460774
-0.0441859
-0.0421907
-0.0407306
-0.0391323
-0.0379938
-0.0366977
-0.0358046
-0.0347439
-0.034041
-0.0331666
-0.0326129
-0.0318879
-0.0314518
-0.0308474
-0.0305042
-0.0299976
-0.0297271
-0.0292997
-0.029085
-0.0287214
-0.0285483
-0.0282357
-0.0280918
-0.0278197
-0.0276945
-0.027455
-0.0273406
-0.0271288
-0.0270205
-0.0268353
-0.0267331
-0.0265769
-0.026485
-0.0263569
-0.0262765
-0.0261485
-0.0260482
-0.0258116
-0.0412228
-0.0390798
-0.0374777
-0.0357872
-0.0345496
-0.0331943
-0.0322288
-0.0311291
-0.0303711
-0.0294703
-0.0288732
-0.02813
-0.0276592
-0.0270423
-0.026671
-0.0261561
-0.0258634
-0.0254312
-0.0252001
-0.0248351
-0.0246516
-0.024341
-0.0241933
-0.0239268
-0.0238052
-0.0235748
-0.0234719
-0.0232722
-0.023183
-0.0230117
-0.0229349
-0.0227928
-0.0227308
-0.0226201
-0.0225768
-0.0224913
-0.0224625
-0.0223644
-0.0223102
-0.0220867
-0.03375
-0.0320008
-0.0306913
-0.0293106
-0.0282982
-0.0271907
-0.0264002
-0.025501
-0.0248797
-0.0241429
-0.0236528
-0.0230446
-0.0226573
-0.0221521
-0.0218459
-0.0214239
-0.0211815
-0.020827
-0.0206347
-0.0203351
-0.0201813
-0.0199266
-0.0198019
-0.0195841
-0.0194811
-0.0192945
-0.0192076
-0.0190492
-0.0189756
-0.0188453
-0.0187852
-0.0186856
-0.0186419
-0.0185755
-0.0185506
-0.0185105
-0.0184976
-0.0184478
-0.0184104
-0.0182716
-0.026283
-0.0249259
-0.0239088
-0.0228358
-0.0220485
-0.0211866
-0.020571
-0.0198704
-0.0193859
-0.0188109
-0.0184281
-0.0179526
-0.0176495
-0.0172538
-0.0170134
-0.0166822
-0.0164913
-0.0162125
-0.0160605
-0.0158244
-0.0157025
-0.0155016
-0.015403
-0.0152317
-0.0151512
-0.0150059
-0.0149402
-0.0148197
-0.0147681
-0.0146739
-0.0146384
-0.0145741
-0.014559
-0.0145278
-0.0145361
-0.014532
-0.0145585
-0.0145506
-0.0145658
-0.0144866
-0.0187466
-0.0177862
-0.0170641
-0.0163033
-0.015743
-0.0151309
-0.0146919
-0.0141935
-0.0138471
-0.0134375
-0.0131628
-0.0128236
-0.0126051
-0.0123222
-0.0121478
-0.0119105
-0.0117708
-0.0115705
-0.011458
-0.0112882
-0.0111967
-0.0110523
-0.0109771
-0.0108547
-0.0107925
-0.0106904
-0.0106395
-0.0105583
-0.0105192
-0.0104617
-0.0104372
-0.0104085
-0.0104032
-0.0104084
-0.0104272
-0.010465
-0.0105081
-0.0105586
-0.0106113
-0.0106308
-0.0112306
-0.0106644
-0.0102364
-0.00978525
-0.00945143
-0.00908664
-0.00882371
-0.00852527
-0.00831664
-0.00807007
-0.00790356
-0.00769815
-0.00756458
-0.00739217
-0.00728445
-0.00713876
-0.00705134
-0.00692751
-0.00685599
-0.00675034
-0.00669136
-0.00660131
-0.00655247
-0.00647665
-0.00643668
-0.00637514
-0.00634412
-0.00629866
-0.00627842
-0.00625294
-0.00624732
-0.00624784
-0.00626268
-0.00629625
-0.00633886
-0.00640967
-0.00648742
-0.00658808
-0.00670035
-0.00680124
-0.00366272
-0.00349439
-0.00336242
-0.00322451
-0.00311869
-0.00300462
-0.00291904
-0.00282376
-0.00275388
-0.0026735
-0.00261579
-0.00254729
-0.00249898
-0.00244004
-0.00239893
-0.00234778
-0.00231216
-0.00226753
-0.0022361
-0.00219726
-0.00216919
-0.00213601
-0.002111
-0.00208412
-0.00206257
-0.0020437
-0.00202695
-0.00201915
-0.00200979
-0.00201792
-0.00202012
-0.00205122
-0.00207128
-0.00213486
-0.00218247
-0.0022896
-0.00238031
-0.00253965
-0.00269266
-0.00290064
0.00386997
0.00364357
0.00348092
0.0033087
0.0031876
0.0030539
0.0029629
0.00285781
0.00278944
0.00270632
0.00265546
0.0025896
0.00255258
0.00250052
0.00247459
0.00243358
0.00241653
0.00238424
0.00237419
0.00234843
0.00234357
0.00232208
0.00232047
0.00230065
0.00230002
0.00227866
0.0022762
0.00224916
0.00224125
0.00220301
0.00218486
0.00212777
0.00209242
0.00200537
0.00194106
0.00180719
0.00169149
0.00148626
0.00128263
0.000980338
0.0114371
0.0108133
0.0103549
0.00986969
0.00952066
0.00913636
0.00886798
0.00855975
0.00835252
0.00810316
0.00794333
0.00774044
0.00761792
0.00745222
0.00735937
0.00722359
0.00715437
0.00704258
0.006992
0.00689911
0.0068628
0.00678415
0.00675809
0.0066891
0.00666933
0.00660524
0.00658771
0.00652323
0.00650356
0.00643245
0.00640563
0.00631974
0.00627907
0.00616613
0.00609992
0.00593852
0.00582139
0.00557048
0.00534839
0.00493169
0.0189541
0.0179367
0.0171845
0.0163899
0.0158145
0.015183
0.0147384
0.0142302
0.0138849
0.0134723
0.0132039
0.0128668
0.012659
0.0123823
0.0122223
0.0119943
0.0118722
0.0116834
0.0115911
0.0114334
0.0113639
0.0112303
0.0111773
0.0110613
0.011019
0.0109142
0.010877
0.0107771
0.0107394
0.0106373
0.0105935
0.0104807
0.0104237
0.0102876
0.0102055
0.0100225
0.00988806
0.00960607
0.00935064
0.00885502
0.0264884
0.0250758
0.0240292
0.0229233
0.0221209
0.02124
0.0206188
0.0199083
0.0194247
0.0188465
0.0184695
0.0179959
0.0177026
0.0173127
0.0170858
0.0167632
0.0165888
0.0163206
0.0161874
0.0159626
0.0158611
0.0156702
0.0155919
0.0154264
0.0153637
0.0152155
0.0151612
0.0150227
0.0149699
0.014833
0.0147751
0.0146307
0.0145604
0.014396
0.0143031
0.0140955
0.013959
0.0136534
0.0134133
0.012841
0.0339572
0.0321539
0.0308155
0.0294024
0.0283752
0.0272487
0.0264523
0.0255432
0.0249223
0.0241818
0.0236969
0.0230898
0.0227117
0.0222113
0.0219175
0.0215031
0.021276
0.0209309
0.020756
0.0204665
0.0203317
0.0200857
0.0199802
0.0197673
0.0196814
0.0194918
0.0194165
0.0192409
0.0191678
0.018997
0.0189178
0.0187416
0.0186476
0.0184528
0.0183329
0.0180967
0.0179306
0.0176002
0.017333
0.0167489
0.0414266
0.0392319
0.0376019
0.0358802
0.0346282
0.0332545
0.032283
0.0311733
0.0304152
0.0295106
0.0289179
0.0281754
0.0277124
0.0270996
0.0267393
0.0262309
0.0259517
0.0255277
0.0253119
0.0249555
0.0247884
0.0244852
0.0243537
0.024091
0.0239835
0.0237496
0.023655
0.0234391
0.0233468
0.023138
0.0230374
0.0228242
0.0227036
0.0224714
0.0223157
0.0220416
0.0218249
0.0214632
0.0211298
0.0205921
0.0488152
0.0462343
0.0443157
0.0422904
0.0408159
0.0391994
0.0380546
0.0367484
0.0358545
0.0347893
0.0340898
0.0332152
0.0326681
0.0319459
0.0315193
0.03092
0.0305885
0.0300883
0.0298311
0.0294105
0.0292101
0.0288521
0.0286934
0.0283832
0.0282521
0.0279762
0.0278598
0.0276055
0.0274909
0.0272456
0.0271202
0.0268707
0.0267203
0.026451
0.0262587
0.0259485
0.0256913
0.0253079
0.024952
0.0244575
0.056188
0.053221
0.0510148
0.0486851
0.0469887
0.0451283
0.0438107
0.0423067
0.0412773
0.0400501
0.0392441
0.0382357
0.0376049
0.0367717
0.0362793
0.0355872
0.035204
0.0346258
0.034328
0.0338411
0.0336085
0.0331937
0.0330087
0.032649
0.0324955
0.0321753
0.0320381
0.0317429
0.0316069
0.0313224
0.031172
0.0308834
0.0307015
0.0303929
0.0301598
0.0298135
0.029508
0.0291083
0.0287163
0.0282823
0.0634646
0.0601175
0.0576273
0.0549986
0.0530832
0.0509838
0.0494956
0.047798
0.0466348
0.0452495
0.0443383
0.0431998
0.0424861
0.0415453
0.0409875
0.0402058
0.039771
0.0391178
0.0387792
0.0382289
0.0379637
0.0374947
0.0372829
0.0368762
0.0366995
0.0363375
0.0361788
0.0358452
0.0356873
0.0353661
0.0351914
0.0348665
0.0346563
0.0343118
0.0340465
0.0336681
0.0333318
0.0329165
0.0325118
0.0321076
0.0707095
0.0669832
0.0642105
0.0612829
0.0591496
0.0568106
0.0551526
0.0532607
0.0519645
0.05042
0.0494041
0.0481343
0.0473382
0.0462883
0.0456658
0.0447929
0.0443073
0.0435774
0.0431988
0.0425835
0.0422864
0.0417617
0.0415239
0.0410685
0.0408697
0.0404643
0.0402852
0.0399116
0.0397329
0.0393738
0.0391758
0.0388142
0.0385766
0.0381971
0.0379003
0.0374923
0.0371246
0.0366946
0.036271
0.0358817
0.0778427
0.0737441
0.070693
0.0674725
0.0651246
0.0625513
0.0607261
0.0586445
0.0572172
0.0555178
0.0543987
0.0530015
0.0521242
0.0509687
0.0502822
0.0493216
0.0487856
0.0479822
0.0475637
0.0468864
0.0465575
0.0459799
0.0457162
0.045215
0.0449941
0.0445482
0.0443489
0.0439385
0.0437403
0.0433466
0.0431283
0.0427336
0.0424743
0.0420636
0.0417446
0.0413093
0.0409224
0.0404725
0.0400369
0.039632
0.084929
0.0804596
0.0771324
0.0736197
0.0710587
0.0682512
0.06626
0.0639884
0.062431
0.0605759
0.0593546
0.0578289
0.0568712
0.0556091
0.0548594
0.0538097
0.053224
0.0523457
0.0518882
0.0511475
0.0507877
0.0501558
0.0498671
0.0493187
0.0490767
0.048589
0.048371
0.0479228
0.0477062
0.0472776
0.0470403
0.046613
0.0463334
0.0458925
0.0455523
0.0450902
0.0446826
0.0442086
0.0437521
0.0433148
0.0918882
0.0870558
0.0834571
0.0796587
0.0768883
0.0738525
0.0716982
0.0692416
0.0675564
0.0655502
0.0642284
0.0625784
0.0615415
0.0601766
0.0593646
0.0582294
0.0575947
0.0566449
0.0561488
0.0553479
0.0549575
0.0542743
0.0539609
0.0533684
0.0531059
0.0525796
0.0523436
0.0518608
0.0516278
0.0511675
0.0509144
0.0504578
0.0501626
0.049694
0.0493387
0.0488496
0.0484263
0.0479214
0.0474424
0.0469528
0.0987857
0.0935925
0.0897251
0.0856424
0.0826648
0.0794011
0.0770853
0.0744439
0.0726321
0.0704746
0.0690533
0.0672784
0.0661633
0.0646947
0.0638214
0.0625996
0.0619169
0.0608944
0.0603606
0.0594982
0.0590782
0.0583426
0.0580055
0.0573676
0.0570857
0.0565196
0.0562668
0.0557486
0.0555002
0.0550079
0.05474
0.0542538
0.0539438
0.0534473
0.0530762
0.0525587
0.0521161
0.0515757
0.0510656
0.0505156
0.105541
0.0999955
0.0958647
0.0915047
0.088324
0.0848386
0.0823646
0.0795438
0.077608
0.075304
0.0737851
0.0718898
0.070698
0.0691298
0.0681962
0.0668916
0.0661616
0.06507
0.0644991
0.0635786
0.0631293
0.0623445
0.0619841
0.0613041
0.0610032
0.0604004
0.0601318
0.0595812
0.0593189
0.0587973
0.0585167
0.0580033
0.0576812
0.057158
0.056774
0.0562267
0.0557663
0.0551851
0.0546417
0.0540211
0.11222
0.106326
0.101935
0.0972995
0.0939182
0.0902123
0.0875821
0.0845823
0.0825241
0.0800736
0.0784586
0.0764424
0.0751752
0.0735067
0.0725139
0.0711258
0.0703495
0.0691878
0.0685807
0.0676011
0.0671236
0.0662884
0.0659057
0.0651825
0.0648636
0.0642232
0.0639395
0.0633555
0.06308
0.0625283
0.0622353
0.0616939
0.0613591
0.060808
0.060409
0.0598303
0.0593479
0.0587237
0.0581409
0.0574503
0.118743
0.112508
0.107863
0.10296
0.0993825
0.0954626
0.0926797
0.0895069
0.0873291
0.0847372
0.0830282
0.0808959
0.0795548
0.0777903
0.0767395
0.0752717
0.07445
0.0732219
0.0725794
0.0715441
0.0710388
0.0701566
0.069752
0.0689885
0.0686522
0.0679769
0.0676787
0.0670639
0.0667759
0.0661962
0.0658918
0.0653236
0.0649772
0.0643984
0.0639855
0.063374
0.0628703
0.0622006
0.0615791
0.060814
0.125176
0.118604
0.113709
0.108541
0.104771
0.100638
0.0977051
0.0943601
0.0920645
0.0893317
0.0875304
0.0852818
0.0838682
0.0820074
0.0808999
0.0793519
0.0784859
0.0771906
0.0765138
0.0754218
0.0748898
0.0739595
0.0735341
0.0727294
0.0723764
0.0716652
0.0713532
0.0707065
0.0704063
0.0697973
0.069481
0.0688847
0.0685253
0.0679173
0.0674877
0.0668421
0.0663132
0.0655981
0.064934
0.0641016
0.131437
0.124539
0.119399
0.113975
0.110016
0.105679
0.102599
0.099088
0.0966777
0.0938094
0.091918
0.0895582
0.0880738
0.0861211
0.0849582
0.0833339
0.0824248
0.081066
0.0803554
0.0792103
0.0786521
0.077677
0.0772311
0.076388
0.0760185
0.075274
0.0749483
0.0742718
0.0739594
0.0733227
0.0729943
0.0723708
0.0719979
0.0713607
0.070914
0.0702339
0.0696802
0.0689197
0.0682165
0.0673166
0.137596
0.130376
0.124997
0.119318
0.115175
0.110634
0.107411
0.103735
0.101212
0.0982092
0.0962295
0.0937586
0.0922051
0.0901605
0.0889435
0.0872427
0.0862915
0.0848687
0.0841257
0.0829267
0.0823435
0.0813226
0.0808572
0.0799749
0.0795898
0.0788109
0.0784721
0.0777646
0.0774401
0.0767743
0.0764333
0.0757808
0.0753931
0.0747248
0.0742586
0.0735424
0.0729607
0.0721555
0.0714102
0.0704521
0.143569
0.136038
0.130426
0.124502
0.12018
0.115443
0.11208
0.108246
0.105614
0.102482
0.100416
0.0978393
0.0962185
0.0940864
0.0928168
0.0910436
0.0900515
0.0885685
0.0877936
0.0865443
0.0859363
0.084873
0.0843882
0.0834695
0.0830688
0.082258
0.0819057
0.0811693
0.0808319
0.0801385
0.0797838
0.079103
0.0786989
0.0779999
0.0775125
0.0767606
0.0761504
0.0753022
0.0745185
0.0735076
0.149428
0.14159
0.13575
0.129586
0.125087
0.120158
0.116658
0.112667
0.109928
0.106668
0.104519
0.101836
0.10015
0.0979306
0.09661
0.0947643
0.0937326
0.0921889
0.0913836
0.0900833
0.0894519
0.0883454
0.0878424
0.0868864
0.0864712
0.0856275
0.0852626
0.084496
0.0841465
0.0834239
0.0830556
0.0823449
0.0819238
0.0811922
0.0806823
0.0798933
0.0792532
0.0783622
0.0775391
0.0764814
0.155088
0.146955
0.140894
0.134497
0.129829
0.124714
0.121082
0.116941
0.114099
0.110716
0.108486
0.105704
0.103954
0.101652
0.100282
0.0983675
0.0972972
0.0956968
0.0948617
0.093514
0.0928595
0.0917129
0.0911917
0.0902015
0.0897713
0.0888972
0.0885192
0.0877245
0.0873616
0.0866115
0.0862279
0.0854885
0.0850483
0.0842848
0.0837501
0.0829248
0.0822525
0.0813207
0.0804577
0.0793595
0.160622
0.152199
0.145923