/*--------------------------------*- C++ -*----------------------------------*\
| =========                 |                                                 |
| \\      /  F ield         | foam-extend: Open Source CFD                    |
|  \\    /   O peration     | Version:  3.0                                   |
|   \\  /    A nd           | Web:         http://www.extend-project.de       |
|    \\/     M anipulation  |                                                 |
\*---------------------------------------------------------------------------*/
FoamFile
{
    version     2.0;
    format      ascii;
    class       volSymmTensorField;
    location    "3";
    object      sigma;
}
// * * * * * * * * * * * * * * * * * * * * * * * * * * * * * * * * * * * * * //

dimensions      [0 0 0 0 0 0 0];

internalField   nonuniform List<symmTensor> 
400
(
(0.000937497 0.000118462 0 -0.00153031 0 0.00059281)
(0.000583445 0.00125335 0 -0.00123236 0 0.00064892)
(0.000554132 0.00142944 0 -0.00124985 0 0.000695723)
(0.000216302 0.00160816 0 -0.000969991 0 0.000753688)
(-9.69337e-06 0.0015516 0 -0.000778513 0 0.000788207)
(-0.000271362 0.00150185 0 -0.000537513 0 0.000808874)
(-0.000466319 0.00143317 0 -0.000347165 0 0.000813483)
(-0.000640301 0.00139026 0 -0.000165448 0 0.00080575)
(-0.000783818 0.00135392 0 -7.46689e-06 0 0.000791285)
(-0.000904458 0.00134277 0 0.000135053 0 0.000769406)
(-0.00101992 0.00132835 0 0.000274226 0 0.00074569)
(-0.00109725 0.00134139 0 0.000383414 0 0.00071384)
(-0.00117864 0.00132762 0 0.000499517 0 0.00067912)
(-0.00117518 0.00135474 0 0.000546014 0 0.000629163)
(-0.00117683 0.00130344 0 0.000604975 0 0.00057185)
(-0.00100204 0.00133113 0 0.0005141 0 0.000487942)
(-0.000855913 0.00113484 0 0.0004591 0 0.000396814)
(-0.000352181 0.00112933 0 7.81689e-05 0 0.000274012)
(-8.57975e-05 0.000359642 0 -0.000108908 0 0.000194706)
(0.000869655 0.000111165 0 -0.00103968 0 0.000170022)
(0.00233811 0.00155828 0 -0.0035896 0 0.00125149)
(0.00229155 0.0023539 0 -0.00337178 0 0.00108023)
(0.0018261 0.00221397 0 -0.00284941 0 0.00102331)
(0.00126739 0.00212358 0 -0.00228645 0 0.00101906)
(0.000758245 0.00186816 0 -0.00178684 0 0.0010286)
(0.000249898 0.0016434 0 -0.00128677 0 0.00103687)
(-0.000187447 0.00143438 0 -0.000851272 0 0.00103872)
(-0.000593361 0.00128583 0 -0.000436406 0 0.00102977)
(-0.000947465 0.0011901 0 -6.65912e-05 0 0.00101406)
(-0.00126108 0.00114375 0 0.000272469 0 0.000988616)
(-0.00154451 0.00112835 0 0.000585972 0 0.000958536)
(-0.00177252 0.00113731 0 0.000853831 0 0.000918686)
(-0.0019742 0.00113307 0 0.00110128 0 0.00087292)
(-0.00207511 0.001134 0 0.00126171 0 0.000813404)
(-0.00213004 0.00105726 0 0.00138669 0 0.000743352)
(-0.00200621 0.000987018 0 0.00135244 0 0.000653765)
(-0.00180651 0.000720565 0 0.00125523 0 0.000551284)
(-0.00137884 0.00052336 0 0.000946316 0 0.000432523)
(-0.000876115 -0.000155153 0 0.000554697 0 0.000321418)
(-0.000426384 -0.000411564 0 0.000194947 0 0.000231436)
(0.00275742 0.00200493 0 -0.00439167 0 0.00163424)
(0.00351226 0.0025203 0 -0.00492552 0 0.00141326)
(0.00315106 0.00212082 0 -0.00445761 0 0.00130655)
(0.00247085 0.00169337 0 -0.00373651 0 0.00126566)
(0.00170999 0.00117238 0 -0.00296384 0 0.00125385)
(0.000968953 0.000741488 0 -0.00221901 0 0.00125006)
(0.000296071 0.000371975 0 -0.00154127 0 0.0012452)
(-0.000317283 0.000121849 0 -0.000914538 0 0.00123182)
(-0.000863161 -3.38314e-05 0 -0.000348463 0 0.00121162)
(-0.00135225 -9.6068e-05 0 0.000171463 0 0.00118079)
(-0.00179345 -0.000101472 0 0.000649943 0 0.00114351)
(-0.00217483 -6.1914e-05 0 0.00107979 0 0.00109504)
(-0.00250936 -3.13822e-05 0 0.00147052 0 0.00103884)
(-0.00275066 2.10205e-06 0 0.00178269 0 0.000967967)
(-0.00291272 -4.86501e-05 0 0.00202805 0 0.000884669)
(-0.00291652 -0.000106949 0 0.00213573 0 0.000780794)
(-0.00277985 -0.000330194 0 0.00212087 0 0.000658983)
(-0.00243211 -0.000488225 0 0.00191849 0 0.00051362)
(-0.00185463 -0.00084641 0 0.00150479 0 0.000349838)
(-0.00115109 -0.00089813 0 0.000987577 0 0.000163509)
(0.00314799 0.00262062 0 -0.0050091 0 0.00186111)
(0.00428099 0.00286838 0 -0.00592652 0 0.00164553)
(0.00413224 0.00209661 0 -0.00565871 0 0.00152648)
(0.00347079 0.00122423 0 -0.00494115 0 0.00147036)
(0.00259571 0.000336102 0 -0.00404183 0 0.00144612)
(0.00170872 -0.000384023 0 -0.00314232 0 0.0014336)
(0.000864468 -0.000960389 0 -0.00228675 0 0.00142228)
(8.84735e-05 -0.00134276 0 -0.00149229 0 0.00140382)
(-0.000615349 -0.00157346 0 -0.000763036 0 0.00137838)
(-0.00125576 -0.00165577 0 -8.60359e-05 0 0.0013418)
(-0.0018408 -0.00164473 0 0.000543314 0 0.00129749)
(-0.00236928 -0.00155677 0 0.00112848 0 0.0012408)
(-0.00284421 -0.00145711 0 0.00166945 0 0.00117476)
(-0.00323811 -0.00134273 0 0.00214574 0 0.00109237)
(-0.00353777 -0.00128913 0 0.00254268 0 0.000995091)
(-0.00369254 -0.00123861 0 0.00281904 0 0.000873497)
(-0.00365762 -0.00127737 0 0.00292989 0 0.000727728)
(-0.0033978 -0.0012347 0 0.00285072 0 0.000547076)
(-0.00275369 -0.00118508 0 0.00242494 0 0.000328752)
(-0.00179004 -0.000854851 0 0.0017334 0 5.66398e-05)
(0.00324105 0.00292837 0 -0.00520985 0 0.0019688)
(0.00467062 0.00303097 0 -0.00646295 0 0.00179232)
(0.00477862 0.00197278 0 -0.00646296 0 0.00168434)
(0.00423326 0.000712661 0 -0.0058612 0 0.00162794)
(0.00335469 -0.000533647 0 -0.00495392 0 0.00159923)
(0.002404 -0.00156496 0 -0.00398567 0 0.00158167)
(0.00145543 -0.00237361 0 -0.00302052 0 0.0015651)
(0.000567681 -0.00291667 0 -0.00210938 0 0.0015417)
(-0.000256759 -0.00323978 0 -0.00125405 0 0.0015108)
(-0.00101973 -0.00335377 0 -0.00044866 0 0.00146839)
(-0.00173203 -0.0033242 0 0.00031485 0 0.00141718)
(-0.00239814 -0.00317509 0 0.0010455 0 0.00135264)
(-0.0030165 -0.00297983 0 0.0017393 0 0.0012772)
(-0.00356903 -0.00274268 0 0.00238545 0 0.00118358)
(-0.00402466 -0.00253553 0 0.00295232 0 0.00107234)
(-0.00433381 -0.0023088 0 0.00340115 0 0.000932659)
(-0.0044158 -0.00211619 0 0.00365301 0 0.000762791)
(-0.00419755 -0.00181789 0 0.00364876 0 0.000548788)
(-0.00348386 -0.00140368 0 0.00319779 0 0.000286071)
(-0.00220525 -0.000776875 0 0.00224614 0 -4.08865e-05)
(0.00328602 0.00328569 0 -0.0052971 0 0.00201108)
(0.00484684 0.00321837 0 -0.00672135 0 0.00187451)
(0.00512398 0.00189928 0 -0.00691026 0 0.00178628)
(0.00469272 0.000282917 0 -0.00643081 0 0.00173809)
(0.00387126 -0.00132016 0 -0.0055822 0 0.00171094)
(0.00292707 -0.00267789 0 -0.00461923 0 0.00169217)
(0.00195035 -0.00374196 0 -0.00362297 0 0.00167262)
(0.00101482 -0.00447027 0 -0.00266049 0 0.00164567)
(0.000127299 -0.00490385 0 -0.00173764 0 0.00161035)
(-0.000712067 -0.00506004 0 -0.000850952 0 0.00156302)
(-0.00151325 -0.00501074 0 7.32159e-06 0 0.00150592)
(-0.0022872 -0.0047878 0 0.000852567 0 0.00143463)
(-0.00302722 -0.00447058 0 0.00167622 0 0.00135101)
(-0.00372285 -0.00407346 0 0.00247542 0 0.00124743)
(-0.00432587 -0.0036661 0 0.00320228 0 0.00112359)
(-0.00478473 -0.00321445 0 0.00381728 0 0.000967456)
(-0.0049822 -0.00275462 0 0.0042061 0 0.000776099)
(-0.00481683 -0.0021824 0 0.0042831 0 0.00053373)
(-0.00405167 -0.00146615 0 0.00381521 0 0.000236463)
(-0.00253999 -0.000596228 0 0.00266889 0 -0.000128898)
(0.00321897 0.00352112 0 -0.00522843 0 0.00200945)
(0.00481372 0.00330217 0 -0.00672461 0 0.00191089)
(0.00520231 0.00173064 0 -0.00704712 0 0.00184481)
(0.00488061 -0.000212082 0 -0.0066892 0 0.00180859)
(0.00415105 -0.00215358 0 -0.00593752 0 0.00178647)
(0.00326559 -0.00383108 0 -0.00503462 0 0.00176903)
(0.00232215 -0.00515664 0 -0.00407046 0 0.0017483)
(0.00139891 -0.00608276 0 -0.00311791 0 0.001719)
(0.000504381 -0.00663829 0 -0.00218461 0 0.00168023)
(-0.000360033 -0.00684507 0 -0.00126884 0 0.00162887)
(-0.00120668 -0.0067752 0 -0.000360192 0 0.00156687)
(-0.00204986 -0.00646846 0 0.000559929 0 0.00148993)
(-0.00288297 -0.00600836 0 0.00148356 0 0.00139942)
(-0.00369732 -0.0054198 0 0.00240992 0 0.0012874)
(-0.00443591 -0.00477753 0 0.00328312 0 0.00115278)
(-0.00503454 -0.00406243 0 0.00405195 0 0.000982588)
(-0.00535446 -0.00331598 0 0.00458135 0 0.00077311)
(-0.00524922 -0.00246253 0 0.0047417 0 0.000507524)
(-0.00446922 -0.00148123 0 0.00428545 0 0.000183771)
(-0.00279128 -0.000423247 0 0.00299909 0 -0.000207804)
(0.0030765 0.00380085 0 -0.00505032 0 0.00197382)
(0.00461499 0.00335949 0 -0.00652273 0 0.00190774)
(0.00503642 0.00150631 0 -0.00689991 0 0.00186349)
(0.00478732 -0.000773891 0 -0.00662867 0 0.00184135)
(0.00415573 -0.0030657 0 -0.00598271 0 0.00182698)
(0.00336297 -0.00507702 0 -0.00517644 0 0.00181347)
(0.00250671 -0.00668214 0 -0.00430051 0 0.0017938)
(0.00165538 -0.00782387 0 -0.0034194 0 0.00176402)
(0.000817839 -0.00851581 0 -0.00254128 0 0.00172344)
(-1.0585e-05 -0.00878127 0 -0.00165901 0 0.0016696)
(-0.00084295 -0.00868981 0 -0.000761291 0 0.00160424)
(-0.00170156 -0.00828751 0 0.000178267 0 0.00152329)
(-0.00257815 -0.00766153 0 0.00115045 0 0.0014277)
(-0.00347187 -0.00684794 0 0.00216257 0 0.00130929)
(-0.00431495 -0.00593105 0 0.00314864 0 0.00116631)
(-0.00504179 -0.00491074 0 0.00405682 0 0.000984973)
(-0.00548609 -0.00384696 0 0.00472516 0 0.00076093)
(-0.0054775 -0.00269326 0 0.00500089 0 0.000476608)
(-0.00473359 -0.00146054 0 0.00460202 0 0.000131564)
(-0.00298225 -0.000221665 0 0.0032634 0 -0.00028115)
(0.00286641 0.00396416 0 -0.00477875 0 0.00191233)
(0.00425331 0.00327253 0 -0.00612633 0 0.00187302)
(0.00463666 0.00108384 0 -0.00648654 0 0.00184988)
(0.0044242 -0.00157567 0 -0.0062673 0 0.0018431)
(0.00389005 -0.00425043 0 -0.0057286 0 0.00183855)
(0.00321611 -0.00661893 0 -0.00504714 0 0.00183103)
(0.00249273 -0.00852542 0 -0.00430704 0 0.00181431)
(0.00176895 -0.00990095 0 -0.0035546 0 0.00178565)
(0.00104978 -0.0107441 0 -0.00279455 0 0.00174477)
(0.000320564 -0.011078 0 -0.00201038 0 0.00168982)
(-0.000435584 -0.0109661 0 -0.00118703 0 0.00162261)
(-0.00124945 -0.0104602 0 -0.000289813 0 0.00153926)
(-0.00211625 -0.00964705 0 0.000675762 0 0.00144049)
(-0.0030429 -0.00857491 0 0.001725 0 0.0013179)
(-0.00395999 -0.00733715 0 0.00279084 0 0.00116915)
(-0.00479997 -0.00595659 0 0.00382032 0 0.000979648)
(-0.00538164 -0.00451886 0 0.00463724 0 0.000744402)
(-0.00550587 -0.00301097 0 0.00506107 0 0.000444802)
(-0.00486526 -0.00148722 0 0.00478376 0 8.1501e-05)
(-0.0031271 -4.049e-05 0 0.00347826 0 -0.00035117)
(0.00253347 0.0041632 0 -0.00434694 0 0.00181347)
(0.0036789 0.0030813 0 -0.00547968 0 0.00180078)
(0.00396405 0.000453189 0 -0.00576448 0 0.00180042)
(0.00375734 -0.00266677 0 -0.00556924 0 0.0018119)
(0.00332022 -0.0057889 0 -0.00514064 0 0.00182043)
(0.00278948 -0.0085645 0 -0.00461145 0 0.00182197)
(0.00224167 -0.0108113 0 -0.00405259 0 0.00181093)
(0.00169984 -0.01245 0 -0.00348562 0 0.00178577)
(0.0011612 -0.0134656 0 -0.00290791 0 0.00174671)
(0.000597547 -0.0138803 0 -0.0022902 0 0.00169265)
(-1.25586e-05 -0.0137508 0 -0.00161299 0 0.00162555)
(-0.000711438 -0.0131319 0 -0.000830463 0 0.0015419)
(-0.00149808 -0.0121081 0 5.58346e-05 0 0.00144225)
(-0.00239469 -0.0107371 0 0.00107656 0 0.00131814)
(-0.00333132 -0.00912241 0 0.00216468 0 0.00116664)
(-0.00425552 -0.00730923 0 0.00328304 0 0.000972477)
(-0.00496815 -0.00541874 0 0.00423852 0 0.000729636)
(-0.0052675 -0.00347199 0 0.00484929 0 0.000418204)
(-0.00479785 -0.00158291 0 0.00475907 0 3.87763e-05)
(-0.00318553 0.000148546 0 0.00359929 0 -0.000413763)
(0.00212074 0.00419029 0 -0.0037969 0 0.00167616)
(0.00291592 0.002624 0 -0.00460531 0 0.0016894)
(0.00302698 -0.000568041 0 -0.00474278 0 0.0017158)
(0.00278949 -0.00425751 0 -0.00453969 0 0.00175019)
(0.00244682 -0.00791445 0 -0.00422297 0 0.00177615)
(0.00208173 -0.0111587 0 -0.00387211 0 0.00179038)
(0.00175057 -0.0137925 0 -0.00353862 0 0.00178805)
(0.00144209 -0.015727 0 -0.00321094 0 0.00176885)
(0.00114371 -0.0169404 0 -0.00287747 0 0.00173376)
(0.000809898 -0.0174542 0 -0.00249243 0 0.00168253)
(0.000414549 -0.0173175 0 -0.00203212 0 0.00161757)
(-9.78219e-05 -0.0165864 0 -0.00143796 0 0.00153578)
(-0.000732551 -0.0153364 0 -0.000705255 0 0.00143781)
(-0.00153086 -0.0136327 0 0.000215692 0 0.00131517)
(-0.00243114 -0.0115782 0 0.00126659 0 0.00116455)
(-0.00340426 -0.00924437 0 0.00243444 0 0.000969825)
(-0.00424774 -0.00678022 0 0.00352397 0 0.000723769)
(-0.00476322 -0.00425682 0 0.00435889 0 0.00040433)
(-0.00455298 -0.00185683 0 0.00454246 0 1.05213e-05)
(-0.00318488 0.000287919 0 0.00365065 0 -0.000465771)
(0.00149756 0.00423764 0 -0.0029703 0 0.00147273)
(0.00184071 0.00194629 0 -0.0033645 0 0.00152379)
(0.00173992 -0.00200203 0 -0.00332671 0 0.00158679)
(0.00146556 -0.00641576 0 -0.00311809 0 0.00165252)
(0.00123708 -0.0107239 0 -0.00293999 0 0.00170291)
(0.00107316 -0.0145207 0 -0.00280852 0 0.00173536)
(0.00100196 -0.0175992 0 -0.00274806 0 0.0017461)
(0.00097698 -0.0198694 0 -0.0027133 0 0.00173632)
(0.000971333 -0.0213087 0 -0.00267942 0 0.00170809)
(0.000926062 -0.0219414 0 -0.00258834 0 0.00166228)
(0.000808976 -0.0218095 0 -0.00241089 0 0.00160191)
(0.000556078 -0.0209682 0 -0.00208068 0 0.00152461)
(0.000153693 -0.0194782 0 -0.00158495 0 0.00143125)
(-0.000459175 -0.0174049 0 -0.00085453 0 0.00131371)
(-0.00123583 -0.0148439 0 6.75375e-05 0 0.00116829)
(-0.0021864 -0.0118847 0 0.00120801 0 0.000978392)
(-0.00311395 -0.00870748 0 0.00237885 0 0.000735098)
(-0.00386144 -0.00543285 0 0.00344757 0 0.000413867)
(-0.00397549 -0.00233551 0 0.00396526 0 1.02306e-05)
(-0.00300788 0.00041713 0 0.00349548 0 -0.000487603)
(0.000754108 0.00400228 0 -0.00195 0 0.0011959)
(0.000515002 0.000796321 0 -0.00181035 0 0.00129535)
(0.000130708 -0.00411476 0 -0.00153984 0 0.00140913)
(-0.000194433 -0.009412 0 -0.00132383 0 0.00151826)
(-0.000288303 -0.0144892 0 -0.00131405 0 0.00160236)
(-0.000214099 -0.0189095 0 -0.00144574 0 0.00165984)
(1.91193e-05 -0.0224802 0 -0.0017078 0 0.00168868)
(0.000321973 -0.0251149 0 -0.00201404 0 0.00169207)
(0.000655616 -0.0268045 0 -0.00232933 0 0.00167372)
(0.000946708 -0.0275786 0 -0.0025826 0 0.0016359)
(0.00116285 -0.0274751 0 -0.00274552 0 0.00158267)
(0.00123241 -0.0265451 0 -0.00274499 0 0.00151258)
(0.00113722 -0.0248262 0 -0.00256439 0 0.00142717)
(0.000793437 -0.022377 0 -0.00211232 0 0.00131888)
(0.000228236 -0.0192619 0 -0.0014124 0 0.00118417)
(-0.000623226 -0.0155856 0 -0.000382915 0 0.00100614)
(-0.00158863 -0.0115257 0 0.000814286 0 0.000774341)
(-0.00258079 -0.00727748 0 0.00211983 0 0.000460959)
(-0.00311026 -0.00320029 0 0.00305466 0 5.55985e-05)
(-0.00271224 0.000426177 0 0.00317681 0 -0.000464569)
(-0.000340653 0.00376483 0 -0.000460809 0 0.000801462)
(-0.00125443 -0.000741021 0 0.000270667 0 0.00098376)
(-0.00189687 -0.00690785 0 0.000724278 0 0.00117259)
(-0.00221726 -0.0133013 0 0.00087472 0 0.00134254)
(-0.00211247 -0.0192806 0 0.000639504 0 0.00147297)
(-0.00174152 -0.0244024 0 0.000177205 0 0.00156432)
(-0.0011615 -0.0285046 0 -0.000456143 0 0.00161764)
(-0.000496862 -0.0315251 0 -0.00114199 0 0.00163885)
(0.000197982 -0.0334798 0 -0.00183196 0 0.00163398)
(0.000849295 -0.034412 0 -0.00245645 0 0.00160715)
(0.0014237 -0.0343574 0 -0.00298752 0 0.00156382)
(0.00185831 -0.0333619 0 -0.00336219 0 0.00150387)
(0.00212877 -0.0314313 0 -0.00355858 0 0.00142981)
(0.00214466 -0.0286062 0 -0.00347999 0 0.00133534)
(0.00190318 -0.0249019 0 -0.00312071 0 0.00121753)
(0.00128758 -0.0204175 0 -0.00234788 0 0.0010603)
(0.000415023 -0.0153107 0 -0.00126711 0 0.000852085)
(-0.000740559 -0.00983835 0 0.00017794 0 0.000562618)
(-0.00168532 -0.00446266 0 0.00151119 0 0.000174129)
(-0.00204648 0.000404311 0 0.00239329 0 -0.00034681)
(-0.00159222 0.00301513 0 0.00130797 0 0.000284253)
(-0.00332408 -0.00310946 0 0.00274333 0 0.000580746)
(-0.00425467 -0.010808 0 0.00338029 0 0.000874383)
(-0.00452396 -0.018437 0 0.00339729 0 0.00112666)
(-0.00415291 -0.0253888 0 0.00283508 0 0.00131783)
(-0.0034281 -0.0312159 0 0.00197545 0 0.00145266)
(-0.0024617 -0.0358367 0 0.0009248 0 0.0015369)
(-0.00141649 -0.0392206 0 -0.000163958 0 0.00158045)
(-0.000352332 -0.0414312 0 -0.00124007 0 0.0015924)
(0.000660046 -0.0425267 0 -0.00223933 0 0.00157928)
(0.0015987 -0.0425492 0 -0.00314708 0 0.00154839)
(0.00241433 -0.0415346 0 -0.00391563 0 0.0015013)
(0.00308867 -0.0394544 0 -0.00453069 0 0.00144202)
(0.0035286 -0.0363187 0 -0.00489471 0 0.00136612)
(0.00370878 -0.0320666 0 -0.00498113 0 0.00127235)
(0.00344953 -0.0267719 0 -0.00459629 0 0.00114676)
(0.00279639 -0.0204986 0 -0.00377487 0 0.000978485)
(0.00155345 -0.0135749 0 -0.00228977 0 0.000736315)
(0.000163762 -0.00647856 0 -0.000558067 0 0.000394305)
(-0.00116254 7.28903e-05 0 0.00126574 0 -0.000103191)
(-0.0034349 0.00224001 0 0.00384977 0 -0.000414873)
(-0.00593194 -0.00611279 0 0.00585837 0 7.35672e-05)
(-0.00695413 -0.0157196 0 0.00643852 0 0.000515602)
(-0.0069898 -0.0247776 0 0.00611421 0 0.000875584)
(-0.00623994 -0.032754 0 0.00509672 0 0.00114322)
(-0.00509638 -0.0392718 0 0.00376516 0 0.00133122)
(-0.00373612 -0.0443662 0 0.00228329 0 0.00145283)
(-0.00232771 -0.0480704 0 0.000804679 0 0.00152303)
(-0.0009397 -0.0505069 0 -0.000615285 0 0.00155499)
(0.000384103 -0.0517582 0 -0.00194213 0 0.00155803)
(0.00163003 -0.051873 0 -0.00317171 0 0.00154168)
(0.0027857 -0.050879 0 -0.00429528 0 0.00150958)
(0.00383706 -0.0487079 0 -0.00530473 0 0.00146767)
(0.004725 -0.0453321 0 -0.00613915 0 0.00141414)
(0.00539533 -0.0405933 0 -0.00674599 0 0.00135066)
(0.00566093 -0.03451 0 -0.00692851 0 0.00126758)
(0.00545069 -0.0270011 0 -0.00660866 0 0.00115798)
(0.00442149 -0.0184097 0 -0.0054167 0 0.000995213)
(0.00281204 -0.00917478 0 -0.00356363 0 0.000751587)
(0.000479344 -0.000322896 0 -0.000842997 0 0.000363653)
(-0.00536118 0.000306999 0 0.00661619 0 -0.00125501)
(-0.00873379 -0.0106622 0 0.00925151 0 -0.000517719)
(-0.00975526 -0.0223532 0 0.00964278 0 0.000112479)
(-0.00942916 -0.0327274 0 0.00882653 0 0.000602627)
(-0.00820573 -0.0415726 0 0.00724699 0 0.000958739)
(-0.0066114 -0.0485979 0 0.00540461 0 0.00120679)
(-0.00486746 -0.0540187 0 0.00349764 0 0.00136981)
(-0.00314073 -0.0579286 0 0.00167138 0 0.00146936)
(-0.00148788 -0.0605194 0 -3.52585e-05 0 0.00152314)
(7.66753e-05 -0.0618903 0 -0.00162041 0 0.00154373)
(0.00156028 -0.062104 0 -0.00310338 0 0.0015431)
(0.00298872 -0.0611748 0 -0.00451587 0 0.00152715)
(0.00436617 -0.05901 0 -0.00587032 0 0.00150415)
(0.00567643 -0.0555356 0 -0.00715196 0 0.00147553)
(0.0068596 -0.0505077 0 -0.00830668 0 0.00144707)
(0.00773644 -0.0438542 0 -0.00915231 0 0.00141587)
(0.00813472 -0.0352871 0 -0.0095181 0 0.00138339)
(0.00752696 -0.0250859 0 -0.00886219 0 0.00133523)
(0.00585087 -0.0133883 0 -0.00710339 0 0.00125252)
(0.00239231 -0.00169294 0 -0.00345483 0 0.00106252)
(-0.00835184 -0.00166773 0 0.0106273 0 -0.00227547)
(-0.0117282 -0.016196 0 0.0128838 0 -0.00115558)
(-0.0122935 -0.0302611 0 0.0125898 0 -0.000296209)
(-0.0113095 -0.041925 0 0.0109728 0 0.000336706)
(-0.00960086 -0.0514684 0 0.00881513 0 0.000785729)
(-0.00759899 -0.0588317 0 0.00650368 0 0.00109532)
(-0.00559197 -0.0644355 0 0.00429152 0 0.00130045)
(-0.00366508 -0.0684523 0 0.00223544 0 0.00142964)
(-0.00188236 -0.0711317 0 0.000376957 0 0.00150541)
(-0.000206955 -0.0725883 0 -0.00133653 0 0.00154349)
(0.00137294 -0.0728918 0 -0.00293125 0 0.00155831)
(0.00292896 -0.0720473 0 -0.00448692 0 0.00155796)
(0.00447398 -0.0699409 0 -0.00602711 0 0.00155313)
(0.00605985 -0.066463 0 -0.00760842 0 0.00154857)
(0.00762366 -0.0612892 0 -0.00917871 0 0.00155505)
(0.00909812 -0.0542533 0 -0.0106761 0 0.00157795)
(0.0102065 -0.0448212 0 -0.0118386 0 0.00163202)
(0.0105162 -0.033102 0 -0.0122423 0 0.00172605)
(0.00940026 -0.0186942 0 -0.0112786 0 0.00187838)
(0.00578961 -0.00326968 0 -0.00787915 0 0.00208955)
(-0.0106464 -0.00677126 0 0.0138189 0 -0.00317249)
(-0.0141702 -0.0243406 0 0.0158844 0 -0.00171422)
(-0.0141688 -0.0397261 0 0.0148185 0 -0.000649701)
(-0.01256 -0.0518419 0 0.0124505 0 0.000109512)
(-0.0104312 -0.0614663 0 0.00979161 0 0.00063956)
(-0.00814161 -0.0688144 0 0.00713878 0 0.00100283)
(-0.00597839 -0.0743673 0 0.00473364 0 0.00124475)
(-0.0039582 -0.0783652 0 0.00255817 0 0.00140003)
(-0.00213481 -0.0810443 0 0.000639683 0 0.00149513)
(-0.000437279 -0.0825302 0 -0.00111129 0 0.00154857)
(0.00115313 -0.0828823 0 -0.00272989 0 0.00157675)
(0.00273853 -0.082097 0 -0.00432827 0 0.00158974)
(0.00434134 -0.080068 0 -0.00594154 0 0.0016002)
(0.00607259 -0.0766529 0 -0.00768853 0 0.00161594)
(0.007879 -0.071548 0 -0.00953123 0 0.00165223)
(0.00982025 -0.0644808 0 -0.011543 0 0.00172273)
(0.0115649 -0.0548783 0 -0.013421 0 0.00185606)
(0.0128402 -0.0425053 0 -0.0149281 0 0.00208789)
(0.0124443 -0.0265349 0 -0.0149274 0 0.00248314)
(0.00886203 -0.00782833 0 -0.0119905 0 0.00312848)
(-0.0124966 -0.0131958 0 0.016289 0 -0.0037924)
(-0.013834 -0.0354534 0 0.0159032 0 -0.0020692)
(-0.0136597 -0.0524075 0 0.0145289 0 -0.000869198)
(-0.0119135 -0.0650892 0 0.0119433 0 -2.97998e-05)
(-0.00997706 -0.074747 0 0.00942499 0 0.000552068)
(-0.00780691 -0.0821316 0 0.00685647 0 0.000950444)
(-0.00578379 -0.0876536 0 0.00456684 0 0.00121695)
(-0.0038574 -0.0916821 0 0.00246736 0 0.00139005)
(-0.00212324 -0.0943735 0 0.000624857 0 0.00149838)
(-0.000502967 -0.0958906 0 -0.00105933 0 0.00156229)
(0.00100356 -0.0962539 0 -0.00260294 0 0.00159937)
(0.00249826 -0.0954616 0 -0.00411923 0 0.00162097)
(0.00399551 -0.0934143 0 -0.00563654 0 0.00164103)
(0.0056166 -0.0899329 0 -0.00728569 0 0.00166909)
(0.00730454 -0.0847839 0 -0.00902797 0 0.00172343)
(0.00919632 -0.0775557 0 -0.0110188 0 0.00182246)
(0.010943 -0.0678151 0 -0.0129479 0 0.00200493)
(0.0126667 -0.0547686 0 -0.0149918 0 0.00232509)
(0.0129109 -0.0374987 0 -0.0158007 0 0.00288979)
(0.0112055 -0.0144302 0 -0.0150873 0 0.00388179)
)
;

boundaryField
{
    cavity
    {
        type            mySigma;
    }
    lid
    {
        type            zeroGradient;
    }
    frontAndBack
    {
        type            empty;
    }
}


// ************************************************************************* //
