/*--------------------------------*- C++ -*----------------------------------*\
| =========                 |                                                 |
| \\      /  F ield         | foam-extend: Open Source CFD                    |
|  \\    /   O peration     | Version:  3.0                                   |
|   \\  /    A nd           | Web:         http://www.extend-project.de       |
|    \\/     M anipulation  |                                                 |
\*---------------------------------------------------------------------------*/
FoamFile
{
    version     2.0;
    format      ascii;
    class       volVectorField;
    location    "3";
    object      u;
}
// * * * * * * * * * * * * * * * * * * * * * * * * * * * * * * * * * * * * * //

dimensions      [0 0 0 0 0 0 0];

internalField   nonuniform List<vector> 
400
(
(-0.038492 -0.0392802 0)
(0.00938591 -0.0265808 0)
(-0.0191176 0.0090937 0)
(-0.00653436 0.00429816 0)
(-0.017007 0.00724508 0)
(-0.0107752 0.00464211 0)
(-0.0145838 0.00435511 0)
(-0.00786999 0.00359175 0)
(-0.00944119 0.00334989 0)
(-0.00106673 0.0029405 0)
(-0.00197184 0.00218791 0)
(0.00970981 0.00187126 0)
(0.0082846 0.000149439 0)
(0.0256082 0.000425879 0)
(0.0209117 -0.00288278 0)
(0.0469453 0.000143347 0)
(0.0312962 -0.00722038 0)
(0.0719527 0.0104176 0)
(0.0188749 -0.0109751 0)
(0.0930868 0.0742363 0)
(-0.0503693 0.0676135 0)
(-0.0796262 -0.0101422 0)
(-0.0967951 0.00457657 0)
(-0.0870271 -0.00514552 0)
(-0.0945246 -0.000666202 0)
(-0.0854846 -0.00431207 0)
(-0.089181 -0.00411431 0)
(-0.0805943 -0.00559586 0)
(-0.0815073 -0.00678143 0)
(-0.0713853 -0.00717899 0)
(-0.0708558 -0.00953469 0)
(-0.0579884 -0.00884165 0)
(-0.0575933 -0.012526 0)
(-0.0409589 -0.00959648 0)
(-0.0432031 -0.014713 0)
(-0.0223194 -0.00669576 0)
(-0.0310731 -0.0136985 0)
(-0.00819375 0.00647679 0)
(-0.0230844 -0.00575182 0)
(-0.0123863 0.0430413 0)
(-0.014603 0.0735293 0)
(-0.0617238 0.00389713 0)
(-0.0878435 0.0081324 0)
(-0.0954945 -0.00545238 0)
(-0.106538 -0.00164758 0)
(-0.104643 -0.00855193 0)
(-0.109453 -0.00824835 0)
(-0.104054 -0.012229 0)
(-0.105172 -0.0136864 0)
(-0.0970665 -0.0158228 0)
(-0.0957798 -0.0187402 0)
(-0.0847823 -0.0189972 0)
(-0.082017 -0.0235552 0)
(-0.0677565 -0.0203605 0)
(-0.0645768 -0.0266396 0)
(-0.0470863 -0.0160065 0)
(-0.0447748 -0.0241479 0)
(-0.0256181 0.00296043 0)
(-0.0234148 -0.00700205 0)
(-0.0100312 0.0434735 0)
(-0.0197488 0.141005 0)
(-0.0686412 0.0563834 0)
(-0.0970965 0.0386837 0)
(-0.110446 0.0155771 0)
(-0.123191 0.0107682 0)
(-0.123992 0.000757163 0)
(-0.13024 -0.00247546 0)
(-0.125859 -0.00796833 0)
(-0.128072 -0.0117066 0)
(-0.120525 -0.0147821 0)
(-0.119845 -0.0197291 0)
(-0.109491 -0.0206452 0)
(-0.106555 -0.0271097 0)
(-0.0933082 -0.0245629 0)
(-0.0884245 -0.0322943 0)
(-0.0724884 -0.0232341 0)
(-0.0650861 -0.0314183 0)
(-0.0480296 -0.0106815 0)
(-0.0331131 -0.0178 0)
(-0.0201254 0.0135252 0)
(-0.0135556 0.162842 0)
(-0.0596163 0.0772027 0)
(-0.0862801 0.0530873 0)
(-0.106281 0.0255509 0)
(-0.120373 0.0170059 0)
(-0.127384 0.00357851 0)
(-0.134621 -0.00133676 0)
(-0.134694 -0.00964752 0)
(-0.137355 -0.0142706 0)
(-0.133106 -0.0196129 0)
(-0.132194 -0.0252203 0)
(-0.124393 -0.0279527 0)
(-0.120102 -0.0351377 0)
(-0.108657 -0.0340173 0)
(-0.100675 -0.042638 0)
(-0.0853528 -0.0346368 0)
(-0.0729481 -0.0436902 0)
(-0.0542446 -0.0243279 0)
(-0.0352059 -0.0307539 0)
(-0.0161907 -0.00621039 0)
(-0.0152691 0.216493 0)
(-0.0587974 0.126355 0)
(-0.0865502 0.0896773 0)
(-0.106622 0.0556664 0)
(-0.122 0.0379872 0)
(-0.129857 0.021013 0)
(-0.138449 0.0106511 0)
(-0.139383 0.000200962 0)
(-0.143419 -0.00801647 0)
(-0.140057 -0.0150589 0)
(-0.140316 -0.0235791 0)
(-0.133473 -0.0281667 0)
(-0.129766 -0.0381319 0)
(-0.119238 -0.0394721 0)
(-0.110674 -0.0508465 0)
(-0.0958978 -0.0464163 0)
(-0.081043 -0.0578692 0)
(-0.0619354 -0.0442062 0)
(-0.0385187 -0.0521678 0)
(-0.0167826 -0.0350289 0)
(-0.014458 0.239827 0)
(-0.055547 0.146327 0)
(-0.0809101 0.105842 0)
(-0.102573 0.0675033 0)
(-0.117479 0.0466905 0)
(-0.128658 0.0262829 0)
(-0.137246 0.0140936 0)
(-0.141705 0.00077162 0)
(-0.14582 -0.0084359 0)
(-0.145764 -0.0179998 0)
(-0.145955 -0.0271996 0)
(-0.142016 -0.0342057 0)
(-0.137708 -0.0449762 0)
(-0.129325 -0.0488938 0)
(-0.119153 -0.0615277 0)
(-0.105127 -0.0600031 0)
(-0.087571 -0.0732467 0)
(-0.0670438 -0.0629374 0)
(-0.0414423 -0.0725296 0)
(-0.0157295 -0.059127 0)
(-0.0147501 0.290086 0)
(-0.0519552 0.191385 0)
(-0.0773899 0.142155 0)
(-0.0967046 0.0990287 0)
(-0.112162 0.0706006 0)
(-0.122481 0.0469245 0)
(-0.132027 0.0293029 0)
(-0.136501 0.0137794 0)
(-0.141944 0.000617043 0)
(-0.142501 -0.0108829 0)
(-0.144218 -0.0234784 0)
(-0.141352 -0.0329001 0)
(-0.138429 -0.0472249 0)
(-0.131394 -0.0545831 0)
(-0.121921 -0.0713181 0)
(-0.109156 -0.0743975 0)
(-0.0909381 -0.0921285 0)
(-0.0709869 -0.0869902 0)
(-0.0431927 -0.100618 0)
(-0.0165534 -0.0904416 0)
(-0.0151305 0.310308 0)
(-0.0509553 0.207719 0)
(-0.0746944 0.156097 0)
(-0.0935127 0.108926 0)
(-0.107545 0.0786225 0)
(-0.118914 0.0517624 0)
(-0.127535 0.0330125 0)
(-0.134184 0.0148799 0)
(-0.139234 0.00120621 0)
(-0.142698 -0.0126667 0)
(-0.144431 -0.025532 0)
(-0.144852 -0.037498 0)
(-0.141988 -0.0523278 0)
(-0.138101 -0.0628687 0)
(-0.128106 -0.0808568 0)
(-0.117501 -0.0880871 0)
(-0.0975479 -0.108164 0)
(-0.0776757 -0.107836 0)
(-0.0471323 -0.124515 0)
(-0.0178415 -0.117588 0)
(-0.0148986 0.36037 0)
(-0.044666 0.250211 0)
(-0.0671162 0.190436 0)
(-0.0816036 0.138413 0)
(-0.094899 0.101774 0)
(-0.10383 0.0719046 0)
(-0.112543 0.0486425 0)
(-0.118178 0.0286727 0)
(-0.124194 0.0116449 0)
(-0.127767 -0.00384153 0)
(-0.131236 -0.0197687 0)
(-0.132752 -0.0341049 0)
(-0.132159 -0.0525837 0)
(-0.13028 -0.067064 0)
(-0.122583 -0.090015 0)
(-0.114677 -0.10293 0)
(-0.09606 -0.129407 0)
(-0.0788986 -0.13517 0)
(-0.047397 -0.158481 0)
(-0.019548 -0.154671 0)
(-0.0160075 0.374066 0)
(-0.0441932 0.259065 0)
(-0.0648448 0.198457 0)
(-0.0770238 0.14267 0)
(-0.0878514 0.105786 0)
(-0.0957528 0.0733582 0)
(-0.102556 0.0502054 0)
(-0.108859 0.0283698 0)
(-0.11396 0.0118392 0)
(-0.11979 -0.00529587 0)
(-0.123387 -0.0205347 0)
(-0.128509 -0.0368425 0)
(-0.128806 -0.0548521 0)
(-0.131439 -0.0723628 0)
(-0.124596 -0.0957305 0)
(-0.121144 -0.113574 0)
(-0.101887 -0.142187 0)
(-0.0873551 -0.15489 0)
(-0.0521695 -0.182354 0)
(-0.023081 -0.184241 0)
(-0.0146925 0.424983 0)
(-0.0331644 0.298537 0)
(-0.050136 0.228637 0)
(-0.0557421 0.166907 0)
(-0.0638631 0.124659 0)
(-0.0677614 0.089503 0)
(-0.0732829 0.0633245 0)
(-0.0774725 0.0404695 0)
(-0.082766 0.0220518 0)
(-0.0879723 0.00426705 0)
(-0.0931789 -0.0127087 0)
(-0.0990723 -0.0306003 0)
(-0.102378 -0.0512694 0)
(-0.107392 -0.072631 0)
(-0.10479 -0.100839 0)
(-0.105627 -0.125666 0)
(-0.0908063 -0.162262 0)
(-0.0821841 -0.183924 0)
(-0.048711 -0.22167 0)
(-0.025242 -0.230066 0)
(-0.0165113 0.426201 0)
(-0.0317876 0.293617 0)
(-0.0455442 0.225794 0)
(-0.0459916 0.160964 0)
(-0.0497991 0.120782 0)
(-0.0501707 0.0842735 0)
(-0.0524378 0.0599164 0)
(-0.05551 0.0365358 0)
(-0.0591948 0.0200074 0)
(-0.0656428 0.00195136 0)
(-0.0710216 -0.0129495 0)
(-0.0804547 -0.0313556 0)
(-0.0856786 -0.0498638 0)
(-0.0964989 -0.0728718 0)
(-0.0969115 -0.0994144 0)
(-0.10524 -0.12874 0)
(-0.0922761 -0.165608 0)
(-0.090586 -0.196683 0)
(-0.0534021 -0.238638 0)
(-0.0317881 -0.258688 0)
(-0.0122168 0.477582 0)
(-0.0111594 0.326952 0)
(-0.0166854 0.247309 0)
(-0.00823145 0.174946 0)
(-0.0065938 0.13072 0)
(-0.00188775 0.0922773 0)
(-0.00122026 0.0671179 0)
(-0.00142755 0.0442114 0)
(-0.00422225 0.0280611 0)
(-0.00921073 0.011083 0)
(-0.0154921 -0.00325407 0)
(-0.0246884 -0.0214509 0)
(-0.0329016 -0.040248 0)
(-0.0452812 -0.0658575 0)
(-0.0515829 -0.0953478 0)
(-0.0646628 -0.132573 0)
(-0.0608033 -0.177701 0)
(-0.0686591 -0.223051 0)
(-0.0403031 -0.280092 0)
(-0.0323213 -0.316 0)
(-0.0163203 0.453674 0)
(-0.00729991 0.297058 0)
(-0.00601998 0.226491 0)
(0.0125339 0.153544 0)
(0.0215793 0.115018 0)
(0.0328218 0.0775558 0)
(0.03844 0.0563187 0)
(0.0412371 0.0348388 0)
(0.0409387 0.0219347 0)
(0.0361285 0.00647047 0)
(0.029989 -0.00455077 0)
(0.0182162 -0.0211039 0)
(0.00735334 -0.0358554 0)
(-0.0110596 -0.0600559 0)
(-0.0232192 -0.0845237 0)
(-0.0466473 -0.122788 0)
(-0.05004 -0.163163 0)
(-0.0713769 -0.217909 0)
(-0.0430736 -0.27484 0)
(-0.0441548 -0.332155 0)
(-0.000782413 0.505122 0)
(0.0346503 0.315893 0)
(0.0533759 0.230629 0)
(0.0807003 0.149069 0)
(0.0980302 0.10983 0)
(0.112825 0.0727269 0)
(0.122207 0.054125 0)
(0.126917 0.0355076 0)
(0.128219 0.0257817 0)
(0.125147 0.0137524 0)
(0.119426 0.00608717 0)
(0.10969 -0.00739325 0)
(0.0977065 -0.018869 0)
(0.081055 -0.0423082 0)
(0.0639724 -0.0652206 0)
(0.0395493 -0.10975 0)
(0.0227641 -0.154997 0)
(-0.0080732 -0.230949 0)
(-0.00500138 -0.307138 0)
(-0.0319663 -0.403986 0)
(-0.0150615 0.423581 0)
(0.0443575 0.242223 0)
(0.077822 0.182769 0)
(0.123082 0.109676 0)
(0.151872 0.0813258 0)
(0.175546 0.0496751 0)
(0.191143 0.0366536 0)
(0.199856 0.021633 0)
(0.204403 0.0153642 0)
(0.202967 0.00607445 0)
(0.198466 0.00148127 0)
(0.188513 -0.0087378 0)
(0.174815 -0.0158159 0)
(0.154773 -0.0339272 0)
(0.130275 -0.0489565 0)
(0.0959379 -0.0858865 0)
(0.063108 -0.117757 0)
(0.0119934 -0.191043 0)
(-0.00155542 -0.250645 0)
(-0.0522833 -0.369579 0)
(0.061147 0.479243 0)
(0.137822 0.222646 0)
(0.205985 0.153497 0)
(0.244032 0.0748848 0)
(0.27908 0.0548853 0)
(0.295851 0.0288941 0)
(0.311597 0.0234492 0)
(0.316857 0.014327 0)
(0.321426 0.0136734 0)
(0.320122 0.0099188 0)
(0.317194 0.0106118 0)
(0.311096 0.00648857 0)
(0.300834 0.00595246 0)
(0.288866 -0.00557389 0)
(0.267834 -0.0124097 0)
(0.245247 -0.0468073 0)
(0.206443 -0.0730577 0)
(0.163378 -0.166786 0)
(0.103109 -0.242074 0)
(0.0277854 -0.45777 0)
(0.0550354 0.228179 0)
(0.204447 0.0981358 0)
(0.318127 0.078395 0)
(0.382448 0.0364655 0)
(0.434936 0.0271465 0)
(0.459219 0.0127837 0)
(0.481083 0.00960126 0)
(0.489079 0.00430849 0)
(0.49699 0.00363437 0)
(0.498153 0.00116318 0)
(0.498343 0.00128626 0)
(0.495467 -0.00136569 0)
(0.487592 -0.00166622 0)
(0.47877 -0.00785478 0)
(0.455056 -0.0104715 0)
(0.431287 -0.0278402 0)
(0.371628 -0.0370956 0)
(0.310891 -0.0874538 0)
(0.183812 -0.113729 0)
(0.0634171 -0.237997 0)
(0.235944 0.222804 0)
(0.218871 -0.0417443 0)
(0.295302 -0.0247655 0)
(0.274429 -0.0432229 0)
(0.289393 -0.0248704 0)
(0.276507 -0.0219332 0)
(0.279126 -0.0125345 0)
(0.271703 -0.00897268 0)
(0.272014 -0.00360627 0)
(0.268991 -0.000179643 0)
(0.27013 0.00459709 0)
(0.272258 0.00887758 0)
(0.275389 0.0152805 0)
(0.284416 0.0208209 0)
(0.287685 0.030756 0)
(0.305208 0.0341313 0)
(0.295374 0.0469221 0)
(0.317452 0.0220785 0)
(0.232603 0.00734643 0)
(0.213425 -0.209214 0)
)
;

boundaryField
{
    cavity
    {
        type            myImplicitVelocity;
    }
    lid
    {
        type            fixedValue;
        value           uniform (1 0 0);
    }
    frontAndBack
    {
        type            empty;
    }
}


// ************************************************************************* //
