/*--------------------------------*- C++ -*----------------------------------*\
| =========                 |                                                 |
| \\      /  F ield         | foam-extend: Open Source CFD                    |
|  \\    /   O peration     | Version:  3.0                                   |
|   \\  /    A nd           | Web:         http://www.extend-project.de       |
|    \\/     M anipulation  |                                                 |
\*---------------------------------------------------------------------------*/
FoamFile
{
    version     2.0;
    format      ascii;
    class       volScalarField;
    location    "12";
    object      p;
}
// * * * * * * * * * * * * * * * * * * * * * * * * * * * * * * * * * * * * * //

dimensions      [0 0 0 0 0 0 0];

internalField   nonuniform List<scalar> 
480
(
-0.246019
-0.203445
-0.193721
-0.17435
-0.173749
-0.164454
-0.166481
-0.161374
-0.161801
-0.156193
-0.241709
-0.199883
-0.19033
-0.171302
-0.170713
-0.161584
-0.163579
-0.158563
-0.158985
-0.153472
-0.233385
-0.193008
-0.183786
-0.165419
-0.164856
-0.156047
-0.157982
-0.153142
-0.153556
-0.148223
-0.220978
-0.182775
-0.174059
-0.156687
-0.156171
-0.147847
-0.1497
-0.145129
-0.145536
-0.140476
-0.204906
-0.169512
-0.161446
-0.145357
-0.144898
-0.137198
-0.138939
-0.134711
-0.135107
-0.130401
-0.185232
-0.153281
-0.146016
-0.131503
-0.131117
-0.124184
-0.125791
-0.121988
-0.122371
-0.118101
-0.162496
-0.134512
-0.128164
-0.115462
-0.115152
-0.109097
-0.11054
-0.107222
-0.107584
-0.103818
-0.136872
-0.113358
-0.108045
-0.0973854
-0.097161
-0.0920956
-0.0933536
-0.0905813
-0.0909187
-0.0877263
-0.109006
-0.090335
-0.0861341
-0.0776826
-0.0775392
-0.0735392
-0.074583
-0.0723973
-0.0726984
-0.0701319
-0.0791575
-0.0656688
-0.0626588
-0.0565688
-0.0565101
-0.0536479
-0.0544584
-0.0528991
-0.053158
-0.0512665
-0.0480459
-0.039937
-0.0381532
-0.0345089
-0.0345235
-0.0328339
-0.0333859
-0.0324704
-0.0326739
-0.0314896
-0.0159895
-0.0134147
-0.0128916
-0.011762
-0.011848
-0.0113616
-0.0116411
-0.0113859
-0.0115273
-0.011077
0.0162533
0.0132853
0.0125564
0.0111739
0.0110323
0.0103231
0.0103341
0.0099352
0.00986876
0.00957667
0.0483428
0.039868
0.0378962
0.0340193
0.0338269
0.0319333
0.03224
0.0311935
0.031207
0.0301705
0.0795169
0.0657153
0.0625518
0.0562685
0.0560424
0.0530124
0.0536229
0.0519569
0.0520604
0.0502966
0.109452
0.0905432
0.0862374
0.0776478
0.077393
0.0732763
0.0741837
0.0719257
0.07212
0.0696527
0.137421
0.11376
0.108401
0.0976713
0.0974036
0.0922841
0.0934835
0.0906808
0.0909711
0.0878426
0.163153
0.135124
0.128796
0.116099
0.115821
0.109781
0.111252
0.107949
0.10833
0.104589
0.18599
0.1541
0.146923
0.132492
0.132216
0.125369
0.127092
0.123353
0.123823
0.119535
0.20575
0.170518
0.162604
0.146671
0.146394
0.138848
0.14079
0.136672
0.137219
0.132455
0.221876
0.183928
0.17542
0.158269
0.158
0.14989
0.152018
0.147595
0.148212
0.143057
0.234302
0.194254
0.185284
0.167189
0.166922
0.158374
0.160642
0.155982
0.156649
0.151191
0.242598
0.201154
0.19188
0.173159
0.172897
0.16406
0.166426
0.16161
0.162314
0.156652
0.246833
0.204666
0.195229
0.176181
0.175915
0.166924
0.169335
0.164435
0.165155
0.159387
0.246718
0.204566
0.195131
0.176087
0.175821
0.166831
0.169239
0.164339
0.165057
0.159289
0.24247
0.201017
0.191727
0.172992
0.172714
0.163863
0.166213
0.161387
0.16208
0.156412
0.233949
0.19392
0.184939
0.166839
0.166551
0.157991
0.160239
0.155569
0.156222
0.150757
0.221515
0.183562
0.175025
0.15785
0.157544
0.149408
0.151501
0.147057
0.147649
0.142483
0.205172
0.169963
0.162024
0.146075
0.145757
0.138186
0.140087
0.135948
0.136467
0.131693
0.185418
0.153524
0.146304
0.131837
0.131504
0.124616
0.126284
0.122512
0.122942
0.118642
0.162381
0.134373
0.128005
0.11528
0.114941
0.108861
0.11027
0.106935
0.107271
0.103521
0.136674
0.113006
0.107589
0.0968116
0.0964668
0.0912919
0.0924142
0.0895679
0.0898011
0.0866626
0.108529
0.0896351
0.0852758
0.0766462
0.076311
0.0721405
0.0729647
0.0706631
0.0707959
0.068324
0.0786451
0.064829
0.061595
0.0552521
0.0549313
0.0518327
0.0523463
0.0506266
0.0506578
0.0488889
0.0473241
0.0388561
0.0368192
0.0328916
0.0326036
0.0306444
0.0308507
0.0297517
0.0296903
0.0286543
0.0153171
0.0123264
0.0115173
0.0100661
0.00981767
0.00903023
0.0089306
0.00847079
0.00832138
0.00802877
-0.017039
-0.0144655
-0.0140148
-0.012943
-0.0131328
-0.012719
-0.0131086
-0.0129109
-0.0131346
-0.0126802
-0.0489782
-0.0408994
-0.0392
-0.035629
-0.0357545
-0.034147
-0.0348144
-0.0339625
-0.0342526
-0.0330664
-0.0801676
-0.0666863
-0.0637498
-0.0577193
-0.0577641
-0.0549749
-0.0558951
-0.0543934
-0.0547343
-0.0528375
-0.109863
-0.0912274
-0.0871087
-0.0787289
-0.0786914
-0.0747702
-0.0759239
-0.073799
-0.0741825
-0.0716139
-0.137774
-0.11427
-0.109024
-0.0984194
-0.0982887
-0.0932896
-0.0946466
-0.0919265
-0.0923376
-0.0891408
-0.163213
-0.135264
-0.128988
-0.116351
-0.116132
-0.110146
-0.111684
-0.108418
-0.10885
-0.105085
-0.185962
-0.15402
-0.14681
-0.132341
-0.132031
-0.12515
-0.126837
-0.123075
-0.123517
-0.119244
-0.205426
-0.170063
-0.162054
-0.146016
-0.145626
-0.137978
-0.13979
-0.135603
-0.136051
-0.131346
-0.221487
-0.183287
-0.174608
-0.157264
-0.156798
-0.148509
-0.150415
-0.145871
-0.146317
-0.141256
-0.233664
-0.193312
-0.184126
-0.165791
-0.16527
-0.156493
-0.15847
-0.153655
-0.1541
-0.14877
-0.241963
-0.200132
-0.190592
-0.171573
-0.171005
-0.161889
-0.163907
-0.158902
-0.15934
-0.153826
-0.246035
-0.203475
-0.193761
-0.174404
-0.173812
-0.164528
-0.166564
-0.161465
-0.161899
-0.156294
)
;

boundaryField
{
    out
    {
        type            implicitExtrapolation;
    }
    in
    {
        type            implicitExtrapolation;
    }
    frontAndBack
    {
        type            empty;
    }
}


// ************************************************************************* //
