/*--------------------------------*- C++ -*----------------------------------*\
| =========                 |                                                 |
| \\      /  F ield         | foam-extend: Open Source CFD                    |
|  \\    /   O peration     | Version:  3.0                                   |
|   \\  /    A nd           | Web:         http://www.extend-project.de       |
|    \\/     M anipulation  |                                                 |
\*---------------------------------------------------------------------------*/
FoamFile
{
    version     2.0;
    format      ascii;
    class       volVectorField;
    location    "12";
    object      u;
}
// * * * * * * * * * * * * * * * * * * * * * * * * * * * * * * * * * * * * * //

dimensions      [0 0 0 0 0 0 0];

internalField   nonuniform List<vector> 
480
(
(0.284039 -0.103267 2.0283e-19)
(0.545964 -0.0695 1.65366e-18)
(0.725552 -0.0488017 -3.7393e-18)
(0.819253 -0.034818 3.92855e-18)
(0.898968 -0.0253027 2.43313e-18)
(0.933588 -0.0185166 -2.21526e-18)
(0.974471 -0.013038 -1.30618e-17)
(0.981794 -0.00912663 9.89525e-18)
(1.00429 -0.00487568 -8.20743e-18)
(0.994694 -0.00314684 -8.45211e-18)
(0.3373 -0.301963 1.80092e-18)
(0.581715 -0.202808 2.45879e-18)
(0.750542 -0.141829 -1.93586e-17)
(0.836978 -0.100554 -1.67036e-17)
(0.911735 -0.0724107 1.39099e-17)
(0.942829 -0.0523185 3.86273e-18)
(0.98085 -0.036109 6.38919e-18)
(0.986155 -0.0245722 -2.05651e-17)
(1.00646 -0.0122551 2.75443e-17)
(0.995529 -0.00492225 4.70666e-18)
(0.440133 -0.480094 -2.33033e-18)
(0.650715 -0.322346 2.68678e-18)
(0.798739 -0.225264 1.22245e-17)
(0.871122 -0.15951 1.13863e-17)
(0.936291 -0.114657 2.30537e-17)
(0.96056 -0.0826123 -7.22625e-18)
(0.993045 -0.0567735 2.98521e-18)
(0.994435 -0.0383759 9.36641e-19)
(1.01051 -0.018835 2.85221e-17)
(0.996832 -0.00637474 -5.22085e-17)
(0.585516 -0.625513 9.75383e-19)
(0.748276 -0.419968 3.47129e-17)
(0.866877 -0.293425 1.23413e-17)
(0.919385 -0.207675 -6.59071e-18)
(0.970981 -0.14917 -8.24362e-18)
(0.985589 -0.107339 -1.6094e-18)
(1.01024 -0.0736285 -4.62179e-19)
(1.00608 -0.0495855 -8.95449e-18)
(1.01617 -0.024155 -4.1262e-17)
(0.998471 -0.00735022 6.49618e-17)
(0.763531 -0.728311 -8.52603e-18)
(0.867757 -0.489032 6.6101e-18)
(0.950343 -0.341678 1.19117e-17)
(0.978505 -0.241773 1.3177e-17)
(1.01348 -0.173598 -1.7545e-17)
(1.01623 -0.124806 -3.60707e-18)
(1.03128 -0.0855128 -1.26578e-17)
(1.02028 -0.0574223 -1.55381e-17)
(1.02306 -0.0278386 4.76605e-17)
(1.00027 -0.00776002 -6.87348e-17)
(0.962022 -0.781487 1.1172e-17)
(1.00103 -0.524826 -1.78649e-17)
(1.04347 -0.36673 -2.03998e-17)
(1.04449 -0.25947 -2.08783e-17)
(1.06092 -0.18627 -4.13164e-18)
(1.05044 -0.133813 -5.89228e-18)
(1.05475 -0.0916099 5.57193e-17)
(1.03609 -0.0613424 -2.75996e-17)
(1.03069 -0.0296284 3.33731e-17)
(1.00204 -0.00757365 -1.0273e-17)
(1.16745 -0.781427 1.12753e-17)
(1.13902 -0.524915 -1.21154e-17)
(1.13995 -0.366862 -2.24886e-17)
(1.11287 -0.259546 -2.94838e-17)
(1.1101 -0.186298 -2.61042e-19)
(1.08589 -0.133729 1.34398e-17)
(1.07908 -0.0914837 1.20547e-17)
(1.05243 -0.0610709 5.91742e-19)
(1.03856 -0.0293965 2.96639e-17)
(1.0036 -0.00683357 -2.95664e-18)
(1.36579 -0.728153 -5.27614e-18)
(1.27233 -0.489279 -9.66002e-19)
(1.23321 -0.342047 5.43641e-18)
(1.17901 -0.241969 8.07429e-18)
(1.15771 -0.173659 1.26968e-17)
(1.1202 -0.124535 3.27808e-18)
(1.10263 -0.0851268 -6.82891e-18)
(1.06819 -0.0566193 6.9107e-18)
(1.04613 -0.0271589 -2.90695e-17)
(1.00478 -0.00563657 4.87474e-17)
(1.54353 -0.625311 1.73814e-18)
(1.39187 -0.420343 9.34165e-18)
(1.31693 -0.293947 1.428e-17)
(1.23842 -0.207909 6.45912e-18)
(1.20051 -0.149177 -1.05627e-17)
(1.15104 -0.106834 5.83552e-19)
(1.12382 -0.0729462 -4.65578e-19)
(1.0823 -0.0482886 3.45435e-18)
(1.05288 -0.0230659 -3.19293e-18)
(1.00548 -0.00412932 1.07373e-17)
(1.68853 -0.479932 1.53525e-18)
(1.48951 -0.322789 1.07848e-19)
(1.38539 -0.225817 1.10976e-17)
(1.28707 -0.159651 8.23337e-18)
(1.2356 -0.114489 5.87017e-18)
(1.17634 -0.081803 -6.04515e-18)
(1.14121 -0.0557528 1.05255e-18)
(1.09381 -0.0366413 -2.20547e-18)
(1.05837 -0.0174007 -1.31781e-17)
(1.00565 -0.00248072 2.61586e-18)
(1.79093 -0.301935 8.90844e-19)
(1.55859 -0.203258 -8.51633e-19)
(1.43393 -0.142268 3.04459e-18)
(1.32163 -0.100455 1.65723e-19)
(1.26059 -0.0719229 -6.17352e-20)
(1.19436 -0.0511251 2.51784e-18)
(1.15361 -0.0346925 2.95711e-18)
(1.10196 -0.0224704 1.71599e-18)
(1.06222 -0.0105457 -5.87746e-18)
(1.0053 -0.00086883 3.07679e-18)
(1.84374 -0.103468 5.58786e-19)
(1.59438 -0.069882 -8.81658e-19)
(1.45922 -0.0489778 2.28958e-18)
(1.33974 -0.0343286 1.14369e-18)
(1.27376 -0.0243569 -6.94006e-19)
(1.20389 -0.0168674 1.35156e-18)
(1.16021 -0.0111862 1.47428e-18)
(1.1062 -0.00673534 1.15549e-18)
(1.0642 -0.00297052 -4.19519e-18)
(1.0045 0.000552211 3.85098e-19)
(1.84338 0.101946 2.0578e-19)
(1.59444 0.0682533 -1.17125e-18)
(1.45952 0.0477174 2.48544e-18)
(1.34015 0.0342375 1.77674e-18)
(1.27422 0.0249907 -1.68207e-18)
(1.20427 0.0186485 1.03234e-19)
(1.16053 0.013183 6.24867e-19)
(1.10625 0.0094948 7.6065e-19)
(1.06418 0.00481832 -4.11642e-18)
(1.00336 0.00166025 4.18564e-19)
(1.78987 0.300305 -2.14124e-20)
(1.55875 0.201743 -2.00924e-18)
(1.43479 0.141229 2.82021e-18)
(1.32281 0.100581 3.45567e-18)
(1.2619 0.0727605 -4.1133e-18)
(1.19546 0.0530137 -8.33695e-19)
(1.15457 0.0367592 -2.06584e-18)
(1.10214 0.0251252 4.09444e-18)
(1.06218 0.0122946 -7.91507e-18)
(1.00204 0.00239218 2.00346e-18)
(1.68688 0.478108 1.22695e-18)
(1.48973 0.321488 -3.35729e-18)
(1.3867 0.225187 -6.64298e-18)
(1.28888 0.160174 -3.23357e-18)
(1.23763 0.1157 -5.5417e-18)
(1.17807 0.0838845 3.02562e-18)
(1.14271 0.0579435 -8.39537e-19)
(1.09416 0.0390978 -5.65217e-19)
(1.05835 0.0189645 -4.99616e-18)
(1.00069 0.00273698 1.63271e-17)
(1.54143 0.62325 8.66206e-19)
(1.39207 0.41933 -1.54511e-17)
(1.31849 0.293853 -5.70817e-18)
(1.24066 0.208948 5.15391e-18)
(1.20305 0.150866 8.31556e-18)
(1.15327 0.109156 7.40655e-19)
(1.12578 0.075288 -1.21789e-18)
(1.08287 0.0504773 4.73047e-18)
(1.05296 0.0243861 1.81715e-17)
(0.999466 0.00274611 -2.80055e-17)
(1.36341 0.725869 6.36015e-18)
(1.27242 0.488594 2.32593e-18)
(1.23481 0.342538 -4.22959e-18)
(1.18143 0.243556 -5.85947e-18)
(1.16052 0.175849 1.16077e-17)
(1.12276 0.127093 1.76296e-19)
(1.10493 0.0876098 -3.30996e-19)
(1.06904 0.0584993 8.38543e-18)
(1.04638 0.0282101 -3.73373e-17)
(0.998471 0.00251048 4.83327e-17)
(1.16497 0.778992 -1.15449e-17)
(1.13892 0.524561 1.80322e-17)
(1.14136 0.367899 1.96324e-17)
(1.11522 0.261621 2.04335e-17)
(1.11293 0.18892 -1.17743e-18)
(1.08861 0.136465 1.80007e-19)
(1.08158 0.0940587 -5.11647e-17)
(1.05362 0.0626352 1.98845e-17)
(1.03907 0.0301912 -2.42564e-17)
(0.997767 0.00215716 -2.53695e-18)
(0.959597 0.779027 -1.44648e-17)
(1.00068 0.524771 8.86701e-18)
(1.04451 0.368195 1.66199e-17)
(1.04655 0.261889 2.32876e-17)
(1.06353 0.189171 -6.25405e-18)
(1.05316 0.136616 -1.64872e-17)
(1.05732 0.0941913 -2.92279e-18)
(1.03766 0.062615 -2.72772e-18)
(1.03151 0.0302145 -1.99256e-17)
(0.997364 0.00181444 -7.76284e-18)
(0.761278 0.72599 4.78836e-18)
(0.867102 0.489211 -5.27059e-18)
(0.950866 0.343386 -2.07429e-17)
(0.980126 0.244324 -2.52585e-17)
(1.01571 0.176562 -1.75441e-17)
(1.01885 0.12753 5.77406e-19)
(1.03383 0.0879886 1.55119e-17)
(1.02224 0.0584536 -6.79705e-18)
(1.02422 0.028289 5.10875e-17)
(0.997213 0.00160226 -7.08009e-17)
(0.583495 0.623515 -6.24331e-18)
(0.747306 0.420303 -1.88689e-17)
(0.866835 0.29516 -3.10283e-17)
(0.920487 0.210112 -1.53508e-17)
(0.972749 0.151944 2.62371e-17)
(0.988011 0.109814 4.00824e-18)
(1.0127 0.0758706 -4.7858e-19)
(1.0084 0.0504396 -2.28497e-18)
(1.01766 0.0245588 5.30611e-18)
(0.997224 0.00159875 -8.88263e-18)
(0.438345 0.478593 -1.95691e-18)
(0.649455 0.32275 7.40047e-18)
(0.798164 0.2268 -2.03585e-17)
(0.87172 0.161583 -1.51648e-17)
(0.937598 0.116989 -1.43883e-17)
(0.962768 0.0846739 1.56581e-17)
(0.995388 0.0586588 -6.76385e-18)
(0.997072 0.039122 5.56755e-18)
(1.01227 0.0192785 3.69411e-17)
(0.99728 0.00183604 -6.71824e-18)
(0.335689 0.301106 1.77467e-19)
(0.580224 0.203205 8.65839e-18)
(0.749545 0.142977 4.0259e-18)
(0.837172 0.10205 1.26389e-17)
(0.912668 0.0740853 8.11116e-18)
(0.944852 0.0538218 -1.41552e-17)
(0.983073 0.0375259 -1.10745e-17)
(0.989002 0.0252649 -9.39272e-18)
(1.0084 0.0128068 9.65082e-18)
(0.997268 0.00228772 -1.27728e-17)
(0.28251 0.103145 -7.8452e-19)
(0.54433 0.0698281 3.20097e-18)
(0.724309 0.049418 -2.21643e-19)
(0.819209 0.0355846 -4.68736e-18)
(0.899678 0.0261666 1.0221e-19)
(0.935484 0.0193645 1.30615e-19)
(0.9766 0.0139123 6.75249e-18)
(0.984724 0.00980204 -2.52215e-18)
(1.00629 0.00557436 1.22794e-17)
(0.997092 0.0028806 4.94873e-18)
(0.282413 -0.101806 -1.69504e-19)
(0.544222 -0.0682798 -1.63573e-18)
(0.724178 -0.0474782 3.80162e-18)
(0.819063 -0.0332656 -3.9356e-18)
(0.899513 -0.0234842 -2.45346e-18)
(0.935307 -0.0163452 2.25899e-18)
(0.976401 -0.0105714 1.33523e-17)
(0.984518 -0.00622991 -1.00731e-17)
(1.00607 -0.00193993 8.38585e-18)
(0.996699 0.00350353 8.83034e-18)
(0.335406 -0.299788 -1.77029e-18)
(0.579901 -0.201693 -2.44775e-18)
(0.74916 -0.141085 1.95386e-17)
(0.836737 -0.0997876 1.69208e-17)
(0.912182 -0.0714659 -1.40958e-17)
(0.944321 -0.0508685 -3.93475e-18)
(0.982487 -0.0342561 -6.53968e-18)
(0.988384 -0.0217584 2.1111e-17)
(1.00775 -0.00924176 -2.83234e-17)
(0.996084 0.00402983 -4.79037e-18)
(0.437874 -0.477318 2.36827e-18)
(0.648931 -0.321306 -2.68305e-18)
(0.797537 -0.225002 -1.22993e-17)
(0.871014 -0.159429 -1.14772e-17)
(0.936802 -0.114494 -2.32987e-17)
(0.961902 -0.0818493 7.35911e-18)
(0.994425 -0.0555296 -3.03802e-18)
(0.996054 -0.0357459 -8.88428e-19)
(1.01119 -0.0158519 -2.91999e-17)
(0.995299 0.00433934 5.34796e-17)
(0.582849 -0.622303 -9.59826e-19)
(0.746595 -0.418959 -3.48467e-17)
(0.865993 -0.293494 -1.23737e-17)
(0.919532 -0.208114 6.69496e-18)
(0.971674 -0.149625 8.39107e-18)
(0.986827 -0.107178 1.67306e-18)
(1.01139 -0.0729454 4.78477e-19)
(1.007 -0.0472604 9.12783e-18)
(1.01618 -0.0213365 4.19473e-17)
(0.994442 0.00433892 -6.63678e-17)
(0.760463 -0.724864 8.55874e-18)
(0.866228 -0.48799 -6.60193e-18)
(0.949833 -0.341887 -1.18991e-17)
(0.978955 -0.24252 -1.31912e-17)
(1.01438 -0.174466 1.77175e-17)
(1.01738 -0.125133 3.67345e-18)
(1.03219 -0.085326 1.27053e-17)
(1.02048 -0.0555325 1.57137e-17)
(1.02237 -0.0253364 -4.86663e-17)
(0.993645 0.00398653 6.97736e-17)
(0.958634 -0.778004 -1.116e-17)
(0.999662 -0.523694 1.79163e-17)
(1.04332 -0.366881 2.04801e-17)
(1.0452 -0.260309 2.09646e-17)
(1.06199 -0.187331 4.16767e-18)
(1.05145 -0.134504 5.91601e-18)
(1.05541 -0.0918386 -5.60967e-17)
(1.03557 -0.0600134 2.77543e-17)
(1.02934 -0.0275863 -3.38129e-17)
(0.99305 0.00329616 1.04418e-17)
(1.16387 -0.778095 -1.12495e-17)
(1.1378 -0.523638 1.21141e-17)
(1.14005 -0.36679 2.24714e-17)
(1.11372 -0.260284 2.94498e-17)
(1.11122 -0.187364 2.80719e-19)
(1.08669 -0.134667 -1.33688e-17)
(1.07943 -0.092057 -1.20164e-17)
(1.05125 -0.0604027 -4.23433e-19)
(1.03662 -0.0279405 -2.95543e-17)
(0.992783 0.00234652 3.31781e-18)
(1.36221 -0.725111 5.28517e-18)
(1.27121 -0.487838 9.61279e-19)
(1.23341 -0.341635 -5.39995e-18)
(1.17982 -0.242474 -7.97663e-18)
(1.15868 -0.174587 -1.2606e-17)
(1.12067 -0.125637 -3.23964e-18)
(1.1026 -0.0859836 6.7734e-18)
(1.06644 -0.0566799 -6.69808e-18)
(1.04372 -0.0263713 2.86036e-17)
(0.992928 0.00126039 -4.76519e-17)
(1.54013 -0.622648 -1.71647e-18)
(1.3908 -0.41874 -9.28641e-18)
(1.31702 -0.293162 -1.41434e-17)
(1.23897 -0.208121 -6.34808e-18)
(1.20112 -0.149909 1.02995e-17)
(1.15107 -0.108052 -6.39905e-19)
(1.12332 -0.0740569 4.90959e-19)
(1.08011 -0.0490966 -3.31374e-18)
(1.05014 -0.0229879 3.13029e-18)
(0.993515 0.000196692 -1.03111e-17)
(1.68554 -0.477667 -1.53963e-18)
(1.48842 -0.321067 -1.54889e-19)
(1.38519 -0.224699 -1.09629e-17)
(1.28715 -0.159604 -8.08181e-18)
(1.23564 -0.115041 -5.75165e-18)
(1.1758 -0.0831372 5.76903e-18)
(1.14017 -0.0571079 -9.85781e-19)
(1.09131 -0.0381711 2.1405e-18)
(1.05544 -0.0180131 1.22881e-17)
(0.994504 -0.00068846 -2.49307e-18)
(1.7885 -0.300035 -9.11265e-19)
(1.55743 -0.201486 7.79453e-19)
(1.43328 -0.140944 -3.08278e-18)
(1.32106 -0.100256 -2.84727e-19)
(1.25989 -0.0723982 -5.41976e-20)
(1.19316 -0.0526139 -2.31611e-18)
(1.15199 -0.0363163 -2.71668e-18)
(1.09927 -0.0246445 -1.41928e-18)
(1.05926 -0.0117872 5.59127e-18)
(0.995795 -0.00125149 -2.80959e-18)
(1.84201 -0.101841 -5.88082e-19)
(1.59312 -0.0681593 8.3382e-19)
(1.45801 -0.0476223 -2.31027e-18)
(1.33841 -0.0341525 -1.11323e-18)
(1.27221 -0.0249084 6.66658e-19)
(1.20198 -0.0185856 -1.3638e-18)
(1.15798 -0.0131132 -1.61442e-18)
(1.10341 -0.00944387 -1.08489e-18)
(1.0613 -0.00473177 3.83226e-18)
(0.997236 -0.00140142 -6.70248e-19)
(1.84241 0.103407 -2.45863e-19)
(1.59309 0.0698231 1.1473e-18)
(1.45773 0.0488863 -2.54364e-18)
(1.33803 0.0341888 -1.76388e-18)
(1.27179 0.0241688 1.69034e-18)
(1.20165 0.0166164 -1.52587e-19)
(1.15771 0.0109021 -9.23952e-19)
(1.10345 0.00639291 -5.71983e-19)
(1.06142 0.00266437 3.87586e-18)
(0.998644 -0.00110298 -8.29004e-19)
(1.78966 0.301725 -1.77014e-20)
(1.55734 0.20305 1.98755e-18)
(1.43249 0.142004 -3.00438e-18)
(1.31997 0.1001 -3.67287e-18)
(1.25867 0.0714855 4.28545e-18)
(1.1922 0.0505813 9.04441e-19)
(1.15122 0.0340872 2.19668e-18)
(1.09935 0.0217728 -4.64194e-18)
(1.05959 0.00989056 8.64205e-18)
(0.999833 -0.000399795 -1.89064e-18)
(1.68735 0.479582 -1.27251e-18)
(1.48833 0.322445 3.34336e-18)
(1.38401 0.225384 6.7048e-18)
(1.28548 0.159096 3.32294e-18)
(1.23377 0.113815 5.80223e-18)
(1.17429 0.0809942 -3.14951e-18)
(1.13894 0.0548525 8.87684e-19)
(1.09138 0.0356354 5.06539e-19)
(1.05592 0.0164354 5.73464e-18)
(1.00064 0.000602607 -1.76454e-17)
(1.54245 0.624843 -8.85112e-19)
(1.39077 0.41987 1.55802e-17)
(1.31563 0.293361 5.74592e-18)
(1.23692 0.207166 -5.24452e-18)
(1.19879 0.148289 -8.43897e-18)
(1.14913 0.105785 -8.08838e-19)
(1.12171 0.071788 1.17893e-18)
(1.08007 0.0470169 -4.92606e-18)
(1.05064 0.0218399 -1.89255e-17)
(1.00097 0.00173894 2.93282e-17)
(1.36483 0.727583 -6.39351e-18)
(1.27132 0.488693 -2.31942e-18)
(1.23202 0.341314 4.23332e-18)
(1.17762 0.241055 5.88135e-18)
(1.15612 0.172572 -1.17975e-17)
(1.11844 0.123274 -2.78993e-19)
(1.10071 0.0837374 1.78659e-19)
(1.06617 0.0551235 -8.61851e-18)
(1.04412 0.0257099 3.82116e-17)
(1.00077 0.0028217 -4.93708e-17)
(1.16662 0.780779 1.15267e-17)
(1.13812 0.524227 -1.80746e-17)
(1.13887 0.366 -1.97066e-17)
(1.11161 0.258476 -2.05165e-17)
(1.10867 0.185036 1.10113e-18)
(1.08431 0.13228 -2.49913e-19)
(1.07736 0.0898979 5.147e-17)
(1.05065 0.0593854 -2.00695e-17)
(1.03681 0.0277682 2.47247e-17)
(1.0001 0.00365947 2.34176e-18)
(0.961325 0.780776 1.44299e-17)
(1.00025 0.524053 -8.87954e-18)
(1.04253 0.36575 -1.66344e-17)
(1.04339 0.258262 -2.32999e-17)
(1.05966 0.18485 6.19591e-18)
(1.04906 0.132202 1.64119e-17)
(1.05326 0.0898523 2.95414e-18)
(1.03456 0.0594988 2.57413e-18)
(1.02919 0.0278525 1.99716e-17)
(0.999044 0.00409155 7.40421e-18)
(0.762964 0.727556 -4.80595e-18)
(0.867113 0.488186 5.25087e-18)
(0.949545 0.3406 2.06612e-17)
(0.977576 0.240447 2.51096e-17)
(1.01242 0.172048 1.74441e-17)
(1.01508 0.123059 -5.81502e-19)
(1.03003 0.0836164 -1.54058e-17)
(1.01901 0.0554478 6.62622e-18)
(1.02182 0.0259498 -5.05078e-17)
(0.997781 0.00400837 6.96994e-17)
(0.585084 0.624727 6.2152e-18)
(0.747769 0.419068 1.87978e-17)
(0.866246 0.292265 3.08758e-17)
(0.918644 0.206253 1.52303e-17)
(0.970139 0.14751 -2.59685e-17)
(0.984669 0.105479 -3.92565e-18)
(1.00925 0.0716158 4.58607e-19)
(1.00507 0.0475045 2.1748e-18)
(1.01521 0.0221788 -5.223e-18)
(0.996499 0.00336695 8.47702e-18)
(0.439827 0.479289 1.95856e-18)
(0.650351 0.321404 -7.35084e-18)
(0.79828 0.224042 2.02336e-17)
(0.870586 0.158014 1.50234e-17)
(0.935678 0.112915 1.42597e-17)
(0.959894 0.0806692 -1.53865e-17)
(0.992328 0.054678 6.68317e-18)
(0.993705 0.0362152 -5.50832e-18)
(1.00982 0.016799 -3.60369e-17)
(0.9954 0.00220153 6.57873e-18)
(0.33712 0.301148 -1.60122e-19)
(0.58149 0.201841 -8.58605e-18)
(0.750265 0.140567 -3.97038e-18)
(0.83665 0.0990092 -1.2504e-17)
(0.911365 0.0706135 -7.9922e-18)
(0.942424 0.0503171 1.39444e-17)
(0.980418 0.0339538 1.08383e-17)
(0.985711 0.0223557 9.08032e-18)
(1.00604 0.010179 -9.41474e-18)
(0.994658 0.000613548 1.24835e-17)
(0.283978 0.102448 8.08838e-19)
(0.545888 0.0685164 -3.15606e-18)
(0.725461 0.0475139 2.48532e-19)
(0.819147 0.0332454 4.65787e-18)
(0.898848 0.0234766 -8.02596e-20)
(0.933456 0.0164885 -1.08671e-19)
(0.974326 0.0108568 -6.59077e-18)
(0.981646 0.0068844 2.45408e-18)
(1.00415 0.00278047 -1.19395e-17)
(0.994403 -0.00123252 -4.66353e-18)
)
;

boundaryField
{
    out
    {
        type            fixedValue;
        value           uniform (1 0 0);
    }
    in
    {
        type            myVelocity;
    }
    frontAndBack
    {
        type            empty;
    }
}


// ************************************************************************* //
