/*--------------------------------*- C++ -*----------------------------------*\
| =========                 |                                                 |
| \\      /  F ield         | foam-extend: Open Source CFD                    |
|  \\    /   O peration     | Version:  3.0                                   |
|   \\  /    A nd           | Web:         http://www.extend-project.de       |
|    \\/     M anipulation  |                                                 |
\*---------------------------------------------------------------------------*/
FoamFile
{
    version     2.0;
    format      ascii;
    class       volVectorField;
    location    "6";
    object      u;
}
// * * * * * * * * * * * * * * * * * * * * * * * * * * * * * * * * * * * * * //

dimensions      [0 0 0 0 0 0 0];

internalField   nonuniform List<vector> 
168
(
(0.59345 -0.153146 -7.07837e-18)
(0.619022 -0.0833923 3.63346e-17)
(1.0047 -0.0572697 -6.0572e-17)
(0.862645 -0.0360805 6.79375e-17)
(1.11745 -0.0183135 -4.15747e-17)
(0.89143 -0.0180595 5.71556e-17)
(0.72194 -0.417661 -6.98369e-17)
(0.688492 -0.226331 -8.61542e-17)
(1.04994 -0.148623 1.3637e-17)
(0.889211 -0.0880005 -1.93223e-16)
(1.12651 -0.0321776 3.93007e-17)
(0.899035 -0.027354 1.60661e-17)
(0.952285 -0.600463 -2.05198e-16)
(0.812806 -0.323507 2.75502e-16)
(1.12981 -0.210663 7.53149e-18)
(0.935817 -0.122826 3.04209e-16)
(1.14063 -0.0409099 -1.15049e-16)
(0.910408 -0.0328599 -1.02769e-16)
(1.23933 -0.665198 4.8918e-16)
(0.967946 -0.358872 -3.07294e-16)
(1.2297 -0.232668 2.00348e-17)
(0.993331 -0.13494 -2.17278e-16)
(1.1578 -0.0429549 8.29748e-18)
(0.923157 -0.0332827 1.9996e-16)
(1.52584 -0.598791 -1.79241e-16)
(1.12213 -0.322236 1.19265e-16)
(1.32847 -0.208876 1.05083e-16)
(1.05036 -0.120409 5.64396e-17)
(1.17419 -0.0376525 4.83013e-17)
(0.935437 -0.0280902 -9.71943e-17)
(1.7558 -0.414644 1.15976e-17)
(1.2467 -0.223395 -3.4142e-17)
(1.40851 -0.144661 -5.47404e-17)
(1.09626 -0.0832771 -1.61374e-17)
(1.18753 -0.0256818 1.86675e-18)
(0.944453 -0.0184011 1.62333e-17)
(1.88259 -0.148752 -7.99999e-18)
(1.31469 -0.0798841 1.64015e-17)
(1.45182 -0.0525831 5.47516e-18)
(1.12103 -0.0298186 1.43066e-17)
(1.19445 -0.00978853 1.12995e-17)
(0.948635 -0.0056152 -1.63751e-17)
(1.88242 0.14607 3.26596e-18)
(1.31502 0.0789205 -2.86973e-17)
(1.45206 0.0503461 -9.95293e-18)
(1.12117 0.02933 -2.06326e-17)
(1.19475 0.00847752 1.1641e-17)
(0.947798 0.00764348 -9.68108e-18)
(1.75376 0.411502 -1.71646e-17)
(1.24574 0.221477 4.60051e-17)
(1.40742 0.141161 -3.64634e-18)
(1.09522 0.0811343 6.97332e-17)
(1.18729 0.0232059 -1.27012e-17)
(0.941067 0.0173209 -9.67405e-18)
(1.52341 0.595283 1.85998e-16)
(1.12085 0.320872 -1.96409e-16)
(1.32684 0.206464 -1.08272e-17)
(1.04898 0.119326 -2.02754e-16)
(1.17342 0.0359312 6.4441e-17)
(0.93401 0.0279524 6.60022e-17)
(1.23622 0.660963 -4.90286e-16)
(0.967299 0.355917 3.22179e-16)
(1.22847 0.228085 -1.69466e-17)
(0.992539 0.130154 2.34503e-16)
(1.15624 0.0397577 -2.84127e-17)
(0.922905 0.0236989 -2.03532e-16)
(0.949022 0.595273 2.05136e-16)
(0.810486 0.320093 -1.42459e-16)
(1.12682 0.206056 -1.56151e-16)
(0.934348 0.120437 -7.25405e-17)
(1.13659 0.0338754 -8.88419e-17)
(0.914652 0.0355687 1.75549e-16)
(0.719025 0.412931 8.54337e-17)
(0.687419 0.223324 3.71338e-17)
(1.04671 0.14427 1.79919e-16)
(0.887637 0.0823558 2.40764e-18)
(1.11819 0.0279848 3.11145e-17)
(0.902888 0.0177871 -3.07427e-17)
(0.591445 0.147802 5.32787e-18)
(0.618229 0.0793899 -2.51292e-17)
(1.00228 0.0516183 -6.46819e-18)
(0.863002 0.0370395 -3.8733e-18)
(1.10845 0.00565712 -3.47231e-17)
(0.898427 0.0199494 7.32723e-17)
(0.592255 -0.145348 7.16314e-18)
(0.617426 -0.0766783 -3.58317e-17)
(1.00244 -0.0486344 6.0903e-17)
(0.859683 -0.021969 -6.72137e-17)
(1.11606 -0.00864857 4.15085e-17)
(0.887393 -0.00296537 -5.76045e-17)
(0.72037 -0.410372 6.99603e-17)
(0.687445 -0.219951 8.51944e-17)
(1.0495 -0.139534 -1.3941e-17)
(0.885983 -0.0732785 1.91969e-16)
(1.12777 -0.0223634 -3.91987e-17)
(0.891942 -0.00471364 -1.4824e-17)
(0.950694 -0.593848 2.04444e-16)
(0.809772 -0.318923 -2.73614e-16)
(1.12689 -0.20339 -7.71633e-18)
(0.928366 -0.112765 -3.01652e-16)
(1.1402 -0.030182 1.14303e-16)
(0.892749 -0.0175759 1.00369e-16)
(1.2371 -0.659188 -4.88001e-16)
(0.963503 -0.353819 3.05043e-16)
(1.22537 -0.224801 -2.00603e-17)
(0.985361 -0.127015 2.1505e-16)
(1.1521 -0.0305856 -8.70455e-18)
(0.902971 -0.021384 -1.95331e-16)
(1.52379 -0.594351 1.78836e-16)
(1.1173 -0.319569 -1.18106e-16)
(1.32266 -0.204175 -1.03739e-16)
(1.04057 -0.115826 -5.57024e-17)
(1.16298 -0.0295291 -4.70403e-17)
(0.913341 -0.0206389 9.3926e-17)
(1.75284 -0.411194 -1.17662e-17)
(1.23893 -0.221268 3.35947e-17)
(1.40006 -0.141285 5.35158e-17)
(1.08459 -0.0808733 1.56061e-17)
(1.17189 -0.020221 -2.15815e-18)
(0.924838 -0.0165714 -1.54176e-17)
(1.88011 -0.146984 8.09409e-18)
(1.3077 -0.0793368 -1.60097e-17)
(1.44376 -0.0511805 -5.00975e-18)
(1.1092 -0.0292476 -1.40251e-17)
(1.17726 -0.00802084 -1.08235e-17)
(0.930019 -0.00559157 1.54427e-17)
(1.87946 0.146238 -3.33258e-18)
(1.30623 0.0775909 2.82925e-17)
(1.44267 0.0488322 9.61291e-18)
(1.10839 0.0271007 2.01329e-17)
(1.1767 0.00582408 -1.17091e-17)
(0.930521 0.00452807 1.00686e-17)
(1.75163 0.410026 1.69826e-17)
(1.23825 0.21953 -4.52496e-17)
(1.39915 0.139041 3.85112e-18)
(1.08337 0.0783368 -6.86851e-17)
(1.17017 0.018336 1.26364e-17)
(0.924847 0.0133286 8.87199e-18)
(1.52168 0.592286 -1.85226e-16)
(1.1143 0.316676 1.94785e-16)
(1.31988 0.200701 1.0807e-17)
(1.03844 0.112779 2.00486e-16)
(1.15853 0.0263606 -6.41122e-17)
(0.916201 0.017881 -6.38739e-17)
(1.23524 0.656552 4.8901e-16)
(0.961349 0.351634 -3.20073e-16)
(1.22222 0.222428 1.70145e-17)
(0.983098 0.12462 -2.32318e-16)
(1.1444 0.0282303 2.89328e-17)
(0.905998 0.0177242 1.99528e-16)
(0.949007 0.590325 -2.04674e-16)
(0.807774 0.315232 1.41403e-16)
(1.12417 0.198611 1.54794e-16)
(0.927927 0.110476 7.19835e-17)
(1.13049 0.0231615 8.73835e-17)
(0.896891 0.0129499 -1.72476e-16)
(0.719696 0.406248 -8.52765e-17)
(0.685527 0.216998 -3.6637e-17)
(1.04632 0.135367 -1.78681e-16)
(0.884406 0.0739886 -1.91326e-18)
(1.12007 0.0123413 -3.07675e-17)
(0.890536 0.00420017 3.00635e-17)
(0.592848 0.141043 -5.46103e-18)
(0.617903 0.0738077 2.46853e-17)
(1.00347 0.0433557 5.8567e-18)
(0.860919 0.0213166 3.64565e-18)
(1.11527 -0.0026331 3.40199e-17)
(0.888477 -0.00668791 -7.19045e-17)
)
;

boundaryField
{
    out
    {
        type            fixedValue;
        value           uniform (1 0 0);
    }
    in
    {
        type            myVelocity;
    }
    frontAndBack
    {
        type            empty;
    }
}


// ************************************************************************* //
