/*--------------------------------*- C++ -*----------------------------------*\
| =========                 |                                                 |
| \\      /  F ield         | foam-extend: Open Source CFD                    |
|  \\    /   O peration     | Version:  3.0                                   |
|   \\  /    A nd           | Web:         http://www.extend-project.de       |
|    \\/     M anipulation  |                                                 |
\*---------------------------------------------------------------------------*/
FoamFile
{
    version     2.0;
    format      ascii;
    class       volScalarField;
    location    "4";
    object      Theta;
}
// * * * * * * * * * * * * * * * * * * * * * * * * * * * * * * * * * * * * * //

dimensions      [0 2 -2 0 0 0 0];

internalField   nonuniform List<scalar> 
3012
(
-2.94251
1.86284
5.10246
0.287279
8.44672
-2.27824
-5.3468
5.68725
-2.08257
3.82853
-1.68552
4.04183
0.902928
-0.844146
2.80173
1.05086
-2.4218
-10.2334
3.39718
11.709
1.73785
-0.395185
2.4782
0.355258
5.64599
-1.09
3.53003
-3.18337
-1.17353
3.51323
0.0746824
2.28259
0.213394
2.90433
-0.842317
1.87382
1.99596
6.23245
-4.3105
-0.20402
0.97417
3.12024
1.21795
-0.889542
0.59437
1.60891
-1.33875
3.53478
1.24099
2.66815
-0.623412
0.803418
-3.04038
1.28471
1.63372
5.86178
-4.85122
-8.00018
4.92718
8.48281
-5.28459
1.20723
9.48055
3.43018
0.918092
-1.37367
3.74046
1.39905
2.74115
1.35495
0.683977
-0.666104
2.50756
2.02331
0.0453353
-0.476846
-0.592088
2.72587
1.85799
0.311881
0.898928
-1.40677
1.23036
3.54987
2.89815
1.12551
0.975534
-0.732408
0.311813
2.93218
-0.729776
1.89927
2.95997
-2.01853
-0.734897
4.02317
-4.05443
3.07883
-1.52981
5.84241
3.38764
1.94387
0.419934
-1.01651
2.93248
-0.336086
2.67977
-0.618795
2.48327
0.302444
-0.346143
1.77709
-1.196
3.42677
1.46265
0.794261
2.20131
0.110229
2.0931
0.241132
-0.654532
0.238121
1.10056
2.69045
3.48193
-6.17482
6.8794
-2.6358
10.4509
-8.82898
6.18474
-4.92683
1.5248
-2.52258
2.46518
6.29519
-0.445262
9.36018
4.6789
-6.21368
6.87472
-0.930976
-3.38545
4.17865
6.76087
-0.432704
-5.10197
3.31847
6.56606
-6.62469
-5.0584
8.30392
0.661387
-0.713179
1.59787
2.95171
1.93902
2.82158
-0.655092
0.254819
2.55605
-0.323784
2.18448
-0.0296606
-5.64998
0.0102168
6.907
1.11307
0.450643
3.10813
-1.03665
1.66895
7.41673
7.16025
-5.31958
-4.67673
-5.31095
7.81838
1.21263
2.11014
-5.18891
-1.3298
6.5801
2.87561
2.68004
-1.28666
-0.331068
3.76812
-0.517617
2.88802
2.52518
-0.795173
2.20949
-0.112759
1.80221
0.241353
2.06653
3.35797
-1.24708
0.093216
0.692152
-0.782684
1.13295
2.64468
1.20059
4.07166
-1.63125
1.30186
1.25609
1.95427
0.802092
-0.012202
0.722304
0.376939
1.42972
1.20063
3.52954
1.48564
0.640618
-1.37368
1.40662
0.389876
0.458392
1.34441
0.0215455
-0.545825
1.82619
2.38556
0.541639
-0.201217
1.46584
2.1266
0.101143
1.9233
-0.0603436
1.88226
3.15582
2.44872
-0.266288
-1.07855
2.09765
-0.48155
2.71594
0.134481
0.135374
2.74259
2.09462
-0.45989
2.09044
-1.58926
0.14675
3.94006
-1.23526
3.6156
3.39795
-0.889823
5.43279
-0.100064
-2.37193
2.80254
0.465416
-0.136016
1.39544
2.02614
0.955474
2.19439
0.930563
-0.278546
2.43247
-0.468295
-1.31314
3.38148
1.14894
3.67581
1.20978
-1.31995
1.36329
-1.11491
3.27266
0.75996
-3.07343
1.28475
1.10812
5.45926
0.78367
1.95261
-0.0320621
1.13492
5.74073
-8.06082
-4.82134
9.13748
-2.75558
5.65658
-3.90443
6.67171
0.337843
-1.4048
2.10314
3.79745
2.61134
-0.378611
-1.30352
3.7033
1.92608
-0.988676
3.20502
0.269963
-2.48956
-0.253805
0.843875
3.03725
5.01505
-0.591682
-3.10925
2.25899
2.9456
2.79967
-0.528828
-0.583182
0.653314
2.22755
-0.292882
1.29315
-0.00534077
-0.840135
2.21782
3.11282
-3.17971
2.21671
0.661077
6.53407
2.70151
0.794725
1.24603
-0.617404
2.50704
-0.418608
1.87614
0.189774
1.97665
-0.0506129
1.73419
0.161731
0.16687
3.03876
-0.751767
2.15023
0.919798
3.25532
1.38062
-0.927042
1.11672
2.29122
0.579116
-0.188217
0.694075
-0.247181
2.35595
1.43203
-0.233355
2.65378
2.45339
-0.426726
0.435952
3.05101
-0.790039
1.8055
-1.09027
3.18376
-1.10568
3.06807
-1.5833
2.70849
3.98679
-0.180835
3.21961
2.11826
-1.10112
-0.0439978
-0.699491
-0.583927
2.58931
2.76519
0.332546
-1.15905
3.33436
1.8502
3.66845
-1.39001
-1.11161
4.16269
3.29716
-1.70948
-1.36342
3.78812
-0.552838
2.25332
-0.126537
2.73928
2.21344
-0.184129
-1.75346
3.84702
1.10206
-1.03572
1.04318
3.1966
1.50213
-3.93258
6.84079
1.77372
1.55463
-1.83512
0.828726
4.31654
-3.50939
8.32507
-7.79444
4.25774
-0.339025
-0.298055
2.57221
2.50068
1.61008
-0.384368
0.601292
2.25791
-0.393982
2.59862
0.906392
1.03156
-0.694216
0.268935
1.97408
2.95063
-2.2004
1.5638
4.22097
0.325336
-2.02753
2.98942
4.36828
-0.728826
1.60359
0.108224
1.9405
0.0112573
5.59952
1.63492
-3.01946
0.702034
1.47823
0.696445
0.0804798
1.94074
-19.9616
0.557797
-1.67749
20.0487
4.27899
2.12369
0.384709
-1.64058
1.74727
0.865713
1.00297
0.130777
1.03648
6.77709
-4.41628
1.80067
2.55227
4.83178
-2.20739
-0.145545
2.02451
-0.372915
0.0267371
2.48012
-0.58201
-1.28015
3.79102
3.23518
0.984042
-1.51817
1.15304
3.75334
-9.2689
2.90276
-0.673843
12.5426
2.02405
2.46414
-0.563293
-0.0638711
0.605833
-0.802342
1.30366
2.78439
-0.130282
3.61489
2.02768
-1.79
0.226169
3.45787
-1.11614
2.06442
-8.97079
-0.95148
1.94858
10.1951
0.289225
2.64226
1.97377
-0.446913
4.43705
0.287068
2.35086
-1.93728
-0.166427
2.38333
-0.139547
2.33372
-0.0434564
2.40555
-0.24416
2.14227
3.32426
0.863018
-1.28897
1.23127
8.98205
-6.53102
-5.13095
7.31881
2.95129
2.63808
-0.75065
-0.363194
4.07583
0.752942
1.58665
-1.77821
0.549925
2.02909
-1.87901
4.43539
0.908556
-0.803569
3.01518
1.31524
2.99307
3.14391
-0.790142
-0.750822
0.399807
1.82725
-1.15155
3.41614
-0.0234188
2.31918
-1.3031
3.64068
0.433119
-1.57773
1.53019
3.5551
1.89913
-0.468437
0.152127
2.50147
3.7862
2.18887
0.127422
-1.53882
1.08459
-0.854454
0.841532
2.82304
-0.591465
0.789188
1.26759
2.67561
-13.7054
15.5267
-16.181
13.0287
0.786928
1.59741
-1.71074
4.1242
3.44793
2.00831
-1.33067
0.190788
-0.875868
4.57648
-1.9165
3.78435
-4.93919
8.5388
-8.79564
11.8097
-3.92268
-3.36448
7.08495
6.34992
-2.16501
2.56021
4.3653
-0.275468
-0.0118379
3.30508
2.2795
-1.04727
-2.7174
3.453
-1.45997
4.69191
1.57567
-0.708304
0.652167
2.96679
1.20045
0.188012
1.75327
0.636768
-3.25714
1.67554
4.92029
0.158627
1.45565
2.91641
-0.702804
0.711244
-0.000733347
0.988051
1.87634
0.999684
3.44698
0.312977
1.65057
-1.52984
6.40959
5.17789
-1.37285
-2.99728
-2.23201
2.7191
0.09421
4.86469
1.26886
-2.98755
1.59048
5.99749
-5.76368
4.34276
-2.01131
9.52131
5.46277
-3.82217
5.09404
-4.28601
2.50208
-3.65442
7.16841
1.41665
-0.891504
2.0215
5.77833
-4.46794
0.79504
-0.128041
1.07644
2.00534
0.421374
2.87295
-0.56567
1.88508
-18.7055
-8.81102
17.7733
8.05036
-1.34365
3.52312
0.0151019
2.21726
4.58499
-2.04371
2.40207
0.162397
1.26482
0.809445
-0.330601
2.34538
2.65921
1.79193
-0.435052
0.465114
2.21466
1.7454
-0.261473
0.246194
-8.00005
-19.5352
7.56287
18.8164
1.95966
3.18223
-0.824524
0.369377
2.32237
-0.157136
-0.0877995
2.28868
2.62854
0.730245
1.42309
-0.372941
2.78819
2.28965
-0.525766
-0.0557186
1.58977
-0.725521
0.653367
3.02375
0.166377
2.5259
1.92045
-0.423372
-4.53296
4.13553
7.04549
-1.76491
0.917624
4.30502
1.05367
-2.45185
-3.09859
2.70528
5.98171
0.253229
-1.70971
-2.4651
3.6584
4.23735
1.94659
-4.16923
6.8731
0.865001
-0.160719
-3.24787
5.25749
2.2197
0.263535
3.00423
6.17081
-3.17888
2.60705
-0.487018
2.34811
-0.218173
2.98496
1.70518
0.128752
-1.07521
-2.15436
-0.636556
5.23608
3.35305
2.55284
-0.728078
-0.580495
2.4889
-1.73259
2.79636
4.43723
-0.281203
2.98512
0.431203
1.67957
-0.825389
4.50334
0.494657
1.92069
-2.1708
4.17806
1.20757
-2.12092
0.961327
-0.248619
2.69281
-1.74171
4.27009
-0.442128
0.694125
2.60846
1.45532
1.40586
1.57742
2.70881
-0.579824
3.70358
-0.982833
-1.12793
3.39573
2.91926
-1.16263
3.0697
-1.07351
0.621062
3.79727
1.72216
-1.49716
-1.33186
3.53088
1.82443
0.386963
3.45681
-1.34133
1.29527
0.79482
-0.885842
2.81281
2.97131
-0.611786
0.47848
1.72735
3.16532
-0.935241
-0.284129
0.302401
2.29436
2.0723
3.29171
-1.04772
-5.07554
7.71779
-0.208658
2.78484
2.45016
-0.626682
-5.11124
6.7119
3.44851
-2.27471
4.49861
-4.0966
-2.69972
5.95402
2.68707
0.645824
-0.485538
1.3867
0.959688
-2.29582
3.60085
6.84939
4.57881
-0.946898
-0.654744
5.78814
-2.04077
7.67893
3.99191
-6.0598
-2.33464
3.21165
4.93009
-0.529078
0.205141
0.252745
1.6735
1.59527
1.24302
-0.0189507
1.88562
0.624462
-4.54274
1.37868
5.50284
-0.193361
2.91562
2.03009
-0.762795
0.125921
2.32423
-0.429882
-0.275862
2.5479
-3.03406
2.68792
1.76666
7.34218
0.976746
-2.04076
1.59825
4.71806
-1.28976
2.89699
3.64613
-0.656273
-1.82172
4.37789
-0.145358
2.85931
2.98069
2.0507
0.141587
-0.729317
-0.425531
2.70619
-0.350599
2.55741
2.24997
-2.82387
-0.0990334
5.04081
2.91017
-0.0790282
-0.75666
2.27719
1.00036
-0.971902
3.26517
1.18484
3.95829
-1.69425
0.981682
1.32191
-1.64998
1.87834
-0.112518
3.49215
2.55393
-0.284422
-0.432686
2.44201
1.57682
0.708429
3.29603
-0.989865
-0.259095
-0.888969
2.84022
2.14385
0.475512
1.53205
2.31055
-0.3031
1.50989
-0.980711
0.680811
3.18011
-2.36514
3.48929
-1.00337
4.71737
3.1745
1.644
0.260309
-1.1675
-0.56878
2.71053
2.98782
-0.891346
2.43064
-0.855951
-0.471621
2.88612
-0.319017
2.47447
0.2618
1.89276
3.58264
-1.38016
-1.02928
3.7728
2.74231
-1.91299
-0.281083
4.47136
1.77985
-0.768302
0.367334
2.97468
3.01967
2.03642
0.257308
-0.811765
-0.554537
2.70869
1.28659
0.861182
3.49055
1.79038
0.294922
-1.36835
6.53936
-0.689225
-2.57411
4.06076
3.83205
-2.5415
-5.83217
6.85748
3.81066
0.49458
1.69341
-1.58376
1.36683
2.72784
0.629905
-0.692466
0.00784354
-0.233544
2.3357
2.03842
1.75
-1.07437
3.33537
0.552035
-3.6955
5.23756
3.23569
-1.67447
0.883942
-0.504787
-7.19588
7.50618
1.44323
2.41804
0.471739
-0.515757
1.49154
-0.526463
0.700319
2.70177
-0.291392
1.99299
2.41427
0.154088
-0.290857
2.08603
2.42184
0.119759
0.377139
3.2985
1.64028
-1.29748
-0.456371
2.62797
0.161719
1.96589
2.438
1.33176
-4.91228
8.04562
-0.511973
0.503602
2.68574
1.71164
2.72773
-0.0629586
-0.455285
2.27677
3.30078
-0.923292
3.0132
-0.520442
2.76341
-0.0583442
2.33041
-0.429526
2.84134
1.30651
-0.678105
0.833096
1.11206
2.83254
1.05799
-0.62458
3.81691
-1.37581
0.34063
2.10022
2.84167
-0.465855
2.43528
-0.16054
-0.564908
1.20549
0.868742
2.68755
0.986263
2.71233
1.19741
-0.533754
3.68706
-1.4761
0.947891
1.17215
2.65746
-0.407021
3.31391
-1.1401
-2.47248
-2.0409
4.09905
4.32392
-0.227859
2.90687
2.37368
-0.69776
-0.355358
2.47648
1.90912
0.240059
-0.587123
2.70936
0.809121
1.31794
-1.72533
4.30075
-1.57655
4.47411
-0.0124809
2.85805
2.07848
-0.699774
2.8068
-0.492936
2.42125
-0.187151
4.99319
3.2547
-2.56702
-0.809116
4.00214
2.76885
-1.63815
-0.3281
2.0826
7.1649
-6.88862
-2.06997
3.28776
1.51028
0.746933
-1.00331
0.440416
2.81321
1.28302
-1.04049
0.821725
-0.825046
1.14361
2.84426
2.03738
-0.295468
2.44841
-0.741778
0.960872
-0.92141
1.23206
3.14248
-1.53151
0.853712
0.779698
3.20612
2.96012
-0.19093
-1.36348
1.86101
1.47387
0.547944
2.60498
-0.590679
-3.25705
4.34523
5.34623
-2.32914
4.42073
-3.06443
5.44321
-4.25413
2.6236
0.870156
1.06143
-0.622518
5.72247
-0.282179
3.24329
-3.15437
0.214017
2.01344
0.0245131
1.8202
0.563947
2.5547
1.56603
-0.422264
0.657277
2.0511
-0.116605
1.31238
2.65073
1.18088
0.865527
-0.506394
2.38303
0.682673
-0.323519
1.18345
0.15905
-1.09802
2.40236
3.63628
3.02991
-2.56876
4.562
-0.926339
2.1744
0.634993
-0.165292
1.35529
1.41997
3.87752
1.07263
-1.33062
2.22222
-0.466468
-0.151168
2.60392
2.88976
-1.94098
-0.399788
4.6097
-2.543
-1.678
4.39134
5.50019
-0.191786
2.24624
0.877175
1.19098
2.09514
0.412333
1.65496
-0.0309126
4.01943
-1.03408
5.38348
-2.94239
4.68803
2.71679
-4.08858
-2.06247
4.12789
-1.72177
2.43048
0.0277229
2.0218
-0.631021
0.0848717
2.75346
2.78038
0.716772
1.46496
-0.612037
2.48338
0.790826
1.22459
-0.454075
2.3043
-0.435614
-0.158664
2.64769
-0.865426
2.11306
3.23223
0.198908
-6.81163
8.39312
2.69273
-1.43364
3.23454
-1.04377
-1.41081
2.96882
2.99671
-1.54491
-1.00632
3.6924
-0.509845
0.530796
2.54859
1.50903
-0.723402
2.60971
-1.78432
3.59438
3.13604
-0.729381
-1.46019
3.72743
0.552884
3.08342
-0.913445
1.56001
3.92712
0.0903546
2.32494
-1.43175
0.0881258
2.12466
-0.133838
1.90628
3.41484
-1.02094
-1.41384
2.91345
1.07348
-0.856997
2.90781
0.963524
-1.02833
3.27253
0.424916
1.78037
-0.559445
2.4373
0.830697
0.971396
-0.775752
3.24306
-0.823314
3.28537
2.35286
0.583608
1.37153
-0.343364
-0.570454
2.72369
2.26703
-0.116262
0.821482
2.52721
1.18995
-0.494839
-0.696124
1.78102
0.292545
2.7694
-0.673643
-0.317846
2.57102
2.86289
0.866862
1.17103
0.843008
0.515363
-0.489856
0.383012
2.34064
1.42993
0.577023
1.15988
0.653712
0.990074
-2.14909
1.5228
0.270768
4.00551
1.6631
4.39092
-2.00253
0.690245
2.99601
1.11802
8.19197
-4.52204
2.35739
1.76378
-0.346839
0.239793
-2.43444
-4.9178
8.14729
5.61498
-3.98997
-2.45907
6.70833
5.17634
2.78606
-2.0308
-0.321012
4.31849
1.40582
0.612307
-0.918523
2.96862
1.31675
0.760691
-0.923792
3.03934
0.892713
1.06592
3.28349
-1.24989
0.261955
-0.0127224
1.99397
1.65986
2.15758
0.728236
-0.191467
1.22422
-0.881945
2.80152
4.89568
-2.57547
1.93934
2.70427
-0.00399684
-0.806092
2.82802
-0.560557
-0.489098
3.00125
-1.62938
7.18515
-3.31558
5.55627
-1.79858
4.07018
3.69013
-1.60258
-9.40085
0.798012
10.2732
-0.653507
4.5962
3.56599
1.0408
5.65763
2.75581
-0.0642316
2.37422
-0.479297
0.29646
-1.22325
2.28784
3.78615
2.57472
-1.27766
3.063
-0.909966
1.42633
-0.799139
2.91937
0.765403
-0.753913
3.07036
0.583654
1.67767
1.3002
0.407034
0.890991
0.809515
-0.507873
3.26244
-0.758784
3.19565
1.12431
1.23092
0.627552
0.500109
-1.55128
3.45592
-0.918562
4.28731
1.71654
-0.402228
2.47216
0.512722
1.89823
-1.40857
3.71717
0.330606
2.87861
3.21609
-0.560269
-1.01339
-0.409712
0.854296
2.58116
1.25698
0.227018
1.78696
-1.19715
3.15894
5.23688
1.37668
-3.18435
0.690242
3.39295
1.30437
-1.23268
0.797276
2.52036
-1.90184
3.98602
-0.485681
5.18639
-3.52303
0.751184
0.993904
3.51026
0.670632
1.49892
-1.42233
1.06333
0.847484
-2.26042
4.21391
0.252736
-0.122083
1.89485
2.27988
-6.02321
-3.81253
7.43921
5.12373
2.68242
-0.468017
2.0733
0.074888
2.12025
-0.160262
2.29875
-0.302775
-0.501793
0.218791
2.51399
1.76832
0.858785
-0.42139
2.6125
1.26755
1.91467
0.420788
2.49398
-0.524576
1.17112
-0.109627
2.1142
0.828094
-18.5335
5.9612
-4.61924
18.7927
-0.129659
0.594577
2.15312
1.23001
2.21574
-0.0869858
-0.338379
2.39564
1.61072
-0.58702
2.70437
0.500371
0.225412
-0.467972
1.53358
2.23898
0.0700064
1.653
2.052
0.462543
0.14038
1.70536
1.9251
0.277248
-0.507076
2.19786
2.77513
0.00536609
1.86368
-0.245495
-0.129752
2.00878
1.22689
0.847076
2.83455
-0.668204
-0.663186
0.632706
5.6373
4.11917
-0.273149
-0.183773
2.46425
2.45026
1.43524
-1.98484
4.30247
0.719503
-0.908759
0.110252
2.00997
3.0565
1.42179
0.383574
1.12027
0.66352
-0.624137
2.89961
0.409052
1.89632
0.380996
1.4294
0.825414
0.926663
-0.820883
3.129
-0.878066
2.92413
2.31456
-0.233875
-0.663704
2.82026
-0.35226
3.43764
-1.09502
2.56089
-1.37551
1.06527
1.37088
3.8343
-9.45228
-16.5962
9.72813
17.2389
0.617122
-0.170254
5.22964
4.3992
3.4605
-1.29573
0.128729
1.96618
4.71003
2.11311
0.442918
-2.28898
3.14305
3.44414
-0.785619
-1.22207
-0.688327
2.21299
2.95345
5.50791
2.5178
-2.81472
4.87724
-0.395412
-0.204419
2.62879
-1.90945
4.54753
0.0204177
-0.0933765
2.30186
1.76017
2.3905
0.673914
1.41532
-0.231117
-2.10853
1.62087
0.183388
3.97403
-2.03148
1.89822
0.498504
4.58512
-0.808577
2.86338
0.894158
1.16118
3.1918
3.3352
-0.900457
-1.20402
-0.882047
3.08944
1.58846
0.608981
2.93352
-2.85832
-0.64646
4.96838
-1.26222
-0.769875
3.32393
2.9811
2.54621
0.221467
1.85396
-0.511766
2.14156
-0.293971
2.47547
0.0396996
-0.5344
1.55288
0.646119
2.73126
1.79665
-0.884193
0.378587
3.06228
3.80521
-1.59654
0.895
1.30289
3.38252
-1.96337
-0.624934
4.49412
-0.277646
-0.0189178
2.12922
2.35072
1.56614
-0.506073
2.63886
0.530929
-0.841836
1.72295
3.13568
0.589352
-0.841044
-1.44749
3.24781
4.04586
-0.791402
0.9852
3.05773
1.21661
3.48347
-0.828123
2.72781
-1.6977
-0.653943
-1.65221
3.26927
4.07478
1.77175
0.879865
-2.2442
4.86017
1.98693
-0.147511
2.26457
-0.025773
3.74377
-1.48617
3.71474
-1.76821
-0.392377
1.53712
2.51179
0.553038
3.81798
-1.62289
1.35212
0.788207
3.76349
-1.55352
1.52483
0.809616
-2.6009
-2.9714
4.74604
5.37857
4.08213
-1.79763
1.54648
0.702938
0.740494
-2.01013
3.97932
1.2885
-1.38183
6.82396
-3.34087
4.47985
-0.398527
3.7968
-1.84892
2.26533
1.99351
4.42994
-1.94557
0.47903
-1.24913
3.50783
1.66542
0.562732
-6.46179
2.25708
-0.960573
8.30987
2.56944
1.00045
1.07615
-0.455698
-0.379937
1.58633
2.47432
0.500325
0.282753
-0.341152
2.35273
1.74948
0.902525
1.08597
2.49358
-0.508325
3.74558
-1.91835
2.49242
-0.633401
-0.629128
2.74841
2.21309
-0.0505488
-2.08063
4.07822
1.84456
0.315188
-0.908562
3.0742
1.4593
0.640033
0.710205
2.50921
-0.60808
1.1929
-0.08586
1.93352
4.06835
-2.24324
3.22112
-0.435837
5.14338
1.7993
2.35292
-0.347668
2.54031
-0.166892
0.223202
2.82678
1.70056
-0.377218
0.709054
0.124992
1.60644
2.63534
-0.648924
1.77178
0.461245
2.87345
2.4903
0.700595
-0.514237
1.55789
-0.0430359
2.04916
0.0712089
2.28004
0.822767
-0.71148
1.26896
2.80526
3.50994
-1.54977
0.825745
1.04468
2.32775
-0.176471
0.558339
1.54195
-0.243889
-0.730497
2.95773
2.40285
2.06971
0.0774018
0.116239
2.03989
3.77473
-1.9991
4.0792
-1.88957
2.37165
3.04474
-0.156248
-0.837693
4.58066
-1.65495
4.33995
-1.4673
1.94256
-0.0213763
-4.33667
5.98993
-2.0194
3.1546
-0.817687
4.52687
-0.0978505
3.20611
2.19959
-1.14829
3.76186
0.885615
1.13779
-1.72272
1.24735
3.33995
-1.17024
0.889835
-4.821
3.10507
-1.04248
6.8893
2.70048
-1.84318
4.40856
-0.388567
4.85593
0.948705
1.62396
-2.25902
-3.76672
2.03848
1.03127
6.86789
1.4877
0.0666244
4.97941
3.49334
0.145158
3.17368
1.74376
-1.3163
1.26884
-1.85073
3.93243
0.814105
-0.462573
0.993408
2.65361
1.16386
2.84119
0.04595
2.28054
-0.555257
-0.829401
1.52585
3.13964
0.724099
0.448455
2.4885
-0.348774
1.77726
0.418861
2.23073
-0.165664
1.7928
-4.55484
4.12602
6.74743
-1.92317
0.256675
2.16959
1.74407
-0.0568409
0.286735
0.0474018
1.69147
2.05342
0.479805
1.69482
3.05755
-0.857269
-0.00765091
2.0674
2.19538
0.0463782
2.52659
2.34296
-0.342364
-0.582972
1.62577
-0.955236
2.96019
0.313899
-0.210498
2.68218
2.39293
-0.576055
-2.29055
2.35137
0.298593
5.02912
4.34263
-0.652335
3.45959
-1.72699
4.09171
-0.768828
2.70958
-2.25657
1.33638
0.749589
-1.27578
3.41963
0.845607
-0.124371
2.11599
1.06458
0.440778
1.99103
1.55591
0.0239599
2.85024
2.43623
-0.429592
-0.76371
-0.653192
4.50604
-1.82065
3.51195
-0.0487114
2.17372
3.32084
-1.13319
0.14701
1.26782
5.17945
-3.63412
1.04801
1.99099
5.91706
-2.83879
-2.21072
2.03075
0.512752
4.87046
-0.00287539
1.79071
4.51215
-2.61395
-13.5003
15.2701
12.0764
-16.4184
0.918474
-0.817002
6.61198
3.82292
-0.771431
3.08818
3.15575
-0.768418
0.586584
4.71928
1.32874
-2.71626
-0.759187
2.88456
1.92889
0.245713
3.97596
-2.68093
4.55024
-1.94708
4.18773
-1.18456
-2.37676
2.74386
3.08953
-0.329507
2.26369
-1.24102
3.06436
1.00454
-0.89944
1.1449
2.47269
-0.341628
-0.891297
3.11516
2.82328
-4.09977
5.11798
-1.66929
1.7449
-0.256257
0.360734
2.34311
-0.196407
2.07296
-1.14431
3.03331
-0.903464
2.32424
-0.469607
2.80522
0.0504747
-0.0573417
2.22181
2.30011
-0.102069
1.93265
2.23851
0.136062
1.62559
2.43139
-0.390584
0.360909
4.26018
-1.87601
1.33798
0.974699
-0.365672
-6.63695
8.70113
2.6343
0.32282
-1.61478
3.87619
2.00297
0.673342
4.52784
1.54746
-2.29043
-2.21903
5.26367
-3.09685
4.1128
2.40099
1.20141
-0.430165
1.04943
2.37222
-0.259188
0.50354
1.64398
-0.890658
4.06675
-1.96493
2.8283
-3.17132
7.00838
6.25935
-3.93214
-6.56572
7.11526
-4.53952
9.54227
-1.53523
-0.50522
2.46223
3.50483
4.18406
-0.235396
2.46862
-1.70403
1.08964
-2.48483
5.37371
1.73108
5.69042
3.3881
-1.44471
-4.03072
4.15365
-2.3024
-2.34834
3.91089
-0.496072
2.47412
2.78459
-0.272111
1.10752
0.778519
-0.327408
2.24416
-0.114637
2.21593
2.23351
-0.167167
4.6951
1.39865
0.857688
-2.44734
-0.697473
2.9687
0.110081
2.1648
0.382208
-0.462272
1.72422
2.55833
2.58912
-1.23232
3.42905
-0.513862
3.15781
-1.12606
3.57208
-0.848817
-0.240453
1.91186
2.26821
0.0900226
-20.6651
2.35129
-3.58993
19.7563
2.30036
-0.155126
2.31447
-0.230598
0.963901
3.49983
-1.57775
0.964889
2.63118
-0.434885
1.39537
0.805583
6.28297
0.952745
-2.88668
2.46104
0.881842
-0.342646
2.42429
1.21145
2.2219
0.337194
-0.0848217
1.71812
2.41342
-0.230595
2.20048
-0.45248
2.79341
-0.808856
1.50848
0.445938
-7.69277
5.23905
12.5725
1.03881
-2.05397
4.17563
-0.604676
2.98484
4.88096
-2.09597
3.46676
-0.986677
5.00677
-0.438542
-3.12156
2.61083
2.00101
-3.01483
0.195056
5.1716
-4.80418
-12.9719
4.92785
13.2653
-2.41944
2.05842
4.65392
0.318423
-2.92652
-0.662999
5.01091
2.62679
-3.17495
1.85447
0.936141
6.41823
1.80014
-0.262651
2.26063
0.214636
-3.44672
3.17009
-1.75348
4.95043
-0.799238
2.70556
3.25488
-1.36784
0.600814
-0.288454
2.21836
1.28601
0.334468
-1.21753
3.62413
2.00252
-0.459701
3.14795
2.87531
-0.820359
-2.61099
2.85734
-0.459973
4.858
2.49293
3.75496
-0.237452
-1.41849
2.80729
3.31811
-0.574588
-0.9756
0.144418
4.08926
-1.86862
1.94717
2.23187
-0.196425
1.06197
0.972037
0.057411
-1.07711
3.37986
2.15649
-2.6444
1.43374
0.90377
4.80121
-0.638854
-0.656948
3.02635
2.88414
6.46282
-0.70915
3.72069
-2.92804
2.19497
3.4751
-1.4547
-0.0505542
3.26851
0.983694
1.14837
-1.10046
1.96504
0.209699
3.08113
-0.978184
-0.604658
2.22664
2.874
-0.028254
-0.538704
2.32423
2.79802
-0.142206
-3.27505
9.48553
7.59397
-5.06503
3.16533
-0.0825721
2.00947
-1.28971
1.16837
-2.6656
4.97992
0.793642
1.09036
3.64112
0.914892
-1.52999
-0.4691
4.54391
-1.74747
3.09449
0.46851
1.96184
0.0193679
1.53661
1.86723
0.0991716
1.67193
0.248333
-1.69375
3.08299
-1.34029
3.32449
3.68231
-1.61478
4.10476
-0.972822
3.84374
-1.58686
-0.0570266
2.37689
4.87556
1.48587
-3.10261
0.184144
3.87598
-1.84343
-1.63293
3.92772
-0.212751
5.53846
1.89779
-3.47639
-1.31483
2.47709
3.45616
-0.468872
5.78376
-3.39727
-1.57702
4.28047
0.220417
4.00374
-1.76969
1.88517
3.16083
-1.14428
-3.26911
5.09705
-2.31827
0.159762
4.9607
2.3509
2.90428
-8.25634
-0.374508
11.0268
-0.774185
0.417587
4.53651
5.5911
2.94216
-0.128412
2.14492
-0.927505
2.76334
1.43255
-0.673214
0.641728
3.02469
4.26075
-2.56895
-1.16907
4.25263
3.93095
-1.67212
-1.03773
0.608492
4.14251
-2.16274
1.34302
1.57279
4.64589
0.890371
-2.14061
5.05271
0.934927
1.30653
-2.7722
-3.51725
2.43228
5.69106
-0.134807
4.5953
0.980762
1.20271
-2.36851
0.32395
2.46037
1.85285
-0.290653
-0.182307
2.03914
0.150446
2.32072
5.24512
1.77872
0.762577
-2.60911
5.62881
-12.6655
13.1672
-5.07327
0.83998
-0.83908
3.0414
1.3336
1.84378
0.263646
2.29489
-0.116993
2.64558
1.43462
0.932505
-0.426748
0.00574008
2.19419
2.81354
-0.637932
1.49248
-0.913814
0.718447
3.12479
0.0125161
2.2192
-0.849787
3.04865
-1.08824
1.41146
3.34163
0.818678
2.25926
0.511327
-0.178987
1.76116
2.04265
0.0477728
2.08101
0.0323544
2.38739
-0.0548932
-0.210512
2.1756
-1.78629
3.48561
3.83182
-1.2756
4.13143
2.10354
-0.320159
-2.31741
-9.29177
6.89175
-4.15982
11.9623
2.1237
-2.42706
4.5943
0.104153
0.177939
2.04925
-0.982825
3.17277
1.21002
-1.16819
3.38888
1.00585
1.88871
0.457856
-1.81248
4.18423
-0.620453
1.16951
2.77074
0.928523
-0.720724
2.92225
1.26007
0.872681
3.66326
-1.43024
0.969589
1.29939
2.21499
-0.29023
4.13758
-2.35046
-0.881384
0.164387
2.08619
3.13848
-0.934574
2.70351
-0.382688
3.34603
2.74351
-0.461753
2.64236
-0.42931
2.54038
-0.226892
-0.491287
2.34157
0.523317
1.9607
-1.69926
4.26314
6.8635
1.31982
-4.37463
1.49114
5.59875
-1.55406
3.84755
-3.27052
-1.31763
-0.448287
3.76377
3.0425
-1.40557
3.68334
2.93306
-0.532153
7.56035
5.85907
-2.91784
-4.86168
0.752154
5.83703
1.59846
-3.12302
-1.27656
5.70204
3.07671
-3.87458
0.290699
-0.422916
1.84163
2.51709
-1.11489
3.2692
1.58715
0.535652
0.359197
1.78603
3.54985
-1.4057
-2.26112
1.12024
4.7162
1.34638
-1.95966
0.107463
2.52053
4.53053
-2.36306
2.13006
4.36619
-0.109362
1.95908
4.09457
0.340233
-1.81763
3.97401
1.22394
1.05203
-1.7412
6.65742
3.28493
-2.68194
0.756777
-1.03098
1.25968
3.09138
0.806189
1.88986
2.44475
-0.332509
0.264986
-0.483004
2.61643
1.23192
0.735628
3.76533
-1.74783
-2.00029
3.64868
-1.36056
-0.699398
2.55848
3.33595
2.9141
-0.234277
-0.850919
2.40772
0.165367
2.27896
-0.163374
1.88578
4.81156
0.696595
1.68539
-2.38339
2.5765
0.939104
-0.496464
1.08289
-0.244951
2.15137
2.32389
0.0104109
-12.7035
-16.6391
14.7846
12.1723
1.75261
-0.301838
2.28485
0.188149
-1.48928
0.532577
1.63184
3.77334
-1.17941
2.64889
-0.400931
3.30772
-1.30452
2.46966
3.75375
-0.172949
4.11363
-2.34492
-1.93848
4.76374
5.18763
-0.722157
-2.13967
3.42255
4.94991
-0.343591
2.89594
-2.11691
2.94309
-0.756148
3.01001
-0.600456
0.261437
1.76066
3.01518
-0.912008
1.61192
-0.553288
0.530402
2.7126
2.15549
2.41811
-0.2913
-0.0874984
2.0028
-0.0336061
-0.0662922
2.02559
1.39523
-3.06668
0.684173
5.2617
-0.36188
0.959137
0.94851
2.27698
2.13858
-0.423304
-0.373906
2.14933
3.14253
-0.558027
-1.16685
3.64378
0.248817
2.58288
1.49712
-0.797701
4.19701
0.374055
2.12072
-1.6442
-21.428
-2.66746
19.8226
1.2172
-0.373187
2.51479
2.43008
-0.392769
5.06127
2.48061
-2.67288
-0.0978216
2.87231
-0.743716
0.202733
1.91221
3.07978
0.14948
1.85839
-0.976969
0.990071
3.40072
0.812815
-1.56508
3.75352
0.39179
-1.38216
1.92023
6.11802
0.919575
1.45142
-3.28211
3.23015
-0.904678
2.81934
-0.48054
2.99379
-3.22531
-0.664268
5.32282
2.67191
0.656612
-0.535537
1.47907
3.32543
-0.00751269
-1.37124
1.87142
0.987111
-1.9894
3.92731
0.982134
-2.50568
4.14493
3.24389
-1.44545
3.65861
-0.46878
2.83662
-1.17283
-1.59215
3.99629
1.42859
0.922452
3.87237
-1.53433
2.02915
0.41049
0.125379
2.59041
-0.707475
1.71337
3.79445
4.06448
-1.67744
-1.20004
-1.3038
0.582338
1.6213
3.5793
3.18639
-0.962433
-0.264555
2.52782
-1.87678
-2.64525
4.79359
3.71024
0.896401
1.08198
3.05205
-1.01029
-0.734684
5.3356
2.40492
-3.53037
-0.227533
0.725689
2.1437
1.0837
-0.602261
1.70881
2.61187
0.250809
0.551476
1.89717
-1.64836
4.04058
0.885254
1.12177
-1.00369
3.00512
-4.71395
0.288706
7.17516
2.83612
6.56791
-2.0344
5.27992
-2.76505
2.09482
3.70004
0.224898
-1.36509
5.88971
-0.993919
2.54441
-3.97601
6.76944
-3.36031
1.56857
1.7342
2.0694
3.94892
-2.49424
-0.51782
-0.613398
6.66049
2.77647
-4.28747
1.30186
-2.87448
1.39639
5.71681
-0.759699
-1.25909
3.06341
3.66266
2.99577
-0.616449
-0.856083
3.11498
3.3413
-1.78239
-1.2114
3.80114
2.06233
-0.0626292
2.71897
-0.79688
3.02592
0.686881
1.27729
-1.02377
0.616243
1.63651
-1.19285
3.53311
-0.194721
2.48392
-0.905853
3.16417
-3.17709
-1.28404
5.13959
3.16365
2.54245
0.256565
-0.588205
1.65332
3.12459
0.450838
1.6783
-0.956102
2.23197
-0.297653
2.13062
-0.22467
2.41567
-0.240616
2.74462
-0.647394
3.54081
-1.25121
3.24973
-1.4146
4.8506
-1.48014
4.68749
-2.07478
-4.317
6.03344
0.379119
0.962381
0.796146
1.58445
-2.04759
4.48779
)
;

boundaryField
{
    insideCircle
    {
        type            myTemperature;
        value           nonuniform List<scalar> 
24
(
4.59544
3.10003
1.0798
5.72839
-1.22062
1.17718
5.89614
3.76448
0.704152
-0.351815
5.28449
4.4297
-0.697055
1.96758
3.31542
5.73912
3.26554
-0.00269591
5.28652
1.74885
1.44057
0.0578475
5.00986
3.60155
)
;
    }
    outsideCircle
    {
        type            myTemperature;
        value           nonuniform List<scalar> 
124
(
2.20072
0.250416
2.16131
-0.355686
0.175279
0.981479
2.04202
2.06537
1.49048
-0.109972
0.5142
2.46753
-0.308693
2.2991
1.17602
1.14739
2.54692
0.978846
1.23098
-0.515209
-0.423194
0.704279
2.57195
1.51874
1.13294
0.0984666
2.54997
-0.346162
-0.0938211
0.0213696
2.40925
1.89974
2.50256
0.754873
-0.350182
1.50945
1.31732
-0.330332
2.53846
0.762205
-0.484609
1.04759
2.59883
1.13727
0.153761
-0.237652
1.9453
2.46141
0.890232
-0.493937
2.63073
1.27601
1.78044
0.236596
2.33216
0.0118152
0.489111
2.10326
1.96659
-0.202417
-0.493949
-0.442706
3.00817
1.43215
2.65672
0.58458
-0.266842
1.49125
-0.158092
2.16878
0.0200188
2.33231
2.36573
-0.291989
0.50787
1.56792
1.98729
-0.00350082
0.0912518
2.03576
-0.517875
0.890316
2.68357
1.30465
0.302075
2.47715
-0.288242
1.86471
-0.0123773
-0.0398149
2.02849
2.19376
1.91095
2.56698
-0.224012
0.453492
2.46357
0.924922
-0.219927
1.00745
2.26129
-0.208157
0.5379
1.55724
2.46473
-0.390371
1.31183
0.80094
0.215517
2.42383
1.92076
-0.213851
-0.108307
2.01088
0.0921699
2.37732
2.00411
0.260629
2.44275
-0.335292
2.55726
1.27611
0.639727
-0.446424
)
;
    }
    topAndBottom
    {
        type            empty;
    }
}


// ************************************************************************* //
