/*--------------------------------*- C++ -*----------------------------------*\
| =========                 |                                                 |
| \\      /  F ield         | foam-extend: Open Source CFD                    |
|  \\    /   O peration     | Version:  3.0                                   |
|   \\  /    A nd           | Web:         http://www.extend-project.de       |
|    \\/     M anipulation  |                                                 |
\*---------------------------------------------------------------------------*/
FoamFile
{
    version     2.0;
    format      ascii;
    class       volVectorField;
    location    "35";
    object      u;
}
// * * * * * * * * * * * * * * * * * * * * * * * * * * * * * * * * * * * * * //

dimensions      [0 0 0 0 0 0 0];

internalField   nonuniform List<vector> 
672
(
(0.5029856841 -0.09006115071 6.137220502e-17)
(0.2798955887 -0.06143316693 3.721561933e-17)
(0.8779827389 -0.04984935855 2.837197993e-18)
(0.5899296944 -0.03004826474 2.414746106e-17)
(1.026073771 -0.02876209333 3.860740892e-17)
(0.7418630158 -0.01670579871 5.754923548e-17)
(1.097892471 -0.01554175008 9.072598017e-17)
(0.8152505337 -0.01015306282 -1.216197312e-17)
(1.138698185 -0.006469073732 3.49689226e-17)
(0.8445384806 -0.005627680201 1.864733676e-17)
(1.161566874 -0.0002380804585 5.398851597e-18)
(0.8485596237 -0.000252293357 -2.999505757e-17)
(0.543366014 -0.2662363963 -2.089875664e-17)
(0.3072437033 -0.1822452998 -1.024504587e-16)
(0.9002146329 -0.1478022892 5.920724943e-17)
(0.6032542539 -0.08989182305 -1.651573084e-16)
(1.038836087 -0.08565293744 -9.280631124e-17)
(0.7492428982 -0.05083382117 -2.222552688e-17)
(1.104912428 -0.04666531149 -2.805786442e-16)
(0.8196277309 -0.03189682534 1.145758189e-16)
(1.142134865 -0.02008055634 -1.133665976e-16)
(0.8464854004 -0.01881511695 1.346482868e-16)
(1.163064899 -0.002373416008 -2.122165556e-16)
(0.8473173932 -0.003064636616 3.078024883e-16)
(0.6216557772 -0.4290810673 1.143614635e-17)
(0.3609216236 -0.2935289124 1.484116699e-16)
(0.9438726548 -0.2381581271 4.760698426e-17)
(0.6299474452 -0.1449895929 2.273944924e-16)
(1.06428426 -0.1380713168 7.657830621e-17)
(0.7646176237 -0.08246059602 1.729019439e-16)
(1.11871912 -0.07520717381 1.560533358e-16)
(0.8297170397 -0.05249297387 1.302021068e-16)
(1.147609547 -0.03206646756 -4.872332435e-17)
(0.8533214221 -0.03205815356 5.9812236e-18)
(1.162541461 -0.003128656107 1.649050663e-17)
(0.8504160977 -0.007311362348 -6.526002062e-17)
(0.7344808405 -0.5703348469 -1.889154429e-16)
(0.4379903037 -0.3906205678 -1.126184636e-16)
(1.006470696 -0.3167987404 -2.254128423e-16)
(0.6678969712 -0.1931112988 -2.009288804e-18)
(1.100570101 -0.1837579121 -4.2051565e-16)
(0.7859914646 -0.1097991723 1.546586536e-16)
(1.138744059 -0.1002514591 -4.831872638e-16)
(0.8428865068 -0.06968104459 2.861814968e-16)
(1.15699198 -0.04324693734 -3.36759347e-16)
(0.8604396526 -0.04219792367 4.901272767e-16)
(1.165348879 -0.005323826683 -4.679662502e-16)
(0.8501820865 -0.009248996958 6.391600698e-16)
(0.8757516374 -0.6830052863 3.997034708e-16)
(0.5345534137 -0.4675086885 7.482370724e-17)
(1.085031218 -0.3792008603 2.317604527e-16)
(0.715783422 -0.2312102212 5.232821108e-17)
(1.146240349 -0.219913041 2.876332253e-16)
(0.8135361072 -0.1318892299 1.116093599e-16)
(1.163535474 -0.1197735616 1.476536923e-16)
(0.8609335169 -0.08449457155 -2.240099178e-17)
(1.167052309 -0.05098998576 2.116272405e-16)
(0.8723431129 -0.05225489971 -3.918553254e-16)
(1.165177441 -0.004973780256 2.807206874e-16)
(0.8545479193 -0.01300853268 -2.629296481e-16)
(1.038676514 -0.7613693643 -2.741359565e-16)
(0.6461253258 -0.521620424 1.980828054e-17)
(1.175606822 -0.4229250148 -3.098490686e-16)
(0.7708673362 -0.2580486051 1.820055541e-16)
(1.198821905 -0.2453056579 -5.067810481e-16)
(0.8446497432 -0.1470196074 2.074689686e-16)
(1.192494442 -0.1337423619 -4.235275151e-16)
(0.8802246534 -0.09374182658 2.061802249e-16)
(1.180367428 -0.05751227583 -3.706716464e-16)
(0.8831711681 -0.05733811486 7.083714788e-16)
(1.168553882 -0.006828198965 -7.525944005e-16)
(0.8554353939 -0.01361472988 7.364662068e-16)
(1.214904182 -0.8015249244 5.830383897e-17)
(0.766445798 -0.5489345806 8.940021594e-17)
(1.273465134 -0.4450332387 -1.139815441e-17)
(0.830477538 -0.2716589876 -9.415121239e-17)
(1.255641802 -0.2580446084 3.01524005e-16)
(0.8789808397 -0.1552331329 -2.835550677e-17)
(1.223338136 -0.1403392502 1.955446522e-16)
(0.9027878439 -0.09986737645 -1.006384117e-16)
(1.193003069 -0.05935839166 2.055159677e-16)
(0.8979273737 -0.06233086158 -4.421786923e-16)
(1.168760071 -0.005190459222 4.399110901e-16)
(0.8602941391 -0.01651607936 -3.045068955e-16)
(1.395672342 -0.8014940431 1.858681971e-17)
(0.8904297965 -0.5493190138 -7.276068255e-17)
(1.374080368 -0.445139298 1.903283624e-16)
(0.89179101 -0.2718658542 -7.691446983e-17)
(1.314055922 -0.25808179 4.092315514e-18)
(0.9137101774 -0.1551590615 -5.941090065e-17)
(1.255370247 -0.1404704881 3.527457807e-17)
(0.9244730199 -0.09937811905 4.932552454e-17)
(1.207430067 -0.06000084136 -1.695476885e-16)
(0.9103967214 -0.06131569843 4.411122803e-16)
(1.171915847 -0.006556943787 -4.468558691e-16)
(0.8619735213 -0.01529620091 3.991295433e-16)
(1.57191629 -0.7611731039 7.693985321e-18)
(1.01069834 -0.5216746112 1.368892306e-17)
(1.471842501 -0.4226275016 -3.511102002e-16)
(0.9513415489 -0.258319331 2.065722033e-16)
(1.370749622 -0.2449590069 -2.810358952e-16)
(0.9480550444 -0.1478449496 2.211446581e-16)
(1.286070811 -0.1329453288 -1.724242183e-16)
(0.9471486881 -0.09550471996 5.97965362e-17)
(1.21990955 -0.05570963458 9.15850586e-17)
(0.9252885944 -0.06020014812 -3.232016711e-16)
(1.172013355 -0.003959115983 3.126711153e-16)
(0.8668599447 -0.01707431936 -3.435219258e-16)
(1.734741694 -0.6827732838 8.471804471e-17)
(1.122509779 -0.468234676 -3.722791712e-17)
(1.562551225 -0.3790547286 4.148672286e-16)
(1.006706291 -0.2318206337 -1.427004567e-16)
(1.423412363 -0.2195730353 2.875390691e-16)
(0.9795069382 -0.1325543142 -2.692387091e-16)
(1.314867239 -0.1191266291 2.113838661e-16)
(0.9669143638 -0.08538154821 -8.270846072e-17)
(1.232750551 -0.05020842205 -4.248753521e-18)
(0.9367984065 -0.05330426509 2.89494652e-17)
(1.174672731 -0.00444502378 -1.264645769e-17)
(0.8686081437 -0.01414044903 5.103620117e-17)
(1.876073555 -0.5699657359 -3.02648351e-17)
(1.218945806 -0.3911029176 -2.054378017e-17)
(1.640885655 -0.3164252744 -2.375271832e-16)
(1.054452143 -0.1938252582 -3.072642459e-17)
(1.468760856 -0.1832721681 -9.941449455e-17)
(1.007124224 -0.1111907839 4.124468787e-17)
(1.33926471 -0.09912288574 -8.123436108e-17)
(0.9853199851 -0.07227301762 -3.767956363e-18)
(1.242378853 -0.04089042445 3.544694803e-17)
(0.9490786722 -0.04623805318 -5.653449105e-17)
(1.174287152 -0.001737434072 7.184315275e-17)
(0.8728227335 -0.01435571515 -1.116275674e-16)
(1.988727183 -0.4287478442 -2.36424855e-17)
(1.29638325 -0.2944280984 -2.156809958e-18)
(1.703678183 -0.237805124 2.060910409e-16)
(1.092834466 -0.1458419149 -1.40616561e-17)
(1.505193635 -0.137491051 1.804727381e-16)
(1.029000305 -0.08361450038 -1.386706269e-16)
(1.359102717 -0.07413567557 2.060271879e-16)
(0.9991688164 -0.05432481669 -1.331174366e-16)
(1.251108343 -0.0304566235 8.226462098e-17)
(0.9572527722 -0.03457023588 -8.781022214e-17)
(1.17594907 -0.00141462713 1.191132219e-16)
(0.8742684145 -0.01013528051 -1.142229908e-16)
(2.06715136 -0.265806656 -4.634820017e-18)
(1.349924719 -0.1830407066 -3.513056037e-17)
(1.747130688 -0.147463755 -9.102579834e-17)
(1.119372632 -0.09091366141 -5.115533863e-17)
(1.530282231 -0.08521585272 -5.485183249e-17)
(1.044475421 -0.05247116762 -1.662197646e-17)
(1.372430392 -0.04560025764 -2.617805758e-17)
(1.009699262 -0.03469829723 -3.569016256e-17)
(1.256084633 -0.01782368737 3.806452022e-17)
(0.9644635969 -0.02318681098 -5.237341007e-17)
(1.175353912 0.001143972994 5.455058506e-17)
(0.8767894773 -0.008995801108 -6.379893257e-17)
(2.107346228 -0.08976182642 1.131403474e-17)
(1.377592356 -0.06232328079 1.435794531e-17)
(1.769535754 -0.04942269688 9.665199891e-17)
(1.133109202 -0.03095571937 -3.849496464e-19)
(1.543224086 -0.02819999538 1.070484482e-16)
(1.052391077 -0.01797377881 -5.415447853e-17)
(1.37933289 -0.01463570239 1.083819343e-16)
(1.0148535 -0.01218905876 -6.995248233e-17)
(1.2589012 -0.005070678135 7.08578683e-17)
(0.967666847 -0.008525482144 -7.219145804e-17)
(1.175595189 0.001369069599 8.479858302e-17)
(0.8776293031 -0.003713097411 -9.313761533e-17)
(2.107343734 0.09103164852 -1.809074746e-17)
(1.377641466 0.06133333052 -4.022154928e-17)
(1.769555391 0.05077398108 -4.58805349e-17)
(1.133182727 0.0300680936 -5.317511387e-17)
(1.543160179 0.02972947565 -3.078654041e-17)
(1.0526056 0.01676341023 -4.423432036e-17)
(1.379071105 0.01687379332 -1.156581506e-17)
(1.015284389 0.009927927872 -3.745150629e-17)
(1.258419444 0.008684532852 2.105862387e-17)
(0.9682079266 0.004560775288 -3.29321224e-17)
(1.175072366 0.003872452258 3.212293379e-17)
(0.8779520258 -0.002003854826 -3.58976311e-17)
(2.067146036 0.2670239485 3.850123881e-17)
(1.350023236 0.182106952 3.148480777e-17)
(1.747142735 0.1487524395 6.65613829e-17)
(1.119525321 0.09008732531 2.013254018e-17)
(1.530067213 0.08661934801 1.12567582e-16)
(1.044979712 0.05139749728 -4.156995459e-17)
(1.371718187 0.04755634845 1.363412312e-16)
(1.010721552 0.03272758934 -8.252133133e-17)
(1.254853164 0.02092967154 8.655738963e-17)
(0.9657508985 0.01967583072 -1.01492614e-16)
(1.17402955 0.003436760684 1.181465353e-16)
(0.8777068469 0.003758082202 -1.525404278e-16)
(1.988742981 0.4298610309 -3.393990828e-17)
(1.296542196 0.293614282 -5.510062699e-17)
(1.703751233 0.2390076455 -4.597061404e-17)
(1.093079785 0.1451446961 -7.787342518e-17)
(1.504906033 0.1387546495 -4.93827313e-17)
(1.029802747 0.0827836599 -6.423708729e-17)
(1.358006506 0.07581837908 -5.234250751e-17)
(1.000805382 0.0527769159 -3.944617042e-17)
(1.249138644 0.03315756085 3.970733245e-18)
(0.9593458805 0.03160085014 1.943875602e-17)
(1.173767978 0.005549180543 -2.443686141e-17)
(0.8758129127 0.005432696068 2.792819117e-17)
(1.876134284 0.5709417732 1.205803164e-16)
(1.219103166 0.3904379258 3.537069327e-17)
(1.640998574 0.317472443 1.239661322e-16)
(1.054728513 0.1932935868 -3.065427038e-17)
(1.468422021 0.1842485295 2.107914906e-16)
(1.008116099 0.1107149077 -8.636043763e-17)
(1.337928101 0.1001958207 2.199026073e-16)
(0.9873590816 0.0714357282 -1.285688475e-16)
(1.240003434 0.04254886648 1.615471135e-16)
(0.951610225 0.04429304651 -2.404680623e-16)
(1.171781841 0.004593545197 2.365244281e-16)
(0.8744094506 0.0106094987 -2.993593514e-16)
(1.734888156 0.6835815431 -1.997111569e-16)
(1.122639098 0.4677599402 -1.707340595e-17)
(1.562783522 0.3799535143 -9.81824839e-17)
(1.006966287 0.2314821835 1.804194108e-17)
(1.423151038 0.2202869047 -1.696814282e-16)
(0.9805390925 0.1324474832 -2.150811199e-17)
(1.313524039 0.1196292617 -9.419208463e-17)
(0.9690558746 0.08525827486 6.224234037e-17)
(1.230288047 0.05086929064 -1.532294346e-16)
(0.9394670974 0.0524389463 2.765940039e-16)
(1.17203175 0.005983647498 -2.144611938e-16)
(0.8704045162 0.01166626551 2.141917376e-16)
(1.572178599 0.7618093198 1.322985005e-16)
(1.010740946 0.5213865422 -2.348251285e-17)
(1.472174011 0.4233380663 9.214155024e-17)
(0.9515322974 0.2581804366 -1.043959174e-16)
(1.370563139 0.2453812296 2.376466452e-16)
(0.9490449311 0.1481188342 -8.404218124e-17)
(1.284770035 0.1329142887 1.890651166e-16)
(0.9492620209 0.0960765382 -8.90134718e-17)
(1.217483044 0.05555902774 2.078395806e-16)
(0.927858778 0.06026948831 -4.564153725e-16)
(1.169515206 0.004575387847 4.806038672e-16)
(0.8682890792 0.01548474414 -4.566450954e-16)
(1.396087895 0.8019612975 3.443089422e-17)
(0.890353405 0.5492244572 -3.623513916e-17)
(1.374589743 0.4456959252 1.450289848e-16)
(0.891879714 0.2719262883 8.815315092e-17)
(1.314094499 0.2582255444 -1.648982439e-16)
(0.9145525145 0.1558219621 3.489291359e-17)
(1.254432121 0.1398053893 -1.34833909e-16)
(0.9262955002 0.1007390219 1.089121822e-16)
(1.205594539 0.05867908117 -1.97354005e-16)
(0.9124679575 0.06261659102 4.514546962e-16)
(1.170210413 0.00559565519 -4.557817958e-16)
(0.8627646488 0.01507762156 3.665598867e-16)
(1.215499331 0.8018378339 -1.230261034e-16)
(0.7662000346 0.5490021277 7.803693284e-17)
(1.274131137 0.4454020763 -4.372803625e-16)
(0.8303873573 0.2718787492 1.585310048e-16)
(1.255902925 0.2579367692 -2.246142299e-16)
(0.8795053535 0.156142909 1.954759547e-16)
(1.222818203 0.139284768 -2.187377359e-16)
(0.9040301332 0.1016487171 5.859216434e-17)
(1.191854789 0.05747723083 6.555484298e-17)
(0.8991913923 0.06425768656 -3.424322348e-16)
(1.16790137 0.003522123961 3.437537484e-16)
(0.86034003 0.01717760133 -2.680531678e-16)
(1.03945238 0.7615703704 2.370133604e-17)
(0.6457040304 0.5218196132 2.788337028e-17)
(1.176463338 0.4231989562 5.837603221e-16)
(0.7706152209 0.2584106649 -2.442311408e-16)
(1.199355957 0.2450537878 4.721631886e-16)
(0.8448953973 0.1481854709 -2.774848137e-16)
(1.192456703 0.1323838156 2.832330374e-16)
(0.8809536417 0.09600938228 -6.639506209e-17)
(1.17997043 0.05508182956 -1.162357178e-16)
(0.883676123 0.05998060774 4.484068011e-16)
(1.168640291 0.004436983551 -4.333804162e-16)
(0.8545469593 0.01499789273 4.904867987e-16)
(0.8767395779 0.6831079135 -1.479237502e-16)
(0.533919219 0.4678058394 4.414858693e-17)
(1.086086071 0.3793164907 -7.944741027e-16)
(0.7153005616 0.2316588843 2.373495501e-16)
(1.147116083 0.2194891114 -6.230438931e-16)
(0.8133348778 0.1331277491 5.32552782e-16)
(1.164222852 0.1182110445 -4.938311949e-16)
(0.8607910797 0.08687126149 2.482925984e-16)
(1.167926062 0.04826508017 -9.660843085e-17)
(0.8715654882 0.05515421244 6.332747991e-17)
(1.166884988 0.002135841504 -1.175355997e-16)
(0.8523898458 0.01495277983 3.159055961e-17)
(0.7356034382 0.5704109578 -1.994345736e-17)
(0.4371945959 0.3909442493 5.013292411e-17)
(1.007661123 0.3169031818 4.647024751e-16)
(0.6672426863 0.1935802511 1.50121134e-16)
(1.101670087 0.1833717095 1.640798564e-16)
(0.7854474026 0.1110043843 -5.364946428e-17)
(1.139869811 0.09882459974 1.439427594e-16)
(0.8421246178 0.07196365193 2.005907693e-17)
(1.158525749 0.04072756935 -8.37928466e-17)
(0.8588692455 0.04505784168 4.21250139e-17)
(1.167772812 0.002592003769 -8.07163914e-17)
(0.8473139386 0.01147486319 1.409744941e-16)
(0.6229785436 0.4291273261 1.833877192e-16)
(0.3599198728 0.2938772743 1.290625296e-17)
(0.9452516382 0.2381634793 -4.115568016e-16)
(0.6290916308 0.1454637422 -3.943267355e-17)
(1.065677866 0.1376639885 -3.808129007e-16)
(0.7637273552 0.08355400212 3.162276057e-16)
(1.120419589 0.07392088011 -5.181222497e-16)
(0.8283061985 0.05452354604 3.489259463e-16)
(1.150115936 0.02983363435 -2.02590549e-16)
(0.8507713633 0.03461958934 2.517770152e-16)
(1.166224691 0.0007155824003 -3.523758958e-16)
(0.8464197583 0.009315041165 3.409007046e-16)
(0.5446982079 0.2663227886 -1.118876899e-16)
(0.3061833303 0.182531822 1.647707977e-17)
(0.9016134509 0.1478429732 1.817522664e-16)
(0.6023086007 0.0902943486 7.67048029e-17)
(1.040331868 0.08538442655 1.528087241e-16)
(0.7481209283 0.05167691748 -5.372194061e-17)
(1.106912999 0.04577582101 9.998390148e-17)
(0.8177486059 0.03341107897 2.079482856e-17)
(1.145197107 0.01849817678 -1.121180599e-16)
(0.8432749934 0.02081503385 6.663630052e-17)
(1.167444983 0.0005375352677 -6.797847362e-17)
(0.8426971574 0.005072650589 6.076164332e-17)
(0.5044616163 0.09017021883 5.778919116e-17)
(0.2786850948 0.0616815706 4.485511333e-17)
(0.8795018421 0.04985311623 -1.845321551e-16)
(0.5888709142 0.03038080643 7.971535583e-17)
(1.02769228 0.02859191399 -1.565430794e-16)
(0.7406007465 0.01727927291 1.141035261e-16)
(1.100050156 0.01505129104 -6.619344008e-17)
(0.8131604189 0.0111004913 2.927662174e-17)
(1.141948244 0.005617676277 -4.065424256e-18)
(0.8410631447 0.006862380504 3.202109891e-17)
(1.166132191 -0.0007255816475 -4.746570636e-17)
(0.8436418697 0.001549745757 3.779479157e-17)
(0.5045341059 -0.09051070791 -6.126998028e-17)
(0.2786600998 -0.06209485636 -3.694710566e-17)
(0.8793272345 -0.05052990195 -2.90351824e-18)
(0.5887089554 -0.03094718215 -2.37449897e-17)
(1.027466928 -0.02955168869 -3.860974886e-17)
(0.7403567124 -0.01798957762 -5.716729662e-17)
(1.100016679 -0.01635130024 -9.068677491e-17)
(0.8127503718 -0.01192707148 1.241283445e-17)
(1.142407324 -0.007353569013 -3.4902891e-17)
(0.840179516 -0.007813227734 -1.858461666e-17)
(1.167384424 -0.001531402243 -5.335974186e-18)
(0.8419437511 -0.002699767359 2.998282282e-17)
(0.5446603093 -0.2666714499 2.058492874e-17)
(0.3063179061 -0.182762249 1.021953968e-16)
(0.9018585395 -0.1483760008 -5.956770805e-17)
(0.6026233643 -0.09075656677 1.650554699e-16)
(1.04068209 -0.08620796213 9.217416812e-17)
(0.7485824065 -0.05246337694 2.250036211e-17)
(1.107132722 -0.04688383804 2.796053461e-16)
(0.8184475592 -0.03458445337 -1.136551041e-16)
(1.144996262 -0.01980289866 1.117639764e-16)
(0.8444902067 -0.02236978762 -1.327893845e-16)
(1.166574282 -0.002097825896 2.098909217e-16)
(0.844691892 -0.006761247013 -3.050874666e-16)
(0.6230717448 -0.4294674152 -1.096507032e-17)
(0.3600895293 -0.2944263092 -1.479677781e-16)
(0.9452336472 -0.2389580625 -4.721514209e-17)
(0.6291512017 -0.1460824496 -2.269727932e-16)
(1.065659354 -0.1387286172 -7.617318815e-17)
(0.7637042397 -0.08413783454 -1.726068851e-16)
(1.120620436 -0.07537651849 -1.557688979e-16)
(0.8281179552 -0.05496863925 -1.300887925e-16)
(1.150845769 -0.03193410807 4.898230526e-17)
(0.8501634598 -0.03495760037 -6.121333889e-18)
(1.167799667 -0.00355146195 -1.620108848e-17)
(0.845146644 -0.00991573546 6.492472836e-17)
(0.7356261178 -0.5707633329 1.882465417e-16)
(0.4373503528 -0.3910101069 1.123996448e-16)
(1.007909887 -0.3173189068 2.243818901e-16)
(0.6676255602 -0.1939285968 2.283201929e-18)
(1.102087307 -0.1840758531 4.190137837e-16)
(0.7860760768 -0.1117892032 -1.536218957e-16)
(1.14025635 -0.09975506212 4.81144638e-16)
(0.8431061055 -0.07332266252 -2.840932111e-16)
(1.158581658 -0.04162484615 3.338010641e-16)
(0.8604269442 -0.04704469877 -4.866778435e-16)
(1.16728906 -0.003421759206 4.637438363e-16)
(0.8495524306 -0.01374794374 -6.342093824e-16)
(0.8768567784 -0.6834575403 -3.989984626e-16)
(0.5343277928 -0.4683917185 -7.431762473e-17)
(1.086296129 -0.3801427528 -2.309786721e-16)
(0.7156173007 -0.232251639 -5.196909191e-17)
(1.147393881 -0.2205524175 -2.868753021e-16)
(0.8135175421 -0.1335798826 -1.114654584e-16)
(1.164774393 -0.1196808713 -1.47111886e-16)
(0.8607351887 -0.0870403852 2.239266588e-17)
(1.169098577 -0.05050126257 -2.11328914e-16)
(0.8710991165 -0.05504897064 3.916782981e-16)
(1.168972463 -0.005267471403 -2.803063088e-16)
(0.8514816489 -0.015019509 2.623752198e-16)
(1.039560635 -0.7619070302 2.732392341e-16)
(0.6458333132 -0.5217927785 -1.993300608e-17)
(1.176687121 -0.4235558367 3.083064821e-16)
(0.7710119346 -0.2586880049 -1.813646213e-16)
(1.1997973 -0.2456833286 5.04672907e-16)
(0.845640717 -0.1489305377 -2.059131126e-16)
(1.192951126 -0.133181613 4.209181881e-16)
(0.8821901591 -0.09739465167 -2.036204319e-16)
(1.18016747 -0.05568938472 3.673986532e-16)
(0.8856017019 -0.06214336085 -7.04721426e-16)
(1.168352234 -0.004707968217 7.483392916e-16)
(0.8571111912 -0.01770531281 -7.315638078e-16)
(1.215656847 -0.8021997612 -5.744633744e-17)
(0.766828676 -0.5495039854 -8.895498064e-17)
(1.274582613 -0.4461402299 1.247454975e-17)
(0.8309503581 -0.2723472196 9.433464868e-17)
(1.256500454 -0.2588475348 -3.005392457e-16)
(0.8798785938 -0.1564506893 2.835376768e-17)
(1.223776184 -0.1405567943 -1.950212541e-16)
(0.9040647119 -0.1016644687 1.007357226e-16)
(1.193583588 -0.05948888209 -2.055242414e-16)
(0.8987913927 -0.06395781214 4.424960014e-16)
(1.170641912 -0.006443756427 -4.402880263e-16)
(0.8597647678 -0.01694591812 3.049750958e-16)
(1.396295067 -0.8022535572 -1.956227041e-17)
(0.8904742761 -0.5491886296 7.277152982e-17)
(1.374811653 -0.4460525966 -1.921073867e-16)
(0.89230337 -0.2721890564 7.781340764e-17)
(1.314558637 -0.258824199 -6.41422277e-18)
(0.9154181258 -0.1565174101 6.11851312e-17)
(1.255003988 -0.1405033226 -3.785653245e-17)
(0.9277780483 -0.1020431472 -4.690159475e-17)
(1.205901648 -0.05909922828 1.666823795e-16)
(0.9147133431 -0.06473205194 -4.380915596e-16)
(1.170134176 -0.005517857475 4.435189661e-16)
(0.8655317848 -0.01792935822 -3.954831347e-16)
(1.57239913 -0.7621734152 -6.859705504e-18)
(1.011507578 -0.5217039105 -1.336834301e-17)
(1.47281056 -0.4238879881 3.522182844e-16)
(0.9522780525 -0.2584364946 -2.065642385e-16)
(1.371400667 -0.2460326164 2.820196163e-16)
(0.9495995587 -0.1482480294 -2.212553027e-16)
(1.286005225 -0.1338682547 1.728638634e-16)
(0.9494696457 -0.09598624054 -5.958641194e-17)
(1.21951348 -0.05714840331 -9.190611059e-17)
(0.9277228967 -0.05990971037 3.239237192e-16)
(1.172503991 -0.00697179868 -3.136720459e-16)
(0.8683287359 -0.01512446167 3.448799675e-16)
(1.735193602 -0.6837979953 -8.555363164e-17)
(1.122819324 -0.4677641082 3.733676058e-17)
(1.563072754 -0.3803269963 -4.16479728e-16)
(1.00746173 -0.2317525181 1.436929255e-16)
(1.423701672 -0.2208416904 -2.89648807e-16)
(0.9815038306 -0.1330724069 2.709773015e-16)
(1.314253509 -0.1201570391 -2.137296809e-16)
(0.97065939 -0.08642273726 8.499520677e-17)
(1.230881246 -0.05098099908 1.67207843e-18)
(0.9418014591 -0.05443285293 -2.623665392e-17)
(1.172438919 -0.005410673046 9.67370534e-18)
(0.8731663069 -0.01459071812 -4.782249108e-17)
(1.876438979 -0.5712808759 3.08869428e-17)
(1.219891991 -0.3905292212 2.072295883e-17)
(1.64172342 -0.3177791155 2.384263392e-16)
(1.055570487 -0.193310595 3.053958567e-17)
(1.469372248 -0.1845798778 1.002522729e-16)
(1.00886613 -0.1106818157 -4.154052134e-17)
(1.339245346 -0.1007582053 8.161341289e-17)
(0.9879155544 -0.07130373973 3.755117889e-18)
(1.241978791 -0.04362864682 -3.561834013e-17)
(0.9520482054 -0.04392871922 5.698236961e-17)
(1.174529925 -0.006396806752 -7.245922311e-17)
(0.8752700191 -0.01002957922 1.123993318e-16)
(1.989131571 -0.4299759419 2.308573191e-17)
(1.296864492 -0.2936476763 2.332367614e-18)
(1.70417454 -0.2393609748 -2.072435839e-16)
(1.09369848 -0.1453976883 1.495053086e-17)
(1.505586741 -0.1392088374 -1.819486147e-16)
(1.030835069 -0.08330228683 1.401014185e-16)
(1.358915072 -0.07610041146 -2.076361978e-16)
(1.00238297 -0.053747134 1.348935583e-16)
(1.250074044 -0.03288197598 -8.423555564e-17)
(0.9615590679 -0.03338320117 9.006544511e-17)
(1.174717899 -0.004419831286 -1.215241121e-16)
(0.8785495419 -0.008302914817 1.169981728e-16)
(2.067542753 -0.267298867 4.932908979e-18)
(1.350727489 -0.1819929133 3.512493171e-17)
(1.747850557 -0.1488173013 9.154097945e-17)
(1.120391333 -0.08988382379 5.089273671e-17)
(1.530992221 -0.08661922769 5.526056665e-17)
(1.04596164 -0.05120978621 1.629001867e-17)
(1.372927563 -0.04767114059 2.634828919e-17)
(1.011808367 -0.03255322848 3.552558888e-17)
(1.256492969 -0.02138964913 -3.80799337e-17)
(0.9669982588 -0.01930270772 5.238685322e-17)
(1.176235824 -0.004501348972 -5.470588549e-17)
(0.8793956629 -0.002924266512 6.391539403e-17)
(2.107790655 -0.09103328584 -1.144106519e-17)
(1.378163989 -0.06132436015 -1.412578879e-17)
(1.770139965 -0.05103793397 -9.70858147e-17)
(1.13396861 -0.03022691512 9.192457582e-19)
(1.543957565 -0.0300331781 -1.075131653e-16)
(1.053715097 -0.01710949836 5.483801441e-17)
(1.38008628 -0.01692635652 -1.088143546e-16)
(1.016794541 -0.01062437731 7.060313239e-17)
(1.259613833 -0.008136683765 -7.127688115e-17)
(0.9702004402 -0.005965497484 7.275964109e-17)
(1.176510041 -0.002415305214 -8.526405167e-17)
(0.880575385 -0.0004551599686 9.375259854e-17)
(2.107823449 0.08959113841 1.800855249e-17)
(1.378144214 0.06258107676 3.997649343e-17)
(1.770148406 0.04953835452 4.596129358e-17)
(1.133941344 0.03134804591 5.279832075e-17)
(1.544014874 0.02845157002 3.079474839e-17)
(1.053589613 0.01837672847 4.388258348e-17)
(1.380284325 0.01487782773 1.152283051e-17)
(1.016509397 0.01258269698 3.723725225e-17)
(1.259993985 0.005124237519 -2.114330813e-17)
(0.9697922831 0.009118692676 3.291625118e-17)
(1.176996138 -0.001753636774 -3.222659101e-17)
(0.8801983538 0.004859035554 3.598677825e-17)
(2.067630735 0.2659171083 -3.819238785e-17)
(1.35064321 0.1831971249 -3.121406705e-17)
(1.747854098 0.1473705132 -6.621702675e-17)
(1.120318749 0.09096225135 -1.999656476e-17)
(1.531151636 0.08511583406 -1.119566611e-16)
(1.045662235 0.05239607904 4.134177587e-17)
(1.373472518 0.04576786062 -1.354079827e-16)
(1.011149381 0.03435613264 8.168619506e-17)
(1.25744163 0.01860052532 -8.504991852e-17)
(0.9661959015 0.02225238725 9.979694456e-17)
(1.177223865 0.0005791282905 -1.160041435e-16)
(0.8790772542 0.007179901855 1.500885084e-16)
(1.989255103 0.4287147893 3.34952944e-17)
(1.296769673 0.294755237 5.467833009e-17)
(1.704175183 0.2380119326 4.558875356e-17)
(1.093597066 0.1463790462 7.747546105e-17)
(1.505820591 0.1378536075 4.897285649e-17)
(1.030337671 0.08429744637 6.397681835e-17)
(1.359762128 0.07451055273 5.204637568e-17)
(1.001259783 0.0551683783 3.936207149e-17)
(1.251623494 0.03065417452 -4.226194932e-18)
(0.9600963907 0.03574053108 -1.928051089e-17)
(1.176480184 0.00126072166 2.414961089e-17)
(0.8776459591 0.01188120545 -2.757128362e-17)
(1.876562154 0.5701816106 -1.199153538e-16)
(1.219780524 0.3914961436 -3.513401423e-17)
(1.641672681 0.3165692819 -1.229410545e-16)
(1.055470803 0.1941797014 3.040518432e-17)
(1.469625995 0.1834279057 -2.092966529e-16)
(1.008311087 0.1114741444 8.535921216e-17)
(1.340253356 0.09953917566 -2.178921819e-16)
(0.9866585809 0.07234157222 1.265672925e-16)
(1.243773039 0.04196199736 -1.586937124e-16)
(0.9505195306 0.04578487279 2.371851109e-16)
(1.176405755 0.003852766294 -2.32495825e-16)
(0.8746727697 0.01323428905 2.946872571e-16)
(1.735275302 0.6828996467 1.99024843e-16)
(1.122769643 0.4685769082 1.659315092e-17)
(1.562966699 0.3792876024 9.739666212e-17)
(1.007397621 0.2324639986 -1.83691004e-17)
(1.423925201 0.2199371196 1.689162563e-16)
(0.980887785 0.1335516935 2.140934709e-17)
(1.315320988 0.1194463362 9.363492367e-17)
(0.9692139684 0.08683465678 -6.220219054e-17)
(1.232863722 0.05022448581 1.529200362e-16)
(0.9400151751 0.05532069492 -2.763816895e-16)
(1.174576134 0.004107401518 2.140278832e-16)
(0.8724111766 0.0167079205 -2.135857518e-16)
(1.572391992 0.7614873491 -1.313952375e-16)
(1.011518969 0.5223336734 2.361709684e-17)
(1.472583347 0.42302598 -9.060227763e-17)
(0.9522915828 0.2590080451 1.037864832e-16)
(1.371515638 0.2453780644 -2.355605628e-16)
(0.9491081697 0.148501292 8.253167531e-17)
(1.286937287 0.1335965015 -1.864943995e-16)
(0.9482640894 0.09598494169 8.653240055e-17)
(1.221226671 0.0570378781 -2.046357686e-16)
(0.926381757 0.06025675876 4.528746569e-16)
(1.174141834 0.006370192512 -4.764631538e-16)
(0.8682719151 0.01681945471 4.5192774e-16)
(1.396155614 0.8017850586 -3.527238254e-17)
(0.8906271614 0.5496660198 3.581726238e-17)
(1.374463423 0.4453896439 -1.460970411e-16)
(0.8924242029 0.2726010633 -8.830967536e-17)
(1.314516518 0.2584316166 1.639140002e-16)
(0.915030861 0.1564569452 -3.48517506e-17)
(1.255707823 0.1407315599 1.342806639e-16)
(0.9267197488 0.1014163004 -1.089420606e-16)
(1.207319597 0.0598807877 1.972965014e-16)
(0.91359003 0.06410605033 -4.516582478e-16)
(1.171447069 0.006151596398 4.560293311e-16)
(0.8657751326 0.01853244475 -3.66839612e-16)
(1.215345363 0.8019290464 1.239876599e-16)
(0.7671175694 0.549815792 -7.802385181e-17)
(1.274057164 0.4456368021 4.390314173e-16)
(0.8312203225 0.2726442466 -1.593996158e-16)
(1.256237216 0.2586579977 2.269152517e-16)
(0.8797793191 0.1562526355 -1.972098467e-16)
(1.224070113 0.1411019549 2.212974564e-16)
(0.9035781059 0.1008133908 -6.097639899e-17)
(1.194250617 0.06069676588 -6.270873306e-17)
(0.89857237 0.06304550299 3.394523423e-16)
(1.170873849 0.00751566702 -3.404429315e-16)
(0.8610819551 0.0173253382 2.644759524e-16)
(1.03904911 0.7618101263 -2.450173182e-17)
(0.6463128129 0.5220045524 -2.818961643e-17)
(1.175986497 0.4232322095 -5.848340777e-16)
(0.7714319565 0.2588768103 2.442540319e-16)
(1.199278175 0.2456857203 -4.73139539e-16)
(0.8457656409 0.1485408182 2.776378414e-16)
(1.192800063 0.1340269856 -2.837033768e-16)
(0.8821059047 0.09616655811 6.628375395e-17)
(1.180179307 0.0574393271 1.164521437e-16)
(0.8859480005 0.0606060052 -4.489669249e-16)
(1.167841815 0.006599206175 4.341926653e-16)
(0.8589987338 0.01731385252 -4.91570631e-16)
(0.8761372629 0.6834891734 1.487526737e-16)
(0.5349775058 0.4685076082 -4.423290453e-17)
(1.085410782 0.3799218349 7.960389097e-16)
(0.7162172306 0.2323951216 -2.383032313e-16)
(1.146619988 0.2206416058 6.251031207e-16)
(0.8139939053 0.1332237456 -5.342333269e-16)
(1.164104806 0.1205694485 4.961308279e-16)
(0.8613465975 0.08593888587 -2.505384767e-16)
(1.1681658 0.05220059483 9.916720755e-17)
(0.8725167574 0.05370879608 -6.600344676e-17)
(1.167152199 0.007020367467 1.204860755e-16)
(0.8545747244 0.01480996111 -3.476237238e-17)
(0.7346835391 0.5708909249 1.933924046e-17)
(0.438191236 0.3910974045 -5.029487696e-17)
(1.006825427 0.3172243022 -4.655652709e-16)
(0.6683724169 0.194033059 -1.499111745e-16)
(1.101025922 0.1842392936 -1.648916786e-16)
(0.7868002239 0.111415847 5.397774689e-17)
(1.13908279 0.1006507491 -1.443352372e-16)
(0.8441838083 0.07220828955 -1.99621764e-17)
(1.156894832 0.04335185358 8.387504465e-17)
(0.8624815276 0.04560335823 -4.240082335e-17)
(1.164623744 0.005358391431 8.11440616e-17)
(0.8531962276 0.01327194776 -1.414702737e-16)
(0.6219641055 0.4296320387 -1.828255798e-16)
(0.361063202 0.2945094437 -1.306187623e-17)
(0.9440189717 0.238904083 4.126769531e-16)
(0.6300431014 0.146228111 3.857730703e-17)
(1.064400612 0.1388541434 3.822417497e-16)
(0.7647128453 0.08398300272 -3.176016226e-16)
(1.119012434 0.07602448282 5.196766787e-16)
(0.8297605371 0.0543449273 -3.506356621e-16)
(1.148358628 0.03312117841 2.045089404e-16)
(0.853093234 0.03420007853 -2.539589927e-16)
(1.164029563 0.004786320339 3.547119852e-16)
(0.8497751042 0.00999548402 -3.435681748e-16)
(0.5433523611 0.2668523559 1.116027364e-16)
(0.3074425071 0.1828777664 -1.644925962e-17)