/*--------------------------------*- C++ -*----------------------------------*\
| =========                 |                                                 |
| \\      /  F ield         | foam-extend: Open Source CFD                    |
|  \\    /   O peration     | Version:  3.0                                   |
|   \\  /    A nd           | Web:         http://www.extend-project.de       |
|    \\/     M anipulation  |                                                 |
\*---------------------------------------------------------------------------*/
FoamFile
{
    version     2.0;
    format      ascii;
    class       volScalarField;
    location    "3.1";
    object      p;
}
// * * * * * * * * * * * * * * * * * * * * * * * * * * * * * * * * * * * * * //

dimensions      [0 0 0 0 0 0 0];

internalField   nonuniform List<scalar> 
400
(
0.990916
0.912404
0.903243
0.873655
0.894419
0.888973
0.92478
0.931657
0.974896
0.98699
1.03277
1.04472
1.08864
1.09488
1.13116
1.12419
1.14411
1.11242
1.1012
1.02221
1.06202
0.992581
0.982778
0.952468
0.966908
0.953845
0.977968
0.971944
0.999434
0.995504
1.02363
1.01906
1.04609
1.03828
1.06129
1.04569
1.05816
1.02554
1.01343
0.94441
1.02165
0.957264
0.949735
0.922131
0.941099
0.93176
0.961829
0.960764
0.99525
0.997149
1.03327
1.03475
1.07054
1.06813
1.09989
1.0881
1.1075
1.07674
1.06727
1.0024
1.01581
0.948378
0.94381
0.917429
0.938031
0.929844
0.958892
0.958
0.989414
0.990913
1.02319
1.02452
1.05721
1.0556
1.08635
1.07625
1.09711
1.06707
1.05932
0.989561
0.975489
0.899453
0.900924
0.877266
0.9062
0.903863
0.941275
0.947238
0.987486
0.996356
1.03879
1.04779
1.09263
1.09854
1.14354
1.13953
1.17515
1.14584
1.14696
1.0616
0.953352
0.868094
0.874559
0.85358
0.886299
0.887897
0.925609
0.934767
0.972757
0.984448
1.02362
1.03599
1.0784
1.08906
1.13455
1.1363
1.1765
1.14937
1.15472
1.05132
0.921174
0.825348
0.840102
0.823196
0.863517
0.871223
0.914944
0.930122
0.974148
0.991793
1.03867
1.05738
1.11074
1.12849
1.18963
1.19848
1.25892
1.23336
1.25556
1.12437
0.895004
0.796821
0.816521
0.804968
0.846554
0.858752
0.899987
0.918172
0.957055
0.977099
1.01728
1.03904
1.08568
1.1085
1.1653
1.18186
1.24329
1.22389
1.25079
1.10084
0.865668
0.772946
0.798498
0.794236
0.837672
0.855497
0.897405
0.919892
0.96008
0.983781
1.02725
1.05291
1.10643
1.13451
1.20396
1.22777
1.30937
1.29586
1.34572
1.17695
0.831101
0.759335
0.786684
0.791534
0.831285
0.853116
0.888803
0.912789
0.944477
0.968603
1.00115
1.02758
1.06802
1.09908
1.15469
1.18607
1.25673
1.25612
1.30341
1.14197
0.793887
0.754175
0.782868
0.799335
0.834458
0.861624
0.892902
0.919486
0.948022
0.97332
1.00448
1.03184
1.0738
1.10728
1.16976
1.20766
1.29444
1.30712
1.38278
1.23604
0.744218
0.749754
0.779458
0.808747
0.838256
0.868991
0.892548
0.918972
0.937326
0.960694
0.978185
1.00322
1.02683
1.05972
1.09851
1.14193
1.20195
1.23502
1.29341
1.19967
0.698408
0.753749
0.782361
0.827022
0.849042
0.885384
0.901974
0.929661
0.942001
0.964281
0.97669
0.999675
1.0198
1.05177
1.0913
1.13968
1.21156
1.26596
1.36204
1.32532
0.640398
0.748917
0.784059
0.84303
0.86233
0.901592
0.911523
0.937461
0.939914
0.958172
0.95655
0.974301
0.974008
1.00123
1.01101
1.06071
1.09224
1.17058
1.22886
1.28953
0.603909
0.760586
0.792713
0.868111
0.88025
0.924858
0.927314
0.953111
0.948247
0.963535
0.95459
0.96776
0.960127
0.982924
0.987717
1.03919
1.07791
1.18213
1.28924
1.44246
0.564339
0.760977
0.808118
0.894358
0.907334
0.952453
0.949561
0.971729
0.958343
0.968164
0.947092
0.953071
0.926826
0.940888
0.915823
0.961605
0.953053
1.0747
1.11823
1.39246
0.568922
0.793154
0.832429
0.931401
0.937464
0.985341
0.974759
0.994783
0.973832
0.97939
0.95038
0.950262
0.914476
0.920853
0.885312
0.926897
0.916585
1.05956
1.15153
1.5387
0.60365
0.829005
0.883235
0.981439
0.986
1.02875
1.01225
1.02636
0.998678
0.998352
0.960971
0.953401
0.904318
0.899266
0.839977
0.866165
0.811803
0.949093
0.952644
1.43549
0.68878
0.899251
0.940042
1.03987
1.03514
1.07451
1.04959
1.059
1.02453
1.01952
0.975491
0.961822
0.903504
0.888616
0.814967
0.827982
0.756836
0.894337
0.90915
1.4874
0.895972
1.02205
1.05161
1.12791
1.11072
1.13529
1.10295
1.10384
1.06558
1.05524
1.00867
0.988994
0.926298
0.899183
0.814653
0.800071
0.703048
0.787019
0.721031
1.24577
)
;

boundaryField
{
    cavity
    {
        type            implicitExtrapolation;
    }
    lid
    {
        type            implicitExtrapolation;
    }
    frontAndBack
    {
        type            empty;
    }
}


// ************************************************************************* //
