/*--------------------------------*- C++ -*----------------------------------*\
| =========                 |                                                 |
| \\      /  F ield         | foam-extend: Open Source CFD                    |
|  \\    /   O peration     | Version:  3.0                                   |
|   \\  /    A nd           | Web:         http://www.extend-project.de       |
|    \\/     M anipulation  |                                                 |
\*---------------------------------------------------------------------------*/
FoamFile
{
    version     2.0;
    format      ascii;
    class       volVectorField;
    location    "3.1";
    object      u;
}
// * * * * * * * * * * * * * * * * * * * * * * * * * * * * * * * * * * * * * //

dimensions      [0 0 0 0 0 0 0];

internalField   nonuniform List<vector> 
400
(
(-0.0404259 0.118926 7.04665e-316)
(-0.191987 0.162627 6.37596e-316)
(-0.275967 0.163579 5.36037e-316)
(-0.41069 0.195852 5.03067e-316)
(-0.501171 0.175453 3.93922e-316)
(-0.603315 0.173055 3.8566e-316)
(-0.679741 0.144476 2.8065e-316)
(-0.745653 0.116279 2.8702e-316)
(-0.789546 0.0819109 1.90455e-316)
(-0.816586 0.0405636 2.06974e-316)
(-0.817739 0.00272106 1.18771e-316)
(-0.802703 -0.040773 1.43039e-316)
(-0.759869 -0.0787127 6.16754e-317)
(-0.699927 -0.111815 9.09779e-317)
(-0.622088 -0.145231 1.53564e-317)
(-0.516499 -0.151242 4.44157e-317)
(-0.424219 -0.173728 -2.24327e-317)
(-0.2785 -0.139829 -5.84415e-318)
(-0.197377 -0.134716 -5.27952e-317)
(-0.0356753 -0.0868966 -6.86184e-317)
(-0.0506204 0.244784 2.73922e-316)
(-0.143573 0.218029 3.12038e-316)
(-0.238145 0.190153 2.9929e-316)
(-0.314566 0.175529 3.0457e-316)
(-0.388315 0.139103 2.71363e-316)
(-0.443875 0.123681 2.63877e-316)
(-0.494397 0.0874844 2.2179e-316)
(-0.528218 0.0669692 2.10311e-316)
(-0.553659 0.0311347 1.66393e-316)
(-0.566754 0.00686305 1.55551e-316)
(-0.565622 -0.0311115 1.13481e-316)
(-0.55773 -0.055341 1.05364e-316)
(-0.530168 -0.0974463 6.64123e-317)
(-0.498882 -0.117211 6.1029e-317)
(-0.447055 -0.163794 2.49968e-317)
(-0.389277 -0.176244 1.96245e-317)
(-0.316706 -0.222479 -1.43363e-317)
(-0.233104 -0.230972 -2.86362e-317)
(-0.144858 -0.261013 -6.27848e-317)
(-0.0435786 -0.281196 -1.0976e-316)
(-0.0213447 0.398611 3.12458e-316)
(-0.146716 0.435673 3.11785e-316)
(-0.233588 0.411057 2.86573e-316)
(-0.330446 0.41499 2.71183e-316)
(-0.420141 0.360056 2.352e-316)
(-0.486519 0.327318 2.19606e-316)
(-0.554604 0.261749 1.81553e-316)
(-0.596052 0.2018 1.6802e-316)
(-0.632064 0.131521 1.31311e-316)
(-0.652066 0.0569346 1.20006e-316)
(-0.651914 -0.0173389 8.51878e-317)
(-0.649563 -0.0936622 7.54864e-317)
(-0.612216 -0.171543 4.16615e-317)
(-0.581625 -0.234649 3.1709e-317)
(-0.510275 -0.312248 -3.01051e-318)
(-0.442021 -0.344211 -1.72793e-317)
(-0.349956 -0.408773 -5.47211e-317)
(-0.2361 -0.395015 -8.07782e-317)
(-0.15656 -0.417246 -1.20957e-316)
(-0.00649645 -0.364557 -1.64817e-316)
(-0.0437589 0.476038 3.63512e-317)
(-0.140166 0.521961 1.03138e-316)
(-0.236706 0.454215 1.27978e-316)
(-0.289404 0.449418 1.48812e-316)
(-0.369159 0.366209 1.48344e-316)
(-0.392939 0.323648 1.46915e-316)
(-0.446037 0.246468 1.33309e-316)
(-0.457119 0.18294 1.22574e-316)
(-0.483173 0.110038 1.03653e-316)
(-0.490845 0.0365603 9.00483e-317)
(-0.490698 -0.0401389 7.00634e-317)
(-0.496916 -0.115101 5.66147e-317)
(-0.469535 -0.204083 3.76927e-317)
(-0.468445 -0.269686 2.60782e-317)
(-0.411781 -0.375525 9.88443e-318)
(-0.388669 -0.413717 2.25637e-318)
(-0.305492 -0.528166 -8.38774e-318)
(-0.238152 -0.51255 -7.14981e-318)
(-0.149002 -0.592883 -6.66528e-318)
(-0.0250059 -0.508287 1.45352e-317)
(-0.0707877 0.636742 2.06377e-316)
(-0.161393 0.692089 1.95631e-316)
(-0.295674 0.606772 1.82438e-316)
(-0.340199 0.591944 1.67398e-316)
(-0.446857 0.494441 1.50801e-316)
(-0.467148 0.429549 1.3645e-316)
(-0.538249 0.342892 1.18548e-316)
(-0.552567 0.250943 1.04525e-316)
(-0.588361 0.171957 8.63054e-317)
(-0.605612 0.0670187 7.2301e-317)
(-0.606747 -0.013528 5.38781e-317)
(-0.627514 -0.121561 3.94405e-317)
(-0.591416 -0.213921 2.01082e-317)
(-0.607185 -0.311913 3.78235e-318)
(-0.529205 -0.42412 -1.83536e-317)
(-0.519874 -0.487682 -4.01717e-317)
(-0.401061 -0.616514 -6.82906e-317)
(-0.334527 -0.606116 -1.024e-316)
(-0.197837 -0.706919 -1.40589e-316)
(-0.0507144 -0.594221 -1.94003e-316)
(-0.113982 0.767138 7.3966e-318)
(-0.152619 0.810226 5.44106e-317)
(-0.318164 0.682987 7.60419e-317)
(-0.304838 0.646296 9.29086e-317)
(-0.414544 0.529095 9.63805e-317)
(-0.388037 0.443697 9.57701e-317)
(-0.452716 0.354873 8.87974e-317)
(-0.435819 0.248789 8.02037e-317)
(-0.466695 0.175158 6.84427e-317)
(-0.470059 0.0600163 5.68353e-317)
(-0.472575 -0.0168574 4.34725e-317)
(-0.499393 -0.136842 3.1249e-317)
(-0.470315 -0.236833 1.80617e-317)
(-0.516045 -0.353527 6.8857e-318)
(-0.443791 -0.495703 -4.29211e-318)
(-0.491 -0.583422 -1.14959e-317)
(-0.361921 -0.774203 -1.73421e-317)
(-0.371779 -0.777349 -1.40134e-317)
(-0.187124 -0.960994 -8.91895e-318)
(-0.105893 -0.823478 1.47624e-317)
(-0.18589 0.954791 1.96794e-316)
(-0.162858 0.940812 1.65557e-316)
(-0.397115 0.790625 1.46721e-316)
(-0.339436 0.711035 1.26726e-316)
(-0.47958 0.594252 1.1219e-316)
(-0.432454 0.477384 9.82021e-317)
(-0.510608 0.398907 8.51311e-317)
(-0.491015 0.269085 7.27964e-317)
(-0.52806 0.21105 5.99159e-317)
(-0.542454 0.0751901 4.75999e-317)
(-0.546979 0.0190868 3.43118e-317)
(-0.597423 -0.123895 2.12632e-317)
(-0.564305 -0.197984 6.78101e-318)
(-0.646927 -0.345447 -8.38178e-318)
(-0.556555 -0.461365 -2.59672e-317)
(-0.653733 -0.591236 -4.68844e-317)
(-0.475572 -0.771226 -7.13772e-317)
(-0.541924 -0.824288 -1.05954e-316)
(-0.249244 -1.03893 -1.43541e-316)
(-0.206172 -0.949617 -2.02268e-316)
(-0.249631 1.16236 2.21849e-317)
(-0.120842 1.05301 5.39269e-317)
(-0.399372 0.884753 6.71863e-317)
(-0.268414 0.742282 7.74565e-317)
(-0.412321 0.634615 7.79811e-317)
(-0.319458 0.480071 7.52357e-317)
(-0.389921 0.419828 6.85427e-317)
(-0.340703 0.268898 6.01809e-317)
(-0.372174 0.230996 5.02513e-317)
(-0.368464 0.0810818 3.98227e-317)
(-0.374708 0.0421708 2.87398e-317)
(-0.420639 -0.11856 1.77617e-317)
(-0.396119 -0.185027 6.61129e-318)
(-0.497232 -0.365321 -3.81482e-318)
(-0.414242 -0.494054 -1.36818e-317)
(-0.571379 -0.68062 -2.10616e-317)
(-0.376122 -0.909587 -2.67845e-317)
(-0.567519 -1.0411 -2.47677e-317)
(-0.183765 -1.35117 -2.12156e-317)
(-0.323764 -1.34222 -7.80599e-319)
(-0.315582 1.35572 1.99157e-316)
(-0.0939368 1.10651 1.56898e-316)
(-0.432464 0.952369 1.33425e-316)
(-0.252393 0.728355 1.10249e-316)
(-0.415059 0.650562 9.50108e-317)
(-0.305526 0.455652 8.08558e-317)
(-0.37927 0.422082 6.88014e-317)
(-0.33102 0.252124 5.73393e-317)
(-0.363259 0.24079 4.61772e-317)
(-0.372541 0.0800195 3.51812e-317)
(-0.381809 0.0745838 2.39513e-317)
(-0.453474 -0.0995306 1.25263e-317)
(-0.43272 -0.117885 4.25218e-319)
(-0.577007 -0.327191 -1.27442e-317)
(-0.487569 -0.387901 -2.7557e-317)
(-0.712057 -0.638463 -4.61255e-317)
(-0.470983 -0.788262 -6.78186e-317)
(-0.757521 -1.04324 -1.01048e-316)
(-0.232542 -1.31907 -1.37586e-316)
(-0.472086 -1.50556 -2.00896e-316)
(-0.320589 1.57862 3.66688e-317)
(-0.0169791 1.17126 6.22374e-317)
(-0.350718 1.04506 6.99572e-317)
(-0.130969 0.723377 7.56173e-317)
(-0.27417 0.686586 7.28208e-317)
(-0.142367 0.442457 6.76587e-317)
(-0.197571 0.443075 5.98059e-317)
(-0.129183 0.25169 5.09047e-317)
(-0.151244 0.270459 4.12547e-317)
(-0.137474 0.0993441 3.13511e-317)
(-0.147636 0.121928 2.12651e-317)
(-0.194195 -0.067328 1.12347e-317)
(-0.186267 -0.0617241 1.26042e-318)
(-0.3125 -0.310592 -8.28802e-318)
(-0.244196 -0.359122 -1.72472e-317)
(-0.484798 -0.699751 -2.43567e-317)
(-0.253485 -0.866303 -2.98848e-317)
(-0.648444 -1.28685 -2.85634e-317)
(-0.0675952 -1.6443 -2.58107e-317)
(-0.563432 -2.05753 -7.72884e-318)
(-0.305722 1.68589 1.97129e-316)
(0.0301943 1.13842 1.5176e-316)
(-0.291598 1.06493 1.26992e-316)
(-0.06849 0.656447 1.03098e-316)
(-0.195812 0.663038 8.74053e-317)
(-0.0718416 0.383765 7.3093e-317)
(-0.112317 0.41052 6.11205e-317)
(-0.0547057 0.210061 4.99205e-317)
(-0.0697691 0.250208 3.9349e-317)
(-0.0695135 0.0798538 2.90974e-317)
(-0.0836024 0.130945 1.89706e-317)
(-0.150253 -0.05902 8.84239e-318)
(-0.157598 -0.00307205 -1.54256e-318)
(-0.317359 -0.270085 -1.26466e-317)
(-0.268956 -0.224722 -2.47879e-317)
(-0.564801 -0.633444 -4.01499e-317)
(-0.330329 -0.641154 -5.78964e-317)
(-0.802486 -1.23432 -8.72795e-317)
(-0.132816 -1.42069 -1.19337e-316)
(-0.682628 -2.12885 -1.82501e-316)
(-0.183982 1.82844 4.41033e-317)
(0.0969486 1.1544 7.13189e-317)
(-0.107592 1.1319 7.61055e-317)
(0.0793438 0.632598 7.89088e-317)
(0.0142884 0.686163 7.31613e-317)
(0.126736 0.363989 6.57042e-317)
(0.119632 0.424174 5.64069e-317)
(0.18534 0.211506 4.66997e-317)
(0.185544 0.281124 3.69017e-317)
(0.21261 0.111335 2.72227e-317)
(0.199526 0.193318 1.77523e-317)
(0.181102 7.47659e-05 8.54096e-318)
(0.157873 0.0892083 -3.60628e-319)
(0.0695514 -0.208801 -8.7545e-318)
(0.0765363 -0.133686 -1.63513e-317)
(-0.137631 -0.643143 -2.2103e-317)
(0.0211395 -0.647147 -2.57751e-317)
(-0.423227 -1.46436 -2.23072e-317)
(0.137772 -1.74565 -1.6078e-317)
(-0.585671 -2.78968 7.87078e-318)
(-0.0800542 1.76824 1.87839e-316)
(0.134727 1.07432 1.4814e-316)
(0.0323077 1.08273 1.24153e-316)
(0.163063 0.552158 1.0083e-316)
(0.157287 0.623689 8.46027e-317)
(0.237683 0.294496 6.99068e-317)
(0.265088 0.361678 5.75628e-317)
(0.312866 0.156183 4.62535e-317)
(0.327676 0.229498 3.58392e-317)
(0.343315 0.0724347 2.60191e-317)
(0.32619 0.162414 1.66338e-317)
(0.296881 -0.0171941 7.56085e-318)
(0.247161 0.0981638 -1.35352e-318)
(0.14086 -0.194522 -1.04553e-317)
(0.0923952 -0.0431423 -1.98001e-317)
(-0.154973 -0.58461 -3.12739e-317)
(-0.0727955 -0.400273 -4.36955e-317)
(-0.554445 -1.34424 -6.5893e-317)
(-0.0280295 -1.30234 -8.8609e-317)
(-0.68558 -2.5394 -1.39694e-316)
(0.124864 1.782 5.06527e-317)
(0.143842 1.05828 8.70161e-317)
(0.263016 1.10451 8.77984e-317)
(0.308679 0.526781 8.67159e-317)
(0.398118 0.621386 7.70282e-317)
(0.449799 0.273554 6.66511e-317)
(0.516452 0.359609 5.55378e-317)
(0.564761 0.159044 4.48222e-317)
(0.595194 0.253674 3.46526e-317)
(0.637413 0.112012 2.50508e-317)
(0.623819 0.22922 1.5993e-317)
(0.656232 0.0646967 7.47125e-318)
(0.594724 0.215247 -4.7418e-319)
(0.605094 -0.0818083 -7.69702e-318)
(0.506843 0.10785 -1.37385e-317)
(0.457768 -0.506361 -1.75282e-317)
(0.395828 -0.316454 -1.82802e-317)
(0.181999 -1.49353 -1.00565e-317)
(0.349291 -1.62025 3.15095e-318)
(-0.211066 -3.3436 4.44801e-317)
(0.301931 1.57025 1.81052e-316)
(0.19642 0.969297 1.49692e-316)
(0.451076 0.959586 1.24788e-316)
(0.409896 0.448509 1.00573e-316)
(0.580723 0.516716 8.30844e-317)
(0.593049 0.204517 6.75963e-317)
(0.70357 0.274988 5.48093e-317)
(0.733259 0.0985429 4.33934e-317)
(0.781257 0.17726 3.32005e-317)
(0.814863 0.0560859 2.38342e-317)
(0.798802 0.154642 1.51537e-317)
(0.827255 0.013876 7.01814e-318)
(0.736587 0.147499 -6.20892e-319)
(0.738664 -0.116226 -7.95525e-318)
(0.560921 0.0815402 -1.48617e-317)
(0.481863 -0.490593 -2.26397e-317)
(0.266002 -0.183189 -3.00411e-317)
(-0.0138665 -1.31287 -4.4068e-317)
(0.0214648 -1.02197 -5.69358e-317)
(-0.517031 -2.47828 -8.8799e-317)
(0.38423 1.41916 1.09082e-316)
(0.15619 0.945784 1.34182e-316)
(0.648662 0.943641 1.18252e-316)
(0.572075 0.428574 1.0428e-316)
(0.833162 0.484091 8.6724e-317)
(0.826866 0.181696 7.11842e-317)
(0.963979 0.254562 5.7229e-317)
(0.991151 0.1011 4.48761e-317)
(1.04725 0.19194 3.39084e-317)
(1.10253 0.0987438 2.39645e-317)
(1.09204 0.218445 1.48946e-317)
(1.18164 0.11019 6.5683e-318)
(1.09332 0.278337 -1.00266e-318)
(1.23041 0.046599 -7.65489e-318)
(1.0245 0.293685 -1.28503e-317)
(1.23004 -0.290343 -1.53464e-317)
(0.851413 0.0467009 -1.41025e-317)
(1.12871 -1.30628 -1.5995e-318)
(0.53337 -1.23023 1.72392e-317)
(0.673478 -3.64663 7.6199e-317)
(0.812855 1.20367 1.8344e-316)
(0.265449 0.79094 1.37392e-316)
(0.844392 0.680263 1.11472e-316)
(0.66466 0.322823 8.66695e-317)
(0.972299 0.343416 7.08672e-317)
(0.93702 0.115163 5.71183e-317)
(1.10224 0.163449 4.61575e-317)
(1.11425 0.043846 3.65068e-317)
(1.18228 0.104604 2.79719e-317)
(1.2252 0.031454 2.02108e-317)
(1.2164 0.108647 1.30933e-317)
(1.29199 0.0238821 6.56023e-318)
(1.18914 0.128423 6.36431e-319)
(1.2974 -0.0530743 -4.76316e-318)
(1.03347 0.102706 -9.4513e-318)
(1.15561 -0.354024 -1.43117e-317)
(0.643208 -0.0920902 -1.86657e-317)
(0.660404 -1.0916 -2.78908e-317)
(0.0698618 -0.721734 -3.74993e-317)
(-0.41909 -1.73727 -6.25965e-317)
(0.294791 0.7296 3.51245e-316)
(0.359922 0.91514 2.6801e-316)
(1.11991 0.675795 2.01919e-316)
(1.07527 0.339743 1.52886e-316)
(1.47892 0.302643 1.17931e-316)
(1.43665 0.0946321 9.11837e-317)
(1.61645 0.136546 7.05352e-317)
(1.62 0.0475935 5.35601e-317)
(1.68553 0.117558 3.92303e-317)
(1.75298 0.0758619 2.6644e-317)
(1.74862 0.173101 1.53534e-317)
(1.90231 0.12768 5.01498e-318)
(1.81622 0.272479 -4.43542e-318)
(2.09799 0.14713 -1.28696e-317)
(1.83673 0.38127 -1.96671e-317)
(2.3351 -0.0380371 -2.3346e-317)
(1.63232 0.361011 -2.23675e-317)
(2.55018 -0.924451 -8.04535e-318)
(0.792181 -0.516368 1.46489e-317)
(2.34481 -3.75929 8.22239e-317)
(1.5261 0.788606 2.05546e-317)
(0.392383 0.306778 -1.18984e-317)
(0.907655 0.253601 -1.61282e-318)
(0.705689 0.108352 9.99431e-319)
(0.910738 0.124321 5.76343e-318)
(0.881115 0.0306521 7.57316e-318)
(0.996519 0.0516008 8.58432e-318)
(0.997559 0.00301093 8.57904e-318)
(1.04944 0.0267575 8.10449e-318)
(1.0676 -0.00109487 7.33137e-318)
(1.07166 0.0267566 6.47976e-318)
(1.11058 -0.00489009 5.75722e-318)
(1.05375 0.027123 5.27088e-318)
(1.11756 -0.044867 5.0933e-318)
(0.939791 -0.0114372 5.12427e-318)
(1.02951 -0.202585 4.40618e-318)
(0.640982 -0.179841 2.13299e-318)
(0.642121 -0.57118 -7.87333e-318)
(0.254595 -0.574809 -2.44755e-317)
(-0.98807 0.0120636 -7.12755e-317)
(-0.425027 -0.341946 9.99122e-316)
(1.18025 1.22387 6.1444e-316)
(2.43451 0.473778 4.32432e-316)
(2.52379 0.321711 3.07221e-316)
(3.23013 0.191395 2.32071e-316)
(3.10163 0.0406614 1.76886e-316)
(3.35651 0.0645561 1.35723e-316)
(3.31145 0.0149046 1.02181e-316)
(3.38831 0.0731464 7.38512e-317)
(3.49693 0.061029 4.88907e-317)
(3.50487 0.143498 2.6274e-317)
(3.82092 0.135352 5.28133e-318)
(3.76143 0.261118 -1.43153e-317)
(4.37539 0.209042 -3.24542e-317)
(4.0937 0.419207 -4.81077e-317)
(5.16944 0.132718 -5.91936e-317)
(4.00801 0.561992 -6.21818e-317)
(5.94257 -0.674478 -4.66244e-317)
(1.7392 0.405814 -1.51063e-317)
(5.71782 -3.95389 6.83975e-317)
)
;

boundaryField
{
    cavity
    {
        type            myImplicitVelocity;
    }
    lid
    {
        type            fixedValue;
        value           uniform (1 0 0);
    }
    frontAndBack
    {
        type            empty;
    }
}


// ************************************************************************* //
