/*--------------------------------*- C++ -*----------------------------------*\
| =========                 |                                                 |
| \\      /  F ield         | foam-extend: Open Source CFD                    |
|  \\    /   O peration     | Version:  3.0                                   |
|   \\  /    A nd           | Web:         http://www.extend-project.de       |
|    \\/     M anipulation  |                                                 |
\*---------------------------------------------------------------------------*/
FoamFile
{
    version     2.0;
    format      ascii;
    class       volScalarField;
    location    "8.9";
    object      p;
}
// * * * * * * * * * * * * * * * * * * * * * * * * * * * * * * * * * * * * * //

dimensions      [0 0 0 0 0 0 0];

internalField   nonuniform List<scalar> 
400
(
2.17968
0.478906
0.587991
0.120543
0.657708
0.469358
1.03525
0.887715
1.41012
1.25997
1.75904
1.6049
2.10587
1.93515
2.42475
2.17573
2.54939
2.02282
1.9533
0.471134
4.57186
3.16319
2.9845
2.24524
2.41608
1.88351
2.09835
1.62335
1.8111
1.34662
1.5057
1.0322
1.17487
0.676831
0.803014
0.24825
0.301049
-0.414495
-0.666403
-1.86542
3.60355
2.31141
2.30759
1.7442
2.01085
1.63072
1.93371
1.58828
1.8876
1.53995
1.845
1.4868
1.80762
1.42839
1.74678
1.30792
1.53625
0.919224
0.813052
-0.323778
3.73738
2.9623
2.76377
2.29629
2.31949
1.93354
2.00275
1.62613
1.69887
1.32153
1.40213
1.02861
1.12823
0.756179
0.862973
0.460106
0.492662
-0.0385668
-0.297787
-1.11891
2.89299
2.23384
2.22334
1.86722
2.02822
1.74213
1.95994
1.67949
1.94217
1.65844
1.98484
1.703
2.10781
1.82197
2.27964
1.94043
2.325
1.78926
1.78288
0.763494
2.65691
2.32232
2.20794
1.97104
1.94487
1.71116
1.71298
1.46663
1.49421
1.25141
1.32699
1.11018
1.25998
1.07519
1.29915
1.09449
1.30107
0.888231
0.772807
-0.267072
2.17041
1.97295
1.97816
1.81682
1.88473
1.69949
1.82544
1.61745
1.82723
1.61594
1.95067
1.76022
2.26232
2.1002
2.7749
2.57816
3.29508
2.80651
3.08044
1.58917
1.80026
1.85865
1.80528
1.74583
1.65923
1.52589
1.44533
1.27786
1.23486
1.07412
1.10877
0.998463
1.16212
1.12996
1.46028
1.4504
1.87775
1.57087
1.65673
0.0707759
1.52118
1.77009
1.76595
1.76767
1.7216
1.60645
1.6101
1.43991
1.54584
1.36436
1.63363
1.48738
2.00252
1.92801
2.76332
2.71104
3.80006
3.39823
4.1215
2.00822
1.09687
1.57276
1.54336
1.62475
1.45656
1.37969
1.19681
1.05516
0.90441
0.757606
0.684947
0.599328
0.676614
0.719527
1.0324
1.19001
1.73112
1.61969
1.89136
-0.0400342
0.936805
1.62162
1.58291
1.71543
1.55042
1.47793
1.34535
1.17777
1.13373
0.928651
1.03858
0.862318
1.24085
1.17307
1.98032
2.03759
3.3552
3.16959
4.44888
2.14528
0.540138
1.3918
1.36475
1.5534
1.3096
1.26314
0.980199
0.826031
0.545004
0.348822
0.105487
-0.0499958
-0.180936
-0.178615
-0.0756611
0.17415
0.594512
0.822982
1.17352
-0.361417
0.484852
1.49425
1.42164
1.64889
1.39632
1.35236
1.09855
0.91029
0.693694
0.418059
0.289137
0.00222771
0.0802642
-0.0930274
0.417563
0.498077
1.73041
1.92157
3.73749
2.20702
0.207163
1.28977
1.26105
1.52317
1.23792
1.2125
0.853503
0.666122
0.254836
-0.036875
-0.486701
-0.798194
-1.2327
-1.40664
-1.70016
-1.49701
-1.47778
-0.801864
-0.566732
-0.572608
0.293185
1.41655
1.33304
1.61836
1.3317
1.31266
0.970822
0.75129
0.367506
-0.00760625
-0.411784
-0.872777
-1.21208
-1.6085
-1.65312
-1.69344
-0.966401
-0.311588
1.80281
2.32774
0.235019
1.33102
1.30348
1.60597
1.31866
1.3109
0.904612
0.675972
0.153514
-0.254045
-0.904771
-1.42483
-2.19346
-2.66482
-3.46276
-3.50594
-4.10995
-3.04748
-3.17614
-0.461309
0.536771
1.51144
1.44055
1.75024
1.47114
1.47103
1.07012
0.81503
0.29143
-0.187164
-0.845446
-1.50305
-2.28095
-2.98568
-3.73565
-4.08634
-4.28464
-3.29818
-1.50317
2.25369
0.816012
1.67766
1.64365
1.94932
1.67066
1.66374
1.2233
0.948099
0.345716
-0.168841
-0.969258
-1.69517
-2.74288
-3.57378
-4.85633
-5.37605
-6.67643
-5.6246
-6.36467
-0.317657
1.40144
1.98775
1.92994
2.22673
1.94715
1.93546
1.48173
1.18277
0.561239
-5.6483e-05
-0.833187
-1.65437
-2.7726
-3.79804
-5.20837
-6.06307
-7.43312
-6.63381
-6.37771
0.873105
2.15561
2.58877
2.50378
2.74925
2.428
2.36204
1.87826
1.53902
0.901984
0.310074
-0.53841
-1.4099
-2.57945
-3.74161
-5.315
-6.52038
-8.33797
-8.21962
-9.57198
-1.75642
)
;

boundaryField
{
    cavity
    {
        type            implicitExtrapolation;
    }
    lid
    {
        type            implicitExtrapolation;
    }
    frontAndBack
    {
        type            empty;
    }
}


// ************************************************************************* //
