/*--------------------------------*- C++ -*----------------------------------*\
| =========                 |                                                 |
| \\      /  F ield         | foam-extend: Open Source CFD                    |
|  \\    /   O peration     | Version:  3.0                                   |
|   \\  /    A nd           | Web:         http://www.extend-project.de       |
|    \\/     M anipulation  |                                                 |
\*---------------------------------------------------------------------------*/
FoamFile
{
    version     2.0;
    format      ascii;
    class       volSymmTensorField;
    location    "8.9";
    object      sigma;
}
// * * * * * * * * * * * * * * * * * * * * * * * * * * * * * * * * * * * * * //

dimensions      [0 0 0 0 0 0 0];

internalField   nonuniform List<symmTensor> 
400
(
(1.33885 0.760155 3.63512e-316 -1.85222 3.94366e-316 0.513369)
(2.42396 0.0445604 3.57808e-316 -1.6083 4.07152e-316 -0.815662)
(2.88127 -0.857152 3.37634e-316 -1.46382 3.90663e-316 -1.41745)
(2.71934 -1.46312 3.13764e-316 -1.16933 3.61847e-316 -1.55002)
(2.50532 -2.1278 2.86523e-316 -1.0175 3.27094e-316 -1.48782)
(2.05327 -2.55611 2.60795e-316 -0.772628 2.93133e-316 -1.28064)
(1.66322 -2.95263 2.35511e-316 -0.627226 2.59102e-316 -1.036)
(1.16739 -3.20018 2.12651e-316 -0.420735 2.29481e-316 -0.746659)
(0.727546 -3.37776 1.91282e-316 -0.272978 2.0084e-316 -0.454568)
(0.220802 -3.45824 1.71961e-316 -0.0789564 1.7716e-316 -0.141846)
(-0.25534 -3.4509 1.5427e-316 0.0840589 1.54191e-316 0.171281)
(-0.783605 -3.36889 1.37908e-316 0.286128 1.35721e-316 0.497478)
(-1.28521 -3.18194 1.23032e-316 0.469252 1.17457e-316 0.815955)
(-1.81294 -2.93354 1.08559e-316 0.686142 1.02865e-316 1.1268)
(-2.26553 -2.55287 9.53061e-317 0.875091 8.8095e-317 1.39044)
(-2.68203 -2.14063 8.1306e-317 1.09481 7.59636e-317 1.58722)
(-2.87874 -1.54989 6.80843e-317 1.24931 6.34425e-317 1.62943)
(-2.89498 -0.998589 5.303e-317 1.43978 5.21987e-317 1.45519)
(-2.35977 -0.232026 3.82741e-317 1.50179 3.98872e-317 0.857978)
(-1.21554 0.407442 2.20286e-317 1.58199 2.54257e-317 -0.366445)
(0.81606 0.625496 2.4468e-316 -2.03694 2.94843e-316 1.22088)
(1.66577 0.211785 2.4784e-316 -1.95584 3.41613e-316 0.290078)
(1.97527 -0.318379 2.38508e-316 -1.74866 3.46747e-316 -0.226609)
(1.99415 -0.738915 2.25316e-316 -1.52969 3.30521e-316 -0.464466)
(1.84291 -1.1676 2.09318e-316 -1.30194 3.03442e-316 -0.540973)
(1.5762 -1.47034 1.93609e-316 -1.05979 2.73762e-316 -0.516414)
(1.28457 -1.73855 1.77971e-316 -0.8438 2.42783e-316 -0.440773)
(0.930244 -1.89858 1.63438e-316 -0.5986 2.14882e-316 -0.331644)
(0.590393 -2.01235 1.49663e-316 -0.381847 1.87978e-316 -0.208545)
(0.203582 -2.03747 1.36895e-316 -0.129913 1.65352e-316 -0.0736692)
(-0.164716 -2.01431 1.25002e-316 0.101538 1.43843e-316 0.0631787)
(-0.567283 -1.9205 1.13804e-316 0.365334 1.26417e-316 0.201949)
(-0.948365 -1.77896 1.03477e-316 0.616671 1.09756e-316 0.331694)
(-1.33188 -1.58945 9.3408e-317 0.885192 9.66014e-317 0.446688)
(-1.67097 -1.35133 8.41292e-317 1.14485 8.39441e-317 0.526122)
(-1.93558 -1.10179 7.44737e-317 1.38586 7.40601e-317 0.549729)
(-2.08934 -0.792878 6.52434e-317 1.61609 6.44928e-317 0.473248)
(-2.008 -0.532604 5.47514e-317 1.76344 5.63482e-317 0.244555)
(-1.65289 -0.190497 4.36652e-317 1.8825 4.70948e-317 -0.229608)
(-0.772907 0.0133728 3.06701e-317 1.83046 3.45333e-317 -1.05756)
(0.749593 1.3504 1.38403e-316 -2.16175 2.09397e-316 1.41215)
(1.34611 0.860999 1.49589e-316 -1.95592 2.83249e-316 0.609814)
(1.56168 0.38868 1.50224e-316 -1.72923 3.04622e-316 0.167552)
(1.52036 -0.0192569 1.47353e-316 -1.45774 2.97938e-316 -0.0626215)
(1.41471 -0.402519 1.41676e-316 -1.2441 2.7728e-316 -0.170606)
(1.21213 -0.675634 1.35267e-316 -1.0097 2.51669e-316 -0.202433)
(1.01846 -0.911516 1.28033e-316 -0.825705 2.24104e-316 -0.192756)
(0.771037 -1.04238 1.20755e-316 -0.615072 1.98449e-316 -0.155965)
(0.540555 -1.12749 1.13293e-316 -0.433519 1.73873e-316 -0.107037)
(0.26589 -1.12442 1.05959e-316 -0.2168 1.52699e-316 -0.0490899)
(-0.00283037 -1.07645 9.8762e-317 -0.00629157 1.32936e-316 0.00912194)
(-0.308086 -0.9624 9.17173e-317 0.241206 1.16484e-316 0.0668799)
(-0.618289 -0.815816 8.50435e-317 0.50348 1.01178e-316 0.114809)
(-0.937783 -0.632872 7.84644e-317 0.788703 8.87587e-317 0.14908)
(-1.25463 -0.438504 7.24362e-317 1.10061 7.73488e-317 0.154015)
(-1.50887 -0.244781 6.63551e-317 1.3928 6.85046e-317 0.116072)
(-1.70372 -0.0553002 6.08055e-317 1.69953 6.08668e-317 0.00419212)
(-1.68713 0.103306 5.47826e-317 1.90567 5.54744e-317 -0.218539)
(-1.44618 0.265048 4.84168e-317 2.06753 5.0436e-317 -0.62135)
(-0.714518 0.399708 3.94166e-317 2.02473 4.36264e-317 -1.31021)
(0.369693 1.55281 2.02872e-317 -1.38626 1.14826e-316 1.01656)
(0.806184 1.1267 4.25916e-317 -1.33812 2.15847e-316 0.53194)
(0.968068 0.702893 5.66924e-317 -1.19528 2.53012e-316 0.227215)
(1.01022 0.343594 6.62859e-317 -1.06164 2.56367e-316 0.0514227)
(0.956588 0.0179263 7.25724e-317 -0.914209 2.42915e-316 -0.0423798)
(0.865626 -0.205128 7.63274e-317 -0.782757 2.22631e-316 -0.0828692)
(0.755766 -0.388739 7.81102e-317 -0.66284 1.99458e-316 -0.0929258)
(0.620386 -0.470193 7.83176e-317 -0.537422 1.77195e-316 -0.0829637)
(0.486738 -0.515748 7.72773e-317 -0.422781 1.55648e-316 -0.0639571)
(0.320678 -0.467051 7.52858e-317 -0.281841 1.36792e-316 -0.0388369)
(0.153694 -0.394532 7.26186e-317 -0.139099 1.1921e-316 -0.0145948)
(-0.0515097 -0.242847 6.94628e-317 0.0440307 1.04382e-316 0.00747902)
(-0.267978 -0.0935983 6.6157e-317 0.248163 9.06565e-317 0.0198144)
(-0.509395 0.106118 6.27873e-317 0.490651 7.93875e-317 0.0187447)
(-0.765007 0.260789 5.98882e-317 0.773077 6.90983e-317 -0.00806978)
(-0.979602 0.41852 5.74725e-317 1.05128 6.1158e-317 -0.071682)
(-1.17598 0.4891 5.64598e-317 1.37142 5.4564e-317 -0.195436)
(-1.16527 0.502571 5.65208e-317 1.5708 5.09842e-317 -0.405522)
(-1.02208 0.435784 5.89306e-317 1.76467 5.0124e-317 -0.742593)
(-0.43777 0.265543 5.99346e-317 1.68056 5.43704e-317 -1.24279)
(0.345907 1.83809 -7.08205e-317 -1.1812 3.40078e-317 0.835295)
(0.642246 1.42183 -4.08047e-317 -1.07608 1.50545e-316 0.433831)
(0.755613 1.05179 -1.58176e-317 -0.956798 1.99001e-316 0.201184)
(0.764219 0.680667 4.01301e-318 -0.832825 2.11059e-316 0.0686063)
(0.753612 0.377097 1.97353e-317 -0.74888 2.04782e-316 -0.00473215)
(0.699744 0.144413 3.1498e-317 -0.659795 1.90295e-316 -0.0399483)
(0.666903 -0.0270081 4.00638e-317 -0.612819 1.72205e-316 -0.0540847)
(0.59974 -0.111659 4.59236e-317 -0.545846 1.53941e-316 -0.0538938)
(0.552179 -0.142942 4.9603e-317 -0.503876 1.35996e-316 -0.0483031)
(0.461701 -0.0886711 5.15677e-317 -0.42293 1.19794e-316 -0.0387702)
(0.371979 0.00622734 5.22274e-317 -0.339953 1.04618e-316 -0.0320262)
(0.226593 0.176782 5.18958e-317 -0.198159 9.13094e-317 -0.0284338)
(0.0546634 0.355878 5.09778e-317 -0.0186748 7.88528e-317 -0.0359885)
(-0.171219 0.590148 4.96333e-317 0.228493 6.78946e-317 -0.0572743)
(-0.444343 0.765961 4.84035e-317 0.549721 5.7465e-317 -0.105378)
(-0.71354 0.964571 4.7322e-317 0.903747 4.81539e-317 -0.190207)
(-1.00517 1.00347 4.72533e-317 1.34201 3.94607e-317 -0.336838)
(-1.10862 1.03027 4.79827e-317 1.68148 3.2517e-317 -0.572855)
(-1.08811 0.823187 5.06994e-317 2.03825 2.94016e-317 -0.950141)
(-0.538099 0.591758 5.37954e-317 2.08005 3.64076e-317 -1.54195)
(0.131011 2.01436 -1.49729e-316 -0.653511 -3.86536e-317 0.5225)
(0.285112 1.56459 -1.13996e-316 -0.563362 8.65493e-317 0.27825)
(0.375922 1.16317 -7.95448e-317 -0.503794 1.43207e-316 0.127872)
(0.408771 0.790893 -5.07226e-317 -0.449186 1.63298e-316 0.0404148)
(0.444244 0.478387 -2.66059e-317 -0.436425 1.64301e-316 -0.00781916)
(0.456557 0.25959 -7.83789e-318 -0.425247 1.56189e-316 -0.0313096)
(0.489014 0.0919299 6.69114e-318 -0.448085 1.43597e-316 -0.0409292)
(0.5021 0.0295908 1.73844e-317 -0.460317 1.29865e-316 -0.0417831)
(0.532412 0.0102255 2.50486e-317 -0.492669 1.15775e-316 -0.0397433)
(0.528419 0.0985935 3.01952e-317 -0.491877 1.02647e-316 -0.0365422)
(0.527905 0.217586 3.33666e-317 -0.490818 9.00952e-317 -0.0370872)
(0.463933 0.443192 3.49407e-317 -0.420984 7.88194e-317 -0.0429491)
(0.383085 0.664202 3.52996e-317 -0.322203 6.80914e-317 -0.0608816)
(0.207777 0.977636 3.46692e-317 -0.112288 5.83883e-317 -0.0954888)
(0.00335278 1.20393 3.3375e-317 0.156239 4.89368e-317 -0.159592)
(-0.286008 1.47933 3.15333e-317 0.552968 4.0148e-317 -0.26696)
(-0.566096 1.52879 2.95548e-317 1.0118 3.15751e-317 -0.445702)
(-0.78757 1.54601 2.75384e-317 1.51997 2.41033e-317 -0.732396)
(-0.82959 1.22289 2.62267e-317 2.0185 1.92395e-317 -1.18891)
(-0.447986 0.785116 2.64655e-317 2.3414 2.05498e-317 -1.89341)
(0.0866 2.10515 -1.88201e-316 -0.373953 -8.71012e-317 0.287353)
(0.142548 1.65769 -1.52811e-316 -0.270314 3.26179e-317 0.127766)
(0.2112 1.25656 -1.14948e-316 -0.253207 9.17182e-317 0.0420075)
(0.236964 0.874708 -8.2164e-317 -0.23302 1.17412e-316 -0.00394393)
(0.311947 0.557315 -5.4188e-317 -0.28451 1.24742e-316 -0.0274373)
(0.357691 0.321125 -3.19586e-317 -0.320398 1.22619e-316 -0.0372924)
(0.449507 0.145042 -1.44844e-317 -0.409073 1.15455e-316 -0.0404346)
(0.514308 0.0598663 -1.23749e-318 -0.475109 1.06263e-316 -0.0391991)
(0.614764 0.0348309 8.58906e-318 -0.576559 9.61116e-317 -0.0382047)
(0.672655 0.10258 1.56025e-317 -0.634843 8.61245e-317 -0.0378122)
(0.746535 0.231542 2.03616e-317 -0.703361 7.6287e-317 -0.0431736)
(0.740315 0.45429 2.3267e-317 -0.685296 6.70919e-317 -0.0550191)
(0.717409 0.718339 2.46961e-317 -0.63586 5.81574e-317 -0.0815493)
(0.563689 1.06872 2.48076e-317 -0.436545 4.9707e-317 -0.127143)
(0.357739 1.38225 2.38792e-317 -0.149599 4.1236e-317 -0.208141)
(0.00445585 1.75363 2.18438e-317 0.336109 3.27951e-317 -0.340565)
(-0.387006 1.91603 1.90034e-317 0.949068 2.40291e-317 -0.562063)
(-0.776467 2.0853 1.53478e-317 1.69839 1.51216e-317 -0.921922)
(-0.992009 1.8431 1.16001e-317 2.50729 7.33959e-318 -1.51528)
(-0.65119 1.58552 9.92021e-318 3.14261 3.90433e-318 -2.49142)
(-0.0623944 2.17389 -2.08062e-316 0.0899498 -1.18575e-316 -0.0275554)
(-0.11495 1.6706 -1.75499e-316 0.164441 -9.99114e-318 -0.0494911)
(-0.0780655 1.21808 -1.37343e-316 0.135322 4.78619e-317 -0.0572565)
(-0.0390597 0.83084 -1.03247e-316 0.0968316 7.7059e-317 -0.0577718)
(0.0561134 0.488981 -7.35048e-317 -0.00206939 8.93798e-317 -0.054044)
(0.144236 0.255991 -4.95067e-317 -0.0957072 9.24134e-317 -0.0485293)
(0.271025 0.0627896 -3.03251e-317 -0.228415 8.99979e-317 -0.0426106)
(0.391053 -0.0213811 -1.55749e-317 -0.353975 8.48942e-317 -0.0370779)
(0.541245 -0.058238 -4.42268e-318 -0.507458 7.82531e-317 -0.0337862)
(0.668238 0.0188183 3.68483e-318 -0.634748 7.11687e-317 -0.0334901)
(0.813551 0.15472 9.29999e-318 -0.773937 6.38303e-317 -0.0396135)
(0.886553 0.419036 1.27993e-317 -0.832157 5.67268e-317 -0.0543964)
(0.957922 0.732988 1.44766e-317 -0.87297 4.9683e-317 -0.0849513)
(0.869325 1.1866 1.4482e-317 -0.730786 4.29147e-317 -0.138539)
(0.764155 1.61425 1.28653e-317 -0.53213 3.60851e-317 -0.232025)
(0.404379 2.16028 9.58793e-318 -0.0166291 2.91792e-317 -0.38775)
(0.0777266 2.48198 4.46834e-318 0.572148 2.17722e-317 -0.649874)
(-0.458494 2.83032 -2.30524e-318 1.54286 1.34428e-317 -1.08437)
(-0.689713 2.68125 -1.07952e-317 2.49901 3.74033e-318 -1.8093)
(-0.571931 2.41127 -1.76068e-317 3.56956 -9.0841e-318 -2.99763)
(-0.143474 2.12002 -1.95913e-316 0.486138 -1.28259e-316 -0.342664)
(-0.262778 1.63079 -1.70354e-316 0.496684 -3.91941e-317 -0.233906)
(-0.240339 1.17372 -1.3702e-316 0.402101 1.32433e-317 -0.161762)
(-0.189524 0.788785 -1.06003e-316 0.304646 4.3277e-317 -0.115122)
(-0.0732637 0.439742 -7.8392e-317 0.157158 5.88814e-317 -0.0838944)
(0.0406193 0.190143 -5.56082e-317 0.0219527 6.58632e-317 -0.062572)
(0.199702 -0.0214703 -3.71582e-317 -0.151895 6.73825e-317 -0.0478068)
(0.354491 -0.141812 -2.2678e-317 -0.317135 6.57944e-317 -0.0373556)
(0.553233 -0.203764 -1.15385e-317 -0.52144 6.22774e-317 -0.0317927)
(0.730252 -0.174964 -3.22257e-318 -0.699768 5.78376e-317 -0.0304834)
(0.945643 -0.0536356 2.73791e-318 -0.908505 5.28401e-317 -0.0371371)
(1.08304 0.167839 6.68112e-318 -1.02992 4.77461e-317 -0.053117)
(1.23647 0.510613 8.88116e-318 -1.14943 4.25792e-317 -0.0870366)
(1.20249 0.961285 9.43809e-318 -1.05667 3.75346e-317 -0.145816)
(1.14641 1.50962 8.42624e-318 -0.896415 3.24645e-317 -0.249997)
(0.764904 2.14996 5.71292e-318 -0.340851 2.72894e-317 -0.424054)
(0.361889 2.72727 1.12845e-318 0.360703 2.16227e-317 -0.722591)
(-0.356555 3.34438 -5.31494e-318 1.58236 1.46145e-317 -1.22581)
(-0.821735 3.57068 -1.38919e-317 2.91472 4.83228e-318 -2.09299)
(-0.842067 3.82262 -2.18491e-317 4.43978 -1.10988e-317 -3.59771)
(-0.256625 2.01104 -1.76384e-316 0.935585 -1.25627e-316 -0.67896)
(-0.458368 1.50858 -1.57671e-316 0.880457 -5.54909e-317 -0.422088)
(-0.482507 1.03764 -1.30124e-316 0.747764 -1.02119e-317 -0.265256)
(-0.421629 0.671216 -1.03251e-316 0.592274 1.86634e-317 -0.170645)
(-0.31389 0.314743 -7.86022e-317 0.425665 3.57155e-317 -0.111775)
(-0.178007 0.0682257 -5.78157e-317 0.252923 4.51298e-317 -0.0749156)
(-0.0176856 -0.163504 -4.0642e-317 0.0684572 4.9319e-317 -0.0507717)
(0.166072 -0.300477 -2.69607e-317 -0.131015 5.02544e-317 -0.0350574)
(0.377795 -0.391593 -1.62595e-317 -0.352086 4.90396e-317 -0.025709)
(0.600547 -0.384486 -8.16252e-318 -0.578264 4.66138e-317 -0.022283)
(0.851723 -0.283352 -2.27624e-318 -0.824929 4.34267e-317 -0.0267941)
(1.06093 -0.0584232 1.68088e-318 -1.01904 3.99481e-317 -0.0418965)
(1.28703 0.310302 3.91227e-318 -1.21227 3.63264e-317 -0.0747573)
(1.34514 0.842742 4.54688e-318 -1.21042 3.27985e-317 -0.134721)
(1.40531 1.52246 3.55678e-318 -1.16379 2.93547e-317 -0.241527)
(1.08793 2.39 9.6493e-319 -0.663248 2.59844e-317 -0.424679)
(0.825518 3.252 -3.58584e-318 -0.0837382 2.23351e-317 -0.74178)
(0.0417118 4.24442 -9.86709e-318 1.24441 1.74725e-317 -1.28612)
(-0.323859 4.82236 -1.85881e-317 2.55337 8.90928e-318 -2.22951)
(-0.590199 5.32416 -2.78564e-317 4.42465 -9.33956e-318 -3.83445)
(-0.361972 1.82295 -1.41674e-316 1.37416 -1.1245e-316 -1.01219)
(-0.592668 1.37016 -1.31238e-316 1.19349 -6.31953e-317 -0.60082)
(-0.633423 0.932042 -1.11842e-316 0.994171 -2.63367e-317 -0.360747)
(-0.554226 0.58433 -9.11175e-317 0.77486 -1.01209e-319 -0.220635)
(-0.451058 0.238545 -7.133e-317 0.587723 1.71861e-317 -0.136665)
(-0.304585 -0.0191306 -5.39853e-317 0.390443 2.80195e-317 -0.0858577)
(-0.142355 -0.266532 -3.93233e-317 0.196204 3.41067e-317 -0.0538482)
(0.0537645 -0.441316 -2.73193e-317 -0.0204259 3.6982e-317 -0.0333386)
(0.284752 -0.567254 -1.77222e-317 -0.263774 3.76346e-317 -0.0209777)
(0.535338 -0.621864 -1.02537e-317 -0.520308 3.69083e-317 -0.0150297)
(0.836123 -0.560355 -4.63509e-318 -0.818527 3.52965e-317 -0.017596)
(1.10173 -0.413606 -6.34267e-319 -1.07139 3.32598e-317 -0.0303398)
(1.41723 -0.0544757 1.94821e-318 -1.35598 3.10296e-317 -0.0612563)
(1.55931 0.411077 3.23961e-318 -1.44079 2.88598e-317 -0.118529)
(1.7266 1.18665 3.33586e-318 -1.50303 2.68344e-317 -0.223578)
(1.46412 2.0709 2.2849e-318 -1.05921 2.49833e-317 -0.404911)
(1.21522 3.2507 1.28704e-320 -0.49041 2.30322e-317 -0.724805)
(0.297032 4.49643 -3.38016e-318 0.984977 2.01513e-317 -1.28201)
(-0.333233 5.68668 -8.30156e-318 2.61373 1.38618e-317 -2.28049)
(-0.918777 6.95069 -1.46976e-317 5.0254 -7.91972e-319 -4.10662)
(-0.43214 1.53156 -1.13379e-316 1.71909 -9.34255e-317 -1.28695)
(-0.735895 1.14004 -1.08067e-316 1.48599 -5.99665e-317 -0.7501)
(-0.828854 0.756125 -9.4619e-317 1.26715 -3.17065e-317 -0.4383)
(-0.752206 0.456366 -7.89287e-317 1.01166 -9.55142e-318 -0.259451)
(-0.673008 0.134154 -6.32142e-317 0.827514 6.31941e-318 -0.154506)
(-0.523876 -0.116635 -4.90242e-317 0.616345 1.70681e-317 -0.0924686)
(-0.382883 -0.373843 -3.66717e-317 0.43668 2.37545e-317 -0.0537969)
(-0.18312 -0.571907 -2.63473e-317 0.212426 2.74986e-317 -0.0293063)
(0.0262557 -0.729708 -1.79012e-317 -0.0127212 2.91282e-317 -0.0135345)
(0.291295 -0.825535 -1.12008e-317 -0.28648 2.93693e-317 -0.00481543)
(0.578501 -0.805014 -6.04934e-318 -0.574777 2.87016e-317 -0.00372433)
(0.889691 -0.696362 -2.27492e-318 -0.876949 2.75553e-317 -0.0127416)
(1.22139 -0.354386 2.69295e-319 -1.18345 2.61916e-317 -0.0379407)
(1.46484 0.133232 1.74796e-318 -1.37619 2.48689e-317 -0.0886436)
(1.71184 0.996791 2.22568e-318 -1.5288 2.37196e-317 -0.183033)
(1.60517 2.08185 1.92784e-318 -1.25467 2.28326e-317 -0.350507)
(1.53612 3.58402 7.91967e-319 -0.888699 2.1994e-317 -0.64742)
(0.746615 5.33271 -8.64738e-319 0.424869 2.06632e-317 -1.17148)
(0.381334 7.09477 -3.36137e-318 1.72527 1.65709e-317 -2.10661)
(-0.326123 8.88964 -7.71495e-318 4.06233 5.47018e-318 -3.73621)
(-0.534057 1.27623 -8.43855e-317 2.06303 -7.85162e-317 -1.52897)
(-0.822191 0.951711 -8.3434e-317 1.68653 -5.92234e-317 -0.864344)
(-0.937576 0.633713 -7.55748e-317 1.43042 -3.76179e-317 -0.492845)
(-0.847915 0.360901 -6.4735e-317 1.13258 -1.85894e-317 -0.284664)
(-0.792936 0.0666813 -5.32539e-317 0.958004 -3.71811e-318 -0.165067)
(-0.649041 -0.184773 -4.23579e-317 0.744578 7.04507e-318 -0.0955374)
(-0.527062 -0.445326 -3.25582e-317 0.579866 1.42687e-317 -0.0528046)
(-0.336243 -0.665194 -2.4071e-317 0.361849 1.87829e-317 -0.0256058)
(-0.136069 -0.850663 -1.69236e-317 0.143709 2.12841e-317 -0.00764005)
(0.126579 -0.995123 -1.10623e-317 -0.130246 2.24187e-317 0.00366749)
(0.427387 -1.02472 -6.38335e-318 -0.435193 2.26402e-317 0.00780584)
(0.763829 -1.0013 -2.76001e-318 -0.767118 2.23477e-317 0.00328868)
(1.16016 -0.714414 -4.50242e-320 -1.14422 2.18012e-317 -0.0159373)
(1.48562 -0.347031 1.9237e-318 -1.42845 2.12405e-317 -0.0571737)
(1.87141 0.526835 3.33351e-318 -1.73392 2.07935e-317 -0.137491)
(1.89122 1.4964 4.40052e-318 -1.6103 2.05455e-317 -0.280923)
(1.95993 3.23676 5.37762e-318 -1.42153 2.03218e-317 -0.538397)
(1.1341 5.02074 6.40278e-318 -0.138456 1.97874e-317 -0.99564)
(0.548013 7.434 7.69091e-318 1.29277 1.74862e-317 -1.84078)
(-0.754694 9.88944 7.16603e-318 4.24754 1.17159e-317 -3.49285)
(-0.555443 0.876439 -6.51415e-317 2.20619 -5.59571e-317 -1.65074)
(-0.918866 0.676318 -6.45047e-317 1.84189 -4.62437e-317 -0.923023)
(-1.07279 0.475735 -5.88649e-317 1.58979 -3.19514e-317 -0.517)
(-1.0012 0.265039 -5.14754e-317 1.29408 -1.762e-317 -0.29288)
(-0.963923 0.0231485 -4.32976e-317 1.13015 -5.44036e-318 -0.166223)
(-0.828129 -0.215634 -3.53054e-317 0.921795 3.79093e-318 -0.0936662)
(-0.731383 -0.464914 -2.77653e-317 0.780594 1.02303e-317 -0.049211)
(-0.554242 -0.69728 -2.10013e-317 0.57506 1.44057e-317 -0.020818)
(-0.397779 -0.89673 -1.50982e-317 0.398879 1.68556e-317 -0.00110055)
(-0.152975 -1.07601 -1.01174e-317 0.140645 1.80998e-317 0.0123294)
(0.0868014 -1.14506 -6.03081e-318 -0.106888 1.85267e-317 0.0200862)
(0.424411 -1.17876 -2.76991e-318 -0.44472 1.84714e-317 0.0203087)
(0.759834 -0.946937 -2.41213e-319 -0.76882 1.81671e-317 0.00898587)
(1.15807 -0.626622 1.71929e-318 -1.13701 1.78163e-317 -0.0210572)
(1.52528 0.242004 3.24391e-318 -1.44342 1.75309e-317 -0.0818611)
(1.76554 1.30205 4.62265e-318 -1.57168 1.73926e-317 -0.193861)
(1.94543 3.26773 6.04087e-318 -1.55316 1.72541e-317 -0.392267)
(1.52867 5.54499 7.75496e-318 -0.787172 1.69892e-317 -0.741497)
(1.32113 8.61586 9.98335e-318 0.038184 1.57603e-317 -1.35931)
(0.322712 11.8968 1.07788e-317 2.08367 1.30873e-317 -2.40638)
(-0.619259 0.653094 -4.96403e-317 2.32791 -5.62063e-317 -1.70865)
(-0.918954 0.489105 -4.93956e-317 1.84687 -5.15073e-317 -0.92792)
(-1.096 0.343792 -4.54373e-317 1.60548 -3.83938e-317 -0.509473)
(-1.02191 0.153715 -4.0648e-317 1.30581 -2.41604e-317 -0.283901)
(-1.01268 -0.0609558 -3.51211e-317 1.17138 -1.21756e-317 -0.158704)
(-0.892012 -0.284194 -2.94218e-317 0.979872 -2.96427e-318 -0.0878597)
(-0.81888 -0.521109 -2.37573e-317 0.86352 3.52934e-318 -0.0446396)
(-0.66442 -0.744282 -1.84188e-317 0.681108 7.93317e-318 -0.0166884)
(-0.534689 -0.949035 -1.35819e-317 0.531341 1.07376e-317 0.00334822)
(-0.320384 -1.14064 -9.35001e-318 0.302221 1.2439e-317 0.0181625)
(-0.104184 -1.24844 -5.75225e-318 0.075772 1.33803e-317 0.028412)
(0.212455 -1.33948 -2.74971e-318 -0.245487 1.38536e-317 0.0330324)
(0.561283 -1.19315 -2.52463e-319 -0.589828 1.40531e-317 0.0285445)
(0.993559 -1.00419 1.88036e-318 -1.00354 1.414e-317 0.0099806)
(1.47795 -0.245174 3.84483e-318 -1.44603 1.41848e-317 -0.031925)
(1.85359 0.577498 5.84068e-318 -1.74372 1.42282e-317 -0.10987)
(2.2841 2.54049 8.2055e-318 -2.03855 1.41396e-317 -0.245544)
(1.91857 4.46582 1.09355e-317 -1.44472 1.38382e-317 -0.473853)
(1.67821 7.89948 1.44927e-317 -0.800801 1.31932e-317 -0.877405)
(-0.327091 11.1382 1.70317e-317 2.07638 1.3246e-317 -1.74929)
(-0.600466 0.256595 -2.6972e-317 2.21949 -2.75212e-317 -1.61903)
(-0.979674 0.240844 -2.82852e-317 1.84653 -3.12961e-317 -0.86686)
(-1.15456 0.254185 -2.76559e-317 1.62302 -2.47484e-317 -0.468455)
(-1.10195 0.120044 -2.69195e-317 1.35965 -1.53399e-317 -0.257698)
(-1.08498 -0.0172384 -2.49655e-317 1.22746 -6.72818e-318 -0.142482)
(-0.96837 -0.218826 -2.20168e-317 1.04636 2.67833e-320 -0.077987)
(-0.911331 -0.412668 -1.8424e-317 0.949823 4.857e-318 -0.0384921)
(-0.775539 -0.622551 -1.46079e-317 0.788169 8.12561e-318 -0.0126303)
(-0.696362 -0.804398 -1.09012e-317 0.68958 1.01907e-317 0.00678167)
(-0.522407 -0.997437 -7.50711e-318 0.500437 1.14008e-317 0.0219697)
(-0.39589 -1.11356 -4.53557e-318 0.361721 1.20145e-317 0.0341696)
(-0.125362 -1.23831 -1.99852e-318 0.0831513 1.22461e-317 0.0422107)
(0.0959234 -1.15053 1.37909e-319 -0.140162 1.22473e-317 0.0442385)
(0.534766 -1.03742 1.99057e-318 -0.570738 1.21361e-317 0.0359722)
(0.87119 -0.381197 3.66754e-318 -0.883964 1.19643e-317 0.0127739)
(1.4566 0.3887 5.3677e-318 -1.42346 1.17534e-317 -0.0331401)
(1.78981 2.34325 7.23459e-318 -1.68457 1.13938e-317 -0.105235)
(2.13263 4.57717 9.33231e-318 -1.92791 1.08613e-317 -0.204714)
(2.14348 8.5138 1.17986e-317 -1.84641 1.0301e-317 -0.297068)
(1.36613 12.9704 1.36486e-317 -1.16535 1.08222e-317 -0.200778)
(-0.579662 0.151214 -1.6487e-317 2.019 -4.88669e-317 -1.43934)
(-0.837335 0.0838012 -1.93269e-317 1.58503 -4.66724e-317 -0.747698)
(-1.02225 0.0718244 -2.01839e-317 1.41961 -3.5413e-317 -0.397352)
(-0.977764 -0.0556991 -2.08414e-317 1.1943 -2.27099e-317 -0.216539)
(-0.980534 -0.196341 -2.00403e-317 1.09965 -1.3519e-317 -0.119115)
(-0.887254 -0.360096 -1.81617e-317 0.952269 -6.665e-318 -0.0650144)
(-0.847048 -0.534952 -1.55295e-317 0.878719 -2.00112e-318 -0.0316714)
(-0.741545 -0.702281 -1.25674e-317 0.75096 1.26426e-318 -0.00941545)
(-0.688423 -0.867592 -9.59495e-318 0.680477 3.47725e-318 0.00794579)
(-0.559665 -1.03413 -6.80562e-318 0.537321 4.99189e-318 0.0223446)
(-0.470478 -1.16519 -4.30576e-318 0.435565 6.00918e-318 0.0349125)
(-0.259506 -1.30481 -2.10843e-318 0.214541 6.69527e-318 0.0449648)
(-0.0683492 -1.30401 -1.73837e-319 0.0171343 7.15163e-318 0.051215)
(0.320489 -1.29299 1.58808e-318 -0.371469 7.45477e-318 0.0509805)
(0.70479 -0.849717 3.31196e-318 -0.746669 7.62611e-318 0.0418786)
(1.30709 -0.367022 5.08425e-318 -1.32872 7.66479e-318 0.0216247)
(1.9222 1.23347 7.09394e-318 -1.92009 7.50674e-318 -0.00211124)
(2.23538 2.72228 9.16012e-318 -2.23253 7.11797e-318 -0.00285239)
(2.62606 6.32052 1.14378e-317 -2.72855 6.89219e-318 0.102493)
(0.210286 9.21181 1.33441e-317 -0.552553 8.1781e-318 0.342267)
(-0.52571 -0.160067 2.46594e-317 1.64654 1.925e-318 -1.12083)
(-0.872495 -0.0765613 1.19616e-317 1.44483 -1.24771e-317 -0.572336)
(-0.982973 0.10608 3.70549e-321 1.28377 -1.12664e-317 -0.300797)
(-0.942129 0.0259654 -6.75138e-318 1.10545 -6.41167e-318 -0.163316)
(-0.909122 0.00794973 -1.0327e-317 0.999037 -1.73866e-318 -0.089915)
(-0.803746 -0.122149 -1.09084e-317 0.853114 1.91935e-318 -0.049368)
(-0.773346 -0.205191 -1.00547e-317 0.797326 4.6176e-318 -0.0239801)
(-0.68065 -0.331623 -8.32962e-318 0.687339 6.49931e-318 -0.00668929)
(-0.675572 -0.423292 -6.344e-318 0.668113 7.75736e-318 0.0074592)
(-0.590322 -0.542771 -4.34635e-318 0.570613 8.53721e-318 0.0197086)
(-0.592986 -0.622885 -2.51371e-318 0.561748 8.96447e-318 0.0312383)
(-0.453562 -0.721707 -8.87831e-319 0.412165 9.13757e-318 0.0413973)
(-0.417666 -0.722717 5.25631e-319 0.367868 9.12883e-318 0.0497984)
(-0.096683 -0.712548 1.79304e-318 0.0422817 8.99332e-318 0.0544013)
(0.0382574 -0.393004 2.96861e-318 -0.0933512 8.74574e-318 0.0550938)
(0.742633 0.000909986 4.14621e-318 -0.794268 8.38588e-318 0.0516351)
(0.971155 1.30778 5.32952e-318 -1.03045 7.85509e-318 0.0592974)
(2.17754 2.81138 6.44481e-318 -2.29924 7.12402e-318 0.121701)
(2.21593 6.36459 7.28711e-318 -2.63754 6.49468e-318 0.421618)
(2.68302 11.0767 7.91573e-318 -4.33773 6.57867e-318 1.6547)
(-0.332974 -0.0983105 8.52912e-318 1.04598 -4.11417e-317 -0.713007)
(-0.453224 -0.205284 9.08033e-319 0.810427 -3.21554e-317 -0.357202)
(-0.561902 -0.230222 -5.02222e-318 0.748566 -2.30156e-317 -0.186664)
(-0.544583 -0.307621 -8.10447e-318 0.646281 -1.45067e-317 -0.101699)
(-0.537177 -0.410785 -9.0499e-318 0.59363 -1.00451e-317 -0.0564534)
(-0.484281 -0.479833 -8.77502e-318 0.515789 -6.9533e-318 -0.0315084)
(-0.464469 -0.577164 -7.77745e-318 0.479966 -5.01422e-318 -0.0154976)
(-0.415423 -0.645481 -6.45531e-318 0.41975 -3.58308e-318 -0.00432782)
(-0.410216 -0.734469 -5.04146e-318 0.404953 -2.53179e-318 0.00526315)
(-0.366132 -0.818926 -3.67198e-318 0.352217 -1.70251e-318 0.0139149)
(-0.365757 -0.911504 -2.41596e-318 0.343262 -1.04496e-318 0.022495)
(-0.290133 -1.01879 -1.28458e-318 0.259526 -5.11625e-319 0.0306063)
(-0.255835 -1.0944 -2.60531e-319 0.217656 -8.44655e-320 0.038179)
(-0.0656108 -1.18502 6.96455e-319 0.0215613 2.5269e-319 0.0440494)
(0.0816225 -1.11189 1.65333e-318 -0.1303 5.04891e-319 0.048678)
(0.513203 -1.02737 2.60948e-318 -0.565792 6.74523e-319 0.052589)
(0.935811 -0.366319 3.61427e-318 -1.00482 7.82407e-319 0.0690103)
(1.4996 0.196597 4.46258e-318 -1.63412 8.50079e-319 0.134516)
(2.47374 2.36492 5.01756e-318 -2.86416 1.09938e-318 0.390422)
(0.216507 3.18907 5.46402e-318 -1.30823 2.18616e-318 1.09173)
(-0.173552 -0.411638 4.79927e-317 0.406593 3.34823e-317 -0.233041)
(-0.458364 -0.244183 2.97608e-317 0.579108 8.00079e-318 -0.120744)
(-0.403565 0.0469366 1.09857e-317 0.467298 3.12345e-318 -0.0637334)
(-0.360862 0.0448176 3.58348e-318 0.396205 2.0355e-318 -0.0353429)
(-0.314394 0.196618 -6.92013e-319 0.334424 3.53041e-318 -0.0200304)
(-0.234951 0.165764 -1.89942e-318 0.24654 5.10465e-318 -0.0115893)
(-0.234973 0.251885 -2.19537e-318 0.240872 6.72436e-318 -0.0058999)
(-0.188306 0.2357 -1.84512e-318 0.190133 8.00589e-318 -0.0018261)
(-0.227762 0.296051 -1.33909e-318 0.225855 9.00042e-318 0.00190717)
(-0.210281 0.311655 -7.71992e-319 0.204887 9.67944e-318 0.00539393)
(-0.284635 0.364825 -2.53866e-319 0.275598 1.00975e-317 0.00903693)
(-0.26732 0.432825 2.02157e-319 0.254663 1.02883e-317 0.0126575)
(-0.372628 0.495704 5.82162e-319 0.356294 1.02868e-317 0.016334)
(-0.28163 0.656908 9.13819e-319 0.262006 1.01252e-317 0.0196232)
(-0.407498 0.765534 1.20778e-318 0.384609 9.80373e-318 0.0228892)
(-0.0228852 1.09588 1.50931e-318 -0.00328203 9.327e-318 0.0261672)
(-0.176443 1.36445 1.7874e-318 0.141341 8.68524e-318 0.0351015)
(1.15086 2.00922 1.98612e-318 -1.21669 7.88295e-318 0.0658323)
(0.70814 2.92272 1.90155e-318 -0.928613 7.0966e-318 0.220473)
(3.48907 6.00226 1.75799e-318 -4.72492 6.18614e-318 1.23585)
)
;

boundaryField
{
    cavity
    {
        type            mySigma;
    }
    lid
    {
        type            fixedValue;
        value           uniform (0.1 -0.3 0 -0.1 0 0);
    }
    frontAndBack
    {
        type            empty;
    }
}


// ************************************************************************* //
