/*--------------------------------*- C++ -*----------------------------------*\
| =========                 |                                                 |
| \\      /  F ield         | foam-extend: Open Source CFD                    |
|  \\    /   O peration     | Version:  3.0                                   |
|   \\  /    A nd           | Web:         http://www.extend-project.de       |
|    \\/     M anipulation  |                                                 |
\*---------------------------------------------------------------------------*/
FoamFile
{
    version     2.0;
    format      ascii;
    class       volScalarField;
    location    "8.9";
    object      Theta;
}
// * * * * * * * * * * * * * * * * * * * * * * * * * * * * * * * * * * * * * //

dimensions      [0 0 0 0 0 0 0];

internalField   nonuniform List<scalar> 
400
(
0.504636
-0.339395
-0.387633
-0.520709
-0.374356
-0.323393
-0.16142
-0.0706322
0.0734574
0.169655
0.303311
0.396116
0.528725
0.60279
0.726786
0.736937
0.805378
0.628518
0.498751
-0.24213
1.66833
0.980793
0.818933
0.545592
0.52987
0.40197
0.404356
0.324655
0.316194
0.248299
0.227472
0.153003
0.123413
0.0255901
-0.0131843
-0.163537
-0.233186
-0.507912
-0.701567
-1.28961
1.28895
0.647758
0.557746
0.353663
0.368151
0.2919
0.313324
0.273303
0.285529
0.25392
0.260982
0.226652
0.233973
0.18337
0.187566
0.0882803
0.0610667
-0.168014
-0.317981
-0.883725
1.28068
0.901879
0.773921
0.601575
0.563676
0.467058
0.443476
0.371789
0.34667
0.283974
0.260581
0.200271
0.18385
0.11547
0.101322
-0.00339504
-0.0493967
-0.255928
-0.426759
-0.835654
0.905552
0.583759
0.528492
0.403605
0.401165
0.340473
0.343228
0.30504
0.309175
0.282901
0.297716
0.280557
0.315532
0.297306
0.349243
0.292696
0.321996
0.13278
0.0229663
-0.479962
0.764884
0.604852
0.549972
0.466615
0.445049
0.388525
0.37212
0.327567
0.31753
0.285513
0.294002
0.278362
0.318472
0.314412
0.386287
0.358054
0.418831
0.258099
0.165939
-0.357081
0.512381
0.422318
0.410381
0.361273
0.353062
0.31465
0.305979
0.276274
0.277866
0.263562
0.293534
0.303319
0.382617
0.415188
0.554033
0.56767
0.726596
0.569388
0.563683
-0.169804
0.35773
0.393638
0.391405
0.377599
0.356718
0.322835
0.297873
0.262522
0.24921
0.228048
0.247462
0.256445
0.334647
0.381586
0.536249
0.586657
0.780426
0.664274
0.679567
-0.118505
0.177235
0.309736
0.322299
0.337025
0.30893
0.282051
0.248076
0.213042
0.193308
0.171254
0.190625
0.202947
0.297416
0.359694
0.566717
0.648131
0.954922
0.84967
1.01795
-0.0178839
0.026713
0.2706
0.296405
0.338785
0.299724
0.273678
0.22229
0.176936
0.135587
0.0974088
0.0912156
0.0877282
0.155306
0.214534
0.399469
0.510811
0.804324
0.772801
0.91342
-0.0552819
-0.102636
0.246644
0.264341
0.331162
0.273935
0.249946
0.180872
0.126797
0.0659395
0.0109153
-0.0165887
-0.0412975
0.0120652
0.0553631
0.260454
0.377844
0.782756
0.779638
1.1829
0.0626789
-0.228817
0.201665
0.239284
0.325153
0.263443
0.238264
0.153941
0.0859239
-0.00160728
-0.0825607
-0.151423
-0.210958
-0.216993
-0.204374
-0.0793831
0.0470134
0.345551
0.45902
0.711835
-0.0507883
-0.298113
0.212476
0.227873
0.333572
0.254316
0.231224
0.129053
0.0485093
-0.0648821
-0.173872
-0.280311
-0.383609
-0.43459
-0.475088
-0.373906
-0.284133
0.103595
0.253765
0.911454
0.182931
-0.369617
0.174622
0.216926
0.33333
0.259366
0.235466
0.123209
0.0278538
-0.112943
-0.253783
-0.410781
-0.564277
-0.699892
-0.800213
-0.835417
-0.770181
-0.603125
-0.305769
-0.00851884
0.00669082
-0.353431
0.214482
0.231689
0.36248
0.279324
0.259539
0.134037
0.0258999
-0.140863
-0.314314
-0.515939
-0.727355
-0.929379
-1.1164
-1.21989
-1.24829
-1.03786
-0.730198
0.111304
0.392313
-0.330906
0.219599
0.264552
0.398933
0.327249
0.30673
0.175211
0.0530004
-0.137736
-0.342805
-0.593033
-0.859855
-1.15257
-1.42056
-1.6904
-1.78789
-1.89146
-1.45783
-1.25427
0.129921
-0.193033
0.305187
0.331443
0.473776
0.40081
0.383912
0.242808
0.108558
-0.10396
-0.33883
-0.629438
-0.954277
-1.31762
-1.68978
-2.05985
-2.30926
-2.44423
-2.08497
-1.29956
0.525341
-0.0263932
0.41442
0.45845
0.595868
0.528508
0.504718
0.356385
0.207583
-0.0218992
-0.281703
-0.605361
-0.976448
-1.40928
-1.86655
-2.38484
-2.75683
-3.21899
-2.87421
-2.96425
0.0412426
0.260523
0.580007
0.615268
0.751719
0.680846
0.652495
0.493108
0.331541
0.0868774
-0.193784
-0.542926
-0.956416
-1.44287
-1.9946
-2.61801
-3.17562
-3.76743
-3.63618
-3.43205
-0.0164116
0.632176
0.891377
0.916111
1.02615
0.934878
0.87669
0.704106
0.521044
0.273274
-0.0226288
-0.37087
-0.808913
-1.30676
-1.92839
-2.61006
-3.35578
-4.12783
-4.38583
-4.86468
-1.24259
)
;

boundaryField
{
    cavity
    {
        type            implicitExtrapolation;
    }
    lid
    {
        type            implicitExtrapolation;
    }
    frontAndBack
    {
        type            empty;
    }
}


// ************************************************************************* //
