/*--------------------------------*- C++ -*----------------------------------*\
| =========                 |                                                 |
| \\      /  F ield         | foam-extend: Open Source CFD                    |
|  \\    /   O peration     | Version:  3.0                                   |
|   \\  /    A nd           | Web:         http://www.extend-project.de       |
|    \\/     M anipulation  |                                                 |
\*---------------------------------------------------------------------------*/
FoamFile
{
    version     2.0;
    format      ascii;
    class       volVectorField;
    location    "8.9";
    object      u;
}
// * * * * * * * * * * * * * * * * * * * * * * * * * * * * * * * * * * * * * //

dimensions      [0 0 0 0 0 0 0];

internalField   nonuniform List<vector> 
400
(
(-4.48924 11.5814 4.40632e-315)
(-3.53746 7.78538 3.9351e-315)
(-9.97556 8.43484 3.50697e-315)
(-9.54662 4.98137 3.16608e-315)
(-13.4969 5.68742 2.79248e-315)
(-13.5474 3.50404 2.54959e-315)
(-15.7333 3.97292 2.22329e-315)
(-15.9798 2.5968 2.05118e-315)
(-16.9096 2.93116 1.76731e-315)
(-17.1147 1.86769 1.64639e-315)
(-17.0371 2.09169 1.40157e-315)
(-16.9973 0.983172 1.31719e-315)
(-15.9629 1.10209 1.10976e-315)
(-15.5284 -0.307866 1.04969e-315)
(-13.4477 -0.180123 8.80948e-316)
(-12.623 -2.11025 8.34785e-316)
(-9.2987 -1.70528 7.09519e-316)
(-8.39488 -4.31283 6.72514e-316)
(-3.55939 -3.6769 5.98467e-316)
(-3.0788 -6.2621 5.81819e-316)
(-0.918292 1.81995 3.22834e-315)
(-2.34026 1.47583 2.9175e-315)
(-4.1525 1.6849 2.63586e-315)
(-4.82326 0.998181 2.41311e-315)
(-6.56622 1.05256 2.16837e-315)
(-6.88278 0.304726 2.00267e-315)
(-8.17193 0.13086 1.78824e-315)
(-8.32497 -0.566273 1.66077e-315)
(-8.97869 -0.987465 1.47152e-315)
(-8.99546 -1.5803 1.37156e-315)
(-8.98304 -2.21992 1.20498e-315)
(-8.82853 -2.68891 1.1254e-315)
(-8.20707 -3.46958 9.80812e-316)
(-7.82191 -3.79727 9.15363e-316)
(-6.73366 -4.57909 7.93415e-316)
(-6.0178 -4.72756 7.35946e-316)
(-4.73316 -5.26674 6.38348e-316)
(-3.49864 -5.18422 5.85945e-316)
(-2.41171 -5.10519 5.15628e-316)
(-0.450248 -4.66395 4.79664e-316)
(-2.17802 15.6599 2.57975e-315)
(-2.82861 12.1308 2.33835e-315)
(-5.57038 11.6335 2.12725e-315)
(-5.88396 8.28876 1.95798e-315)
(-7.54163 8.41049 1.77009e-315)
(-7.85804 5.66634 1.63857e-315)
(-8.78148 5.83776 1.46923e-315)
(-9.16264 3.58099 1.36354e-315)
(-9.5225 3.6559 1.21092e-315)
(-9.91913 1.65328 1.12513e-315)
(-9.78527 1.56146 9.88708e-316)
(-10.0554 -0.390268 9.18343e-316)
(-9.45939 -0.677891 7.98133e-316)
(-9.37027 -2.69073 7.39016e-316)
(-8.35761 -3.1209 6.35663e-316)
(-7.61947 -5.2039 5.84297e-316)
(-6.29562 -5.63875 4.99103e-316)
(-4.6737 -7.74285 4.54948e-316)
(-3.20914 -8.21828 3.8993e-316)
(-0.755321 -10.2609 3.56477e-316)
(0.0650558 9.53241 1.42031e-315)
(-0.939669 6.80242 1.39175e-315)
(-1.12913 6.48964 1.33427e-315)
(-1.67968 4.14905 1.30052e-315)
(-2.06061 4.19265 1.22809e-315)
(-2.33509 2.31523 1.18107e-315)
(-2.69518 2.23369 1.09967e-315)
(-2.88613 0.673499 1.04556e-315)
(-3.07698 0.28419 9.60874e-316)
(-3.27618 -1.06301 9.05935e-316)
(-3.22546 -1.87007 8.23196e-316)
(-3.43931 -3.052 7.71384e-316)
(-3.14052 -4.33576 6.94357e-316)
(-3.27689 -5.32249 6.46741e-316)
(-2.80764 -7.02837 5.76678e-316)
(-2.61772 -7.69714 5.29656e-316)
(-2.21357 -9.50348 4.62779e-316)
(-1.26492 -9.70235 4.00803e-316)
(-1.40503 -10.8324 3.22063e-316)
(0.562448 -10.5194 1.90494e-316)
(-0.854108 16.2895 9.27194e-316)
(-1.55319 13.2776 9.8978e-316)
(-2.7445 12.1956 9.89049e-316)
(-3.19333 9.19467 9.97334e-316)
(-3.91769 8.94381 9.62715e-316)
(-4.43942 6.24837 9.38847e-316)
(-4.77627 6.29333 8.84587e-316)
(-5.50372 3.87715 8.45752e-316)
(-5.51708 3.93673 7.81834e-316)
(-6.45326 1.67571 7.37332e-316)
(-6.16088 1.56233 6.70321e-316)
(-7.18916 -0.650537 6.24174e-316)
(-6.56766 -1.1007 5.57611e-316)
(-7.40622 -3.25686 5.10086e-316)
(-6.43435 -4.20025 4.45017e-316)
(-6.57517 -6.08779 3.92568e-316)
(-5.35123 -7.61787 3.27149e-316)
(-4.09811 -8.8497 2.59922e-316)
(-3.04864 -10.7124 1.86613e-316)
(-0.0654773 -11.2525 8.05495e-317)
(-0.180811 12.8354 1.21617e-317)
(0.0491312 9.46411 2.66654e-316)
(-0.195574 8.79179 3.94224e-316)
(-0.0419729 5.84302 5.14611e-316)
(-0.163481 5.95578 5.67101e-316)
(-0.162351 3.56106 6.11834e-316)
(-0.205149 3.7375 6.18401e-316)
(-0.403104 1.73991 6.22591e-316)
(-0.38009 1.62755 6.0321e-316)
(-0.825249 -0.137171 5.87416e-316)
(-0.70131 -0.805396 5.5589e-316)
(-1.44011 -2.44126 5.32557e-316)
(-1.11503 -3.9402 4.98486e-316)
(-2.15527 -5.41585 4.75668e-316)
(-1.45664 -7.98767 4.46071e-316)
(-2.68629 -9.02159 4.29415e-316)
(-1.43081 -12.599 4.10102e-316)
(-2.50264 -12.6032 4.03909e-316)
(-0.687689 -15.9652 4.00502e-316)
(-1.05036 -14.4836 4.12026e-316)
(-0.514813 16.1429 -1.599e-316)
(-0.366569 12.9738 1.16284e-316)
(-0.982196 12.0155 2.56156e-316)
(-1.16145 8.88165 3.7683e-316)
(-1.3783 8.84109 4.37364e-316)
(-2.00359 6.08404 4.8219e-316)
(-1.93687 6.38004 4.96329e-316)
(-3.01596 3.9264 5.03293e-316)
(-2.74838 4.2752 4.91411e-316)
(-4.29618 1.9393 4.78877e-316)
(-3.82299 2.14577 4.53128e-316)
(-5.82851 -0.258796 4.30219e-316)
(-5.01975 -0.412086 3.97595e-316)
(-7.33598 -2.96247 3.68497e-316)
(-5.91509 -3.77974 3.33106e-316)
(-8.08229 -6.27081 2.99306e-316)
(-5.6907 -8.11245 2.64388e-316)
(-6.76623 -9.92116 2.279e-316)
(-3.2447 -12.7072 1.97356e-316)
(-2.11036 -13.4267 1.71857e-316)
(-0.102153 13.9436 -6.88757e-316)
(0.667713 10.1114 -3.12916e-316)
(0.711497 9.7932 -1.0038e-316)
(1.14685 6.39128 8.46317e-317)
(1.35973 6.99897 1.95092e-316)
(1.44806 4.27639 2.81868e-316)
(1.69941 4.9683 3.30715e-316)
(1.46988 2.73327 3.65134e-316)
(1.6818 3.16701 3.78803e-316)
(1.08683 1.15348 3.86079e-316)
(1.27879 1.03491 3.81886e-316)
(0.178553 -1.00852 3.77479e-316)
(0.54079 -2.10623 3.67667e-316)
(-1.29065 -4.32027 3.63038e-316)
(-0.285781 -6.99522 3.58168e-316)
(-3.1166 -9.19235 3.65275e-316)
(-0.63829 -13.9386 3.77802e-316)
(-4.56993 -15.2924 4.15664e-316)
(0.376292 -21.1271 4.64489e-316)
(-3.8901 -20.4878 5.77712e-316)
(0.232862 15.3665 -5.44385e-316)
(0.452075 11.8769 -2.41653e-316)
(0.865244 11.3157 -6.78501e-317)
(0.480344 7.98765 7.52007e-317)
(0.980674 8.36291 1.664e-316)
(0.0916162 5.57541 2.33593e-316)
(0.651028 6.24124 2.75058e-316)
(-0.716515 3.85326 3.0251e-316)
(-0.142771 4.60213 3.14892e-316)
(-2.10845 2.31691 3.20168e-316)
(-1.48625 3.04445 3.15901e-316)
(-4.26027 0.487813 3.08461e-316)
(-3.36353 1.05409 2.95087e-316)
(-7.13001 -2.15632 2.80306e-316)
(-5.3799 -2.02889 2.62914e-316)
(-10.0298 -6.06777 2.4487e-316)
(-6.33739 -6.92104 2.2851e-316)
(-10.9173 -11.3133 2.16336e-316)
(-3.78609 -13.9181 2.09881e-316)
(-5.87212 -17.5031 2.36968e-316)
(0.605515 13.3038 -7.63949e-316)
(0.920588 9.51866 -4.3711e-316)
(2.02095 9.79419 -2.37795e-316)
(2.10965 6.30769 -6.82548e-317)
(3.02893 7.41381 4.30855e-317)
(2.94369 4.63598 1.30171e-316)
(3.65903 5.80927 1.86743e-316)
(3.40418 3.56248 2.27738e-316)
(3.87859 4.61103 2.51978e-316)
(3.36435 2.54559 2.67745e-316)
(3.60767 3.27407 2.74621e-316)
(2.61759 0.93671 2.78656e-316)
(2.82741 0.904718 2.7914e-316)
(0.95187 -2.21463 2.82256e-316)
(1.76817 -3.88452 2.8611e-316)
(-1.69919 -8.12842 3.00514e-316)
(1.15544 -12.7767 3.18962e-316)
(-4.8587 -17.731 3.63724e-316)
(2.25944 -25.9202 4.12725e-316)
(-6.20429 -30.0493 5.24226e-316)
(1.60695 13.7912 -4.65812e-316)
(0.89125 10.3579 -2.70567e-316)
(2.91161 10.0619 -1.34591e-316)
(1.78069 6.89149 -2.46689e-317)
(3.23501 7.4846 5.69748e-317)
(1.97646 4.89574 1.18294e-316)
(3.12925 5.76293 1.62593e-316)
(1.66001 3.61965 1.94013e-316)
(2.57085 4.64091 2.14283e-316)
(0.603789 2.59585 2.26815e-316)
(1.31618 3.77972 2.3197e-316)
(-1.60267 1.27346 2.32465e-316)
(-0.865946 2.64287 2.28171e-316)
(-5.34141 -1.13591 2.20545e-316)
(-3.85098 0.3845 2.09909e-316)
(-10.4254 -5.59992 1.95889e-316)
(-6.37815 -4.2803 1.79607e-316)
(-14.606 -12.7328 1.60672e-316)
(-4.51932 -13.3468 1.3781e-316)
(-10.545 -21.8839 1.17273e-316)
(1.54083 11.0948 -4.9928e-316)
(0.960839 8.35971 -3.08045e-316)
(3.42653 8.97592 -1.74614e-316)
(2.92625 6.00716 -5.91453e-317)
(4.72673 7.20736 2.21549e-317)
(4.40342 4.71462 8.77712e-317)
(5.69162 6.06601 1.33212e-316)
(5.49323 4.05078 1.67249e-316)
(6.3068 5.54494 1.8943e-316)
(6.13421 3.66927 2.04458e-316)
(6.44765 5.26863 2.12858e-316)
(6.12601 2.91047 2.18046e-316)
(6.00178 4.33074 2.20286e-316)
(5.16815 0.507527 2.23559e-316)
(5.08137 0.856345 2.26414e-316)
(2.90953 -5.76713 2.3643e-316)
(4.38762 -8.66004 2.46133e-316)
(-0.917422 -19.1914 2.71845e-316)
(5.10226 -28.9749 2.93105e-316)
(-5.46654 -43.0713 3.31268e-316)
(3.11875 11.5385 -3.11122e-316)
(1.02189 8.62645 -2.23676e-316)
(4.57881 8.31821 -1.30904e-316)
(2.62511 5.71246 -5.43131e-317)
(4.94179 6.20349 1.04737e-317)
(3.45618 4.055 6.13684e-317)
(5.15873 4.85808 1.01488e-316)
(3.86288 3.12976 1.31785e-316)
(5.09485 4.16912 1.53885e-316)
(3.58522 2.5645 1.69278e-316)
(4.34829 3.90875 1.78729e-316)
(2.05727 1.78756 1.83404e-316)
(2.42487 3.59787 1.83585e-316)
(-1.55658 -0.213007 1.79405e-316)
(-1.03339 2.3655 1.70939e-316)
(-8.04609 -4.98066 1.55822e-316)
(-5.25927 -1.27694 1.34739e-316)
(-16.2326 -13.6784 9.90766e-317)
(-5.3069 -10.3929 5.43066e-317)
(-15.8727 -23.3176 -3.38031e-317)
(2.21152 7.83891 -1.56421e-316)
(1.05828 7.18579 -6.97845e-317)
(4.64383 7.63932 -1.64545e-317)
(3.80753 5.66952 3.78293e-317)
(6.41523 6.46835 7.67486e-317)
(5.99254 4.48676 1.12275e-316)
(7.85631 5.66653 1.38235e-316)
(7.81129 4.05053 1.58721e-316)
(9.01758 5.69688 1.7242e-316)
(9.34485 4.22154 1.8138e-316)
(9.8264 6.43147 1.85853e-316)
(10.5489 4.41415 1.87625e-316)
(10.1235 7.1953 1.87002e-316)
(11.2451 3.2589 1.8661e-316)
(9.78744 6.12069 1.85204e-316)
(11.0741 -2.34061 1.88268e-316)
(9.12929 -1.76397 1.89631e-316)
(9.0936 -18.8674 1.98752e-316)
(8.49168 -28.3076 2.02959e-316)
(1.97305 -58.8038 1.97527e-316)
(4.12474 8.8931 -4.39136e-316)
(0.891936 6.70158 -2.96183e-316)
(5.10536 6.20239 -1.96523e-316)
(2.75868 4.35829 -1.12083e-316)
(5.44659 4.5686 -4.83323e-317)
(4.06204 2.98967 3.02497e-318)
(6.06827 3.54485 4.37599e-317)
(5.17071 2.32366 7.59782e-317)
(6.61261 3.13369 1.01147e-316)
(5.81864 2.09119 1.2028e-316)
(6.61515 3.20503 1.34161e-316)
(5.4629 1.78194 1.43342e-316)
(5.44957 3.3648 1.48045e-316)
(3.04437 0.328417 1.47795e-316)
(2.25444 2.8114 1.4253e-316)
(-3.31515 -4.23786 1.28634e-316)
(-3.20311 0.280455 1.08024e-316)
(-15.2258 -13.4155 6.73304e-317)
(-5.9038 -6.00125 1.9819e-317)
(-23.039 -17.412 -7.96478e-317)
(2.37295 4.3631 3.67547e-316)
(1.56783 6.44391 3.18193e-316)
(5.96052 6.22105 2.53133e-316)
(5.32638 5.33031 2.16858e-316)
(8.72036 5.42581 2.01435e-316)
(8.37412 3.95166 1.97822e-316)
(10.8405 4.76304 1.99804e-316)
(10.9739 3.57721 2.0245e-316)
(12.6466 5.11513 2.03733e-316)
(13.4916 4.13456 2.02598e-316)
(14.3511 6.54834 1.98974e-316)
(16.2424 5.15453 1.93452e-316)
(15.9051 8.76386 1.86368e-316)
(19.4202 5.4436 1.79562e-316)
(16.8521 10.5207 1.72342e-316)
(23.0607 1.50762 1.69022e-316)
(16.2921 6.84109 1.65386e-316)
(26.4693 -16.5945 1.69298e-316)
(11.8706 -21.5432 1.72224e-316)
(21.4609 -76.9382 1.77892e-316)
(4.12086 6.01868 -9.03455e-316)
(0.426391 4.27818 -5.63899e-316)
(3.62152 3.68382 -3.95651e-316)
(1.57221 2.55347 -2.59293e-316)
(3.65704 2.57502 -1.73864e-316)
(2.71963 1.62247 -1.072e-316)
(4.44771 1.88513 -5.70747e-317)
(4.00179 1.20336 -1.66953e-317)
(5.30462 1.59634 1.59911e-317)
(5.08418 1.11341 4.26418e-317)
(5.78297 1.62392 6.415e-317)
(5.55692 1.01825 8.09487e-317)
(5.31729 1.65834 9.31194e-317)
(4.51296 0.110119 9.99529e-317)
(2.85446 0.971502 1.0135e-316)
(-0.358876 -3.3848 9.3519e-317)
(-2.62027 -1.44436 7.96271e-317)
(-14.1534 -10.5044 4.72566e-317)
(-6.16597 -3.39328 1.22735e-317)
(-36.6331 1.49932 -5.40064e-317)
(1.93425 1.59739 1.60491e-315)
(2.99787 6.61559 9.76688e-316)
(8.78822 5.34077 6.9256e-316)
(8.87345 5.12956 4.89123e-316)
(13.7663 4.52981 4.10738e-316)
(13.4838 3.31155 3.62255e-316)
(16.9736 3.79375 3.42521e-316)
(17.1942 2.91256 3.27752e-316)
(19.6398 4.25826 3.16209e-316)
(21.0281 3.70105 3.03076e-316)
(22.7112 6.02914 2.88415e-316)
(26.0126 5.29137 2.72152e-316)
(26.6084 9.1187 2.54922e-316)
(33.0268 6.81496 2.38369e-316)
(30.6653 13.1903 2.22267e-316)
(42.6991 4.83501 2.10521e-316)
(31.342 15.2128 1.99429e-316)
(55.1253 -13.8772 1.97898e-316)
(17.5123 -6.29492 1.9685e-316)
(61.6489 -99.4244 2.17755e-316)
(3.03662 2.83605 -1.74377e-315)
(-0.786188 0.32426 -1.06707e-315)
(-1.41622 0.274287 -7.54819e-316)
(-2.65883 -0.276511 -5.17034e-316)
(-3.25691 -0.0645992 -3.97613e-316)
(-3.50013 -0.19841 -3.09694e-316)
(-3.52213 -0.210342 -2.51871e-316)
(-3.65877 -0.275613 -2.04856e-316)
(-3.54212 -0.505407 -1.66462e-316)
(-3.90953 -0.525056 -1.32726e-316)
(-4.01739 -1.02444 -1.03026e-316)
(-4.8731 -0.970949 -7.69147e-317)
(-5.50313 -1.96949 -5.46966e-317)
(-7.32072 -1.78073 -3.73252e-317)
(-8.64566 -3.90035 -2.48888e-317)
(-12.8433 -3.1297 -2.08969e-317)
(-13.181 -7.6416 -2.11174e-317)
(-26.6487 -2.29083 -3.46905e-317)
(-9.49514 -7.20266 -4.7575e-317)
(-67.1008 42.7859 -6.98196e-317)
(-0.216502 0.388936 3.58856e-315)
(5.9647 8.7249 1.71405e-315)
(16.8283 6.07855 1.15111e-315)
(17.9102 5.82593 7.6644e-316)
(27.3033 4.71948 6.677e-316)
(26.6802 3.24191 6.10716e-316)
(33.0385 3.64699 6.01572e-316)
(33.1815 2.74289 5.93085e-316)
(37.7266 4.14348 5.85811e-316)
(40.1402 3.75788 5.71887e-316)
(43.9484 6.21999 5.52876e-316)
(50.173 5.84228 5.29028e-316)
(53.4044 9.96348 5.01963e-316)
(65.7074 8.21946 4.73859e-316)
(66.0305 15.4827 4.44593e-316)
(88.3819 7.11887 4.17726e-316)
(74.2984 21.8761 3.88443e-316)
(116.633 -15.066 3.646e-316)
(42.1186 16.4953 3.39619e-316)
(135.538 -134.204 3.39219e-316)
)
;

boundaryField
{
    cavity
    {
        type            myImplicitVelocity;
    }
    lid
    {
        type            fixedValue;
        value           uniform (1 0 0);
    }
    frontAndBack
    {
        type            empty;
    }
}


// ************************************************************************* //
