/*--------------------------------*- C++ -*----------------------------------*\
| =========                 |                                                 |
| \\      /  F ield         | foam-extend: Open Source CFD                    |
|  \\    /   O peration     | Version:  3.0                                   |
|   \\  /    A nd           | Web:         http://www.extend-project.de       |
|    \\/     M anipulation  |                                                 |
\*---------------------------------------------------------------------------*/
FoamFile
{
    version     2.0;
    format      ascii;
    class       volSymmTensorField;
    location    "31";
    object      sigma;
}
// * * * * * * * * * * * * * * * * * * * * * * * * * * * * * * * * * * * * * //

dimensions      [0 0 0 0 0 0 0];

internalField   nonuniform List<symmTensor> 
7680
(
(-0.180508 -0.00277732 -9.93951e-21 0.180669 1.96328e-20 -0.000160956)
(-0.179858 -0.0031261 3.59564e-20 0.180313 1.38268e-19 -0.000455372)
(-0.177228 -0.00333586 3.7328e-21 0.17796 -3.99319e-20 -0.00073146)
(-0.173166 -0.00344275 -3.75175e-21 0.174157 6.28297e-20 -0.000991347)
(-0.168279 -0.00348062 1.1889e-20 0.169516 6.81103e-21 -0.0012367)
(-0.162782 -0.00346923 -4.78699e-21 0.16425 1.85779e-20 -0.0014688)
(-0.157005 -0.00342564 2.13821e-20 0.158693 -3.15729e-20 -0.00168864)
(-0.151026 -0.00336066 9.56618e-21 0.152923 -2.93643e-20 -0.00189695)
(-0.145031 -0.0032836 8.25542e-21 0.147126 -5.9598e-20 -0.00209427)
(-0.13904 -0.00320061 1.25719e-20 0.141321 -2.0818e-20 -0.00228098)
(-0.133159 -0.00311745 -2.79591e-20 0.135616 -8.02219e-20 -0.00245729)
(-0.127382 -0.00303796 1.85926e-20 0.130006 2.44285e-20 -0.00262331)
(-0.121773 -0.00296623 6.5496e-21 0.124552 -7.3081e-20 -0.00277902)
(-0.116316 -0.00290511 -2.63295e-20 0.11924 2.17248e-20 -0.00292429)
(-0.111049 -0.00285805 -2.58695e-20 0.114107 1.74755e-20 -0.00305889)
(-0.105953 -0.00282772 7.39368e-21 0.109135 6.81811e-20 -0.00318251)
(-0.10105 -0.00281756 -7.81365e-21 0.104344 -6.01569e-20 -0.00329472)
(-0.0963229 -0.0028306 -1.02828e-20 0.0997179 1.50655e-19 -0.00339504)
(-0.0917833 -0.00287077 2.74961e-20 0.0952661 -7.20103e-20 -0.00348283)
(-0.0874162 -0.00294187 -1.19505e-20 0.0909736 1.36169e-19 -0.00355746)
(-0.083225 -0.00304877 -2.86287e-20 0.0868431 -3.07233e-20 -0.00361809)
(-0.0791973 -0.00319631 -2.88457e-20 0.0828612 1.15086e-19 -0.00366391)
(-0.07533 -0.00339056 -4.26856e-20 0.0790239 -1.05212e-20 -0.00369387)
(-0.0716125 -0.00363749 -1.54132e-20 0.0753195 1.61359e-19 -0.003707)
(-0.0680351 -0.0039442 -1.22754e-20 0.0717372 -3.13434e-20 -0.00370203)
(-0.064587 -0.00431737 -5.47419e-20 0.0682648 1.29571e-19 -0.00367779)
(-0.0612516 -0.00476376 -9.92506e-23 0.0648844 6.51609e-20 -0.00363279)
(-0.0580149 -0.00528916 -3.28498e-21 0.0615805 1.0721e-19 -0.00356561)
(-0.0548526 -0.00589589 1.01397e-20 0.0583271 4.94248e-20 -0.00347452)
(-0.0517443 -0.00658487 -3.91882e-20 0.0551021 3.32772e-20 -0.00335781)
(-0.0486571 -0.00734364 -1.5266e-20 0.0518706 8.01795e-21 -0.00321347)
(-0.0455633 -0.00815955 -2.11375e-20 0.0486027 -1.51903e-20 -0.00303941)
(-0.0424251 -0.0089816 9.43872e-21 0.0452584 -4.77393e-21 -0.00283329)
(-0.0392182 -0.00976679 -3.58347e-20 0.0418108 -2.14408e-20 -0.00259258)
(-0.0359206 -0.010377 -5.37931e-21 0.0382352 1.5691e-21 -0.00231461)
(-0.0325696 -0.0107224 -5.90899e-20 0.0345659 4.87296e-21 -0.00199634)
(-0.0292344 -0.0105037 -3.59788e-21 0.0308695 -9.97113e-20 -0.00163508)
(-0.0262127 -0.00967561 3.10741e-22 0.0274405 1.5788e-20 -0.00122777)
(-0.0237885 -0.00783475 -2.29181e-20 0.0245613 -5.4864e-20 -0.000772865)
(-0.0229017 -0.00572423 -4.82276e-21 0.0231717 -8.20545e-20 -0.000269922)
(-0.180356 -0.00821693 2.22923e-20 0.180517 -1.48457e-20 -0.0001604)
(-0.179592 -0.00938584 -2.58973e-20 0.180046 5.36822e-20 -0.000453782)
(-0.176882 -0.0101266 -2.85754e-20 0.177611 -2.70151e-20 -0.000728876)
(-0.172762 -0.0105532 3.5078e-20 0.17375 -1.99207e-20 -0.000987781)
(-0.167835 -0.0107635 -5.82203e-21 0.169068 -4.98772e-20 -0.00123216)
(-0.162311 -0.0108133 -1.07706e-20 0.163774 5.56927e-20 -0.00146326)
(-0.156516 -0.010752 -2.5063e-20 0.158198 3.99236e-20 -0.00168208)
(-0.150528 -0.0106099 -2.03015e-20 0.152417 2.68742e-20 -0.00188933)
(-0.144528 -0.0104137 -3.46675e-21 0.146613 1.30183e-19 -0.00208557)
(-0.138536 -0.0101802 1.20124e-20 0.140807 1.12201e-19 -0.00227115)
(-0.132656 -0.00992477 4.19875e-20 0.135102 -1.77297e-20 -0.00244629)
(-0.126884 -0.00965716 3.23518e-21 0.129495 6.44932e-20 -0.00261109)
(-0.12128 -0.00938702 1.43506e-20 0.124046 -5.75991e-20 -0.00276553)
(-0.115831 -0.00912037 4.704e-20 0.11874 5.37398e-20 -0.00290948)
(-0.110571 -0.00886379 2.70885e-20 0.113614 -1.23622e-19 -0.00304274)
(-0.105484 -0.00862177 -6.23041e-20 0.108649 -2.5967e-20 -0.00316496)
(-0.100592 -0.00839936 6.21911e-20 0.103867 2.11571e-20 -0.00327575)
(-0.095876 -0.00820078 -1.39798e-20 0.0992506 -5.87472e-20 -0.0033746)
(-0.0913488 -0.00803064 -1.6156e-20 0.0948098 1.06912e-19 -0.00346093)
(-0.0869959 -0.00789372 8.11995e-21 0.0905299 -4.68595e-20 -0.00353405)
(-0.0828211 -0.00779511 -5.73276e-20 0.0864143 2.36923e-20 -0.00359322)
(-0.0788129 -0.00774076 2.01889e-20 0.0824504 -7.73047e-20 -0.00363754)
(-0.0749689 -0.00773701 7.35255e-21 0.0786351 5.74617e-20 -0.00366613)
(-0.0712797 -0.00779136 -1.24138e-20 0.0749576 -1.25737e-19 -0.00367787)
(-0.0677369 -0.00791199 -7.91173e-20 0.0714086 1.07972e-20 -0.00367171)
(-0.0643309 -0.00810797 6.1727e-20 0.0679773 -6.83028e-20 -0.00364633)
(-0.0610467 -0.00838915 -3.30615e-20 0.0646472 2.28989e-20 -0.0036005)
(-0.0578717 -0.00876538 -1.41924e-20 0.0614043 -3.09518e-20 -0.00353267)
(-0.0547824 -0.00924621 -6.99636e-20 0.0582238 -3.54992e-20 -0.00344139)
(-0.0517583 -0.00983987 -4.56807e-20 0.0550832 3.20055e-20 -0.00332482)
(-0.0487661 -0.0105489 -4.49018e-20 0.0519473 1.66372e-21 -0.00318129)
(-0.0457699 -0.0113743 -3.80725e-20 0.0487785 7.81964e-21 -0.00300861)
(-0.0427265 -0.0122929 2.31086e-20 0.0455313 1.00913e-20 -0.00280479)
(-0.0395791 -0.0132865 2.32242e-20 0.0421462 -5.9547e-20 -0.00256716)
(-0.036287 -0.0142556 -2.65125e-21 0.0385804 4.40532e-20 -0.00229337)
(-0.0327871 -0.0151426 -1.19094e-19 0.0347672 -1.73748e-21 -0.0019801)
(-0.0291285 -0.0156342 -6.49194e-20 0.0307531 9.13392e-21 -0.00162468)
(-0.0253891 -0.0156754 4.15109e-20 0.0266122 3.1743e-20 -0.00122312)
(-0.0220865 -0.0144669 -1.35812e-19 0.0228598 -2.48216e-20 -0.000773233)
(-0.020067 -0.0126787 3.91522e-20 0.0203388 4.17594e-20 -0.000271879)
(-0.180066 -0.013679 3.49168e-20 0.180226 -9.82767e-21 -0.000159676)
(-0.179081 -0.0156305 3.86162e-20 0.179533 7.85633e-20 -0.00045172)
(-0.176212 -0.0168874 -1.11944e-20 0.176938 -1.65906e-19 -0.000725526)
(-0.171981 -0.0176242 -2.359e-20 0.172964 1.57673e-19 -0.00098317)
(-0.166976 -0.018 7.1719e-20 0.168202 -9.53476e-20 -0.00122629)
(-0.161398 -0.0181064 5.93356e-20 0.162854 -1.67652e-20 -0.00145613)
(-0.15557 -0.0180241 1.75568e-20 0.157243 -8.43729e-20 -0.00167367)
(-0.149561 -0.017803 7.14214e-20 0.151441 3.06288e-22 -0.00187962)
(-0.143551 -0.0174864 7.84017e-20 0.145626 7.96123e-21 -0.00207451)
(-0.137558 -0.0171018 -8.21116e-20 0.139816 -2.0814e-20 -0.00225871)
(-0.131682 -0.0166742 -4.98324e-20 0.134114 -1.31703e-19 -0.00243241)
(-0.125918 -0.0162189 -1.45735e-20 0.128514 5.21886e-20 -0.00259574)
(-0.120326 -0.0157511 4.1978e-21 0.123075 -3.52482e-20 -0.00274864)
(-0.11489 -0.0152797 -7.81322e-20 0.117781 2.64523e-20 -0.00289101)
(-0.109646 -0.0148146 -9.55332e-20 0.112669 9.81659e-20 -0.00302261)
(-0.104576 -0.0143619 1.15276e-19 0.107719 6.62054e-20 -0.00314315)
(-0.0997009 -0.0139282 -2.79668e-20 0.102953 8.53415e-20 -0.00325217)
(-0.0950037 -0.0135187 5.02715e-20 0.0983529 1.29175e-19 -0.00334924)
(-0.0904958 -0.0131386 6.86956e-20 0.0939295 -1.26979e-19 -0.00343371)
(-0.0861632 -0.0127935 -9.61183e-20 0.0896682 1.06582e-19 -0.00350496)
(-0.0820102 -0.0124885 -4.57571e-20 0.0855724 -2.50559e-20 -0.0035622)
(-0.0780257 -0.0122303 -1.45828e-20 0.0816303 1.17121e-19 -0.00360463)
(-0.0742083 -0.0120252 -7.30693e-20 0.0778395 -1.69121e-20 -0.00363127)
(-0.0705493 -0.0118818 -6.74297e-20 0.0741905 5.94217e-20 -0.00364117)
(-0.0670416 -0.0118086 3.58321e-20 0.0706748 1.68184e-19 -0.00363316)
(-0.0636773 -0.0118166 -4.62042e-20 0.0672834 1.07788e-19 -0.00360612)
(-0.0604428 -0.0119175 4.85557e-20 0.0640015 1.49345e-19 -0.0035587)
(-0.0573276 -0.0121244 -5.50648e-20 0.0608171 5.09003e-20 -0.0034896)
(-0.0543104 -0.0124522 7.52696e-20 0.0577077 1.07011e-19 -0.00339725)
(-0.0513726 -0.0129152 7.24212e-21 0.0546527 9.9908e-21 -0.00328012)
(-0.0484841 -0.0135291 -3.28171e-20 0.0516205 2.42642e-20 -0.00313645)
(-0.0456081 -0.0143057 -1.33175e-20 0.0485725 9.6789e-20 -0.00296439)
(-0.0427075 -0.0152529 -8.13816e-20 0.0454694 1.3797e-19 -0.00276193)
(-0.0397077 -0.0163708 1.41896e-20 0.0422344 -2.80204e-19 -0.00252674)
(-0.0365784 -0.0176309 4.67452e-20 0.0388349 1.84715e-19 -0.00225653)
(-0.0331562 -0.0189915 -8.6757e-20 0.0351044 -1.12312e-19 -0.00194822)
(-0.0294882 -0.0202837 1.64697e-20 0.0310874 4.97569e-21 -0.0015992)
(-0.0251749 -0.0213573 -4.97108e-20 0.02638 9.08763e-20 -0.00120509)
(-0.0207438 -0.0216307 -1.77296e-20 0.0215074 -3.35364e-20 -0.00076355)
(-0.0150604 -0.0214381 -3.77317e-20 0.0153288 1.29965e-19 -0.000268457)
(-0.179643 -0.0191238 7.2039e-20 0.179802 2.78444e-20 -0.000158784)
(-0.178332 -0.0218461 -8.2684e-20 0.178781 -1.36521e-21 -0.0004492)
(-0.175229 -0.0235996 -1.02621e-20 0.17595 2.43366e-19 -0.000721452)
(-0.170832 -0.0246316 1.20228e-19 0.17181 -2.68038e-19 -0.000977588)
(-0.165712 -0.0251626 -1.20012e-19 0.166932 4.40722e-20 -0.00121923)
(-0.160057 -0.0253182 -3.53567e-22 0.161505 7.34682e-20 -0.0014476)
(-0.154178 -0.0252103 -1.70511e-20 0.155842 5.90746e-20 -0.00166367)
(-0.14814 -0.0249072 4.57815e-20 0.150008 -1.74543e-20 -0.00186815)
(-0.142117 -0.024469 1.85355e-20 0.144178 -1.12603e-19 -0.00206155)
(-0.13612 -0.0239332 -6.59991e-20 0.138365 -5.34272e-20 -0.00224423)
(-0.130251 -0.0233341 8.14241e-20 0.132668 4.76592e-20 -0.00241641)
(-0.1245 -0.0226925 7.15084e-20 0.127078 1.28057e-20 -0.00257817)
(-0.118926 -0.0220289 1.94991e-20 0.121655 -1.56961e-19 -0.00272949)
(-0.11351 -0.0213554 1.43494e-19 0.11638 1.15883e-19 -0.00287023)
(-0.108289 -0.0206845 6.03308e-20 0.111289 7.90792e-21 -0.00300019)
(-0.103243 -0.020024 -1.09602e-19 0.106362 3.10854e-19 -0.00311903)
(-0.0983921 -0.0193819 1.66853e-19 0.101618 -1.81366e-19 -0.00322637)
(-0.09372 -0.0187645 -2.183e-19 0.0970417 2.05783e-19 -0.00332168)
(-0.0892376 -0.0181773 -1.50872e-20 0.092642 -1.1553e-19 -0.00340442)
(-0.0849306 -0.0176266 9.69449e-20 0.0884045 1.15396e-19 -0.0034739)
(-0.0808033 -0.017117 -4.34122e-20 0.0843327 -1.1667e-19 -0.0035294)
(-0.0768453 -0.0166561 3.3978e-20 0.0804154 -1.20313e-20 -0.00357005)
(-0.0730552 -0.0162493 -4.55278e-20 0.0766502 3.93134e-20 -0.00359499)
(-0.0694256 -0.0159062 1.39019e-19 0.0730288 1.54857e-19 -0.00360317)
(-0.0659496 -0.0156347 -1.18858e-21 0.0695432 -9.35975e-20 -0.00359358)
(-0.0626211 -0.0154469 5.21131e-20 0.0661861 8.09936e-20 -0.00356499)
(-0.0594269 -0.0153553 -6.37074e-20 0.0629432 3.65362e-20 -0.00351624)
(-0.0563594 -0.0153744 -5.97172e-20 0.0598053 1.06814e-19 -0.00344593)
(-0.0533969 -0.015523 -8.90788e-20 0.0567496 -1.15622e-19 -0.00335272)
(-0.0505247 -0.0158169 -1.31862e-19 0.0537597 1.10036e-19 -0.003235)
(-0.0477102 -0.0162825 5.8969e-20 0.0508015 7.77013e-21 -0.00309127)
(-0.0449219 -0.0169328 1.23022e-19 0.0478416 4.81428e-20 -0.00291963)
(-0.0421136 -0.0178043 -3.75116e-19 0.044832 1.47672e-19 -0.00271839)
(-0.0392173 -0.018894 2.53188e-20 0.0417025 -2.11163e-20 -0.00248522)
(-0.0361741 -0.0202645 2.01877e-19 0.0383923 1.34448e-19 -0.00221814)
(-0.0328264 -0.0218661 -3.21838e-19 0.0347405 3.99825e-20 -0.00191414)
(-0.0291277 -0.0238678 1.57698e-19 0.0306986 1.05227e-19 -0.00157088)
(-0.0246815 -0.0260969 1.00294e-20 0.0258656 9.45016e-20 -0.00118403)
(-0.0196817 -0.0292964 -8.18879e-20 0.0204328 -8.2369e-20 -0.00075114)
(-0.0136814 -0.0306053 -1.98749e-20 0.0139467 -1.5984e-19 -0.000265394)
(-0.179077 -0.0245844 5.44655e-20 0.179235 -9.21049e-20 -0.000157758)
(-0.177341 -0.0280226 1.97279e-19 0.177787 -1.96105e-19 -0.000446261)
(-0.173931 -0.0302421 -1.07587e-19 0.174648 -2.73136e-19 -0.000716685)
(-0.169318 -0.0315482 -1.3554e-19 0.170289 4.86045e-21 -0.000971055)
(-0.164047 -0.0322189 2.75911e-19 0.165258 5.13544e-20 -0.00121097)
(-0.15829 -0.0324131 9.22599e-20 0.159728 -1.64002e-19 -0.00143763)
(-0.152346 -0.0322722 -2.1709e-20 0.153998 -1.44886e-19 -0.00165201)
(-0.146269 -0.0318824 -5.26521e-20 0.148124 8.07064e-20 -0.00185478)
(-0.140228 -0.0313198 5.31562e-20 0.142275 6.09878e-20 -0.00204647)
(-0.13423 -0.0306316 -1.96984e-21 0.136457 1.09856e-19 -0.00222743)
(-0.12837 -0.0298612 1.25299e-20 0.130767 -1.82905e-19 -0.00239785)
(-0.122636 -0.0290343 -1.79218e-19 0.125194 1.18305e-19 -0.00255784)
(-0.117084 -0.0281769 8.18083e-20 0.119792 -1.09325e-19 -0.00270734)
(-0.111696 -0.0273036 3.09711e-20 0.114543 1.81426e-19 -0.00284625)
(-0.106505 -0.0264299 1.09332e-19 0.10948 6.6186e-22 -0.00297432)
(-0.101491 -0.0255651 -3.07769e-20 0.104582 1.73692e-19 -0.00309126)
(-0.0966731 -0.0247186 -6.7906e-20 0.0998698 -2.70175e-19 -0.00319664)
(-0.0920338 -0.0238974 1.35525e-19 0.0953238 9.89546e-20 -0.00329)
(-0.0875838 -0.0231073 -6.14016e-20 0.0909546 5.40276e-20 -0.00337071)
(-0.0833086 -0.0223553 -6.77634e-20 0.0867468 -3.91086e-20 -0.00343818)
(-0.0792124 -0.0216456 -1.92745e-19 0.082704 2.07425e-19 -0.00349161)
(-0.0752847 -0.0209861 1.14208e-19 0.0788149 1.93161e-19 -0.00353024)
(-0.0715243 -0.0203817 7.45126e-20 0.0750774 8.7557e-20 -0.0035531)
(-0.0679242 -0.0198422 -1.41669e-19 0.0714835 -1.59446e-19 -0.00355929)
(-0.0644778 -0.0193751 -5.05787e-20 0.0680255 2.56029e-19 -0.00354769)
(-0.0611802 -0.0189933 1.22592e-19 0.0646974 -2.25549e-20 -0.00351724)
(-0.0580178 -0.0187091 1.13956e-19 0.0614844 1.1019e-19 -0.00346666)
(-0.0549852 -0.0185395 -1.7939e-19 0.0583799 7.70203e-20 -0.00339475)
(-0.0520588 -0.0185049 6.41345e-20 0.0553589 2.62221e-19 -0.00330008)
(-0.0492276 -0.0186262 1.23663e-19 0.0524088 2.32478e-19 -0.00318127)
(-0.0464518 -0.0189365 -1.29136e-19 0.0494885 2.32749e-19 -0.00303673)
(-0.0437063 -0.0194598 2.31809e-19 0.0465711 -3.82991e-20 -0.00286486)
(-0.0409241 -0.0202512 -1.08789e-19 0.043588 1.40863e-19 -0.00266387)
(-0.0380558 -0.0213332 -9.4643e-20 0.0404877 1.40619e-19 -0.00243183)
(-0.0349914 -0.0228157 1.71955e-19 0.0371581 2.64278e-19 -0.00216665)
(-0.0316636 -0.0247052 -8.30101e-20 0.0335294 -6.93133e-20 -0.00186585)
(-0.0279301 -0.0272768 6.32227e-20 0.0294571 5.35303e-21 -0.00152697)
(-0.0238567 -0.0304603 -2.1591e-19 0.0250035 4.40899e-20 -0.00114682)
(-0.0194274 -0.0351243 -3.48067e-19 0.0201504 -2.22275e-20 -0.000723017)
(-0.0161758 -0.0390178 8.32629e-20 0.016429 6.59135e-20 -0.0002532)
(-0.178377 -0.0300329 2.93834e-20 0.178534 2.31175e-20 -0.000156545)
(-0.176116 -0.0341485 -2.00232e-19 0.176559 2.76683e-19 -0.000442855)
(-0.17233 -0.0367981 1.74597e-19 0.173042 -9.86371e-20 -0.000711197)
(-0.167453 -0.0383518 1.96321e-19 0.168417 3.16249e-19 -0.000963564)
(-0.161997 -0.0391435 -2.14223e-19 0.163199 -4.60114e-20 -0.00120153)
(-0.156115 -0.0393631 -7.58786e-20 0.157542 -9.11998e-20 -0.0014263)
(-0.150091 -0.0391804 1.33683e-19 0.15173 9.57311e-20 -0.0016388)
(-0.143969 -0.0386986 1.94197e-19 0.145808 -8.41978e-20 -0.00183971)
(-0.137906 -0.0380088 5.13228e-20 0.139936 -1.14694e-19 -0.00202956)
(-0.131906 -0.0371674 -2.52924e-19 0.134114 1.38744e-19 -0.00220867)
(-0.126057 -0.0362263 6.93385e-20 0.128435 2.12152e-19 -0.00237725)
(-0.120345 -0.0352162 1.11542e-19 0.122881 1.0009e-19 -0.00253538)
(-0.114823 -0.034168 1.93435e-20 0.117506 -2.76981e-21 -0.00268303)
(-0.10947 -0.0330988 2.90414e-19 0.11229 -2.2442e-19 -0.00282006)
(-0.104317 -0.0320269 6.97686e-20 0.107263 4.13269e-20 -0.00294626)
(-0.0993418 -0.0309629 -2.3358e-19 0.102403 -1.19598e-19 -0.0030613)
(-0.0945645 -0.0299175 8.66461e-21 0.0977293 2.19813e-19 -0.00316479)
(-0.0899654 -0.0288986 5.80175e-20 0.0932216 1.52039e-19 -0.00325623)
(-0.085555 -0.0279122 -1.12884e-19 0.08889 8.86482e-20 -0.00333505)
(-0.0813178 -0.0269656 2.35097e-19 0.0847184 1.8003e-19 -0.00340059)
(-0.0772582 -0.0260627 1.22531e-19 0.0807103 2.49005e-19 -0.00345213)
(-0.0733651 -0.0252119 -9.94414e-20 0.0768539 1.46979e-19 -0.00348883)
(-0.0696374 -0.0244168 -2.95457e-19 0.0731473 -1.59261e-19 -0.00350985)
(-0.0660683 -0.023688 2.81684e-19 0.0695825 2.2338e-19 -0.00351417)
(-0.0626512 -0.0230317 1.12257e-19 0.0661521 9.52835e-20 -0.0035008)
(-0.0593824 -0.022462 -1.44714e-19 0.062851 2.92656e-19 -0.00346859)
(-0.0562481 -0.0219905 1.24466e-19 0.0596645 -1.10818e-19 -0.00341643)
(-0.0532454 -0.0216367 1.15665e-19 0.0565883 1.37581e-19 -0.00334299)
(-0.0503495 -0.0214219 6.24643e-20 0.0535966 -8.77955e-20 -0.00324706)
(-0.0475548 -0.0213736 -6.15875e-20 0.050682 -9.59332e-20 -0.00312716)
(-0.0448182 -0.02153 -1.18945e-19 0.0478002 -5.39368e-19 -0.00298194)
(-0.0421261 -0.0219306 -3.0761e-21 0.0449359 3.25557e-20 -0.00280975)
(-0.0394051 -0.0226444 -4.19669e-20 0.0420142 -2.92912e-19 -0.00260908)
(-0.0366349 -0.0237297 1.44159e-19 0.0390129 6.46171e-20 -0.00237808)
(-0.0336974 -0.0253168 8.92641e-20 0.0358124 -2.72968e-19 -0.00211497)
(-0.0306061 -0.0274839 -5.76123e-19 0.0324238 -1.50372e-19 -0.00181767)
(-0.0272098 -0.0304638 3.34321e-19 0.028694 -1.39954e-19 -0.00148415)
(-0.0237509 -0.034274 4.96287e-20 0.0248632 -3.95239e-20 -0.00111222)
(-0.0200567 -0.039252 -5.92151e-20 0.0207565 -4.75934e-19 -0.000699887)
(-0.0177185 -0.0433489 -1.83519e-19 0.0179644 1.21583e-19 -0.00024593)
(-0.17753 -0.0354896 2.10878e-19 0.177686 -5.40712e-20 -0.000155231)
(-0.174657 -0.0402121 1.03963e-19 0.175096 1.00642e-19 -0.000439082)
(-0.17043 -0.0432467 -1.76856e-19 0.171136 2.12026e-20 -0.000705086)
(-0.165242 -0.0450159 8.61247e-21 0.166198 -2.43952e-19 -0.000955211)
(-0.15957 -0.0459054 4.82398e-20 0.160761 1.59729e-19 -0.00119101)
(-0.153543 -0.046134 1.47739e-20 0.154956 4.76264e-19 -0.00141365)
(-0.147426 -0.0458984 -5.97635e-20 0.14905 2.35678e-20 -0.00162407)
(-0.14125 -0.0453173 -2.08182e-19 0.143073 1.61149e-19 -0.00182293)
(-0.135164 -0.0444961 2.69404e-19 0.137175 -2.09571e-20 -0.00201074)
(-0.129162 -0.0434997 2.30872e-19 0.13135 1.21016e-19 -0.00218783)
(-0.123329 -0.0423881 -6.05593e-20 0.125683 6.11092e-22 -0.00235438)
(-0.117644 -0.0411965 -3.43565e-19 0.120154 1.95988e-19 -0.0025105)
(-0.112158 -0.0399602 -1.93764e-19 0.114814 1.33677e-20 -0.00265612)
(-0.106846 -0.038699 -1.47415e-20 0.109637 3.4805e-19 -0.00279113)
(-0.101739 -0.0374336 3.18376e-19 0.104654 -1.60506e-19 -0.00291529)
(-0.0968122 -0.0361761 1.21754e-19 0.0998405 2.35747e-20 -0.0030283)
(-0.092084 -0.0349382 1.02258e-19 0.0952137 -7.70887e-22 -0.00312973)
(-0.0875337 -0.0337285 6.59576e-20 0.0907529 1.79198e-20 -0.00321913)
(-0.0831712 -0.0325533 -1.33408e-20 0.0864671 -1.4424e-19 -0.00329589)
(-0.0789801 -0.0314206 8.39854e-20 0.0823395 -1.75246e-19 -0.0033594)
(-0.0749643 -0.0303335 -9.85091e-20 0.0783732 -1.55583e-20 -0.00340889)
(-0.0711122 -0.0293011 -7.23177e-20 0.0745558 -2.93675e-19 -0.00344359)
(-0.0674228 -0.0283257 2.80699e-20 0.0708853 1.87464e-19 -0.00346259)
(-0.063889 -0.027419 4.59934e-20 0.067354 -1.03328e-19 -0.00346498)
(-0.0605046 -0.0265851 1.78478e-19 0.0639543 -1.3426e-19 -0.0034497)
(-0.0572666 -0.0258403 -2.34985e-20 0.0606823 -4.43781e-20 -0.00341571)
(-0.0541616 -0.0251939 -8.58568e-20 0.0575234 -2.71105e-20 -0.0033618)
(-0.0511894 -0.0246692 -2.95519e-20 0.0544763 -3.03132e-19 -0.00328684)
(-0.048326 -0.0242859 -2.16528e-19 0.0515155 5.9983e-19 -0.00318951)
(-0.0455722 -0.0240792 -2.47019e-19 0.0486408 -3.56442e-20 -0.00306854)
(-0.0428863 -0.0240859 -1.16403e-19 0.0458088 3.17293e-19 -0.0029225)
(-0.0402709 -0.0243612 4.44651e-19 0.0430209 1.65679e-19 -0.00275006)
(-0.0376566 -0.0249699 -5.74779e-20 0.0402063 -2.43028e-19 -0.00254965)
(-0.0350611 -0.0259969 -1.16766e-19 0.037381 2.62288e-19 -0.00231985)
(-0.0323796 -0.0275466 1.28893e-19 0.0344385 -2.09276e-19 -0.00205899)
(-0.0296996 -0.0297259 -1.9911e-20 0.0314652 -2.31909e-20 -0.00176566)
(-0.0268879 -0.0326497 3.04735e-20 0.0283259 -3.40591e-23 -0.00143806)
(-0.0242304 -0.0363343 -5.31971e-19 0.0253055 -1.21323e-19 -0.00107512)
(-0.0214606 -0.0407366 -1.91287e-19 0.0221354 -1.3052e-19 -0.00067486)
(-0.0196248 -0.0442876 2.06195e-19 0.0198616 5.28599e-19 -0.000236851)
(-0.176544 -0.0409376 1.05192e-19 0.176698 9.89428e-20 -0.000153714)
(-0.172972 -0.0462043 -1.84002e-20 0.173407 -1.18716e-19 -0.000434834)
(-0.168245 -0.049573 -1.28498e-20 0.168943 7.11831e-20 -0.000698258)
(-0.162704 -0.0515208 1.29508e-19 0.16365 6.68813e-19 -0.000945914)
(-0.156787 -0.0524818 2.07812e-19 0.157966 2.63979e-20 -0.00117933)
(-0.150594 -0.0527011 -1.31067e-20 0.151994 -4.63154e-19 -0.00139967)
(-0.144373 -0.0524002 1.78367e-22 0.145981 -9.23567e-20 -0.00160784)
(-0.138137 -0.0517119 1.56817e-19 0.139942 -1.60192e-19 -0.0018045)
(-0.132026 -0.0507551 -6.04025e-20 0.134016 -3.96691e-20 -0.00199015)
(-0.126023 -0.0496021 -1.15757e-19 0.128189 -1.5804e-19 -0.0021651)
(-0.120209 -0.0483207 2.81912e-19 0.122538 -1.32872e-19 -0.00232955)
(-0.114557 -0.0469498 2.52405e-19 0.11704 -2.80192e-19 -0.00248357)
(-0.109113 -0.0455294 6.07508e-20 0.11174 7.95672e-20 -0.00262713)
(-0.103851 -0.0440812 7.64254e-20 0.106611 -7.94054e-20 -0.00276009)
(-0.0987974 -0.0426283 -1.38619e-19 0.10168 -3.76691e-19 -0.00288223)
(-0.0939274 -0.0411841 -1.13232e-19 0.0969206 2.85085e-20 -0.00299322)
(-0.0892571 -0.0397612 1.2596e-19 0.0923498 -2.855e-19 -0.00309267)
(-0.0847645 -0.0383693 -1.35904e-20 0.0879446 -1.12398e-20 -0.00318008)
(-0.0804587 -0.0370146 -1.88255e-19 0.0837136 -4.30648e-19 -0.0032549)
(-0.0763222 -0.0357057 3.7156e-19 0.0796386 1.37168e-20 -0.00331647)
(-0.0723587 -0.0344453 1.04625e-19 0.0757228 -5.28498e-20 -0.00336408)
(-0.0685559 -0.0332428 5.16226e-20 0.0719528 1.24491e-20 -0.00339692)
(-0.0649128 -0.0320996 -1.89459e-19 0.068327 1.79152e-19 -0.00341414)
(-0.0614223 -0.0310281 -1.46605e-20 0.0648371 4.37031e-20 -0.00341476)
(-0.0580789 -0.0300308 1.38733e-19 0.0614767 1.47135e-19 -0.00339784)
(-0.0548803 -0.0291255 1.53456e-19 0.0582426 -3.08163e-19 -0.00336225)
(-0.0518152 -0.0283191 -2.54635e-19 0.0551221 2.45523e-19 -0.00330693)
(-0.0488864 -0.0276383 8.97141e-19 0.0521171 -5.43124e-19 -0.00323066)
(-0.0460735 -0.0270994 3.15198e-19 0.0492058 4.89911e-19 -0.00313229)
(-0.0433851 -0.0267442 -2.41425e-19 0.0463956 -5.61839e-19 -0.0030105)
(-0.0407873 -0.0266032 -2.54511e-19 0.0436514 4.96042e-19 -0.00286408)
(-0.0382981 -0.0267432 -5.67554e-19 0.0409898 -5.20761e-20 -0.00269171)
(-0.0358651 -0.0272118 5.18883e-20 0.0383572 2.0654e-19 -0.0024921)
(-0.0335317 -0.0281086 1.45265e-19 0.0357957 2.73536e-19 -0.00226401)
(-0.0312213 -0.0294843 -3.76115e-19 0.0332275 1.74082e-19 -0.00200612)
(-0.0290451 -0.0314491 -3.50163e-19 0.0307626 1.09859e-20 -0.00171744)
(-0.0268881 -0.0339707 2.77945e-19 0.0282847 3.03779e-19 -0.0013966)
(-0.0249677 -0.0370372 -1.15286e-19 0.0260106 2.9305e-19 -0.00104298)
(-0.0229503 -0.040312 5.3295e-19 0.0236049 -1.86834e-19 -0.000654541)
(-0.0214471 -0.0425426 -4.30573e-19 0.0216774 1.46934e-19 -0.00023025)
(-0.175407 -0.0463858 1.24334e-19 0.17556 -6.52783e-20 -0.000152128)
(-0.171063 -0.0521124 1.17924e-19 0.171493 -3.82874e-20 -0.000430272)
(-0.16578 -0.0557575 2.42314e-19 0.166471 -5.19759e-20 -0.000690876)
(-0.159849 -0.057842 1.24917e-19 0.160785 -6.51789e-19 -0.000935843)
(-0.15366 -0.0588443 -4.29817e-19 0.154827 -4.71827e-19 -0.00116667)
(-0.147286 -0.0590329 -1.41922e-20 0.148671 2.22945e-19 -0.00138451)
(-0.140951 -0.0586522 4.58792e-20 0.142541 2.45985e-19 -0.00159025)
(-0.134651 -0.0578472 -1.48833e-19 0.136435 6.62919e-20 -0.00178455)
(-0.128513 -0.0567494 2.25359e-19 0.130481 3.28743e-19 -0.00196787)
(-0.122512 -0.0554375 2.55449e-19 0.124652 -4.23457e-19 -0.00214054)
(-0.11672 -0.0539862 -3.28203e-19 0.119023 3.13928e-19 -0.00230275)
(-0.111106 -0.0524381 -6.48647e-20 0.11356 -2.23381e-19 -0.00245456)
(-0.105712 -0.0508371 -1.75302e-20 0.108308 8.89674e-20 -0.00259594)
(-0.100507 -0.0492067 -2.51884e-19 0.103234 -6.50936e-21 -0.00272675)
(-0.0955166 -0.0475723 3.06686e-19 0.0983634 2.47292e-19 -0.00284676)
(-0.0907125 -0.0459483 1.94702e-19 0.0936681 -1.31963e-19 -0.00295567)
(-0.0861099 -0.0443485 -1.03213e-19 0.0891629 4.20783e-19 -0.00305305)
(-0.0816848 -0.0427831 6.17161e-20 0.0848233 -1.76164e-19 -0.00313845)
(-0.077446 -0.0412586 -2.32554e-19 0.0806572 2.32617e-19 -0.00321128)
(-0.0733743 -0.0397842 2.78342e-19 0.0766452 4.47438e-20 -0.00327094)
(-0.0694737 -0.038362 -1.49743e-22 0.0727903 -2.09912e-19 -0.00331666)
(-0.0657305 -0.0370021 1.33487e-19 0.0690782 -3.21976e-20 -0.00334771)
(-0.0621446 -0.0357047 1.79085e-19 0.0655078 -1.43864e-19 -0.00336318)
(-0.0587083 -0.0344829 -6.40758e-20 0.0620705 -2.33894e-20 -0.0033622)
(-0.0554177 -0.0333373 -3.03138e-19 0.0587614 2.1464e-19 -0.00334374)
(-0.0522712 -0.0322869 2.64156e-19 0.055578 -5.42831e-19 -0.00330681)
(-0.0492607 -0.0313352 -5.74238e-19 0.052511 1.64742e-19 -0.00325027)
(-0.0463922 -0.0305115 -9.97252e-20 0.0495653 1.61155e-19 -0.00317306)
(-0.0436518 -0.0298258 2.18524e-19 0.0467258 4.01062e-20 -0.00307396)
(-0.0410556 -0.0293236 -7.04641e-20 0.0440075 -2.94e-19 -0.00295187)
(-0.0385823 -0.0290238 6.01247e-19 0.0413879 1.7851e-19 -0.00280552)
(-0.036264 -0.0289968 2.15249e-19 0.0388978 -2.77406e-19 -0.00263387)
(-0.03407 -0.0292637 -8.00262e-20 0.0365057 5.85079e-19 -0.00243566)
(-0.0320622 -0.0299235 3.04625e-19 0.0342722 -7.37079e-19 -0.00221001)
(-0.0301934 -0.030968 -1.79928e-19 0.0321492 5.2799e-19 -0.00195574)
(-0.0285728 -0.0324918 4.29761e-20 0.0302451 -1.76138e-19 -0.00167228)
(-0.0270983 -0.0343562 2.61832e-19 0.0284567 4.82119e-19 -0.00135839)
(-0.0258834 -0.0365324 -9.70912e-19 0.0268972 -3.52566e-19 -0.00101379)
(-0.0245542 -0.0385741 -2.89196e-19 0.0251903 1.58056e-19 -0.000636155)
(-0.0233116 -0.0396512 3.90339e-19 0.0235356 3.3639e-19 -0.000223993)
(-0.174124 -0.0518262 -7.72544e-20 0.174274 6.37938e-19 -0.000150321)
(-0.168938 -0.0579295 -1.53551e-19 0.169363 2.73417e-19 -0.000425228)
(-0.163051 -0.0617872 -3.46983e-19 0.163734 6.79333e-20 -0.000682778)
(-0.156697 -0.0639628 -8.28465e-21 0.157621 4.72971e-19 -0.00092484)
(-0.150214 -0.0649736 5.37377e-19 0.151367 6.24786e-19 -0.00115289)
(-0.143645 -0.0651086 1.79087e-19 0.145013 2.17851e-19 -0.00136805)
(-0.137186 -0.0646324 -4.88397e-20 0.138757 -1.32537e-19 -0.0015712)
(-0.130818 -0.0637008 2.45818e-19 0.132581 -3.23788e-19 -0.00176298)
(-0.124653 -0.0624563 -3.79725e-19 0.126597 -3.03816e-19 -0.00194387)
(-0.118656 -0.0609833 -1.59434e-19 0.12077 2.05889e-19 -0.00211416)
(-0.112891 -0.0593626 3.47033e-19 0.115165 4.61172e-19 -0.00227404)
(-0.107321 -0.0576398 -1.69269e-19 0.109745 3.87773e-19 -0.00242359)
(-0.101984 -0.0558624 2.08846e-19 0.104546 2.59498e-19 -0.00256275)
(-0.0968442 -0.0540554 4.89182e-20 0.0995356 2.2159e-19 -0.0026914)
(-0.0919253 -0.0522464 -4.41524e-19 0.0947346 4.9997e-20 -0.0028093)
(-0.0871962 -0.0504504 1.54373e-19 0.0901124 -1.53609e-19 -0.00291614)
(-0.082671 -0.0486825 6.66755e-20 0.0856825 2.22031e-20 -0.00301153)
(-0.0783236 -0.0469531 -7.62221e-20 0.0814186 -3.45304e-19 -0.00309498)
(-0.0741623 -0.0452694 -9.41299e-20 0.0773283 -1.95366e-19 -0.00316595)
(-0.0701666 -0.0436407 -1.74527e-19 0.0733904 3.25944e-19 -0.00322379)
(-0.0663404 -0.042069 2.56749e-20 0.0696082 3.99663e-20 -0.00326782)
(-0.0626691 -0.0405648 -3.40351e-20 0.0659663 3.10887e-19 -0.00329722)
(-0.0591535 -0.0391271 -7.93995e-20 0.0624647 -7.89996e-20 -0.0033112)
(-0.0557854 -0.0377698 4.61845e-19 0.0590942 9.11401e-20 -0.00330881)
(-0.052563 -0.036491 -4.70181e-19 0.0558522 2.47018e-19 -0.00328913)
(-0.0494857 -0.0353107 6.56353e-20 0.0527368 -1.19286e-19 -0.00325111)
(-0.0465497 -0.0342284 4.38225e-19 0.0497434 5.88325e-19 -0.00319375)
(-0.0437636 -0.0332739 4.5704e-19 0.0468795 1.63068e-19 -0.00311593)
(-0.0411223 -0.0324498 -1.5201e-19 0.0441389 4.17323e-19 -0.00301658)
(-0.0386475 -0.0318019 -5.12099e-19 0.0415421 4.70387e-19 -0.00289459)
(-0.0363333 -0.0313333 -2.15947e-19 0.0390822 9.53799e-20 -0.00274888)
(-0.0342201 -0.0311126 5.61918e-20 0.0367985 -2.02796e-20 -0.00257842)
(-0.0323015 -0.0311296 -3.26719e-19 0.0346837 2.78059e-20 -0.00238221)
(-0.0306431 -0.0314744 1.58488e-19 0.0328025 -2.12503e-19 -0.00215946)
(-0.0292264 -0.0320812 3.52156e-19 0.0311356 3.13634e-19 -0.00190923)
(-0.0281367 -0.0330287 -3.79272e-19 0.0297679 -3.558e-19 -0.00163111)
(-0.0272858 -0.0341005 5.92397e-19 0.0286098 5.86183e-20 -0.00132402)
(-0.0266948 -0.0352716 -1.25884e-19 0.0276824 -1.19638e-19 -0.000987638)
(-0.0259898 -0.0360582 8.77442e-19 0.0266094 5.03008e-19 -0.000619579)
(-0.025115 -0.0359705 -4.96464e-19 0.0253331 -3.06417e-19 -0.000218036)
(-0.172687 -0.0572582 6.71554e-20 0.172836 -4.03081e-19 -0.000148478)
(-0.166601 -0.0636424 -1.11272e-20 0.167021 -5.04462e-19 -0.000419919)
(-0.160069 -0.0676444 2.14424e-19 0.160743 2.09558e-19 -0.000674195)
(-0.153263 -0.0698613 1.14856e-19 0.154176 6.87297e-21 -0.000913146)
(-0.146468 -0.0708447 -7.12061e-19 0.147606 -8.1889e-20 -0.00113822)
(-0.139691 -0.0709006 -1.12383e-20 0.141041 -7.77109e-19 -0.00135054)
(-0.133103 -0.0703116 -2.49459e-19 0.134654 -2.24232e-20 -0.00155094)
(-0.126664 -0.0692421 -1.223e-19 0.128404 -2.18006e-19 -0.00174006)
(-0.120474 -0.0678444 5.22445e-19 0.122392 6.05089e-19 -0.00191837)
(-0.114484 -0.0662072 5.47003e-19 0.11657 2.56764e-20 -0.00208617)
(-0.108751 -0.0644171 -7.78953e-20 0.110994 -2.92519e-20 -0.00224363)
(-0.103231 -0.0625217 5.36633e-20 0.105622 -7.23403e-19 -0.00239082)
(-0.0979581 -0.0605718 -2.22994e-19 0.100486 1.4306e-19 -0.0025277)
(-0.0928923 -0.0585935 -2.63186e-20 0.0955465 -6.06784e-19 -0.00265413)
(-0.0880541 -0.0566164 9.2888e-20 0.090824 -9.6292e-20 -0.00276988)
(-0.08341 -0.054656 1.255e-20 0.0862846 -6.1185e-20 -0.00287466)
(-0.0789725 -0.0527284 -1.34926e-19 0.0819406 1.4234e-19 -0.00296805)