/*--------------------------------*- C++ -*----------------------------------*\
| =========                 |                                                 |
| \\      /  F ield         | foam-extend: Open Source CFD                    |
|  \\    /   O peration     | Version:  3.0                                   |
|   \\  /    A nd           | Web:         http://www.extend-project.de       |
|    \\/     M anipulation  |                                                 |
\*---------------------------------------------------------------------------*/
FoamFile
{
    version     2.0;
    format      ascii;
    class       volSymmTensorField;
    location    "18";
    object      sigma;
}
// * * * * * * * * * * * * * * * * * * * * * * * * * * * * * * * * * * * * * //

dimensions      [0 0 0 0 0 0 0];

internalField   nonuniform List<symmTensor> 
2688
(
(-0.1772090455 -0.004830564246 4.303956104e-20 0.177273049 8.953963411e-22 -6.400352339e-05)
(-0.1736341595 -0.005717309332 6.456105931e-20 0.1738087709 6.322707614e-21 -0.0001746113813)
(-0.1662170659 -0.006111686088 1.177242509e-20 0.1664912349 4.961910115e-20 -0.0002741689538)
(-0.1568972573 -0.006212928805 -5.262742098e-22 0.1572612526 6.308474722e-20 -0.0003639953252)
(-0.146765284 -0.006138996152 2.18063224e-20 0.1472102044 8.046110497e-20 -0.0004449203996)
(-0.136426588 -0.005961093933 3.828962416e-20 0.1369439714 6.152923079e-20 -0.0005173833791)
(-0.1262280447 -0.005723435532 4.86933459e-20 0.1268096395 7.528879227e-20 -0.0005815947392)
(-0.1163563515 -0.005453718459 2.210183007e-20 0.1169938649 4.156940202e-20 -0.0006375133684)
(-0.1069143123 -0.005169619674 -3.437268628e-21 0.1075992916 3.55281668e-20 -0.000684979342)
(-0.09794952099 -0.004882551112 8.591734133e-21 0.09867318439 5.355001384e-21 -0.0007236634022)
(-0.08948244762 -0.00459983747 2.31658952e-20 0.09023561686 5.095515923e-20 -0.0007531692354)
(-0.08151626566 -0.004326421097 3.297348819e-20 0.08228923949 6.929218224e-20 -0.0007729738259)
(-0.07404624994 -0.004065398921 6.275489431e-20 0.07482878277 5.136603641e-20 -0.0007825328345)
(-0.06706568577 -0.003819132285 3.438689235e-20 0.06784690218 6.683776626e-20 -0.0007812164144)
(-0.06056605207 -0.003589004758 -3.175662045e-20 0.06133447456 8.586563099e-20 -0.0007684224915)
(-0.05454405359 -0.003376462544 -1.951831328e-21 0.05528757243 9.177869514e-20 -0.0007435188404)
(-0.04899586702 -0.003182289657 2.655974713e-20 0.04970183115 7.801275703e-20 -0.0007059641256)
(-0.04392725806 -0.003007789964 -8.006579969e-21 0.04458251633 1.191123496e-19 -0.0006552582686)
(-0.03934289919 -0.002853667392 -3.539760648e-22 0.03993395851 8.7502409e-20 -0.0005910593124)
(-0.03526058528 -0.002721470601 3.536382443e-20 0.035773739 9.869241138e-20 -0.0005131537155)
(-0.0316957528 -0.002612125942 4.30466394e-20 0.03211730276 1.510820326e-20 -0.0004215499633)
(-0.02868065788 -0.002527699151 1.809215154e-20 0.02899714922 2.802128391e-20 -0.0003164913456)
(-0.02624398414 -0.002469792716 1.902875991e-21 0.02644251462 -4.793140983e-21 -0.0001985304811)
(-0.02443364616 -0.002440139385 -2.000339753e-21 0.02450226267 -5.570295608e-20 -6.861650499e-05)
(-0.1767149235 -0.01448196045 3.756426708e-20 0.1767787304 -1.277913791e-21 -6.380688628e-05)
(-0.1727116273 -0.01710235245 7.372800516e-20 0.1728856879 3.08593357e-21 -0.0001740605582)
(-0.1650497988 -0.01826167376 3.659143233e-20 0.1653231168 2.259825982e-20 -0.0002733179714)
(-0.1555980099 -0.01855151107 5.254254111e-21 0.155960868 4.920625882e-20 -0.0003628580976)
(-0.1454046021 -0.01832213607 1.492629754e-20 0.145848137 6.890936129e-20 -0.0004435348913)
(-0.1350488083 -0.01778488367 3.610692124e-20 0.1355645725 4.646496281e-20 -0.0005157642055)
(-0.1248611166 -0.01707094251 3.969995774e-20 0.1254408867 7.927509622e-20 -0.0005797700117)
(-0.1150175924 -0.01626247932 -4.353738077e-21 0.1156531017 2.927586402e-20 -0.0006355093385)
(-0.1056141017 -0.01541190725 -3.376559235e-20 0.1062969249 5.739271058e-20 -0.0006828231738)
(-0.09669359447 -0.01455304815 1.220414698e-20 0.09741497916 1.291947454e-20 -0.000721384692)
(-0.08827346713 -0.013707601 5.757235718e-20 0.08902426669 3.024453483e-20 -0.0007507995573)
(-0.08035471569 -0.01289019856 3.844838286e-20 0.08112526239 1.896360596e-20 -0.0007705466986)
(-0.07293118488 -0.01211000296 5.922625574e-20 0.07371126736 3.17524148e-21 -0.0007800824822)
(-0.06599503873 -0.01137399965 7.051938729e-20 0.06677381672 4.227536993e-20 -0.0007787779875)
(-0.05953705604 -0.01068627623 3.359197059e-20 0.06030308668 7.023331022e-20 -0.0007660306387)
(-0.05355326376 -0.01005110538 2.654662602e-20 0.05429447215 1.332246918e-19 -0.0007412083868)
(-0.04803945221 -0.009470793457 8.509722729e-20 0.04874322223 2.385419772e-20 -0.0007037700226)
(-0.04300085574 -0.008949196725 3.377823388e-20 0.04365407284 1.698530622e-19 -0.0006532170956)
(-0.03844186665 -0.008488414338 2.161290911e-20 0.03903107807 1.810581393e-19 -0.0005892114169)
(-0.03437974579 -0.008093080877 3.454169611e-20 0.03489128896 3.995116727e-20 -0.0005115431668)
(-0.03082966901 -0.007765958408 -3.337997337e-20 0.03124989248 3.310694695e-20 -0.0004202234728)
(-0.02782328546 -0.007513155477 1.548894394e-20 0.02813877993 1.377502746e-19 -0.0003154944763)
(-0.02538882882 -0.00733943956 -7.057246986e-20 0.02558673431 9.194305889e-20 -0.0001979054837)
(-0.02357388868 -0.007250039002 3.207694053e-20 0.0236422894 -5.311264102e-20 -6.840071797e-05)
(-0.1757264776 -0.02410370656 2.596500772e-20 0.1757898721 2.644140798e-20 -6.339448417e-05)
(-0.1708802069 -0.02833927482 5.980078875e-20 0.171053142 3.342818173e-21 -0.0001729350975)
(-0.1627370769 -0.03019268351 3.966318542e-20 0.1630086241 -3.117209617e-20 -0.0002715472576)
(-0.1530263654 -0.03062979751 2.706048245e-20 0.15338688 1.510623887e-20 -0.0003605145385)
(-0.1427128729 -0.03022230107 1.638894892e-20 0.1431535562 6.00143947e-20 -0.0004406833118)
(-0.1323244097 -0.02931495649 4.150465611e-20 0.1328368707 5.206331154e-20 -0.0005124610244)
(-0.1221590039 -0.02812165343 4.817913248e-20 0.122735077 8.937143919e-20 -0.0005760730932)
(-0.1123717903 -0.0267762578 -5.622864478e-21 0.1130032634 8.74773185e-20 -0.0006314730684)
(-0.1030450006 -0.0253641035 -1.365682278e-20 0.1037235017 9.638425028e-20 -0.0006785010438)
(-0.09421244955 -0.02394018802 -3.778472762e-20 0.09492928035 9.584956089e-20 -0.0007168308051)
(-0.08588548083 -0.02253976034 1.243796928e-20 0.08663154991 1.123802513e-19 -0.0007460690814)
(-0.07806080257 -0.02118655275 4.15045499e-21 0.07882649941 3.739234081e-20 -0.0007656968335)
(-0.07072944409 -0.01989540144 7.517129495e-20 0.07150461727 -1.438797141e-20 -0.0007751731837)
(-0.06388136188 -0.01867760663 1.136751069e-19 0.0646552353 9.492586242e-21 -0.0007738734162)
(-0.05750595485 -0.01753976423 7.355901346e-20 0.05826715448 7.125036422e-20 -0.0007611996309)
(-0.05159791187 -0.01648878712 1.419704153e-20 0.05233443722 9.268941415e-20 -0.0007365253587)
(-0.04615225764 -0.0155283983 5.510040235e-20 0.04685157251 6.149705336e-20 -0.0006993148747)
(-0.0411731776 -0.01466486772 2.704945964e-19 0.04182225204 1.65100596e-20 -0.0006490744382)
(-0.03666451811 -0.0139016178 -2.27564317e-20 0.03724998802 6.315377178e-20 -0.0005854699095)
(-0.03264249671 -0.01324623101 -1.059248531e-19 0.0331507895 5.249197155e-20 -0.0005082927919)
(-0.02912177195 -0.01270324357 1.732233952e-19 0.02953932548 2.507408817e-20 -0.0004175535323)
(-0.02613278827 -0.01228266213 2.15235113e-19 0.02644627929 -1.957705823e-20 -0.0003134910255)
(-0.02370289407 -0.01199231698 -1.529198355e-19 0.02389954352 1.327100774e-19 -0.0001966494477)
(-0.02187903398 -0.01184086269 -2.642559571e-20 0.02194700082 -5.734464858e-20 -6.796683406e-05)
(-0.1742432552 -0.03367563749 -1.334971469e-22 0.1743060355 4.353363596e-20 -6.278032656e-05)
(-0.168166542 -0.03933285357 2.574115403e-20 0.1683378069 -3.490486729e-20 -0.0001712649115)
(-0.1593220974 -0.04176459649 4.192776417e-20 0.1595910231 -8.672991385e-20 -0.0002689257441)
(-0.1492353036 -0.04228150475 5.599138863e-20 0.1495923441 1.124368788e-21 -0.0003570405119)
(-0.1387486915 -0.04165890705 4.381975828e-20 0.1391851409 3.529611251e-20 -0.0004364494242)
(-0.1283148054 -0.04036398895 5.168041922e-20 0.1288223555 6.356985756e-20 -0.0005075501126)
(-0.1181841964 -0.0386863676 8.862635252e-20 0.1187547638 7.62382409e-20 -0.000570567413)
(-0.1084814176 -0.03680707985 5.79623568e-21 0.109106871 1.318254666e-19 -0.0006254533437)
(-0.09926876608 -0.03484140657 3.454844103e-21 0.09994081368 5.914235977e-20 -0.0006720475962)
(-0.09056669028 -0.03286350482 5.342041525e-20 0.09127671591 4.521380796e-20 -0.0007100256285)
(-0.08237768161 -0.03092082661 4.191342784e-20 0.08311667786 6.411001858e-20 -0.0007389962511)
(-0.07469218264 -0.02904524016 -7.101192783e-20 0.07545062692 9.409830603e-21 -0.0007584442734)
(-0.06749711258 -0.02725661632 -2.094588011e-20 0.06826494549 6.378979134e-20 -0.000767832911)
(-0.06077920598 -0.02557006624 1.538645199e-19 0.06154574956 1.129495448e-20 -0.0007665435784)
(-0.05452584843 -0.02399437447 1.200042891e-19 0.05527983278 1.850741282e-19 -0.0007539843491)
(-0.04872977569 -0.02253878958 9.045330544e-20 0.04945931194 -9.186657565e-21 -0.0007295362479)
(-0.04338489724 -0.02120827619 2.627100333e-20 0.0440775676 -7.225974768e-20 -0.000692670359)
(-0.03849386987 -0.02001128961 7.660425025e-20 0.03913676913 -1.337946081e-19 -0.0006428992626)
(-0.03405974421 -0.01895245831 1.840406398e-19 0.03463963833 -1.038018624e-19 -0.0005798941198)
(-0.03009720613 -0.01804209195 6.945763803e-21 0.03060065478 -6.29159738e-21 -0.0005034486579)
(-0.02662014036 -0.0172863943 -1.413080669e-19 0.02703371364 1.12433603e-20 -0.0004135732744)
(-0.02365722912 -0.0166990332 2.207061874e-19 0.02396773193 -3.025889191e-20 -0.0003105028092)
(-0.02123453311 -0.0162907353 6.69134557e-20 0.02142930811 1.296776136e-19 -0.0001947750022)
(-0.01939804018 -0.01607348146 -1.947999095e-20 0.01946535922 -2.886611065e-20 -6.731903501e-05)
(-0.1722647448 -0.04317699113 -4.448205504e-20 0.1723267135 5.730182336e-20 -6.196874082e-05)
(-0.1646098644 -0.04999294593 -4.98715793e-20 0.1647789201 -2.27962199e-20 -0.0001690557374)
(-0.1548681949 -0.05284586265 2.939956952e-20 0.1551336549 -5.949025897e-20 -0.0002654600246)
(-0.1443025049 -0.05335102754 8.979422665e-20 0.1446549498 1.842970952e-20 -0.0003524448903)
(-0.1335978844 -0.05246324725 5.789517738e-20 0.1340287274 3.764597172e-20 -0.0004308430299)
(-0.1231100083 -0.05075717545 7.67981103e-20 0.1236110505 4.494609309e-20 -0.0005010422597)
(-0.113028337 -0.04858867027 1.355006972e-19 0.1135916026 3.070334047e-20 -0.0005632655764)
(-0.1034380948 -0.04617978256 2.499024915e-20 0.1040555588 1.256800518e-19 -0.0006174640101)
(-0.09437594024 -0.04367169956 -6.706607105e-20 0.09503941793 3.393803744e-20 -0.0006634776968)
(-0.08584513627 -0.04115499785 -2.585670292e-20 0.08654612096 2.579406367e-20 -0.0007009846902)
(-0.07783679723 -0.03868750282 4.781151466e-20 0.07856639458 -7.762228502e-21 -0.0007295973454)
(-0.07033332051 -0.03630790815 9.190836444e-21 0.07108212626 1.018125102e-20 -0.0007488057562)
(-0.06331635101 -0.03404025127 3.186812521e-20 0.06407443003 1.050368368e-19 -0.0007580790166)
(-0.05676849027 -0.03190276965 1.835254213e-19 0.05752529641 4.420767326e-20 -0.000756806137)
(-0.05067454235 -0.02990600353 1.771393436e-19 0.05141894531 6.06048189e-20 -0.0007444029633)
(-0.04502473715 -0.02806112414 -1.460517378e-19 0.04574499651 -2.641927077e-19 -0.0007202593595)
(-0.03981155487 -0.02637410024 -8.18713546e-20 0.04049540961 -1.364079745e-19 -0.0006838547402)
(-0.03503568992 -0.02485526025 9.857684576e-20 0.03567039921 3.91840568e-20 -0.0006347092929)
(-0.03069917239 -0.02351027697 3.931909327e-20 0.03127167279 6.185339726e-20 -0.0005725003983)
(-0.0268147139 -0.02235188826 1.048494371e-19 0.02731173907 2.606871927e-20 -0.0004970251708)
(-0.02339519315 -0.02138782327 9.519027476e-20 0.02380348737 1.613873587e-19 -0.0004082942124)
(-0.02046701161 -0.02063508861 2.749701039e-19 0.02077355042 1.663311498e-19 -0.0003065388024)
(-0.01805457191 -0.02010707652 1.183023611e-19 0.01824685996 -1.130132528e-20 -0.0001922880567)
(-0.01620261358 -0.01981895602 -1.242128058e-19 0.01626907284 2.833006446e-19 -6.645925326e-05)
(-0.169790499 -0.05258624275 -5.262303673e-20 0.1698514624 1.553511084e-20 -6.096333073e-05)
(-0.1602609393 -0.0602363939 -1.062532773e-19 0.1604272556 1.717195766e-20 -0.0001663162537)
(-0.1494571562 -0.0633166329 1.130878647e-20 0.1497183181 -2.879258265e-20 -0.0002611618837)
(-0.138328221 -0.0636972849 1.01482195e-19 0.1386749646 3.549287342e-20 -0.0003467436088)
(-0.1273712027 -0.06248276466 7.894731166e-20 0.1277950863 8.175922368e-21 -0.0004238835434)
(-0.1168261562 -0.06033670886 5.590862208e-20 0.1173191161 2.360844259e-21 -0.0004929598181)
(-0.1068096479 -0.05766949772 1.763606122e-19 0.1073638404 7.592497975e-21 -0.0005541925511)
(-0.09735999761 -0.05473658644 1.542024817e-19 0.09796752993 -4.700043623e-20 -0.0006075323177)
(-0.088483297 -0.05170007511 1.863713149e-20 0.08913611724 -1.59857188e-19 -0.0006528202392)
(-0.08016233161 -0.04866357529 -4.738584217e-20 0.08085206992 1.228895404e-19 -0.0006897383082)
(-0.0723746682 -0.045693026 -7.647107404e-22 0.07309257179 5.314556977e-20 -0.0007179035878)
(-0.06509313202 -0.04283232924 1.548982498e-20 0.06582994532 5.336191186e-20 -0.0007368132998)
(-0.05829309834 -0.04010861682 3.405887091e-21 0.05903904212 1.097002588e-19 -0.0007459437738)
(-0.05195225706 -0.03754240756 6.844104008e-20 0.05269695062 1.357147562e-19 -0.0007446935598)
(-0.04605234767 -0.03514546221 7.971200411e-21 0.04678483517 -9.091916693e-21 -0.0007324874963)
(-0.04058062191 -0.03293036474 -2.454816792e-19 0.041289348 7.058530864e-20 -0.0007087260969)
(-0.03552786393 -0.03090379415 5.011020377e-20 0.03620076213 3.161646958e-19 -0.000672898205)
(-0.03089243159 -0.02907756754 1.977145459e-19 0.0315169646 2.135982864e-19 -0.0006245330072)
(-0.02667513929 -0.02745820372 1.285331693e-19 0.02723845446 2.068287709e-19 -0.0005633151767)
(-0.02288633678 -0.02606050047 3.434132168e-20 0.02337538267 2.280360841e-19 -0.0004890458849)
(-0.01953769327 -0.02489353439 1.457908122e-20 0.01993942984 3.12358532e-19 -0.0004017365666)
(-0.0166528736 -0.02397724771 6.044826643e-20 0.01695448799 4.61358009e-19 -0.0003016143873)
(-0.01425429082 -0.02332741386 3.829951786e-19 0.01444348945 3.488890526e-19 -0.0001891986395)
(-0.01238516657 -0.022962223 -1.580011162e-20 0.01245055777 4.181505962e-19 -6.539120213e-05)
(-0.1668203266 -0.06188091747 -2.355280042e-20 0.1668800939 -2.854901639e-20 -5.976730261e-05)
(-0.1551807747 -0.06998867962 -1.137124808e-19 0.1553438305 2.781876039e-21 -0.0001630558074)
(-0.1431870571 -0.07307153189 -2.526425559e-20 0.1434431024 -5.070354019e-21 -0.0002560453564)
(-0.131432581 -0.07319716665 1.368980873e-19 0.1317725361 -4.095127316e-20 -0.0003399551314)
(-0.1202013099 -0.07158488543 1.018841402e-19 0.1206169035 -8.778134823e-20 -0.0004155936695)
(-0.1096023325 -0.06896582413 2.099458335e-20 0.1100856614 7.152343596e-20 -0.000483328918)
(-0.09966967987 -0.06579126589 9.919535376e-20 0.1002130575 2.729251495e-21 -0.0005433776005)
(-0.0903886007 -0.0623412301 4.825435447e-20 0.09098429074 -2.207118627e-19 -0.000595690045)
(-0.08173061627 -0.05879292798 4.32358469e-20 0.08237072548 -7.960629289e-20 -0.0006401092055)
(-0.07365537379 -0.05525907478 2.173166246e-19 0.07433169587 4.534108526e-20 -0.0006763220836)
(-0.06612514311 -0.05181109926 -1.079023164e-21 0.0668290951 -9.864608616e-21 -0.0007039519888)
(-0.05910195434 -0.04849623412 2.792435207e-20 0.0598244591 1.326923086e-19 -0.0007225047612)
(-0.05255411852 -0.04534346176 8.042394346e-20 0.05328558428 2.216063499e-19 -0.0007314657632)
(-0.04645379502 -0.04237460162 1.077223483e-19 0.04718403955 1.759290603e-19 -0.0007302445333)
(-0.04077927645 -0.03960201442 1.98709804e-19 0.04149755308 8.200814707e-21 -0.0007182766303)
(-0.03551446052 -0.0370391043 1.408410901e-20 0.03620943488 2.445485302e-19 -0.0006949743647)
(-0.03064822355 -0.03469291959 5.583331134e-20 0.03130806093 7.52451266e-20 -0.0006598373756)
(-0.02617628435 -0.03257631867 6.939140156e-20 0.02678868933 -8.825608599e-22 -0.0006124049718)
(-0.0220980832 -0.03069643725 2.22557855e-19 0.02265045321 -1.513853008e-20 -0.0005523700081)
(-0.01842128782 -0.0290697046 3.499244539e-19 0.01890082682 5.154838877e-20 -0.0004795389994)
(-0.01515618763 -0.0277063393 5.87892783e-19 0.01555011178 -6.452447021e-21 -0.0003939241502)
(-0.01232332786 -0.02662874749 4.412298239e-19 0.01261907635 3.850037724e-19 -0.0002957484911)
(-0.009942849276 -0.0258547518 4.159090427e-19 0.01012836854 2.807850804e-19 -0.0001855192624)
(-0.008056214773 -0.02540536327 -1.096543584e-19 0.008120334682 -3.950762334e-20 -6.411990957e-05)
(-0.16335451 -0.07103746891 -1.132517546e-20 0.1634128945 -5.96705798e-21 -5.838449782e-05)
(-0.1494390909 -0.07918535777 -8.1688964e-20 0.1495983759 -1.968195443e-20 -0.0001592849437)
(-0.1361696613 -0.08202203906 -3.389562151e-20 0.1364197878 -7.951662175e-20 -0.0002501264848)
(-0.1237523486 -0.0817484804 7.463878962e-20 0.1240844491 -1.018889269e-19 -0.0003321004958)
(-0.1122391651 -0.0796602912 1.796232612e-19 0.112645164 -6.231480463e-20 -0.0004059989286)
(-0.1015967531 -0.0765322383 1.158447916e-19 0.1020689321 9.547975609e-20 -0.000472178937)
(-0.09176942118 -0.07284138156 -1.527344468e-20 0.0923002744 -1.186603505e-20 -0.0005308532239)
(-0.08268477748 -0.06888248687 1.803133514e-20 0.0832667498 -1.171351928e-19 -0.0005819723297)
(-0.07427682193 -0.06484143505 3.10442495e-20 0.07490220356 1.204957695e-19 -0.0006253816358)
(-0.06648011727 -0.06083568126 8.029315427e-20 0.06714089179 2.925087143e-20 -0.0006607745183)
(-0.05924036668 -0.05693923224 8.79020339e-20 0.05992814846 7.44087473e-20 -0.0006877817772)
(-0.05250792509 -0.05320056891 2.373364049e-19 0.05321384482 1.080586231e-19 -0.0007059197286)
(-0.04624347393 -0.04964914477 1.101203956e-19 0.04695815814 1.562890462e-19 -0.0007146842076)
(-0.0404132032 -0.04630699272 -5.460344968e-20 0.0411267009 5.834160396e-20 -0.000713497705)
(-0.03499169166 -0.04318638516 5.936278371e-20 0.03569349943 5.317829602e-20 -0.0007018077665)
(-0.02995921566 -0.04030088937 5.654016501e-20 0.03063825591 4.47219662e-20 -0.0006790402513)
(-0.02530259518 -0.03765754458 -6.991523271e-20 0.02594730179 -4.546909736e-20 -0.0006447066129)
(-0.0210146882 -0.03526975441 1.226810912e-19 0.02161304565 -8.772000058e-20 -0.0005983574491)
(-0.01709344368 -0.03314501741 1.420102502e-19 0.01763313843 -1.227000116e-19 -0.000539694755)
(-0.01354360424 -0.0313009192 1.130500561e-21 0.01401213502 -1.145975499e-19 -0.0004685307716)
(-0.01037394485 -0.02974859087 3.55671983e-19 0.01075882401 -2.167013027e-21 -0.0003848791695)
(-0.007601591897 -0.0285123774 8.892979504e-19 0.007890549574 -4.446723851e-20 -0.0002889576771)
(-0.005244186828 -0.02761178102 6.449547735e-19 0.005425447333 -3.290682399e-19 -0.0001812605046)
(-0.003341220744 -0.02707041299 3.108021059e-20 0.003403869665 -1.782578099e-19 -6.264892057e-05)
(-0.1593940666 -0.08003118417 4.785273884e-20 0.1594508855 -8.799167048e-20 -5.681885384e-05)
(-0.1431125835 -0.08777320854 -7.427309288e-20 0.1432675986 -9.695201503e-20 -0.0001550150733)
(-0.12852747 -0.09009839783 -2.307002299e-20 0.1287708934 -1.940057751e-19 -0.0002434234078)
(-0.1154372426 -0.08927231475 -4.662061832e-21 0.1157604464 4.878191511e-20 -0.0003232038123)
(-0.1036499222 -0.08662554185 1.778445364e-19 0.1040450512 2.520196881e-20 -0.0003951290055)
(-0.09298244027 -0.08295091025 2.073359652e-19 0.09344198467 2.279578262e-20 -0.0004595443998)
(-0.08328487395 -0.0787350561 -1.189214124e-20 0.08380153223 -4.179593485e-20 -0.0005166582772)
(-0.07442436495 -0.07427698145 -1.766253172e-20 0.07499078657 -3.068748847e-23 -0.0005664216208)
(-0.06629558699 -0.06976434155 1.469983696e-19 0.06690427006 1.007146508e-19 -0.0006086830716)
(-0.05880685286 -0.06531466251 6.869492381e-20 0.05944999632 1.684026488e-19 -0.0006431434556)
(-0.0518865507 -0.06100141451 2.246912854e-20 0.05255599329 4.828225847e-20 -0.0006694425878)
(-0.04547285558 -0.05687210036 1.635894922e-19 0.04615996436 7.489475731e-20 -0.000687108783)
(-0.03951850267 -0.05295517054 2.802127132e-19 0.04021415284 1.151698531e-19 -0.0006956501682)
(-0.03398347104 -0.04927170972 8.516904775e-20 0.03467797476 7.820126844e-20 -0.000694503717)
(-0.02883848332 -0.04583316717 1.178103567e-19 0.02952161404 1.508105319e-19 -0.0006831307238)
(-0.02406004648 -0.04265257078 3.703554102e-20 0.02472101828 1.129102007e-19 -0.000660971806)
(-0.01963284377 -0.03973654655 -1.262420654e-19 0.0202603953 2.988302602e-20 -0.000627551534)
(-0.01554673937 -0.03709851199 -2.467556042e-19 0.01612917209 1.243909203e-19 -0.000582432728)
(-0.01179811875 -0.03474605712 3.518603841e-20 0.01232344581 2.153425113e-19 -0.0005253270618)
(-0.008388640134 -0.03269741453 1.856100819e-19 0.008844693371 2.389571376e-19 -0.0004560532365)
(-0.005325469562 -0.03096438197 9.816687538e-20 0.005700095667 2.345841689e-19 -0.000374626106)
(-0.002622105268 -0.02957267853 -4.506204942e-20 0.002903363524 -5.599460158e-20 -0.000281258255)
(-0.0002935262171 -0.02854308731 4.278915382e-19 0.0004699556265 -2.589852396e-19 -0.0001764294094)
(0.001622926092 -0.02790157597 2.974236291e-19 -0.001561947698 -3.375703197e-19 -6.097839414e-05)
(-0.154941019 -0.08883615032 8.722667083e-20 0.1549960944 -7.811764046e-20 -5.507537599e-05)
(-0.1362830254 -0.09571109147 -3.733212033e-21 0.1364332851 -1.785380059e-19 -0.000150259764)
(-0.1203904971 -0.0972510103 -7.869312696e-20 0.1206264544 -7.049065722e-21 -0.0002359573696)
(-0.1066459161 -0.09571475593 5.381847253e-20 0.1069592094 1.41808386e-19 -0.0003132932278)
(-0.09460844835 -0.0924249766 9.629943368e-20 0.09499146656 3.495771922e-20 -0.0003830182108)
(-0.08394249955 -0.08816603612 2.43058993e-19 0.08438796466 -4.022610492e-20 -0.0004454651142)
(-0.07440223019 -0.08341733974 4.597550935e-20 0.0749030674 -4.96160228e-20 -0.0005008372101)
(-0.06579332787 -0.0784712254 3.857753932e-21 0.06634241422 2.636483448e-20 -0.0005490863474)
(-0.05797054502 -0.07350997455 1.665289617e-19 0.05856061002 1.096295525e-19 -0.0005900650053)
(-0.05081560097 -0.06864634591 1.393374315e-19 0.05143908372 1.338071301e-19 -0.0006234827476)
(-0.04423937116 -0.06395004737 -1.63913063e-20 0.04488836078 4.373655597e-20 -0.0006489896236)
(-0.03816774086 -0.05946529869 1.911183745e-19 0.03883386861 1.081485535e-19 -0.0006661277504)
(-0.03254544533 -0.0552180223 3.169122732e-19 0.03321986435 -3.690892462e-20 -0.0006744190163)
(-0.0273262182 -0.05122715307 2.254716048e-19 0.02799953505 -1.723739326e-19 -0.0006733168508)
(-0.02247691617 -0.04750255736 2.831394661e-19 0.02313921384 -8.406934702e-20 -0.0006622976629)
(-0.01797025355 -0.04405599704 1.875030278e-19 0.01861107218 -9.614285459e-20 -0.000640818635)
(-0.01378876906 -0.04089326666 6.179465152e-20 0.01439718765 -4.352435959e-20 -0.0006084185958)
(-0.009919292933 -0.03802724724 2.730668417e-19 0.01048396673 -3.64267763e-20 -0.0005646737919)
(-0.006356622272 -0.03546533829 -6.123478197e-20 0.006865928784 2.330668421e-19 -0.000509306512)
(-0.003099259183 -0.03322589089 -1.061440557e-20 0.00354140135 1.804295875e-19 -0.0004421421668)
(-0.0001527077743 -0.03132111301 1.674073066e-19 0.0005159049687 3.133276066e-19 -0.0003631971944)
(0.002473275477 -0.02977751042 -1.71322822e-19 -0.002200597601 2.732130903e-19 -0.0002726778765)
(0.004766471219 -0.02861673108 -4.36339447e-19 -0.004595422991 -2.146068758e-19 -0.0001710482282)
(0.006691830591 -0.02786684265 1.68975301e-19 -0.006632710591 -1.090127561e-19 -5.911999932e-05)
(-0.149998692 -0.09742526333 3.670205407e-20 0.1500518515 -5.573346352e-21 -5.315945037e-05)
(-0.1290352633 -0.1029704736 -6.236542948e-21 0.1291802973 -5.036996206e-20 -0.0001450339262)
(-0.1118928683 -0.1034512777 -6.419416127e-20 0.1121206203 1.732217891e-19 -0.0002277519902)
(-0.09754171553 -0.1010479139 4.902590508e-20 0.09784411573 7.753051118e-20 -0.0003024001914)
(-0.08529459886 -0.09703184538 2.544646988e-20 0.08566430404 1.416170933e-21 -0.0003697051771)
(-0.07466513686 -0.09215223493 2.71044417e-19 0.07509512295 -1.13107311e-19 -0.0004299860926)
(-0.06531277909 -0.08686432673 1.524068991e-19 0.06579621985 -8.778867333e-20 -0.0004834407674)
(-0.05698265295 -0.08144282097 1.609078862e-19 0.05751267507 -1.290222301e-19 -0.0005300221266)
(-0.04949023147 -0.07605743119 3.217304571e-19 0.05005981871 -4.366989607e-20 -0.0005695872477)
(-0.04269113854 -0.07081128318 3.544707283e-19 0.04329299398 -9.406429538e-20 -0.000601855442)
(-0.03647910174 -0.06576707973 3.539284726e-20 0.03710559016 -3.694858329e-20 -0.0006264884282)
(-0.03076801106 -0.06096344273 3.573570052e-20 0.03141105468 1.290257776e-20 -0.0006430436156)
(-0.02549481624 -0.05642223572 9.689920888e-20 0.02614587467 -7.906879845e-20 -0.0006510584332)
(-0.02060718351 -0.05215903816 2.732046821e-20 0.02125718786 -9.357486928e-20 -0.0006500043538)
(-0.01606822815 -0.04818137189 8.786140405e-20 0.01670760277 1.93726701e-19 -0.0006393746244)
(-0.01184697735 -0.04449900345 6.561302494e-20 0.01246562163 1.847364114e-19 -0.0006186442855)
(-0.007923891311 -0.04111647667 -9.90266967e-20 0.008511258835 -6.687537621e-20 -0.0005873675244)
(-0.00428282237 -0.03804558214 1.143262943e-19 0.004827957367 -2.109361952e-20 -0.0005451349971)
(-0.0009170029108 -0.03529324524 5.024172251e-19 0.00140868288 3.64940708e-19 -0.0004916799695)
(0.002178202919 -0.03287740153 2.573167676e-19 -0.001751367534 2.097169531e-19 -0.0004268353857)
(0.004998963838 -0.03081041026 6.248824431e-19 -0.004648344671 6.215039324e-20 -0.0003506191674)
(0.007539281351 -0.02911896938 2.194480039e-19 -0.007276049908 -4.46136398e-19 -0.0002632314433)
(0.009789724768 -0.0278251701 -4.856162754e-19 -0.009624604972 -4.53289558e-19 -0.0001651197958)
(0.01171764443 -0.02695891525 -9.182939872e-20 -0.01166057534 2.588039512e-20 -5.706908968e-05)
(-0.1445719951 -0.1057703024 2.100926054e-20 0.1446230724 5.466117356e-20 -5.107723387e-05)
(-0.1214551605 -0.1095356203 -7.35347904e-21 0.1215945147 7.163264839e-20 -0.0001393542535)
(-0.1031693318 -0.1086918619 -5.172809065e-20 0.1033881653 1.780573726e-19 -0.0002188334774)
(-0.0882883314 -0.1052702244 4.32781151e-20 0.08857889094 9.01412465e-21 -0.0002905595369)
(-0.07588837183 -0.1004486318 -6.237957125e-20 0.0762436043 -5.275426076e-20 -0.0003552324774)
(-0.06533855171 -0.09491487983 1.122772571e-19 0.06575170861 -5.687849674e-20 -0.0004131568959)
(-0.05620769048 -0.08908348797 1.113176567e-19 0.05667221507 -8.603585755e-20 -0.0004645245856)
(-0.04818311993 -0.0832007896 -6.261093798e-20 0.04869240984 -7.143612924e-20 -0.0005092899063)
(-0.04104290562 -0.07741690076 1.439568147e-19 0.04159022067 7.106811783e-22 -0.0005473150517)
(-0.03461790997 -0.0718205636 3.205116701e-19 0.03519624021 1.892316641e-21 -0.0005783302457)
(-0.02878563712 -0.06646431222 2.924647829e-19 0.02938764712 -1.981939774e-20 -0.0006020100077)
(-0.02344867718 -0.06137891427 1.241678925e-19 0.02406660591 8.845249414e-20 -0.0006179287254)
(-0.01853667606 -0.05658068365 8.212029556e-20 0.01916231686 8.327984956e-20 -0.0006256408078)
(-0.01399162067 -0.05208067101 2.309000517e-19 0.01461625838 8.24727984e-20 -0.0006246377022)
(-0.009773143656 -0.04788331312 4.348325519e-19 0.01038757462 2.695383468e-19 -0.0006144309656)
(-0.005846817253 -0.04399567129 3.236935842e-19 0.006441332567 -1.873741847e-19 -0.000594515314)
(-0.002191162842 -0.04042063075 -8.596184391e-20 0.002755624418 -3.294597343e-19 -0.0005644615759)
(0.001212794468 -0.03716835103 1.311653106e-19 -0.0006889185494 3.070426168e-20 -0.0005238759182)
(0.004373314708 -0.03424500557 5.755529194e-19 -0.003900811284 -1.069765528e-19 -0.0004725034242)
(0.007298064118 -0.03166759084 1.452688074e-19 -0.006887879482 -4.049291406e-19 -0.0004101846364)
(0.009984852478 -0.02944836149 -3.221105406e-21 -0.009647913472 -4.850334884e-19 -0.0003369390064)
(0.012431358 -0.02761362264 2.033050285e-19 -0.01217839845 -6.224709426e-19 -0.0002529595502)
(0.01463089838 -0.02618549185 -2.557026442e-19 -0.01447222252 -7.770033935e-20 -0.0001586758504)
(0.01655329038 -0.02519543863 4.559675157e-20 -0.01649844814 1.826395878e-19 -5.484223642e-05)
(-0.1386677166 -0.1138420483 1.435974691e-20 0.138716552 8.173918513e-20 -4.883531866e-05)
(-0.1136275451 -0.1154034441 5.305727418e-20 0.1137607839 7.028231564e-20 -0.0001332388101)
(-0.09435178272 -0.1129863663 -4.858573066e-20 0.09456101308 1.429065258e-19 -0.0002092303628)
(-0.07904546793 -0.1084060257 9.414522972e-20 0.07932327723 -1.167591355e-19 -0.0002778092956)
(-0.06656508336 -0.1027065674 -5.254034623e-20 0.06690473022 -7.114279481e-20 -0.0003396468624)
(-0.05614585098 -0.09648957718 2.578893402e-20 0.05654088311 4.784466497e-20 -0.0003950321257)
(-0.04727281802 -0.0901131317 1.64066422e-19 0.04771696841 -1.359769271e-20 -0.0004441503843)
(-0.03958009151 -0.0837850262 4.463241795e-20 0.04006704911 2.265376694e-20 -0.0004869575971)
(-0.03281138935 -0.07762911925 1.333336346e-20 0.03333471109 1.283363622e-19 -0.000523321731)
(-0.02677495341 -0.07171527403 1.028049863e-19 0.02732793823 1.357401655e-19 -0.0005529848154)
(-0.02133352819 -0.06608286499 1.988791711e-19 0.02190916365 2.192423573e-20 -0.0005756354591)
(-0.01637948703 -0.06075267527 2.840562755e-19 0.01697035342 7.162035191e-20 -0.0005908663859)
(-0.01183591026 -0.05573406328 2.335206988e-19 0.01243416088 -2.094979819e-19 -0.000598250625)
(-0.007639697237 -0.05103244508 -3.936123504e-20 0.008236998322 -5.504362393e-20 -0.0005973010842)
(-0.003747385465 -0.04664847552 3.453826325e-19 0.004334934676 -2.114494959e-19 -0.0005875492109)
(-0.0001214477198 -0.04258584156 1.135147924e-19 0.0006899584646 -3.951647904e-19 -0.0005685107448)
(0.003261322889 -0.03884538592 2.603360934e-20 -0.002721548641 -2.10320258e-19 -0.0005397742483)
(0.006422485747 -0.03543512533 -8.856255203e-20 -0.005921522961 -6.796410738e-20 -0.0005009627863)
(0.00937167441 -0.03236021835 1.396831653e-19 -0.008919840593 4.943068932e-20 -0.0004518338178)