/*--------------------------------*- C++ -*----------------------------------*\
| =========                 |                                                 |
| \\      /  F ield         | foam-extend: Open Source CFD                    |
|  \\    /   O peration     | Version:  3.0                                   |
|   \\  /    A nd           | Web:         http://www.extend-project.de       |
|    \\/     M anipulation  |                                                 |
\*---------------------------------------------------------------------------*/
FoamFile
{
    version     2.0;
    format      ascii;
    class       volScalarField;
    location    "14";
    object      p;
}
// * * * * * * * * * * * * * * * * * * * * * * * * * * * * * * * * * * * * * //

dimensions      [0 0 0 0 0 0 0];

internalField   nonuniform List<scalar> 
7680
(
-0.233231
-0.221268
-0.212411
-0.20305
-0.196275
-0.188839
-0.183611
-0.177641
-0.173592
-0.168764
-0.165631
-0.161706
-0.159295
-0.156094
-0.154255
-0.15164
-0.150255
-0.148114
-0.147087
-0.145329
-0.144578
-0.143125
-0.14258
-0.141362
-0.140959
-0.139914
-0.139592
-0.138662
-0.138362
-0.137489
-0.137153
-0.13628
-0.135845
-0.134913
-0.134316
-0.13326
-0.132431
-0.131185
-0.130045
-0.128536
-0.232997
-0.221045
-0.212197
-0.202845
-0.196077
-0.188648
-0.183425
-0.177461
-0.173416
-0.168592
-0.165463
-0.161542
-0.159132
-0.155935
-0.154097
-0.151485
-0.150101
-0.147963
-0.146936
-0.14518
-0.14443
-0.142978
-0.142433
-0.141217
-0.140814
-0.13977
-0.139448
-0.138519
-0.138219
-0.137347
-0.137011
-0.136138
-0.135704
-0.134772
-0.134176
-0.133122
-0.132293
-0.131049
-0.12991
-0.128402
-0.232482
-0.220557
-0.211729
-0.202398
-0.195645
-0.188233
-0.183022
-0.177072
-0.173036
-0.168223
-0.1651
-0.161188
-0.158785
-0.155595
-0.153761
-0.151155
-0.149774
-0.147641
-0.146617
-0.144865
-0.144117
-0.142668
-0.142125
-0.140911
-0.140509
-0.139468
-0.139147
-0.13822
-0.137921
-0.137051
-0.136716
-0.135846
-0.135412
-0.134483
-0.133888
-0.132836
-0.132009
-0.130768
-0.129631
-0.128127
-0.231749
-0.219862
-0.211061
-0.201759
-0.195028
-0.187639
-0.182444
-0.176512
-0.172489
-0.167691
-0.164578
-0.160678
-0.158282
-0.155102
-0.153274
-0.150676
-0.1493
-0.147173
-0.146152
-0.144405
-0.143659
-0.142215
-0.141673
-0.140463
-0.140062
-0.139025
-0.138704
-0.13778
-0.137482
-0.136615
-0.13628
-0.135413
-0.134981
-0.134054
-0.133461
-0.132413
-0.131588
-0.130351
-0.129218
-0.127718
-0.230737
-0.218902
-0.21014
-0.200879
-0.194178
-0.186821
-0.18165
-0.175744
-0.171739
-0.166962
-0.163863
-0.15998
-0.157595
-0.154429
-0.152609
-0.150023
-0.148653
-0.146535
-0.145519
-0.14378
-0.143038
-0.1416
-0.141061
-0.139856
-0.139457
-0.138424
-0.138106
-0.137186
-0.136889
-0.136026
-0.135693
-0.13483
-0.1344
-0.133477
-0.132887
-0.131843
-0.131022
-0.12979
-0.128662
-0.127169
-0.229509
-0.217737
-0.209022
-0.19981
-0.193144
-0.185826
-0.180682
-0.174807
-0.170823
-0.166072
-0.162989
-0.159127
-0.156754
-0.153605
-0.151795
-0.149222
-0.147859
-0.145753
-0.144742
-0.143012
-0.142273
-0.140843
-0.140307
-0.139108
-0.138712
-0.137684
-0.137367
-0.136452
-0.136157
-0.135298
-0.134967
-0.134108
-0.13368
-0.132762
-0.132175
-0.131136
-0.13032
-0.129095
-0.127973
-0.126488
-0.228004
-0.216309
-0.207652
-0.198501
-0.191879
-0.18461
-0.179499
-0.173664
-0.169706
-0.164986
-0.161924
-0.158087
-0.15573
-0.152602
-0.150804
-0.148248
-0.146894
-0.144802
-0.143798
-0.14208
-0.141346
-0.139925
-0.139393
-0.138203
-0.137809
-0.136788
-0.136473
-0.135564
-0.135271
-0.134418
-0.134089
-0.133236
-0.132812
-0.1319
-0.131317
-0.130285
-0.129474
-0.128257
-0.127142
-0.125667
-0.226286
-0.214679
-0.206087
-0.197005
-0.190432
-0.183218
-0.178146
-0.172354
-0.168426
-0.163741
-0.160702
-0.156894
-0.154555
-0.15145
-0.149665
-0.147129
-0.145785
-0.143708
-0.142712
-0.141006
-0.140278
-0.138868
-0.138339
-0.137158
-0.136767
-0.135754
-0.135441
-0.134539
-0.134248
-0.133401
-0.133075
-0.132228
-0.131806
-0.130902
-0.130322
-0.129299
-0.128494
-0.127285
-0.126179
-0.124715
-0.224294
-0.21279
-0.204274
-0.195272
-0.188758
-0.181607
-0.17658
-0.17084
-0.166946
-0.162303
-0.159291
-0.155517
-0.153198
-0.150121
-0.148353
-0.145839
-0.144507
-0.142449
-0.141461
-0.139771
-0.139049
-0.137652
-0.137128
-0.135957
-0.13557
-0.134566
-0.134256
-0.133362
-0.133074
-0.132235
-0.131911
-0.131072
-0.130655
-0.129758
-0.129184
-0.128169
-0.127371
-0.126174
-0.125077
-0.123626
-0.222094
-0.210703
-0.20227
-0.193356
-0.186905
-0.179825
-0.174847
-0.169163
-0.165307
-0.16071
-0.157727
-0.15399
-0.151694
-0.148646
-0.146895
-0.144405
-0.143087
-0.141048
-0.14007
-0.138397
-0.137682
-0.136298
-0.135779
-0.13462
-0.134236
-0.133242
-0.132935
-0.13205
-0.131764
-0.130933
-0.130613
-0.129782
-0.129368
-0.12848
-0.127912
-0.126907
-0.126117
-0.124931
-0.123845
-0.122408
-0.219624
-0.20836
-0.200022
-0.191207
-0.184829
-0.177827
-0.172905
-0.167284
-0.163472
-0.158926
-0.155976
-0.152281
-0.150011
-0.146998
-0.145266
-0.142804
-0.1415
-0.139485
-0.138518
-0.136863
-0.136157
-0.134788
-0.134276
-0.13313
-0.13275
-0.131767
-0.131464
-0.130589
-0.130307
-0.129485
-0.129168
-0.128347
-0.127938
-0.12706
-0.126498
-0.125504
-0.124723
-0.12355
-0.122477
-0.121055
-0.216951
-0.205824
-0.197587
-0.188879
-0.182578
-0.175662
-0.170799
-0.165247
-0.161481
-0.15699
-0.154076
-0.150426
-0.148183
-0.145206
-0.143495
-0.141064
-0.139775
-0.137785
-0.136829
-0.135194
-0.134496
-0.133144
-0.132638
-0.131505
-0.13113
-0.130159
-0.12986
-0.128995
-0.128716
-0.127905
-0.127592
-0.12678
-0.126376
-0.125508
-0.124953
-0.123972
-0.1232
-0.122041
-0.120981
-0.119577
-0.214014
-0.203038
-0.194912
-0.186323
-0.180108
-0.173286
-0.168489
-0.163012
-0.159297
-0.154867
-0.151993
-0.148393
-0.14618
-0.143244
-0.141557
-0.139158
-0.137888
-0.135924
-0.134982
-0.133369
-0.132681
-0.131348
-0.130848
-0.129731
-0.129362
-0.128404
-0.128109
-0.127256
-0.126981
-0.126181
-0.125872
-0.125071
-0.124673
-0.123817
-0.12327
-0.122302
-0.12154
-0.120398
-0.119351
-0.117966
-0.210879
-0.200064
-0.192057
-0.183594
-0.177469
-0.170747
-0.16602
-0.160623
-0.156963
-0.152598
-0.149765
-0.146217
-0.144037
-0.141144
-0.139481
-0.137118
-0.135865
-0.13393
-0.133002
-0.131413
-0.130734
-0.12942
-0.128928
-0.127827
-0.127463
-0.126519
-0.126228
-0.125387
-0.125117
-0.124328
-0.124024
-0.123235
-0.122842
-0.121999
-0.121459
-0.120505
-0.119755
-0.118629
-0.117598
-0.116233
-0.207487
-0.196846
-0.188968
-0.180642
-0.174616
-0.168002
-0.163352
-0.158042
-0.15444
-0.150146
-0.147359
-0.143868
-0.141724
-0.138877
-0.137242
-0.134916
-0.133684
-0.131781
-0.130867
-0.129304
-0.128637
-0.127344
-0.12686
-0.125777
-0.125419
-0.12449
-0.124204
-0.123378
-0.123111
-0.122335
-0.122036
-0.12126
-0.120874
-0.120044
-0.119513
-0.118575
-0.117837
-0.116729
-0.115715
-0.114372
-0.203904
-0.193447
-0.185705
-0.177522
-0.1716
-0.1651
-0.16053
-0.155312
-0.151772
-0.147552
-0.144813
-0.141382
-0.139275
-0.136477
-0.134869
-0.132584
-0.131373
-0.129502
-0.128605
-0.127068
-0.126412
-0.125142
-0.124666
-0.123602
-0.123249
-0.122337
-0.122055
-0.121243
-0.120981
-0.120218
-0.119924
-0.119161
-0.118782
-0.117966
-0.117445
-0.116522
-0.115797
-0.114708
-0.113711
-0.112391
-0.200071
-0.189811
-0.182215
-0.174186
-0.168376
-0.161998
-0.157515
-0.152394
-0.148922
-0.144781
-0.142094
-0.138728
-0.13666
-0.133916
-0.132338
-0.130096
-0.128908
-0.127073
-0.126192
-0.124685
-0.124041
-0.122795
-0.122328
-0.121284
-0.120939
-0.120044
-0.119768
-0.118971
-0.118714
-0.117966
-0.117677
-0.116929
-0.116557
-0.115757
-0.115245
-0.11434
-0.113628
-0.11256
-0.111582
-0.110286
-0.196056
-0.186002
-0.178558
-0.17069
-0.164996
-0.158746
-0.154352
-0.149335
-0.145932
-0.141874
-0.139241
-0.135942
-0.133915
-0.131226
-0.12968
-0.127482
-0.126318
-0.12452
-0.123656
-0.122179
-0.121549
-0.120327
-0.11987
-0.118846
-0.118508
-0.11763
-0.11736
-0.116578
-0.116327
-0.115593
-0.115311
-0.114577
-0.114212
-0.113428
-0.112927
-0.112039
-0.111342
-0.110295
-0.109337
-0.108067
-0.191799
-0.181963
-0.174681
-0.166985
-0.161415
-0.155301
-0.151003
-0.146094
-0.142766
-0.138796
-0.13622
-0.132993
-0.131011
-0.12838
-0.126868
-0.124719
-0.12358
-0.12182
-0.120976
-0.119531
-0.118915
-0.11772
-0.117272
-0.116272
-0.115941
-0.115082
-0.114818
-0.114054
-0.113808
-0.113091
-0.112814
-0.112097
-0.11174
-0.110973
-0.110482
-0.109614
-0.108932
-0.107908
-0.10697
-0.105729
-0.187368
-0.17776
-0.170646
-0.163127
-0.157685
-0.151713
-0.147513
-0.142718
-0.139466
-0.135588
-0.133072
-0.129919
-0.127982
-0.125412
-0.123935
-0.121835
-0.120722
-0.119003
-0.118178
-0.116766
-0.116164
-0.114997
-0.114559
-0.113582
-0.113258
-0.112419
-0.112161
-0.111414
-0.111174
-0.110473
-0.110203
-0.109502
-0.109153
-0.108404
-0.107924
-0.107077
-0.10641
-0.105409
-0.104493
-0.10328
-0.182705
-0.173336
-0.1664
-0.159068
-0.153762
-0.147938
-0.143844
-0.139169
-0.135998
-0.132216
-0.129763
-0.126689
-0.124801
-0.122294
-0.120854
-0.118807
-0.117722
-0.116046
-0.115242
-0.113865
-0.113278
-0.11214
-0.111714
-0.11076
-0.110445
-0.109628
-0.109376
-0.108648
-0.108414
-0.10773
-0.107467
-0.106784
-0.106444
-0.105713
-0.105246
-0.104419
-0.103769
-0.102794
-0.1019
-0.100717
-0.177878
-0.168756
-0.162003
-0.154865
-0.149699
-0.144029
-0.140043
-0.135491
-0.132403
-0.128721
-0.126333
-0.12334
-0.121501
-0.119061
-0.117659
-0.115665
-0.114609
-0.112977
-0.112194
-0.110853
-0.110281
-0.109173
-0.108758
-0.10783
-0.107523
-0.106727
-0.106481
-0.105772
-0.105544
-0.104879
-0.104622
-0.103957
-0.103626
-0.102915
-0.102459
-0.101655
-0.101022
-0.100072
-0.0992019
-0.0980502
-0.172829
-0.163966
-0.157405
-0.15047
-0.145451
-0.139942
-0.136069
-0.131646
-0.128647
-0.12507
-0.122749
-0.119842
-0.118055
-0.115685
-0.114322
-0.112385
-0.111359
-0.109774
-0.109013
-0.107711
-0.107156
-0.106079
-0.105676
-0.104775
-0.104476
-0.103703
-0.103465
-0.102776
-0.102555
-0.101908
-0.101659
-0.101013
-0.100691
-0.1
-0.0995581
-0.0987761
-0.0981613
-0.0972382
-0.096393
-0.0952739
-0.167626
-0.15903
-0.152667
-0.14594
-0.141072
-0.135729
-0.131972
-0.127682
-0.124773
-0.121303
-0.119052
-0.116232
-0.114499
-0.1122
-0.110878
-0.108999
-0.108004
-0.106466
-0.105728
-0.104465
-0.103926
-0.102882
-0.102491
-0.101616
-0.101327
-0.100576
-0.100345
-0.0996772
-0.099462
-0.0988352
-0.0985935
-0.0979663
-0.0976543
-0.096984
-0.0965551
-0.0957965
-0.0952001
-0.0943047
-0.0934849
-0.0923994
-0.162212
-0.153894
-0.147736
-0.141227
-0.136517
-0.131346
-0.127711
-0.12356
-0.120745
-0.117388
-0.11521
-0.112481
-0.110804
-0.108579
-0.1073
-0.105483
-0.10452
-0.103032
-0.102318
-0.101096
-0.100574
-0.0995639
-0.0991857
-0.0983393
-0.0980594
-0.0973336
-0.0971101
-0.0964639
-0.0962558
-0.0956493
-0.0954156
-0.0948088
-0.0945069
-0.0938584
-0.0934433
-0.0927093
-0.0921321
-0.0912656
-0.0904723
-0.0894217
-0.156657
-0.148623
-0.142676
-0.13639
-0.13184
-0.126847
-0.123336
-0.119327
-0.116608
-0.113365
-0.111262
-0.108626
-0.107007
-0.104858
-0.103622
-0.101867
-0.100936
-0.0994992
-0.0988095
-0.0976291
-0.0971254
-0.0961494
-0.0957839
-0.0949664
-0.0946959
-0.0939948
-0.0937787
-0.0931545
-0.0929534
-0.0923675
-0.0921417
-0.0915555
-0.0912639
-0.0906374
-0.0902365
-0.0895275
-0.08897
-0.0881331
-0.0873668
-0.0863522
-0.150901
-0.143163
-0.137435
-0.13138
-0.126998
-0.122188
-0.118806
-0.114945
-0.112326
-0.109203
-0.107176
-0.104638
-0.103078
-0.101008
-0.0998186
-0.0981276
-0.0972318
-0.0958475
-0.0951834
-0.0940465
-0.0935615
-0.0926216
-0.0922697
-0.0914824
-0.091222
-0.0905468
-0.0903389
-0.0897378
-0.0895442
-0.08898
-0.0887625
-0.088198
-0.0879172
-0.0873137
-0.0869276
-0.0862446
-0.0857076
-0.0849014
-0.0841632
-0.0831857
-0.145016
-0.13758
-0.132074
-0.126255
-0.122044
-0.117422
-0.114172
-0.11046
-0.107943
-0.104942
-0.102994
-0.100554
-0.0990554
-0.097066
-0.0959226
-0.0942972
-0.0934362
-0.0921057
-0.0914672
-0.0903745
-0.0899081
-0.0890047
-0.0886663
-0.0879095
-0.0876591
-0.0870101
-0.0868101
-0.0862322
-0.086046
-0.0855037
-0.0852945
-0.0847519
-0.0844819
-0.0839019
-0.0835307
-0.0828742
-0.0823581
-0.0815832
-0.0808738
-0.0799343
-0.138944
-0.131819
-0.126544
-0.120969
-0.116934
-0.112506
-0.109392
-0.105837
-0.103425
-0.10055
-0.0986838
-0.0963464
-0.0949102
-0.0930044
-0.091909
-0.0903519
-0.0895271
-0.0882525
-0.0876409
-0.0865941
-0.0861475
-0.0852821
-0.084958
-0.0842331
-0.0839934
-0.0833716
-0.0831802
-0.0826266
-0.0824484
-0.0819288
-0.0817286
-0.0812087
-0.0809501
-0.0803944
-0.0800388
-0.0794098
-0.0789153
-0.0781728
-0.0774929
-0.0765927
-0.132754
-0.125947
-0.120907
-0.11558
-0.111725
-0.107493
-0.104518
-0.101121
-0.0988164
-0.0960685
-0.0942856
-0.092052
-0.0906796
-0.0888584
-0.0878116
-0.0863236
-0.0855353
-0.0843172
-0.0837327
-0.0827323
-0.0823053
-0.0814783
-0.0811685
-0.0804756
-0.0802463
-0.0796521
-0.079469
-0.0789399
-0.0787695
-0.0782729
-0.0780814
-0.0775846
-0.0773373
-0.0768063
-0.0764664
-0.0758653
-0.0753927
-0.0746832
-0.0740335
-0.0731733
-0.126391
-0.11991
-0.115112
-0.110041
-0.10637
-0.102342
-0.0995094
-0.0962751
-0.0940815
-0.0914656
-0.0897683
-0.087642
-0.0863355
-0.0846018
-0.0836053
-0.0821888
-0.0814385
-0.080279
-0.0797226
-0.0787704
-0.078364
-0.0775768
-0.0772819
-0.0766225
-0.0764043
-0.0758388
-0.0756645
-0.075161
-0.0749988
-0.0745261
-0.0743439
-0.0738709
-0.0736356
-0.07313
-0.0728064
-0.0722341
-0.0717841
-0.0711085
-0.0704899
-0.0696707
-0.119924
-0.113775
-0.109222
-0.10441
-0.100927
-0.0971043
-0.0944166
-0.0913475
-0.0892659
-0.0867835
-0.0851728
-0.083155
-0.0819151
-0.0802699
-0.0793241
-0.0779799
-0.0772677
-0.0761672
-0.0756391
-0.0747353
-0.0743496
-0.0736023
-0.0733224
-0.0726965
-0.0724893
-0.0719524
-0.0717869
-0.071309
-0.0711549
-0.0707063
-0.0705332
-0.0700843
-0.0698608
-0.069381
-0.0690738
-0.0685307
-0.0681036
-0.0674624
-0.0668754
-0.066098
-0.113297
-0.107488
-0.103187
-0.0986405
-0.0953504
-0.0917392
-0.0892002
-0.0863009
-0.0843345
-0.0819895
-0.080468
-0.0785618
-0.0773906
-0.0758364
-0.0749431
-0.0736733
-0.0730006
-0.0719612
-0.0714624
-0.0706087
-0.0702444
-0.0695386
-0.0692743
-0.0686831
-0.0684875
-0.0679804
-0.0678242
-0.0673727
-0.0672273
-0.0668035
-0.0666401
-0.066216
-0.0660049
-0.0655516
-0.0652614
-0.0647482
-0.0643447
-0.0637388
-0.0631841
-0.0624495
-0.10658
-0.101115
-0.097069
-0.0927921
-0.0896968
-0.0862994
-0.0839106
-0.0811829
-0.0793328
-0.0771265
-0.0756949
-0.0739015
-0.0727995
-0.0713371
-0.0704965
-0.0693017
-0.0686687
-0.0676905
-0.0672211
-0.0664178
-0.0660748
-0.0654107
-0.0651618
-0.0646054
-0.0644212
-0.063944
-0.0637968
-0.0633719
-0.0632349
-0.0628361
-0.0626822
-0.0622831
-0.0620844
-0.0616578
-0.0613847
-0.0609018
-0.060522
-0.0599519
-0.05943
-0.0587388
-0.0997177
-0.0946046
-0.0908191
-0.0868178
-0.0839219
-0.0807435
-0.0785086
-0.0759568
-0.0742259
-0.0721619
-0.0708226
-0.0691449
-0.0681139
-0.0667459
-0.0659595
-0.0648418
-0.0642496
-0.0633346
-0.0628955
-0.0621441
-0.0618233
-0.0612021
-0.0609693
-0.0604489
-0.0602766
-0.0598303
-0.0596927
-0.0592952
-0.0591671
-0.058794
-0.0586501
-0.0582767
-0.0580908
-0.0576917
-0.0574361
-0.0569842
-0.0566289
-0.0560954
-0.0556068
-0.0549599
-0.0927802
-0.0880226
-0.0845002
-0.080777
-0.0780823
-0.0751246
-0.073045
-0.0706704
-0.0690596
-0.0671389
-0.0658925
-0.0643312
-0.0633717
-0.0620985
-0.0613666
-0.0603264
-0.0597751
-0.0589235
-0.0585147
-0.0578153
-0.0575166
-0.0569383
-0.0567215
-0.056237
-0.0560765
-0.055661
-0.0555328
-0.0551628
-0.0550434
-0.0546961
-0.054562
-0.0542144
-0.0540413
-0.0536697
-0.0534318
-0.0530112
-0.0526804
-0.0521839
-0.0517292
-0.0511271
-0.0857113
-0.0813164
-0.0780624
-0.0746231
-0.0721338
-0.0694017
-0.0674806
-0.0652871
-0.0637992
-0.062025
-0.0608736
-0.0594314
-0.0585451
-0.0573691
-0.056693
-0.0557322
-0.055223
-0.0544364
-0.0540588
-0.0534128
-0.053137
-0.0526028
-0.0524027
-0.0519552
-0.051807
-0.0514232
-0.0513049
-0.0509631
-0.0508529
-0.050532
-0.0504082
-0.0500871
-0.0499272
-0.0495839
-0.049364
-0.0489753
-0.0486697
-0.0482108
-0.0477906
-0.0472341
-0.0785826
-0.0745529
-0.0715694
-0.0684157
-0.0661332
-0.063628
-0.0618664
-0.059855
-0.0584905
-0.0568635
-0.0558076
-0.054485
-0.0536721
-0.0525936
-0.0519735
-0.0510922
-0.0506251
-0.0499037
-0.0495572
-0.0489646
-0.0487115
-0.0482215
-0.0480377
-0.0476272
-0.0474911
-0.0471391
-0.0470303
-0.0467168
-0.0466155
-0.0463211
-0.0462074
-0.0459128
-0.045766
-0.0454511
-0.0452493
-0.0448928
-0.0446124
-0.0441915
-0.043806
-0.0432957
-0.0713377
-0.0676797
-0.0649713
-0.0621086
-0.0600366
-0.0577625
-0.0561634
-0.0543376
-0.053099
-0.0516221
-0.0506636
-0.049463
-0.0487252
-0.0477462
-0.0471833
-0.0463834
-0.0459594
-0.0453045
-0.0449901
-0.0444522
-0.0442225
-0.0437778
-0.043611
-0.0432384
-0.0431149
-0.0427953
-0.0426967
-0.042412
-0.0423201
-0.0420529
-0.0419497
-0.0416822
-0.0415489
-0.0412629
-0.0410797
-0.0407559
-0.0405012
-0.0401189
-0.0397688
-0.0393052
-0.0640485
-0.0607639
-0.058332
-0.0557614
-0.0539008
-0.0518587
-0.0504226
-0.048783
-0.0476706
-0.0463443
-0.0454834
-0.0444052
-0.0437424
-0.0428631
-0.0423574
-0.0416389
-0.0412579
-0.0406696
-0.040387
-0.0399038
-0.0396972
-0.0392977
-0.0391477
-0.0388129
-0.0387018
-0.0384146
-0.0383258
-0.03807
-0.0379872
-0.0377471
-0.0376542
-0.0374139
-0.037294
-0.037037
-0.0368723
-0.0365814
-0.0363525
-0.036009
-0.0356944
-0.035278
-0.0566586
-0.0537531
-0.0516018
-0.049328
-0.0476821
-0.0458757
-0.0446054
-0.043155
-0.042171
-0.0409978
-0.0402363
-0.0392825
-0.0386962
-0.0379184
-0.0374711
-0.0368355
-0.0364986
-0.0359782
-0.0357282
-0.0353008
-0.0351181
-0.0347647
-0.034632
-0.0343358
-0.0342376
-0.0339835
-0.033905
-0.0336787
-0.0336055
-0.033393
-0.0333108
-0.0330981
-0.032992
-0.0327645
-0.0326187
-0.0323612
-0.0321585
-0.0318544
-0.0315759
-0.0312071
-0.0492401
-0.0467147
-0.0448447
-0.0428682
-0.0414374
-0.0398671
-0.0387628
-0.0375019
-0.0366463
-0.0356263
-0.0349642
-0.0341349
-0.033625
-0.0329486
-0.0325596
-0.0320068
-0.0317136
-0.031261
-0.0310434
-0.0306717
-0.0305125
-0.0302051
-0.0300895
-0.0298318
-0.0297461
-0.0295251
-0.0294565
-0.0292596
-0.0291957
-0.0290108
-0.0289391
-0.028754
-0.0286615
-0.0284636
-0.0283366
-0.0281125
-0.0279361
-0.0276716
-0.0274292
-0.0271084
-0.0417367
-0.0395962
-0.0380112
-0.0363359
-0.0351231
-0.0337922
-0.0328561
-0.0317874
-0.0310622
-0.0301976
-0.0296363
-0.0289334
-0.0285012
-0.0279279
-0.0275981
-0.0271295
-0.026881
-0.0264973
-0.0263129
-0.0259977
-0.0258628
-0.0256022
-0.0255041
-0.0252857
-0.025213
-0.0250256
-0.0249674
-0.0248005
-0.0247463
-0.0245894
-0.0245286
-0.0243715
-0.024293
-0.0241251
-0.0240173
-0.0238271
-0.0236773
-0.0234527
-0.023247
-0.0229746
-0.0342207
-0.0324653
-0.0311653
-0.0297912
-0.0287964
-0.0277047
-0.0269367
-0.02606
-0.0254649
-0.0247556
-0.0242949
-0.0237181
-0.0233633
-0.0228928
-0.022622
-0.0222373
-0.0220332
-0.0217182
-0.0215665
-0.0213077
-0.0211967
-0.0209827
-0.0209019
-0.0207225
-0.0206625
-0.0205085
-0.0204605
-0.0203233
-0.0202785
-0.0201496
-0.0200994
-0.0199703
-0.0199056
-0.0197676
-0.0196789
-0.0195226
-0.0193995
-0.0192149
-0.0190458
-0.018822
-0.026636
-0.0252696
-0.0242576
-0.023188
-0.0224136
-0.0215638
-0.0209659
-0.0202834
-0.0198201
-0.0192679
-0.0189092
-0.0184601
-0.0181838
-0.0178174
-0.0176065
-0.017307
-0.0171479
-0.0169026
-0.0167844
-0.0165828
-0.0164963
-0.0163295
-0.0162666
-0.0161267
-0.01608
-0.0159599
-0.0159224
-0.0158154
-0.0157805
-0.0156799
-0.0156407
-0.0155399
-0.0154894
-0.0153816
-0.0153123
-0.0151903
-0.0150941
-0.0149499
-0.0148179
-0.0146431
-0.0190549
-0.0180769
-0.0173524
-0.0165866
-0.016032
-0.0154234
-0.0149951
-0.0145063
-0.0141742
-0.0137786
-0.0135214
-0.0131996
-0.0130013
-0.0127386
-0.0125872
-0.0123723
-0.012258
-0.0120819
-0.0119969
-0.0118521
-0.0117897
-0.0116699
-0.0116244
-0.0115239
-0.01149
-0.0114037
-0.0113764
-0.0112994
-0.0112739
-0.0112015
-0.011173
-0.0111005
-0.0110639
-0.0109863
-0.0109363
-0.0108484
-0.010779
-0.0106753
-0.0105802
-0.0104544
-0.0114211
-0.0108347
-0.0104
-0.00994075
-0.00960792
-0.00924282
-0.00898567
-0.00869232
-0.00849287
-0.00825536
-0.00810078
-0.00790747
-0.00778824
-0.00763037
-0.00753917
-0.00740998
-0.00734103
-0.00723509
-0.0071837
-0.00709655
-0.00705875
-0.00698655
-0.00695888
-0.00689826
-0.00687756
-0.00682543
-0.00680872
-0.00676215
-0.00674653
-0.00670267
-0.00668519
-0.00664118
-0.00661879
-0.00657167
-0.00654113
-0.00648774
-0.00644552
-0.00638248
-0.00632463
-0.00624814
-0.00380743
-0.00361101
-0.00346507
-0.0033109
-0.00319886
-0.00307605
-0.00298921
-0.00289032
-0.00282272
-0.00274244
-0.00268982
-0.00262427
-0.00258345
-0.00252971
-0.00249826
-0.00245408
-0.00243007
-0.00239369
-0.00237554
-0.00234549
-0.00233189
-0.00230688
-0.0022967
-0.00227559
-0.00226777
-0.0022495
-0.00224305
-0.00222663
-0.00222055
-0.002205
-0.00219829
-0.00218261
-0.00217421
-0.0021574
-0.00214619
-0.00212715
-0.00211187
-0.00208941
-0.0020687
-0.00204144
0.00384271
0.00364675
0.00350219
0.00334924
0.00323904
0.00311785
0.00303317
0.00293614
0.00287089
0.00279269
0.0027425
0.00267923
0.00264089
0.0025896
0.00256066
0.00251902
0.00249755
0.00246367
0.00244808
0.00242045
0.00240938
0.00238671
0.00237898
0.00236016
0.00235471
0.00233875
0.0023346
0.00232057
0.00231679
0.00230378
0.00229943
0.00228654
0.00228069
0.00226698
0.00225863
0.00224312
0.00223121
0.00221289
0.00219626
0.00217408
0.0114563
0.0108703
0.0104371
0.00997904
0.00964805
0.00928459
0.00902959
0.00873811
0.008541
0.00830558
0.00815343
0.00796241
0.00784565
0.00769024
0.00760155
0.00747488
0.00740849
0.00730505
0.00725622
0.00717149
0.00713621
0.00706636
0.00704114
0.00698282
0.00696449
0.00691467
0.00690027
0.00685609
0.00684277
0.00680145
0.00678635
0.00674511
0.00672528
0.00668125
0.00665359
0.00660373
0.00656487
0.00650596
0.0064522
0.00638078
0.0190901
0.0181126
0.0173895
0.016625
0.0160722
0.0154653
0.0150391
0.0145522
0.0142225
0.0138289
0.0135742
0.0132546
0.0130589
0.0127987
0.0126497
0.0124374
0.0123257
0.0121521
0.0120696
0.0119273
0.0118675
0.01175
0.011707
0.0116088
0.0115772
0.0114933
0.0114683
0.0113938
0.0113706
0.0113008
0.0112747
0.0112049
0.0111709
0.0110964
0.0110492
0.0109649
0.0108989
0.0107993
0.0107082
0.0105875
0.026671
0.0253051
0.0242945
0.0232263
0.0224537
0.0216055
0.0210098
0.0203292
0.0198682
0.0193181
0.0189619
0.0185151
0.0182413
0.0178774
0.0176689
0.017372
0.0172155
0.0169727
0.0168571
0.016658
0.016574
0.0164096
0.0163491
0.0162116
0.0161672
0.0160495
0.0160144
0.0159098
0.0158771
0.0157792
0.0157423
0.0156444
0.0155964
0.0154917
0.0154253
0.0153068
0.0152139
0.0150739
0.0149459
0.0147761
0.0342558
0.032501
0.0312024
0.0298296
0.0288367
0.0277466
0.0269808
0.0261059
0.0255133
0.024806
0.0243479
0.0237734
0.0234211
0.0229531
0.0226848
0.0223027
0.0221011
0.0217887
0.0216397
0.0213834
0.0212749
0.0210633
0.0209851
0.020808
0.0207505
0.0205989
0.0205532
0.0204185
0.0203761
0.0202498
0.020202
0.0200757
0.0200136
0.0198787
0.0197929
0.0196401
0.0195203
0.0193398
0.0191747
0.0189559
0.0417713
0.0396315
0.0380479
0.036374
0.0351631
0.0338339
0.0329
0.0318332
0.0311104
0.0302479
0.0296891
0.0289885
0.0285588
0.027988
0.0276607
0.0271948
0.0269488
0.0265677
0.0263859
0.0260732
0.0259409
0.0256827
0.0255872
0.0253711
0.0253009
0.0251159
0.0250601
0.0248956
0.0248438
0.0246896
0.0246312
0.024477
0.0244011
0.0242362
0.0241313
0.0239446
0.0237982
0.0235777
0.0233759
0.0231084
0.0492749
0.0467502
0.0448817
0.0429065
0.0414777
0.0399091
0.0388069
0.037548
0.0366948
0.035677
0.0350173
0.0341904
0.033683
0.0330092
0.0326227
0.0320726
0.031782
0.0313321
0.0311171
0.0307479
0.0305914
0.0302865
0.0301734
0.0299182
0.029835
0.0296165
0.0295503
0.029356
0.0292945
0.0291123
0.0290431
0.0288609
0.028771
0.0285762
0.0284521
0.0282315
0.0280585
0.0277979
0.0275595
0.0272434
0.0566928
0.0537881
0.0516384
0.0493659
0.047722
0.0459174
0.0446493
0.0432009
0.0422193
0.0410482
0.0402892
0.0393378
0.038754
0.0379788
0.037534
0.0369011
0.0365668
0.036049
0.0358017
0.0353768
0.0351968
0.0348459
0.0347158
0.0344221
0.0343264
0.0340748
0.0339987
0.033775
0.0337043
0.0334945
0.0334148
0.033205
0.0331015
0.0328772
0.0327343
0.0324802
0.0322809
0.0319807
0.0317061
0.031342
0.0640829
0.0607992
0.0583688
0.0557997
0.053941
0.0519007
0.0504669
0.0488292
0.0477193
0.0463951
0.0455368
0.0444609
0.0438007
0.042924
0.0424209
0.0417051
0.0413268
0.0407412
0.0404614
0.0399808
0.0397769
0.03938
0.0392326
0.0389004
0.0387919
0.0385073
0.038421
0.0381679
0.0380877
0.0378504
0.03776
0.0375226
0.0374054
0.0371516
0.0369898
0.0367023
0.0364767
0.0361371
0.0358264
0.0354144
0.0713714
0.0677143
0.0650076
0.0621464
0.0600764
0.0578041
0.0562073
0.0543834
0.0531473
0.0516726
0.0507166
0.0495185
0.0487832
0.0478068
0.0472465
0.0464493
0.046028
0.0453758
0.0450641
0.0445289
0.0443019
0.0438598
0.0436957
0.0433257
0.0432048
0.0428879
0.0427918
0.0425098
0.0424205
0.0421561
0.0420555
0.0417909
0.0416604
0.0413775
0.0411973
0.0408769
0.0406255
0.040247
0.0399007
0.0394415
0.0786165
0.0745878
0.0716059
0.0684538
0.0661733
0.06367
0.0619106
0.0599013
0.0585393
0.0569145
0.0558612
0.054541
0.0537308
0.0526549
0.0520374
0.0511589
0.0506946
0.0499759
0.0496322
0.0490424
0.0487921
0.0483048
0.0481238
0.047716
0.0475826
0.0472333
0.0471272
0.0468165
0.0467178
0.0464264
0.0463153
0.0460238
0.0458797
0.045568
0.0453692
0.0450161
0.0447389
0.0443217
0.04394
0.0434339
0.0857443
0.0813505
0.0780983
0.0746606
0.0721734
0.0694432
0.0675244
0.065333
0.0638475
0.0620755
0.0609268
0.059487
0.0586033
0.0574299
0.0567565
0.0557984
0.055292
0.0545082
0.0541334
0.0534902
0.0532171
0.0526857
0.0524884
0.0520436
0.0518982
0.0515172
0.0514015
0.0510626
0.050955
0.0506371
0.050516
0.0501979
0.0500409
0.0497007
0.0494839
0.0490986
0.0487962
0.048341
0.0479244
0.0473722
0.0928134
0.088057
0.0845363
0.0808148
0.0781222
0.0751665
0.0730892
0.0707167
0.0691084
0.06719
0.0659462
0.0643874
0.0634305
0.0621601
0.0614309
0.0603935
0.0598451
0.0589963
0.0585904
0.0578938
0.0575981
0.0570226
0.0568087
0.0563271
0.0561695
0.0557569
0.0556314
0.0552644
0.0551478
0.0548035
0.0546723
0.0543278
0.0541576
0.0537893
0.0535543
0.0531371
0.0528095
0.0523166
0.0518655
0.0512674
0.0997498
0.0946381
0.0908544
0.0868549
0.0839612
0.0807848
0.0785522
0.0760026
0.0742742
0.0722124
0.0708757
0.0692005
0.0681722
0.0668069
0.0660233
0.0649083
0.064319
0.0634069
0.0629707
0.0622221
0.0619042
0.0612858
0.061056
0.0605385
0.0603691
0.0599257
0.0597909
0.0593965
0.0592712
0.0589012
0.0587602
0.0583899
0.058207
0.0578111
0.0575586
0.0571101
0.0567579
0.0562279
0.0557429
0.0550999
0.106613
0.101149
0.0971046
0.0928296
0.0897364
0.086341
0.0839546
0.0812291
0.0793815
0.0771776
0.0757486
0.0739578
0.0728584
0.0713989
0.0705611
0.0693691
0.068739
0.0677639
0.0672974
0.0664971
0.0661571
0.065496
0.0652501
0.0646968
0.0645155
0.0640414
0.0638972
0.0634755
0.0633414
0.0629458
0.0627949
0.0623991
0.0622034
0.0617801
0.0615101
0.0610306
0.060654
0.0600874
0.0595688
0.0588813
0.113328
0.10752
0.103221
0.0986772
0.0953892
0.0917801
0.0892434
0.0863464
0.0843825
0.0820399
0.0805209
0.0786174
0.0774489
0.0758974
0.0750069
0.07374
0.0730702
0.0720337
0.0715379
0.0706872
0.0703259
0.0696232
0.0693619
0.0687737
0.0685811
0.0680772
0.067924
0.0674757
0.0673333
0.0669128
0.0667524
0.0663317
0.0661237
0.0656737
0.0653866
0.0648768
0.0644765
0.063874
0.0633226
0.0625915
0.119956
0.113808
0.109257
0.104447
0.100966
0.0971456
0.0944603
0.0913934
0.0893144
0.0868344
0.0852264
0.0832112
0.0819741
0.0803316
0.0793887
0.0780474
0.0773382
0.0762408
0.0757158
0.0748151
0.0744325
0.0736885
0.0734117
0.0727889
0.0725849
0.0720514
0.071889
0.0714144
0.0712635
0.0708183
0.0706484
0.0702029
0.0699827
0.0695062
0.0692023
0.0686625
0.0682386
0.0676007
0.0670168
0.0662428
0.126421
0.119942
0.115146
0.110077
0.106408
0.102382
0.0995522
0.0963202
0.0941291
0.0915156
0.089821
0.0876973
0.0863935
0.0846626
0.0836689
0.0822554
0.081508
0.0803516
0.0797983
0.0788491
0.0784459
0.0776618
0.0773702
0.076714
0.076499
0.0759368
0.0757658
0.0752656
0.0751066
0.0746375
0.0744585
0.073989
0.0737569
0.0732548
0.0729345
0.0723655
0.0719187
0.0712463
0.0706309
0.0698149
0.132785
0.125979
0.120941
0.115616
0.111763
0.107534
0.104561
0.101166
0.0988645
0.096119
0.0943388
0.0921079
0.0907382
0.0889199
0.087876
0.086391
0.0856058
0.0843909
0.0838095
0.0828124
0.0823886
0.0815649
0.0812583
0.0805689
0.080343
0.0797523
0.0795725
0.0790471
0.0788799
0.0783871
0.078199
0.0777058
0.0774619
0.0769344
0.0765978
0.0760001
0.0755307
0.0748243
0.0741777
0.0733205
0.138972
0.13185
0.126577
0.121004
0.116972
0.112546
0.109434
0.105881
0.103472
0.100599
0.0987359
0.0964011
0.0949677
0.0930647
0.0919722
0.0904181
0.0895963
0.0883248
0.0877164
0.0866729
0.0862295
0.0853674
0.0850466
0.0843251
0.0840887
0.0834705
0.0832825
0.0827326
0.0825578
0.082042
0.0818452
0.0813291
0.0810739
0.0805218
0.0801696
0.079544
0.0790527
0.0783133
0.0776365
0.0767391
0.145045
0.137611
0.132108
0.126291
0.122082
0.117462
0.114214
0.110505
0.107991
0.104992
0.103047
0.10061
0.0991134
0.097127
0.0959865
0.0943642
0.0935062
0.092179
0.0915437
0.0904544
0.0899913
0.0890914
0.0887564
0.0880032
0.0877563
0.087111
0.0869145
0.0863406
0.086158
0.0856196
0.0854141
0.0848754
0.084609
0.0840327
0.083665
0.083012
0.0824991
0.0817272
0.0810207
0.0800839
0.150928
0.143193
0.137466
0.131414
0.127034
0.122227
0.118847
0.114988
0.112372
0.109251
0.107228
0.104692
0.103135
0.101068
0.0998811
0.0981931
0.0973003
0.0959192
0.0952583
0.0941248
0.093643
0.0927066
0.0923581
0.0915744
0.0913175
0.0906461
0.0904418
0.0898446
0.0896547
0.0890945
0.0888808
0.0883203
0.0880432
0.0874436
0.0870611
0.0863816
0.085848
0.0850447
0.0843095
0.0833345
0.156684
0.148653
0.142708
0.136424
0.131877
0.126886
0.123377
0.119371
0.116654
0.113414
0.111313
0.10868
0.107064
0.104918
0.103685
0.101933
0.101006
0.0995717
0.0988853
0.0977083
0.0972079
0.0962356
0.0958736
0.0950599
0.094793
0.0940959
0.0938836
0.0932635
0.0930662
0.0924847
0.0922627
0.0916808
0.0913931
0.0907707
0.0903735
0.0896681
0.0891141
0.0882801
0.0875167
0.0865044
0.162238
0.153922
0.147767
0.14126
0.136552
0.131384
0.127751
0.123603
0.12079
0.117435
0.11526
0.112533
0.11086