/*--------------------------------*- C++ -*----------------------------------*\
| =========                 |                                                 |
| \\      /  F ield         | foam-extend: Open Source CFD                    |
|  \\    /   O peration     | Version:  3.0                                   |
|   \\  /    A nd           | Web:         http://www.extend-project.de       |
|    \\/     M anipulation  |                                                 |
\*---------------------------------------------------------------------------*/
FoamFile
{
    version     2.0;
    format      ascii;
    class       volVectorField;
    location    "20";
    object      s;
}
// * * * * * * * * * * * * * * * * * * * * * * * * * * * * * * * * * * * * * //

dimensions      [0 1 -1 0 0 0 0];

internalField   nonuniform List<vector> 
400
(
(2.85401 0.610988 0)
(1.55126 0.373932 0)
(0.855693 0.242069 0)
(0.47934 0.163872 0)
(0.23036 0.111495 0)
(0.0978838 0.0776842 0)
(-0.00730394 0.0521814 0)
(-0.0705536 0.0338583 0)
(-0.103525 0.0213839 0)
(-0.155006 0.0101398 0)
(2.50872 1.78558 0)
(1.346 1.09605 0)
(0.72592 0.713922 0)
(0.394034 0.487866 0)
(0.17214 0.338228 0)
(0.0563579 0.24318 0)
(-0.036468 0.173358 0)
(-0.096285 0.125471 0)
(-0.120915 0.0930411 0)
(-0.173953 0.0654696 0)
(1.8479 2.80883 0)
(0.951978 1.72962 0)
(0.478186 1.13108 0)
(0.232539 0.77781 0)
(0.0674573 0.543509 0)
(-0.0122084 0.396298 0)
(-0.0782436 0.288194 0)
(-0.118851 0.213929 0)
(-0.130486 0.16657 0)
(-0.169653 0.118985 0)
(0.93325 3.59511 0)
(0.405959 2.22489 0)
(0.133699 1.46282 0)
(0.00701201 1.01265 0)
(-0.0814621 0.712376 0)
(-0.111212 0.523227 0)
(-0.141494 0.383766 0)
(-0.156584 0.286058 0)
(-0.149548 0.225127 0)
(-0.173013 0.161914 0)
(-0.153952 4.0821 0)
(-0.245832 2.54419 0)
(-0.279191 1.68565 0)
(-0.265057 1.17844 0)
(-0.261705 0.837564 0)
(-0.233165 0.623703 0)
(-0.221732 0.463775 0)
(-0.208452 0.351364 0)
(-0.183497 0.280959 0)
(-0.19113 0.205783 0)
(-1.31595 4.23544 0)
(-0.946235 2.66753 0)
(-0.725887 1.78727 0)
(-0.562263 1.26648 0)
(-0.461449 0.9125 0)
(-0.370826 0.691046 0)
(-0.315123 0.522975 0)
(-0.271181 0.40409 0)
(-0.226565 0.330686 0)
(-0.216541 0.248737 0)
(-2.45071 4.05065 0)
(-1.63617 2.59082 0)
(-1.17022 1.76404 0)
(-0.861818 1.27403 0)
(-0.665712 0.93558 0)
(-0.514869 0.725122 0)
(-0.415544 0.56176 0)
(-0.341487 0.445438 0)
(-0.277662 0.374566 0)
(-0.249346 0.290491 0)
(-3.45978 3.55578 0)
(-2.25829 2.33007 0)
(-1.57736 1.62561 0)
(-1.1421 1.20668 0)
(-0.861464 0.909611 0)
(-0.657377 0.72648 0)
(-0.518803 0.579316 0)
(-0.417305 0.473381 0)
(-0.33622 0.410315 0)
(-0.29036 0.32852 0)
(-4.25853 2.80604 0)
(-2.76287 1.91587 0)
(-1.91633 1.38943 0)
(-1.38303 1.07441 0)
(-1.03547 0.840215 0)
(-0.789639 0.698169 0)
(-0.619216 0.577064 0)
(-0.495239 0.488377 0)
(-0.400348 0.437524 0)
(-0.338864 0.361972 0)
(-4.7839 1.88002 0)
(-3.1128 1.3932 0)
(-2.16429 1.08243 0)
(-1.57021 0.893515 0)
(-1.17874 0.736911 0)
(-0.906021 0.645184 0)
(-0.713473 0.556919 0)
(-0.573473 0.490202 0)
(-0.469205 0.454544 0)
(-0.394834 0.388261 0)
(-5.00005 0.870687 0)
(-3.28617 0.814961 0)
(-2.30692 0.73602 0)
(-1.69376 0.682855 0)
(-1.28428 0.610861 0)
(-1.00144 0.57378 0)
(-0.797907 0.521931 0)
(-0.649395 0.479784 0)
(-0.54089 0.46085 0)
(-0.457035 0.405908 0)
(-4.90171 -0.123068 0)
(-3.27886 0.237882 0)
(-2.34094 0.384225 0)
(-1.75091 0.463148 0)
(-1.34981 0.474429 0)
(-1.07387 0.490895 0)
(-0.870711 0.475391 0)
(-0.721349 0.457939 0)
(-0.613787 0.455572 0)
(-0.524033 0.412899 0)
(-4.51412 -1.00649 0)
(-3.10402 -0.283585 0)
(-2.27319 0.0597996 0)
(-1.74483 0.254446 0)
(-1.37637 0.339747 0)
(-1.12292 0.403561 0)
(-0.930707 0.420927 0)
(-0.787663 0.425998 0)
(-0.68587 0.438484 0)
(-0.59373 0.40793 0)
(-3.8903 -1.69801 0)
(-2.79091 -0.702326 0)
(-2.1203 -0.208743 0)
(-1.68482 0.0743546 0)
(-1.36879 0.217564 0)
(-1.15054 0.318105 0)
(-0.977974 0.361883 0)
(-0.847187 0.385286 0)
(-0.755105 0.40955 0)
(-0.66365 0.38999 0)
(-3.10542 -2.13714 0)
(-2.38147 -0.983139 0)
(-1.90654 -0.39988 0)
(-1.58477 -0.0636247 0)
(-1.33467 0.116314 0)
(-1.16021 0.239707 0)
(-1.01337 0.301225 0)
(-0.899032 0.337257 0)
(-0.819389 0.369214 0)
(-0.731007 0.358765 0)
(-2.24912 -2.29022 0)
(-1.92606 -1.10603 0)
(-1.66129 -0.501076 0)
(-1.46182 -0.151342 0)
(-1.28363 0.0413247 0)
(-1.15666 0.171891 0)
(-1.03846 0.24121 0)
(-0.942635 0.283304 0)
(-0.876681 0.318301 0)
(-0.792896 0.314599 0)
(-1.41641 -2.15349 0)
(-1.47825 -1.06797 0)
(-1.41595 -0.50984 0)
(-1.3344 -0.18664 0)
(-1.22613 -0.00556144 0)
(-1.14519 0.116323 0)
(-1.05514 0.183315 0)
(-0.97766 0.224751 0)
(-0.925088 0.25806 0)
(-0.846482 0.258575 0)
(-0.698122 -1.75317 0)
(-1.08933 -0.882989 0)
(-1.20068 -0.433803 0)
(-1.22032 -0.173422 0)
(-1.17235 -0.026046 0)
(-1.13103 0.072753 0)
(-1.06544 0.128169 0)
(-1.00395 0.162802 0)
(-0.96296 0.190114 0)
(-0.889197 0.192469 0)
(-0.17175 -1.14257 0)
(-0.803153 -0.580546 0)
(-1.04129 -0.28975 0)
(-1.13485 -0.121081 0)
(-1.13107 -0.0250474 0)
(-1.11874 0.0391835 0)
(-1.07116 0.0756294 0)
(-1.02146 0.0985395 0)
(-0.988974 0.116415 0)
(-0.918927 0.118675 0)
(0.106288 -0.39656 0)
(-0.651644 -0.202355 0)
(-0.956627 -0.101756 0)
(-1.08916 -0.0433828 0)
(-1.10871 -0.0100526 0)
(-1.11169 0.0122192 0)
(-1.07364 0.0249269 0)
(-1.03019 0.0329381 0)
(-1.0022 0.0391591 0)
(-0.93417 0.0400648 0)
(0.106297 0.396177 0)
(-0.651622 0.201988 0)
(-0.956598 0.101423 0)
(-1.08913 0.0430905 0)
(-1.10868 0.00979863 0)
(-1.11166 -0.012438 0)
(-1.0736 -0.0251146 0)
(-1.03016 -0.0330987 0)
(-1.00217 -0.0392965 0)
(-0.934143 -0.0401826 0)
(-0.17172 1.14217 0)
(-0.803085 0.580168 0)
(-1.04121 0.289414 0)
(-1.13476 0.120788 0)
(-1.13097 0.024796 0)
(-1.11864 -0.0393977 0)
(-1.07106 -0.0758109 0)
(-1.02137 -0.0986928 0)
(-0.988887 -0.116544 0)
(-0.918845 -0.118784 0)
(-0.698064 1.75273 0)
(-1.08921 0.882591 0)
(-1.20053 0.433458 0)
(-1.22016 0.173129 0)
(-1.17218 0.0257999 0)
(-1.13086 -0.0729575 0)
(-1.06528 -0.128337 0)
(-1.0038 -0.162941 0)
(-0.962816 -0.190227 0)
(-0.88906 -0.192561 0)
(-1.41631 2.153 0)
(-1.47806 1.06754 0)
(-1.41573 0.509484 0)
(-1.33416 0.186348 0)
(-1.22589 0.00532459 0)
(-1.14496 -0.116512 0)
(-1.05492 -0.183463 0)
(-0.977444 -0.224866 0)
(-0.924885 -0.258147 0)
(-0.84629 -0.258639 0)
(-2.24895 2.28966 0)
(-1.9258 1.10557 0)
(-1.66099 0.500707 0)
(-1.46149 0.151051 0)
(-1.28331 -0.0415482 0)
(-1.15635 -0.172058 0)
(-1.03816 -0.241331 0)
(-0.942353 -0.283386 0)
(-0.876417 -0.318352 0)
(-0.792648 -0.314626 0)
(-3.10517 2.13651 0)
(-2.38111 0.982645 0)
(-1.90614 0.3995 0)
(-1.58435 0.0633403 0)
(-1.33426 -0.116518 0)
(-1.15982 -0.239844 0)
(-1.013 -0.301307 0)
(-0.898682 -0.337296 0)
(-0.819063 -0.369218 0)
(-0.730704 -0.358742 0)
(-3.88994 1.69731 0)
(-2.79044 0.701794 0)
(-2.11979 0.208351 0)
(-1.68429 -0.074631 0)
(-1.36828 -0.217744 0)
(-1.15005 -0.318206 0)
(-0.977516 -0.361921 0)
(-0.846762 -0.385273 0)
(-0.754715 -0.409498 0)
(-0.663291 -0.389907 0)
(-4.51362 1.00572 0)
(-3.10342 0.283015 0)
(-2.27254 -0.0602006 0)
(-1.74419 -0.254707 0)
(-1.37575 -0.339892 0)
(-1.12234 -0.403611 0)
(-0.930163 -0.420902 0)
(-0.787164 -0.425914 0)
(-0.685414 -0.438355 0)
(-0.593315 -0.407767 0)
(-4.90105 0.122226 0)
(-3.27809 -0.238488 0)
(-2.34013 -0.384637 0)
(-1.7501 -0.463398 0)
(-1.34904 -0.474545 0)
(-1.07314 -0.490901 0)
(-0.870048 -0.475309 0)
(-0.72075 -0.457788 0)
(-0.613252 -0.455369 0)
(-0.523558 -0.412658 0)
(-4.99922 -0.871594 0)
(-3.28526 -0.815615 0)
(-2.30598 -0.736455 0)
(-1.69283 -0.683099 0)
(-1.28339 -0.610938 0)
(-1.00062 -0.573717 0)
(-0.797154 -0.521754 0)
(-0.648719 -0.479519 0)
(-0.540289 -0.46052 0)
(-0.456504 -0.405531 0)
(-4.78287 -1.88096 0)
(-3.11167 -1.39388 0)
(-2.16309 -1.08287 0)
(-1.56901 -0.893743 0)
(-1.17757 -0.736953 0)
(-0.904929 -0.645072 0)
(-0.712486 -0.556684 0)
(-0.572608 -0.489874 0)
(-0.468461 -0.454149 0)
(-0.394204 -0.387819 0)
(-4.25736 -2.80707 0)
(-2.76161 -1.91669 0)
(-1.91501 -1.39 0)
(-1.38171 -1.07474 0)
(-1.0342 -0.840288 0)
(-0.788461 -0.698011 0)
(-0.618152 -0.576708 0)
(-0.494307 -0.487863 0)
(-0.399549 -0.4369 0)
(-0.338194 -0.361272 0)
(-3.45845 -3.55681 0)
(-2.25677 -2.33088 0)
(-1.57565 -1.62614 0)
(-1.14028 -1.20695 0)
(-0.859625 -0.909616 0)
(-0.655631 -0.726268 0)
(-0.517199 -0.578919 0)
(-0.41592 -0.47285 0)
(-0.335055 -0.409686 0)
(-0.289413 -0.327834 0)
(-2.44931 -4.05192 0)
(-1.63453 -2.59204 0)
(-1.16838 -1.76504 0)
(-0.859859 -1.27473 0)
(-0.663716 -0.935877 0)
(-0.512947 -0.725009 0)
(-0.413784 -0.56126 0)
(-0.339959 -0.444613 0)
(-0.276403 -0.373544 0)
(-0.248379 -0.289329 0)
(-1.31458 -4.23668 0)
(-0.944428 -2.66871 0)
(-0.723616 -1.78816 0)
(-0.55963 -1.26713 0)
(-0.458491 -0.91278 0)
(-0.367847 -0.691035 0)
(-0.312184 -0.522583 0)
(-0.268596 -0.403437 0)
(-0.224375 -0.329748 0)
(-0.214793 -0.247663 0)
(-0.152529 -4.08382 0)
(-0.243836 -2.54618 0)
(-0.276675 -1.68754 0)
(-0.262007 -1.18007 0)
(-0.258294 -0.838601 0)
(-0.229431 -0.623992 0)
(-0.218 -0.463367 0)
(-0.204912 -0.350159 0)
(-0.180378 -0.279455 0)
(-0.188781 -0.204016 0)
(0.934225 -3.59684 0)
(0.407623 -2.22694 0)
(0.136241 -1.46482 0)
(0.0105207 -1.01478 0)
(-0.0766861 -0.714195 0)
(-0.105702 -0.524887 0)
(-0.13517 -0.384592 0)
(-0.150296 -0.28618 0)
(-0.144074 -0.224104 0)
(-0.168616 -0.159983 0)
(1.84881 -2.81092 0)
(0.953843 -1.73268 0)
(0.480811 -1.13456 0)
(0.236402 -0.781373 0)
(0.0722771 -0.546903 0)
(-0.00555766 -0.398578 0)
(-0.0696863 -0.28978 0)
(-0.108395 -0.213208 0)
(-0.117322 -0.164861 0)
(-0.155178 -0.115844 0)
(2.50847 -1.78843 0)
(1.34645 -1.09954 0)
(0.727638 -0.71814 0)
(0.397159 -0.49322 0)
(0.178027 -0.344525 0)
(0.0647357 -0.250901 0)
(-0.0240519 -0.182171 0)
(-0.0793018 -0.134636 0)
(-0.0996421 -0.10385 0)
(-0.146292 -0.0733732 0)
(2.85423 -0.614694 0)
(1.55219 -0.37813 0)
(0.856602 -0.24771 0)
(0.480731 -0.17062 0)
(0.231594 -0.120435 0)
(0.0993808 -0.0885844 0)
(-0.0032669 -0.0657451 0)
(-0.0681114 -0.0509822 0)
(-0.0939009 -0.0398665 0)
(-0.145882 -0.0334439 0)
)
;

boundaryField
{
    up
    {
        type            myHeatFlux;
        alpha           uniform 1;
        Theta_wall      uniform 1;
        value           nonuniform List<vector> 
40
(
(-0.154706 0.00859982 -0)
(-0.171056 0.0588129 -0)
(-0.163025 0.108759 -6.02468e-18)
(-0.162731 0.149817 -0)
(-0.177734 0.191874 -5.82481e-19)
(-0.199185 0.234548 -2.70801e-18)
(-0.228147 0.277161 0)
(-0.265754 0.317176 -1.05759e-17)
(-0.311638 0.353501 0)
(-0.365993 0.383261 0)
(-0.427722 0.404642 0)
(-0.495398 0.415258 0)
(-0.566829 0.41346 3.31042e-17)
(-0.639334 0.397936 0)
(-0.709845 0.368154 4.09561e-17)
(-0.77512 0.324337 -4.42223e-17)
(-0.831966 0.267559 0)
(-0.877477 0.1997 -4.90345e-17)
(-0.909249 0.123357 0)
(-0.925568 0.0416872 0)
(-0.925542 -0.0417968 0)
(-0.90917 -0.123458 0)
(-0.877344 -0.199783 4.90295e-17)
(-0.83178 -0.267614 0)
(-0.77488 -0.324354 4.42129e-17)
(-0.709552 -0.368121 -4.09442e-17)
(-0.638989 -0.397843 0)
(-0.566432 -0.413285 -3.30869e-17)
(-0.494948 -0.415005 0)
(-0.427223 -0.40425 0)
(-0.365409 -0.382806 0)
(-0.311029 -0.352782 0)
(-0.264897 -0.316473 1.05581e-17)
(-0.227302 -0.275984 0)
(-0.197643 -0.233441 2.71683e-18)
(-0.175673 -0.190113 5.59078e-19)
(-0.159332 -0.147581 0)
(-0.148872 -0.106086 5.35848e-18)
(-0.141656 -0.0670429 0)
(-0.142906 -0.0306189 0)
)
;
    }
    hole
    {
        type            myHeatFlux;
        alpha           uniform 1;
        Theta_wall      uniform 4;
        value           nonuniform List<vector> 
40
(
(4.34879 0.871546 0)
(3.84944 2.54309 -2.99641e-17)
(2.89306 3.99321 0)
(1.57018 5.09714 5.53032e-17)
(0.00157107 5.76435 5.17489e-17)
(-1.67011 5.94487 -4.74792e-17)
(-3.2949 5.63353 -4.25864e-17)
(-4.72857 4.87252 0)
(-5.8475 3.74432 0)
(-6.55995 2.3655 0)
(-6.81457 0.873724 0)
(-6.60515 -0.58485 -6.72462e-18)
(-5.97059 -1.87044 0)
(-4.99075 -2.86296 2.30204e-18)
(-3.77818 -3.47376 -2.5943e-18)
(-2.46665 -3.65403 6.87407e-18)
(-1.19774 -3.39933 1.04318e-17)
(-0.106628 -2.7497 0)
(0.691417 -1.78539 0)
(1.11251 -0.618541 0)
(1.11251 0.618185 0)
(0.691405 1.78501 7.52432e-18)
(-0.106637 2.74927 0)
(-1.19773 3.39882 -1.04283e-17)
(-2.46659 3.65343 -6.86931e-18)
(-3.77805 3.47306 2.58809e-18)
(-4.99051 2.86215 -2.30988e-18)
(-5.9702 1.86952 -0)
(-6.60459 0.583837 -0)
(-6.81382 -0.874818 -0)
(-6.55898 -2.36661 -0)
(-5.84636 -3.7455 -1.57339e-17)
(-4.72728 -4.87362 -0)
(-3.29354 -5.6348 4.26111e-17)
(-1.66885 -5.946 4.75023e-17)
(0.00286611 -5.76593 -5.17766e-17)
(1.57107 -5.09873 -5.53252e-17)
(2.8935 -3.99498 -0)
(3.84859 -2.54558 -0)
(4.3494 -0.87503 -0)
)
;
    }
    frontAndBack
    {
        type            empty;
    }
}


// ************************************************************************* //
