/*--------------------------------*- C++ -*----------------------------------*\
| =========                 |                                                 |
| \\      /  F ield         | foam-extend: Open Source CFD                    |
|  \\    /   O peration     | Version:  3.0                                   |
|   \\  /    A nd           | Web:         http://www.extend-project.de       |
|    \\/     M anipulation  |                                                 |
\*---------------------------------------------------------------------------*/
FoamFile
{
    version     2.0;
    format      ascii;
    class       volScalarField;
    location    "20";
    object      Theta;
}
// * * * * * * * * * * * * * * * * * * * * * * * * * * * * * * * * * * * * * //

dimensions      [0 2 -2 0 0 0 0];

internalField   nonuniform List<scalar> 
400
(
-0.40345
-0.383107
-0.20521
0.345379
-0.168709
0.938449
-0.195111
1.16771
0.144838
0.846484
-0.31712
-0.336886
-0.204187
0.383733
-0.182916
1.02133
-0.137077
1.23305
0.397836
0.839358
-0.200367
-0.19221
-0.0718241
0.483719
-0.083819
1.0296
-0.105489
1.15827
0.319145
0.704654
-0.0159826
-0.0351296
0.0275777
0.585877
-0.0238363
1.13205
-0.0454179
1.25339
0.396563
0.760141
0.242239
0.220169
0.240865
0.775572
0.133339
1.25005
0.0562273
1.31848
0.454606
0.812946
0.533573
0.480408
0.431069
0.941891
0.259835
1.37103
0.150632
1.41201
0.529382
0.87752
0.882248
0.814732
0.70223
1.18438
0.459283
1.54103
0.290931
1.52692
0.623256
0.95405
1.25529
1.15659
0.964485
1.41176
0.641008
1.69916
0.421894
1.64123
0.718668
1.03531
1.66061
1.53828
1.26854
1.68048
0.861257
1.8889
0.579254
1.77369
0.827194
1.12443
2.07744
1.92483
1.5707
1.9441
1.07501
2.07301
0.732521
1.90448
0.93593
1.21551
2.50176
2.32153
1.88416
2.21939
1.29985
2.26666
0.893555
2.04083
1.04836
1.30858
2.9198
2.71075
2.19025
2.48724
1.51797
2.45441
1.04985
2.17359
1.15831
1.40012
3.32289
3.08676
2.48667
2.74706
1.72989
2.63686
1.20168
2.30236
1.26472
1.48845
3.70035
3.43857
2.76375
2.98973
1.92771
2.80716
1.34342
2.42264
1.36422
1.57115
4.04319
3.75823
3.01562
3.2104
2.10764
2.96206
1.47234
2.53201
1.45465
1.64627
4.34283
4.03756
3.23568
3.40318
2.26482
3.09737
1.58496
2.62757
1.53367
1.71192
4.59192
4.26979
3.41865
3.56347
2.39551
3.20988
1.6786
2.70701
1.59937
1.7665
4.78431
4.44916
3.55995
3.68726
2.49644
3.29677
1.75091
2.76837
1.65011
1.80866
4.91526
4.57124
3.65613
3.77152
2.56514
3.35591
1.80013
2.81013
1.68464
1.83734
4.98154
4.63302
3.7048
3.81415
2.5999
3.38583
1.82503
2.83126
1.70211
1.85186
4.9815
4.63298
3.70477
3.81412
2.59987
3.3858
1.825
2.83123
1.70208
1.85184
4.91515
4.57111
3.65602
3.7714
2.56503
3.35582
1.80004
2.81005
1.68457
1.83729
4.78412
4.44894
3.55975
3.68707
2.49626
3.29661
1.75076
2.76824
1.64999
1.80856
4.59165
4.26948
3.41836
3.56319
2.39525
3.20965
1.67838
2.70683
1.5992
1.76636
4.34246
4.03715
3.2353
3.40281
2.26447
3.09707
1.58467
2.62732
1.53346
1.71174
4.04271
3.75767
3.0151
3.2099
2.10717
2.96165
1.47196
2.53169
1.45437
1.64603
3.69977
3.43793
2.76318
2.98919
1.92721
2.80672
1.34301
2.42229
1.3639
1.57087
3.32211
3.08583
2.48577
2.74615
1.72904
2.63611
1.20101
2.30181
1.26427
1.48809
2.919
2.70999
2.18966
2.48674
1.51753
2.45403
1.04946
2.17323
1.15794
1.39975
2.50045
2.3198
1.88223
2.21739
1.29791
2.26495
0.892098
2.0397
1.04753
1.30803
2.07669
1.92465
1.57101
1.94473
1.07567
2.07362
0.732882
1.9046
0.9358
1.21518
1.6582
1.53445
1.26356
1.67523
0.855924
1.88435
0.575392
1.77097
0.825351
1.12346
1.25545
1.15909
0.968335
1.41668
0.645565
1.70317
0.424797
1.64299
0.719483
1.03533
0.877672
0.806216
0.689814
1.17177
0.44567
1.53064
0.281353
1.5214
0.61926
0.952406
0.536061
0.488897
0.442574
0.955615
0.271913
1.38015
0.15752
1.41466
0.531119
0.878139
0.234699
0.204757
0.215484
0.753379
0.105412
1.23601
0.0373027
1.31429
0.448777
0.81135
-0.0106046
-0.0194034
0.0493383
0.607643
-0.00298097
1.13539
-0.0377687
1.24077
0.390886
0.759549
-0.208135
-0.212129
-0.11405
0.459845
-0.132015
1.03122
-0.133238
1.1734
0.330969
0.71434
-0.332039
-0.318508
-0.170704
0.399414
-0.148518
0.980237
-0.141622
1.13168
0.302586
0.688012
-0.405533
-0.399331
-0.261619
0.330967
-0.236615
0.955816
-0.205867
1.13131
0.286413
0.672995
)
;

boundaryField
{
    up
    {
        type            myTemperature;
        value           nonuniform List<scalar> 
40
(
0.846445
0.8474
0.891005
0.939529
0.989462
1.04899
1.11711
1.19133
1.27098
1.35336
1.43695
1.51943
1.5989
1.67335
1.74095
1.80005
1.84917
1.88711
1.91292
1.92599
1.92597
1.91287
1.88701
1.84904
1.79987
1.74074
1.67309
1.59859
1.51908
1.43652
1.35296
1.27043
1.19101
1.11655
1.04915
0.989885
0.941258
0.903057
0.877909
0.859937
)
;
    }
    hole
    {
        type            myTemperature;
        value           nonuniform List<scalar> 
40
(
-0.40377
-0.336752
-0.200977
-0.0020516
0.255157
0.564136
0.918209
1.30793
1.72422
2.1565
2.59429
3.02674
3.44321
3.83341
4.18774
4.49745
4.7549
4.95376
5.08911
5.15761
5.15758
5.08901
4.95358
4.75465
4.4971
4.18729
3.83284
3.4425
3.02588
2.59326
2.15531
1.7228
1.30642
0.91642
0.562461
0.253148
-0.00364354
-0.202061
-0.336507
-0.404648
)
;
    }
    frontAndBack
    {
        type            empty;
    }
}


// ************************************************************************* //
