/*--------------------------------*- C++ -*----------------------------------*\
| =========                 |                                                 |
| \\      /  F ield         | foam-extend: Open Source CFD                    |
|  \\    /   O peration     | Version:  3.0                                   |
|   \\  /    A nd           | Web:         http://www.extend-project.de       |
|    \\/     M anipulation  |                                                 |
\*---------------------------------------------------------------------------*/
FoamFile
{
    version     2.0;
    format      ascii;
    class       volScalarField;
    location    "2.1";
    object      p;
}
// * * * * * * * * * * * * * * * * * * * * * * * * * * * * * * * * * * * * * //

dimensions      [0 0 0 0 0 0 0];

internalField   nonuniform List<scalar> 
400
(
1.04648
1.00525
0.994578
0.973017
0.980206
0.969186
0.986007
0.979564
1.00092
0.995953
1.01884
1.01375
1.03575
1.02889
1.04657
1.03478
1.04232
1.01968
1.00842
0.966479
1.07904
1.03952
1.03277
1.01257
1.01882
1.00445
1.01556
1.00192
1.01448
1.00023
1.01313
0.998535
1.01129
0.996709
1.00804
0.992404
0.998592
0.977131
0.969772
0.929494
1.05661
1.01697
1.01043
0.990119
0.998915
0.98643
1.00153
0.991463
1.00894
0.999232
1.01759
1.00768
1.02603
1.01532
1.03172
1.01813
1.0278
1.00594
0.998985
0.958016
1.04896
1.00648
1.00185
0.981863
0.992417
0.980778
0.996376
0.986876
1.00377
0.994391
1.01177
1.00228
1.02006
1.01015
1.02709
1.01452
1.0259
1.00414
0.998589
0.954081
1.01969
0.972452
0.970517
0.951706
0.967167
0.959284
0.980355
0.975882
0.99861
0.994922
1.01868
1.01507
1.03994
1.03552
1.06017
1.05169
1.07041
1.04925
1.04745
0.995766
0.999587
0.947124
0.948067
0.930764
0.949445
0.944384
0.96709
0.965267
0.988286
0.987051
1.01058
1.00963
1.0348
1.03361
1.06008
1.05509
1.07743
1.05752
1.05824
0.998148
0.969065
0.909463
0.91603
0.901469
0.926208
0.925936
0.953589
0.95688
0.984375
0.988388
1.01685
1.02143
1.05294
1.05767
1.0928
1.09353
1.12686
1.10921
1.11891
1.04539
0.944971
0.880707
0.892081
0.881193
0.90904
0.912653
0.940857
0.947091
0.973404
0.979825
1.0063
1.01353
1.04334
1.05178
1.08703
1.09288
1.12975
1.116
1.13087
1.0458
0.914076
0.847566
0.865812
0.860116
0.892391
0.901163
0.931849
0.9425
0.970632
0.981126
1.00985
1.02145
1.05514
1.06898
1.11131
1.12395
1.17265
1.16454
1.19351
1.09616
0.88799
0.827909
0.85012
0.850898
0.883353
0.896055
0.924665
0.937401
0.961972
0.973641
0.997694
1.01053
1.0389
1.05525
1.09281
1.11068
1.15763
1.15738
1.19012
1.09176
0.852688
0.806972
0.834021
0.843088
0.87595
0.893621
0.921329
0.93726
0.960659
0.974725
0.997942
1.0133
1.042
1.06221
1.10281
1.12748
1.18286
1.19329
1.24218
1.15046
0.819894
0.80131
0.829409
0.84799
0.877601
0.898697
0.921998
0.938648
0.95661
0.970138
0.986483
1.001
1.02087
1.04123
1.07094
1.09934
1.14352
1.16624
1.21092
1.14742
0.774897
0.79076
0.82168
0.851843
0.878832
0.904674
0.924624
0.943134
0.957667
0.971793
0.984756
0.999697
1.01651
1.03856
1.06675
1.10114
1.14887
1.18825
1.25048
1.22663
0.734129
0.793567
0.8258
0.867615
0.890792
0.91924
0.934079
0.951828
0.960277
0.972232
0.977494
0.989574
0.995739
1.01518
1.02822
1.06354
1.09138
1.14571
1.19232
1.23128
0.688011
0.789944
0.825264
0.880425
0.900468
0.933045
0.943474
0.961624
0.965428
0.976324
0.976689
0.987226
0.987964
1.00668
1.01452
1.054
1.08143
1.15672
1.22424
1.33337
0.656417
0.800483
0.841511
0.906632
0.9243
0.957389
0.962885
0.978609
0.976657
0.98418
0.977479
0.983756
0.974308
0.987835
0.97976
1.01581
1.01891
1.10554
1.14441
1.33499
0.639599
0.813904
0.85583
0.931627
0.945679
0.980556
0.980928
0.995229
0.988211
0.99338
0.981403
0.984699
0.968747
0.97904
0.963056
0.999345
0.997438
1.10285
1.16085
1.4369
0.662854
0.849711
0.898696
0.97516
0.985656
1.01657
1.0116
1.02165
1.00974
1.01104
0.993827
0.99251
0.968869
0.972202
0.942972
0.969775
0.944394
1.04625
1.0611
1.39749
0.718377
0.899883
0.941942
1.01952
1.02339
1.05124
1.04016
1.04673
1.03007
1.02833
1.00663
1.00177
0.972088
0.970092
0.931459
0.951888
0.914465
1.02034
1.0326
1.43967
0.886929
0.997379
1.02994
1.08901
1.08257
1.09965
1.08251
1.08319
1.0633
1.05791
1.03398
1.0252
0.992275
0.982775
0.937096
0.940705
0.887742
0.959592
0.92591
1.27949
)
;

boundaryField
{
    cavity
    {
        type            implicitExtrapolation;
    }
    lid
    {
        type            implicitExtrapolation;
    }
    frontAndBack
    {
        type            empty;
    }
}


// ************************************************************************* //
