/*--------------------------------*- C++ -*----------------------------------*\
| =========                 |                                                 |
| \\      /  F ield         | foam-extend: Open Source CFD                    |
|  \\    /   O peration     | Version:  3.0                                   |
|   \\  /    A nd           | Web:         http://www.extend-project.de       |
|    \\/     M anipulation  |                                                 |
\*---------------------------------------------------------------------------*/
FoamFile
{
    version     2.0;
    format      ascii;
    class       volVectorField;
    location    "2.1";
    object      u;
}
// * * * * * * * * * * * * * * * * * * * * * * * * * * * * * * * * * * * * * //

dimensions      [0 0 0 0 0 0 0];

internalField   nonuniform List<vector> 
400
(
(0.0116095 0.0074049 4.66374e-316)
(-0.0902342 0.0739231 4.20664e-316)
(-0.110943 0.0733089 3.36092e-316)
(-0.201122 0.103749 3.19815e-316)
(-0.24294 0.0927382 2.27108e-316)
(-0.312919 0.0912509 2.31293e-316)
(-0.351989 0.0739643 1.45512e-316)
(-0.397 0.0573034 1.62817e-316)
(-0.420003 0.0369699 8.70388e-317)
(-0.437001 0.0147675 1.14119e-316)
(-0.438071 -0.0067016 4.64748e-317)
(-0.425439 -0.0297796 8.02381e-317)
(-0.403756 -0.0515288 1.77058e-317)
(-0.361055 -0.0703305 5.49295e-317)
(-0.321397 -0.0896408 -5.1817e-318)
(-0.250533 -0.0930367 3.16834e-317)
(-0.206709 -0.105013 -2.56412e-317)
(-0.113162 -0.0739817 2.01842e-318)
(-0.0916498 -0.0734168 -4.03563e-317)
(0.0135757 -0.00245847 -3.97346e-317)
(-0.0309988 0.121566 1.53456e-316)
(-0.0888762 0.131397 1.92103e-316)
(-0.130355 0.114851 1.85288e-316)
(-0.18362 0.118966 1.88508e-316)
(-0.21298 0.0987542 1.63507e-316)
(-0.254073 0.0925661 1.5499e-316)
(-0.275258 0.0708635 1.24345e-316)
(-0.301289 0.056254 1.14518e-316)
(-0.312911 0.0327186 8.50997e-317)
(-0.322587 0.0133079 7.8153e-317)
(-0.322661 -0.0117292 5.22749e-317)
(-0.315227 -0.0315584 4.89321e-317)
(-0.303556 -0.057194 2.62937e-317)
(-0.278956 -0.0726455 2.55632e-317)
(-0.25737 -0.0977378 4.86048e-318)
(-0.216242 -0.104117 4.7912e-318)
(-0.186535 -0.12749 -1.54149e-317)
(-0.131547 -0.121746 -1.98382e-317)
(-0.0904935 -0.139423 -4.06322e-317)
(-0.0304295 -0.126135 -6.66213e-317)
(-0.0149007 0.192813 2.37428e-316)
(-0.088144 0.226172 2.18558e-316)
(-0.132832 0.219162 1.91393e-316)
(-0.196885 0.228869 1.73194e-316)
(-0.239655 0.20098 1.43434e-316)
(-0.286452 0.184357 1.30175e-316)
(-0.318213 0.146653 1.02619e-316)
(-0.34692 0.112198 9.32735e-317)
(-0.363973 0.0700133 6.88972e-317)
(-0.375554 0.0267034 6.26225e-317)
(-0.37646 -0.0176208 4.07427e-317)
(-0.370863 -0.0619854 3.62589e-317)
(-0.354913 -0.106912 1.52067e-317)
(-0.330227 -0.143718 1.0228e-317)
(-0.297849 -0.185807 -1.27929e-317)
(-0.251279 -0.20384 -2.2561e-317)
(-0.206511 -0.235354 -5.1481e-317)
(-0.138086 -0.223552 -7.50702e-317)
(-0.0925578 -0.230083 -1.13225e-316)
(-0.0127706 -0.191246 -1.65619e-316)
(-0.0238167 0.273653 2.90667e-317)
(-0.0940945 0.306225 7.30913e-317)
(-0.14326 0.278157 8.69712e-317)
(-0.191235 0.278752 9.69262e-317)
(-0.229865 0.235002 9.33845e-317)
(-0.258593 0.210138 8.84931e-317)
(-0.283857 0.163694 7.73466e-317)
(-0.299465 0.123739 6.79811e-317)
(-0.31224 0.0770454 5.50637e-317)
(-0.318823 0.0296228 4.5388e-317)
(-0.319772 -0.0185693 3.29894e-317)
(-0.3184 -0.0674079 2.41874e-317)
(-0.30679 -0.119098 1.27942e-317)
(-0.295199 -0.162282 5.11368e-318)
(-0.269223 -0.217646 -4.88836e-318)
(-0.2415 -0.244508 -1.02873e-317)
(-0.200473 -0.29797 -1.693e-317)
(-0.14842 -0.293808 -1.53747e-317)
(-0.0985198 -0.325825 -1.36575e-317)
(-0.0198854 -0.282387 5.50108e-318)
(-0.0318597 0.35578 1.88184e-316)
(-0.10897 0.391502 1.55597e-316)
(-0.175019 0.354068 1.3445e-316)
(-0.224198 0.348058 1.14011e-316)
(-0.276847 0.294722 9.72887e-317)
(-0.304614 0.257522 8.35925e-317)
(-0.339368 0.203627 6.96438e-317)
(-0.354729 0.14923 5.86907e-317)
(-0.372739 0.0970596 4.63898e-317)
(-0.381359 0.0344548 3.67132e-317)
(-0.383688 -0.018231 2.51956e-317)
(-0.386959 -0.0828763 1.57806e-317)
(-0.372142 -0.139578 3.81786e-318)
(-0.366552 -0.198835 -7.05632e-318)
(-0.330958 -0.261483 -2.17148e-317)
(-0.307355 -0.302249 -3.76705e-317)
(-0.249167 -0.366352 -5.90047e-317)
(-0.193834 -0.367714 -8.79282e-317)
(-0.122368 -0.410439 -1.21367e-316)
(-0.0280007 -0.357267 -1.74542e-316)
(-0.0454721 0.459857 1.81048e-317)
(-0.112134 0.496303 4.96008e-317)
(-0.190206 0.432566 6.03181e-317)
(-0.218594 0.414748 6.75159e-317)
(-0.272532 0.343934 6.5912e-317)
(-0.280575 0.29354 6.16431e-317)
(-0.312402 0.232105 5.43492e-317)
(-0.314222 0.167313 4.64181e-317)
(-0.329915 0.11331 3.74392e-317)
(-0.333078 0.0420382 2.87963e-317)
(-0.33598 -0.0115494 1.96298e-317)
(-0.342989 -0.086151 1.10372e-317)
(-0.331422 -0.147947 2.03647e-318)
(-0.339622 -0.221208 -6.19044e-318)
(-0.306942 -0.298883 -1.43796e-317)
(-0.306277 -0.357268 -2.0526e-317)
(-0.244565 -0.451096 -2.52439e-317)
(-0.214637 -0.464863 -2.29041e-317)
(-0.126237 -0.546554 -1.82054e-317)
(-0.0434508 -0.481777 5.47725e-318)
(-0.0757131 0.551806 1.78927e-316)
(-0.12999 0.573426 1.36032e-316)
(-0.238255 0.488774 1.12692e-316)
(-0.249337 0.452267 9.06017e-317)
(-0.317059 0.374065 7.57976e-317)
(-0.312438 0.307691 6.2979e-317)
(-0.350428 0.247057 5.20411e-317)
(-0.346234 0.170256 4.226e-317)
(-0.365224 0.121202 3.28561e-317)
(-0.369235 0.0400117 2.40212e-317)
(-0.374388 -0.00637955 1.50149e-317)
(-0.389411 -0.0917527 6.08695e-318)
(-0.378193 -0.145829 -3.58365e-318)
(-0.401925 -0.233796 -1.40158e-317)
(-0.363635 -0.306988 -2.62649e-317)
(-0.384896 -0.385542 -4.14426e-317)
(-0.303596 -0.486072 -6.00819e-317)
(-0.29546 -0.520779 -8.81242e-317)
(-0.162288 -0.628718 -1.19664e-316)
(-0.0832955 -0.571011 -1.74423e-316)
(-0.112175 0.701092 2.35966e-317)
(-0.120953 0.689782 4.91823e-317)
(-0.251387 0.575773 5.56114e-317)
(-0.224589 0.510191 5.94712e-317)
(-0.29307 0.421226 5.62433e-317)
(-0.263489 0.33441 5.09464e-317)
(-0.296636 0.274116 4.38388e-317)
(-0.277397 0.184753 3.61776e-317)
(-0.292979 0.141305 2.81637e-317)
(-0.289748 0.0511446 2.0163e-317)
(-0.295571 0.0114579 1.20508e-317)
(-0.31162 -0.0850313 3.99686e-318)
(-0.305109 -0.135833 -4.21057e-318)
(-0.34166 -0.243144 -1.22946e-317)
(-0.308601 -0.323302 -2.02164e-317)
(-0.360886 -0.433485 -2.69003e-317)
(-0.274907 -0.56156 -3.21571e-317)
(-0.321261 -0.63567 -3.09683e-317)
(-0.150721 -0.799341 -2.74693e-317)
(-0.136618 -0.769296 -4.12395e-318)
(-0.163444 0.810638 1.73961e-316)
(-0.123082 0.732359 1.27015e-316)
(-0.291411 0.607746 1.02761e-316)
(-0.230345 0.50273 8.03399e-317)
(-0.308616 0.420989 6.59917e-317)
(-0.260281 0.314047 5.36919e-317)
(-0.294436 0.265189 4.35614e-317)
(-0.26691 0.166784 3.44179e-317)
(-0.28312 0.136294 2.59066e-317)
(-0.27974 0.0417823 1.77648e-317)
(-0.288777 0.0175969 9.69466e-318)
(-0.313205 -0.0840853 1.53213e-318)
(-0.311889 -0.115155 -7.07931e-318)
(-0.368089 -0.234993 -1.65357e-317)
(-0.336579 -0.291551 -2.73938e-317)
(-0.42416 -0.430339 -4.11496e-317)
(-0.320456 -0.539361 -5.80271e-317)
(-0.42029 -0.666952 -8.47344e-317)
(-0.179917 -0.843024 -1.1519e-316)
(-0.222272 -0.892003 -1.72394e-316)
(-0.200351 0.998925 2.95855e-317)
(-0.0814836 0.826238 5.36919e-317)
(-0.264512 0.690358 5.7295e-317)
(-0.163214 0.531148 5.8657e-317)
(-0.234041 0.455377 5.35667e-317)
(-0.16658 0.32138 4.69813e-317)
(-0.190958 0.283223 3.9293e-317)
(-0.15219 0.173232 3.14253e-317)
(-0.162733 0.155685 2.35989e-317)
(-0.150794 0.0557662 1.59183e-317)
(-0.16004 0.0457963 8.31902e-318)
(-0.178147 -0.0638255 7.52166e-319)
(-0.183352 -0.0810858 -6.92147e-318)
(-0.240033 -0.221869 -1.46399e-317)
(-0.219464 -0.269481 -2.23451e-317)
(-0.327797 -0.455868 -2.92929e-317)
(-0.228209 -0.571884 -3.52001e-317)
(-0.396653 -0.786861 -3.54311e-317)
(-0.116772 -1.01029 -3.38061e-317)
(-0.298136 -1.18489 -1.22789e-317)
(-0.230967 1.09101 1.69034e-316)
(-0.0567684 0.801875 1.2149e-316)
(-0.258386 0.692968 9.76977e-317)
(-0.130281 0.477591 7.57893e-317)
(-0.197612 0.428516 6.1709e-317)
(-0.118275 0.274474 4.96189e-317)
(-0.135522 0.254244 3.96501e-317)
(-0.0915639 0.140237 3.07213e-317)
(-0.0992153 0.137085 2.25265e-317)
(-0.0865348 0.039016 1.47954e-317)
(-0.0997072 0.0453595 7.27494e-318)
(-0.122335 -0.0627662 -2.1317e-319)
(-0.138612 -0.0555322 -7.97259e-318)
(-0.208872 -0.20321 -1.63633e-317)
(-0.202485 -0.21006 -2.58586e-317)
(-0.341296 -0.428432 -3.78931e-317)
(-0.240912 -0.481635 -5.27129e-317)
(-0.468862 -0.785743 -7.74647e-317)
(-0.125419 -0.953221 -1.06106e-316)
(-0.39311 -1.3047 -1.65946e-316)
(-0.196814 1.2657 3.45077e-317)
(0.0172899 0.853168 6.02366e-317)
(-0.148074 0.759946 6.17389e-317)
(-0.0149306 0.4764 6.09717e-317)
(-0.0557306 0.446249 5.3965e-317)
(0.0224417 0.264843 4.59776e-317)
(0.0213817 0.260224 3.7482e-317)
(0.0676436 0.13969 2.92301e-317)
(0.067661 0.15202 2.13917e-317)
(0.0889316 0.0552504 1.392e-317)
(0.0764763 0.0788486 6.72897e-318)
(0.0701225 -0.0299289 -3.16721e-319)
(0.0466379 -0.00249358 -7.34633e-318)
(-0.000331983 -0.166018 -1.44012e-317)
(-0.0124145 -0.150107 -2.14569e-317)
(-0.13046 -0.424263 -2.79542e-317)
(-0.0599435 -0.458243 -3.35594e-317)
(-0.307411 -0.896367 -3.4144e-317)
(0.0130687 -1.08275 -3.28819e-317)
(-0.392805 -1.6595 -1.23186e-317)
(-0.15847 1.25666 1.64322e-316)
(0.047154 0.765962 1.1951e-316)
(-0.0792492 0.726239 9.63048e-317)
(0.0474653 0.400674 7.48028e-317)
(0.0354099 0.399734 6.04224e-317)
(0.111564 0.209238 4.80722e-317)
(0.128296 0.21789 3.78622e-317)
(0.174687 0.101081 2.88693e-317)
(0.181313 0.121225 2.07907e-317)
(0.203782 0.0321271 1.33493e-317)
(0.187269 0.0641836 6.31623e-318)
(0.182271 -0.0364071 -5.2911e-319)
(0.142121 0.00749323 -7.40629e-318)
(0.0939863 -0.152549 -1.46086e-317)
(0.049484 -0.0974566 -2.24682e-317)
(-0.0780448 -0.390508 -3.22475e-317)
(-0.0486555 -0.333713 -4.39878e-317)
(-0.32164 -0.857437 -6.49854e-317)
(-0.00916532 -0.893325 -8.8939e-317)
(-0.439602 -1.64811 -1.47268e-316)
(-0.00491486 1.35959 4.20711e-317)
(0.11957 0.787726 7.15937e-317)
(0.115547 0.760559 6.96441e-317)
(0.193918 0.382157 6.56513e-317)
(0.2312 0.394831 5.59836e-317)
(0.285341 0.188598 4.62171e-317)
(0.321716 0.209598 3.6704e-317)
(0.36188 0.0958598 2.80104e-317)
(0.375948 0.129014 2.01035e-317)
(0.405505 0.0495965 1.28533e-317)
(0.390759 0.0969181 6.07144e-318)
(0.408951 0.0058497 -3.86863e-319)
(0.363846 0.069719 -6.66647e-318)
(0.362212 -0.0918283 -1.28225e-317)
(0.295581 -0.00998912 -1.87471e-317)
(0.247156 -0.345787 -2.39828e-317)
(0.211588 -0.259545 -2.78827e-317)
(0.0400794 -0.929229 -2.65589e-317)
(0.192297 -0.983737 -2.20814e-317)
(-0.226656 -2.02115 4.47759e-318)
(0.0825341 1.18288 1.67729e-316)
(0.135398 0.678878 1.24358e-316)
(0.22935 0.674498 9.91714e-317)
(0.277887 0.313201 7.61409e-317)
(0.369418 0.332117 6.04034e-317)
(0.414161 0.140034 4.71943e-317)
(0.475908 0.161119 3.65377e-317)
(0.512904 0.0599373 2.74118e-317)
(0.535266 0.0902883 1.94635e-317)
(0.565907 0.0221147 1.23585e-317)
(0.547981 0.0652513 5.81941e-318)
(0.571825 -0.0132947 -3.58336e-319)
(0.508619 0.048299 -6.34285e-318)
(0.51609 -0.097092 -1.23417e-317)
(0.401793 -0.0040121 -1.84682e-317)
(0.3623 -0.324502 -2.56409e-317)
(0.229321 -0.173139 -3.34976e-317)
(0.0638451 -0.848114 -4.8594e-317)
(0.0938962 -0.700159 -6.44609e-317)
(-0.283291 -1.69927 -1.11619e-316)
(0.290782 1.20197 7.65832e-317)
(0.177209 0.679655 9.73976e-317)
(0.450108 0.657181 8.50815e-317)
(0.433524 0.27954 7.33275e-317)
(0.577455 0.296319 5.9264e-317)
(0.594126 0.110535 4.69024e-317)
(0.668899 0.138339 3.61834e-317)
(0.695444 0.0519593 2.69849e-317)
(0.721058 0.0909916 1.90412e-317)
(0.755929 0.0396125 1.20042e-317)
(0.740453 0.0932065 5.61487e-318)
(0.78736 0.033803 -3.17506e-319)
(0.725748 0.110819 -5.927e-318)
(0.788887 -0.0148764 -1.12409e-317)
(0.662593 0.102139 -1.60391e-317)
(0.744788 -0.221189 -1.97639e-317)
(0.535974 -0.0419024 -2.13398e-317)
(0.618528 -0.829655 -1.62522e-317)
(0.34405 -0.724875 -5.82877e-318)
(0.29077 -2.14331 3.62494e-317)
(0.455409 0.878178 1.86918e-316)
(0.243039 0.574623 1.27991e-316)
(0.619488 0.504353 9.85755e-317)
(0.580136 0.22618 7.28112e-317)
(0.777776 0.223633 5.64649e-317)
(0.787608 0.0766874 4.32987e-317)
(0.882751 0.0928468 3.30538e-317)
(0.90363 0.0242507 2.45396e-317)
(0.934853 0.05115 1.72913e-317)
(0.967582 0.0104638 1.09234e-317)
(0.951754 0.0480379 5.16766e-318)
(1.00193 0.000547445 -1.73926e-319)
(0.930796 0.0542216 -5.19062e-318)
(1.001 -0.0478029 -1.00051e-317)
(0.83459 0.0358849 -1.45723e-317)
(0.918892 -0.231105 -1.94023e-317)
(0.591299 -0.0770069 -2.39171e-317)
(0.639311 -0.717311 -3.30709e-317)
(0.185348 -0.481375 -4.16648e-317)
(-0.0296575 -1.30538 -7.3132e-317)
(0.374854 0.749376 2.04321e-316)
(0.280712 0.57172 1.63437e-316)
(0.787148 0.438011 1.22926e-316)
(0.750276 0.176516 9.24242e-317)
(0.976336 0.162204 6.96103e-317)
(0.964598 0.0417611 5.22427e-317)
(1.05699 0.063277 3.89417e-317)
(1.06728 0.0171613 2.82862e-317)
(1.09392 0.0496827 1.95199e-317)
(1.13164 0.0277728 1.1989e-317)
(1.11626 0.0713691 5.30506e-318)
(1.19162 0.0468145 -8.52624e-319)
(1.1279 0.111974 -6.62897e-318)
(1.2599 0.0468951 -1.20455e-317)
(1.10113 0.155139 -1.67872e-317)
(1.3311 -0.0647574 -2.00651e-317)
(0.946623 0.137127 -2.03262e-317)
(1.37477 -0.56556 -1.1673e-317)
(0.464797 -0.289291 5.15109e-318)
(1.19791 -2.00354 6.54466e-317)
(1.11881 0.485769 1.10643e-316)
(0.519623 0.330833 5.18794e-317)
(0.987631 0.222768 4.167e-317)
(0.916472 0.110084 3.04762e-317)
(1.10142 0.0927257 2.5266e-317)
(1.09432 0.0254053 2.03015e-317)
(1.17394 0.0300873 1.62553e-317)
(1.17633 0.000993646 1.25628e-317)
(1.20273 0.0135817 9.20093e-318)
(1.2199 -0.00167419 6.11426e-318)
(1.21427 0.015843 3.24082e-318)
(1.25381 -0.00207939 5.95329e-319)
(1.2101 0.0208517 -1.82377e-318)
(1.27825 -0.0230467 -4.01806e-318)
(1.15189 0.00625585 -5.96053e-318)
(1.25755 -0.124924 -8.0576e-318)
(0.940662 -0.0836501 -1.04196e-317)
(1.0637 -0.418236 -1.7381e-317)
(0.47692 -0.360252 -2.74865e-317)
(0.0568803 -0.36106 -6.16517e-317)
(-0.270218 -0.180354 5.96329e-316)
(0.795841 0.631313 3.72768e-316)
(1.51422 0.203807 2.57001e-316)
(1.57762 0.107447 1.78158e-316)
(1.90955 0.0579771 1.29282e-316)
(1.84997 -0.00159316 9.45116e-317)
(1.94722 0.0149936 6.91813e-317)
(1.93 -0.00104749 4.94996e-317)
(1.94396 0.0237224 3.3526e-317)
(1.9992 0.0196724 1.99275e-317)
(1.97761 0.0511943 7.83177e-318)
(2.12738 0.0480564 -3.44134e-318)
(2.06754 0.0970345 -1.42466e-317)
(2.35519 0.079258 -2.4727e-317)
(2.18338 0.164465 -3.44493e-317)
(2.68951 0.055788 -4.21379e-317)
(2.07753 0.240977 -4.4656e-317)
(3.01292 -0.291994 -3.38767e-317)
(0.790939 0.275949 -5.51785e-318)
(2.90906 -1.61399 8.21568e-317)
)
;

boundaryField
{
    cavity
    {
        type            myImplicitVelocity;
    }
    lid
    {
        type            fixedValue;
        value           uniform (1 0 0);
    }
    frontAndBack
    {
        type            empty;
    }
}


// ************************************************************************* //
