/*--------------------------------*- C++ -*----------------------------------*\
| =========                 |                                                 |
| \\      /  F ield         | foam-extend: Open Source CFD                    |
|  \\    /   O peration     | Version:  3.0                                   |
|   \\  /    A nd           | Web:         http://www.extend-project.de       |
|    \\/     M anipulation  |                                                 |
\*---------------------------------------------------------------------------*/
FoamFile
{
    version     2.0;
    format      ascii;
    class       volScalarField;
    location    "28";
    object      p;
}
// * * * * * * * * * * * * * * * * * * * * * * * * * * * * * * * * * * * * * //

dimensions      [0 0 0 0 0 0 0];

internalField   nonuniform List<scalar> 
576
(
-7.21394
-7.28647
-5.63352
-5.77275
-4.81394
-5.02117
-4.45967
-4.65924
-4.40531
-4.54502
-4.5669
-4.61252
-7.08993
-7.16131
-5.53682
-5.67375
-4.73131
-4.93509
-4.38316
-4.57944
-4.32981
-4.46727
-4.48869
-4.53355
-6.84575
-6.91459
-5.34597
-5.4782
-4.56821
-4.76496
-4.23205
-4.42149
-4.18051
-4.31313
-4.33385
-4.37714
-6.48328
-6.54862
-5.06304
-5.18834
-4.32648
-4.51291
-4.00816
-4.18765
-3.95937
-4.08505
-4.10464
-4.14566
-6.01102
-6.07145
-4.69408
-4.81028
-4.01116
-4.18403
-3.71602
-3.88243
-3.67078
-3.78726
-3.80544
-3.84345
-5.43483
-5.4896
-4.2442
-4.34935
-3.62678
-3.78317
-3.35997
-3.51051
-3.3191
-3.42448
-3.44089
-3.47528
-4.76665
-4.81459
-3.72229
-3.81455
-3.18076
-3.31796
-2.94675
-3.07879
-2.9109
-3.00332
-3.0177
-3.04785
-4.01596
-4.05646
-3.13612
-3.21395
-2.67991
-2.79559
-2.48278
-2.59411
-2.45262
-2.53054
-2.54264
-2.56807
-3.19748
-3.22966
-2.49688
-2.55887
-2.13363
-2.22576
-1.97668
-2.06532
-1.95265
-2.01469
-2.0243
-2.04455
-2.32339
-2.34687
-1.81434
-1.85952
-1.55043
-1.6175
-1.43642
-1.50092
-1.419
-1.46414
-1.47112
-1.48585
-1.41043
-1.42463
-1.10134
-1.12882
-0.941132
-0.981882
-0.871913
-0.911079
-0.861332
-0.888741
-0.892962
-0.901902
-0.472455
-0.47732
-0.368915
-0.37834
-0.315314
-0.329151
-0.292178
-0.305417
-0.288689
-0.297944
-0.299343
-0.30236
0.472763
0.477508
0.369262
0.378186
0.315501
0.328922
0.292262
0.305253
0.288676
0.297774
0.29923
0.302205
1.41069
1.42479
1.10166
1.12864
0.941292
0.981641
0.871968
0.910903
0.861297
0.888558
0.892832
0.901733
2.32375
2.34713
1.81471
1.85943
1.55064
1.61732
1.43652
1.50079
1.41901
1.464
1.47103
1.48572
3.19772
3.22981
2.49716
2.55873
2.13375
2.22555
1.97669
2.06515
1.95259
2.01451
2.02417
2.04438
4.01638
4.0568
3.13649
3.21396
2.6801
2.79551
2.48288
2.59405
2.45264
2.53045
2.54258
2.56798
4.76683
4.81474
3.72248
3.81445
3.18081
3.31779
2.94672
3.07867
2.91083
3.00318
3.01757
3.04771
5.4353
5.49001
4.24452
4.34947
3.62692
3.78318
3.36003
3.51053
3.31913
3.42447
3.44086
3.47525
6.0111
6.07157
4.69414
4.81023
4.01111
4.18395
3.71594
3.8824
3.6707
3.7872
3.80533
3.84335
6.4838
6.54907
5.06329
5.18856
4.32657
4.51304
4.00821
4.18778
3.95942
4.08511
4.10466
4.14568
6.84574
6.91464
5.34592
5.47821
4.56807
4.76498
4.23194
4.42155
4.18043
4.31314
4.33377
4.37709
7.09042
7.16181
5.537
5.67406
4.73137
4.93534
4.38323
4.57964
4.32989
4.46736
4.48873
4.53359
7.21387
7.2865
5.63339
5.77287
4.81374
5.02129
4.45954
4.65939
4.40528
4.54515
4.56688
4.61253
7.21385
7.28649
5.63337
5.77288
4.81373
5.02131
4.45954
4.6594
4.40529
4.54517
4.5669
4.61255
7.0904
7.16181
5.53697
5.67412
4.73136
4.93542
4.38324
4.5797
4.32992
4.46742
4.48878
4.53365
6.84565
6.9146
5.34584
5.47829
4.56805
4.76509
4.23195
4.42164
4.18048
4.31324
4.33385
4.37718
6.48374
6.54906
5.06321
5.1887
4.32656
4.51321
4.00823
4.18792
3.95949
4.08525
4.10477
4.14581
6.01095
6.0715
4.694
4.81037
4.01107
4.18414
3.71596
3.88256
3.67078
3.78737
3.80547
3.84351
5.43523
5.49001
4.24442
4.34969
3.62691
3.78344
3.36008
3.51074
3.31923
3.42468
3.44103
3.47544
4.7666
4.81464
3.72228
3.81463
3.18075
3.31805
2.94675
3.07889
2.91093
3.00341
3.01775
3.04793
4.01634
4.05683
3.13639
3.21425
2.68011
2.79583
2.48295
2.59432
2.45278
2.53072
2.5428
2.56823
3.19742
3.22967
2.49689
2.55893
2.13367
2.22584
1.97672
2.0654
1.95271
2.01477
2.02438
2.04463
2.32375
2.3472
1.81463
1.85978
1.55067
1.6177
1.43662
1.5011
1.41918
1.46431
1.47129
1.48601
1.41033
1.42461
1.10134
1.12885
0.941183
0.981953
0.871985
0.911165
0.861419
0.888836
0.893062
0.902003
0.472829
0.47763
0.369228
0.378572
0.31558
0.329338
0.292402
0.305583
0.288878
0.298104
0.299513
0.30252
-0.472863
-0.477545
-0.36925
-0.378156
-0.315434
-0.328849
-0.292171
-0.30516
-0.288575
-0.297669
-0.299119
-0.302094
-1.4103
-1.42447
-1.10132
-1.12841
-0.941008
-0.981456
-0.871731
-0.910742
-0.861101
-0.888403
-0.892665
-0.901577
-2.32383
-2.34715
-1.81467
-1.8594
-1.55055
-1.61723
-1.43641
-1.50068
-1.4189
-1.46388
-1.47091
-1.4856
-3.19732
-3.22949
-2.49681
-2.55849
-2.13346
-2.22534
-1.97645
-2.06498
-1.95239
-2.01435
-2.02399
-2.04422
-4.01642
-4.0568
-3.13641
-3.21392
-2.67999
-2.7954
-2.48276
-2.59391
-2.45252
-2.53031
-2.54245
-2.56784
-4.76643
-4.81442
-3.72213
-3.81419
-3.18054
-3.31755
-2.94649
-3.07847
-2.91062
-3.003
-3.01737
-3.04753
-5.43531
-5.48999
-4.24441
-4.34943
-3.62683
-3.78306
-3.35993
-3.51039
-3.31902
-3.42432
-3.44072
-3.4751
-6.01069
-6.07125
-4.6938
-4.80998
-4.0109
-4.18369
-3.71577
-3.8822
-3.67054
-3.78704
-3.80516
-3.84319
-6.4838
-6.54905
-5.06319
-5.18852
-4.32655
-4.51292
-4.00818
-4.18766
-3.95937
-4.085
-4.10459
-4.1456
-6.8453
-6.91428
-5.34561
-5.47793
-4.5679
-4.7647
-4.2318
-4.42138
-4.1803
-4.31302
-4.33365
-4.37697
-7.09043
-7.16177
-5.53697
-5.674
-4.7314
-4.9352
-4.38322
-4.5795
-4.32983
-4.46724
-4.48863
-4.53348
-7.21335
-7.286
-5.63315
-5.7725
-4.8136
-5.02093
-4.4594
-4.65915
-4.40515
-4.54499
-4.56675
-4.61239
)
;

boundaryField
{
    out
    {
        type            implicitExtrapolation;
    }
    in
    {
        type            implicitExtrapolation;
    }
    frontAndBack
    {
        type            empty;
    }
}


// ************************************************************************* //
