/*--------------------------------*- C++ -*----------------------------------*\
| =========                 |                                                 |
| \\      /  F ield         | foam-extend: Open Source CFD                    |
|  \\    /   O peration     | Version:  3.0                                   |
|   \\  /    A nd           | Web:         http://www.extend-project.de       |
|    \\/     M anipulation  |                                                 |
\*---------------------------------------------------------------------------*/
FoamFile
{
    version     2.0;
    format      ascii;
    class       volSymmTensorField;
    location    "28";
    object      sigma;
}
// * * * * * * * * * * * * * * * * * * * * * * * * * * * * * * * * * * * * * //

dimensions      [0 0 0 0 0 0 0];

internalField   nonuniform List<symmTensor> 
576
(
(1.95062 -0.0688951 3.0115e-18 -1.9406 3.68261e-18 4.89928e-36)
(2.02951 0.15468 8.06116e-18 -2.0197 -3.29961e-17 -1.64121e-34)
(2.33335 0.225079 -2.671e-19 -2.32409 -1.62113e-17 -1.94735e-35)
(2.1266 0.251977 -2.34268e-18 -2.12003 -3.94927e-18 1.63689e-35)
(1.92913 0.247041 8.72345e-18 -1.91948 -3.21093e-18 2.46283e-35)
(1.64698 0.230355 6.93299e-18 -1.64263 1.6293e-18 1.33052e-36)
(1.39221 0.210682 -1.07931e-17 -1.38187 -5.12276e-18 -7.38383e-36)
(1.10568 0.184645 -1.50072e-17 -1.10202 2.44766e-17 -1.86559e-34)
(0.863864 0.163395 -2.04565e-17 -0.853783 1.22216e-17 -1.20199e-34)
(0.591672 0.136935 -1.40187e-17 -0.586776 8.21166e-18 -2.30681e-35)
(0.364745 0.115548 1.60323e-18 -0.356116 -1.21752e-17 5.91867e-35)
(0.114907 0.0945882 -1.16606e-17 -0.107287 -1.1265e-17 -5.46234e-36)
(2.11626 -0.166 -1.84107e-17 -2.1064 -1.17555e-17 -9.45205e-35)
(1.9726 0.456761 -4.46059e-17 -1.96292 2.45584e-17 4.0108e-34)
(2.22005 0.65672 -3.22897e-18 -2.21097 1.36141e-17 2.20691e-34)
(1.97595 0.728716 3.16108e-18 -1.96949 -1.55496e-17 -2.87185e-35)
(1.77361 0.712502 1.50766e-17 -1.76413 -1.52259e-17 -2.86257e-36)
(1.49463 0.662403 -1.13619e-17 -1.49035 1.12223e-17 0)
(1.24702 0.604362 -1.90996e-17 -1.23685 4.34054e-17 -4.34389e-34)
(0.972974 0.528166 4.38958e-17 -0.969393 8.09883e-18 1.92725e-34)
(0.740554 0.465858 2.65528e-17 -0.730646 1.8052e-17 4.34347e-34)
(0.481907 0.388693 1.43727e-17 -0.477116 1.26625e-18 -4.08105e-34)
(0.265346 0.326171 -3.11002e-17 -0.256862 2.54508e-19 -3.02383e-34)
(0.0244326 0.264635 -2.95e-17 -0.0169433 2.93756e-17 4.17773e-34)
(2.41441 -0.147454 4.64501e-18 -2.40491 3.79538e-18 -7.82735e-35)
(1.86313 0.738531 1.83834e-17 -1.8538 1.35682e-17 -4.02831e-35)
(2.00656 1.03556 -2.59071e-17 -1.99779 -2.01121e-17 -2.7436e-34)
(1.69466 1.12834 -5.06185e-17 -1.68842 4.59366e-17 -4.86329e-34)
(1.48388 1.09639 -1.94965e-17 -1.47474 7.32612e-18 3.40288e-34)
(1.21144 1.01282 3.76618e-17 -1.20732 1.65298e-17 -1.94888e-34)
(0.977584 0.918946 8.56963e-17 -0.967768 -2.67742e-17 1.01907e-33)
(0.727158 0.798215 4.40111e-18 -0.723701 9.52557e-18 1.2227e-34)
(0.512538 0.698855 8.08797e-17 -0.502977 -9.49983e-18 1.42805e-33)
(0.279445 0.577365 3.00765e-17 -0.274812 2.24781e-18 1.01886e-33)
(0.0824165 0.478445 -1.61359e-17 -0.0742326 2.95569e-17 -9.8173e-34)
(-0.141489 0.380036 4.16287e-17 0.148718 3.93027e-17 1.11305e-33)
(2.78405 0.0423336 2.43405e-18 -2.77503 4.90286e-18 0)
(1.70925 0.988833 -9.61241e-19 -1.70039 -2.96446e-17 0)
(1.7172 1.3345 -3.62681e-17 -1.70889 5.83342e-17 3.18217e-34)
(1.31971 1.41178 8.39083e-17 -1.3138 -4.52248e-17 5.58227e-34)
(1.09941 1.35768 -4.24498e-17 -1.09074 1.6836e-17 -4.08149e-34)
(0.837214 1.24062 4.92735e-17 -0.833299 -3.51124e-17 7.74824e-34)
(0.622659 1.11491 -3.95534e-17 -0.613365 8.04591e-18 -1.05279e-33)
(0.404431 0.958114 1.06011e-16 -0.401158 -5.70365e-17 2.68712e-34)
(0.214262 0.827888 4.29118e-17 -0.205211 -7.05882e-17 -2.18742e-33)
(0.0157378 0.671671 1.78766e-17 -0.011354 -3.05728e-17 -8.49065e-34)
(-0.154675 0.543554 4.67896e-17 0.162426 7.58687e-18 -2.96852e-34)
(-0.355127 0.413883 1.0224e-16 0.361972 -1.14721e-16 -1.82611e-34)
(3.14558 0.430395 -1.04539e-17 -3.13723 -4.37953e-20 0)
(1.52167 1.20001 -3.18486e-17 -1.51347 2.84118e-17 7.40316e-35)
(1.38385 1.53723 4.01131e-17 -1.37614 -1.98465e-17 -4.49938e-34)
(0.899437 1.55685 -4.35132e-17 -0.893961 1.70672e-17 -5.23205e-34)
(0.671731 1.47321 7.74831e-17 -0.663698 -5.72782e-17 -6.8842e-34)
(0.423947 1.32303 -8.75231e-17 -0.420326 -4.11075e-18 3.56442e-34)
(0.23293 1.1704 -1.6474e-17 -0.224316 -3.90634e-17 0)
(0.0521533 0.987839 -1.26425e-16 -0.0491234 -2.06793e-17 1.61776e-33)
(-0.109273 0.834207 -1.16407e-16 0.117664 2.38228e-17 2.74914e-33)
(-0.268042 0.654865 -7.04059e-17 0.272102 -8.3801e-18 8.99751e-35)
(-0.407656 0.506219 1.48693e-17 0.41484 -5.66463e-17 -1.64158e-33)
(-0.580291 0.352146 -1.25954e-16 0.586634 -1.93877e-18 1.82611e-34)
(3.41375 1.01016 3.75167e-18 -3.40618 1.24284e-17 0)
(1.31249 1.36852 2.81571e-17 -1.30505 -1.573e-17 1.36656e-34)
(1.04141 1.64029 -1.55848e-17 -1.03443 -1.27081e-17 -5.70992e-35)
(0.486509 1.56106 -1.34484e-17 -0.481552 6.06262e-18 0)
(0.256933 1.44104 -5.8885e-17 -0.249662 2.54416e-17 2.41104e-34)
(0.0281238 1.25864 1.93755e-17 -0.0248517 -1.91851e-17 -1.98336e-34)
(-0.136652 1.08449 -1.25219e-16 0.14444 6.78851e-17 7.07686e-34)
(-0.278395 0.88686 1.5301e-16 0.28113 -7.28271e-18 -2.20883e-33)
(-0.409365 0.717697 1.74033e-17 0.416947 -2.66306e-17 -1.98976e-33)
(-0.527428 0.527205 -7.25146e-17 0.531094 5.52541e-17 1.5231e-33)
(-0.635135 0.367056 1.18671e-17 0.641626 2.07211e-17 0)
(-0.777927 0.195869 -1.91896e-17 0.783656 4.89621e-17 0)
(3.51072 1.74133 2.89053e-18 -3.5041 4.65234e-18 0)
(1.09339 1.49478 -1.51875e-17 -1.08689 5.01268e-17 -6.20595e-34)
(0.722707 1.65308 1.07205e-16 -0.716587 -3.83558e-17 2.09418e-33)
(0.129943 1.44172 -1.3976e-17 -0.125609 -2.56943e-17 0)
(-0.0928732 1.28035 4.15037e-17 0.0992457 -1.79395e-17 -7.70644e-35)
(-0.29785 1.06746 -5.45351e-17 0.300717 1.94473e-17 6.33893e-35)
(-0.435131 0.877107 1.38562e-16 0.441955 -1.22221e-17 6.14828e-34)
(-0.539716 0.674243 1.14441e-16 0.542115 -3.83039e-17 2.51448e-34)
(-0.64096 0.496884 -1.74708e-16 0.647603 3.39606e-17 -1.52351e-33)
(-0.721345 0.306062 4.44084e-17 0.724558 1.73299e-17 -5.40724e-34)
(-0.79898 0.142638 -1.24953e-17 0.804668 -2.19898e-17 0)
(-0.912115 -0.038788 -1.92819e-17 0.917136 3.78677e-17 0)
(3.37894 2.5555 4.86823e-18 -3.37333 5.40953e-18 0)
(0.874414 1.58292 6.09603e-17 -0.868916 -1.14093e-18 4.58224e-34)
(0.453851 1.59604 -4.20762e-17 -0.44867 -1.63217e-17 -1.77898e-33)
(-0.131989 1.23301 -6.6574e-17 0.135645 3.74269e-17 -1.93352e-35)
(-0.33723 1.02838 2.26349e-17 0.342609 -1.22325e-17 -1.54418e-35)
(-0.513458 0.787673 1.35008e-17 0.515873 -4.92229e-17 2.05652e-34)
(-0.623259 0.585957 2.32686e-17 0.629007 1.37328e-17 0)
(-0.695329 0.385625 -7.93696e-17 0.69735 -2.84044e-17 -5.2033e-34)
(-0.769562 0.206068 -1.63732e-16 0.775151 3.80911e-17 3.40649e-33)
(-0.818448 0.0232313 3.76276e-17 0.821152 2.20661e-17 5.69099e-34)
(-0.870176 -0.137003 -3.42189e-17 0.874961 1.08343e-17 7.09582e-34)
(-0.955667 -0.322925 8.89266e-17 0.959891 -7.54413e-18 -1.18337e-33)
(2.99026 3.36549 2.36051e-17 -2.98582 -1.45598e-18 7.01791e-35)
(0.662635 1.63955 -3.49904e-17 -0.658286 -7.69415e-18 -5.43147e-35)
(0.250577 1.49708 -6.65274e-17 -0.246464 4.46696e-17 -2.07997e-34)
(-0.277446 0.98048 1.601e-16 0.280341 -4.88535e-17 9.84864e-34)
(-0.453324 0.734438 -1.55774e-16 0.457594 4.71182e-17 -3.99708e-34)
(-0.59612 0.469716 1.36985e-16 0.59804 -8.24953e-18 1.04277e-33)
(-0.679343 0.260642 7.18313e-17 0.683906 -9.7648e-17 -1.97432e-33)
(-0.725253 0.067781 -2.02102e-16 0.726863 -1.00397e-17 2.52837e-33)
(-0.776448 -0.109858 -3.18784e-17 0.780889 4.51955e-17 -1.30679e-33)
(-0.801908 -0.279808 -1.99847e-18 0.804058 2.21593e-19 -2.99601e-36)
(-0.833322 -0.432827 7.91746e-18 0.837125 4.61221e-17 -3.08457e-34)
(-0.894354 -0.619136 8.47116e-17 0.897712 -1.89977e-17 1.18337e-33)
(2.35144 4.07835 7.24624e-18 -2.34817 1.46813e-17 0)
(0.461724 1.67256 2.75123e-17 -0.458544 -8.36088e-18 5.79334e-35)
(0.116408 1.38711 5.69592e-17 -0.113392 1.29338e-18 1.92687e-34)
(-0.303915 0.733905 -1.2248e-16 0.306019 2.90855e-17 -1.17203e-33)
(-0.439151 0.452302 1.2251e-16 0.442262 -1.25466e-17 6.2134e-34)
(-0.544415 0.168423 -4.15349e-17 0.545809 3.87823e-17 -3.8567e-34)
(-0.602414 -0.0449901 -8.91984e-17 0.605723 -8.35685e-18 -6.57162e-34)
(-0.628974 -0.228588 5.90078e-17 0.630145 -1.30416e-17 -6.17668e-34)
(-0.661493 -0.402318 6.37943e-17 0.664708 3.25724e-17 -8.77194e-34)
(-0.672007 -0.558243 5.7054e-17 0.673565 7.2162e-18 5.52412e-35)
(-0.689047 -0.70272 1.69444e-16 0.691799 -2.86184e-17 1.58634e-34)
(-0.729236 -0.887156 -8.4808e-17 0.731666 -3.13632e-18 -1.5129e-35)
(1.5036 4.60864 7.37874e-18 -1.50164 -2.03092e-18 0)
(0.271695 1.6895 -4.54332e-17 -0.269785 1.58322e-17 -5.32875e-35)
(0.0424245 1.29494 -5.23667e-17 -0.0406008 -2.29581e-18 -1.20046e-34)
(-0.228356 0.539467 6.80858e-17 0.229616 -1.01878e-17 -4.84966e-35)
(-0.313626 0.231812 -6.42375e-17 0.315501 2.00837e-17 2.84907e-35)
(-0.37814 -0.0654233 1.4848e-17 0.378981 -1.85863e-17 0)
(-0.412283 -0.281097 -4.19868e-17 0.414275 3.02643e-17 -3.88241e-34)
(-0.425472 -0.456588 2.64854e-17 0.426182 2.88683e-17 2.08119e-34)
(-0.443203 -0.626405 -1.63156e-17 0.44514 8.13004e-18 -4.69492e-34)
(-0.446143 -0.770681 -1.35985e-18 0.447083 2.31879e-17 -8.28262e-34)
(-0.454006 -0.907813 -6.49851e-18 0.455665 -3.08882e-17 2.38322e-34)
(-0.476601 -1.08985 3.43657e-17 0.478066 -3.01373e-17 6.0175e-34)
(0.517333 4.8914 1.50398e-18 -0.516643 -1.29022e-17 0)
(0.0895986 1.69636 3.61762e-18 -0.0889497 -1.13917e-17 -5.93549e-35)
(0.00929654 1.24283 -9.23086e-18 -0.00865737 2.07583e-17 -4.09396e-35)
(-0.0841802 0.432649 -1.27444e-17 0.0845911 8.85688e-19 9.30359e-36)
(-0.113334 0.11121 4.20981e-17 0.11396 -1.29137e-17 -3.33679e-36)
(-0.135062 -0.192888 -1.21044e-17 0.135338 1.68236e-18 1.17909e-35)
(-0.146333 -0.409492 8.34626e-18 0.146978 3.13445e-18 -1.90735e-36)
(-0.150233 -0.580309 -1.88408e-17 0.150469 6.56908e-18 -2.06525e-34)
(-0.155837 -0.747751 2.59007e-17 0.156459 -2.63006e-18 -9.94938e-35)
(-0.156206 -0.885466 -1.29561e-17 0.156509 2.86316e-18 -1.93088e-34)
(-0.158424 -1.0184 -4.01077e-18 0.158957 3.0958e-19 -2.65711e-34)
(-0.16568 -1.19888 7.23011e-18 0.166149 -9.8726e-18 4.39928e-35)
(-0.517397 4.89136 2.76931e-18 0.516756 9.58749e-18 2.03147e-35)
(-0.0896311 1.69635 2.22048e-17 0.088979 1.53058e-17 3.48744e-35)
(-0.00940154 1.24281 2.9529e-18 0.00881441 3.82277e-18 3.34074e-35)
(0.0841565 0.432645 -8.84728e-18 -0.0846133 9.82607e-20 -4.94852e-35)
(0.113263 0.111198 -1.13976e-17 -0.113909 -8.28737e-18 9.46241e-35)
(0.135027 -0.192895 1.06773e-17 -0.135324 2.79212e-18 1.74303e-35)
(0.146267 -0.409504 -7.71588e-18 -0.14698 -1.0176e-17 6.89231e-36)
(0.150213 -0.580314 -1.60743e-18 -0.150454 -2.26525e-17 1.4441e-34)
(0.155789 -0.747759 -9.69087e-18 -0.156485 -4.12746e-18 1.95784e-34)
(0.156222 -0.885463 -7.35543e-18 -0.156558 1.02987e-17 1.64408e-34)
(0.158398 -1.0184 -7.35591e-19 -0.158996 1.60615e-17 4.47261e-36)
(0.165684 -1.19887 -3.17898e-19 -0.166212 -2.60498e-18 -1.51587e-35)
(-1.50369 4.60867 1.37954e-17 1.50176 -3.32442e-18 -2.08921e-35)
(-0.271745 1.68952 -4.77354e-17 0.269823 -1.0902e-17 4.22857e-34)
(-0.042531 1.29491 -4.77714e-17 0.0407491 4.25367e-18 5.16605e-35)
(0.228325 0.539476 -2.53674e-17 -0.229634 2.01527e-17 -2.57771e-34)
(0.313555 0.231791 2.60293e-17 -0.315456 2.27954e-18 9.40814e-35)
(0.378105 -0.0654368 9.48928e-18 -0.378969 -3.38843e-17 0)
(0.41222 -0.281122 -7.78411e-17 -0.414282 -2.84982e-17 1.18186e-34)
(0.425452 -0.456599 2.28793e-17 -0.42617 -6.17411e-18 -1.50166e-34)
(0.443158 -0.626422 6.77053e-17 -0.445168 -8.01802e-18 -6.68603e-34)
(0.446156 -0.770675 4.31369e-17 -0.447132 2.05831e-17 -8.91312e-35)
(0.453981 -0.907819 -2.53194e-17 -0.455705 -7.57623e-19 7.23641e-35)
(0.476611 -1.08986 -3.62955e-17 -0.478134 1.36935e-17 1.64426e-34)
(-2.35148 4.07832 -8.31505e-18 2.34828 -2.39884e-17 1.82518e-34)
(-0.461764 1.67257 7.88049e-17 0.458597 9.66205e-18 -7.48968e-34)
(-0.116479 1.38704 5.53541e-17 0.113522 2.90263e-18 9.54569e-35)
(0.303892 0.73391 -3.75758e-17 -0.306033 -6.21903e-18 4.43115e-34)
(0.439103 0.452268 -1.1268e-16 -0.442224 7.57254e-18 1.29642e-34)
(0.544392 0.168402 -2.12263e-17 -0.545807 -4.01476e-18 -2.85786e-34)
(0.602375 -0.0450289 1.06284e-16 -0.605743 1.20764e-17 1.09677e-34)
(0.628963 -0.228605 -2.9342e-17 -0.630141 -7.71362e-18 1.61965e-34)
(0.661465 -0.402345 4.39378e-17 -0.664746 -8.4297e-19 1.64594e-33)
(0.67202 -0.55823 4.97271e-17 -0.673612 -1.39023e-17 9.83131e-34)
(0.689027 -0.702724 -6.07916e-18 -0.691841 -3.01669e-17 9.03921e-34)
(0.729245 -0.88715 8.52658e-17 -0.73173 2.71826e-17 -9.36356e-34)
(-2.99036 3.3655 2.7488e-18 2.98594 1.08746e-17 0)
(-0.662714 1.63957 -1.30525e-17 0.658354 -1.60871e-17 0)
(-0.250654 1.49701 -6.37469e-17 0.246574 -3.87606e-17 1.19919e-33)
(0.277403 0.980491 1.57562e-16 -0.280343 1.54166e-17 -1.26313e-34)
(0.453272 0.734401 7.51469e-18 -0.457567 2.55823e-17 5.17544e-34)
(0.596095 0.469692 -4.05343e-17 -0.598041 5.62872e-17 5.21605e-34)
(0.679312 0.260597 -1.52365e-16 -0.683937 -2.69088e-17 -1.90855e-33)
(0.72524 0.0677589 3.43089e-17 -0.726864 3.38466e-17 1.2418e-33)
(0.776427 -0.109892 -3.50752e-17 -0.780932 1.43699e-17 6.37485e-34)
(0.801914 -0.279796 8.27879e-18 -0.804102 -6.41311e-17 5.12889e-34)
(0.833307 -0.432836 1.68837e-18 -0.837169 -2.36374e-17 1.98933e-34)
(0.894374 -0.619135 8.15156e-17 -0.897787 -3.49693e-17 1.49908e-33)
(-3.37896 2.55547 3.62969e-18 3.37342 -1.00555e-17 0)
(-0.874477 1.58292 -6.09876e-18 0.869009 -3.09563e-17 5.78134e-34)
(-0.453886 1.59597 7.44546e-17 0.44876 6.13131e-17 -7.04684e-34)
(0.131956 1.23302 -1.45322e-16 -0.135637 -2.32301e-17 -5.3686e-34)
(0.3372 1.02834 1.5383e-16 -0.342585 2.71385e-17 -5.85168e-34)
(0.513447 0.78765 -5.23572e-17 -0.515884 1.05946e-17 -1.2422e-34)
(0.623255 0.585915 3.56274e-17 -0.629049 3.54594e-17 0)
(0.695326 0.385603 -7.56531e-17 -0.697361 3.78826e-17 1.00555e-33)
(0.769565 0.206037 -1.76741e-16 -0.775207 -1.08125e-17 -3.48159e-33)
(0.818454 0.0232476 -1.13392e-16 -0.821193 -1.55494e-17 -3.10286e-33)
(0.870171 -0.137008 3.43521e-17 -0.875009 4.92974e-17 1.5821e-33)
(0.955687 -0.322914 -1.7165e-16 -0.959962 -5.51081e-17 -1.49908e-33)
(-3.5108 1.74132 7.9658e-18 3.5042 -1.35123e-17 0)
(-1.09349 1.49477 3.65239e-17 1.08699 1.10428e-17 -2.98955e-34)
(-0.722749 1.65302 3.68839e-17 0.716652 2.21879e-18 -7.43572e-34)
(-0.129995 1.44172 1.78966e-17 0.125625 3.16445e-17 0)
(0.0928398 1.28031 -7.203e-17 -0.0992342 -2.60599e-17 1.67395e-34)
(0.29784 1.06743 9.41654e-17 -0.300735 1.46957e-17 -1.37703e-34)
(0.435141 0.877063 -7.23463e-17 -0.442013 -5.39741e-17 2.24702e-33)
(0.539717 0.674214 1.90625e-16 -0.542136 5.86094e-17 -2.88236e-33)
(0.640979 0.49685 6.51928e-17 -0.647671 3.37445e-17 1.19816e-33)
(0.721349 0.306072 -3.77243e-17 -0.7246 6.0629e-18 -2.35662e-34)
(0.798984 0.142634 2.42762e-18 -0.804722 -9.7253e-18 0)
(0.912146 -0.0387734 3.35762e-17 -0.917215 5.8048e-17 0)
(-3.41376 1.01013 -4.83777e-18 3.40625 -1.43941e-18 0)
(-1.31256 1.36848 -3.89644e-17 1.30516 -3.29407e-17 4.40401e-35)
(-1.04143 1.64023 6.47705e-17 1.03448 1.92e-17 7.29173e-34)
(-0.486546 1.56106 5.83011e-18 0.481575 -1.07586e-17 0)
(-0.256949 1.441 6.86804e-17 0.249668 2.64977e-17 -3.21474e-34)
(-0.0281174 1.25862 -4.90328e-17 0.0248225 -2.93926e-17 2.64448e-34)
(0.136684 1.08446 5.72288e-17 -0.144508 5.30999e-17 8.11727e-34)
(0.27841 0.886838 -2.9238e-17 -0.281164 2.15364e-17 5.15562e-33)
(0.409408 0.71768 -1.14201e-16 -0.417027 -8.59531e-17 -2.91503e-33)
(0.527437 0.527223 1.05396e-16 -0.531137 -4.20796e-18 2.38934e-33)
(0.63515 0.367067 -2.4279e-18 -0.641683 1.79651e-17 0)
(0.777958 0.195897 1.53805e-17 -0.78373 2.06908e-17 0)
(-3.14563 0.430362 7.75029e-18 3.1373 -1.25238e-18 0)
(-1.52176 1.19996 -8.42258e-18 1.51357 3.43805e-17 4.5924e-34)
(-1.38386 1.53717 -6.93502e-17 1.37617 -4.90128e-17 -6.5194e-34)
(-0.899487 1.55684 -5.76003e-18 0.893986 -6.02322e-18 9.96125e-34)
(-0.671745 1.47317 -1.2002e-17 0.663688 -2.93661e-17 5.55257e-34)
(-0.423934 1.32301 6.95699e-17 0.420287 5.84479e-17 -1.02215e-34)
(-0.232879 1.17039 -7.73194e-17 0.224229 2.07238e-17 0)
(-0.052124 0.987819 -5.9759e-17 0.049074 -9.05788e-18 -2.70225e-33)
(0.109337 0.834206 -6.20409e-17 -0.11776 -9.35738e-18 -2.44569e-34)
(0.268057 0.654883 1.29497e-17 -0.272149 -8.08009e-18 -7.675e-35)
(0.407676 0.506243 1.43481e-18 -0.414897 9.45998e-19 9.85846e-34)
(0.580326 0.352184 7.61504e-17 -0.586707 3.71458e-17 1.20755e-33)
(-2.78405 0.0422916 -1.11867e-18 2.77507 1.16654e-17 7.92544e-35)
(-1.70931 0.988734 -1.09457e-17 1.70048 -1.34166e-17 -6.13386e-35)
(-1.71721 1.33445 1.22493e-18 1.70891 -1.08748e-17 -8.16393e-34)
(-1.31975 1.41176 8.5283e-17 1.31383 3.22926e-17 -7.05175e-34)
(-1.09941 1.35763 -8.01653e-17 1.09073 -2.26069e-17 1.18608e-34)
(-0.837194 1.24061 8.54854e-17 0.833265 -5.14619e-19 -6.94673e-34)
(-0.622602 1.11491 7.38543e-17 0.613281 7.43167e-17 2.9352e-34)
(-0.4044 0.958111 -4.52162e-17 0.401113 2.0153e-17 3.61646e-34)
(-0.214198 0.827915 5.16142e-17 0.205121 1.65391e-17 9.15212e-34)
(-0.0157278 0.671702 1.03282e-17 0.0113186 2.48518e-17 6.22357e-34)
(0.154694 0.543597 1.56588e-18 -0.162476 2.65273e-17 5.63112e-34)
(0.355155 0.413936 -2.76071e-17 -0.362031 -5.32797e-17 -1.20755e-33)
(-2.41445 -0.147494 -3.68196e-18 2.40495 -1.23671e-17 0)
(-1.86321 0.738404 9.49088e-18 1.85388 -8.06927e-18 3.21514e-34)
(-2.00659 1.03552 -5.05931e-19 1.99782 9.98187e-18 6.14631e-36)
(-1.69471 1.12828 -6.09919e-17 1.68846 -5.85499e-17 3.36685e-35)
(-1.4839 1.09636 7.20799e-17 1.47473 1.99959e-17 -2.03681e-34)
(-1.21144 1.01281 -7.13523e-17 1.20728 -4.00121e-17 5.90383e-34)
(-0.977533 0.918977 2.8988e-17 0.967694 -4.35966e-17 7.11008e-34)
(-0.727127 0.798215 1.25212e-16 0.723654 2.19045e-17 -1.4073e-33)
(-0.51248 0.698906 6.49952e-17 0.5029 -2.20767e-17 -2.01017e-33)
(-0.279426 0.577389 7.2885e-17 0.274771 -7.89351e-18 -1.56395e-33)
(-0.0824056 0.478491 9.1953e-17 0.0741921 2.61641e-17 -1.70687e-33)
(0.141511 0.3801 -8.17955e-17 -0.148768 -1.49485e-19 -2.68852e-34)
(-2.11626 -0.166003 -2.42443e-17 2.10643 5.62872e-18 0)
(-1.97265 0.456649 -2.74816e-17 1.963 -1.49033e-17 -4.27809e-34)
(-2.22007 0.656668 6.2488e-18 2.21099 -2.42096e-17 -4.338e-35)
(-1.97597 0.728674 2.15573e-17 1.9695 3.34979e-17 5.60663e-35)
(-1.77361 0.712484 -4.08161e-17 1.76412 -2.64175e-17 -8.16885e-35)
(-1.49462 0.662424 1.59647e-17 1.49032 1.38778e-17 0)
(-1.24698 0.604414 -4.15289e-17 1.2368 -1.42067e-17 6.98632e-35)
(-0.972956 0.528195 5.96349e-18 0.969361 -4.30625e-17 -5.54206e-35)
(-0.740508 0.465917 -2.92157e-17 0.730593 -2.86375e-17 -2.63357e-35)
(-0.481903 0.38873 -1.88128e-17 0.477085 -4.43062e-17 2.04175e-34)
(-0.265326 0.326219 -2.12598e-18 0.256824 -3.3663e-17 8.259e-34)
(-0.0244207 0.264723 2.96335e-17 0.0169092 4.82918e-17 -4.79859e-34)
(-1.9506 -0.0689459 -4.9882e-19 1.9406 6.81583e-18 0)
(-2.02954 0.154514 6.3388e-18 2.01971 3.13467e-17 1.49412e-34)
(-2.33337 0.225015 -7.75511e-19 2.32412 6.34785e-18 1.166e-36)
(-2.12658 0.251888 1.22434e-17 2.11999 -1.53297e-17 1.57889e-36)
(-1.92912 0.247018 1.57091e-17 1.91946 1.82136e-17 2.18637e-35)
(-1.64697 0.230366 -8.22593e-18 1.6426 -3.70229e-18 1.16573e-35)
(-1.39219 0.210747 1.56059e-17 1.38184 4.40002e-18 -2.40997e-35)
(-1.10567 0.184678 -2.42319e-17 1.10201 -8.02624e-18 7.55488e-35)
(-0.863845 0.163464 -4.51904e-18 0.853762 2.47156e-18 -8.11994e-37)
(-0.591667 0.136978 -3.41906e-17 0.586766 -4.63484e-18 1.6355e-35)
(-0.36473 0.115594 -1.9987e-17 0.356084 -4.07639e-18 7.98333e-35)
(-0.114902 0.0946817 2.45963e-18 0.107263 -1.68357e-17 -3.03435e-35)
(-1.9506 0.068893 3.01195e-18 1.9406 3.68364e-18 -4.9007e-36)
(-2.02952 -0.154666 8.06141e-18 2.0197 -3.29979e-17 1.64132e-34)
(-2.33337 -0.225081 -2.66851e-19 2.32412 -1.62114e-17 1.94724e-35)
(-2.12657 -0.251925 -2.34242e-18 2.11999 -3.95036e-18 -1.63674e-35)
(-1.92912 -0.247041 8.72265e-18 1.91947 -3.21188e-18 -2.46273e-35)
(-1.64697 -0.230332 6.93254e-18 1.6426 1.62849e-18 -1.33007e-36)
(-1.3922 -0.210674 -1.07933e-17 1.38185 -5.1232e-18 7.38082e-36)
(-1.10568 -0.184636 -1.50073e-17 1.10202 2.4477e-17 1.86559e-34)
(-0.863854 -0.16338 -2.0456e-17 0.853777 1.22222e-17 1.20201e-34)
(-0.59167 -0.136937 -1.40186e-17 0.586771 8.2121e-18 2.3071e-35)
(-0.364734 -0.115541 1.60297e-18 0.356093 -1.2175e-17 -5.91869e-35)
(-0.114911 -0.0945888 -1.16609e-17 0.107276 -1.12651e-17 5.46345e-36)
(-2.11626 0.165952 -1.84119e-17 2.10642 -1.17556e-17 9.45247e-35)
(-1.97259 -0.456787 -4.46071e-17 1.96294 2.45592e-17 -4.01111e-34)
(-2.22007 -0.656736 -3.22886e-18 2.21098 1.36141e-17 -2.20685e-34)
(-1.97595 -0.728707 3.16039e-18 1.96948 -1.555e-17 2.86992e-35)
(-1.77361 -0.712509 1.50765e-17 1.76412 -1.52249e-17 2.875e-36)
(-1.49464 -0.662395 -1.13617e-17 1.49034 1.12227e-17 0)
(-1.24701 -0.60435 -1.90987e-17 1.23684 4.34059e-17 4.34387e-34)
(-0.97298 -0.52816 4.38966e-17 0.969382 8.09951e-18 -1.92723e-34)
(-0.740534 -0.46584 2.65529e-17 0.730635 1.80523e-17 -4.3436e-34)
(-0.481913 -0.388691 1.43724e-17 0.477099 1.26631e-18 4.08102e-34)
(-0.265338 -0.32617 -3.11006e-17 0.25685 2.5463e-19 3.02393e-34)
(-0.0244452 -0.264636 -2.94999e-17 0.0169449 2.93755e-17 -4.17773e-34)
(-2.41444 0.147437 4.64588e-18 2.40493 3.79523e-18 7.82823e-35)
(-1.86312 -0.73852 1.83835e-17 1.8538 1.35699e-17 4.02839e-35)
(-2.00659 -1.03559 -2.59076e-17 1.99781 -2.01114e-17 2.74357e-34)
(-1.69468 -1.12831 -5.0619e-17 1.68844 4.59385e-17 4.86337e-34)
(-1.4839 -1.09639 -1.94971e-17 1.47474 7.32603e-18 -3.40264e-34)
(-1.21146 -1.01279 3.76611e-17 1.20732 1.65299e-17 1.94867e-34)
(-0.977572 -0.918929 8.5697e-17 0.967761 -2.67745e-17 -1.01908e-33)
(-0.727162 -0.79819 4.40141e-18 0.723687 9.52561e-18 -1.2227e-34)
(-0.512519 -0.698845 8.088e-17 0.502967 -9.50007e-18 -1.42806e-33)
(-0.279441 -0.577355 3.00766e-17 0.274795 2.24767e-18 -1.01887e-33)
(-0.0824236 -0.478448 -1.61363e-17 0.074233 2.95569e-17 9.81732e-34)
(0.141473 -0.380023 4.1628e-17 -0.148711 3.93033e-17 -1.11307e-33)
(-2.78404 -0.0423412 2.4346e-18 2.77504 4.90235e-18 0)
(-1.7092 -0.988814 -9.61187e-19 1.70037 -2.96444e-17 0)
(-1.71721 -1.33453 -3.62666e-17 1.70889 5.83334e-17 -3.18204e-34)
(-1.31971 -1.41177 8.3909e-17 1.31381 -4.52244e-17 -5.58255e-34)
(-1.09941 -1.35767 -4.24503e-17 1.09073 1.68347e-17 4.08155e-34)
(-0.837227 -1.2406 4.92725e-17 0.833302 -3.51129e-17 -7.74815e-34)
(-0.622648 -1.11489 -3.95526e-17 0.613361 8.04531e-18 1.05276e-33)
(-0.404443 -0.9581 1.06012e-16 0.401152 -5.70365e-17 -2.68683e-34)
(-0.214244 -0.827873 4.29123e-17 0.205204 -7.05893e-17 2.18746e-33)
(-0.0157469 -0.671673 1.78771e-17 0.0113492 -3.05734e-17 8.49086e-34)
(0.154672 -0.543565 4.67906e-17 -0.162425 7.58671e-18 2.96865e-34)
(0.355108 -0.413875 1.02239e-16 -0.361958 -1.14721e-16 1.82611e-34)
(-3.14561 -0.430421 -1.04532e-17 3.13726 -4.38254e-20 0)
(-1.52164 -1.2 -3.18491e-17 1.51345 2.84126e-17 -7.4022e-35)
(-1.38385 -1.53726 4.01132e-17 1.37613 -1.98473e-17 4.4991e-34)
(-0.899445 -1.55685 -4.35135e-17 0.89397 1.7066e-17 5.23216e-34)
(-0.671735 -1.47321 7.74835e-17 0.663697 -5.7278e-17 6.88419e-34)
(-0.423967 -1.32302 -8.75241e-17 0.420328 -4.11066e-18 -3.56443e-34)
(-0.232923 -1.17038 -1.64747e-17 0.224319 -3.90633e-17 0)
(-0.0521675 -0.987824 -1.26426e-16 0.0491151 -2.06792e-17 -1.61774e-33)
(0.10929 -0.834186 -1.16407e-16 -0.117666 2.38224e-17 -2.7492e-33)
(0.268036 -0.65486 -7.0405e-17 -0.272112 -8.3801e-18 -9.001e-35)
(0.407654 -0.506221 1.48692e-17 -0.414836 -5.66465e-17 1.64161e-33)
(0.580275 -0.352139 -1.25953e-16 -0.586623 -1.93858e-18 -1.82611e-34)
(-3.41375 -1.01017 3.75255e-18 3.4062 1.24287e-17 0)
(-1.31245 -1.36849 2.81567e-17 1.30505 -1.57304e-17 -1.36664e-34)
(-1.04141 -1.64032 -1.55854e-17 1.03442 -1.27081e-17 5.71106e-35)
(-0.486507 -1.56106 -1.3449e-17 0.48156 6.06292e-18 0)
(-0.256932 -1.44104 -5.88844e-17 0.249667 2.54415e-17 -2.41105e-34)
(-0.0281457 -1.25864 1.93751e-17 0.0248568 -1.91846e-17 1.98338e-34)
(0.136649 -1.08447 -1.25219e-16 -0.144422 6.78858e-17 -7.07665e-34)
(0.278371 -0.886858 1.5301e-16 -0.28113 -7.28109e-18 2.20879e-33)
(0.409368 -0.71768 1.74017e-17 -0.416934 -2.66308e-17 1.98979e-33)
(0.527415 -0.527207 -7.25149e-17 -0.531097 5.52542e-17 -1.52312e-33)
(0.635132 -0.367057 1.18673e-17 -0.641619 2.07214e-17 0)
(0.777909 -0.195869 -1.91898e-17 -0.783643 4.89626e-17 0)
(-3.51075 -1.74137 2.89097e-18 3.50412 4.65245e-18 0)
(-1.09338 -1.49475 -1.51874e-17 1.08689 5.01266e-17 6.20602e-34)
(-0.722708 -1.65311 1.07205e-16 0.71658 -3.83562e-17 -2.09416e-33)
(-0.129955 -1.44172 -1.3976e-17 0.125621 -2.56945e-17 0)
(0.092872 -1.28037 4.15033e-17 -0.0992406 -1.7939e-17 7.70617e-35)
(0.297823 -1.06746 -5.4535e-17 -0.300707 1.94473e-17 -6.33871e-35)
(0.435126 -0.877101 1.38562e-16 -0.441935 -1.22215e-17 -6.14835e-34)
(0.539688 -0.674247 1.14441e-16 -0.54211 -3.8305e-17 -2.51422e-34)
(0.640954 -0.496869 -1.74707e-16 -0.647583 3.39596e-17 1.52351e-33)
(0.721329 -0.306064 4.44082e-17 -0.724557 1.73305e-17 5.40745e-34)
(0.798972 -0.142634 -1.24952e-17 -0.804656 -2.19898e-17 0)
(0.912101 0.0387859 -1.92826e-17 -0.917125 3.78683e-17 0)
(-3.37894 -2.55551 4.8687e-18 3.37335 5.40997e-18 0)
(-0.874403 -1.58288 6.09597e-17 0.868933 -1.14199e-18 -4.58218e-34)
(-0.453839 -1.59605 -4.20757e-17 0.448669 -1.63226e-17 1.77897e-33)
(0.131985 -1.233 -6.65743e-17 -0.135633 3.74275e-17 1.93683e-35)
(0.337239 -1.02839 2.26355e-17 -0.342603 -1.22323e-17 1.54622e-35)
(0.513441 -0.787685 1.35002e-17 -0.51587 -4.92226e-17 -2.05657e-34)
(0.623259 -0.585961 2.32678e-17 -0.628988 1.37318e-17 0)
(0.69531 -0.385641 -7.93696e-17 -0.697351 -2.84055e-17 5.2032e-34)
(0.769556 -0.206067 -1.63732e-16 -0.775132 3.80912e-17 -3.40654e-33)
(0.818436 -0.023244 3.76277e-17 -0.821153 2.20667e-17 -5.69093e-34)
(0.870167 0.137001 -3.42185e-17 -0.874948 1.08354e-17 -7.09583e-34)
(0.955653 0.322914 8.8926e-17 -0.959879 -7.54477e-18 1.1834e-33)
(-2.99028 -3.36552 2.36049e-17 2.98583 -1.45572e-18 -7.01796e-35)
(-0.662646 -1.63952 -3.49897e-17 0.658296 -7.69496e-18 5.43151e-35)
(-0.250574 -1.49709 -6.6528e-17 0.246457 4.46711e-17 2.07955e-34)
(0.277435 -0.980478 1.60101e-16 -0.280332 -4.88536e-17 -9.84892e-34)
(0.453333 -0.734446 -1.55774e-16 -0.457596 4.71184e-17 3.99696e-34)
(0.596107 -0.469733 1.36985e-16 -0.598039 -8.24936e-18 -1.04277e-33)
(0.679344 -0.260649 7.18307e-17 -0.683893 -9.7648e-17 1.97432e-33)
(0.725241 -0.067801 -2.02102e-16 -0.726867 -1.00392e-17 -2.52835e-33)
(0.776441 0.109855 -3.18798e-17 -0.780869 4.51967e-17 1.30684e-33)
(0.8019 0.279794 -1.99904e-18 -0.80406 2.21934e-19 3.01296e-36)
(0.833313 0.432824 7.91576e-18 -0.837111 4.6123e-17 3.08506e-34)
(0.894349 0.619127 8.47126e-17 -0.897707 -1.8999e-17 -1.1834e-33)
(-2.35145 -4.07835 7.24601e-18 2.34819 1.46813e-17 0)
(-0.461738 -1.67252 2.75132e-17 0.458571 -8.36081e-18 -5.79268e-35)
(-0.116401 -1.3871 5.69587e-17 0.113397 1.29265e-18 -1.92685e-34)
(0.303908 -0.733892 -1.22478e-16 -0.306011 2.90859e-17 1.17203e-33)
(0.439164 -0.452299 1.2251e-16 -0.442261 -1.25462e-17 -6.2136e-34)
(0.544414 -0.168432 -4.15346e-17 -0.545818 3.87812e-17 3.85695e-34)
(0.602422 0.0449868 -8.9197e-17 -0.605719 -8.35597e-18 6.57177e-34)
(0.628975 0.228571 5.90077e-17 -0.630159 -1.30402e-17 6.17647e-34)
(0.661493 0.402312 6.37942e-17 -0.6647 3.25726e-17 8.77161e-34)
(0.672008 0.558227 5.70544e-17 -0.673575 7.21736e-18 -5.52663e-35)
(0.689041 0.702712 1.69443e-16 -0.691791 -2.86195e-17 -1.58758e-34)
(0.729232 0.88714 -8.48081e-17 -0.731664 -3.13755e-18 1.51767e-35)
(-1.50361 -4.60865 7.37856e-18 1.50164 -2.03125e-18 0)
(-0.271714 -1.68948 -4.54331e-17 0.2698 1.58317e-17 5.32796e-35)
(-0.0424217 -1.29494 -5.23659e-17 0.0405975 -2.29541e-18 1.20043e-34)
(0.228352 -0.539466 6.80852e-17 -0.229614 -1.01876e-17 4.84989e-35)
(0.313637 -0.231812 -6.42367e-17 -0.315504 2.00836e-17 -2.84926e-35)
(0.378144 0.065411 1.4848e-17 -0.378991 -1.85864e-17 0)
(0.412292 0.281093 -4.19869e-17 -0.41427 3.02644e-17 3.88232e-34)
(0.425478 0.456572 2.64862e-17 -0.426197 2.88683e-17 -2.08119e-34)
(0.443205 0.626397 -1.63148e-17 -0.44513 8.12983e-18 4.69491e-34)
(0.446149 0.770668 -1.35916e-18 -0.447093 2.31876e-17 8.28261e-34)
(0.454003 0.907807 -6.49682e-18 -0.455656 -3.08883e-17 -2.38294e-34)
(0.476605 1.08984 3.4365e-17 -0.478068 -3.01374e-17 -6.01755e-34)
(-0.517347 -4.89138 1.50386e-18 0.516665 -1.29022e-17 0)
(-0.0896233 -1.69633 3.61733e-18 0.0889766 -1.13918e-17 5.93574e-35)
(-0.00930213 -1.24282 -9.23115e-18 0.00867312 2.07583e-17 4.09392e-35)
(0.0841704 -0.432638 -1.27441e-17 -0.0845845 8.86066e-19 -9.30301e-36)
(0.113336 -0.111202 4.20976e-17 -0.113954 -1.29137e-17 3.33594e-36)
(0.135063 0.192887 -1.21043e-17 -0.135348 1.68223e-18 -1.17902e-35)
(0.146337 0.409493 8.34596e-18 -0.146975 3.13446e-18 1.90689e-36)
(0.150239 0.580304 -1.88406e-17 -0.150486 6.56926e-18 2.06526e-34)
(0.155838 0.747747 2.59006e-17 -0.156457 -2.63014e-18 9.94941e-35)
(0.156213 0.885459 -1.29561e-17 -0.156524 2.86298e-18 1.93088e-34)
(0.158421 1.01839 -4.01073e-18 -0.158954 3.09659e-19 2.65711e-34)
(0.165683 1.19887 7.23034e-18 -0.166156 -9.87266e-18 -4.39928e-35)
(0.517394 -4.89135 2.76894e-18 -0.516756 9.58735e-18 -2.03146e-35)
(0.08962 -1.69634 2.22052e-17 -0.0889689 1.53056e-17 -3.48695e-35)
(0.00940795 -1.24281 2.95328e-18 -0.00881645 3.82273e-18 -3.34067e-35)
(-0.08415 -0.432643 -8.84683e-18 0.0846076 9.84941e-20 4.94842e-35)
(-0.113252 -0.111197 -1.13972e-17 0.11391 -8.28724e-18 -9.46236e-35)
(-0.135015 0.192889 1.06774e-17 0.13531 2.79205e-18 -1.74303e-35)
(-0.146255 0.409501 -7.71545e-18 0.146984 -1.01759e-17 -6.8924e-36)
(-0.1502 0.580307 -1.60773e-18 0.150437 -2.26523e-17 -1.44407e-34)
(-0.155782 0.747754 -9.69122e-18 0.156492 -4.12756e-18 -1.95779e-34)
(-0.156212 0.885457 -7.35586e-18 0.156546 1.02987e-17 -1.64405e-34)
(-0.158398 1.0184 -7.35674e-19 0.159004 1.60614e-17 -4.47204e-36)
(-0.165679 1.19887 -3.1771e-19 0.16621 -2.60494e-18 1.51586e-35)
(1.50367 -4.60865 1.37953e-17 -1.50173 -3.32476e-18 2.08929e-35)
(0.271721 -1.68951 -4.77353e-17 -0.269801 -1.09028e-17 -4.22865e-34)