/*--------------------------------*- C++ -*----------------------------------*\
| =========                 |                                                 |
| \\      /  F ield         | foam-extend: Open Source CFD                    |
|  \\    /   O peration     | Version:  3.0                                   |
|   \\  /    A nd           | Web:         http://www.extend-project.de       |
|    \\/     M anipulation  |                                                 |
\*---------------------------------------------------------------------------*/
FoamFile
{
    version     2.0;
    format      ascii;
    class       volScalarField;
    location    "2.8";
    object      p;
}
// * * * * * * * * * * * * * * * * * * * * * * * * * * * * * * * * * * * * * //

dimensions      [0 0 0 0 0 0 0];

internalField   nonuniform List<scalar> 
400
(
0.977863
0.915957
0.90619
0.885082
0.898992
0.900104
0.926043
0.939118
0.97079
0.98911
1.02266
1.04096
1.07315
1.08596
1.11227
1.11248
1.12579
1.10319
1.09188
1.02932
1.03672
0.981248
0.972835
0.952086
0.961848
0.956959
0.973316
0.975318
0.993444
0.997753
1.01602
1.01991
1.03766
1.03847
1.05395
1.0473
1.05554
1.03303
1.02273
0.967156
1.00125
0.94918
0.942306
0.923051
0.936744
0.934598
0.95636
0.962474
0.987068
0.996394
1.022
1.03108
1.05668
1.06195
1.08502
1.08118
1.09523
1.07355
1.06513
1.01219
1.00001
0.944663
0.94053
0.922023
0.937464
0.936105
0.957328
0.963376
0.98564
0.994363
1.01697
1.02562
1.04887
1.05451
1.07706
1.07435
1.09001
1.06864
1.06197
1.00435
0.960325
0.897582
0.898323
0.881763
0.904545
0.908001
0.93689
0.94879
0.979225
0.994332
1.0262
1.04148
1.0755
1.08755
1.12239
1.12474
1.15277
1.13188
1.13231
1.06208
0.945756
0.874842
0.879831
0.865288
0.891653
0.898312
0.927881
0.942317
0.971239
0.988482
1.01798
1.03581
1.06822
1.08396
1.11968
1.12658
1.15884
1.13952
1.14358
1.0585
0.910576
0.829698
0.842251
0.831082
0.864853
0.876889
0.912492
0.932285
0.967143
0.9897
1.0264
1.04989
1.09209
1.11415
1.16347
1.17672
1.2263
1.20861
1.22695
1.11876
0.892409
0.807663
0.825141
0.818478
0.854104
0.870074
0.904107
0.926411
0.957325
0.981723
1.0132
1.039
1.0761
1.10222
1.14869
1.16831
1.21983
1.20718
1.2305
1.10542
0.859747
0.777195
0.801008
0.800669
0.839273
0.860439
0.896087
0.922405
0.955182
0.983021
1.01782
1.04734
1.09063
1.12175
1.17919
1.20568
1.27459
1.26759
1.31082
1.16876
0.834591
0.76789
0.793971
0.801626
0.837611
0.862429
0.893056
0.920646
0.946429
0.974452
1.00033
1.03025
1.06303
1.09647
1.14315
1.17596
1.2371
1.24092
1.28378
1.14586
0.795573
0.755215
0.783727
0.801701
0.834818
0.864597
0.892207
0.922316
0.945905
0.975224
1.0002
1.03131
1.06544
1.10155
1.15384
1.19309
1.26749
1.28362
1.35016
1.22464
0.756061
0.755676
0.784759
0.814388
0.842346
0.875408
0.896195
0.926111
0.940972
0.968444
0.981962
1.01085
1.02984
1.0652
1.09821
1.14199
1.19503
1.22852
1.28237
1.2018
0.708087
0.753085
0.782451
0.826143
0.848295
0.886505
0.901686
0.932859
0.942782
0.969522
0.97874
1.00622
1.022
1.05721
1.09014
1.13918
1.20086
1.25417
1.33807
1.30957
0.658467
0.754291
0.788169
0.845367
0.864232
0.905136
0.914034
0.943569
0.944785
0.967854
0.965136
0.987899
0.986617
1.0175
1.02583
1.07578
1.10444
1.1784
1.23271
1.28997
0.617379
0.75961
0.79269
0.865272
0.878405
0.924153
0.926711
0.956148
0.951077
0.971675
0.962584
0.981678
0.973788
1.00146
1.00467
1.05728
1.09017
1.18849
1.28116
1.42372
0.582136
0.76524
0.810255
0.893468
0.906342
0.952547
0.949827
0.975897
0.963167
0.978824
0.95929
0.971997
0.948408
0.968372
0.946681
0.99418
0.988147
1.10156
1.14365
1.39286
0.579852
0.790987
0.83088
0.926087
0.933162
0.981741
0.972237
0.996306
0.976908
0.98884
0.962326
0.969916
0.937857
0.951646
0.920324
0.965248
0.956075
1.09009
1.16944
1.5219
0.612208
0.827654
0.880158
0.975065
0.979992
1.02378
1.00849
1.0271
1.00152
1.00813
0.974272
0.975257
0.931822
0.935589
0.884233
0.915658
0.86988
0.998682
1.00622
1.44051
0.688627
0.891872
0.932718
1.02904
1.0255
1.06593
1.04297
1.0572
1.0255
1.0279
0.988118
0.983806
0.932217
0.927661
0.863617
0.884252
0.823194
0.953603
0.9668
1.4874
0.884811
1.00714
1.03735
1.11166
1.09629
1.12314
1.09311
1.0996
1.06422
1.06179
1.01951
1.00984
0.954201
0.938952
0.865305
0.861915
0.778577
0.861977
0.806729
1.2724
)
;

boundaryField
{
    cavity
    {
        type            implicitExtrapolation;
    }
    lid
    {
        type            implicitExtrapolation;
    }
    frontAndBack
    {
        type            empty;
    }
}


// ************************************************************************* //
