/*--------------------------------*- C++ -*----------------------------------*\
| =========                 |                                                 |
| \\      /  F ield         | foam-extend: Open Source CFD                    |
|  \\    /   O peration     | Version:  3.0                                   |
|   \\  /    A nd           | Web:         http://www.extend-project.de       |
|    \\/     M anipulation  |                                                 |
\*---------------------------------------------------------------------------*/
FoamFile
{
    version     2.0;
    format      ascii;
    class       volScalarField;
    location    "2.8";
    object      Theta;
}
// * * * * * * * * * * * * * * * * * * * * * * * * * * * * * * * * * * * * * //

dimensions      [0 0 0 0 0 0 0];

internalField   nonuniform List<scalar> 
400
(
0.0889089
0.0599317
0.0513032
0.0432381
0.0449182
0.0476498
0.0550243
0.0632309
0.0734527
0.0839329
0.095022
0.105478
0.115647
0.123609
0.130562
0.132397
0.132819
0.122775
0.111773
0.0795263
0.119978
0.0929739
0.0854173
0.077085
0.0770486
0.076557
0.0793677
0.0818582
0.0854859
0.0887824
0.0924106
0.0954767
0.0986505
0.100432
0.1023
0.100607
0.0991225
0.0893131
0.0800794
0.0525724
0.109473
0.083438
0.075995
0.067662
0.0687283
0.0689307
0.0733502
0.0772239
0.0827759
0.0879009
0.0936685
0.0986975
0.104076
0.107566
0.111463
0.110757
0.110666
0.100831
0.0915944
0.0647741
0.105974
0.0784119
0.0726238
0.0648371
0.0674353
0.0682288
0.0734157
0.0774663
0.0832019
0.0882531
0.0940723
0.0991349
0.10493
0.108883
0.113947
0.114129
0.115903
0.10655
0.0987684
0.0696841
0.0923164
0.0609129
0.0566743
0.0495569
0.054757
0.0573946
0.065152
0.0713748
0.0796225
0.0870417
0.0955044
0.10314
0.111899
0.118561
0.126987
0.129553
0.134683
0.125708
0.119288
0.0837909
0.081305
0.0459556
0.0442076
0.038262
0.0463014
0.0506495
0.0604233
0.0680171
0.0776983
0.086307
0.0961584
0.105204
0.1159
0.124558
0.135989
0.141021
0.150129
0.142168
0.138216
0.0952315
0.0671734
0.0269246
0.0286216
0.0240532
0.0353926
0.0417135
0.0538355
0.063148
0.0746504
0.0848783
0.0965628
0.107484
0.120607
0.131748
0.146841
0.154869
0.169139
0.162386
0.162701
0.108459
0.0535017
0.0114985
0.0167995
0.0142632
0.0283174
0.0363027
0.0499554
0.060271
0.0726564
0.0835996
0.0961044
0.107964
0.122515
0.135392
0.153339
0.164203
0.183326
0.178826
0.183952
0.121205
0.0376351
-0.00316722
0.00622389
0.00609887
0.0224449
0.0318853
0.0466136
0.057641
0.0705119
0.0818463
0.0947504
0.107174
0.122653
0.136893
0.157232
0.170802
0.194932
0.193271
0.205308
0.134663
0.0206578
-0.0121234
0.000151194
0.00333045
0.0205442
0.0310985
0.0458542
0.0569529
0.0694116
0.0803568
0.092695
0.10477
0.119962
0.134586
0.155674
0.171345
0.19835
0.200995
0.218238
0.149508
2.32907e-05
-0.0196934
-0.00428753
0.00285231
0.020388
0.031915
0.0461694
0.0569914
0.0685056
0.07858
0.0897098
0.100817
0.114874
0.129194
0.150034
0.167416
0.196845
0.204875
0.230037
0.168115
-0.0219164
-0.0217016
-0.00493125
0.00724152
0.023771
0.0361468
0.0490635
0.0591601
0.0690488
0.0776524
0.0867916
0.0961291
0.107861
0.120808
0.139321
0.157459
0.185596
0.200544
0.228323
0.188598
-0.0476017
-0.0249495
-0.00557948
0.0122903
0.0281029
0.0414392
0.0528889
0.0620627
0.0699863
0.0767406
0.083387
0.0904182
0.099119
0.110055
0.125494
0.144053
0.171328
0.194462
0.231027
0.217607
-0.0714191
-0.0234428
-0.00249823
0.0216874
0.0361499
0.0502916
0.0597922
0.0676801
0.073244
0.0777429
0.0814434
0.0855761
0.0903921
0.0982654
0.108645
0.126151
0.147689
0.179275
0.213467
0.242922
-0.0942765
-0.0231199
0.000453847
0.0310615
0.04489
0.0599004
0.0675403
0.0740011
0.077057
0.0790893
0.0796046
0.0805324
0.0811208
0.0854857
0.0906649
0.106804
0.124731
0.165523
0.209874
0.281068
-0.108646
-0.0170633
0.0101902
0.0461687
0.0591093
0.0741218
0.0795157
0.084045
0.0844415
0.0837865
0.0810869
0.0785197
0.0745958
0.0744949
0.0729857
0.0853782
0.0938562
0.140631
0.174202
0.299577
-0.112275
-0.00588822
0.0218686
0.0626999
0.0744811
0.0892411
0.0922243
0.0946592
0.0923256
0.0889733
0.0830707
0.0770196
0.068588
0.0638594
0.0559293
0.0641873
0.0663927
0.118938
0.16116
0.334219
-0.0934828
0.0157096
0.0475666
0.0884807
0.0982821
0.110496
0.110562
0.110147
0.105227
0.0991749
0.0905982
0.0811845
0.0688119
0.0587879
0.044073
0.044739
0.0351858
0.0837571
0.102609
0.317919
-0.0569769
0.0485486
0.0760771
0.116814
0.122995
0.13232
0.128993
0.12567
0.118137
0.109596
0.0985101
0.0860642
0.0699453
0.0548586
0.0336086
0.0264641
0.00748933
0.0513952
0.0672648
0.317405
0.0396203
0.108656
0.130337
0.159582
0.159415
0.16136
0.154384
0.14702
0.137769
0.126882
0.114845
0.099851
0.0821738
0.0616816
0.0363051
0.0162757
-0.0125307
0.00507679
-0.00876956
0.209779
)
;

boundaryField
{
    cavity
    {
        type            implicitExtrapolation;
    }
    lid
    {
        type            implicitExtrapolation;
    }
    frontAndBack
    {
        type            empty;
    }
}


// ************************************************************************* //
