/*--------------------------------*- C++ -*----------------------------------*\
| =========                 |                                                 |
| \\      /  F ield         | foam-extend: Open Source CFD                    |
|  \\    /   O peration     | Version:  3.0                                   |
|   \\  /    A nd           | Web:         http://www.extend-project.de       |
|    \\/     M anipulation  |                                                 |
\*---------------------------------------------------------------------------*/
FoamFile
{
    version     2.0;
    format      ascii;
    class       volVectorField;
    location    "2.8";
    object      u;
}
// * * * * * * * * * * * * * * * * * * * * * * * * * * * * * * * * * * * * * //

dimensions      [0 0 0 0 0 0 0];

internalField   nonuniform List<vector> 
400
(
(-0.0170907 0.0712535 6.2696e-316)
(-0.151346 0.129036 5.67742e-316)
(-0.205706 0.127478 4.72293e-316)
(-0.323111 0.163819 4.45051e-316)
(-0.392691 0.146103 3.41168e-316)
(-0.4817 0.145769 3.36867e-316)
(-0.543359 0.120802 2.37375e-316)
(-0.600788 0.0967744 2.46835e-316)
(-0.636866 0.0664064 1.56063e-316)
(-0.659862 0.0312016 1.75476e-316)
(-0.661129 -0.00208911 9.31247e-317)
(-0.647009 -0.0389683 1.20181e-316)
(-0.612308 -0.0720869 4.43761e-317)
(-0.559384 -0.099952 7.62794e-317)
(-0.496684 -0.128611 5.32932e-318)
(-0.405407 -0.131779 3.71409e-317)
(-0.333874 -0.151104 -2.67929e-317)
(-0.208765 -0.113316 -6.69361e-318)
(-0.155707 -0.112231 -5.20322e-317)
(-0.0139611 -0.0510239 -6.29729e-317)
(-0.0445517 0.207466 2.32626e-316)
(-0.119274 0.192912 2.72197e-316)
(-0.193893 0.166792 2.61979e-316)
(-0.2582 0.159688 2.67458e-316)
(-0.313704 0.127492 2.37019e-316)
(-0.361256 0.116214 2.2951e-316)
(-0.39917 0.0843708 1.90737e-316)
(-0.428224 0.0663932 1.79639e-316)
(-0.447605 0.0342526 1.39715e-316)
(-0.458689 0.0117573 1.29799e-316)
(-0.458127 -0.0222773 9.22345e-317)
(-0.451019 -0.0449424 8.54057e-317)
(-0.430468 -0.0816561 5.11422e-317)
(-0.403529 -0.099579 4.72027e-317)
(-0.364635 -0.138974 1.56625e-317)
(-0.315816 -0.148595 1.20843e-317)
(-0.260598 -0.188008 -1.78904e-317)
(-0.191427 -0.19086 -2.91638e-317)
(-0.120267 -0.218983 -5.95851e-317)
(-0.0400575 -0.228851 -1.00998e-316)
(-0.0178284 0.3252 2.88297e-316)
(-0.12 0.363194 2.82432e-316)
(-0.190369 0.344829 2.56677e-316)
(-0.272384 0.352987 2.40393e-316)
(-0.344086 0.306823 2.06158e-316)
(-0.401316 0.281032 1.9118e-316)
(-0.455483 0.224098 1.56092e-316)
(-0.490888 0.173533 1.43693e-316)
(-0.519704 0.111591 1.10498e-316)
(-0.535964 0.0479287 1.0058e-316)
(-0.536417 -0.0174573 6.94992e-317)
(-0.533106 -0.0826364 6.12954e-317)
(-0.504176 -0.150294 3.11996e-317)
(-0.476899 -0.203809 2.27104e-317)
(-0.420466 -0.269792 -8.63904e-318)
(-0.362277 -0.295766 -2.1644e-317)
(-0.287917 -0.349219 -5.68186e-317)
(-0.194188 -0.334306 -8.25141e-317)
(-0.127223 -0.351096 -1.22575e-316)
(-0.0081581 -0.301464 -1.6994e-316)
(-0.0364719 0.411614 3.46699e-317)
(-0.120055 0.454524 9.39637e-317)
(-0.198506 0.400168 1.15309e-316)
(-0.24631 0.398303 1.32671e-316)
(-0.309742 0.327585 1.31145e-316)
(-0.332599 0.291773 1.28447e-316)
(-0.374294 0.22376 1.15392e-316)
(-0.38508 0.168575 1.04798e-316)
(-0.405631 0.103164 8.74819e-317)
(-0.412103 0.0385472 7.48179e-317)
(-0.41254 -0.0297357 5.69766e-317)
(-0.416522 -0.0959328 4.47627e-317)
(-0.395833 -0.173051 2.80512e-317)
(-0.392706 -0.231092 1.75522e-317)
(-0.348514 -0.319959 3.24551e-318)
(-0.326526 -0.354324 -3.68714e-318)
(-0.25969 -0.447724 -1.30494e-317)
(-0.201582 -0.436155 -1.16279e-317)
(-0.126748 -0.499573 -1.06868e-317)
(-0.0236759 -0.429038 9.86104e-318)
(-0.0554965 0.542305 2.03643e-316)
(-0.139628 0.592744 1.852e-316)
(-0.247572 0.524206 1.68929e-316)
(-0.291532 0.51379 1.51573e-316)
(-0.377411 0.430459 1.34532e-316)
(-0.398031 0.375951 1.19994e-316)
(-0.455117 0.298908 1.03022e-316)
(-0.467879 0.220292 8.968e-317)
(-0.496932 0.148602 7.3081e-317)
(-0.510011 0.0583659 6.01964e-317)
(-0.511949 -0.0145062 4.37524e-317)
(-0.526468 -0.107542 3.07048e-317)
(-0.499005 -0.189223 1.35391e-317)
(-0.508273 -0.273731 -1.23235e-318)
(-0.446797 -0.369863 -2.11766e-317)
(-0.434495 -0.425334 -4.13438e-317)
(-0.338657 -0.531953 -6.75199e-317)
(-0.279034 -0.525407 -1.00257e-316)
(-0.16681 -0.605096 -1.37109e-316)
(-0.0418776 -0.512574 -1.90341e-316)
(-0.0875183 0.668613 1.33093e-317)
(-0.136532 0.713085 5.45031e-317)
(-0.268181 0.606539 7.229e-317)
(-0.267854 0.578021 8.57959e-317)
(-0.355726 0.474506 8.7402e-317)
(-0.339028 0.401792 8.53564e-317)
(-0.390612 0.319971 7.80188e-317)
(-0.37837 0.228196 6.93452e-317)
(-0.403218 0.159045 5.82085e-317)
(-0.405548 0.058791 4.72772e-317)
(-0.40851 -0.0120099 3.50259e-317)
(-0.428557 -0.116748 2.37422e-317)
(-0.406886 -0.205003 1.17213e-317)
(-0.440654 -0.307198 1.34254e-318)
(-0.38426 -0.427864 -8.9568e-318)
(-0.416443 -0.505976 -1.58399e-317)
(-0.313479 -0.663232 -2.12605e-317)
(-0.310775 -0.670342 -1.80512e-317)
(-0.163225 -0.817949 -1.28642e-317)
(-0.0812046 -0.704427 1.10725e-317)
(-0.145623 0.821138 1.94465e-316)
(-0.150934 0.824556 1.58795e-316)
(-0.337894 0.694161 1.37909e-316)
(-0.302526 0.631867 1.16611e-316)
(-0.415126 0.525373 1.01554e-316)
(-0.380101 0.426811 8.75395e-317)
(-0.442847 0.351818 7.48397e-317)
(-0.426148 0.24052 6.30361e-317)
(-0.456452 0.183111 5.10252e-317)
(-0.465593 0.0660797 3.95928e-317)
(-0.47094 0.0110084 2.74754e-317)
(-0.508484 -0.1122 1.55592e-317)
(-0.484595 -0.181516 2.45493e-318)
(-0.547214 -0.308483 -1.13535e-317)
(-0.47741 -0.411569 -2.73757e-317)
(-0.549412 -0.523484 -4.66271e-317)
(-0.408188 -0.677766 -6.93964e-317)
(-0.449667 -0.723256 -1.02083e-316)
(-0.216974 -0.902307 -1.37815e-316)
(-0.160468 -0.81979 -1.95002e-316)
(-0.20294 1.01436 2.47257e-317)
(-0.120541 0.944144 5.39703e-317)
(-0.345573 0.789434 6.47899e-317)
(-0.247663 0.676352 7.28221e-317)
(-0.363178 0.570668 7.19183e-317)
(-0.289111 0.440403 6.81096e-317)
(-0.345051 0.376815 6.10331e-317)
(-0.303875 0.247207 5.26281e-317)
(-0.329199 0.204748 4.30629e-317)
(-0.324443 0.0751952 3.31692e-317)
(-0.33101 0.0338662 2.282e-317)
(-0.366592 -0.105095 1.25719e-317)
(-0.349891 -0.167838 2.18507e-318)
(-0.429707 -0.323346 -7.6533e-318)
(-0.366623 -0.436585 -1.70034e-317)
(-0.489041 -0.596857 -2.42114e-317)
(-0.335313 -0.792275 -2.97637e-317)
(-0.477362 -0.902697 -2.78355e-317)
(-0.172281 -1.16412 -2.41138e-317)
(-0.257208 -1.14394 -2.4648e-318)
(-0.267791 1.18042 1.93587e-316)
(-0.10316 0.991872 1.49546e-316)
(-0.383666 0.842685 1.25396e-316)
(-0.239531 0.661903 1.01984e-316)
(-0.371822 0.578747 8.6688e-317)
(-0.279127 0.414971 7.28011e-317)
(-0.33811 0.373261 6.10965e-317)
(-0.293746 0.228072 5.01294e-317)
(-0.320193 0.207732 3.95945e-317)
(-0.322965 0.0696754 2.93003e-317)
(-0.332997 0.0555434 1.88942e-317)
(-0.387382 -0.0937303 8.33421e-318)
(-0.375295 -0.118691 -2.81281e-318)
(-0.48935 -0.297056 -1.49449e-317)
(-0.422831 -0.358826 -2.86442e-317)
(-0.601358 -0.570039 -4.58485e-317)
(-0.411285 -0.709182 -6.61809e-317)
(-0.635899 -0.917769 -9.75765e-317)
(-0.212137 -1.16366 -1.32366e-316)
(-0.387476 -1.29912 -1.9362e-316)
(-0.287314 1.39889 3.57169e-317)
(-0.0346338 1.06942 6.0681e-317)
(-0.320747 0.934866 6.69977e-317)
(-0.134185 0.669808 7.12295e-317)
(-0.252234 0.615421 6.75375e-317)
(-0.138044 0.409562 6.17104e-317)
(-0.181674 0.39381 5.36809e-317)
(-0.120716 0.230364 4.48719e-317)
(-0.138435 0.234281 3.55779e-317)
(-0.123964 0.0874287 2.61645e-317)
(-0.134444 0.0968809 1.66708e-317)
(-0.171248 -0.0652459 7.23141e-318)
(-0.169511 -0.0690486 -2.18566e-318)
(-0.273162 -0.280896 -1.13226e-317)
(-0.223768 -0.330235 -2.00335e-317)
(-0.421489 -0.617546 -2.72022e-317)
(-0.238121 -0.767569 -3.29384e-317)
(-0.559445 -1.11655 -3.21007e-317)
(-0.0822875 -1.42878 -2.97613e-317)
(-0.476911 -1.76136 -1.0732e-317)
(-0.288672 1.50247 1.89882e-316)
(0.00685312 1.03453 1.43862e-316)
(-0.280708 0.948225 1.19133e-316)
(-0.0810131 0.603813 9.55256e-317)
(-0.188881 0.589619 8.00854e-317)
(-0.0746799 0.352791 6.62202e-317)
(-0.106853 0.361522 5.46617e-317)
(-0.0502507 0.190422 4.39702e-317)
(-0.0628184 0.213873 3.39477e-317)
(-0.0559487 0.0680762 2.43049e-317)
(-0.0707621 0.102016 1.48279e-317)
(-0.121091 -0.0600125 5.37226e-318)
(-0.133575 -0.0226297 -4.34405e-318)
(-0.262469 -0.248583 -1.47425e-317)
(-0.2312 -0.223204 -2.62014e-317)
(-0.474452 -0.566046 -4.07011e-317)
(-0.288079 -0.591721 -5.77581e-317)
(-0.681386 -1.0855 -8.60734e-317)
(-0.121712 -1.26733 -1.17485e-316)
(-0.587613 -1.85804 -1.80195e-316)
(-0.193239 1.66052 4.19201e-317)
(0.0809479 1.06437 6.87349e-317)
(-0.117388 1.01793 7.24914e-317)
(0.0598537 0.587798 7.41475e-317)
(0.0016282 0.61144 6.78658e-317)
(0.106865 0.335953 6.00588e-317)
(0.10219 0.372101 5.08102e-317)
(0.163823 0.190402 4.13447e-317)
(0.164079 0.238632 3.19609e-317)
(0.190355 0.0935549 2.27832e-317)
(0.176707 0.153937 1.3851e-317)
(0.162261 -0.0105792 5.14643e-318)
(0.137299 0.0560801 -3.33793e-318)
(0.0615465 -0.19606 -1.14758e-317)
(0.0600516 -0.141799 -1.9064e-317)
(-0.124622 -0.571189 -2.52141e-317)
(0.00327366 -0.583645 -2.96526e-317)
(-0.380442 -1.27355 -2.76438e-317)
(0.102232 -1.51626 -2.32598e-317)
(-0.523917 -2.40706 -1.28705e-318)
(-0.109444 1.61239 1.81978e-316)
(0.113973 0.977049 1.40746e-316)
(-0.00210853 0.974416 1.16762e-316)
(0.135806 0.50666 9.36798e-317)
(0.126486 0.554868 7.77952e-317)
(0.210674 0.270386 6.35961e-317)
(0.234617 0.316798 5.1719e-317)
(0.285344 0.140634 4.09304e-317)
(0.297195 0.194541 3.10566e-317)
(0.317366 0.0602445 2.18143e-317)
(0.299274 0.129139 1.29908e-317)
(0.279514 -0.0237723 4.457e-318)
(0.230882 0.0658588 -3.97102e-318)
(0.144998 -0.181784 -1.26146e-317)
(0.0952329 -0.0644521 -2.16453e-317)
(-0.111422 -0.52185 -3.27663e-317)
(-0.0489818 -0.381007 -4.5178e-317)
(-0.462104 -1.18496 -6.74337e-317)
(-0.00849946 -1.16748 -9.09618e-317)
(-0.597059 -2.24778 -1.45336e-316)
(0.0881519 1.65972 4.88183e-317)
(0.146184 0.976874 8.29853e-317)
(0.223441 1.00095 8.2927e-317)
(0.284288 0.483069 8.0894e-317)
(0.355935 0.550873 7.10883e-317)
(0.411472 0.248005 6.07311e-317)
(0.468463 0.311123 4.99313e-317)
(0.515999 0.139071 3.96581e-317)
(0.540937 0.211508 3.00185e-317)
(0.579759 0.0907076 2.09912e-317)
(0.564835 0.182721 1.24828e-317)
(0.592063 0.0430588 4.45896e-318)
(0.534344 0.162671 -3.11241e-318)
(0.538831 -0.0885223 -1.01425e-317)
(0.449386 0.063772 -1.62838e-317)
(0.396901 -0.456892 -2.06692e-317)
(0.343284 -0.299099 -2.2504e-317)
(0.138006 -1.30685 -1.65644e-317)
(0.301327 -1.39852 -6.16365e-318)
(-0.214982 -2.88645 2.98622e-317)
(0.23029 1.44664 1.79453e-316)
(0.18263 0.879448 1.43986e-316)
(0.384993 0.875906 1.18555e-316)
(0.379275 0.408503 9.42323e-317)
(0.524709 0.461781 7.69753e-317)
(0.552034 0.186744 6.19045e-317)
(0.647058 0.240021 4.95361e-317)
(0.682035 0.087873 3.86106e-317)
(0.721317 0.149282 2.89105e-317)
(0.75574 0.0455906 2.00634e-317)
(0.737785 0.124445 1.18724e-317)
(0.765758 0.00441218 4.1821e-318)
(0.682014 0.112749 -3.09307e-318)
(0.686723 -0.111414 -1.0147e-317)
(0.527225 0.0504019 -1.69302e-317)
(0.463011 -0.438057 -2.46368e-317)
(0.271015 -0.182383 -3.22332e-317)
(0.0335412 -1.16188 -4.67825e-317)
(0.0574876 -0.918629 -6.05623e-317)
(-0.420063 -2.22298 -9.71687e-317)
(0.365157 1.36149 9.93281e-317)
(0.165749 0.864102 1.2289e-316)
(0.593301 0.857151 1.08194e-316)
(0.535795 0.38117 9.49464e-317)
(0.760021 0.425117 7.84335e-317)
(0.763047 0.158881 6.37851e-317)
(0.880355 0.216232 5.07207e-317)
(0.90884 0.0845083 3.92201e-317)
(0.954696 0.156883 2.90744e-317)
(1.00365 0.0776076 1.99246e-317)
(0.990303 0.173625 1.15797e-317)
(1.06468 0.0818494 3.90324e-318)
(0.983229 0.217415 -3.15879e-318)
(1.09282 0.0214856 -9.49009e-318)
(0.911417 0.222863 -1.46313e-317)
(1.07072 -0.273413 -1.75694e-317)
(0.748222 0.0112175 -1.71723e-317)
(0.953403 -1.14925 -6.84519e-318)
(0.466997 -1.05547 9.70197e-318)
(0.539619 -3.11247 6.41452e-317)
(0.702207 1.09411 1.89167e-316)
(0.266741 0.729489 1.37966e-316)
(0.785107 0.630684 1.10178e-316)
(0.655201 0.297145 8.43609e-317)
(0.931317 0.309612 6.79109e-317)
(0.914137 0.105791 5.39393e-317)
(1.05831 0.142533 4.28578e-317)
(1.07547 0.0390482 3.32583e-317)
(1.13147 0.0877788 2.48484e-317)
(1.17242 0.0251515 1.72749e-317)
(1.16007 0.088567 1.03508e-317)
(1.22811 0.0159684 3.97979e-318)
(1.13344 0.103118 -1.85302e-318)
(1.22993 -0.0524134 -7.23861e-318)
(0.994631 0.0793686 -1.20129e-317)
(1.10679 -0.315739 -1.69373e-317)
(0.648361 -0.0883912 -2.12908e-317)
(0.685602 -0.971017 -3.03836e-317)
(0.120285 -0.64829 -3.93454e-317)
(-0.253619 -1.60568 -6.5085e-317)
(0.319394 0.741418 3.03711e-316)
(0.330504 0.805802 2.34398e-316)
(1.01434 0.601621 1.76609e-316)
(0.971668 0.284782 1.3358e-316)
(1.31806 0.256363 1.02432e-316)
(1.28749 0.0760367 7.85975e-317)
(1.43829 0.11101 6.02006e-317)
(1.44545 0.0362548 4.51613e-317)
(1.49722 0.0928461 3.25313e-317)
(1.55479 0.0578129 2.14986e-317)
(1.54495 0.135642 1.16177e-317)
(1.67054 0.0973316 2.56047e-318)
(1.58928 0.213184 -5.7703e-318)
(1.81644 0.108649 -1.33029e-317)
(1.58703 0.29722 -1.94829e-317)
(1.98762 -0.0529528 -2.30669e-317)
(1.39219 0.275864 -2.24127e-317)
(2.13268 -0.803797 -9.58179e-318)
(0.671182 -0.440976 1.1784e-317)
(1.92707 -3.11711 7.85564e-317)
(1.41387 0.692229 5.44934e-317)
(0.441713 0.323142 1.19254e-317)
(0.950429 0.249901 1.49706e-317)
(0.793015 0.116362 1.2581e-317)
(0.999764 0.119492 1.38252e-317)
(0.980137 0.0325275 1.31575e-317)
(1.08805 0.0471768 1.22742e-317)
(1.09142 0.00407499 1.08058e-317)
(1.13625 0.023944 9.12392e-318)
(1.15549 -0.000161153 7.34943e-318)
(1.1561 0.0245694 5.59083e-318)
(1.19659 -0.00299058 4.01794e-318)
(1.1426 0.0267592 2.71134e-318)
(1.20965 -0.0371059 1.72826e-318)
(1.0451 -0.00336847 1.05229e-318)
(1.14418 -0.178422 -1.22721e-319)
(0.769443 -0.145288 -2.36782e-318)
(0.824155 -0.527344 -1.12947e-317)
(0.344467 -0.507403 -2.59054e-317)
(-0.580641 -0.152142 -6.84609e-317)
(-0.391241 -0.29786 8.70952e-316)
(1.06353 1.03804 5.39296e-316)
(2.15116 0.385439 3.78032e-316)
(2.23878 0.246876 2.67245e-316)
(2.82381 0.143457 1.9989e-316)
(2.72184 0.0232712 1.50755e-316)
(2.92332 0.0447376 1.14235e-316)
(2.88924 0.0071496 8.48028e-317)
(2.94287 0.0534607 6.01775e-317)
(3.0333 0.0442675 3.86421e-317)
(3.02744 0.108126 1.9211e-317)
(3.28474 0.101814 1.14786e-318)
(3.21935 0.19926 -1.58281e-317)
(3.71693 0.159991 -3.17486e-317)
(3.46544 0.323661 -4.57456e-317)
(4.33701 0.10181 -5.59919e-317)
(3.3548 0.440487 -5.89192e-317)
(4.93158 -0.542511 -4.46097e-317)
(1.40319 0.348787 -1.33361e-317)
(4.70758 -3.08372 7.33579e-317)
)
;

boundaryField
{
    cavity
    {
        type            myImplicitVelocity;
    }
    lid
    {
        type            fixedValue;
        value           uniform (1 0 0);
    }
    frontAndBack
    {
        type            empty;
    }
}


// ************************************************************************* //
