/*--------------------------------*- C++ -*----------------------------------*\
| =========                 |                                                 |
| \\      /  F ield         | foam-extend: Open Source CFD                    |
|  \\    /   O peration     | Version:  3.0                                   |
|   \\  /    A nd           | Web:         http://www.extend-project.de       |
|    \\/     M anipulation  |                                                 |
\*---------------------------------------------------------------------------*/
FoamFile
{
    version     2.0;
    format      ascii;
    class       volVectorField;
    location    "8";
    object      s;
}
// * * * * * * * * * * * * * * * * * * * * * * * * * * * * * * * * * * * * * //

dimensions      [0 0 0 0 0 0 0];

internalField   nonuniform List<vector> 
400
(
(-0.0211726 0.0417294 1.16107e-317)
(-0.0355101 0.0598016 2.05517e-317)
(-0.0781438 0.0615806 2.34608e-317)
(-0.100311 0.0507788 2.36851e-317)
(-0.131949 0.0429904 2.27571e-317)
(-0.150092 0.031757 2.13437e-317)
(-0.169881 0.0240309 1.97695e-317)
(-0.181171 0.0150682 1.81993e-317)
(-0.190378 0.00801952 1.66802e-317)
(-0.194001 0.000154781 1.52755e-317)
(-0.193282 -0.00706827 1.39573e-317)
(-0.188638 -0.015223 1.27622e-317)
(-0.177735 -0.0232343 1.16485e-317)
(-0.164472 -0.0323893 1.06275e-317)
(-0.142883 -0.0408089 9.6636e-318)
(-0.12194 -0.0504714 8.72668e-318)
(-0.0902714 -0.0570367 7.75984e-318)
(-0.066026 -0.0634903 6.64714e-318)
(-0.0284408 -0.0591014 5.1176e-318)
(-0.0136546 -0.038674 2.60253e-318)
(-0.0232426 0.0244227 1.53072e-317)
(-0.0530195 0.0546365 3.00829e-317)
(-0.10061 0.0668476 3.63301e-317)
(-0.135224 0.065607 3.80305e-317)
(-0.175222 0.0583588 3.74317e-317)
(-0.203727 0.0472143 3.57344e-317)
(-0.231204 0.035264 3.35383e-317)
(-0.249145 0.022546 3.12169e-317)
(-0.262719 0.0100335 2.88788e-317)
(-0.268419 -0.00262795 2.66649e-317)
(-0.267664 -0.0152187 2.45406e-317)
(-0.260371 -0.0278202 2.25747e-317)
(-0.245023 -0.0402497 2.06918e-317)
(-0.224801 -0.052006 1.89167e-317)
(-0.195406 -0.0624054 1.71557e-317)
(-0.164319 -0.0699415 1.53695e-317)
(-0.123974 -0.0727359 1.34074e-317)
(-0.0882803 -0.0676207 1.10942e-317)
(-0.0447907 -0.0507173 8.02957e-318)
(-0.0168161 -0.0194602 3.59685e-318)
(-0.0228839 0.0736368 1.4272e-317)
(-0.0507816 0.130574 2.89598e-317)
(-0.0977421 0.147529 3.58372e-317)
(-0.130724 0.138989 3.82859e-317)
(-0.168615 0.122572 3.83309e-317)
(-0.19586 0.0989835 3.71305e-317)
(-0.221895 0.075208 3.52897e-317)
(-0.239535 0.0496157 3.3206e-317)
(-0.252942 0.0247535 3.10191e-317)
(-0.259312 -0.000851374 2.88824e-317)
(-0.25949 -0.0263112 2.6785e-317)
(-0.253531 -0.052314 2.47963e-317)
(-0.239728 -0.0781012 2.28493e-317)
(-0.220958 -0.103315 2.09585e-317)
(-0.193016 -0.126124 1.90178e-317)
(-0.162811 -0.144829 1.69653e-317)
(-0.122992 -0.154973 1.46171e-317)
(-0.0871485 -0.152653 1.17786e-317)
(-0.0428243 -0.127212 8.11822e-318)
(-0.0152397 -0.0662033 3.23349e-318)
(-0.0149051 0.0720006 1.13253e-317)
(-0.0387638 0.13746 2.35808e-317)
(-0.0712063 0.160637 2.98418e-317)
(-0.0976093 0.155206 3.25828e-317)
(-0.126402 0.138578 3.32802e-317)
(-0.148811 0.113573 3.28472e-317)
(-0.170094 0.0867122 3.17533e-317)
(-0.185468 0.0576794 3.03453e-317)
(-0.197516 0.0285048 2.8749e-317)
(-0.204225 -0.00156576 2.71119e-317)
(-0.205878 -0.0320581 2.54378e-317)
(-0.202692 -0.0630622 2.37932e-317)
(-0.192815 -0.0942041 2.21267e-317)
(-0.178823 -0.124031 2.04474e-317)
(-0.156808 -0.151216 1.86537e-317)
(-0.132457 -0.171603 1.66704e-317)
(-0.100145 -0.181609 1.43184e-317)
(-0.0697617 -0.172933 1.13824e-317)
(-0.0348971 -0.13751 7.62603e-318)
(-0.0099613 -0.0624677 2.76993e-318)
(-0.0122438 0.0891497 7.78283e-318)
(-0.0285276 0.167048 1.69471e-317)
(-0.0535269 0.193223 2.22095e-317)
(-0.0723182 0.187044 2.50681e-317)
(-0.0942469 0.167439 2.63688e-317)
(-0.111024 0.13823 2.67239e-317)
(-0.12782 0.10661 2.64411e-317)
(-0.140425 0.0722015 2.57891e-317)
(-0.151045 0.0373662 2.48752e-317)
(-0.158133 0.00104206 2.3832e-317)
(-0.16148 -0.0361609 2.26812e-317)
(-0.161698 -0.0745712 2.14908e-317)
(-0.156129 -0.113701 2.02337e-317)
(-0.147896 -0.151932 1.89261e-317)
(-0.131483 -0.187653 1.74935e-317)
(-0.113865 -0.21552 1.58728e-317)
(-0.0862724 -0.231408 1.3908e-317)
(-0.0619128 -0.223703 1.13903e-317)
(-0.028904 -0.183296 8.01623e-318)
(-0.0094056 -0.08832 3.3163e-318)
(-0.00719887 0.0870956 4.08245e-318)
(-0.0181078 0.166549 1.00989e-317)
(-0.0321134 0.195216 1.43206e-317)
(-0.0439126 0.19047 1.724e-317)
(-0.0576881 0.171954 1.90951e-317)
(-0.0691542 0.143061 2.02008e-317)
(-0.0811106 0.111421 2.07094e-317)
(-0.091064 0.0764723 2.08106e-317)
(-0.100139 0.0406939 2.05892e-317)
(-0.107582 0.00286295 2.01609e-317)
(-0.112614 -0.0364771 1.95623e-317)
(-0.116257 -0.0777764 1.88608e-317)
(-0.115308 -0.120696 1.80541e-317)
(-0.113129 -0.163378 1.71645e-317)
(-0.103271 -0.204296 1.61428e-317)
(-0.0929848 -0.236636 1.49365e-317)
(-0.0718228 -0.256143 1.34052e-317)
(-0.0538529 -0.247115 1.13273e-317)
(-0.0246983 -0.200943 8.31446e-318)
(-0.00899817 -0.091432 3.70401e-318)
(-0.00456388 0.0892452 1.01126e-318)
(-0.00985727 0.171136 4.34721e-318)
(-0.016768 0.200905 7.62819e-318)
(-0.0224524 0.197158 1.05259e-317)
(-0.0300515 0.179138 1.27814e-317)
(-0.0367764 0.150385 1.44599e-317)
(-0.0446186 0.118679 1.55889e-317)
(-0.0520094 0.0832186 1.62876e-317)
(-0.059528 0.0466964 1.66222e-317)
(-0.0670748 0.00745308 1.6693e-317)
(-0.0733919 -0.0338249 1.65455e-317)
(-0.0801338 -0.078196 1.62467e-317)
(-0.0832262 -0.125123 1.58129e-317)
(-0.0870327 -0.17343 1.52718e-317)
(-0.0829156 -0.220931 1.45979e-317)
(-0.080374 -0.261086 1.37497e-317)
(-0.0638057 -0.287785 1.2603e-317)
(-0.0529274 -0.283911 1.09383e-317)
(-0.0228836 -0.236754 8.30057e-318)
(-0.0123994 -0.113516 3.90965e-318)
(-0.00114194 0.0843492 -1.39793e-318)
(-0.00264806 0.162653 -2.19874e-319)
(-0.00165133 0.192579 2.24474e-318)
(-0.00214456 0.189885 5.03345e-318)
(-0.00331983 0.174011 7.53496e-318)
(-0.00567044 0.147234 9.61684e-318)
(-0.00917776 0.117753 1.1209e-317)
(-0.0138608 0.0841599 1.23721e-317)
(-0.0193689 0.0494014 1.3152e-317)
(-0.0264135 0.0113628 1.3631e-317)
(-0.0333646 -0.0292255 1.38589e-317)
(-0.0423047 -0.0739869 1.38991e-317)
(-0.0489523 -0.122461 1.37793e-317)
(-0.0578546 -0.174111 1.35292e-317)
(-0.0597935 -0.226672 1.31359e-317)
(-0.0644022 -0.273542 1.25677e-317)
(-0.0541378 -0.307715 1.17092e-317)
(-0.0498663 -0.308891 1.03586e-317)
(-0.0218431 -0.261821 8.03767e-318)
(-0.0146662 -0.124919 3.94045e-318)
(0.00166145 0.0799504 -2.85689e-318)
(0.00349515 0.154972 -3.18938e-318)
(0.0107046 0.184162 -1.41488e-318)
(0.0143858 0.182772 1.1516e-318)
(0.0185079 0.168718 3.70067e-318)
(0.0199431 0.144171 5.96665e-318)
(0.0204203 0.117002 7.81514e-318)
(0.0185033 0.0856362 9.25633e-318)
(0.015368 0.0530906 1.03179e-317)
(0.00946054 0.0168458 1.1063e-317)
(0.00279418 -0.0222134 1.15389e-317)
(-0.00742931 -0.0665713 1.18009e-317)
(-0.0164612 -0.115442 1.18791e-317)
(-0.0299184 -0.169918 1.17995e-317)
(-0.0369264 -0.226578 1.15546e-317)
(-0.0495002 -0.281378 1.11141e-317)
(-0.0447391 -0.323504 1.03737e-317)
(-0.0498453 -0.335236 9.15882e-318)
(-0.0212203 -0.291207 7.04425e-318)
(-0.0214027 -0.147123 3.38276e-318)
(0.00408299 0.0719603 -3.62674e-318)
(0.00847582 0.140612 -4.95518e-318)
(0.0213998 0.168684 -3.7565e-318)
(0.0288453 0.16836 -1.49005e-318)
(0.0380653 0.156796 9.64688e-319)
(0.0432475 0.135107 3.26103e-318)
(0.0478729 0.111172 5.22045e-318)
(0.0491436 0.0830429 6.81456e-318)
(0.0490008 0.05384 8.04936e-318)
(0.0452478 0.0207464 8.97035e-318)
(0.0399454 -0.0153516 9.61707e-318)
(0.030135 -0.0575224 1.00356e-317)
(0.0199418 -0.10512 1.02527e-317)
(0.00420654 -0.160376 1.02905e-317)
(-0.00746102 -0.219963 1.01371e-317)
(-0.0254562 -0.281237 9.76511e-318)
(-0.0284014 -0.33247 9.07329e-318)
(-0.0402471 -0.354939 7.91939e-318)
(-0.0181664 -0.318161 5.96757e-318)
(-0.0214308 -0.166384 2.75826e-318)
(0.00690155 0.0649931 -3.77009e-318)
(0.0126111 0.127341 -5.6559e-318)
(0.030464 0.153214 -4.92811e-318)
(0.0404292 0.153987 -3.01327e-318)
(0.0539469 0.144291 -7.66726e-319)
(0.062179 0.125492 1.42571e-318)
(0.0706391 0.104585 3.36494e-318)
(0.0750218 0.0798244 4.99014e-318)
(0.0781784 0.0541555 6.28985e-318)
(0.0771339 0.0246488 7.29121e-318)
(0.0742054 -0.00771493 8.02252e-318)
(0.0658524 -0.0467013 8.51851e-318)
(0.0561231 -0.0913109 8.80002e-318)
(0.0389606 -0.14572 8.87946e-318)
(0.0243949 -0.205282 8.74288e-318)
(-6.7331e-05 -0.271667 8.35688e-318)
(-0.00933976 -0.328185 7.6336e-318)
(-0.0331752 -0.36333 6.45723e-318)
(-0.0142596 -0.331433 4.61312e-318)
(-0.0300487 -0.181216 1.8811e-318)
(0.00811097 0.0546347 -3.49321e-318)
(0.0156353 0.109954 -5.62406e-318)
(0.0368921 0.133997 -5.28224e-318)
(0.0495992 0.135806 -3.73729e-318)
(0.0668148 0.128245 -1.76357e-318)
(0.0782295 0.112357 2.47285e-319)
(0.0903858 0.09466 2.08448e-318)
(0.0981861 0.0734606 3.66529e-318)
(0.104966 0.0515734 4.9606e-318)
(0.107506 0.0261185 5.9818e-318)
(0.107908 -0.00200306 6.74682e-318)
(0.102942 -0.0367778 7.28062e-318)
(0.0952298 -0.0774271 7.5962e-318)
(0.0801056 -0.129077 7.7015e-318)
(0.0638588 -0.187567 7.57748e-318)
(0.0382776 -0.256734 7.19153e-318)
(0.0204916 -0.320033 6.4656e-318)
(-0.00784474 -0.368009 5.30879e-318)
(-0.00461474 -0.350113 3.60772e-318)
(-0.0216497 -0.205502 1.29167e-318)
(0.0101821 0.0474409 -3.18307e-318)
(0.0172145 0.0951057 -5.36087e-318)
(0.0413832 0.115969 -5.2735e-318)
(0.0551906 0.118243 -4.03614e-318)
(0.0752836 0.112003 -2.32487e-318)
(0.0888448 0.0987618 -5.16985e-319)
(0.104039 0.0838638 1.18052e-318)
(0.114649 0.0660656 2.67221e-318)
(0.12479 0.047805 3.91892e-318)
(0.130774 0.0264266 4.91767e-318)
(0.134947 0.00283252 5.67771e-318)
(0.133748 -0.0271301 6.21404e-318)
(0.129533 -0.0624276 6.53447e-318)
(0.116901 -0.109448 6.64027e-318)
(0.101616 -0.163078 6.51301e-318)
(0.0734057 -0.231345 6.11851e-318)
(0.0508113 -0.293451 5.3978e-318)
(0.00986012 -0.349773 4.27931e-318)
(0.00556611 -0.334227 2.73279e-318)
(-0.0311225 -0.199275 7.94354e-319)
(0.00994407 0.0363822 -2.51567e-318)
(0.0180532 0.0778072 -4.59392e-318)
(0.0432499 0.0962563 -4.73641e-318)
(0.0588726 0.0992345 -3.81486e-318)
(0.0810779 0.0943689 -2.39771e-318)
(0.0968423 0.0835688 -8.32471e-319)
(0.11456 0.0713289 6.7892e-319)
(0.127833 0.0567128 2.0344e-318)
(0.14106 0.0418528 3.18619e-318)
(0.15072 0.0244009 4.12088e-318)
(0.158934 0.00515637 4.83933e-318)
(0.162901 -0.0197755 5.35088e-318)
(0.163298 -0.0495471 5.6597e-318)
(0.156948 -0.0907345 5.76442e-318)
(0.144118 -0.138981 5.64762e-318)
(0.121342 -0.20407 5.28274e-318)
(0.0921233 -0.267012 4.62427e-318)
(0.0535212 -0.333096 3.61998e-318)
(0.0235917 -0.335446 2.28025e-318)
(-0.00743399 -0.225817 6.51465e-319)
(0.0101691 0.0304293 -2.4804e-318)
(0.0163624 0.0638358 -4.33316e-318)
(0.0418024 0.0785405 -4.49322e-318)
(0.0572691 0.0810807 -3.71759e-318)
(0.0803286 0.0769684 -2.49211e-318)
(0.0968041 0.0682679 -1.11323e-318)
(0.115697 0.0583344 2.37354e-319)
(0.130294 0.0466356 1.46344e-318)
(0.145408 0.0348066 2.51685e-318)
(0.157484 0.0209577 3.38033e-318)
(0.168987 0.00575853 4.05047e-318)
(0.176953 -0.0141956 4.5311e-318)
(0.182311 -0.0380572 4.82448e-318)
(0.180965 -0.0721522 4.92717e-318)
(0.173309 -0.112138 4.82585e-318)
(0.152749 -0.169121 4.49864e-318)
(0.124172 -0.223174 3.9199e-318)
(0.0758995 -0.286005 3.05174e-318)
(0.0391823 -0.283455 1.92287e-318)
(-0.0187949 -0.183703 5.69505e-319)
(0.0084282 0.0208366 -1.55823e-318)
(0.0148212 0.049181 -3.24263e-318)
(0.0396185 0.0608778 -3.56027e-318)
(0.0558129 0.0635427 -3.05137e-318)
(0.0793783 0.0601214 -2.09584e-318)
(0.0963227 0.053307 -9.68324e-319)
(0.11582 0.0454897 1.66643e-319)
(0.131103 0.0363557 1.21284e-318)
(0.147411 0.0272573 2.12088e-318)
(0.161458 0.0165779 2.86979e-318)
(0.175712 0.00502522 3.45368e-318)
(0.188182 -0.0103755 3.87351e-318)
(0.198506 -0.0286601 4.13033e-318)
(0.205287 -0.0557418 4.22193e-318)
(0.203427 -0.0876171 4.1384e-318)
(0.194632 -0.136296 3.86694e-318)
(0.164584 -0.184071 3.39115e-318)
(0.130379 -0.250128 2.68934e-318)
(0.0627451 -0.264387 1.78041e-318)
(0.0273077 -0.212676 6.51959e-319)
(0.00592393 0.0168163 -1.9992e-318)
(0.00963775 0.036865 -3.24439e-318)
(0.0315622 0.0446664 -3.3817e-318)
(0.0461245 0.0462056 -2.8699e-318)
(0.06749 0.0434235 -2.03494e-318)
(0.082918 0.0384179 -1.06965e-318)
(0.100481 0.0325726 -1.0655e-319)
(0.114475 0.0258803 7.82136e-319)
(0.129608 0.0190511 1.55531e-318)
(0.143138 0.0111362 2.19622e-318)
(0.157758 0.00245786 2.69881e-318)
(0.171237 -0.00889261 3.06375e-318)
(0.184581 -0.0224476 3.29085e-318)
(0.194557 -0.0421362 3.3783e-318)
(0.199371 -0.0655202 3.32115e-318)
(0.194555 -0.100782 3.11049e-318)
(0.173531 -0.135293 2.74371e-318)
(0.134767 -0.181638 2.21003e-318)
(0.0744098 -0.182815 1.52003e-318)
(0.00698965 -0.122552 6.32152e-319)
(0.00293567 0.0104384 -5.9358e-319)
(0.00663473 0.0261989 -1.83837e-318)
(0.0275656 0.0308262 -2.15589e-318)
(0.0411229 0.0320784 -1.92781e-318)
(0.0614038 0.0297422 -1.35565e-318)
(0.0746888 0.0261762 -6.56297e-319)
(0.0906869 0.0221523 6.67334e-320)
(0.102641 0.0174413 7.3934e-319)
(0.116461 0.012896 1.32778e-318)
(0.129057 0.00736032 1.81568e-318)
(0.143476 0.00168511 2.19784e-318)
(0.158349 -0.00617368 2.47404e-318)
(0.173756 -0.0148279 2.64518e-318)
(0.189637 -0.0284918 2.71067e-318)
(0.19968 -0.0432805 2.66801e-318)
(0.208769 -0.0694657 2.51265e-318)
(0.191782 -0.0926736 2.2445e-318)
(0.179902 -0.13894 1.85948e-318)
(0.0934921 -0.150186 1.35628e-318)
(0.0807228 -0.161551 6.60363e-319)
(-0.00115507 0.00775179 -1.37986e-318)
(-0.000278636 0.0141898 -1.88525e-318)
(0.0130393 0.0158318 -1.88666e-318)
(0.022059 0.0161564 -1.58281e-318)
(0.0347419 0.0149367 -1.14857e-318)
(0.0434794 0.0133077 -6.5734e-319)
(0.0530592 0.011041 -1.74306e-319)
(0.06068 0.00854711 2.7054e-319)
(0.0690848 0.00562133 6.56964e-319)
(0.0770202 0.0022858 9.78285e-319)
(0.0866123 -0.00164017 1.23125e-318)
(0.0961287 -0.00643853 1.41628e-318)
(0.107961 -0.0122885 1.53389e-318)
(0.118333 -0.0197395 1.58336e-318)
(0.129486 -0.0289291 1.56432e-318)
(0.134476 -0.0402905 1.47571e-318)
(0.131808 -0.0531185 1.32306e-318)
(0.114598 -0.0639445 1.10918e-318)
(0.0710618 -0.0629972 8.29872e-319)
(0.022695 -0.0174575 4.30865e-319)
(-0.00255423 0.00402739 3.41444e-319)
(0.000335824 0.00843284 -3.33638e-319)
(0.0117198 0.0081766 -4.9869e-319)
(0.0167539 0.00826987 -4.85983e-319)
(0.0264883 0.00737404 -3.13341e-319)
(0.030193 0.00637636 -1.06941e-319)
(0.0369799 0.00569871 1.11308e-319)
(0.0403242 0.00455542 3.10244e-319)
(0.0459417 0.0040416 4.82999e-319)
(0.0504971 0.00280592 6.24227e-319)
(0.0568326 0.00233702 7.34374e-319)
(0.0641519 0.00064861 8.13939e-319)
(0.0723351 0.00012832 8.63622e-319)
(0.0836522 -0.00294296 8.84214e-319)
(0.0923352 -0.00349616 8.74432e-319)
(0.107446 -0.010845 8.34052e-319)
(0.105865 -0.0107788 7.63959e-319)
(0.122154 -0.0335669 6.66583e-319)
(0.0673026 -0.0303333 5.48329e-319)
(0.106378 -0.0964816 3.69527e-319)
)
;

boundaryField
{
    cavity
    {
        type            myHeatFlux;
        ThetaWall       uniform 0;
        value           nonuniform List<vector> 
60
(
(0.001 0 0)
(0.001 0 0)
(0.001 0 0)
(0.001 0 0)
(0.001 0 0)
(0.001 0 0)
(0.001 0 0)
(0.001 0 0)
(0.001 0 0)
(0.001 0 0)
(0.001 0 0)
(0.001 0 0)
(0.001 0 0)
(0.001 0 0)
(0.001 0 0)
(0.001 0 0)
(0.001 0 0)
(0.001 0 0)
(0.001 0 0)
(0.001 0 0)
(0 -0.001 0)
(0 -0.001 0)
(0 -0.001 0)
(0 -0.001 0)
(0 -0.001 0)
(0 -0.001 0)
(0 -0.001 0)
(0 -0.001 0)
(0 -0.001 0)
(0 -0.001 0)
(0 -0.001 0)
(0 -0.001 0)
(0 -0.001 0)
(0 -0.001 0)
(0 -0.001 0)
(0 -0.001 0)
(0 -0.001 0)
(0 -0.001 0)
(0 -0.001 0)
(0 -0.001 0)
(-0.001 0 0)
(-0.001 0 0)
(-0.001 0 0)
(-0.001 0 0)
(-0.001 0 0)
(-0.001 0 0)
(-0.001 0 0)
(-0.001 0 0)
(-0.001 0 0)
(-0.001 0 0)
(-0.001 0 0)
(-0.001 0 0)
(-0.001 0 0)
(-0.001 0 0)
(-0.001 0 0)
(-0.001 0 0)
(-0.001 0 0)
(-0.001 0 0)
(-0.001 0 0)
(-0.001 0 0)
)
;
    }
    lid
    {
        type            myHeatFlux;
        ThetaWall       uniform 0;
        value           nonuniform List<vector> 
20
(
(0.000135815 0.0009 0)
(0.000135815 0.0009 0)
(0.000135815 0.0009 0)
(0.000135815 0.0009 0)
(0.000135815 0.0009 0)
(0.000135815 0.0009 0)
(0.000135815 0.0009 0)
(0.000135815 0.0009 0)
(0.000135815 0.0009 0)
(0.000135815 0.0009 0)
(0.000135815 0.0009 0)
(0.000135815 0.0009 0)
(0.000135815 0.0009 0)
(0.000135815 0.0009 0)
(0.000135815 0.0009 0)
(0.000135815 0.0009 0)
(0.000135815 0.0009 0)
(0.000135815 0.0009 0)
(0.000135815 0.0009 0)
(0.000135815 0.0009 0)
)
;
    }
    frontAndBack
    {
        type            empty;
    }
}


// ************************************************************************* //
