/*--------------------------------*- C++ -*----------------------------------*\
| =========                 |                                                 |
| \\      /  F ield         | foam-extend: Open Source CFD                    |
|  \\    /   O peration     | Version:  3.0                                   |
|   \\  /    A nd           | Web:         http://www.extend-project.de       |
|    \\/     M anipulation  |                                                 |
\*---------------------------------------------------------------------------*/
FoamFile
{
    version     2.0;
    format      ascii;
    class       volSymmTensorField;
    location    "8";
    object      sigma;
}
// * * * * * * * * * * * * * * * * * * * * * * * * * * * * * * * * * * * * * //

dimensions      [0 0 0 0 0 0 0];

internalField   nonuniform List<symmTensor> 
400
(
(0.825556 0.387054 2.86641e-316 -1.13589 3.18808e-316 0.310334)
(1.50849 -0.0277614 2.84761e-316 -1.00121 3.35039e-316 -0.507279)
(1.79953 -0.552636 2.69347e-316 -0.917853 3.22263e-316 -0.881677)
(1.71384 -0.9048 2.5059e-316 -0.744494 2.97686e-316 -0.969341)
(1.5831 -1.29126 2.28637e-316 -0.648499 2.6756e-316 -0.934603)
(1.31006 -1.54381 2.07991e-316 -0.499838 2.38527e-316 -0.810225)
(1.06434 -1.77606 1.87608e-316 -0.404759 2.0938e-316 -0.65958)
(0.757726 -1.92515 1.69285e-316 -0.276635 1.84601e-316 -0.481091)
(0.478153 -2.03172 1.52185e-316 -0.179563 1.60525e-316 -0.298589)
(0.160657 -2.08319 1.36815e-316 -0.0574142 1.41203e-316 -0.103243)
(-0.143281 -2.0826 1.22815e-316 0.0492923 1.22243e-316 0.0939885)
(-0.476859 -2.03763 1.09944e-316 0.17753 1.07552e-316 0.299329)
(-0.798366 -1.93127 9.83489e-317 0.297248 9.27258e-317 0.501118)
(-1.13298 -1.78669 8.70942e-317 0.435175 8.14176e-317 0.697802)
(-1.42433 -1.56436 7.69885e-317 0.558598 6.9674e-317 0.865731)
(-1.68831 -1.32192 6.62458e-317 0.697425 6.05768e-317 0.990882)
(-1.81615 -0.97146 5.65674e-317 0.797031 5.10898e-317 1.01912)
(-1.82488 -0.646451 4.54659e-317 0.91411 4.32327e-317 0.910769)
(-1.48664 -0.18509 3.56063e-317 0.949687 3.50627e-317 0.536952)
(-0.76349 0.19572 2.4898e-317 0.992221 2.63137e-317 -0.228731)
(0.513702 0.324658 1.74587e-316 -1.27167 2.25344e-316 0.757969)
(1.05935 0.0953137 1.81773e-316 -1.24309 2.73576e-316 0.183735)
(1.25896 -0.205601 1.77852e-316 -1.12144 2.81059e-316 -0.137522)
(1.27973 -0.446637 1.70142e-316 -0.99211 2.68263e-316 -0.287622)
(1.18478 -0.693772 1.59596e-316 -0.84708 2.45415e-316 -0.337703)
(1.01935 -0.871905 1.4883e-316 -0.694551 2.20489e-316 -0.324798)
(0.832301 -1.02911 1.37734e-316 -0.552998 1.94375e-316 -0.279303)
(0.607606 -1.12563 1.27228e-316 -0.395105 1.71305e-316 -0.212501)
(0.38816 -1.19356 1.17084e-316 -0.251936 1.48985e-316 -0.136225)
(0.140811 -1.2101 1.07566e-316 -0.0885105 1.30669e-316 -0.0523005)
(-0.097768 -1.1972 9.86037e-317 0.064358 1.13112e-316 0.03341)
(-0.35632 -1.14201 9.00848e-317 0.235878 9.9315e-317 0.120441)
(-0.603757 -1.05881 8.21811e-317 0.401596 8.59126e-317 0.202161)
(-0.850451 -0.946311 7.43807e-317 0.575908 7.57205e-317 0.274543)
(-1.07117 -0.806804 6.71838e-317 0.746482 6.56588e-317 0.324685)
(-1.24022 -0.660623 5.95362e-317 0.900744 5.81e-317 0.339472)
(-1.34115 -0.482096 5.23152e-317 1.04983 5.05163e-317 0.291316)
(-1.28441 -0.33488 4.39653e-317 1.13683 4.41618e-317 0.147581)
(-1.05762 -0.140145 3.55645e-317 1.2069 3.69625e-317 -0.149284)
(-0.489625 -0.0326182 2.6195e-317 1.15461 2.78484e-317 -0.664985)
(0.475282 0.734249 7.84603e-317 -1.37644 1.46716e-316 0.901159)
(0.871449 0.47694 9.33077e-317 -1.27031 2.17772e-316 0.398856)
(1.01264 0.225283 9.96204e-317 -1.13088 2.39614e-316 0.11824)
(0.996096 -0.00302194 1.02188e-316 -0.96605 2.35813e-316 -0.0300463)
(0.92553 -0.217419 1.0163e-316 -0.824306 2.1942e-316 -0.101224)
(0.797291 -0.377576 9.95976e-317 -0.673262 1.98796e-316 -0.124029)
(0.668248 -0.513634 9.61741e-317 -0.548208 1.76396e-316 -0.12004)
(0.507477 -0.592945 9.21427e-317 -0.408896 1.55788e-316 -0.0985809)
(0.354959 -0.642297 8.75157e-317 -0.286009 1.35987e-316 -0.0689501)
(0.17558 -0.640755 8.26603e-317 -0.142123 1.19206e-316 -0.0334569)
(-0.000950577 -0.610769 7.76616e-317 -0.00158811 1.03474e-316 0.00253869)
(-0.200109 -0.540685 7.25875e-317 0.161878 9.06554e-317 0.0382315)
(-0.403031 -0.452141 6.76442e-317 0.335181 7.86425e-317 0.06785)
(-0.610833 -0.340782 6.25881e-317 0.522218 6.91669e-317 0.0886146)
(-0.817929 -0.227642 5.77827e-317 0.727244 6.03696e-317 0.0906847)
(-0.981758 -0.115284 5.25984e-317 0.916619 5.37472e-317 0.0651387)
(-1.10947 -0.0152751 4.74584e-317 1.11715 4.78662e-317 -0.00767086)
(-1.09422 0.0632016 4.13502e-317 1.24547 4.34632e-317 -0.151245)
(-0.938252 0.132001 3.42527e-317 1.3472 3.85759e-317 -0.408949)
(-0.459151 0.180143 2.51139e-317 1.30544 3.05324e-317 -0.846293)
(0.259707 0.875934 -2.12789e-317 -0.975644 6.39941e-317 0.715937)
(0.554274 0.655738 2.56848e-318 -0.935462 1.55408e-316 0.381188)
(0.660095 0.435187 2.08488e-317 -0.831912 1.90327e-316 0.171817)
(0.682418 0.231389 3.44727e-317 -0.732716 1.95813e-316 0.0502986)
(0.64226 0.0500283 4.44698e-317 -0.62662 1.86561e-316 -0.0156403)
(0.576065 -0.0842875 5.12887e-317 -0.530407 1.71419e-316 -0.0456581)
(0.499799 -0.190959 5.56251e-317 -0.444863 1.53573e-316 -0.054936)
(0.406114 -0.24268 5.79563e-317 -0.355362 1.36452e-316 -0.0507515)
(0.315862 -0.268884 5.87286e-317 -0.27569 1.19712e-316 -0.0401711)
(0.203856 -0.239756 5.83213e-317 -0.178358 1.05223e-316 -0.0254975)
(0.0930097 -0.19373 5.7063e-317 -0.0819273 9.16296e-317 -0.0110824)
(-0.0435473 -0.0988524 5.51877e-317 0.0416793 8.03946e-317 0.00186804)
(-0.186181 -0.00597814 5.30117e-317 0.177546 6.9983e-317 0.00863579)
(-0.34619 0.119243 5.06335e-317 0.339725 6.17719e-317 0.0064653)
(-0.514569 0.211223 4.84674e-317 0.52714 5.43989e-317 -0.0125706)
(-0.657343 0.306374 4.64924e-317 0.713461 4.92333e-317 -0.0561181)
(-0.787512 0.334855 4.53265e-317 0.927103 4.52698e-317 -0.139591)
(-0.782253 0.328598 4.46305e-317 1.06313 4.38244e-317 -0.280872)
(-0.687844 0.254302 4.50997e-317 1.19551 4.36742e-317 -0.507663)
(-0.298276 0.11543 4.38021e-317 1.14453 4.45959e-317 -0.846254)
(0.249079 1.07662 -8.64069e-317 -0.900736 5.96233e-319 0.651657)
(0.455418 0.856335 -5.85544e-317 -0.803435 9.87719e-317 0.348017)
(0.530542 0.661844 -3.2867e-317 -0.70171 1.4132e-316 0.171169)
(0.5265 0.445934 -1.19376e-317 -0.596203 1.54119e-316 0.0697033)
(0.511983 0.273153 4.90268e-318 -0.524809 1.51534e-316 0.0128265)
(0.466301 0.1301 1.76148e-317 -0.450447 1.41977e-316 -0.015854)
(0.438614 0.0282582 2.69581e-317 -0.409908 1.29089e-316 -0.0287063)
(0.387327 -0.026428 3.35062e-317 -0.356148 1.15823e-316 -0.031179)
(0.35266 -0.0446129 3.78283e-317 -0.323352 1.02529e-316 -0.0293087)
(0.288856 -0.0114395 4.04453e-317 -0.264239 9.05188e-317 -0.0246166)
(0.228845 0.0491805 4.179e-317 -0.207471 7.91661e-317 -0.0213739)
(0.130814 0.157766 4.22093e-317 -0.110543 6.93064e-317 -0.0202718)
(0.0187866 0.271174 4.20998e-317 0.00757669 6.00808e-317 -0.0263633)
(-0.131373 0.420959 4.16565e-317 0.173207 5.21859e-317 -0.0418339)
(-0.308459 0.528969 4.13766e-317 0.383725 4.48291e-317 -0.0752658)
(-0.48793 0.652931 4.13305e-317 0.621865 3.86904e-317 -0.133936)
(-0.6769 0.664443 4.22662e-317 0.911896 3.33578e-317 -0.234996)
(-0.749504 0.66824 4.39457e-317 1.14789 2.98634e-317 -0.398388)
(-0.731814 0.506681 4.72437e-317 1.3928 2.94082e-317 -0.660985)
(-0.367046 0.326118 4.99176e-317 1.44278 3.63652e-317 -1.07573)
(0.12785 1.24171 -1.36775e-316 -0.63074 -5.10544e-317 0.50289)
(0.241456 0.982779 -1.07166e-316 -0.515769 4.75741e-317 0.274313)
(0.300657 0.754881 -7.63467e-317 -0.438205 9.43483e-317 0.137548)
(0.302002 0.525982 -5.00566e-317 -0.360536 1.13124e-316 0.0585338)
(0.315642 0.338683 -2.79095e-317 -0.330025 1.16637e-316 0.0143822)
(0.30675 0.197464 -1.06234e-317 -0.29826 1.1264e-316 -0.00848983)
(0.321584 0.0930776 2.73457e-318 -0.302281 1.04625e-316 -0.0193024)
(0.319798 0.0489381 1.25955e-317 -0.296969 9.53574e-317 -0.022829)
(0.336753 0.0361678 1.96998e-317 -0.313354 8.54436e-317 -0.023399)
(0.328234 0.0893313 2.45645e-317 -0.305428 7.60754e-317 -0.0228059)
(0.327192 0.165245 2.77049e-317 -0.302941 6.69409e-317 -0.024251)
(0.281544 0.308518 2.95079e-317 -0.252318 5.87309e-317 -0.0292262)
(0.228981 0.450574 3.03499e-317 -0.186911 5.08614e-317 -0.0420696)
(0.110597 0.652147 3.0501e-317 -0.0442844 4.38588e-317 -0.0663127)
(-0.0228536 0.796874 3.03075e-317 0.133392 3.7132e-317 -0.110539)
(-0.218003 0.974723 2.9981e-317 0.402734 3.12165e-317 -0.184731)
(-0.402023 1.00191 2.99597e-317 0.71056 2.58519e-317 -0.308537)
(-0.555651 1.01196 3.03445e-317 1.0643 2.20891e-317 -0.508649)
(-0.580076 0.792233 3.17181e-317 1.41059 2.12348e-317 -0.830516)
(-0.321865 0.503692 3.35502e-317 1.65701 2.65071e-317 -1.33515)
(0.0992688 1.36284 -1.49739e-316 -0.475155 -7.86846e-317 0.375886)
(0.147064 1.08285 -1.23656e-316 -0.338112 8.65786e-318 0.191048)
(0.192456 0.833124 -9.35101e-317 -0.281938 5.43946e-317 0.089482)
(0.185361 0.587227 -6.67587e-317 -0.219029 7.64061e-317 0.0336678)
(0.22479 0.384571 -4.37233e-317 -0.22839 8.45668e-317 0.00359972)
(0.235723 0.228165 -2.52862e-317 -0.224292 8.52615e-317 -0.0114312)
(0.289479 0.112805 -1.07895e-317 -0.270973 8.16472e-317 -0.0185062)
(0.320969 0.0532296 2.36445e-319 -0.300103 7.60788e-317 -0.0208666)
(0.38401 0.0347867 8.43141e-318 -0.36187 6.93931e-317 -0.0221401)
(0.416061 0.0755528 1.43359e-317 -0.392734 6.25585e-317 -0.0233271)
(0.464094 0.15776 1.84309e-317 -0.436293 5.55914e-317 -0.0278006)
(0.456491 0.301056 2.10925e-317 -0.41993 4.89629e-317 -0.0365613)
(0.443064 0.472112 2.2684e-317 -0.388195 4.23912e-317 -0.0548692)
(0.339188 0.700239 2.3412e-317 -0.253016 3.61403e-317 -0.0861724)
(0.208038 0.904447 2.3614e-317 -0.0667081 2.98506e-317 -0.14133)
(-0.0284122 1.14812 2.33504e-317 0.260333 2.37245e-317 -0.23192)
(-0.278784 1.25516 2.30798e-317 0.662659 1.76581e-317 -0.383875)
(-0.542547 1.36906 2.28032e-317 1.17503 1.23225e-317 -0.632484)
(-0.673334 1.21364 2.33475e-317 1.71843 9.5512e-318 -1.0451)
(-0.447155 1.04797 2.52437e-317 2.1758 1.39725e-317 -1.72864)
(0.00585795 1.4729 -1.51408e-316 -0.183543 -9.29293e-317 0.177685)
(-0.0160376 1.13436 -1.29701e-316 -0.0625265 -1.89986e-317 0.0785641)
(0.00804038 0.831591 -1.02011e-316 -0.0340885 2.31558e-317 0.0260481)
(0.00731921 0.569329 -7.6458e-317 -0.00632292 4.64392e-317 -0.000996289)
(0.0595223 0.339291 -5.38208e-317 -0.0457925 5.77219e-317 -0.0137298)
(0.0964582 0.178958 -3.53383e-317 -0.0775569 6.20099e-317 -0.0189013)
(0.173481 0.0469629 -2.04915e-317 -0.153361 6.18786e-317 -0.0201199)
(0.240348 -0.0146282 -9.02325e-318 -0.220703 5.93682e-317 -0.0196447)
(0.336697 -0.0428382 -3.37995e-319 -0.317333 5.53433e-317 -0.0193643)
(0.413609 0.0024966 5.99634e-318 -0.393095 5.06973e-317 -0.0205137)
(0.508822 0.0890748 1.04125e-317 -0.483443 4.55967e-317 -0.0253789)
(0.552566 0.257898 1.32277e-317 -0.516669 4.04718e-317 -0.0358969)
(0.60023 0.462654 1.47031e-317 -0.543588 3.51936e-317 -0.0566426)
(0.538261 0.7561 1.50057e-317 -0.445401 2.99754e-317 -0.09286)
(0.470847 1.0379 1.42508e-317 -0.315107 2.4568e-317 -0.15574)
(0.229844 1.39486 1.24958e-317 0.0309781 1.90692e-317 -0.260822)
(0.017768 1.61431 9.77641e-318 0.420407 1.33175e-317 -0.438175)
(-0.34094 1.8527 6.30217e-318 1.07464 7.52785e-318 -0.733698)
(-0.487089 1.77844 2.37368e-318 1.71677 2.52447e-318 -1.22969)
(-0.402871 1.63415 1.44193e-319 2.45296 -4.21972e-319 -2.05009)
(-0.0530115 1.49452 -1.2989e-316 0.0957655 -9.07549e-317 -0.042754)
(-0.121823 1.1464 -1.1512e-316 0.171944 -3.51133e-317 -0.0501211)
(-0.106321 0.820672 -9.33933e-317 0.153285 7.03238e-319 -0.0469637)
(-0.0986391 0.550175 -7.21782e-317 0.139916 2.30988e-317 -0.0412768)
(-0.0312787 0.303611 -5.28458e-317 0.0662115 3.59214e-317 -0.0349328)
(0.0234828 0.128733 -3.65671e-317 0.00565282 4.25942e-317 -0.0291356)
(0.122146 -0.0207647 -2.32559e-317 -0.0979798 4.50858e-317 -0.024166)
(0.212687 -0.106386 -1.27177e-317 -0.192471 4.50175e-317 -0.0202162)
(0.340523 -0.152781 -4.58866e-318 -0.322281 4.32308e-317 -0.0182423)
(0.450847 -0.1375 1.48744e-318 -0.432284 4.04962e-317 -0.0185627)
(0.59099 -0.0603271 5.83221e-318 -0.567407 3.70995e-317 -0.0235829)
(0.677187 0.0832053 8.69428e-318 -0.642514 3.34142e-317 -0.0346726)
(0.777586 0.307846 1.02861e-317 -0.720294 2.94552e-317 -0.0572921)
(0.751793 0.603008 1.06882e-317 -0.655359 2.53823e-317 -0.0964339)
(0.717426 0.965414 9.99814e-318 -0.551944 2.10706e-317 -0.165482)
(0.464447 1.3883 8.11369e-318 -0.183264 1.64999e-317 -0.281182)
(0.20873 1.77793 5.03617e-318 0.271127 1.14983e-317 -0.479857)
(-0.263021 2.19573 7.71404e-319 1.07888 5.80039e-318 -0.815855)
(-0.551158 2.37174 -4.53157e-318 1.9473 -4.73809e-319 -1.39614)
(-0.55792 2.5657 -8.47072e-318 2.96215 -7.31097e-318 -2.40422)
(-0.132091 1.47031 -1.09311e-316 0.424844 -8.24586e-317 -0.292753)
(-0.253328 1.09661 -9.99331e-317 0.443283 -4.19356e-317 -0.189956)
(-0.269825 0.746363 -8.35337e-317 0.393888 -1.28294e-317 -0.124063)
(-0.251548 0.479493 -6.64165e-317 0.33449 7.44035e-318 -0.0829418)
(-0.189562 0.21874 -5.01588e-317 0.24584 2.0406e-317 -0.0562779)
(-0.118014 0.042343 -3.60945e-317 0.157075 2.82264e-317 -0.0390602)
(-0.0177351 -0.124787 -2.42995e-317 0.0449825 3.22672e-317 -0.0272474)
(0.0930553 -0.222441 -1.48172e-317 -0.0736304 3.37878e-317 -0.019425)
(0.23038 -0.289264 -7.38476e-318 -0.21567 3.35325e-317 -0.0147106)
(0.371153 -0.288535 -1.78973e-318 -0.357715 3.21771e-317 -0.0134382)
(0.535408 -0.224116 2.20828e-318 -0.518525 3.00491e-317 -0.0168826)
(0.668413 -0.079252 4.78197e-318 -0.641244 2.75045e-317 -0.0271694)
(0.816125 0.163689 6.05222e-318 -0.767337 2.46436e-317 -0.048788)
(0.850036 0.509394 6.07654e-318 -0.761878 2.16381e-317 -0.0881576)
(0.889682 0.959401 4.79695e-318 -0.731682 1.84616e-317 -0.158)
(0.678897 1.52516 2.17321e-318 -0.400961 1.51033e-317 -0.277935)
(0.509911 2.10386 -2.10263e-318 -0.0242234 1.13656e-317 -0.485688)
(-0.00257029 2.76265 -7.84478e-318 0.845599 6.70955e-318 -0.843028)
(-0.236128 3.17777 -1.54801e-317 1.69993 6.28402e-320 -1.46381)
(-0.403477 3.55003 -2.24847e-317 2.92869 -1.17859e-317 -2.52522)
(-0.2122 1.37417 -8.00739e-317 0.763456 -6.8318e-317 -0.551256)
(-0.35542 1.02576 -7.65772e-317 0.684584 -4.31275e-317 -0.329164)
(-0.381322 0.686701 -6.66109e-317 0.580189 -2.10258e-317 -0.198867)
(-0.346812 0.425938 -5.45977e-317 0.469357 -3.70754e-318 -0.122545)
(-0.285889 0.164861 -4.25261e-317 0.362351 8.61e-318 -0.0764613)
(-0.203826 -0.021816 -3.15338e-317 0.252301 1.68581e-317 -0.0484747)
(-0.101686 -0.20277 -2.20536e-317 0.132266 2.18719e-317 -0.0305805)
(0.0196451 -0.325543 -1.41877e-317 -0.000556202 2.45365e-317 -0.0190889)
(0.169002 -0.415992 -7.88344e-318 -0.15694 2.5474e-317 -0.0120614)
(0.329495 -0.454115 -3.01336e-318 -0.320584 2.52585e-317 -0.00891176)
(0.524415 -0.414881 5.59673e-319 -0.513545 2.42329e-317 -0.0108708)
(0.695102 -0.318025 2.95155e-318 -0.675708 2.27325e-317 -0.0193934)
(0.898419 -0.0800384 4.26259e-318 -0.859025 2.09201e-317 -0.0393945)
(0.987974 0.226664 4.51957e-318 -0.911509 1.89759e-317 -0.0764652)
(1.09513 0.740044 3.73168e-318 -0.950973 1.69523e-317 -0.144153)
(0.923315 1.32265 1.81823e-318 -0.662207 1.48471e-317 -0.261108)
(0.765667 2.10735 -1.37819e-318 -0.298394 1.24851e-317 -0.467272)
(0.17621 2.93554 -5.83559e-318 0.650376 9.20221e-318 -0.826586)
(-0.217731 3.74437 -1.19285e-317 1.68798 3.45855e-318 -1.47025)
(-0.58376 4.6026 -1.8276e-317 3.22885 -8.34482e-318 -2.64509)
(-0.26453 1.19654 -6.1187e-317 1.03952 -5.34472e-317 -0.774992)
(-0.457173 0.881843 -6.01796e-317 0.908557 -3.81223e-317 -0.451383)
(-0.520389 0.571476 -5.38017e-317 0.783543 -2.23032e-317 -0.263154)
(-0.480906 0.339909 -4.51347e-317 0.636355 -8.4803e-318 -0.155449)
(-0.43479 0.0893472 -3.58993e-317 0.52715 2.25427e-318 -0.0923603)
(-0.345997 -0.0937212 -2.72544e-317 0.40123 9.98072e-318 -0.0552331)
(-0.256131 -0.283627 -1.95606e-317 0.288126 1.50846e-317 -0.0319951)
(-0.12958 -0.421502 -1.30656e-317 0.146915 1.81358e-317 -0.0173357)
(0.00726977 -0.533259 -7.7514e-318 0.000479549 1.96212e-317 -0.00774932)
(0.178576 -0.597674 -3.59543e-318 -0.176012 2.001e-317 -0.00256359)
(0.366182 -0.584352 -5.17603e-319 -0.364217 1.96247e-317 -0.00196511)
(0.56703 -0.512162 1.54808e-318 -0.559172 1.87702e-317 -0.00785801)
(0.782292 -0.28394 2.64862e-318 -0.758424 1.7636e-317 -0.0238671)
(0.937716 0.0351143 2.82973e-318 -0.881539 1.64109e-317 -0.0561772)
(1.09721 0.606526 2.03924e-318 -0.981134 1.52017e-317 -0.116074)
(1.0263 1.3124 3.37106e-319 -0.80393 1.40604e-317 -0.222365)
(0.982348 2.30454 -2.52301e-318 -0.571823 1.2845e-317 -0.410525)
(0.474142 3.44488 -6.29853e-318 0.268444 1.10067e-317 -0.742586)
(0.238366 4.61964 -1.15206e-317 1.09709 6.64167e-318 -1.33546)
(-0.218483 5.8149 -1.76492e-317 2.59099 -4.56707e-318 -2.37251)
(-0.346824 1.02837 -4.25834e-317 1.32715 -4.29632e-317 -0.980328)
(-0.528818 0.757554 -4.34657e-317 1.07959 -3.62916e-317 -0.55077)
(-0.605311 0.489061 -4.02042e-317 0.917377 -2.49522e-317 -0.312066)
(-0.551226 0.27154 -3.45963e-317 0.730384 -1.35616e-317 -0.179158)
(-0.519269 0.0375435 -2.82562e-317 0.622534 -3.81677e-318 -0.103265)
(-0.428931 -0.147955 -2.19894e-317 0.488446 3.65817e-318 -0.0595155)
(-0.350836 -0.340698 -1.62234e-317 0.383504 8.93373e-318 -0.0326685)
(-0.226738 -0.492992 -1.11632e-317 0.242449 1.23786e-317 -0.0157103)
(-0.0963973 -0.622346 -6.89947e-318 0.100765 1.43814e-317 -0.00436803)
(0.075517 -0.717393 -3.4535e-318 -0.0782238 1.5349e-317 0.00270679)
(0.270213 -0.735621 -8.08706e-319 -0.27567 1.55844e-317 0.00545732)
(0.489102 -0.716635 1.07178e-318 -0.491752 1.53689e-317 0.00264993)
(0.743143 -0.523002 2.24179e-318 -0.733903 1.48977e-317 -0.00924021)
(0.953685 -0.277991 2.75359e-318 -0.918657 1.43574e-317 -0.0350281)
(1.19868 0.300488 2.66857e-318 -1.11361 1.38662e-317 -0.0850683)
(1.21378 0.938208 2.0591e-318 -1.03937 1.34916e-317 -0.174412)
(1.2563 2.08191 9.66753e-319 -0.921984 1.31118e-317 -0.334312)
(0.737158 3.25334 -5.11155e-319 -0.119399 1.2299e-317 -0.617758)
(0.366725 4.84117 -2.46883e-318 0.774104 9.45205e-318 -1.14083)
(-0.453842 6.4597 -5.68074e-318 2.61505 1.76303e-318 -2.16121)
(-0.363852 0.743576 -3.39192e-317 1.46225 -2.91714e-317 -1.0984)
(-0.602883 0.560649 -3.32774e-317 1.21348 -2.71161e-317 -0.6106)
(-0.707066 0.371384 -3.00289e-317 1.04644 -2.02371e-317 -0.339375)
(-0.658477 0.197864 -2.60323e-317 0.849225 -1.19567e-317 -0.190748)
(-0.635479 -0.00209198 -2.15304e-317 0.742933 -4.17502e-318 -0.107454)
(-0.544717 -0.17811 -1.71131e-317 0.604966 2.07546e-318 -0.0602488)
(-0.480623 -0.363733 -1.28593e-317 0.512099 6.62863e-318 -0.0314766)
(-0.362294 -0.523167 -9.01479e-318 0.375584 9.68624e-318 -0.0132893)
(-0.258592 -0.661365 -5.65796e-318 0.259138 1.15371e-317 -0.000546323)
(-0.0968362 -0.778035 -2.87523e-318 0.0887595 1.25037e-317 0.00807663)
(0.0601163 -0.821417 -6.90047e-319 -0.0734086 1.28428e-317 0.0132924)
(0.280436 -0.838841 9.01062e-319 -0.294112 1.27914e-317 0.0136757)
(0.497779 -0.680472 1.91771e-318 -0.504826 1.25282e-317 0.00704723)
(0.755615 -0.466788 2.43087e-318 -0.744376 1.2218e-317 -0.0112391)
(0.992403 0.107715 2.46684e-318 -0.944214 1.19818e-317 -0.0481891)
(1.1485 0.797809 2.20604e-318 -1.03225 1.19023e-317 -0.11625)
(1.26505 2.0816 1.65319e-318 -1.02897 1.18839e-317 -0.236087)
(1.00129 3.55211 1.07984e-318 -0.555267 1.16949e-317 -0.446025)
(0.864145 5.54706 4.21581e-319 -0.0480893 1.00482e-317 -0.816056)
(0.211896 7.66712 -1.46248e-318 1.23166 4.96394e-318 -1.44355)
(-0.423861 0.580127 -2.54029e-317 1.59778 -3.24681e-317 -1.17392)
(-0.613532 0.419265 -2.42813e-317 1.24495 -3.27953e-317 -0.631414)
(-0.733423 0.269278 -2.14702e-317 1.07674 -2.57101e-317 -0.343322)
(-0.676203 0.107368 -1.89103e-317 0.865754 -1.68339e-317 -0.189551)
(-0.670875 -0.0716742 -1.6097e-317 0.775968 -8.8571e-318 -0.105093)
(-0.585181 -0.237531 -1.32076e-317 0.643092 -2.47572e-318 -0.0579111)
(-0.53615 -0.412504 -1.02525e-317 0.565495 2.16073e-318 -0.0293444)
(-0.429601 -0.565248 -7.40469e-318 0.440714 5.38692e-318 -0.0111128)
(-0.343945 -0.705007 -4.8027e-318 0.341906 7.4893e-318 0.00203928)
(-0.200195 -0.829074 -2.54902e-318 0.188515 8.79005e-318 0.0116802)
(-0.0601856 -0.896395 -7.00916e-319 0.0415869 9.52062e-318 0.0185987)
(0.148254 -0.950357 7.33426e-319 -0.170146 9.89177e-318 0.0218915)
(0.37141 -0.846634 1.7871e-318 -0.391172 1.00568e-317 0.0197617)
(0.653924 -0.716297 2.53637e-318 -0.662926 1.01532e-317 0.00900171)
(0.961362 -0.212472 3.09874e-318 -0.945851 1.02679e-317 -0.0155119)
(1.20998 0.3292 3.62511e-318 -1.14886 1.04614e-317 -0.0611166)
(1.4808 1.60977 4.34649e-318 -1.34142 1.06347e-317 -0.139382)
(1.26429 2.86494 5.32715e-318 -0.995478 1.06273e-317 -0.268813)
(1.10589 5.08989 6.88863e-318 -0.611906 9.73944e-318 -0.493982)
(-0.160354 7.19725 7.40918e-318 1.1441 7.61719e-318 -0.983746)
(-0.411505 0.267871 -1.17008e-317 1.54705 -1.34495e-317 -1.13554)
(-0.66624 0.222887 -1.11016e-317 1.26846 -1.85654e-317 -0.602215)
(-0.781912 0.188472 -9.99712e-318 1.1038 -1.55155e-317 -0.321885)
(-0.734101 0.0695981 -1.00229e-317 0.909353 -9.66764e-318 -0.175253)
(-0.718815 -0.0540626 -9.52585e-318 0.814882 -4.04543e-318 -0.0960673)
(-0.631136 -0.203317 -8.46534e-318 0.68352 4.96511e-319 -0.052384)
(-0.590184 -0.348132 -6.88679e-318 0.616074 3.78439e-318 -0.0258901)
(-0.49381 -0.490786 -5.0591e-318 0.502623 6.03255e-318 -0.00881311)
(-0.439938 -0.615051 -3.21256e-318 0.435885 7.45262e-318 0.0040524)
(-0.32187 -0.739198 -1.51521e-318 0.307862 8.27352e-318 0.0140073)
(-0.238686 -0.812564 -7.30822e-320 0.216463 8.66898e-318 0.0222231)
(-0.0599294 -0.88793 1.07724e-318 0.0321876 8.7925e-318 0.0277419)
(0.0836934 -0.823836 1.93556e-318 -0.1135 8.76461e-318 0.029807)
(0.370404 -0.742687 2.57368e-318 -0.396069 8.68991e-318 0.0256653)
(0.588247 -0.308619 3.05574e-318 -0.601411 8.63744e-318 0.0131648)
(0.96947 0.195646 3.56957e-318 -0.95765 8.65794e-318 -0.0118198)
(1.18613 1.46169 4.22372e-318 -1.13708 8.66565e-318 -0.0490472)
(1.41064 2.89793 5.18692e-318 -1.3156 8.5954e-318 -0.0950389)
(1.41306 5.42024 6.59715e-318 -1.29393 8.07034e-318 -0.119128)
(0.892015 8.25978 7.28511e-318 -0.898753 7.22804e-318 0.00673793)
(-0.413031 0.174239 -3.38109e-318 1.44534 -3.38304e-317 -1.03231)
(-0.571224 0.0858322 -4.89809e-318 1.09963 -3.39031e-317 -0.52841)
(-0.697714 0.0369243 -5.56761e-318 0.974782 -2.59928e-317 -0.277068)
(-0.649251 -0.0758943 -6.76259e-318 0.798506 -1.66444e-317 -0.149255)
(-0.648171 -0.195817 -7.13628e-318 0.729536 -9.93225e-318 -0.0813646)
(-0.573646 -0.316722 -6.7461e-318 0.617929 -4.90561e-318 -0.0442831)
(-0.544346 -0.443997 -5.74975e-318 0.566021 -1.4686e-318 -0.0216755)
(-0.466831 -0.55684 -4.41478e-318 0.473696 9.68467e-319 -0.00686503)
(-0.431011 -0.667244 -2.98621e-318 0.426292 2.64707e-318 0.00471992)
(-0.341894 -0.773942 -1.61964e-318 0.327708 3.819e-318 0.0141859)
(-0.284472 -0.855584 -4.16423e-319 0.261832 4.62617e-318 0.0226392)
(-0.143506 -0.941735 5.94949e-319 0.114082 5.19029e-318 0.0294234)
(-0.021648 -0.933343 1.43086e-318 -0.0124897 5.59204e-318 0.0341377)
(0.234892 -0.919897 2.16071e-318 -0.269911 5.89999e-318 0.0350194)
(0.479191 -0.62221 2.89881e-318 -0.510512 6.14398e-318 0.0313211)
(0.876469 -0.303071 3.76392e-318 -0.89882 6.3449e-318 0.0223505)
(1.26489 0.738934 4.97426e-318 -1.28029 6.43669e-318 0.015408)
(1.48636 1.70594 6.45832e-318 -1.51812 6.35467e-318 0.0317574)
(1.72159 4.0211 8.50093e-318 -1.85622 6.11357e-318 0.134634)
(0.196305 5.89421 1.00533e-317 -0.562704 6.49041e-318 0.366398)
(-0.376943 -0.0980944 2.78262e-317 1.19269 7.66941e-318 -0.81575)
(-0.606593 -0.0605828 1.81545e-317 1.01617 -5.0931e-318 -0.409574)
(-0.672224 0.042394 8.54502e-318 0.88418 -5.21421e-318 -0.211956)
(-0.62405 -0.0332529 2.56909e-318 0.737686 -2.1708e-318 -0.113637)
(-0.594396 -0.0620411 -1.05285e-318 0.656375 7.42353e-319 -0.0619782)
(-0.50961 -0.159284 -2.39154e-318 0.543571 2.98875e-318 -0.0339618)
(-0.486243 -0.223072 -2.57584e-318 0.502864 4.59305e-318 -0.0166212)
(-0.416977 -0.308862 -2.0261e-318 0.422042 5.66783e-318 -0.00506494)
(-0.412927 -0.371605 -1.20384e-318 0.40851 6.34073e-318 0.00441681)
(-0.352752 -0.447785 -3.09305e-319 0.340278 6.70836e-318 0.0124733)
(-0.354767 -0.499055 5.08077e-319 0.334555 6.85443e-318 0.0202122)
(-0.260626 -0.558728 1.20116e-318 0.23363 6.84753e-318 0.0269961)
(-0.237354 -0.556403 1.75544e-318 0.204396 6.7438e-318 0.0329582)
(-0.0249177 -0.542948 2.2217e-318 -0.0117905 6.59047e-318 0.0367082)
(0.0637887 -0.333301 2.65012e-318 -0.102622 6.40971e-318 0.0388329)
(0.524224 -0.0708253 3.17161e-318 -0.563986 6.21414e-318 0.0397613)
(0.675839 0.766153 3.84243e-318 -0.727113 5.93775e-318 0.0512741)
(1.45331 1.73459 4.69943e-318 -1.55829 5.53355e-318 0.10498)
(1.47783 3.98435 5.69104e-318 -1.80438 5.04932e-318 0.326546)
(1.74334 6.96592 6.40085e-318 -2.92016 4.95054e-318 1.17682)
(-0.245811 -0.0857882 1.41717e-317 0.7732 -3.36787e-317 -0.52739)
(-0.303067 -0.189904 7.36228e-318 0.561076 -2.68171e-317 -0.258009)
(-0.377936 -0.229891 1.73131e-318 0.510361 -1.9135e-317 -0.132425)
(-0.347879 -0.293267 -1.34191e-318 0.419058 -1.20195e-317 -0.0711786)
(-0.340061 -0.373927 -2.744e-318 0.379188 -8.31043e-318 -0.0391276)
(-0.295048 -0.422403 -3.10635e-318 0.31686 -5.74294e-318 -0.0218122)
(-0.280316 -0.489911 -2.87516e-318 0.291135 -4.1003e-318 -0.0108191)
(-0.24258 -0.534103 -2.3353e-318 0.245926 -2.8583e-318 -0.00334579)
(-0.239161 -0.591229 -1.68178e-318 0.236055 -1.91232e-318 0.00310581)
(-0.207285 -0.644694 -1.02146e-318 0.1985 -1.14412e-318 0.0087849)
(-0.20795 -0.701707 -4.18553e-319 0.19341 -5.15365e-319 0.0145407)
(-0.156179 -0.769691 1.11476e-319 0.136271 8.31512e-321 0.0199083)
(-0.135194 -0.813606 5.79919e-319 0.11004 4.39338e-319 0.0251546)
(-0.0080914 -0.870661 1.02631e-318 -0.0213189 7.87778e-319 0.0294103)
(0.085287 -0.815398 1.52115e-318 -0.118741 1.05726e-318 0.0334543)
(0.370891 -0.759535 2.10516e-318 -0.408824 1.24619e-318 0.0379336)
(0.638025 -0.32249 2.88825e-318 -0.690718 1.36639e-318 0.0526932)
(1.01693 0.0414277 3.72306e-318 -1.12062 1.4234e-318 0.103691)
(1.62138 1.4425 4.63231e-318 -1.91 1.59046e-318 0.288623)
(0.205395 1.98969 5.39013e-318 -0.99948 2.45585e-318 0.794086)
(-0.124414 -0.35797 4.33766e-317 0.297973 3.61664e-317 -0.17356)
(-0.310379 -0.246732 2.80951e-317 0.397954 1.36108e-317 -0.0875751)
(-0.258814 -0.0333769 1.21808e-317 0.304157 8.19008e-318 -0.0453436)
(-0.214443 -0.0486056 5.76773e-318 0.239242 6.07281e-318 -0.0247982)
(-0.179933 0.0550435 1.96588e-318 0.193844 6.26581e-318 -0.0139112)
(-0.117078 0.0259431 6.65146e-319 0.125123 6.66354e-318 -0.00804494)
(-0.118158 0.0808421 1.25641e-319 0.12228 7.23314e-318 -0.00412217)
(-0.0829104 0.066409 1.22716e-319 0.0843154 7.64752e-318 -0.00140502)
(-0.110729 0.10331 2.70264e-319 0.109612 7.93673e-318 0.00111755)
(-0.0972215 0.113015 4.88344e-319 0.0938281 8.06404e-318 0.0033934)
(-0.147415 0.144744 6.8728e-319 0.141575 8.06416e-318 0.00583998)
(-0.134019 0.19108 8.4876e-319 0.125808 7.956e-318 0.00821098)
(-0.203384 0.227977 9.57578e-319 0.192661 7.76498e-318 0.0107224)
(-0.140371 0.337136 1.03608e-318 0.127382 7.51229e-318 0.0129893)
(-0.221369 0.400098 1.09377e-318 0.205904 7.19178e-318 0.0154651)
(0.033311 0.621085 1.19668e-318 -0.0515372 6.79984e-318 0.0182262)
(-0.0614425 0.775573 1.34757e-318 0.0360339 6.28559e-318 0.0254086)
(0.792397 1.19847 1.55581e-318 -0.840596 5.59606e-318 0.0481985)
(0.518 1.73541 1.69795e-318 -0.672485 4.82361e-318 0.154485)
(2.25597 3.6806 1.75429e-318 -3.07761 3.9011e-318 0.821635)
)
;

boundaryField
{
    cavity
    {
        type            mySigma;
    }
    lid
    {
        type            fixedValue;
        value           uniform (0.1 -0.3 0 -0.1 0 0);
    }
    frontAndBack
    {
        type            empty;
    }
}


// ************************************************************************* //
