/*--------------------------------*- C++ -*----------------------------------*\
| =========                 |                                                 |
| \\      /  F ield         | foam-extend: Open Source CFD                    |
|  \\    /   O peration     | Version:  3.0                                   |
|   \\  /    A nd           | Web:         http://www.extend-project.de       |
|    \\/     M anipulation  |                                                 |
\*---------------------------------------------------------------------------*/
FoamFile
{
    version     2.0;
    format      ascii;
    class       volScalarField;
    location    "8";
    object      Theta;
}
// * * * * * * * * * * * * * * * * * * * * * * * * * * * * * * * * * * * * * //

dimensions      [0 0 0 0 0 0 0];

internalField   nonuniform List<scalar> 
400
(
0.350353
-0.178664
-0.219854
-0.310114
-0.224029
-0.193702
-0.0913783
-0.0307739
0.0643584
0.131106
0.221244
0.286022
0.374955
0.425702
0.506605
0.512654
0.553782
0.436914
0.347685
-0.1246
1.05725
0.625723
0.519059
0.346851
0.335643
0.258797
0.263131
0.219727
0.219812
0.185021
0.178041
0.138397
0.124851
0.0679882
0.045999
-0.0480729
-0.0935655
-0.27047
-0.398431
-0.772134
0.820578
0.414781
0.352249
0.221872
0.231312
0.185878
0.203921
0.184365
0.198624
0.185616
0.197041
0.181984
0.192762
0.165646
0.172426
0.1113
0.0947148
-0.0529499
-0.152105
-0.515824
0.814132
0.55238
0.472043
0.359916
0.342651
0.286008
0.279656
0.241807
0.234854
0.203512
0.197391
0.167046
0.164683
0.127526
0.125461
0.0618819
0.0372656
-0.0976315
-0.207475
-0.485387
0.584357
0.348216
0.31284
0.228985
0.235947
0.201922
0.21368
0.196796
0.209108
0.200433
0.218926
0.215703
0.24649
0.24142
0.28244
0.250208
0.275231
0.151086
0.0808225
-0.265127
0.495823
0.346893
0.315876
0.256532
0.255819
0.225187
0.227666
0.207686
0.212761
0.201204
0.217045
0.215486
0.251204
0.255883
0.312193
0.298451
0.347347
0.239652
0.183797
-0.187151
0.338114
0.230135
0.226307
0.188431
0.196907
0.177794
0.185498
0.17467
0.186973
0.186213
0.215236
0.229473
0.289474
0.317462
0.415659
0.429174
0.539748
0.4354
0.433588
-0.0710067
0.23705
0.208706
0.212347
0.197237
0.198575
0.182672
0.180498
0.166227
0.169277
0.164145
0.186697
0.20036
0.260265
0.297336
0.406973
0.443756
0.579141
0.500407
0.515971
-0.0325498
0.118028
0.158676
0.171848
0.1766
0.172271
0.160798
0.151726
0.137052
0.134797
0.128341
0.149443
0.164599
0.232953
0.279589
0.41967
0.476977
0.679871
0.611479
0.719415
0.0329109
0.0145919
0.136453
0.158599
0.183387
0.170939
0.160326
0.139006
0.117415
0.100449
0.0831246
0.0872879
0.0916949
0.142741
0.186722
0.313467
0.389171
0.586349
0.565145
0.662906
0.0223882
-0.0762529
0.12772
0.14409
0.187773
0.161436
0.152289
0.117623
0.0897037
0.0584304
0.0294199
0.0180155
0.0081839
0.0475605
0.0813667
0.216753
0.297844
0.558689
0.561237
0.815956
0.101537
-0.168397
0.100844
0.132409
0.191732
0.161523
0.152081
0.106123
0.0687292
0.019006
-0.0274974
-0.0663514
-0.099447
-0.0983634
-0.0852161
6.86667e-05
0.0857909
0.28318
0.35992
0.53169
0.0481669
-0.221757
0.116215
0.131438
0.207787
0.163593
0.15597
0.0962701
0.0500743
-0.018249
-0.0836881
-0.148638
-0.210322
-0.240558
-0.260902
-0.195106
-0.130114
0.115782
0.22335
0.637985
0.201585
-0.28027
0.0908133
0.12882
0.215267
0.174606
0.16677
0.0992895
0.0428059
-0.044534
-0.131515
-0.229923
-0.324924
-0.409578
-0.46942
-0.489241
-0.441431
-0.330274
-0.130214
0.0724158
0.109112
-0.276317
0.126266
0.144633
0.245003
0.195689
0.191054
0.112753
0.0471538
-0.0588712
-0.167841
-0.296746
-0.429404
-0.558752
-0.673317
-0.740287
-0.748832
-0.617556
-0.402553
0.129478
0.35832
-0.269589
0.129537
0.172537
0.276853
0.235525
0.229942
0.146552
0.0707173
-0.0521031
-0.182667
-0.343764
-0.5132
-0.700904
-0.868665
-1.04056
-1.09516
-1.15824
-0.865856
-0.721824
0.20414
-0.179934
0.196757
0.22384
0.33692
0.291981
0.288634
0.19668
0.111836
-0.0268943
-0.177778
-0.366388
-0.573674
-0.808326
-1.04228
-1.28081
-1.42939
-1.51805
-1.26554
-0.766797
0.456216
-0.063605
0.27712
0.318975
0.427107
0.385008
0.375178
0.277034
0.181108
0.0302511
-0.137988
-0.348602
-0.586786
-0.866358
-1.15637
-1.48924
-1.71863
-2.01283
-1.77416
-1.82053
0.142528
0.138724
0.401377
0.433803
0.541336
0.493613
0.479166
0.37141
0.265574
0.103393
-0.07941
-0.307484
-0.573649
-0.888771
-1.23965
-1.64159
-1.98869
-2.36914
-2.26322
-2.13311
0.095912
0.425516
0.631766
0.651633
0.733787
0.669388
0.63092
0.513205
0.391108
0.226607
0.032764
-0.194653
-0.477739
-0.800225
-1.19797
-1.63783
-2.10919
-2.60623
-2.75577
-3.06188
-0.724166
)
;

boundaryField
{
    cavity
    {
        type            implicitExtrapolation;
    }
    lid
    {
        type            implicitExtrapolation;
    }
    frontAndBack
    {
        type            empty;
    }
}


// ************************************************************************* //
