/*--------------------------------*- C++ -*----------------------------------*\
| =========                 |                                                 |
| \\      /  F ield         | foam-extend: Open Source CFD                    |
|  \\    /   O peration     | Version:  3.0                                   |
|   \\  /    A nd           | Web:         http://www.extend-project.de       |
|    \\/     M anipulation  |                                                 |
\*---------------------------------------------------------------------------*/
FoamFile
{
    version     2.0;
    format      ascii;
    class       volVectorField;
    location    "24";
    object      u;
}
// * * * * * * * * * * * * * * * * * * * * * * * * * * * * * * * * * * * * * //

dimensions      [0 0 0 0 0 0 0];

internalField   nonuniform List<vector> 
120
(
(0.499937 -0.157153 -8.46798e-20)
(0.758633 -0.0863475 5.95239e-18)
(0.953212 -0.0444683 -1.40731e-17)
(0.959325 -0.0243119 7.44597e-18)
(1.04733 0.00453045 3.51853e-17)
(0.657113 -0.42939 2.40086e-18)
(0.844999 -0.235956 -3.33771e-17)
(0.997708 -0.121545 -9.97542e-18)
(0.983665 -0.0664968 -3.17005e-17)
(1.04284 0.0122982 -2.80611e-17)
(0.929343 -0.586572 4.04061e-18)
(0.994604 -0.322333 6.55635e-18)
(1.07478 -0.166051 1.86042e-17)
(1.02584 -0.0908543 1.12541e-17)
(1.03505 0.0167752 8.85329e-17)
(1.2437 -0.586574 1.89771e-18)
(1.16735 -0.32234 -7.01204e-19)
(1.16377 -0.166054 2.7467e-17)
(1.07454 -0.0908649 -1.43366e-18)
(1.02608 0.0167674 -6.25614e-18)
(1.51593 -0.429407 -2.17889e-18)
(1.31696 -0.235967 3.37108e-18)
(1.24085 -0.121564 -3.16814e-18)
(1.11672 -0.0665175 6.00278e-18)
(1.01831 0.0122684 -2.96742e-17)
(1.67311 -0.157169 -9.08257e-19)
(1.40333 -0.0863693 5.01745e-18)
(1.28535 -0.04449 -2.7726e-18)
(1.14107 -0.0243482 2.24352e-18)
(1.01382 0.00449258 -1.33558e-17)
(1.67312 0.157177 -1.08949e-18)
(1.40333 0.0863805 4.31933e-18)
(1.28535 0.0445015 4.2874e-19)
(1.14108 0.0243551 1.5421e-18)
(1.01383 -0.00448913 -1.14342e-17)
(1.51594 0.429419 -2.99017e-18)
(1.31696 0.235982 9.61714e-18)
(1.24086 0.121578 -1.44423e-18)
(1.11673 0.0665283 8.4543e-18)
(1.01832 -0.0122601 3.49235e-18)
(1.24371 0.586594 -2.96988e-18)
(1.16736 0.32236 -1.31503e-17)
(1.16379 0.166074 -2.07211e-17)
(1.07455 0.0908825 -1.4859e-17)
(1.0261 -0.0167505 -5.65691e-17)
(0.929358 0.5866 2.07827e-18)
(0.994616 0.32236 1.58213e-18)
(1.07479 0.166077 -2.67709e-17)
(1.02586 0.0908796 5.89201e-18)
(1.03507 -0.016748 4.14937e-17)
(0.657124 0.429426 7.82457e-18)
(0.845009 0.235988 -4.55718e-18)
(0.997717 0.121577 2.46874e-17)
(0.983676 0.0665288 -8.13503e-18)
(1.04285 -0.0122619 6.57044e-17)
(0.499941 0.157193 -2.45892e-19)
(0.758636 0.0863833 -1.1597e-17)
(0.953215 0.0445032 1.84346e-17)
(0.95933 0.0243476 -2.83161e-18)
(1.04734 -0.00448838 3.27322e-18)
(0.499942 -0.157159 8.25793e-20)
(0.758632 -0.0863663 -5.95542e-18)
(0.95322 -0.044496 1.40667e-17)
(0.959329 -0.0243585 -7.44893e-18)
(1.04734 0.00448657 -3.51811e-17)
(0.657111 -0.429398 -2.40202e-18)
(0.84501 -0.235972 3.33593e-17)
(0.997718 -0.121573 9.97145e-18)
(0.983688 -0.0665387 3.16857e-17)
(1.04285 0.012258 2.80482e-17)
(0.92935 -0.586575 -4.04379e-18)
(0.994613 -0.322351 -6.563e-18)
(1.0748 -0.166072 -1.85998e-17)
(1.02587 -0.090894 -1.12573e-17)
(1.03508 0.0167465 -8.8516e-17)
(1.2437 -0.586582 -1.90208e-18)
(1.16737 -0.32235 6.91032e-19)
(1.1638 -0.166075 -2.7458e-17)
(1.07458 -0.0908911 1.42926e-18)
(1.02611 0.0167437 6.23643e-18)
(1.51594 -0.429405 2.17471e-18)
(1.31697 -0.235979 -3.37894e-18)
(1.24088 -0.121572 3.16173e-18)
(1.11677 -0.0665394 -6.00396e-18)
(1.01834 0.0122589 2.96495e-17)
(1.67312 -0.157174 9.05976e-19)
(1.40335 -0.086369 -5.01886e-18)
(1.28538 -0.044498 2.76548e-18)
(1.14113 -0.0243513 -2.24692e-18)
(1.01386 0.00448488 1.33464e-17)
(1.67312 0.157183 1.08755e-18)
(1.40336 0.0863801 -4.32225e-18)
(1.28538 0.0445087 -4.35141e-19)
(1.14113 0.0243573 -1.54492e-18)
(1.01387 -0.00448262 1.144e-17)
(1.51595 0.429417 2.98922e-18)
(1.31698 0.235993 -9.63524e-18)
(1.24089 0.121586 1.44009e-18)
(1.11678 0.0665492 -8.47006e-18)
(1.01836 -0.0122508 -3.50551e-18)
(1.24371 0.586601 2.96695e-18)
(1.16738 0.32237 1.3144e-17)
(1.16381 0.166095 2.07263e-17)
(1.0746 0.0909078 1.48564e-17)
(1.02613 -0.0167258 5.65906e-17)
(0.929365 0.586603 -2.08252e-18)
(0.994625 0.322377 -1.59226e-18)
(1.07481 0.166098 2.67805e-17)
(1.02588 0.0909186 -5.89652e-18)
(1.0351 -0.0167176 -4.15147e-17)
(0.657122 0.429433 -7.82877e-18)
(0.845019 0.236004 4.54938e-18)
(0.997726 0.121605 -2.46941e-17)
(0.983698 0.0665702 8.13406e-18)
(1.04287 -0.0122201 -6.5731e-17)
(0.499947 0.157198 2.43523e-19)
(0.758636 0.0864019 1.15956e-17)
(0.953223 0.0445308 -1.84418e-17)
(0.959332 0.024394 2.82834e-18)
(1.04735 -0.00444388 -3.28317e-18)
)
;

boundaryField
{
    out
    {
        type            fixedValue;
        value           uniform (1 0 0);
    }
    in
    {
        type            myVelocity;
    }
    frontAndBack
    {
        type            empty;
    }
}


// ************************************************************************* //
