/*--------------------------------*- C++ -*----------------------------------*\
| =========                 |                                                 |
| \\      /  F ield         | foam-extend: Open Source CFD                    |
|  \\    /   O peration     | Version:  3.0                                   |
|   \\  /    A nd           | Web:         http://www.extend-project.de       |
|    \\/     M anipulation  |                                                 |
\*---------------------------------------------------------------------------*/
FoamFile
{
    version     2.0;
    format      ascii;
    class       volScalarField;
    location    "12";
    object      Theta;
}
// * * * * * * * * * * * * * * * * * * * * * * * * * * * * * * * * * * * * * //

dimensions      [0 2 -2 0 0 0 0];

internalField   nonuniform List<scalar> 
3012
(
-2.92689
1.87752
4.70439
-0.167046
17.0539
2.94781
-12.794
1.34955
-2.37665
4.01284
-2.42306
3.92344
0.987781
-0.740218
2.60833
0.91377
-10.6089
-16.7444
10.1901
17.3577
1.39612
-0.167586
2.06242
0.664574
4.88811
-2.51029
5.02857
-2.65473
-1.57107
3.94464
-0.0524352
2.34169
0.3794
2.92772
-0.916841
1.58664
3.26284
7.36231
-5.58677
-1.83569
0.935201
3.10628
1.19779
-0.932918
0.729247
1.32316
-1.31149
3.36513
0.975156
2.15274
-0.267544
0.879955
-3.89096
1.52301
1.52251
6.68948
-6.24415
-10.4144
5.10531
9.48807
-9.45894
6.51527
15.1261
-0.35511
0.950895
-1.70158
4.11253
1.40717
2.35043
1.23335
0.780631
-0.32324
2.36418
1.72386
0.0354376
-0.396104
-0.633358
2.73868
1.87646
0.201429
0.881637
-1.45463
1.17312
3.52926
2.9154
1.00732
0.954893
-0.801138
0.0335917
3.25607
-1.02105
2.19219
2.96907
-1.95096
-0.554639
4.03037
-5.06476
3.50336
-2.42453
6.28904
3.85368
2.04346
0.38522
-1.4715
3.36966
-0.696313
2.88586
-1.01476
2.38054
0.601694
-0.384835
1.43681
-1.17636
3.36718
1.33042
0.887661
2.38428
0.0689861
2.23061
0.223011
-0.912029
0.0474585
0.819328
2.76779
3.83014
-8.26315
7.37331
-4.59362
19.4465
-19.3444
5.01408
-4.83688
0.10598
-0.402732
5.55225
5.70407
-8.03151
11.2754
14.4307
-7.30021
8.60153
-1.86802
-4.74589
5.06546
6.99363
4.02901
-5.05311
0.439278
6.45359
-14.8304
-5.85909
14.6018
0.338255
-0.944829
1.85419
3.08441
2.09786
2.94277
-0.785842
0.0546525
2.6165
-0.444905
2.10775
0.00171024
-5.37033
-1.71289
6.72169
2.90423
0.408744
3.08628
-1.08392
1.592
9.57914
8.41875
-8.26358
-7.27107
-7.26562
9.97258
7.06267
-2.7041
-6.17504
-0.311367
7.08788
1.55675
3.31685
-1.4965
-0.946652
4.05229
-0.336418
2.83156
2.28495
-0.873265
2.21993
-0.138062
1.91808
0.158381
2.01384
3.18824
-1.14943
0.0569485
0.823137
-0.527486
0.898849
2.24335
1.16598
4.52809
-2.11648
1.35595
1.41046
1.45422
0.96643
0.176137
0.969264
1.34361
0.430116
1.13379
3.49341
1.52563
0.503777
-1.38546
0.707334
0.900818
0.759201
0.69271
0.160994
-0.327291
1.49101
2.08302
0.784532
0.894669
1.18764
0.804095
0.565977
0.865703
0.666275
1.06041
3.16138
2.55576
-0.473706
-1.16707
2.19962
-0.80631
3.02869
0.0526312
-0.0681282
3.04299
2.32503
-0.681299
1.85416
-1.78547
0.353704
4.07747
-1.74739
4.11941
3.72925
-1.24822
5.84095
0.639701
-2.34657
2.27557
0.758375
1.02569
0.707157
0.617201
0.853029
0.897026
0.709411
0.755585
2.35029
-0.559612
-1.2119
3.08806
1.21091
4.06741
1.12793
-1.74137
1.43488
-1.27158
3.34888
0.576924
-4.28529
2.0341
0.772447
7.19176
0.829328
1.60814
0.165761
1.07199
10.8973
-12.0232
-11.5744
11.6798
-9.44665
13.7262
-0.207396
4.12154
-0.122766
-1.85919
2.53759
4.25594
2.9852
-0.676134
-1.54238
4.06189
1.89494
-1.28359
3.48677
0.158198
-1.6093
-0.951604
1.23723
1.73257
5.37745
-0.954516
-3.502
2.44503
3.19313
3.2728
-0.871298
-0.775613
0.631845
1.64043
0.174184
1.26607
-0.0688257
-0.874486
2.26355
3.12982
-3.90513
1.15124
1.78242
7.85642
2.51816
0.683461
1.3278
-0.513867
2.30037
-0.219702
1.87066
0.0668259
1.47125
0.384081
1.44199
0.234292
-0.0850228
3.40511
-1.09404
2.20914
0.965956
3.52005
1.3556
-1.17656
0.922987
2.11329
0.151145
-0.0430812
0.687694
-0.100114
2.1805
1.3498
-0.515368
2.70398
2.59989
-0.472942
0.289875
3.18306
-0.982996
1.89814
-0.633728
3.18485
-1.65172
2.2157
-2.36169
3.10067
5.12236
-0.146596
2.65241
2.08378
-0.763366
-0.135916
-0.654816
-0.114121
1.84432
2.31287
0.173026
-1.39885
3.59303
1.93776
4.05503
-1.75687
-1.32475
4.76794
3.37254
-1.9172
-1.85113
3.44039
-0.806336
2.39242
-0.268666
2.95406
2.42329
-0.699259
-1.567
3.25475
0.955802
-1.10666
1.2303
3.27513
-0.0362819
-4.8514
8.77514
4.75224
1.57192
-2.49317
1.10083
5.32806
-6.2457
9.40255
-10.1046
5.69671
-0.670983
-0.4064
2.87146
2.66273
1.58114
-0.343327
0.636587
2.00213
-0.326686
2.56631
0.798155
1.00859
-0.966978
0.0723094
2.21033
3.24869
-2.27407
1.46681
4.18165
0.269646
-2.59804
2.83144
4.77107
-0.608033
0.614208
0.0420446
1.95274
0.0165431
6.12189
0.926555
-3.65952
1.16608
1.44412
1.04734
0.940717
1.14613
-29.3833
4.3518
-6.77885
27.9391
5.05196
2.35728
0.23334
-2.23852
1.26631
1.08122
0.644313
0.501654
4.30991
8.12894
-5.21369
-0.40385
2.9702
5.05043
-2.24883
-0.523029
1.87347
-0.0522223
0.150381
2.02718
-1.14575
-1.88126
4.4881
3.83153
0.966722
-1.61381
1.02801
3.75698
-16.123
7.45359
-6.63406
18.4733
1.9011
2.27133
-0.473717
-0.129041
0.71693
-0.709392
1.15237
2.63547
-0.551242
3.05081
2.0987
-1.54358
0.111633
3.65114
-1.31539
2.01673
-15.1894
-8.61882
7.8758
14.9811
0.0845677
2.76534
2.25983
-0.57128
5.2333
0.219015
2.71958
-2.52007
-0.303991
2.47576
-0.285488
2.47747
-0.0300233
2.29402
-0.244988
2.03869
3.1735
0.660954
-1.24653
1.39453
17.7547
-15.9263
-4.67072
6.28167
3.6299
2.91898
-1.29526
-0.626284
4.41429
0.616546
1.70778
-2.16643
0.308371
2.30008
-2.49342
5.14009
0.944696
-0.98881
3.05926
1.26791
2.90945
3.1026
-0.924179
-0.787553
0.485863
1.83275
-1.70698
4.07227
-0.0508365
2.31879
-1.34383
3.56922
0.303295
-1.40841
1.37896
3.15451
1.62082
-0.371222
0.0432803
2.35551
3.74071
2.42282
-0.208222
-1.58158
1.16787
-0.667133
0.573323
2.50958
-0.233266
0.815063
1.21237
2.2813
-17.4015
24.7301
-26.458
15.4788
0.740117
1.79803
-2.15591
4.7534
3.72272
2.06903
-1.54624
0.203802
-0.854511
5.26409
-2.32589
4.17185
-11.8682
16.0508
-10.7673
13.944
-1.74869
-9.44796
5.48576
13.2743
-2.24618
2.46481
4.19284
-0.544986
-0.182672
3.39731
2.29312
-1.14556
-3.50353
3.69774
-1.6875
5.57747
1.58727
-1.02067
0.455177
3.2061
0.613833
1.02936
0.962472
0.902862
-3.24995
2.04113
4.58418
-0.535563
1.48774
2.91061
-0.819513
0.798512
0.733061
0.924807
0.938353
1.00547
3.09483
0.0881211
1.6853
-1.3643
10.7082
3.48544
1.93453
-5.73118
-2.70224
3.21661
-0.255123
5.40464
0.420468
-3.09717
2.74962
6.59663
-6.74768
7.24942
-4.81953
11.4333
4.67609
-8.5199
8.09019
-4.79508
6.30756
-3.23195
8.01172
-0.72298
-2.16751
2.74496
5.78029
-5.02405
0.992526
0.663166
0.622931
1.04948
0.0767752
4.06247
-1.51361
2.40515
-23.7368
-6.15614
23.1316
6.07506
-1.53199
3.65877
-0.291565
2.43852
5.1681
-2.48622
2.79849
-0.142856
1.00806
1.07756
0.336671
1.58101
3.39948
2.01667
-1.02962
0.399337
1.87674
1.00746
-0.0283762
0.387614
-14.3241
-21.8583
14.2489
21.5392
1.93093
3.69826
-1.2536
0.339356
2.93864
-0.61844
-0.421042
2.74668
2.72139
0.643319
1.37021
-0.296531
3.18886
2.54058
-0.847568
-0.476682
1.79141
-0.857819
0.555011
3.26325
0.191733
2.34414
1.88724
-0.361203
-6.45083
7.22256
8.59004
-5.45413
0.804841
4.34359
1.04083
-2.74587
-3.30541
2.63656
5.9252
0.0879844
-1.92179
-3.26679
3.41129
4.69269
2.11453
-5.48843
8.19919
0.676957
-0.924603
-2.98903
4.84245
2.99961
0.240269
3.34089
7.08299
-3.87782
2.28547
-0.225006
2.29227
-0.307356
2.80081
1.91002
-0.0872564
-0.895828
-2.31411
0.210933
5.98146
2.79881
2.22623
-0.541773
-0.619224
2.32196
-2.1728
3.113
5.20959
-0.38914
2.76271
0.27688
1.66628
-0.717083
4.69217
0.39232
2.12405
-2.26606
4.10665
1.25068
-2.24911
0.814526
-0.16165
2.51246
-2.0689
4.46633
-0.491123
0.625918
2.69427
1.47186
1.48021
1.58846
2.70321
-0.505693
3.89253
-1.11044
-1.40943
3.46851
2.55304
-1.31748
2.93846
-0.882391
0.787704
4.25005
1.58449
-1.87813
-1.41757
3.47752
2.24274
-0.155986
3.26953
-1.28194
1.33515
0.557626
-0.995685
2.96526
3.10504
-0.746347
0.581719
1.69038
3.29467
-1.07217
-0.419327
0.218795
2.40896
2.14385
2.01533
0.229315
-8.64323
11.0831
-0.319229
3.01097
2.39661
-0.866222
-5.15915
6.44745
4.6475
-3.78433
4.11323
-6.64028
-2.73054
7.71696
2.76196
0.620297
-0.564141
1.3489
3.36522
-1.13826
2.08902
6.52715
3.73912
-0.0684426
0.710963
6.23678
-1.05351
9.34689
3.07306
-7.73005
-2.87983
3.31184
5.46498
-0.720868
0.725313
0.391533
1.07084
1.26963
1.16043
0.537267
1.20333
0.574518
-5.2836
0.913914
5.83824
-0.0149885
2.69787
1.91362
-0.704217
0.228646
2.01318
-0.336208
-0.145478
2.23005
-3.28384
2.08893
3.45057
8.53884
1.25779
-3.0096
1.52694
5.98695
-1.68363
3.09669
4.22303
-0.676034
-2.87477
5.67354
-0.310415
3.2871
3.18949
2.09389
0.0863649
-0.953178
-0.561703
2.86781
-0.642286
2.9095
1.77077
-3.63206
0.243309
5.73118
3.03565
-0.150562
-0.966437
2.11012
0.908148
-1.186
3.45489
1.13996
4.37659
-2.10111
0.925703
1.37396
-1.61506
1.1985
0.247578
3.06435
2.6556
-0.566836
-0.492761
2.5961
1.58026
0.629643
3.4902
-1.20938
-0.132751
-0.94985
2.73309
1.87637
0.445392
1.49955
2.15353
-0.174951
1.41381
-0.907615
0.844016
3.08208
-2.54853
3.82791
-1.55791
4.74623
3.05168
1.36874
0.398321
-1.1321
-0.944965
2.94674
2.74972
-0.698522
2.25665
-0.942143
-0.392458
2.80384
-0.506875
2.69301
0.141524
1.88789
3.80783
-1.72402
-1.38061
4.04438
3.01228
-2.2828
-0.482624
4.8683
1.89968
-0.902279
0.221136
3.12399
3.14035
2.20322
0.0379108
-0.963458
-0.724765
2.86728
1.26044
0.943717
3.46383
1.96938
0.0587684
-1.43539
8.32954
0.266601
-3.55105
3.60825
2.51537
-2.02133
-8.35448
8.69458
4.37194
0.642907
1.59408
-2.1404
1.18683
2.44368
0.656953
-0.558063
0.370742
-0.395479
2.36296
1.54219
1.61414
-1.22165
3.45938
0.582319
-4.12491
5.59515
4.00109
-2.54821
2.20315
-2.935
-9.00506
8.19728
1.25985
2.17014
0.540117
-0.354687
1.27813
-0.872456
1.01898
3.09572
0.0730683
2.30828
1.97322
-0.188359
-0.713584
2.03871
2.94168
0.123411
-0.140144
3.12555
2.06945
-1.2527
-0.362317
2.51781
-0.0402561
2.02904
8.47618
-3.10293
-5.32251
9.41319
-0.764764
0.339238
3.0046
1.88621
2.78217
-0.149316
-0.529708
2.3647
3.84
-1.43981
3.29475
-0.9831
2.93742
-0.479033
2.78448
-0.5304
2.77514
1.30275
-0.702704
0.737272
1.15006
3.10741
1.0355
-0.892821
4.29046
-1.80109
0.311098
2.26689
3.23084
-0.869502
2.55406
-0.281262
-0.317697
1.16589
0.755419
2.24797
1.06441
3.37099
1.22475
-1.09542
3.68913
-1.50899
0.667101
1.43012
2.7947
-0.533489
3.81767
-1.57929
-3.1443
-2.60557
4.445
4.82533
-0.475727
3.37642
2.68891
-1.14337
-0.198246
2.25061
1.72228
0.274656
-0.360698
2.41083
0.853189
1.19198
-1.37311
4.10037
-1.76816
4.95505
0.263418
2.55026
1.67717
-0.533301
3.01742
-0.736243
2.5398
-0.266898
5.49672
3.45969
-3.10873
-0.975854
4.41757
3.11086
-2.06033
-0.764161
-0.750514
9.28673
-10.0685
-0.402744
3.48684
1.58931
0.60177
-1.24349
0.396889
1.79333
1.01468
-0.334024
0.579144
-0.263678
1.06628
1.9977
1.47782
-0.144969
1.44768
-0.0711619
1.11813
-1.26536
1.09661
3.53614
-1.18541
0.546558
0.76551
2.55212
2.29787
-0.141999
-1.03443
1.43339
1.45721
0.516994
2.62767
-0.609892
-4.73895
3.93755
6.18884
-2.33152
4.12056
-3.70745
6.70397
-6.17039
2.22759
0.676408
1.1387
-0.329858
5.70427
-0.510776
3.67751
-3.08648
0.241081
1.76373
0.257857
1.48958
0.536691
2.73673
1.587
-0.621313
0.702843
1.49659
0.338834
1.12697
2.82105
1.24349
0.82741
-0.740883
1.93358
0.584874
-0.0153337
1.1094
-0.282169
-1.99047
2.89505
4.69557
3.05816
-2.52844
4.21115
-1.30356
1.69912
0.692648
0.191339
1.18895
1.41314
4.98335
1.18594
-2.34709
2.07448
-0.581969
-0.106501
2.60366
2.68605
-2.02704
-0.0178097
4.95919
-2.35892
-1.40644
4.46207
5.80459
-0.362077
2.35467
0.739003
1.37183
2.18852
0.126608
1.90496
-0.0508993
4.22321
-0.577778
5.24404
-2.47754
3.77213
3.65592
-4.10493
-4.08145
4.64363
-2.19752
2.63754
-0.213721
2.00749
-0.677801
0.101587
2.68763
2.99751
0.638781
1.59338
-0.806345
2.48331
0.624333
1.37293
-0.511801
2.3135
-0.224098
-0.221543
2.36108
-1.16412
2.19337
3.571
0.167365
-10.7412
11.5048
7.87103
-7.91142
3.33407
-0.928368
-1.51246
2.87275
2.66114
-1.97949
-0.922484
3.82886
-0.14606
0.580377
2.06697
1.25085
-0.754878
2.05395
-1.73939
3.08433
3.78016
-1.09628
-1.68135
4.16664
0.248653
2.89535
-0.799889
1.79164
4.84531
0.209392
2.34572
-2.21533
0.0686952
1.7649
0.163981
1.69105
3.4251
-0.92315
-1.80128
2.52994
1.43879
-0.857507
2.81081
0.536272
-1.40304
3.68781
-0.0613821
2.30547
-0.111645
1.85311
0.452115
1.16663
-1.06322
4.17271
-1.57756
3.75798
1.88405
0.519968
1.35103
0.0684112
-0.27187
2.37931
2.37005
-0.384835
0.985918
2.18466
0.956968
-0.21028
-0.810974
1.39533
0.504405
2.84394
-0.762839
-0.987315
3.25894
3.0184
0.237742
0.242301
1.25835
1.28792
-0.180292
0.768414
1.89531
0.867199
1.58038
0.149223
0.402741
1.00467
-2.00916
1.09882
0.221775
3.3928
2.0607
4.94204
-2.29197
0.559265
11.6592
-6.34076
10.1414
-5.67221
2.23977
1.40021
-0.271093
0.345265
2.3062
-11.3459
15.9583
1.93089
-5.70348
-1.63486
8.76662
4.78174
2.85623
-2.52673
-0.303419
4.86029
1.34505
0.515368
-1.01042
2.92287
1.13636
0.865861
-0.655239
2.73465
0.468261
1.27307
2.82349
-0.94452
0.461075
0.31253
1.61579
1.31764
1.68928
0.837027
0.135013
1.00498
0.167634
1.69338
4.83411
-2.26105
1.72409
2.25423
-0.00329705
-0.478453
3.20122
-0.948771
-0.823573
3.36448
3.48132
14.1976
-9.21997
1.25029
-1.87774
3.8973
3.98685
-2.10376
-15.5982
4.7365
15.0082
-6.56772
4.89147
3.00238
1.41286
6.96818
3.02387
-0.508571
2.68088
-0.723846
0.172131
-2.04948
2.73406
4.812
2.11267
-1.34887
2.77192
-0.743156
1.63658
-0.832945
2.91151
0.570472
-1.03952
3.37464
0.383313
1.84837
0.490321
1.0351
0.529772
1.09948
-1.18784
4.12545
-1.6061
4.05082
0.388709
0.676742
1.1175
0.953163
-1.81359
3.97916
-1.39119
4.63144
1.81252
-0.499321
2.49004
0.397875
2.04689
-1.65506
4.0263
0.222186
3.17091
3.47432
-0.923679
-1.24652
-0.449261
0.693477
2.57119
1.36437
0.468973
1.28032
-1.13797
2.89489
5.19382
1.73332
-3.20494
0.391297
3.33861
1.35587
-1.21231
0.690557
2.52664
-2.20543
4.00732
-0.624599
5.53213
-4.04185
0.634853
0.950357
3.52003
0.57831
1.57908
-1.51939
1.33186
0.165051
-2.258
3.82449
0.187403
-0.191112
1.86747
2.31122
-12.851
-3.73007
12.6882
4.05782
2.69584
-0.514748
2.20066
-0.0770265
1.57106
0.246901
2.0793
-0.255751
-0.0755238
0.128137
1.95281
1.73667
0.876145
-0.444495
2.61923
1.19255
1.96015
0.343487
2.52984
-0.553373
0.712186
0.348499
1.65782
1.07501
-21.7157
11.5908
-9.49172
21.8912
0.21044
0.418153
1.65878
1.19489
2.07059
-0.199239
-0.413588
2.35694
1.61934
-0.407434
2.47618
0.543497
0.268353
0.0867047
1.34735
1.46466
0.276892
1.92285
1.89447
0.257099
-0.080007
1.54461
2.0793
0.386965
-0.705888
2.32992
3.0182
-0.116286
1.15174
0.0451435
0.384788
1.49966
1.08867
0.889335
2.98877
-0.842918
-1.43601
-1.07862
6.17664
5.6465
-0.517394
-0.168236
2.36904
2.63606
1.22587
-2.14693
4.57345
0.892651
-1.15169
0.153617
1.99226
3.22827
0.439314
1.30705
0.63939
0.878708
-0.850382
3.06924
0.60491
1.71134
1.33107
0.333347
0.791044
0.776077
-0.703786
3.16434
-1.14054
2.62818
2.1385
-0.171763
-0.933025
2.96742
-0.447812
3.48031
-1.11511
2.68528
-2.01783
0.940776
1.51688
4.49609
-8.25097
-22.3768
8.40538
23.3177
0.211068
-0.51904
5.48414
4.72511
3.75258
-1.55848
-0.13129
2.12145
5.12379
2.14747
0.614747
-2.6174
3.26062
3.62897
-0.957812
-1.41383
-1.1807
2.38665
2.7527
5.83691
2.91584
-3.26972
5.14232
-1.08165
-0.248018
2.81721
-2.08695
4.99562
-0.448793
-0.182449
2.60642
1.189
2.08768
0.641475
1.38801
0.0646681
-2.05532
1.51462
-0.115606
3.43687
-2.34368
1.838
0.706882
5.22575
-0.722142
2.60336
0.921035
0.954593
3.38754
3.18087
-1.22249
-1.15021
-0.93021
3.12856
1.87173
0.356282
2.65476
-3.6905
-0.682021
5.52145
-1.53929
-0.700004
3.53813
2.88242
2.47496
0.0470996
1.9568
-0.457431
2.2166
-0.504016
2.72884
-0.256196
-0.571016
1.69818
0.627854
2.84605
1.88575
-0.897509
0.201855
2.95894
3.80273
-1.65305
0.678043
1.42929
4.21092
-1.93809
-1.11245
4.71678
-0.200992
-0.223377
2.15216
2.32216
1.65911
-0.452919
2.59621
0.402915
-1.08682
1.80164
3.44998
0.472029
-0.992913
-1.93605
3.43186
4.55172
-0.967226
1.03423
3.19288
1.13861
2.95787
-1.05266
2.32962
-1.66435
-0.715852
-2.09997
3.72879
4.81387
1.79254
0.937519
-2.83082
5.57316
1.51819
-0.211659
2.39613
-0.120342
3.87947
-1.41755
3.58246
-2.00183
-0.273335
1.31383
2.32496
0.683809
4.11954
-1.98181
1.40906
0.615855
3.73427
-1.61302
1.77807
0.600285
-3.89095
-3.83168
5.92598
6.02748
4.36608
-2.11514
1.5924
0.615921
0.562957
-2.12253
3.80715
1.28811
-2.2833
7.82549
-4.32291
5.3738
-0.626213
3.66071
-1.69592
2.32516
2.26788
4.98187
-2.26547
0.336867
-1.63571
3.9629
1.41952
0.752022
-9.44712
4.77716
-4.65246
10.653
2.51102
0.997597
0.987568
-0.43319
-0.282726
1.6424
2.35867
0.394433
0.338849
-0.0473466
1.98041
1.49073
0.97984
0.933083
2.13125
-0.260857
3.52718
-1.95242
2.40809
-0.953557
-0.395393
2.48127
2.58237
-0.478448
-2.07266
4.06704
2.15105
0.154966
-0.922223
3.03859
1.8048
0.193783
0.829746
2.1346
-0.332571
0.96625
-0.326857
1.80517
3.8236
-2.3162
3.11465
-0.854042
5.25574
1.83676
2.36919
-0.532064
2.71448
-0.307895
0.150937
3.01127
1.7061
-0.512983
1.17971
0.548438
0.916376
3.26256
-0.701264
1.84512
0.520006
2.94897
2.53302
0.778546
-0.585805
1.55346
-0.0974197
2.07482
-0.0159903
2.33554
0.61068
-0.729549
1.48175
2.82755
3.48935
-1.57592
0.708848
1.04962
2.21451
-0.110939
0.57057
1.41464
-0.448266
-0.776147
2.94938
2.60785
2.0421
0.180037
0.124404
1.93177
4.18483
-2.43531
4.03006
-2.66724
2.30947
3.19254
-0.0660345
-1.073
5.27598
-0.972927
4.17436
-1.25367
2.19042
-0.344268
-4.79871
6.298
-2.31854
3.05223
-0.848279
4.71498
-0.513481
3.16879
2.54072
-1.18315
3.76871
1.14157
0.831989
-1.80391
1.26313
3.40893
-1.37963
0.693779
-5.90175
3.7365
-2.17748
7.59217
2.91737
-1.89197
4.71404
-0.511217
5.44316
1.0189
1.62498
-2.70337
-4.05624
1.96227
1.19401
7.23258
1.43897
-0.0651094
5.14717
3.50601
0.210938
2.9249
1.49801
-1.20426
1.48803
-2.08127
3.97321
0.371981
-0.61737
1.03092
2.78567
1.1076
3.16557
-0.197527
2.4968
-0.862187
-1.2414
1.49775
3.52122
0.699683
0.415025
2.58414
-0.466962
1.81025
0.42121
2.03121
-0.0749686
1.8664
-5.0983
6.29308
6.9743
-4.16176
0.463659
2.04811
1.51864
-0.0236105
0.410018
0.216915
1.57207
1.80868
0.386132
1.73368
2.84587
-0.711613
-0.100369
2.10702
2.21081
-0.0131237
2.27468
2.10169
-0.260789
-0.40727
1.49164
-0.801578
2.66826
0.345222
-0.352377
2.47596
2.37819
-0.457412
-3.01716
2.64153
0.17326
5.924
5.13813
-1.08986
4.36391
-2.14903
4.08477
-0.748359
2.10437
-2.6995
1.51886
0.412779
-1.43039
3.50587
0.771615
0.187315
1.65939
0.939837
0.51328
1.60846
1.35972
0.36218
2.73201
1.98125
-0.186929
-0.903007
-1.07483
5.37635
-2.47343
4.14867
-0.117762
2.20531
3.39014
-1.31349
-0.499866
1.35053
5.49218
-4.26468
1.35432
2.28272
6.50923
-2.88064
-2.72491
2.37062
0.451464
5.70849
-0.466447
1.73865
4.21088
-2.84444
-14.4033
21.2334
12.477
-23.0827
1.07806
1.06878
6.21346
4.46843
-0.986367
3.32281
3.40844
-1.08703
0.6563
4.84298
0.863802
-3.14595
-0.972691
3.07854
1.75712
0.276322
3.51762
-3.37472
5.06781
-1.89396
4.14886
-1.10603
-2.5197
2.43643
2.94866
-0.502546
2.34938
-1.18986
3.13456
1.22842
-1.00648
0.889927
2.59612
-0.535357
-0.982419
3.15235
2.06912
-4.94557
5.38266
-1.67746
1.46745
-0.379451
0.591591
2.33106
-0.16334
1.84784
-0.844108
2.39867
-0.849095
1.70629
-0.0817624
2.41068
-0.0127628
-0.226548
2.31682
2.46789
-0.0631399
1.98518
2.17179
0.0434531
1.70937
2.59296
-0.54021
0.283191
4.64123
-2.28517
1.15795
1.11572
-2.07966
-8.506
9.72259
3.52566
0.105365
-1.71398
4.04452
2.22974
0.491758
4.2927
1.7979
-2.13572
-3.4264
5.59155
-4.07988
4.81723
2.21748
1.18543
-0.419945
1.07953
2.27926
-0.187399
0.47792
1.64089
-1.28276
3.8735
-2.19084
2.86248
-2.52011
10.3187
5.94721
-6.54527
-13.9399
6.67664
-4.76908
15.7067
-1.55141
-0.839901
2.62239
3.44748
4.62321
0.0634136
2.37769
-1.76074
0.900855
-3.25136
6.3078
2.02132
7.07332
1.81427
-0.39574
-5.92249
3.94767
-3.38533
-2.75117
4.52031
-0.898398
2.37047
3.07405
-0.289372
0.993301
0.722212
0.00166201
1.75559
0.0209187
2.35703
1.98517
-0.304231
4.62281
1.43624
0.600281
-2.63736
-0.697986
2.94906
-0.170676
2.51053
0.654297
-0.45435
1.47584
2.50441
2.50061
-1.43452
3.53588
-0.496804
3.47074
-1.42247
3.92094
-1.10058
0.0259217
2.07528
1.89667
-0.139289
-25.6891
6.42059
-8.31674
24.4059
2.32587
-0.260098
2.36608
-0.306202
0.536328
3.48804
-1.65883
1.34474
2.71715
-0.51032
1.39514
0.791131
6.75832
1.01361
-2.88828
2.92659
0.879775
-0.238064
2.23816
1.1368
2.07253
0.270852
0.0852
1.59596
2.0569
-0.583266
2.49452
-0.121235
2.62389
-0.696724
1.83492
0.0620619
-9.77093
10.7492
15.3659
-2.87698
-2.3281
4.28847
-0.732402
2.96995
5.24588
-2.32994
3.75298
-1.2221
5.3152
0.162988
-3.48665
2.08989
2.08007
-3.64624
-0.213909
5.56936
-6.91597
-20.397
5.91444
18.5911
-2.39901
2.10799
4.55136
0.291497
-3.40283
-1.85489
4.99592
3.40477
-4.05925
0.843362
1.97148
7.75386
1.73799
0.124144
1.71475
0.263021
-3.91903
3.72829
-2.91986
4.54927
-1.18622
2.79305
2.86938
-1.17682
0.678752
0.0719408
1.74544
1.02836
0.289913
-1.63244
4.09825
2.11576
-0.851626
3.63622
3.13805
-1.24205
-2.88805
3.19659
-0.84523
5.06375
2.73202
3.8341
-0.518769
-1.5785
3.05977
3.51554
-0.805157
-1.13082
-0.0590923
4.0633
-1.93805
2.02469
1.92369
-0.0841578
0.902077
1.07006
0.0444487
-1.31244
3.66918
2.17487
-2.7912
1.27906
1.11764
4.85926
-0.990537
-0.794117
3.2973
3.37284
7.59947
-0.479721
3.74425
-3.53776
2.08404
3.72899
-1.65216
0.169104
3.21325
1.43092
0.626997
-1.11331
1.42065
0.557501
3.29425
-1.28083
-0.689163
2.37767
2.97847
-0.19294
-0.660218
2.49199
2.89481
-0.24414
-0.735349
18.8737
6.22802
-13.2135
3.16741
0.0486175
1.81464
-1.33004
1.9781
-2.8669
5.43117
-0.0148141
0.763475
3.8139
1.24437
-1.59602
-0.782738
5.40234
-2.35161
3.59991
0.480021
1.50361
0.386851
1.47196
1.71016
0.124005
1.27239
0.562075
-1.70302
2.64513
-1.54777
2.8344
4.43989
-1.62566
4.45134
-1.24344
4.06959
-1.83508
-0.115706
2.37434
4.93974
1.35261
-3.58987
-0.210484
4.2857
-1.42363
-1.96653
3.60134
0.906304
5.88769
0.397544
-3.9411
-1.76604
2.142
3.86877
-0.161902
6.6062
-4.41677
-1.97204
4.47606
0.0614438
3.95618
-1.81206
1.90392
3.11977
-1.39964
-4.1708
5.73496
-2.63165
0.483771
5.58826
2.2918
7.34795
-12.7198
-5.65843
14.8426
-0.34977
6.48095
4.84589
1.86379
2.68991
-0.257857
2.0992
-0.781154
2.76017
1.35893
-0.704231
0.621018
2.60759
4.41026
-3.13925
-1.28881
4.41908
4.44344
-1.53797
-1.04137
0.150969
3.9285
-2.1941
1.52416
1.92906
5.23299
0.754958
-2.52968
5.70506
0.467082
1.63864
-3.43509
-4.30108
2.75138
6.23202
-0.762905
4.18071
1.20923
0.819463
-2.20051
0.316833
2.58347
1.84282
-0.433243
-0.295477
2.02345
0.131951
2.45755
5.82822
1.56012
1.4097
-2.77586
10.6563
-19.4902
18.5553
-11.5619
0.763808
-1.03233
3.28688
1.48844
1.78836
0.197329
2.30825
-0.125686
2.69341
1.41938
1.00515
-0.465338
-0.264427
2.39448
3.00128
-0.798766
1.60568
-1.20647
0.615635
3.3927
0.0721888
1.91377
-1.13686
3.29509
-1.177
1.1014
3.39384
1.10876
1.97972
0.533139
-0.0318438
1.80655
1.97407
0.00843731
2.03068
0.0373658
2.43226
-0.121399
-0.282819
2.25056
-1.56804
3.77662
3.65044
-1.53961
3.80853
2.04144
-0.578479
-2.48026
-17.7525
7.61163
-5.48537
19.6135
2.20153
-2.50188
4.63223
0.00971049
0.366354
1.6765
-1.36311
3.53786
0.789879
-1.3491
3.51983
1.44499
1.85309
0.448862
-1.96997
4.28212
-0.652404
1.19288
2.76873
0.67868
-0.908447
3.03143
1.35627
0.659361
3.79967
-1.63108
0.793956
1.49013
1.97113
-0.356671
3.96834
-2.49472
-1.17799
0.292522
2.06016
3.43454
-1.48927
2.91631
-0.600647
3.89309
2.76424
-0.58714
3.03076
-0.815168
2.70961
-0.08649
-0.63646
2.13006
0.437984
2.14837
-2.45648
5.1432
7.87571
1.49369
-5.44012
1.43677
5.86713
-2.55044
4.49863
-3.76054
-1.98135
-0.902223
4.52405
3.57322
-1.61489
3.82551
2.98065
-0.707887
6.58156
10.3907
-6.58361
-3.19664
2.36653
6.55097
0.105677
-3.33426
-2.76922
5.73287
4.16824
-4.5291
0.00843399
-0.265351
2.05397
2.27225
-0.915239
2.94429
1.62343
0.392327
0.379439
1.75915
3.85241
-1.62902
-2.5854
1.12972
5.11723
1.43076
-2.628
-0.106722
2.78519
5.31083
-2.5371
2.44072
4.48556
-0.553714
2.0993
4.1686
0.0657439
-1.98886
4.38898
1.1366
1.2134
-2.09386
4.43987
0.744913
0.384419
4.07269
-1.03244
0.975218
3.0454
1.01864
2.04649
2.40437
-0.359367
0.0849543
-0.665054
2.74657
1.30146
0.536607
3.899
-2.10787
-2.48068
3.50021
-1.51979
-0.430751
2.16095
3.36593
2.57046
-0.400069
-0.679664
2.348
0.35997
2.26852
-0.260594
1.68788
5.14398
0.870803
1.75484
-2.5392
2.25328
0.863952
-0.278628
1.07376
-0.303112
1.89404
2.33148
0.109699
-18.081
-18.4541
15.5671
16.7212
1.26832
-0.392289
2.21158
0.554015
-1.65731
0.37572
1.79287
4.02961
-1.29116
2.94459
-0.708434
3.4175
-1.42142
2.97032
4.06971
-0.577047
4.53811
-2.68113
-2.54752
4.90108
5.84748
-0.832155
-2.52792
3.61815
5.71711
0.115974
2.68866
-2.45783
3.0353
-1.07603
3.40323
-0.699502
0.429382
1.51027
2.82971
-0.796036
1.57095
-0.459577
0.49677
2.56938
1.92457
2.45014
-0.273789
-0.315168
1.82239
0.194358
0.00763764
1.63953
1.93757
-3.8556
0.021284
6.20775
0.0302627
0.755563
1.04851
1.73661
1.66727
0.20555
-0.207503
1.26227
3.87263
-1.14457
-1.92461
4.62526
0.224116
1.67543
1.29665
-0.172326
5.33763
0.21915
2.47042
-2.58474
-26.758
-0.180391
24.1534
-2.08543
-0.241303
2.44211
2.22457
-0.447183
5.02341
3.09892
-2.57796
-0.429129
2.65543
-0.609029
0.142336
1.91362
3.05018
0.33356
1.57845
-1.04433
0.943575
3.30118
0.740234
-1.54263
4.38577
0.232921
-1.95643
2.16258
7.26034
1.36395
1.08485
-3.98792
3.75532
-1.32623
3.28085
-0.992098
3.11809
-3.82445
-0.86094
5.81426
2.55341
1.01415
-0.4665
1.14357
2.94868
0.0737614
-1.24096
1.59073
1.05774
-2.0071
3.66223
0.700106
-2.56649
3.77619
3.51275
-1.88139
4.13285
-0.914962
3.32071
-1.59555
-1.98435
4.36923
1.70059
0.573432
4.33835
-2.04633
1.85617
0.477574
0.62578
2.28526
-0.598427
1.1079
4.47303
3.85972
-1.27718
-1.57034
-1.60973
0.517122
1.6712
3.89555
3.45315
-1.15443
-0.53325
2.71582
-0.993895
-3.21698
5.73272
3.03215
0.670657
1.24114
2.81166
-0.829676
-1.94617
5.43317
3.06784
-4.15815
0.205366
0.794132
1.59846
0.80775
-0.257295
1.41803
2.13779
0.456448
0.193449
2.21532
-2.20186
4.53505
0.833923
1.07138
-0.866095
2.79727
-6.29264
1.75156
8.56015
1.52979
7.08698
-3.77698
7.31838
-2.85126
2.61067
4.29295
-0.170843
-1.88948
6.17736
-0.489252
1.75161
-4.39986
8.39615
-4.62525
1.9101
1.56184
2.33201
3.184
-2.04015
-0.773904
-1.31395
7.18334
3.13367
-5.2575
2.68494
-3.13172
0.385699
6.53366
-1.10259
-1.38589
3.45712
3.80527
3.71775
-1.32081
-1.08966
3.45612
3.3248
-1.96253
-1.24605
3.93955
1.54297
0.177352
2.10359
-0.441758
2.31278
0.797354
0.951129
-0.516498
0.178604
1.99935
-1.40952
3.74876
-0.712489
2.93294
-0.939826
3.16716
-3.74589
-2.32652
5.25617
3.88808
2.1467
0.114433
-0.301737
1.64661
3.04599
0.454007
1.69997
-0.9209
2.12255
-0.314695
1.67493
0.181523
2.37726
-0.342476
2.72269
-0.72284
3.65953
-1.2306
3.15397
-1.63332
5.60077
-1.49239
4.86131
-2.8044
-4.72253
6.50182
-1.8094
2.88777
0.463285
1.87084
-2.55984
5.03099
)
;

boundaryField
{
    insideCircle
    {
        type            myTemperature;
        value           nonuniform List<scalar> 
24
(
4.89133
2.55046
1.13972
7.12328
-2.48765
-0.191493
6.87409
4.88224
0.354301
-0.806989
5.56581
4.75438
-1.22885
1.96357
3.3126
6.1647
3.09399
-0.0917767
5.70194
1.92684
1.43711
-0.140505
5.25372
3.59893
)
;
    }
    outsideCircle
    {
        type            myTemperature;
        value           nonuniform List<scalar> 
124
(
2.38419
0.284329
1.93275
-0.355998
0.655681
1.30361
2.30588
1.77206
1.38983
0.0821521
0.449996
2.47027
-0.200123
2.03278
1.1827
1.19283
2.51772
1.01222
1.38641
-0.806855
-0.504603
0.69047
2.57753
1.50937
1.1024
-0.164957
2.66392
-0.595808
-0.116069
-0.181964
2.44568
1.82706
2.52098
0.77073
-0.415582
1.46192
1.13257
-0.200749
2.46359
0.845804
-0.4919
1.05186
2.553
1.10458
0.188097
-0.367718
1.94076
2.59744
0.868799
-0.672229
2.75065
1.24709
1.8568
0.144693
2.33983
-0.0626198
0.479091
2.06566
2.01568
-0.279476
-1.25684
-1.0583
3.87307
0.729939
2.67851
0.541268
-0.266381
1.45531
-0.368346
2.2162
-0.0440283
2.51787
2.34737
-0.288402
0.553132
1.59196
1.92718
-0.0433326
0.0535945
1.967
-0.697929
0.856209
2.83677
1.31746
0.0809012
2.57873
-0.394594
2.05955
-0.0804209
-0.15812
1.98099
2.30498
1.91491
2.59527
-0.292163
0.407293
2.44318
0.798491
-0.0830607
0.994262
2.12486
-0.149529
0.540841
1.48928
2.43492
-0.475709
1.30661
0.76268
0.160266
2.50756
1.94144
-0.318818
-0.230119
2.07992
-0.00883203
2.45682
2.16177
0.170026
2.4556
-0.420594
2.60511
1.18222
0.568055
-0.576137
)
;
    }
    topAndBottom
    {
        type            empty;
    }
}


// ************************************************************************* //
