/*--------------------------------*- C++ -*----------------------------------*\
| =========                 |                                                 |
| \\      /  F ield         | foam-extend: Open Source CFD                    |
|  \\    /   O peration     | Version:  3.0                                   |
|   \\  /    A nd           | Web:         http://www.extend-project.de       |
|    \\/     M anipulation  |                                                 |
\*---------------------------------------------------------------------------*/
FoamFile
{
    version     2.0;
    format      ascii;
    class       volVectorField;
    location    "40";
    object      u;
}
// * * * * * * * * * * * * * * * * * * * * * * * * * * * * * * * * * * * * * //

dimensions      [0 0 0 0 0 0 0];

internalField   nonuniform List<vector> 
7680
(
(0.118873 -0.0287815 4.31353e-17)
(0.156664 -0.0235466 4.89998e-17)
(0.332788 -0.0212667 -4.25593e-17)
(0.350282 -0.0169704 3.84857e-17)
(0.486085 -0.0157077 -2.19212e-17)
(0.492602 -0.0122768 2.1332e-17)
(0.599758 -0.0113853 -1.00226e-17)
(0.599434 -0.0086806 -9.12398e-18)
(0.686265 -0.00793917 -1.92852e-17)
(0.681177 -0.00578848 -1.39283e-17)
(0.753407 -0.00512977 -2.15365e-17)
(0.744797 -0.00338428 2.73326e-17)
(0.806331 -0.00278007 -3.6357e-17)
(0.795025 -0.00133053 3.0221e-17)
(0.848582 -0.000758168 -1.41494e-17)
(0.835132 0.000472164 4.24226e-17)
(0.882665 0.00103209 -3.50028e-17)
(0.867428 0.00209871 5.93577e-17)
(0.910384 0.00265849 -4.0396e-17)
(0.893581 0.00360458 4.6871e-17)
(0.933061 0.004168 -4.48005e-17)
(0.914816 0.00503064 4.71121e-17)
(0.951672 0.00559487 -3.97221e-17)
(0.932047 0.00640892 5.67663e-17)
(0.966952 0.00696787 -4.18448e-17)
(0.945968 0.00776527 4.22664e-17)
(0.979456 0.00831393 -2.11036e-17)
(0.957116 0.00911523 2.95706e-17)
(0.989626 0.00965591 -2.17463e-17)
(0.96591 0.0104485 1.53964e-17)
(0.997829 0.0110046 -1.25789e-17)
(0.972689 0.0116983 1.03506e-17)
(1.00439 0.0123362 -8.31458e-18)
(0.977773 0.0127557 4.83482e-18)
(1.00936 0.0133981 8.41819e-18)
(0.981953 0.0141235 -5.88248e-18)
(1.0112 0.0130053 1.95187e-17)
(0.989073 0.0180149 -1.82457e-17)
(1.0041 0.0128354 2.16309e-17)
(1.00603 0.0290133 -1.84758e-17)
(0.12302 -0.0939786 -4.99334e-17)
(0.160178 -0.0795752 -7.11949e-17)
(0.336229 -0.0734069 4.92298e-17)
(0.353184 -0.0609556 -4.72112e-17)
(0.489015 -0.057437 -4.23926e-18)
(0.495092 -0.0474979 2.62184e-18)
(0.60229 -0.0450559 1.36673e-17)
(0.601612 -0.0373421 3.42184e-17)
(0.688487 -0.0353964 4.59583e-17)
(0.683108 -0.029391 5.11156e-17)
(0.755381 -0.0277389 1.78633e-17)
(0.746523 -0.0229852 -4.22023e-18)
(0.808096 -0.0215403 2.01709e-17)
(0.79657 -0.0177075 -9.08147e-18)
(0.850156 -0.0164093 -2.7324e-17)
(0.836506 -0.0132737 -4.24445e-17)
(0.884054 -0.0120693 4.5084e-17)
(0.868633 -0.0094769 -9.72724e-17)
(0.911587 -0.00832162 7.78167e-17)
(0.894611 -0.00616006 -8.80092e-17)
(0.934066 -0.00502056 6.18261e-17)
(0.915657 -0.00320314 -7.24285e-17)
(0.95246 -0.00205937 4.67154e-17)
(0.932676 -0.000518641 -8.80251e-17)
(0.967486 0.000636876 4.12291e-17)
(0.946344 0.00194946 -5.02449e-17)
(0.979673 0.00311819 -1.25385e-19)
(0.957173 0.00422539 -2.68642e-17)
(0.989411 0.0054225 -7.79745e-18)
(0.965543 0.00630591 1.63885e-18)
(0.996984 0.0076005 -5.8588e-18)
(0.971762 0.00819855 6.53487e-18)
(1.00259 0.00972963 9.01602e-19)
(0.976247 0.0102083 -7.66773e-18)
(1.00621 0.0113726 -3.32809e-18)
(0.980305 0.0147077 -1.17273e-17)
(1.00684 0.00824977 1.66112e-17)
(0.987673 0.0288957 -3.40707e-18)
(1.00252 -0.00532385 -9.29746e-18)
(0.999219 0.0481723 3.15194e-17)
(0.131418 -0.158762 5.05683e-17)
(0.16724 -0.133646 6.32814e-17)
(0.342592 -0.123691 -9.41516e-17)
(0.358462 -0.103062 1.04536e-16)
(0.493826 -0.0974508 -2.0143e-17)
(0.499062 -0.0812309 -9.79275e-18)
(0.605919 -0.0774128 -5.93349e-17)
(0.604607 -0.0649113 -1.42497e-17)
(0.691205 -0.0619037 -9.34856e-17)
(0.68535 -0.0522449 -7.04577e-17)
(0.757388 -0.04971 -3.37928e-17)
(0.748172 -0.0421413 5.74227e-19)
(0.809544 -0.0399322 -1.09685e-17)
(0.79775 -0.0339111 -3.46548e-18)
(0.851167 -0.0319199 6.94179e-17)
(0.837315 -0.0270779 6.00211e-17)
(0.884724 -0.0252106 -4.42366e-17)
(0.869149 -0.0212934 1.31857e-16)
(0.911992 -0.0194755 -1.19942e-16)
(0.894894 -0.0162969 1.09623e-16)
(0.93427 -0.0144765 -7.31944e-17)
(0.915757 -0.0118897 1.13721e-16)
(0.952521 -0.0100351 -8.1424e-17)
(0.932637 -0.00791568 1.36464e-16)
(0.967458 -0.006011 -4.95371e-17)
(0.94621 -0.00424893 9.7232e-17)
(0.979616 -0.00228787 -1.53816e-17)
(0.956986 -0.00079236 5.53575e-17)
(0.989391 0.00122922 8.8089e-18)
(0.965354 0.00250848 5.26572e-18)
(0.997071 0.00458347 -7.50344e-19)
(0.971626 0.00564548 1.35219e-17)
(1.00281 0.00757513 -7.45047e-19)
(0.976225 0.0087436 5.8245e-18)
(1.00627 0.00879308 4.80473e-18)
(0.980676 0.0136673 -9.29895e-18)
(1.00464 0.00382344 1.24795e-17)
(0.990431 0.0239743 -1.9611e-17)
(0.99267 -0.00206156 2.61073e-17)
(1.0061 0.0339214 -3.02191e-17)
(0.14405 -0.222851 -1.83316e-17)
(0.177967 -0.188643 -1.13303e-16)
(0.352725 -0.174843 2.50789e-16)
(0.366993 -0.146196 -2.41653e-16)
(0.502086 -0.138359 8.04964e-17)
(0.506046 -0.115756 2.32169e-17)
(0.612743 -0.110409 9.10867e-17)
(0.610432 -0.0929948 2.48419e-17)
(0.696915 -0.0888005 5.37911e-17)
(0.690274 -0.0753627 5.41986e-17)
(0.762221 -0.07185 9.63449e-17)
(0.752372 -0.0613374 -3.97598e-17)
(0.813668 -0.0583016 1.53254e-17)
(0.80135 -0.0499552 -3.09438e-18)
(0.854696 -0.0472492 -8.25181e-17)
(0.840405 -0.0405562 -1.70868e-17)
(0.887742 -0.0380511 3.1533e-18)
(0.871795 -0.0326607 -1.40614e-16)
(0.914562 -0.0302487 1.58414e-16)
(0.897149 -0.0259082 -1.46567e-16)
(0.936443 -0.0235079 8.46685e-17)
(0.917661 -0.0200253 -1.34203e-16)
(0.954332 -0.0175815 7.66474e-17)
(0.934215 -0.0148052 -9.76553e-17)
(0.968939 -0.0122865 -1.58618e-17)
(0.947479 -0.0100961 -6.19102e-17)
(0.980792 -0.00748557 -3.96906e-17)
(0.957957 -0.00579495 -1.43702e-17)
(0.99029 -0.00306972 -5.89121e-17)
(0.966032 -0.00183408 2.75874e-17)
(0.997725 0.00105049 -1.56658e-17)
(0.971996 0.00192023 -1.8329e-18)
(1.00326 0.00479172 -5.49994e-17)
(0.97614 0.00641168 1.05683e-16)
(1.00671 0.00628877 -8.39104e-17)
(0.979343 0.0169867 4.09209e-17)
(1.00634 -0.00348433 2.1075e-17)
(0.985485 0.042999 -2.86624e-17)
(0.998284 -0.0242867 1.72265e-17)
(0.997843 0.049965 -3.47436e-17)
(0.16083 -0.285977 -1.52865e-17)
(0.192088 -0.241394 2.54347e-17)
(0.365673 -0.223935 -4.03827e-16)
(0.377802 -0.187322 3.42914e-16)
(0.512163 -0.177456 -1.00599e-16)
(0.514462 -0.148724 -8.15186e-17)
(0.620641 -0.14204 -1.44863e-16)
(0.617068 -0.119954 1.69769e-17)
(0.703141 -0.114726 -3.2068e-17)
(0.695544 -0.0977234 -3.1914e-17)
(0.767146 -0.0933494 -1.11673e-16)
(0.756569 -0.080087 2.26591e-17)
(0.817571 -0.0763035 5.00637e-17)
(0.804695 -0.0658162 -2.92824e-17)
(0.857788 -0.0624312 1.2152e-16)
(0.843066 -0.0540666 -7.1102e-17)
(0.890181 -0.0509125 7.32034e-17)
(0.873899 -0.0442233 2.96801e-17)
(0.916471 -0.041163 -4.77614e-17)
(0.89879 -0.0358258 5.40036e-17)
(0.937913 -0.032757 6.47389e-18)
(0.91891 -0.0285225 1.42515e-16)
(0.955441 -0.025375 -7.6097e-17)
(0.935128 -0.0220387 6.9347e-17)
(0.969745 -0.0187684 5.01539e-17)
(0.94809 -0.0161566 7.11314e-17)
(0.981339 -0.0127368 1.36587e-17)
(0.958272 -0.0107082 2.18444e-17)
(0.990597 -0.00711812 1.03328e-16)
(0.96602 -0.00557869 -3.0199e-17)
(0.997799 -0.00182753 4.21171e-17)
(0.971578 -0.000663662 1.68333e-17)
(1.0032 0.00281608 -3.13871e-17)
(0.975153 0.00473471 2.65314e-17)
(1.0073 0.00425646 9.87926e-18)
(0.976939 0.0149831 -3.0369e-17)
(1.01107 -0.00548253 6.41549e-18)
(0.978 0.034526 -3.71155e-17)
(1.01337 -0.0144613 4.31887e-17)
(0.981425 0.0301185 3.55357e-17)
(0.181712 -0.347864 7.70771e-17)
(0.209843 -0.29444 1.21523e-16)
(0.382321 -0.273246 4.52771e-16)
(0.391813 -0.228888 -2.591e-16)
(0.525607 -0.216861 8.29291e-17)
(0.525817 -0.181976 1.12339e-16)
(0.631635 -0.173813 1.99769e-16)
(0.62644 -0.146993 -6.65257e-17)
(0.71224 -0.140617 1.28577e-18)
(0.703378 -0.119975 5.13222e-18)
(0.774759 -0.114657 2.55326e-16)
(0.763178 -0.0985639 -1.28729e-16)
(0.823991 -0.0939823 8.26794e-17)
(0.810302 -0.0812645 -1.2939e-16)
(0.863229 -0.0771876 -3.81104e-17)
(0.84784 -0.0670534 -9.22996e-17)
(0.894802 -0.063277 1.40098e-16)
(0.877972 -0.0551865 -1.43174e-16)
(0.920396 -0.0515401 1.32773e-16)
(0.902268 -0.0451075 -7.64164e-17)
(0.941246 -0.0414589 1.37447e-17)
(0.921877 -0.0363939 -1.54039e-16)
(0.958269 -0.0326473 3.6997e-17)
(0.937657 -0.0287224 2.32903e-17)
(0.972158 -0.0248102 -1.39491e-16)
(0.950252 -0.0218446 2.85435e-17)
(0.983444 -0.0177123 -8.73553e-17)
(0.960156 -0.0155755 8.37242e-18)
(0.992551 -0.0111518 -1.46303e-16)
(0.96774 -0.00977981 1.13285e-17)
(0.999845 -0.00496549 -1.40025e-16)
(0.973256 -0.00427734 7.05866e-17)
(1.00571 0.000715986 -1.1638e-16)
(0.976664 0.00191434 9.98244e-17)
(1.01087 0.00354076 -1.70626e-16)
(0.976895 0.0141789 8.14269e-17)
(1.01713 -0.00610187 1.34739e-17)
(0.972749 0.0402171 -5.10315e-17)
(1.02247 -0.0238142 -8.78146e-18)
(0.973959 0.0429977 -6.45796e-17)
(0.206591 -0.408251 -8.88397e-17)
(0.230781 -0.344955 -2.6126e-16)
(0.401633 -0.320284 -3.40233e-16)
(0.407967 -0.268312 8.22436e-17)
(0.540777 -0.254354 -5.7422e-17)
(0.538532 -0.213601 3.33207e-17)
(0.643664 -0.204161 -2.27927e-16)
(0.636602 -0.172867 1.42178e-16)
(0.721862 -0.165504 3.43381e-17)
(0.711581 -0.141446 -8.61377e-17)
(0.782511 -0.135303 -2.20977e-16)
(0.769843 -0.116574 6.4668e-17)
(0.830271 -0.111275 2.08412e-17)
(0.815741 -0.0965039 1.78539e-16)
(0.868329 -0.091775 4.48381e-17)
(0.852287 -0.0800381 4.67982e-18)
(0.898943 -0.0756401 -4.31559e-17)
(0.881601 -0.0663067 -1.70148e-18)
(0.923743 -0.0620397 -6.86986e-17)
(0.905211 -0.0546588 -8.20249e-18)
(0.943923 -0.0503686 -2.4066e-17)
(0.924232 -0.0446 6.64026e-17)
(0.960372 -0.0401726 2.60865e-17)
(0.939493 -0.0357489 -2.54668e-17)
(0.973755 -0.0311005 7.64294e-17)
(0.95161 -0.0278113 -5.86733e-17)
(0.984572 -0.0228709 1.0819e-16)
(0.961037 -0.0205734 -5.54375e-17)
(0.993209 -0.0152498 2.14578e-16)
(0.968097 -0.0139068 -3.90693e-17)
(0.999984 -0.0080711 2.5898e-16)
(0.972987 -0.00771842 -6.23369e-17)
(1.00529 -0.00150966 6.51299e-17)
(0.975634 -0.00133179 -6.23076e-18)
(1.0102 0.00222366 1.04441e-16)
(0.974657 0.0095811 -6.71861e-17)
(1.01837 -0.00466541 6.74069e-17)
(0.966471 0.0300572 -7.76183e-17)
(1.03167 -0.0128198 1.86431e-16)
(0.95614 0.0247271 -2.24802e-17)
(0.235363 -0.466878 2.14126e-16)
(0.255252 -0.395155 1.46474e-16)
(0.424505 -0.366929 3.98052e-16)
(0.427211 -0.307615 1.56892e-16)
(0.55917 -0.291602 1.37534e-17)
(0.554059 -0.245028 -2.56251e-16)
(0.658636 -0.234183 2.28233e-16)
(0.649357 -0.198414 -2.45054e-16)
(0.734193 -0.189962 3.58207e-17)
(0.722192 -0.162467 -2.39628e-17)
(0.792774 -0.155428 2.76142e-16)
(0.778749 -0.134028 -2.89432e-16)
(0.838881 -0.127972 1.21955e-16)
(0.823265 -0.1111 -3.55416e-16)
(0.875595 -0.105713 5.10158e-17)
(0.858674 -0.0923125 -1.07496e-16)
(0.905094 -0.087318 1.29936e-16)
(0.887041 -0.0766725 -1.31319e-16)
(0.928958 -0.0718377 1.31218e-16)
(0.909855 -0.0634383 1.09971e-17)
(0.948349 -0.0585791 -2.37118e-17)
(0.928204 -0.0520482 1.98714e-19)
(0.964135 -0.0470226 -6.02752e-17)
(0.9429 -0.0420717 9.65912e-17)
(0.976976 -0.0367651 -7.87959e-17)
(0.954554 -0.0331775 2.95506e-17)
(0.987385 -0.0274748 -1.03218e-16)
(0.963629 -0.0251201 1.17374e-16)
(0.995781 -0.0188546 -3.68449e-16)
(0.970465 -0.0177352 4.65303e-17)
(1.00253 -0.0106388 -2.47034e-16)
(0.97526 -0.0108849 7.36898e-17)
(1.00807 -0.00281649 -3.01096e-17)
(0.977816 -0.00393831 -4.22273e-19)
(1.01347 0.00289195 -8.83222e-17)
(0.976153 0.0067281 7.85075e-17)
(1.02262 -0.000360199 8.99338e-18)
(0.964998 0.0255861 -4.08677e-17)
(1.03797 -0.00702311 1.14126e-17)
(0.950053 0.0257706 -2.33825e-16)
(0.267914 -0.523493 -2.35965e-16)
(0.282655 -0.442559 -1.97546e-16)
(0.449851 -0.411093 -3.73431e-16)
(0.448435 -0.344646 -5.58994e-16)
(0.579172 -0.326833 -8.76319e-17)
(0.570856 -0.274753 4.25653e-16)
(0.674588 -0.262715 -1.747e-16)
(0.662867 -0.222746 2.9844e-16)
(0.747041 -0.21337 5.50476e-17)
(0.733182 -0.182668 -1.17869e-16)
(0.803212 -0.174855 -8.99368e-17)
(0.787759 -0.150981 2.17503e-16)
(0.847417 -0.144251 -2.68836e-17)
(0.830692 -0.125452 2.44327e-16)
(0.882601 -0.119453 1.85357e-16)
(0.864815 -0.10455 -1.15241e-16)
(0.910849 -0.0989734 1.59782e-16)
(0.89212 -0.0871665 -1.02797e-16)
(0.93367 -0.0817511 1.1357e-16)
(0.914039 -0.072473 -5.86577e-17)
(0.952174 -0.0670125 -1.03954e-17)
(0.931621 -0.0598443 3.16399e-17)
(0.96719 -0.0541773 -5.27094e-17)
(0.945641 -0.0488039 -3.08605e-17)
(0.979343 -0.0427966 2.18206e-17)
(0.956682 -0.0389931 4.26019e-17)
(0.989114 -0.0325059 -6.93843e-17)
(0.965179 -0.0301626 2.66202e-16)
(0.996886 -0.0229864 1.62914e-17)
(0.97145 -0.0221804 1.9083e-16)
(1.00299 -0.0139547 7.04675e-17)
(0.975682 -0.0149953 -5.05086e-17)
(1.00784 -0.00531922 6.70037e-17)
(0.977714 -0.00823757 -8.6191e-17)
(1.01251 0.00184622 8.32838e-17)
(0.975625 0.000556661 -7.59684e-17)
(1.02109 0.00342465 6.92808e-17)
(0.963278 0.0136979 -1.88379e-16)
(1.03816 0.00618875 3.3716e-16)
(0.941685 0.0112289 -9.2456e-17)
(0.304083 -0.577858 5.1552e-16)
(0.313412 -0.489065 2.57485e-16)
(0.478551 -0.454291 4.89015e-16)
(0.472579 -0.381031 8.35623e-16)
(0.602198 -0.361303 2.91132e-16)
(0.590286 -0.303834 -4.33599e-16)
(0.693283 -0.290489 8.06679e-17)
(0.678786 -0.246379 -3.65397e-16)
(0.762395 -0.235992 -1.74719e-16)
(0.746388 -0.202111 3.15458e-16)
(0.815953 -0.193467 4.2003e-17)
(0.798815 -0.167123 -1.13977e-16)
(0.858077 -0.159691 1.0714e-16)
(0.840012 -0.138951 -3.2444e-16)
(0.891572 -0.132339 -5.39672e-17)
(0.872711 -0.115902 2.97617e-17)
(0.918425 -0.109767 -1.45025e-16)
(0.898835 -0.0967524 -1.7492e-18)
(0.940079 -0.0908014 -8.83174e-17)
(0.919764 -0.0805896 8.76971e-17)
(0.957596 -0.0745879 2.9604e-17)
(0.936509 -0.0667252 4.19698e-17)
(0.971774 -0.0604835 1.68697e-17)
(0.949821 -0.0546346 1.10689e-16)
(0.98322 -0.0479871 -1.92176e-16)
(0.960266 -0.0439205 2.54009e-16)
(0.992404 -0.0366818 -1.79401e-16)
(0.96827 -0.0342992 1.05059e-17)
(0.999699 -0.0261855 -2.95283e-16)
(0.97414 -0.0256052 1.43479e-16)
(1.00541 -0.01613 -2.42488e-16)
(0.978041 -0.017767 2.32788e-16)
(1.00988 -0.00627824 -2.96088e-16)
(0.979776 -0.010574 3.489e-16)
(1.01392 0.0028488 -3.17195e-16)
(0.977549 -0.0028139 2.10345e-16)
(1.02103 0.00917823 -1.34197e-16)
(0.965389 0.00549151 5.00348e-17)
(1.0362 0.0184398 -4.80832e-17)
(0.941612 0.00417042 -2.92816e-16)
(0.343746 -0.629731 -8.85961e-16)
(0.346819 -0.532537 -5.24517e-16)
(0.5095 -0.49481 -4.36285e-16)
(0.498512 -0.415022 -9.92978e-16)
(0.626687 -0.393654 -3.55606e-16)
(0.610875 -0.331138 2.23822e-16)
(0.71288 -0.316703 -7.67148e-17)
(0.695409 -0.268741 4.63699e-16)
(0.778242 -0.257508 2.56931e-16)
(0.759969 -0.220686 -3.52677e-16)
(0.828886 -0.211334 -1.42923e-16)
(0.810005 -0.182721 -1.15615e-16)
(0.868708 -0.174671 -2.16766e-17)
(0.849287 -0.152166 8.07654e-17)
(0.90035 -0.144994 1.07008e-16)
(0.880428 -0.127182 -7.2795e-17)
(0.925682 -0.120515 2.09075e-16)
(0.905265 -0.106441 -4.83753e-17)
(0.946064 -0.0999603 2.71517e-16)
(0.925112 -0.088953 -2.83707e-16)
(0.962497 -0.0824031 5.20844e-17)
(0.940931 -0.0739744 -1.19049e-16)
(0.975729 -0.0671472 -2.71243e-17)
(0.953434 -0.0609433 -1.17664e-17)
(0.986328 -0.0536525 -1.13626e-16)
(0.963159 -0.0494425 1.19097e-16)
(0.994731 -0.0414745 -2.11517e-16)
(0.970515 -0.0391879 3.51931e-16)
(1.00128 -0.0302064 -1.36904e-16)
(0.975807 -0.0300341 4.5328e-18)
(1.00625 -0.019441 5.12231e-17)
(0.979218 -0.0219478 -8.62929e-18)
(1.00994 -0.00880898 3.35153e-18)
(0.980634 -0.01487 -1.5308e-17)
(1.01296 0.00188724 3.01528e-17)
(0.978658 -0.00861624 -9.54e-18)
(1.01794 0.0133157 1.34023e-16)
(0.968035 -0.00540547 -1.61052e-16)
(1.03 0.0316997 3.15259e-16)
(0.943201 -0.00742736 -2.50457e-17)
(0.386693 -0.678903 7.92814e-16)
(0.383326 -0.574565 5.27683e-16)
(0.543532 -0.533836 4.01733e-16)
(0.527135 -0.447882 8.52938e-16)
(0.653951 -0.424774 2.12476e-16)
(0.633875 -0.357389 2.29494e-16)
(0.734978 -0.341769 -6.56494e-17)
(0.714221 -0.29007 -2.07581e-16)
(0.79636 -0.27792 -3.63798e-16)
(0.77555 -0.238228 3.93283e-16)
(0.843894 -0.228124 1.54014e-17)
(0.823028 -0.197283 4.34506e-16)
(0.881242 -0.188597 -2.9568e-17)
(0.860249 -0.16434 1.08963e-16)
(0.910879 -0.156613 4.8902e-17)
(0.889703 -0.137417 1.46693e-16)
(0.934557 -0.130242 -2.52456e-16)
(0.913141 -0.11508 1.2079e-16)
(0.953552 -0.108111 -2.46083e-16)
(0.931813 -0.0962619 3.69214e-16)
(0.968805 -0.0892179 -1.06077e-16)
(0.946633 -0.0801614 1.15883e-16)
(0.981022 -0.07281 2.20621e-17)
(0.95828 -0.0661721 1.92188e-16)
(0.990737 -0.058301 -1.82195e-16)
(0.967265 -0.0538411 1.83031e-16)
(0.998352 -0.0452011 -1.37896e-16)
(0.973974 -0.0428553 -1.03471e-17)
(1.00417 -0.0330554 -1.38562e-16)
(0.97869 -0.0330458 1.7006e-16)
(1.00841 -0.0213997 -1.6387e-16)
(0.981577 -0.0243756 3.27633e-17)
(1.01124 -0.00976808 -3.05609e-17)
(0.982564 -0.0169367 2.07569e-16)
(1.01297 0.00249244 -3.36514e-16)
(0.980801 -0.0116406 2.08971e-16)
(1.01506 0.0180049 -1.94445e-16)
(0.972633 -0.0130426 1.01524e-16)
(1.02201 0.043096 -2.37965e-16)
(0.94978 -0.0157345 -1.81504e-16)
(0.432787 -0.725146 -2.70052e-16)
(0.422171 -0.613352 -3.05815e-16)
(0.579554 -0.570005 -3.83911e-16)
(0.557337 -0.478239 -5.67324e-16)
(0.682506 -0.453678 -3.91721e-16)
(0.6579 -0.381791 -4.26609e-16)
(0.757878 -0.365205 4.90985e-17)
(0.733665 -0.310068 1.24718e-16)
(0.814925 -0.297168 4.76202e-17)
(0.79148 -0.254852 -1.66552e-17)
(0.859091 -0.244118 -1.18714e-16)
(0.836194 -0.211253 -5.26414e-16)
(0.893776 -0.202018 -1.08195e-16)
(0.8712 -0.176187 -3.68203e-16)
(0.921266 -0.167963 -5.12645e-17)
(0.898854 -0.147543 -4.26264e-16)
(0.943182 -0.139896 3.62369e-16)
(0.920804 -0.123792 -4.02696e-16)
(0.960701 -0.116354 3.45893e-16)
(0.938227 -0.103801 -5.54879e-16)
(0.974696 -0.0962732 1.89589e-16)
(0.951981 -0.08672 -1.7468e-16)
(0.985815 -0.0788537 -3.47123e-17)
(0.962703 -0.0719095 -1.93972e-17)
(0.994547 -0.0634748 -7.51996e-17)
(0.970876 -0.0588979 2.67314e-16)
(1.00126 -0.049621 -1.91192e-16)
(0.97687 -0.0473637 2.26016e-16)
(1.00622 -0.036809 6.06835e-17)
(0.980971 -0.0371372 -5.68114e-17)
(1.00961 -0.0245291 1.44474e-16)
(0.983365 -0.0281766 -1.94126e-17)
(1.01155 -0.0121962 -1.82871e-18)
(0.984077 -0.0206259 -1.19107e-16)
(1.01205 0.00137205 3.40217e-16)
(0.982831 -0.016072 -3.28978e-16)
(1.01128 0.020748 3.23928e-16)
(0.977706 -0.0207355 -2.79142e-16)
(1.01249 0.0526079 3.65936e-16)
(0.957995 -0.0235616 2.72646e-17)
(0.481777 -0.768285 1.45423e-16)
(0.463794 -0.650193 2.5503e-16)
(0.618332 -0.604203 3.01903e-16)
(0.589943 -0.507024 4.49871e-16)
(0.713538 -0.480928 5.43139e-16)
(0.684076 -0.404778 4.05928e-16)
(0.783004 -0.387147 2.91428e-17)
(0.755052 -0.328738 1.97703e-16)
(0.835502 -0.31503 -2.2693e-17)
(0.809175 -0.270203 4.29088e-17)
(0.876115 -0.258807 1.17793e-16)
(0.850968 -0.223992 5.17394e-16)
(0.907977 -0.214198 3.76051e-16)
(0.883623 -0.186834 5.12465e-16)
(0.933179 -0.178121 4.75058e-17)
(0.909353 -0.156488 6.07277e-16)
(0.953207 -0.148396 -4.90747e-16)
(0.929706 -0.131337 6.41863e-16)
(0.96914 -0.123472 -2.77361e-16)
(0.945785 -0.110176 4.7399e-16)
(0.981779 -0.102219 -1.36574e-16)
(0.958392 -0.0921048 1.57657e-16)
(0.991719 -0.0837887 -9.66389e-17)
(0.96812 -0.0764447 8.43629e-17)
(0.999403 -0.0675231 2.34172e-17)
(0.975417 -0.0626924 -2.95078e-16)
(1.00515 -0.0528724 2.41052e-16)
(0.980627 -0.0505035 -2.98639e-16)
(1.00918 -0.0393225 5.80857e-17)
(0.984018 -0.0396926 -1.93826e-16)
(1.01161 -0.0263313 7.05229e-17)
(0.985772 -0.0302172 -2.1323e-16)
(1.01246 -0.0132657 1.38052e-16)
(0.986003 -0.0223073 1.40909e-17)
(1.01148 0.0013029 -1.61941e-16)
(0.985096 -0.0181733 2.81693e-16)
(1.0076 0.0230939 -2.47783e-16)
(0.983282 -0.0254406 2.01246e-16)
(1.00256 0.0590671 -1.46788e-16)
(0.968467 -0.0288707 -2.24285e-16)
(0.53351 -0.808108 -5.897e-16)
(0.507417 -0.683622 -5.32386e-17)
(0.658814 -0.635393 -4.34838e-16)
(0.623899 -0.533215 -3.16577e-16)
(0.745671 -0.50588 -5.16238e-16)
(0.711125 -0.42585 -3.58163e-16)
(0.808811 -0.407394 -2.64862e-16)
(0.776978 -0.346022 -1.29083e-16)
(0.856459 -0.331674 -5.45753e-16)
(0.82717 -0.284583 2.62759e-16)
(0.893304 -0.27265 -3.84479e-16)
(0.865874 -0.23609 -3.04031e-16)
(0.922186 -0.225827 -7.65868e-16)
(0.896053 -0.197106 -4.97428e-16)
(0.944987 -0.187967 -2.23056e-16)
(0.91977 -0.165281 -3.3584e-16)
(0.963043 -0.156785 4.06926e-16)
(0.938462 -0.138916 -6.07939e-16)
(0.977326 -0.130651 4.43217e-16)
(0.953148 -0.116749 -5.76491e-16)
(0.988559 -0.10838 3.13155e-16)
(0.964569 -0.0978368 -2.73289e-16)
(0.997273 -0.089087 1.94151e-16)
(0.973272 -0.0814715 -1.02999e-16)
(1.00386 -0.0720816 8.903e-17)
(0.979673 -0.0671289 9.26306e-17)
(1.00861 -0.0567918 3.49302e-17)
(0.984098 -0.054449 2.46223e-17)
(1.0117 -0.0426773 2.13753e-16)
(0.986815 -0.0432317 -2.8726e-17)
(1.01319 -0.0291605 1.87925e-16)
(0.988023 -0.0334084 -1.07048e-16)
(1.01307 -0.0155384 2.18547e-16)
(0.987919 -0.0251876 -1.95172e-16)
(1.01083 -0.000143021 2.04703e-16)
(0.987426 -0.0209907 -2.3962e-16)
(1.00421 0.0235638 1.44288e-16)
(0.98871 -0.0290925 -1.94293e-16)
(0.993119 0.0626498 7.30921e-17)
(0.979062 -0.0320543 -2.16837e-17)
(0.587704 -0.844476 7.58267e-16)
(0.553437 -0.714658 6.76057e-17)
(0.701669 -0.664191 3.12322e-16)
(0.659926 -0.557448 4.99458e-16)
(0.779938 -0.528809 3.36048e-16)
(0.740027 -0.445191 5.74142e-16)
(0.836536 -0.425848 1.46174e-16)
(0.800577 -0.361724 3.20545e-16)
(0.879148 -0.346691 4.51636e-16)
(0.846681 -0.297488 -8.31229e-17)
(0.912061 -0.284994 1.89009e-16)
(0.882153 -0.246794 4.33325e-16)
(0.937818 -0.236058 7.20257e-16)
(0.909729 -0.206047 6.26923e-16)
(0.958088 -0.196497 2.45011e-16)
(0.931318 -0.172788 1.53163e-16)
(0.974053 -0.163919 -4.40221e-16)
(0.948242 -0.14524 5.29911e-16)
(0.986579 -0.13662 -4.39833e-16)
(0.961438 -0.122083 2.68115e-16)
(0.996304 -0.113363 -3.25068e-18)
(0.971582 -0.102331 3.15481e-17)
(1.0037 -0.0932203 6.86888e-17)
(0.979171 -0.085239 -1.25063e-16)
(1.00911 -0.0754737 1.04093e-16)
(0.984583 -0.0702584 -3.35615e-16)
(1.01277 -0.0595269 2.06105e-16)
(0.988117 -0.0570097 -3.44522e-16)
(1.0148 -0.0448233 5.45909e-17)
(0.990026 -0.0452813 -2.19742e-16)
(1.01523 -0.0307728 9.95566e-17)
(0.990522 -0.0350022 -1.95193e-16)
(1.01396 -0.0166717 1.11612e-16)
(0.989888 -0.0263924 -3.60547e-16)
(1.01036 -0.000852158 2.75349e-16)
(0.989564 -0.0219725 -1.22083e-16)
(1.00127 0.0233418 1.76865e-18)
(0.993631 -0.0302452 2.14805e-16)
(0.984751 0.0630591 -1.18918e-16)
(0.989711 -0.0331155 2.09932e-16)
(0.644188 -0.877198 -7.97665e-16)
(0.601097 -0.742148 2.06788e-16)
(0.745918 -0.689857 -6.56504e-16)
(0.697057 -0.579015 -2.57344e-16)
(0.815097 -0.54937 -6.81959e-16)
(0.769634 -0.462564 -2.60497e-16)
(0.864803 -0.442552 -1.81403e-16)
(0.824604 -0.375992 -4.14404e-17)
(0.90213 -0.360439 -7.49466e-16)
(0.866427 -0.309376 4.0141e-16)
(0.930937 -0.296445 -3.32795e-16)
(0.898532 -0.256809 -3.45422e-16)
(0.953449 -0.245692 -6.20413e-16)
(0.923414 -0.214565 -7.48662e-16)
(0.971105 -0.204669 -2.85138e-16)
(0.942813 -0.180093 -1.11349e-16)
(0.984924 -0.170894 3.68682e-16)
(0.957932 -0.151548 -3.9348e-16)
(0.995656 -0.142603 2.82102e-16)
(0.969616 -0.127565 -2.33291e-16)
(1.00386 -0.118512 1.76731e-16)
(0.978473 -0.107119 -2.36797e-16)
(1.00993 -0.0976612 7.48376e-17)
(0.984954 -0.0894406 -9.20601e-17)
(1.01416 -0.0793077 2.26227e-16)
(0.989398 -0.0739583 -2.24232e-17)
(1.01675 -0.0628366 1.83617e-16)
(0.992082 -0.0602751 2.51563e-17)
(1.01778 -0.0476721 3.51045e-16)
(0.993252 -0.0481597 -2.00385e-16)
(1.01724 -0.0332057 4.28127e-16)
(0.99313 -0.0375115 -2.77176e-16)
(1.01499 -0.0187191 3.88972e-16)
(0.992046 -0.0284794 -8.84322e-17)
(1.01027 -0.00257976 2.9335e-16)
(0.99175 -0.0233616 -4.96156e-16)
(0.999249 0.0216347 4.24904e-16)
(0.997782 -0.0302817 -4.67773e-16)
(0.978156 0.0609358 1.51667e-16)
(0.998949 -0.0321666 -1.43515e-16)
(0.702657 -0.906173 8.25095e-16)
(0.650719 -0.766858 1.26387e-16)
(0.792113 -0.712775 2.60418e-16)
(0.735885 -0.598292 6.49573e-16)
(0.852011 -0.567597 7.0949e-16)
(0.800767 -0.477938 3.17874e-16)
(0.894655 -0.457212 -8.5532e-17)
(0.850012 -0.388465 1.54705e-16)
(0.926547 -0.372361 5.30411e-16)
(0.887424 -0.31962 -2.86237e-16)
(0.951112 -0.306239 2.80516e-16)
(0.916043 -0.2653 3.57672e-16)
(0.970254 -0.253805 5.25114e-16)
(0.938118 -0.221651 4.87723e-16)
(0.985178 -0.211429 4.54787e-16)
(0.95522 -0.186037 3.14121e-17)
(0.996742 -0.176545 -2.02915e-16)
(0.968431 -0.156549 1.54606e-16)
(1.00558 -0.147329 -2.66585e-17)
(0.978504 -0.131775 -1.83539e-18)
(1.01215 -0.122454 6.99574e-17)
(0.98598 -0.110653 -9.58803e-17)
(1.0168 -0.10093 2.46711e-16)
(0.991251 -0.0923861 -3.82714e-16)
(1.01976 -0.0819907 1.73547e-16)
(0.994619 -0.076381 -3.83452e-16)
(1.02118 -0.0650057 6.4739e-17)
(0.996334 -0.0622244 -2.80687e-16)
(1.0211 -0.0493926 -2.12305e-17)
(0.996629 -0.049677 -1.65668e-16)
(1.01947 -0.0345448 -1.93458e-16)
(0.995741 -0.0386347 4.27167e-17)
(1.01614 -0.019781 -1.75219e-16)
(0.994047 -0.0292056 -2.03786e-16)
(1.01033 -0.00367446 5.16983e-17)
(0.993515 -0.0233847 2.25142e-16)
(0.997942 0.0194688 -1.19637e-16)
(1.00083 -0.0286064 2.95274e-16)
(0.973564 0.0565604 -1.98395e-16)
(1.00676 -0.0299853 2.77217e-16)
(0.762925 -0.931235 -8.37714e-16)
(0.701604 -0.78793 -4.56085e-16)
(0.839374 -0.732468 -3.84598e-16)
(0.775555 -0.614857 -2.64786e-16)
(0.889595 -0.583409 -1.12927e-15)
(0.832425 -0.491308 -1.45884e-16)
(0.924894 -0.470082 -1.46125e-16)
(0.875724 -0.399467 -7.02647e-18)
(0.951155 -0.382975 -4.63002e-16)
(0.908575 -0.328807 2.17282e-16)
(0.971345 -0.315099 -5.45436e-17)
(0.933608 -0.273059 -5.73313e-16)
(0.987028 -0.261277 -2.44366e-16)
(0.952814 -0.228267 -3.89438e-16)
(0.99917 -0.217783 -2.2954e-16)
(0.967585 -0.191725 -1.04021e-16)
(1.00845 -0.181984 4.02939e-16)
(0.978876 -0.161475 -3.17878e-16)
(1.01538 -0.152007 3.49477e-16)
(0.987344 -0.136065 -4.32733e-16)
(1.02034 -0.126492 2.69133e-16)
(0.993458 -0.114407 -1.5332e-16)
(1.02359 -0.104421 4.33117e-17)
(0.997558 -0.0956798 7.43465e-17)
(1.02533 -0.0850121 2.12701e-16)
(0.999903 -0.0792713 1.2009e-16)
(1.02564 -0.0676193 1.23754e-16)
(1.00072 -0.0647522 1.23352e-16)
(1.02454 -0.051649 1.14805e-16)
(1.00022 -0.0518663 1.71898e-16)
(1.02194 -0.0364914 2.05126e-16)
(0.998641 -0.0404851 -4.79656e-17)
(1.01767 -0.0214916 2.00797e-16)
(0.996361 -0.0306239 2.02485e-16)
(1.011 -0.00544015 9.16792e-17)
(0.995331 -0.0237822 -4.1392e-16)
(0.997763 0.016445 4.0708e-16)
(1.00284 -0.0263797 -3.66116e-16)
(0.971195 0.0508676 1.79776e-16)
(1.01228 -0.0268071 -2.43435e-16)
(0.824667 -0.952322 1.06603e-15)
(0.753974 -0.805903 9.30703e-16)
(0.888115 -0.749124 3.14353e-16)
(0.816516 -0.62886 3.01628e-16)
(0.928523 -0.596632 9.13259e-16)
(0.865256 -0.502462 1.16312e-16)
(0.956364 -0.480705 2.24651e-16)
(0.902509 -0.408505 1.4838e-16)
(0.976886 -0.391604 2.05083e-16)
(0.930703 -0.336221 -1.40833e-16)
(0.992599 -0.322181 -2.02469e-17)
(0.952057 -0.279197 4.30402e-16)
(1.00473 -0.267138 3.07911e-16)
(0.968299 -0.233383 2.74264e-16)
(1.01399 -0.222663 4.05141e-17)
(0.980648 -0.19601 2.74464e-17)
(1.02089 -0.186061 -3.6994e-16)
(0.989925 -0.165074 1.34642e-16)
(1.02581 -0.155415 -4.47019e-17)
(0.996693 -0.139087 1.1278e-16)
(1.02905 -0.129333 3.20862e-17)
(1.00135 -0.116934 -5.72183e-17)
(1.03081 -0.106776 1.52706e-16)
(1.00417 -0.0977703 -2.17947e-16)
(1.03121 -0.0869429 -1.34064e-17)
(1.00538 -0.0809684 -3.44189e-16)
(1.03032 -0.0691782 1.36912e-16)
(1.00517 -0.0660849 -3.3786e-16)
(1.0281 -0.0528858 1.20503e-16)
(1.00375 -0.0528586 -3.75479e-16)
(1.02444 -0.0374646 -8.21866e-17)
(1.00137 -0.0411612 -5.89316e-17)
(1.01919 -0.0223164 -2.33499e-16)
(0.998383 -0.0309489 -2.19673e-16)
(1.01174 -0.00654238 -2.06566e-16)
(0.996637 -0.0232406 1.91556e-16)
(0.998278 0.0135004 -2.46961e-16)
(1.00363 -0.023404 1.58573e-16)
(0.970929 0.0444381 -1.13203e-16)
(1.01579 -0.0236439 3.53806e-16)
(0.887685 -0.969296 -1.20496e-15)
(0.807216 -0.820188 -9.27395e-16)
(0.937579 -0.762501 -5.84279e-16)
(0.858048 -0.640131 3.51637e-17)
(0.967886 -0.607416 -8.0717e-16)
(0.898419 -0.511594 1.31158e-16)
(0.988054 -0.489515 -4.56872e-16)
(0.929461 -0.416051 -1.22849e-16)
(1.00269 -0.3989 -2.98164e-17)
(0.952891 -0.342549 2.00575e-16)
(1.01383 -0.328297 7.36234e-17)
(0.970498 -0.284566 -2.31745e-16)
(1.02235 -0.272319 -1.34686e-16)
(0.983744 -0.237984 -5.13328e-16)
(1.0287 -0.22709 1.30038e-16)
(0.993659 -0.199985 -3.28403e-17)
(1.03322 -0.189868 3.69637e-16)
(1.00093 -0.168532 -3.04434e-16)
(1.03617 -0.158706 1.78985e-16)
(1.00603 -0.142113 -2.21124e-16)
(1.03774 -0.132186 7.07888e-17)
(1.00927 -0.119589 -9.45257e-18)
(1.03805 -0.109251 -1.68631e-16)
(1.01088 -0.100103 1.98452e-17)
(1.0372 -0.0890897 2.98552e-16)
(1.01103 -0.0830118 2.05031e-17)
(1.03519 -0.0710356 7.79403e-17)
(1.00989 -0.067861 1.5191e-16)
(1.03195 -0.0544875 3.11638e-17)
(1.00765 -0.0543793 1.76843e-16)
(1.02736 -0.0388497 9.12488e-17)
(1.00453 -0.0424234 2.33789e-16)
(1.02123 -0.023566 9.25641e-17)
(1.00084 -0.0318652 3.73839e-16)
(1.01314 -0.00800892 2.23413e-16)
(0.998115 -0.0231845 -7.58234e-17)
(0.999759 0.0103944 1.9311e-16)
(1.00358 -0.0206841 -4.94496e-17)
(0.972476 0.0382213 -4.02901e-17)
(1.017 -0.0207298 -1.6263e-16)
(0.951641 -0.982135 1.20948e-15)
(0.861434 -0.831125 8.63578e-16)
(0.98803 -0.772619 4.79998e-16)
(0.90044 -0.648629 1.36954e-16)
(1.00816 -0.615419 3.71385e-16)
(0.932386 -0.518344 -5.37946e-18)
(1.0206 -0.495927 3.88161e-16)
(0.957167 -0.421505 8.30364e-17)
(1.0293 -0.404095 -9.39994e-17)
(0.975775 -0.34701 -1.67479e-16)
(1.03581 -0.332551 1.26231e-16)
(0.989575 -0.288248 -5.17871e-17)
(1.04064 -0.275833 -5.57675e-17)
(0.999755 -0.241045 7.06098e-16)
(1.04401 -0.23001 -3.91981e-16)
(1.00716 -0.202542 1.38859e-16)
(1.04607 -0.192306 -1.50498e-16)
(1.01236 -0.170675 2.00034e-17)
(1.04695 -0.160743 2.00649e-16)
(1.0157 -0.143906 -1.07071e-16)
(1.04675 -0.133885 9.2955e-17)
(1.01742 -0.12108 6.05436e-17)
(1.04552 -0.110661 1.03903e-16)
(1.01771 -0.101326 -1.96147e-16)
(1.04331 -0.0902428 1.26484e-16)
(1.0167 -0.0839858 -2.91695e-16)
(1.04007 -0.0719601 3.58186e-17)
(1.01451 -0.0685969 3.0172e-17)