/*--------------------------------*- C++ -*----------------------------------*\
| =========                 |                                                 |
| \\      /  F ield         | foam-extend: Open Source CFD                    |
|  \\    /   O peration     | Version:  3.0                                   |
|   \\  /    A nd           | Web:         http://www.extend-project.de       |
|    \\/     M anipulation  |                                                 |
\*---------------------------------------------------------------------------*/
FoamFile
{
    version     2.0;
    format      ascii;
    class       volScalarField;
    location    "17";
    object      p;
}
// * * * * * * * * * * * * * * * * * * * * * * * * * * * * * * * * * * * * * //

dimensions      [0 0 0 0 0 0 0];

internalField   nonuniform List<scalar> 
7680
(
-0.234461
-0.222316
-0.21328
-0.203786
-0.196832
-0.189296
-0.18389
-0.177845
-0.173618
-0.168733
-0.165422
-0.161455
-0.158866
-0.155635
-0.153619
-0.150982
-0.14942
-0.147265
-0.146062
-0.144295
-0.143371
-0.141911
-0.141196
-0.139974
-0.139404
-0.138356
-0.137872
-0.136937
-0.136483
-0.1356
-0.135118
-0.134229
-0.133659
-0.132701
-0.131979
-0.130886
-0.129944
-0.128643
-0.127405
-0.125813
-0.234237
-0.222104
-0.213077
-0.203593
-0.196646
-0.189118
-0.183717
-0.177678
-0.173456
-0.168576
-0.165269
-0.161306
-0.15872
-0.155493
-0.153479
-0.150845
-0.149285
-0.147133
-0.145932
-0.144166
-0.143244
-0.141786
-0.141072
-0.139852
-0.139283
-0.138236
-0.137754
-0.136819
-0.136366
-0.135485
-0.135003
-0.134115
-0.133546
-0.132589
-0.131868
-0.130775
-0.129834
-0.128533
-0.127296
-0.125704
-0.233723
-0.221618
-0.212613
-0.20315
-0.196219
-0.188709
-0.183321
-0.177296
-0.173084
-0.168215
-0.164917
-0.160964
-0.158384
-0.155165
-0.153155
-0.150529
-0.148973
-0.146826
-0.145628
-0.143868
-0.142948
-0.141494
-0.140783
-0.139566
-0.138999
-0.137955
-0.137474
-0.136543
-0.136091
-0.135212
-0.134732
-0.133846
-0.133278
-0.132324
-0.131604
-0.130514
-0.129575
-0.128276
-0.127041
-0.125453
-0.232997
-0.220931
-0.211953
-0.20252
-0.195612
-0.188125
-0.182755
-0.176749
-0.17255
-0.167697
-0.164409
-0.160469
-0.157898
-0.154689
-0.152686
-0.150068
-0.148518
-0.146378
-0.145184
-0.14343
-0.142513
-0.141064
-0.140355
-0.139142
-0.138578
-0.137537
-0.137058
-0.13613
-0.13568
-0.134804
-0.134325
-0.133442
-0.132876
-0.131924
-0.131207
-0.13012
-0.129184
-0.127889
-0.126658
-0.125075
-0.231983
-0.219971
-0.211034
-0.201643
-0.194765
-0.187312
-0.181966
-0.175987
-0.171808
-0.166977
-0.163704
-0.159781
-0.157222
-0.154028
-0.152035
-0.149429
-0.147886
-0.145756
-0.144568
-0.142822
-0.14191
-0.140468
-0.139763
-0.138556
-0.137994
-0.136959
-0.136483
-0.135558
-0.135111
-0.134239
-0.133763
-0.132884
-0.13232
-0.131373
-0.130659
-0.129577
-0.128644
-0.127355
-0.12613
-0.124554
-0.230759
-0.21881
-0.209921
-0.20058
-0.193739
-0.186326
-0.181008
-0.175062
-0.170905
-0.166099
-0.162844
-0.158943
-0.156397
-0.15322
-0.151238
-0.148646
-0.147112
-0.144993
-0.143812
-0.142075
-0.141169
-0.139735
-0.139033
-0.137833
-0.137275
-0.136245
-0.135771
-0.134852
-0.134407
-0.13354
-0.133066
-0.132192
-0.131631
-0.130688
-0.129978
-0.128902
-0.127974
-0.126693
-0.125474
-0.123908
-0.22925
-0.21738
-0.20855
-0.199271
-0.192476
-0.185112
-0.17983
-0.173923
-0.169794
-0.165021
-0.161788
-0.157913
-0.155385
-0.152229
-0.150261
-0.147686
-0.146163
-0.144059
-0.142886
-0.141161
-0.140261
-0.138837
-0.13814
-0.136948
-0.136394
-0.135371
-0.134901
-0.133988
-0.133546
-0.132685
-0.132214
-0.131346
-0.130789
-0.129853
-0.129147
-0.128078
-0.127157
-0.125885
-0.124674
-0.12312
-0.227533
-0.215753
-0.206989
-0.19778
-0.191037
-0.183728
-0.178486
-0.172623
-0.168526
-0.163789
-0.16058
-0.156734
-0.154225
-0.151094
-0.14914
-0.146586
-0.145073
-0.142986
-0.141822
-0.14011
-0.139216
-0.137803
-0.137112
-0.135929
-0.135379
-0.134364
-0.133898
-0.132992
-0.132553
-0.131698
-0.131231
-0.130369
-0.129816
-0.128887
-0.128186
-0.127126
-0.126211
-0.124949
-0.123749
-0.122208
-0.225534
-0.213859
-0.205173
-0.196046
-0.189362
-0.182119
-0.176923
-0.171113
-0.167052
-0.162358
-0.159178
-0.155366
-0.15288
-0.149777
-0.147841
-0.14531
-0.143811
-0.141742
-0.140589
-0.138893
-0.138008
-0.136608
-0.135923
-0.134751
-0.134206
-0.1332
-0.132738
-0.13184
-0.131405
-0.130558
-0.130095
-0.129241
-0.128692
-0.127772
-0.127077
-0.126027
-0.125121
-0.123871
-0.122682
-0.121157
-0.223332
-0.211771
-0.20317
-0.194133
-0.187515
-0.180342
-0.175198
-0.169445
-0.165424
-0.160775
-0.157627
-0.153853
-0.151391
-0.148318
-0.146401
-0.143895
-0.142411
-0.140363
-0.139221
-0.137542
-0.136665
-0.135279
-0.134601
-0.13344
-0.1329
-0.131904
-0.131446
-0.130557
-0.130126
-0.129287
-0.128829
-0.127983
-0.12744
-0.126528
-0.125841
-0.124801
-0.123904
-0.122667
-0.121491
-0.119983
-0.220852
-0.20942
-0.200916
-0.19198
-0.185436
-0.178344
-0.173258
-0.167569
-0.163594
-0.158997
-0.155884
-0.152153
-0.149719
-0.146681
-0.144786
-0.142308
-0.140841
-0.138816
-0.137688
-0.136027
-0.135161
-0.13379
-0.13312
-0.131972
-0.131439
-0.130454
-0.130001
-0.129122
-0.128696
-0.127867
-0.127413
-0.126577
-0.12604
-0.125139
-0.124459
-0.123431
-0.122545
-0.121323
-0.120161
-0.118672
-0.218174
-0.206881
-0.19848
-0.189653
-0.183189
-0.176183
-0.171159
-0.165539
-0.161612
-0.157072
-0.153997
-0.150311
-0.147907
-0.144906
-0.143034
-0.140586
-0.139137
-0.137136
-0.136022
-0.134381
-0.133526
-0.132171
-0.131509
-0.130376
-0.129849
-0.128876
-0.128428
-0.12756
-0.127139
-0.126319
-0.125871
-0.125045
-0.124514
-0.123624
-0.122953
-0.121938
-0.121063
-0.119857
-0.11871
-0.117242
-0.215224
-0.204085
-0.195798
-0.187091
-0.180715
-0.173805
-0.168849
-0.163307
-0.159433
-0.154955
-0.151922
-0.148286
-0.145915
-0.142955
-0.141109
-0.138695
-0.137266
-0.135293
-0.134194
-0.132576
-0.131732
-0.130397
-0.129744
-0.128626
-0.128106
-0.127146
-0.126705
-0.125848
-0.125433
-0.124625
-0.124182
-0.123368
-0.122844
-0.121967
-0.121305
-0.120304
-0.119442
-0.118254
-0.117123
-0.115677
-0.212081
-0.201105
-0.19294
-0.18436
-0.178077
-0.171269
-0.166385
-0.160924
-0.157107
-0.152694
-0.149706
-0.146124
-0.143787
-0.140871
-0.139052
-0.136673
-0.135265
-0.133321
-0.132237
-0.130643
-0.129812
-0.128495
-0.127852
-0.12675
-0.126238
-0.125292
-0.124857
-0.124013
-0.123603
-0.122807
-0.122371
-0.121568
-0.121052
-0.120188
-0.119535
-0.11855
-0.117701
-0.116531
-0.115419
-0.113996
-0.208673
-0.197874
-0.189841
-0.1814
-0.175219
-0.16852
-0.163716
-0.158343
-0.154588
-0.150247
-0.147307
-0.143783
-0.141485
-0.138616
-0.136826
-0.134486
-0.133101
-0.131189
-0.130123
-0.128555
-0.127737
-0.126442
-0.125809
-0.124725
-0.124221
-0.123291
-0.122863
-0.122033
-0.12163
-0.120846
-0.120417
-0.119628
-0.11912
-0.11827
-0.117628
-0.11666
-0.115825
-0.114675
-0.113582
-0.112184
-0.20508
-0.194467
-0.186573
-0.178277
-0.172203
-0.16562
-0.160898
-0.155618
-0.151928
-0.147662
-0.144773
-0.141309
-0.139051
-0.136231
-0.134473
-0.132173
-0.130811
-0.128932
-0.127885
-0.126343
-0.125539
-0.124267
-0.123645
-0.12258
-0.122084
-0.12117
-0.120749
-0.119932
-0.119536
-0.118766
-0.118344
-0.117569
-0.11707
-0.116235
-0.115604
-0.114653
-0.113833
-0.112705
-0.111631
-0.110259
-0.201228
-0.190816
-0.183071
-0.174932
-0.168972
-0.162513
-0.157881
-0.152701
-0.14908
-0.144895
-0.14206
-0.138663
-0.136447
-0.133681
-0.131956
-0.129699
-0.128364
-0.12652
-0.125493
-0.123981
-0.123192
-0.121944
-0.121334
-0.120289
-0.119803
-0.118906
-0.118493
-0.117692
-0.117303
-0.116548
-0.116134
-0.115373
-0.114884
-0.114065
-0.113447
-0.112514
-0.111711
-0.110605
-0.109553
-0.108208
-0.1972
-0.186996
-0.179406
-0.17143
-0.16559
-0.15926
-0.154721
-0.149645
-0.146097
-0.141995
-0.139218
-0.135888
-0.133717
-0.131006
-0.129316
-0.127105
-0.125796
-0.123989
-0.122982
-0.121501
-0.120728
-0.119504
-0.118906
-0.117882
-0.117405
-0.116526
-0.116121
-0.115337
-0.114955
-0.114215
-0.11381
-0.113064
-0.112585
-0.111783
-0.111177
-0.110264
-0.109477
-0.108394
-0.107364
-0.106048
-0.192921
-0.18294
-0.175515
-0.167713
-0.162
-0.155809
-0.151369
-0.146403
-0.142933
-0.138921
-0.136204
-0.132947
-0.130823
-0.128172
-0.126519
-0.124356
-0.123076
-0.121309
-0.120324
-0.118875
-0.118119
-0.116922
-0.116337
-0.115335
-0.114869
-0.114009
-0.113613
-0.112846
-0.112473
-0.111749
-0.111353
-0.110624
-0.110155
-0.109371
-0.108779
-0.107886
-0.107117
-0.106059
-0.105052
-0.103767
-0.188475
-0.178724
-0.17147
-0.163848
-0.158267
-0.152218
-0.147881
-0.143029
-0.139639
-0.13572
-0.133066
-0.129884
-0.127809
-0.125219
-0.123604
-0.121491
-0.120241
-0.118514
-0.117552
-0.116136
-0.115397
-0.114228
-0.113657
-0.112678
-0.112222
-0.111382
-0.110995
-0.110245
-0.109881
-0.109174
-0.108787
-0.108075
-0.107617
-0.106851
-0.106273
-0.105402
-0.104651
-0.103618
-0.102636
-0.101381
-0.183788
-0.17428
-0.167207
-0.159776
-0.154334
-0.148437
-0.144207
-0.139477
-0.136172
-0.132351
-0.129763
-0.126661
-0.124638
-0.122113
-0.120538
-0.118478
-0.117259
-0.115576
-0.114638
-0.113258
-0.112538
-0.111398
-0.110841
-0.109886
-0.109442
-0.108624
-0.108246
-0.107515
-0.10716
-0.106471
-0.106094
-0.1054
-0.104954
-0.104207
-0.103644
-0.102795
-0.102064
-0.101058
-0.100101
-0.0988785
-0.178943
-0.169685
-0.162799
-0.155564
-0.150266
-0.144524
-0.140406
-0.135801
-0.132583
-0.128862
-0.126343
-0.123323
-0.121353
-0.118895
-0.117361
-0.115356
-0.114169
-0.11253
-0.111617
-0.110273
-0.109572
-0.108462
-0.107919
-0.10699
-0.106558
-0.10576
-0.105393
-0.104681
-0.104336
-0.103665
-0.103297
-0.102622
-0.102188
-0.101461
-0.100914
-0.100087
-0.0993757
-0.0983971
-0.0974664
-0.0962776
-0.173867
-0.164873
-0.158183
-0.151153
-0.146006
-0.140428
-0.136427
-0.131954
-0.128827
-0.125213
-0.122765
-0.119831
-0.117918
-0.11553
-0.11404
-0.112092
-0.110939
-0.109347
-0.10846
-0.107155
-0.106474
-0.105396
-0.104869
-0.103966
-0.103546
-0.102772
-0.102415
-0.101724
-0.101388
-0.100736
-0.10038
-0.0997237
-0.0993023
-0.0985972
-0.0980655
-0.0972635
-0.0965726
-0.0956225
-0.0947192
-0.0935651
-0.168644
-0.15992
-0.153431
-0.146613
-0.14162
-0.13621
-0.132329
-0.12799
-0.124958
-0.121452
-0.119078
-0.116232
-0.114377
-0.11206
-0.110615
-0.108726
-0.107608
-0.106063
-0.105203
-0.103936
-0.103276
-0.10223
-0.101719
-0.100844
-0.100436
-0.099685
-0.0993391
-0.0986685
-0.098343
-0.097711
-0.097365
-0.096729
-0.0963204
-0.0956369
-0.0951215
-0.0943441
-0.0936746
-0.0927538
-0.0918784
-0.0907599
-0.163201
-0.15476
-0.148481
-0.141883
-0.137052
-0.131817
-0.128063
-0.123864
-0.12093
-0.117538
-0.115241
-0.112488
-0.110693
-0.108451
-0.107053
-0.105225
-0.104143
-0.102649
-0.101817
-0.100592
-0.0999527
-0.0989412
-0.0984467
-0.0975999
-0.0972059
-0.0964792
-0.0961447
-0.0954961
-0.0951814
-0.0945701
-0.0942356
-0.0936206
-0.0932256
-0.0925646
-0.0920664
-0.0913148
-0.0906675
-0.0897772
-0.0889307
-0.0878492
-0.157622
-0.14947
-0.143406
-0.137033
-0.132368
-0.127311
-0.123686
-0.11963
-0.116797
-0.113521
-0.111303
-0.108643
-0.10691
-0.104745
-0.103395
-0.101629
-0.100584
-0.0991413
-0.0983375
-0.0971543
-0.0965371
-0.0955601
-0.0950825
-0.0942646
-0.0938841
-0.0931822
-0.0928592
-0.0922329
-0.091929
-0.0913387
-0.0910158
-0.090422
-0.0900408
-0.0894027
-0.0889219
-0.0881965
-0.0875718
-0.0867126
-0.0858958
-0.0848521
-0.151837
-0.143984
-0.138143
-0.132005
-0.127511
-0.122641
-0.119149
-0.115243
-0.112514
-0.109359
-0.107223
-0.104662
-0.102992
-0.100907
-0.0996073
-0.0979066
-0.0969007
-0.095511
-0.094737
-0.0935976
-0.0930033
-0.0920626
-0.0916028
-0.0908153
-0.090449
-0.0897733
-0.0894624
-0.0888594
-0.088567
-0.0879988
-0.0876881
-0.0871165
-0.0867497
-0.0861356
-0.0856729
-0.0849747
-0.0843736
-0.0835466
-0.0827604
-0.0817558
-0.145926
-0.138379
-0.132766
-0.126867
-0.122548
-0.117868
-0.114512
-0.110758
-0.108136
-0.105103
-0.10305
-0.100589
-0.0989842
-0.0969803
-0.0957312
-0.0940968
-0.0931301
-0.0917945
-0.0910507
-0.0899556
-0.0893845
-0.0884805
-0.0880386
-0.0872817
-0.0869297
-0.0862804
-0.0859816
-0.0854022
-0.0851213
-0.0845754
-0.0842769
-0.0837279
-0.0833756
-0.0827857
-0.0823414
-0.0816708
-0.0810936
-0.0802994
-0.0795444
-0.0785796
-0.139821
-0.13259
-0.127212
-0.121561
-0.117424
-0.11294
-0.109725
-0.106129
-0.103616
-0.100712
-0.098745
-0.0963871
-0.09485
-0.0929305
-0.0917341
-0.0901685
-0.0892427
-0.0879634
-0.087251
-0.0862022
-0.0856554
-0.0847895
-0.0843664
-0.0836416
-0.0833047
-0.0826828
-0.0823969
-0.0818422
-0.0815733
-0.0810507
-0.0807651
-0.0802395
-0.0799024
-0.0793377
-0.0789125
-0.0782705
-0.0777179
-0.0769576
-0.0762348
-0.075311
-0.133605
-0.126696
-0.121557
-0.116157
-0.112204
-0.107919
-0.104847
-0.101411
-0.0990107
-0.096235
-0.094356
-0.092103
-0.0906344
-0.0888003
-0.0876572
-0.0861613
-0.0852767
-0.0840543
-0.0833737
-0.0823715
-0.0818491
-0.0810217
-0.0806175
-0.079925
-0.0796031
-0.079009
-0.0787359
-0.078206
-0.0779492
-0.07745
-0.0771773
-0.0766753
-0.0763534
-0.0758142
-0.0754082
-0.0747953
-0.0742677
-0.0735417
-0.0728517
-0.0719696
-0.127207
-0.120629
-0.115737
-0.110597
-0.106833
-0.102755
-0.0998303
-0.0965595
-0.0942745
-0.0916323
-0.0898438
-0.0876993
-0.0863015
-0.0845558
-0.0834679
-0.0820441
-0.0812022
-0.0800389
-0.0793913
-0.0784376
-0.0779405
-0.0771532
-0.0767687
-0.0761098
-0.0758037
-0.0752385
-0.0749788
-0.0744746
-0.0742306
-0.0737557
-0.0734965
-0.073019
-0.072713
-0.0722001
-0.0718141
-0.071231
-0.0707293
-0.0700386
-0.0693822
-0.0685429
-0.120711
-0.114469
-0.109827
-0.104949
-0.101378
-0.0975082
-0.0947334
-0.0916297
-0.0894616
-0.0869545
-0.0852575
-0.0832226
-0.0818963
-0.0802398
-0.0792076
-0.0778566
-0.0770579
-0.0759541
-0.0753396
-0.0744347
-0.0739631
-0.0732161
-0.0728514
-0.0722262
-0.0719358
-0.0713996
-0.0711533
-0.0706751
-0.0704437
-0.0699932
-0.0697474
-0.0692947
-0.0690045
-0.0685182
-0.0681522
-0.0675994
-0.0671237
-0.0664688
-0.0658464
-0.0650506
-0.114048
-0.108151
-0.103766
-0.0991582
-0.0957851
-0.0921291
-0.0895081
-0.0865764
-0.0845286
-0.0821605
-0.0805578
-0.0786358
-0.0773833
-0.0758188
-0.0748441
-0.0735682
-0.072814
-0.0717716
-0.0711915
-0.0703371
-0.069892
-0.0691867
-0.0688425
-0.0682523
-0.0679784
-0.0674722
-0.0672399
-0.0667885
-0.0665703
-0.0661452
-0.0659134
-0.0654861
-0.0652125
-0.0647535
-0.0644082
-0.0638864
-0.0634376
-0.0628194
-0.0622319
-0.0614806
-0.107301
-0.101753
-0.0976277
-0.0932924
-0.0901191
-0.0866796
-0.0842139
-0.0814558
-0.0795294
-0.0773016
-0.0757938
-0.0739857
-0.0728075
-0.0713358
-0.0704189
-0.0692186
-0.0685093
-0.0675287
-0.0669831
-0.0661793
-0.0657606
-0.0650972
-0.0647735
-0.0642184
-0.0639608
-0.0634848
-0.0632664
-0.062842
-0.0626368
-0.0622372
-0.0620193
-0.0616176
-0.0613605
-0.060929
-0.0606046
-0.0601141
-0.0596922
-0.0591111
-0.0585589
-0.0578526
-0.1004
-0.0952104
-0.0913509
-0.0872952
-0.0843266
-0.0811091
-0.0788026
-0.0762226
-0.0744207
-0.0723368
-0.0709267
-0.0692355
-0.0681337
-0.0667572
-0.0658998
-0.0647774
-0.0641141
-0.0631972
-0.0626871
-0.0619356
-0.0615444
-0.0609241
-0.0606217
-0.0601028
-0.0598623
-0.0594173
-0.0592135
-0.0588168
-0.0586254
-0.0582519
-0.0580486
-0.0576732
-0.0574331
-0.0570299
-0.0567268
-0.0562684
-0.0558742
-0.0553311
-0.054815
-0.0541547
-0.0934308
-0.0886013
-0.08501
-0.0812361
-0.0784738
-0.0754799
-0.0733338
-0.0709332
-0.0692566
-0.0673177
-0.0660057
-0.0644322
-0.0634071
-0.0621264
-0.0613288
-0.0602844
-0.0596675
-0.0588144
-0.05834
-0.0576408
-0.0572769
-0.0567
-0.0564187
-0.0559361
-0.0557124
-0.0552986
-0.0551091
-0.0547402
-0.0545623
-0.0542151
-0.0540262
-0.0536772
-0.0534541
-0.0530793
-0.0527977
-0.0523715
-0.0520052
-0.0515003
-0.0510206
-0.0504067
-0.086323
-0.0818617
-0.0785444
-0.0750584
-0.0725071
-0.0697417
-0.0677597
-0.0655425
-0.0639942
-0.0622035
-0.0609921
-0.059539
-0.0585925
-0.0574099
-0.0566736
-0.0557094
-0.05514
-0.0543524
-0.0539147
-0.0532693
-0.0529336
-0.0524011
-0.0521419
-0.0516965
-0.0514904
-0.0511086
-0.0509341
-0.0505938
-0.0504299
-0.0501096
-0.0499356
-0.0496138
-0.0494082
-0.0490625
-0.0488028
-0.0484097
-0.0480718
-0.0476059
-0.0471633
-0.0465968
-0.079161
-0.0750701
-0.0720284
-0.068832
-0.0664927
-0.0639572
-0.0621399
-0.060107
-0.0586876
-0.0570458
-0.0559352
-0.054603
-0.0537354
-0.0526513
-0.0519763
-0.0510924
-0.0505706
-0.0498486
-0.0494475
-0.048856
-0.0485484
-0.0480604
-0.0478229
-0.0474148
-0.0472261
-0.0468762
-0.0467165
-0.0464048
-0.0462548
-0.0459615
-0.0458022
-0.0455075
-0.0453194
-0.0450028
-0.0447651
-0.0444051
-0.0440958
-0.0436691
-0.0432638
-0.042745
-0.071876
-0.0681625
-0.0654017
-0.0625003
-0.0603773
-0.0580759
-0.0564268
-0.0545819
-0.0532939
-0.0518041
-0.0507965
-0.0495877
-0.0488007
-0.0478171
-0.0472051
-0.0464032
-0.0459301
-0.0452753
-0.0449118
-0.0443753
-0.0440968
-0.0436543
-0.0434393
-0.0430694
-0.0428986
-0.0425816
-0.0424372
-0.0421548
-0.0420192
-0.0417535
-0.0416095
-0.0413425
-0.0411723
-0.0408855
-0.0406704
-0.0403442
-0.0400639
-0.0396772
-0.0393099
-0.0388395
-0.0645523
-0.0612176
-0.0587386
-0.0561334
-0.0542271
-0.0521608
-0.0506802
-0.0490238
-0.0478675
-0.04653
-0.0456255
-0.0445404
-0.043834
-0.0429511
-0.0424018
-0.0416822
-0.0412576
-0.04067
-0.0403439
-0.0398625
-0.0396127
-0.0392157
-0.039023
-0.0386911
-0.0385382
-0.0382539
-0.0381245
-0.0378713
-0.03775
-0.0375118
-0.0373829
-0.0371436
-0.0369912
-0.0367341
-0.0365415
-0.0362491
-0.035998
-0.0356514
-0.0353222
-0.0349005
-0.0571213
-0.0541716
-0.051979
-0.0496748
-0.0479891
-0.0461617
-0.0448526
-0.0433879
-0.0423657
-0.0411832
-0.0403838
-0.0394245
-0.0388004
-0.03802
-0.0375349
-0.0368989
-0.0365241
-0.0360049
-0.0357172
-0.035292
-0.0350718
-0.0347213
-0.0345515
-0.0342586
-0.034124
-0.0338731
-0.0337594
-0.033536
-0.0334294
-0.0332193
-0.033106
-0.032895
-0.0327609
-0.0325341
-0.0323644
-0.0321064
-0.031885
-0.0315791
-0.0312886
-0.0309163
-0.0496674
-0.0471033
-0.0451975
-0.0431947
-0.0417297
-0.0401415
-0.0390039
-0.037731
-0.0368429
-0.0358154
-0.035121
-0.0342875
-0.0337455
-0.0330676
-0.0326463
-0.032094
-0.0317687
-0.0313178
-0.0310682
-0.0306991
-0.0305081
-0.0302039
-0.0300568
-0.0298026
-0.0296861
-0.0294686
-0.0293702
-0.0291765
-0.0290844
-0.0289023
-0.0288043
-0.0286214
-0.0285054
-0.028309
-0.028162
-0.0279385
-0.0277468
-0.0274816
-0.0272299
-0.0269072
-0.0421221
-0.0399489
-0.0383341
-0.0366369
-0.0353957
-0.0340502
-0.0330867
-0.0320085
-0.0312566
-0.0303864
-0.0297986
-0.029093
-0.0286345
-0.0280607
-0.0277045
-0.0272372
-0.0269623
-0.0265811
-0.0263703
-0.0260583
-0.0258973
-0.0256403
-0.0255165
-0.0253019
-0.025204
-0.0250204
-0.0249379
-0.0247746
-0.0246973
-0.0245438
-0.0244616
-0.0243074
-0.0242099
-0.0240442
-0.0239206
-0.023732
-0.0235703
-0.0233465
-0.023134
-0.0228614
-0.03457
-0.0327875
-0.0314633
-0.0300715
-0.0290539
-0.0279507
-0.027161
-0.0262772
-0.0256611
-0.0249479
-0.0244666
-0.0238885
-0.0235131
-0.0230431
-0.0227517
-0.0223691
-0.0221444
-0.0218324
-0.0216603
-0.021405
-0.0212737
-0.0210636
-0.0209628
-0.0207875
-0.0207079
-0.020558
-0.020491
-0.0203578
-0.0202951
-0.02017
-0.0201033
-0.0199777
-0.0198985
-0.0197635
-0.0196629
-0.0195092
-0.0193775
-0.019195
-0.0190218
-0.0187993
-0.0269427
-0.0255555
-0.0245252
-0.0234424
-0.0226512
-0.0217932
-0.0211795
-0.0204925
-0.020014
-0.01946
-0.0190864
-0.0186375
-0.0183465
-0.0179819
-0.0177563
-0.0174596
-0.0172859
-0.0170442
-0.0169114
-0.0167139
-0.0166129
-0.0164505
-0.0163732
-0.0162379
-0.0161771
-0.0160616
-0.0160106
-0.015908
-0.0158604
-0.0157641
-0.0157134
-0.0156167
-0.0155563
-0.0154524
-0.0153752
-0.0152568
-0.0151555
-0.0150147
-0.0148812
-0.0147094
-0.0193249
-0.0183317
-0.0175947
-0.0168199
-0.0162542
-0.0156407
-0.0152024
-0.0147114
-0.01437
-0.0139743
-0.0137081
-0.0133878
-0.0131807
-0.0129208
-0.0127605
-0.0125493
-0.0124262
-0.0122543
-0.0121605
-0.0120203
-0.0119492
-0.0118341
-0.01178
-0.0116843
-0.011642
-0.0115605
-0.0115252
-0.011453
-0.0114201
-0.0113524
-0.0113173
-0.0112494
-0.0112075
-0.0111344
-0.0110806
-0.0109973
-0.0109263
-0.0108271
-0.0107331
-0.0106119
-0.0116482
-0.0110528
-0.0106117
-0.0101479
-0.0098101
-0.00944343
-0.00918221
-0.00888933
-0.00868643
-0.00845088
-0.0082932
-0.00810297
-0.0079808
-0.00782684
-0.00773279
-0.00760806
-0.00753631
-0.00743519
-0.00738101
-0.00729888
-0.00725829
-0.00719122
-0.00716078
-0.00710533
-0.00708196
-0.00703501
-0.00701583
-0.00697445
-0.00695671
-0.00691806
-0.00689901
-0.00686027
-0.00683712
-0.00679536
-0.00676516
-0.00671731
-0.00667691
-0.00661967
-0.00656562
-0.00649536
-0.00399736
-0.0037978
-0.00365116
-0.00349678
-0.00338548
-0.00326434
-0.00317921
-0.00308327
-0.003018
-0.00294157
-0.00289165
-0.00283061
-0.0027927
-0.00274393
-0.0027155
-0.0026766
-0.00265566
-0.0026247
-0.00260964
-0.00258505
-0.00257451
-0.00255497
-0.00254781
-0.00253216
-0.00252734
-0.00251454
-0.00251112
-0.00250022
-0.00249729
-0.00248735
-0.00248404
-0.00247416
-0.00246956
-0.00245882
-0.00245199
-0.00243942
-0.00242938
-0.00241393
-0.0023996
-0.00238015
0.00369591
0.00349681
0.00334683
0.00318954
0.00307253
0.00294626
0.00285385
0.00275129
0.00267773
0.0025937
0.00253484
0.00246555
0.00241832
0.0023609
0.00232295
0.00227516
0.00224463
0.00220467
0.00218003
0.00214641
0.00212636
0.00209779
0.0020812
0.00205653
0.00204237
0.00202054
0.00200783
0.00198784
0.0019756
0.00195644
0.00194372
0.00192437
0.00191013
0.00188954
0.00187271
0.00184973
0.00182913
0.00180253
0.00177687
0.00174529
0.011347
0.010752
0.0103075
0.00984078
0.00949721
0.00912539
0.00885689
0.00855737
0.00834617
0.008103
0.00793637
0.00773788
0.00760639
0.00744377
0.0073402
0.00720657
0.00712522
0.0070151
0.00695133
0.00686017
0.00681006
0.00673396
0.00669409
0.00662962
0.00659691
0.00654093
0.00651246
0.00646199
0.00643495
0.00638708
0.00635864
0.00631043
0.00627765
0.00622605
0.00618585
0.00612761
0.00607666
0.00600828
0.00594291
0.00586053
0.019024
0.0180311
0.0172907
0.0165129
0.0159415
0.0153228
0.0148771
0.0143795
0.0140297
0.0136264
0.0133512
0.0130227
0.0128062
0.0125376
0.0123678
0.0121477
0.012015
0.0118341
0.0117307
0.0115814
0.0115008
0.0113767
0.0113131
0.0112084
0.0111568
0.0110662
0.0110217
0.0109404
0.0108982
0.0108213
0.0107768
0.0106995
0.0106479
0.010565
0.0105013
0.0104075
0.010326
0.0102157
0.0101104
0.00997714
0.0266423
0.0252553
0.0242216
0.0231357
0.0223386
0.0214754
0.0208544
0.0201606
0.0196738
0.0191121
0.0187296
0.0182724
0.017972
0.0175986
0.0173635
0.0170579
0.0168745
0.0166238
0.0164814
0.0162749
0.0161643
0.0159929
0.0159061
0.0157618
0.0156916
0.0155671
0.0155069
0.0153952
0.0153383
0.0152328
0.0151727
0.0150666
0.0149966
0.0148829
0.0147958
0.014667
0.0145553
0.0144034
0.0142586
0.0140747
0.0342703
0.0324879
0.03116
0.029765
0.0287416
0.027633
0.026836
0.0259454
0.0253209
0.0246
0.0241096
0.0235232
0.0231384
0.0226597
0.0223588
0.0219672
0.0217328
0.0214117
0.02123
0.0209657
0.0208248
0.0206057
0.0204954
0.020311
0.0202221
0.0200632
0.019987
0.0198447
0.0197728
0.0196385
0.0195625
0.0194274
0.0193387
0.0191939
0.0190834
0.0189194
0.0187773
0.0185837
0.0183993
0.0181648
0.0418233
0.03965
0.0380314
0.0363309
0.0350838
0.0337328
0.0327618
0.0316768
0.0309164
0.0300384
0.0294417
0.0287277
0.0282597
0.0276771
0.0273114
0.0268351
0.0265505
0.0261602
0.0259398
0.0256187
0.0254481
0.025182
0.0250488
0.0248251
0.0247179
0.0245253
0.0244335
0.0242612
0.0241746
0.024012
0.0239205
0.0237569
0.0236499
0.0234746
0.023341
0.0231422
0.0229701
0.0227353
0.0225117
0.0222271
0.0493696
0.0468051
0.0448955
0.0428892
0.0414181
0.0398244
0.0386792
0.0373995
0.0365029
0.0354675
0.034764
0.0339221
0.0333706
0.0326839
0.032253
0.0316916
0.0313565
0.0308966
0.0306373
0.0302591
0.0300585
0.0297452
0.0295886
0.0293254
0.0291996
0.028973
0.0288654
0.0286627
0.0285613
0.0283701
0.0282629
0.0280707
0.0279453
0.0277392
0.0275824
0.0273487
0.0271467
0.0268706
0.0266078
0.0262732
0.0568247
0.0538744
0.0516778
0.0493699
0.047678
0.045845
0.0445283
0.0430565
0.0420258
0.0408353
0.0400268
0.039059
0.0384254
0.0376361
0.0371413
0.0364962
0.0361117
0.0355834
0.0352859
0.0348516
0.0346217
0.0342621
0.0340829
0.0337809
0.0336369
0.0333771
0.0332541
0.0330218
0.032906
0.0326868
0.0325643
0.032344
0.0322005
0.0319642
0.0317847
0.0315167
0.0312851
0.0309683
0.0306669
0.0302828
0.0642572
0.0609216
0.0584383
0.0558292
0.0539167
0.0518445
0.0503562
0.0486927
0.0475278
0.0461822
0.0452685
0.0441748
0.0434589
0.042567
0.042008
0.0412792
0.0408449
0.040248
0.0399122
0.0394216
0.0391622
0.0387561
0.0385539
0.0382129
0.0380506
0.0377574
0.0376188
0.0373566
0.0372261
0.0369789
0.0368408
0.0365923
0.0364306
0.0361641
0.0359618
0.0356594
0.0353982
0.0350409
0.0347009
0.0342675
0.0715825
0.0678677
0.0651024
0.062197
0.0600675
0.0577602
0.0561033
0.0542511
0.0529544
0.0514565
0.0504396
0.0492221
0.0484255
0.0474329
0.0468111
0.0460001
0.0455171
0.044853
0.0444797
0.043934
0.0436458
0.0431942
0.0429697
0.0425907
0.0424106
0.0420846
0.041931
0.0416396
0.0414949
0.0412202
0.0410672
0.040791
0.0406116
0.0403154
0.0400907
0.0397546
0.0394644
0.0390671
0.0386891
0.0382071
0.0788693
0.0747767
0.0717304
0.0685296
0.0661838
0.063642
0.0618169
0.0597766
0.0583484
0.0566984
0.0555784
0.0542375
0.0533602
0.052267
0.0515822
0.050689
0.0501573
0.049426
0.049015
0.0484142
0.048097
0.0475998
0.0473528
0.0469355
0.0467375
0.0463787
0.0462097
0.0458891
0.0457301
0.0454278
0.0452595
0.0449558
0.0447585
0.0444326
0.0441856
0.0438158
0.0434966
0.0430595
0.0426436
0.0421134
0.0860333
0.08157
0.0782478
0.0747572
0.0721991
0.0694274
0.0674373
0.0652126
0.0636554
0.0618564
0.0606355
0.0591736
0.0582173
0.0570256
0.0562793
0.0553058
0.0547264
0.0539295
0.0534818
0.0528271
0.0524818
0.05194
0.0516712
0.0512167
0.0510013
0.0506105
0.0504268
0.0500776
0.0499048
0.0495756
0.0493927
0.0490619
0.0488473
0.0484924
0.0482235
0.0478208
0.0474732
0.046997
0.0465439
0.0459662
0.0931433
0.0883113
0.0847149
0.0809361
0.0781669
0.0751664
0.0730122
0.0706039
0.0689184
0.066971
0.0656495
0.064067
0.063032
0.0617421
0.0609345
0.0598807
0.0592537
0.0583912
0.0579068
0.0571983
0.0568246
0.0562384
0.0559476
0.0554558
0.0552228
0.0548
0.0546014
0.0542237
0.0540368
0.0536807
0.0534829
0.0531251
0.0528931
0.0525093
0.0522186
0.051783
0.0514071
0.0508921
0.0504022
0.0497773
0.100115
0.0949225
0.0910575
0.0869967
0.084021
0.0807967
0.0784819
0.0758941
0.0740831
0.0719906
0.0705709
0.0688706
0.0677589
0.066373
0.0655056
0.0643736
0.0637003
0.0627738
0.0622538
0.0614928
0.0610917
0.0604622
0.0601501
0.0596221
0.0593722
0.0589183
0.0587053
0.0582998
0.0580994
0.0577173
0.0575052
0.0571211
0.0568722
0.0564601
0.0561481
0.0556805
0.055277
0.0547239
0.0541978
0.0535267
0.107018
0.101467
0.0973362
0.0929955
0.0898148
0.0863683
0.0838942
0.0811282
0.0791925
0.076956
0.0754385
0.0736213
0.0724331
0.0709519
0.0700248
0.068815
0.0680954
0.0671052
0.0665495
0.0657363
0.0653077
0.0646349
0.0643016
0.0637373
0.0634703
0.0629853
0.0627578
0.0623246
0.0621106
0.0617023
0.0614758
0.0610655
0.0607998
0.0603596
0.0600264
0.0595269
0.0590959
0.0585052
0.0579432
0.0572264
0.113768
0.107868
0.103477
0.098863
0.0954824
0.0918193
0.0891897
0.0862498
0.0841927
0.0818157
0.0802032
0.0782719
0.0770093
0.0754353
0.0744503
0.0731647
0.0724003
0.0713482
0.070758
0.0698939
0.0694388
0.0687241
0.0683702
0.0677708
0.0674875
0.0669724
0.066731
0.0662709
0.0660439
0.0656103
0.0653699
0.0649342
0.0646521
0.0641846
0.0638308
0.0633002
0.0628425
0.0622149
0.061618
0.0608564
0.120435
0.114189
0.10954
0.104656
0.101078
0.0971998
0.0944163
0.0913043
0.0891268
0.0866107
0.0849038
0.0828595
0.081523
0.0798569
0.0788143
0.0774536
0.0766445
0.0755309
0.0749062
0.0739916
0.07351
0.0727535
0.072379
0.0717446
0.0714448
0.0708996
0.0706442
0.0701573
0.0699171
0.0694583
0.069204
0.068743
0.0684445
0.0679499
0.0675756
0.0670143
0.06653
0.0658661
0.0652345
0.0644288
0.126934
0.120351
0.115453
0.110306
0.106534
0.102448
0.0995149
0.0962355
0.093941
0.0912897
0.0894912
0.0873371
0.0859291
0.0841736
0.0830752
0.0816415
0.0807893
0.0796161
0.0789581
0.0779947
0.0774875
0.0766906
0.0762963
0.0756281
0.0753125
0.0747384
0.0744696
0.0739568
0.0737041
0.0732209
0.0729533
0.0724677
0.0721536
0.0716326
0.0712385
0.0706472
0.0701373
0.0694379
0.0687727
0.0679238
0.133335
0.126421
0.121275
0.115868
0.111907
0.107615
0.104534
0.101089
0.0986787
0.0958938
0.0940047
0.091742
0.0902631
0.0884191
0.0872654
0.0857595
0.0848644
0.083632
0.082941
0.081929
0.0813963
0.0805594
0.0801453
0.0794435
0.079112
0.078509
0.0782268
0.0776883
0.0774229
0.0769154
0.0766345
0.0761246
0.0757948
0.0752478
0.074834
0.0742131
0.0736777
0.0729434
0.0722449
0.0713537
0.139555
0.132319
0.126934
0.121275
0.11713
0.112638
0.109413
0.105808
0.103286
0.100372
0.0983953
0.0960275
0.09448
0.0925505
0.0913435
0.0897678
0.0888313
0.0875419
0.086819
0.0857603
0.0852031
0.0843276
0.0838945
0.0831603
0.0828138
0.0821831
0.081888
0.0813248
0.0810473
0.0805166
0.0802228
0.0796895
0.0793446
0.0787725
0.0783397
0.0776903
0.0771302
0.076362
0.0756313
0.0746988
0.145664
0.138111
0.13249
0.126584
0.122257
0.117568
0.114203
0.11044
0.107807
0.104766
0.102702
0.100231
0.0986158
0.0966018
0.095342
0.0936973
0.0927199
0.0913741
0.0906196
0.0895146
0.088933
0.0880192
0.0875672
0.086801
0.0864394
0.085781
0.0854731
0.0848853
0.0845958
0.0840419
0.0837354
0.0831789
0.082819
0.082222
0.0817705
0.0810928
0.0805084
0.0797068
0.0789445
0.0779715
0.151579
0.143719
0.137871
0.131725
0.127223
0.122344
0.118843
0.114928
0.112189
0.109024
0.106877
0.104306
0.102626
0.10053
0.0992197
0.0975087
0.096492
0.0950919
0.0943072
0.0931576
0.0925529
0.0916023
0.0911323
0.0903353
0.0899593
0.0892746
0.0889546
0.0883432
0.0880422
0.0874662
0.0871476
0.0865687
0.0861946
0.0855736
0.0851041
0.0843992
0.0837914
0.0829576
0.0821645
0.0811524
0.157369
0.149209
0.143137
0.136757
0.132083
0.127017
0.123382
0.119317
0.116474
0.113188
0.110959
0.10829
0.106545
0.10437
0.103009
0.101233
0.100177
0.098724
0.0979093
0.0967158
0.096088
0.0951011
0.0946131
0.0937857
0.0933954
0.0926846
0.0923523
0.0917176
0.0914052
0.0908072
0.0904765
0.0898757
0.0894873
0.0888428
0.0883554
0.0876238
0.086993
0.0861276
0.0853045
0.084254
0.162953
0.154504
0.148217
0.141611
0.136771
0.131526
0.127762
0.123554
0.12061
0.117208
0.114901
0.112137