/*--------------------------------*- C++ -*----------------------------------*\
| =========                 |                                                 |
| \\      /  F ield         | foam-extend: Open Source CFD                    |
|  \\    /   O peration     | Version:  3.0                                   |
|   \\  /    A nd           | Web:         http://www.extend-project.de       |
|    \\/     M anipulation  |                                                 |
\*---------------------------------------------------------------------------*/
FoamFile
{
    version     2.0;
    format      ascii;
    class       volVectorField;
    location    "17";
    object      u;
}
// * * * * * * * * * * * * * * * * * * * * * * * * * * * * * * * * * * * * * //

dimensions      [0 0 0 0 0 0 0];

internalField   nonuniform List<vector> 
7680
(
(0.0733232 -0.0318329 1.91242e-19)
(0.192646 -0.0280883 2.15172e-19)
(0.293733 -0.0249004 9.91677e-20)
(0.379604 -0.0221661 1.69591e-19)
(0.453438 -0.0198129 7.22058e-20)
(0.516948 -0.0177736 2.04161e-19)
(0.572244 -0.0160013 1.19113e-19)
(0.6203 -0.0144512 2.06404e-19)
(0.662594 -0.0130919 3.36473e-19)
(0.699661 -0.0118928 1.41971e-19)
(0.732587 -0.0108328 8.94738e-20)
(0.76164 -0.00989046 1.01479e-19)
(0.787653 -0.00905114 5.80984e-20)
(0.810727 -0.00830004 -1.11916e-19)
(0.83153 -0.00762656 2.3387e-19)
(0.850051 -0.00702044 3.42875e-19)
(0.866848 -0.00647377 3.0991e-19)
(0.881836 -0.00597958 1.45961e-19)
(0.895497 -0.00553167 1.82745e-19)
(0.907695 -0.00512551 -2.74113e-19)
(0.91886 -0.00475596 7.08064e-20)
(0.928816 -0.0044204 1.28148e-19)
(0.937959 -0.00411432 2.38085e-19)
(0.946085 -0.00383666 1.60076e-19)
(0.953563 -0.0035832 1.9667e-19)
(0.960169 -0.00335424 4.43539e-19)
(0.966255 -0.0031456 6.12123e-19)
(0.971578 -0.00295881 2.0986e-19)
(0.976478 -0.00278955 4.13602e-20)
(0.980697 -0.00264049 1.89412e-19)
(0.984569 -0.00250701 3.58992e-19)
(0.987821 -0.0023928 3.1726e-19)
(0.990785 -0.00229264 8.25247e-20)
(0.993172 -0.0022108 -4.82786e-19)
(0.995316 -0.00214003 -1.35992e-19)
(0.996913 -0.00208157 8.26225e-20)
(0.9983 -0.00201594 6.31157e-19)
(0.999158 -0.00191295 2.10308e-19)
(0.999833 -0.00166064 1.0255e-19)
(0.999995 -0.000971194 1.42913e-19)
(0.0775023 -0.0956807 1.4866e-19)
(0.196333 -0.0844397 -9.74496e-20)
(0.297003 -0.0748877 1.26256e-19)
(0.382518 -0.0667053 2.44606e-19)
(0.456045 -0.0596669 2.84865e-20)
(0.519289 -0.0535687 1.01234e-20)
(0.574355 -0.0482671 1.27335e-20)
(0.62221 -0.0436271 1.9635e-19)
(0.664327 -0.0395542 5.42632e-20)
(0.701238 -0.0359566 3.12935e-20)
(0.734026 -0.0327706 1.20259e-19)
(0.762956 -0.0299327 1.96314e-19)
(0.78886 -0.0273987 2.53247e-19)
(0.811836 -0.0251242 1.6503e-19)
(0.83255 -0.0230776 4.36794e-19)
(0.850992 -0.0212276 5.91871e-19)
(0.867717 -0.0195509 5.18472e-19)
(0.882639 -0.0180255 -7.0111e-20)
(0.896241 -0.0166334 -1.98394e-19)
(0.908384 -0.0153595 -3.45522e-19)
(0.919498 -0.014189 2.32939e-19)
(0.929408 -0.0131123 3.02909e-19)
(0.938507 -0.0121164 2.18995e-19)
(0.946593 -0.0111958 4.99039e-20)
(0.954034 -0.0103389 1.02616e-18)
(0.960605 -0.00954327 5.27236e-19)
(0.966657 -0.00879788 2.58797e-19)
(0.971949 -0.00810327 -2.87474e-21)
(0.976819 -0.00744824 1.71452e-19)
(0.981009 -0.00683586 3.04653e-19)
(0.984854 -0.0062545 4.69379e-19)
(0.98808 -0.00570939 9.55558e-19)
(0.991018 -0.00518801 8.20697e-19)
(0.993381 -0.00469709 -5.59461e-19)
(0.995501 -0.0042218 -2.38646e-19)
(0.997074 -0.00376686 -2.95441e-19)
(0.998436 -0.00330556 1.10291e-18)
(0.99927 -0.00281367 2.85215e-19)
(0.999915 -0.0021765 2.80864e-19)
(1.00003 -0.00112434 8.48304e-19)
(0.0858483 -0.159118 2.99279e-19)
(0.203699 -0.140429 -1.58975e-19)
(0.303536 -0.124554 4.37149e-19)
(0.388338 -0.110959 4.30966e-20)
(0.461253 -0.0992653 4.371e-19)
(0.523967 -0.0891344 6.43252e-20)
(0.578571 -0.0803263 8.56589e-20)
(0.626023 -0.0726162 5.9255e-20)
(0.667786 -0.0658472 -8.11735e-19)
(0.704385 -0.0598665 -4.03865e-19)
(0.736896 -0.0545683 4.34429e-19)
(0.76558 -0.0498469 3.21813e-19)
(0.791263 -0.0456291 1.90784e-20)
(0.814041 -0.0418409 2.61184e-19)
(0.834578 -0.03843 7.94944e-19)
(0.852858 -0.0353441 1.11118e-18)
(0.869437 -0.0325445 -4.77095e-19)
(0.884226 -0.0299945 5.56455e-19)
(0.897706 -0.0276641 -6.25892e-19)
(0.909737 -0.025528 8.29652e-20)
(0.920747 -0.0235617 1.94049e-19)
(0.930562 -0.0217483 6.88009e-19)
(0.939573 -0.0200669 3.72163e-19)
(0.947576 -0.0185073 1.38777e-18)
(0.95494 -0.0170506 4.20368e-19)
(0.961438 -0.0156918 7.12212e-19)
(0.967422 -0.0144129 1.28841e-19)
(0.972648 -0.0132134 7.05209e-19)
(0.977456 -0.0120754 4.21842e-19)
(0.981588 -0.0110024 5.1495e-19)
(0.985376 -0.00997575 4.28414e-19)
(0.988547 -0.0090022 1.92023e-19)
(0.991432 -0.00806198 1.03529e-18)
(0.993743 -0.00716436 1.36074e-18)
(0.995813 -0.00628692 2.52436e-20)
(0.997337 -0.00543793 8.53152e-20)
(0.99865 -0.00458349 8.30384e-19)
(0.999435 -0.00370547 -1.44522e-19)
(1.00003 -0.00268646 -1.04835e-19)
(1.00008 -0.0012752 -2.80589e-19)
(0.0983255 -0.221873 3.20692e-19)
(0.214711 -0.195816 -2.49135e-19)
(0.313304 -0.173686 2.66512e-19)
(0.397041 -0.154736 3.71523e-19)
(0.469039 -0.138439 6.03856e-19)
(0.53096 -0.124318 -2.22701e-20)
(0.584875 -0.112041 1.77193e-19)
(0.631724 -0.101295 2.86884e-19)
(0.672957 -0.0918584 -1.92988e-19)
(0.709088 -0.0835203 4.78289e-19)
(0.741185 -0.0761325 7.23117e-19)
(0.769499 -0.069548 6.16133e-19)
(0.794853 -0.0636645 5.73584e-19)
(0.817334 -0.0583789 2.00096e-19)
(0.837603 -0.0536182 -8.31665e-19)
(0.855642 -0.0493096 -2.65629e-19)
(0.872001 -0.0453991 -1.05998e-18)
(0.88659 -0.0418354 -5.99733e-19)
(0.899886 -0.0385768 9.17737e-19)
(0.911749 -0.0355875 -2.2896e-19)
(0.922604 -0.0328338 1.04933e-18)
(0.932275 -0.0302916 7.20851e-19)
(0.941152 -0.0279319 6.91728e-19)
(0.949031 -0.02574 -3.18851e-20)
(0.956277 -0.0236897 1.13335e-19)
(0.962666 -0.0217735 -5.69717e-19)
(0.968546 -0.0199666 -1.09419e-18)
(0.973674 -0.0182675 -9.12349e-20)
(0.978388 -0.0166515 5.11575e-19)
(0.98243 -0.0151226 1.24701e-18)
(0.986132 -0.0136551 8.02262e-19)
(0.98922 -0.0122576 -1.76406e-18)
(0.992025 -0.0109029 -3.58329e-19)
(0.994259 -0.00960285 3.43269e-18)
(0.996252 -0.00832763 -1.03649e-18)
(0.997702 -0.00708909 -4.32709e-19)
(0.998942 -0.00584614 4.27019e-19)
(0.999654 -0.00458685 -1.66436e-18)
(1.00017 -0.00319081 -3.17621e-19)
(1.00014 -0.0014249 1.60118e-19)
(0.11488 -0.283678 7.53185e-19)
(0.229321 -0.250365 6.44501e-19)
(0.326264 -0.222075 -5.67601e-20)
(0.408587 -0.197851 1.70953e-18)
(0.479371 -0.177019 5.91756e-19)
(0.540239 -0.15897 1.17377e-19)
(0.59324 -0.143277 3.03079e-19)
(0.639288 -0.129539 2.56255e-19)
(0.679818 -0.117476 -1.16233e-19)
(0.715328 -0.106816 5.15605e-19)
(0.746874 -0.0973707 7.31877e-19)
(0.774697 -0.0889512 9.90631e-19)
(0.799612 -0.0814272 1.4203e-18)
(0.8217 -0.0746668 -4.78382e-19)
(0.841614 -0.0685768 -1.33966e-18)
(0.859331 -0.0630639 -1.94104e-18)
(0.875397 -0.0580594 6.99344e-19)
(0.88972 -0.0534973 -4.39e-19)
(0.902772 -0.0493244 -7.2432e-20)
(0.914411 -0.0454948 -1.23209e-19)
(0.925059 -0.0419654 1.02613e-18)
(0.934539 -0.0387052 7.80043e-19)
(0.943237 -0.0356774 -5.66549e-19)
(0.95095 -0.0328626 2.9369e-19)
(0.958041 -0.0302275 7.67221e-19)
(0.964283 -0.0277623 4.5916e-19)
(0.970025 -0.0254351 -1.73617e-18)
(0.975022 -0.0232438 -7.37001e-19)
(0.979611 -0.0211568 5.30524e-19)
(0.983533 -0.0191787 -1.50054e-18)
(0.98712 -0.017277 -1.3641e-18)
(0.990098 -0.0154618 -1.13006e-18)
(0.992795 -0.0136989 -2.68279e-18)
(0.994925 -0.0120028 6.01957e-19)
(0.996817 -0.0103361 -2.64918e-18)
(0.998168 -0.00871452 -2.13669e-18)
(0.999311 -0.00708971 -1.98589e-18)
(0.999928 -0.005456 -3.29099e-18)
(1.00035 -0.00368945 -2.02616e-19)
(1.00021 -0.00157425 1.83605e-18)
(0.135442 -0.344266 9.8667e-19)
(0.247468 -0.30384 9.64502e-19)
(0.34236 -0.269512 1.45438e-18)
(0.422929 -0.240119 4.16429e-19)
(0.492204 -0.214841 4.15522e-19)
(0.551765 -0.19294 1.59046e-18)
(0.603629 -0.173898 1.07512e-18)
(0.648682 -0.157229 3.7775e-19)
(0.688339 -0.142591 -5.16349e-19)
(0.723077 -0.129655 -2.82009e-19)
(0.753939 -0.118192 7.6875e-19)
(0.781152 -0.107974 3.33513e-19)
(0.805522 -0.0988413 1.65415e-18)
(0.82712 -0.0906351 4.4898e-19)
(0.846592 -0.0832418 -2.21798e-18)
(0.863909 -0.0765484 -1.75733e-18)
(0.879613 -0.0704712 4.91184e-19)
(0.893604 -0.0649301 -1.38745e-18)
(0.906352 -0.0598608 -8.80629e-19)
(0.917712 -0.0552073 -1.08378e-18)
(0.928103 -0.0509174 -2.49323e-18)
(0.937344 -0.0469533 -2.77524e-18)
(0.945821 -0.0432703 9.67634e-19)
(0.953327 -0.0398447 9.07443e-19)
(0.960223 -0.0366362 -2.6254e-18)
(0.966284 -0.0336325 -1.4641e-18)
(0.971852 -0.0307951 -1.15144e-18)
(0.976686 -0.028121 -2.32381e-18)
(0.981119 -0.0255722 -1.01932e-18)
(0.984893 -0.0231537 -1.66953e-18)
(0.988336 -0.0208262 8.82243e-19)
(0.991176 -0.0186016 1.10359e-18)
(0.99374 -0.0164386 -1.19919e-18)
(0.995741 -0.0143546 1.03186e-19)
(0.997506 -0.0123046 -4.35556e-18)
(0.998735 -0.0103084 5.28032e-19)
(0.999758 -0.0083103 1.6113e-18)
(1.00026 -0.00631091 -2.16068e-18)
(1.00055 -0.004182 -2.65355e-20)
(1.00029 -0.00172381 1.97933e-18)
(0.159922 -0.40338 1.2467e-18)
(0.269074 -0.356014 -3.59466e-19)
(0.361525 -0.315794 8.89423e-19)
(0.440005 -0.281358 8.69323e-19)
(0.507483 -0.251742 -1.61483e-19)
(0.565488 -0.226084 -3.53165e-19)
(0.615999 -0.203775 -6.0693e-20)
(0.659867 -0.184245 6.36143e-19)
(0.698484 -0.167095 6.25742e-19)
(0.732303 -0.151938 -1.54129e-18)
(0.76235 -0.138507 -1.60592e-18)
(0.788837 -0.126533 -1.22493e-18)
(0.812558 -0.115832 1.37131e-18)
(0.833571 -0.106215 1.41614e-18)
(0.852518 -0.0975502 -9.20112e-19)
(0.869358 -0.0897048 -9.76235e-19)
(0.884628 -0.082581 -1.47429e-18)
(0.898225 -0.0760848 -1.9755e-18)
(0.910611 -0.0701408 -1.50546e-18)
(0.921639 -0.0646834 -1.37126e-18)
(0.931722 -0.0596513 -2.81248e-18)
(0.940679 -0.0550002 -1.17085e-18)
(0.948891 -0.0506778 1.01812e-18)
(0.956151 -0.0466562 3.68993e-19)
(0.962816 -0.0428881 -1.12693e-18)
(0.968659 -0.0393588 -3.27195e-18)
(0.974021 -0.0360235 3.58348e-19)
(0.97866 -0.0328783 -2.41074e-18)
(0.982907 -0.0298788 -1.20851e-18)
(0.986504 -0.0270305 -9.30809e-19)
(0.989776 -0.0242876 5.87989e-18)
(0.992452 -0.0216637 1.89315e-18)
(0.994857 -0.0191107 1.26875e-18)
(0.996704 -0.0166486 1.28353e-18)
(0.998319 -0.0142255 2.09128e-18)
(0.999402 -0.0118648 1.60697e-18)
(1.00028 -0.00950373 1.53677e-18)
(1.00064 -0.00714909 1.47398e-18)
(1.00079 -0.00466756 5.25652e-18)
(1.00038 -0.00187371 1.05066e-18)
(0.188216 -0.460767 1.45705e-18)
(0.294045 -0.406663 1.04973e-19)
(0.383676 -0.360723 6.99563e-19)
(0.459741 -0.321391 -3.50209e-19)
(0.525143 -0.287565 -1.04472e-18)
(0.581349 -0.25826 -4.77641e-19)
(0.630296 -0.232779 6.87011e-19)
(0.672795 -0.210472 2.15293e-19)
(0.710209 -0.190883 7.75853e-19)
(0.742965 -0.173571 -7.43352e-19)
(0.77207 -0.158229 8.45582e-19)
(0.797718 -0.144551 -1.02994e-18)
(0.820688 -0.132326 4.3172e-19)
(0.841027 -0.12134 -2.14988e-19)
(0.859365 -0.111441 1.10511e-18)
(0.875654 -0.102477 -1.38284e-20)
(0.890424 -0.0943371 7.35749e-19)
(0.903563 -0.0869136 -1.33474e-18)
(0.915531 -0.0801204 2.30744e-18)
(0.926173 -0.0738824 1.58256e-18)
(0.935902 -0.0681298 -1.69009e-18)
(0.94453 -0.0628117 -6.71799e-19)
(0.952436 -0.0578684 -1.16045e-18)
(0.959411 -0.053268 9.37924e-19)
(0.965807 -0.0489565 8.98177e-19)
(0.971399 -0.0449169 -1.82108e-18)
(0.976523 -0.041098 3.18629e-18)
(0.980937 -0.0374954 2.8764e-18)
(0.984968 -0.0340583 -6.70479e-18)
(0.98836 -0.0307928 -3.66276e-18)
(0.991435 -0.0276467 -1.65539e-18)
(0.993921 -0.0246354 5.15157e-19)
(0.996142 -0.0217041 3.6612e-18)
(0.997811 -0.0188757 -3.69865e-18)
(0.999252 -0.0160909 2.17714e-19)
(1.00017 -0.0133777 3.15604e-18)
(1.00088 -0.0106656 2.55566e-18)
(1.00107 -0.0079678 9.52549e-19)
(1.00107 -0.00514483 2.34084e-18)
(1.00048 -0.00202381 -1.23691e-18)
(0.220203 -0.516179 1.52189e-18)
(0.322276 -0.45557 5.65864e-19)
(0.408719 -0.404108 4.73864e-19)
(0.482054 -0.360048 -6.75481e-19)
(0.545108 -0.322157 6.31081e-19)
(0.59928 -0.289329 1.14604e-18)
(0.646459 -0.260786 7.11205e-20)
(0.68741 -0.235797 3.90227e-19)
(0.723465 -0.213853 8.90479e-19)
(0.755019 -0.194459 5.87559e-19)
(0.78306 -0.177272 9.3075e-19)
(0.807757 -0.16195 1.52892e-18)
(0.829878 -0.148254 6.83575e-19)
(0.849454 -0.135945 1.30507e-18)
(0.867104 -0.124854 2.6896e-18)
(0.88277 -0.11481 -1.84295e-19)
(0.896973 -0.105689 5.55429e-19)
(0.909595 -0.09737 -6.23573e-19)
(0.92109 -0.0897566 2.87967e-18)
(0.931298 -0.0827648 2.58414e-18)
(0.940624 -0.0763163 4.94122e-19)
(0.948881 -0.070354 8.55255e-19)
(0.956441 -0.0648111 -1.37824e-18)
(0.963092 -0.0596517 -1.35748e-18)
(0.969186 -0.0548153 1.0104e-18)
(0.974493 -0.0502828 1.44122e-18)
(0.979347 -0.045997 2.23777e-18)
(0.983506 -0.0419526 4.83154e-18)
(0.987294 -0.0380928 -1.40209e-18)
(0.990454 -0.0344245 2.95987e-18)
(0.993306 -0.0308892 -3.27347e-19)
(0.995578 -0.0275041 -2.15816e-18)
(0.997591 -0.0242078 -8.3665e-19)
(0.99906 -0.0210263 -2.45907e-18)
(1.0003 -0.0178934 -1.45123e-18)
(1.00103 -0.014841 -5.02225e-19)
(1.00155 -0.0117914 -4.48542e-18)
(1.00156 -0.00876386 -2.45791e-18)
(1.00137 -0.00561205 8.14682e-18)
(1.00059 -0.00217355 -8.79983e-19)
(0.255745 -0.56938 -9.82483e-20)
(0.353645 -0.502526 -6.81611e-19)
(0.436545 -0.445761 1.06167e-18)
(0.506847 -0.397162 1.21049e-18)
(0.567293 -0.355368 5.66208e-19)
(0.619205 -0.319159 -1.63864e-18)
(0.664419 -0.287675 -9.84478e-20)
(0.70365 -0.260112 5.01815e-19)
(0.738194 -0.235907 1.44875e-18)
(0.768413 -0.214515 1.72509e-18)
(0.79527 -0.195557 -1.12519e-18)
(0.818913 -0.178654 -1.21577e-18)
(0.84009 -0.163546 1.28093e-19)
(0.858817 -0.149968 -1.77253e-18)
(0.875702 -0.137732 8.96204e-19)
(0.890676 -0.126651 1.77986e-18)
(0.90425 -0.116588 -3.97505e-19)
(0.916297 -0.107409 1.07704e-18)
(0.927266 -0.0990083 2.2092e-18)
(0.936989 -0.0912926 1.26694e-18)
(0.945869 -0.0841758 1.1501e-18)
(0.953712 -0.077595 2.83249e-19)
(0.960887 -0.0714762 9.01745e-19)
(0.96718 -0.06578 -1.73314e-18)
(0.972937 -0.0604395 -1.84367e-18)
(0.977927 -0.0554337 4.97288e-18)
(0.982483 -0.0506994 3.37931e-19)
(0.986359 -0.0462308 -2.55037e-18)
(0.989876 -0.0419653 -7.63397e-18)
(0.992779 -0.0379103 -2.35657e-18)
(0.995382 -0.0340014 -6.80428e-19)
(0.997417 -0.0302578 9.10547e-19)
(0.999198 -0.0266115 -2.64762e-18)
(1.00044 -0.0230917 5.13209e-18)
(1.00147 -0.0196253 -3.79126e-18)
(1.00198 -0.0162486 2.06272e-18)
(1.0023 -0.0128764 8.53595e-20)
(1.00211 -0.00953389 1.59933e-18)
(1.00171 -0.00606712 1.41291e-18)
(1.00071 -0.00232215 -3.34732e-18)
(0.29469 -0.620143 -1.06999e-18)
(0.388018 -0.547329 -6.17604e-19)
(0.467036 -0.485505 1.04381e-19)
(0.534014 -0.432576 -2.56541e-18)
(0.591602 -0.387057 -1.94229e-18)
(0.641039 -0.347622 1.04027e-18)
(0.684099 -0.313332 1.05912e-18)
(0.721445 -0.283313 3.52858e-18)
(0.754334 -0.256951 2.47554e-18)
(0.78309 -0.233652 -1.51404e-18)
(0.80865 -0.213003 -2.61628e-18)
(0.831136 -0.194593 -8.14867e-19)
(0.851279 -0.178138 -6.79012e-19)
(0.869076 -0.163348 6.61854e-19)
(0.885124 -0.15002 2.31148e-18)
(0.899338 -0.13795 1.93287e-18)
(0.912221 -0.126987 5.67553e-19)
(0.923639 -0.116988 3.31371e-18)
(0.934031 -0.107836 3.6788e-18)
(0.943225 -0.0994291 -2.29034e-19)
(0.951615 -0.0916746 -1.73525e-18)
(0.959005 -0.0845034 -1.43556e-18)
(0.965758 -0.0778351 1.71327e-18)
(0.971658 -0.0716265 -3.66746e-20)
(0.977045 -0.0658049 -2.62251e-18)
(0.981689 -0.0603475 1.49501e-18)
(0.985917 -0.0551851 -1.91475e-18)
(0.989482 -0.0503118 1.72837e-18)
(0.992704 -0.0456591 -7.6218e-18)
(0.995324 -0.0412352 -6.4908e-18)
(0.997656 -0.0369701 -1.95104e-18)
(0.999431 -0.0328846 -1.50958e-19)
(1.00096 -0.0289049 1.31782e-18)
(1.00196 -0.0250631 3.52513e-18)
(1.00275 -0.0212794 -4.2087e-18)
(1.00303 -0.0175944 3.79696e-18)
(1.00312 -0.0139158 5.11709e-19)
(1.0027 -0.0102742 -1.5543e-18)
(1.00208 -0.0065076 2.21294e-18)
(1.00085 -0.00246852 -1.9038e-18)
(0.336873 -0.66825 3.59006e-18)
(0.425248 -0.589788 2.29918e-18)
(0.500061 -0.52317 1.13646e-18)
(0.56344 -0.466136 3.22597e-19)
(0.617932 -0.417088 -1.506e-18)
(0.664687 -0.374595 8.79699e-19)
(0.705415 -0.337647 1.30374e-18)
(0.74072 -0.3053 3.52723e-19)
(0.771815 -0.276894 -8.17325e-19)
(0.798986 -0.251787 1.93742e-18)
(0.823141 -0.229537 2.49252e-19)
(0.844374 -0.209699 3.04333e-19)
(0.863397 -0.191966 -2.42664e-18)
(0.880188 -0.176028 -1.26694e-18)
(0.895327 -0.161665 9.80364e-19)
(0.908719 -0.148657 -1.20591e-18)
(0.920855 -0.136842 -1.28195e-18)
(0.931591 -0.126065 -1.06945e-18)
(0.941358 -0.116201 4.70681e-19)
(0.949977 -0.10714 1.25075e-18)
(0.957837 -0.0987806 -1.95303e-18)
(0.964736 -0.0910498 -1.57142e-18)
(0.971032 -0.0838606 2.61788e-18)
(0.976506 -0.0771664 2.93019e-18)
(0.981494 -0.0708888 -7.03888e-19)
(0.985762 -0.0650032 5.62033e-18)
(0.989634 -0.0594351 -1.48234e-18)
(0.992864 -0.0541782 5.21271e-19)
(0.995765 -0.0491585 -6.83421e-19)
(0.99808 -0.0443852 1.94685e-18)
(1.00012 -0.0397826 -2.18981e-18)
(1.00161 -0.0353735 -1.31324e-18)
(1.00287 -0.0310782 5.56928e-18)
(1.00361 -0.0269319 5.94925e-18)
(1.00414 -0.0228483 -4.58615e-18)
(1.00417 -0.0188724 -2.35456e-19)
(1.00401 -0.0149047 1.15085e-18)
(1.00335 -0.010981 -2.86743e-18)
(1.00248 -0.00693089 -7.80717e-18)
(1.001 -0.00261147 -1.84865e-18)
(0.382111 -0.713494 3.46068e-18)
(0.465175 -0.629721 2.41729e-18)
(0.535479 -0.558594 1.17669e-18)
(0.594997 -0.4977 6.79186e-19)
(0.64617 -0.445333 3.03737e-19)
(0.690049 -0.399964 -1.46476e-18)
(0.728276 -0.360515 2.22961e-18)
(0.761391 -0.325979 1.27595e-18)
(0.790563 -0.29565 -2.36229e-20)
(0.816034 -0.268844 1.68239e-18)
(0.838682 -0.245087 2.96942e-19)
(0.858572 -0.223905 -3.1522e-18)
(0.876393 -0.204972 -6.1917e-19)
(0.892104 -0.187953 -2.16655e-18)
(0.90627 -0.172617 -1.74015e-18)
(0.918779 -0.158727 -1.72832e-18)
(0.930113 -0.146111 8.0768e-19)
(0.940117 -0.134602 1.88331e-18)
(0.949214 -0.124068 2.21194e-18)
(0.957217 -0.114391 -2.5075e-18)
(0.964509 -0.105463 -1.0418e-18)
(0.970881 -0.0972061 -1.16886e-18)
(0.976687 -0.0895268 -1.98251e-18)
(0.981704 -0.0823757 1.26449e-18)
(0.986263 -0.0756692 1.397e-18)
(0.99013 -0.0693808 5.57593e-18)
(0.993621 -0.0634311 2.0077e-20)
(0.996491 -0.0578134 2.58266e-18)
(0.999048 -0.0524486 2.25349e-18)
(1.00104 -0.0473468 -1.38245e-18)
(1.00276 -0.042427 1.02965e-18)
(1.00395 -0.0377139 -9.17774e-19)
(1.00491 -0.0331222 -6.88814e-19)
(1.00537 -0.02869 5.98615e-18)
(1.00562 -0.0243253 8.35442e-18)
(1.00539 -0.0200768 -1.09274e-18)
(1.00497 -0.0158382 4.72782e-19)
(1.00405 -0.0116505 -2.96959e-18)
(1.00291 -0.00733423 4.63166e-18)
(1.00116 -0.00274965 -3.62003e-19)
(0.430212 -0.755683 -1.54656e-19)
(0.507628 -0.666957 1.69704e-18)
(0.573138 -0.591625 1.05874e-18)
(0.628552 -0.527132 1.04588e-18)
(0.676195 -0.47167 3.58776e-18)
(0.717015 -0.42362 7.74944e-19)
(0.752584 -0.381839 1.25287e-18)
(0.78337 -0.345262 5.58112e-19)
(0.810498 -0.313139 -2.51072e-18)
(0.834161 -0.284749 -9.37633e-19)
(0.855207 -0.259587 -4.12718e-19)
(0.873668 -0.237153 -1.9997e-19)
(0.890212 -0.217099 -6.78666e-19)
(0.904773 -0.199073 -4.80386e-19)
(0.917904 -0.182829 -5.11652e-19)
(0.929475 -0.168117 3.96284e-18)
(0.939957 -0.154753 -2.42726e-19)
(0.949183 -0.142563 5.83856e-18)
(0.957567 -0.131403 4.36421e-18)
(0.964915 -0.121152 1.89268e-18)
(0.971602 -0.111694 7.55236e-19)
(0.977414 -0.102946 -4.10584e-19)
(0.9827 -0.0948095 -1.85703e-18)
(0.987231 -0.0872324 2.36852e-18)
(0.991334 -0.0801257 2.08015e-19)
(0.994773 -0.0734617 -2.26998e-18)
(0.997859 -0.0671562 3.70646e-18)
(1.00035 -0.061202 -1.15385e-18)
(1.00254 -0.0555154 3.81495e-19)
(1.00418 -0.0501074 -2.00312e-18)
(1.00557 -0.0448919 -7.31707e-19)
(1.00644 -0.0398956 -3.33657e-18)
(1.00709 -0.0350279 4.70044e-18)
(1.00725 -0.0303299 4.00662e-18)
(1.00721 -0.0257037 2.28051e-18)
(1.00669 -0.0212019 6.75038e-18)
(1.00599 -0.0167119 -3.44319e-18)
(1.00479 -0.012279 4.49512e-19)
(1.00338 -0.00771489 -6.0026e-18)
(1.00133 -0.00288172 -7.25446e-18)
(0.480968 -0.794636 4.21159e-19)
(0.552426 -0.701336 1.65858e-18)
(0.612876 -0.622123 8.03654e-19)
(0.66396 -0.554306 1.56891e-18)
(0.707878 -0.495986 2.30289e-18)
(0.745471 -0.44546 1.95947e-18)
(0.778234 -0.401527 8.2552e-19)
(0.806563 -0.363065 -9.66492e-19)
(0.831533 -0.329287 -3.44351e-18)
(0.853289 -0.299433 6.04803e-19)
(0.872644 -0.272974 -1.05679e-18)
(0.889597 -0.249383 -8.66113e-19)
(0.904793 -0.228295 -5.36546e-18)
(0.918143 -0.20934 -2.88311e-18)
(0.93018 -0.192258 -2.49781e-18)
(0.940761 -0.176786 -4.97328e-19)
(0.950344 -0.162732 -2.44694e-19)
(0.958749 -0.149912 -7.844e-19)
(0.966381 -0.138175 -1.07024e-19)
(0.973038 -0.127394 -2.59375e-18)
(0.979086 -0.117446 2.77168e-18)
(0.984308 -0.108245 7.21037e-19)
(0.989044 -0.0996861 1.79921e-18)
(0.993062 -0.0917155 7.18408e-19)
(0.996685 -0.0842393 -1.2895e-19)
(0.999673 -0.0772285 -1.0281e-18)
(1.00233 -0.0705942 6.793e-19)
(1.00442 -0.0643294 -1.71325e-18)
(1.00622 -0.0583458 3.04361e-18)
(1.0075 -0.0526551 2.99477e-18)
(1.00853 -0.0471668 1.59126e-18)
(1.00907 -0.0419093 6.19208e-21)
(1.00939 -0.0367872 1.78657e-18)
(1.00923 -0.0318442 -4.25793e-18)
(1.00888 -0.0269772 -1.73672e-20)
(1.00806 -0.0222424 -2.07422e-18)
(1.00706 -0.0175211 -6.14558e-18)
(1.00558 -0.0128626 -2.76305e-18)
(1.00387 -0.00807015 -6.34523e-18)
(1.00151 -0.00300631 -1.82846e-18)
(0.534164 -0.830186 3.35385e-18)
(0.599377 -0.732712 2.21056e-18)
(0.654525 -0.649956 1.02828e-19)
(0.701069 -0.579107 2.17314e-18)
(0.741083 -0.518178 1.49661e-18)
(0.775295 -0.465393 3.69201e-18)
(0.805116 -0.419495 2.66245e-18)
(0.830871 -0.379313 1.54002e-18)
(0.853579 -0.344024 -1.53789e-21)
(0.873336 -0.312835 1.03376e-18)
(0.890919 -0.285192 -7.33403e-19)
(0.906292 -0.260546 1.03773e-18)
(0.920075 -0.238514 1.11569e-18)
(0.932154 -0.21871 -5.95614e-19)
(0.943046 -0.200862 -2.08812e-18)
(0.95259 -0.184697 -4.32521e-18)
(0.96123 -0.170014 -3.9689e-18)
(0.968774 -0.156618 -4.53932e-19)
(0.975618 -0.144355 -6.59074e-18)
(0.98155 -0.13309 -1.24004e-18)
(0.98693 -0.122695 2.61116e-18)
(0.991533 -0.11308 -3.70308e-19)
(0.995692 -0.104136 -7.96819e-19)
(0.999174 -0.0958059 -1.02711e-18)
(1.00229 -0.0879924 -6.38694e-19)
(1.00481 -0.0806649 -2.80474e-18)
(1.00702 -0.0737307 1.53976e-18)
(1.00868 -0.0671824 -9.88596e-19)
(1.01009 -0.0609277 2.08366e-18)
(1.01098 -0.0549791 2.0898e-18)
(1.01164 -0.049242 5.67702e-18)
(1.01182 -0.0437463 5.16586e-19)
(1.0118 -0.0383923 -5.89786e-19)
(1.01132 -0.0332262 -7.05154e-18)
(1.01064 -0.02814 4.97315e-18)
(1.00951 -0.0231933 -8.67016e-18)
(1.0082 -0.0182616 -1.64973e-18)
(1.00641 -0.013398 1.2936e-18)
(1.00438 -0.00839744 -1.16249e-18)
(1.0017 -0.00312216 2.77116e-18)
(0.589572 -0.86218 3.0544e-18)
(0.648279 -0.76095 3.12144e-18)
(0.697905 -0.675005 -9.37815e-19)
(0.739721 -0.601426 2.79844e-18)
(0.77567 -0.538151 1.58167e-18)
(0.806359 -0.483332 1.34407e-18)
(0.833117 -0.435666 1.12145e-18)
(0.85619 -0.393935 6.54524e-19)
(0.876542 -0.357287 -1.39653e-18)
(0.894217 -0.324896 2.93342e-18)
(0.909954 -0.296188 1.57485e-18)
(0.92368 -0.270591 8.0837e-20)
(0.935992 -0.24771 -2.76439e-18)
(0.946748 -0.227142 -6.23425e-18)
(0.956447 -0.208606 -1.41511e-18)
(0.96491 -0.191817 1.3272e-18)
(0.972568 -0.176567 1.30134e-18)
(0.979216 -0.162654 -1.45482e-18)
(0.985239 -0.149917 -2.6428e-18)
(0.990416 -0.138215 6.13665e-19)
(0.9951 -0.127418 7.94193e-21)
(0.999058 -0.11743 -3.42998e-18)
(1.00262 -0.108139 -3.98256e-18)
(1.00554 -0.0994861 -3.99236e-18)
(1.00814 -0.091369 7.64094e-19)
(1.01016 -0.0837564 -3.17134e-18)
(1.0119 -0.0765522 9.68572e-20)
(1.01313 -0.0697486 3.21722e-18)
(1.01411 -0.06325 5.08279e-18)
(1.0146 -0.0570694 -1.6574e-18)
(1.01488 -0.0511084 3.85449e-18)
(1.0147 -0.0453987 -1.70553e-18)
(1.01432 -0.0398362 4.01553e-18)
(1.01349 -0.0344697 4.17744e-18)
(1.01248 -0.0291867 5.15411e-18)
(1.01102 -0.0240499 -5.83629e-18)
(1.00938 -0.0189296 5.14949e-18)
(1.00727 -0.0138819 -7.48105e-18)
(1.00492 -0.00869434 -5.67522e-18)
(1.00189 -0.00322804 2.25237e-18)
(0.646953 -0.890482 3.65204e-18)
(0.698924 -0.785929 7.72256e-19)
(0.742831 -0.697163 1.59316e-19)
(0.779751 -0.62117 4.19668e-18)
(0.811488 -0.555818 1.47e-18)
(0.838529 -0.4992 -9.57569e-19)
(0.862115 -0.44997 -2.06665e-18)
(0.88241 -0.40687 5.31541e-19)
(0.900323 -0.369019 1.54611e-18)
(0.915841 -0.335565 4.24988e-19)
(0.929667 -0.305914 2.48496e-18)
(0.941689 -0.279477 3.92103e-20)
(0.952476 -0.255844 1.05981e-18)
(0.961861 -0.234601 1.38673e-18)
(0.970326 -0.215456 4.01655e-18)
(0.977669 -0.198115 1.30892e-18)
(0.984309 -0.182363 1.05705e-18)
(0.990029 -0.167992 1.9869e-19)
(0.995202 -0.154836 1.39621e-18)
(0.999598 -0.142748 -2.71992e-18)
(1.00356 -0.131595 -2.91488e-19)
(1.00685 -0.121277 -1.07002e-18)
(1.00979 -0.11168 -3.09147e-19)
(1.01213 -0.10274 -4.53678e-18)
(1.01419 -0.0943545 1.40027e-18)
(1.0157 -0.0864898 -2.75026e-18)
(1.01696 -0.0790465 -2.31865e-18)
(1.01773 -0.0720172 6.7341e-19)
(1.01828 -0.0653027 1.39692e-18)
(1.01836 -0.058917 -5.5107e-19)
(1.01824 -0.0527581 -3.07538e-18)
(1.01767 -0.0468591 1.24565e-18)
(1.01693 -0.0411125 -3.32106e-18)
(1.01574 -0.0355691 -1.59617e-18)
(1.01438 -0.0301124 4.99541e-18)
(1.01258 -0.0248079 7.59612e-18)
(1.01061 -0.0195213 7.95134e-18)
(1.00817 -0.0143114 2.05249e-18)
(1.00548 -0.00895866 -4.31921e-18)
(1.0021 -0.00332291 -1.86686e-19)
(0.706063 -0.914971 3.33178e-18)
(0.751094 -0.807542 1.39848e-18)
(0.78911 -0.716336 1.6426e-18)
(0.820986 -0.638253 1.78628e-18)
(0.848386 -0.571105 -2.10019e-18)
(0.871669 -0.51293 -2.01071e-18)
(0.891987 -0.462347 1.49036e-19)
(0.909421 -0.418062 1.03556e-18)
(0.92482 -0.37917 2.82884e-19)
(0.938117 -0.344796 1.87239e-18)
(0.949973 -0.31433 2.41887e-18)
(0.960239 -0.287166 -1.75793e-18)
(0.969456 -0.262882 1.70201e-18)
(0.97743 -0.241055 4.73975e-19)
(0.984622 -0.221382 -1.74729e-18)
(0.990812 -0.203564 -6.51798e-21)
(0.996405 -0.187378 1.51828e-18)
(1.00117 -0.17261 5.72875e-19)
(1.00547 -0.159091 2.10026e-18)
(1.00906 -0.14667 -3.78671e-18)
(1.01228 -0.135208 1.60042e-18)
(1.01488 -0.124605 -3.89794e-20)
(1.01718 -0.114742 -3.07649e-19)
(1.01893 -0.105555 1.33045e-18)
(1.02042 -0.0969363 3.08478e-18)
(1.02141 -0.0888533 1.68151e-18)
(1.02218 -0.0812032 3.33164e-19)
(1.02247 -0.0739784 4.27049e-19)
(1.02257 -0.0670772 1.1924e-18)
(1.02223 -0.0605139 2.0854e-18)
(1.0217 -0.0541838 -1.28819e-18)
(1.02074 -0.0481212 -3.55116e-18)
(1.01962 -0.0422155 -1.31837e-18)
(1.01806 -0.0365193 3.69743e-18)
(1.01634 -0.0309127 -9.1004e-18)
(1.0142 -0.0254636 -9.95465e-18)
(1.01188 -0.0200336 5.23126e-18)
(1.0091 -0.0146838 -3.12923e-18)
(1.00606 -0.00918844 -1.06572e-18)
(1.00232 -0.00340579 3.18708e-19)
(0.766647 -0.935541 2.76536e-18)
(0.804567 -0.825697 2.43066e-18)
(0.836544 -0.73244 6.33845e-19)
(0.86325 -0.652602 1.58847e-18)
(0.886205 -0.583945 1.55272e-18)
(0.905635 -0.524463 -5.35802e-19)
(0.922604 -0.472743 -6.78515e-19)
(0.937105 -0.427462 5.72543e-19)
(0.949929 -0.387697 1.51514e-18)
(0.960949 -0.35255 2.26123e-18)
(0.970787 -0.321398 1.57861e-18)
(0.979253 -0.293623 3.09582e-18)
(0.986861 -0.268794 1.62313e-18)
(0.993388 -0.246475 -3.27279e-18)
(0.999275 -0.22636 -3.08194e-18)
(1.00428 -0.20814 -1.53025e-18)
(1.0088 -0.191589 -3.78935e-18)
(1.01259 -0.176489 -6.5189e-19)
(1.01599 -0.162664 1.30753e-18)
(1.01875 -0.149963 1.66122e-18)
(1.02121 -0.138242 1.22269e-18)
(1.02311 -0.127399 9.27232e-20)
(1.02475 -0.117313 -2.19822e-18)
(1.02589 -0.107918 -8.11987e-19)
(1.02681 -0.0991034 -7.2433e-20)
(1.02726 -0.0908368 -1.46372e-18)
(1.02752 -0.0830128 1.85978e-18)
(1.02734 -0.0756239 -6.80421e-19)
(1.02698 -0.0685657 9.87335e-19)
(1.0262 -0.0618533 -7.48759e-18)
(1.02525 -0.0553794 -1.00791e-18)
(1.02389 -0.0491795 2.55306e-18)
(1.02238 -0.0431403 -4.29511e-18)
(1.02045 -0.0373161 -3.84247e-18)
(1.01836 -0.0315839 -5.13189e-18)
(1.01585 -0.0260137 -7.8275e-20)
(1.01318 -0.0204637 -2.79788e-18)
(1.01005 -0.0149969 -3.74857e-18)
(1.00666 -0.00938199 2.38933e-18)
(1.00254 -0.00347586 3.4763e-18)
(0.828448 -0.952106 -1.25306e-19)
(0.859113 -0.840316 -1.06451e-18)
(0.88493 -0.745408 -3.07155e-19)
(0.906363 -0.664157 1.73433e-18)
(0.924782 -0.594284 -6.8093e-19)
(0.940284 -0.533749 2.4365e-19)
(0.953836 -0.481113 -2.2396e-18)
(0.965345 -0.435031 -1.55138e-18)
(0.975542 -0.394562 1.24449e-18)
(0.984239 -0.358792 3.66192e-18)
(0.992018 -0.32709 3.27475e-18)
(0.998648 -0.298823 -3.81328e-19)
(1.00461 -0.273553 -3.33475e-18)
(1.00967 -0.250839 -3.37328e-18)
(1.01422 -0.230367 -2.28538e-18)
(1.01802 -0.211824 2.82008e-18)
(1.02145 -0.194979 1.30991e-18)
(1.02423 -0.179611 -1.36334e-18)
(1.02672 -0.165541 1.84437e-18)
(1.02864 -0.152613 1.14431e-18)
(1.03032 -0.140684 1.8756e-18)
(1.0315 -0.129648 1.46389e-18)
(1.03248 -0.119381 -8.03455e-18)
(1.03299 -0.109818 -2.87442e-18)
(1.03333 -0.100846 7.02101e-18)
(1.03323 -0.0924319 -1.25208e-18)
(1.03297 -0.0844678 1.59429e-18)
(1.0323 -0.0769465 2.27906e-18)
(1.03147 -0.0697618 -4.79327e-18)
(1.03025 -0.0629293 -2.08194e-18)
(1.02888 -0.0563396 1.02657e-18)
(1.02711 -0.0500293 5.27349e-18)
(1.02519 -0.0438827 1.89473e-18)
(1.02288 -0.0379556 7.08372e-18)
(1.02042 -0.0321226 7.40423e-18)
(1.01755 -0.0264553 2.31619e-18)
(1.01451 -0.0208091 3.72033e-18)
(1.01103 -0.0152485 1.80576e-18)
(1.00727 -0.00953784 -5.63812e-18)
(1.00276 -0.00353243 2.13368e-18)
(0.891201 -0.964593 -3.13541e-19)
(0.914498 -0.851337 -9.78641e-19)
(0.93406 -0.755183 -5.51841e-20)
(0.950139 -0.672866 2.63922e-20)
(0.963954 -0.602077 -2.42889e-18)
(0.975466 -0.540749 -9.71435e-19)
(0.985548 -0.487423 -3.15247e-19)
(0.99402 -0.440737 -1.55616e-18)
(1.00155 -0.399736 -6.45173e-19)
(1.00789 -0.363498 3.02999e-20)
(1.01358 -0.331379 1.9498e-19)
(1.01834 -0.302742 -4.20653e-18)
(1.02264 -0.277141 -3.59729e-18)
(1.02619 -0.254128 2.3717e-18)
(1.0294 -0.233387 -9.97207e-19)
(1.03198 -0.2146 1.12263e-18)
(1.03429 -0.197534 6.22704e-19)
(1.03606 -0.181963 8.82621e-19)
(1.03761 -0.167708 5.69715e-18)
(1.03868 -0.15461 2.0181e-19)
(1.03958 -0.142523 4.41486e-18)
(1.04003 -0.131341 4.00827e-18)
(1.04032 -0.120938 -5.33933e-18)
(1.04021 -0.111249 -3.73202e-18)
(1.03995 -0.102158 1.08263e-18)
(1.03929 -0.0936317 -3.38227e-18)
(1.03851 -0.0855617 3.76636e-18)
(1.03734 -0.0779406 6.86291e-18)
(1.03604 -0.0706604 -6.09856e-18)
(1.03436 -0.0637373 1.69872e-18)