/*--------------------------------*- C++ -*----------------------------------*\
| =========                 |                                                 |
| \\      /  F ield         | foam-extend: Open Source CFD                    |
|  \\    /   O peration     | Version:  3.0                                   |
|   \\  /    A nd           | Web:         http://www.extend-project.de       |
|    \\/     M anipulation  |                                                 |
\*---------------------------------------------------------------------------*/
FoamFile
{
    version     2.0;
    format      ascii;
    class       volScalarField;
    location    "50";
    object      Theta;
}
// * * * * * * * * * * * * * * * * * * * * * * * * * * * * * * * * * * * * * //

dimensions      [0 2 -2 0 0 0 0];

internalField   nonuniform List<scalar> 
728
(
1.96237
0.250706
2.57405
-0.236419
-2.91582
10.8998
4.99647
3.42664
1.37168
6.66973
0.99693
-3.33766
-1.78155
-0.510679
4.67472
3.42887
0.150816
1.26737
-0.0458158
1.52014
4.41476
4.90486
-3.1931
-2.05992
11.0959
20.8175
-24.0801
-13.5614
2.05616
5.73204
-1.9412
1.02623
3.25324
7.274
-2.49954
0.648352
1.20369
0.328158
1.21145
1.39248
2.05177
4.09257
-0.474876
-1.19477
-2.10081
-2.95379
5.0377
5.90867
-1.64099
-1.5931
4.53452
5.67798
10.4404
-17.7557
-7.0366
22.6328
0.217668
2.591
-0.135141
2.07896
1.5435
-0.552913
2.73092
-0.269339
2.06927
1.39304
-0.121917
0.803054
3.37638
-5.4643
12.8407
-16.3375
4.27487
2.37542
-0.192562
-1.75571
0.424894
4.99956
2.67663
-1.98578
-4.03459
6.74206
-8.05166
11.4834
-0.321102
0.416528
1.47387
-2.24111
3.16319
4.79468
3.22244
0.605274
10.1198
-8.79445
0.688878
-0.453286
6.64019
-0.947064
-4.31996
2.83632
-0.0220101
2.67703
2.74185
-0.00700045
4.24734
-1.31484
3.76274
-1.11423
0.682152
3.62502
2.08564
0.704902
1.12421
0.990858
0.562353
0.912566
0.426637
2.63408
2.48206
0.00851825
-0.315155
2.91267
-0.644492
2.57958
0.943459
-0.219115
0.906288
2.35834
-1.42147
4.42531
-0.554269
2.9398
0.29971
3.52232
-0.69021
2.12738
1.68935
1.07549
0.271347
1.10924
6.41946
5.03911
-6.33352
-6.61979
1.67275
3.82473
0.284389
-1.52998
-0.544228
5.25154
-2.16825
2.43138
2.41769
-0.0543189
2.8886
-0.0790802
0.955896
-2.82577
1.8365
6.00407
-0.649592
11.6749
6.43145
-4.60099
-2.60826
-5.24436
6.43572
3.19692
2.36053
0.0985096
-0.0492021
2.65734
-0.844868
3.63831
-0.931662
3.44356
-0.541302
2.1802
0.0897069
1.93806
3.72158
-2.14918
2.73467
-1.71716
-14.6756
-9.69689
9.93768
14.6118
4.21775
4.53839
-1.76751
-1.94759
1.48517
-2.7296
5.8629
1.0957
0.952275
-0.876396
2.57623
1.7295
0.709338
0.762261
1.841
0.803869
0.706231
-0.250824
1.31331
2.64267
1.53444
-0.398482
3.72296
0.906298
0.949592
1.22932
-0.646793
2.16384
-6.64019
-7.23217
7.91292
8.15442
0.420671
-1.69451
3.95042
1.78604
1.75384
-0.273098
4.2604
-2.51049
3.3714
-0.93083
3.84034
-1.0977
1.02541
4.32314
1.21204
-1.89446
3.41722
4.25071
-1.48126
-0.826292
4.10322
1.675
6.18493
0.458419
-9.00632
-29.2212
5.18786
29.7831
1.42721
1.81206
0.695576
-0.382984
26.5593
2.41078
-24.2728
-3.44358
0.184195
-1.16249
2.27017
4.18244
-1.77981
1.31881
4.1112
0.614544
-1.09523
-2.9503
6.45881
3.71614
4.6375
-0.679438
-2.30851
7.02729
2.16465
1.35553
0.987444
0.218901
2.43109
2.46153
-0.228006
-0.0337211
3.93181
5.53118
-0.893075
-2.81328
1.09613
5.52317
-2.17812
1.57094
3.29914
1.25351
0.780223
-1.44859
0.115699
2.63126
-0.298589
2.07755
-0.920587
0.27847
2.66338
1.38121
-0.425029
-1.3477
3.97193
2.78273
-3.6481
3.52961
7.39079
-8.11192
-0.740438
4.38639
-1.78139
3.14091
11.5381
-6.82832
9.93995
-3.69963
-2.16772
4.24209
0.0899243
1.99772
-16.0579
4.32133
-3.64471
18.5187
-1.10889
3.11659
0.176755
1.63787
3.47644
3.51003
1.374
-2.35628
4.31024
-1.28941
3.94862
-1.08041
-10.9953
13.7723
-3.33522
4.8799
0.59071
3.84065
-1.21196
1.84747
-2.45341
-1.42039
4.4171
2.91461
1.09961
7.34871
1.15372
-3.93583
2.19768
-0.445971
3.81061
-2.04858
-0.988741
-1.11708
3.14554
3.95937
2.37561
5.53459
-0.392406
-2.82834
2.458
4.18109
0.82842
0.63479
12.8802
-1.18133
-9.31793
3.22323
-1.7442
-5.38009
7.48472
3.65363
0.323787
-1.00328
1.84147
3.88708
3.27843
0.0361391
-0.231053
2.69659
0.722322
1.34481
0.905818
0.7092
1.52908
3.53742
0.836162
-1.19446
0.776867
-0.174428
1.70281
3.26627
3.42279
10.9966
-0.184827
-6.7849
-1.94737
5.49034
3.08838
6.31081
3.35023
4.67022
2.18835
0.707282
2.15851
-0.562693
1.03913
0.929928
0.162833
1.48054
2.6472
-0.88064
-4.02999
2.88986
-1.66245
5.25355
1.86009
-1.2324
0.876969
4.80441
1.2326
1.05287
0.780415
0.678967
0.822596
0.811923
1.2682
0.979952
2.15991
-0.802115
3.14943
0.166666
0.795679
1.5992
1.00167
0.68626
3.27346
0.228923
0.0317805
2.25081
-1.49744
5.68602
4.71288
-2.23877
-2.85057
2.0484
0.794573
5.66219
1.52145
-0.345043
-0.379943
2.77703
2.70024
0.15716
-0.500454
2.54921
-1.63423
0.330201
4.87667
1.8542
2.57284
6.22789
1.02632
-2.37153
-2.51715
6.2432
1.79815
0.77306
4.42694
6.8757
-1.42299
-3.36414
-0.421291
0.796958
3.1069
1.31002
-1.02534
-0.2292
2.67658
3.14337
0.993281
2.63962
1.20335
-0.487437
-0.487447
1.85435
2.36706
-0.347206
4.67724
-0.105616
1.03828
-4.07913
-2.95515
-1.36031
4.22248
5.43883
0.510459
-0.202006
1.48165
2.51147
12.833
10.7328
-7.12513
-5.61126
-4.52111
0.406281
7.56398
2.13193
-2.18908
5.16809
6.58294
-1.11849
-0.402522
2.85688
1.10413
1.34253
-2.67821
-1.68491
5.95106
3.96071
6.82475
1.63383
-3.51705
1.01943
1.57614
3.23812
1.07272
-0.285525
1.11333
0.602732
1.07675
2.07142
-1.26566
3.11713
4.04359
-0.999705
4.39549
2.41448
-1.45159
-0.207072
-0.422398
2.44113
-0.169522
2.87348
-1.55565
4.63774
4.91866
-2.20104
1.08294
5.34696
1.02753
-3.21705
1.91571
0.15104
0.0749944
1.45359
-0.209534
4.81748
-4.67618
8.51983
-7.82938
5.39092
-17.044
16.0561
1.9157
-1.02115
3.81965
0.0187117
0.939683
1.39667
1.23241
0.116225
2.98289
-3.46828
-1.04289
5.70047
4.51363
-1.23502
-0.854473
4.58675
0.380852
0.738789
2.56721
-1.26791
1.55221
-0.0595241
2.46349
0.778114
5.85821
1.0151
4.27487
0.542891
3.10207
7.22433
0.270508
-3.71724
0.849146
1.30026
0.0637685
2.47155
0.104537
2.49164
2.27804
-0.36002
2.77289
3.97167
0.0682937
-1.45854
-0.731133
0.728365
2.70836
1.62768
5.40238
-2.10632
-2.13469
6.16356
4.73485
1.99715
-0.652569
-3.02091
0.138677
0.965898
1.13544
2.24908
-3.2893
-2.14949
6.97831
4.51496
-7.41708
7.42208
-7.69229
7.30091
1.0091
6.50172
-3.07497
3.22309
1.41116
5.23929
-2.49554
0.515765
17.9592
-15.4946
-20.7342
14.7555
2.35849
2.32367
-0.0185427
-0.266897
5.08566
6.12658
-2.1866
-0.45791
4.13329
5.44739
-5.26192
-4.21294
0.194262
2.01302
-0.0736682
1.71082
2.3869
1.80391
-0.762323
0.213232
0.269566
1.56831
0.174602
2.43915
1.10061
-0.283175
1.12681
3.23935
2.80657
3.65109
-1.02564
-0.435809
0.797147
1.72281
3.93115
-0.696386
-3.08842
4.37624
-6.9563
8.90781
-5.78504
-0.438233
9.77546
3.39667
1.63947
-1.79347
1.1576
5.55819
1.04677
0.501986
4.90241
-3.33849
2.24958
6.45813
-2.70279
0.758017
-4.83359
2.37157
9.14205
1.23033
-2.47181
1.97966
4.92247
0.447821
2.83499
-0.650917
2.90277
-0.167255
2.2147
0.946024
0.882289
0.307633
4.05858
0.856717
1.32443
-1.36868
1.4736
2.97865
0.539676
-0.575312
)
;

boundaryField
{
    insideCircle
    {
        type            myTemperature;
        value           nonuniform List<scalar> 
12
(
3.16319
4.93783
3.28688
0.807399
-1.36407
0.957644
-0.390437
7.77252
4.16133
3.32417
1.47946
1.8169
)
;
    }
    outsideCircle
    {
        type            myTemperature;
        value           nonuniform List<scalar> 
60
(
1.96237
0.132519
2.53576
-0.503975
1.43345
5.63418
2.1742
1.62428
0.248208
2.59558
-0.406539
3.05687
1.40334
0.114211
2.49337
0.0875171
0.35371
2.66427
-0.445753
1.90714
-0.218055
1.51373
2.69745
1.38607
-0.67467
1.785
-0.456983
1.94635
1.86212
0.0334407
2.44014
0.434958
3.1561
-0.173519
0.432734
2.13429
0.5816
2.57776
1.53456
-0.396571
0.62816
-0.460536
1.40322
2.67194
-0.637637
2.37793
0.963844
0.990438
1.59259
2.38507
0.319372
-0.77949
5.14276
-1.50662
0.829293
2.17982
-0.234522
2.46043
2.22027
-0.147228
)
;
    }
    topAndBottom
    {
        type            empty;
    }
}


// ************************************************************************* //
