/*--------------------------------*- C++ -*----------------------------------*\
| =========                 |                                                 |
| \\      /  F ield         | foam-extend: Open Source CFD                    |
|  \\    /   O peration     | Version:  3.0                                   |
|   \\  /    A nd           | Web:         http://www.extend-project.de       |
|    \\/     M anipulation  |                                                 |
\*---------------------------------------------------------------------------*/
FoamFile
{
    version     2.0;
    format      ascii;
    class       volVectorField;
    location    "33";
    object      u;
}
// * * * * * * * * * * * * * * * * * * * * * * * * * * * * * * * * * * * * * //

dimensions      [0 0 0 0 0 0 0];

internalField   nonuniform List<vector> 
672
(
(0.4937164667 -0.09172196475 5.873863571e-17)
(0.2897602938 -0.06237545457 3.454908828e-17)
(0.8680130775 -0.05128480613 4.233888538e-18)
(0.5997501936 -0.03134165544 2.101872548e-17)
(1.016370181 -0.03024254802 3.893434537e-17)
(0.751104637 -0.01832839667 5.534145433e-17)
(1.088618377 -0.01728054907 8.975164918e-17)
(0.8239875441 -0.01208042889 -1.212241708e-17)
(1.129625651 -0.008630911036 3.284670521e-17)
(0.8530837112 -0.007900700947 2.092728468e-17)
(1.152426407 -0.003008857255 2.169340945e-18)
(0.8571889416 -0.003108014966 -2.616493133e-17)
(0.5344315126 -0.268730815 -1.640491012e-17)
(0.3171038062 -0.1826954045 -9.924302234e-17)
(0.8904376779 -0.1495875843 6.085245644e-17)
(0.6131713139 -0.09110592891 -1.629290094e-16)
(1.029263329 -0.08721358 -8.915234693e-17)
(0.7586575547 -0.05257260631 -2.28281008e-17)
(1.095778968 -0.04843909991 -2.746474516e-16)
(0.8285949109 -0.03395145786 1.094534984e-16)
(1.133271572 -0.0223763649 -1.045501978e-16)
(0.8553026203 -0.0211642337 1.247854886e-16)
(1.154256102 -0.00539572645 -1.999356626e-16)
(0.8562782802 -0.006107166614 2.936975974e-16)
(0.6132202312 -0.432325199 5.386666207e-18)
(0.3706800276 -0.2934844908 1.445795326e-16)
(0.934385875 -0.2402366915 4.400773407e-17)
(0.639966101 -0.1460874234 2.247896304e-16)
(1.054917494 -0.1396774205 7.16991841e-17)
(0.7742456433 -0.08425990778 1.724051023e-16)
(1.109822109 -0.07700037325 1.50889449e-16)
(0.838927467 -0.05462091451 1.328645851e-16)
(1.139072652 -0.03447100846 -5.462325384e-17)
(0.8624114567 -0.03445392211 1.158923171e-17)
(1.15414347 -0.006321432248 9.006262164e-18)
(0.8598097968 -0.01053898267 -5.687094488e-17)
(0.7267097103 -0.5742011213 -1.818390077e-16)
(0.4475428799 -0.3901549571 -1.094917607e-16)
(0.9973170639 -0.3191284344 -2.190887287e-16)
(0.6779799708 -0.1941213429 -2.194383075e-18)
(1.091365629 -0.1853907249 -4.107389842e-16)
(0.7958383974 -0.1116579734 1.493627878e-16)
(1.130006231 -0.1020138172 -4.701259089e-16)
(0.8523648525 -0.07185529874 2.739602041e-16)
(1.148744728 -0.04568974789 -3.188795784e-16)
(0.8697922083 -0.04456515628 4.701701061e-16)
(1.157439428 -0.008653197138 -4.439361261e-16)
(0.859927874 -0.01251607448 6.119344585e-16)
(0.8687658584 -0.6873359472 3.928721237e-16)
(0.5438012773 -0.4666455431 7.113127573e-17)
(1.076275573 -0.3816815946 2.26580082e-16)
(0.7259128315 -0.232079956 5.055547146e-17)
(1.137251961 -0.2215277016 2.807124652e-16)
(0.8236144316 -0.1337283271 1.129633955e-16)
(1.15502919 -0.1214965003 1.397520059e-16)
(0.8706900983 -0.08666939347 -1.659792323e-17)
(1.159147068 -0.05342281572 2.014317846e-16)
(0.8820050648 -0.05462443397 -3.80830252e-16)
(1.157706747 -0.008275928246 2.668893354e-16)
(0.8647954222 -0.01634976948 -2.474585199e-16)
(1.032566283 -0.7659846612 -2.681075246e-16)
(0.65501627 -0.5204838406 2.239621384e-17)
(1.167275453 -0.4255027348 -3.044611838e-16)
(0.7810320788 -0.2588302502 1.814772263e-16)
(1.190011383 -0.2468799813 -4.977292436e-16)
(0.8549672864 -0.1488411512 2.016799181e-16)
(1.184144666 -0.1353638729 -4.104539901e-16)
(0.8902525306 -0.09586683032 1.925827263e-16)
(1.17277825 -0.05986555963 -3.511766631e-16)
(0.893063123 -0.05957660545 6.856700152e-16)
(1.16162973 -0.01010353633 -7.25338315e-16)
(0.866049104 -0.01684335461 7.053478473e-16)
(1.209713544 -0.8062245143 5.424728644e-17)
(0.7748974713 -0.5475746663 8.643095061e-17)
(1.265567138 -0.4475884215 -1.317510241e-17)
(0.8406341476 -0.2723029587 -9.637523425e-17)
(1.247026515 -0.2595373218 2.981377492e-16)
(0.8895195848 -0.1569543702 -2.779887862e-17)
(1.215189018 -0.1418603313 1.898580741e-16)
(0.9131015524 -0.1019102653 -9.461785683e-17)
(1.185739739 -0.06156613809 1.950904011e-16)
(0.908130987 -0.06451538508 -4.293593868e-16)
(1.162277479 -0.008217646834 4.240726049e-16)
(0.8713918578 -0.01969550132 -2.862663903e-16)
(1.391403723 -0.8060797868 2.056751001e-17)
(0.8984504678 -0.5478806925 -7.051970238e-17)
(1.366625658 -0.447607804 1.898382278e-16)
(0.9019575497 -0.2724273021 -7.506188507e-17)
(1.30560833 -0.2594650696 5.879958451e-18)
(0.9244835388 -0.1567767138 -6.046152835e-17)
(1.247339055 -0.1418336819 4.067234505e-17)
(0.9350542181 -0.1012769064 4.204619991e-17)
(1.200416271 -0.06202451268 -1.577820977e-16)
(0.9208200042 -0.06328401885 4.257738593e-16)
(1.165893542 -0.00940222454 -4.28118341e-16)
(0.8734221387 -0.01819085916 3.770757124e-16)
(1.568524222 -0.7654419277 7.813962923e-18)
(1.01823972 -0.5202272678 1.165800256e-17)
(1.464781453 -0.4249018826 -3.475018931e-16)
(0.9614555834 -0.2587676054 2.031786345e-16)
(1.362453768 -0.2462114758 -2.788059193e-16)
(0.9590027281 -0.1492864005 2.191691555e-16)
(1.278188203 -0.1341698017 -1.732232627e-16)
(0.9579730722 -0.09721900908 6.270144513e-17)
(1.213153134 -0.05749164006 8.535326494e-17)
(0.9359883209 -0.06202097772 -3.136993653e-16)
(1.16633586 -0.006383039346 3.007450357e-16)
(0.8787608868 -0.01979906972 -3.289829435e-16)
(1.732142333 -0.6865462913 8.288021811e-17)
(1.129635527 -0.4669127385 -3.565537608e-17)
(1.555871673 -0.3810631241 4.09070345e-16)
(1.016807158 -0.2321979004 -1.386620128e-16)
(1.415251844 -0.2206493294 2.824069684e-16)
(0.9906471541 -0.1338147252 -2.653810251e-16)
(1.307061348 -0.1201365719 2.085852334e-16)
(0.9779656164 -0.08688094 -8.230488552e-17)
(1.226167183 -0.051682182 -2.652581013e-18)
(0.9476775106 -0.0548745397 2.451129739e-17)
(1.169345263 -0.006488622002 -6.690667083e-18)
(0.8807650198 -0.01646216643 4.304504326e-17)
(1.874138774 -0.5730775188 -2.757016041e-17)
(1.225654334 -0.389981168 -2.093920113e-17)
(1.634493859 -0.3180988622 -2.315272776e-16)
(1.06447755 -0.1941306788 -3.323771129e-17)
(1.460693116 -0.1841862627 -9.447773292e-17)
(1.018372305 -0.1122284748 3.893765913e-17)
(1.331534556 -0.09998145892 -7.900552177e-17)
(0.9965467318 -0.07350759255 -2.988370447e-18)
(1.235925039 -0.04209438064 3.322320219e-17)
(0.9601820421 -0.04755216556 -5.158835925e-17)
(1.169117287 -0.003322538094 6.562857658e-17)
(0.8853521165 -0.01633201226 -1.033673097e-16)
(1.987303463 -0.4310734144 -2.710097148e-17)
(1.302776312 -0.2936049262 -1.940985937e-18)
(1.697531911 -0.2390744716 1.9882219e-16)
(1.102827512 -0.146092809 -1.08352705e-17)
(1.4972031 -0.138179262 1.729324096e-16)
(1.040361649 -0.08441193011 -1.339104942e-16)
(1.351398431 -0.07474402881 1.996322385e-16)
(1.010536626 -0.05528313145 -1.289934045e-16)
(1.244730918 -0.03126856235 7.806757406e-17)
(0.968464114 -0.03560540498 -8.51516492e-17)
(1.170963037 -0.002467889619 1.163811327e-16)
(0.8869496196 -0.01165204279 -1.123088574e-16)
(2.066052274 -0.2672507748 -1.217648301e-18)
(1.356051189 -0.1825766956 -3.375981019e-17)
(1.74111841 -0.1483124666 -8.563214314e-17)
(1.129294335 -0.09113546782 -5.113785101e-17)
(1.522318845 -0.08572936841 -5.055973967e-17)
(1.055876696 -0.05302716166 -1.699916024e-17)
(1.364726466 -0.04605872726 -2.423779258e-17)
(1.021165873 -0.03534668875 -3.480458922e-17)
(1.249703482 -0.01836085118 3.722949985e-17)
(0.9758166525 -0.02389519312 -4.965362146e-17)
(1.170355875 0.0005486399139 5.150400545e-17)
(0.8896539866 -0.01003618001 -5.960846846e-17)
(2.106378407 -0.09027825206 7.499495013e-18)
(1.383567208 -0.06226693469 1.338306717e-17)
(1.763583975 -0.0498004073 9.024373328e-17)
(1.142986729 -0.0311434702 1.171904546e-18)
(1.535262517 -0.02847182592 1.000944697e-16)
(1.063805645 -0.01826409629 -5.049210206e-17)
(1.371596075 -0.01485467594 1.018193017e-16)
(1.02635254 -0.01251963789 -6.529547796e-17)
(1.252478049 -0.005239012914 6.48428817e-17)
(0.9790490808 -0.008906734038 -6.693978172e-17)
(1.170565314 0.001281635274 7.868317087e-17)
(0.8905391411 -0.004225813029 -8.704077779e-17)
(2.106298534 0.09144986705 -1.459651837e-17)
(1.383556134 0.06095605553 -3.803092957e-17)
(1.76356201 0.05083321779 -4.180213393e-17)
(1.143012409 0.02987988174 -5.179314924e-17)
(1.535161452 0.02962521451 -2.747117814e-17)
(1.063986191 0.01671339434 -4.351955604e-17)
(1.371272348 0.0167893752 -9.853396305e-18)
(1.02677573 0.009924684191 -3.677090976e-17)
(1.25188634 0.008776853209 2.132680702e-17)
(0.9796007624 0.004528998016 -3.210447843e-17)
(1.169895255 0.004234909482 3.158078035e-17)
(0.890821339 -0.002024484057 -3.486587575e-17)
(2.06582803 0.2683349231 3.471501939e-17)
(1.355980392 0.1812978065 3.02084084e-17)
(1.741013176 0.1492635443 6.142592908e-17)
(1.12930937 0.08991164285 2.099277089e-17)
(1.521996547 0.08673850091 1.063173714e-16)
(1.056275447 0.05159522269 -3.829284975e-17)
(1.3638397 0.04767569653 1.297276278e-16)
(1.022140575 0.03303910425 -7.702744902e-17)
(1.248174941 0.02131564099 7.899636802e-17)
(0.9770978327 0.01999468984 -9.37471472e-17)
(1.168627516 0.004187845709 1.09107975e-16)
(0.8904746059 0.004297795271 -1.427178419e-16)
(1.986961494 0.4319825111 -3.06535586e-17)
(1.302656866 0.2923971888 -5.330960552e-17)
(1.697412048 0.2399002236 -4.304056476e-17)
(1.102848307 0.1449573284 -7.70032271e-17)
(1.496740375 0.1390164122 -4.600058205e-17)
(1.040991003 0.08319239087 -6.453653467e-17)
(1.350020506 0.07604181059 -4.930031003e-17)
(1.012091662 0.0533868776 -4.130865096e-17)
(1.242281817 0.0337484478 7.388390191e-18)
(0.970542389 0.03224397774 1.591029122e-17)
(1.168128481 0.00666942355 -2.004033512e-17)
(0.8883312304 0.006419527727 2.307748646e-17)
(1.873729951 0.5737519078 1.177553336e-16)
(1.225446018 0.388854524 3.446882907e-17)
(1.634353686 0.3187152461 1.213111617e-16)
(1.064460267 0.1931026159 -2.988331115e-17)
(1.460124974 0.1846869786 2.061091786e-16)
(1.019138225 0.111318778 -8.305130921e-17)
(1.329832534 0.1005813696 2.132454023e-16)
(0.9984780348 0.07231637199 -1.215758414e-16)
(1.232931596 0.04335859665 1.518111937e-16)
(0.962682937 0.0452608727 -2.290936399e-16)
(1.165778841 0.005987581013 2.230441696e-16)
(0.8866767358 0.01208169911 -2.841900254e-16)
(1.731724877 0.6869252067 -1.981450187e-16)
(1.129321662 0.4658882458 -1.618026961e-17)
(1.555797403 0.38145988 -9.79927859e-17)
(1.016713525 0.2312874715 1.828235123e-17)
(1.414714341 0.2208286477 -1.675889759e-16)
(0.9913986182 0.1332076632 -2.323541856e-17)
(1.30529409 0.1200784368 -8.983355975e-17)
(0.9799431105 0.08636443773 5.694312526e-17)
(1.22300602 0.05179179122 -1.454198007e-16)
(0.9502535022 0.05366479334 2.668585739e-16)
(1.165757784 0.007593057471 -2.026976791e-16)
(0.8822278768 0.01349486863 2.005625816e-16)
(1.568163863 0.7655085061 1.323981841e-16)
(1.017791652 0.5192920651 -2.441559993e-17)
(1.464772451 0.4250313898 9.498403718e-17)
(0.9612588803 0.2579751251 -1.056781306e-16)
(1.361957958 0.2460339278 2.382171009e-16)
(0.9596848143 0.1489903159 -8.338195028e-17)
(1.276416217 0.1334868464 1.860361464e-16)
(0.9598999149 0.09735612571 -8.302362004e-17)
(1.20995631 0.05664020665 1.987350246e-16)
(0.9384360807 0.06172999878 -4.439714222e-16)
(1.16280557 0.006353714496 4.653795239e-16)
(0.879764574 0.01765824043 -4.383089507e-16)
(1.39116606 0.8058184985 3.265850434e-17)
(0.8978519551 0.5470292244 -3.576524463e-17)
(1.366774347 0.447491706 1.396616776e-16)
(0.9016414656 0.2717425554 9.005436824e-17)
(1.305319912 0.258932363 -1.676889343e-16)
(0.925002912 0.1567872178 3.478533278e-17)
(1.245924108 0.1404059275 -1.327517679e-16)
(0.9366570304 0.1021510386 1.028318072e-16)
(1.1978369 0.05980069894 -1.879143144e-16)
(0.9226926497 0.06422331634 4.378087505e-16)
(1.163221132 0.007482685823 -4.392398962e-16)
(0.8736591754 0.01741002009 3.4651898e-16)
(1.209662508 0.8056534039 -1.190409171e-16)
(0.7741310771 0.5467789277 7.652014035e-17)
(1.26587196 0.4471926927 -4.267848688e-16)
(0.8401458216 0.2716915162 1.530192089e-16)
(1.246956224 0.2586767557 -2.15317112e-16)
(0.8897200357 0.1571287257 1.898498037e-16)
(1.214200896 0.1399524907 -2.138166842e-16)
(0.9140915951 0.1031238541 5.806318954e-17)
(1.183890818 0.0586558446 6.32717706e-17)
(0.9091243681 0.06600353687 -3.355678739e-16)
(1.160525822 0.005405584385 3.344435293e-16)
(0.870813385 0.01971220788 -2.551396564e-16)
(1.032735286 0.765143208 1.884977668e-17)
(0.6540942096 0.5197104295 2.834632543e-17)
(1.167790386 0.4249157515 5.727326169e-16)
(0.7804070099 0.2582760219 -2.404083445e-16)
(1.190230219 0.2457953412 4.635265783e-16)
(0.8549098699 0.1491946229 -2.741546365e-16)
(1.183675727 0.1330579942 2.803878741e-16)
(0.8907257862 0.09750134217 -6.931263999e-17)
(1.171760944 0.05626935494 -1.102389903e-16)
(0.8932539721 0.0617213687 4.371037549e-16)
(1.160954401 0.006380753244 -4.191192015e-16)
(0.8644528909 0.01745906579 4.721387733e-16)
(0.8692199776 0.6862556514 -1.420562768e-16)
(0.5427148268 0.4658767654 4.22268971e-17)
(1.077025518 0.3808474093 -7.79593186e-16)
(0.7250998977 0.2315417227 2.290609085e-16)
(1.137844814 0.2201956192 -6.075681459e-16)
(0.8231384253 0.1340806368 5.219561954e-16)
(1.15535805 0.1189048446 -4.815042568e-16)
(0.8702725389 0.08832612888 2.405396229e-16)
(1.159565079 0.04942440989 -9.001952852e-17)
(0.8808287161 0.05693189806 6.085121628e-17)
(1.158909123 0.003947336191 -1.160604227e-16)
(0.8618499652 0.01742409063 3.262893326e-17)
(0.7273985552 0.5729679545 -2.465587887e-17)
(0.4463623346 0.3893252584 5.051972735e-17)
(0.9982597141 0.3182012263 4.529660151e-16)
(0.6770549373 0.193538797 1.544988475e-16)
(1.092232702 0.1840305245 1.537723253e-16)
(0.7950647144 0.1119046601 -4.888384334e-17)
(1.130850101 0.09950797042 1.386106871e-16)
(0.8513408504 0.07331540988 2.051322769e-17)
(1.149947424 0.04186137306 -8.231299541e-17)
(0.8678131221 0.04669850513 3.641453758e-17)
(1.159520632 0.004378138988 -7.344293321e-17)
(0.8563010056 0.01372091494 1.308362569e-16)
(0.6142358161 0.4309638681 1.874508136e-16)
(0.3693767788 0.2926179374 1.094977066e-17)
(0.9355870857 0.2391414128 -3.988904256e-16)
(0.6389081905 0.1454678834 -4.698037375e-17)
(1.056136215 0.1382422688 -3.67279028e-16)
(0.7731872011 0.08434234297 3.060334404e-16)
(1.111325445 0.07459982087 -5.065310765e-16)
(0.8372952504 0.05574586109 3.398966917e-16)
(1.141397259 0.03090969364 -1.938011908e-16)
(0.8594610011 0.03617389189 2.45080191e-16)
(1.157713425 0.002337874482 -3.454936738e-16)
(0.8550642451 0.01136958731 3.349091351e-16)
(0.5355937277 0.2673404136 -1.13460832e-16)
(0.3158457179 0.18171933 1.753696408e-17)
(0.8917402538 0.1484758603 1.743220891e-16)
(0.6121069467 0.09038521028 8.01238925e-17)
(1.030655424 0.08587579234 1.466693442e-16)
(0.7574401095 0.05235724065 -5.004796803e-17)
(1.0976783 0.04642706771 9.683618374e-17)
(0.8265482408 0.03445800508 2.188900175e-17)
(1.136305364 0.01950895144 -1.117519212e-16)
(0.8517283451 0.02216670873 6.443999458e-17)
(1.158740205 0.0020490935 -6.504036637e-17)
(0.850990385 0.006800507534 5.643337763e-17)
(0.4951831448 0.09031665758 5.766570147e-17)
(0.2884510547 0.06134240057 4.235157006e-17)
(0.8695307062 0.05010097573 -1.786906796e-16)
(0.5986519891 0.03054311091 7.478952561e-17)
(1.017961986 0.02897910083 -1.51062208e-16)
(0.7498242981 0.0178197856 1.087369998e-16)
(1.090756868 0.01567835638 -6.232574984e-17)
(0.8218127981 0.01195127072 2.593004833e-17)
(1.132947647 0.00655552301 -2.228561989e-18)
(0.8493442822 0.008022317938 3.105636851e-17)
(1.157227543 0.0006198474229 -4.709473055e-17)
(0.8517534921 0.002964495628 3.826133669e-17)
(0.4952813972 -0.09124822969 -5.863461859e-17)
(0.2884191529 -0.06193796922 -3.427638084e-17)
(0.869314229 -0.05067041266 -4.312004766e-18)
(0.5984348815 -0.03070361515 -2.060534851e-17)
(1.01764617 -0.02927184116 -3.893072747e-17)
(0.7494972925 -0.01758566613 -5.494035601e-17)
(1.090594782 -0.01576252371 -8.969849636e-17)
(0.821306761 -0.01127234511 1.238982873e-17)
(1.133256726 -0.006510420203 -3.278134725e-17)
(0.848339009 -0.006856508521 -2.084575821e-17)
(1.158326344 -0.0003612470952 -2.124796153e-18)
(0.849890174 -0.001642889177 2.616725224e-17)
(0.5356243956 -0.2682581172 1.609207186e-17)
(0.3159606645 -0.1821103289 9.897636071e-17)
(0.8919183626 -0.1488875966 -6.120849421e-17)
(0.6122958415 -0.09042822605 1.628093769e-16)
(1.030855266 -0.08603200186 8.850050194e-17)
(0.757689154 -0.0521954991 2.309052632e-17)
(1.097672741 -0.04633476809 2.73639971e-16)
(0.8269474227 -0.03414280126 -1.085205429e-16)
(1.135790581 -0.0190426217 1.029032889e-16)
(0.852567658 -0.02165337456 -1.228718457e-16)
(1.157418761 -0.001077256146 1.975306231e-16)
(0.8526020881 -0.006063458107 -2.908632658e-16)
(0.6144362691 -0.4318289075 -4.916237757e-18)
(0.3695098111 -0.2933267986 -1.441162192e-16)
(0.9354195503 -0.2398239932 -4.361862967e-17)
(0.6387348213 -0.1456959758 -2.243323055e-16)
(1.055790794 -0.1386589747 -7.128137282e-17)
(0.772787273 -0.08401286632 -1.720706409e-16)
(1.111044694 -0.07487020336 -1.506011316e-16)
(0.8366082165 -0.05471360096 -1.327150623e-16)
(1.141508822 -0.03128302934 5.485927781e-17)
(0.8582222974 -0.03440844249 -1.169909934e-17)
(1.158520154 -0.002751326193 -8.746875333e-18)
(0.8530780514 -0.009500820859 5.654033414e-17)
(0.7275477474 -0.5737851377 1.811717942e-16)
(0.446444157 -0.3894940347 1.092610673e-16)
(0.9983106129 -0.3184704032 2.180403701e-16)
(0.6771119578 -0.1934646384 2.449462802e-18)
(1.092246121 -0.1840903332 4.091925699e-16)
(0.7951694986 -0.1117696975 -1.48326352e-16)
(1.130656907 -0.09930034931 4.680262777e-16)
(0.8516125411 -0.07324210317 -2.718311285e-16)
(1.149233436 -0.04106642659 3.158461494e-16)
(0.8684861719 -0.04671202569 -4.66606836e-16)
(1.15798662 -0.002747101426 4.395659432e-16)
(0.8575919044 -0.01367366706 -6.067575627e-16)
(0.8694668111 -0.6869940909 -3.921699802e-16)
(0.5430226073 -0.4665651746 -7.060585408e-17)
(1.076956849 -0.3815440304 -2.257843631e-16)
(0.7249931001 -0.2317654018 -5.016266964e-17)
(1.137553563 -0.2206502974 -2.799234204e-16)
(0.8226434396 -0.1336860418 -1.127930099e-16)
(1.155078938 -0.1192645331 -1.391870898e-16)
(0.86930113 -0.08711154388 1.65989295e-17)
(1.159666043 -0.05004383694 -2.011301256e-16)
(0.8791931848 -0.05482876686 3.806351897e-16)
(1.1596387 -0.004819470225 -2.664501367e-16)
(0.8596269361 -0.01509017353 2.468391769e-16)
(1.032950509 -0.7657873026 2.672128746e-16)
(0.6540450421 -0.5197155689 -2.252643767e-17)
(1.167649143 -0.4251079126 3.028764483e-16)
(0.7802520724 -0.2581555309 -1.808385449e-16)
(1.189995363 -0.2458393187 4.955546571e-16)
(0.8548013033 -0.1491009949 -2.001106258e-16)
(1.183226031 -0.1328339277 4.077865078e-16)
(0.8908242177 -0.0975738856 -1.899870746e-16)
(1.170719653 -0.05534370404 3.478570301e-16)
(0.8937741064 -0.0620679877 -6.819457228e-16)
(1.158985989 -0.004382983903 7.210018417e-16)
(0.8654944099 -0.01800945345 -7.003155655e-16)
(1.209879911 -0.8062367036 -5.339275169e-17)
(0.774537662 -0.5473161338 -8.597351229e-17)
(1.265876313 -0.4477895834 1.428972867e-17)
(0.8400712819 -0.2718322176 9.657397286e-17)
(1.2467261 -0.259049674 -2.970984492e-16)
(0.8891059162 -0.1567011667 2.779992463e-17)
(1.213978966 -0.1402413681 -1.893066711e-16)
(0.9127838529 -0.1019249316 9.472237092e-17)
(1.184115412 -0.05922127569 -1.951131844e-16)
(0.9069895385 -0.06392483017 4.296926719e-16)
(1.161359755 -0.00629534711 -4.244820559e-16)
(0.8682595994 -0.01728116196 2.867584388e-16)
(1.391359968 -0.8062538543 -2.1544071e-17)
(0.8976310089 -0.5469721803 7.053425168e-17)
(1.366424604 -0.447698502 -1.916806411e-16)
(0.9012680832 -0.2716786223 7.597353376e-17)
(1.304817583 -0.2590606895 -8.28326067e-18)
(0.9246863626 -0.1567937666 6.226621072e-17)
(1.245172407 -0.1402717732 -4.330299187e-17)
(0.9365874822 -0.1023477972 -3.961092555e-17)
(1.196418322 -0.05894584473 1.549273303e-16)
(0.9230226699 -0.06477239494 -4.227716378e-16)
(1.160824401 -0.005476338854 4.248221797e-16)
(0.8742848592 -0.01834755096 -3.734707083e-16)
(1.568271022 -0.7659463923 -6.980514219e-18)
(1.018149905 -0.5196024598 -1.132779495e-17)
(1.464750093 -0.4254639147 3.486563091e-16)
(0.9611261442 -0.2579841548 -2.031597671e-16)
(1.361692437 -0.2462754765 2.798443585e-16)
(0.9589345782 -0.1485506421 -2.19288445e-16)
(1.276117395 -0.1336698743 1.736843205e-16)
(0.9583449806 -0.09629721352 -6.247193606e-17)
(1.210038764 -0.05706197679 -8.572414259e-17)
(0.9360245527 -0.05992538689 3.144884209e-16)
(1.163306876 -0.007064458445 -3.018475242e-16)
(0.8771837699 -0.01546754246 3.304696056e-16)
(1.731797307 -0.6871663836 -8.37128564e-17)
(1.128944444 -0.4658688876 3.576485175e-17)
(1.555280943 -0.3817559833 -4.107472558e-16)
(1.016157655 -0.2313647871 1.396731175e-16)
(1.41401166 -0.2210987828 -2.846029774e-16)
(0.9908639234 -0.1333717441 2.671749293e-16)
(1.304340469 -0.1200428201 -2.110001438e-16)
(0.9795951705 -0.08672853794 8.463986425e-17)
(1.221424477 -0.05096993872 4.836977913e-20)
(0.9501666834 -0.05447884355 -2.176802388e-17)
(1.163267268 -0.005531742022 3.696115652e-18)
(0.8821990529 -0.01492213222 -3.981243812e-17)
(1.873658602 -0.5740890818 2.818529092e-17)
(1.225585831 -0.3889591406 2.113602888e-17)
(1.634177637 -0.3189927216 2.324612687e-16)
(1.064166331 -0.1930202597 3.306572692e-17)
(1.45969868 -0.1848103873 9.53573192e-17)
(1.018272861 -0.1109690807 -3.924564513e-17)
(1.329282639 -0.1006754931 7.940028506e-17)
(0.9968858202 -0.07157823015 2.976173545e-18)
(1.232531469 -0.04366230452 -3.342257228e-17)
(0.9603728856 -0.04393142582 5.206229028e-17)
(1.165457636 -0.006606207495 -6.628458708e-17)
(0.8843299772 -0.01019856065 1.041764366e-16)
(1.98682367 -0.4320980296 2.654624117e-17)
(1.302176238 -0.2924840224 2.112904697e-18)
(1.696790121 -0.2403236641 -2.00025523e-16)
(1.102173381 -0.1452274324 1.173995247e-17)
(1.495905681 -0.139447817 -1.744769913e-16)
(1.040239147 -0.08356789118 1.354015159e-16)
(1.348926593 -0.07611426217 -2.013070616e-16)
(1.011356856 -0.05397699319 1.308470144e-16)
(1.240649607 -0.03298366813 -8.011222161e-17)
(0.969869857 -0.03337614949 8.751352653e-17)
(1.165678608 -0.004630641912 -1.18912414e-16)
(0.8876810966 -0.008400409581 1.152426505e-16)
(2.065533813 -0.2686458138 1.509843007e-18)
(1.355770743 -0.1813102999 3.376920374e-17)
(1.740574669 -0.1494739547 8.616678331e-17)
(1.128793971 -0.08984215159 5.089169398e-17)
(1.521298135 -0.08681682767 5.097743285e-17)
(1.055374305 -0.05144025897 1.666340349e-17)
(1.362897082 -0.04771413071 2.439660786e-17)
(1.020771794 -0.03274159365 3.464088205e-17)
(1.247071145 -0.02149113436 -3.726697821e-17)
(0.9752347571 -0.01928642767 4.967074752e-17)
(1.167259761 -0.004702342149 -5.166777109e-17)
(0.888453713 -0.002875647688 5.971933151e-17)
(2.105898372 -0.09155548201 -7.625500917e-18)
(1.383034823 -0.06117309249 -1.315014018e-17)
(1.762885545 -0.05139853327 -9.070475042e-17)
(1.142303937 -0.03034500496 -6.267953057e-19)
(1.534230714 -0.03024796335 -1.005786949e-16)
(1.06309713 -0.01731977124 5.120778049e-17)
(1.370027548 -0.01708482254 -1.022609522e-16)
(1.025707438 -0.01076560983 6.597746205e-17)
(1.250197079 -0.008319987246 -6.52748602e-17)
(0.9783543881 -0.005937164539 6.754212927e-17)
(1.167544901 -0.002637084225 -7.917960096e-17)
(0.8895713198 -0.0003101188447 8.769823205e-17)
(2.10585143 0.08989801268 1.451259669e-17)
(1.382959522 0.06217802402 3.778198931e-17)
(1.762839384 0.04949990634 4.18953472e-17)
(1.142239844 0.03107964865 5.140493004e-17)
(1.534242717 0.02826890063 2.747424547e-17)
(1.062929271 0.01819944611 4.314748891e-17)
(1.370193128 0.01468178589 9.796736528e-18)
(1.025353616 0.01246754206 3.653715797e-17)
(1.250562514 0.004961289091 -2.140857006e-17)
(0.9778441342 0.009104792419 3.206578217e-17)
(1.168019187 -0.001909690745 -3.166352413e-17)
(0.8890650955 0.005075786795 3.493638828e-17)
(2.06539511 0.2670167971 -3.440751587e-17)
(1.35552944 0.1822380674 -2.992610749e-17)
(1.740422441 0.1476068782 -6.108701526e-17)
(1.128615519 0.09051891802 -2.08373916e-17)
(1.521329089 0.08489840315 -1.056861706e-16)
(1.054950133 0.0522215424 3.807730164e-17)
(1.363355027 0.04544581543 -1.28756957e-16)
(1.019907132 0.03425589728 7.617913163e-17)
(1.247987866 0.0183566868 -7.744325976e-17)
(0.9741263697 0.02219780697 9.199645882e-17)
(1.168222053 0.0004085152327 -1.068864968e-16)
(0.8877537832 0.007423809132 1.401489497e-16)
(1.986575883 0.430525361 3.021067876e-17)
(1.301824887 0.2932649856 5.286790046e-17)
(1.696537266 0.2385092092 4.26616201e-17)
(1.101899619 0.1457742922 7.656886559e-17)
(1.495930233 0.1376368418 4.55773525e-17)
(1.03954117 0.08412188381 6.423743971e-17)
(1.349626236 0.0741289128 4.900020579e-17)
(1.009907793 0.05504856349 4.118781011e-17)
(1.242133982 0.03040164634 -7.61728006e-18)
(0.967924986 0.03559438679 -1.578643611e-17)
(1.167383575 0.001108301709 1.978955987e-17)
(0.886173883 0.01212793549 -2.273614679e-17)
(1.873291492 0.5725887858 -1.170925447e-16)
(1.225136487 0.3895299052 -3.421867077e-17)
(1.633791818 0.3172579696 -1.202685438e-16)
(1.063836127 0.1934109969 2.96512229e-17)
(1.459676749 0.1831531023 -2.045656606e-16)
(1.017449543 0.1112709713 8.204814979e-17)
(1.330096578 0.09902868867 -2.111752484e-16)
(0.9951996368 0.07217984971 1.195325312e-16)
(1.234233416 0.04163562436 -1.488814398e-16)
(0.9582181113 0.04550979414 2.25698617e-16)
(1.167238436 0.003702826536 -2.188716327e-16)
(0.8829536794 0.01336750834 2.792991432e-16)
(1.731285911 0.6857507705 1.974627694e-16)
(1.128489305 0.4661955424 1.568099979e-17)
(1.55477352 0.3801123462 9.71897666e-17)
(1.015816436 0.2315383087 -1.864291381e-17)
(1.413905249 0.2196178616 1.667927911e-16)
(0.9899280757 0.1332958012 2.311211298e-17)
(1.305166598 0.1188489208 8.925484753e-17)
(0.9776461688 0.0865974646 -5.691633174e-17)
(1.223273121 0.04983191613 1.451135791e-16)
(0.9476534563 0.05491502524 -2.666322458e-16)
(1.165257107 0.003874224114 2.022458658e-16)
(0.8805433853 0.01675855512 -1.999027446e-16)
(1.567602401 0.7646136065 -1.314943418e-16)
(1.017711575 0.5196444569 2.45535028e-17)
(1.464075354 0.4239121351 -9.340148074e-17)
(0.9608259587 0.2579509175 1.050718806e-16)
(1.361441199 0.2449729276 -2.36065338e-16)
(0.9580837176 0.1481768404 8.185640995e-17)
(1.276776701 0.1328628 -1.834060814e-16)
(0.9565913055 0.09563748071 8.050926811e-17)
(1.211578483 0.05654459856 -1.954836197e-16)
(0.9339128883 0.05964185309 4.403542822e-16)
(1.164729222 0.00608806401 -4.611542144e-16)
(0.8761770629 0.01663458166 4.33462671e-16)
(1.390517364 0.8049928614 -3.349964799e-17)
(0.8973118206 0.5467500012 3.533727101e-17)
(1.365606381 0.4462506088 -1.407685779e-16)
(0.901057408 0.2714102092 -9.022828582e-17)
(1.304391627 0.2579351337 1.666566112e-16)
(0.923922617 0.1560267792 -3.474902697e-17)
(1.245577285 0.1398905293 1.321750084e-16)
(0.9349690059 0.1009399497 -1.028690605e-16)
(1.197618286 0.0592725587 1.87873883e-16)
(0.9211273569 0.06332280692 -4.380295681e-16)
(1.161854699 0.005705873 4.395212159e-16)
(0.8735874159 0.01814969943 -3.46820735e-16)
(1.208860373 0.8050296428 1.20001611e-16)
(0.7743575378 0.5468141758 -7.650887877e-17)
(1.264878741 0.4464077213 4.285969054e-16)
(0.8400031547 0.2713694889 -1.539013944e-16)
(1.246080132 0.2580482004 2.176999769e-16)
(0.8886263529 0.155716125 -1.916151567e-16)
(1.213964972 0.1401107341 2.164243588e-16)
(0.911757978 0.1001794021 -6.046071878e-17)
(1.184521591 0.05992060935 -6.043133385e-17)
(0.9060614182 0.06202308671 3.326004597e-16)
(1.161223174 0.006900863343 -3.311651161e-16)
(0.8687265167 0.01662140826 2.515942052e-16)
(1.03175834 0.764607327 -1.964462786e-17)
(0.6540822044 0.5190016675 -2.866433871e-17)
(1.166500492 0.4238159353 -5.738502896e-16)
(0.7803482164 0.2575066806 2.404221505e-16)
(1.189114331 0.2449488963 -4.645566927e-16)
(0.8545652006 0.1478490558 2.743146271e-16)
(1.182768251 0.132918714 -2.808785366e-16)
(0.8902493041 0.09535108261 6.918579862e-17)
(1.170437808 0.0565013121 1.105029267e-16)
(0.893503041 0.05939003453 -4.377325123e-16)
(1.158048532 0.005725695738 4.200317921e-16)
(0.8666600336 0.01634733779 -4.733434923e-16)
(0.8681260844 0.6858129654 1.428850122e-16)
(0.543281241 0.4656511602 -4.23111162e-17)
(1.075665093 0.3802735249 7.812197763e-16)
(0.7252964885 0.2309934378 -2.300348727e-16)
(1.136457702 0.2197769583 6.097145069e-16)
(0.8227906996 0.1323947342 -5.236905413e-16)
(1.154127405 0.1193190951 4.838738275e-16)
(0.8694934894 0.0849344544 -2.428369902e-16)
(1.158423915 0.05105877749 9.261079749e-17)
(0.880129895 0.0522482304 -6.356061649e-17)
(1.157333443 0.005897458471 1.19036554e-16)
(0.8621939877 0.01345413182 -3.58268944e-17)
(0.7260747241 0.5725819047 2.40573808e-17)
(0.4469641057 0.3884600833 -5.069924195e-17)
(0.9968829989 0.3172610059 -4.538628041e-16)
(0.6776059528 0.1925860409 -1.543047251e-16)
(1.090914786 0.1832319881 -1.546219709e-16)
(0.7956137319 0.110403155 4.922246789e-17)
(1.129230179 0.09928294243 -1.390139965e-16)
(0.8523622312 0.07099582119 -2.041944369e-17)
(1.147228023 0.04200232589 8.242313532e-17)
(0.8702138196 0.0439580848 -3.671614512e-17)
(1.154804723 0.003882626149 7.390822446e-17)
(0.8609218866 0.01164007668 -1.31363751e-16)
(0.612911138 0.4305732015 -1.86887698e-16)
(0.3702525643 0.2922155311 -1.110074457e-17)
(0.933937378 0.2386043279 4.000618881e-16)
(0.6394333431 0.1447984941 4.610933888e-17)
(1.054331938 0.1377184024 3.687750349e-16)
(0.7735789001 0.08281619342 -3.074673716e-16)
(1.109242467 0.07453874771 5.08149768e-16)
(0.8380240252 0.05293191057 -3.416845263e-16)
(1.138735659 0.0315614027 1.957942816e-16)
(0.8609892169 0.03233247646 -2.473718462e-16)
(1.15424533 0.003013846522 3.479531324e-16)
(0.8576288249 0.00797621023 -3.377357523e-16)
(0.5340331538 0.2669538577 1.131812004e-16)
(0.3169557793 0.1809770466 -1.752368577e-17)