/*--------------------------------*- C++ -*----------------------------------*\
| =========                 |                                                 |
| \\      /  F ield         | foam-extend: Open Source CFD                    |
|  \\    /   O peration     | Version:  3.0                                   |
|   \\  /    A nd           | Web:         http://www.extend-project.de       |
|    \\/     M anipulation  |                                                 |
\*---------------------------------------------------------------------------*/
FoamFile
{
    version     2.0;
    format      ascii;
    class       volScalarField;
    location    "12";
    object      p;
}
// * * * * * * * * * * * * * * * * * * * * * * * * * * * * * * * * * * * * * //

dimensions      [0 0 0 0 0 0 0];

internalField   nonuniform List<scalar> 
672
(
-0.2454214279
-0.2091512459
-0.1977757956
-0.1796534224
-0.1767594591
-0.1673414848
-0.168031896
-0.163093246
-0.1646216985
-0.161354206
-0.1612981618
-0.1569606154
-0.2423346409
-0.2065184856
-0.1952838065
-0.1773865585
-0.1745255172
-0.1652220452
-0.1658994234
-0.1610183544
-0.1625225396
-0.1592912512
-0.1592303735
-0.1549425592
-0.2361728243
-0.2012660611
-0.1903164899
-0.1728725303
-0.170082471
-0.161012556
-0.1616699352
-0.1569090198
-0.1583710557
-0.1552170824
-0.1551526342
-0.1509686055
-0.2270679504
-0.1935033416
-0.1829731651
-0.1661986015
-0.1635130441
-0.1547889304
-0.1554169062
-0.1508347527
-0.1522352488
-0.1491972813
-0.1491292044
-0.1451007027
-0.2150807944
-0.18328579
-0.1733104499
-0.1574191671
-0.1548737406
-0.1466069867
-0.1471992421
-0.1428548006
-0.1441773899
-0.1412944994
-0.1412244037
-0.1374023873
-0.2004142356
-0.1707830702
-0.1614850517
-0.1466738608
-0.1442988404
-0.1365915614
-0.1371392963
-0.1330859335
-0.1343130261
-0.1316205383
-0.1315486088
-0.1279803898
-0.1832022356
-0.1561126057
-0.1476115882
-0.1340696168
-0.1318967513
-0.1248477671
-0.1253456331
-0.1216355897
-0.1227526962
-0.1202851389
-0.1202126726
-0.1169434696
-0.1637106039
-0.139498114
-0.131898265
-0.1197929028
-0.1178476377
-0.1115437257
-0.1119841143
-0.1086629092
-0.1096553078
-0.1074430814
-0.1073706279
-0.1044410331
-0.1421366002
-0.1211106925
-0.1145102223
-0.1039965726
-0.1023051587
-0.09682737933
-0.09720586741
-0.09431624067
-0.09517192304
-0.09324339836
-0.0931721871
-0.09061955784
-0.1187985379
-0.1012189612
-0.09569826034
-0.08690575429
-0.08548764654
-0.08090316274
-0.08121389218
-0.07879122803
-0.07949894819
-0.07787784689
-0.07780846517
-0.07566454295
-0.09394409133
-0.08003685261
-0.07566787927
-0.06870991559
-0.06758447299
-0.06395255912
-0.0641923482
-0.06226801263
-0.06281917951
-0.06152659799
-0.06146036385
-0.05975284432
-0.06793103292
-0.05786665912
-0.0547018795
-0.04966332358
-0.04884305019
-0.04620777977
-0.04637264545
-0.04496988556
-0.04535703187
-0.04440862853
-0.04434601472
-0.04309613787
-0.04104209722
-0.03495207649
-0.03303368726
-0.0299806662
-0.02947717432
-0.02787326224
-0.02796173545
-0.02709920079
-0.02731784099
-0.02672644341
-0.02666881731
-0.02589318054
-0.01365943801
-0.0116161869
-0.01096598031
-0.009934362006
-0.009752445818
-0.009198471613
-0.009208413481
-0.008895898121
-0.008942571377
-0.008714962142
-0.008662624125
-0.008370856935
0.01391615022
0.01188205095
0.01125362287
0.01024813977
0.01010499091
0.009600436779
0.009668478503
0.009425911724
0.009551248494
0.009411220499
0.009456926054
0.009260233927
0.0412945945
0.03521280761
0.03331586901
0.03028841252
0.02982349164
0.02826839381
0.02841469142
0.02762122781
0.02791786011
0.02741261881
0.02745160009
0.02676899456
0.06817471226
0.05811692036
0.0549731369
0.04995907897
0.04917703733
0.04658927234
0.04681121479
0.04547564388
0.04593918435
0.04507411823
0.04510516398
0.04394436029
0.09417561442
0.08027239251
0.07592344777
0.06898832896
0.0679004516
0.06431423577
0.06461017235
0.06275044594
0.06337595554
0.06216259712
0.06218583012
0.06056153684
0.119013167
0.1014346978
0.09593314957
0.08716152383
0.08578027596
0.08123901428
0.08160439795
0.07924272426
0.08002165414
0.07847437545
0.07848882529
0.07642071637
0.1423325116
0.1213040295
0.1147211636
0.1042258436
0.1025699689
0.09713243922
0.09756372167
0.09473093373
0.09565429773
0.0937932206
0.09379922726
0.09131354983
0.1638829542
0.1396644364
0.132080946
0.1199913245
0.1180804061
0.1118133196
0.1123042224
0.1090348087
0.110090323
0.1079380616
0.1079349475
0.1050623676
0.1833513471
0.1562516475
0.1477649638
0.1342355983
0.1320949391
0.1250787468
0.1256239993
0.1219601725
0.1231352557
0.1207195804
0.1207079292
0.1174849947
0.2005350389
0.1708907036
0.1616054966
0.1468040189
0.144459267
0.1367805723
0.1373724235
0.1333591691
0.1346383651
0.1319889561
0.1319683748
0.1284352045
0.2151762376
0.1833644704
0.1733995424
0.1575146294
0.1549964434
0.1467534167
0.1473851906
0.1430740505
0.1444418666
0.1415928074
0.1415641416
0.1377657815
0.2271325001
0.1935493184
0.1830279586
0.1662569464
0.1635956854
0.1548903921
0.155553194
0.1509973232
0.15243585
0.149422341
0.1493854674
0.1453694437
0.2362122608
0.2012844898
0.190341023
0.1728973673
0.1701275927
0.1610710919
0.1617572546
0.157015013
0.1585066879
0.1553674557
0.1553234554
0.1511410437
0.2423424485
0.2065054622
0.1952755069
0.1773762112
0.174531416
0.1652360251
0.1659359206
0.1610658977
0.1625912251
0.1593651658
0.1593141583
0.1550178448
0.2454052545
0.209114259
0.1977410337
0.1796137429
0.1767307504
0.1673149369
0.1680203753
0.1630848835
0.164625172
0.1613537291
0.1612969871
0.1569416643
0.245402695
0.2091103084
0.1977348531
0.1796052082
0.1767189236
0.1672995382
0.1680006269
0.1630606936
0.1645958243
0.1613195796
0.1612574082
0.1568978007
0.2422945454
0.2064616711
0.1952290223
0.1773275487
0.174475308
0.1651723681
0.1658608933
0.1609797083
0.1624908599
0.1592518937
0.1591857054
0.1548775086
0.2361598759
0.2012333903
0.1902828304
0.1728323412
0.170048673
0.1609776183
0.1616439092
0.1568818207
0.1583492443
0.1551877253
0.1551179348
0.1509152657
0.2270359842
0.1934595169
0.182930733
0.166153181
0.1634741595
0.1547506207
0.1553869415
0.1508048964
0.1522106504
0.1491671833
0.1490952856
0.1450517857
0.2150771212
0.1832691128
0.1732925382
0.1573965851
0.1548545902
0.1465867209
0.1471840946
0.1428386764
0.1441643527
0.1412766135
0.1412030538
0.1373694227
0.2003941609
0.1707588715
0.1614619449
0.1466499505
0.144278079
0.136571408
0.1371230491
0.1330699584
0.1342994568
0.1316045458
0.1315308387
0.1279559266
0.1832109044
0.1561170908
0.1476147494
0.1340706171
0.1318974299
0.1248473159
0.1253453706
0.1216345302
0.1227516875
0.1202828419
0.1202094015
0.1169378713
0.1637041656
0.1394966236
0.1318977726
0.119794238
0.1178482767
0.1115449378
0.1119839811
0.1086631064
0.1096545218
0.1074434972
0.107371798
0.1044452422
0.1421582043
0.1211372737
0.114535485
0.1040223363
0.1023268547
0.09684799016
0.09722165214
0.0943314486
0.09518399102
0.09325787878
0.09318824956
0.09064300962
0.1188048112
0.1012387473
0.09571903717
0.08693084995
0.085508471
0.08092454584
0.08122908567
0.07880694428
0.07951062334
0.07789427283
0.07782810519
0.0756964468
0.09397660901
0.0800820598
0.07571183648
0.06875664708
0.06762408241
0.06399115815
0.0642219544
0.06229726755
0.06284260292
0.06155557151
0.06149307279
0.05980117976
0.06794661554
0.05790209661
0.05473833353
0.04970594549
0.04887881791
0.04624415484
0.04639937142
0.04499738853
0.04537832746
0.04443735941
0.04437979215
0.04314903758
0.04108133079
0.03500874618
0.03308919666
0.03004036054
0.02952792394
0.02792305552
0.02799998406
0.02713725347
0.02734839221
0.02676450538
0.02671194449
0.02595705657
0.01367912959
0.01165858758
0.01100944153
0.009984831577
0.00979496162
0.009241649339
0.009240450024
0.008928870114
0.008968396618
0.008749458261
0.008702997871
0.008433474887
-0.01387573856
-0.01182335937
-0.01119601533
-0.01018609137
-0.01005213972
-0.009548538679
-0.009628573394
-0.0093861756
-0.009519345139
-0.009371432462
-0.009411849783
-0.009193440684
-0.04127678482
-0.03517348872
-0.03327543142
-0.03024130924
-0.02978377273
-0.02822801515
-0.02838477604
-0.02759040293
-0.0278937868
-0.02738034784
-0.02741381892
-0.02671021338
-0.06813889898
-0.05806605501
-0.05492330518
-0.04990575796
-0.04913152999
-0.04654476599
-0.04677694744
-0.04544166716
-0.0459119667
-0.04504032558
-0.04506702163
-0.04388790121
-0.09416532074
-0.08024560543
-0.0758954646
-0.06895513825
-0.06787249829
-0.06428567423
-0.06458935843
-0.06272893069
-0.06335954172
-0.06214007704
-0.06215929345
-0.06051937131
-0.1189868059
-0.101399954
-0.09589940314
-0.08712625645
-0.08575003557
-0.08120983716
-0.0815818262
-0.07922068448
-0.08000409764
-0.07845298308
-0.07846499189
-0.0763856615
-0.1423339302
-0.1212967914
-0.1147126184
-0.1042143669
-0.1025603577
-0.09712223445
-0.09755694596
-0.09472375252
-0.0956495638
-0.09378566293
-0.0937899432
-0.0912970687
-0.1638689874
-0.139650895
-0.132068356
-0.1199798039
-0.1180702356
-0.1118042273
-0.1122969001
-0.1090282942
-0.1100852443
-0.1079327477
-0.1079296771
-0.1050552395
-0.183366417
-0.1562671597
-0.1477790254
-0.1342493667
-0.1321066259
-0.1250897523
-0.1256332542
-0.1219692431
-0.1231435457
-0.1207288095
-0.1207180311
-0.1174976979
-0.2005338811
-0.1708991983
-0.1616149054
-0.1468171704
-0.144469944
-0.1367923006
-0.1373808215
-0.1333685937
-0.1346459825
-0.1320000451
-0.1319820468
-0.1284567579
-0.2152042469
-0.1834014466
-0.1734349508
-0.1575521778
-0.1550282741
-0.1467845035
-0.1474095639
-0.1430983156
-0.1444621211
-0.1416173951
-0.141591912
-0.1378053245
-0.2271419094
-0.1935762064
-0.1830558565
-0.1662907501
-0.1636238203
-0.1549196236
-0.1555748025
-0.1510201291
-0.1524540634
-0.149447103
-0.1494148687
-0.145414912
-0.236249946
-0.2013373084
-0.1903922613
-0.1729524266
-0.1701743696
-0.1611172276
-0.1617931178
-0.1570508648
-0.1585360367
-0.1554035178
-0.1553641697
-0.1512002863
-0.2423577881
-0.2065431796
-0.1953145152
-0.1774224995
-0.1745701498
-0.1652760057
-0.1659656846
-0.1610970111
-0.1626160139
-0.1593983633
-0.1593531605
-0.1550779586
-0.2454472667
-0.2091739056
-0.1977989366
-0.1796760636
-0.176783816
-0.1673674919
-0.1680611823
-0.1631258769
-0.1646586577
-0.16139516
-0.1613438654
-0.1570102215
)
;

boundaryField
{
    out
    {
        type            implicitExtrapolation;
    }
    in
    {
        type            implicitExtrapolation;
    }
    frontAndBack
    {
        type            empty;
    }
}


// ************************************************************************* //
