/*--------------------------------*- C++ -*----------------------------------*\
| =========                 |                                                 |
| \\      /  F ield         | foam-extend: Open Source CFD                    |
|  \\    /   O peration     | Version:  3.0                                   |
|   \\  /    A nd           | Web:         http://www.extend-project.de       |
|    \\/     M anipulation  |                                                 |
\*---------------------------------------------------------------------------*/
FoamFile
{
    version     2.0;
    format      ascii;
    class       volVectorField;
    location    "12";
    object      u;
}
// * * * * * * * * * * * * * * * * * * * * * * * * * * * * * * * * * * * * * //

dimensions      [0 0 0 0 0 0 0];

internalField   nonuniform List<vector> 
672
(
(0.2385910752 -0.08841187195 6.411474246e-19)
(0.4843746681 -0.06179307034 3.52635839e-18)
(0.657913213 -0.04451720873 1.125815384e-17)
(0.7594721757 -0.03237473826 -4.813429036e-18)
(0.8430112099 -0.0238288536 5.424978386e-18)
(0.8890673774 -0.01747293498 2.261792992e-18)
(0.9346131257 -0.01250334709 2.60722291e-18)
(0.9545859198 -0.008675894872 -8.098027568e-19)
(0.9812503819 -0.005195245109 5.981635713e-18)
(0.9862626452 -0.002510282969 9.046684651e-18)
(1.002000832 0.000424809321 -2.615118178e-18)
(0.9964299423 0.003312176403 1.71824552e-18)
(0.2790206833 -0.2669575665 -8.115301162e-19)
(0.51287372 -0.1876992361 3.698025176e-18)
(0.6786732455 -0.1363355886 1.271376124e-17)
(0.774783918 -0.1002084404 -5.940215073e-18)
(0.8544981739 -0.07486570434 -1.052334773e-18)
(0.8977029706 -0.05600423155 -2.690373914e-18)
(0.9410283745 -0.04133732117 -1.757358667e-17)
(0.9592854475 -0.03004154631 1.158123825e-17)
(0.9843989515 -0.01984333234 1.001118917e-17)
(0.9882097683 -0.01199292356 -3.908469555e-18)
(1.002645076 -0.003461381747 -1.016957747e-17)
(0.9958814032 0.004377474575 2.055493201e-17)
(0.3581707491 -0.4320356527 -6.241426671e-18)
(0.5686783197 -0.3041117246 2.930815739e-18)
(0.7193494369 -0.2212323488 4.535665847e-18)
(0.804812983 -0.1629348325 1.114416863e-17)
(0.8770626973 -0.1220678535 -5.366465089e-18)
(0.9147056744 -0.09164905628 1.470060298e-17)
(0.9537094254 -0.06802209703 1.462536427e-17)
(0.9686316523 -0.04982653538 3.199774986e-17)
(0.9907374291 -0.03342431661 -7.835729122e-18)
(0.9922262611 -0.02080620257 1.194994345e-17)
(1.004143744 -0.007110693156 -4.189791397e-18)
(0.995112081 0.00529108821 1.295167717e-17)
(0.4720733291 -0.5753621367 4.933282904e-18)
(0.6489922788 -0.4051871273 -2.213855533e-18)
(0.7779044231 -0.2949496391 -2.742873798e-18)
(0.8480557518 -0.2174063736 1.436814158e-18)
(0.909573918 -0.163066415 -1.420926252e-17)
(0.9392230162 -0.1226182969 9.390520342e-18)
(0.9720191851 -0.0912191438 -2.332688019e-17)
(0.9821547505 -0.06703970835 2.034551136e-17)
(0.999947107 -0.04525945137 6.642577577e-18)
(0.9981106437 -0.02851019619 2.629861648e-17)
(1.00642328 -0.01034158091 3.087225217e-18)
(0.9941623352 0.006003909498 4.186165069e-17)
(0.6150223691 -0.6897592992 1.911733756e-17)
(0.7497951106 -0.4858630788 2.606551531e-18)
(0.8514060937 -0.3537926965 6.765548781e-19)
(0.9023470293 -0.2608928227 3.925002313e-18)
(0.9504050198 -0.1958051336 5.29393808e-18)
(0.9700290252 -0.1473581578 1.841055643e-17)
(0.995043647 -0.1097633112 -1.512868961e-17)
(0.9991802378 -0.08081593921 6.980015317e-18)
(1.0115698 -0.05475341292 1.624686089e-17)
(1.005571092 -0.03471800653 -3.729784196e-17)
(1.009372791 -0.01299207689 -5.055786757e-18)
(0.9930831844 0.006479850352 7.926201728e-18)
(0.7798486581 -0.7694840333 2.767070363e-18)
(0.8660263254 -0.5420893256 4.221146285e-18)
(0.9361645503 -0.3948088945 -1.734565775e-17)
(0.9649597978 -0.2912120457 1.4501582e-18)
(0.9975050526 -0.2186423194 -1.398019813e-17)
(1.005576147 -0.1646281553 1.099836316e-17)
(1.021626724 -0.1227259473 -2.693846516e-17)
(1.018854425 -0.09046569737 -1.790854058e-17)
(1.025024184 -0.06143181997 1.112447815e-17)
(1.014236187 -0.03911949927 4.86801404e-17)
(1.012847939 -0.01493014908 -4.977819294e-17)
(0.9919333942 0.006693318783 3.583115265e-17)
(0.9582932658 -0.8105432323 -1.134660149e-18)
(0.9918658803 -0.5710487976 2.785975548e-18)
(1.027935363 -0.4159418688 -1.33033396e-17)
(1.032760358 -0.3068430986 -1.611975992e-17)
(1.04851674 -0.23043065 2.263928805e-17)
(1.044085848 -0.1735598075 9.267739034e-18)
(1.050438419 -0.129453414 1.840966059e-17)
(1.040193094 -0.0955015741 -2.647318493e-18)
(1.039637823 -0.06495621267 -1.10116182e-18)
(1.023674186 -0.041491119 -2.318395306e-17)
(1.016678053 -0.01605666145 2.79729502e-17)
(0.9907742298 0.006635861331 1.044170047e-17)
(1.141408223 -0.8108717486 5.482279478e-18)
(1.120999659 -0.5712863808 -3.33753914e-18)
(1.122114361 -0.4161303816 -9.128909142e-19)
(1.102345556 -0.3070019223 -7.509252527e-18)
(1.100880733 -0.2305797321 3.129281128e-18)
(1.083626255 -0.1737060142 7.38034592e-18)
(1.080035141 -0.129609454 2.158462996e-17)
(1.062128369 -0.09567147575 2.962937729e-18)
(1.054681351 -0.06514958837 6.832562268e-18)
(1.033415351 -0.04171259729 2.905956574e-17)
(1.020674961 -0.01631247393 -2.176045357e-17)
(0.9896681192 0.006312048375 5.19471376e-18)
(1.32001648 -0.7704540385 8.625694967e-18)
(1.246958744 -0.542789495 -4.527937786e-18)
(1.213983062 -0.3953640435 -7.548802656e-18)
(1.17023042 -0.2916786439 8.518730522e-18)
(1.151973604 -0.2190795884 -2.067692102e-17)
(1.122216623 -0.1650568521 4.976935569e-18)
(1.108933471 -0.1231832886 -9.717068011e-18)
(1.083560953 -0.09096413766 1.312396886e-17)
(1.069401022 -0.06199958444 -4.454703318e-18)
(1.042972948 -0.03977026008 -3.488795313e-17)
(1.024641055 -0.01568250211 1.069988088e-17)
(0.9886737424 0.005741807596 -2.207255346e-17)
(1.485161302 -0.6913112979 6.019564327e-18)
(1.36342422 -0.4869853924 8.493423001e-19)
(1.298933723 -0.3546829547 1.486037001e-17)
(1.233009332 -0.2616419586 3.018722908e-18)
(1.199233802 -0.1965071234 3.68104265e-18)
(1.157922429 -0.1480462963 -2.145803338e-17)
(1.135686336 -0.1104967276 3.577942181e-18)
(1.103418043 -0.08161456826 1.054654293e-19)
(1.083061285 -0.05566178713 -1.43491669e-17)
(1.051869733 -0.03575839749 -1.523298827e-17)
(1.028379774 -0.01419378203 1.376990935e-17)
(0.9878427565 0.004957394798 -5.527662166e-18)
(1.628564459 -0.5774109503 -8.191838593e-19)
(1.464559984 -0.4066701459 -4.616203158e-19)
(1.37270886 -0.2961256822 1.253472633e-18)
(1.287536932 -0.2183958053 -4.951356147e-18)
(1.240292508 -0.1639923162 4.904531821e-18)
(1.188954498 -0.1235251566 -1.047869066e-17)
(1.158952683 -0.09218393507 -8.23094842e-19)
(1.120704947 -0.06808931362 -5.536488758e-18)
(1.094978047 -0.04645171266 -1.762148551e-18)
(1.059661229 -0.02987517171 4.686894905e-18)
(1.031705044 -0.01191760873 1.743007535e-18)
(0.9872181277 0.004002550449 -3.624200094e-18)
(1.743033579 -0.4344601019 -6.686814033e-18)
(1.545292622 -0.3058703376 -1.586616372e-18)
(1.431608705 -0.2226275091 3.372170194e-18)
(1.331078439 -0.1641092606 3.940345921e-18)
(1.273091752 -0.1231653603 4.182752353e-18)
(1.213757251 -0.09272330949 -4.605166322e-18)
(1.177566884 -0.06916251474 1.00626308e-17)
(1.134555133 -0.05106607523 -1.092415256e-17)
(1.10455398 -0.0348294491 -5.787341707e-18)
(1.065956208 -0.02241360561 -3.184543633e-18)
(1.034449562 -0.008964550783 1.19982932e-17)
(0.9868302389 0.002928905866 -1.027768424e-17)
(1.822829153 -0.2696256902 -3.884980899e-18)
(1.601575704 -0.1896382996 -1.194113814e-18)
(1.47268081 -0.1378731275 1.774042576e-18)
(1.361451992 -0.1015026783 1.430167485e-18)
(1.295987315 -0.07607248078 3.221806218e-19)
(1.2310879 -0.05718342626 -1.490042731e-18)
(1.190595869 -0.04258533708 6.880277939e-19)
(1.144274865 -0.03139598425 -6.259081204e-18)
(1.111309297 -0.02137541576 -6.11439327e-19)
(1.070439641 -0.01374452633 -2.781249454e-18)
(1.036475824 -0.005479632647 4.775501846e-18)
(0.986697526 0.001793816588 -3.702670185e-18)
(1.863947475 -0.0911706382 -1.901110339e-18)
(1.630585269 -0.06380260268 -6.623913194e-19)
(1.493865335 -0.04611184764 5.910002812e-19)
(1.377134393 -0.03371636206 9.700284988e-19)
(1.307831802 -0.02507507793 5.471308405e-19)
(1.240077793 -0.01868866805 -7.307739129e-19)
(1.197386842 -0.0137851825 -2.454333769e-19)
(1.149376688 -0.01006619063 -3.09393378e-18)
(1.114904752 -0.006763845335 -2.004971255e-18)
(1.072885238 -0.00430231041 -1.915451069e-18)
(1.037679926 -0.00163565962 1.809255138e-18)
(0.9868236432 0.0006559253425 -2.62078119e-18)
(1.864325765 0.0919563744 -1.471785272e-19)
(1.630867259 0.06532806934 -1.142855622e-21)
(1.49410057 0.04805484689 -5.078620491e-19)
(1.377340202 0.03585167814 1.404741213e-18)
(1.30803164 0.02726968891 7.167385919e-19)
(1.240276657 0.02083194711 -3.204891156e-19)
(1.197599127 0.0157943177 5.809902339e-19)
(1.149604562 0.01185531387 -2.983482932e-18)
(1.115159167 0.008273420107 -2.524042624e-18)
(1.073169267 0.005441237361 -1.830434397e-18)
(1.037999963 0.00237563003 9.738859306e-19)
(0.9871992928 -0.0004264016127 -3.527730882e-18)
(1.823942294 0.2705729443 1.729536756e-18)
(1.602406125 0.1912771992 7.673723811e-19)
(1.473374277 0.1399049423 -1.102037601e-18)
(1.362059203 0.1037114269 1.397107775e-18)
(1.296577357 0.07833647772 1.626090844e-18)
(1.231675145 0.05939482697 -8.118724919e-19)
(1.191222693 0.04466902886 2.695385222e-18)
(1.144947392 0.03326747581 -5.869209455e-18)
(1.112059584 0.02298169854 -2.880821539e-18)
(1.071276498 0.01499635437 -1.103487086e-18)
(1.037417869 0.006353074906 9.379741975e-19)
(0.9878025524 -0.001400342449 -7.162368905e-18)
(1.744821251 0.43572036 4.01822875e-18)
(1.546629406 0.3077292131 1.547867851e-18)
(1.43272657 0.2248315267 7.934611773e-19)
(1.332058489 0.166460431 -2.439706396e-18)
(1.274043902 0.1255637133 3.155857866e-18)
(1.214704929 0.09506661193 -5.020303185e-18)
(1.178577141 0.07139016679 -2.441722744e-18)
(1.1356382 0.05309654814 -8.988585545e-18)
(1.105760259 0.03662202452 1.694237353e-18)
(1.067300035 0.02388305357 -4.817304321e-18)
(1.035960316 0.01009541254 -1.011909358e-18)
(0.9885996869 -0.002218835967 -6.914418725e-18)
(1.630927904 0.5791156623 1.673950851e-19)
(1.466333142 0.4088422106 2.973109429e-18)
(1.374195311 0.2985750506 3.29856905e-18)
(1.288842878 0.2209499924 8.818167927e-19)
(1.241561816 0.1665820672 5.511919784e-18)
(1.190218019 0.12605615 -3.666867386e-18)
(1.16029743 0.09461631319 1.31762856e-17)
(1.122144645 0.07034567581 -2.861536599e-18)
(1.096577418 0.04850883244 -2.151419613e-18)
(1.061439442 0.03165323296 -6.754197163e-18)
(1.033699952 0.01341329483 -3.417834934e-19)
(0.9895493757 -0.002845032893 -1.517285546e-17)
(1.487973944 0.6935648685 -6.765740837e-18)
(1.365544616 0.4895451315 -2.54311094e-21)
(1.300716992 0.3574359227 1.745234543e-18)
(1.234580431 0.264447481 -4.785174589e-19)
(1.200761028 0.1993331001 -3.927258354e-18)
(1.159442937 0.1508089496 -8.666442806e-18)
(1.13730081 0.1131807774 9.799370994e-18)
(1.105143518 0.08414857619 3.061469877e-18)
(1.084971402 0.05804302831 -5.99933233e-18)
(1.053987556 0.0379145567 2.037002327e-17)
(1.03074817 0.01613610246 6.831614358e-18)
(0.9906020463 -0.003251983875 -6.149641297e-19)
(1.3231269 0.7733258205 1.703729694e-18)
(1.249317893 0.5457878888 -1.663531661e-18)
(1.21597608 0.3984609196 1.268413265e-17)
(1.171993028 0.2947691328 5.641203126e-19)
(1.153688298 0.2221729214 7.994932889e-18)
(1.123924437 0.1680810379 -5.638549653e-18)
(1.110741699 0.1261505731 1.585042294e-17)
(1.085489009 0.09380981183 1.467734102e-17)
(1.071525554 0.06474377939 -3.074987131e-18)
(1.045319926 0.04234926451 -3.153206174e-17)
(1.027254653 0.01812420098 3.244230793e-17)
(0.9917060997 -0.003424716466 -2.157987708e-17)
(1.144655483 0.8143952269 5.703686526e-19)
(1.123482749 0.5747491851 -1.76696322e-18)
(1.124224106 0.4195910059 8.185833226e-18)
(1.104220404 0.3103938965 1.284466653e-17)
(1.102705827 0.2339543416 -1.94658583e-17)
(1.085444589 0.1770052915 -5.922422584e-18)
(1.081953363 0.1328729172 -2.037319636e-17)
(1.064167535 0.09884322279 2.364850194e-19)
(1.056915259 0.06827188492 5.228773933e-18)
(1.035871544 0.04473206485 2.735589235e-17)
(1.023395002 0.01927323989 -2.436908016e-17)
(0.9928073203 -0.003359931196 -1.184007775e-19)
(0.9615098886 0.8147102552 -9.500286501e-18)
(0.9943502646 0.574973326 2.739796425e-18)
(1.03006233 0.4197646155 -3.937560839e-18)
(1.034662401 0.3105355905 3.720444078e-18)
(1.050371199 0.2340848444 1.925813716e-18)
(1.045935054 0.1771315588 -2.319270141e-18)
(1.05238123 0.1330086669 -1.993923812e-17)
(1.042251005 0.09899325631 -2.507605884e-18)
(1.041875699 0.06844762732 -1.348919884e-18)
(1.026119619 0.04493961794 -2.229941279e-17)
(1.019365808 0.0195221798 2.746992955e-17)
(0.9938540804 -0.003066070593 4.893685778e-18)
(0.7828780661 0.7742524658 -1.499357238e-17)
(0.8683979454 0.5464484559 2.426492593e-18)
(0.9382152347 0.3989715921 4.375594894e-18)
(0.966808468 0.2951865223 -1.552667083e-17)
(0.9993109878 0.222556072 2.691571118e-17)
(1.00737839 0.1684522623 1.053608796e-18)
(1.023510501 0.1265485057 1.672782058e-17)
(1.020840098 0.0942503803 -1.274810619e-17)
(1.027163757 0.06525895645 1.363584705e-17)
(1.016555344 0.04295864816 5.602926211e-17)
(1.015372473 0.01885475452 -2.004461763e-17)
(0.9947977903 -0.002561838542 3.193986156e-17)
(0.6177194519 0.6950480487 -1.211765379e-17)
(0.7519435583 0.4906020002 -5.349056935e-18)
(0.8532891834 0.3582526727 -2.873429679e-17)
(0.9040628291 0.2651139242 -5.509393587e-18)
(0.9520866988 0.199944547 -1.506485194e-17)
(0.9717102109 0.1514004545 3.775934261e-17)
(0.9967906413 0.1138149211 -1.037886053e-17)
(1.001011249 0.08485034268 6.028472984e-18)
(1.013519622 0.05886437449 2.183521893e-17)
(1.007662039 0.03888650842 1.30513245e-17)
(1.011618721 0.01730316618 -2.771502848e-17)
(0.9955968392 -0.001875802925 1.71190676e-18)
(0.4743206523 0.5810679712 6.615765934e-19)
(0.6508288854 0.4102345663 -8.035625197e-19)
(0.7795456218 0.2996489933 6.825643489e-19)
(0.8495732475 0.2218254635 8.799217513e-18)
(0.9110688676 0.1673828233 -1.691454921e-17)
(0.9407206502 0.1268302559 1.223478592e-17)
(0.9735644352 0.09544465039 -6.988665245e-18)
(0.9837611127 0.07126315073 1.396146635e-17)
(1.001631257 0.04958233288 -6.249941137e-18)
(0.9998888198 0.03292549771 -2.236150444e-17)
(1.008296957 0.01494251005 -8.653557718e-18)
(0.996215937 -0.001044075663 5.006386119e-18)
(0.359874523 0.4380266694 1.601650632e-17)
(0.5701264666 0.309374109 1.499441827e-18)
(0.7206831305 0.2260976277 -8.734516707e-18)
(0.806073829 0.1674897817 -1.721691495e-17)
(0.8783152187 0.1265023113 -1.224638959e-17)
(0.9159657137 0.09597197421 3.15423493e-18)
(0.9549979859 0.0723577588 -3.860758433e-17)
(0.9699573262 0.05416870566 2.652396867e-17)
(0.9920971091 0.03787776627 7.125641492e-18)
(0.9936293118 0.02537420842 4.716362429e-18)
(1.005577437 0.01189223273 -4.245336037e-17)
(0.9966299529 -0.0001083381421 2.902136973e-17)
(0.2801239513 0.2730982123 5.580882468e-18)
(0.5138846222 0.1930792847 -8.542648415e-19)
(0.6796557232 0.1412868956 -5.110611651e-18)
(0.7757467722 0.1048315659 -2.602139387e-18)
(0.8554703321 0.07935234452 3.892334949e-18)
(0.8986878629 0.06037255946 -1.105492164e-18)
(0.9420247726 0.04571119581 1.399908406e-18)
(0.9602936881 0.03442392933 6.431751866e-18)
(0.9853981534 0.02433714684 -1.535588937e-17)
(0.9891994971 0.01661124242 1.833890557e-18)
(1.003599818 0.00830477858 -1.513898729e-17)
(0.9968222574 0.0008853579774 4.587680351e-18)
(0.2390692197 0.09455317074 1.408781196e-18)
(0.4849253891 0.06718051548 -2.490129933e-18)
(0.6585210944 0.04946835531 -8.272243497e-18)
(0.7601143198 0.03699117582 1.948273981e-18)
(0.8436802318 0.02829605864 -5.053113783e-18)
(0.8897551471 0.02181586008 -1.314903063e-18)
(0.9352962133 0.01684048339 1.834259096e-19)
(0.9552569436 0.01301831037 -6.630523455e-18)
(0.9818719481 0.009639734954 -1.350197561e-18)
(0.9868244509 0.007076796808 -3.84857892e-18)
(1.00246553 0.004362075431 -4.683421016e-18)
(0.9967870479 0.0018896071 1.376463103e-18)
(0.2387711334 -0.08865276099 -6.276049788e-19)
(0.484701189 -0.06200755083 -3.515804058e-18)
(0.6583404622 -0.04475308401 -1.12552542e-17)
(0.7599605246 -0.03262928611 4.827131584e-18)
(0.8435375687 -0.02410640144 -5.42361595e-18)
(0.889615884 -0.01776485126 -2.255856152e-18)
(0.935151301 -0.0128067626 -2.606137293e-18)
(0.9551002041 -0.008974594037 8.287519413e-19)
(0.9816969046 -0.005476861204 -5.978481957e-18)
(0.9866238549 -0.002749771792 -9.054856301e-18)
(1.002233182 0.0002637987119 2.624633213e-18)
(0.9965279394 0.002857125838 -1.700608622e-18)
(0.2792441706 -0.2673319643 8.267769594e-19)
(0.5132242721 -0.1880074242 -3.687262549e-18)
(0.6791227038 -0.1366538535 -1.27117262e-17)
(0.7752941707 -0.1005400589 5.95513587e-18)
(0.8550493799 -0.07522851983 1.059973416e-18)
(0.8982780244 -0.05638581394 2.703226921e-18)
(0.941597141 -0.04174442571 1.76130602e-17)
(0.9598322037 -0.0304520961 -1.158172081e-17)
(0.9848816253 -0.02025413198 -1.002327365e-17)
(0.9886085139 -0.01237470759 3.927394138e-18)
(1.002913965 -0.003782868947 1.019437127e-17)
(0.9960588445 0.003742374398 -2.056731709e-17)
(0.358458655 -0.432521928 6.25822283e-18)
(0.5690631989 -0.3044995705 -2.920036153e-18)
(0.7198259676 -0.221624738 -4.52803013e-18)
(0.8053456047 -0.1633355128 -1.114562355e-17)
(0.8776388821 -0.1225065089 5.382858251e-18)
(0.9153066741 -0.09211040655 -1.47031705e-17)
(0.9543110101 -0.06852114045 -1.463609734e-17)
(0.9692150583 -0.05033688485 -3.203113497e-17)
(0.9912665812 -0.03394996745 7.859102035e-18)
(0.992677775 -0.02131365352 -1.196130928e-17)
(1.004473154 -0.007571976591 4.196936624e-18)
(0.9954019441 0.004504521618 -1.294639143e-17)
(0.4724402493 -0.5759389876 -4.920493526e-18)
(0.6494181002 -0.4056430757 2.227405199e-18)
(0.7784085042 -0.2954062013 2.756210461e-18)
(0.8486085847 -0.2178680223 -1.429253207e-18)
(0.910172758 -0.1635710773 1.4231618e-17)
(0.9398483071 -0.1231483164 -9.389817539e-18)
(0.9726543086 -0.09179521939 2.336532158e-17)
(0.9827778986 -0.06763235995 -2.035747986e-17)
(1.0005297 -0.04587798523 -6.636515019e-18)
(0.998626272 -0.02911828203 -2.632086457e-17)
(1.006829705 -0.01091330676 -3.077866366e-18)
(0.9945884788 0.005107304524 -4.188696216e-17)
(0.6154713563 -0.6903899471 -1.910965633e-17)
(0.7502572924 -0.4863656387 -2.59594498e-18)
(0.8519319061 -0.3542978808 -6.65956e-19)
(0.9029120684 -0.2614030955 -3.917102766e-18)
(0.9510190471 -0.196362726 -5.286449095e-18)
(0.9706707772 -0.1479432771 -1.841895768e-17)
(0.9957065293 -0.1103992066 1.514595789e-17)
(0.9998388335 -0.08147108379 -6.979470001e-18)
(1.012205205 -0.05543910334 -1.626720446e-17)
(1.006152956 -0.03539615131 3.735148732e-17)
(1.00986277 -0.01363729907 5.061803035e-18)
(0.9936552143 0.005522459799 -7.908544251e-18)
(0.780376613 -0.7701367785 -2.756785747e-18)
(0.8665238369 -0.5426202902 -4.211280748e-18)
(0.9367084362 -0.3953482824 1.736071863e-17)
(0.9655335127 -0.2917588584 -1.442553781e-18)
(0.9981288608 -0.2192388938 1.399788915e-17)
(1.006228696 -0.1652532356 -1.10003079e-17)
(1.022310467 -0.1234019651 2.695818448e-17)
(1.019541623 -0.09116038075 1.792889627e-17)
(1.02570525 -0.06215559407 -1.112069026e-17)
(1.014878321 -0.03983368292 -4.8711869e-17)
(1.013416343 -0.01560888995 4.982431037e-17)
(0.9926456544 0.005729130951 -3.583312742e-17)
(0.9588841659 -0.811180786 1.146118328e-18)
(0.9923847926 -0.5715868439 -2.77762196e-18)
(1.028485517 -0.4164989118 1.331507043e-17)
(1.033330533 -0.3074136942 1.61311893e-17)
(1.049138462 -0.2310524246 -2.263769863e-17)
(1.044736648 -0.174210789 -9.263064027e-18)
(1.051130236 -0.1301515695 -1.840837545e-17)
(1.040895282 -0.09621510979 2.655703804e-18)
(1.040350078 -0.06569088427 1.10519129e-18)
(1.024360582 -0.04220908492 2.319597998e-17)
(1.017308199 -0.01672958384 -2.797623339e-17)
(0.9916055247 0.00571617092 -1.042577873e-17)
(1.142039822 -0.8114663969 -5.471713978e-18)
(1.121528426 -0.571813929 3.344190738e-18)
(1.122660194 -0.4166909871 9.214973162e-19)
(1.102903965 -0.3075835592 7.516451388e-18)
(1.101489564 -0.2312127483 -3.126487821e-18)
(1.084264027 -0.1743678895 -7.376911941e-18)
(1.080719858 -0.1303115244 -2.157252563e-17)
(1.062828771 -0.09638314765 -2.957003409e-18)
(1.055403819 -0.06586999727 -6.83016139e-18)
(1.034123078 -0.04240531664 -2.904664848e-17)
(1.021340523 -0.01694644572 2.17499808e-17)
(0.9905837574 0.005481629212 -5.181581993e-18)
(1.320657202 -0.7709810868 -8.617225094e-18)
(1.247476413 -0.5432919415 4.532677161e-18)
(1.214508499 -0.3959154544 7.551911597e-18)
(1.170762656 -0.2922611044 -8.507077039e-18)
(1.152555204 -0.2197122345 2.066626354e-17)
(1.122826109 -0.1657179376 -4.970051577e-18)
(1.109593413 -0.1238746742 9.707942151e-18)
(1.084239185 -0.09165799786 -1.310604222e-17)
(1.070108666 -0.06268554836 4.455653095e-18)
(1.043672051 -0.04041500822 3.484449409e-17)
(1.025306815 -0.01625040426 -1.068557183e-17)
(0.9896274679 0.005034241475 2.206201499e-17)
(1.485777715 -0.6917584289 -6.014128192e-18)
(1.363912962 -0.4874522391 -8.447833616e-19)
(1.299424252 -0.3552157931 -1.484401071e-17)
(1.233504431 -0.2622151815 -3.013311292e-18)
(1.199774635 -0.197129149 -3.659842921e-18)
(1.158489727 -0.1486954439 2.14264112e-17)
(1.13630264 -0.1111657736 -3.562823897e-18)
(1.104052858 -0.08227801851 -1.058925248e-19)
(1.083726383 -0.0563002149 1.432677914e-17)
(1.052528416 -0.03634102267 1.521704221e-17)
(1.029007334 -0.01468138369 -1.375230134e-17)
(0.9887835071 0.004392290722 5.537302146e-18)
(1.629120964 -0.5777735043 8.181409846e-19)
(1.464997911 -0.4070972576 4.613226725e-19)
(1.373148115 -0.2966337755 -1.256813296e-18)
(1.287980941 -0.2189539932 4.94111833e-18)
(1.240778187 -0.1645965275 -4.886420759e-18)
(1.189464064 -0.1241555289 1.047426034e-17)
(1.159506276 -0.09282300432 8.299022823e-19)
(1.12127391 -0.06871553137 5.522675404e-18)
(1.095572226 -0.0470356488 1.768494877e-18)
(1.060245478 -0.03039027203 -4.651603772e-18)
(1.032253919 -0.01232035655 -1.743908432e-18)
(0.9880922029 0.003583738358 3.62998109e-18)
(1.743498682 -0.4347452833 6.678139912e-18)
(1.545662619 -0.3062569463 1.583118695e-18)
(1.431983143 -0.2231081348 -3.369925596e-18)
(1.331461132 -0.1646466236 -3.92566975e-18)
(1.273510154 -0.1237466723 -4.171439598e-18)
(1.214196834 -0.09332885063 4.601000123e-18)
(1.178041313 -0.06976780095 -1.000055405e-17)
(1.135039656 -0.05165182292 1.088754652e-17)
(1.105052727 -0.03535949949 5.768943941e-18)
(1.066437376 -0.02286415084 3.166288989e-18)
(1.034884695 -0.009290609752 -1.193234573e-17)
(0.9875897283 0.002645430528 1.023460376e-17)
(1.82317681 -0.2698477532 3.877596182e-18)
(1.601861936 -0.1899901462 1.19037471e-18)
(1.472978388 -0.1383265858 -1.77581e-18)
(1.361762982 -0.102017985 -1.431883989e-18)
(1.29632742 -0.0766286312 -3.325164018e-19)
(1.231445487 -0.05776284455 1.493010641e-18)
(1.190976324 -0.04315704723 -6.970028138e-19)
(1.144657698 -0.03194437909 6.252583618e-18)
(1.111691017 -0.02185844399 6.356572143e-19)
(1.070792266 -0.01414248275 2.77294021e-18)
(1.036767379 -0.005746367745 -4.759918187e-18)
(0.9873019276 0.001620899899 3.700140856e-18)
(1.864160672 -0.09135155881 1.893761689e-18)
(1.630778063 -0.06412653352 6.579146768e-19)
(1.494078188 -0.04654068675 -5.90575679e-19)
(1.377367465 -0.03420727773 -9.76236259e-19)
(1.308086463 -0.02560494314 -5.439401734e-19)
(1.240346203 -0.01923973248 7.300802726e-19)
(1.197664069 -0.01432528736 2.391629034e-19)
(1.149647552 -0.01058092091 3.106215313e-18)
(1.11515638 -0.007210588924 2.000785936e-18)
(1.073094422 -0.004663401666 1.920370778e-18)
(1.037810432 -0.001867799536 -1.807347111e-18)
(0.9872468029 0.0005597635861 2.614981824e-18)
(1.864397874 0.0917925465 1.387113218e-19)
(1.630961914 0.06502110235 -4.336008765e-21)
(1.494224441 0.04764672626 5.100843354e-19)
(1.377491042 0.03538362496 -1.414019803e-18)
(1.308196169 0.02676529948 -7.140874894e-19)
(1.240450778 0.0203070712 3.190591466e-19)
(1.197767409 0.01528100464 -5.779849692e-19)
(1.149757329 0.01136555066 2.973147059e-18)
(1.115273947 0.007848713883 2.529365346e-18)
(1.073227918 0.00509599003 1.8438253e-18)
(1.037962231 0.00214954976 -9.811920428e-19)
(0.9874292528 -0.0004859202815 3.519691555e-18)
(1.823877271 0.2704008204 -1.740045492e-18)
(1.602403927 0.1909783821 -7.736430378e-19)
(1.473409392 0.1395134829 1.104629662e-18)
(1.362127222 0.1032674593 -1.406995601e-18)
(1.296651253 0.07785747092 -1.630104991e-18)
(1.231754468 0.05889722594 8.046276417e-19)
(1.191282314 0.04417894216 -2.728729912e-18)
(1.144983006 0.03279715126 5.880156793e-18)
(1.112040095 0.02256576321 2.898261179e-18)
(1.071188837 0.01464824057 1.090788656e-18)
(1.037218697 0.006104817566 -9.583713892e-19)
(0.9878443088 -0.001462355704 7.181311226e-18)
(1.744633904 0.4355192405 -4.030509925e-18)
(1.546537859 0.307429123 -1.554904897e-18)
(1.432677277 0.2244535613 -7.97586023e-19)
(1.332046143 0.1660391969 2.446102745e-18)
(1.274029678 0.1251094561 -3.168644486e-18)
(1.214692209 0.09459427 5.027952813e-18)
(1.178532704 0.07091915821 2.455595551e-18)
(1.135563021 0.0526380633 9.024931046e-18)
(1.105616336 0.03620269501 -1.714592255e-18)
(1.067079485 0.02351402359 4.835066801e-18)
(1.035617897 0.009800596181 1.010550887e-18)
(0.9884733629 -0.002318896363 6.913656454e-18)
(1.630640768 0.578869488 -1.755343005e-19)
(1.466163273 0.4085364326 -2.982883058e-18)
(1.374069095 0.2982091883 -3.308143223e-18)
(1.288754646 0.2205541253 -8.853275342e-19)
(1.241464967 0.1661541299 -5.530252656e-18)
(1.190118769 0.1256118325 3.670858469e-18)
(1.160157835 0.09416377541 -1.321680273e-17)
(1.121969751 0.06989738277 2.870544765e-18)
(1.096325663 0.04807893143 2.147775428e-18)
(1.061107159 0.03125268321 6.770511799e-18)
(1.033242265 0.01305460827 3.311976692e-19)
(0.9892873668 -0.003008206629 1.520714675e-17)
(1.487616632 0.6932678103 6.761992221e-18)
(1.365312745 0.4892317009 -3.461776053e-21)
(1.300524598 0.357083555 -1.751452723e-18)
(1.234424068 0.2640784335 4.744136997e-19)
(1.200589589 0.1989339174 3.925499381e-18)
(1.159265928 0.1503939612 8.678909888e-18)
(1.137078203 0.1127477765 -9.813540678e-18)
(1.104884272 0.08370966452 -3.06706588e-18)
(1.084633322 0.05760052015 6.018142181e-18)
(1.053571323 0.03747772125 -2.041953156e-17)
(1.030211171 0.01570673506 -6.845278745e-18)
(0.9902465574 -0.003491695201 6.02513712e-19)
(1.322730336 0.7729794321 -1.709797585e-18)
(1.249039452 0.5454707892 1.658794352e-18)
(1.215728632 0.3981258766 -1.26944861e-17)
(1.171775689 0.2944324137 -5.682634665e-19)
(1.153451153 0.2218075011 -8.00494223e-18)
(1.123678586 0.167701605 5.646696896e-18)
(1.110449711 0.1257425301 -1.585927271e-17)
(1.085161758 0.09338647222 -1.469576756e-17)
(1.0711247 0.06429362568 3.069448881e-18)
(1.044848782 0.04188128143 3.156929829e-17)
(1.026676007 0.01762762589 -3.248158995e-17)
(0.9913019252 -0.003739318549 2.159234309e-17)
(1.144251644 0.8140134947 -5.75899335e-19)
(1.123176484 0.5744364842 1.763811887e-18)
(1.123934524 0.4192808249 -8.189450972e-18)
(1.103952276 0.3100948213 -1.284947284e-17)
(1.102413273 0.2336292293 1.947007283e-17)
(1.085141177 0.1766671843 5.923305848e-18)
(1.081606575 0.1324977221 2.038522287e-17)
(1.063790361 0.09844350316 -2.348928154e-19)
(1.056475844 0.06782509596 -5.230619775e-18)
(1.035376139 0.04424527496 -2.736763047e-17)
(1.022813426 0.01872545747 2.437758923e-17)
(0.9923996157 -0.003733444517 1.104483611e-19)
(0.9611246431 0.814312313 9.495940202e-18)
(0.9940290155 0.5746769991 -2.740506525e-18)
(1.029740585 0.4194879632 3.938414211e-18)
(1.034350071 0.3102820888 -3.718356271e-18)
(1.050031897 0.2338082202 -1.928460821e-18)
(1.045582717 0.1768442004 2.316501193e-18)
(1.051992587 0.1326777073 1.992698161e-17)
(1.041838842 0.09863111028 2.507680281e-18)
(1.041418714 0.06802148898 1.347043195e-18)
(1.025625068 0.04445521178 2.228446834e-17)
(1.018813735 0.01894846771 -2.74610879e-17)
(0.9934805653 -0.003469386198 -4.900680256e-18)
(0.7825327541 0.7738683596 1.49897724e-17)
(0.8680762456 0.5461847473 -2.424114809e-18)
(0.9378720095 0.398740916 -4.369149726e-18)
(0.9664615827 0.29498694 1.5523026e-17)
(0.9989342041 0.2223375115 -2.689918208e-17)
(1.006987311 0.168224827 -1.062396145e-18)
(1.023091635 0.1262748968 -1.67193145e-17)
(1.020406885 0.09394096593 1.273003309e-17)
(1.026706276 0.06487497191 -1.36393775e-17)
(1.016082712 0.04250279878 -5.598710375e-17)
(1.014875089 0.01828921296 2.004263871e-17)
(0.9944869894 -0.002955969574 -3.19189475e-17)
(0.6174241238 0.6947059994 1.211628843e-17)
(0.7516262798 0.4903860464 5.351009813e-18)
(0.8529295542 0.3580781972 2.872642989e-17)
(0.9036848007 0.2649761667 5.510065793e-18)
(0.9516777643 0.1997929456 1.505391663e-17)
(0.9712855319 0.1512431381 -3.772497619e-17)
(0.9963492144 0.1136127708 1.037207759e-17)
(1.000565157 0.08461134562 -6.027198958e-18)
(1.013072559 0.05854636373 -2.180480239e-17)
(1.00722317 0.03848911925 -1.301151206e-17)
(1.011190613 0.01678319804 2.770946599e-17)
(0.9953629388 -0.00221586874 -1.712369202e-18)
(0.4740779719 0.5808031436 -6.562704356e-19)
(0.6505223743 0.4100853072 8.094359942e-19)
(0.7791753046 0.299544556 -6.733547428e-19)
(0.8491713097 0.2217586276 -8.782202415e-18)
(0.9106341528 0.1673081049 1.690335301e-17)
(0.9402693952 0.1267527373 -1.221894059e-17)
(0.9731060782 0.09532770288 6.99344287e-18)
(0.9833078122 0.07111103717 -1.394151944e-17)
(1.00119872 0.04935393221 6.256866988e-18)
(0.9994877748 0.03261619031 2.234386889e-17)
(1.00794083 0.01450699307 8.668690706e-18)
(0.9960593014 -0.001284970702 -5.003989507e-18)
(0.3596755971 0.4378628027 -1.600311673e-17)
(0.5698258034 0.3093027938 -1.490437894e-18)
(0.7203012654 0.2260704203 8.738551078e-18)
(0.805647158 0.1674985028 1.720823474e-17)
(0.877855221 0.1265104163 1.224017008e-17)
(0.9154878743 0.09598140476 -3.141696629e-18)
(0.9545226661 0.07233744138 3.855407786e-17)
(0.9694954854 0.05411840719 -2.647815857e-17)
(0.9916763342 0.03776025732 -7.094730527e-18)
(0.9932606387 0.02518003939 -4.690649867e-18)
(1.005285308 0.01157539258 4.239714849e-17)
(0.9965357524 -0.0002088764197 -2.897085953e-17)
(0.2799539088 0.2730622084 -5.568087629e-18)
(0.5135882376 0.193101106 8.636841478e-19)
(0.6792649088 0.1413473604 5.118095657e-18)