/*--------------------------------*- C++ -*----------------------------------*\
| =========                 |                                                 |
| \\      /  F ield         | foam-extend: Open Source CFD                    |
|  \\    /   O peration     | Version:  3.0                                   |
|   \\  /    A nd           | Web:         http://www.extend-project.de       |
|    \\/     M anipulation  |                                                 |
\*---------------------------------------------------------------------------*/
FoamFile
{
    version     2.0;
    format      ascii;
    class       volScalarField;
    location    "17";
    object      p;
}
// * * * * * * * * * * * * * * * * * * * * * * * * * * * * * * * * * * * * * //

dimensions      [0 0 0 0 0 0 0];

internalField   nonuniform List<scalar> 
1920
(
-0.234902
-0.212028
-0.199722
-0.185175
-0.178093
-0.168485
-0.164499
-0.158054
-0.155981
-0.151634
-0.150715
-0.147737
-0.147409
-0.145231
-0.145011
-0.143123
-0.14253
-0.140413
-0.138914
-0.135979
-0.233904
-0.211127
-0.198873
-0.184388
-0.177336
-0.167768
-0.163799
-0.157382
-0.155317
-0.150988
-0.150073
-0.147107
-0.146781
-0.144612
-0.144392
-0.142512
-0.141922
-0.139813
-0.138321
-0.135399
-0.231889
-0.209308
-0.19716
-0.1828
-0.175808
-0.166323
-0.162389
-0.156027
-0.15398
-0.149689
-0.148782
-0.145842
-0.145518
-0.143368
-0.143151
-0.141287
-0.140701
-0.138611
-0.137132
-0.134235
-0.228896
-0.206607
-0.194615
-0.18044
-0.173539
-0.164176
-0.160292
-0.154012
-0.151992
-0.147756
-0.14686
-0.143957
-0.143638
-0.141515
-0.141301
-0.139461
-0.138883
-0.13682
-0.135359
-0.1325
-0.224907
-0.203007
-0.191224
-0.177297
-0.170516
-0.161316
-0.1575
-0.15133
-0.149345
-0.145183
-0.144303
-0.141451
-0.141137
-0.139052
-0.138841
-0.137033
-0.136466
-0.134438
-0.133003
-0.130194
-0.219972
-0.198552
-0.187027
-0.173405
-0.166773
-0.157775
-0.154042
-0.148007
-0.146066
-0.141995
-0.141134
-0.138345
-0.138038
-0.135998
-0.135792
-0.134024
-0.133468
-0.131485
-0.130082
-0.127334
-0.214078
-0.193232
-0.182017
-0.16876
-0.162305
-0.153549
-0.149916
-0.144043
-0.142154
-0.138192
-0.137354
-0.13464
-0.134342
-0.132356
-0.132156
-0.130435
-0.129895
-0.127965
-0.126599
-0.123925
-0.207284
-0.187099
-0.176239
-0.163403
-0.157153
-0.148674
-0.145157
-0.13947
-0.137641
-0.133804
-0.132993
-0.130365
-0.130076
-0.128153
-0.127959
-0.126293
-0.125769
-0.123901
-0.122578
-0.119989
-0.199586
-0.180151
-0.169695
-0.157335
-0.151318
-0.143154
-0.139767
-0.134292
-0.132531
-0.128837
-0.128056
-0.125525
-0.125247
-0.123396
-0.123209
-0.121605
-0.121101
-0.119302
-0.118029
-0.115536
-0.191049
-0.172445
-0.162436
-0.150605
-0.144845
-0.13703
-0.133788
-0.128547
-0.12686
-0.123325
-0.122577
-0.120154
-0.119888
-0.118116
-0.117937
-0.116401
-0.115919
-0.114197
-0.112978
-0.110591
-0.181678
-0.163987
-0.154469
-0.143219
-0.137741
-0.13031
-0.127227
-0.122243
-0.12064
-0.117277
-0.116567
-0.114263
-0.11401
-0.112325
-0.112155
-0.110695
-0.110236
-0.108598
-0.107439
-0.105169
-0.171546
-0.154841
-0.145854
-0.13523
-0.130058
-0.123041
-0.12013
-0.115424
-0.11391
-0.110735
-0.110063
-0.107888
-0.107649
-0.106058
-0.105897
-0.104518
-0.104085
-0.102539
-0.101444
-0.0993011
-0.160662
-0.145017
-0.136601
-0.126652
-0.121808
-0.115236
-0.11251
-0.108102
-0.106684
-0.103711
-0.103083
-0.101045
-0.100821
-0.0993316
-0.099181
-0.0978898
-0.0974842
-0.0960361
-0.0950109
-0.0930038
-0.149107
-0.134587
-0.126776
-0.117542
-0.113046
-0.106947
-0.104417
-0.100326
-0.0990099
-0.0962503
-0.0956668
-0.093776
-0.093568
-0.0921852
-0.0920452
-0.0908468
-0.0904702
-0.0891262
-0.0881747
-0.086312
-0.136897
-0.123567
-0.116395
-0.107917
-0.10379
-0.0981903
-0.0958675
-0.0921118
-0.0909038
-0.0883704
-0.0878348
-0.086099
-0.0859082
-0.0846387
-0.0845104
-0.0834102
-0.0830645
-0.0818306
-0.0809571
-0.0792469
-0.124117
-0.112031
-0.105528
-0.0978423
-0.0940999
-0.0890229
-0.0869167
-0.0835115
-0.082416
-0.080119
-0.0796332
-0.0780593
-0.0778861
-0.0767351
-0.0766186
-0.075621
-0.0753075
-0.0741887
-0.0733967
-0.0718462
-0.110789
-0.100001
-0.0941972
-0.0873366
-0.0839963
-0.0794647
-0.0775848
-0.0745454
-0.0735678
-0.0715175
-0.0710841
-0.0696794
-0.0695249
-0.0684976
-0.0683937
-0.0675034
-0.0672236
-0.0662251
-0.0655181
-0.0641341
-0.0970039
-0.0875579
-0.0824757
-0.0764686
-0.0735437
-0.0695758
-0.0679297
-0.0652683
-0.0644121
-0.0626168
-0.0622372
-0.0610071
-0.0608717
-0.059972
-0.059881
-0.0591013
-0.0588563
-0.0579819
-0.0573629
-0.056151
-0.0827862
-0.074725
-0.070388
-0.0652615
-0.0627655
-0.0593793
-0.0579747
-0.0557035
-0.054973
-0.053441
-0.0531172
-0.0520675
-0.0519521
-0.0511845
-0.0511069
-0.0504416
-0.0502325
-0.0494864
-0.0489581
-0.0479239
-0.0682308
-0.0615866
-0.058012
-0.0537866
-0.0517293
-0.0489383
-0.0477804
-0.0459084
-0.0453062
-0.0440433
-0.0437763
-0.042911
-0.0428158
-0.0421829
-0.0421189
-0.0415704
-0.0413981
-0.040783
-0.0403476
-0.0394952
-0.0533665
-0.04817
-0.0453743
-0.0420697
-0.0404608
-0.038278
-0.0373725
-0.0359085
-0.0354377
-0.0344501
-0.0342414
-0.0335648
-0.0334904
-0.0329956
-0.0329456
-0.0325167
-0.032382
-0.0319009
-0.0315604
-0.0308938
-0.0382904
-0.0345617
-0.0325556
-0.0301844
-0.0290298
-0.0274635
-0.0268136
-0.0257631
-0.0254251
-0.0247163
-0.0245664
-0.0240808
-0.0240273
-0.0236721
-0.0236361
-0.0233283
-0.0232316
-0.0228864
-0.022642
-0.0221637
-0.0230336
-0.0207909
-0.0195843
-0.0181581
-0.0174637
-0.0165217
-0.0161309
-0.0154991
-0.015296
-0.0148698
-0.0147797
-0.0144877
-0.0144557
-0.0142421
-0.0142206
-0.0140355
-0.0139773
-0.0137697
-0.0136228
-0.013335
-0.00769493
-0.00694555
-0.00654235
-0.00606575
-0.00583366
-0.00551882
-0.00538817
-0.00517697
-0.00510898
-0.00496648
-0.00493629
-0.00483862
-0.0048278
-0.00475635
-0.00474905
-0.00468712
-0.00466761
-0.0045982
-0.00454904
-0.00445291
0.00769346
0.00694408
0.00654084
0.00606427
0.00583217
0.00551734
0.00538667
0.00517549
0.00510749
0.00496503
0.00493483
0.00483722
0.00482641
0.00475503
0.00474776
0.00468591
0.00466645
0.00459711
0.00454801
0.0044519
0.0230321
0.0207894
0.0195828
0.0181566
0.0174622
0.0165202
0.0161294
0.0154976
0.0152944
0.0148683
0.0147783
0.0144863
0.0144543
0.0142408
0.0142193
0.0140342
0.0139761
0.0137686
0.0136217
0.013334
0.0382889
0.0345603
0.0325541
0.0301829
0.0290283
0.027462
0.0268121
0.0257616
0.0254235
0.0247149
0.0245649
0.0240794
0.0240259
0.0236708
0.0236348
0.0233271
0.0232304
0.0228853
0.0226409
0.0221626
0.053365
0.0481685
0.0453728
0.0420682
0.0404592
0.0382765
0.037371
0.035907
0.0354361
0.0344486
0.0342399
0.0335633
0.033489
0.0329942
0.0329442
0.0325154
0.0323807
0.0318998
0.0315593
0.0308927
0.0682293
0.0615852
0.0580104
0.0537851
0.0517277
0.0489367
0.0477788
0.0459069
0.0453046
0.0440418
0.0437747
0.0429095
0.0428143
0.0421815
0.0421175
0.0415691
0.0413968
0.0407818
0.0403464
0.0394941
0.0827847
0.0747234
0.0703864
0.0652599
0.0627639
0.0593777
0.057973
0.0557019
0.0549714
0.0534394
0.0531156
0.052066
0.0519506
0.051183
0.0511054
0.0504402
0.0502312
0.0494851
0.0489569
0.0479227
0.0970024
0.0875563
0.0824742
0.0764671
0.0735421
0.0695742
0.067928
0.0652667
0.0644105
0.0626152
0.0622355
0.0610055
0.0608701
0.0599705
0.0598795
0.0590999
0.0588549
0.0579806
0.0573616
0.0561498
0.110788
0.0999997
0.0941955
0.087335
0.0839946
0.079463
0.0775831
0.0745437
0.0735661
0.0715158
0.0710824
0.0696777
0.0695233
0.068496
0.0683922
0.0675018
0.0672222
0.0662236
0.0655168
0.0641328
0.124116
0.112029
0.105527
0.0978407
0.0940983
0.0890212
0.086915
0.0835098
0.0824143
0.0801172
0.0796315
0.0780576
0.0778844
0.0767334
0.0766169
0.0756194
0.075306
0.0741873
0.0733953
0.0718448
0.136895
0.123565
0.116393
0.107916
0.103788
0.0981886
0.0958657
0.09211
0.090902
0.0883686
0.087833
0.0860972
0.0859064
0.0846369
0.0845086
0.0834085
0.0830629
0.081829
0.0809556
0.0792454
0.149105
0.134586
0.126774
0.11754
0.113044
0.106945
0.104415
0.100324
0.099008
0.0962484
0.0956649
0.0937742
0.0935661
0.0921834
0.0920434
0.0908451
0.0904685
0.0891246
0.0881731
0.0863105
0.16066
0.145016
0.136599
0.12665
0.121806
0.115234
0.112508
0.1081
0.106682
0.103709
0.103081
0.101044
0.10082
0.0993297
0.0991791
0.097888
0.0974823
0.0960343
0.0950092
0.0930022
0.171544
0.154839
0.145852
0.135229
0.130056
0.123039
0.120128
0.115422
0.113908
0.110733
0.110061
0.107886
0.107647
0.106056
0.105895
0.104516
0.104083
0.102537
0.101442
0.0992993
0.181676
0.163985
0.154467
0.143217
0.137739
0.130308
0.127225
0.122241
0.120637
0.117275
0.116564
0.114261
0.114008
0.112323
0.112153
0.110693
0.110234
0.108596
0.107437
0.105168
0.191048
0.172444
0.162434
0.150603
0.144843
0.137028
0.133786
0.128545
0.126858
0.123323
0.122575
0.120152
0.119886
0.118114
0.117935
0.116399
0.115917
0.114195
0.112976
0.110589
0.199584
0.180149
0.169693
0.157333
0.151316
0.143152
0.139765
0.13429
0.132528
0.128835
0.128054
0.125523
0.125245
0.123394
0.123207
0.121603
0.121099
0.1193
0.118027
0.115534
0.207282
0.187097
0.176238
0.163401
0.157151
0.148672
0.145155
0.139468
0.137638
0.133802
0.132991
0.130363
0.130073
0.128151
0.127957
0.126291
0.125767
0.123899
0.122576
0.119987
0.214076
0.19323
0.182015
0.168758
0.162303
0.153546
0.149914
0.144041
0.142152
0.13819
0.137352
0.134638
0.134339
0.132354
0.132153
0.130433
0.129892
0.127963
0.126597
0.123923
0.21997
0.19855
0.187025
0.173403
0.166771
0.157773
0.15404
0.148005
0.146064
0.141993
0.141132
0.138342
0.138036
0.135996
0.135789
0.134021
0.133466
0.131483
0.130079
0.127331
0.224906
0.203005
0.191222
0.177295
0.170513
0.161314
0.157497
0.151327
0.149343
0.14518
0.1443
0.141449
0.141135
0.139049
0.138838
0.137031
0.136463
0.134436
0.133001
0.130191
0.228895
0.206605
0.194613
0.180438
0.173537
0.164174
0.16029
0.15401
0.15199
0.147753
0.146858
0.143955
0.143636
0.141513
0.141298
0.139459
0.138881
0.136817
0.135357
0.132497
0.231887
0.209306
0.197158
0.182798
0.175806
0.166321
0.162386
0.156025
0.153978
0.149687
0.148779
0.145839
0.145516
0.143365
0.143148
0.141284
0.140699
0.138609
0.137129
0.134232
0.233903
0.211126
0.198871
0.184386
0.177334
0.167766
0.163797
0.157379
0.155315
0.150986
0.150071
0.147105
0.146778
0.144609
0.14439
0.14251
0.141919
0.139811
0.138318
0.135396
0.2349
0.212026
0.19972
0.185173
0.178091
0.168482
0.164496
0.158052
0.155979
0.151632
0.150713
0.147734
0.147407
0.145229
0.145008
0.14312
0.142527
0.14041
0.138911
0.135977
0.234908
0.212033
0.199726
0.185179
0.178096
0.168487
0.164501
0.158056
0.155983
0.151635
0.150716
0.147737
0.14741
0.145231
0.145011
0.143123
0.14253
0.140412
0.138913
0.135979
0.233894
0.211118
0.198864
0.18438
0.177328
0.167761
0.163792
0.157375
0.155311
0.150983
0.150067
0.147102
0.146776
0.144607
0.144387
0.142508
0.141917
0.139809
0.138316
0.135395
0.231895
0.209314
0.197164
0.182804
0.175812
0.166326
0.162391
0.156029
0.153982
0.14969
0.148783
0.145842
0.145519
0.143368
0.143151
0.141287
0.140701
0.138611
0.137131
0.134234
0.228886
0.206598
0.194607
0.180433
0.173531
0.164169
0.160285
0.154006
0.151986
0.14775
0.146854
0.143952
0.143633
0.14151
0.141296
0.139456
0.138878
0.136815
0.135355
0.132496
0.224914
0.203012
0.191229
0.177301
0.170519
0.161319
0.157502
0.151331
0.149346
0.145184
0.144304
0.141452
0.141138
0.139052
0.138841
0.137033
0.136465
0.134438
0.133003
0.130193
0.219962
0.198543
0.187019
0.173397
0.166765
0.157768
0.154036
0.148001
0.14606
0.141989
0.141129
0.138339
0.138033
0.135993
0.135787
0.134019
0.133464
0.131481
0.130078
0.12733
0.214085
0.193237
0.182021
0.168764
0.162309
0.153551
0.149919
0.144045
0.142156
0.138193
0.137356
0.134641
0.134342
0.132357
0.132156
0.130435
0.129895
0.127965
0.126599
0.123925
0.207274
0.18709
0.176231
0.163395
0.157146
0.148668
0.14515
0.139464
0.137635
0.133799
0.132988
0.13036
0.130071
0.128149
0.127954
0.126289
0.125765
0.123897
0.122574
0.119985
0.199592
0.180156
0.169699
0.157339
0.151321
0.143157
0.13977
0.134294
0.132532
0.128838
0.128057
0.125526
0.125248
0.123397
0.12321
0.121606
0.121102
0.119302
0.118029
0.115535
0.191039
0.172436
0.162428
0.150598
0.144838
0.137023
0.133782
0.128541
0.126855
0.123319
0.122572
0.12015
0.119883
0.118112
0.117933
0.116397
0.115915
0.114193
0.112974
0.110587
0.181685
0.163993
0.154474
0.143223
0.137745
0.130313
0.12723
0.122245
0.120642
0.117279
0.116568
0.114264
0.114011
0.112326
0.112155
0.110695
0.110236
0.108599
0.107439
0.10517
0.171536
0.154832
0.145845
0.135223
0.130051
0.123034
0.120124
0.115418
0.113904
0.11073
0.110059
0.107883
0.107644
0.106054
0.105893
0.104514
0.104081
0.102535
0.101441
0.0992976
0.160669
0.145023
0.136605
0.126656
0.121811
0.115239
0.112513
0.108105
0.106687
0.103713
0.103084
0.101047
0.100823
0.0993327
0.0991819
0.0978906
0.0974848
0.0960366
0.0950114
0.0930042
0.149097
0.134578
0.126767
0.117534
0.113039
0.10694
0.104411
0.10032
0.0990045
0.0962453
0.095662
0.0937715
0.0935637
0.0921811
0.0920413
0.0908431
0.0904666
0.0891228
0.0881714
0.0863088
0.136904
0.123572
0.1164
0.107922
0.103794
0.0981936
0.0958704
0.0921144
0.0909061
0.0883724
0.0878366
0.0861006
0.0859096
0.08464
0.0845115
0.0834112
0.0830654
0.0818314
0.0809578
0.0792475
0.124107
0.112022
0.10552
0.0978349
0.094093
0.0890166
0.0869108
0.083506
0.0824108
0.0801141
0.0796286
0.078055
0.077882
0.0767311
0.0766148
0.0756174
0.0753041
0.0741855
0.0733936
0.0718431
0.110796
0.100007
0.0942023
0.087341
0.0840002
0.0794681
0.0775879
0.0745481
0.0735703
0.0715197
0.0710861
0.0696811
0.0695266
0.068499
0.0683951
0.0675046
0.0672247
0.066226
0.065519
0.0641348
0.096994
0.0875491
0.0824677
0.0764613
0.0735369
0.0695696
0.0679238
0.0652629
0.064407
0.0626121
0.0622327
0.0610029
0.0608677
0.0599683
0.0598774
0.0590979
0.0588531
0.0579788
0.0573599
0.0561482
0.0827931
0.0747308
0.0703931
0.0652659
0.0627695
0.0593828
0.0579779
0.0557063
0.0549756
0.0534433
0.0531193
0.0520694
0.0519539
0.0511861
0.0511084
0.0504429
0.0502338
0.0494875
0.0489591
0.0479248
0.0682209
0.0615779
0.0580039
0.0537794
0.0517226
0.0489321
0.0477746
0.0459031
0.0453012
0.0440387
0.0437719
0.042907
0.0428119
0.0421794
0.0421155
0.0415672
0.041395
0.0407801
0.0403448
0.0394925
0.0533734
0.0481759
0.0453795
0.0420742
0.0404648
0.0382816
0.0373758
0.0359114
0.0354404
0.0344525
0.0342436
0.0335668
0.0334923
0.0329973
0.0329472
0.0325182
0.0323833
0.0319022
0.0315616
0.0308948
0.0382805
0.034553
0.0325476
0.0301772
0.0290231
0.0274574
0.026808
0.0257578
0.0254202
0.0247118
0.0245622
0.0240768
0.0240236
0.0236686
0.0236328
0.0233252
0.0232286
0.0228836
0.0226393
0.022161
0.0230405
0.0207967
0.0195895
0.0181626
0.0174678
0.0165253
0.0161343
0.0155021
0.0152987
0.0148722
0.014782
0.0144898
0.0144576
0.0142439
0.0142223
0.014037
0.0139788
0.013771
0.013624
0.0133361
0.00768506
0.00693684
0.00653437
0.00605858
0.00582701
0.00551277
0.00538252
0.00517179
0.00510412
0.00496199
0.00493207
0.0048347
0.00482411
0.00475291
0.0047458
0.00468407
0.00466473
0.00459545
0.00454642
0.00445036
-0.0076866
-0.00693824
-0.00653561
-0.00605973
-0.00582804
-0.00551371
-0.00538333
-0.00517253
-0.00510473
-0.00496255
-0.0049325
-0.0048351
-0.00482442
-0.0047532
-0.00474603
-0.00468432
-0.00466496
-0.00459574
-0.00454675
-0.00445078
-0.023042
-0.0207981
-0.0195908
-0.0181638
-0.0174689
-0.0165262
-0.0161351
-0.0155028
-0.0152993
-0.0148728
-0.0147825
-0.0144902
-0.0144579
-0.0142442
-0.0142225
-0.0140373
-0.013979
-0.0137713
-0.0136243
-0.0133365
-0.0382821
-0.0345544
-0.0325489
-0.0301784
-0.0290242
-0.0274584
-0.0268088
-0.0257586
-0.0254208
-0.0247124
-0.0245626
-0.0240773
-0.0240239
-0.023669
-0.0236331
-0.0233255
-0.0232289
-0.0228839
-0.0226397
-0.0221615
-0.0533749
-0.0481773
-0.0453808
-0.0420754
-0.0404659
-0.0382825
-0.0373767
-0.0359122
-0.035441
-0.0344531
-0.0342441
-0.0335673
-0.0334927
-0.0329977
-0.0329475
-0.0325185
-0.0323836
-0.0319026
-0.031562
-0.0308953
-0.0682225
-0.0615793
-0.0580052
-0.0537806
-0.0517237
-0.0489332
-0.0477756
-0.045904
-0.0453019
-0.0440394
-0.0437725
-0.0429075
-0.0428124
-0.0421798
-0.0421159
-0.0415676
-0.0413954
-0.0407805
-0.0403453
-0.0394931
-0.0827946
-0.0747322
-0.0703944
-0.0652672
-0.0627707
-0.0593839
-0.0579788
-0.0557072
-0.0549764
-0.053444
-0.0531199
-0.05207
-0.0519544
-0.0511866
-0.0511088
-0.0504434
-0.0502342
-0.049488
-0.0489597
-0.0479254
-0.0969956
-0.0875506
-0.082469
-0.0764626
-0.0735381
-0.0695707
-0.0679248
-0.0652639
-0.0644079
-0.0626129
-0.0622334
-0.0610036
-0.0608683
-0.0599689
-0.059878
-0.0590985
-0.0588536
-0.0579794
-0.0573606
-0.0561489
-0.110798
-0.100009
-0.0942036
-0.0873423
-0.0840014
-0.0794692
-0.0775889
-0.0745491
-0.0735712
-0.0715206
-0.0710869
-0.0696819
-0.0695273
-0.0684997
-0.0683957
-0.0675052
-0.0672254
-0.0662267
-0.0655197
-0.0641356
-0.124109
-0.112024
-0.105522
-0.0978363
-0.0940943
-0.0890178
-0.0869119
-0.0835071
-0.0824118
-0.0801151
-0.0796295
-0.0780559
-0.0778828
-0.076732
-0.0766156
-0.0756182
-0.0753049
-0.0741863
-0.0733944
-0.0718441
-0.136905
-0.123574
-0.116401
-0.107923
-0.103795
-0.0981949
-0.0958716
-0.0921155
-0.0909072
-0.0883734
-0.0878376
-0.0861016
-0.0859105
-0.0846409
-0.0845124
-0.0834121
-0.0830663
-0.0818323
-0.0809587
-0.0792485
-0.149099
-0.13458
-0.126769
-0.117536
-0.113041
-0.106942
-0.104412
-0.100321
-0.0990057
-0.0962464
-0.0956631
-0.0937726
-0.0935647
-0.0921821
-0.0920423
-0.0908441
-0.0904677
-0.0891239
-0.0881725
-0.08631
-0.16067
-0.145025
-0.136607
-0.126657
-0.121813
-0.11524
-0.112514
-0.108106
-0.106688
-0.103714
-0.103085
-0.101048
-0.100824
-0.0993339
-0.0991831
-0.0978918
-0.097486
-0.0960378
-0.0950126
-0.0930054
-0.171537
-0.154834
-0.145847
-0.135225
-0.130053
-0.123036
-0.120125
-0.115419
-0.113906
-0.110731
-0.11006
-0.107885
-0.107646
-0.106055
-0.105894
-0.104516
-0.104083
-0.102536
-0.101442
-0.0992991
-0.181686
-0.163994
-0.154476
-0.143224
-0.137746
-0.130314
-0.127231
-0.122247
-0.120643
-0.117281
-0.116569
-0.114266
-0.114012
-0.112327
-0.112157
-0.110697
-0.110238
-0.1086
-0.107441
-0.105171
-0.191041
-0.172438
-0.16243
-0.150599
-0.144839
-0.137025
-0.133783
-0.128542
-0.126856
-0.123321
-0.122573
-0.120151
-0.119885
-0.118113
-0.117934
-0.116399
-0.115917
-0.114195
-0.112976
-0.110589
-0.199594
-0.180158
-0.169701
-0.157341
-0.151323
-0.143158
-0.139771
-0.134296
-0.132534
-0.12884
-0.128059
-0.125528
-0.12525
-0.123399
-0.123211
-0.121607
-0.121103
-0.119304
-0.118031
-0.115537
-0.207276
-0.187092
-0.176233
-0.163397
-0.157148
-0.148669
-0.145152
-0.139466
-0.137637
-0.133801
-0.13299
-0.130362
-0.130073
-0.128151
-0.127956
-0.12629
-0.125767
-0.123899
-0.122576
-0.119987
-0.214086
-0.193239
-0.182023
-0.168765
-0.16231
-0.153553
-0.14992
-0.144047
-0.142157
-0.138195
-0.137358
-0.134643
-0.134344
-0.132359
-0.132158
-0.130437
-0.129897
-0.127967
-0.126601
-0.123927
-0.219964
-0.198545
-0.187021
-0.173399
-0.166767
-0.15777
-0.154038
-0.148003
-0.146062
-0.141991
-0.141131
-0.138342
-0.138035
-0.135995
-0.135789
-0.134021
-0.133466
-0.131483
-0.13008
-0.127332
-0.224916
-0.203014
-0.191231
-0.177302
-0.170521
-0.161321
-0.157504
-0.151333
-0.149348
-0.145186
-0.144306
-0.141454
-0.14114
-0.139054
-0.138843
-0.137036
-0.136468
-0.13444
-0.133005
-0.130195
-0.228888
-0.2066
-0.194609
-0.180435
-0.173533
-0.164171
-0.160287
-0.154008
-0.151988
-0.147752
-0.146857
-0.143954
-0.143635
-0.141513
-0.141298
-0.139459
-0.138881
-0.136818
-0.135357
-0.132498
-0.231897
-0.209315
-0.197166
-0.182806
-0.175814
-0.166328
-0.162393
-0.156031
-0.153984
-0.149692
-0.148785
-0.145844
-0.145521
-0.14337
-0.143153
-0.141289
-0.140704
-0.138613
-0.137134
-0.134237
-0.233896
-0.21112
-0.198867
-0.184383
-0.17733
-0.167763
-0.163794
-0.157378
-0.155313
-0.150985
-0.15007
-0.147104
-0.146778
-0.144609
-0.14439
-0.14251
-0.14192
-0.139811
-0.138319
-0.135397
-0.23491
-0.212035
-0.199728
-0.185181
-0.178098
-0.168489
-0.164503
-0.158058
-0.155985
-0.151638
-0.150718
-0.14774
-0.147412
-0.145234
-0.145013
-0.143125
-0.142532
-0.140415
-0.138916
-0.135981
)
;

boundaryField
{
    out
    {
        type            implicitExtrapolation;
    }
    in
    {
        type            implicitExtrapolation;
    }
    frontAndBack
    {
        type            empty;
    }
}


// ************************************************************************* //
