/*--------------------------------*- C++ -*----------------------------------*\
| =========                 |                                                 |
| \\      /  F ield         | foam-extend: Open Source CFD                    |
|  \\    /   O peration     | Version:  3.0                                   |
|   \\  /    A nd           | Web:         http://www.extend-project.de       |
|    \\/     M anipulation  |                                                 |
\*---------------------------------------------------------------------------*/
FoamFile
{
    version     2.0;
    format      ascii;
    class       volSymmTensorField;
    location    "17";
    object      sigma;
}
// * * * * * * * * * * * * * * * * * * * * * * * * * * * * * * * * * * * * * //

dimensions      [0 0 0 0 0 0 0];

internalField   nonuniform List<symmTensor> 
1920
(
(-0.176345 -0.00577618 4.99202e-20 0.176366 -1.14334e-20 -2.0971e-05)
(-0.171067 -0.00683949 9.6373e-20 0.171123 1.52304e-20 -5.61413e-05)
(-0.16131 -0.00720535 1.0906e-19 0.161397 1.06553e-20 -8.72501e-05)
(-0.149684 -0.00719229 9.8055e-20 0.149799 3.96149e-20 -0.000114907)
(-0.137523 -0.00697409 7.76966e-20 0.137663 6.49773e-20 -0.000139473)
(-0.125488 -0.00664787 7.85512e-20 0.125649 5.34405e-20 -0.000161096)
(-0.113918 -0.00626969 6.27538e-20 0.114098 9.55607e-20 -0.000179811)
(-0.102966 -0.00587236 7.60149e-20 0.103162 8.02107e-20 -0.000195516)
(-0.0926992 -0.00547525 7.1267e-20 0.0929072 1.21287e-19 -0.000208055)
(-0.0831349 -0.00509026 6.34969e-20 0.0833521 1.36855e-19 -0.000217159)
(-0.0742695 -0.00472423 3.74505e-20 0.074492 1.49496e-19 -0.000222535)
(-0.0660931 -0.00438203 1.95757e-20 0.0663169 1.26063e-19 -0.000223789)
(-0.058592 -0.00406614 4.81994e-20 0.0588125 1.12061e-19 -0.00022052)
(-0.0517643 -0.00377938 6.13175e-20 0.0519765 1.27811e-19 -0.000212234)
(-0.0456064 -0.00352292 2.67284e-20 0.0458048 1.03329e-19 -0.000198455)
(-0.040137 -0.0032995 5.27549e-20 0.0403157 1.78448e-20 -0.000178619)
(-0.0353712 -0.0031103 6.25166e-20 0.0355234 -2.36372e-20 -0.000152215)
(-0.0313552 -0.00295889 2.28123e-20 0.0314739 -3.39299e-20 -0.00011866)
(-0.0281279 -0.00284754 1.95731e-20 0.0282054 -6.86237e-20 -7.74701e-05)
(-0.025767 -0.00277828 -3.80453e-21 0.0257951 -3.92274e-20 -2.81266e-05)
(-0.175588 -0.017303 5.40671e-20 0.175609 6.26421e-21 -2.08844e-05)
(-0.169692 -0.0204254 9.7829e-20 0.169747 1.50008e-20 -5.59091e-05)
(-0.15962 -0.0214866 1.1045e-19 0.159707 -1.89133e-22 -8.68887e-05)
(-0.147854 -0.0214288 1.28262e-19 0.147968 -5.04157e-21 -0.00011443)
(-0.135652 -0.0207661 9.67754e-20 0.135791 5.0532e-20 -0.000138894)
(-0.123633 -0.0197854 9.09614e-20 0.123794 6.35471e-20 -0.000160426)
(-0.112113 -0.0186525 9.0125e-20 0.112292 9.79744e-20 -0.000179063)
(-0.101228 -0.0174643 7.04382e-20 0.101422 1.9606e-19 -0.000194702)
(-0.0910365 -0.0162779 7.71556e-20 0.0912437 2.39815e-19 -0.000207188)
(-0.0815506 -0.0151283 6.22302e-20 0.0817668 2.20592e-19 -0.000216254)
(-0.0727625 -0.0140357 4.71364e-20 0.0729841 2.09441e-19 -0.000221608)
(-0.0646599 -0.0130144 3.15186e-20 0.0648827 1.99083e-19 -0.000222856)
(-0.0572274 -0.0120718 8.06631e-20 0.057447 1.57354e-19 -0.000219601)
(-0.0504617 -0.011216 7.90295e-20 0.050673 1.68265e-19 -0.00021135)
(-0.0443585 -0.0104505 -5.19391e-21 0.0445561 2.18205e-19 -0.000197629)
(-0.0389354 -0.00978348 -6.95451e-20 0.0391133 2.33279e-19 -0.000177876)
(-0.034207 -0.00921835 -4.49845e-20 0.0343586 2.12364e-19 -0.000151582)
(-0.0302183 -0.00876578 1.77757e-20 0.0303365 1.32831e-19 -0.000118167)
(-0.0270075 -0.00843243 3.69303e-20 0.0270846 8.41312e-20 -7.71485e-05)
(-0.0246521 -0.00822444 5.84644e-20 0.0246801 -3.72038e-20 -2.801e-05)
(-0.174079 -0.0287554 4.82963e-20 0.174099 1.07779e-20 -2.07061e-05)
(-0.166971 -0.0337364 7.75607e-20 0.167026 1.02527e-20 -5.54314e-05)
(-0.156287 -0.0353845 7.42597e-20 0.156373 6.62296e-21 -8.61466e-05)
(-0.144246 -0.0352267 1.0954e-19 0.14436 -2.13175e-20 -0.000113453)
(-0.131966 -0.034095 1.30082e-19 0.132104 -5.07632e-21 -0.00013771)
(-0.119982 -0.0324539 1.02441e-19 0.120141 6.8769e-20 -0.000159059)
(-0.10856 -0.0305712 1.57913e-19 0.108737 1.06335e-19 -0.000177538)
(-0.0978081 -0.0286031 2.31437e-19 0.0980012 2.01523e-19 -0.000193046)
(-0.0877669 -0.0266416 1.50279e-19 0.0879723 2.57414e-19 -0.000205427)
(-0.0784359 -0.0247433 9.92687e-20 0.0786503 2.16299e-19 -0.000214418)
(-0.0698007 -0.0229403 8.61177e-20 0.0700204 2.13425e-19 -0.000219727)
(-0.0618437 -0.0212556 2.43024e-20 0.0620647 2.49814e-19 -0.000220966)
(-0.0545467 -0.0197008 8.63688e-20 0.0547645 1.15266e-19 -0.00021774)
(-0.0479035 -0.0182892 2.05569e-19 0.0481131 1.35236e-19 -0.00020956)
(-0.0419085 -0.0170263 2.38174e-19 0.0421044 1.53484e-19 -0.000195955)
(-0.0365769 -0.0159252 2.05218e-19 0.0367533 2.47984e-19 -0.00017637)
(-0.0319226 -0.0149915 9.30345e-20 0.0320729 2.31782e-19 -0.000150299)
(-0.0279878 -0.0142427 -7.96751e-21 0.028105 6.70376e-20 -0.000117167)
(-0.0248097 -0.0136895 -8.27285e-20 0.0248862 -4.63495e-20 -7.64962e-05)
(-0.0224656 -0.0133423 -7.3871e-20 0.0224933 4.48388e-21 -2.77733e-05)
(-0.171822 -0.0400839 4.26985e-20 0.171843 4.3236e-21 -2.04391e-05)
(-0.162966 -0.0465982 6.05896e-20 0.16302 2.80677e-20 -5.47166e-05)
(-0.151399 -0.0486578 4.90177e-20 0.151484 4.04789e-20 -8.50357e-05)
(-0.138968 -0.0483103 6.34259e-20 0.13908 2.89304e-20 -0.000111991)
(-0.126579 -0.0466704 1.36478e-19 0.126715 -3.51746e-20 -0.000135935)
(-0.114649 -0.0443593 1.80879e-19 0.114806 -1.78593e-20 -0.000157011)
(-0.103374 -0.0417347 1.97144e-19 0.10355 5.14469e-21 -0.000175253)
(-0.0928199 -0.0390047 2.90946e-19 0.0930105 -2.29922e-20 -0.000190562)
(-0.0829998 -0.0362917 2.45381e-19 0.0832026 -3.35218e-21 -0.000202785)
(-0.0738968 -0.0336705 1.1841e-19 0.0741085 5.73016e-20 -0.000211662)
(-0.0654864 -0.0311835 1.74859e-19 0.0657033 1.13501e-19 -0.000216904)
(-0.0577435 -0.0288609 5.44731e-20 0.0579616 1.81781e-19 -0.000218128)
(-0.0506455 -0.026718 -1.43e-20 0.0508605 9.50824e-20 -0.000214944)
(-0.0441823 -0.0247721 1.64474e-19 0.0443892 4.9178e-20 -0.00020687)
(-0.0383462 -0.0230306 2.10243e-19 0.0385397 1.22365e-20 -0.000193441)
(-0.0331493 -0.021511 3.18338e-19 0.0333234 -2.35874e-19 -0.000174109)
(-0.0286039 -0.0202208 4.00218e-20 0.0287523 -1.38423e-19 -0.000148373)
(-0.024749 -0.0191836 -1.24292e-19 0.0248647 -2.10538e-19 -0.000115666)
(-0.0216195 -0.0184143 -4.67191e-20 0.0216951 -2.44595e-20 -7.55163e-05)
(-0.0192926 -0.0179272 4.99793e-20 0.01932 1.12444e-19 -2.74177e-05)
(-0.168829 -0.05124 2.54665e-20 0.168849 4.54162e-20 -2.00846e-05)
(-0.157763 -0.0588507 2.80506e-20 0.157817 9.81896e-20 -5.37675e-05)
(-0.145088 -0.0610862 1.2455e-20 0.145171 1.05968e-19 -8.35608e-05)
(-0.13217 -0.0604289 -3.84779e-20 0.13228 1.6202e-19 -0.000110049)
(-0.119653 -0.0582283 6.18138e-23 0.119787 6.48092e-20 -0.000133578)
(-0.107802 -0.0552348 8.80785e-20 0.107956 -8.43987e-21 -0.000154289)
(-0.0967228 -0.0518795 1.6933e-19 0.0968951 -1.2142e-19 -0.000172216)
(-0.0864264 -0.0484122 2.03713e-19 0.0866137 -5.61788e-20 -0.000187261)
(-0.0768942 -0.0449796 2.67933e-19 0.0770934 -5.90947e-20 -0.000199274)
(-0.0680872 -0.0416705 1.78882e-19 0.0682952 1.50909e-19 -0.000207998)
(-0.0599682 -0.0385352 2.61331e-19 0.0601814 9.37239e-20 -0.000213151)
(-0.0525025 -0.0356094 1.52396e-19 0.0527168 1.26464e-19 -0.000214355)
(-0.0456624 -0.0329108 -3.14946e-20 0.0458736 1.71088e-19 -0.000211227)
(-0.0394322 -0.0304599 3.58804e-20 0.0396355 2.80361e-19 -0.000203294)
(-0.0338021 -0.0282653 -1.63143e-20 0.0339922 2.28931e-20 -0.000190098)
(-0.0287799 -0.0263482 7.64787e-21 0.028951 -1.59107e-19 -0.000171101)
(-0.0243762 -0.0247179 2.06079e-19 0.024522 -1.01854e-19 -0.00014581)
(-0.0206254 -0.0234033 -1.30092e-20 0.0207391 -3.09171e-20 -0.000113668)
(-0.01756 -0.0224227 1.94056e-19 0.0176342 1.1566e-19 -7.42125e-05)
(-0.0152567 -0.021795 -7.88972e-20 0.0152836 1.53465e-19 -2.69444e-05)
(-0.165112 -0.0621756 -1.97071e-20 0.165132 1.54499e-19 -1.96441e-05)
(-0.151475 -0.0703516 -4.83308e-20 0.151528 2.59059e-19 -5.25882e-05)
(-0.137518 -0.0724773 -1.00237e-20 0.1376 2.24643e-19 -8.17281e-05)
(-0.124048 -0.0713649 1.65107e-20 0.124156 1.34224e-19 -0.000107635)
(-0.111398 -0.0685407 -9.09682e-20 0.111528 1.40822e-19 -0.000130649)
(-0.0996534 -0.0648504 -7.27176e-20 0.0998043 8.54078e-20 -0.000150907)
(-0.088817 -0.0607785 -1.61416e-20 0.0889854 6.54873e-20 -0.000168442)
(-0.0788358 -0.0566046 2.02011e-19 0.0790189 9.08177e-20 -0.000183158)
(-0.0696524 -0.0524917 3.48545e-19 0.0698473 -9.01328e-21 -0.000194909)
(-0.0612031 -0.0485379 2.84621e-19 0.0614065 1.25931e-19 -0.000203443)
(-0.0534353 -0.0447985 1.7604e-19 0.0536438 8.81829e-20 -0.000208484)
(-0.0463034 -0.041312 2.26665e-19 0.0465131 1.65824e-19 -0.000209663)
(-0.0397737 -0.0380975 2.34758e-19 0.0399803 1.87761e-19 -0.000206605)
(-0.0338242 -0.0351775 9.70931e-20 0.0340231 3.86681e-19 -0.000198847)
(-0.0284423 -0.0325614 -1.84544e-19 0.0286283 -1.60866e-21 -0.00018594)
(-0.0236308 -0.0302728 -1.02974e-19 0.0237981 4.37119e-20 -0.000167359)
(-0.0193985 -0.0283226 4.35167e-20 0.0195411 -9.51322e-20 -0.000142622)
(-0.0157743 -0.0267439 -1.6553e-20 0.0158855 -5.29013e-21 -0.000111184)
(-0.0127878 -0.0255583 3.00213e-19 0.0128604 -1.62176e-19 -7.25908e-05)
(-0.010515 -0.0247891 8.56028e-21 0.0105414 -2.67974e-20 -2.63558e-05)
(-0.160688 -0.0728438 7.04316e-21 0.160707 1.45318e-19 -1.91195e-05)
(-0.144234 -0.0809815 -6.82571e-20 0.144285 2.79301e-19 -5.11838e-05)
(-0.128887 -0.082673 -8.55915e-20 0.128967 1.32404e-19 -7.95455e-05)
(-0.114832 -0.0809414 -2.83105e-20 0.114937 9.59502e-21 -0.000104761)
(-0.102057 -0.077423 -6.32352e-20 0.102185 1.49923e-19 -0.000127161)
(-0.0904539 -0.0730206 -5.46163e-20 0.0906007 1.03389e-19 -0.000146878)
(-0.0799066 -0.0682495 -9.96558e-21 0.0800705 1.0838e-19 -0.000163945)
(-0.0702929 -0.0634048 7.0845e-20 0.0704712 -4.73407e-20 -0.00017827)
(-0.0615128 -0.0586573 2.6431e-19 0.0617025 -1.28054e-19 -0.000189708)
(-0.053475 -0.054109 4.3657e-19 0.053673 -6.13408e-20 -0.000198015)
(-0.0461104 -0.0498163 3.38403e-19 0.0463134 1.72206e-20 -0.000202923)
(-0.0393613 -0.0458184 3.46101e-19 0.0395654 -2.28673e-20 -0.000204073)
(-0.0331872 -0.0421342 4.56979e-19 0.0333883 -1.60239e-19 -0.000201097)
(-0.0275594 -0.0387866 4.09651e-19 0.0277529 -6.95969e-20 -0.000193547)
(-0.0224621 -0.0357852 -1.45827e-19 0.0226431 -3.96127e-19 -0.000180985)
(-0.0178927 -0.0331552 -9.31067e-20 0.0180556 -3.28968e-19 -0.0001629)
(-0.013858 -0.0309085 8.50385e-21 0.0139969 -2.19049e-19 -0.000138823)
(-0.0103808 -0.0290815 1.05913e-21 0.010489 -6.343e-19 -0.000108223)
(-0.00748712 -0.0276983 -4.56367e-20 0.00755778 -3.05479e-19 -7.0658e-05)
(-0.00525252 -0.0267867 2.46845e-19 0.00527817 -4.68982e-19 -2.56542e-05)
(-0.155575 -0.0831988 6.83096e-20 0.155593 6.96061e-20 -1.85132e-05)
(-0.136187 -0.0906463 3.84528e-20 0.136237 3.2175e-20 -4.95604e-05)
(-0.119412 -0.0915544 -1.38945e-19 0.119489 -9.18747e-21 -7.70224e-05)
(-0.104777 -0.0890277 -2.87469e-20 0.104879 1.00527e-20 -0.000101438)
(-0.0919062 -0.0847405 5.98932e-20 0.0920293 6.26179e-21 -0.000123128)
(-0.0804827 -0.0796112 -1.00141e-19 0.0806249 1.95987e-20 -0.00014222)
(-0.0702697 -0.0741612 -7.7838e-20 0.0704284 -6.44131e-20 -0.000158747)
(-0.0610706 -0.0686858 -7.29061e-20 0.0612432 -1.23769e-19 -0.000172618)
(-0.0527406 -0.0633547 2.61973e-20 0.0529243 3.15736e-20 -0.000183695)
(-0.0451596 -0.0582673 3.98248e-19 0.0453514 -7.22304e-20 -0.00019174)
(-0.0382413 -0.0534775 2.04573e-19 0.0384378 1.23999e-19 -0.000196494)
(-0.0319151 -0.0490226 7.98633e-20 0.0321127 -4.14306e-20 -0.000197608)
(-0.0261337 -0.0449194 1.79841e-19 0.0263284 -1.72737e-19 -0.000194728)
(-0.0208612 -0.0411902 3.42253e-19 0.0210486 -2.07202e-19 -0.000187418)
(-0.0160787 -0.0378436 -3.70578e-19 0.016254 -3.38801e-19 -0.000175255)
(-0.0117777 -0.0349054 -2.53966e-19 0.0119354 -6.45036e-20 -0.000157744)
(-0.00796284 -0.0323882 -3.03811e-19 0.00809727 -4.16069e-19 -0.000134429)
(-0.0046503 -0.0303304 -5.15256e-19 0.0047551 -4.57456e-19 -0.000104798)
(-0.00186269 -0.0287581 -2.52022e-19 0.00193112 1.6382e-19 -6.84225e-05)
(0.000325528 -0.0277037 1.49367e-19 -0.000300686 -8.48261e-20 -2.48427e-05)
(-0.149795 -0.0931962 4.22084e-20 0.149813 3.02937e-20 -1.78276e-05)
(-0.127494 -0.0992799 5.71639e-20 0.127542 -7.57559e-20 -4.77249e-05)
(-0.109328 -0.0990451 -9.37217e-20 0.109402 -6.6487e-20 -7.41698e-05)
(-0.0941564 -0.0955433 -9.84044e-20 0.0942541 -3.55698e-20 -9.76812e-05)
(-0.0812351 -0.0904125 1.8215e-20 0.0813536 -3.92457e-20 -0.000118568)
(-0.0700371 -0.0845433 -2.73971e-20 0.070174 -3.13966e-20 -0.000136953)
(-0.0602021 -0.0784375 -1.80033e-19 0.0603549 -2.36803e-20 -0.000152869)
(-0.0514589 -0.0723752 -8.33635e-20 0.0516252 8.82167e-21 -0.000166227)
(-0.0436179 -0.0665151 -1.20909e-19 0.0437948 2.37399e-19 -0.000176895)
(-0.0365299 -0.0609477 1.41758e-19 0.0367145 2.64551e-19 -0.000184643)
(-0.0300913 -0.0557208 4.45168e-19 0.0302805 3.11009e-19 -0.000189222)
(-0.024219 -0.0508666 8.06112e-20 0.0244093 -2.84571e-20 -0.000190296)
(-0.0188586 -0.0463986 -1.91683e-19 0.0190461 1.63761e-19 -0.000187524)
(-0.0139672 -0.0423364 3.22641e-19 0.0141477 1.90766e-20 -0.000180485)
(-0.00952278 -0.0386874 -2.60412e-19 0.00969155 1.45902e-19 -0.000168774)
(-0.00551081 -0.0354765 -3.77826e-19 0.00566272 3.25502e-20 -0.000151911)
(-0.0019338 -0.0327166 -8.1503e-19 0.00206326 1.07263e-19 -0.00012946)
(0.00119884 -0.0304468 -4.90546e-19 -0.00109791 6.13137e-19 -0.000100925)
(0.0038682 -0.0286947 -1.84968e-19 -0.00380231 4.78011e-19 -6.5894e-05)
(0.00600112 -0.0274974 -2.57095e-19 -0.0059772 3.04322e-19 -2.39248e-05)
(-0.143375 -0.102793 -5.01042e-20 0.143392 9.75274e-20 -1.70658e-05)
(-0.118318 -0.106845 -1.41319e-20 0.118364 -3.97404e-20 -4.56854e-05)
(-0.0988741 -0.105113 -9.33113e-20 0.0989451 -8.12006e-20 -7.1e-05)
(-0.0832496 -0.100461 -1.32693e-19 0.0833431 -6.7056e-22 -9.35066e-05)
(-0.0703424 -0.0944148 -5.36075e-20 0.0704559 2.97737e-20 -0.000113501)
(-0.0594213 -0.0877958 -1.45317e-19 0.0595524 1.17163e-19 -0.000131101)
(-0.0500064 -0.0810602 -2.12769e-19 0.0501528 1.01455e-19 -0.000146337)
(-0.0417547 -0.0744572 -1.48166e-19 0.0419139 1.68061e-19 -0.000159125)
(-0.0344331 -0.0681249 9.02042e-20 0.0346024 2.44678e-19 -0.000169338)
(-0.0278647 -0.0621388 9.08815e-20 0.0280415 2.91789e-19 -0.000176756)
(-0.0219296 -0.0565366 3.36419e-19 0.0221107 -4.15014e-20 -0.000181141)
(-0.0165324 -0.0513426 4.10371e-19 0.0167146 -3.12534e-19 -0.00018217)
(-0.0116124 -0.0465654 3.67226e-20 0.0117919 2.5988e-20 -0.000179517)
(-0.00711984 -0.0422204 2.02759e-19 0.00729262 -2.37507e-22 -0.000172781)
(-0.00302973 -0.0383129 5.74217e-20 0.0031913 -6.89921e-20 -0.00016157)
(0.000678242 -0.034866 -2.35182e-20 -0.000532813 -4.04685e-20 -0.000145428)
(0.00400377 -0.0318921 1.28915e-19 -0.00387984 1.16197e-19 -0.000123936)
(0.00694409 -0.0294302 -2.99959e-19 -0.00684747 2.55608e-19 -9.66192e-05)
(0.00948403 -0.0275084 1.68364e-20 -0.00942095 5.58619e-20 -6.30832e-05)
(0.0115521 -0.0261688 -4.50028e-19 -0.0115292 4.58986e-19 -2.29045e-05)
(-0.13634 -0.111949 -6.53411e-20 0.136357 4.41803e-20 -1.6231e-05)
(-0.108824 -0.113335 -1.16422e-19 0.108867 -2.7867e-20 -4.34505e-05)
(-0.0882879 -0.10977 -1.27104e-19 0.0883554 -3.93728e-20 -6.75266e-05)
(-0.0723333 -0.103804 -1.03611e-19 0.0724222 -2.9597e-21 -8.89321e-05)
(-0.0595226 -0.0967796 -1.36738e-19 0.0596306 2.10924e-19 -0.000107948)
(-0.0489355 -0.0894054 4.0585e-20 0.0490601 1.2788e-19 -0.000124687)
(-0.039981 -0.0820686 -1.17032e-19 0.0401202 -8.7335e-21 -0.000139179)
(-0.0322502 -0.0749727 -1.02431e-19 0.0324015 4.66361e-20 -0.000151342)
(-0.02547 -0.068226 1.84709e-19 0.0256311 -5.17935e-20 -0.000161056)
(-0.0194385 -0.0618827 3.22186e-19 0.0196066 -1.7991e-19 -0.000168113)
(-0.0140207 -0.0559671 4.15394e-20 0.014193 -3.39133e-19 -0.000172284)
(-0.00911054 -0.0504927 1.39493e-19 0.0092838 -2.8063e-19 -0.000173264)
(-0.00464134 -0.0454618 3.6205e-19 0.00481208 -7.9643e-20 -0.000170742)
(-0.000557324 -0.0408841 4.56239e-19 0.000721659 -2.72461e-19 -0.000164336)
(0.00316925 -0.0367622 3.30456e-20 -0.00301558 -2.73796e-19 -0.000153675)
(0.00656403 -0.0331159 -2.17028e-19 -0.00642571 -1.84969e-19 -0.000138322)
(0.00962881 -0.0299573 5.7654e-20 -0.00951093 -2.1827e-19 -0.000117881)
(0.0123671 -0.0273234 1.21225e-19 -0.0122752 1.3961e-19 -9.18998e-05)
(0.0147676 -0.0252427 4.73333e-19 -0.0147076 2.80291e-19 -6.00023e-05)
(0.0167605 -0.0237621 2.10034e-19 -0.0167387 -1.89659e-19 -2.17861e-05)
(-0.128723 -0.120624 7.52694e-21 0.128738 -4.08578e-20 -1.53269e-05)
(-0.0991675 -0.11877 -6.05543e-20 0.0992085 -8.63983e-20 -4.10301e-05)
(-0.0777967 -0.113073 -1.40423e-19 0.0778605 -5.58594e-20 -6.37648e-05)
(-0.0616705 -0.105649 -4.26493e-20 0.0617545 2.17883e-20 -8.39776e-05)
(-0.0490555 -0.0975933 -3.28682e-20 0.0491574 1.6887e-19 -0.000101934)
(-0.0388641 -0.0894645 2.3531e-20 0.0389819 -1.01991e-19 -0.000117741)
(-0.0304086 -0.0815579 -9.64912e-20 0.0305401 -1.01375e-19 -0.000131425)
(-0.0232222 -0.0740173 -1.03601e-19 0.0233651 -1.57969e-19 -0.000142912)
(-0.0169974 -0.0669132 -1.21229e-19 0.0171495 -2.04987e-19 -0.000152085)
(-0.0115109 -0.0602731 1.56095e-19 0.0116697 -2.55617e-19 -0.00015875)
(-0.00661499 -0.0541043 5.14997e-20 0.00677768 -1.60058e-19 -0.00016269)
(-0.0021945 -0.0484073 -7.40745e-20 0.00235812 -7.39141e-20 -0.000163616)
(0.00182202 -0.0431766 -1.08768e-19 -0.00166079 -1.93992e-19 -0.000161236)
(0.00549555 -0.0384149 2.75202e-20 -0.00534036 -8.36531e-20 -0.000155188)
(0.00885608 -0.0341213 4.17461e-19 -0.00871096 -4.45209e-20 -0.000145121)
(0.011934 -0.0303116 -1.02086e-19 -0.0118033 -1.14379e-19 -0.000130625)
(0.0147329 -0.0269967 -5.4578e-20 -0.0146216 1.14554e-20 -0.000111322)
(0.0172623 -0.0242111 9.6107e-20 -0.0171755 4.09906e-20 -8.67869e-05)
(0.0195142 -0.0219827 1.23383e-19 -0.0194575 -2.34483e-19 -5.66645e-05)
(0.0214213 -0.0203634 1.83404e-19 -0.0214008 -3.28662e-19 -2.05744e-05)
(-0.120555 -0.128781 3.64718e-20 0.120569 -6.26627e-20 -1.43573e-05)
(-0.0894966 -0.123196 7.38166e-20 0.089535 -1.67987e-19 -3.84344e-05)
(-0.067609 -0.115115 -9.50019e-20 0.0676687 -7.481e-20 -5.97306e-05)
(-0.0515018 -0.106118 -5.3311e-20 0.0515805 3.69554e-20 -7.86645e-05)
(-0.0391959 -0.0969928 1.8529e-19 0.0392914 -6.83942e-20 -9.54848e-05)
(-0.0294663 -0.088117 5.25096e-20 0.0295766 -1.78158e-19 -0.000110292)
(-0.021546 -0.0796744 -4.59182e-20 0.0216691 -1.17692e-19 -0.000123111)
(-0.0149218 -0.0717372 -2.41765e-19 0.0150557 -7.50139e-20 -0.000133871)
(-0.0092589 -0.0643307 -4.58121e-19 0.00940137 1.47845e-20 -0.000142465)
(-0.00431702 -0.0574513 -2.30558e-19 0.00446572 -4.10518e-20 -0.000148708)
(6.11668e-05 -0.0510863 -4.50743e-20 9.12332e-05 -3.49213e-20 -0.0001524)
(0.00399772 -0.0452211 -6.92295e-20 -0.00384445 2.76527e-20 -0.000153269)
(0.00756762 -0.0398414 -2.01175e-19 -0.00741658 9.951e-20 -0.000151041)
(0.0108358 -0.0349415 -4.17527e-19 -0.0106904 2.04076e-19 -0.000145376)
(0.013834 -0.0305167 -9.79248e-20 -0.013698 -1.06651e-23 -0.000135947)
(0.0165964 -0.0265776 -5.03832e-20 -0.016474 3.34878e-20 -0.000122368)
(0.0191284 -0.0231339 -2.00584e-20 -0.0190241 -8.67718e-20 -0.000104286)
(0.0214444 -0.0202164 -1.08034e-19 -0.0213631 -8.85512e-20 -8.13026e-05)
(0.0235397 -0.0178517 -1.37064e-19 -0.0234866 -1.22584e-19 -5.30843e-05)
(0.02535 -0.0160972 3.28292e-20 -0.0253308 3.79963e-20 -1.92747e-05)
(-0.111872 -0.136386 7.81358e-20 0.111885 -1.2015e-19 -1.33265e-05)
(-0.0799419 -0.126685 3.43759e-20 0.0799776 -1.00446e-19 -3.56746e-05)
(-0.0579075 -0.116028 1.83511e-20 0.0579629 -5.21642e-20 -5.54415e-05)
(-0.0420364 -0.105374 -1.13781e-20 0.0421094 -8.44342e-20 -7.30155e-05)
(-0.0301647 -0.0951595 1.1806e-19 0.0302533 -1.96694e-19 -8.86278e-05)
(-0.0209658 -0.0855523 1.56024e-19 0.0210682 -2.06411e-19 -0.000102372)
(-0.0136147 -0.0766096 7.11195e-20 0.013729 -4.81692e-20 -0.00011427)
(-0.00756534 -0.0683228 1.22167e-19 0.00768959 -2.58779e-21 -0.000124258)
(-0.00246388 -0.0606659 -2.08695e-19 0.00259611 -7.49976e-20 -0.000132235)
(0.00194127 -0.0536005 -4.0048e-19 -0.00180323 -1.73158e-19 -0.000138031)
(0.00581357 -0.0470917 -3.09794e-19 -0.00567211 -1.06746e-20 -0.000141459)
(0.00927938 -0.0411082 -1.25531e-19 -0.00913712 1.89741e-19 -0.000142266)
(0.0124157 -0.0356256 -4.01812e-20 -0.0122755 3.36545e-19 -0.000140199)
(0.01529 -0.0306293 -5.8701e-20 -0.0151551 1.47669e-19 -0.000134942)
(0.0179351 -0.0261104 -3.24176e-19 -0.0178089 1.49632e-19 -0.000126191)
(0.0203879 -0.0220734 -3.74649e-19 -0.0202743 1.04251e-19 -0.000113588)
(0.0226553 -0.0185265 -3.67912e-19 -0.0225585 1.66252e-19 -9.68042e-05)
(0.0247559 -0.0154959 -1.6244e-19 -0.0246804 2.62418e-19 -7.54704e-05)
(0.0266877 -0.0130069 -2.06117e-19 -0.0266384 -5.96395e-20 -4.92768e-05)
(0.0283899 -0.0111217 -3.4671e-19 -0.028372 2.41023e-19 -1.78924e-05)
(-0.102711 -0.143406 3.48108e-20 0.102723 -5.33024e-20 -1.22388e-05)
(-0.0706147 -0.129327 4.69833e-20 0.0706475 -2.43999e-20 -3.27627e-05)
(-0.048843 -0.115971 8.32366e-20 0.0488939 -7.74699e-20 -5.09158e-05)
(-0.0334449 -0.103615 -1.09294e-20 0.033512 -1.62094e-19 -6.70551e-05)
(-0.0221409 -0.0923111 -4.8008e-20 0.0222223 -1.98293e-19 -8.13927e-05)
(-0.0135431 -0.0819971 2.21993e-21 0.0136371 -1.31802e-19 -9.40143e-05)
(-0.0067929 -0.0725926 6.05048e-20 0.00689785 -1.23805e-20 -0.000104941)
(-0.00132632 -0.0640012 1.40769e-19 0.00144043 -4.86863e-20 -0.000114114)
(0.00322004 -0.0561418 1.39241e-19 -0.0030986 -2.12933e-19 -0.000121441)
(0.00710271 -0.0489383 -2.83976e-19 -0.00697595 -1.81696e-19 -0.000126764)
(0.0104875 -0.0423322 -2.58728e-19 -0.0103576 2.59434e-20 -0.000129913)
(0.013502 -0.0362743 2.40273e-20 -0.0133714 1.20399e-19 -0.000130656)
(0.0162237 -0.0307297 2.19244e-19 -0.0160949 8.15241e-20 -0.000128758)
(0.0187208 -0.025674 1.63777e-19 -0.0185969 -4.40272e-20 -0.000123931)
(0.0210265 -0.0210937 3.63707e-19 -0.0209106 1.17029e-19 -0.000115896)
(0.0231795 -0.0169869 1.4755e-19 -0.0230752 6.13863e-20 -0.000104322)
(0.0251877 -0.0133601 7.65822e-20 -0.0250988 -7.45677e-21 -8.89082e-05)
(0.0270728 -0.0102341 -4.34181e-20 -0.0270035 -1.156e-19 -6.93154e-05)
(0.0288352 -0.00763271 3.83259e-20 -0.0287899 -9.4985e-20 -4.52586e-05)
(0.0304178 -0.00562272 4.9874e-20 -0.0304014 -8.1867e-20 -1.64336e-05)
(-0.0931118 -0.149812 4.46724e-21 0.0931229 -1.48582e-20 -1.10989e-05)
(-0.0616034 -0.131228 -2.83187e-21 0.0616331 2.48387e-20 -2.97112e-05)
(-0.0405297 -0.115127 1.66564e-19 0.0405759 -1.11934e-19 -4.61732e-05)
(-0.0258539 -0.101066 -4.05883e-21 0.0259147 -1.57193e-19 -6.08088e-05)
(-0.0152556 -0.0886933 -1.37957e-19 0.0153294 -1.43827e-19 -7.38105e-05)
(-0.00732935 -0.0777065 -1.40988e-19 0.00741461 -3.64052e-20 -8.52561e-05)
(-0.0012091 -0.0678804 5.97517e-20 0.00130427 -1.29027e-20 -9.51652e-05)
(0.00367076 -0.0590271 5.69992e-20 -0.00356727 -8.32031e-20 -0.000103484)
(0.00767309 -0.0510081 1.57156e-19 -0.00756296 -2.33435e-19 -0.000110128)
(0.0110526 -0.0437083 -2.03204e-19 -0.0109377 -9.1977e-20 -0.000114956)
(0.0139732 -0.0370447 -2.01598e-19 -0.0138554 -1.61322e-19 -0.000117812)
(0.0165608 -0.0309496 -1.93871e-19 -0.0164423 -9.74902e-20 -0.000118487)
(0.0188912 -0.0253774 1.3748e-19 -0.0187744 -5.74007e-20 -0.000116767)
(0.021032 -0.0202935 6.33788e-20 -0.0209197 -2.23806e-19 -0.000112391)
(0.0230158 -0.0156796 1.33209e-19 -0.0229107 -1.47318e-21 -0.000105105)
(0.0248818 -0.0115273 4.50672e-19 -0.0247872 -1.79012e-19 -9.46095e-05)
(0.0266385 -0.00784101 1.86847e-19 -0.0265579 -2.07012e-19 -8.06321e-05)
(0.0283097 -0.00463606 1.95439e-19 -0.0282468 -2.34785e-19 -6.28639e-05)
(0.0298976 -0.00193412 -2.20062e-19 -0.0298565 -2.51554e-19 -4.10467e-05)
(0.0313496 0.00019338 1.18346e-19 -0.0313347 -3.85243e-20 -1.49045e-05)
(-0.083115 -0.155577 3.37948e-20 0.0831249 -3.92019e-21 -9.91177e-06)
(-0.0529714 -0.132503 1.10693e-19 0.0529979 -5.17498e-20 -2.65331e-05)
(-0.0330415 -0.11369 8.03013e-20 0.0330827 -9.91076e-20 -4.12339e-05)
(-0.0193414 -0.0979674 6.86713e-20 0.0193957 -1.0277e-19 -5.43034e-05)
(-0.00958747 -0.0845694 8.72359e-21 0.00965339 -1.48335e-19 -6.59137e-05)
(-0.00240182 -0.0729534 -1.25123e-19 0.00247795 -8.58842e-20 -7.61346e-05)
(0.00306213 -0.0627477 1.97789e-21 -0.00297714 -6.79735e-20 -8.49833e-05)
(0.00735462 -0.0536724 -6.03814e-20 -0.00726221 -1.1471e-19 -9.24118e-05)
(0.0108276 -0.0455313 -1.59209e-19 -0.0107292 -3.51301e-20 -9.83455e-05)
(0.0137269 -0.0381701 1.47303e-20 -0.0136242 -2.51756e-20 -0.000102658)
(0.0162102 -0.0314814 -1.70695e-19 -0.016105 -2.52142e-19 -0.000105209)
(0.0183985 -0.0253791 -5.15605e-19 -0.0182927 -4.5509e-20 -0.000105812)
(0.0203641 -0.0198067 -2.81693e-19 -0.0202599 -2.99349e-20 -0.000104278)
(0.0221722 -0.0147196 -4.04601e-19 -0.0220719 -1.35517e-20 -0.000100371)
(0.0238539 -0.0100948 -1.74023e-19 -0.0237601 1.12691e-19 -9.38649e-05)
(0.0254478 -0.00591698 -1.65268e-19 -0.0253633 -1.38976e-19 -8.44931e-05)
(0.0269625 -0.00218864 -1.96492e-19 -0.0268905 1.19221e-19 -7.20114e-05)
(0.0284227 0.00108059 1.68684e-20 -0.0283665 2.817e-20 -5.61437e-05)
(0.029832 0.00387124 -1.28377e-19 -0.0297953 -3.7038e-20 -3.66594e-05)
(0.0311425 0.00610759 -1.24708e-19 -0.0311292 5.98201e-20 -1.33117e-05)
(-0.0727636 -0.160675 8.77464e-20 0.0727723 -3.57077e-20 -8.68245e-06)
(-0.0447555 -0.133274 1.18061e-19 0.0447787 -6.25325e-20 -2.3242e-05)
(-0.0264104 -0.111866 9.85338e-20 0.0264465 -8.46009e-20 -3.6119e-05)
(-0.0139355 -0.0945661 7.07245e-21 0.0139831 -7.30614e-20 -4.75668e-05)
(-0.0051609 -0.0802097 6.3744e-20 0.00521863 -1.42513e-19 -5.77364e-05)
(0.00121841 -0.0680176 -6.62625e-20 -0.00115172 -1.03904e-19 -6.66888e-05)
(0.00600249 -0.0574761 -1.19346e-20 -0.00592805 -5.29166e-20 -7.44394e-05)
(0.00970949 -0.0482157 -1.7162e-20 -0.00962855 -1.44998e-20 -8.09461e-05)
(0.01267 -0.0399842 -3.19217e-20 -0.0125838 -3.47717e-20 -8.61438e-05)
(0.015114 -0.0325894 -3.07386e-20 -0.0150241 -1.33411e-19 -8.99215e-05)
(0.0171889 -0.0259005 -7.38024e-20 -0.0170967 -1.20417e-19 -9.21569e-05)
(0.0190071 -0.0198132 -2.04667e-19 -0.0189145 3.8765e-20 -9.26862e-05)
(0.0206361 -0.0142609 -1.05247e-19 -0.0205448 -6.28892e-20 -9.13431e-05)
(0.0221365 -0.00918914 -3.63949e-19 -0.0220486 -2.85157e-20 -8.79219e-05)
(0.0235373 -0.00457037 -1.09141e-19 -0.0234551 3.89248e-22 -8.22242e-05)
(0.0248751 -0.000382706 -2.52883e-19 -0.0248011 -5.06501e-21 -7.40159e-05)
(0.0261583 0.00337335 -1.66973e-19 -0.0260953 1.4897e-19 -6.3083e-05)
(0.0274113 0.00669386 -3.20432e-20 -0.0273622 -4.15446e-20 -4.91836e-05)
(0.0286386 0.00956152 -3.38726e-19 -0.0286064 9.27765e-20 -3.21154e-05)
(0.0297974 0.0118967 1.64817e-19 -0.0297858 1.5274e-20 -1.1662e-05)
(-0.0621019 -0.165085 -7.00818e-22 0.0621094 -4.0216e-21 -7.4162e-06)
(-0.0369663 -0.133662 9.634e-21 0.0369861 -1.48746e-20 -1.98521e-05)
(-0.0206266 -0.109853 2.40767e-20 0.0206574 -1.71551e-20 -3.08505e-05)
(-0.00961349 -0.0911068 8.99226e-20 0.00965412 -7.2421e-20 -4.0628e-05)
(-0.0019455 -0.0758806 2.07763e-20 0.00199481 -1.34559e-19 -4.93134e-05)
(0.00356647 -0.0631749 -8.97383e-20 -0.00350951 -8.54192e-20 -5.69591e-05)
(0.00765004 -0.0523428 -9.12097e-20 -0.00758646 -1.86455e-20 -6.35786e-05)
(0.0107752 -0.042931 2.27097e-20 -0.010706 -2.34713e-21 -6.91358e-05)
(0.013241 -0.0346351 1.18281e-19 -0.0131675 -1.08133e-19 -7.35752e-05)
(0.0152554 -0.0272275 -2.93849e-20 -0.0151786 -1.63559e-19 -7.6802e-05)
(0.0169507 -0.0205554 -9.75829e-20 -0.016872 -1.15617e-19 -7.87119e-05)
(0.0184284 -0.014498 -7.10425e-20 -0.0183492 -6.99923e-20 -7.91648e-05)
(0.0197488 -0.00897889 -2.76944e-20 -0.0196708 -1.23808e-19 -7.80187e-05)
(0.0209666 -0.00393463 -1.72307e-19 -0.0208915 -1.56846e-19 -7.50978e-05)
(0.0221078 0.000666584 -2.98698e-19 -0.0220376 -5.32977e-20 -7.02325e-05)
(0.0232057 0.00485284 -2.3029e-19 -0.0231425 3.94922e-20 -6.32225e-05)
(0.0242684 0.0086255 -2.09811e-19 -0.0242145 1.73068e-19 -5.38851e-05)
(0.0253185 0.011986 1.1713e-19 -0.0252765 2.33917e-19 -4.20134e-05)
(0.0263609 0.0149192 1.06645e-19 -0.0263335 5.28048e-20 -2.74341e-05)
(0.0273588 0.0173418 3.74632e-20 -0.0273488 -9.74934e-20 -9.9624e-06)
(-0.0511755 -0.16879 -1.86528e-20 0.0511816 1.60681e-21 -6.11846e-06)
(-0.0295886 -0.133783 -3.26942e-20 0.029605 5.79585e-23 -1.63779e-05)
(-0.0156394 -0.107843 -2.6172e-20 0.0156649 -1.17409e-20 -2.5451e-05)
(-0.0063043 -0.0878206 -2.32303e-20 0.00633782 -5.2295e-20 -3.35165e-05)
(0.000141634 -0.0718341 -7.85821e-20 -0.000100953 -6.30734e-20 -4.06808e-05)
(0.00473162 -0.0586858 -1.16731e-19 -0.00468463 -1.78988e-20 -4.69874e-05)
(0.00809706 -0.0476095 -2.62001e-20 -0.00804461 -2.88817e-20 -5.24474e-05)
(0.0106449 -0.0380771 -5.40828e-20 -0.0105878 -5.97498e-20 -5.70313e-05)
(0.0126337 -0.0297372 -1.75582e-20 -0.012573 -1.08945e-19 -6.06934e-05)
(0.0142429 -0.0223309 -6.3285e-20 -0.0141795 -9.604e-20 -6.33555e-05)
(0.0155864 -0.0156855 -1.78426e-20 -0.0155215 -1.16662e-19 -6.49316e-05)
(0.0167515 -0.00966553 -1.24137e-19 -0.0166861 -1.24793e-19 -6.53061e-05)
(0.01779 -0.00418598 -1.15537e-19 -0.0177256 -1.19961e-19 -6.43617e-05)
(0.0187489 0.000824693 -2.30654e-19 -0.018687 -8.22554e-20 -6.19535e-05)
(0.0196508 0.00540209 -1.93746e-19 -0.0195928 2.5162e-20 -5.79411e-05)
(0.0205245 0.00957985 -2.26957e-19 -0.0204723 4.2036e-20 -5.21594e-05)
(0.021377 0.013361 -2.2425e-19 -0.0213326 1.57949e-19 -4.44573e-05)
(0.0222287 0.0167519 9.67431e-20 -0.0221941 1.20447e-19 -3.46637e-05)
(0.0230842 0.0197392 7.47444e-20 -0.0230616 -1.55033e-20 -2.26357e-05)
(0.0239128 0.0222368 5.80127e-21 -0.0239045 1.98349e-20 -8.22026e-06)
(-0.040031 -0.171772 -2.65835e-20 0.0400358 2.73898e-21 -4.79474e-06)
(-0.0225837 -0.13374 -5.11065e-20 0.0225965 2.5369e-21 -1.28342e-05)
(-0.011361 -0.106009 -5.43639e-20 0.0113809 -8.24068e-21 -1.99435e-05)
(-0.00389193 -0.0849166 -6.51563e-20 0.00391819 -2.67581e-20 -2.62627e-05)
(0.00123193 -0.0682976 -7.67336e-20 -0.00120005 -1.62733e-20 -3.18755e-05)
(0.00485307 -0.0547853 -1.33554e-20 -0.00481626 -1.8561e-20 -3.68161e-05)
(0.00748584 -0.0435124 -4.14227e-21 -0.00744475 -4.28551e-20 -4.10934e-05)
(0.00946117 -0.0338872 2.86802e-20 -0.00941649 -7.37348e-20 -4.46844e-05)