/*--------------------------------*- C++ -*----------------------------------*\
| =========                 |                                                 |
| \\      /  F ield         | foam-extend: Open Source CFD                    |
|  \\    /   O peration     | Version:  3.0                                   |
|   \\  /    A nd           | Web:         http://www.extend-project.de       |
|    \\/     M anipulation  |                                                 |
\*---------------------------------------------------------------------------*/
FoamFile
{
    version     2.0;
    format      ascii;
    class       volVectorField;
    location    "17";
    object      u;
}
// * * * * * * * * * * * * * * * * * * * * * * * * * * * * * * * * * * * * * //

dimensions      [0 0 0 0 0 0 0];

internalField   nonuniform List<vector> 
1920
(
(0.148337 -0.0597048 5.61612e-18)
(0.34152 -0.0472365 1.85485e-18)
(0.491179 -0.0380682 1.80021e-18)
(0.597261 -0.030984 -5.12399e-19)
(0.685002 -0.0255836 4.13812e-18)
(0.747662 -0.0212606 1.05125e-18)
(0.802856 -0.0178452 3.45841e-18)
(0.841641 -0.0150331 2.29684e-18)
(0.878189 -0.012727 6.35877e-19)
(0.902724 -0.0107902 -7.27638e-19)
(0.927801 -0.00913115 -2.04151e-18)
(0.943183 -0.00772286 7.1935e-19)
(0.960748 -0.00644919 1.98555e-18)
(0.96982 -0.00536766 -8.19138e-19)
(0.982169 -0.00432067 -6.96523e-19)
(0.986565 -0.00344124 9.06635e-19)
(0.995072 -0.0025183 -7.49456e-18)
(0.995732 -0.00175746 -2.03021e-18)
(1.00123 -0.000902962 -3.52691e-18)
(0.998725 -9.31949e-05 9.16909e-19)
(0.163924 -0.1781 9.64702e-18)
(0.353851 -0.140908 1.1854e-18)
(0.501117 -0.11356 2.65645e-18)
(0.60535 -0.092428 -5.23808e-18)
(0.691682 -0.076319 -2.74661e-18)
(0.753212 -0.0634239 -1.06926e-19)
(0.807516 -0.053236 -2.30526e-18)
(0.845566 -0.0448477 7.93923e-18)
(0.881512 -0.0379685 5.83133e-18)
(0.905542 -0.0321909 6.23664e-18)
(0.930185 -0.027242 3.54647e-18)
(0.9452 -0.023041 5.38131e-18)
(0.962432 -0.0192415 1.6575e-18)
(0.971222 -0.0160152 1.46656e-18)
(0.983297 -0.0128919 2.48192e-18)
(0.987463 -0.0102683 1.22058e-17)
(0.99573 -0.00751506 1.39755e-17)
(0.996191 -0.00524523 1.21481e-17)
(1.00147 -0.00269624 5.27511e-18)
(0.99875 -0.000279647 4.00489e-18)
(0.194831 -0.293448 4.72999e-18)
(0.378304 -0.232169 6.38365e-19)
(0.520824 -0.187108 4.65022e-18)
(0.62139 -0.15229 4.80127e-18)
(0.704926 -0.125749 -1.82026e-18)
(0.764219 -0.104502 1.6102e-18)
(0.816754 -0.0877159 6.14461e-18)
(0.853349 -0.0738948 -8.18815e-18)
(0.888101 -0.0625603 -8.52526e-18)
(0.911128 -0.0530408 -5.44883e-18)
(0.934913 -0.0448868 -5.09928e-18)
(0.949199 -0.0379649 -1.68313e-18)
(0.965771 -0.0317046 4.33977e-19)
(0.974002 -0.0263887 -2.49375e-18)
(0.985535 -0.0212425 -1.1038e-17)
(0.989245 -0.0169197 -9.97209e-18)
(0.997035 -0.0123832 -1.83908e-17)
(0.997102 -0.00864321 -8.16932e-18)
(1.00194 -0.00444336 -1.53682e-17)
(0.998799 -0.0004613 1.1514e-17)
(0.24053 -0.403775 7.44298e-18)
(0.41446 -0.319457 3.63967e-18)
(0.549963 -0.257455 4.49244e-18)
(0.645106 -0.209547 4.42966e-18)
(0.724509 -0.173026 2.33906e-18)
(0.780493 -0.143792 -1.0141e-17)
(0.830415 -0.120695 -6.37152e-18)
(0.864857 -0.101678 -8.48467e-18)
(0.897844 -0.0860817 -1.74464e-17)
(0.919388 -0.0729832 -2.0543e-18)
(0.941904 -0.0617634 -1.16089e-18)
(0.955111 -0.0522391 -9.60182e-18)
(0.970709 -0.0436252 9.86822e-18)
(0.978111 -0.0363106 8.85536e-19)
(0.988843 -0.0292296 3.92222e-18)
(0.99188 -0.0232816 -1.15543e-17)
(0.998963 -0.0170395 -7.72753e-18)
(0.998448 -0.0118933 6.25249e-18)
(1.00263 -0.00611444 1.40046e-17)
(0.99887 -0.000635091 2.9421e-18)
(0.300238 -0.507194 1.2821e-17)
(0.4617 -0.401279 7.40279e-18)
(0.588034 -0.323397 7.23861e-18)
(0.676093 -0.263218 1.1463e-17)
(0.750096 -0.217344 1.63485e-17)
(0.801757 -0.180621 1.04776e-17)
(0.848262 -0.151609 1.27904e-18)
(0.879893 -0.127721 9.49643e-18)
(0.910574 -0.10813 4.98786e-18)
(0.930181 -0.0916767 6.81589e-18)
(0.951037 -0.0775833 1.73852e-18)
(0.962836 -0.0656196 -1.09096e-17)
(0.97716 -0.0547994 4.88053e-18)
(0.983481 -0.0456112 1.40761e-17)
(0.993165 -0.0367166 -1.1216e-17)
(0.995323 -0.029245 3.14488e-17)
(1.00148 -0.0214042 -1.49155e-17)
(1.00021 -0.0149399 1.42907e-17)
(1.00353 -0.00768091 -1.27598e-17)
(0.998964 -0.000797992 -1.80717e-18)
(0.372934 -0.601934 1.81287e-17)
(0.519216 -0.476235 1.48531e-17)
(0.634387 -0.383805 1.21448e-17)
(0.71382 -0.312386 -1.88108e-17)
(0.781248 -0.257942 2.94078e-18)
(0.827646 -0.214361 -4.22476e-19)
(0.869993 -0.179928 2.64386e-17)
(0.898199 -0.151578 1.35707e-18)
(0.926072 -0.128328 6.27875e-19)
(0.943321 -0.108802 -2.07266e-17)
(0.962157 -0.0920757 8.68061e-18)
(0.972242 -0.0778772 -5.19916e-18)
(0.985015 -0.0650358 2.73885e-18)
(0.990019 -0.0541314 -1.71997e-17)
(0.998428 -0.0435753 -1.78724e-20)
(0.999515 -0.0347081 5.7951e-18)
(1.00455 -0.0254026 -2.79688e-18)
(1.00235 -0.0177308 3.3133e-18)
(1.00463 -0.00911591 4.8411e-19)
(0.999079 -0.000947275 -2.5132e-17)
(0.457375 -0.686374 -6.20246e-18)
(0.586023 -0.543043 -1.12027e-17)
(0.688228 -0.437646 -9.42023e-18)
(0.757643 -0.356208 1.94297e-18)
(0.817433 -0.294127 2.78547e-18)
(0.857717 -0.244432 -1.96895e-18)
(0.895234 -0.205169 -5.57571e-18)
(0.919463 -0.172842 -1.03772e-17)
(0.944075 -0.146331 1.15652e-17)
(0.958584 -0.124065 -1.58443e-17)
(0.975074 -0.104993 -1.32649e-18)
(0.983167 -0.0888023 -2.44573e-17)
(0.994139 -0.0741595 -1.00526e-18)
(0.997613 -0.0617254 -4.0966e-17)
(1.00454 -0.0496884 -1.67953e-17)
(1.00438 -0.0395773 -3.2619e-19)
(1.00811 -0.0289664 -8.68067e-18)
(1.00484 -0.0202184 -2.31121e-17)
(1.00591 -0.010395 1.74168e-17)
(0.999212 -0.00108033 -2.51066e-17)
(0.552115 -0.759071 -9.11376e-19)
(0.660979 -0.600559 -3.4255e-17)
(0.748636 -0.483999 -5.94918e-19)
(0.80681 -0.393936 5.0106e-18)
(0.858031 -0.32528 -1.83105e-17)
(0.891456 -0.270321 -4.66295e-18)
(0.923553 -0.2269 2.1634e-18)
(0.943321 -0.191149 2.29693e-18)
(0.964273 -0.16183 3.10994e-17)
(0.975709 -0.137205 -4.36049e-18)
(0.989566 -0.116113 1.77583e-17)
(0.995424 -0.098208 -1.41044e-18)
(1.00437 -0.0820143 3.96713e-17)
(1.00613 -0.0682632 -1.60142e-17)
(1.0114 -0.0549513 2.15188e-17)
(1.00985 -0.0437693 3.26748e-17)
(1.01211 -0.0320345 -1.99462e-17)
(1.00763 -0.02236 5.76299e-17)
(1.00735 -0.0114961 9.8191e-19)
(0.999361 -0.00119495 5.16702e-17)
(0.655533 -0.81878 3.76144e-18)
(0.742801 -0.647799 -5.84509e-18)
(0.814578 -0.522071 -5.59517e-18)
(0.860481 -0.424923 3.91557e-18)
(0.902348 -0.350866 1.18494e-17)
(0.928285 -0.291584 -1.16718e-17)
(0.954467 -0.244748 1.12466e-17)
(0.969364 -0.206185 4.67814e-18)
(0.986321 -0.174559 8.37242e-18)
(0.994403 -0.147998 2.85859e-17)
(1.00539 -0.125247 -1.53026e-17)
(1.0088 -0.105933 -3.33384e-17)
(1.01555 -0.0884657 3.20962e-17)
(1.01543 -0.073633 -1.93206e-17)
(1.01889 -0.059274 -2.45112e-18)
(1.01581 -0.0472124 -1.60124e-17)
(1.01648 -0.0345545 2.28159e-17)
(1.01067 -0.024119 3.23783e-17)
(1.00891 -0.0124006 -2.66058e-17)
(0.999524 -0.00128909 2.74847e-17)
(0.76586 -0.864479 1.30329e-17)
(0.830089 -0.683955 -1.47675e-18)
(0.884924 -0.551209 4.48421e-19)
(0.917738 -0.44864 6.12741e-18)
(0.949626 -0.37045 5.67348e-18)
(0.967575 -0.307859 1.15031e-17)
(0.987446 -0.258409 5.7426e-18)
(0.997146 -0.217693 1.66858e-17)
(1.00984 -0.184302 -6.54865e-18)
(1.01434 -0.156259 -8.99553e-18)
(1.02226 -0.132237 -5.53854e-18)
(1.02308 -0.111846 -2.15939e-17)
(1.02747 -0.0934035 -1.12191e-17)
(1.02535 -0.0777429 5.76933e-18)
(1.02687 -0.0625824 -2.79049e-17)
(1.02217 -0.0498476 1.86191e-17)
(1.02113 -0.0364833 -5.38335e-17)
(1.01392 -0.0254653 5.12897e-19)
(1.01058 -0.0130928 -2.63256e-17)
(0.999698 -0.00136123 2.27873e-17)
(0.881208 -0.895387 -1.4302e-17)
(0.921349 -0.708408 -6.5431e-19)
(0.958473 -0.570917 5.02334e-18)
(0.9776 -0.46468 -3.4934e-18)
(0.999056 -0.383694 2.34344e-17)
(1.00865 -0.318866 -2.63612e-17)
(1.02193 -0.267647 -9.52964e-18)
(1.02619 -0.225476 -8.44903e-18)
(1.03443 -0.190892 -3.46997e-18)
(1.03519 -0.161845 -3.1548e-17)
(1.03991 -0.136965 -6.99551e-19)
(1.038 -0.115845 2.34221e-17)
(1.03993 -0.096743 -5.01585e-18)
(1.03573 -0.0805225 -2.40059e-17)
(1.03522 -0.0648201 -6.89965e-18)
(1.02882 -0.0516299 7.37182e-18)
(1.026 -0.0377878 2.12435e-17)
(1.01732 -0.0263759 3.8598e-18)
(1.01233 -0.0135611 1.37307e-17)
(0.999879 -0.00141004 -7.69193e-17)
(0.999603 -0.910974 -1.62016e-17)
(1.01502 -0.720741 -1.4382e-17)
(1.03396 -0.580856 -4.87898e-19)
(1.03904 -0.472769 4.8355e-18)
(1.04979 -0.390374 -1.27195e-17)
(1.05082 -0.324417 -7.69508e-18)
(1.05732 -0.272307 5.56554e-18)
(1.05601 -0.229401 -4.95496e-18)
(1.05968 -0.194215 1.96723e-17)
(1.0566 -0.164663 1.30105e-17)
(1.05802 -0.13935 1.05831e-18)
(1.05332 -0.117862 4.63453e-18)
(1.05272 -0.0984272 2.82455e-18)
(1.04638 -0.0819244 4.52773e-17)
(1.0438 -0.0659485 -2.6118e-17)
(1.03565 -0.0525289 -1.28701e-18)
(1.031 -0.0384457 -2.69371e-18)
(1.02081 -0.0268352 -3.98172e-18)
(1.01412 -0.0137973 -1.87968e-17)
(1.00007 -0.00143479 3.12127e-17)
(1.11902 -0.910974 -7.22254e-18)
(1.1095 -0.720741 -1.51099e-17)
(1.11011 -0.580856 -3.09824e-18)
(1.10102 -0.47277 1.00124e-17)
(1.10096 -0.390374 -2.36163e-17)
(1.09334 -0.324417 -5.9498e-18)
(1.09301 -0.272307 -4.89647e-18)
(1.08608 -0.229401 6.60813e-18)
(1.08514 -0.194215 1.8711e-17)
(1.07818 -0.164663 1.8566e-17)
(1.07629 -0.13935 1.75417e-18)
(1.06877 -0.117862 2.14687e-18)
(1.06563 -0.0984274 -8.68517e-19)
(1.05712 -0.0819244 7.11877e-18)
(1.05244 -0.0659487 1.95269e-17)
(1.04254 -0.0525289 8.15525e-19)
(1.03604 -0.0384458 2.37129e-18)
(1.02433 -0.0268353 1.3215e-18)
(1.01593 -0.0137975 1.73385e-17)
(1.00025 -0.00143492 5.05699e-19)
(1.23742 -0.895388 -1.30467e-17)
(1.20317 -0.708409 9.82771e-18)
(1.1856 -0.570917 -8.18016e-18)
(1.16246 -0.46468 -5.99713e-18)
(1.1517 -0.383695 1.30029e-18)
(1.13551 -0.318866 -5.37468e-18)
(1.1284 -0.267648 1.6414e-18)
(1.11589 -0.225476 -2.14114e-17)
(1.11038 -0.190892 -2.72374e-17)
(1.09958 -0.161846 5.03703e-18)
(1.0944 -0.136965 1.26541e-17)
(1.08409 -0.115845 1.30905e-17)
(1.07842 -0.0967433 -4.00035e-18)
(1.06776 -0.0805228 -1.87873e-17)
(1.06101 -0.0648203 3.02155e-18)
(1.04936 -0.0516303 3.42882e-18)
(1.04104 -0.0377881 2.40317e-17)
(1.02781 -0.0263763 1.00464e-18)
(1.01773 -0.0135615 -1.00177e-17)
(1.00044 -0.00141057 3.3163e-17)
(1.35276 -0.86448 5.51788e-18)
(1.29443 -0.683956 2.96562e-18)
(1.25915 -0.55121 -9.92372e-18)
(1.22233 -0.44864 -1.65277e-18)
(1.20113 -0.37045 5.826e-18)
(1.17658 -0.307859 1.626e-17)
(1.16288 -0.258409 1.47576e-18)
(1.14494 -0.217693 6.95576e-18)
(1.13497 -0.184303 -2.18719e-17)
(1.12043 -0.156259 7.96648e-18)
(1.11204 -0.132238 -8.4887e-19)
(1.09901 -0.111846 1.71138e-19)
(1.09088 -0.0934039 -2.57385e-17)
(1.07814 -0.0777433 6.95634e-19)
(1.06936 -0.0625829 -2.40255e-17)
(1.05602 -0.0498481 -2.7138e-17)
(1.0459 -0.0364838 -1.84151e-17)
(1.03121 -0.0254659 -2.30372e-17)
(1.01947 -0.0130935 1.1113e-17)
(1.00062 -0.00136201 -4.70816e-17)
(1.46309 -0.818782 2.24818e-18)
(1.38172 -0.6478 7.97532e-18)
(1.32949 -0.522072 -1.29306e-17)
(1.27958 -0.424924 -2.01539e-18)
(1.24841 -0.350867 3.34248e-18)
(1.21587 -0.291585 1.43305e-17)
(1.19586 -0.244749 -5.44632e-18)
(1.17272 -0.206185 2.97933e-19)
(1.15849 -0.17456 -7.20906e-18)
(1.14037 -0.147999 5.98776e-18)
(1.12892 -0.125247 -7.26574e-18)
(1.11329 -0.105934 2.35042e-17)
(1.1028 -0.0884663 -4.4904e-18)
(1.08806 -0.0736336 2.84852e-18)
(1.07735 -0.0592746 2.07305e-17)
(1.06238 -0.0472131 -1.94249e-17)
(1.05056 -0.0345552 1.55597e-17)
(1.03446 -0.0241198 -1.87443e-17)
(1.02114 -0.0124014 2.06364e-17)
(1.0008 -0.0012902 8.13841e-18)
(1.56651 -0.759073 -1.97791e-18)
(1.46354 -0.60056 -1.11573e-17)
(1.39544 -0.484 2.87573e-18)
(1.33325 -0.393937 -4.3477e-18)
(1.29272 -0.325281 -1.23718e-17)
(1.2527 -0.270322 3.50303e-18)
(1.22678 -0.226901 -9.80049e-19)
(1.19877 -0.19115 3.09925e-18)
(1.18054 -0.16183 2.08077e-17)
(1.15907 -0.137206 -1.06442e-17)
(1.14474 -0.116114 -7.40464e-18)
(1.12667 -0.0982087 2.53429e-17)
(1.11398 -0.0820151 2.63787e-18)
(1.09736 -0.068264 2.78882e-17)
(1.08484 -0.0549522 -1.86707e-18)
(1.06834 -0.0437702 1.35307e-17)
(1.05492 -0.0320354 1.73181e-17)
(1.03751 -0.022361 -6.51725e-18)
(1.02271 -0.0114972 3.43351e-18)
(1.00096 -0.00119622 -3.78039e-18)
(1.66125 -0.686377 -5.06912e-18)
(1.5385 -0.543045 -2.46354e-18)
(1.45584 -0.437648 -3.49791e-18)
(1.38242 -0.35621 3.6164e-18)
(1.33332 -0.294128 -5.50822e-18)
(1.28644 -0.244433 1.54469e-18)
(1.2551 -0.20517 7.1393e-20)
(1.22262 -0.172843 -1.04987e-18)
(1.20074 -0.146332 -1.02182e-17)
(1.17619 -0.124066 1.12744e-18)
(1.15923 -0.104993 -3.02633e-18)
(1.13893 -0.0888033 -4.16886e-18)
(1.12421 -0.0741604 -1.71148e-17)
(1.10588 -0.0617264 2.67779e-18)
(1.09169 -0.0496894 -8.83486e-18)
(1.0738 -0.0395784 -2.3586e-18)
(1.05892 -0.0289674 5.50484e-19)
(1.0403 -0.0202196 -1.45259e-17)
(1.02415 -0.0103961 2.59142e-17)
(1.00111 -0.00108183 -2.24289e-17)
(1.74569 -0.601937 7.34911e-18)
(1.60531 -0.476237 6.61826e-18)
(1.50969 -0.383807 4.32964e-18)
(1.42624 -0.312387 -7.38704e-18)
(1.36951 -0.257944 -8.83826e-19)
(1.31651 -0.214362 4.09086e-18)
(1.28034 -0.179929 6.12674e-18)
(1.24389 -0.151579 -1.92689e-19)
(1.21874 -0.128329 -9.89533e-18)
(1.19146 -0.108803 6.68201e-19)
(1.17215 -0.0920768 2.3312e-18)
(1.14985 -0.0778783 1.25947e-18)
(1.13334 -0.065037 -2.81476e-18)
(1.11347 -0.0541325 -1.30349e-18)
(1.09781 -0.0435764 1.24482e-17)
(1.07867 -0.0347093 1.80455e-18)
(1.06249 -0.0254038 1.14611e-17)
(1.04279 -0.0177321 -4.9658e-18)
(1.02543 -0.00911724 -1.58998e-17)
(1.00124 -0.000948817 3.89553e-18)
(1.81839 -0.507197 3.9776e-18)
(1.66282 -0.401281 3.79406e-18)
(1.55604 -0.323399 2.63401e-18)
(1.46397 -0.26322 2.63966e-18)
(1.40066 -0.217345 4.76398e-18)
(1.3424 -0.180623 4.52171e-18)
(1.30207 -0.15161 -2.30717e-18)
(1.26219 -0.127722 3.52716e-18)
(1.23424 -0.108131 2.64353e-18)
(1.2046 -0.0916779 3.74068e-18)
(1.18327 -0.0775845 -4.83205e-18)
(1.15926 -0.0656208 3.55855e-18)
(1.14119 -0.0548005 -2.2005e-19)
(1.12001 -0.0456125 5.1315e-18)
(1.10307 -0.0367178 -2.37658e-18)
(1.08286 -0.0292463 1.19414e-19)
(1.06555 -0.0214054 6.94123e-18)
(1.04493 -0.0149413 -4.4747e-18)
(1.02653 -0.00768227 3.88377e-18)
(1.00136 -0.000799616 1.16952e-18)
(1.8781 -0.403779 2.60776e-18)
(1.71006 -0.319459 2.40439e-18)
(1.59411 -0.257457 1.65492e-18)
(1.49496 -0.209549 1.46374e-18)
(1.42625 -0.173028 1.49315e-18)
(1.36367 -0.143793 -3.14399e-18)
(1.31992 -0.120696 -1.25032e-18)
(1.27723 -0.101679 -3.44442e-18)
(1.24697 -0.086083 -1.15224e-18)
(1.21539 -0.0729844 1.11879e-18)
(1.1924 -0.0617648 -6.83805e-19)
(1.16698 -0.0522404 3.79213e-18)
(1.14764 -0.0436266 -1.02847e-18)
(1.12538 -0.0363119 3.33517e-18)
(1.10739 -0.0292309 1.1037e-17)
(1.08631 -0.0232829 -2.49025e-18)
(1.06807 -0.0170408 1.25238e-18)
(1.04669 -0.0118947 -8.11571e-19)
(1.02743 -0.00611591 -1.505e-19)
(1.00145 -0.000636615 -2.69805e-18)
(1.9238 -0.293452 1.23283e-18)
(1.74622 -0.232171 1.52972e-18)
(1.62325 -0.18711 9.63938e-19)
(1.51867 -0.152292 2.18477e-18)
(1.44583 -0.12575 1.30752e-18)
(1.37994 -0.104503 -1.62798e-18)
(1.33358 -0.0877172 1.78782e-19)
(1.28874 -0.0738962 -2.34863e-18)
(1.25671 -0.0625616 -1.56387e-18)
(1.22365 -0.0530422 -6.08934e-19)
(1.19939 -0.0448881 3.22453e-19)
(1.17289 -0.0379663 -1.15019e-19)
(1.15258 -0.031706 -4.36865e-20)
(1.12949 -0.0263901 1.23706e-18)
(1.1107 -0.0212438 1.19753e-18)
(1.08894 -0.0169211 -2.41417e-18)
(1.07 -0.0123846 -2.88532e-18)
(1.04803 -0.00864468 -2.1819e-18)
(1.02812 -0.0044448 2.16151e-18)
(1.00152 -0.000462765 -2.96819e-18)
(1.9547 -0.178104 1.22945e-18)
(1.77067 -0.140911 9.9454e-19)
(1.64296 -0.113562 5.72692e-19)
(1.53471 -0.0924298 2.79657e-19)
(1.45907 -0.0763206 2.48448e-19)
(1.39095 -0.0634254 -7.92647e-19)
(1.34281 -0.0532375 -1.03844e-19)
(1.29652 -0.0448491 -6.11694e-19)
(1.2633 -0.0379699 4.59327e-20)
(1.22924 -0.0321923 1.55712e-18)
(1.20412 -0.0272435 3.55631e-19)
(1.17689 -0.0230424 1.04204e-18)
(1.15592 -0.019243 6.07771e-19)
(1.13227 -0.0160166 1.23082e-18)
(1.11294 -0.0128933 1.50286e-18)
(1.09073 -0.0102697 1.19281e-18)
(1.07131 -0.00751649 1.34371e-18)
(1.04895 -0.00524663 1.6619e-18)
(1.02859 -0.0026977 1.0122e-18)
(1.00157 -0.000280878 6.39829e-19)
(1.97029 -0.0597082 4.46028e-19)
(1.78301 -0.0472392 5.49945e-19)
(1.6529 -0.0380703 2.52768e-19)
(1.5428 -0.0309858 2.39534e-19)
(1.46575 -0.0255852 2.45994e-19)
(1.3965 -0.0212622 -3.03541e-19)
(1.34747 -0.0178467 1.11987e-19)
(1.30045 -0.0150346 -3.00269e-19)
(1.26662 -0.0127284 2.49401e-19)
(1.23205 -0.0107916 9.54525e-19)
(1.2065 -0.00913256 8.31405e-19)
(1.17891 -0.00772432 8.99425e-19)
(1.1576 -0.00645059 6.00291e-19)
(1.13367 -0.00536911 1.17301e-18)
(1.11407 -0.00432207 1.29573e-18)
(1.09162 -0.00344267 1.03918e-18)
(1.07197 -0.00251967 1.43329e-18)
(1.0494 -0.00175885 1.61025e-18)
(1.02883 -0.000904323 8.07831e-19)
(1.0016 -9.423e-05 1.13672e-18)
(1.97029 0.0597089 -4.30405e-19)
(1.78301 0.0472408 1.65389e-19)
(1.6529 0.0380725 -7.68451e-20)
(1.5428 0.0309884 3.27862e-19)
(1.46575 0.0255879 1.92772e-19)
(1.3965 0.0212649 1.92229e-20)
(1.34747 0.0178493 1.48155e-19)
(1.30045 0.0150372 -1.46931e-19)
(1.26662 0.0127308 3.28067e-19)
(1.23205 0.0107938 6.43221e-19)
(1.2065 0.00913452 8.64911e-19)
(1.17891 0.00772603 7.47492e-19)
(1.15761 0.00645208 6.11816e-19)
(1.13367 0.00537033 1.09925e-18)
(1.11407 0.00432306 1.23763e-18)
(1.09162 0.00344339 6.35789e-19)
(1.07197 0.00252019 1.06315e-18)
(1.04941 0.00175912 7.41896e-19)
(1.02883 0.000904457 6.79721e-19)
(1.0016 9.4147e-05 8.18085e-19)
(1.9547 0.178105 -1.45203e-18)
(1.77067 0.140912 -1.46317e-19)
(1.64296 0.113564 -5.22367e-19)
(1.53472 0.0924323 4.07319e-19)
(1.45908 0.0763233 3.06003e-19)
(1.39095 0.0634281 1.34165e-19)
(1.34281 0.0532401 2.16425e-19)
(1.29652 0.0448516 -8.19568e-21)
(1.2633 0.0379723 6.21175e-19)
(1.22924 0.0321945 4.99158e-19)
(1.20412 0.0272454 8.71972e-19)
(1.17689 0.0230441 7.36622e-19)
(1.15592 0.0192445 8.07781e-19)
(1.13227 0.0160178 1.0726e-18)
(1.11294 0.0128943 1.57491e-18)
(1.09073 0.0102705 5.46551e-19)
(1.07131 0.00751704 7.27988e-19)
(1.04895 0.00524694 4.6081e-20)
(1.02859 0.00269787 8.87377e-19)
(1.00157 0.000280863 3.86688e-19)
(1.9238 0.293453 -1.52477e-18)
(1.74622 0.232173 -4.69304e-19)
(1.62325 0.187112 -1.08187e-18)
(1.51868 0.152295 -1.20738e-18)
(1.44583 0.125753 -4.06249e-19)
(1.37994 0.104506 6.29399e-20)
(1.33358 0.0877199 -1.13409e-18)
(1.28874 0.0738987 2.09915e-18)
(1.25671 0.062564 2.79161e-18)
(1.22365 0.0530444 1.882e-18)
(1.19939 0.0448901 2.00198e-18)
(1.17289 0.037968 2.13903e-18)
(1.15258 0.0317075 5.85457e-19)
(1.12949 0.0263914 1.34768e-18)
(1.1107 0.0212449 3.14083e-18)
(1.08894 0.0169219 3.14628e-18)
(1.07 0.0123852 5.35625e-18)
(1.04804 0.00864507 2.02084e-18)
(1.02812 0.00444506 2.88459e-18)
(1.00153 0.000462885 -8.6905e-19)
(1.8781 0.40378 -2.84278e-18)
(1.71007 0.319461 -1.34696e-18)
(1.59411 0.257459 -1.24208e-18)
(1.49496 0.209552 -1.16789e-18)
(1.42625 0.173031 -1.87622e-18)
(1.36367 0.143796 2.1202e-18)
(1.31992 0.120699 6.50126e-19)
(1.27723 0.101681 1.09666e-18)
(1.24697 0.0860854 3.38441e-18)
(1.21539 0.0729867 2.19019e-19)
(1.1924 0.0617668 3.92566e-19)
(1.16698 0.0522423 3.70432e-18)
(1.14764 0.0436281 -1.58368e-18)
(1.12538 0.0363133 3.01918e-19)
(1.10739 0.0292321 -7.28983e-19)
(1.08631 0.0232838 1.28878e-18)
(1.06808 0.0170416 2.37257e-18)
(1.04669 0.0118952 -2.62534e-18)
(1.02743 0.0061163 -3.25714e-18)
(1.00145 0.000636933 7.46031e-19)
(1.81839 0.507198 -4.76553e-18)
(1.66283 0.401284 -2.24715e-18)
(1.55604 0.323401 -2.00163e-18)
(1.46397 0.263223 -2.29004e-18)
(1.40066 0.217348 -5.49171e-18)
(1.3424 0.180626 -3.18452e-18)
(1.30207 0.151613 -2.10421e-18)
(1.2622 0.127724 -3.83362e-18)
(1.23424 0.108134 -3.13318e-18)
(1.2046 0.0916802 -1.8207e-18)
(1.18327 0.0775866 -5.64043e-19)
(1.15926 0.0656227 4.02455e-18)
(1.14119 0.0548022 -3.15684e-19)
(1.12001 0.0456139 -2.0398e-18)
(1.10307 0.036719 3.7452e-18)
(1.08287 0.0292474 -1.01272e-17)
(1.06556 0.0214063 4.74989e-18)
(1.04493 0.014942 -4.81072e-18)
(1.02653 0.00768282 4.0196e-18)
(1.00136 0.000800187 2.15493e-18)
(1.74569 0.601939 -6.5321e-18)
(1.60531 0.47624 -3.82286e-18)
(1.50969 0.383809 -3.379e-18)
(1.42624 0.31239 8.21208e-18)
(1.36951 0.257946 -7.94169e-19)
(1.31652 0.214365 1.38436e-18)
(1.28034 0.179932 -9.68649e-18)
(1.24389 0.151582 -2.62442e-19)
(1.21874 0.128332 -1.69718e-18)
(1.19146 0.108805 7.68097e-18)
(1.17215 0.092079 -3.15031e-18)
(1.14985 0.0778802 2.85207e-18)
(1.13334 0.0650387 -7.91319e-19)
(1.11347 0.0541341 9.8368e-18)
(1.09781 0.0435778 7.36876e-20)
(1.07867 0.0347104 -1.39668e-18)
(1.06249 0.0254048 7.97687e-19)
(1.04279 0.017733 -1.49393e-18)
(1.02543 0.00911799 -1.63601e-18)
(1.00125 0.000949691 8.57054e-18)
(1.66125 0.686379 3.07246e-18)
(1.5385 0.543047 7.60799e-18)
(1.45585 0.437651 5.03076e-18)
(1.38242 0.356213 -1.12371e-18)
(1.33332 0.294131 -7.64561e-19)
(1.28644 0.244436 2.14714e-18)
(1.2551 0.205173 3.45163e-18)
(1.22262 0.172846 4.05614e-18)
(1.20074 0.146334 -7.14821e-18)
(1.17619 0.124068 4.71801e-18)
(1.15923 0.104996 -4.79627e-19)
(1.13893 0.0888053 1.10695e-17)
(1.12421 0.0741623 -2.27937e-18)
(1.10588 0.0617281 1.84821e-17)
(1.0917 0.0496909 4.87699e-18)
(1.0738 0.0395797 -2.00987e-18)
(1.05892 0.0289686 2.82189e-18)
(1.0403 0.0202206 6.18549e-18)
(1.02415 0.0103971 -8.96135e-18)
(1.00111 0.00108304 5.85213e-18)
(1.56651 0.759076 -6.3873e-19)
(1.46355 0.600563 1.80858e-17)
(1.39544 0.484004 -4.56586e-19)
(1.33325 0.39394 -2.93103e-18)
(1.29273 0.325284 9.16736e-18)
(1.25271 0.270325 3.43296e-18)
(1.22678 0.226904 -1.59259e-18)
(1.19877 0.191152 -2.61163e-18)
(1.18054 0.161833 -1.71741e-17)
(1.15907 0.137209 -1.43607e-19)
(1.14474 0.116116 -9.04229e-18)
(1.12667 0.0982109 1.32598e-18)
(1.11398 0.0820171 -2.35226e-17)
(1.09736 0.0682658 6.39784e-18)
(1.08484 0.0549538 -1.30458e-17)
(1.06834 0.0437717 -1.84482e-17)
(1.05493 0.0320368 8.78818e-18)
(1.03751 0.0223623 -3.3345e-17)
(1.02271 0.0114984 1.72731e-18)
(1.00096 0.0011978 -3.00842e-17)
(1.4631 0.818785 -3.79431e-18)
(1.38173 0.647804 1.49346e-18)
(1.3295 0.522075 2.20767e-18)
(1.27958 0.424928 -2.41721e-18)
(1.24841 0.35087 -8.52583e-18)
(1.21588 0.291588 7.04986e-18)
(1.19586 0.244752 -6.35613e-18)
(1.17272 0.206188 -3.36516e-18)
(1.15849 0.174563 -3.94559e-18)
(1.14037 0.148001 -1.60279e-17)
(1.12892 0.12525 1.14113e-17)
(1.11329 0.105936 2.0354e-17)
(1.1028 0.0884685 -1.86028e-17)
(1.08806 0.0736356 1.02748e-17)
(1.07735 0.0592765 2.49388e-18)
(1.06238 0.0472148 9.89403e-18)
(1.05056 0.0345568 -1.25132e-17)
(1.03446 0.0241214 -1.50237e-17)
(1.02115 0.0124029 2.05184e-17)
(1.0008 0.00129216 -1.37228e-17)
(1.35277 0.864484 -8.95532e-18)
(1.29444 0.68396 -7.77535e-20)
(1.25915 0.551214 -1.16827e-18)
(1.22233 0.448644 -3.35488e-18)
(1.20113 0.370454 -4.09102e-18)
(1.17659 0.307863 -7.11982e-18)
(1.16288 0.258412 -1.38834e-18)
(1.14494 0.217696 -1.06388e-17)
(1.13497 0.184306 5.55957e-18)
(1.12043 0.156262 9.93644e-18)
(1.11204 0.13224 3.32358e-18)
(1.09901 0.111849 9.60714e-18)
(1.09088 0.0934063 7.55095e-18)
(1.07814 0.0777455 -6.06205e-18)
(1.06936 0.0625849 1.78086e-17)
(1.05602 0.04985 -1.5152e-17)
(1.0459 0.0364856 3.79359e-17)
(1.03121 0.0254677 2.98674e-18)
(1.01948 0.0130952 1.78424e-17)
(1.00063 0.00136435 -9.61649e-18)
(1.23742 0.895392 1.30811e-17)
(1.20318 0.708413 5.59355e-19)
(1.1856 0.570921 -3.51094e-18)
(1.16246 0.464684 4.39634e-18)
(1.1517 0.383698 -1.69823e-17)
(1.13551 0.31887 2.26127e-17)
(1.1284 0.267651 9.18756e-18)
(1.11589 0.22548 8.42793e-18)
(1.11038 0.190895 1.73641e-18)
(1.09958 0.161849 2.31488e-17)
(1.0944 0.136968 -2.2993e-18)
(1.08409 0.115848 -2.44328e-17)
(1.07842 0.0967458 2.50774e-19)
(1.06776 0.0805252 1.42834e-17)
(1.06101 0.0648225 2.01792e-18)
(1.04936 0.0516324 -6.7929e-18)
(1.04104 0.0377901 -2.11599e-17)
(1.02782 0.0263784 -3.49724e-18)
(1.01773 0.0135635 -1.36283e-17)
(1.00044 0.00141327 6.20808e-17)
(1.11903 0.910979 1.45334e-17)
(1.1095 0.720745 1.3009e-17)
(1.11011 0.58086 2.03707e-18)
(1.10102 0.472774 -3.80195e-18)
(1.10097 0.390378 1.54999e-17)
(1.09334 0.324421 5.56069e-18)
(1.09301 0.27231 -5.25679e-18)
(1.08608 0.229405 4.82309e-18)
(1.08514 0.194218 -1.84258e-17)
(1.07818 0.164666 -1.73311e-17)
(1.07629 0.139353 -4.1772e-18)
(1.06877 0.117864 -5.99969e-18)
(1.06563 0.09843 -4.46326e-18)
(1.05712 0.081927 -4.51524e-17)
(1.05244 0.0659511 1.92879e-17)
(1.04254 0.0525313 3.2387e-19)
(1.03604 0.0384481 1.2079e-18)
(1.02433 0.0268376 3.05863e-18)
(1.01593 0.0137997 1.46008e-17)
(1.00026 0.00143795 -3.6516e-17)
(0.999608 0.91098 6.30182e-18)
(1.01502 0.720746 1.31592e-17)
(1.03397 0.58086 4.8633e-18)
(1.03905 0.472774 -9.84173e-18)
(1.04979 0.390378 2.48714e-17)
(1.05082 0.324421 3.82681e-18)
(1.05732 0.272311 5.02031e-18)
(1.05601 0.229405 -4.19962e-18)
(1.05968 0.194218 -1.3814e-17)
(1.0566 0.164666 -2.01179e-17)
(1.05802 0.139353 -3.75601e-18)
(1.05332 0.117865 -4.18206e-18)
(1.05273 0.0984301 2.68475e-18)
(1.04638 0.0819271 -3.75922e-18)
(1.0438 0.0659511 -2.24368e-17)
(1.03565 0.0525314 -1.34457e-19)
(1.031 0.0384482 -4.63774e-18)
(1.02081 0.0268378 -9.66716e-19)
(1.01413 0.0137998 -2.01635e-17)
(1.00007 0.00143811 -3.26787e-18)
(0.881212 0.895393 1.41229e-17)
(0.921353 0.708414 -1.4647e-17)
(0.958476 0.570922 1.1031e-17)
(0.977603 0.464685 7.49712e-18)
(0.999058 0.383699 -4.77031e-18)
(1.00865 0.31887 2.19185e-18)
(1.02193 0.267651 -3.64135e-18)
(1.02619 0.22548 2.71325e-17)
(1.03444 0.190895 3.84907e-17)
(1.0352 0.161849 -4.41572e-18)
(1.03991 0.136969 -1.50845e-17)
(1.038 0.115848 -1.76595e-17)
(1.03993 0.0967461 8.24554e-18)
(1.03573 0.0805254 2.18411e-17)
(1.03522 0.0648228 4.96766e-19)
(1.02882 0.0516327 7.93319e-19)
(1.026 0.0377905 -2.76942e-17)
(1.01732 0.0263787 3.44506e-18)
(1.01233 0.0135638 1.21016e-17)
(0.999882 0.0014136 -3.55723e-17)
(0.765864 0.864486 -8.75237e-18)
(0.830092 0.683961 -4.69968e-18)
(0.884927 0.551215 1.3724e-17)
(0.91774 0.448645 1.24728e-18)
(0.949628 0.370454 -9.28312e-18)
(0.967577 0.307863 -2.56061e-17)
(0.987447 0.258413 -2.65429e-18)
(0.997147 0.217697 -1.20827e-17)
(1.00984 0.184306 2.86949e-17)
(1.01435 0.156262 -9.74925e-18)
(1.02226 0.132241 2.86089e-18)
(1.02308 0.111849 -4.28604e-18)
(1.02747 0.0934067 3.48428e-17)
(1.02536 0.077746 -9.47896e-18)
(1.02687 0.0625854 2.95805e-17)
(1.02217 0.0498506 3.68882e-17)
(1.02113 0.0364861 2.32558e-17)
(1.01392 0.0254683 3.31441e-17)
(1.01059 0.0130958 -2.09692e-17)
(0.9997 0.00136497 6.7787e-17)
(0.655537 0.818787 -2.0664e-18)
(0.742804 0.647805 -1.14207e-17)
(0.81458 0.522076 1.81031e-17)
(0.860484 0.424928 2.04935e-18)
(0.90235 0.350871 -3.02079e-18)
(0.928287 0.291589 -2.13258e-17)
(0.954468 0.244752 8.35892e-18)
(0.969365 0.206189 -1.56538e-18)
(0.986322 0.174563 6.77128e-18)
(0.994403 0.148002 -7.42517e-18)
(1.00539 0.12525 1.33133e-17)
(1.00881 0.105937 -4.08594e-17)
(1.01555 0.0884691 3.12954e-18)
(1.01543 0.0736362 -1.48047e-17)
(1.01889 0.0592771 -3.87661e-17)
(1.01581 0.0472155 2.08653e-17)
(1.01648 0.0345576 -3.41628e-17)
(1.01067 0.0241221 2.38482e-17)
(1.00891 0.0124037 -3.62988e-17)
(0.999526 0.00129294 -1.85102e-17)
(0.552118 0.759078 5.37758e-18)
(0.660982 0.600565 2.15589e-17)
(0.748639 0.484005 -8.59516e-18)
(0.806812 0.393941 4.94696e-18)
(0.858033 0.325285 2.43769e-17)
(0.891457 0.270325 -4.07349e-18)
(0.923555 0.226904 5.28957e-19)
(0.943322 0.191153 -5.472e-18)
(0.964274 0.161834 -3.76009e-17)
(0.97571 0.137209 2.01504e-17)
(0.989567 0.116117 1.49094e-17)
(0.995425 0.0982117 -4.02026e-17)
(1.00438 0.0820178 -1.06732e-18)
(1.00613 0.0682667 -5.14246e-17)
(1.0114 0.0549546 7.0738e-18)
(1.00985 0.0437726 -2.85427e-17)
(1.01211 0.0320377 -3.32627e-17)
(1.00763 0.0223632 8.34738e-18)
(1.00735 0.0114993 -6.63632e-18)
(0.999363 0.00119885 8.61256e-18)
(0.457378 0.686382 1.01857e-17)
(0.586026 0.54305 2.03713e-18)
(0.68823 0.437652 5.01672e-18)
(0.757645 0.356214 -1.09918e-17)
(0.817434 0.294133 9.67265e-18)
(0.857718 0.244437 -3.69761e-18)
(0.895235 0.205174 -9.89228e-19)
(0.919464 0.172847 3.40277e-18)
(0.944076 0.146335 2.65303e-17)
(0.958585 0.124069 -4.71275e-18)
(0.975075 0.104997 5.22997e-18)
(0.983167 0.0888062 1.57514e-17)
(0.994139 0.0741633 4.0087e-17)
(0.997613 0.061729 1.86551e-18)
(1.00454 0.0496919 1.94215e-17)
(1.00438 0.0395807 8.00934e-18)
(1.00812 0.0289697 7.07768e-19)
(1.00484 0.0202217 3.11805e-17)
(1.00591 0.0103983 -5.02046e-17)
(0.999213 0.0010842 4.65959e-17)
(0.372937 0.601941 -1.91603e-17)
(0.519218 0.476242 -1.87788e-17)
(0.634389 0.383811 -1.37033e-17)
(0.713822 0.312392 1.60835e-17)
(0.78125 0.257948 -9.22267e-19)
(0.827647 0.214366 -1.07651e-17)
(0.869994 0.179933 -1.41651e-17)
(0.8982 0.151583 -2.99019e-19)
(0.926073 0.128333 2.02193e-17)
(0.943322 0.108806 -3.35168e-18)
(0.962158 0.09208 -6.77495e-18)
(0.972242 0.0778813 -4.79136e-18)
(0.985015 0.0650398 2.58152e-18)
(0.990019 0.0541352 5.38274e-18)
(0.998428 0.0435789 -3.22006e-17)
(0.999516 0.0347116 -1.70394e-18)
(1.00455 0.025406 -2.9706e-17)
(1.00235 0.0177342 1.25126e-17)
(1.00463 0.00911928 4.67474e-17)
(0.99908 0.000951052 -1.4852e-17)
(0.300241 0.507202 -7.50165e-18)
(0.461702 0.401286 -8.73034e-18)
(0.588036 0.323403 -7.28661e-18)
(0.676095 0.263225 -1.25776e-17)
(0.750097 0.217349 -1.55714e-17)
(0.801758 0.180627 -1.00782e-17)
(0.848263 0.151614 1.12145e-17)
(0.879894 0.127725 -9.27873e-18)
(0.910574 0.108135 -1.37638e-17)
(0.930182 0.0916814 -1.15587e-17)
(0.951037 0.0775878 1.53483e-17)
(0.962837 0.0656239 -1.17178e-17)
(0.977161 0.0548035 2.71794e-19)
(0.983481 0.0456151 -1.44407e-17)
(0.993165 0.0367203 1.16651e-17)
(0.995324 0.0292486 6.26992e-18)
(1.00148 0.0214076 -1.45348e-17)
(1.00021 0.0149433 1.51346e-17)
(1.00353 0.0076843 -1.75585e-17)
(0.998965 0.000801606 -2.97285e-20)
(0.240532 0.403783 -3.57386e-18)
(0.414462 0.319464 -4.49921e-18)
(0.549965 0.257462 -3.37378e-18)
(0.645107 0.209553 -5.82796e-18)
(0.724511 0.173032 -2.90267e-18)
(0.780494 0.143797 1.69845e-17)
(0.830415 0.1207 4.55235e-18)
(0.864858 0.101683 1.68681e-17)
(0.897845 0.0860866 5.52545e-18)
(0.919389 0.072988 -1.86298e-18)
(0.941904 0.0617681 2.15291e-19)
(0.955111 0.0522436 -1.05282e-17)
(0.970709 0.0436294 7.40911e-18)