/*--------------------------------*- C++ -*----------------------------------*\
| =========                 |                                                 |
| \\      /  F ield         | foam-extend: Open Source CFD                    |
|  \\    /   O peration     | Version:  3.0                                   |
|   \\  /    A nd           | Web:         http://www.extend-project.de       |
|    \\/     M anipulation  |                                                 |
\*---------------------------------------------------------------------------*/
FoamFile
{
    version     2.0;
    format      ascii;
    class       volSymmTensorField;
    location    "10";
    object      sigma;
}
// * * * * * * * * * * * * * * * * * * * * * * * * * * * * * * * * * * * * * //

dimensions      [0 0 0 0 0 0 0];

internalField   nonuniform List<symmTensor> 
480
(
(-0.165214 -0.0120537 2.29998e-20 0.165176 -3.4094e-21 3.79801e-05)
(-0.148027 -0.0136527 1.03243e-19 0.147935 -3.20325e-20 9.2427e-05)
(-0.125837 -0.0130094 1.03611e-19 0.125697 1.70994e-19 0.000139734)
(-0.104077 -0.0116311 -6.9863e-20 0.103894 1.17481e-19 0.000183055)
(-0.0844026 -0.0100735 1.15345e-19 0.0841799 -1.98589e-19 0.000222692)
(-0.0672059 -0.00856594 3.92833e-19 0.0669505 -8.53602e-20 0.0002554)
(-0.052516 -0.00718815 3.84542e-19 0.0522407 -1.8237e-19 0.000275296)
(-0.0404591 -0.0060123 4.43647e-20 0.0401887 -4.73458e-20 0.000270401)
(-0.0310509 -0.00505226 4.71135e-19 0.0308271 -7.06392e-19 0.000223827)
(-0.0248079 -0.00438735 5.22372e-20 0.0247017 -1.77683e-19 0.000106234)
(-0.160915 -0.0360927 1.3455e-21 0.160872 -1.32616e-20 4.28854e-05)
(-0.141315 -0.0401765 1.54256e-19 0.141211 -1.12697e-19 0.000104561)
(-0.118694 -0.038055 3.42743e-19 0.118536 -1.83092e-19 0.000157672)
(-0.0972357 -0.0339643 -2.04139e-20 0.0970304 -1.61006e-19 0.000205278)
(-0.0781188 -0.0294624 -2.09395e-19 0.0778712 -1.92946e-19 0.000247596)
(-0.0615215 -0.0251936 2.16832e-19 0.0612404 -1.9898e-20 0.000281033)
(-0.0473933 -0.0213842 3.24494e-19 0.0470937 -2.23228e-19 0.000299586)
(-0.0357915 -0.0182447 8.51474e-20 0.0355005 -1.79523e-19 0.000290942)
(-0.0267243 -0.0158121 -5.27791e-19 0.0264862 -4.96298e-19 0.000238097)
(-0.0206374 -0.014357 1.34769e-19 0.0205258 2.80923e-19 0.000111602)
(-0.152569 -0.0586349 -5.06403e-20 0.152522 -4.56088e-20 4.70199e-05)
(-0.128604 -0.0636073 -4.75242e-21 0.12849 -2.40358e-19 0.00011455)
(-0.105246 -0.0595849 1.76858e-20 0.105075 -2.08725e-19 0.000171944)
(-0.0843859 -0.0528075 -1.43162e-19 0.0841636 -2.20918e-20 0.000222299)
(-0.066322 -0.0455557 -1.88388e-19 0.0660562 3.4319e-19 0.000265805)
(-0.0508421 -0.0387604 3.6309e-19 0.0505432 1.30692e-19 0.000298857)
(-0.0377492 -0.032747 9.44993e-20 0.0374338 -3.92737e-20 0.000315416)
(-0.0269737 -0.0278221 -1.66979e-19 0.0266704 -1.24065e-19 0.000303279)
(-0.0185086 -0.0240435 -1.44174e-19 0.0182629 5.93513e-19 0.000245692)
(-0.0126678 -0.0218272 6.3947e-19 0.0125539 -4.67346e-19 0.000113893)
(-0.140765 -0.0788561 -1.57146e-19 0.140715 -1.26064e-20 5.00078e-05)
(-0.111312 -0.082347 -4.14409e-19 0.11119 2.27685e-19 0.000121688)
(-0.0871512 -0.0758029 2.16285e-20 0.0869693 3.22499e-19 0.000181889)
(-0.0671937 -0.0663856 2.31029e-19 0.06696 2.82522e-19 0.000233659)
(-0.0506018 -0.0566794 8.98064e-20 0.0503246 3.96293e-19 0.00027719)
(-0.0366584 -0.0477113 1.42226e-19 0.0363495 -1.07501e-19 0.000308939)
(-0.024977 -0.0398335 2.62769e-19 0.024654 -8.69098e-20 0.000323044)
(-0.0153241 -0.0333868 3.59643e-19 0.0150164 -1.54268e-20 0.000307718)
(-0.00767063 -0.0284443 2.10268e-19 0.00742371 -6.12667e-19 0.000246923)
(-0.00216232 -0.0255027 -8.89173e-19 0.00204903 9.39413e-20 0.000113283)
(-0.126286 -0.0961819 3.28891e-20 0.126234 -1.68568e-20 5.18636e-05)
(-0.0912999 -0.0954304 -3.26464e-19 0.0911738 5.44668e-19 0.000126032)
(-0.0665803 -0.0856589 -2.49229e-19 0.0663927 5.84838e-19 0.000187609)
(-0.0478451 -0.0736766 -2.26514e-20 0.0476056 3.97957e-19 0.000239539)
(-0.0330441 -0.0618802 4.1412e-19 0.0327621 -1.322e-19 0.000282012)
(-0.020927 -0.0511685 4.09902e-20 0.0206154 -5.40502e-19 0.000311654)
(-0.0109064 -0.0418355 4.80803e-19 0.0105834 -8.80815e-19 0.000322919)
(-0.00257602 -0.0341829 -2.48253e-19 0.00227126 -7.39954e-19 0.000304758)
(0.00412134 -0.028292 -2.00133e-19 -0.00436356 -6.91436e-19 0.000242229)
(0.00921317 -0.0246681 5.29471e-19 -0.00932315 3.07973e-19 0.000109988)
(-0.110001 -0.110332 6.64534e-20 0.109948 1.6535e-19 5.26387e-05)
(-0.0706048 -0.10264 3.48352e-19 0.0704771 3.7174e-19 0.000127724)
(-0.0459028 -0.0889833 3.24147e-19 0.0457135 2.9663e-19 0.000189351)
(-0.0287213 -0.0745495 2.07967e-19 0.028481 -6.85102e-20 0.000240302)
(-0.0159202 -0.0610573 -5.76792e-20 0.0156394 -7.40768e-19 0.000280773)
(-0.00577822 -0.0490562 -5.40716e-19 0.0054706 -1.08539e-18 0.000307625)
(0.00246975 -0.0386966 -1.13277e-18 -0.00278552 -5.3718e-19 0.000315771)
(0.00938162 -0.0301699 9.68247e-20 -0.00967676 -4.72666e-19 0.00029514)
(0.0150467 -0.0235544 -1.10952e-18 -0.0152789 -2.78875e-19 0.000232228)
(0.019641 -0.0192997 4.88609e-19 -0.0197453 -3.82596e-19 0.000104283)
(-0.0927521 -0.121319 -3.72215e-20 0.0926997 2.28712e-19 5.24099e-05)
(-0.0511403 -0.104508 5.89536e-19 0.0510134 4.59192e-20 0.000126971)
(-0.0273356 -0.0864906 8.1703e-19 0.0271481 -2.80742e-19 0.000187462)
(-0.0120466 -0.0697671 6.41485e-19 0.0118101 -7.527e-19 0.00023646)
(-0.00134966 -0.054967 -3.92671e-19 0.0010755 -8.93797e-19 0.000274159)
(0.00680126 -0.0421061 -1.00878e-18 -0.00709897 -5.52531e-19 0.000297711)
(0.0132931 -0.031119 -1.23076e-18 -0.0135957 2.18227e-19 0.000302584)
(0.0187878 -0.0220279 -6.85017e-19 -0.0190677 -3.64288e-19 0.000279889)
(0.0234064 -0.0148959 -1.58283e-18 -0.0236242 3.14055e-19 0.000217813)
(0.027426 -0.0100711 2.34409e-19 -0.0275227 -1.252e-19 9.66168e-05)
(-0.0752532 -0.129409 9.83223e-20 0.0752019 -1.67865e-20 5.12743e-05)
(-0.0344274 -0.102204 2.7201e-19 0.0343034 -2.05717e-19 0.000124035)
(-0.0126218 -0.079649 1.94615e-19 0.0124394 -3.92739e-19 0.000182382)
(0.00043802 -0.0608558 -1.11268e-19 -0.000666656 -4.91729e-19 0.000228636)
(0.00901277 -0.0450977 -6.52087e-19 -0.00927575 -2.3771e-19 0.00026298)
(0.0152637 -0.03174 -6.44118e-19 -0.0155466 4.48947e-20 0.000282889)
(0.0201181 -0.020454 -5.17107e-19 -0.0204026 1.5228e-19 0.000284448)
(0.0242742 -0.0110563 -5.65327e-19 -0.0245343 1.71837e-19 0.00026008)
(0.0278791 -0.00358147 -3.20133e-19 -0.028079 -8.20524e-20 0.000199857)
(0.0312522 0.00174278 -1.10954e-18 -0.0313396 1.37935e-19 8.73707e-05)
(-0.0580111 -0.135037 -2.81183e-20 0.0579618 -6.52599e-20 4.93483e-05)
(-0.0213873 -0.097332 -2.50589e-19 0.0212681 -1.50821e-19 0.00011922)
(-0.00278425 -0.0704377 -4.71267e-19 0.00260966 -1.0386e-19 0.0001746)
(0.00772603 -0.0498597 -3.97905e-19 -0.00794355 4.42265e-20 0.00021752)
(0.0142196 -0.0334358 -1.51369e-20 -0.0144678 3.02438e-20 0.000248131)
(0.0187298 -0.0198498 -3.90383e-19 -0.018994 3.06315e-20 0.000264239)
(0.0221283 -0.00849633 -3.29649e-19 -0.0223909 6.39157e-20 0.000262575)
(0.0250719 0.00102218 -3.13537e-19 -0.0253088 1.92508e-19 0.000236943)
(0.0277231 0.00871072 -5.72707e-20 -0.0279025 -8.2096e-20 0.000179401)
(0.0303849 0.0144538 -5.68946e-19 -0.030462 3.1328e-19 7.70536e-05)
(-0.0412894 -0.138716 -4.66564e-20 0.0412427 -4.78215e-20 4.67537e-05)
(-0.0122298 -0.091662 -1.29831e-19 0.0121169 -1.63353e-19 0.000112843)
(0.00200932 -0.0610295 -6.72439e-19 -0.00217395 -2.99132e-20 0.000164628)
(0.00968397 -0.0390189 -6.14517e-19 -0.00988778 1.45916e-19 0.000203818)
(0.014165 -0.0221557 -4.16655e-19 -0.0143955 2.00216e-19 0.000230507)
(0.0171166 -0.00850624 -4.30501e-20 -0.0173594 1.35247e-19 0.000242816)
(0.0192584 0.00278954 -3.30344e-19 -0.0194965 1.41267e-19 0.000238119)
(0.0211296 0.0123213 2.7699e-21 -0.0213412 3.37971e-19 0.000211608)
(0.0228924 0.0201405 5.65852e-19 -0.0230498 3.00985e-20 0.000157362)
(0.0247875 0.0262114 -1.07045e-19 -0.0248536 -2.22471e-20 6.60726e-05)
(-0.0251121 -0.140925 -5.39307e-20 0.0250685 -3.12502e-20 4.36138e-05)
(-0.00645352 -0.0868415 -9.29032e-20 0.00634831 -1.08231e-19 0.000105217)
(0.00244902 -0.0534461 -3.52586e-19 -0.00260198 -1.26884e-20 0.000152959)
(0.00705554 -0.0304186 -2.54565e-19 -0.00724374 1.18421e-19 0.000188204)
(0.00959004 -0.0132836 -2.60843e-19 -0.00980099 1.21716e-19 0.000210956)
(0.0111446 0.000360205 -4.30127e-19 -0.0113642 9.74031e-20 0.000219628)
(0.0122027 0.0115697 -3.99549e-19 -0.0124149 1.84878e-19 0.000212193)
(0.013123 0.0210779 -9.76285e-20 -0.0133082 3.03709e-19 0.000185191)
(0.0140489 0.028983 4.19675e-19 -0.0141836 5.47685e-20 0.000134679)
(0.015134 0.0352809 -3.74401e-20 -0.0151888 -2.23193e-20 5.48812e-05)
(-0.00930785 -0.142024 -7.42559e-20 0.00926781 -1.59353e-20 4.00414e-05)
(-0.00295681 -0.0841312 -1.34469e-19 0.00286018 -7.32926e-20 9.66275e-05)
(-4.71762e-05 -0.0492406 -2.75674e-19 -9.28629e-05 -1.19575e-20 0.000140039)
(0.00133153 -0.0256642 -3.66468e-19 -0.00150281 1.13133e-19 0.000171275)
(0.00195995 -0.00838281 -3.5565e-19 -0.00215017 1.07347e-19 0.000190222)
(0.00222246 0.00525662 -3.3477e-19 -0.002418 8.95433e-20 0.000195534)
(0.00230816 0.0164222 -1.54536e-19 -0.00249389 1.6682e-19 0.000185732)
(0.0023546 0.0259213 -9.81565e-20 -0.00251321 2.66059e-19 0.000158604)
(0.0024676 0.0338913 3.01252e-19 -0.0025797 1.02223e-19 0.000112095)
(0.00271466 0.0403078 1.57648e-19 -0.00275847 -2.87729e-20 4.38155e-05)
(0.00641466 -0.142185 -7.13969e-20 -0.0064508 -4.29105e-21 3.6136e-05)
(-0.00024099 -0.0842053 -1.99826e-19 0.000153672 -6.01395e-20 8.73179e-05)
(-0.00357497 -0.0492537 -1.65405e-19 0.00344873 -2.15145e-20 0.000126239)
(-0.00549521 -0.0256311 -3.05246e-19 0.00534168 1.09848e-19 0.000153524)
(-0.0067713 -0.00831118 -4.06898e-19 0.00660239 1.0682e-19 0.000168907)
(-0.00777411 0.00535913 -2.8828e-19 0.00760287 6.89408e-20 0.000171234)
(-0.00863273 0.0165572 -7.87349e-21 0.00847323 1.17684e-19 0.000159495)
(-0.00944315 0.0260855 -1.49803e-19 0.00931054 2.16106e-19 0.000132605)
(-0.010152 0.034105 8.91021e-20 0.0100618 9.05346e-20 9.02478e-05)
(-0.0107537 0.0405267 1.80586e-19 0.0107205 -2.95868e-20 3.31861e-05)
(0.0223736 -0.141367 -8.56456e-20 -0.0224056 1.06279e-20 3.19762e-05)
(0.00332536 -0.0870455 -2.38874e-19 -0.00340284 -5.03345e-20 7.74773e-05)
(-0.0060601 -0.0534827 -1.25207e-20 0.00594826 -3.778e-20 0.00011184)
(-0.0112521 -0.0303282 -3.28381e-20 0.0111168 1.05573e-19 0.000135308)
(-0.0144711 -0.0130869 -5.10681e-19 0.0143236 9.84063e-20 0.000147434)
(-0.0167957 0.000642099 -3.15815e-19 0.0166484 5.438e-20 0.000147203)
(-0.0186585 0.0119412 -2.29433e-19 0.0185245 4.64695e-20 0.000133988)
(-0.0203715 0.0215299 2.07221e-19 0.0202639 1.64632e-19 0.000107681)
(-0.0219419 0.0295711 -3.93886e-19 0.0218724 6.89324e-20 6.95342e-05)
(-0.0233846 0.0358845 7.41468e-20 0.0233614 -9.96141e-21 2.31762e-05)
(0.0388189 -0.139325 -3.27642e-20 -0.0388465 4.45105e-20 2.76197e-05)
(0.00922279 -0.0919459 -2.66952e-19 -0.00929003 -1.23431e-20 6.72362e-05)
(-0.00560064 -0.061082 -3.73372e-19 0.00550362 -8.6968e-20 9.70219e-05)
(-0.0139371 -0.0388948 -2.70464e-19 0.0138203 1.48842e-20 0.000116844)
(-0.0191668 -0.0218835 -3.82873e-19 0.0190408 7.03013e-20 0.000126048)
(-0.0229405 -0.00811482 -9.51038e-20 0.0228168 6.37665e-20 0.000123705)
(-0.0259429 0.00330598 -1.67785e-19 0.0258334 5.67075e-20 0.000109486)
(-0.0286574 0.0129503 -4.17361e-20 0.0285733 6.48026e-20 8.41074e-05)
(-0.0311498 0.0209584 -1.84342e-19 0.0310996 -5.78158e-20 5.01907e-05)
(-0.0334085 0.0270535 3.69429e-19 0.0333946 1.77156e-20 1.39109e-05)
(0.0558499 -0.13566 -4.00572e-20 -0.055873 5.38805e-20 2.3101e-05)
(0.0185217 -0.097627 -4.38707e-19 -0.0185784 -5.02506e-20 5.66635e-05)
(-0.000782739 -0.0704954 -1.26091e-19 0.000700874 -1.03163e-19 8.18654e-05)
(-0.0120437 -0.049734 1.26543e-19 0.0119455 -1.2827e-20 9.82034e-05)
(-0.0193614 -0.0331552 1.58303e-19 0.0192566 2.11132e-19 0.000104802)
(-0.0247552 -0.0194441 -2.70422e-19 0.0246544 1.70711e-19 0.000100772)
(-0.0290804 -0.00795992 -2.8221e-19 0.0289944 -8.82355e-20 8.60029e-05)
(-0.0329276 0.00167649 1.79426e-20 0.0328657 -1.12094e-19 6.1888e-05)
(-0.0364091 0.00956002 4.04882e-20 0.0363769 1.49737e-20 3.22233e-05)
(-0.0394435 0.0153342 -6.90948e-19 0.0394381 8.28351e-20 5.39708e-06)
(0.0733597 -0.129891 5.24657e-20 -0.0733781 -3.152e-20 1.84361e-05)
(0.0316872 -0.102441 2.24049e-19 -0.031733 9.70134e-20 4.57763e-05)
(0.00907871 -0.0797004 1.69672e-19 -0.00914508 1.15742e-19 6.63632e-05)
(-0.00481017 -0.0607597 4.79912e-20 0.00473083 1.0375e-19 7.93362e-05)
(-0.0142764 -0.0448757 5.79542e-20 0.0141928 1.81774e-19 8.35916e-05)
(-0.0214671 -0.0314149 -5.49372e-19 0.0213888 2.28188e-19 7.82491e-05)
(-0.0273089 -0.0200227 -7.75589e-19 0.0272455 -3.02283e-19 6.33545e-05)
(-0.0324246 -0.0105289 -4.23866e-19 0.0323838 1.87308e-19 4.08415e-05)
(-0.0369517 -0.00290033 -1.42393e-18 0.0369362 -6.00965e-19 1.54955e-05)
(-0.040709 0.00245939 9.01375e-19 0.0407114 1.89807e-20 -2.4111e-06)
(0.0910134 -0.12155 -1.04377e-19 -0.091027 -2.92041e-19 1.36228e-05)
(0.0484778 -0.104635 4.92472e-19 -0.0485124 -1.27376e-19 3.45461e-05)
(0.0238115 -0.0865259 5.42217e-19 -0.0238619 6.13907e-20 5.04336e-05)
(0.00764547 -0.0697222 3.77781e-19 -0.00770556 3.6806e-19 6.00849e-05)
(-0.00398606 -0.0548513 -4.77547e-19 0.00392388 3.36734e-19 6.21735e-05)
(-0.0131142 -0.0419306 -8.45253e-19 0.0130584 5.11603e-19 5.58129e-05)
(-0.0206348 -0.0308845 -1.48693e-18 0.0205936 -4.32978e-21 4.11611e-05)
(-0.0271285 -0.0217397 -1.72093e-19 0.0271079 -7.0595e-20 2.05852e-05)
(-0.0327306 -0.014531 -1.18138e-18 0.0327309 2.55843e-19 -3.01962e-07)
(-0.0371481 -0.00966893 -4.21109e-19 0.0371577 -6.32783e-19 -9.64912e-06)
(0.108263 -0.110272 -3.35196e-20 -0.108272 -1.91217e-19 8.65135e-06)
(0.0679539 -0.102638 2.81658e-20 -0.0679768 -4.14547e-19 2.292e-05)
(0.0423897 -0.0889962 -5.17464e-20 -0.0424236 -4.87749e-19 3.39532e-05)
(0.0243251 -0.0745612 -1.12379e-19 -0.0243654 -1.71465e-19 4.02318e-05)
(0.0105804 -0.0610636 -5.51236e-19 -0.0106206 2.93452e-19 4.02243e-05)
(-0.00054998 -0.0490544 -4.50891e-19 0.000516937 4.4751e-19 3.30425e-05)
(-0.00984004 -0.0386926 1.58348e-19 0.00982111 7.685e-19 1.89352e-05)
(-0.0177659 -0.0301634 -3.75716e-19 0.0177652 4.49604e-19 6.31162e-07)
(-0.0244321 -0.023564 -4.32497e-19 0.0244476 1.05122e-18 -1.55625e-05)
(-0.0294396 -0.0192725 -5.07021e-19 0.0294561 -6.31509e-19 -1.64833e-05)
(0.124398 -0.0958767 -1.21004e-20 -0.124401 2.71763e-20 3.50546e-06)
(0.0885938 -0.0953136 -5.05605e-19 -0.0886046 -2.99492e-19 1.08322e-05)
(0.0630688 -0.085648 -8.17784e-19 -0.0630856 -6.22864e-19 1.67776e-05)
(0.0434868 -0.0737321 -5.61864e-19 -0.0435063 -5.24293e-19 1.95285e-05)
(0.0277677 -0.0619871 8.69086e-20 -0.027785 1.66528e-19 1.73786e-05)
(0.014678 -0.051313 4.87396e-19 -0.0146874 3.52441e-19 9.46094e-06)
(0.00363055 -0.0420287 5.83608e-19 -0.00362667 4.59169e-19 -3.87938e-06)
(-0.00570357 -0.0344204 4.08973e-19 0.00572316 3.63578e-19 -1.95878e-05)
(-0.0133743 -0.0286294 4.60599e-19 0.013405 1.20245e-18 -3.07571e-05)
(-0.018896 -0.0249716 -9.79759e-19 0.0189191 1.10222e-19 -2.31253e-05)
(0.138618 -0.0784218 -1.45105e-19 -0.138616 3.9255e-20 -1.82414e-06)
(0.108501 -0.0821635 -5.26737e-19 -0.108499 1.0347e-19 -1.76908e-06)
(0.0836332 -0.0757716 -5.8303e-19 -0.083632 -1.30841e-19 -1.21668e-06)
(0.0628958 -0.066457 1.56791e-19 -0.0628935 -2.20383e-19 -2.24654e-06)
(0.0454368 -0.0568346 7.73155e-19 -0.0454301 2.00523e-21 -6.6985e-06)
(0.0305567 -0.047931 3.44097e-19 -0.0305414 2.72293e-19 -1.53761e-05)
(0.0178857 -0.0401332 2.87125e-19 -0.0178579 8.45258e-21 -2.78092e-05)
(0.00725848 -0.0337604 6.57094e-19 -0.00721786 2.38258e-19 -4.06135e-05)
(-0.00130593 -0.028971 3.57423e-19 0.00135227 4.75359e-19 -4.63396e-05)
(-0.00726187 -0.0260015 2.68798e-19 0.00729165 6.99742e-19 -2.97772e-05)
(0.150129 -0.0582283 -2.47154e-20 -0.150122 1.17916e-19 -7.3391e-06)
(0.125672 -0.0634233 -1.5461e-19 -0.125657 4.51063e-19 -1.49102e-05)
(0.101717 -0.0595401 -2.99328e-19 -0.101697 4.93443e-19 -2.01107e-05)
(0.0801541 -0.0528596 1.20726e-19 -0.0801289 2.581e-19 -2.52564e-05)
(0.0612838 -0.0456895 2.64476e-19 -0.0612515 -2.19107e-19 -3.2269e-05)
(0.0449111 -0.0389593 4.58298e-19 -0.0448693 -2.33531e-19 -4.18304e-05)
(0.0308748 -0.033029 2.48874e-19 -0.0308215 -2.06683e-19 -5.32941e-05)
(0.0191627 -0.0281837 1.10046e-18 -0.0190998 -2.99721e-19 -6.29085e-05)
(0.00986394 -0.0245677 9.16606e-19 -0.00980124 9.84336e-20 -6.27038e-05)
(0.00355777 -0.0223329 -8.30395e-20 -0.00352115 2.19372e-19 -3.66194e-05)
(0.158233 -0.0358683 2.16189e-20 -0.15822 8.47258e-20 -1.30201e-05)
(0.138278 -0.040059 1.68319e-20 -0.13825 2.4486e-19 -2.85661e-05)
(0.115152 -0.0380058 7.71906e-20 -0.115112 4.85089e-19 -3.99035e-05)
(0.0930571 -0.0339641 2.83481e-19 -0.0930076 2.90063e-19 -4.95519e-05)
(0.0731857 -0.0295075 1.13347e-19 -0.0731262 1.13928e-19 -5.94548e-05)
(0.0557333 -0.0252775 -1.34891e-19 -0.0556632 -1.21169e-19 -7.01018e-05)
(0.0407016 -0.0215256 2.21521e-19 -0.040621 2.31753e-20 -8.06021e-05)
(0.0281961 -0.0184462 6.43663e-19 -0.0281093 -3.39171e-19 -8.6771e-05)
(0.018363 -0.01614 5.42451e-19 -0.0182829 -3.85844e-19 -8.01138e-05)
(0.0117945 -0.0146788 6.63495e-20 -0.0117507 9.54407e-20 -4.37754e-05)
(0.162413 -0.0121209 2.94469e-20 -0.162394 3.17894e-20 -1.88288e-05)
(0.144936 -0.0136512 5.63094e-20 -0.144893 5.04399e-20 -4.26557e-05)
(0.122286 -0.0129646 2.61424e-20 -0.122226 2.32506e-19 -6.05009e-05)
(0.0999229 -0.0115575 3.36508e-20 -0.0998479 1.37145e-20 -7.50528e-05)
(0.0795211 -0.00998374 1.61835e-19 -0.0794329 -9.14503e-20 -8.82114e-05)
(0.0614885 -0.00846894 2.80455e-19 -0.0613883 1.31858e-19 -0.000100196)
(0.0459156 -0.00710128 3.95289e-19 -0.0458058 2.23116e-19 -0.000109791)
(0.032971 -0.00594627 4.3735e-19 -0.0328587 -1.22716e-19 -0.000112297)
(0.0228339 -0.00504092 6.09193e-19 -0.0227352 -2.70381e-19 -9.86712e-05)
(0.0160954 -0.00438371 6.38232e-20 -0.0160441 1.63874e-19 -5.1299e-05)
(0.162394 0.0121 2.37019e-20 -0.16237 -3.10331e-21 -2.4697e-05)
(0.144898 0.0138103 1.05705e-19 -0.144841 -3.19082e-20 -5.70223e-05)
(0.12223 0.0132919 1.05336e-19 -0.122148 1.73969e-19 -8.16873e-05)
(0.0998452 0.0120641 -6.969e-20 -0.0997437 1.19226e-19 -0.000101511)
(0.0794166 0.0106928 1.20779e-19 -0.0792983 -2.04477e-19 -0.000118284)
(0.0613503 0.00941285 4.05478e-19 -0.0612184 -8.82001e-20 -0.000131874)
(0.0457363 0.00831913 3.91631e-19 -0.0455956 -1.8677e-19 -0.000140659)
(0.0327418 0.00748764 4.79799e-20 -0.0326024 -4.80611e-20 -0.000139338)
(0.0225478 0.00695353 4.88548e-19 -0.0224295 -7.39394e-19 -0.000118289)
(0.0157364 0.00678534 4.42333e-20 -0.0156772 -1.87171e-19 -5.91634e-05)
(0.158181 0.0358337 1.77647e-21 -0.15815 -1.37055e-20 -3.05334e-05)
(0.13817 0.0401933 1.57481e-19 -0.138098 -1.14295e-19 -7.1441e-05)
(0.114989 0.0382992 3.46025e-19 -0.114885 -1.85083e-19 -0.000103132)
(0.0928299 0.0344268 -2.37662e-20 -0.0927014 -1.63812e-19 -0.000128518)
(0.0728791 0.0301606 -2.09908e-19 -0.0727299 -1.98926e-19 -0.000149211)
(0.0553274 0.0261506 2.23697e-19 -0.0551628 -2.1907e-20 -0.000164654)
(0.0401746 0.0226551 3.35583e-19 -0.0400018 -2.32208e-19 -0.000172743)
(0.0275218 0.019878 7.19315e-20 -0.0273543 -1.85838e-19 -0.000167491)
(0.0175203 0.0179205 -5.37297e-19 -0.0173816 -5.27e-19 -0.00013868)
(0.0107373 0.016916 1.4282e-19 -0.0106701 2.88895e-19 -6.72551e-05)
(0.15005 0.0581682 -5.08373e-20 -0.150014 -4.65272e-20 -3.62156e-05)
(0.125502 0.0635106 -3.16869e-21 -0.125417 -2.43854e-19 -8.56092e-05)
(0.10146 0.0597683 2.01436e-20 -0.101336 -2.13187e-19 -0.00012438)
(0.0797943 0.0532374 -1.44552e-19 -0.0796388 -2.42882e-20 -0.000155487)
(0.0607962 0.0462341 -1.87629e-19 -0.0606158 3.49243e-19 -0.000180308)
(0.0442637 0.0396949 3.67129e-19 -0.0440659 1.34523e-19 -0.000197796)
(0.0300321 0.0339865 9.24021e-20 -0.0298268 -4.11949e-20 -0.000205302)
(0.018083 0.0294023 -1.81377e-19 -0.0178869 -1.34224e-19 -0.000196095)
(0.00851146 0.0260902 -1.39776e-19 -0.00835211 6.09798e-19 -0.000159354)
(0.00186213 0.0242501 6.37749e-19 -0.00178676 -4.74688e-19 -7.53739e-05)
(0.138523 0.0783282 -1.57996e-19 -0.138481 -1.3386e-20 -4.16033e-05)
(0.108289 0.0821861 -4.12999e-19 -0.108189 2.26201e-19 -9.91674e-05)
(0.0833047 0.0759088 2.51679e-20 -0.0831598 3.23948e-19 -0.000144876)
(0.0624304 0.066715 2.33656e-19 -0.0622487 2.86038e-19 -0.000181695)
(0.0448016 0.0572251 8.81967e-20 -0.0445909 4.04198e-19 -0.000210711)
(0.0297097 0.0484707 1.41454e-19 -0.0294793 -1.09308e-19 -0.000230343)
(0.0167792 0.0408452 2.62856e-19 -0.0165419 -8.90822e-20 -0.000237358)
(0.00583759 0.0346738 3.57758e-19 -0.00561333 -1.82302e-20 -0.000224253)
(-0.00309133 0.0301229 1.85925e-19 0.00327096 -6.25276e-19 -0.000179636)
(-0.00949899 0.0274602 -8.80777e-19 0.00958223 7.85062e-20 -8.32379e-05)
(0.124297 0.0957457 3.21512e-20 -0.124251 -1.65352e-20 -4.65337e-05)
(0.0883583 0.0952602 -3.26861e-19 -0.0882466 5.4677e-19 -0.000111701)
(0.0626963 0.0856756 -2.47688e-19 -0.0625323 5.86943e-19 -0.000163978)
(0.042951 0.0738439 -1.85668e-20 -0.0427448 3.98795e-19 -0.000206289)
(0.0270292 0.0621882 4.17099e-19 -0.0267898 -1.34578e-19 -0.000239389)
(0.013687 0.0516108 4.00152e-20 -0.0134259 -5.50054e-19 -0.000261143)
(0.00232977 0.0424362 4.82842e-19 -0.00206205 -8.96433e-19 -0.00026772)
(-0.00737956 0.0349546 -2.64213e-19 0.00763042 -7.63864e-19 -0.000250863)
(-0.0154889 0.0293181 -1.81264e-19 0.0156876 -7.20636e-19 -0.00019868)
(-0.0215453 0.02586 5.16487e-19 0.0216358 3.28031e-19 -9.04923e-05)
(0.108168 0.110104 6.75414e-20 -0.108118 1.64782e-19 -5.0839e-05)
(0.067718 0.102503 3.48989e-19 -0.0675952 3.73354e-19 -0.000122773)
(0.0420045 0.0889043 3.25863e-19 -0.0418235 2.97006e-19 -0.000180997)
(0.0237599 0.0745111 2.105e-19 -0.0235316 -7.16133e-20 -0.000228348)
(0.00979083 0.0610526 -5.5013e-20 -0.00952561 -7.50525e-19 -0.000265222)
(-0.00161868 0.0490798 -5.44316e-19 0.00190761 -1.1012e-18 -0.00028893)
(-0.0112522 0.0387555 -1.1307e-18 0.0115472 -5.52794e-19 -0.000295068)
(-0.0195937 0.0302676 8.98562e-20 0.0198684 -4.83248e-19 -0.000274693)
(-0.0267499 0.0237246 -1.11494e-18 0.0269654 -2.76969e-19 -0.000215536)
(-0.0323454 0.0195127 4.93904e-19 0.0324422 -3.84989e-19 -9.6735e-05)
(0.0909336 0.121346 -3.57215e-20 -0.0908792 2.27874e-19 -5.43458e-05)
(0.0482635 0.104422 5.91014e-19 -0.0481316 4.60143e-20 -0.000131934)
(0.0234459 0.0863141 8.18355e-19 -0.0232507 -2.8184e-19 -0.000195224)
(0.00709401 0.0695066 6.43264e-19 -0.00684709 -7.57551e-19 -0.000246919)
(-0.00477044 0.0546208 -3.89022e-19 0.00505748 -9.03624e-19 -0.000287039)
(-0.0141886 0.0416718 -1.00689e-18 0.0145009 -5.65162e-19 -0.000312378)
(-0.0220668 0.0305858 -1.23041e-18 0.0223848 2.12876e-19 -0.000318013)
(-0.0289937 0.0213907 -6.83805e-19 0.0292882 -3.69615e-19 -0.00029444)
(-0.0351104 0.0141317 -1.57623e-18 0.0353396 3.1778e-19 -0.000229193)
(-0.0401385 0.00922372 2.18856e-19 0.0402401 -1.22834e-19 -0.000101537)
(0.0733024 0.129655 9.92642e-20 -0.0732455 -1.66292e-20 -5.6894e-05)
(0.0315142 0.102157 2.74553e-19 -0.0313754 -2.0549e-19 -0.000138761)
(0.00876328 0.0793773 1.96177e-19 -0.00855729 -3.93845e-19 -0.000205986)
(-0.00530566 0.060387 -1.10144e-19 0.00556675 -4.99322e-19 -0.000261088)
(-0.0149994 0.0444338 -6.45645e-19 0.0153032 -2.53371e-19 -0.000303716)
(-0.022474 0.0308799 -6.38334e-19 0.0228042 2.99691e-20 -0.000330206)
(-0.0286672 0.01937 -5.12641e-19 0.0290024 1.45052e-19 -0.000335212)
(-0.0342094 0.00973427 -5.60862e-19 0.0345183 1.59168e-19 -0.000308847)
(-0.0392463 0.00194679 -3.11028e-19 0.039485 -6.60581e-20 -0.00023868)
(-0.0436052 -0.0035833 -1.10804e-18 0.0437097 1.25827e-19 -0.000104491)
(0.0558214 0.135396 -2.58939e-20 -0.0557631 -6.56917e-20 -5.8338e-05)
(0.0184063 0.0972839 -2.44828e-19 -0.0182634 -1.51607e-19 -0.00014287)
(-0.00102176 0.0700778 -4.66827e-19 0.00123443 -1.07677e-19 -0.00021267)
(-0.0124456 0.0492243 -3.96952e-19 0.0127156 3.03577e-20 -0.000270024)
(-0.0199715 0.0325253 -1.47878e-20 0.0202858 1.40829e-20 -0.000314225)
(-0.0256266 0.0186606 -3.83251e-19 0.0259678 2.10873e-20 -0.00034124)
(-0.0302763 0.00698576 -3.27151e-19 0.0306218 5.73285e-20 -0.000345432)
(-0.0345191 -0.00287824 -3.0498e-19 0.0348358 1.74564e-19 -0.000316761)
(-0.0384758 -0.0110228 -3.36686e-20 0.0387189 -8.62324e-20 -0.00024311)
(-0.0420719 -0.0170842 -5.48251e-19 0.0421771 2.97246e-19 -0.000105221)
(0.0388257 0.139037 -4.41023e-20 -0.0387671 -4.89387e-20 -5.85651e-05)
(0.00917714 0.0915598 -1.2301e-19 -0.00903319 -1.64358e-19 -0.000143959)
(-0.00574325 0.0605931 -6.62761e-19 0.00595804 -3.4269e-20 -0.000214783)
(-0.0142154 0.038278 -6.07699e-19 0.0144884 1.34572e-19 -0.000273048)
(-0.0196216 0.0211025 -4.19532e-19 0.0199393 1.86227e-19 -0.000317724)
(-0.0236187 0.00712804 -4.96614e-20 0.0239632 1.26816e-19 -0.00034452)
(-0.0268998 -0.004546 -3.35705e-19 0.0272474 1.31466e-19 -0.000347664)
(-0.0299563 -0.0144918 -1.02271e-20 0.0302735 3.04051e-19 -0.000317241)
(-0.0328612 -0.0228489 5.62078e-19 0.033103 2.29508e-20 -0.000241767)
(-0.0356124 -0.0293339 -9.88236e-20 0.0357158 -1.16735e-20 -0.000103437)
(0.0224227 0.141059 -5.19706e-20 -0.0223652 -3.26511e-20 -5.74955e-05)
(0.0033571 0.0866344 -8.85558e-20 -0.00321529 -1.10302e-19 -0.000141809)
(-0.00609393 0.0529502 -3.44568e-19 0.0063059 -1.75936e-20 -0.00021197)
(-0.0113868 0.0296409 -2.49296e-19 0.0116565 1.1062e-19 -0.00026967)
(-0.0147404 0.0122021 -2.58921e-19 0.015054 1.17734e-19 -0.000313597)
(-0.0172378 -0.00177278 -4.31774e-19 0.0175771 9.65567e-20 -0.000339339)
(-0.0193177 -0.0133728 -3.96047e-19 0.0196589 1.74541e-19 -0.000341168)
(-0.0213001 -0.0233195 -1.08046e-19 0.0216097 2.76582e-19 -0.000309598)
(-0.0231966 -0.0317762 4.0191e-19 0.0234308 4.43751e-20 -0.000234122)
(-0.025036 -0.0385613 -2.97168e-20 0.0251349 -2.24971e-20 -9.89183e-05)
(0.00651388 0.141864 -7.3043e-20 -0.00645879 -1.70441e-20 -5.50962e-05)
(-0.000128783 0.0837885 -1.32649e-19 0.000265103 -7.53252e-20 -0.000136321)
(-0.00349588 0.0487072 -2.71388e-19 0.00369994 -1.45352e-20 -0.000204058)
(-0.00547786 0.0249139 -3.65503e-19 0.0057375 1.09157e-19 -0.000259641)
(-0.00683991 0.00737564 -3.57601e-19 0.00714144 1.01313e-19 -0.000301531)
(-0.00795581 -0.00656546 -3.30354e-19 0.00828115 7.95658e-20 -0.000325332)
(-0.00895849 -0.0180936 -1.45634e-19 0.00928405 1.558e-19 -0.000325562)
(-0.00995122 -0.0280145 -9.9926e-20 0.0102447 2.46831e-19 -0.000293484)
(-0.0108829 -0.036489 2.86591e-19 0.0111028 8.4662e-20 -0.000219923)
(-0.011763 -0.0434376 1.6462e-19 0.0118546 -1.92269e-20 -9.15761e-05)
(-0.00915037 0.1417 -7.10045e-20 0.00920175 -4.9863e-21 -5.13798e-05)
(-0.00276561 0.083728 -1.99495e-19 0.00289312 -6.25676e-20 -0.000127514)
(0.000140854 0.0487093 -1.62714e-19 5.02088e-05 -2.34417e-20 -0.000191063)
(0.00149789 0.0249576 -3.02996e-19 -0.00125492 1.095e-19 -0.000242967)
(0.00209192 0.00745111 -4.12123e-19 -0.00181041 1.0164e-19 -0.000281518)
(0.00230561 -0.00646713 -2.92019e-19 -0.00200312 5.66521e-20 -0.000302491)
(0.00232644 -0.0179711 -1.70078e-20 -0.00202559 1.10767e-19 -0.000300841)
(0.00228589 -0.0278729 -1.5133e-19 -0.00201699 2.13184e-19 -0.000268905)
(0.0022888 -0.0363072 5.14863e-20 -0.00208961 7.34643e-20 -0.000199187)
(0.00239156 -0.0432731 1.66959e-19 -0.00231013 -2.17003e-20 -8.14283e-05)
(-0.0248899 0.140613 -8.59828e-20 0.0249363 1.02454e-20 -4.64099e-05)
(-0.00618919 0.0864709 -2.40241e-19 0.00630473 -5.33914e-20 -0.000115539)
(0.00273465 0.0529567 -1.61293e-20 -0.00256145 -4.12916e-20 -0.000173205)
(0.00735713 0.0297602 -3.74708e-20 -0.0071372 1.08689e-19 -0.00021993)
(0.00990771 0.0124073 -5.14517e-19 -0.00965381 9.99292e-20 -0.0002539)
(0.0114776 -0.00150594 -3.17468e-19 -0.0112064 4.83785e-20 -0.000271202)
(0.0125503 -0.0130407 -2.3947e-19 -0.0122829 3.5816e-20 -0.000267424)
(0.0134806 -0.0229357 1.93967e-19 -0.0132443 1.77161e-19 -0.000236279)
(0.0144099 -0.031284 -4.17275e-19 -0.0142377 7.98217e-20 -0.000172271)
(0.0154926 -0.0381175 8.29678e-20 -0.015424 -1.82526e-20 -6.86549e-05)
(-0.041 0.138434 -3.3756e-20 0.0410403 4.47377e-20 -4.02987e-05)
(-0.0119024 0.0913416 -2.70118e-19 0.0120031 -1.35792e-20 -0.00010067)
(0.00237515 0.0606047 -3.76889e-19 -0.00222425 -8.8747e-20 -0.000150902)
(0.0100981 0.0384406 -2.71829e-19 -0.009907 1.69425e-20 -0.000191077)
(0.0146408 0.0213795 -3.74406e-19 -0.0144214 7.10682e-20 -0.000219338)
(0.0176671 0.00748642 -9.34319e-20 -0.0174349 5.98407e-20 -0.000232223)
(0.0198976 -0.00410117 -1.71344e-19 -0.0196715 5.89465e-20 -0.00022612)
(0.0218701 -0.0139789 -5.34153e-20 -0.0216738 7.92653e-20 -0.000196392)
(0.0237428 -0.0221911 -1.61792e-19 -0.023603 -6.10126e-20 -0.000139812)
(0.0257747 -0.0287451 3.47156e-19 -0.0257212 1.35515e-20 -5.35462e-05)
(-0.0576578 0.134806 -4.07834e-20 0.057691 5.48382e-20 -3.32018e-05)
(-0.0210111 0.097077 -4.38074e-19 0.0210944 -5.03435e-20 -8.3298e-05)
(-0.00236023 0.0700949 -1.23854e-19 0.00248499 -1.05827e-19 -0.000124754)
(0.00822334 0.0493858 1.28403e-19 -0.00806614 -1.57477e-20 -0.000157203)
(0.0148162 0.0327946 1.63289e-19 -0.0146374 2.12091e-19 -0.000178804)
(0.0194514 0.0190052 -2.743e-19 -0.0192647 1.71579e-19 -0.000186663)
(0.023002 0.0074111 -2.8625e-19 -0.0228238 -8.80503e-20 -0.000178121)
(0.0261262 -0.0023901 1.09287e-20 -0.0259758 -1.11526e-19 -0.000150404)
(0.0289793 -0.0103961 1.51226e-20 -0.0288765 3.23234e-20 -0.000102763)
(0.0319028 -0.0165328 -6.93574e-19 -0.0318662 7.99841e-20 -3.65462e-05)
(-0.0748469 0.12925 5.24122e-20 0.0748723 -3.09145e-20 -2.53162e-05)
(-0.0340201 0.102026 2.26172e-19 0.034084 9.7704e-20 -6.39125e-05)
(-0.0121644 0.0793996 1.71924e-19 0.0122599 1.14826e-19 -9.55159e-05)
(0.000985147 0.060502 4.8599e-20 -0.000865839 1.00165e-19 -0.000119308)
(0.00968644 0.0446152 5.125e-20 -0.00955292 1.77053e-19 -0.000133518)
(0.0161002 0.0311051 -5.60284e-19 -0.0159643 2.29756e-19 -0.000135917)
(0.021155 0.0196438 -7.91256e-19 -0.0210301 -3.0264e-19 -0.000124909)
(0.0255529 0.0100445 -4.47232e-19 -0.0254532 2.04655e-19 -9.97399e-05)
(0.0294311 0.00234767 -1.42999e-18 -0.0293689 -6.05539e-19 -6.22634e-05)
(0.0331647 -0.00324925 9.21158e-19 -0.0331465 3.13869e-20 -1.81641e-05)
(-0.0923117 0.121252 -1.0469e-19 0.0923285 -2.92751e-19 -1.68651e-05)