/*--------------------------------*- C++ -*----------------------------------*\
| =========                 |                                                 |
| \\      /  F ield         | foam-extend: Open Source CFD                    |
|  \\    /   O peration     | Version:  3.0                                   |
|   \\  /    A nd           | Web:         http://www.extend-project.de       |
|    \\/     M anipulation  |                                                 |
\*---------------------------------------------------------------------------*/
FoamFile
{
    version     2.0;
    format      ascii;
    class       volSymmTensorField;
    location    "8";
    object      sigma;
}
// * * * * * * * * * * * * * * * * * * * * * * * * * * * * * * * * * * * * * //

dimensions      [0 0 0 0 0 0 0];

internalField   nonuniform List<symmTensor> 
900
(
(-0.174762 -0.0106744 9.13984e-20 0.174435 -6.51828e-19 0.000327518)
(-0.165751 -0.0120705 2.53343e-19 0.1649 3.75458e-19 0.000850689)
(-0.151824 -0.0122366 4.00935e-19 0.150524 3.56225e-19 0.00130013)
(-0.136206 -0.0117992 1.84484e-19 0.134519 -2.33998e-19 0.00168661)
(-0.121131 -0.0111672 9.67692e-20 0.119116 8.26291e-19 0.00201408)
(-0.106758 -0.0104889 2.72319e-19 0.104477 -6.18647e-19 0.00228088)
(-0.0936364 -0.00985561 4.49064e-19 0.0911541 -1.20612e-18 0.00248236)
(-0.0816394 -0.00932559 5.65227e-19 0.079029 -1.49822e-18 0.00261048)
(-0.0708246 -0.00891659 -1.83164e-19 0.0681692 -1.3506e-18 0.00265532)
(-0.0611949 -0.00867493 1.3258e-19 0.0585902 -1.08289e-18 0.00260476)
(-0.0526418 -0.00860177 1.0088e-18 0.0501965 -6.95328e-19 0.00244531)
(-0.0452924 -0.00873655 2.89783e-19 0.0431297 -1.01124e-18 0.00216278)
(-0.0392272 -0.00914186 2.28353e-19 0.037485 6.66247e-19 0.00174226)
(-0.0341213 -0.00956214 5.54523e-19 0.0329506 -1.05129e-19 0.00117064)
(-0.0314332 -0.0104283 -8.35269e-20 0.0309976 6.93634e-19 0.000435551)
(-0.172297 -0.0294777 3.48385e-19 0.171982 8.88525e-19 0.000314907)
(-0.161701 -0.0338133 8.02694e-19 0.160883 1.0305e-18 0.00081801)
(-0.147123 -0.0343222 4.51326e-19 0.145872 -1.55436e-18 0.00125026)
(-0.131344 -0.0329427 3.33367e-19 0.129723 -3.49201e-19 0.00162195)
(-0.116327 -0.0308764 9.61004e-20 0.114391 -3.69897e-19 0.00193682)
(-0.102113 -0.0285708 -1.59832e-18 0.0999199 -3.88392e-19 0.00219326)
(-0.0891913 -0.0262911 -9.31579e-19 0.0868045 1.50256e-19 0.00238676)
(-0.0773908 -0.0242021 -3.31292e-19 0.0748812 6.88349e-19 0.0025096)
(-0.0667624 -0.0223306 2.55153e-19 0.0642102 5.29919e-20 0.00255224)
(-0.0572884 -0.0207996 1.81161e-19 0.0547854 5.33513e-19 0.00250308)
(-0.0488545 -0.019575 -2.68907e-19 0.0465053 -1.1029e-18 0.0023492)
(-0.0416184 -0.0187266 9.272e-19 0.0395413 4.81387e-19 0.00207707)
(-0.0355089 -0.018412 2.29054e-18 0.0338364 -1.27382e-19 0.0016725)
(-0.0305758 -0.0181321 5.48203e-19 0.0294527 -9.66058e-19 0.00112316)
(-0.0274904 -0.0187809 -1.6723e-19 0.027073 3.38761e-19 0.000417453)
(-0.167647 -0.0477583 7.53086e-20 0.167348 5.07114e-19 0.000298524)
(-0.154023 -0.0542071 -2.05352e-18 0.153248 1.71662e-18 0.000775501)
(-0.138225 -0.0546879 -6.63592e-19 0.13704 -9.52993e-19 0.00118529)
(-0.122173 -0.0522369 6.93323e-19 0.120636 9.83653e-19 0.00153759)
(-0.107311 -0.0487206 3.84936e-19 0.105475 -3.71311e-19 0.00183591)
(-0.0934516 -0.0448263 6.63268e-19 0.0913729 1.87545e-20 0.00207869)
(-0.0809726 -0.0409635 1.09681e-18 0.078711 8.18194e-19 0.00226164)
(-0.0696152 -0.0373807 1.0515e-20 0.0672377 8.92911e-19 0.00237744)
(-0.0594214 -0.0341078 -2.87088e-19 0.0570043 -1.18593e-18 0.00241708)
(-0.0503216 -0.0313342 -1.5466e-18 0.047952 1.33471e-18 0.00236964)
(-0.0422086 -0.0289875 7.39513e-20 0.0399857 6.07411e-19 0.00222297)
(-0.0352466 -0.0271812 7.24078e-19 0.0332822 1.52035e-18 0.00196443)
(-0.0292089 -0.0261103 -1.49036e-18 0.0276281 -1.79363e-18 0.00158076)
(-0.0245241 -0.0251585 5.85742e-19 0.0234635 -5.38781e-19 0.00106069)
(-0.0210887 -0.025459 3.93814e-19 0.020695 -1.39054e-18 0.000393671)
(-0.160944 -0.065225 1.78904e-18 0.160665 -1.65795e-19 0.000278576)
(-0.143202 -0.0725007 2.77267e-19 0.142478 -8.00712e-20 0.000723719)
(-0.125776 -0.0723749 -1.01725e-18 0.12467 -4.98913e-19 0.0011061)
(-0.109399 -0.0686549 1.27317e-19 0.107964 7.82292e-19 0.00143471)
(-0.0948016 -0.0636707 -3.09669e-19 0.0930889 -1.96312e-18 0.00171276)
(-0.0814802 -0.0582575 -1.02268e-18 0.0795414 -8.56569e-19 0.00193876)
(-0.069662 -0.052925 1.30251e-18 0.0675533 -2.81906e-18 0.0021087)
(-0.0589628 -0.0479681 -1.15191e-18 0.056747 -2.74726e-18 0.00221579)
(-0.049419 -0.0434138 6.41615e-19 0.0471673 -5.33135e-19 0.00225166)
(-0.0408816 -0.0394966 3.17043e-18 0.0386753 -1.33496e-18 0.00220622)
(-0.0332702 -0.0360994 -3.7796e-19 0.0312019 -3.82953e-19 0.0020683)
(-0.0267194 -0.0333975 9.29273e-20 0.0248931 -2.40737e-18 0.00182632)
(-0.0209009 -0.0315296 -1.55839e-18 0.0194326 -7.2872e-19 0.00146826)
(-0.0164657 -0.0299735 -1.37633e-18 0.0154816 -6.65392e-19 0.000984078)
(-0.0127964 -0.0298302 2.88629e-19 0.0124318 -8.86412e-19 0.000364607)
(-0.152371 -0.081627 2.6201e-19 0.152115 8.16847e-19 0.00025534)
(-0.129897 -0.0881035 -4.14253e-19 0.129233 -1.55834e-18 0.00066336)
(-0.110656 -0.0866485 -1.43188e-19 0.109642 1.1789e-20 0.00101374)
(-0.0939856 -0.0814146 -1.1988e-18 0.0926709 1.56925e-18 0.00131464)
(-0.0797805 -0.0749458 -2.70796e-19 0.0782115 -1.90522e-18 0.00156895)
(-0.0671666 -0.0681064 -2.35082e-18 0.0653914 1.90692e-18 0.00177529)
(-0.0561959 -0.0614522 -4.01565e-19 0.0542659 -2.78554e-18 0.00192996)
(-0.0463357 -0.0552758 1.12082e-19 0.044309 2.66847e-18 0.00202677)
(-0.0376187 -0.0495956 -2.20304e-19 0.0355605 -1.69408e-18 0.00205815)
(-0.0297953 -0.0446636 -1.53574e-18 0.0277803 -9.84098e-20 0.00201498)
(-0.0228217 -0.0403186 1.10484e-18 0.0209345 -1.47329e-18 0.00188723)
(-0.0168001 -0.0368158 8.18245e-21 0.0151355 -9.3699e-19 0.00166462)
(-0.0112584 -0.0341676 2.69674e-19 0.00992188 -1.0128e-18 0.00133657)
(-0.00722613 -0.0321301 -9.10234e-19 0.00633167 -2.73607e-18 0.00089446)
(-0.00340311 -0.0314864 -1.18907e-18 0.00307242 1.55225e-18 0.000330685)
(-0.142141 -0.0967636 1.28264e-18 0.141912 -1.00492e-18 0.000229092)
(-0.114887 -0.100653 -5.25057e-19 0.114291 -4.73421e-19 0.000595173)
(-0.0939087 -0.0970768 1.51901e-18 0.0929993 -1.01077e-19 0.000909389)
(-0.0770745 -0.0900683 -1.64821e-19 0.0758956 -1.14303e-18 0.00117896)
(-0.0634075 -0.0821058 -9.90205e-19 0.0620011 -1.36548e-19 0.00140641)
(-0.05165 -0.0739523 -1.79497e-18 0.0500595 -3.7327e-19 0.00159048)
(-0.0416708 -0.0661522 -2.43727e-18 0.039943 1.24995e-18 0.00172786)
(-0.0327816 -0.0589409 -1.34999e-18 0.0309685 1.46701e-18 0.00181304)
(-0.0250169 -0.0523293 -1.19649e-18 0.0231776 -1.78362e-18 0.00183932)
(-0.0180071 -0.0465473 5.35618e-20 0.0162084 3.86526e-18 0.00179869)
(-0.0117939 -0.0414046 -2.54685e-18 0.0101115 -1.479e-18 0.00168246)
(-0.00633078 -0.0372104 -1.33074e-18 0.00484902 1.27745e-18 0.00148176)
(-0.00129978 -0.0338076 -3.50063e-18 0.00011209 -2.96656e-18 0.00118769)
(0.00242705 -0.0312852 2.76043e-20 -0.00322025 6.16398e-19 0.000793198)
(0.00613724 -0.0300109 -6.60438e-19 -0.00642968 2.42202e-18 0.000292433)
(-0.130487 -0.110487 -5.43195e-19 0.130287 2.56477e-18 0.000200194)
(-0.099004 -0.110016 -2.24073e-19 0.0984839 -4.22828e-19 0.000520075)
(-0.0766367 -0.103546 -1.36594e-18 0.0758422 2.38034e-19 0.000794434)
(-0.0598704 -0.0945172 4.40495e-19 0.058841 2.40352e-20 0.00102947)
(-0.0469055 -0.0850665 -7.73633e-19 0.0456782 1.45822e-18 0.00122733)
(-0.0361321 -0.0757241 1.22638e-18 0.0347452 -6.20973e-19 0.00138686)
(-0.0272469 -0.0669664 -1.58906e-18 0.0257417 2.93784e-18 0.0015052)
(-0.0194194 -0.0589147 1.83563e-19 0.0178418 -1.91618e-18 0.00157758)
(-0.0126877 -0.0515777 -2.97421e-18 0.0110894 3.87008e-18 0.00159828)
(-0.00657232 -0.0451125 3.28329e-18 0.00501181 -9.07012e-19 0.00156051)
(-0.00118087 -0.0393543 -2.61904e-18 -0.000276139 1.25827e-18 0.00145701)
(0.00364048 -0.0345408 7.57866e-19 -0.00492097 -2.20756e-18 0.00128049)
(0.00818661 -0.0305773 -4.99363e-18 -0.00921048 4.85973e-19 0.00102387)
(0.0115633 -0.0274596 1.82871e-18 -0.0122451 2.39254e-18 0.000681794)
(0.0151914 -0.0256269 -6.93068e-19 -0.0154417 -5.42737e-20 0.00025036)
(-0.117641 -0.122702 -7.07369e-19 0.117472 -7.08837e-19 0.000169004)
(-0.0830445 -0.116308 -1.06496e-18 0.0826054 -2.30195e-18 0.000439028)
(-0.0598995 -0.106277 -3.39717e-19 0.0592292 1.48876e-18 0.00067038)
(-0.0435288 -0.095034 -5.66228e-19 0.0426606 8.98598e-20 0.000868166)
(-0.031448 -0.0841233 -2.02764e-18 0.0304139 -1.58863e-20 0.00103412)
(-0.0217647 -0.073726 -2.72316e-19 0.0205975 1.42677e-19 0.00116724)
(-0.0140313 -0.0641991 -2.02263e-18 0.0127662 1.57332e-18 0.00126511)
(-0.00730678 -0.0554993 1.756e-18 0.00598299 -6.69802e-20 0.00132379)
(-0.00162993 -0.0476334 -2.13132e-18 0.000291318 7.53895e-19 0.00133861)
(0.00356203 -0.04065 4.52423e-19 -0.00486611 -1.04321e-18 0.00130408)
(0.00811676 -0.0344222 -1.39795e-18 -0.00933124 -2.67652e-19 0.00121447)
(0.0122542 -0.0291171 -1.37197e-18 -0.0133184 5.34278e-19 0.00106418)
(0.0162698 -0.0246272 6.14062e-20 -0.0171179 9.99804e-19 0.000848037)
(0.0192556 -0.021099 -3.39269e-18 -0.019818 2.10238e-18 0.00056244)
(0.0226924 -0.0186356 3.31131e-18 -0.0228978 -1.49924e-18 0.000205399)
(-0.103829 -0.133361 1.76763e-18 0.103693 -9.87003e-19 0.000135945)
(-0.0677196 -0.119856 1.92913e-19 0.0673664 -2.7151e-19 0.000353112)
(-0.0446232 -0.105781 -1.25333e-18 0.0440843 1.19617e-18 0.000538882)
(-0.0290558 -0.0922073 2.44585e-18 0.0283586 -9.10205e-19 0.000697212)
(-0.018052 -0.0798915 -1.55182e-18 0.0172226 1.34544e-18 0.0008294)
(-0.00954432 -0.0685745 2.22603e-18 0.00860971 1.10557e-18 0.00093461)
(-0.00298253 -0.0584527 -1.40417e-18 0.00197161 9.23429e-19 0.00101092)
(0.00263846 -0.0492818 -1.14875e-19 -0.0036937 -1.73104e-18 0.00105524)
(0.00728066 -0.041067 2.98923e-20 -0.00834467 1.07629e-18 0.00106401)
(0.011558 -0.033727 -8.94962e-19 -0.0125911 1.16679e-18 0.00103311)
(0.015297 -0.027178 5.10726e-19 -0.0162554 1.72815e-18 0.000958411)
(0.0187414 -0.021516 -1.05785e-18 -0.0195774 8.06807e-19 0.000836032)
(0.0222397 -0.0165929 2.08343e-18 -0.0229024 1.41178e-19 0.000662764)
(0.0247899 -0.0127028 -1.73432e-18 -0.0252267 2.30922e-18 0.000436796)
(0.0279323 -0.00973544 1.99744e-18 -0.0280904 -3.18055e-18 0.000158109)
(-0.0892499 -0.142456 -1.41248e-18 0.0891485 6.26722e-19 0.00010143)
(-0.0535675 -0.121165 -2.49102e-19 0.053304 8.75204e-19 0.000263428)
(-0.0315045 -0.102812 -1.90988e-18 0.0311029 6.79455e-19 0.000401647)
(-0.0172001 -0.0868965 -3.82437e-19 0.0166812 -2.49253e-19 0.000518856)
(-0.00747048 -0.0732664 -3.49184e-19 0.00685457 6.02169e-19 0.00061591)
(-0.000202059 -0.0611659 1.27339e-20 -0.000490083 2.06114e-19 0.000692142)
(0.00520389 -0.0506057 1.73631e-18 -0.00595004 -1.24849e-18 0.000746143)
(0.00976005 -0.041118 -1.70253e-18 -0.0105358 -4.77695e-20 0.000775722)
(0.0134276 -0.0327062 1.4447e-18 -0.0142061 9.90651e-19 0.000778448)
(0.0168351 -0.0251468 8.56811e-19 -0.0175867 1.48985e-21 0.000751615)
(0.0197961 -0.0183987 1.06497e-18 -0.0204888 -1.40042e-18 0.000692728)
(0.0225707 -0.0125017 -1.87604e-18 -0.0231703 -2.04523e-18 0.000599646)
(0.0255082 -0.00720292 1.15733e-18 -0.0259793 3.22778e-18 0.000471108)
(0.0276495 -0.00307933 1.01237e-18 -0.0279565 -3.02324e-18 0.000307079)
(0.0303715 0.000416735 -1.54458e-18 -0.0304809 1.62256e-18 0.000109397)
(-0.0740759 -0.150003 2.15026e-19 0.07401 -1.87233e-19 6.59121e-05)
(-0.0409435 -0.120854 4.67795e-20 0.0407724 2.89125e-19 0.00017114)
(-0.020969 -0.0982766 3.16403e-19 0.0207086 -4.58048e-19 0.000260462)
(-0.00841124 -0.0801307 -1.23931e-18 0.00807581 2.00764e-19 0.000335433)
(-0.000150306 -0.0653149 2.76085e-19 -0.000246156 -2.11016e-21 0.000396461)
(0.0058277 -0.0525646 -1.25607e-18 -0.00627075 5.30219e-19 0.000443055)
(0.010111 -0.0416974 9.60791e-19 -0.0105853 -6.12152e-19 0.000474329)
(0.0136583 -0.0320171 -1.42723e-18 -0.0141473 6.55503e-19 0.000489009)
(0.016428 -0.0235264 -3.92585e-19 -0.0169138 -1.30853e-18 0.000485812)
(0.0190263 -0.0158571 -1.38604e-18 -0.0194898 -1.82394e-19 0.000463462)
(0.0212607 -0.00900961 8.40179e-19 -0.0216818 1.85793e-18 0.00042108)
(0.0234087 -0.00297742 6.92642e-19 -0.0237669 2.59162e-18 0.000358279)
(0.025748 0.00262667 1.41375e-19 -0.0260236 -1.71672e-19 0.000275681)
(0.0275083 0.00688512 1.32871e-18 -0.0276833 -3.57583e-19 0.000175008)
(0.0296707 0.010851 -1.53264e-18 -0.0297306 3.14453e-19 5.98563e-05)
(-0.0584461 -0.156034 -4.35893e-19 0.0584162 8.89355e-20 2.98292e-05)
(-0.0299644 -0.119584 -8.946e-20 0.029887 6.99187e-19 7.74073e-05)
(-0.0131209 -0.0931408 1.15643e-19 0.0130038 -6.14689e-20 0.000117114)
(-0.00277711 -0.0730004 -9.40919e-19 0.00262782 1.64185e-19 0.00014929)
(0.00383453 -0.0571663 -3.71455e-19 -0.00400842 5.01808e-19 0.00017389)
(0.0084857 -0.0438942 -8.25448e-19 -0.00867631 -3.44199e-19 0.000190604)
(0.0116944 -0.0328204 -1.68536e-18 -0.0118934 2.35694e-19 0.000199074)
(0.0143036 -0.0230343 -3.94456e-19 -0.0145026 4.69724e-19 0.00019894)
(0.0162655 -0.0145419 -1.2791e-18 -0.0164555 5.88358e-19 0.000190071)
(0.0181285 -0.00683661 -1.07095e-18 -0.0183011 8.91266e-19 0.000172596)
(0.0196912 2.96844e-05 -1.05135e-18 -0.0198385 6.39933e-19 0.00014724)
(0.0212642 0.00613217 8.0821e-19 -0.0213795 -1.12021e-18 0.000115315)
(0.0229491 0.0119188 5.56534e-19 -0.0230283 4.50406e-19 7.92674e-05)
(0.0243553 0.0163149 3.66753e-19 -0.0243978 -1.18833e-18 4.24943e-05)
(0.0258816 0.020586 4.13552e-19 -0.0258919 -1.16947e-19 1.02614e-05)
(-0.0424716 -0.160581 1.49271e-19 0.042478 -1.92066e-19 -6.36463e-06)
(-0.0205382 -0.117999 -1.56569e-19 0.0205548 -9.87529e-20 -1.66006e-05)
(-0.00775756 -0.0883364 2.44756e-19 0.00778416 -4.74432e-20 -2.66005e-05)
(-4.51462e-05 -0.0665607 -4.27326e-19 8.2379e-05 2.41824e-19 -3.72328e-05)
(0.00476049 -0.0499148 7.98123e-20 -0.00471149 4.95096e-20 -4.89929e-05)
(0.00805678 -0.0362477 2.34991e-21 -0.00799477 7.52169e-19 -6.20089e-05)
(0.0102389 -0.0250443 1.40128e-19 -0.0101628 1.13869e-19 -7.61205e-05)
(0.0119768 -0.0152088 -2.78586e-19 -0.0118861 -1.66042e-19 -9.07807e-05)
(0.0132147 -0.00675648 1.73044e-19 -0.0131097 -3.02872e-20 -0.000105001)
(0.0144076 0.00094671 3.79757e-20 -0.0142904 -2.2256e-21 -0.000117266)
(0.0153508 0.00778707 7.77836e-19 -0.0152255 -2.91069e-19 -0.000125312)
(0.0163923 0.0139303 -4.80872e-19 -0.0162662 -3.96751e-19 -0.000126168)
(0.0173925 0.0198224 -1.03454e-19 -0.0172768 -2.92458e-19 -0.000115662)
(0.0184952 0.0243036 -6.85651e-19 -0.0184064 -1.11338e-18 -8.87935e-05)
(0.0192765 0.02877 -1.06439e-18 -0.0192377 5.7781e-19 -3.87924e-05)
(-0.0262391 -0.163667 -1.15022e-19 0.0262814 5.06926e-20 -4.2236e-05)
(-0.012366 -0.116633 -2.51088e-19 0.0124757 4.89965e-19 -0.000109744)
(-0.00439289 -0.0846503 -3.35944e-19 0.00456182 2.8305e-19 -0.000168933)
(0.000355875 -0.0617023 -2.55646e-19 -0.000134024 2.96168e-20 -0.000221852)
(0.00323077 -0.0444841 -3.72969e-19 -0.00296133 1.29047e-19 -0.000269438)
(0.0051508 -0.0305456 -3.57619e-19 -0.00483915 -1.11784e-19 -0.000311646)
(0.00634768 -0.0192652 -1.10501e-19 -0.00599987 -2.69076e-19 -0.000347809)
(0.00727048 -0.00940762 -6.00254e-19 -0.00689397 9.73293e-20 -0.000376507)
(0.00785977 -0.00100471 -2.31863e-19 -0.00746411 5.56575e-20 -0.000395665)
(0.00843951 0.00668791 -4.02949e-19 -0.00803706 1.74988e-20 -0.000402445)
(0.0088255 0.0134634 -5.71239e-20 -0.0084324 -2.70078e-20 -0.0003931)
(0.00934789 0.0196666 -3.60621e-19 -0.00898479 -4.03032e-19 -0.0003631)
(0.00967591 0.025463 -4.12285e-19 -0.00936928 -5.45628e-20 -0.000306632)
(0.0103702 0.0301461 -2.50097e-19 -0.010153 9.33099e-21 -0.000217213)
(0.0103569 0.0345412 -4.5091e-19 -0.0102702 6.75119e-20 -8.66666e-05)
(-0.00982279 -0.165297 -2.93578e-19 0.00990015 -3.85807e-20 -7.73577e-05)
(-0.00499739 -0.115884 -3.39692e-19 0.00519831 1.41836e-19 -0.000200919)
(-0.00231649 -0.0826621 -7.63958e-20 0.00262468 1.69104e-19 -0.000308188)
(-0.000750534 -0.0590857 -2.37109e-19 0.0011529 5.92902e-20 -0.000402363)
(0.000110932 -0.0415611 -1.82928e-19 0.000373878 1.12218e-19 -0.00048481)
(0.000637767 -0.0274766 -3.61714e-19 -8.24533e-05 2.00089e-19 -0.000555314)
(0.000874199 -0.0161589 -4.99016e-19 -0.000261466 1.59706e-20 -0.000612733)
(0.00101307 -0.00629313 -5.33206e-19 -0.000358264 2.45821e-20 -0.000654805)
(0.000999586 0.00207082 -2.86292e-19 -0.000321152 -1.60822e-20 -0.000678434)
(0.000990375 0.00974648 -3.9864e-19 -0.000310857 -8.81482e-20 -0.000679517)
(0.000867102 0.0164613 -1.5778e-19 -0.000214175 -1.71037e-19 -0.000652927)
(0.000840515 0.0226902 -2.68918e-19 -0.000247859 -3.15599e-19 -0.000592656)
(0.000593447 0.0283995 -2.56285e-19 -0.000102068 -8.45387e-20 -0.000491379)
(0.000726821 0.033257 1.10128e-19 -0.000385577 -9.65986e-20 -0.000341244)
(1.27007e-05 0.0375504 3.48301e-21 0.000120094 6.81003e-20 -0.000132795)
(0.00670634 -0.165458 -2.23923e-19 -0.00659501 -3.82771e-20 -0.000111327)
(0.00211371 -0.115943 -2.17436e-19 -0.00182464 2.42212e-19 -0.000289074)
(-0.000681276 -0.0826681 -2.06272e-19 0.00112404 1.70362e-19 -0.000442761)
(-0.00238589 -0.0590513 -2.10617e-19 0.00296257 -2.62531e-21 -0.000576678)
(-0.00357436 -0.041502 -2.00765e-19 0.00426697 1.01707e-19 -0.000692605)
(-0.00445273 -0.0273971 -3.8611e-19 0.0052429 9.17923e-20 -0.000790169)
(-0.00517202 -0.0160701 -4.95022e-19 0.00603979 -1.19436e-20 -0.00086778)
(-0.00581091 -0.00619446 -4.49424e-19 0.0067333 2.77733e-20 -0.000922392)
(-0.00641562 0.0021633 -3.80107e-19 0.00736557 3.54025e-20 -0.000949947)
(-0.0070117 0.00983906 -4.19621e-19 0.00795687 -2.49864e-20 -0.000945174)
(-0.00763932 0.0165111 -2.31528e-19 0.00854097 -7.6162e-20 -0.00090165)
(-0.00822173 0.0227591 -2.10709e-19 0.00903375 -2.12964e-19 -0.000812023)
(-0.00903519 0.0283074 -4.26748e-20 0.00970275 -8.15903e-20 -0.000667564)
(-0.00944493 0.0333212 1.20281e-19 0.00990416 -5.71234e-20 -0.000459234)
(-0.0107292 0.0373751 2.27997e-20 0.0109057 1.24925e-20 -0.000176499)
(0.0232687 -0.16412 -1.21358e-20 -0.023125 -1.87091e-19 -0.000143766)
(0.0095474 -0.116802 -2.39367e-20 -0.00917417 2.81152e-20 -0.00037323)
(0.00141461 -0.084666 -6.05246e-19 -0.000843458 6.35779e-20 -0.000571152)
(-0.00350616 -0.0616056 -2.29669e-19 0.00424901 -3.34401e-21 -0.000742853)
(-0.0067288 -0.0443185 -2.96564e-19 0.00761931 1.41841e-19 -0.000890501)
(-0.0090173 -0.0303248 -3.77915e-19 0.0100309 3.91161e-19 -0.00101358)
(-0.010706 -0.0190223 -5.66825e-19 0.0118161 1.06947e-19 -0.00111009)
(-0.0121418 -0.00914207 -3.65661e-19 0.0133181 8.20498e-20 -0.00117626)
(-0.013356 -0.00076326 -4.22165e-19 0.0145631 -7.16273e-20 -0.00120715)
(-0.0145609 0.0069244 -3.27131e-19 0.0157573 -6.82918e-20 -0.00119642)
(-0.015703 0.0135788 -5.74604e-19 0.0168395 5.19314e-20 -0.00113647)
(-0.0168759 0.0198348 -2.81981e-19 0.0178946 -6.48947e-20 -0.00101874)
(-0.0182173 0.0252257 -6.5596e-20 0.0190505 -7.64046e-20 -0.000833254)
(-0.0192702 0.0302968 -3.29913e-20 0.0198402 -1.5464e-20 -0.000569943)
(-0.0210011 0.0340604 1.60199e-19 0.0212184 7.44536e-21 -0.000217348)
(0.0397682 -0.161239 1.31877e-19 -0.0395938 -1.20128e-19 -0.000174325)
(0.0178339 -0.118232 5.6207e-19 -0.0173814 7.5221e-19 -0.000452479)
(0.00481046 -0.0883462 -5.48976e-19 -0.00411848 1.71387e-19 -0.00069198)
(-0.00313626 -0.0664061 2.15146e-19 0.00403536 -6.21277e-20 -0.0008991)
(-0.00832859 -0.0496606 -2.79628e-19 0.00940496 1.07126e-19 -0.00107637)
(-0.0120261 -0.0359127 -2.45811e-19 0.0132492 -2.88922e-20 -0.00122315)
(-0.0147186 -0.0246746 -2.35992e-19 0.0160557 -2.6077e-19 -0.00133706)
(-0.0169958 -0.0148006 9.17559e-20 0.0184095 4.11598e-20 -0.00141367)
(-0.0188701 -0.00637606 -8.05636e-19 0.0203173 -4.6679e-20 -0.00144725)
(-0.0207284 0.00133493 3.00566e-19 0.0221589 3.3935e-19 -0.0014305)
(-0.0224123 0.0079942 -1.38816e-19 0.0237671 6.07618e-20 -0.0013548)
(-0.0242227 0.0142427 3.70284e-19 0.0254332 2.00896e-19 -0.00121052)
(-0.0260329 0.0194607 -5.93265e-19 0.0270195 7.49459e-19 -0.000986616)
(-0.0278436 0.0244966 -5.90186e-19 0.0285157 8.36703e-21 -0.000672169)
(-0.0298192 0.0279868 -4.44927e-19 0.0300742 -2.35079e-19 -0.00025493)
(0.0560842 -0.156767 -1.26017e-19 -0.0558815 -7.46524e-19 -0.000202693)
(0.0274064 -0.119827 1.02964e-19 -0.0268804 4.49971e-20 -0.000526014)
(0.0102105 -0.0931266 -5.67463e-19 -0.00940647 9.59e-20 -0.000804011)
(-0.000446652 -0.0728011 2.07886e-19 0.00149048 8.89376e-20 -0.00104383)
(-0.00749336 -0.0568562 -1.08844e-18 0.00874168 2.23387e-19 -0.00124833)
(-0.0125834 -0.0434944 -6.02711e-19 0.0140001 6.08389e-19 -0.00141674)
(-0.0163194 -0.0323819 -1.7378e-18 0.0178657 -4.72117e-19 -0.00154637)
(-0.0194923 -0.0225522 -1.1998e-18 0.0211245 4.2766e-19 -0.00163219)
(-0.0220938 -0.0140883 -9.00184e-19 0.0237616 -3.82736e-19 -0.00166777)
(-0.0246662 -0.00637623 -4.35644e-19 0.0263112 -1.17504e-18 -0.00164499)
(-0.0269499 0.000297636 -1.06994e-19 0.0285042 5.45749e-19 -0.00155433)
(-0.0294511 0.00648607 -6.51488e-19 0.0308364 4.66422e-19 -0.00138528)
(-0.0317817 0.0115815 -3.38985e-19 0.0329076 8.50301e-19 -0.00112592)
(-0.0342899 0.0164612 -8.1587e-19 0.0350546 5.95371e-19 -0.000764652)
(-0.0366463 0.0195983 -5.795e-19 0.0369351 -4.37979e-19 -0.000288785)
(0.0720715 -0.150662 5.56687e-19 -0.0718429 -7.28183e-20 -0.000228586)
(0.0385271 -0.121035 -4.57471e-19 -0.037934 3.01405e-19 -0.000593107)
(0.0180843 -0.0982175 9.50008e-20 -0.0171782 -1.36021e-19 -0.00090615)
(0.00512869 -0.0799032 1.15185e-18 -0.00395306 8.13921e-19 -0.00117563)
(-0.00361737 -0.0649919 -1.03554e-18 0.00502208 -1.49122e-20 -0.00140471)
(-0.0100721 -0.0521655 9.6837e-19 0.0116646 1.34378e-18 -0.00159251)
(-0.0148991 -0.0412671 -2.3978e-18 0.0166352 -2.11631e-19 -0.00173604)
(-0.0190311 -0.03155 1.28476e-18 0.0208609 -9.12996e-20 -0.00182976)
(-0.022442 -0.0230804 -1.57873e-18 0.0243087 -1.02414e-19 -0.00186666)
(-0.0257845 -0.015409 -2.56671e-21 0.0276224 7.98934e-19 -0.00183789)
(-0.0287131 -0.00871606 -9.1839e-19 0.0304464 -3.01558e-19 -0.00173323)
(-0.0319458 -0.00266353 -3.81903e-19 0.0334873 2.49051e-19 -0.00154145)
(-0.0347052 0.0023474 -5.56641e-19 0.0359552 2.1791e-19 -0.00124998)
(-0.0381041 0.00683291 -1.97725e-18 0.0389509 1.81204e-20 -0.000846767)
(-0.0406866 0.00964238 7.7019e-19 0.0410054 4.70913e-19 -0.000318742)
(0.0875568 -0.142895 -9.92232e-19 -0.0873051 -8.6139e-19 -0.000251771)
(0.0512655 -0.121222 -2.72285e-19 -0.0506124 3.44484e-19 -0.000653151)
(0.0286242 -0.102691 -4.14127e-19 -0.0276268 -1.46839e-18 -0.000997473)
(0.0138454 -0.0866601 -7.0207e-19 -0.012552 -7.17664e-21 -0.00129333)
(0.00358458 -0.0729738 -2.88447e-19 -0.00204045 1.76458e-19 -0.00154413)
(-0.00419297 -0.0608321 -1.96683e-19 0.00594189 9.73392e-19 -0.00174892)
(-0.0101553 -0.0502643 3.39004e-19 0.0120598 1.04518e-18 -0.00190444)
(-0.0153067 -0.0407645 9.18267e-19 0.0173114 8.25216e-19 -0.00200471)
(-0.0196129 -0.03238 -1.91426e-18 0.0216551 3.28993e-19 -0.00204224)
(-0.0237658 -0.0248421 2.93548e-18 0.0257734 5.65044e-20 -0.00200757)
(-0.0274366 -0.0181993 -7.42022e-19 0.0293265 1.90391e-18 -0.00188995)
(-0.0313146 -0.0123662 1.30248e-18 0.0329922 1.07019e-18 -0.00167759)
(-0.0347817 -0.00739223 -2.38339e-18 0.0361392 2.1359e-18 -0.00135752)
(-0.038769 -0.00328873 -3.17545e-19 0.0396865 -8.79256e-19 -0.000917437)
(-0.0418329 -0.000596276 1.90029e-18 0.0421772 7.15528e-19 -0.00034429)
(0.102347 -0.133464 2.29801e-18 -0.102074 7.73089e-19 -0.000272039)
(0.0654693 -0.119739 5.11046e-21 -0.0647637 1.16843e-19 -0.000705618)
(0.0417124 -0.105587 5.04985e-20 -0.0406352 8.90745e-19 -0.0010772)
(0.0256134 -0.0919796 3.262e-19 -0.0242174 -5.25309e-19 -0.00139593)
(0.0140461 -0.0796672 1.09023e-18 -0.0123806 8.42721e-20 -0.00166546)
(0.00500675 -0.0683597 -2.87457e-19 -0.00312202 -1.51267e-18 -0.00188474)
(-0.00212148 -0.0582636 2.35299e-18 0.00417177 1.01055e-18 -0.00205029)
(-0.00834794 -0.0491123 -1.6996e-18 0.0105037 -3.02942e-19 -0.00215578)
(-0.0136356 -0.0409367 2.80162e-18 0.0158289 1.93669e-18 -0.00219329)
(-0.0186713 -0.033631 -5.32409e-19 0.0208242 -2.70243e-18 -0.00215294)
(-0.02314 -0.0271669 1.86113e-18 0.0251635 2.16423e-18 -0.00202354)
(-0.0277162 -0.0215533 -1.7341e-18 0.0295091 -1.05737e-18 -0.00179294)
(-0.0317353 -0.0168627 4.72647e-19 0.0331833 3.19553e-18 -0.001448)
(-0.0362503 -0.0129103 9.77915e-19 0.0372266 -2.29905e-18 -0.000976348)
(-0.0394974 -0.0104535 3.84466e-19 0.0398627 1.36433e-18 -0.000365335)
(0.116229 -0.122395 -8.60868e-19 -0.11594 8.21534e-19 -0.000289238)
(0.0807749 -0.115991 -2.13867e-18 -0.0800247 7.00504e-19 -0.000750108)
(0.0569203 -0.10601 7.38994e-19 -0.0557756 -4.17969e-19 -0.00114472)
(0.0399887 -0.0948332 9.00246e-20 -0.038506 2.67411e-19 -0.00148269)
(0.0273283 -0.0839982 -5.40059e-19 -0.0255605 1.11378e-18 -0.00176783)
(0.0171042 -0.0736714 1.38879e-19 -0.0151051 -4.54894e-19 -0.00199903)
(0.0088025 -0.0642104 1.42376e-18 -0.00662986 1.93918e-18 -0.00217264)
(0.00147168 -0.0555654 -4.36437e-19 0.000810358 -2.19376e-18 -0.00228204)
(-0.00484707 -0.0477485 7.55018e-19 0.00716608 1.78516e-18 -0.00231901)
(-0.0107981 -0.0408008 -1.41367e-18 0.0130714 -8.66589e-19 -0.00227331)
(-0.0160863 -0.0346105 1.64906e-19 0.0182198 8.21524e-19 -0.00213353)
(-0.0213653 -0.0293245 2.74971e-19 0.0232526 5.17971e-19 -0.00188728)
(-0.0259326 -0.024883 1.82355e-18 0.027454 -1.02739e-18 -0.00152143)
(-0.030899 -0.0213651 1.48194e-18 0.0319228 3.53463e-18 -0.00102375)
(-0.034336 -0.0189748 -1.33526e-18 0.034718 -2.93506e-18 -0.000382056)
(0.128985 -0.109755 -1.0971e-18 -0.128682 -1.82097e-18 -0.000303231)
(0.0966269 -0.1095 -7.55672e-20 -0.0958406 -5.43613e-19 -0.000786291)
(0.0735461 -0.103213 1.21164e-18 -0.0723465 1.43072e-18 -0.00119956)
(0.0562204 -0.0943558 -1.36537e-18 -0.0546674 -3.32657e-18 -0.00155302)
(0.042679 -0.0850528 1.36105e-18 -0.0408283 1.32528e-18 -0.00185061)
(0.0313681 -0.0758403 1.24253e-18 -0.0292769 -3.32143e-18 -0.00209115)
(0.021917 -0.067185 1.34188e-18 -0.0196461 2.11996e-18 -0.00227089)
(0.0134853 -0.0592201 -2.90423e-18 -0.0111023 -6.44232e-19 -0.00238296)
(0.00611559 -0.0519361 1.18362e-18 -0.00369662 -6.61784e-19 -0.00241897)
(-0.000755533 -0.0455067 8.22347e-19 0.00312397 4.51696e-19 -0.00236844)
(-0.00685895 -0.0397331 2.65814e-18 0.00907876 -1.01898e-18 -0.00221981)
(-0.0128173 -0.0349139 5.90248e-19 0.0147779 4.10737e-19 -0.00196064)
(-0.0178362 -0.030814 4.8756e-19 0.0194141 -3.52433e-18 -0.00157794)
(-0.0231969 -0.0277514 3.25039e-18 0.0242567 3.10126e-18 -0.00105975)
(-0.0268074 -0.0256285 -4.65106e-18 0.0272019 -3.21419e-18 -0.000394534)
(0.140398 -0.0956505 6.53627e-19 -0.140084 1.6461e-18 -0.000313944)
(0.112331 -0.0999669 1.55238e-18 -0.111517 -1.98775e-19 -0.000813963)
(0.0906752 -0.0966974 4.89983e-19 -0.0894338 2.38069e-18 -0.00124142)
(0.0733153 -0.0899526 -1.04304e-18 -0.0717088 -1.32546e-19 -0.00160655)
(0.0590944 -0.0822009 3.58301e-19 -0.057181 -5.41723e-19 -0.00191338)
(0.0468197 -0.0742284 -2.17079e-19 -0.044659 -4.25288e-19 -0.00216069)
(0.036288 -0.0665606 -1.98004e-18 -0.0339433 -2.86562e-18 -0.00234465)
(0.0268103 -0.0594633 -7.85559e-19 -0.0243521 1.55773e-18 -0.00245825)
(0.0184231 -0.0529053 5.93185e-19 -0.0159301 -3.15399e-18 -0.00249297)
(0.0106778 -0.0471619 -7.98797e-19 -0.00823954 -2.0196e-18 -0.00243822)
(0.00378311 -0.0419525 -2.21178e-18 -0.00150067 -1.99748e-18 -0.00228244)
(-0.00278288 -0.0377407 -3.62199e-18 0.00479612 2.05112e-18 -0.00201323)
(-0.00825911 -0.0340224 4.51187e-18 0.00987696 -2.29341e-18 -0.00161784)
(-0.0138438 -0.0315737 -4.04573e-18 0.0149284 -4.75373e-19 -0.00108468)
(-0.0176786 -0.0296101 1.91509e-18 0.0180815 1.17628e-18 -0.00040289)
(0.150261 -0.0802281 -4.43036e-19 -0.149939 -4.5494e-19 -0.00032131)
(0.1271 -0.0873043 3.86308e-19 -0.126267 -3.11302e-19 -0.000832976)
(0.107255 -0.0862512 -6.14999e-19 -0.105985 -4.18458e-19 -0.00127011)
(0.0901166 -0.0813505 -1.74727e-19 -0.0884736 1.7038e-18 -0.00164306)
(0.0753939 -0.0751375 -2.49696e-19 -0.073438 -1.03995e-18 -0.00195595)
(0.0622914 -0.068515 5.28311e-19 -0.0600839 1.73965e-18 -0.0022075)
(0.0507807 -0.0620119 -1.51498e-18 -0.0483869 -2.76367e-18 -0.00239383)
(0.0403469 -0.0559686 9.32154e-19 -0.037839 1.59898e-18 -0.00250789)
(0.0310123 -0.050335 -3.42069e-18 -0.0284712 9.16621e-20 -0.0025411)
(0.0224696 -0.0454493 -1.81068e-18 -0.0199867 6.84353e-19 -0.0024829)
(0.0148373 -0.0409647 2.51452e-18 -0.0125155 -2.64185e-18 -0.00232177)
(0.00776567 -0.0374942 4.64352e-18 -0.00572019 -1.33935e-18 -0.00204548)
(0.00184176 -0.0342376 -1.10188e-18 -0.000200166 6.39407e-19 -0.00164159)
(-0.00381036 -0.0325028 -9.6284e-20 0.00490932 -2.03995e-18 -0.00109896)
(-0.00792584 -0.030736 3.13275e-19 0.0083332 2.12509e-18 -0.000407355)
(0.15839 -0.0636741 1.97473e-19 -0.158065 5.72152e-19 -0.000325323)
(0.140136 -0.0716537 1.46031e-18 -0.139292 -4.72107e-19 -0.000843298)
(0.122201 -0.0719861 -1.1307e-19 -0.120915 -1.31005e-18 -0.00128556)
(0.105431 -0.0686341 6.79052e-20 -0.103768 1.1825e-18 -0.00166252)
(0.0903612 -0.0639253 8.66917e-19 -0.088383 -1.87373e-19 -0.00197828)
(0.0765884 -0.0587417 -9.13926e-19 -0.0743568 1.03465e-18 -0.00223156)
(0.0642476 -0.053562 3.54191e-19 -0.0618292 3.39581e-18 -0.00241848)
(0.0530006 -0.048739 1.01453e-18 -0.0504687 -4.28087e-19 -0.00253197)
(0.0428466 -0.0442139 1.2446e-18 -0.0402831 2.3179e-18 -0.00256351)
(0.0336333 -0.0403381 1.61758e-18 -0.0311307 1.58341e-18 -0.00250261)
(0.0253503 -0.036746 3.97232e-19 -0.0230123 3.22756e-18 -0.00233794)
(0.0179027 -0.0341125 -4.24962e-18 -0.0158452 -1.53724e-18 -0.00205751)
(0.0115146 -0.0314864 2.64509e-19 -0.00986536 -1.25999e-18 -0.00164924)
(0.00594268 -0.0303992 -3.22942e-18 -0.00484017 -7.04863e-19 -0.00110251)
(0.00155415 -0.0289944 -5.62599e-19 -0.00114631 -2.94222e-18 -0.000407837)
(0.16463 -0.0462068 -6.31597e-19 -0.164304 -1.19769e-18 -0.000325975)
(0.150689 -0.0533917 -1.00814e-18 -0.149844 -4.88908e-19 -0.000844942)
(0.134487 -0.0543408 -1.27547e-19 -0.133199 -1.40431e-18 -0.00128784)
(0.118121 -0.0522569 5.8099e-19 -0.116456 -5.82286e-20 -0.00166501)
(0.102833 -0.0490112 -2.92804e-19 -0.100852 -1.13461e-18 -0.00198052)
(0.0885582 -0.0453385 2.57928e-18 -0.0863251 -1.58335e-18 -0.0022331)