/*--------------------------------*- C++ -*----------------------------------*\
| =========                 |                                                 |
| \\      /  F ield         | foam-extend: Open Source CFD                    |
|  \\    /   O peration     | Version:  3.0                                   |
|   \\  /    A nd           | Web:         http://www.extend-project.de       |
|    \\/     M anipulation  |                                                 |
\*---------------------------------------------------------------------------*/
FoamFile
{
    version     2.0;
    format      ascii;
    class       volScalarField;
    location    "29";
    object      p;
}
// * * * * * * * * * * * * * * * * * * * * * * * * * * * * * * * * * * * * * //

dimensions      [0 0 0 0 0 0 0];

internalField   nonuniform List<scalar> 
7680
(
-0.234754
-0.222764
-0.213894
-0.204517
-0.19774
-0.190294
-0.185074
-0.179099
-0.175065
-0.170235
-0.167123
-0.1632
-0.160812
-0.157617
-0.155804
-0.153196
-0.151839
-0.149707
-0.148708
-0.146959
-0.146237
-0.144794
-0.144277
-0.143068
-0.142691
-0.141656
-0.141357
-0.140435
-0.140155
-0.139287
-0.138967
-0.138096
-0.137672
-0.136738
-0.136145
-0.135083
-0.13425
-0.132992
-0.13184
-0.13031
-0.234516
-0.222538
-0.213677
-0.204309
-0.197539
-0.190101
-0.184886
-0.178916
-0.174887
-0.170061
-0.166952
-0.163033
-0.160648
-0.157456
-0.155644
-0.153039
-0.151683
-0.149553
-0.148555
-0.146808
-0.146087
-0.144645
-0.144128
-0.142921
-0.142544
-0.141509
-0.141211
-0.140289
-0.14001
-0.139143
-0.138823
-0.137953
-0.137529
-0.136596
-0.136004
-0.134943
-0.13411
-0.132854
-0.131703
-0.130175
-0.234
-0.222049
-0.213208
-0.20386
-0.197106
-0.189684
-0.184481
-0.178525
-0.174504
-0.169689
-0.166587
-0.162677
-0.160297
-0.157112
-0.155305
-0.152705
-0.151353
-0.149227
-0.148232
-0.146489
-0.145769
-0.144331
-0.143815
-0.142611
-0.142235
-0.141203
-0.140905
-0.139986
-0.139707
-0.138842
-0.138523
-0.137655
-0.137232
-0.136301
-0.13571
-0.134652
-0.133821
-0.132568
-0.131419
-0.129894
-0.233261
-0.221348
-0.212534
-0.203216
-0.196483
-0.189084
-0.183897
-0.17796
-0.173952
-0.169152
-0.16606
-0.162162
-0.159789
-0.156614
-0.154813
-0.152221
-0.150873
-0.148754
-0.147762
-0.146024
-0.145307
-0.143872
-0.143358
-0.142158
-0.141783
-0.140754
-0.140457
-0.139541
-0.139263
-0.138401
-0.138082
-0.137217
-0.136796
-0.135867
-0.135278
-0.134223
-0.133395
-0.132145
-0.131001
-0.12948
-0.232245
-0.220384
-0.211608
-0.202332
-0.195628
-0.188261
-0.183098
-0.177186
-0.173196
-0.168417
-0.165338
-0.161458
-0.159096
-0.155934
-0.154141
-0.151561
-0.150218
-0.148109
-0.147121
-0.145392
-0.144678
-0.143249
-0.142738
-0.141543
-0.14117
-0.140145
-0.13985
-0.138938
-0.138661
-0.137803
-0.137486
-0.136624
-0.136205
-0.135281
-0.134694
-0.133644
-0.13282
-0.131575
-0.130436
-0.128922
-0.231008
-0.219209
-0.210481
-0.201253
-0.194585
-0.187258
-0.182121
-0.176241
-0.172272
-0.167519
-0.164456
-0.160596
-0.158246
-0.155102
-0.153318
-0.150752
-0.149416
-0.147318
-0.146335
-0.144615
-0.143904
-0.142484
-0.141975
-0.140786
-0.140415
-0.139396
-0.139102
-0.138194
-0.137919
-0.137065
-0.13675
-0.135893
-0.135476
-0.134557
-0.133973
-0.132929
-0.132108
-0.130871
-0.129737
-0.128232
-0.229495
-0.217775
-0.209103
-0.199936
-0.193312
-0.186033
-0.18093
-0.175089
-0.171146
-0.166424
-0.163382
-0.159547
-0.157213
-0.154089
-0.152317
-0.149768
-0.148441
-0.146357
-0.145381
-0.143672
-0.142966
-0.141555
-0.14105
-0.139869
-0.1395
-0.138488
-0.138196
-0.137295
-0.137021
-0.136173
-0.13586
-0.135009
-0.134595
-0.133681
-0.133102
-0.132064
-0.131249
-0.13002
-0.128894
-0.127398
-0.227765
-0.216132
-0.207526
-0.198428
-0.191854
-0.184629
-0.179565
-0.173768
-0.169854
-0.165168
-0.162148
-0.158342
-0.156026
-0.152926
-0.151167
-0.148637
-0.14732
-0.145251
-0.144282
-0.142586
-0.141886
-0.140485
-0.139983
-0.138811
-0.138445
-0.137441
-0.137151
-0.136256
-0.135985
-0.135143
-0.134832
-0.133987
-0.133576
-0.13267
-0.132095
-0.131065
-0.130256
-0.129036
-0.127918
-0.126434
-0.225763
-0.214233
-0.205703
-0.196685
-0.190168
-0.183008
-0.177988
-0.172242
-0.168363
-0.163718
-0.160725
-0.156953
-0.154657
-0.151584
-0.149841
-0.147333
-0.146028
-0.143978
-0.143018
-0.141337
-0.140642
-0.139254
-0.138757
-0.137596
-0.137233
-0.136237
-0.13595
-0.135064
-0.134795
-0.133961
-0.133653
-0.132815
-0.132408
-0.131509
-0.130939
-0.129918
-0.129117
-0.127908
-0.1268
-0.125328
-0.223547
-0.21213
-0.203683
-0.194754
-0.188301
-0.181211
-0.17624
-0.17055
-0.16671
-0.16211
-0.159146
-0.155411
-0.153138
-0.150095
-0.148368
-0.145885
-0.144593
-0.142563
-0.141612
-0.139947
-0.139259
-0.137885
-0.137393
-0.136242
-0.135883
-0.134897
-0.134613
-0.133735
-0.133468
-0.132642
-0.132337
-0.131508
-0.131105
-0.130215
-0.12965
-0.12864
-0.127846
-0.126648
-0.125551
-0.124095
-0.221064
-0.209774
-0.201421
-0.192591
-0.186211
-0.179199
-0.174284
-0.168658
-0.16486
-0.160311
-0.157381
-0.153687
-0.151439
-0.14843
-0.146723
-0.144268
-0.14299
-0.140983
-0.140043
-0.138396
-0.137717
-0.136357
-0.135871
-0.134733
-0.134378
-0.133404
-0.133123
-0.132254
-0.131991
-0.131174
-0.130873
-0.130053
-0.129654
-0.128774
-0.128216
-0.127216
-0.126432
-0.125248
-0.124163
-0.122722
-0.218372
-0.207219
-0.198968
-0.190246
-0.183942
-0.177016
-0.172161
-0.166603
-0.162851
-0.158358
-0.155463
-0.151814
-0.149593
-0.146621
-0.144935
-0.142509
-0.141247
-0.139264
-0.138335
-0.136708
-0.136037
-0.134694
-0.134213
-0.13309
-0.132739
-0.131776
-0.131498
-0.13064
-0.13038
-0.129574
-0.129276
-0.128466
-0.128072
-0.127203
-0.126651
-0.125664
-0.124889
-0.123719
-0.122647
-0.121224
-0.215418
-0.204417
-0.196277
-0.187673
-0.181455
-0.174623
-0.169834
-0.164351
-0.16065
-0.156218
-0.153362
-0.149763
-0.147573
-0.144641
-0.142977
-0.140585
-0.13934
-0.137384
-0.136467
-0.134863
-0.134201
-0.132877
-0.132402
-0.131294
-0.130948
-0.129998
-0.129725
-0.128878
-0.128622
-0.127826
-0.127532
-0.126734
-0.126345
-0.125488
-0.124944
-0.12397
-0.123205
-0.122051
-0.120994
-0.11959
-0.212262
-0.201421
-0.193401
-0.184923
-0.178796
-0.172064
-0.167344
-0.161942
-0.158295
-0.153928
-0.151114
-0.147567
-0.145409
-0.142519
-0.14088
-0.138523
-0.137296
-0.135368
-0.134465
-0.132885
-0.132232
-0.130927
-0.13046
-0.129367
-0.129027
-0.12809
-0.127821
-0.126987
-0.126734
-0.12595
-0.12566
-0.124873
-0.12449
-0.123645
-0.123109
-0.12215
-0.121396
-0.120259
-0.119217
-0.117834
-0.20885
-0.198184
-0.190293
-0.181951
-0.175923
-0.169299
-0.164656
-0.15934
-0.155752
-0.151456
-0.148687
-0.145198
-0.143074
-0.140232
-0.138619
-0.136299
-0.135092
-0.133196
-0.132308
-0.130753
-0.130111
-0.128827
-0.128367
-0.127293
-0.126957
-0.126037
-0.125771
-0.124951
-0.124702
-0.123931
-0.123646
-0.122872
-0.122495
-0.121664
-0.121136
-0.120192
-0.119451
-0.118332
-0.117307
-0.115946
-0.205242
-0.194761
-0.187006
-0.178808
-0.172884
-0.166374
-0.161811
-0.156587
-0.153061
-0.148838
-0.146118
-0.142688
-0.140601
-0.137808
-0.136223
-0.133943
-0.132757
-0.130893
-0.13002
-0.128492
-0.127861
-0.126599
-0.126147
-0.125091
-0.124762
-0.123857
-0.123596
-0.122789
-0.122545
-0.121787
-0.121507
-0.120746
-0.120375
-0.119559
-0.119041
-0.118112
-0.117384
-0.116284
-0.115277
-0.11394
-0.201387
-0.191103
-0.183494
-0.17545
-0.169638
-0.163251
-0.158773
-0.153648
-0.150188
-0.146045
-0.143375
-0.140011
-0.137963
-0.135222
-0.133667
-0.131431
-0.130267
-0.128438
-0.127582
-0.126082
-0.125463
-0.124225
-0.123782
-0.122746
-0.122423
-0.121535
-0.121279
-0.120488
-0.120249
-0.119505
-0.11923
-0.118483
-0.11812
-0.117319
-0.11681
-0.1159
-0.115185
-0.114106
-0.113118
-0.111805
-0.197344
-0.187266
-0.17981
-0.171928
-0.166231
-0.159972
-0.155585
-0.150562
-0.147172
-0.143112
-0.140496
-0.137198
-0.135192
-0.132506
-0.130982
-0.12879
-0.127649
-0.125858
-0.125018
-0.123549
-0.122942
-0.121729
-0.121294
-0.120279
-0.119962
-0.119092
-0.118841
-0.118066
-0.117831
-0.117102
-0.116833
-0.116101
-0.115745
-0.11496
-0.114462
-0.113569
-0.112869
-0.111812
-0.110843
-0.109557
-0.193062
-0.183203
-0.175909
-0.168198
-0.162626
-0.156503
-0.152211
-0.147297
-0.14398
-0.140009
-0.13745
-0.134224
-0.132261
-0.129634
-0.128143
-0.125999
-0.124883
-0.12313
-0.122309
-0.120872
-0.120279
-0.119092
-0.118667
-0.117674
-0.117364
-0.116513
-0.116268
-0.115509
-0.11528
-0.114567
-0.114303
-0.113588
-0.113239
-0.112471
-0.111984
-0.111111
-0.110426
-0.109391
-0.108444
-0.107186
-0.188602
-0.17897
-0.171844
-0.164311
-0.158867
-0.152886
-0.148693
-0.143893
-0.140652
-0.136772
-0.134272
-0.131121
-0.129203
-0.126636
-0.12518
-0.123086
-0.121995
-0.120283
-0.119481
-0.118077
-0.117497
-0.116337
-0.115922
-0.114952
-0.114649
-0.113818
-0.113578
-0.112837
-0.112613
-0.111916
-0.111659
-0.11096
-0.110619
-0.109869
-0.109393
-0.10854
-0.107871
-0.10686
-0.105935
-0.104705
-0.183911
-0.174519
-0.167571
-0.160225
-0.154917
-0.149085
-0.144996
-0.140316
-0.137156
-0.133373
-0.130935
-0.127862
-0.125993
-0.12349
-0.12207
-0.120028
-0.118965
-0.117295
-0.116513
-0.115144
-0.114579
-0.113448
-0.113044
-0.112098
-0.111803
-0.110992
-0.110758
-0.110036
-0.109817
-0.109138
-0.108887
-0.108205
-0.107874
-0.107142
-0.106678
-0.105846
-0.105194
-0.104208
-0.103306
-0.102107
-0.179051
-0.169907
-0.163142
-0.155991
-0.150823
-0.145144
-0.141164
-0.136607
-0.133531
-0.129847
-0.127474
-0.124482
-0.122662
-0.120225
-0.118842
-0.116854
-0.115819
-0.114193
-0.113432
-0.112099
-0.111548
-0.110448
-0.110054
-0.109133
-0.108845
-0.108056
-0.107828
-0.107125
-0.106912
-0.106251
-0.106007
-0.105343
-0.10502
-0.104307
-0.103855
-0.103046
-0.10241
-0.101451
-0.100572
-0.0994054
-0.173972
-0.165088
-0.158515
-0.151567
-0.146546
-0.141028
-0.137161
-0.132733
-0.129745
-0.126166
-0.12386
-0.120953
-0.119185
-0.116817
-0.115474
-0.113542
-0.112537
-0.110958
-0.110218
-0.108923
-0.108388
-0.107319
-0.106936
-0.106041
-0.105762
-0.104995
-0.104775
-0.104091
-0.103885
-0.103242
-0.103005
-0.10236
-0.102046
-0.101354
-0.100915
-0.100128
-0.0995109
-0.0985788
-0.0977251
-0.0965912
-0.168734
-0.160117
-0.153742
-0.147003
-0.142133
-0.136782
-0.13303
-0.128736
-0.125837
-0.122366
-0.12013
-0.11731
-0.115595
-0.113298
-0.111996
-0.110122
-0.109147
-0.107615
-0.106897
-0.105641
-0.105122
-0.104085
-0.103714
-0.102846
-0.102575
-0.101831
-0.101617
-0.100954
-0.100754
-0.100131
-0.0999004
-0.0992748
-0.0989705
-0.0982991
-0.0978732
-0.0971102
-0.0965113
-0.0956073
-0.0947792
-0.0936795
-0.163288
-0.154949
-0.14878
-0.142259
-0.137546
-0.132368
-0.128738
-0.124583
-0.121778
-0.118419
-0.116255
-0.113527
-0.111867
-0.109644
-0.108384
-0.106571
-0.105627
-0.104145
-0.103451
-0.102235
-0.101734
-0.10073
-0.100371
-0.099531
-0.0992691
-0.0985493
-0.0983421
-0.0977009
-0.0975069
-0.0969039
-0.0966813
-0.0960759
-0.0957815
-0.0951319
-0.0947198
-0.0939815
-0.093402
-0.0925271
-0.0917258
-0.0906615
-0.157694
-0.149641
-0.143684
-0.137385
-0.132834
-0.127833
-0.124327
-0.120314
-0.117605
-0.114361
-0.112271
-0.109636
-0.108033
-0.105887
-0.10467
-0.102918
-0.102007
-0.100575
-0.0999049
-0.0987308
-0.0982462
-0.0972769
-0.09693
-0.0961189
-0.0958659
-0.0951707
-0.0949705
-0.0943512
-0.0941637
-0.0935813
-0.0933663
-0.0927816
-0.0924972
-0.0918698
-0.0914717
-0.0907587
-0.090199
-0.0893541
-0.0885802
-0.0875524
-0.151904
-0.144147
-0.138409
-0.132342
-0.127958
-0.123141
-0.119764
-0.115898
-0.113289
-0.110164
-0.108151
-0.105613
-0.104069
-0.102002
-0.10083
-0.0991428
-0.0982651
-0.0968862
-0.0962406
-0.0951098
-0.0946431
-0.0937095
-0.0933755
-0.0925943
-0.0923507
-0.0916812
-0.0914884
-0.090892
-0.0907115
-0.0901506
-0.0899436
-0.0893805
-0.0891066
-0.0885022
-0.0881189
-0.0874321
-0.0868929
-0.0860791
-0.0853336
-0.0843435
-0.145979
-0.138525
-0.13301
-0.12718
-0.122966
-0.118337
-0.115092
-0.111377
-0.108869
-0.105866
-0.103931
-0.101493
-0.100008
-0.098022
-0.0968951
-0.095274
-0.0944304
-0.0931052
-0.0924846
-0.0913978
-0.0909493
-0.090052
-0.0897309
-0.0889801
-0.0887459
-0.0881024
-0.0879171
-0.0873439
-0.0871704
-0.0866313
-0.0864322
-0.085891
-0.0856278
-0.0850469
-0.0846785
-0.0840184
-0.0835003
-0.0827182
-0.0820017
-0.0810502
-0.139871
-0.132728
-0.127444
-0.121858
-0.117822
-0.113386
-0.110277
-0.106718
-0.104315
-0.101438
-0.0995846
-0.097248
-0.0958262
-0.0939229
-0.0928434
-0.0912903
-0.0904822
-0.0892126
-0.0886182
-0.087577
-0.0871474
-0.0862878
-0.0859803
-0.0852611
-0.0850368
-0.0844204
-0.0842429
-0.0836938
-0.0835276
-0.0830112
-0.0828206
-0.0823021
-0.08205
-0.0814935
-0.0811405
-0.0805081
-0.0800117
-0.0792623
-0.0785758
-0.0776642
-0.13364
-0.126815
-0.121767
-0.116429
-0.112572
-0.108334
-0.105364
-0.101963
-0.0996672
-0.0969181
-0.095147
-0.0929143
-0.0915558
-0.0897372
-0.0887057
-0.0872217
-0.0864495
-0.0852363
-0.0846683
-0.0836734
-0.0832628
-0.0824414
-0.0821475
-0.0814602
-0.0812459
-0.0806568
-0.0804872
-0.0799625
-0.0798037
-0.0793102
-0.079128
-0.0786325
-0.0783915
-0.0778598
-0.0775225
-0.0769182
-0.0764439
-0.0757279
-0.0750719
-0.0742009
-0.127238
-0.120741
-0.115934
-0.110853
-0.107181
-0.103146
-0.100318
-0.0970802
-0.0948948
-0.0922777
-0.0905916
-0.0884661
-0.0871728
-0.0854415
-0.0844596
-0.0830468
-0.0823118
-0.0811569
-0.0806162
-0.0796692
-0.0792784
-0.0784965
-0.0782168
-0.0775626
-0.0773587
-0.0767979
-0.0766366
-0.0761371
-0.075986
-0.0755162
-0.0753429
-0.0748712
-0.0746419
-0.0741357
-0.0738146
-0.0732393
-0.0727877
-0.072106
-0.0714815
-0.0706521
-0.120727
-0.114563
-0.110002
-0.10518
-0.101696
-0.0978679
-0.0951842
-0.092112
-0.0900383
-0.087555
-0.085955
-0.0839382
-0.082711
-0.0810682
-0.0801364
-0.0787958
-0.0780983
-0.0770024
-0.0764893
-0.0755906
-0.0752197
-0.0744778
-0.0742123
-0.0735915
-0.0733979
-0.0728658
-0.0727126
-0.0722386
-0.0720951
-0.0716494
-0.0714848
-0.0710372
-0.0708196
-0.0703392
-0.0700345
-0.0694886
-0.0690601
-0.0684132
-0.0678206
-0.0670337
-0.11406
-0.108236
-0.103928
-0.0993727
-0.0960813
-0.0924645
-0.0899293
-0.0870269
-0.085068
-0.082722
-0.0812106
-0.0793053
-0.0781461
-0.0765942
-0.075714
-0.0744477
-0.0737889
-0.0727537
-0.072269
-0.0714201
-0.0710699
-0.0703691
-0.0701184
-0.069532
-0.0693492
-0.0688466
-0.068702
-0.0682543
-0.0681189
-0.0676978
-0.0675424
-0.0671196
-0.0669141
-0.0664603
-0.0661725
-0.0656568
-0.0652519
-0.0646408
-0.0640809
-0.0633374
-0.107298
-0.10182
-0.0977662
-0.0934812
-0.0903848
-0.0869824
-0.0845973
-0.0818669
-0.080024
-0.077817
-0.0763951
-0.0746027
-0.073512
-0.072052
-0.0712239
-0.0700326
-0.0694127
-0.0684388
-0.0679828
-0.0671841
-0.0668546
-0.0661952
-0.0659593
-0.0654075
-0.0652355
-0.0647626
-0.0646265
-0.0642053
-0.0640778
-0.0636816
-0.0635354
-0.0631376
-0.0629442
-0.0625173
-0.0622465
-0.0617613
-0.0613804
-0.0608055
-0.0602787
-0.0595793
-0.100394
-0.0952682
-0.091476
-0.087467
-0.0845701
-0.0813868
-0.0791555
-0.076601
-0.0748769
-0.0728121
-0.0714819
-0.069805
-0.0687847
-0.0674189
-0.0666442
-0.0655297
-0.0649499
-0.0640388
-0.0636123
-0.0628652
-0.062557
-0.0619402
-0.0617196
-0.0612035
-0.0610427
-0.0606003
-0.0604731
-0.0600791
-0.0599599
-0.0595893
-0.0594526
-0.0590805
-0.0588996
-0.0585002
-0.0582469
-0.0577929
-0.0574366
-0.0568987
-0.0564058
-0.0557514
-0.09341
-0.0886406
-0.085112
-0.0813818
-0.0786862
-0.0757243
-0.0736481
-0.0712713
-0.069667
-0.0677457
-0.066508
-0.0649476
-0.0639982
-0.0627273
-0.0620065
-0.0609694
-0.0604298
-0.059582
-0.0591851
-0.0584899
-0.0582031
-0.0576291
-0.0574237
-0.0569435
-0.0567938
-0.0563821
-0.0562637
-0.055897
-0.055786
-0.0554412
-0.0553139
-0.0549676
-0.0547992
-0.0544275
-0.0541918
-0.0537694
-0.0534378
-0.0529372
-0.0524786
-0.0518697
-0.0862983
-0.0818923
-0.0786327
-0.0751867
-0.0726967
-0.0699606
-0.0680427
-0.065847
-0.0643651
-0.0625903
-0.061447
-0.0600057
-0.0591287
-0.0579548
-0.057289
-0.0563311
-0.0558327
-0.0550497
-0.0546831
-0.054041
-0.0537761
-0.053246
-0.0530564
-0.0526129
-0.0524747
-0.0520945
-0.0519852
-0.0516465
-0.0515442
-0.0512256
-0.0511081
-0.0507883
-0.0506328
-0.0502895
-0.0500717
-0.0496815
-0.0493752
-0.0489127
-0.0484891
-0.0479264
-0.0791217
-0.075082
-0.0720933
-0.0689339
-0.0666508
-0.0641421
-0.0623836
-0.0603704
-0.0590116
-0.0573844
-0.0563361
-0.0550145
-0.0542104
-0.053134
-0.0525235
-0.0516452
-0.0511882
-0.0504702
-0.050134
-0.0495452
-0.0493023
-0.0488161
-0.0486423
-0.0482355
-0.0481087
-0.0477601
-0.0476598
-0.0473492
-0.0472553
-0.0469632
-0.0468554
-0.0465621
-0.0464195
-0.0461046
-0.0459049
-0.0455471
-0.0452662
-0.0448422
-0.0444537
-0.0439378
-0.0718328
-0.0681656
-0.0654526
-0.0625845
-0.0605121
-0.0582347
-0.0566385
-0.054811
-0.0535776
-0.0521005
-0.051149
-0.0499494
-0.0492196
-0.0482425
-0.0476884
-0.0468912
-0.0464765
-0.0458248
-0.0455198
-0.0449853
-0.0447649
-0.0443238
-0.044166
-0.0437969
-0.0436819
-0.0433655
-0.0432746
-0.0429927
-0.0429076
-0.0426425
-0.0425447
-0.0422785
-0.0421491
-0.0418633
-0.041682
-0.0413572
-0.0411022
-0.0407172
-0.0403645
-0.0398961
-0.0644946
-0.061202
-0.058766
-0.0561908
-0.05433
-0.0522852
-0.0508519
-0.0492111
-0.0481036
-0.0467774
-0.0459229
-0.0448458
-0.0441905
-0.0433132
-0.0428156
-0.0420997
-0.0417273
-0.0411421
-0.0408682
-0.0403883
-0.0401903
-0.0397941
-0.0396525
-0.0393209
-0.0392177
-0.0389335
-0.0388518
-0.0385987
-0.0385221
-0.038284
-0.0381962
-0.0379571
-0.0378408
-0.0375842
-0.0374214
-0.0371297
-0.0369007
-0.036555
-0.0362383
-0.0358177
-0.0570598
-0.0541471
-0.0519923
-0.0497143
-0.0480683
-0.0462595
-0.0449917
-0.0435403
-0.0425607
-0.0413876
-0.0406319
-0.0396792
-0.0390996
-0.0383236
-0.0378836
-0.0372504
-0.0369212
-0.0364036
-0.0361614
-0.035737
-0.035562
-0.0352116
-0.0350864
-0.0347933
-0.034702
-0.0344508
-0.0343786
-0.0341548
-0.0340872
-0.0338766
-0.033799
-0.0335875
-0.0334848
-0.0332578
-0.0331138
-0.0328557
-0.0326531
-0.0323472
-0.032067
-0.0316948
-0.0495914
-0.04706
-0.0451871
-0.0432072
-0.0417766
-0.0402045
-0.0391026
-0.0378411
-0.0369897
-0.03597
-0.0353132
-0.0344851
-0.0339813
-0.0333069
-0.0329244
-0.032374
-0.0320878
-0.0316379
-0.0314274
-0.0310584
-0.0309063
-0.0306017
-0.0304928
-0.030238
-0.0301586
-0.0299402
-0.0298774
-0.0296827
-0.0296239
-0.0294409
-0.0293733
-0.0291895
-0.0291001
-0.0289028
-0.0287775
-0.0285532
-0.0283771
-0.0281112
-0.0278675
-0.027544
-0.0420424
-0.0398967
-0.0383093
-0.0366312
-0.0354187
-0.0340862
-0.0331523
-0.0320831
-0.0313616
-0.0304974
-0.0299408
-0.029239
-0.0288122
-0.0282406
-0.0279166
-0.0274502
-0.0272077
-0.0268265
-0.0266482
-0.0263356
-0.0262068
-0.0259487
-0.0258566
-0.0256407
-0.0255735
-0.0253884
-0.0253353
-0.0251705
-0.0251207
-0.0249656
-0.0249085
-0.0247527
-0.024677
-0.0245097
-0.0244036
-0.0242134
-0.0240641
-0.0238386
-0.023632
-0.0233577
-0.0344759
-0.0327165
-0.0314147
-0.0300387
-0.0290443
-0.0279517
-0.0271858
-0.0263091
-0.0257174
-0.0250087
-0.0245522
-0.0239767
-0.0236267
-0.0231579
-0.0228922
-0.0225097
-0.0223109
-0.0219982
-0.021852
-0.0215956
-0.0214899
-0.0212782
-0.0212026
-0.0210255
-0.0209704
-0.0208186
-0.0207749
-0.0206397
-0.0205988
-0.0204716
-0.0204247
-0.0202969
-0.0202347
-0.0200975
-0.0200104
-0.0198543
-0.0197318
-0.0195469
-0.0193774
-0.0191524
-0.026845
-0.0254755
-0.0244623
-0.0233913
-0.0226174
-0.021767
-0.021171
-0.0204886
-0.0200282
-0.0194767
-0.0191215
-0.0186737
-0.0184014
-0.0180366
-0.01783
-0.0175324
-0.0173777
-0.0171345
-0.0170208
-0.0168214
-0.0167393
-0.0165746
-0.0165159
-0.0163782
-0.0163354
-0.0162173
-0.0161835
-0.0160783
-0.0160466
-0.0159476
-0.0159112
-0.0158117
-0.0157634
-0.0156566
-0.0155888
-0.0154673
-0.0153719
-0.0152278
-0.0150958
-0.0149205
-0.0192129
-0.0182329
-0.0175079
-0.0167415
-0.0161877
-0.0155792
-0.0151527
-0.0146644
-0.014335
-0.0139403
-0.0136862
-0.0133657
-0.0131709
-0.0129099
-0.012762
-0.012549
-0.0124384
-0.0122643
-0.012183
-0.0120402
-0.0119815
-0.0118636
-0.0118216
-0.0117229
-0.0116923
-0.0116078
-0.0115835
-0.0115082
-0.0114855
-0.0114146
-0.0113885
-0.0113172
-0.0112826
-0.011206
-0.0111574
-0.0110704
-0.011002
-0.0108988
-0.0108042
-0.0106786
-0.0115327
-0.0109452
-0.0105106
-0.0100512
-0.00971927
-0.00935451
-0.00909897
-0.00880634
-0.00860898
-0.00837251
-0.00822034
-0.00802835
-0.00791174
-0.00775542
-0.00766698
-0.00753945
-0.00747334
-0.00736912
-0.00732056
-0.00723512
-0.00720008
-0.00712956
-0.00710453
-0.00704553
-0.00702732
-0.00697675
-0.00696236
-0.00691728
-0.00690378
-0.00686133
-0.00684574
-0.00680304
-0.0067823
-0.00673636
-0.0067072
-0.00665489
-0.00661378
-0.00655171
-0.00649479
-0.00641922
-0.00386768
-0.00367142
-0.00352617
-0.00337273
-0.00326185
-0.00314006
-0.00305473
-0.00295706
-0.0028912
-0.0028123
-0.00276157
-0.00269753
-0.0026587
-0.00260656
-0.00257716
-0.00253463
-0.00251268
-0.00247792
-0.00246182
-0.00243332
-0.00242171
-0.00239818
-0.0023899
-0.0023702
-0.00236418
-0.00234728
-0.00234251
-0.00232742
-0.00232293
-0.00230869
-0.00230346
-0.00228908
-0.00228208
-0.00226656
-0.00225668
-0.00223896
-0.002225
-0.00220395
-0.0021846
-0.00215897
0.00382898
0.00363196
0.00348612
0.00333198
0.00322046
0.00309799
0.00301199
0.00291363
0.00284707
0.00276749
0.00271602
0.00265133
0.00261174
0.00255899
0.00252882
0.00248574
0.00246307
0.00242782
0.00241106
0.00238214
0.00236997
0.00234607
0.00233731
0.00231731
0.00231088
0.00229375
0.00228865
0.00227342
0.00226868
0.00225442
0.00224908
0.00223487
0.00222793
0.00221278
0.0022032
0.0021861
0.00217273
0.00215254
0.00213412
0.00210962
0.011494
0.0109058
0.0104706
0.0100104
0.0096779
0.00931247
0.00905625
0.00876294
0.00856488
0.00832773
0.00817482
0.00798219
0.00786481
0.00770788
0.00761868
0.0074906
0.00742376
0.00731906
0.00726985
0.00718398
0.00714838
0.0070775
0.00705199
0.0069927
0.00697408
0.00692328
0.00690856
0.00686334
0.00684959
0.00680713
0.00679143
0.00674889
0.00672822
0.00668266
0.00665381
0.00660211
0.0065616
0.00650039
0.0064444
0.00636996
0.0191743
0.0181935
0.0174679
0.0167008
0.0161464
0.0155372
0.01511
0.0146211
0.0142909
0.0138956
0.0136407
0.0133196
0.013124
0.0128624
0.0127138
0.0125003
0.0123889
0.0122143
0.0121324
0.0119892
0.0119299
0.0118117
0.0117691
0.0116702
0.0116392
0.0115544
0.0115299
0.0114544
0.0114315
0.0113606
0.0113343
0.0112632
0.0112287
0.0111525
0.0111042
0.0110178
0.01095
0.0108477
0.010754
0.0106295
0.0268064
0.0254362
0.0244224
0.0233506
0.0225761
0.021725
0.0211284
0.0204453
0.0199842
0.019432
0.0190762
0.0186277
0.0183546
0.0179893
0.0177818
0.0174837
0.0173284
0.0170847
0.0169703
0.0167705
0.0166878
0.0165228
0.0164637
0.0163256
0.0162825
0.0161642
0.01613
0.0160247
0.0159928
0.0158938
0.0158573
0.015758
0.0157097
0.0156033
0.0155358
0.015415
0.0153201
0.015177
0.0150459
0.0148717
0.0344374
0.0326772
0.0313749
0.0299981
0.0290031
0.0279099
0.0271434
0.0262659
0.0256735
0.0249642
0.024507
0.0239309
0.0235801
0.0231108
0.0228443
0.0224613
0.0222617
0.0219486
0.0218017
0.0215449
0.0214387
0.0212267
0.0211506
0.0209732
0.0209177
0.0207657
0.0207217
0.0205864
0.0205453
0.0204181
0.020371
0.0202434
0.0201814
0.0200445
0.0199578
0.0198023
0.0196804
0.0194964
0.0193278
0.019104
0.042004
0.0398575
0.0382696
0.0365908
0.0353776
0.0340445
0.03311
0.0320401
0.0313179
0.0304531
0.0298957
0.0291933
0.0287657
0.0281936
0.0278688
0.0274019
0.0271587
0.026777
0.0265981
0.0262851
0.0261558
0.0258974
0.0258048
0.0255886
0.0255211
0.0253359
0.0252824
0.0251175
0.0250675
0.0249124
0.0248552
0.0246996
0.024624
0.0244571
0.0243514
0.0241618
0.0240131
0.0237886
0.023583
0.0233098
0.0495531
0.0470209
0.0451474
0.0431669
0.0417357
0.040163
0.0390604
0.0377983
0.0369462
0.0359259
0.0352683
0.0344396
0.0339351
0.0332601
0.0328769
0.032326
0.0320391
0.0315887
0.0313776
0.0310083
0.0308556
0.0305507
0.0304414
0.0301863
0.0301066
0.029888
0.0298249
0.0296302
0.0295712
0.0293882
0.0293205
0.0291369
0.0290476
0.0288507
0.0287259
0.0285022
0.0283267
0.0280617
0.027819
0.0274967
0.0570216
0.0541082
0.0519528
0.0496742
0.0480275
0.0462181
0.0449497
0.0434976
0.0425174
0.0413436
0.0405872
0.0396339
0.0390536
0.038277
0.0378363
0.0372027
0.0368727
0.0363547
0.0361119
0.0356871
0.0355117
0.035161
0.0350354
0.034742
0.0346504
0.034399
0.0343265
0.0341026
0.0340349
0.0338244
0.0337467
0.0335355
0.0334328
0.0332063
0.0330626
0.0328052
0.0326033
0.0322984
0.0320191
0.0316481
0.0644565
0.0611632
0.0587267
0.0561509
0.0542894
0.0522441
0.0508101
0.0491687
0.0480606
0.0467337
0.0458785
0.0448008
0.0441448
0.0432669
0.0427687
0.0420523
0.0416793
0.0410936
0.0408191
0.0403389
0.0401404
0.0397439
0.0396019
0.0392701
0.0391665
0.0388822
0.0388003
0.0385471
0.0384704
0.0382324
0.0381445
0.0379057
0.0377896
0.0375334
0.037371
0.0370799
0.0368516
0.0365068
0.0361911
0.0357717
0.0717949
0.068127
0.0654135
0.0625448
0.0604717
0.0581938
0.0565969
0.0547688
0.0535348
0.052057
0.0511048
0.0499046
0.0491741
0.0481965
0.0476418
0.046844
0.0464287
0.0457766
0.045471
0.0449363
0.0447154
0.044274
0.0441159
0.0437466
0.0436313
0.0433148
0.0432236
0.0429418
0.0428564
0.0425915
0.0424937
0.0422278
0.0420985
0.0418132
0.0416323
0.0413082
0.0410539
0.0406699
0.0403182
0.039851
0.0790839
0.0750436
0.0720544
0.0688943
0.0666107
0.0641014
0.0623423
0.0603285
0.0589691
0.0573413
0.0562923
0.0549702
0.0541654
0.0530885
0.0524773
0.0515985
0.0511409
0.0504224
0.0500858
0.0494966
0.0492533
0.0487669
0.0485927
0.0481858
0.0480587
0.04771
0.0476095
0.0472989
0.0472049
0.0469129
0.0468051
0.0465121
0.0463697
0.0460554
0.0458561
0.045499
0.0452188
0.0447957
0.0444083
0.0438936
0.0862607
0.0818541
0.078594
0.0751474
0.0726568
0.0699201
0.0680016
0.0658053
0.0643228
0.0625475
0.0614035
0.0599616
0.059084
0.0579095
0.0572431
0.0562847
0.0557858
0.0550024
0.0546353
0.0539929
0.0537276
0.0531973
0.0530074
0.0525637
0.0524253
0.052045
0.0519355
0.0515969
0.0514945
0.0511761
0.0510587
0.0507392
0.0505839
0.0502411
0.0500238
0.0496343
0.0493287
0.0488673
0.0484447
0.0478833
0.0933726
0.0886026
0.0850735
0.0813427
0.0786466
0.0756842
0.0736074
0.0712299
0.069625
0.0677033
0.0664648
0.064904
0.0639539
0.0626826
0.0619611
0.0609236
0.0603834
0.0595353
0.0591379
0.0584424
0.0581551
0.057581
0.0573753
0.056895
0.056745
0.0563334
0.0562148
0.0558482
0.0557372
0.0553925
0.0552653
0.0549194
0.0547513
0.0543802
0.0541449
0.0537232
0.0533924
0.0528929
0.0524354
0.0518277
0.100357
0.0952305
0.0914378
0.0874282
0.0845307
0.0813469
0.079115
0.07656
0.0748353
0.0727699
0.0714391
0.0697617
0.0687408
0.0673745
0.0665992
0.0654843
0.0649039
0.0639925
0.0635655
0.0628182
0.0625096
0.0618927
0.0616718
0.0611557
0.0609946
0.0605524
0.060425
0.0600311
0.0599119
0.0595416
0.059405
0.0590333
0.0588527
0.0584539
0.0582011
0.0577479
0.0573924
0.0568555
0.0563637
0.0557105
0.107261
0.101782
0.0977283
0.0934427
0.0903458
0.0869428
0.0845572
0.0818263
0.0799828
0.0777753
0.0763527
0.0745598
0.0734686
0.0720082
0.0711795
0.0699877
0.0693673
0.0683931
0.0679367
0.0671378
0.0668079
0.0661484
0.0659122
0.0653605
0.0651883
0.0647155
0.0645793
0.0641583
0.0640308
0.063635
0.0634889
0.0630916
0.0628984
0.0624722
0.0622019
0.0617175
0.0613374
0.0607636
0.060238
0.0595398
0.114024
0.108199
0.10389
0.0993345
0.0960426
0.0924253
0.0898895
0.0869866
0.0850272
0.0826807
0.0811687
0.0792629
0.078103
0.0765508
0.07567
0.0744033
0.0737439
0.0727085
0.0722234
0.0713744
0.0710238
0.0703229
0.070072
0.0694856
0.0693027
0.0688003
0.0686556
0.0682082
0.0680728
0.0676521
0.0674969
0.0670747
0.0668695
0.0664164
0.0661291
0.0656143
0.0652103
0.0646003
0.0640415
0.0632994
0.120691
0.114526
0.109964
0.105143
0.101658
0.0978291
0.0951449
0.0920722
0.0899979
0.0875141
0.0859136
0.0838963
0.0826685
0.0810253
0.0800929
0.0787521
0.078054
0.0769579
0.0764444
0.0755456
0.0751744
0.0744324
0.0741668
0.073546
0.0733523
0.0728204
0.0726672
0.0721935
0.0720502
0.0716048
0.0714405
0.0709935
0.0707763
0.0702967
0.0699926
0.0694476
0.0690199
0.0683742
0.0677828
0.0669972
0.127202
0.120704
0.115897
0.110815
0.107143
0.103108
0.100279
0.0970407
0.0948548
0.0922372
0.0905505
0.0884246
0.0871307
0.0853991
0.0844166
0.0830036
0.0822681
0.081113
0.0805719
0.0796248
0.0792337
0.0784519
0.078172
0.0775179
0.0773139
0.0767535
0.0765922
0.076093
0.0759421
0.0754729
0.0752998
0.0748288
0.0745999
0.0740946
0.0737741
0.0731999
0.0727492
0.0720686
0.0714453
0.0706173
0.133604
0.126779
0.12173
0.116392
0.112535
0.108296
0.105325
0.101924
0.0996276
0.0968782
0.0951064
0.0928734
0.0915143
0.0896954
0.0886633
0.087179
0.0864064
0.0851931
0.0846247
0.0836297
0.0832189
0.0823976
0.0821035
0.0814165
0.0812021
0.0806134
0.0804439
0.0799196
0.079761
0.0792681
0.0790862
0.0785915
0.0783511
0.0778203
0.0774837
0.0768805
0.0764071
0.0756923
0.0750375
0.0741678
0.139835
0.132692
0.127408
0.121821
0.117785
0.113349
0.110239
0.106679
0.104276
0.101399
0.0995445
0.0972075
0.0957852
0.0938816
0.0928016
0.0912482
0.0904397
0.08917
0.0885752
0.087534
0.0871042
0.0862447
0.0859371
0.0852181
0.0849939
0.0843778
0.0842006
0.0836519
0.0834861
0.0829703
0.0827801
0.0822625
0.082011
0.0814555
0.0811033
0.0804721
0.0799767
0.0792286
0.0785433
0.077633
0.145944
0.138489
0.132974
0.127143
0.12293
0.1183
0.115054
0.111339
0.108831
0.105827
0.103892
0.101453
0.0999681
0.0979813
0.0968539
0.0952326
0.0943886
0.0930633
0.0924424
0.0913556
0.0909069
0.0900098
0.0896886
0.0889381
0.088704
0.088061
0.0878759
0.0873032
0.08713
0.0865917
0.0863932
0.0858529
0.0855904
0.0850107
0.0846431
0.0839843
0.0834673
0.0826865
0.0819713
0.0810212
0.151869
0.144112
0.138373
0.132306
0.127922
0.123104
0.119727
0.115861
0.113251
0.110126
0.108112
0.105574
0.104029
0.101962
0.100789
0.099102
0.0982239
0.0968449
0.096199
0.0950682
0.0946014
0.0936681
0.093334
0.0925532
0.0923097
0.0916407
0.0914482
0.0908524
0.0906724
0.0901124
0.0899059
0.0893439
0.0890708
0.0884677
0.0880853
0.0873999
0.0868619
0.0860496
0.0853054
0.0843167
0.15766
0.149606
0.143648
0.13735
0.132798
0.127797
0.12429
0.120277
0.117567
0.114323
0.112232
0.109597
0.107994
0.105847
0.10463
0.102878
0.101966
0.100535
0.0998641
0.0986901
0.0982054
0.0972363
0.0968894
0.0960787
0.0958259
0.0951312
0.0949313
0.0943128
0.0941258
0.0935444
0.0933301
0.0927466
0.0924631
0.0918371
0.0914402
0.0907287
0.0901703
0.0893269
0.0885544
0.0875281
0.163253
0.154915
0.148745
0.142224
0.137511
0.132332
0.128702
0.124546
0.121741
0.118381