/*--------------------------------*- C++ -*----------------------------------*\
| =========                 |                                                 |
| \\      /  F ield         | foam-extend: Open Source CFD                    |
|  \\    /   O peration     | Version:  3.0                                   |
|   \\  /    A nd           | Web:         http://www.extend-project.de       |
|    \\/     M anipulation  |                                                 |
\*---------------------------------------------------------------------------*/
FoamFile
{
    version     2.0;
    format      ascii;
    class       volVectorField;
    location    "8.7";
    object      u;
}
// * * * * * * * * * * * * * * * * * * * * * * * * * * * * * * * * * * * * * //

dimensions      [0 0 0 0 0 0 0];

internalField   nonuniform List<vector> 
400
(
(-3.98515 10.3127 4.19434e-315)
(-3.20975 6.95497 3.74191e-315)
(-8.92629 7.53657 3.33032e-315)
(-8.61047 4.48133 3.00552e-315)
(-12.1191 5.0946 2.64606e-315)
(-12.2136 3.1672 2.41639e-315)
(-14.1573 3.56459 2.10209e-315)
(-14.4084 2.35048 1.94072e-315)
(-15.237 2.63003 1.66697e-315)
(-15.4354 1.68888 1.55475e-315)
(-15.367 1.87145 1.31833e-315)
(-15.3323 0.88655 1.24105e-315)
(-14.409 0.9742 1.04037e-315)
(-14.0066 -0.281486 9.86116e-316)
(-12.1462 -0.185725 8.22652e-316)
(-11.3795 -1.90805 7.8118e-316)
(-8.40389 -1.55502 6.60137e-316)
(-7.55515 -3.88596 6.26567e-316)
(-3.22458 -3.30559 5.56162e-316)
(-2.75477 -5.60972 5.40737e-316)
(-0.801542 1.69541 3.03934e-315)
(-2.13428 1.383 2.74803e-315)
(-3.7366 1.5567 2.48217e-315)
(-4.38156 0.938703 2.27438e-315)
(-5.93473 0.974937 2.04261e-315)
(-6.24751 0.302972 1.88824e-315)
(-7.399 0.138037 1.68439e-315)
(-7.55424 -0.488131 1.56566e-315)
(-8.13703 -0.871903 1.3851e-315)
(-8.161 -1.40557 1.29204e-315)
(-8.14575 -1.98354 1.13265e-315)
(-8.0073 -2.40827 1.0587e-315)
(-7.44482 -3.11258 9.20092e-316)
(-7.0898 -3.4131 8.59424e-316)
(-6.1094 -4.11968 7.42514e-316)
(-5.4453 -4.261 6.89236e-316)
(-4.29567 -4.75262 5.96104e-316)
(-3.14874 -4.68504 5.47364e-316)
(-2.19567 -4.62429 4.81265e-316)
(-0.378772 -4.23036 4.48415e-316)
(-1.92029 13.9976 2.41154e-315)
(-2.57216 10.9091 2.1923e-315)
(-4.99984 10.4405 1.99661e-315)
(-5.32881 7.50005 1.84125e-315)
(-6.80838 7.56779 1.66476e-315)
(-7.11858 5.14352 1.54284e-315)
(-7.94948 5.25847 1.38232e-315)
(-8.30446 3.25484 1.2838e-315)
(-8.63085 3.28884 1.13831e-315)
(-8.9923 1.50334 1.05812e-315)
(-8.87277 1.3902 9.27586e-316)
(-9.11551 -0.353513 8.6176e-316)
(-8.57746 -0.644244 7.46432e-316)
(-8.49137 -2.44064 6.91129e-316)
(-7.57761 -2.86328 5.91942e-316)
(-6.89787 -4.71327 5.44108e-316)
(-5.70912 -5.13991 4.62985e-316)
(-4.2183 -6.99083 4.23269e-316)
(-2.91747 -7.43522 3.63636e-316)
(-0.661542 -9.21014 3.39955e-316)
(0.0287456 8.60886 1.28262e-315)
(-0.879304 6.21161 1.27525e-315)
(-1.09118 5.88753 1.23102e-315)
(-1.58202 3.8243 1.20837e-315)
(-1.95155 3.81884 1.14484e-315)
(-2.19256 2.14978 1.10474e-315)
(-2.5314 2.04697 1.02982e-315)
(-2.69947 0.649014 9.80651e-316)
(-2.87654 0.281699 9.01084e-316)
(-3.05518 -0.932616 8.50009e-316)
(-3.0072 -1.66975 7.71514e-316)
(-3.20155 -2.73937 7.22899e-316)
(-2.92355 -3.90603 6.49503e-316)
(-3.04893 -4.79984 6.04734e-316)
(-2.61129 -6.3535 5.37915e-316)
(-2.43997 -6.95423 4.93879e-316)
(-2.05624 -8.61026 4.30314e-316)
(-1.19252 -8.77231 3.72772e-316)
(-1.29787 -9.82335 2.98544e-316)
(0.49757 -9.51306 1.76602e-316)
(-0.811196 14.6567 8.26833e-316)
(-1.41389 12.0084 9.04171e-316)
(-2.54426 11.001 9.12378e-316)
(-2.9219 8.34881 9.27372e-316)
(-3.61228 8.0791 8.98535e-316)
(-4.06124 5.68099 8.78844e-316)
(-4.38876 5.68564 8.28877e-316)
(-5.02941 3.52426 7.93263e-316)
(-5.05487 3.5496 7.32911e-316)
(-5.88992 1.5198 6.91104e-316)
(-5.6307 1.39181 6.27166e-316)
(-6.55539 -0.597468 5.83287e-316)
(-5.9902 -1.03231 5.19285e-316)
(-6.75149 -2.96757 4.73561e-316)
(-5.8593 -3.85526 4.10357e-316)
(-6.00041 -5.53713 3.59044e-316)
(-4.86632 -6.96208 2.94384e-316)
(-3.75934 -8.03036 2.27049e-316)
(-2.76256 -9.74399 1.5259e-316)
(-0.0976023 -10.1632 4.29344e-317)
(-0.251612 11.6539 -4.0586e-317)
(0.0230307 8.64645 2.18155e-316)
(-0.311132 7.99954 3.48464e-316)
(-0.113603 5.3643 4.69854e-316)
(-0.287954 5.42826 5.24068e-316)
(-0.247093 3.27593 5.69532e-316)
(-0.319398 3.41317 5.7758e-316)
(-0.475518 1.60776 5.82698e-316)
(-0.468935 1.49735 5.64819e-316)
(-0.862565 -0.104803 5.5009e-316)
(-0.75126 -0.709278 5.20059e-316)
(-1.42241 -2.19975 4.97761e-316)
(-1.11732 -3.55183 4.6498e-316)
(-2.07208 -4.90017 4.42919e-316)
(-1.41494 -7.22454 4.14083e-316)
(-2.55131 -8.17226 3.97496e-316)
(-1.36972 -11.4152 3.77759e-316)
(-2.37153 -11.4256 3.69809e-316)
(-0.651574 -14.4867 3.63456e-316)
(-1.01082 -13.1535 3.6739e-316)
(-0.56814 14.6626 -1.69718e-316)
(-0.325646 11.7952 9.87449e-317)
(-1.01407 10.9086 2.34899e-316)
(-1.08761 8.07673 3.51109e-316)
(-1.35963 8.01976 4.09788e-316)
(-1.86504 5.52727 4.52668e-316)
(-1.84689 5.77987 4.66262e-316)
(-2.78397 3.55977 4.72723e-316)
(-2.56461 3.86445 4.61144e-316)
(-3.94068 1.74918 4.48849e-316)
(-3.52247 1.92621 4.23834e-316)
(-5.32556 -0.252395 4.01432e-316)
(-4.59168 -0.403844 3.69559e-316)
(-6.6916 -2.71461 3.40821e-316)
(-5.38672 -3.47396 3.05686e-316)
(-7.37592 -5.72896 2.71385e-316)
(-5.16333 -7.42414 2.35343e-316)
(-6.20096 -9.0558 1.95764e-316)
(-2.91718 -11.6055 1.60967e-316)
(-1.9892 -12.2424 1.24661e-316)
(-0.197058 12.7666 -6.58764e-316)
(0.597004 9.25774 -3.00943e-316)
(0.496806 8.95458 -9.79573e-317)
(0.973328 5.84496 7.78893e-317)
(1.08569 6.38958 1.83092e-316)
(1.22045 3.90175 2.65273e-316)
(1.40623 4.52955 3.11414e-316)
(1.22956 2.48681 3.4362e-316)
(1.40297 2.88727 3.56082e-316)
(0.87659 1.04533 3.62392e-316)
(1.04742 0.95225 3.57806e-316)
(0.0472063 -0.920605 3.52999e-316)
(0.38598 -1.89278 3.43067e-316)
(-1.29237 -3.92839 3.38062e-316)
(-0.354206 -6.32008 3.32826e-316)
(-2.95418 -8.35309 3.3888e-316)
(-0.654545 -12.6142 3.50064e-316)
(-4.2661 -13.9001 3.84664e-316)
(0.311963 -19.1609 4.29778e-316)
(-3.60218 -18.6579 5.33136e-316)
(0.103814 14.0848 -4.88859e-316)
(0.429126 10.8518 -2.11116e-316)
(0.661313 10.3406 -5.08611e-317)
(0.413886 7.26763 8.00644e-317)
(0.785106 7.61716 1.63875e-316)
(0.0485681 5.05431 2.25064e-316)
(0.510025 5.66779 2.62667e-316)
(-0.682539 3.48078 2.87164e-316)
(-0.188317 4.16882 2.97697e-316)
(-1.93681 2.08151 3.01614e-316)
(-1.3876 2.74915 2.96612e-316)
(-3.87846 0.416629 2.88651e-316)
(-3.07116 0.935789 2.75106e-316)
(-6.47262 -1.99323 2.60149e-316)
(-4.87813 -1.87658 2.42736e-316)
(-9.10033 -5.56486 2.24362e-316)
(-5.72099 -6.34578 2.07754e-316)
(-9.91791 -10.3672 1.94227e-316)
(-3.38441 -12.7507 1.86816e-316)
(-5.37185 -16.0508 2.10077e-316)
(0.470592 12.2771 -6.92598e-316)
(0.829057 8.73688 -3.93893e-316)
(1.71714 8.9978 -2.10142e-316)
(1.86474 5.74953 -5.4084e-317)
(2.63254 6.77901 4.85718e-317)
(2.60241 4.20311 1.28656e-316)
(3.21566 5.2902 1.8042e-316)
(3.01229 3.21629 2.17649e-316)
(3.4257 4.18807 2.39293e-316)
(2.9707 2.28762 2.53065e-316)
(3.18681 2.97185 2.58612e-316)
(2.28549 0.823226 2.61613e-316)
(2.48227 0.827339 2.61464e-316)
(0.76309 -2.04239 2.64012e-316)
(1.52396 -3.5046 2.67618e-316)
(-1.65333 -7.41673 2.81643e-316)
(0.976601 -11.5533 3.00219e-316)
(-4.51805 -16.1392 3.44919e-316)
(2.00952 -23.4856 3.94926e-316)
(-5.69045 -27.3324 5.08585e-316)
(1.39457 12.7401 -3.89133e-316)
(0.833401 9.51164 -2.21169e-316)
(2.57145 9.24683 -1.01325e-316)
(1.61492 6.27344 -5.01061e-318)
(2.87749 6.84033 6.73931e-317)
(1.78635 4.42738 1.21441e-316)
(2.7993 5.24261 1.60521e-316)
(1.50521 3.25869 1.87942e-316)
(2.30981 4.21002 2.05339e-316)
(0.558814 2.32786 2.15719e-316)
(1.18735 3.42433 2.19411e-316)
(-1.42732 1.12585 2.18893e-316)
(-0.775161 2.38908 2.14068e-316)
(-4.79914 -1.07031 2.06221e-316)
(-3.46093 0.326325 1.95823e-316)
(-9.3877 -5.1481 1.82389e-316)
(-5.72721 -3.94626 1.67414e-316)
(-13.1654 -11.6824 1.50662e-316)
(-4.0354 -12.2701 1.3131e-316)
(-9.52105 -20.1168 1.18969e-316)
(1.35971 10.3089 -4.31322e-316)
(0.857383 7.69293 -2.62952e-316)
(3.04709 8.27917 -1.43425e-316)
(2.62518 5.46586 -3.96355e-317)
(4.22797 6.59765 3.33449e-317)
(3.961 4.25829 9.22599e-317)
(5.11101 5.51792 1.32716e-316)
(4.9477 3.64359 1.62811e-316)
(5.6746 5.02475 1.82079e-316)
(5.52467 3.29256 1.94861e-316)
(5.8029 4.76722 2.0167e-316)
(5.50727 2.59819 2.05684e-316)
(5.39402 3.91681 2.0722e-316)
(4.62203 0.406667 2.10064e-316)
(4.55121 0.772815 2.12968e-316)
(2.55306 -5.29975 2.23383e-316)
(3.91396 -7.8376 2.34268e-316)
(-0.929 -17.4734 2.62493e-316)
(4.57126 -26.232 2.87406e-316)
(-5.01415 -39.0589 3.35462e-316)
(2.84 10.7418 -2.41432e-316)
(0.949281 7.96074 -1.73441e-316)
(4.16215 7.67931 -9.46181e-317)
(2.40214 5.20281 -2.96159e-317)
(4.49172 5.68259 2.64106e-317)
(3.16165 3.65807 7.03324e-317)
(4.69645 4.42363 1.05091e-316)
(3.54239 2.80922 1.31178e-316)
(4.64766 3.7856 1.50055e-316)
(3.30481 2.29825 1.62977e-316)
(3.97883 3.54927 1.70615e-316)
(1.93666 1.59487 1.74019e-316)
(2.24383 3.26879 1.73462e-316)
(-1.31457 -0.227669 1.69007e-316)
(-0.878047 2.14104 1.60802e-316)
(-7.15814 -4.58014 1.46589e-316)
(-4.69224 -1.20872 1.27075e-316)
(-14.5317 -12.5445 9.45564e-317)
(-4.75099 -9.61387 5.36175e-317)
(-14.2311 -21.497 -2.5141e-317)
(1.99887 7.33123 -1.17609e-316)
(0.941566 6.63176 -4.01348e-317)
(4.21135 7.06809 5.53353e-318)
(3.45234 5.15981 5.31317e-317)
(5.82674 5.92282 8.62001e-317)
(5.44704 4.04522 1.16733e-316)
(7.1378 5.14641 1.38548e-316)
(7.10048 3.63605 1.55635e-316)
(8.18907 5.15183 1.66677e-316)
(8.4869 3.78714 1.73564e-316)
(8.91456 5.80879 1.76533e-316)
(9.56596 3.95508 1.77234e-316)
(9.17003 6.49487 1.75983e-316)
(10.1746 2.89129 1.75287e-316)
(8.84545 5.51387 1.74004e-316)
(9.98564 -2.20659 1.77605e-316)
(8.22449 -1.62764 1.7998e-316)
(8.1519 -17.1715 1.91299e-316)
(7.63723 -25.6195 1.97965e-316)
(1.70793 -53.1678 1.98491e-316)
(3.83308 8.35858 -3.7377e-316)
(0.817921 6.2091 -2.46447e-316)
(4.70987 5.74784 -1.58975e-316)
(2.53652 3.96785 -8.49401e-317)
(5.00783 4.19016 -2.91625e-317)
(3.73914 2.68846 1.56655e-317)
(5.57307 3.22909 5.12732e-317)
(4.7635 2.07891 7.93484e-317)
(6.0699 2.84873 1.01246e-316)
(5.36741 1.87397 1.17792e-316)
(6.07399 2.91904 1.29707e-316)
(5.06253 1.59871 1.37442e-316)
(5.01852 3.07228 1.41213e-316)
(2.89683 0.276172 1.40519e-316)
(2.12479 2.56877 1.35248e-316)
(-2.81893 -3.88998 1.21931e-316)
(-2.82039 0.232871 1.02181e-316)
(-13.5352 -12.2952 6.31772e-317)
(-5.30996 -5.62804 1.71639e-317)
(-20.6012 -16.2217 -8.00169e-317)
(2.16535 4.11178 3.6957e-316)
(1.42606 5.96893 3.26575e-316)
(5.48004 5.76289 2.61428e-316)
(4.88681 4.86006 2.24248e-316)
(8.00695 4.96221 2.05666e-316)
(7.6774 3.55877 1.98856e-316)
(9.92739 4.31403 1.9753e-316)
(10.0392 3.20481 1.97317e-316)
(11.5513 4.61392 1.96213e-316)
(12.3137 3.70783 1.93212e-316)
(13.0775 5.90429 1.88214e-316)
(14.7903 4.6269 1.81755e-316)
(14.4615 7.90075 1.74135e-316)
(17.6423 4.87198 1.67117e-316)
(15.2876 9.47091 1.6002e-316)
(20.8933 1.28223 1.57111e-316)
(14.7409 6.11618 1.54121e-316)
(23.9046 -15.0857 1.59049e-316)
(10.7152 -19.5123 1.62786e-316)
(19.3116 -69.4096 1.68407e-316)
(3.88834 5.73247 -8.26118e-316)
(0.369817 3.97015 -5.10057e-316)
(3.38725 3.42884 -3.5494e-316)
(1.45231 2.3154 -2.30063e-316)
(3.39938 2.36401 -1.52004e-316)
(2.52264 1.44966 -9.13964e-317)
(4.11876 1.71992 -4.57457e-317)
(3.70948 1.0713 -9.02231e-318)
(4.89979 1.45851 2.07824e-317)
(4.70985 0.99899 4.51048e-317)
(5.33537 1.49445 6.47881e-317)
(5.15695 0.920935 8.0204e-317)
(4.91342 1.5407 9.1409e-317)
(4.23661 0.097299 9.76716e-317)
(2.67968 0.92869 9.8802e-317)
(-0.130631 -3.09292 9.10401e-317)
(-2.29033 -1.28208 7.71913e-317)
(-12.5333 -9.63964 4.47701e-317)
(-5.57056 -3.21734 9.24281e-318)
(-32.8096 0.839321 -6.01821e-317)
(1.80287 1.5262 1.56773e-315)
(2.79868 6.15294 9.68312e-316)
(8.18329 4.9353 6.91042e-316)
(8.2293 4.6888 4.91923e-316)
(12.7416 4.13 4.11072e-316)
(12.4451 2.97661 3.59616e-316)
(15.6281 3.42059 3.35912e-316)
(15.8029 2.60037 3.17669e-316)
(18.0076 3.82697 3.03103e-316)
(19.258 3.31507 2.87614e-316)
(20.7547 5.42502 2.71203e-316)
(23.7522 4.75309 2.53744e-316)
(24.2492 8.21067 2.35839e-316)
(30.0774 6.1191 2.19023e-316)
(27.877 11.8665 2.03116e-316)
(38.7829 4.30624 1.91908e-316)
(28.4243 13.6473 1.81658e-316)
(49.9162 -12.5854 1.8108e-316)
(15.8553 -5.76254 1.80782e-316)
(55.6472 -89.5797 2.00594e-316)
(2.90692 2.75887 -1.6562e-315)
(-0.759457 0.289974 -1.01734e-315)
(-1.26805 0.276131 -7.19237e-316)
(-2.44705 -0.275388 -4.9336e-316)
(-2.96883 -0.0511284 -3.78518e-316)
(-3.19455 -0.189196 -2.94039e-316)
(-3.19196 -0.178076 -2.37845e-316)
(-3.31246 -0.248701 -1.92094e-316)
(-3.18807 -0.437315 -1.54541e-316)
(-3.51467 -0.466194 -1.21519e-316)
(-3.60138 -0.895462 -9.24132e-317)
(-4.36527 -0.862035 -6.681e-317)
(-4.93346 -1.73356 -4.50041e-317)
(-6.55694 -1.59063 -2.79589e-317)
(-7.76513 -3.45852 -1.58946e-317)
(-11.5148 -2.82558 -1.22997e-317)
(-11.8569 -6.83186 -1.32449e-317)
(-23.9111 -2.1687 -2.8093e-317)
(-8.56794 -6.55756 -4.25102e-317)
(-60.3403 38.1733 -6.85205e-317)
(-0.0635565 0.376993 3.53579e-315)
(5.65645 8.13307 1.72162e-315)
(15.8037 5.5944 1.16654e-315)
(16.6929 5.33394 7.85032e-316)
(25.3539 4.2922 6.77643e-316)
(24.682 2.90428 6.12097e-316)
(30.4701 3.27461 5.93449e-316)
(30.5381 2.43625 5.76958e-316)
(34.6263 3.71185 5.62881e-316)
(36.7995 3.35936 5.43675e-316)
(40.1941 5.58939 5.20674e-316)
(45.8607 5.24758 4.94039e-316)
(48.7063 8.96741 4.65275e-316)
(59.913 7.38727 4.36446e-316)
(60.0732 13.927 4.07448e-316)
(80.4007 6.37047 3.81739e-316)
(67.4315 19.6349 3.54296e-316)
(105.81 -13.6388 3.3256e-316)
(38.1308 14.7636 3.09032e-316)
(122.537 -120.879 3.08186e-316)
)
;

boundaryField
{
    cavity
    {
        type            myImplicitVelocity;
    }
    lid
    {
        type            fixedValue;
        value           uniform (1 0 0);
    }
    frontAndBack
    {
        type            empty;
    }
}


// ************************************************************************* //
