/*--------------------------------*- C++ -*----------------------------------*\
| =========                 |                                                 |
| \\      /  F ield         | foam-extend: Open Source CFD                    |
|  \\    /   O peration     | Version:  3.0                                   |
|   \\  /    A nd           | Web:         http://www.extend-project.de       |
|    \\/     M anipulation  |                                                 |
\*---------------------------------------------------------------------------*/
FoamFile
{
    version     2.0;
    format      ascii;
    class       volScalarField;
    location    "10";
    object      p;
}
// * * * * * * * * * * * * * * * * * * * * * * * * * * * * * * * * * * * * * //

dimensions      [0 0 0 0 0 0 0];

internalField   nonuniform List<scalar> 
224
(
-0.253554
-0.196598
-0.19315
-0.17469
-0.178118
-0.174065
-0.170165
-0.243853
-0.189083
-0.18577
-0.16802
-0.171319
-0.167424
-0.163673
-0.224764
-0.174287
-0.171237
-0.15488
-0.157922
-0.154334
-0.150878
-0.19705
-0.152801
-0.150128
-0.13579
-0.138458
-0.135311
-0.132282
-0.161749
-0.125432
-0.12324
-0.111472
-0.113664
-0.11108
-0.108596
-0.120246
-0.0932531
-0.0916258
-0.0828788
-0.0845084
-0.0825862
-0.0807414
-0.0741094
-0.0574827
-0.0564842
-0.0510976
-0.0521042
-0.0509193
-0.0497853
-0.025142
-0.0195175
-0.0191856
-0.0173655
-0.0177107
-0.017309
-0.0169284
0.0248036
0.0192035
0.0188532
0.0170326
0.0173603
0.0169599
0.0165726
0.0737778
0.0571714
0.0561527
0.0507618
0.0517492
0.0505613
0.0494222
0.119929
0.0929486
0.0912982
0.08254
0.0841474
0.0822147
0.0803675
0.161455
0.125141
0.122923
0.111135
0.113301
0.110698
0.108214
0.196791
0.152533
0.149831
0.135465
0.138105
0.134929
0.131905
0.224549
0.174054
0.170974
0.154583
0.157597
0.153974
0.150524
0.243695
0.1889
0.185559
0.167773
0.171044
0.167112
0.163369
0.253464
0.196479
0.193008
0.174514
0.17792
0.173833
0.169941
0.25351
0.196523
0.193055
0.174563
0.177973
0.173888
0.169996
0.243801
0.189009
0.18568
0.167905
0.171188
0.167267
0.163523
0.224741
0.174245
0.171182
0.154806
0.157838
0.15423
0.150778
0.19703
0.152777
0.1501
0.135755
0.13842
0.135266
0.13224
0.161763
0.125448
0.123259
0.111495
0.113689
0.11111
0.108625
0.120264
0.0932875
0.0916714
0.0829419
0.084582
0.0826773
0.0808288
0.0741565
0.05755
0.0565668
0.051204
0.0522256
0.051066
0.0499255
0.0251818
0.0195867
0.0192749
0.0174858
0.0178498
0.0174797
0.0170919
-0.0247479
-0.019123
-0.0187539
-0.0169043
-0.0172137
-0.0167827
-0.0164033
-0.0737445
-0.0571123
-0.0560761
-0.050658
-0.051629
-0.0504137
-0.0492808
-0.119894
-0.0929
-0.0912389
-0.0824642
-0.0840611
-0.0821106
-0.0802681
-0.161453
-0.12513
-0.122907
-0.111112
-0.113273
-0.110662
-0.10818
-0.196793
-0.152543
-0.149845
-0.135485
-0.138128
-0.134959
-0.131933
-0.224585
-0.174103
-0.171033
-0.154657
-0.157681
-0.154073
-0.150619
-0.243731
-0.188961
-0.185637
-0.167877
-0.171164
-0.167258
-0.163509
-0.253522
-0.196563
-0.193111
-0.174646
-0.178069
-0.174012
-0.170112
)
;

boundaryField
{
    out
    {
        type            implicitExtrapolation;
    }
    in
    {
        type            implicitExtrapolation;
    }
    frontAndBack
    {
        type            empty;
    }
}


// ************************************************************************* //
