/*--------------------------------*- C++ -*----------------------------------*\
| =========                 |                                                 |
| \\      /  F ield         | foam-extend: Open Source CFD                    |
|  \\    /   O peration     | Version:  3.0                                   |
|   \\  /    A nd           | Web:         http://www.extend-project.de       |
|    \\/     M anipulation  |                                                 |
\*---------------------------------------------------------------------------*/
FoamFile
{
    version     2.0;
    format      ascii;
    class       volVectorField;
    location    "10";
    object      u;
}
// * * * * * * * * * * * * * * * * * * * * * * * * * * * * * * * * * * * * * //

dimensions      [0 0 0 0 0 0 0];

internalField   nonuniform List<vector> 
224
(
(0.381156 -0.134949 1.85791e-18)
(0.652702 -0.0822477 6.75606e-18)
(0.839055 -0.0514409 -4.27915e-18)
(0.903187 -0.0330431 -7.06742e-18)
(0.981984 -0.0182605 -7.15192e-18)
(0.977091 -0.0108417 2.42871e-18)
(1.02309 0.00197428 -2.34816e-18)
(0.484471 -0.384379 6.97284e-19)
(0.715684 -0.234311 -6.46617e-19)
(0.878466 -0.146604 -1.32493e-17)
(0.928522 -0.0942362 3.6781e-17)
(0.996008 -0.0521464 -7.71879e-18)
(0.985436 -0.0310177 -1.76236e-17)
(1.02161 0.00553729 -2.07073e-17)
(0.675375 -0.575286 -6.40316e-18)
(0.832064 -0.350692 -4.276e-18)
(0.951288 -0.219439 -1.67217e-17)
(0.975338 -0.141072 -5.053e-18)
(1.02192 -0.0780855 -2.21424e-17)
(1.00086 -0.0464631 6.75819e-17)
(1.01886 0.00826067 1.80693e-17)
(0.92481 -0.678606 -3.6194e-18)
(0.984119 -0.413675 -2.74901e-18)
(1.04643 -0.258855 -5.2943e-18)
(1.0365 -0.166421 9.79128e-20)
(1.05577 -0.0921319 -1.35335e-18)
(1.021 -0.0548309 2.93088e-17)
(1.01528 0.00971398 -4.20321e-17)
(1.1948 -0.678609 -1.50404e-18)
(1.1487 -0.413669 -1.68632e-18)
(1.1494 -0.258855 -2.56637e-18)
(1.10269 -0.166427 -1.43003e-19)
(1.0924 -0.0921524 1.27623e-17)
(1.0428 -0.0548504 -4.04837e-17)
(1.01142 0.00966785 -3.49235e-18)
(1.44424 -0.575293 1.35524e-18)
(1.30074 -0.350681 -1.31233e-18)
(1.24453 -0.219443 -2.99071e-18)
(1.16383 -0.141095 -9.12035e-18)
(1.12623 -0.0781469 1.33834e-17)
(1.06293 -0.0465225 -3.85539e-17)
(1.00789 0.00813573 4.18923e-17)
(1.63516 -0.384388 -7.20807e-19)
(1.41709 -0.234302 -3.54598e-18)
(1.31731 -0.146626 3.33826e-18)
(1.2106 -0.0942883 9.17507e-18)
(1.15212 -0.052251 9.02491e-18)
(1.07833 -0.0311161 -1.57533e-17)
(1.00524 0.00536694 -5.20355e-18)
(1.73849 -0.134955 -9.65315e-20)
(1.48005 -0.0822572 -3.85847e-19)
(1.35668 -0.0514943 3.45651e-18)
(1.23588 -0.033139 3.06693e-18)
(1.16611 -0.0184085 5.47738e-18)
(1.08665 -0.0109792 -6.81117e-18)
(1.00387 0.00180438 -1.69827e-18)
(1.7385 0.135028 9.2067e-19)
(1.48002 0.0823045 6.01523e-19)
(1.35664 0.0514635 4.33985e-18)
(1.23583 0.0330392 -1.73058e-18)
(1.16608 0.0182253 2.81547e-18)
(1.08662 0.0108214 -4.7294e-18)
(1.00397 -0.00199728 3.98666e-19)
(1.63519 0.38446 2.13124e-18)
(1.41702 0.234327 2.52876e-18)
(1.3172 0.146572 7.22406e-18)
(1.21046 0.0941679 -1.11805e-17)
(1.15202 0.0520717 3.85738e-18)
(1.07825 0.0309629 -4.8014e-18)
(1.00549 -0.00546037 5.7275e-18)
(1.44428 0.575364 4.46583e-18)
(1.30064 0.350668 3.06769e-18)
(1.24436 0.219351 7.78686e-18)
(1.16362 0.140942 5.4262e-18)
(1.12608 0.0779738 9.88439e-18)
(1.0628 0.0463756 -3.65767e-17)
(1.0082 -0.00807659 -5.558e-18)
(1.19485 0.678676 1.24599e-18)
(1.1486 0.413616 9.13267e-19)
(1.14923 0.258725 -2.7203e-19)
(1.10246 0.166241 -1.29131e-18)
(1.0922 0.0919864 -6.33193e-18)
(1.04262 0.0547081 3.44544e-18)
(1.01167 -0.00947501 3.61868e-17)
(0.924868 0.678664 -1.02505e-18)
(0.984051 0.413592 5.11811e-19)
(1.04627 0.2587 -1.17361e-18)
(1.03627 0.166217 -3.04451e-19)
(1.05554 0.0919729 -2.1622e-17)
(1.0208 0.054689 7.22746e-17)
(1.01538 -0.00947105 -8.65205e-18)
(0.675436 0.575328 -3.98877e-18)
(0.832034 0.3506 1.91777e-18)
(0.951167 0.219284 -7.36426e-19)
(0.975145 0.140876 1.09718e-17)
(1.02169 0.0779355 -2.72717e-17)
(1.00065 0.0463184 5.97993e-17)
(1.0188 -0.00808179 -7.64998e-17)
(0.484532 0.384399 1.65028e-18)
(0.715695 0.234229 8.32743e-18)
(0.878391 0.146477 -1.15433e-17)
(0.928376 0.0940775 -2.92049e-17)
(0.995791 0.0520114 -1.78577e-17)
(0.98524 0.0308709 1.8541e-17)
(1.02143 -0.00552065 3.23315e-17)
(0.381222 0.134942 -1.30603e-18)
(0.652743 0.0821947 -5.67818e-18)
(0.83902 0.0513632 4.58294e-19)
(0.903085 0.0329444 7.79359e-18)
(0.9818 0.0181497 -1.10643e-18)
(0.976929 0.0106994 1.09869e-17)
(1.02289 -0.00216492 1.70873e-19)
(0.381236 -0.135066 -1.85954e-18)
(0.652762 -0.0823609 -6.75592e-18)
(0.839047 -0.0515809 4.27238e-18)
(0.903119 -0.0332179 7.05887e-18)
(0.981845 -0.0184926 7.14289e-18)
(0.976981 -0.0111229 -2.42575e-18)
(1.02297 0.00149309 2.34138e-18)
(0.484572 -0.384518 -6.98072e-19)
(0.715752 -0.234389 6.44966e-19)
(0.87847 -0.146685 1.32385e-17)
(0.928478 -0.0943385 -3.67558e-17)
(0.99592 -0.052335 7.70984e-18)
(0.98539 -0.0312711 1.76088e-17)
(1.02165 0.00491233 2.06862e-17)
(0.675501 -0.575437 6.40249e-18)
(0.832124 -0.350746 4.27387e-18)
(0.951292 -0.219473 1.67114e-17)
(0.975304 -0.141114 5.04612e-18)
(1.02189 -0.0782236 2.21213e-17)
(1.00088 -0.0466759 -6.7514e-17)
(1.01912 0.00757956 -1.80451e-17)
(0.924953 -0.678758 3.61952e-18)
(0.984169 -0.413718 2.74822e-18)
(1.04643 -0.258863 5.29107e-18)
(1.03648 -0.166421 -9.92217e-20)
(1.05579 -0.0922161 1.342e-18)
(1.02109 -0.05499 -2.92949e-17)
(1.01575 0.0090852 4.19865e-17)
(1.19495 -0.67875 1.5044e-18)
(1.14874 -0.413717 1.68623e-18)
(1.14941 -0.258855 2.56496e-18)
(1.10269 -0.166405 1.43288e-19)
(1.09248 -0.0921797 -1.27752e-17)
(1.04295 -0.0549464 4.05173e-17)
(1.01205 0.00919114 3.49396e-18)
(1.44439 -0.575417 -1.35532e-18)
(1.30079 -0.350739 1.31276e-18)
(1.24456 -0.219446 2.98982e-18)
(1.16386 -0.141062 9.12703e-18)
(1.12636 -0.0781176 -1.3409e-17)
(1.06314 -0.0465487 3.86051e-17)
(1.00858 0.00787024 -4.19664e-17)
(1.6353 -0.384488 7.20115e-19)
(1.41717 -0.234368 3.54793e-18)
(1.31738 -0.146629 -3.34642e-18)
(1.21069 -0.0942437 -9.19907e-18)
(1.1523 -0.0521654 -9.05296e-18)
(1.07858 -0.0310727 1.57666e-17)
(1.00588 0.00531824 5.23667e-18)
(1.73861 -0.135034 9.36542e-20)
(1.48016 -0.0823164 3.81336e-19)
(1.35681 -0.0514854 -3.45874e-18)
(1.23604 -0.0330714 -3.06454e-18)
(1.16633 -0.0182703 -5.4865e-18)
(1.08693 -0.0108697 6.81858e-18)
(1.00437 0.00192224 1.69998e-18)
(1.73859 0.134971 -9.25125e-19)
(1.48017 0.0822694 -6.07898e-19)
(1.35683 0.0515049 -4.34043e-18)
(1.23606 0.0331462 1.73335e-18)
(1.16634 0.018413 -2.81335e-18)
(1.08692 0.0109877 4.72038e-18)
(1.00428 -0.00179601 -3.99704e-19)
(1.63525 0.384419 -2.13646e-18)
(1.41719 0.234335 -2.5335e-18)
(1.31743 0.146664 -7.22153e-18)
(1.21075 0.0943313 1.11504e-17)
(1.1523 0.0523019 -3.85485e-18)
(1.07855 0.0311764 4.81383e-18)
(1.00564 -0.00526537 -5.71151e-18)
(1.44432 0.575339 -4.471e-18)
(1.30082 0.350729 -3.07177e-18)
(1.24462 0.219504 -7.783e-18)
(1.16394 0.141168 -5.42715e-18)
(1.12637 0.0782396 -9.86869e-18)
(1.06309 0.0466247 3.65041e-17)
(1.00822 -0.00794983 5.52573e-18)
(1.19486 0.678666 -1.25199e-18)
(1.14876 0.413731 -9.18412e-19)
(1.14948 0.258935 2.69892e-19)
(1.10277 0.166525 1.28726e-18)
(1.0925 0.0922767 6.33939e-18)
(1.04291 0.0549833 -3.47299e-18)
(1.01166 -0.00943274 -3.6154e-17)
(0.924861 0.678673 1.01889e-18)
(0.984168 0.413748 -5.17711e-19)
(1.04648 0.258951 1.16938e-18)
(1.03655 0.166538 2.98224e-19)
(1.05582 0.0922768 2.163e-17)
(1.02107 0.0549807 -7.23198e-17)
(1.01541 -0.00947668 8.64741e-18)
(0.675413 0.57536 3.98327e-18)
(0.832099 0.350776 -1.92425e-18)
(0.951322 0.219547 7.31733e-19)
(0.975372 0.141204 -1.09838e-17)
(1.02195 0.0782397 2.72933e-17)
(1.00089 0.0466196 -5.9857e-17)
(1.01891 -0.00806243 7.65682e-17)
(0.484492 0.384458 -1.65536e-18)
(0.715705 0.234401 -8.33538e-18)
(0.878484 0.146721 1.15451e-17)
(0.92854 0.0943784 2.92234e-17)
(0.996018 0.0523034 1.78783e-17)
(0.98545 0.031174 -1.85582e-17)
(1.02161 -0.00539305 -3.23761e-17)
(0.381165 0.135031 1.30295e-18)
(0.65271 0.0823429 5.67682e-18)
(0.839062 0.0515625 -4.63397e-19)
(0.903192 0.0331905 -7.80435e-18)
(0.981987 0.0184171 1.10742e-18)
(0.977094 0.0109965 -1.10001e-17)
(1.02309 -0.00186796 -1.78415e-19)
)
;

boundaryField
{
    out
    {
        type            fixedValue;
        value           uniform (1 0 0);
    }
    in
    {
        type            myVelocity;
    }
    frontAndBack
    {
        type            empty;
    }
}


// ************************************************************************* //
