/*--------------------------------*- C++ -*----------------------------------*\
| =========                 |                                                 |
| \\      /  F ield         | foam-extend: Open Source CFD                    |
|  \\    /   O peration     | Version:  3.0                                   |
|   \\  /    A nd           | Web:         http://www.extend-project.de       |
|    \\/     M anipulation  |                                                 |
\*---------------------------------------------------------------------------*/
FoamFile
{
    version     2.0;
    format      ascii;
    class       volScalarField;
    location    "46";
    object      p;
}
// * * * * * * * * * * * * * * * * * * * * * * * * * * * * * * * * * * * * * //

dimensions      [0 0 0 0 0 0 0];

internalField   nonuniform List<scalar> 
672
(
-0.2339324977
-0.1986089342
-0.1874986748
-0.1689981957
-0.1664979422
-0.155899667
-0.1570302228
-0.150614076
-0.1524146208
-0.1478377966
-0.1476663198
-0.1426591293
-0.2310053136
-0.1961224064
-0.1851498108
-0.1668798298
-0.1644094429
-0.1539432492
-0.1550582371
-0.1487219416
-0.1504990272
-0.1459780705
-0.145809015
-0.1408592325
-0.2251356428
-0.1911395453
-0.1804463999
-0.1626411401
-0.16023412
-0.1500340018
-0.151120978
-0.1449456844
-0.1466769306
-0.1422713431
-0.1421041172
-0.1372824396
-0.2164731734
-0.1837839493
-0.1735008514
-0.1563801118
-0.1540643682
-0.1442566632
-0.1453005711
-0.139362941
-0.1410268521
-0.1367898566
-0.1366294149
-0.1319889987
-0.2050501922
-0.1740866421
-0.1643467189
-0.1481304745
-0.145937311
-0.1366481564
-0.1376369666
-0.1320136942
-0.1335887728
-0.1295764434
-0.1294219002
-0.1250270387
-0.1910876568
-0.1622313196
-0.1531533479
-0.1380409063
-0.1359958912
-0.127339401
-0.1282596635
-0.1230196953
-0.1244863699
-0.1207469633
-0.1206021366
-0.116503217
-0.1746828555
-0.1483047213
-0.1400064953
-0.1261930052
-0.1243237207
-0.1164121709
-0.11725327
-0.1124649691
-0.1138049793
-0.1103878301
-0.1102539177
-0.1065060285
-0.1561211696
-0.132544637
-0.1251270168
-0.1127808753
-0.1111091766
-0.1040383702
-0.1047888423
-0.1005098404
-0.1017056139
-0.09865180462
-0.09852957402
-0.09517757778
-0.1355558233
-0.1150859368
-0.1086455769
-0.09792770109
-0.0964760417
-0.09033910333
-0.09099022457
-0.08727739695
-0.0883148671
-0.0856645928
-0.08555756043
-0.08264405372
-0.1133264388
-0.09621179208
-0.09082647239
-0.08186554075
-0.08065104512
-0.07552029013
-0.07606351424
-0.07295980863
-0.07382513323
-0.07160985572
-0.07151703276
-0.06908062237
-0.0896305035
-0.07609531484
-0.07183582474
-0.06475076918
-0.06378954098
-0.05973460923
-0.06016305099
-0.05771153795
-0.05839429358
-0.05664362388
-0.05656859996
-0.05463563099
-0.06484874699
-0.0550539661
-0.05197094191
-0.04684404277
-0.04614761569
-0.0432135227
-0.04352227034
-0.0417487455
-0.04224038564
-0.0409741411
-0.04091574384
-0.03951731795
-0.03920929007
-0.03328740947
-0.03142244125
-0.02832486302
-0.02790234513
-0.02613179908
-0.02631628205
-0.02524783896
-0.02554213111
-0.02477798613
-0.02473951533
-0.02388519201
-0.01311849881
-0.01113445525
-0.01050824207
-0.009471675833
-0.0093281432
-0.008736777475
-0.008795478558
-0.008439861698
-0.008533140277
-0.00827845871
-0.008257494543
-0.00796703223
0.01317979557
0.01119158752
0.01056845728
0.009524090049
0.009386622087
0.008785323004
0.00885380593
0.008487237508
0.008595621715
0.008336174965
0.008335381677
0.008066945049
0.03927054785
0.03334467389
0.0314827602
0.02837793124
0.02796143823
0.02618172157
0.02637593786
0.02529739116
0.02560674357
0.02483842297
0.02482010651
0.02398765677
0.06490980964
0.05511138484
0.05203136008
0.04689830131
0.04620771105
0.0432660505
0.04358400039
0.04180236336
0.04230787209
0.04103896697
0.04099885788
0.039620358
0.08969130414
0.07615295329
0.07189636168
0.06480667848
0.06385109927
0.05979075365
0.06022801083
0.05777088013
0.05846673857
0.05671520478
0.05665733687
0.05474293164
0.11338659
0.09626940661
0.09088689765
0.08192324985
0.0807141574
0.0755807029
0.07613214688
0.07302600257
0.07390319204
0.07168929313
0.07161173415
0.06919152495
0.1356151047
0.1151433823
0.108705641
0.09798722508
0.0965405727
0.09040402191
0.09106244469
0.08735087092
0.08839821778
0.08575200925
0.08565708917
0.0827564527
0.156178877
0.132601294
0.1251861571
0.1128417893
0.1111747718
0.1041075647
0.1048646841
0.1005905764
0.101795016
0.09874770188
0.09863581809
0.09529419888
0.1747385697
0.1483601706
0.1400641605
0.1262547636
0.1243896614
0.1164849465
0.1173316522
0.1125520506
0.1138985915
0.1104905906
0.1103636821
0.1066225553
0.1911403261
0.1622845338
0.1532085469
0.1381024447
0.1360610505
0.1274145056
0.1283392494
0.1231115824
0.124582692
0.1208548389
0.1207139583
0.1166182201
0.2050992261
0.1741369433
0.16439869
0.1481906996
0.1460006594
0.136724005
0.1377164843
0.1321083403
0.1336864606
0.1296874125
0.1295347681
0.1251406444
0.2165172511
0.1838299855
0.1735482192
0.1564374215
0.1541240363
0.1443310982
0.1453772509
0.1394573742
0.1411217998
0.136899714
0.1367375795
0.1320939276
0.2251740579
0.1911804557
0.1804882864
0.1626940187
0.1602888153
0.150104739
0.1511931593
0.1450369075
0.1467674127
0.1423771967
0.1422064276
0.13737946
0.2310366724
0.1961566936
0.1851846819
0.1669264107
0.1644570559
0.1540076725
0.1551229103
0.1488063501
0.1505809519
0.1460753367
0.1459005143
0.1409426136
0.2339559983
0.1986355856
0.1875256596
0.1690367292
0.1665369619
0.1559551004
0.1570850126
0.1506880355
0.1524846424
0.1479222758
0.1477428697
0.1427256652
0.2339702399
0.1986462087
0.187534089
0.1690429344
0.1665414097
0.1559582412
0.1570866481
0.1506886725
0.1524844968
0.1479202612
0.1477415111
0.142718626
0.2310045052
0.1961283056
0.1851577231
0.1669005101
0.1644315017
0.1539813644
0.1550962302
0.1487779192
0.1505510896
0.1460442114
0.1458662743
0.1409111894
0.2251708215
0.1911736663
0.1804786042
0.162680842
0.1602725733
0.1500850082
0.1511700784
0.1450100514
0.1467373071
0.1423423312
0.1421690547
0.1373341502
0.216467682
0.1837844684
0.173503337
0.1563926981
0.154078182
0.1442828597
0.1453267177
0.1394028416
0.1410637698
0.1368375811
0.1366704325
0.1320261926
0.2050798784
0.174114043
0.1643723012
0.1481596065
0.1459653824
0.1366832
0.1376707175
0.1320562864
0.1336288984
0.1296226922
0.1294644756
0.1250613267
0.1910748361
0.1622234667
0.1531473389
0.1380408511
0.1359968402
0.1273468991
0.1282673488
0.1230342718
0.1244996771
0.1207655973
0.1206177469
0.1165172701
0.1747052741
0.1483232897
0.1400233247
0.1262082014
0.1243380492
0.1164260957
0.1172666064
0.1124786481
0.1138179346
0.1104009535
0.110265998
0.1065159243
0.1560998238
0.1325270856
0.1251111169
0.1127661626
0.1110951809
0.1040241559
0.1047751448
0.1004949963
0.1016917036
0.09863675883
0.09851618037
0.09516553898
0.1355706504
0.1150953089
0.1086532685
0.09792838946
0.09647602959
0.09033104171
0.09098226819
0.08726098583
0.08829950562
0.08564326786
0.08553790137
0.08262863253
0.1132970564
0.09618512604
0.09080123689
0.08183707052
0.08062294314
0.07548570617
0.07602961705
0.07291737553
0.07378546947
0.07156317723
0.07147611246
0.06904361984
0.08963892675
0.07609694438
0.07183581418
0.06473926174
0.0637774807
0.05970809432
0.06013731099
0.05766994429
0.05835551997
0.05659373821
0.05652318256
0.05460036267
0.06481340981
0.05502056243
0.05193878297
0.04680542898
0.04610905226
0.04316394843
0.04347337509
0.04168603689
0.04218154089
0.04090414709
0.04085416695
0.03946130037
0.03921376583
0.03328427166
0.03141768336
0.0283058708
0.02788288459
0.02609399992
0.02627967839
0.02519090897
0.02548916867
0.02471082504
0.02467867126
0.02383825684
0.01308047153
0.01109801471
0.01047295709
0.009428521863
0.009284883265
0.00868053786
0.008739912923
0.008368205984
0.008465896433
0.008198321486
0.008187126811
0.007903162109
-0.01317603361
-0.01119558756
-0.01057407813
-0.009544400393
-0.009407418005
-0.008825050429
-0.00889235325
-0.008546718537
-0.008651103092
-0.008406184208
-0.008398967485
-0.008116069488
-0.03930746999
-0.03337985894
-0.03151675846
-0.02841914686
-0.02800271989
-0.02623502562
-0.02642858175
-0.02536497193
-0.02567005625
-0.02491365864
-0.02488584877
-0.02404690776
-0.06490338584
-0.05511217918
-0.05203378418
-0.04691352777
-0.04622349819
-0.04329802646
-0.04361512783
-0.04185119397
-0.04235351831
-0.04109680885
-0.04105148921
-0.0396609128
-0.08972354892
-0.07618284552
-0.07192492474
-0.06483988848
-0.06388417135
-0.05983217276
-0.06026890408
-0.05782233777
-0.0585150639
-0.05677194052
-0.056707018
-0.05478762447
-0.1133746532
-0.09626356232
-0.09088268889
-0.08192801674
-0.08071955516
-0.07559684359
-0.07614788962
-0.07305320402
-0.07392844783
-0.07172242959
-0.07164159674
-0.06921392247
-0.1356400233
-0.1151649861
-0.1087256894
-0.09800795201
-0.09656080929
-0.09042699198
-0.09108505016
-0.08737742869
-0.08842344025
-0.08578044204
-0.08568250222
-0.0827796314
-0.1561596709
-0.132586683
-0.1251731989
-0.1128327838
-0.1111664809
-0.1041029264
-0.1048602314
-0.1005895059
-0.1017937063
-0.09874878061
-0.09863643881
-0.09529377574
-0.1747549603
-0.1483721107
-0.140074292
-0.1262609632
-0.1243949193
-0.1164864934
-0.1173328557
-0.1125497333
-0.1138966682
-0.1104861093
-0.1103603714
-0.1066199253
-0.1911135427
-0.162260744
-0.1531864695
-0.1380790333
-0.1360385008
-0.1273881658
-0.1283138257
-0.1230810387
-0.1245539769
-0.1208227079
-0.1206847997
-0.1165951488
-0.2051075782
-0.1741397323
-0.1643994861
-0.1481831418
-0.1459917809
-0.1367052768
-0.1376974222
-0.1320786763
-0.133658704
-0.1296516349
-0.1295038709
-0.125112933
-0.2164840918
-0.1837984058
-0.1735184634
-0.1564017761
-0.1540894434
-0.1442863248
-0.1453340575
-0.1394017547
-0.1410697367
-0.1368391854
-0.1366827661
-0.1320510188
-0.225176461
-0.1911764098
-0.1804822009
-0.162676176
-0.160269497
-0.1500708511
-0.151159116
-0.1449867666
-0.1467205408
-0.1423179761
-0.1421551095
-0.1373332644
-0.2309995936
-0.1961202723
-0.1851501868
-0.1668831401
-0.1644149948
-0.1539513718
-0.1550686072
-0.1487349602
-0.1505140713
-0.1459967098
-0.14582898
-0.1408862727
-0.2339557287
-0.1986284178
-0.1875164687
-0.169014184
-0.1665129379
-0.1559142682
-0.1570442099
-0.1506284617
-0.1524290872
-0.1478521539
-0.1476821041
-0.1426707826
)
;

boundaryField
{
    out
    {
        type            implicitExtrapolation;
    }
    in
    {
        type            implicitExtrapolation;
    }
    frontAndBack
    {
        type            empty;
    }
}


// ************************************************************************* //
