/*--------------------------------*- C++ -*----------------------------------*\
| =========                 |                                                 |
| \\      /  F ield         | foam-extend: Open Source CFD                    |
|  \\    /   O peration     | Version:  3.0                                   |
|   \\  /    A nd           | Web:         http://www.extend-project.de       |
|    \\/     M anipulation  |                                                 |
\*---------------------------------------------------------------------------*/
FoamFile
{
    version     2.0;
    format      ascii;
    class       volScalarField;
    location    "23";
    object      p;
}
// * * * * * * * * * * * * * * * * * * * * * * * * * * * * * * * * * * * * * //

dimensions      [0 0 0 0 0 0 0];

internalField   nonuniform List<scalar> 
2688
(
-0.2328774732
-0.2135782167
-0.201953976
-0.1888518079
-0.1814122142
-0.1722348184
-0.1674595796
-0.1609277043
-0.1579238039
-0.153241305
-0.1514304441
-0.1480565207
-0.1470273287
-0.1445611105
-0.1439906403
-0.1421060117
-0.141713193
-0.1401177508
-0.1396320007
-0.1380377931
-0.1371747871
-0.1352744834
-0.1337145561
-0.1311586165
-0.2321457262
-0.2129070348
-0.2013194085
-0.1882583757
-0.1808421161
-0.1716935351
-0.1669332022
-0.1604218644
-0.157427332
-0.1527595559
-0.1509543128
-0.1475909946
-0.1465649843
-0.1441065239
-0.1435378102
-0.1416591131
-0.1412674942
-0.1396770733
-0.1391928299
-0.1376036462
-0.1367433494
-0.1348490114
-0.1332939767
-0.1307460719
-0.2306814355
-0.2115641539
-0.2000495735
-0.1870709454
-0.1797014836
-0.1706106276
-0.1658803705
-0.1594101339
-0.156434543
-0.1517962338
-0.1500024236
-0.1466603383
-0.1456408392
-0.1431978963
-0.1426327906
-0.1407659443
-0.1403767959
-0.1387964083
-0.1383152208
-0.1367360715
-0.1358811993
-0.1339987941
-0.1324535719
-0.1299217329
-0.2284935757
-0.2095575471
-0.1981521333
-0.1852965708
-0.1779969413
-0.1689922886
-0.1643068049
-0.157897936
-0.1549504929
-0.1503561827
-0.1485793159
-0.1452689318
-0.1442590519
-0.1418392869
-0.1412795112
-0.1394303846
-0.1390449039
-0.1374795178
-0.1370028758
-0.1354387125
-0.134591944
-0.1327273997
-0.1311968402
-0.1286890152
-0.2255845306
-0.2068896225
-0.1956294208
-0.1829375597
-0.1757308893
-0.1668409025
-0.1622151061
-0.1558878574
-0.1529779828
-0.1484421881
-0.1466879824
-0.1434197603
-0.1424227691
-0.1400338229
-0.139481192
-0.1376556178
-0.1372750477
-0.1357295965
-0.1352590151
-0.1337147626
-0.1328787589
-0.131037951
-0.1295268693
-0.1270509684
-0.2219679507
-0.2035727164
-0.1924929858
-0.1800045788
-0.1729133798
-0.1641658968
-0.1596141772
-0.1533883611
-0.15052506
-0.1460619828
-0.1443358296
-0.1411200033
-0.140138948
-0.1377883088
-0.1372445157
-0.1354482297
-0.1350737552
-0.133553109
-0.1330900773
-0.1315706088
-0.1307480184
-0.1289367441
-0.1274499016
-0.1250136995
-0.2176507659
-0.199613343
-0.1887491214
-0.1765036413
-0.1695503881
-0.1609730639
-0.1565099022
-0.1504052014
-0.1475976259
-0.1432213762
-0.141528827
-0.1383755625
-0.1374136095
-0.135108699
-0.1345754863
-0.1328141425
-0.1324469367
-0.1309558626
-0.1305018112
-0.1290118787
-0.1282052558
-0.1264291908
-0.1249712442
-0.1225824217
-0.2126509685
-0.195027862
-0.1844131524
-0.1724489465
-0.1656553552
-0.1572750432
-0.1529143282
-0.1469498526
-0.1442066956
-0.1399309725
-0.138277239
-0.1351964143
-0.1342565248
-0.1320045806
-0.1314836117
-0.1297627617
-0.1294039979
-0.1279472111
-0.1275035984
-0.1260479157
-0.1252598222
-0.1235245625
-0.1221001023
-0.119766154
-0.2069799159
-0.1898268212
-0.1794952035
-0.1678500932
-0.1612377011
-0.1530809026
-0.1488365066
-0.1430311204
-0.1403611481
-0.1361994726
-0.1345898618
-0.1315912078
-0.1306763871
-0.1284844975
-0.1279774029
-0.1263024373
-0.1259532068
-0.1245352622
-0.1241034513
-0.1226865845
-0.1219194886
-0.1202304982
-0.1188440171
-0.1165723106
-0.2006598021
-0.1840304467
-0.1740142465
-0.1627246917
-0.1563141455
-0.1484063911
-0.1442915239
-0.1386633958
-0.1360748828
-0.1320402855
-0.1304797735
-0.1275726971
-0.1266857918
-0.1245608564
-0.1240692448
-0.1224454486
-0.122106874
-0.1207322402
-0.1203135995
-0.1189400004
-0.1181963056
-0.1165588785
-0.115214712
-0.1130123668
-0.1937061798
-0.1776531254
-0.1679840387
-0.1570857376
-0.1508973651
-0.1432636691
-0.1392914193
-0.1338583534
-0.1313595623
-0.1274647961
-0.1259583667
-0.1231520345
-0.122295851
-0.1202445475
-0.1197699459
-0.1182024185
-0.1178755492
-0.1165485609
-0.1161444168
-0.114818438
-0.1141005159
-0.1125198429
-0.1112222612
-0.1090962374
-0.1861452486
-0.1707187651
-0.1614270349
-0.1509540998
-0.1450072197
-0.1376714689
-0.1338542024
-0.128633201
-0.1262318886
-0.1224891542
-0.121041486
-0.1183447082
-0.1175219264
-0.115550705
-0.1150946131
-0.1135882736
-0.1132741337
-0.1119989349
-0.1116105349
-0.1103363073
-0.1096463811
-0.1081273956
-0.1068804429
-0.1048374012
-0.1779964762
-0.1632453396
-0.1543603802
-0.1443459393
-0.1386594136
-0.13164482
-0.1279946752
-0.1230022553
-0.1207060734
-0.1171271969
-0.1157428961
-0.1131641782
-0.1123774002
-0.1104924785
-0.1100563388
-0.1086159579
-0.1083155591
-0.1070962078
-0.1067248104
-0.105506391
-0.1048466707
-0.1033941925
-0.1022018282
-0.1002482242
-0.1692898312
-0.1552602139
-0.1468098037
-0.1372851905
-0.1318767668
-0.1252052727
-0.1217336165
-0.1169853991
-0.1148014858
-0.111397676
-0.110081049
-0.1076284731
-0.1068801515
-0.1050874265
-0.1046725899
-0.1033026533
-0.1030169097
-0.101857191
-0.1015039294
-0.1003451067
-0.09971763551
-0.09833619951
-0.09720214627
-0.09534410232
-0.1600483651
-0.146784648
-0.1387955511
-0.1297909083
-0.1246777454
-0.1183704694
-0.1150883379
-0.1105993491
-0.1085346568
-0.1053166782
-0.1040719169
-0.1017532427
-0.1010457667
-0.09935092947
-0.09895873921
-0.09766361471
-0.09739346624
-0.09629708037
-0.09596310037
-0.09486755745
-0.0942743349
-0.0929683143
-0.09189616191
-0.0901395463
-0.1503055127
-0.1378491898
-0.13034637
-0.1218898556
-0.1170879058
-0.1111645666
-0.1080821808
-0.1038664567
-0.1019274037
-0.09890531818
-0.09773628489
-0.09555875146
-0.09489430326
-0.09330262536
-0.09293427308
-0.09171797619
-0.09146423546
-0.0904345856
-0.09012091134
-0.08909206433
-0.0885349386
-0.08730842002
-0.08630152442
-0.08465184323
-0.1400875483
-0.128478051
-0.1214852867
-0.1136036818
-0.1091281869
-0.1036075479
-0.1007347087
-0.0968056042
-0.09499836927
-0.09218175699
-0.09109219137
-0.08906271974
-0.08844344623
-0.08696000639
-0.08661670226
-0.08548311935
-0.08524662252
-0.08428698712
-0.0839946272
-0.08303573491
-0.08251647195
-0.08137333091
-0.08043487446
-0.07889733837
-0.1294310315
-0.1187046448
-0.1122437678
-0.1049616965
-0.1008266089
-0.09572591248
-0.093071559
-0.08944134059
-0.08777153067
-0.08516917293
-0.08416243672
-0.08228733473
-0.08171512535
-0.08034451922
-0.08002729519
-0.07897993853
-0.07876139862
-0.07787476499
-0.07760462402
-0.07671868683
-0.07623891146
-0.07518273082
-0.07431565431
-0.07289508141
-0.1183650501
-0.1085557663
-0.1026472735
-0.09598782243
-0.09220627967
-0.08754170341
-0.08511428658
-0.08179447707
-0.08026742848
-0.07788760299
-0.07696693772
-0.07525219076
-0.07472891209
-0.07347552506
-0.07318542961
-0.07222764378
-0.07202777728
-0.07121696035
-0.0709699006
-0.07015971783
-0.06972094738
-0.06875506222
-0.06796210593
-0.06666298584
-0.1069288926
-0.0980673303
-0.09272964442
-0.08671359037
-0.08329736506
-0.0790834534
-0.07689051118
-0.07389144941
-0.07251188213
-0.07036198139
-0.06953020841
-0.06798112485
-0.06750835894
-0.06637606532
-0.06611396492
-0.0652487196
-0.06506813031
-0.06433565992
-0.06411244838
-0.06338055872
-0.06298416599
-0.06211160348
-0.06139524983
-0.06022165034
-0.09515404075
-0.08726832731
-0.08251840937
-0.077164858
-0.07412482336
-0.07037496909
-0.06842350157
-0.06575473497
-0.06452707755
-0.06261396649
-0.06187378256
-0.06049532489
-0.06007462614
-0.05906705493
-0.05883382101
-0.0580638782
-0.05790315955
-0.05725135921
-0.05705270983
-0.05640142696
-0.05604866964
-0.05527218883
-0.05463470695
-0.05359034116
-0.08308207429
-0.07619677175
-0.07204939917
-0.06737501521
-0.0647206115
-0.06144647528
-0.05974252142
-0.05741233198
-0.05634035911
-0.05466995553
-0.05402361202
-0.05282003151
-0.0524526601
-0.05157291908
-0.05136924055
-0.05069698594
-0.05055661723
-0.04998751931
-0.04981404202
-0.04924540258
-0.04893737594
-0.04825940421
-0.04770278134
-0.04679091455
-0.07074641405
-0.06488343673
-0.06135182601
-0.05737149707
-0.05511120069
-0.05232322389
-0.05087224677
-0.04888808359
-0.04797525731
-0.0465529193
-0.0460025279
-0.04497769506
-0.0446648704
-0.04391578671
-0.0437423508
-0.04316993491
-0.04305038812
-0.04256580289
-0.04241806428
-0.04193387327
-0.04167156682
-0.0410942563
-0.04062026636
-0.0398437892
-0.05819046064
-0.05336800291
-0.05046309708
-0.04718916416
-0.04532996122
-0.04303677371
-0.04184323691
-0.04021122477
-0.03946033035
-0.03829043293
-0.03783765176
-0.03699471131
-0.03673735801
-0.03612123216
-0.03597853887
-0.03550772783
-0.0354093455
-0.03501077672
-0.03488921547
-0.03449097875
-0.0342751931
-0.03380034005
-0.03341044962
-0.0327717835
-0.04544911059
-0.04168259763
-0.03941370504
-0.03685665218
-0.03540451805
-0.03361347803
-0.03268123847
-0.03140663027
-0.03082011594
-0.02990643785
-0.02955276284
-0.02889444299
-0.02869342864
-0.02821225304
-0.02810079795
-0.02773310821
-0.02765623775
-0.02734496257
-0.02724999319
-0.02693898379
-0.02677042686
-0.02639954697
-0.02609500932
-0.02559618611
-0.03256708023
-0.02986810923
-0.02824219889
-0.02640988658
-0.02536926401
-0.02408586294
-0.02341775341
-0.02250444291
-0.02208407217
-0.02142939389
-0.02117587165
-0.02070417132
-0.02056007493
-0.02021531136
-0.02013540051
-0.01987195313
-0.01981679749
-0.01959377031
-0.01952565686
-0.01930283218
-0.0191820039
-0.01891624264
-0.01869798977
-0.01834055633
-0.01958025517
-0.017957573
-0.01697993053
-0.01587830926
-0.01525259839
-0.01448101782
-0.01407923962
-0.01353021522
-0.01327738989
-0.01288386185
-0.01273135245
-0.0124478243
-0.01236114935
-0.01215393278
-0.01210586079
-0.01194752111
-0.01191429378
-0.01178024343
-0.01173923736
-0.01160532105
-0.01153263305
-0.01137284811
-0.01124159234
-0.01102669639
-0.006534160686
-0.005992615747
-0.005666146068
-0.005298495341
-0.005089538744
-0.004832063008
-0.004697782809
-0.004514659173
-0.004430099017
-0.004298871991
-0.004247797075
-0.00415326728
-0.004124240352
-0.004055173403
-0.004039051387
-0.003986279894
-0.00397504701
-0.003930365502
-0.003916558833
-0.003871947579
-0.003847596902
-0.003794268655
-0.003750397405
-0.003678691164
0.006534834641
0.005993280952
0.005667379591
0.005299716391
0.005091135659
0.004833554045
0.004699817937
0.004516354195
0.004432310254
0.004300739292
0.004250164321
0.004155335303
0.004126580158
0.004057231953
0.004041315814
0.003988314237
0.00397748015
0.003932619632
0.003919146154
0.003874284679
0.003850188879
0.003796868915
0.00375319141
0.003681458005
0.01958091822
0.01795822853
0.01698115343
0.01587952043
0.01525418413
0.0144824976
0.01408126048
0.01353189558
0.01327958291
0.01288571031
0.01273369741
0.01244986988
0.01236346421
0.01215596732
0.01210809905
0.01194953161
0.01191670078
0.01178247503
0.01174180109
0.0116076387
0.01153520615
0.01137543191
0.01124437117
0.01102944915
0.03256774781
0.02986876855
0.02824342208
0.0264110983
0.02537084921
0.02408734475
0.02341977594
0.02250613117
0.0220862745
0.02143125902
0.02117823535
0.02070624154
0.02056241748
0.02021737632
0.02013767155
0.01987399479
0.01981923451
0.01959602664
0.01952824168
0.01930516585
0.01918458781
0.01891883307
0.01870077061
0.01834331071
0.04544974491
0.04168322746
0.03941489597
0.03685783409
0.03540606987
0.03361492677
0.03268321939
0.03140827627
0.03082226574
0.02990824885
0.02955506246
0.02889644879
0.02869570008
0.02821424974
0.02810299589
0.02773508339
0.02765860344
0.02734715722
0.02725251459
0.02694126455
0.02677295933
0.02640209136
0.02609774658
0.02559889944
0.05819110523
0.0533686415
0.05046428985
0.04719034812
0.04533151255
0.04303822607
0.04184521973
0.04021288359
0.03946249431
0.03829227143
0.03783998114
0.03699675779
0.03673967352
0.03612327781
0.03598078641
0.03550974943
0.03541175083
0.03501300171
0.03489175678
0.03449327131
0.03427772669
0.03380287899
0.03341317372
0.03277448325
0.07074700158
0.06488402471
0.06135296367
0.0573726307
0.05511269651
0.0523246229
0.0508741635
0.04888967705
0.04797734005
0.04655467492
0.04600475876
0.0449796427
0.04466707773
0.04391772882
0.04374449036
0.04317185852
0.04305269219
0.04256793994
0.04242051848
0.04193609239
0.0416740298
0.04109673023
0.04062292754
0.03984642867
0.08308267987
0.07619737551
0.07205054252
0.06737615426
0.06472210841
0.06144787943
0.05974443878
0.05741393889
0.05634245421
0.05467174019
0.05402587178
0.05282202262
0.05245491164
0.05157491222
0.05137142634
0.05069895181
0.05055894739
0.04998967065
0.04981649072
0.04924760614
0.0489398062
0.04826183676
0.04770539025
0.0467935013
0.09515456363
0.08726885762
0.08251947287
0.07716592483
0.07412624175
0.0703763005
0.06842533086
0.06575625852
0.06452906961
0.06261564817
0.06187591898
0.0604971925
0.06007674268
0.05906891845
0.05883587416
0.05806572298
0.05790536846
0.05725340422
0.05705505699
0.05640354452
0.05605101901
0.0552745461
0.05463724305
0.05359285746
0.1069294435
0.09806788561
0.09273072016
0.08671466846
0.08329878874
0.07908479274
0.07689234006
0.07389298413
0.07251387941
0.07036368462
0.0695323612
0.06798302519
0.06751050502
0.06637796792
0.06611604738
0.06525059126
0.06507034253
0.0643376963
0.06411476028
0.06338262991
0.06298644666
0.06211388087
0.06139769172
0.06022407164
0.1183654914
0.1085562239
0.1026482426
0.09598880435
0.09220759934
0.08754294923
0.08511600503
0.08179591288
0.08026930557
0.07788919078
0.07696895136
0.07525395274
0.07473090522
0.07347727914
0.07318735893
0.07222937265
0.0720298458
0.07121886729
0.07097208837
0.07016168154
0.06972312643
0.06875724401
0.0679644552
0.06666531684
0.1294315121
0.1187051381
0.1122447578
0.1049626977
0.1008279411
0.09572717161
0.09307327886
0.08944278589
0.08777340501
0.08517076965
0.0841644465
0.08228910752
0.0817171213
0.08034628861
0.08002922808
0.07898167342
0.07876344806
0.07787664495
0.07760675742
0.07672058733
0.07624100395
0.07518481409
0.07431788935
0.07289729685
0.1400878926
0.1284784226
0.1214861423
0.113604561
0.1091293859
0.1036086886
0.100736291
0.09680693186
0.0950001046
0.09218322809
0.09109405101
0.08906434723
0.08844527912
0.0869616159
0.08661846508
0.08548469067
0.08524850054
0.08428870637
0.08399660001
0.08303749037
0.08251842213
0.08137527701
0.08043697338
0.07889941995
0.1503059074
0.1378496074
0.1303472551
0.1218907625
0.1170891262
0.1111657285
0.1080837705
0.1038677963
0.1019291333
0.09890678749
0.09773812029
0.09556036208
0.09489610343
0.09330421411
0.09293600135
0.09171952144
0.09146606423
0.09043625576
0.09012281105
0.08909374463
0.08853679225
0.08731025996
0.0863035016
0.08465380135
0.1600485995
0.1467849219
0.138796275
0.1297916669
0.1246788006
0.1183714828
0.1150897547
0.1106005431
0.1085362185
0.1053180043
0.1040735867
0.1017547024
0.1010473987
0.09935235617
0.09896028997
0.0976649855
0.09739510284
0.09629856373
0.09596480461
0.09486905464
0.09427600251
0.09296997135
0.09189795391
0.09014132139
0.1692901245
0.1552605418
0.1468105633
0.1372859831
0.1318778504
0.1252063147
0.1217350492
0.1169866123
0.1148030475
0.1113989991
0.110082685
0.1076298943
0.1068817169
0.1050887901
0.1046740558
0.1033039486
0.1030184471
0.1018585836
0.1015055234
0.1003465016
0.0997191839
0.09833773348
0.09720380172
0.09534573969
0.1779965905
0.1632455063
0.154360956
0.1443465601
0.1386603008
0.1316456814
0.1279958934
0.1230032844
0.120707423
0.1171283424
0.115744334
0.1131654306
0.1123787863
0.1104936807
0.1100576298
0.1086170849
0.1083169041
0.1070974104
0.1067261966
0.105507587
0.1048480097
0.1033955175
0.102203268
0.1002496475
0.1861454248
0.1707189884
0.1614276472
0.1509547556
0.1450081371
0.1376723617
0.1338554419
0.1286342569
0.12623325
0.1224903072
0.1210428996
0.118345922
0.1175232348
0.1155518179
0.1150957776
0.1135892735
0.1132753181
0.1119999861
0.1116117505
0.1103373494
0.1096475553
0.1081285597
0.1068817144
0.1048386569
0.193706165
0.1776531764
0.1679844511
0.1570862048
0.1508980613
0.1432643539
0.1392924049
0.133859184
0.1313606584
0.1274657209
0.1259595271
0.1231530362
0.1222969443
0.1202454822
0.1197709307
0.1182032613
0.1178765577
0.1165494457
0.1161454454
0.1148193014
0.1141014934
0.1125208066
0.1112233182
0.1090972777
0.2006598435
0.1840305492
0.1740146883
0.1627251879
0.1563148655
0.1484071017
0.1442925278
0.138664254
0.136075999
0.1320412316
0.1304809325
0.1275736843
0.1266868329
0.124561718
0.1240701068
0.1224461518
0.1221076908
0.1207329295
0.1203144011
0.1189406482
0.1181970527
0.1165596152
0.1152155364
0.1130131762
0.2069797614
0.1898267459
0.1794954367
0.1678503926
0.161238185
0.1530813886
0.1488372289
0.1430317228
0.1403619541
0.1362001416
0.1345907042
0.1315919197
0.1306771467
0.1284851271
0.1279780434
0.1263029644
0.1259538468
0.1245358062
0.1241040998
0.1226870988
0.1219200866
0.1202310833
0.1188446725
0.1165729484
0.2126508544
0.1950278236
0.184413398
0.1724492601
0.1656558469
0.1572755393
0.1529150541
0.1469504703
0.1442075158
0.1399316634
0.1382780942
0.135197136
0.1342572729
0.1320051852
0.1314841852
0.1297632021
0.1294044921
0.1279475909
0.1275040334
0.1260482055
0.1252601601
0.1235248733
0.122100464
0.1197664973
0.2176504602
0.1996131266
0.1887491558
0.1765037575
0.1695506387
0.1609733306
0.1565103334
0.1504055504
0.1475981131
0.1432217635
0.1415293228
0.1383759572
0.1374140076
0.1351089974
0.1345757591
0.1328143366
0.1324471961
0.1309560602
0.1305020772
0.1290120392
0.1282054686
0.1264293894
0.1249714911
0.1225826516
0.2219676623
0.2035725149
0.1924930067
0.1800046867
0.1729136135
0.1641661489
0.1596145876
0.1533887018
0.1505255417
0.1460623757
0.1443363307
0.1411204075
0.1401393516
0.1377886127
0.1372447756
0.1354484074
0.1350739592
0.13355324
0.1330902312
0.1315706368
0.1307480519
0.1289367383
0.1274499116
0.1250136893
0.2255840701
0.2068892487
0.1956292374
0.1829374784
0.1757308883
0.1668409334
0.162215224
0.1558879359
0.1529781355
0.1484422849
0.1466881248
0.1434198344
0.1424228061
0.1400337933
0.139481107
0.1376554932
0.1372749477
0.1357294696
0.1352589199
0.1337145837
0.1328785986
0.1310377788
0.1295267274
0.1270508137
0.2284931064
0.2095571698
0.1981519091
0.185296454
0.1779968948
0.1689922772
0.164306878
0.157897984
0.1549506239
0.1503562712
0.1485794561
0.1452690101
0.1442590985
0.1418392707
0.141279435
0.1394302725
0.1390447944
0.1374793816
0.1370027436
0.1354384927
0.1345917123
0.1327271504
0.1311966038
0.1286887629
0.2306808191
0.2115636098
0.2000491599
0.1870706471
0.1797012129
0.1706104083
0.1658801577
0.1594099345
0.1564343636
0.1517960535
0.1500022339
0.1466601203
0.1456405517
0.1431975809
0.1426323974
0.1407655517
0.1403763872
0.1387960035
0.1383148052
0.1367355927
0.1358807065
0.1339982962
0.1324530943
0.1299212424
0.2321451225
0.212906527
0.2013189412
0.1882580153
0.1808417656
0.1716932329
0.1669329171
0.1604216102
0.1574271146
0.1527593517
0.1509541107
0.1475907731
0.1465647057
0.14410622
0.1435374258
0.1416587236
0.1412670628
0.1396766426
0.1391923689
0.1376031329
0.1367428053
0.1348484429
0.1332934234
0.1307455015
0.2328766158
0.2135774281
0.2019533405
0.1888512865
0.1814116833
0.1722343513
0.1674590452
0.1609272541
0.1579233321
0.1532408926
0.1514299716
0.1480560648
0.1470267775
0.1445605712
0.143989998
0.1421053982
0.1417125087
0.1401170946
0.1396312989
0.1380370705
0.1371740341
0.1352737061
0.1337137857
0.1311578352
0.2328777867
0.2135784673
0.2019542761
0.1888521274
0.1814124503
0.1722350501
0.1674596809
0.1609278445
0.1579238705
0.1532413975
0.1514304323
0.1480564992
0.1470271794
0.1445609532
0.1439903533
0.1421057377
0.1417128194
0.1401173927
0.1396315731
0.1380373377
0.1371742816
0.1352739414
0.1337140039
0.1311580422
0.2321438442
0.2129053778
0.2013178326
0.1882570038
0.180840789
0.1716923403
0.1669320308
0.1604208132
0.1574263159
0.152758632
0.1509533827
0.1475901119
0.1465640495
0.1441056224
0.1435368343
0.1416581809
0.1412665067
0.139676126
0.1391918418
0.1376026465
0.1367423126
0.1348479652
0.1332929431
0.1307450366
0.230681884
0.2115645404
0.2000499242
0.1870713191
0.1797017723
0.1706109153
0.1658805453
0.1594103207
0.1564346449
0.1517963465
0.150002431
0.1466603319
0.145640704
0.1431977521
0.1426325222
0.1407656939
0.1403764594
0.1387960901
0.1383148338
0.1367356479
0.1358807163
0.1339982962
0.1324530575
0.1299211984
0.2284917208
0.209555911
0.1981506283
0.1852952726
0.1779957093
0.1689911914
0.164305742
0.1578969806
0.1549495655
0.1503553362
0.1485784606
0.1452681212
0.1442581869
0.1418384555
0.1412786051
0.1394295236
0.1390439899
0.1374786431
0.1370019601
0.1354377833
0.1345909709
0.1327264271
0.1311958585
0.1286880374
0.2255850317
0.2068900733
0.195629834
0.1829379852
0.1757312444
0.166841253
0.1622153689
0.1558881228
0.1529781656
0.1484423712
0.1466880648
0.1434198288
0.1424227153
0.1400337594
0.1394810079
0.1376554436
0.137274788
0.1357293503
0.1352587095
0.1337144322
0.1328783763
0.1310375487
0.1295264407
0.1270505234
0.2219661711
0.2035711482
0.1924915569
0.1800033384
0.1729122231
0.1641648733
0.1596132063
0.1533874954
0.1505242279
0.1460612287
0.1443350721
0.1411192942
0.1401381886
0.1377875829
0.1372437109
0.1354474552
0.1350729106
0.1335522832
0.1330891962
0.131569709
0.1307470675
0.1289357753
0.1274489081
0.1250127099
0.2176513221
0.1996138491
0.1887495904
0.1765041046
0.1695507984
0.1609734688
0.1565102436
0.1504055443
0.1475979001
0.1432216496
0.1415290138
0.1383757407
0.137413681
0.1351087637
0.1345754419
0.1328140992
0.1324468095
0.1309557381
0.1305016314
0.1290116827
0.1282050162
0.1264289304
0.1249709561
0.1225821167
0.2126492612
0.1950263526
0.184411785
0.1724477506
0.1656542586
0.1572740802
0.1529134359
0.1469490676
0.1442059555
0.1399303116
0.1382765819
0.1351958061
0.134255868
0.1320039489
0.1314828958
0.1297620554
0.129403211
0.1279464266
0.12750276
0.1260470714
0.1252589466
0.1235236845
0.1220992174
0.1197652786
0.2069805284
0.1898273709
0.1794957166
0.167850587
0.161238157
0.1530813535
0.1488369146
0.143031532
0.1403615083
0.1361998355
0.1345901561
0.1315914998
0.1306765926
0.1284846994
0.1279775143
0.1263025429
0.1259532382
0.1245352841
0.1241034222
0.1226865391
0.1219194065
0.1202303977
0.1188438919
0.1165721714
0.2006581535
0.1840289794
0.1740129204
0.1627235255
0.1563130893
0.1484054684
0.144290685
0.1386626651
0.1360742052
0.1320396857
0.1304791806
0.1275721499
0.1266852007
0.1245602878
0.1240686075
0.1224448236
0.1221061934
0.1207315723
0.1203129069
0.1189393233
0.1181956275
0.1165582174
0.1152140645
0.1130117358
0.1937068426
0.1776537096
0.1679845852
0.1570862554
0.1508978563
0.143264155
0.1392918786
0.1338588183
0.1313599924
0.1274652321
0.125958752
0.1231524221
0.1222961731
0.1202448679
0.1197701982
0.1182026617
0.1178757352
0.1165487301
0.1161445446
0.1148185454
0.1141005943
0.112519903
0.1112223024
0.109096269
0.186143645
0.170717327
0.1614257352
0.1509529509
0.1450061862
0.1376705662
0.1338533902
0.1286324949
0.1262312395
0.1224885812
0.1210409259
0.1183441983
0.1175213931
0.1155502089
0.1150940859
0.1135877786
0.1132736226
0.1119984516
0.1116100533
0.1103358482
0.1096459344
0.1081269677
0.1068800328
0.1048370098
0.1779971848
0.1632459542
0.1543609547
0.1443464769
0.1386599314
0.1316453303
0.1279951701
0.1230027556
0.1207065518
0.1171276827
0.115743347
0.1131646343
0.1123778117
0.1104928906
0.110056706
0.1086163171
0.1083158809
0.1070965129
0.1067250875
0.105506648
0.1048469081
0.1033944129
0.1022020362
0.1002484261
0.1692882634
0.1552587973
0.1468085203
0.1372840488
0.1318757405
0.1252043717
0.1217328072
0.1169846926
0.1148008399
0.1113971093
0.11008051
0.1076279985
0.1068796858
0.1050870189
0.1046721904
0.1033023025
0.1030165721
0.1018568871
0.1015036407
0.1003448379
0.09971738223
0.09833596064
0.09720192475
0.09534389967
0.1600491174
0.1467852916
0.1387961501
0.1297914617
0.1246782812
0.1183709927
0.1150888517
0.1105998655
0.1085351601
0.1053171883
0.1040724061
0.1017537391
0.101046238
0.09935140484
0.09895919106
0.09766406351
0.09739389635
0.09629750012
0.09596350666
0.09486794984
0.09427471859
0.0929686859
0.09189652855
0.09013990954
0.1503039749
0.1378477898
0.1303450959
0.1218887134
0.117086875
0.1111636544
0.1080813594
0.1038657365
0.1019267506
0.09890475178
0.09773576647
0.09555831278
0.09489390398
0.09330229812
0.09293398154
0.09171774005
0.09146402914
0.09043441384
0.09012076216
0.08909193427
0.0885348277
0.08730832352
0.08630144791
0.08465178664
0.1400883416
0.1284787219
0.1214859067
0.1136042467
0.1091287328
0.1036080745
0.1007352281
0.09680612162
0.09499887992
0.09218227322
0.0910926988
0.08906323596
0.08844395389
0.08696052195
0.08661721157
0.08548363221
0.08524713195
0.08428749526
0.08399513416
0.08303623737
0.08251697525
0.08137382925
0.08043537432
0.07889783695
0.1294295188
0.1187032582
0.1122424986
0.1049605498
0.1008255683
0.09572498464
0.09307072167
0.08944060489
0.08777087055
0.08516860719
0.08416193704
0.08228692407
0.08171477477
0.08034424544
0.08002707298
0.07897977308
0.07876127289
0.07787467579
0.07760456412
0.07671864993
0.0762388995
0.07518273728
0.07431568478
0.07289513298
0.1183658797
0.1085564615
0.1026479108
0.09598839518
0.09220683026
0.08754222784
0.08511480403
0.08179498851
0.08026793808
0.07788811726
0.07696745288
0.07525271608
0.07472944102
0.07347606528
0.07318597571
0.07222819969
0.07202834045
0.07121753083
0.07097047867
0.07016030003
0.06972153693
0.06875565289
0.06796270178
0.06666358149
0.1069274007
0.09806595475
0.09272837848
0.08671243885
0.08329631509
0.07908251213
0.07688966109
0.07389070216
0.07251121762
0.07036141546
0.0695297198
0.06798072734
0.06750803225
0.06637581489
0.0661137749
0.06524858746
0.0650680461
0.06433561748
0.06411244392
0.06338058519
0.06298422589
0.06211168819
0.06139536396
0.06022178616
0.0951549002
0.08726904285
0.0825190602
0.07716543616
0.07412537587
0.07037548975
0.0684240153
0.06575523996
0.06452758464
0.06261447808
0.06187430182
0.06049585546
0.06007516791
0.05906761059
0.0588343898
0.05806446157
0.05790375666
0.05725196997
0.05705333371
0.05640206091
0.05604931464
0.05527283843
0.05463536296
0.05359099683
0.08308059927
0.07619540546
0.07204813627
0.06737386071
0.06471955553
0.0614455254
0.05974166357
0.05741157729
0.05633969064
0.05466938564
0.05402312298
0.05281963123
0.05245233361
0.051572667
0.05136905352
0.05069685918
0.05055654646
0.04998749749
0.04981406906
0.04924546976
0.04893748727
0.04825954704
0.04770296036
0.04679111528
0.07074729605
0.06488416757
0.0613524866
0.0573720788
0.05511175401
0.05232374154
0.05087275785
0.04888858484
0.04797576349
0.04655343064
0.04600305063
0.04497823046
0.04466542064
0.04391635301
0.04374293366
0.04317053568
0.04305100608
0.04256643864
0.0424187166
0.04193453935
0.04167224649
0.04109494244
0.0406209596
0.03984448102
0.0581889985
0.0533666441
0.05046183738
0.04718800876
0.04532890269
0.04303581948
0.04184237491
0.04021046499
0.03945965624
0.0382898549
0.03783715174
0.03699429653
0.03673701384
0.03612096109
0.0359783328
0.03550758497
0.03540926376
0.03501075028
0.03488924689
0.03449105698
0.03427532374
0.03380050612
0.03341065613
0.03277201098
0.04545000757
0.04168333858
0.03941437176
0.03685723592
0.03540507165
0.03361399395
0.03268174844
0.03140713068
0.03082062278
0.02990695146
0.02955328882
0.02889498384
0.0286939849
0.02821282792
0.02810139025
0.02773372124
0.02765686974
0.02734561536
0.02725066536
0.02693967254
0.02677113214
0.0264002603
0.02609573135
0.02559690495
0.03256562677
0.02986675573
0.02824094196
0.02640873144
0.02536820496
0.02408490691
0.0234168892
0.0225036795
0.02208339145
0.02142880673
0.02117535609
0.02070373873
0.02055970558
0.02021501514
0.02013516433
0.01987178304
0.01981668821
0.01959372073
0.01952566858
0.01930289396
0.01918212094
0.01891639596
0.01869818376
0.01834077011
0.01958115986
0.017958319
0.01698059992
0.01587889347
0.01525315159
0.01448153269
0.01407974912
0.01353071629
0.01327789764
0.01288437888
0.01273188062
0.01244837076
0.01236170929
0.01215451498
0.01210645919
0.01194814341
0.01191493548
0.01178090856
0.01173992405
0.01160602671
0.01153335822
0.01137358281
0.01124233773
0.01102743684
0.006532711405
0.005991264902
0.00566489065
0.005297340483
0.005088479753
0.004831106324
0.004696917649
0.004513894113
0.004429413833
0.004298279809
0.004247270177
0.004152823949
0.004123852254
0.004054860565
0.004038791692
0.00398608939
0.00397491365
0.003930294858
0.003916548706
0.003871989049
0.003847693061
0.003794401001
0.003750569075
0.003678881839
-0.006533929042
-0.00599253464
-0.005666710769
-0.005299133241
-0.00509058389
-0.00483304034
-0.004699309376
-0.004515852589
-0.004431802641
-0.004300219341
-0.004249636057
-0.004154784258
-0.004126019799
-0.004056644562
-0.004040715812
-0.003987686613
-0.003976834976
-0.003931948751
-0.003918453817
-0.003873571898
-0.003849455732
-0.00379612536
-0.003752436384
-0.003680708625
-0.01958236795
-0.01795957958
-0.01698240907
-0.01588067551
-0.01525524324
-0.01448345437
-0.0140821253
-0.01353265956
-0.01328026755
-0.01288629966
-0.01273422459
-0.01245030947
-0.01236385373
-0.01215627698
-0.01210836057
-0.01194972028
-0.0119168356
-0.01178254496
-0.01174181228
-0.01160759731
-0.01153511133
-0.01137530067
-0.01124420144
-0.01102926035
-0.03256684771
-0.02986802629
-0.02824275682
-0.02641051753
-0.02537029996
-0.0240868326
-0.02341926927
-0.02250562998
-0.02208576854
-0.02143073763
-0.02117770937
-0.02070568779
-0.02056186043
-0.02021678673
-0.02013707556
-0.01987336707
-0.01981859413
-0.0195953587
-0.01952755587
-0.01930445925
-0.01918386346
-0.01891809825
-0.01870002563
-0.01834257051
-0.04545119946
-0.04168458127
-0.03941615336
-0.03685898959
-0.03540712917
-0.03361588287
-0.03268408256
-0.03140903667
-0.03082294461
-0.02990882795
-0.02955557831
-0.02889687044
-0.02869607311
-0.02821453651
-0.02810323727
-0.02773524804
-0.0276587172
-0.02734720487
-0.02725250645
-0.02694120325
-0.02677284659
-0.02640194137
-0.02609755836
-0.02559869119
-0.05819021682
-0.05336790735