/*--------------------------------*- C++ -*----------------------------------*\
| =========                 |                                                 |
| \\      /  F ield         | foam-extend: Open Source CFD                    |
|  \\    /   O peration     | Version:  3.0                                   |
|   \\  /    A nd           | Web:         http://www.extend-project.de       |
|    \\/     M anipulation  |                                                 |
\*---------------------------------------------------------------------------*/
FoamFile
{
    version     2.0;
    format      ascii;
    class       volScalarField;
    location    "66";
    object      p;
}
// * * * * * * * * * * * * * * * * * * * * * * * * * * * * * * * * * * * * * //

dimensions      [0 0 0 0 0 0 0];

internalField   nonuniform List<scalar> 
2688
(
-0.2327047081
-0.2134589648
-0.2019392613
-0.1887705382
-0.1815140289
-0.1721664803
-0.1676377458
-0.1608612763
-0.1581441218
-0.1531705076
-0.1516647676
-0.1479770802
-0.1472527273
-0.1444707118
-0.1441887734
-0.1420054179
-0.1418701323
-0.1400122968
-0.139738595
-0.1379392128
-0.1372278893
-0.1352032903
-0.1337189155
-0.1311463594
-0.2319662006
-0.2127812495
-0.201297834
-0.1881703148
-0.1809357719
-0.1716170661
-0.1671011098
-0.1603450654
-0.1576343546
-0.1526751712
-0.1511713408
-0.147493701
-0.1467680606
-0.1439929337
-0.1437076619
-0.1415291023
-0.1413896252
-0.1395355747
-0.139258212
-0.13746278
-0.1367500133
-0.134730922
-0.1332494825
-0.1306855187
-0.2304948503
-0.2114314231
-0.2000205741
-0.1869762453
-0.1797877807
-0.1705281792
-0.1660414575
-0.1593283742
-0.1566359016
-0.1517083943
-0.1502156557
-0.1465616706
-0.1458427123
-0.1430855796
-0.14280464
-0.1406402609
-0.1405044107
-0.1386623091
-0.1383892367
-0.13660498
-0.1358983693
-0.1338913255
-0.1324194671
-0.1298711006
-0.2283038539
-0.209421125
-0.1981182487
-0.1851972974
-0.178076309
-0.168903986
-0.1644586422
-0.1578084298
-0.1551398159
-0.1502579587
-0.1487771361
-0.1451564117
-0.1444414563
-0.141708787
-0.1414271911
-0.1392814379
-0.1391432359
-0.1373166417
-0.1370425551
-0.1352734585
-0.1345705801
-0.1325814194
-0.1311219967
-0.1285978052
-0.2253871215
-0.2067455291
-0.1955869049
-0.182830925
-0.1758009517
-0.1667457082
-0.1623574575
-0.155792127
-0.1531582394
-0.1483387069
-0.1468778191
-0.1433033349
-0.1425989322
-0.1399011541
-0.1396249183
-0.1375064806
-0.1373719575
-0.1355683886
-0.1352994811
-0.1335522665
-0.132859217
-0.1308942047
-0.1294527979
-0.1269597519
-0.2217706461
-0.203427594
-0.1924475407
-0.1798956872
-0.1729779037
-0.1640673475
-0.1597486588
-0.1532879339
-0.1506951666
-0.1459520453
-0.1445131207
-0.1409948537
-0.1402999385
-0.1376440967
-0.137370193
-0.1352842296
-0.1351495949
-0.1333733781
-0.1331065415
-0.1313858434
-0.1307019848
-0.1287671938
-0.1273476339
-0.1248938071
-0.217445289
-0.1994599597
-0.1886938948
-0.176386676
-0.1696036531
-0.1608666144
-0.1566320944
-0.1502970348
-0.1477549427
-0.1431039206
-0.1416933749
-0.1382432441
-0.137562425
-0.1349578122
-0.134690002
-0.1326440495
-0.132512912
-0.1307705356
-0.1305096936
-0.1288215594
-0.1281513641
-0.1262528956
-0.1248601638
-0.1224519407
-0.2124487092
-0.1948760139
-0.1843569275
-0.1723320386
-0.1657045267
-0.1571678178
-0.1530301939
-0.1468402306
-0.1443560564
-0.1398113416
-0.13843261
-0.1350610624
-0.1343951988
-0.1318495981
-0.131587194
-0.1295872983
-0.1294584144
-0.1277550793
-0.127499504
-0.1258492333
-0.1251936966
-0.1233379532
-0.1219760898
-0.1196215255
-0.2067692122
-0.1896663147
-0.1794282039
-0.1677245136
-0.1612737823
-0.1529648213
-0.1489373505
-0.1429122273
-0.140493989
-0.1360699558
-0.1347276111
-0.1314451941
-0.1307966778
-0.1283179364
-0.1280621282
-0.1261143511
-0.125988562
-0.1243293962
-0.1240804509
-0.1224731712
-0.1218352652
-0.1200284599
-0.1187035746
-0.1164101859
-0.2004551449
-0.1838738102
-0.1739480103
-0.1626013214
-0.1563474687
-0.1482919872
-0.1443875194
-0.1385461925
-0.1362019297
-0.1319128038
-0.1306117047
-0.1274292868
-0.1268009653
-0.1243975825
-0.1241500971
-0.1222613234
-0.1221399436
-0.1205308319
-0.1202899901
-0.1187311289
-0.1181129085
-0.1163606397
-0.1150757422
-0.1128509486
-0.1934931318
-0.1774877256
-0.1679063225
-0.1569533421
-0.1509160566
-0.1431396845
-0.1393699697
-0.1337305905
-0.1314666995
-0.1273253385
-0.1260681808
-0.1229947941
-0.1223868477
-0.120065128
-0.11982461
-0.1179993383
-0.1178804228
-0.1163249275
-0.1160906976
-0.1145837825
-0.1139854682
-0.1122922532
-0.111050822
-0.1089014289
-0.185940645
-0.1705592102
-0.1613515363
-0.1508257519
-0.1450242147
-0.1375512848
-0.1339290805
-0.1285098789
-0.1263350097
-0.1223554447
-0.1211483311
-0.1181950773
-0.1176121566
-0.1153811483
-0.1151515541
-0.1133973767
-0.1132846521
-0.1117892829
-0.1115653475
-0.1101160192
-0.1095412262
-0.1079122055
-0.1067179437
-0.1046509185
-0.1777839621
-0.163077298
-0.1542730924
-0.1442085652
-0.138660669
-0.1315147138
-0.1280502043
-0.1228675582
-0.1207865501
-0.1169800486
-0.115823976
-0.1129983997
-0.1124387605
-0.1103033551
-0.1100811777
-0.1084012759
-0.1082905157
-0.1068576741
-0.1066403293
-0.1052512017
-0.104698289
-0.1031374552
-0.101992666
-0.1000149949
-0.1690876084
-0.1550995255
-0.1467257673
-0.1371532644
-0.1318769742
-0.1250805853
-0.1217861453
-0.1168572444
-0.1148790422
-0.1112591305
-0.1101610801
-0.1074741983
-0.1069438749
-0.1049133611
-0.1047043446
-0.1031067831
-0.1030037527
-0.101640551
-0.1014355413
-0.1001128566
-0.09958719221
-0.09809997046
-0.09700924558
-0.09512637055
-0.1598392011
-0.1466161935
-0.1386998918
-0.1296503882
-0.1246616529
-0.1182360195
-0.1151203011
-0.1104596521
-0.1085877342
-0.1051641189
-0.1041237386
-0.1015817551
-0.1010775758
-0.09915569266
-0.09895481392
-0.097441839
-0.0973408035
-0.09604901843
-0.09585135999
-0.09459754753
-0.09409673165
-0.09268731629
-0.09165282521
-0.08987093806
-0.1501078619
-0.1376890615
-0.1302545029
-0.1217556622
-0.1170709082
-0.1110365276
-0.1081111729
-0.1037345702
-0.1019777586
-0.09876307863
-0.09778771373
-0.09540113605
-0.09492989461
-0.09312570665
-0.09293978054
-0.09151945968
-0.09142747365
-0.09021442483
-0.09003124505
-0.08885294147
-0.08838357495
-0.08705772836
-0.08608455776
-0.08440800439
-0.1398844475
-0.128311353
-0.1213824848
-0.1134618058
-0.1090949483
-0.1034704758
-0.1007427123
-0.09666275476
-0.095023456
-0.09202594928
-0.09111436066
-0.08888825038
-0.08844596492
-0.08676233459
-0.08658555506
-0.08525950368
-0.08517010064
-0.08403719117
-0.08386294303
-0.08276245903
-0.08232192424
-0.08108375858
-0.0801741996
-0.07860769039
-0.1292400057
-0.1185466823
-0.1121447781
-0.1048264685
-0.1007920675
-0.09559556107
-0.09307591869
-0.08930664105
-0.08779308291
-0.0850240925
-0.08418339043
-0.08212727025
-0.08172074012
-0.08016594263
-0.08000527081
-0.07878088057
-0.07870130534
-0.07765526022
-0.07749719573
-0.07648070376
-0.07607551301
-0.07493060509
-0.07408927881
-0.07263771741
-0.1181705735
-0.1083928998
-0.102538565
-0.09584630753
-0.09215620014
-0.08740363342
-0.08509806773
-0.08165016002
-0.08026401474
-0.07773042723
-0.07695900002
-0.07507699459
-0.07470209699
-0.07327836229
-0.07312797328
-0.07200642674
-0.07193022262
-0.07097208361
-0.07082463791
-0.06989398114
-0.06952151062
-0.06847318592
-0.06770252563
-0.06636910739
-0.1067464158
-0.09791306221
-0.09262426872
-0.08657850332
-0.08324507129
-0.07895174829
-0.0768693057
-0.07375470587
-0.07250313877
-0.07021462351
-0.06951874815
-0.06781895741
-0.06748173995
-0.06619602962
-0.06606208941
-0.0650494498
-0.06498289929
-0.06411796648
-0.06398712745
-0.06314703181
-0.06281214706
-0.06186510447
-0.06116804288
-0.05996004332
-0.09497057003
-0.08711124883
-0.08240502621
-0.07702532948
-0.07405831417
-0.0702374088
-0.06838293718
-0.0656104386
-0.06449472631
-0.0624569335
-0.06183513704
-0.060320939
-0.06001780828
-0.05887194542
-0.05874939586
-0.05784660781
-0.05778407192
-0.05701308772
-0.05689396164
-0.05614560537
-0.05584613081
-0.05500242785
-0.05438183729
-0.05330062079
-0.08290994978
-0.07604766376
-0.07193843431
-0.06724121658
-0.06465054898
-0.0613143465
-0.05969508226
-0.05727424753
-0.05630008475
-0.0545207114
-0.05397792485
-0.05265567772
-0.05239130143
-0.05139059865
-0.05128407075
-0.05049551797
-0.05044148089
-0.04976793223
-0.049664316
-0.04901049398
-0.04874859488
-0.04801147965
-0.04746742103
-0.04652293735
-0.07057612196
-0.06473396367
-0.06123499075
-0.05723548066
-0.05502879697
-0.05218757152
-0.05080739878
-0.04874513005
-0.04791369081
-0.04639723968
-0.04593257599
-0.04480506671
-0.0445769864
-0.04372306784
-0.04362902848
-0.04295566963
-0.04290619667
-0.04233082684
-0.04223946296
-0.04168104733
-0.04145595393
-0.04082654328
-0.04036310707
-0.03955439074
-0.05803038542
-0.05322547367
-0.0503474329
-0.04705780633
-0.04524237233
-0.04290518923
-0.04176928265
-0.04007256657
-0.03938776829
-0.03813976944
-0.0377564443
-0.03682812158
-0.03663920469
-0.03593563844
-0.03585676106
-0.03530134903
-0.03525880244
-0.03478354029
-0.03470594063
-0.03424414725
-0.03405542974
-0.03353528604
-0.03314922833
-0.03248586666
-0.04529394349
-0.0415423965
-0.03929463215
-0.03672557575
-0.03530690575
-0.03348104907
-0.0325924247
-0.0312662558
-0.0307293737
-0.02975322235
-0.02945125194
-0.02872439741
-0.02857376177
-0.02802210574
-0.02795695941
-0.02752067675
-0.02748354528
-0.02710951566
-0.02704489404
-0.02668103268
-0.0265301459
-0.02612070236
-0.02581788553
-0.02529827609
-0.03242064999
-0.02973354193
-0.0281228443
-0.02628215564
-0.02526470774
-0.023955892
-0.02331750443
-0.02236617612
-0.02197916844
-0.02127813352
-0.02105881332
-0.0205359204
-0.02042442595
-0.02002656032
-0.0199757161
-0.01965994525
-0.01962855111
-0.01935674374
-0.01930497835
-0.01903977171
-0.01892536986
-0.01862736042
-0.01840363876
-0.01803151501
-0.01944192257
-0.01782815231
-0.01685982969
-0.01575350817
-0.0151406402
-0.01435307477
-0.01396710036
-0.01339365333
-0.01315797922
-0.01273432375
-0.01259870636
-0.01228153415
-0.01221005354
-0.0119674472
-0.01193178111
-0.01173789211
-0.01171330067
-0.01154518832
-0.01150780491
-0.01134306788
-0.01126764056
-0.0110833005
-0.01094283568
-0.0107183912
-0.006402875272
-0.005867364128
-0.005544244425
-0.005175627877
-0.004968926107
-0.004704914826
-0.004572031737
-0.004378028025
-0.004293636228
-0.004148356325
-0.004095774471
-0.00398488358
-0.003952241335
-0.003865154364
-0.003843145825
-0.003771285706
-0.003751930536
-0.003687845933
-0.003663793166
-0.003600512677
-0.003564533053
-0.00349588475
-0.003442084038
-0.003365712247
0.006654871925
0.006110576514
0.005787302201
0.00541699637
0.005216385882
0.004955785518
0.004834285728
0.004647833756
0.004579348406
0.004445207789
0.00441273179
0.004316220801
0.004307505386
0.004237873258
0.004243238392
0.004191835006
0.004202724047
0.004161627114
0.004169496083
0.004130509604
0.004126056277
0.004079063527
0.004049864431
0.003978149507
0.01969566094
0.01807284369
0.0171043244
0.01599623765
0.01538958595
0.01460547281
0.01423114431
0.01366537173
0.01344599312
0.01303365119
0.01291863697
0.01261602833
0.01256903543
0.01234400603
0.01233624434
0.0121627645
0.01216875767
0.01202330952
0.01201780468
0.01187685477
0.01183256573
0.01167014408
0.0115546582
0.01133985406
0.03266827939
0.0299727606
0.02836196541
0.02651970287
0.02550814806
0.02420268029
0.02357522745
0.02263124148
0.02225940378
0.02156915816
0.02136885021
0.02085982672
0.02077071647
0.02038957242
0.02036400547
0.02006761395
0.02006374194
0.01981336911
0.01979032179
0.01954754473
0.01946197592
0.01918507659
0.01898693735
0.01862650751
0.04554666155
0.04178593049
0.03953793958
0.03696708212
0.03555466465
0.03373227316
0.03285534719
0.03153688092
0.03101630939
0.03005147294
0.02976999138
0.02905759416
0.02893104898
0.02839659525
0.02835842891
0.02794163559
0.02793329427
0.02758012073
0.02754436774
0.02720154326
0.02707769256
0.02668830541
0.02640729492
0.02590710586
0.05827117269
0.05345831972
0.05058026308
0.04728922075
0.04547944255
0.04314554273
0.04202000361
0.04033037626
0.03965978459
0.03842213385
0.0380563438
0.03714122625
0.03697254538
0.0362847147
0.03622811078
0.03569058262
0.0356715437
0.03521549046
0.03516165729
0.03471943441
0.03455459734
0.03405408356
0.03369196233
0.03305085962
0.07082494576
0.06497360573
0.06147439261
0.05747308969
0.05527260923
0.05243483744
0.05106622226
0.04901160955
0.04819618014
0.04669094171
0.04624619552
0.0451329409
0.04492795328
0.04409083701
0.04402215639
0.04336752745
0.04334442245
0.04278864897
0.04272298906
0.04218411065
0.04198309859
0.04137411089
0.0409331046
0.04015537819
0.08314157322
0.0762718969
0.07216277139
0.06746434347
0.06487910026
0.06154613973
0.05993664943
0.05752266232
0.05656168927
0.05479225018
0.0542654541
0.05295584429
0.05270951904
0.0517238414
0.05163668642
0.05086518454
0.05083110443
0.05017593185
0.05009228724
0.04945769615
0.04921676211
0.04850109948
0.0479815025
0.04706864542
0.0952125469
0.08734419669
0.08263774507
0.07725631196
0.07429538016
0.07047789806
0.06863468883
0.06586974458
0.06476951869
0.06274279285
0.06214008631
0.06063999953
0.06035876234
0.05922963636
0.05913086643
0.05824695865
0.05820900348
0.05745827274
0.05736341064
0.05663633869
0.05636102023
0.05554150929
0.05494681341
0.05390251557
0.106966698
0.09812657175
0.09283805261
0.08679133214
0.08346314222
0.07917306147
0.0770998622
0.07399192052
0.07275263438
0.07047373843
0.06979251586
0.06810501753
0.06778407132
0.06651317104
0.06639648035
0.06540108265
0.06535236194
0.06450687356
0.06439459559
0.06357633682
0.06326275823
0.06234166498
0.06167202279
0.06049947033
0.1184027119
0.108616319
0.1027618005
0.09606791226
0.09238371623
0.08763452155
0.08533980773
0.08189929256
0.08052796371
0.07800524129
0.07725195086
0.0753839371
0.07502972482
0.07362289631
0.07349497168
0.07239309623
0.07234043444
0.07140443871
0.07128119309
0.0703752198
0.07002852281
0.06900860888
0.06826678537
0.06696940492
0.1294468943
0.1187474683
0.1123460658
0.1050271017
0.1009978392
0.09580461925
0.09329381363
0.08953105851
0.08802908267
0.08526947996
0.08444244257
0.08239841535
0.08200693399
0.08046698702
0.08032227577
0.07911573509
0.0790530043
0.0780280332
0.07788844085
0.07689677773
0.07651412683
0.07539870513
0.07458659208
0.07316893059
0.1401037619
0.1285224162
0.1215934505
0.1136712916
0.1093101347
0.1036889501
0.1009715385
0.09689871935
0.09527345809
0.09228647542
0.09139197647
0.0891795599
0.0887567088
0.08708992864
0.08693432019
0.08562840757
0.0855615357
0.0844520923
0.08430180549
0.08322828627
0.08281437046
0.08160681243
0.0807273146
0.07919358425
0.1502994048
0.1378752099
0.1304414339
0.1219422731
0.1172626405
0.1112316197
0.108314841
0.1039446482
0.1021989615
0.09899344349
0.09803112282
0.09565639208
0.09519947324
0.0934099908
0.09323928571
0.0918369187
0.09176116754
0.09056969462
0.0904046658
0.08925205438
0.08880510479
0.08750926496
0.08656469269
0.08491953261
0.1600427602
0.1468121237
0.1388958529
0.1298450583
0.1248617804
0.1184393012
0.115333357
0.1106794595
0.1088207015
0.1054070342
0.104382587
0.1018536073
0.1013674697
0.0994617128
0.09928043692
0.09778690419
0.09770673488
0.09643774905
0.09626236617
0.09503470089
0.09455876278
0.09317853904
0.09217224612
0.0904204709
0.169261926
0.1552691829
0.1468965269
0.1373240546
0.1320529394
0.1252599854
0.1219739887
0.1170513618
0.115084044
0.1114729903
0.1103876834
0.1077121996
0.107195866
0.1051794422
0.1049852438
0.1034047503
0.1033173268
0.1019743301
0.101786295
0.1004870981
0.09998163221
0.09852127577
0.09745582167
0.09560255653
0.1779689391
0.1632554141
0.1544514057
0.1443858056
0.1388430908
0.1317000931
0.1282447056
0.1230682658
0.1209994451
0.1172020317
0.1160606261
0.1132468866
0.1127037455
0.1105829512
0.1103785218
0.1087160692
0.1086238811
0.1072111297
0.1070130773
0.1056463428
0.1051143464
0.1035780709
0.1024569979
0.1005074597
0.1860959065
0.1707105628
0.1615043253
0.1509789179
0.1451826422
0.1377131907
0.1340993736
0.1286862411
0.1265221663
0.1225510227
0.1213565966
0.1184140433
0.1178451117
0.1156271261
0.1154123067
0.1136735304
0.1135760263
0.11209824
0.1118899895
0.1104601391
0.1099026084
0.108295194
0.107121576
0.1050815656
0.1936568551
0.177645488
0.1680644777
0.1571106642
0.1510782452
0.1433045671
0.139543245
0.1339093699
0.1316566046
0.1275232041
0.1262793647
0.1232162361
0.122623182
0.120313965
0.1200893035
0.1182787003
0.1181760473
0.1166370057
0.1164190743
0.1149298752
0.1143484288
0.1126743001
0.111451629
0.1093268331
0.2005895532
0.1840050722
0.1740810269
0.1627350359
0.1564865113
0.1484344858
0.1445383473
0.1387027737
0.1363692634
0.1320879576
0.1307996205
0.1276269784
0.1270128978
0.1246211902
0.1243888597
0.1225135499
0.122407671
0.1208134233
0.1205879826
0.1190449107
0.1184423498
0.1167069762
0.1154391091
0.1132359698
0.2069092156
0.1898013707
0.1795638651
0.1678595977
0.1614133692
0.1531067776
0.1490868855
0.1430664309
0.1406581661
0.1362407569
0.134910318
0.1316362986
0.1310010809
0.1285324187
0.1282907459
0.1263546264
0.1262432577
0.1245970098
0.1243623258
0.1227688493
0.1221452857
0.1203532871
0.1190435779
0.1167682587
0.2125605005
0.1949854293
0.1844683661
0.1724444525
0.1658222537
0.1572888809
0.1531594303
0.1469747547
0.1445012009
0.139963506
0.1385975621
0.1352346361
0.1345833122
0.132047833
0.1318011944
0.1298127628
0.1297002056
0.128009296
0.1277698558
0.1261325363
0.1254926176
0.1236502311
0.1223034112
0.1199630083
0.2175593627
0.1995701872
0.1888049427
0.1764974137
0.1697184678
0.160983426
0.1567555708
0.1504242471
0.1478908682
0.1432449918
0.1418448514
0.1384010855
0.137731947
0.1351348282
0.1348795375
0.1328421589
0.132723917
0.1309910306
0.1307430069
0.1290650623
0.12840751
0.1265196353
0.1251390373
0.1227402247
0.2218581123
0.2035134608
0.1925356144
0.1799849554
0.1730723272
0.1641648643
0.1598539939
0.1533979079
0.1508153806
0.1460782392
0.1446518424
0.1411407576
0.1404603855
0.1378128127
0.137555021
0.1354782447
0.1353605518
0.1335940355
0.1333438189
0.1316326794
0.1309636743
0.1290371765
0.1276282419
0.1251787513
0.2254733638
0.2068290826
0.1956714821
0.1829154645
0.1758890624
0.1668354148
0.1624527945
0.1558902126
0.1532636378
0.1484476987
0.1469955647
0.1434253205
0.1427308285
0.1400378506
0.1397723659
0.1376592744
0.1375359294
0.1357381555
0.1354802762
0.1337390489
0.1330562109
0.1310964307
0.1296626596
0.1271701899
0.2283653864
0.2094818478
0.1981812359
0.1852616268
0.1781454377
0.1689758304
0.1645376621
0.1578912422
0.1552320956
0.150354915
0.1488858409
0.145270523
0.1445694529
0.1418427882
0.1415768418
0.1394375037
0.139315909
0.1374957082
0.137237709
0.1354741906
0.134784628
0.1327985664
0.1313457725
0.1288180056
0.2305516958
0.211486767
0.2000771152
0.1870330158
0.1798475111
0.1705891014
0.1661068276
0.1593954984
0.1567087631
0.1517832947
0.1502974396
0.146645563
0.145934462
0.1431794032
0.1429070613
0.140744699
0.1406177742
0.1387775702
0.1385130316
0.1367303764
0.136030868
0.1340242453
0.1325557452
0.1300024375
0.2320004323
0.2128154827
0.2013341744
0.1882080495
0.1809777068
0.1716611914
0.1671514087
0.1603981151
0.1576955992
0.152739532
0.1512459825
0.147571641
0.1468583087
0.1440864942
0.143815226
0.1416397813
0.1415151721
0.1396636539
0.139400427
0.1376062533
0.1369044019
0.1348838638
0.1334062598
0.1308340405
0.2327304985
0.2134846648
0.2019664239
0.1887982668
0.1815439933
0.1721972344
0.1676716378
0.160895938
0.1581827793
0.1532096908
0.1517087255
0.1480210896
0.1473022031
0.1445196179
0.1442436478
0.1420590351
0.1419298044
0.1400699964
0.1398016088
0.137999416
0.1372912641
0.1352624626
0.1337767796
0.1311962303
0.2327175096
0.2134724203
0.2019547549
0.1887871498
0.1815334871
0.1721871547
0.1676623236
0.160886974
0.1581748541
0.1532020693
0.1517025062
0.1480151305
0.1472980534
0.1445156488
0.1442418488
0.1420572503
0.1419303724
0.1400702748
0.1398040952
0.138001124
0.1372946017
0.1352643807
0.1337794164
0.1311968068
0.2319823769
0.2127976528
0.2013156403
0.1881890056
0.1809571445
0.1716395569
0.1671274848
0.1603726011
0.1576670456
0.1527088543
0.1512115197
0.1475344754
0.1468166502
0.144041501
0.1437651027
0.1415856649
0.1414554036
0.1395993122
0.1393300857
0.1375310084
0.1368230331
0.1347980123
0.1333148663
0.1307417802
0.2305076037
0.2114444064
0.200035184
0.1869916656
0.1798058139
0.1705471496
0.1660640321
0.1593517568
0.1566639317
0.1517368699
0.1502498569
0.1465957039
0.1458834997
0.1431253678
0.1428519646
0.1406855603
0.1405574022
0.138712047
0.1384456541
0.1366567002
0.1359540256
0.1339404037
0.1324671607
0.1299087689
0.2283167494
0.2094343784
0.1981329498
0.1852128926
0.1780943314
0.168923068
0.1644811791
0.1578320402
0.1551679934
0.1502870454
0.148812008
0.145191815
0.1444838648
0.1417511157
0.1414775129
0.1393308059
0.139200913
0.1373721813
0.1371054053
0.1353326517
0.1346340367
0.1326392427
0.131178185
0.1286456014
0.2253985396
0.2067569805
0.1955996462
0.1828442334
0.1758164867
0.1667618996
0.1623767596
0.1558119433
0.1531820523
0.1483626592
0.1469066818
0.1433317208
0.142633081
0.1399339854
0.1396641252
0.1375433494
0.1374152672
0.135608242
0.1353448912
0.1335931313
0.1329033762
0.1309326715
0.129490329
0.1269889544
0.2217797299
0.2034371528
0.1924583905
0.1799073675
0.1729915639
0.1640819378
0.1597660003
0.1533062095
0.1507170459
0.1459747284
0.144540369
0.1410226006
0.1403332226
0.1376773612
0.137409778
0.1353230427
0.1351949863
0.1334170388
0.1331560577
0.131432555
0.1307523171
0.1288134985
0.1273932509
0.1249327893
0.217454626
0.1994691491
0.1887039927
0.1763970941
0.1696157808
0.1608791406
0.1566470483
0.1503122672
0.1477732836
0.1431222235
0.1417154752
0.1382647874
0.1375883815
0.1349824925
0.1347194865
0.1326713825
0.132544993
0.1307995708
0.1305427318
0.1288508791
0.1281830326
0.1262805885
0.1248875492
0.122474223
0.2124535526
0.194881422
0.1843633523
0.1723391795
0.1657130434
0.1571770786
0.1530412793
0.1468520608
0.1443702176
0.1398261769
0.1384503733
0.135079316
0.1344169884
0.1318715275
0.1316131268
0.1296128132
0.1294880286
0.1277835384
0.1275315277
0.1258793148
0.1252259604
0.1233676903
0.1220059582
0.119648055
0.2067758419
0.1896726384
0.17943503
0.1677314242
0.1612817987
0.1529729987
0.1489471395
0.1429221115
0.1405059251
0.1360817924
0.1347419335
0.1314590934
0.1308134254
0.128333795
0.1280810016
0.1261317224
0.1260087408
0.1243473589
0.1241004565
0.1224902493
0.1218528912
0.1200427921
0.1187165205
0.1164209524
0.2004555363
0.1838748177
0.1739496789
0.1626035489
0.1563503552
0.1482953784
0.1443916497
0.1385508247
0.1362074047
0.1319187877
0.1306187014
0.1274367764
0.1268096583
0.1244066734
0.1241605128
0.1222718812
0.1221517342
0.1205422632
0.1203021785
0.1187421148
0.1181236055
0.1163691554
0.1150826949
0.1128565792
0.1934965696
0.1774907319
0.1679094188
0.1569563046
0.1509194725
0.1431430392
0.1393740392
0.1337346038
0.1314716072
0.1273301573
0.1260740659
0.1230005394
0.1223937919
0.1200718561
0.1198325607
0.1180069325
0.1178890494
0.1163329238
0.1160992054
0.114591116
0.1139923126
0.1122972682
0.1110542696
0.1089048147
0.1859366113
0.1705558044
0.1613483868
0.150822968
0.1450213144
0.1375486061
0.1339259798
0.1285069878
0.1263313776
0.1223521102
0.1211439819
0.1181912072
0.1176070502
0.1153767715
0.115145786
0.1133925969
0.1132784092
0.1117841809
0.1115588127
0.1101104323
0.1095342576
0.1079054979
0.1067101353
0.1046435422
0.1777838962
0.1630767131
0.1542721981
0.1442073392
0.1386592332
0.131513003
0.1280482833
0.1228654317
0.1207841218
0.1169775437
0.1158210765
0.1129956617
0.1124355523
0.1103006891
0.1100780124
0.1083991795
0.1082879932
0.106856839
0.1066393221
0.1052523517
0.1046996118
0.1031407941
0.101996525
0.1000198728
0.1690794198
0.1550919373
0.1467180148
0.1371456589
0.1318684804
0.1250720022
0.1217759985
0.1168469746
0.1148664826
0.1112465946
0.11014555
0.1074590437
0.1069251106
0.1048955612
0.1046825547
0.1030868094
0.1029798938
0.1016196141
0.1014116409
0.1000930196
0.09956622594
0.09808345689
0.09699399255
0.09511277048
0.1598355085
0.1466119326
0.1386949558
0.1296449452
0.1246553643
0.1182292461
0.1151124179
0.1104513891
0.1085779954
0.1051542403
0.1041120142
0.1015703372
0.101064
0.09914314962
0.09893998919
0.09742912908
0.09732612088
0.09603794004
0.09583939629
0.09459090225
0.09409113245
0.09268797059
0.09165668518
0.08987748381
0.1500960158
0.1376777515
0.130242627
0.1217437047
0.1170573583
0.1110225728
0.1080946299
0.1037175514
0.1019570676
0.09874206881
0.09776193402
0.09537545897
0.0948984405
0.09309510488
0.09290272854
0.09148443023
0.09138609678
0.09017677391
0.08998876132
0.08881635163
0.0883454871
0.08702721743
0.08605724664
0.08438497674
0.139877196
0.1283035212
0.1213736656
0.1134523316
0.1090840597
0.1034589002
0.1007292097
0.09664866503
0.09500681067
0.0920089861
0.09109418562
0.08886825533
0.0884221451
0.0867394866
0.08655848324
0.08523457614
0.08514110871
0.08401202138
0.08383497502
0.08274051866
0.0822999745
0.081069948
0.08016453171
0.07860503382
0.1292251971
0.1185323129
0.1121294928
0.104810881
0.1007743108
0.09557710821
0.09305406147
0.08928397018
0.0877656533
0.08499596599
0.08414909251
0.08209264075
0.08167856876
0.08012408789
0.07995480102
0.07873172484
0.07864325346
0.07760000938
0.07743435954
0.07642280223
0.07601380537
0.0748765168
0.07403821859
0.0725958859
0.1181600135
0.1083817834
0.1025262204
0.09583319547
0.09214120748
0.08738777394
0.08507960429
0.0816308904
0.08024129128
0.07770712327
0.07693133218
0.07504915163
0.07466896479
0.07324563967
0.07308915495
0.07196878923
0.07188611078
0.07093021018
0.07077693497
0.06985014265
0.06947437531
0.06843282218
0.06766463444
0.06634438702
0.1067294947
0.09789645738
0.09260647508
0.08656021272
0.08322420725
0.07892995104
0.07684356758
0.0737278794
0.07247087426
0.07018132844
0.06947843164
0.06777785301
0.06743201449
0.06614590912
0.06600193193
0.06498941069
0.06491200976
0.06404789664
0.0639067811
0.06306872033
0.06272679884
0.06178472705
0.06108866569
0.05989438175
0.0949571169
0.08709729807
0.08238969098
0.07700915895
0.07403992824
0.07021801932
0.06836045592
0.06558696245
0.06446716471
0.0624285319
0.06180158786
0.06028681749
0.05997742429
0.05883129574
0.05870138987
0.05779858844
0.05772782809
0.05695704356
0.0568295458
0.05608197225
0.05577576532
0.05493570365
0.05431443118
0.05325001058
0.08289186991
0.0760297583
0.07191915928
0.0672212893
0.0646278402
0.06129054493
0.05966712008
0.05724502877
0.05626522015
0.0544846164
0.05393463282
0.05261131256
0.0523381719
0.05133660154
0.05121987177
0.05043060792
0.05036537864
0.04969121754
0.04957652432
0.04892244688
0.04865198284
0.0479169315
0.04737189721
0.04644066744
0.07056033052
0.06471776687
0.06121734417
0.05721698288
0.05500789539
0.0521655913
0.0507820549
0.04871867295
0.04788283189
0.04636537218
0.04589524306
0.04476691515
0.04453229878
0.04367774271
0.04357614818
0.0429022092
0.04284435927
0.04226832042
0.04216830468
0.04160929449
0.04137658893
0.04074854972
0.0402820678
0.03948685995
0.05801214789
0.05320725644
0.05032775978
0.04703737177
0.04521914234
0.04288079322
0.04174081492
0.0400427982
0.03935260419
0.03810335111
0.03771331751
0.03678390809
0.03658704138
0.03588260342
0.03579474278
0.03523865274
0.03518656802
0.03471081767
0.03462412334
0.03416223024
0.03396672311
0.03344791566
0.03306081191
0.03240434356
0.04527647687
0.04152464736
0.03927545762
0.03670558905
0.03528447245
0.03345753231
0.03256548397
0.03123817105
0.03069687253
0.02971966626
0.02941234938
0.0286846353
0.02852783957
0.02797556929
0.0279036631
0.02746701855
0.0274229094
0.02704881764
0.02697764444
0.02661419852
0.02645801584
0.02604989213
0.02574414033
0.02522816528
0.03240324586
0.02971599769
0.02810384323
0.02626232893
0.02524223979
0.02393226286
0.02329014856
0.02233758239
0.0219457908
0.02124362079
0.02101857702
0.02049478662
0.02037682819
0.01997839852
0.01992068644
0.01960477695
0.01956666913
0.0192953226
0.01923788005
0.01897398739
0.01885602353
0.0185599894
0.01833575753
0.01796230924
0.01942351714
0.01780961331
0.01683997141
0.01573292949
0.01511770282
0.01432911662
0.01393983735
0.01336529374
0.01312542084
0.0127007544
0.01256020065
0.01224223566
0.01216532525
0.01192225658
0.01188103818
0.01168714131
0.01165742066
0.01148994328
0.01144859452
0.01128525922
0.01120764009
0.01102456555
0.01088345037
0.01065323071
0.006387232213
0.005851419578
0.005526910431
0.005157442093
0.004948378938
0.004683268686
0.004547178155
0.004352064901
0.00426371496
0.004117481899
0.004060397851
0.003948837472
0.003911436464
0.00382405123
0.003797399791
0.003725672796
0.003702217973
0.003638721223
0.003611444633
0.003548906252
0.003510132513
0.003440622743
0.003382186866
0.003296462804
-0.006673442992
-0.006129111966
-0.005806981588
-0.005437257482
-0.005238810094
-0.004979109839
-0.004860661523
-0.004675201201
-0.004610554986
-0.004477341418
-0.004449276527
-0.004353506104
-0.004349470022
-0.00428030528
-0.004290224495
-0.004238970603
-0.004253844536
-0.004212640513
-0.004223574901
-0.004184776343
-0.004182802355
-0.004138530134
-0.004113192184
-0.004054719768
-0.01970872428
-0.01808636561
-0.01711912022
-0.01601188254
-0.01540723424
-0.01462412438
-0.01425239708
-0.01368758321
-0.01347127201
-0.01305970967
-0.01294798174
-0.01264589017
-0.01260210388
-0.01237732424
-0.01237239794
-0.01219901235
-0.01220732114
-0.01206213229
-0.01205869821
-0.01191905202
-0.01187796657
-0.01172003914
-0.01161182067
-0.01140872972
-0.0326862422
-0.02999050509
-0.0283806233
-0.02653876428
-0.02552909287
-0.02422435609
-0.02359960789
-0.02265646516
-0.0222880354
-0.02159861379
-0.02140219239
-0.02089389699
-0.02080886586
-0.0204283542
-0.02040674978
-0.02011101677
-0.02011076685
-0.01986143298
-0.01984174389
-0.01960132856
-0.0195197368
-0.01924868098
-0.01905717422
-0.01871070362
-0.04555647124
-0.04179634579
-0.03954948324
-0.03697945098
-0.03556864261
-0.03374714386
-0.03287219736
-0.03155454412
-0.03103619382
-0.03007200152
-0.02979274714
-0.02908079757
-0.02895623497
-0.02842211474
-0.02838551486
-0.02796919246
-0.02796207908
-0.0276100185
-0.02757574096
-0.02723564487
-0.02711505646
-0.02673165116
-0.02645802678
-0.02596865631
-0.05828778688
-0.0534745266
-0.05059711079
-0.04730626146