/*--------------------------------*- C++ -*----------------------------------*\
| =========                 |                                                 |
| \\      /  F ield         | foam-extend: Open Source CFD                    |
|  \\    /   O peration     | Version:  3.0                                   |
|   \\  /    A nd           | Web:         http://www.extend-project.de       |
|    \\/     M anipulation  |                                                 |
\*---------------------------------------------------------------------------*/
FoamFile
{
    version     2.0;
    format      ascii;
    class       volSymmTensorField;
    location    "66";
    object      sigma;
}
// * * * * * * * * * * * * * * * * * * * * * * * * * * * * * * * * * * * * * //

dimensions      [0 0 0 0 0 0 0];

internalField   nonuniform List<symmTensor> 
2688
(
(-0.1784241438 -0.004973422098 1.924134111e-19 0.1785277506 4.046353712e-19 -0.000103606741)
(-0.1748981165 -0.005843954543 1.742877119e-20 0.1751793572 2.795993396e-19 -0.0002812406578)
(-0.1676274196 -0.006252976346 -9.088387431e-20 0.1680678645 7.638443798e-19 -0.0004404449628)
(-0.1582367657 -0.006349307988 8.061067817e-20 0.1588207375 3.486148249e-19 -0.0005839717903)
(-0.1482926192 -0.006295772899 7.112962351e-23 0.1490063694 4.521246981e-19 -0.0007137502694)
(-0.1378718972 -0.006124133558 1.347851035e-19 0.1387027903 2.34251932e-19 -0.0008308931036)
(-0.1278587132 -0.005910154135 1.349997339e-21 0.1287948111 3.149119339e-19 -0.0009360979777)
(-0.1179318731 -0.005656714027 9.886147505e-20 0.1189614709 1.278366197e-19 -0.001029597837)
(-0.1086518606 -0.005399221574 -2.289095108e-20 0.1097631755 2.595288586e-19 -0.001111314879)
(-0.09966935445 -0.005137428922 -5.982022785e-20 0.1008502866 -6.415914561e-20 -0.001180932157)
(-0.09133350053 -0.004884777649 1.008564604e-19 0.09257130617 4.809055955e-19 -0.001237805641)
(-0.08338607527 -0.004644958623 -6.801641731e-20 0.08466727037 7.263384144e-20 -0.001281195092)
(-0.07601489004 -0.004418145345 3.842145118e-19 0.07732486521 1.324246161e-19 -0.00130997517)
(-0.06908391962 -0.004213373446 -8.504708537e-20 0.07040694464 2.595025842e-20 -0.001323025018)
(-0.06265074356 -0.004022181972 3.015289976e-21 0.06396950507 8.023221801e-20 -0.001318761506)
(-0.05670154034 -0.003858621776 2.310121315e-20 0.0579972133 2.119788825e-20 -0.001295672967)
(-0.0511875828 -0.003708508191 -5.617053242e-20 0.0524392941 1.511578194e-19 -0.001251711293)
(-0.04620566139 -0.003589802896 2.31995636e-19 0.04739059191 7.416086495e-20 -0.001184930522)
(-0.04162391323 -0.003485250058 -2.294552488e-19 0.04271670917 -9.880356068e-20 -0.001092795946)
(-0.0376301759 -0.003414412703 1.733759409e-19 0.03860303169 1.715635372e-19 -0.0009728557938)
(-0.03403875708 -0.003360783985 7.577203076e-20 0.03486080542 -1.838813927e-19 -0.0008220483434)
(-0.0310972416 -0.003340443569 5.942649699e-20 0.03173454928 -3.520343043e-19 -0.0006373076796)
(-0.02861109879 -0.003343066742 -2.278666245e-20 0.02902607471 9.345673744e-20 -0.0004149759156)
(-0.0268332854 -0.003382710993 -9.773658642e-20 0.02698450887 -7.03619748e-19 -0.0001512234632)
(-0.1779287772 -0.01462369945 3.860672557e-20 0.178033093 -4.999617333e-19 -0.0001043157655)
(-0.1739765898 -0.01722695033 2.871971412e-19 0.17425984 -3.079188468e-19 -0.0002832502227)
(-0.1664538586 -0.01844087042 8.877890282e-20 0.1668973991 -4.813059222e-19 -0.0004435405158)
(-0.1569325173 -0.01871400182 -1.814910581e-19 0.1575206144 -6.144548406e-20 -0.0005880971321)
(-0.1469212309 -0.01853238326 1.16203035e-19 0.1476400238 -1.604318512e-19 -0.0007187928658)
(-0.1364828885 -0.01799208671 -1.263208679e-19 0.137319648 -3.120067122e-19 -0.0008367594537)
(-0.1264761387 -0.01731905815 2.18165524e-19 0.1274188399 1.258441853e-19 -0.0009427012478)
(-0.1165752979 -0.01652217948 -7.265350204e-20 0.1176121515 -4.540963775e-19 -0.001036853585)
(-0.1073303618 -0.01570698728 -7.871813505e-20 0.1084494983 5.401553597e-20 -0.001119136421)
(-0.09838875094 -0.01487253374 2.403517101e-19 0.0995779834 -4.179206864e-19 -0.001189232457)
(-0.09009699738 -0.01405879438 8.091233296e-20 0.0913434892 -9.332408669e-20 -0.001246491827)
(-0.08219272391 -0.01327644769 -2.348004299e-20 0.08348289493 -2.833249587e-19 -0.001290171015)
(-0.0748656037 -0.01252580195 -1.974455561e-19 0.07618473883 1.431547578e-19 -0.00131913513)
(-0.06797415287 -0.01183350892 1.732134885e-19 0.06930641143 -7.082300937e-20 -0.001332258558)
(-0.06158055051 -0.01117408308 -6.750336768e-20 0.06290849494 2.193484719e-19 -0.001327944429)
(-0.05566429121 -0.01058915988 4.928195825e-20 0.05696896689 3.544857671e-19 -0.001304675681)
(-0.05018293591 -0.01003637391 3.103950202e-19 0.051443321 -2.064959304e-19 -0.001260385094)
(-0.04522574589 -0.0095687229 -4.560461376e-19 0.04641886648 4.326588136e-19 -0.001193120588)
(-0.04066784411 -0.009135295881 3.378687382e-19 0.04176816834 3.646624713e-19 -0.001100324222)
(-0.03668958758 -0.008793361895 -2.562942593e-20 0.03766912584 -3.194974165e-21 -0.0009795382592)
(-0.03311144352 -0.008494811375 -4.739777791e-19 0.03393911777 1.582669065e-19 -0.0008276742474)
(-0.03017524362 -0.008287657884 1.704353393e-19 0.03081689503 4.204159989e-19 -0.0006416514113)
(-0.02768929096 -0.008144250669 -3.71811355e-19 0.02810707749 2.426758244e-19 -0.0004177865254)
(-0.02590502099 -0.008090555666 2.995993138e-19 0.02605725482 -1.783491899e-20 -0.0001522338227)
(-0.1769506854 -0.02424737575 2.187838057e-19 0.1770554163 3.897010485e-19 -0.0001047309451)
(-0.1721590136 -0.02846517392 -2.715445924e-20 0.1724433593 5.352420673e-19 -0.0002843457487)
(-0.1641404128 -0.03041131917 5.522903772e-20 0.1645856869 2.347969581e-19 -0.0004452740481)
(-0.1543638002 -0.03082059008 2.813058738e-19 0.154954169 2.038348999e-19 -0.000590368879)
(-0.1442226406 -0.03048712011 -1.997669421e-19 0.14494422 3.130140359e-19 -0.0007215793438)
(-0.1337526662 -0.02956765622 3.133167118e-19 0.1345926531 1.849824277e-19 -0.0008399869063)
(-0.1237618934 -0.02843190334 -9.531141095e-20 0.1247082287 2.617938475e-19 -0.000946335252)
(-0.1139159921 -0.02709329744 1.894829114e-20 0.1149568303 2.107215473e-19 -0.001040838227)
(-0.1047440611 -0.02572502457 -5.180768637e-20 0.10586749 5.19907966e-19 -0.001123428897)
(-0.095887285 -0.02432431498 -2.292479536e-19 0.09708106522 1.892303093e-19 -0.001193780229)
(-0.08768686854 -0.02295719407 1.686436606e-19 0.08893811453 4.942376747e-19 -0.001251245983)
(-0.07987242701 -0.02164003344 1.559736201e-19 0.08116750199 6.890458422e-20 -0.001295074977)
(-0.07263710443 -0.02037388661 5.841032271e-19 0.0739612373 -5.666607491e-20 -0.001324132878)
(-0.06582889357 -0.01920146901 -1.637113446e-21 0.06716617835 -6.522452792e-20 -0.001337284782)
(-0.0595187586 -0.01808151663 4.708147356e-19 0.06085169331 -9.160298265e-20 -0.001332934708)
(-0.05367335069 -0.01708148904 -3.243899754e-19 0.05498290366 -7.220001333e-20 -0.001309552972)
(-0.04826229618 -0.01613241143 1.19251049e-20 0.04952737154 1.014293293e-19 -0.001265075353)
(-0.04336029754 -0.01532051055 9.93708938e-19 0.04455783057 -1.029688703e-19 -0.001197533034)
(-0.03885618437 -0.01456276759 -6.128820899e-19 0.03996055739 5.18649916e-20 -0.001104373022)
(-0.03491515478 -0.01395257527 3.525374787e-20 0.03589827151 -1.533424626e-20 -0.000983116727)
(-0.03137106906 -0.01341140736 5.574120417e-19 0.03220174935 -1.263017763e-20 -0.0008306802893)
(-0.02845210303 -0.01301812684 3.39277573e-19 0.02909606406 -3.9173397e-19 -0.0006439610327)
(-0.02597622562 -0.01272821049 -5.182162229e-19 0.02639550121 2.716421081e-19 -0.0004192755868)
(-0.0241864467 -0.01257843078 -2.335420183e-19 0.02433921063 -5.617074776e-19 -0.0001527639344)
(-0.1754888764 -0.03382579864 6.549272946e-20 0.1755936845 -1.519840601e-22 -0.0001048081288)
(-0.1694710592 -0.03946595623 1.808113671e-19 0.1697555955 -2.175548054e-19 -0.0002845362598)
(-0.1607298891 -0.0420256917 -5.011014071e-20 0.161175483 -7.102279153e-19 -0.0004455939477)
(-0.1505829244 -0.04250455355 -1.808909157e-19 0.1511736943 7.89623408e-20 -0.0005907698072)
(-0.1402551021 -0.04198050962 1.609315388e-19 0.1409771813 -2.091602794e-19 -0.0007220792197)
(-0.1297422051 -0.04066484374 -2.089347111e-19 0.1305827607 1.995484813e-20 -0.0008405556214)
(-0.1197782226 -0.03906048536 3.257884526e-19 0.1207251956 -5.100594972e-20 -0.0009469729921)
(-0.1100161025 -0.03718317297 5.075032834e-20 0.1110576313 2.547541526e-19 -0.00104152882)
(-0.1009544186 -0.03526956204 8.080469396e-20 0.1020785837 -4.40569797e-19 -0.001124165091)
(-0.09222521218 -0.03331333809 1.956404333e-19 0.0934197629 6.393287969e-20 -0.001194550713)
(-0.08416191282 -0.03140570139 -6.665107667e-20 0.0854139528 2.492779612e-19 -0.00125203998)
(-0.07648242031 -0.02956666385 -4.790798999e-19 0.07777830344 -4.12802168e-19 -0.001295883135)
(-0.06938497441 -0.02779901637 -4.74166842e-19 0.07070991636 5.586955022e-19 -0.001324941944)
(-0.06270219332 -0.02615897824 3.018680009e-19 0.06404027978 -5.493076395e-19 -0.001338086465)
(-0.05651784632 -0.02459165859 -2.467829433e-19 0.05785156011 1.075947346e-18 -0.001333713783)
(-0.05077996675 -0.02318722744 4.619053782e-19 0.05209026924 -2.086052965e-19 -0.001310302494)
(-0.0454754598 -0.02185310046 3.286762027e-20 0.046741239 5.036455145e-19 -0.001265779206)
(-0.04065850189 -0.02070499087 -3.136128887e-19 0.0418566884 -4.377040425e-19 -0.001198186519)
(-0.03623657785 -0.01963152057 6.650975576e-19 0.03734153831 5.968751314e-20 -0.00110496046)
(-0.03235513362 -0.01875777303 -2.399118583e-19 0.03333876854 1.072938918e-19 -0.0009836349209)
(-0.02886373153 -0.01797914256 -9.255232334e-19 0.02969484531 1.757866836e-19 -0.0008311137869)
(-0.02597652105 -0.01740082418 7.103688347e-19 0.02662082578 8.368962923e-20 -0.0006443047279)
(-0.02351682287 -0.01696488687 -3.331411828e-19 0.02393633661 4.472474936e-19 -0.0004195137421)
(-0.02172753585 -0.01671854145 4.691965416e-19 0.02188040725 1.007379369e-19 -0.0001528714047)
(-0.1735412728 -0.04334159438 9.061365718e-20 0.1736458284 1.275857954e-19 -0.000104555603)
(-0.1659505021 -0.0501419321 -3.89464668e-19 0.1662343321 -1.411720456e-19 -0.0002838300143)
(-0.156284742 -0.05315393326 3.229194907e-19 0.1567292498 -3.191964422e-19 -0.0004445078148)
(-0.1456665091 -0.05361221228 5.081847901e-19 0.1462558176 3.561037781e-19 -0.0005893084987)
(-0.1351036525 -0.05284514274 -1.061340164e-19 0.1358239521 -3.340319655e-19 -0.000720299589)
(-0.1245406712 -0.05111040623 3.118391352e-19 0.1253791421 5.457508233e-19 -0.0008384709044)
(-0.1146160051 -0.04902974179 2.018075451e-19 0.1155606241 -3.3990974e-19 -0.0009446190165)
(-0.1049665133 -0.04661813383 -2.5743649e-19 0.1060054395 4.448670148e-19 -0.001038926169)
(-0.09605121969 -0.04417004252 -2.664774249e-19 0.09717256388 3.531905285e-19 -0.001121344196)
(-0.08749068688 -0.0416732264 5.005028485e-19 0.08868222266 -2.777262652e-19 -0.001191535788)
(-0.07960809599 -0.0392428987 4.955948611e-20 0.08085695873 -2.391908165e-19 -0.001248862742)
(-0.07210654291 -0.0368999109 5.082764367e-19 0.07339911482 -5.079440643e-20 -0.001292571913)
(-0.06519058527 -0.03465010135 2.879462758e-19 0.06651211912 3.708275444e-19 -0.001321533843)
(-0.05867333403 -0.03255981261 4.28049983e-19 0.06000794952 -2.035796622e-19 -0.001334615493)
(-0.05265477047 -0.03056323155 9.01623755e-19 0.05398499649 2.72807039e-19 -0.001330226019)
(-0.04705923061 -0.0287694139 -7.926310193e-19 0.04836607093 -8.369491437e-19 -0.001306840321)
(-0.04189564332 -0.02706553064 1.284507282e-19 0.04315804524 -7.020742472e-19 -0.001262401922)
(-0.03719178662 -0.02559289251 1.844938881e-19 0.0383867358 3.011927257e-19 -0.001194949182)
(-0.03287945377 -0.02421503992 -6.073627108e-20 0.03398139376 -2.196540143e-19 -0.001101939998)
(-0.02907770138 -0.0230854497 5.397092876e-19 0.03005860506 6.817136966e-20 -0.0009809036823)
(-0.02565841669 -0.02207580321 4.925290931e-19 0.02648718489 -2.28604041e-19 -0.0008287682052)
(-0.02281402381 -0.02131574778 3.696999971e-19 0.02345646366 5.627247116e-19 -0.0006424398476)
(-0.02038114638 -0.02073428851 2.190028199e-19 0.0207993989 -9.631640519e-19 -0.0004182525172)
(-0.01859458852 -0.02038832277 -8.683361976e-19 0.01874695798 9.69916299e-19 -0.0001523694657)
(-0.1711062985 -0.05277441754 -2.605063671e-19 0.17121027 7.179142874e-19 -0.0001039714906)
(-0.1616463936 -0.06041197201 -4.011180448e-19 0.1619286209 4.774817411e-19 -0.000282227294)
(-0.1508857792 -0.06367734357 -7.306257227e-20 0.1513277952 3.893135287e-20 -0.0004420159202)
(-0.1397135915 -0.06400383352 -2.073468808e-19 0.1402995797 2.909211328e-19 -0.0005859882487)
(-0.1288783107 -0.06292930098 1.837708946e-19 0.1295945562 3.544559104e-19 -0.000716245533)
(-0.1182633047 -0.06074751244 -1.59598575e-19 0.1190970465 -2.193732156e-19 -0.0008337417567)
(-0.1083928087 -0.05818134068 3.341033373e-19 0.1093320943 -6.223080749e-21 -0.0009392856404)
(-0.09888467463 -0.0552411801 6.213890955e-19 0.09991772442 6.153716372e-19 -0.001033049785)
(-0.09015057404 -0.05227230259 -3.320321021e-19 0.09126556518 -9.931133658e-19 -0.001114991138)
(-0.08179757422 -0.04925362121 -7.466419568e-19 0.08298234671 9.947025738e-19 -0.001184772491)
(-0.07413650008 -0.04632289474 5.090899229e-20 0.07537825999 2.979148552e-19 -0.001241759911)
(-0.06685294674 -0.04349839378 -1.583973541e-20 0.06813815287 -1.521263132e-19 -0.001285206128)
(-0.06015891573 -0.04079060521 -4.749123241e-19 0.06147290203 1.209833903e-19 -0.001313986296)
(-0.05384438491 -0.03827182132 4.613434403e-20 0.05517136297 -1.504963088e-19 -0.001326978062)
(-0.04802853172 -0.0358687274 -3.571278335e-19 0.04935112756 2.196074125e-19 -0.001322595835)
(-0.04260771408 -0.03370435522 -3.573140438e-19 0.04390704444 -5.040658981e-19 -0.00129933036)
(-0.03761660784 -0.03165023975 3.833108548e-19 0.03887173939 1.525455401e-18 -0.001255131551)
(-0.03305251825 -0.02986764005 3.593279953e-19 0.03424057742 -2.619079873e-19 -0.001188059171)
(-0.02887441839 -0.0282005323 1.704477201e-19 0.02996999747 6.823932621e-19 -0.001095579081)
(-0.02517305797 -0.02682428469 -4.6994623e-19 0.02614830398 3.67380682e-19 -0.0009752460143)
(-0.02184170349 -0.02559298103 -2.240252046e-19 0.02266570155 3.262987302e-19 -0.0008239980624)
(-0.01905504369 -0.02465410141 -1.719589285e-19 0.01969381199 1.450039068e-18 -0.0006387682971)
(-0.01665367727 -0.02392778133 9.861704348e-19 0.01706957782 -5.545941674e-19 -0.0004159005468)
(-0.01487611593 -0.02348059576 -4.991782908e-20 0.01502767352 2.809899406e-18 -0.000151557591)
(-0.1681811887 -0.06210446686 5.372636495e-19 0.1682842481 -1.269727759e-18 -0.0001030594117)
(-0.1566173439 -0.07020363794 -9.555892799e-19 0.1568970801 3.353537475e-20 -0.0002797361638)
(-0.144629686 -0.07349162725 4.611580781e-19 0.1450678139 -8.896539489e-19 -0.0004381279468)
(-0.1328425644 -0.07355769773 4.918651102e-19 0.1334233848 6.981873684e-19 -0.0005808203613)
(-0.1217104772 -0.07210131749 4.100935005e-21 0.1224204062 -1.210634279e-18 -0.0007099290106)
(-0.1110477478 -0.06944053228 -9.450524514e-20 0.1118741266 4.677850152e-19 -0.0008263787799)
(-0.1012489027 -0.06637867019 6.439020452e-19 0.1021798843 -1.616907402e-19 -0.0009309816829)
(-0.09191073881 -0.06291715424 -3.013910466e-19 0.09293464193 -1.099238922e-18 -0.001023903119)
(-0.08339089293 -0.05944389886 4.943232523e-19 0.08449599691 -6.024282866e-19 -0.001105103979)
(-0.07528164968 -0.05592559745 1.50952495e-18 0.0764558969 2.446196097e-19 -0.001174247219)
(-0.06787946241 -0.05252083959 -8.247414672e-19 0.0691101697 -9.612921131e-19 -0.001230707282)
(-0.06085055416 -0.04924135232 2.820702635e-19 0.06212429496 5.594083986e-19 -0.001273740795)
(-0.05441502629 -0.04610408918 3.447242841e-19 0.05571726289 2.327130033e-19 -0.001302236599)
(-0.04833703191 -0.04318254004 1.631487192e-19 0.04965211047 9.318087077e-19 -0.001315078567)
(-0.04275721376 -0.04039962998 9.701725092e-19 0.04406791476 -4.450823908e-19 -0.001310701007)
(-0.03754049554 -0.03788712215 -5.895750192e-19 0.03882809864 1.472301997e-18 -0.001287603101)
(-0.03275058281 -0.03550536152 5.58992261e-19 0.03399434489 -6.14123414e-19 -0.001243762078)
(-0.02835018709 -0.03343060606 -8.087501586e-19 0.02952743605 6.551005497e-19 -0.00117724896)
(-0.02432943902 -0.03149096363 1.163556902e-18 0.02541500351 -3.575085998e-19 -0.001085564492)
(-0.0207459323 -0.02988058509 1.502931628e-19 0.02171221013 6.789317905e-19 -0.0009662778265)
(-0.01751929911 -0.0284368105 2.059083387e-18 0.01833566672 -5.567585841e-19 -0.0008163676122)
(-0.01479993999 -0.02732619172 -7.5854664e-19 0.01543273023 8.017363124e-19 -0.0006327902365)
(-0.01243989992 -0.02645545793 1.874687214e-18 0.01285184085 5.83933055e-19 -0.0004119409283)
(-0.01067541249 -0.02590664166 -1.292980589e-18 0.01082546426 -6.538620333e-19 -0.0001500517733)
(-0.164764575 -0.07130887327 3.199495654e-19 0.164866397 1.420915878e-18 -0.0001018220407)
(-0.1509307281 -0.07945382861 1.932893635e-19 0.1512070934 5.555210889e-20 -0.0002763652988)
(-0.1376268842 -0.08250899292 -4.867794721e-19 0.1380597425 1.116235764e-18 -0.0004328583128)
(-0.1251885732 -0.08217248882 2.259248895e-19 0.125762398 -8.170563158e-19 -0.0005738247852)
(-0.1137501053 -0.08025238659 2.371150063e-19 0.1144514822 -8.556462109e-20 -0.0007013769046)
(-0.103051036 -0.07707779024 6.030621734e-20 0.1038674524 8.180023096e-19 -0.0008164163799)
(-0.09334439683 -0.07350957237 -8.054532984e-19 0.09426414686 1.44526457e-19 -0.0009197500356)
(-0.08420464112 -0.06953529733 3.633659294e-19 0.08521618166 3.965367375e-20 -0.00101154054)
(-0.0759302265 -0.0655764459 -8.220838286e-19 0.07702197538 1.364156436e-18 -0.001091748888)
(-0.06809789911 -0.06158377072 -7.410033652e-20 0.06925794303 -4.597084285e-19 -0.001160043925)
(-0.06098814091 -0.05773475954 3.502994224e-19 0.06220394692 9.078942736e-19 -0.00121580601)
(-0.05424652766 -0.05403023117 8.383189775e-19 0.05550483171 -1.831784567e-19 -0.001258304053)
(-0.04810173349 -0.05049561244 -1.410729477e-19 0.04938817116 3.769117397e-19 -0.001286437666)
(-0.04229011013 -0.04720030184 -2.946477103e-19 0.0435892192 -9.032845515e-19 -0.00129910907)
(-0.03697546887 -0.04406773694 3.081187917e-19 0.03827023658 1.122438013e-19 -0.001294767708)
(-0.03198881099 -0.04123232294 3.040702685e-19 0.03326074898 -1.122950623e-18 -0.001271937994)
(-0.02742501515 -0.03854880154 -4.660196496e-20 0.02865363205 1.028413262e-19 -0.0012286169)
(-0.02320994183 -0.03620174241 8.314204956e-19 0.02437285037 -9.407091278e-19 -0.00116290854)
(-0.01936599198 -0.03400969698 4.094937395e-21 0.02043833049 -3.089887915e-19 -0.001072338505)
(-0.01591776957 -0.03217835117 -6.373786022e-19 0.01687228557 -6.385345188e-19 -0.0009545159972)
(-0.01280803327 -0.03053517654 3.62164347e-19 0.01361448275 -3.816652286e-19 -0.0008064494861)
(-0.01016964781 -0.02925713321 1.756376064e-18 0.01079478726 5.820323636e-19 -0.0006251394488)
(-0.007856085902 -0.02824569686 3.912679905e-19 0.008263099109 -1.628321252e-18 -0.0004070132063)
(-0.006110233144 -0.02758880085 3.77330899e-19 0.006258549551 1.340023244e-18 -0.0001483164071)
(-0.1608542414 -0.0803645625 -6.378025492e-20 0.1609545044 -7.990716057e-19 -0.0001002629625)
(-0.1446602323 -0.08811041165 -1.296703636e-18 0.144932357 3.872518587e-19 -0.0002721246925)
(-0.1299981203 -0.09066017927 9.382221005e-19 0.1304243428 -2.147227116e-18 -0.0004262225004)
(-0.1168991531 -0.08976993017 -7.690484072e-19 0.1174641732 6.392477498e-19 -0.0005650200108)
(-0.1051607626 -0.08729942886 8.701429395e-19 0.1058513732 -2.88755942e-19 -0.000690610568)
(-0.09444435044 -0.08357473702 7.76119971e-19 0.09524822597 -1.69202338e-19 -0.0008038755307)
(-0.08485365348 -0.07948966112 1.328755047e-19 0.08575926395 -3.815235228e-19 -0.0009056104704)
(-0.07594048262 -0.07501272701 2.925344581e-19 0.0769364587 -3.97234092e-19 -0.0009959760812)
(-0.06794044196 -0.0705892226 6.81675922e-19 0.06901537496 -7.946237019e-19 -0.001074932999)
(-0.060414811 -0.06615000087 4.263584703e-19 0.06155696684 5.375983517e-19 -0.001142155842)
(-0.05362668427 -0.06188936434 -8.330775169e-19 0.05482371863 -8.081287737e-19 -0.001197034353)
(-0.0472006654 -0.05779255815 1.773198418e-19 0.0484395141 8.809674668e-20 -0.001238848704)
(-0.04137397654 -0.05389560872 3.40796865e-19 0.04264049309 1.37162687e-19 -0.001266516543)
(-0.03585425163 -0.05025822075 -3.39868522e-19 0.03713320775 7.097229128e-19 -0.001278956128)
(-0.03082943178 -0.04680873342 1.372126526e-19 0.03210407538 6.440232851e-19 -0.001274643598)
(-0.02609499886 -0.04367811826 -5.649179289e-19 0.02734712345 1.106188463e-18 -0.001252124593)
(-0.02177882697 -0.04072049852 1.864050734e-19 0.02298825916 3.288040855e-19 -0.001209432189)
(-0.01776749659 -0.03812367186 -1.622535145e-18 0.01891219459 6.9822044e-19 -0.001144698003)
(-0.01411836896 -0.03569939254 1.558967942e-18 0.0151738627 9.900967832e-19 -0.001055493738)
(-0.01081962286 -0.03366471851 -2.326353975e-19 0.01175908663 4.409139332e-19 -0.0009394637668)
(-0.007840273103 -0.03183159257 1.505679008e-18 0.008633945057 1.095356527e-18 -0.0007936719536)
(-0.005291860502 -0.03039957197 -1.703230992e-18 0.005907025894 -9.154212358e-19 -0.0006151653921)
(-0.003030606672 -0.02924444401 2.689420323e-18 0.003431049482 7.338318952e-19 -0.0004004428104)
(-0.001305247687 -0.02848098228 -7.814270776e-19 0.001451097559 -1.59496199e-18 -0.0001458498717)
(-0.1564502062 -0.08924566971 2.003855086e-18 0.1565485948 1.085688401e-19 -9.838861018e-05)
(-0.1378849014 -0.09613272666 -5.550636336e-21 0.1381519312 -8.309082019e-19 -0.0002670297755)
(-0.1218718693 -0.0978958118 -2.230194789e-19 0.1222901152 -1.207039922e-19 -0.0004182458602)
(-0.1081311027 -0.09629640911 5.17497916e-19 0.1086855427 1.276525854e-18 -0.0005544399974)
(-0.09611617437 -0.09318692023 -6.355787271e-19 0.09679384867 -3.603520941e-19 -0.0006776742985)
(-0.08540946629 -0.08887576041 3.443615912e-19 0.08619827755 5.525911038e-19 -0.0007888112613)
(-0.07596187586 -0.08426409958 -6.955389632e-19 0.07685050603 -1.507550319e-19 -0.0008886301751)
(-0.06730318171 -0.0792960997 -5.782272948e-19 0.06828047345 7.854797041e-19 -0.000977291734)
(-0.05960418876 -0.07443068656 4.493940056e-20 0.06065894329 6.698728558e-19 -0.001054754534)
(-0.05241143101 -0.06957476406 1.175436787e-19 0.0535321337 7.627518774e-19 -0.001120702687)
(-0.04596963569 -0.06493724846 3.422308804e-19 0.04714417056 2.549799324e-19 -0.001174534872)
(-0.03988283043 -0.06048300469 7.775598503e-19 0.041098379 6.112850499e-19 -0.00121554857)
(-0.03439651173 -0.05626088063 7.971031527e-19 0.03563919082 1.446507726e-19 -0.001242679095)
(-0.02918951115 -0.05231497957 5.093855006e-19 0.0304443808 -9.42393155e-19 -0.001254869658)
(-0.02447425167 -0.04858335736 1.069789455e-18 0.02572487356 -2.088216123e-19 -0.001250621889)
(-0.0200099915 -0.04518664153 3.826391202e-19 0.02123850647 -1.372704313e-18 -0.001228514971)
(-0.01595870258 -0.04198470045 1.262185717e-19 0.01714531781 -2.083367922e-19 -0.001186615229)
(-0.01216594736 -0.03916091645 1.046262823e-18 0.01328904491 -8.612493856e-19 -0.001123097544)
(-0.008726659011 -0.03652739384 -1.107917309e-18 0.009762234158 -2.011003985e-19 -0.001035575147)
(-0.005588271189 -0.0343046727 -3.485468446e-19 0.006510017221 -5.677316914e-19 -0.0009217460323)
(-0.002752695792 -0.03229662155 -2.286606483e-19 0.003531420673 -2.078785243e-19 -0.0007787248815)
(-0.0002999377245 -0.03071720521 1.548928842e-19 0.0009035576252 8.725160174e-19 -0.0006036199006)
(0.001898335303 -0.02942557643 -1.960877853e-18 -0.001505350642 -9.846613428e-19 -0.0003929846611)
(0.0036021962 -0.02855438459 1.585801095e-18 -0.003458998423 2.018434904e-20 -0.0001431977774)
(-0.1515523278 -0.09792551454 -5.919159942e-19 0.1516485308 4.63299129e-19 -9.620300128e-05)
(-0.1306863373 -0.1034921884 2.377339962e-19 0.130947431 -1.012600902e-18 -0.0002610936161)
(-0.113380364 -0.1041870954 -1.731167447e-19 0.1137893137 1.707879846e-18 -0.0004089497003)
(-0.09904543028 -0.1017238042 3.520911936e-19 0.0995875418 -9.013666697e-19 -0.0005421115189)
(-0.08679449786 -0.09788782815 1.050308791e-20 0.08745709706 4.900044182e-19 -0.0006625992067)
(-0.07613260961 -0.09295521708 1.381182969e-18 0.07690386551 -6.39689734e-19 -0.0007712558999)
(-0.06685858731 -0.08780870835 2.947511075e-19 0.06772742803 2.251060426e-19 -0.0008688407165)
(-0.05848183902 -0.08236278003 1.030632836e-18 0.05943735297 -7.91929346e-19 -0.0009555139542)
(-0.05110803354 -0.0770797166 2.108985483e-19 0.05213926571 -3.326626784e-19 -0.001031232164)
(-0.04427055456 -0.07183843066 7.515306895e-19 0.04536624347 -5.883036852e-19 -0.001095688907)
(-0.03819499112 -0.06686021994 -1.410683985e-18 0.03934328564 -6.493180634e-19 -0.001148294523)
(-0.03246622079 -0.06208473599 6.079152897e-20 0.03365458472 -1.259064438e-19 -0.001188363928)
(-0.02733716677 -0.05757589653 -3.966978051e-19 0.02855202217 -7.809979238e-19 -0.001214855405)
(-0.02245900117 -0.05335624134 -5.314918651e-19 0.02368573838 -2.334045705e-19 -0.001226737214)
(-0.01806797063 -0.04937839869 -2.174768895e-19 0.01929051525 3.849065663e-19 -0.001222544625)
(-0.01388775432 -0.04574576157 -7.193934061e-20 0.01508864467 7.07864499e-19 -0.001200890348)
(-0.01011433307 -0.04233018118 -3.390972338e-20 0.01127421833 8.163955954e-19 -0.001159885261)
(-0.006551884115 -0.03930341301 -2.103474073e-19 0.007649631633 -7.79821839e-19 -0.001097747518)
(-0.003334175325 -0.03648431691 2.069759455e-18 0.0043463216 2.388025795e-18 -0.001012146275)
(-0.0003654024368 -0.03409039174 -3.575316336e-19 0.001266237013 -2.699951524e-19 -0.0009008345766)
(0.002315752074 -0.03192261592 2.472278212e-18 -0.001554756283 1.782948478e-18 -0.0007609957907)
(0.004665956687 -0.03020520311 -8.684636455e-19 -0.004076148259 -1.50915564e-18 -0.0005898084278)
(0.006793483463 -0.02878065276 4.668372301e-19 -0.006409568425 2.632169403e-19 -0.000383915038)
(0.008467551235 -0.02780594555 -1.398904694e-18 -0.008327730787 -3.874358597e-19 -0.0001398204479)
(-0.1461633479 -0.1063752091 9.943027894e-19 0.1462570638 2.905568765e-19 -9.371587465e-05)
(-0.1231475944 -0.1101725878 -5.586947458e-19 0.123401933 5.341442307e-19 -0.0002543386479)
(-0.1046567861 -0.1095263758 7.86090489e-20 0.1050551557 -8.552740993e-20 -0.0003983696134)
(-0.08980393325 -0.1060502209 1.457371083e-19 0.09033201542 3.987751133e-19 -0.0005280821694)
(-0.07737458097 -0.1014043764 -8.656477171e-19 0.07802002701 -3.485831352e-19 -0.0006454460348)
(-0.06680063739 -0.09581822604 5.163037708e-19 0.06755192122 -3.375711238e-19 -0.0007512838339)
(-0.057733967 -0.09013073178 -4.05458776e-19 0.05858029854 -4.380735545e-19 -0.000846331542)
(-0.04966618459 -0.08422159325 -4.161421748e-19 0.05059693408 -3.839860591e-19 -0.0009307494901)
(-0.04263924339 -0.07854630433 7.773188057e-19 0.04364373532 1.548343055e-20 -0.001004491929)
(-0.03617563758 -0.07295193797 1.076651299e-18 0.03724290157 4.810593293e-20 -0.001067263987)
(-0.03048147113 -0.06766991229 1.231993471e-18 0.03159995999 2.482495188e-19 -0.001118488859)
(-0.02512465925 -0.06261001208 1.532996538e-19 0.02628216189 3.86221381e-19 -0.001157502644)
(-0.02036438693 -0.05785340348 3.801677676e-19 0.02154767558 9.600679051e-19 -0.001183288648)
(-0.01582626632 -0.05339519129 7.239492225e-19 0.01702111191 2.149543519e-19 -0.001194845585)
(-0.01176889446 -0.04920750467 7.881917056e-19 0.01295963935 1.313406739e-18 -0.00119074489)
(-0.007882287144 -0.04536934022 3.258836138e-19 0.00905192711 -3.117025995e-19 -0.001169639965)
(-0.004395026634 -0.04177147135 -6.428652638e-19 0.005524715533 -1.237982092e-18 -0.0011296889)
(-0.001071384368 -0.03856538603 -7.732095523e-20 0.002140546333 7.672173224e-19 -0.001069161965)
(0.001916837382 -0.03558570292 5.592807336e-19 -0.0009310505326 -1.166359856e-18 -0.0009857868493)
(0.004708363984 -0.03303596296 -8.300090178e-19 -0.00383098239 -1.031985368e-18 -0.0008773815947)
(0.007226772284 -0.03072635461 -6.486570093e-19 -0.006485571116 -1.068421839e-18 -0.0007412011683)
(0.009467828193 -0.02887714773 1.032642088e-18 -0.008893326969 -1.458322967e-18 -0.0005745012245)
(0.01151557231 -0.02732800884 -1.563745616e-18 -0.01114156893 5.564325298e-20 -0.0003740033831)
(0.01315413925 -0.02624763498 1.602362947e-18 -0.013017869 -2.273219738e-19 -0.0001362702471)
(-0.1402868184 -0.1145647329 -1.398893469e-19 0.1403777505 5.974100876e-19 -9.093218298e-05)
(-0.1153504273 -0.1161696253 5.293415604e-19 0.1155972094 -6.921096074e-19 -0.0002467821033)
(-0.09583125831 -0.113926349 -6.709341037e-19 0.09621779189 1.419182932e-18 -0.0003865335775)
(-0.08056413852 -0.1092988931 8.242420225e-19 0.08107652672 -7.516690545e-19 -0.000512388196)
(-0.06803017199 -0.1037668578 -5.686588271e-19 0.06865642918 1.536879249e-19 -0.0006262571914)
(-0.05759482113 -0.0974993683 -4.018233211e-20 0.05832376199 8.389320796e-19 -0.0007289408583)
(-0.04877223573 -0.09126751635 6.572016896e-19 0.04959338473 3.412385581e-19 -0.0008211489931)
(-0.04103982857 -0.08491145806 -5.700005355e-19 0.04194287001 8.450297855e-19 -0.0009030414411)
(-0.03437880391 -0.07887020978 -7.83838778e-19 0.03535337386 1.623531303e-19 -0.0009745699553)
(-0.02830386848 -0.07295543054 -4.706217838e-19 0.02933932029 8.766789914e-19 -0.001035451811)
(-0.02300148566 -0.06740646552 -2.989453395e-19 0.02408661035 -9.667609878e-19 -0.001085124696)
(-0.01802581155 -0.06209888816 5.556996358e-19 0.01914875905 8.577751634e-19 -0.001122947494)
(-0.01364052501 -0.05713312097 -1.178643002e-19 0.01478845662 -1.49615743e-18 -0.001147931607)
(-0.009449053613 -0.05247136955 -4.152475263e-19 0.01060816256 -4.043752728e-19 -0.001159108949)
(-0.005729728657 -0.04810977939 9.014248214e-19 0.006884820128 -8.592653077e-19 -0.001155091471)
(-0.002142402053 -0.04409646038 1.131717608e-19 0.003276979525 -1.720956485e-18 -0.001134577472)
(0.001054786799 -0.0403471406 9.193837103e-19 4.099105072e-05 7.505356389e-19 -0.00109577785)
(0.004133896138 -0.036985829 -1.518907231e-19 -0.003096875047 -1.593625298e-18 -0.001037021091)
(0.006888388047 -0.0338697126 9.064276796e-19 -0.00593228781 1.620200479e-18 -0.0009561002378)
(0.009496066448 -0.03118084183 1.232437506e-18 -0.008645159371 -1.081211668e-18 -0.0008509070771)