/*--------------------------------*- C++ -*----------------------------------*\
| =========                 |                                                 |
| \\      /  F ield         | foam-extend: Open Source CFD                    |
|  \\    /   O peration     | Version:  3.0                                   |
|   \\  /    A nd           | Web:         http://www.extend-project.de       |
|    \\/     M anipulation  |                                                 |
\*---------------------------------------------------------------------------*/
FoamFile
{
    version     2.0;
    format      ascii;
    class       volScalarField;
    location    "31";
    object      Theta;
}
// * * * * * * * * * * * * * * * * * * * * * * * * * * * * * * * * * * * * * //

dimensions      [0 2 -2 0 0 0 0];

internalField   nonuniform List<scalar> 
3012
(
-2.52617
1.77444
4.09631
-0.316686
26.855
9.64647
-20.8216
-4.13621
-2.59609
3.57525
-2.90196
3.53204
1.01553
-0.699143
2.51365
0.838778
-20.1819
-23.8691
17.7895
23.0615
1.10157
0.0337296
1.72262
0.930492
3.83325
-2.24901
5.15404
-1.6574
-1.53588
3.87252
-0.115731
2.3415
0.469717
2.84015
-0.871164
1.44901
2.16577
7.87051
-6.07451
-1.01866
0.9725
3.11513
1.14883
-0.992317
0.973176
1.04105
-1.14609
3.13452
0.573492
1.39763
0.391417
1.12559
-4.13655
1.71931
1.36353
6.85573
-4.41723
-14.0333
1.9047
11.6656
-14.2927
12.7036
21.7168
-4.91153
0.954172
-1.7091
4.10865
1.40418
1.86689
1.022
1.03776
0.14554
2.26072
1.15446
0.110295
-0.411532
-0.70998
2.72536
1.78084
0.254651
0.916401
-1.45942
1.13443
3.49803
2.86629
0.777566
1.07083
-0.807568
-0.283723
3.90962
-1.61638
2.62167
2.9665
-1.70395
-0.0972289
4.02205
-5.89355
4.01153
-3.49076
6.1973
4.06442
2.06751
0.315622
-1.73872
3.38425
-0.929135
3.12637
-1.06683
2.16454
0.882647
-0.303293
1.10704
-1.03772
3.28459
1.14834
1.1141
2.4487
0.0864536
2.3562
0.191029
-0.799165
-0.0880945
0.897734
2.63534
5.09238
-9.52927
7.10728
-7.59985
27.9707
-29.9977
3.81118
-4.86168
-3.11347
2.12907
10.6838
4.73019
-15.2737
12.4418
23.9144
-7.54714
9.36129
-2.25333
-5.37974
5.2248
6.95114
8.82455
-4.57785
-2.77388
5.49862
-24.2249
-6.00073
21.5613
0.237756
-0.687577
1.77797
2.78879
2.40351
3.41946
-1.23806
-0.183579
2.5282
-0.403177
1.9667
0.0991148
-2.4259
-7.00242
4.37159
9.03618
0.463187
3.01754
-1.07501
1.44358
9.86165
9.74555
-9.33031
-10.0087
-7.95288
11.3522
15.8939
-9.71272
-8.12929
3.26059
8.33201
-2.66536
3.43866
-1.5866
-1.12033
4.12289
-0.16751
2.65409
2.12586
-0.756059
2.31284
-0.205819
2.05239
0.0222449
2.07961
3.08851
-1.0197
0.0532165
0.870973
-0.446682
0.80033
2.09082
1.19065
4.51267
-2.12335
1.35461
1.42488
1.19783
1.15632
0.283622
1.12901
1.74214
-0.0469861
1.02203
3.14619
1.38675
0.494863
-1.12261
0.222474
1.05266
0.8873
0.383088
0.164737
-0.252095
1.38589
1.94945
0.920703
1.83471
1.02017
-0.323817
0.960952
-0.0398627
1.29622
0.248
2.94125
2.3381
-0.439689
-1.11123
2.31882
-0.928219
3.15739
-0.0895948
-0.252216
3.24935
2.51449
-0.809559
1.61977
-1.73316
0.590916
3.9985
-1.89428
4.17524
3.82038
-1.43607
5.88712
1.83358
-1.84203
1.38139
1.17105
2.07994
0.035414
-0.566134
0.722474
0.00435017
0.633583
1.54443
2.1535
-0.467848
-1.05361
2.79719
1.3076
4.16381
1.00588
-1.83579
1.5363
-1.213
3.22458
0.394558
-5.29406
2.51921
0.313542
8.43217
0.894953
1.49538
0.191255
1.04751
18.1877
-17.0776
-20.8024
14.9721
-18.4627
24.7504
6.04497
-0.569279
-0.419155
-1.94697
2.76083
4.31771
3.03027
-0.703161
-1.69274
4.25392
2.0034
-1.32342
3.43796
-0.0957924
-0.934846
-1.27638
1.5361
0.870812
5.57116
-1.31438
-3.85078
2.58677
3.29024
3.65259
-1.09017
-0.783324
0.51541
1.38926
0.386655
1.38608
0.0020884
-0.864306
2.1012
3.06288
-4.26615
-0.245883
3.23043
8.78048
2.48124
0.426175
1.58832
-0.520914
2.04613
0.0238124
2.11598
-0.135748
1.21819
0.611534
1.36913
0.193082
-0.208949
3.5054
-1.24905
2.09625
1.09907
3.50424
1.26148
-1.1458
0.784178
1.91183
-0.152926
0.0575629
0.749501
0.197413
1.87409
1.22211
-0.619404
2.55196
2.77604
-0.383402
0.195332
3.25818
-1.1427
1.9077
0.0532288
2.50643
-1.7049
0.973194
-2.92545
3.8083
6.17109
-0.228097
2.0353
2.06088
-0.315406
-0.166354
-0.425417
0.450974
0.987932
1.75366
-0.0635155
-1.46308
3.6336
2.10146
4.05672
-1.9203
-1.17118
5.14833
3.21796
-1.94827
-2.13081
2.8394
-1.08047
2.36638
-0.25194
3.20172
2.34804
-0.957913
-0.923495
2.1223
0.90411
-1.1514
1.39414
3.36774
-2.05411
-4.86292
9.99482
8.53473
1.66404
-3.00016
1.35493
6.26573
-11.5276
8.9445
-11.1454
8.99124
-0.9091
-0.506968
3.36552
2.8172
1.56999
-0.294436
0.687081
1.81418
-0.261428
2.49832
0.756917
0.999565
-1.4628
-0.091027
2.32549
3.74364
-2.11045
1.36699
3.8842
0.201172
-2.63266
2.64019
4.58512
-0.488223
-0.0486218
-0.170111
1.83404
-0.0857209
6.01797
0.529488
-3.72404
1.43271
1.29872
1.26974
1.31567
0.706717
-33.2238
5.85606
-9.10539
30.8681
5.52601
2.31255
0.328876
-2.58333
1.20627
1.11818
0.563421
0.520148
9.66474
9.06752
-5.21565
-4.10031
2.80109
5.33798
-2.28531
-0.266125
1.83269
0.276772
0.197364
1.62424
-1.44721
-2.20199
4.88871
4.15016
0.974881
-1.53997
0.898584
3.61698
-21.6663
11.359
-11.9621
22.6847
1.83199
2.07908
-0.418538
-0.226225
0.797584
-0.698669
1.07817
2.61259
-0.649971
2.42841
1.92688
-1.15748
0.228897
3.36772
-1.07175
1.75579
-23.0553
-21.117
17.7944
20.8963
0.019425
2.89642
2.37419
-0.668184
5.69694
0.0892114
3.13471
-2.79672
-0.316332
2.47602
-0.356645
2.49094
-0.0372362
2.17288
-0.179176
1.95553
2.96639
0.564229
-1.12077
1.46298
23.8911
-22.8387
-5.34876
6.31747
4.25969
3.3176
-1.77296
-1.00818
4.46412
0.585189
1.7404
-2.24055
0.220628
2.39241
-2.74805
5.47646
0.963242
-1.11215
3.09591
1.31406
2.43052
2.81249
-0.805295
-0.486085
0.532006
1.83966
-2.23385
4.70916
0.019832
2.20698
-1.01329
3.10209
0.160199
-1.09037
1.3472
2.61692
1.13054
-0.289797
0.0533047
2.13183
3.59936
2.50393
-0.366774
-1.49959
1.19661
-0.527649
0.365645
2.25347
0.201684
0.960529
1.06307
1.79037
-19.0497
29.7779
-32.323
16.3078
0.685531
1.95984
-2.3559
5.11834
3.90095
2.18468
-1.67838
0.159466
-0.470296
5.66951
-2.21488
4.59944
-15.721
20.2893
-10.4832
13.8098
4.65134
-18.4807
0.302876
24.0788
-2.00207
2.16034
3.70482
-0.566675
-0.329664
3.34101
2.3034
-1.13056
-3.95942
3.75981
-1.70091
6.11257
1.46216
-0.84899
0.25548
3.00472
0.234383
1.51563
0.504371
1.11251
-3.02113
2.46468
3.98606
-1.42936
1.59534
2.84636
-0.83822
0.894049
1.0983
0.946297
0.511754
0.917621
2.75447
0.0404085
1.60149
-1.14704
16.1046
0.301364
6.5054
-9.52861
-2.74447
3.60845
-0.452297
5.54999
-2.18531
-3.71956
5.41249
7.57754
-5.76049
6.70605
-3.82185
11.2014
3.58251
-14.4352
11.7438
-5.21545
12.0374
-2.1339
8.47634
-4.23846
-4.7004
5.09327
4.91705
-4.45452
1.26104
1.31202
0.182894
0.29069
-0.363536
5.19929
-2.52454
3.028
-24.2266
-3.90798
23.9936
4.41802
-1.5567
3.61248
-0.385448
2.46502
5.51474
-2.70533
3.08185
-0.298417
0.736441
1.29629
0.967533
0.805498
4.36079
2.12623
-1.8877
0.315504
1.4569
0.190517
0.203917
0.513349
-17.3395
-20.533
17.8562
20.7096
2.08888
4.05054
-1.55959
0.205373
3.54668
-1.09365
-0.776427
3.51985
2.87708
0.615025
1.49133
-0.357954
3.42005
2.82797
-1.12491
-0.719642
1.82124
-1.09966
0.587658
3.56307
0.379667
2.21664
1.70237
-0.322338
-10.4089
13.6073
11.7239
-13.0553
0.503101
4.01833
1.11385
-2.73521
-2.87419
2.69458
5.24916
-0.0641568
-2.2171
-3.92389
3.04886
4.91454
2.29872
-6.2991
9.03457
0.339736
-0.244717
-2.77854
4.37124
2.26247
0.620486
3.30364
7.44875
-3.99894
2.12261
-0.0663751
2.47805
-0.296506
2.70978
2.09905
-0.215333
-0.757753
-1.92616
1.41998
6.34149
1.97182
1.88024
-0.347284
-0.563549
2.07371
-2.38695
3.18196
5.73493
-0.25526
2.8652
0.1235
1.66064
-0.900217
4.83893
0.44814
2.24772
-2.26046
3.80669
1.20213
-2.07976
0.769143
0.0603386
2.18431
-1.99766
4.26546
-0.435651
0.614719
2.6418
1.43952
1.48169
1.71553
2.73262
-0.375326
3.89712
-1.01011
-1.42984
3.35082
2.22445
-1.27355
2.64597
-0.726654
0.879606
4.58802
1.50727
-2.13167
-1.31659
3.23706
2.54375
-0.554419
3.14807
-1.23809
1.36196
0.35813
-1.09816
3.06337
3.26478
-0.752281
0.786981
1.55288
3.35934
-1.15217
-0.452696
0.161128
2.40646
2.13934
0.823411
1.19317
-13.5195
15.2873
-0.396185
3.14677
2.27746
-1.05709
-4.60207
5.48667
6.08971
-5.44395
3.61654
-9.85807
-2.69973
10.0217
2.77581
0.648606
-0.548932
1.33032
9.35805
2.17264
-2.49429
4.32759
2.60693
0.667506
2.36026
6.65057
-0.266252
9.30086
2.45268
-7.65677
-2.84275
3.47122
5.36958
-0.97352
0.86649
0.461636
0.843315
1.18594
1.12459
0.675054
0.995076
0.511714
-5.69708
0.893429
5.9107
-0.321255
2.47947
1.84521
-0.573199
0.320724
1.6549
-0.297963
0.0266213
2.02209
-2.64142
0.497897
6.22148
8.80183
1.4658
-3.77795
1.56038
7.06897
-1.92111
3.13241
4.66167
-0.536873
-3.60262
6.6949
-0.578161
3.88402
3.1316
2.02765
0.0727792
-0.949216
-0.581005
2.93481
-0.67079
2.9992
1.52933
-3.85409
0.227304
5.73618
2.76184
-0.112817
-0.879861
1.70116
1.0519
-1.19868
3.4303
0.902777
4.49358
-2.22524
0.869977
1.34151
-1.35672
0.817795
0.328755
2.44644
2.88953
-0.746543
-0.664443
2.79451
1.53689
0.632379
3.33147
-1.06677
0.00558066
-0.970503
2.61301
1.57221
0.395083
1.53765
2.21621
-0.260085
1.28277
-0.441755
1.03976
2.57665
-2.41352
3.95946
-1.83389
4.51338
2.99217
1.10649
0.531776
-1.15747
-1.2634
3.32143
2.70597
-0.59589
2.05317
-0.83679
-0.251494
2.57123
-0.617979
2.77349
-0.0130367
1.89689
3.71205
-1.61388
-1.45726
3.80745
3.10068
-2.27913
-0.497056
4.89708
1.86952
-1.23143
0.201897
3.45474
3.23228
2.13026
0.058451
-1.09238
-0.754797
2.89916
1.27986
0.989026
3.69337
2.15741
-0.0879809
-1.68037
10.2673
1.73659
-4.96283
2.4575
-0.232014
0.223118
-10.4632
10.3775
4.96388
0.637468
1.68596
-2.6944
1.10015
2.2303
0.604859
-0.490587
0.77106
-0.422393
2.33303
1.00342
1.45532
-0.929924
3.13298
0.634342
-4.31407
5.72675
4.0546
-2.61194
4.00538
-5.84796
-10.608
8.80842
1.13033
2.11
0.632649
-0.345994
1.10306
-1.32404
1.2282
3.58257
0.389421
2.49517
1.58946
-0.450361
-1.12151
2.18706
3.45048
-0.00627335
-0.401141
2.83719
2.27257
-1.07498
-0.207277
2.27714
-0.105741
2.07271
17.1577
-9.43941
-5.02597
10.4552
-1.13411
0.19015
3.43455
2.08942
2.68838
-0.231951
-0.440442
2.41752
3.82638
-1.53317
3.25074
-1.24346
3.10143
-0.598728
2.92845
-0.616412
2.64301
1.29851
-0.654365
0.660578
1.1156
3.32649
1.1005
-1.10267
4.20531
-1.72179
0.39312
2.25821
3.34051
-0.996166
2.56243
-0.299667
-0.0288562
1.14389
0.670029
1.84023
1.16058
3.93033
1.20756
-1.60677
3.55891
-1.39599
0.546177
1.58858
3.18538
-0.839644
4.2511
-1.91074
-3.55972
-2.9172
4.287
4.9308
-0.578022
3.7572
2.82498
-1.51554
-0.146324
2.18361
1.63138
0.26476
-0.19218
2.26097
0.871893
1.16556
-0.611702
3.63108
-1.77744
5.45801
0.446865
2.20726
1.37828
-0.29336
3.00933
-0.777611
2.52748
-0.213939
5.52058
3.35359
-3.24373
-0.990478
4.32897
3.19717
-2.0531
-0.975555
-3.68836
11.0946
-12.6809
1.54466
3.43752
1.62099
0.545612
-1.18025
0.418997
0.640651
0.690209
0.504929
0.400227
0.269786
0.988898
1.26144
0.712645
0.242449
0.409504
0.606323
1.1571
-1.49643
1.103
3.81413
-0.936368
0.368113
0.631674
1.97372
1.67208
-0.0620373
-0.765945
0.935086
1.5724
0.358199
2.7171
-0.720344
-6.25513
3.15209
6.90187
-2.10177
2.9512
-3.43572
8.08322
-8.05547
1.94177
0.600238
1.13517
-0.116806
5.45007
-0.0942649
3.56794
-2.68254
0.233753
1.65085
0.313681
1.32993
0.474351
2.98081
1.70538
-0.885646
0.790905
1.15688
0.652709
0.952653
2.95446
1.38812
0.82262
-0.963887
1.5946
0.538655
0.255046
0.996037
-0.563261
-2.35478
3.21574
5.12232
3.30416
-2.23623
3.57364
-1.94622
1.51287
0.741264
0.287704
1.07842
1.34315
5.43598
1.30642
-2.75477
1.85636
-0.679096
-0.017742
2.62637
2.28186
-1.85188
0.600777
5.08464
-1.73041
-0.760404
4.20096
5.78463
-0.509669
2.40457
0.666417
1.45851
2.20404
-0.0313135
2.05247
-0.0757435
4.96277
-0.725459
4.44594
-1.40669
2.91542
4.71041
-4.18814
-6.33304
4.75872
-2.31919
2.73594
-0.344483
2.00132
-0.743089
0.135693
2.69799
3.07794
0.627457
1.72395
-0.862708
2.52028
0.544674
1.44779
-0.628586
2.18803
0.0592455
-0.17067
2.00541
-1.22552
2.07768
3.63158
0.274398
-16.3986
16.0561
14.811
-16.5459
3.38091
-0.61732
-1.37473
2.90496
2.08256
-2.3354
-0.780455
3.55044
0.627153
0.859777
1.16484
0.740612
-0.578249
1.17068
-1.46238
2.23216
4.46953
-1.39244
-1.72517
4.50948
-0.0407276
2.72261
-0.651619
2.0637
5.33898
0.352703
2.23908
-2.63446
0.136509
1.64631
0.208628
1.37501
3.07849
-0.66008
-2.01852
1.86038
1.7317
-0.82525
2.71685
0.188253
-1.78722
4.1098
-0.427765
2.72573
0.206689
1.41851
0.154311
1.31196
-1.32779
4.72681
-1.98179
4.1725
1.60097
0.615722
1.24991
0.345643
0.12611
1.969
2.49459
-0.559611
1.24948
1.89571
0.658436
0.0482995
-0.9452
1.06254
0.664008
2.89048
-0.768169
-1.54022
3.93686
3.08486
-0.096883
-0.102042
1.46934
1.58
0.0304535
1.15604
1.55481
0.400063
2.00271
-0.19182
0.328397
0.968455
-1.76188
0.632699
0.0938171
2.58196
2.6418
5.2974
-2.25512
0.480796
18.4013
-11.8813
11.1962
-6.13739
2.24853
0.927083
-0.354051
0.492545
9.40352
-18.6481
25.2046
-3.6
-5.37131
-1.04388
9.22951
4.83472
2.98286
-2.55813
-0.156009
5.05043
1.36246
0.322816
-1.00862
2.73684
1.04755
1.02018
-0.462639
2.60292
0.0687954
1.4483
2.05317
-0.347845
0.585004
0.440793
1.44377
1.24662
1.55758
0.85178
0.156503
0.887051
1.74184
0.294792
5.13348
-1.95112
1.62105
1.9668
-0.0438309
-0.275448
3.30124
-1.03323
-0.907594
3.38783
8.50138
20.469
-14.2658
-2.84014
-2.06596
3.63074
3.85775
-2.28711
-21.9253
10.2199
19.7819
-14.0104
5.00105
2.58642
1.84178
7.29221
3.06409
-0.682425
2.75968
-0.801358
0.257441
-2.40654
2.74246
5.22776
1.78238
-1.26775
2.39097
-0.643371
1.70245
-0.763769
2.85325
0.551985
-1.12784
3.46781
0.396579
1.82896
0.143897
1.29439
0.448273
1.19477
-1.4777
4.34855
-1.8702
4.49517
0.0437695
0.502723
1.31001
1.07214
-1.89667
4.01874
-1.46437
4.65831
1.94998
-0.567518
2.54795
0.189669
2.00469
-1.86485
4.29922
0.296051
3.32853
3.74313
-1.11821
-1.48139
-0.398412
0.611041
2.49468
1.41013
0.851795
0.600429
-0.875899
2.3647
4.86792
1.97151
-2.9385
0.229765
3.18867
1.33528
-1.10267
0.71845
2.49132
-2.01044
3.46518
-0.75821
5.69008
-4.34296
0.158224
1.20475
3.47849
0.600691
1.59161
-1.51011
1.55153
-0.553809
-2.22214
3.40363
0.196385
-0.222763
1.83465
2.30576
-21.6415
-3.83609
19.2499
2.87923
2.63459
-0.47586
2.13662
-0.0686833
1.06743
0.618642
1.8548
-0.0768185
0.285114
0.0661567
1.4973
1.69758
0.898501
-0.440945
2.60585
1.14875
1.95393
0.321112
2.54553
-0.45858
0.425353
0.698386
1.31722
1.28175
-21.551
15.5693
-12.7058
21.9844
0.407828
0.342102
1.34684
1.10295
1.54052
-0.109418
-0.215493
1.93806
1.47049
0.166743
1.80242
0.717176
0.21579
0.508858
1.30846
0.880917
0.32771
2.00976
1.83356
0.169021
-0.180105
1.4152
2.12727
0.41522
-0.75878
2.36092
3.08301
-0.185992
0.544126
0.301009
0.804659
1.12316
1.07434
0.818188
2.90943
-0.783639
-1.63915
-2.1688
6.27147
6.61101
-0.617763
-0.123708
2.254
2.72841
1.01973
-2.13646
4.70458
1.13554
-1.29566
0.187837
2.0108
3.35354
-0.0436624
1.80418
0.271272
1.09029
-0.951021
3.14321
0.794563
1.5528
1.78166
-0.139314
0.789284
0.667439
-0.42415
2.93882
-1.13056
2.16129
1.81209
-0.0144725
-1.08645
2.99368
-0.468299
3.44241
-1.00241
2.78873
-2.27302
0.864118
1.60957
4.76996
-5.79185
-24.4964
6.2204
26.0011
0.144651
-0.192745
5.17496
4.80527
3.88492
-1.69655
-0.273896
2.15073
5.29098
2.34691
0.678971
-2.67652
3.17545
3.62928
-0.936177
-1.43348
-1.05069
2.79575
2.39791
5.68886
2.97823
-3.40858
5.0958
-1.45639
0.13773
2.63399
-2.15436
5.34649
-0.784643
-0.411822
2.74879
0.786493
1.9028
0.690061
1.3104
0.197379
-1.65544
1.41237
-0.501742
2.41935
-2.59846
1.74899
1.08767
5.93932
-0.632137
2.33222
0.806172
0.883255
3.38716
2.98587
-1.2809
-1.02506
-0.831326
3.09927
1.94815
0.386304
1.99038
-4.09383
-0.56197
5.48621
-1.5036
-0.55595
3.54272
2.86676
2.44083
-0.0822882
2.04938
-0.442935
2.25842
-0.686976
2.85192
-0.472028
-0.580957
1.74359
0.680615
2.91032
1.80331
-0.771519
0.211774
2.75876
3.67365
-1.56989
0.518482
1.53645
5.12802
-1.62072
-1.44845
4.84149
-0.295956
-0.354607
2.27952
2.43089
1.64423
-0.677061
2.82132
0.357499
-1.14945
1.81537
3.57063
0.47334
-1.00971
-2.10031
3.35422
4.54045
-1.01442
1.00598
3.2491
1.14709
1.98208
-1.0695
1.46837
-1.35996
-0.637885
-2.32122
4.36936
5.53851
1.87878
0.929736
-3.00759
5.89825
1.1987
-0.24525
2.37623
-0.204899
3.54982
-1.39198
3.54936
-1.67119
-0.176596
1.15467
2.13536
0.744454
4.19289
-2.12246
1.41167
0.466335
3.55428
-1.45453
1.92571
0.526422
-5.13895
-4.50903
6.88572
6.11475
4.35939
-2.13434
1.54543
0.597451
0.404174
-1.89672
3.28026
1.28738
-3.25386
7.69184
-4.56512
6.19873
-0.616234
3.71361
-1.62099
2.31124
2.34886
5.35479
-2.38262
0.41086
-1.73306
4.08334
1.32616
0.788791
-12.6638
7.35428
-8.44298
12.9872
2.48574
0.955965
0.955444
-0.443793
-0.249135
1.69099
2.27168
0.389997
0.427577
0.442535
1.39028
1.22501
0.918154
0.931087
1.81075
0.0101636
3.09067
-1.77341
2.17295
-1.1121
-0.0814579
2.18125
3.06103
-0.826093
-2.03636
4.10887
2.40185
0.106724
-1.00788
3.10623
2.19711
-0.234584
0.995632
1.92258
-0.170256
0.754315
-0.563681
1.69106
3.39851
-2.17519
2.8071
-0.524155
4.92323
1.94236
2.59214
-0.62702
2.76378
-0.457067
0.166082
3.06703
1.67307
-0.567668
1.61019
0.964782
0.594793
3.5008
-0.859995
1.90379
0.523665
3.12636
2.48805
0.824966
-0.565357
1.5072
-0.116294
2.05457
-0.0217315
2.34335
0.496338
-0.719163
1.58535
2.79847
3.37804
-1.55058
0.618415
1.00835
2.14082
-0.058347
0.575644
1.34391
-0.427336
-0.780212
2.9042
2.56771
1.97337
0.253603
0.129061
1.84909
4.23883
-2.7204
3.73346
-3.13078
2.23683
3.1083
-0.0100585
-1.06946
6.12541
0.321584
3.31465
-1.27016
2.2114
-0.432144
-5.02052
6.46875
-2.25246
2.84046
-0.673136
4.6522
-0.739924
2.95239
2.70945
-1.04352
3.67403
1.29245
0.645859
-1.77385
1.2919
3.16239
-1.30844
0.438096
-6.1567
3.41589
-2.07159
7.66563
2.85516
-1.8023
4.87856
-0.322856
5.66379
1.15857
1.59612
-2.76482
-3.90928
1.9249
1.35298
7.1242
1.70728
-0.00107892
5.10336
3.2017
0.204171
2.63615
1.40077
-1.0256
1.44139
-2.0427
3.75498
0.241757
-0.660763
1.08385
2.81638
1.03894
3.20219
-0.300787
2.58385
-0.964426
-1.34463
1.42943
3.61203
0.766402
0.389861
2.59213
-0.502606
1.83206
0.473782
1.94857
-0.0315246
1.83905
-3.5088
10.0645
5.31542
-7.65111
0.552103
1.94539
1.40866
0.018399
0.48452
0.268768
1.49351
1.7107
0.334352
1.6939
2.58589
-0.522303
-0.137164
2.08696
2.17667
-0.0144093
1.93119
1.86303
-0.143254
-0.167772
1.40854
-0.58645
2.32291
0.351993
-0.32471
2.18497
2.31316
-0.24379
-3.27995
2.8171
0.263303
6.44045
5.78307
-1.33348
5.29687
-2.26862
3.55158
-0.631957
1.13556
-2.81343
1.61324
0.13855
-1.49802
3.48301
0.775733
0.274196
1.5201
0.866724
0.558659
1.43496
1.29513
0.400971
2.5204
1.37981
0.161999
-0.923736
-1.30904
5.9061
-2.71521
4.7176
-0.0956815
2.17663
3.24744
-1.25617
-0.175535
0.46937
5.64275
-4.68408
2.45481
1.77091
6.4788
-2.34057
-2.87625
2.65571
0.642659
6.32938
-0.985501
1.5915
3.47827
-2.80543
-13.9866
24.099
11.7245
-26.4983
-0.694418
3.73128
4.45854
7.00856
-0.971011
3.31801
3.44737
-1.18962
0.695036
4.66535
0.210011
-3.40053
-1.21239
3.22035
1.39992
0.424569
3.0408
-3.46479
5.05335
-1.77101
3.88714
-0.911352
-2.19182
2.20954
2.79036
-0.530077
2.26502
-1.1478
3.0704
1.57945
-0.985292
0.491738
2.58206
-0.618614
-0.981401
3.09654
1.06578
-5.74276
5.83939
-1.1668
1.30588
-0.368406
0.707086
2.2326
-0.210657
1.70306
-0.345332
1.59825
-0.728066
1.00958
0.371108
1.99355
0.0193411
-0.30581
2.32846
2.51767
-0.0395303
1.9544
2.15255
0.0470246
1.68277
2.61336
-0.549762
0.272154
4.7898
-2.4629
1.07802
1.1928
-4.99897
-10.051
10.2438
5.35897
0.010967
-1.69701
4.11364
2.35268
0.302389
3.77065
2.43101
-1.48863
-4.7356
5.19729
-4.53281
5.60509
2.06394
1.20794
-0.414516
1.06181
2.17404
-0.106516
0.479968
1.60591
-1.45721
3.33383
-2.15232
2.65126
0.237679
14.4927
3.76339
-9.76099
-19.8127
5.85224
-4.58481
20.3125
-1.47562
-0.994331
2.67729
3.2855
5.02571
0.448822
2.28419
-1.70441
0.866909
-3.35494
6.52986
2.18784
8.08812
-0.472163
1.546
-7.25799
3.6976
-4.28947
-3.2319
4.93925
-0.914185
1.89906
2.92783
0.00272196
0.839546
0.671707
0.166637
1.49137
0.0591602
2.5259
1.82814
-0.465049
4.17656
1.50185
0.380217
-2.44206
-0.363816
2.54218
-0.224171
2.55119
0.886305
-0.520432
1.26838
2.54567
2.4067
-1.42669
3.44786
-0.462569
3.49429
-1.54508
4.04612
-1.10655
0.288584
2.15178
1.54271
-0.289065
-27.6468
9.01843
-11.5081
25.9954
2.28986
-0.30546
2.26582
-0.232161
0.327425
3.49967
-1.73219
1.50579
2.70969
-0.521653
1.39753
0.775569
7.12248
2.90094
-3.13374
1.16771
0.87146
-0.179044
2.14123
1.11994
1.96521
0.206749
0.0632227
1.56867
1.96027
-0.891609
2.90677
0.0163391
2.79421
-0.871631
2.12379
-0.222984
-9.73653
12.3357
15.3841
-3.93993
-2.36089
4.07571
-0.86945
2.76907
5.24353
-2.02596
3.74701
-1.05067
5.38911
0.890642
-3.48736
1.6092
2.24769
-3.8043
-0.78711
5.456
-6.6728
-24.6784
5.04931
21.6493
-2.10836
2.11871
4.20002
0.349951
-3.5928
-2.94453
4.48421
3.87933
-4.51561
-0.373439
3.23363
8.55298
1.61716
0.318972
1.41667
0.382204
-4.30342
4.22966
-4.01043
4.01038
-1.24588
2.63104
2.44409
-0.913025
0.675759
0.28471
1.47757
0.86865
0.420465
-1.89981
4.39139
2.03194
-1.08546
3.93666
3.22566
-1.52297
-2.9107
3.16583
-0.909955
4.98195
2.68986
3.60613
-0.506532
-1.43602
3.09066
3.63496
-0.86638
-1.2411
-0.124147
3.8458
-1.85558
1.9629
1.72737
0.0133997
0.835703
1.10942
0.0834552
-1.52691
3.90107
2.0826
-2.61034
1.31128
1.10525
4.58834
-1.24986
-0.858545
3.54559
3.8064
8.30203
0.218793
3.23854
-3.83407
2.2863
4.12439
-1.8531
0.267991
2.72606
1.83114
0.09282
-0.749944
0.692164
0.985944
3.11819
-1.30762
-0.631244
2.27745
2.88416
-0.172232
-0.596225
2.62265
2.82124
-0.294747
1.75389
25.7748
4.65152
-19.0888
3.20808
0.0462754
1.86719
-1.3367
2.93181
-2.86037
5.75516
-0.751266
0.617666
4.20332
1.48041
-1.79602
-0.776675
5.86968
-2.60747
3.76057
0.458434
1.31042
0.521797
1.45094
1.65008
0.145255
1.09427
0.660936
-1.67934
1.90676
-1.69224
2.17613
5.27938
-1.3546
4.7218
-1.28114
4.12383
-1.86114
-0.193994
2.49961
4.82313
1.28407
-3.99659
-0.820747
4.86376
-0.879918
-2.31978
3.23641
2.4526
6.32162
-1.29862
-4.15129
-1.87583
1.9319
3.86918
-0.0283249
6.97026
-5.00898
-1.82598
4.02887
0.177986
3.67222
-1.65546
1.65455
2.79092
-1.49309
-4.71591
5.96088
-2.61011
1.16856
6.07363
2.10181
12.0094
-16.6419
-11.3588
17.9446
-0.681997
10.8465
5.61269
-1.12641
2.4829
-0.313201
2.04182
-0.654525
2.76172
1.38647
-0.735137
0.539125
1.90078
4.29192
-3.56559
-1.3413
4.35348
4.88843
-1.04942
-0.775879
-0.367061
3.62493
-2.13337
1.75057
2.45819
5.35087
0.592234
-2.43216
5.89074
-0.274325
1.97781
-3.77704
-4.61153
3.08531
6.32226
-1.4268
3.56946
1.70137
0.530064
-1.6463
0.347788
2.5975
1.80497
-0.460146
-0.31603
1.97662
0.166906
2.48199
6.02029
1.20312
2.40088
-2.38948
16.433
-23.5907
21.4962
-18.6499
0.837122
-1.13333
3.48345
1.52334
1.73748
0.167503
2.3084
-0.125882
2.63826
1.41013
0.999918
-0.426095
-0.5879
2.86468
2.90772
-0.707013
1.84758
-1.47705
0.33459
3.61785
0.335847
1.31053
-1.27457
3.29805
-0.938979
0.62781
3.09117
1.53106
1.83807
0.551458
0.0590567
1.81904
1.86435
-0.0017053
1.9845
0.0892377
2.49778
-0.0214426
-0.369597
2.153
-1.21056
4.2642
3.43153
-1.86499
3.0135
2.09584
-1.04412
-2.29138
-24.0191
9.30874
-8.09392
24.8225
2.20029
-2.40444
4.51066
0.0540061
0.515126
1.31438
-1.56584
3.63637
0.408921
-1.29364
3.40149
1.7946
1.6949
0.517238
-1.77837
4.01569
-0.501647
1.08939
2.61718
0.535272
-1.00017
3.02309
1.44549
0.540066
3.65827
-1.5288
0.800045
1.54259
1.44869
-0.235137
3.53163
-2.42475
-1.2548
0.444888
1.96335
3.47736
-1.77882
2.85678
-0.587916
4.15467
2.71336
-0.691664
3.15399
-0.983751
2.8667
-0.0318515
-0.744528
2.0448
0.510153
2.14139
-2.84746
5.60008
8.28189
1.65425
-5.80311
1.42128
5.8741
-3.09068
4.79816
-3.95918
-2.28811
-1.16169
4.88545
3.85753
-1.5634
3.67398
2.80102
-0.649452
4.89973
14.5787
-9.93911
-0.786933
4.84495
7.55707
-2.25224
-3.71236
-4.60523
4.97588
5.65203
-4.47643
0.0198038
0.0662623
1.96258
1.90398
-0.503636
2.39615
1.47161
0.441694
0.28096
1.85135
4.08902
-1.81427
-2.54416
1.09498
5.17193
1.62455
-2.85901
-0.325238
3.02843
5.59408
-2.49564
2.61134
4.33782
-0.953571
2.18189
3.891
-0.0949586
-1.8082
4.68304
1.16196
1.22681
-2.30594
2.48881
-3.12886
2.89985
8.58778
-1.02177
0.74478
3.02239
1.22424
2.06698
2.33581
-0.340556
0.0916892
-0.805996
2.80258
1.25117
0.548178
3.88278
-2.28787
-2.83115
3.11644
-1.43119
-0.219803
1.92562
3.30337
2.02956
-0.241851
-0.345699
2.00095
0.418625
2.22221
-0.308089
1.62311
5.15758
1.12738
2.06458
-2.15614
2.01925
0.829096
-0.0887361
1.04439
-0.436656
1.6841
2.43181
0.1845
-19.1668
-17.793
14.5945
17.6103
0.803411
-0.353112
2.08213
0.878873
-1.72069
0.472607
1.71677
4.15639
-1.33482
2.97516
-0.753734
3.44203
-1.55361
3.06422
4.34471
-0.593289
4.53995
-2.676
-2.73444
4.65174
5.90964
-0.548233
-2.30932
3.47003
5.9812
0.702711
2.37284
-2.26467
3.06389
-1.18111
3.60629
-0.706141
0.493481
1.35941
2.71671
-0.738498
1.4458
-0.428128
0.523335
2.45176
1.70042
2.41463
-0.288484
-0.430441
1.65478
0.297351
0.0653405
1.44158
2.05926
-4.50071
-0.522419
6.81328
0.26811
0.700184
1.02804
1.40582
1.17251
0.700079
0.0602657
0.527262
4.51391
-1.6694
-2.48367
5.37227
0.225031
0.879654
1.10113
0.382145
6.27241
0.183333
2.66417
-3.37016
-27.2676
1.83333
24.295
-4.38071
-0.0983389
2.38208
2.03798
-0.414241
4.49407
3.5096
-1.79453
-0.239661
2.50952
-0.51826
0.121232
1.86377
2.97838
0.456704
1.35203
-1.03639
0.893568
3.28253
0.68925
-1.55858
4.85828
0.0921091
-2.38723
2.36766
7.84141
1.88765
0.545541
-4.30857
4.05399
-1.54924
3.76813
-1.46366
2.83934
-4.03058
-0.713663
5.89704
2.50377
1.30827
-0.458844
0.870148
2.59032
0.164228
-1.0875
1.35148
1.08028
-1.83696
3.26584
0.529358
-2.62226
3.46944
3.49069
-2.06206
4.31732
-0.995184
3.4045
-1.76892
-1.81289
4.11297
1.91746
0.239576
4.21464
-2.076
1.45443
0.679083
0.866729
2.05668
-0.468907
0.816373
5.16448
3.63325
-0.685372
-1.71805
-1.97154
0.447112
1.74369
4.27664
3.72754
-1.35053
-0.818424
3.00786
-0.054444
-3.89145
6.84676
2.34559
0.619231
1.32385
2.6689
-0.702082
-3.4322
5.03048
3.96818
-4.37726
0.532095
0.772199
1.2179
0.656242
0.0169174
1.26532
1.79515
0.546576
-0.0156942
2.3275
-2.28935
4.53976
0.759669
1.09433
-0.772549
2.66275
-7.02435
4.71891
9.31318
-1.10658
6.60423
-5.17927
8.87105
-2.40627
2.94222
4.91262
-0.381847
-2.43162
6.13347
-0.146717
1.28219
-4.36027
9.04272
-5.1597
2.2911
1.08332
2.68108
2.49308
-1.4296
-0.864249
-2.39751
6.78662
3.92572
-5.44148
4.49304
-3.13115
-1.03082
7.16148
-1.17489
-1.45739
3.53834
3.85965
4.38605
-1.90591
-1.31082
3.81356
3.25302
-1.93221
-1.27894
3.81302
0.809163
0.660795
1.37912
0.00196444
1.43741
0.987349
0.556315
0.16792
-0.0231194
2.15731
-1.41127
3.73548
-0.878775
3.10428
-0.715254
2.92225
-3.93504
-3.42317
4.83231
4.5473
2.24561
-0.00993664
-0.44206
1.66806
2.61541
0.54081
1.6192
-0.565479
2.24171
-0.358814
1.65056
0.242339
2.10447
-0.268736
2.3479
-0.532462
3.53076
-1.23214
3.07371
-1.60448
5.6876
-1.33548
4.72101
-2.91428
-6.02441
7.8313
-5.12486
5.86181
0.381608
1.87844
-2.68213
5.13897
)
;

boundaryField
{
    insideCircle
    {
        type            myTemperature;
        value           nonuniform List<scalar> 
24
(
5.00105
2.1988
1.23443
7.55721
-2.68674
-0.938679
6.90651
5.50242
0.369027
-0.575081
5.28884
4.79532
-1.10929
2.32774
3.01866
6.06108
3.25717
0.0758637
5.58961
1.97127
1.69105
-0.0895214
5.22298
3.33094
)
;
    }
    outsideCircle
    {
        type            myTemperature;
        value           nonuniform List<scalar> 
124
(
2.44869
0.325347
1.65507
-0.297528
0.682432
1.57981
2.09985
1.71968
1.26932
0.269741
0.434969
2.43378
-0.0958424
1.89519
1.17061
1.20013
2.28707
1.02292
1.31669
-0.747282
-0.455061
0.68884
2.50947
1.51801
1.11115
-0.451685
2.55338
-0.710506
-0.128972
-0.263002
2.44963
1.76924
2.46586
0.796348
-0.436785
1.37956
0.917554
0.0196549
2.24519
1.07373
-0.466924
1.05484
2.50088
1.07608
0.230436
-0.37485
1.89374
2.61738
0.884738
-0.701881
2.75588
1.21105
1.92096
0.0966391
2.25923
-0.180156
0.495085
2.01071
2.00601
-0.252345
-1.84669
-1.53333
4.17961
0.347655
2.64282
0.580088
-0.240287
1.40171
-0.421589
2.1765
-0.0166834
2.55861
2.28495
-0.249633
0.625202
1.57208
1.87369
-0.0459939
0.0667836
1.91502
-0.741139
0.831685
2.84957
1.34046
-0.0192192
2.56732
-0.402636
2.14982
-0.0860836
-0.165091
1.89066
2.33003
1.92287
2.5889
-0.315573
0.417038
2.45241
0.696934
0.0544021
1.0275
2.05449
-0.0812123
0.560758
1.44334
2.41834
-0.489647
1.3426
0.721364
0.173041
2.51821
1.91193
-0.339721
-0.270831
2.0742
-0.0185206
2.47276
2.24314
0.146848
2.39548
-0.412132
2.64138
1.09609
0.619692
-0.637872
)
;
    }
    topAndBottom
    {
        type            empty;
    }
}


// ************************************************************************* //
