/*--------------------------------*- C++ -*----------------------------------*\
| =========                 |                                                 |
| \\      /  F ield         | foam-extend: Open Source CFD                    |
|  \\    /   O peration     | Version:  3.0                                   |
|   \\  /    A nd           | Web:         http://www.extend-project.de       |
|    \\/     M anipulation  |                                                 |
\*---------------------------------------------------------------------------*/
FoamFile
{
    version     2.0;
    format      ascii;
    class       volSymmTensorField;
    location    "23";
    object      sigma;
}
// * * * * * * * * * * * * * * * * * * * * * * * * * * * * * * * * * * * * * //

dimensions      [0 0 0 0 0 0 0];

internalField   nonuniform List<symmTensor> 
168
(
(-0.142573 -0.0195685 -1.07332e-18 0.14256 -2.46901e-19 1.35427e-05)
(-0.113974 -0.0209055 1.84498e-19 0.113945 1.92285e-18 2.90091e-05)
(-0.0792205 -0.0177507 7.33519e-19 0.0791816 -1.47259e-19 3.88355e-05)
(-0.0501887 -0.0142123 -1.00375e-18 0.0501442 4.04999e-18 4.45193e-05)
(-0.02669 -0.0111658 1.80218e-18 0.0266503 9.35336e-19 3.97524e-05)
(-0.0126561 -0.00972819 -4.08479e-19 0.0126354 -3.32491e-18 2.06734e-05)
(-0.129809 -0.0556227 6.14087e-19 0.129796 4.51968e-19 1.29702e-05)
(-0.0952873 -0.0568861 1.37923e-18 0.0952594 -4.46015e-18 2.7946e-05)
(-0.061133 -0.0470299 1.89518e-18 0.0610954 -2.63093e-18 3.75896e-05)
(-0.0341431 -0.0365594 3.83929e-18 0.0340997 -4.10351e-18 4.33267e-05)
(-0.0126543 -0.0275744 -5.55979e-18 0.0126157 -8.67511e-19 3.86033e-05)
(0.000577156 -0.0228421 -1.71339e-19 -0.000597259 4.4962e-18 2.0103e-05)
(-0.107379 -0.08387 5.18917e-19 0.107367 -6.58483e-18 1.20107e-05)
(-0.0645372 -0.0784102 -5.51398e-18 0.0645113 5.58407e-19 2.58996e-05)
(-0.0320781 -0.0613365 -4.54954e-19 0.0320432 -5.62585e-19 3.48583e-05)
(-0.00885245 -0.0450153 -6.99764e-19 0.00881246 7.86386e-19 3.99886e-05)
(0.00902986 -0.0313239 1.09107e-17 -0.00906546 6.39751e-18 3.56038e-05)
(0.0206435 -0.0236985 1.62496e-18 -0.020662 -6.72061e-18 1.84358e-05)
(-0.0802419 -0.102017 2.01395e-18 0.0802315 3.18157e-18 1.03543e-05)
(-0.0321083 -0.0823831 3.49749e-18 0.0320859 6.16479e-18 2.23666e-05)
(-0.00310924 -0.0577756 3.66194e-19 0.00307909 -1.97919e-18 3.01549e-05)
(0.0152487 -0.0370817 -2.58887e-19 -0.0152832 4.36941e-18 3.44975e-05)
(0.0287158 -0.0203027 -5.02567e-18 -0.0287465 -1.21397e-17 3.069e-05)
(0.0381352 -0.0103587 1.00952e-20 -0.0381511 3.01978e-18 1.58315e-05)
(-0.0532733 -0.110851 -4.55925e-18 0.0532652 1.37274e-18 8.05483e-06)
(-0.00776124 -0.0725333 6.95376e-19 0.00774378 -4.72462e-18 1.74623e-05)
(0.0154754 -0.0407939 -1.63124e-18 -0.015499 1.49287e-18 2.36477e-05)
(0.0285058 -0.0172442 2.86914e-18 -0.0285328 -1.65259e-18 2.70065e-05)
(0.0375277 0.00111124 1.24752e-18 -0.0375517 4.28197e-18 2.40193e-05)
(0.0443991 0.0126902 -4.03216e-18 -0.0444114 2.14189e-18 1.23239e-05)
(-0.0295339 -0.113469 1.5285e-18 0.0295286 9.00956e-19 5.28989e-06)
(0.00334483 -0.0575317 -1.07038e-18 -0.0033564 1.93275e-18 1.1571e-05)
(0.0184767 -0.0201226 -9.63897e-19 -0.0184925 9.48139e-20 1.58025e-05)
(0.0261743 0.00502188 -1.52623e-18 -0.0261924 -3.6096e-19 1.80597e-05)
(0.0312193 0.0239145 -1.93694e-18 -0.0312354 -2.11724e-18 1.60934e-05)
(0.0353708 0.036547 2.19404e-18 -0.035379 -2.97763e-19 8.21088e-06)
(-0.00934345 -0.113552 -1.05405e-19 0.00934127 -6.17464e-19 2.17563e-06)
(0.0026709 -0.0469331 6.97909e-20 -0.00267584 -1.20699e-18 4.9424e-06)
(0.00793343 -0.00636829 9.70599e-19 -0.00794041 1.68074e-20 6.97393e-06)
(0.0104812 0.0194552 -8.58344e-20 -0.0104893 -7.45227e-19 8.03536e-06)
(0.0120826 0.038426 2.48429e-19 -0.0120898 2.03935e-18 7.22581e-06)
(0.013515 0.0515395 -7.16377e-19 -0.0135187 -7.61008e-20 3.62269e-06)
(0.00935599 -0.113547 -1.71569e-19 -0.00935491 8.47187e-19 -1.0811e-06)
(-0.00265542 -0.0469334 2.15265e-19 0.00265743 9.85743e-19 -2.01177e-06)
(-0.00791574 -0.00636771 -7.62628e-20 0.00791804 -9.15482e-19 -2.29769e-06)
(-0.01044 0.0194527 1.31107e-18 0.0104425 -8.14911e-19 -2.47089e-06)
(-0.0120394 0.0384161 -3.25086e-19 0.0120415 -1.87951e-18 -2.05211e-06)
(-0.0134061 0.0515291 -4.25933e-19 0.0134073 -7.22037e-20 -1.15921e-06)
(0.0295443 -0.113458 1.55425e-18 -0.02954 -7.22188e-19 -4.33897e-06)
(-0.00332936 -0.057527 -2.08289e-18 0.00333834 -1.8512e-18 -8.97183e-06)
(-0.0184609 -0.0201207 -1.16526e-18 0.0184725 -3.87178e-19 -1.15822e-05)
(-0.0261359 0.00503321 -1.99254e-18 0.0261489 -2.25642e-18 -1.29725e-05)
(-0.0311864 0.023908 -1.4179e-19 0.0311977 3.33063e-18 -1.13102e-05)
(-0.0352887 0.0365705 2.69209e-18 0.0352947 -1.91613e-20 -5.90982e-06)
(0.0532721 -0.110843 -4.542e-18 -0.0532647 -6.064e-19 -7.40498e-06)
(0.00777155 -0.072534 5.66098e-19 -0.00775601 4.67983e-18 -1.55465e-05)
(-0.0154599 -0.0407932 -1.0557e-18 0.0154803 -3.91432e-19 -2.0362e-05)
(-0.0284756 -0.0172437 2.74717e-19 0.0284985 8.07175e-19 -2.28924e-05)
(-0.0374753 0.00111097 4.36628e-18 0.0374953 -7.25795e-18 -2.00512e-05)
(-0.0443036 0.0127094 -4.25019e-18 0.044314 -1.26878e-18 -1.03939e-05)
(0.0802369 -0.102006 2.40628e-18 -0.0802268 -2.97508e-18 -1.01428e-05)
(0.0321165 -0.0823765 5.98657e-18 -0.0320951 -3.52068e-18 -2.14251e-05)
(0.00312083 -0.0577738 -2.50124e-18 -0.00309261 -3.04881e-19 -2.82195e-05)
(-0.0152225 -0.0370693 3.34413e-18 0.0152543 1.56777e-18 -3.17594e-05)
(-0.0286716 -0.0203142 -1.18797e-17 0.0286994 5.49483e-18 -2.78586e-05)
(-0.0380672 -0.0103691 2.71266e-18 0.0380816 1.05621e-19 -1.43815e-05)
(0.107381 -0.0838701 2.06008e-18 -0.107369 6.1542e-18 -1.23979e-05)
(0.064548 -0.0784145 -5.96984e-18 -0.0645218 -2.6977e-19 -2.62873e-05)
(0.0321034 -0.0613333 1.30247e-18 -0.0320687 3.35928e-18 -3.47232e-05)
(0.00887766 -0.0450215 -3.01852e-18 -0.00883858 -3.30108e-18 -3.90739e-05)
(-0.00898565 -0.0313178 5.205e-18 0.00901992 -1.1355e-18 -3.42669e-05)
(-0.020594 -0.0236883 2.19352e-18 0.0206117 4.50956e-18 -1.7632e-05)
(0.129806 -0.0556263 3.68511e-19 -0.129791 -7.83552e-19 -1.40688e-05)
(0.0952922 -0.0568918 2.61992e-18 -0.0952623 2.31478e-18 -2.99037e-05)
(0.0611441 -0.0470328 1.71144e-18 -0.0611045 3.76711e-18 -3.95693e-05)
(0.034164 -0.0365623 -2.08385e-18 -0.0341195 3.67553e-18 -4.45044e-05)
(0.0126877 -0.0275739 -5.94826e-19 -0.0126487 2.20228e-18 -3.90255e-05)
(-0.000497958 -0.0228415 -1.37949e-18 0.000517993 -1.96774e-18 -2.00354e-05)
(0.142577 -0.0195609 -6.1166e-19 -0.142562 -3.73262e-19 -1.50645e-05)
(0.113982 -0.0209103 -5.77484e-19 -0.11395 -2.52475e-18 -3.20821e-05)
(0.0792407 -0.0177298 8.74272e-19 -0.0791982 -1.41585e-18 -4.2496e-05)
(0.050207 -0.0142187 -9.68168e-19 -0.0501593 -2.01654e-18 -4.77464e-05)
(0.0267252 -0.011158 1.69027e-18 -0.0266834 7.14002e-19 -4.18318e-05)
(0.0127149 -0.00974814 -4.48276e-20 -0.0126935 -5.17869e-19 -2.14136e-05)
(0.142608 0.0194416 -1.07125e-18 -0.142592 -2.46633e-19 -1.53417e-05)
(0.114039 0.0206619 1.84447e-19 -0.114006 1.92204e-18 -3.27215e-05)
(0.0793141 0.0173677 7.30899e-19 -0.0792707 -1.47713e-19 -4.33657e-05)
(0.0503531 0.013577 -1.00353e-18 -0.0503045 4.04814e-18 -4.86395e-05)
(0.0269036 0.0102426 1.79562e-18 -0.026861 9.34095e-19 -4.25383e-05)
(0.0129995 0.00827061 -4.0725e-19 -0.0129778 -3.32368e-18 -2.16893e-05)
(0.129882 0.0555178 6.13221e-19 -0.129867 4.51324e-19 -1.48859e-05)
(0.0954339 0.0566848 1.37772e-18 -0.0954021 -4.46057e-18 -3.1796e-05)
(0.0613659 0.0467212 1.89959e-18 -0.0613238 -2.62863e-18 -4.21538e-05)
(0.0345315 0.0360318 3.83892e-18 -0.0344843 -4.1087e-18 -4.71892e-05)
(0.0132335 0.0268316 -5.54896e-18 -0.0131923 -8.63851e-19 -4.12042e-05)
(0.000331674 0.0216574 -1.74171e-19 -0.000310746 4.48843e-18 -2.09274e-05)
(0.107493 0.0838039 5.20726e-19 -0.107479 -6.58384e-18 -1.3721e-05)
(0.0647498 0.0782885 -5.51519e-18 -0.0647205 5.61054e-19 -2.9354e-05)
(0.0324095 0.061145 -4.60866e-19 -0.0323706 -5.62052e-19 -3.89192e-05)
(0.0094149 0.0447063 -7.0365e-19 -0.00937145 7.93979e-19 -4.34477e-05)
(-0.00822252 0.0308693 1.09057e-17 0.00826036 6.39035e-18 -3.78382e-05)
(-0.0193466 0.0229798 1.63021e-18 0.0193657 -6.72383e-18 -1.9124e-05)
(0.0803743 0.101998 2.01153e-18 -0.0803624 3.18119e-18 -1.19103e-05)
(0.0323382 0.0823579 3.49777e-18 -0.0323126 6.1635e-18 -2.5529e-05)
(0.003483 0.0577414 3.68578e-19 -0.00344915 -1.97424e-18 -3.38453e-05)
(-0.0146362 0.0370252 -2.57955e-19 0.0146739 4.36509e-18 -3.76477e-05)
(-0.0278269 0.0202425 -5.024e-18 0.0278595 -1.21319e-17 -3.26764e-05)
(-0.0367227 0.0102405 3.67634e-21 0.0367391 3.02247e-18 -1.64069e-05)
(0.0534017 0.11089 -4.55896e-18 -0.0533921 1.3742e-18 -9.54129e-06)
(0.00797468 0.0726046 6.9652e-19 -0.00795418 -4.72413e-18 -2.05091e-05)
(-0.0151325 0.0409131 -1.63541e-18 0.0151596 1.48988e-18 -2.71818e-05)
(-0.0279466 0.0174495 2.87249e-18 0.0279767 -1.65203e-18 -3.00665e-05)
(-0.0367181 -0.0008057 1.23822e-18 0.036744 4.27843e-18 -2.59656e-05)
(-0.0431041 -0.0121839 -4.02578e-18 0.043117 2.14151e-18 -1.29187e-05)
(0.0296296 0.11356 1.52856e-18 -0.0296228 8.99705e-19 -6.74059e-06)
(-0.00320039 0.0576761 -1.06995e-18 0.00321495 1.93242e-18 -1.45551e-05)
(-0.0182356 0.0203707 -9.61111e-19 0.0182549 9.83102e-20 -1.9273e-05)
(-0.0257912 -0.00461759 -1.52765e-18 0.0258123 -3.61647e-19 -2.10909e-05)
(-0.0306635 -0.0233172 -1.93473e-18 0.0306815 -2.10971e-18 -1.80331e-05)
(-0.0344706 -0.0355735 2.19073e-18 0.0344795 -2.99513e-19 -8.80746e-06)
(0.00938526 0.113678 -1.04853e-19 -0.00938162 -6.16245e-19 -3.64009e-06)
(-0.0026111 0.0471275 7.11922e-20 0.00261905 -1.20602e-18 -7.9535e-06)
(-0.0078371 0.00669399 9.72748e-19 0.0078476 1.27909e-20 -1.04983e-05)
(-0.0103292 -0.0189291 -8.32626e-20 0.0103403 -7.44504e-19 -1.11517e-05)
(-0.01187 -0.0376512 2.45608e-19 0.0118792 2.03188e-18 -9.26794e-06)
(-0.0131677 -0.050281 -7.11749e-19 0.013172 -7.39275e-20 -4.28136e-06)
(-0.00938181 0.113674 -1.70768e-19 0.00938221 8.45317e-19 -4.06178e-07)
(0.00261817 0.0471203 2.15582e-19 -0.00261712 9.84484e-19 -1.04838e-06)
(0.00785141 0.00669084 -7.40322e-20 -0.00785009 -9.1295e-19 -1.3151e-06)
(0.0103264 -0.0189376 1.31229e-18 -0.0103256 -8.15093e-19 -7.57904e-07)
(0.0118808 -0.0376547 -3.23111e-19 -0.0118806 -1.87235e-18 -1.20615e-07)
(0.0131214 -0.0502875 -4.26935e-19 -0.0131218 -7.40002e-20 4.24103e-07)
(-0.029629 0.113558 1.55376e-18 0.0296261 -7.21067e-19 2.81026e-06)
(0.00320118 0.0576755 -2.08437e-18 -0.00320701 -1.85131e-18 5.83172e-06)
(0.0182435 0.0203723 -1.16476e-18 -0.0182514 -3.91948e-19 7.84609e-06)
(0.0257885 -0.00462541 -1.99341e-18 -0.0257981 -2.25671e-18 9.60309e-06)
(0.0306672 -0.0233127 -1.34889e-19 -0.0306762 3.32487e-18 8.99336e-06)
(0.0344512 -0.0355811 2.68945e-18 -0.0344563 -1.72086e-20 5.10994e-06)
(-0.0533953 0.110885 -4.54189e-18 0.0533895 -6.08009e-19 5.83005e-06)
(-0.00795984 0.072603 5.65185e-19 0.00794753 4.67792e-18 1.23157e-05)
(0.0151448 0.0409189 -1.06079e-18 -0.0151613 -3.89418e-19 1.64908e-05)
(0.0279599 0.0174378 2.71675e-19 -0.0279793 8.01949e-19 1.93759e-05)
(0.0367307 -0.000800455 4.36569e-18 -0.0367483 -7.25224e-18 1.75715e-05)
(0.0430893 -0.0122224 -4.24673e-18 -0.0430988 -1.26802e-18 9.49674e-06)
(-0.0803694 0.101992 2.40368e-18 0.0803609 -2.97387e-18 8.50803e-06)
(-0.0323271 0.0823545 5.98555e-18 0.0323091 -3.51973e-18 1.8088e-05)
(-0.00347344 0.0577383 -2.49855e-18 0.00344922 -3.06924e-19 2.42175e-05)
(0.0146531 0.037019 3.3434e-18 -0.0146812 1.56948e-18 2.81059e-05)
(0.0278358 0.0202344 -1.18753e-17 -0.0278611 5.49061e-18 2.52433e-05)
(0.0367147 0.0102408 2.70222e-18 -0.0367281 9.5717e-20 1.34114e-05)
(-0.107486 0.0837966 2.06111e-18 0.107475 6.15389e-18 1.06795e-05)
(-0.0647338 0.0782907 -5.96933e-18 0.064711 -2.7112e-19 2.28081e-05)
(-0.0324066 0.0611444 1.297e-18 0.032376 3.36136e-18 3.05784e-05)
(-0.00938954 0.0446995 -3.01879e-18 0.00935425 -3.30499e-18 3.52873e-05)
(0.00823137 0.0308764 5.19477e-18 -0.00826294 -1.13206e-18 3.15722e-05)
(0.019373 0.022971 2.19839e-18 -0.0193896 4.50798e-18 1.66075e-05)
(-0.129877 0.0555118 3.67245e-19 0.129865 -7.82235e-19 1.22158e-05)
(-0.0954209 0.0566915 2.61991e-18 0.0953947 2.31597e-18 2.62129e-05)
(-0.0613571 0.0467112 1.71509e-18 0.0613219 3.76905e-18 3.52571e-05)
(-0.0345127 0.0360416 -2.08434e-18 0.0344721 3.6769e-18 4.05958e-05)
(-0.0132047 0.0268223 -5.88371e-19 0.0131684 2.19893e-18 3.63241e-05)
(-0.000305509 0.0216476 -1.37979e-18 0.00028651 -1.96451e-18 1.89994e-05)
(-0.142596 0.0194376 -6.10522e-19 0.142583 -3.72981e-19 1.29784e-05)
(-0.114021 0.0206699 -5.75552e-19 0.113993 -2.52423e-18 2.80793e-05)
(-0.0793016 0.0173589 8.70224e-19 0.0792637 -1.41286e-18 3.78636e-05)
(-0.0503206 0.0135804 -9.66834e-19 0.0502769 -2.01666e-18 4.36838e-05)
(-0.0268877 0.0102402 1.68055e-18 0.0268486 7.16426e-19 3.90668e-05)
(-0.0129701 0.00826941 -4.07961e-20 0.0129496 -5.20106e-19 2.04283e-05)
)
;

boundaryField
{
    out
    {
        type            mySigma;
    }
    in
    {
        type            mySigma;
    }
    frontAndBack
    {
        type            empty;
    }
}


// ************************************************************************* //
