/*--------------------------------*- C++ -*----------------------------------*\
| =========                 |                                                 |
| \\      /  F ield         | foam-extend: Open Source CFD                    |
|  \\    /   O peration     | Version:  3.0                                   |
|   \\  /    A nd           | Web:         http://www.extend-project.de       |
|    \\/     M anipulation  |                                                 |
\*---------------------------------------------------------------------------*/
FoamFile
{
    version     2.0;
    format      ascii;
    class       volSymmTensorField;
    location    "4.3";
    object      sigma;
}
// * * * * * * * * * * * * * * * * * * * * * * * * * * * * * * * * * * * * * //

dimensions      [0 0 0 0 0 0 0];

internalField   nonuniform List<symmTensor> 
400
(
(0.103417 -0.0260817 7.4739e-317 -0.139205 9.98734e-317 0.0357879)
(0.200736 -0.0548664 8.13859e-317 -0.135657 1.16053e-316 -0.0650791)
(0.246265 -0.0872693 8.07573e-317 -0.130369 1.1333e-316 -0.115897)
(0.253141 -0.111162 7.83834e-317 -0.118063 1.04609e-316 -0.135078)
(0.240125 -0.133787 7.33146e-317 -0.104178 9.21962e-317 -0.135946)
(0.212996 -0.153223 6.83074e-317 -0.0882163 8.17295e-317 -0.12478)
(0.176511 -0.169074 6.27027e-317 -0.0708585 7.00796e-317 -0.105653)
(0.133592 -0.182579 5.75132e-317 -0.0525396 6.18636e-317 -0.0810527)
(0.0860502 -0.191714 5.2512e-317 -0.0334439 5.26387e-317 -0.0526064)
(0.0350488 -0.197476 4.79747e-317 -0.0134186 4.68656e-317 -0.0216301)
(-0.017933 -0.198632 4.38574e-317 0.00721201 3.98357e-317 0.010721)
(-0.0714723 -0.195552 4.01696e-317 0.0283405 3.59943e-317 0.0431318)
(-0.124435 -0.188443 3.69663e-317 0.0501491 3.0646e-317 0.0742855)
(-0.173042 -0.176932 3.40274e-317 0.0709307 2.81969e-317 0.102111)
(-0.216643 -0.162566 3.16963e-317 0.0919954 2.4147e-317 0.124647)
(-0.24776 -0.144352 2.9148e-317 0.109487 2.26301e-317 0.138273)
(-0.263954 -0.122664 2.7543e-317 0.125072 1.9769e-317 0.138882)
(-0.255102 -0.0991805 2.46877e-317 0.135548 1.87761e-317 0.119554)
(-0.20616 -0.0661177 2.29289e-317 0.138297 1.70131e-317 0.0678631)
(-0.104101 -0.0356034 1.74947e-317 0.137759 1.54169e-317 -0.0336582)
(0.0760958 -0.00733267 1.88077e-317 -0.181775 5.01249e-317 0.10568)
(0.165453 -0.016833 2.9867e-317 -0.195819 8.04939e-317 0.0303657)
(0.202674 -0.0312367 3.69938e-317 -0.189136 8.8068e-317 -0.0135378)
(0.212645 -0.0429157 4.13464e-317 -0.176241 8.58742e-317 -0.0364044)
(0.200979 -0.0555546 4.32825e-317 -0.154999 7.81609e-317 -0.0459796)
(0.177811 -0.067114 4.3828e-317 -0.131019 7.0328e-317 -0.0467915)
(0.14666 -0.0769487 4.32085e-317 -0.104654 6.10434e-317 -0.0420053)
(0.11032 -0.0848838 4.19672e-317 -0.0768474 5.3903e-317 -0.0334727)
(0.07107 -0.0898337 4.02672e-317 -0.0485346 4.606e-317 -0.0225354)
(0.0290807 -0.0915268 3.83646e-317 -0.0189418 4.07009e-317 -0.010139)
(-0.0139503 -0.0903278 3.63878e-317 0.0110292 3.46196e-317 0.00292102)
(-0.0579039 -0.0853902 3.44462e-317 0.0420782 3.09165e-317 0.0158256)
(-0.101388 -0.0789481 3.26681e-317 0.0736966 2.63444e-317 0.0276911)
(-0.14226 -0.069743 3.10331e-317 0.104892 2.39747e-317 0.0373678)
(-0.17926 -0.0611112 2.98045e-317 0.135929 2.0663e-317 0.0433315)
(-0.205844 -0.052187 2.86753e-317 0.162355 1.93563e-317 0.0434894)
(-0.220606 -0.0443403 2.83444e-317 0.185945 1.73302e-317 0.034661)
(-0.209009 -0.0395478 2.78347e-317 0.196614 1.71863e-317 0.0123954)
(-0.169486 -0.031162 2.85074e-317 0.199958 1.76393e-317 -0.0304714)
(-0.075792 -0.0289875 2.78113e-317 0.179222 2.13494e-317 -0.10343)
(0.0704622 -0.00224966 -5.82711e-318 -0.206504 2.23145e-317 0.136042)
(0.152583 0.00726761 4.78292e-318 -0.222276 5.31347e-317 0.0696933)
(0.183671 0.0118369 1.40995e-317 -0.212553 6.45047e-317 0.0288819)
(0.192261 0.0101499 2.1237e-317 -0.197323 6.62253e-317 0.00506227)
(0.179926 0.00684358 2.60411e-317 -0.172018 6.25452e-317 -0.00790872)
(0.158979 -7.37683e-05 2.91792e-317 -0.145253 5.74237e-317 -0.0137262)
(0.131652 -0.0050904 3.08315e-317 -0.116616 5.09833e-317 -0.0150359)
(0.100198 -0.0101665 3.15439e-317 -0.0867748 4.53609e-317 -0.0134235)
(0.0674229 -0.011797 3.15272e-317 -0.057398 3.94156e-317 -0.0100249)
(0.0315419 -0.0108776 3.10767e-317 -0.0259062 3.47682e-317 -0.00563572)
(-0.0047109 -0.0071777 3.0359e-317 0.0055913 2.99307e-317 -0.000880403)
(-0.0433848 -0.000109437 2.95145e-317 0.0397676 2.63808e-317 0.00361728)
(-0.0823976 0.00685596 2.86717e-317 0.0752136 2.25536e-317 0.00718402)
(-0.120802 0.015883 2.78283e-317 0.111823 1.98674e-317 0.00897881)
(-0.157901 0.0201359 2.7143e-317 0.150131 1.6797e-317 0.00776972)
(-0.185364 0.0230821 2.6334e-317 0.183394 1.46563e-317 0.00196936)
(-0.205135 0.0171009 2.57159e-317 0.216159 1.2218e-317 -0.0110236)
(-0.195594 0.00566848 2.45154e-317 0.230201 1.06568e-317 -0.0346071)
(-0.163018 -0.0131415 2.32334e-317 0.237264 1.0152e-317 -0.0742463)
(-0.0716763 -0.038498 2.13238e-317 0.208834 1.31688e-317 -0.137158)
(0.0625459 0.0110051 -2.78865e-317 -0.223414 -1.16017e-318 0.160868)
(0.131921 0.0330938 -1.74276e-317 -0.22493 2.91277e-317 0.0930096)
(0.155031 0.0494378 -6.25687e-318 -0.205476 4.26243e-317 0.050445)
(0.157952 0.0505605 3.01838e-318 -0.18256 4.74244e-317 0.0246077)
(0.145337 0.0509119 1.03955e-317 -0.154739 4.69627e-317 0.00940157)
(0.126227 0.043703 1.57804e-317 -0.127247 4.45079e-317 0.00102007)
(0.10496 0.0394183 1.95477e-317 -0.101857 4.04629e-317 -0.00310214)
(0.0807158 0.0346257 2.20111e-317 -0.0761062 3.65677e-317 -0.00460966)
(0.0578421 0.034036 2.34853e-317 -0.053309 3.22011e-317 -0.00453311)
(0.0317506 0.0371033 2.42343e-317 -0.028046 2.86021e-317 -0.00370466)
(0.00659587 0.0431992 2.44669e-317 -0.00397285 2.48219e-317 -0.00262303)
(-0.0227973 0.054297 2.43378e-317 0.0247316 2.19439e-317 -0.00193425)
(-0.0525713 0.0643727 2.39628e-317 0.0547469 1.89397e-317 -0.00217558)
(-0.0857008 0.0779443 2.33854e-317 0.0899144 1.68572e-317 -0.00421364)
(-0.11894 0.0830689 2.26464e-317 0.128109 1.47129e-317 -0.00916995)
(-0.148188 0.0872056 2.16486e-317 0.166893 1.35542e-317 -0.018705)
(-0.172021 0.073426 2.03591e-317 0.207419 1.25942e-317 -0.0353981)
(-0.171007 0.0522888 1.85478e-317 0.23382 1.28066e-317 -0.0628132)
(-0.148274 0.00950339 1.61218e-317 0.254688 1.35512e-317 -0.106413)
(-0.0661103 -0.0443043 1.32441e-317 0.239221 1.4378e-317 -0.173111)
(0.0670156 0.0401829 -2.28947e-317 -0.26329 -6.58623e-318 0.196274)
(0.127049 0.0648851 -1.64225e-317 -0.242304 1.51592e-317 0.115255)
(0.143946 0.0846815 -8.12209e-318 -0.209915 2.68808e-317 0.0659693)
(0.139301 0.0828943 -5.27726e-319 -0.175676 3.24059e-317 0.0363749)
(0.126678 0.0821644 5.80875e-318 -0.145428 3.38314e-317 0.0187499)
(0.10784 0.0716185 1.07832e-317 -0.116348 3.3187e-317 0.00850825)
(0.0920701 0.0658598 1.44598e-317 -0.0947973 3.11087e-317 0.00272719)
(0.0730289 0.0593378 1.71018e-317 -0.0726041 2.86398e-317 -0.000424822)
(0.0584264 0.0587279 1.88999e-317 -0.0563756 2.57385e-317 -0.00205079)
(0.0394162 0.0622835 2.00779e-317 -0.0363991 2.30503e-317 -0.00301708)
(0.0227734 0.0704686 2.0808e-317 -0.0189235 2.02746e-317 -0.00384996)
(-0.000598222 0.0846002 2.12382e-317 0.00578926 1.79117e-317 -0.00519103)
(-0.0245131 0.098737 2.1498e-317 0.0321623 1.55825e-317 -0.00764918)
(-0.056107 0.117707 2.16527e-317 0.0682312 1.37511e-317 -0.0121241)
(-0.0896768 0.127029 2.18153e-317 0.10965 1.20636e-317 -0.019973)
(-0.12527 0.13687 2.19151e-317 0.158386 1.10037e-317 -0.0331154)
(-0.158055 0.122103 2.21012e-317 0.21293 1.03697e-317 -0.0548749)
(-0.170673 0.101004 2.20945e-317 0.260588 1.07114e-317 -0.0899146)
(-0.159313 0.0439334 2.20936e-317 0.305469 1.2241e-317 -0.146156)
(-0.079675 -0.023556 2.16489e-317 0.314689 1.62055e-317 -0.235014)
(0.0658868 0.0941747 -2.39858e-317 -0.295357 -1.07518e-317 0.22947)
(0.110327 0.10749 -1.90609e-317 -0.243943 6.00993e-318 0.133617)
(0.12025 0.118387 -1.19156e-317 -0.197001 1.58634e-317 0.0767505)
(0.106771 0.105575 -5.02654e-318 -0.150062 2.13765e-317 0.0432908)
(0.0950399 0.0968977 1.141e-318 -0.118699 2.37148e-317 0.0236596)
(0.0772533 0.0793686 6.12916e-318 -0.0894498 2.42369e-317 0.0121966)
(0.0682254 0.0685893 1.00328e-317 -0.0738053 2.34179e-317 0.00557987)
(0.0561513 0.0590709 1.29366e-317 -0.0578032 2.20339e-317 0.00165187)
(0.0515967 0.0568174 1.50268e-317 -0.0508929 2.01433e-317 -0.000703841)
(0.0422574 0.061199 1.64684e-317 -0.0397468 1.82347e-317 -0.00251058)
(0.0370746 0.0715759 1.74181e-317 -0.0328458 1.61716e-317 -0.0042288)
(0.0231287 0.0908698 1.80027e-317 -0.0164714 1.43233e-317 -0.00665728)
(0.00970733 0.111444 1.83238e-317 0.000667889 1.24907e-317 -0.0103752)
(-0.0167499 0.140373 1.84541e-317 0.0333012 1.10244e-317 -0.0165513)
(-0.044658 0.159376 1.8434e-317 0.0713842 9.75852e-318 -0.0267262)
(-0.084897 0.182419 1.82974e-317 0.128374 9.10175e-318 -0.0434768)
(-0.121514 0.175655 1.8005e-317 0.192576 9.01721e-318 -0.0710626)
(-0.151715 0.16434 1.7576e-317 0.267785 1.00044e-317 -0.11607)
(-0.151882 0.103968 1.68438e-317 0.341534 1.20346e-317 -0.189652)
(-0.0865401 0.0306384 1.56902e-317 0.394922 1.48827e-317 -0.308382)
(0.0676363 0.168558 -1.10465e-317 -0.322148 -6.35523e-318 0.254512)
(0.0973064 0.158427 -9.46369e-318 -0.242032 2.42149e-318 0.144725)
(0.103039 0.149619 -5.7088e-318 -0.185 9.12756e-318 0.0819613)
(0.0814455 0.121544 -1.42562e-318 -0.127484 1.36144e-317 0.0460385)
(0.0724872 0.100383 2.64234e-318 -0.0979062 1.6095e-317 0.025419)
(0.0555552 0.0744784 6.22395e-318 -0.0690718 1.71806e-317 0.0135166)
(0.0533816 0.0568466 9.14645e-318 -0.0600347 1.71896e-317 0.00665312)
(0.0470644 0.0428503 1.14645e-317 -0.0495478 1.65759e-317 0.00248336)
(0.0515367 0.0376483 1.32252e-317 -0.0513746 1.54748e-317 -0.000162081)
(0.0502146 0.0403483 1.45405e-317 -0.0478751 1.41822e-317 -0.00233955)
(0.0550038 0.0516277 1.55125e-317 -0.0504544 1.27104e-317 -0.00454944)
(0.048914 0.07282 1.62477e-317 -0.0413066 1.12726e-317 -0.00760739)
(0.0443257 0.0994343 1.68573e-317 -0.0321011 9.83511e-318 -0.0122246)
(0.0216374 0.13596 1.74254e-317 -0.00196307 8.59799e-318 -0.0196744)
(-0.00270805 0.167603 1.80826e-317 0.0346155 7.5589e-318 -0.0319074)
(-0.0494906 0.206235 1.88559e-317 0.10151 6.98962e-318 -0.0520193)
(-0.0932518 0.21785 1.99306e-317 0.178854 7.04093e-318 -0.0856027)
(-0.144641 0.229909 2.11597e-317 0.286043 8.20491e-318 -0.141402)
(-0.159602 0.187497 2.26921e-317 0.394911 1.10869e-317 -0.235309)
(-0.106476 0.138958 2.38332e-317 0.499546 1.7201e-317 -0.39307)
(0.0587361 0.253297 -8.90464e-318 -0.313548 -4.88993e-318 0.254812)
(0.0718274 0.211213 -7.74371e-318 -0.214027 6.97053e-319 0.142199)
(0.0738048 0.174692 -4.74638e-318 -0.153054 5.29456e-318 0.0792489)
(0.0467634 0.128694 -1.25079e-318 -0.0907537 8.78396e-318 0.0439903)
(0.0406315 0.0915461 2.27921e-318 -0.06485 1.10146e-317 0.0242186)
(0.0258686 0.0568969 5.38429e-318 -0.0388405 1.22489e-317 0.0129719)
(0.0295465 0.0307713 7.99696e-318 -0.0361612 1.26367e-317 0.00661465)
(0.0295569 0.0125333 1.00675e-317 -0.032279 1.24574e-317 0.00272204)
(0.0420468 0.00345605 1.16572e-317 -0.0423113 1.18199e-317 0.000264471)
(0.0495417 0.00513974 1.28362e-317 -0.0476451 1.09281e-317 -0.00189665)
(0.0643654 0.017062 1.36893e-317 -0.0602291 9.81915e-318 -0.00413633)
(0.0680838 0.0417032 1.42991e-317 -0.0606689 8.64534e-318 -0.00741496)
(0.0748193 0.0754246 1.47407e-317 -0.0624495 7.41314e-318 -0.0123698)
(0.0596892 0.122794 1.5086e-317 -0.039137 6.27345e-318 -0.0205522)
(0.045286 0.170855 1.53955e-317 -0.0112485 5.27367e-318 -0.0340375)
(-0.00295854 0.230852 1.57542e-317 0.0595766 4.66308e-318 -0.056618)
(-0.0436391 0.269134 1.61895e-317 0.138455 4.67033e-318 -0.0948157)
(-0.113703 0.312581 1.68074e-317 0.273283 5.86188e-318 -0.159579)
(-0.136168 0.300679 1.75294e-317 0.406738 8.85381e-318 -0.270569)
(-0.107604 0.282503 1.80567e-317 0.567548 1.45241e-317 -0.459944)
(0.0475434 0.331687 1.33101e-318 -0.275394 -1.51283e-320 0.22785)
(0.0460372 0.258272 6.33649e-319 -0.170149 8.08366e-319 0.124112)
(0.0463894 0.191783 1.4053e-318 -0.114259 3.10744e-318 0.0678698)
(0.0170927 0.129845 3.04506e-318 -0.0541855 5.42915e-318 0.0370928)
(0.0151048 0.0760355 4.92527e-318 -0.0353441 7.24434e-318 0.0202393)
(0.00305984 0.0332841 6.83032e-318 -0.0138553 8.45559e-318 0.0107955)
(0.0122557 -0.00183989 8.51178e-318 -0.0178276 9.06581e-318 0.0055719)
(0.0176296 -0.0253779 9.93593e-318 -0.0199929 9.19217e-318 0.00236331)
(0.0370549 -0.0394388 1.10686e-317 -0.0373881 8.90485e-318 0.000333226)
(0.0519627 -0.0417021 1.19464e-317 -0.0503957 8.33012e-318 -0.00156697)
(0.0756033 -0.0311373 1.26137e-317 -0.0719399 7.51812e-318 -0.00366341)
(0.0880443 -0.00805377 1.31316e-317 -0.0811706 6.57082e-318 -0.00687369)
(0.104944 0.0305179 1.35765e-317 -0.093054 5.52027e-318 -0.0118896)
(0.0971282 0.0823712 1.4018e-317 -0.0768661 4.46891e-318 -0.0202621)
(0.091008 0.146928 1.45836e-317 -0.0567108 3.48328e-318 -0.0342972)
(0.0417593 0.22413 1.53311e-317 0.0162541 2.75879e-318 -0.0580134)
(0.000175296 0.297026 1.65045e-317 0.0986159 2.56124e-318 -0.0987912)
(-0.0886766 0.379095 1.80443e-317 0.257696 3.47781e-318 -0.169019)
(-0.12643 0.420249 2.02824e-317 0.418563 6.59083e-318 -0.292134)
(-0.120308 0.465997 2.25998e-317 0.629217 1.42848e-317 -0.508908)
(0.0264149 0.393524 1.22641e-318 -0.195699 1.14345e-318 0.169284)
(0.0129639 0.291027 1.1545e-318 -0.10328 1.02233e-318 0.0903157)
(0.00998035 0.196915 2.16165e-318 -0.0584806 2.0657e-318 0.0485003)
(-0.0171516 0.122051 3.69201e-318 -0.00893809 3.53313e-318 0.0260897)
(-0.0170748 0.0528386 5.4418e-318 0.00292824 4.9023e-318 0.0141466)
(-0.0249306 0.00373462 7.05599e-318 0.0173955 5.95314e-318 0.0075351)
(-0.0127788 -0.0401928 8.46392e-318 0.00875348 6.59478e-318 0.00402529)
(-0.00219215 -0.0680886 9.59487e-318 0.000359724 6.84715e-318 0.00183243)
(0.0213141 -0.0873892 1.04651e-317 -0.0218243 6.7399e-318 0.000510211)
(0.0429947 -0.0927849 1.10987e-317 -0.0420745 6.34567e-318 -0.000920284)
(0.0727842 -0.0839712 1.15339e-317 -0.0702131 5.70423e-318 -0.00257105)
(0.0941996 -0.0611354 1.18099e-317 -0.0887757 4.88212e-318 -0.00542391)
(0.120357 -0.0177913 1.19649e-317 -0.110374 3.90801e-318 -0.00998265)
(0.123014 0.0412505 1.20399e-317 -0.105088 2.85068e-318 -0.0179258)
(0.129197 0.123639 1.20763e-317 -0.0978452 1.77036e-318 -0.0313519)
(0.0869474 0.222944 1.21449e-317 -0.0324467 8.28133e-319 -0.0545007)
(0.0571819 0.334507 1.23024e-317 0.037498 2.85822e-319 -0.0946799)
(-0.0394039 0.460126 1.2713e-317 0.204385 7.33831e-319 -0.164981)
(-0.0756125 0.558898 1.3491e-317 0.365269 3.21677e-318 -0.289657)
(-0.0997329 0.660327 1.4713e-317 0.610094 9.5868e-318 -0.510361)
(0.00325689 0.423137 7.03992e-318 -0.0910726 3.87167e-318 0.0878157)
(-0.0202489 0.305743 6.20223e-318 -0.0245198 1.35243e-318 0.0447687)
(-0.0248784 0.191852 6.14567e-318 0.00155128 1.16231e-318 0.0233272)
(-0.046978 0.109426 6.74588e-318 0.0347328 1.90284e-318 0.0122452)
(-0.0441915 0.028105 7.53242e-318 0.0375521 2.9623e-318 0.00663942)
(-0.047261 -0.0261311 8.3913e-318 0.0437203 3.93545e-318 0.00354068)
(-0.0325004 -0.0776199 9.14717e-318 0.0304475 4.6402e-318 0.00205289)
(-0.0173867 -0.110264 9.7806e-318 0.0163378 5.01933e-318 0.00104887)
(0.00943763 -0.134882 1.02577e-317 -0.0099449 5.07037e-318 0.000507274)
(0.0366255 -0.145449 1.05899e-317 -0.0362797 4.83596e-318 -0.00034579)
(0.0718005 -0.140183 1.07894e-317 -0.0703147 4.35066e-318 -0.00148578)
(0.101101 -0.122528 1.08765e-317 -0.0973166 3.66289e-318 -0.00378426)
(0.136048 -0.0782178 1.08828e-317 -0.128371 2.79975e-318 -0.00767642)
(0.149221 -0.0211401 1.08317e-317 -0.13456 1.8069e-318 -0.0146612)
(0.166827 0.0745822 1.08006e-317 -0.140136 7.28964e-319 -0.0266914)
(0.133161 0.183274 1.08064e-317 -0.0855787 -3.24399e-319 -0.047582)
(0.110042 0.333487 1.10601e-317 -0.0257945 -1.13855e-318 -0.0842474)
(0.00650547 0.494985 1.15455e-317 0.142545 -1.24034e-318 -0.149051)
(-0.0447553 0.665841 1.27338e-317 0.311096 5.43507e-319 -0.26634)
(-0.10059 0.848476 1.46662e-317 0.582228 6.75019e-318 -0.481638)
(-0.023252 0.422508 4.36388e-318 0.0320942 3.60662e-318 -0.00884222)
(-0.0536726 0.296282 4.91445e-318 0.0607527 1.27184e-318 -0.00708011)
(-0.0651221 0.171742 5.96814e-318 0.0694619 5.68783e-319 -0.00433983)
(-0.0786399 0.0872113 7.02282e-318 0.0811158 9.17648e-319 -0.00247595)
(-0.075945 -0.00183538 8.02485e-318 0.0770654 1.76651e-318 -0.00112035)
(-0.0727109 -0.0585559 8.77463e-318 0.0731892 2.65536e-318 -0.00047829)
(-0.0574966 -0.115922 9.34355e-318 0.0573602 3.35622e-318 0.000136358)
(-0.0382042 -0.151856 9.72596e-318 0.0378568 3.7767e-318 0.000347348)
(-0.0111851 -0.181087 9.95868e-318 0.0105404 3.8992e-318 0.000644674)
(0.0198446 -0.195703 1.00556e-317 -0.0202617 3.74997e-318 0.000417159)
(0.0559216 -0.193988 1.00268e-317 -0.0558578 3.35675e-318 -6.38036e-05)
(0.0914527 -0.180197 9.87362e-318 -0.0897922 2.75421e-318 -0.0016605)
(0.130399 -0.135681 9.59258e-318 -0.125867 1.96206e-318 -0.00453246)
(0.155235 -0.0779395 9.17033e-318 -0.145114 1.00696e-318 -0.0101204)
(0.182842 0.0299805 8.59125e-318 -0.163046 -8.09724e-320 -0.0197958)
(0.166427 0.153799 7.85197e-318 -0.129509 -1.23034e-318 -0.0369185)
(0.160178 0.341548 6.92727e-318 -0.0932848 -2.27257e-318 -0.0668936)
(0.0695239 0.545756 5.96192e-318 0.0507687 -2.85036e-318 -0.120293)
(0.0315991 0.783301 5.04229e-318 0.185582 -2.07938e-318 -0.217181)
(-0.0491286 1.02818 5.0543e-318 0.442586 1.50102e-318 -0.393457)
(-0.0517378 0.387461 7.05734e-318 0.160262 4.02278e-318 -0.108525)
(-0.0860316 0.269019 7.59908e-318 0.144835 2.70121e-319 -0.0588032)
(-0.100037 0.144577 8.43394e-318 0.131107 -7.79423e-319 -0.0310702)
(-0.104425 0.0604572 9.09002e-318 0.120739 -4.67539e-319 -0.0163143)
(-0.100978 -0.0313125 9.49539e-318 0.109241 4.81615e-319 -0.0082633)
(-0.0914947 -0.0898138 9.72411e-318 0.0956417 1.4875e-318 -0.00414694)
(-0.075847 -0.150038 9.81241e-318 0.0774867 2.29083e-318 -0.00163973)
(-0.0529514 -0.188343 9.81802e-318 0.0532965 2.80215e-318 -0.000345082)
(-0.0260615 -0.220617 9.74726e-318 0.0253788 3.01258e-318 0.000682693)
(0.00757427 -0.239193 9.60552e-318 -0.00862023 2.955e-318 0.00104595)
(0.0443639 -0.241712 9.38115e-318 -0.0455344 2.66372e-318 0.0011705)
(0.0847195 -0.234584 9.05944e-318 -0.0850428 2.17278e-318 0.000323233)
(0.12832 -0.194199 8.62706e-318 -0.126812 1.5036e-318 -0.00150798)
(0.16428 -0.144837 8.0542e-318 -0.158813 6.78041e-319 -0.00546638)
(0.203333 -0.0338614 7.34452e-318 -0.190874 -2.82759e-319 -0.0124584)
(0.204956 0.0853149 6.44474e-318 -0.18013 -1.33996e-318 -0.0248262)
(0.212511 0.299073 5.43292e-318 -0.16627 -2.38291e-318 -0.0462411)
(0.131206 0.516871 4.27064e-318 -0.0472154 -3.23638e-318 -0.0839905)
(0.0808541 0.82024 3.24371e-318 0.0726602 -3.21727e-318 -0.153514)
(-0.044211 1.13105 3.1356e-318 0.333455 -1.11859e-318 -0.289244)
(-0.0727325 0.319768 4.46645e-318 0.270057 3.2198e-318 -0.197324)
(-0.11415 0.215235 6.51408e-318 0.217658 -4.2381e-319 -0.103508)
(-0.137218 0.101374 8.62376e-318 0.190506 -1.47869e-318 -0.0532871)
(-0.130497 0.0246479 9.59278e-318 0.157881 -1.01877e-318 -0.0273834)
(-0.12667 -0.064675 1.00482e-317 0.140483 7.4011e-321 -0.0138125)
(-0.109502 -0.121623 1.00607e-317 0.116433 1.03266e-318 -0.00693152)
(-0.0937882 -0.182068 9.91459e-318 0.0967454 1.81637e-318 -0.00295714)
(-0.0679259 -0.220764 9.67945e-318 0.0687546 2.30345e-318 -0.000828758)
(-0.0436102 -0.254405 9.40251e-318 0.0428112 2.50514e-318 0.000799017)
(-0.0098135 -0.275517 9.08211e-318 0.00815084 2.46141e-318 0.00166266)
(0.0226062 -0.281548 8.69886e-318 -0.0249883 2.20912e-318 0.00238211)
(0.0642906 -0.279837 8.22041e-318 -0.0665481 1.78001e-318 0.00225748)
(0.104605 -0.244346 7.60623e-318 -0.106153 1.19443e-318 0.00154776)
(0.149382 -0.201136 6.80135e-318 -0.148645 4.66759e-319 -0.000737428)
(0.190818 -0.0898646 5.73641e-318 -0.18605 -3.8087e-319 -0.00476801)
(0.216125 0.0315928 4.3474e-318 -0.204131 -1.32621e-318 -0.0119946)
(0.237326 0.266743 2.49406e-318 -0.213808 -2.28178e-318 -0.0235178)
(0.193721 0.514301 2.75733e-319 -0.15124 -3.17377e-318 -0.0424812)
(0.166959 0.874537 -2.50645e-318 -0.0925796 -3.7169e-318 -0.0743797)
(0.0439031 1.24389 -4.5228e-318 0.0859663 -3.99563e-318 -0.129869)
(-0.10187 0.244016 8.48643e-318 0.372369 1.53206e-318 -0.2705)
(-0.13451 0.153814 9.85854e-318 0.270859 -3.46496e-318 -0.136349)
(-0.160008 0.0546869 1.11699e-317 0.228398 -3.89326e-318 -0.0683901)
(-0.143564 -0.0192571 1.13299e-317 0.17808 -2.6075e-318 -0.0345153)
(-0.139548 -0.101793 1.09845e-317 0.156818 -1.06572e-318 -0.0172702)
(-0.116204 -0.156456 1.04413e-317 0.124871 2.48303e-319 -0.00866685)
(-0.100929 -0.21293 9.87523e-318 0.104737 1.16835e-318 -0.00380884)
(-0.073094 -0.249508 9.36093e-318 0.0742723 1.73122e-318 -0.00117825)
(-0.0515717 -0.281668 8.88814e-318 0.0507456 1.99362e-318 0.000826105)
(-0.0188698 -0.303121 8.43111e-318 0.0168199 2.0213e-318 0.00204992)
(0.00955527 -0.311954 7.94884e-318 -0.0127662 1.86357e-318 0.00321092)
(0.0508835 -0.315396 7.39625e-318 -0.0545838 1.55691e-318 0.00370029)
(0.0897783 -0.28815 6.72707e-318 -0.0936936 1.12592e-318 0.00391532)
(0.141515 -0.256682 5.88594e-318 -0.144648 5.89371e-319 0.00313254)
(0.190156 -0.156627 4.83095e-318 -0.19184 -3.29542e-320 0.00168332)
(0.236744 -0.0540807 3.48897e-318 -0.235971 -7.24883e-319 -0.000773074)
(0.276595 0.178846 1.84143e-318 -0.273558 -1.43447e-318 -0.00303687)
(0.256625 0.403252 -1.41787e-319 -0.253275 -2.1916e-318 -0.00335004)
(0.228085 0.793888 -2.44677e-318 -0.229778 -2.95932e-318 0.00169291)
(0.0402743 1.17042 -4.25429e-318 -0.0479632 -4.13938e-318 0.00768893)
(-0.108229 0.124292 1.13234e-317 0.415454 3.88265e-318 -0.307225)
(-0.155078 0.0680995 1.23257e-317 0.306493 -1.87365e-318 -0.151414)
(-0.181977 -0.00219235 1.30732e-317 0.256224 -2.56855e-318 -0.0742474)
(-0.155365 -0.0630877 1.23853e-317 0.19222 -1.33317e-318 -0.0368546)
(-0.146322 -0.132953 1.14224e-317 0.164618 -3.34482e-320 -0.0182959)
(-0.115876 -0.181779 1.04105e-317 0.125061 9.84979e-319 -0.00918478)
(-0.10004 -0.231158 9.54445e-318 0.104133 1.61944e-318 -0.00409289)
(-0.0715078 -0.263807 8.83078e-318 0.0728286 1.94761e-318 -0.00132074)
(-0.0545275 -0.292384 8.23116e-318 0.0536875 2.03741e-318 0.000839998)
(-0.0256036 -0.312683 7.69147e-318 0.0233503 1.95073e-318 0.00225333)
(-0.00553683 -0.322842 7.15457e-318 0.00181354 1.73032e-318 0.00372329)
(0.0311148 -0.32975 6.56275e-318 -0.0357712 1.40525e-318 0.00465644)
(0.0597395 -0.310454 5.85584e-318 -0.0653642 9.97197e-319 0.00562475)
(0.112646 -0.288235 4.96735e-318 -0.118661 5.22005e-319 0.00601491)
(0.1525 -0.201996 3.81656e-318 -0.159185 4.82208e-321 0.00668483)
(0.219722 -0.110802 2.34583e-318 -0.227722 -5.33087e-319 0.00800011)
(0.258754 0.113453 3.95697e-319 -0.272232 -1.0311e-318 0.013478)
(0.298418 0.344987 -1.91255e-318 -0.327958 -1.51038e-318 0.02954)
(0.290182 0.76119 -4.90827e-318 -0.3636 -2.16621e-318 0.073418)
(0.172633 1.19944 -7.62891e-318 -0.355606 -4.0833e-318 0.182972)
(-0.131709 0.0498873 1.85104e-317 0.447523 -1.72822e-318 -0.315814)
(-0.141855 -0.0159468 1.66677e-317 0.289432 -7.38971e-318 -0.147577)
(-0.172032 -0.0725477 1.47177e-317 0.242393 -6.27012e-318 -0.0703613)
(-0.138092 -0.130557 1.26598e-317 0.17251 -3.61623e-318 -0.0344178)
(-0.129955 -0.188299 1.0844e-317 0.146948 -1.63873e-318 -0.016993)
(-0.0972945 -0.228751 9.4699e-318 0.10588 -2.61548e-319 -0.00858524)
(-0.0831618 -0.268167 8.42458e-318 0.0870438 5.732e-319 -0.00388201)
(-0.0561654 -0.29361 7.65135e-318 0.0574815 1.05875e-318 -0.00131618)
(-0.0435856 -0.316305 7.03902e-318 0.0428277 1.30194e-318 0.000757888)
(-0.0193838 -0.333116 6.51523e-318 0.0172099 1.38441e-318 0.00217388)
(-0.00585051 -0.343288 6.01031e-318 0.00210907 1.35441e-318 0.00374144)
(0.024942 -0.352408 5.46757e-318 -0.0298452 1.24514e-318 0.00490325)
(0.0470415 -0.342171 4.83485e-318 -0.0533323 1.07829e-318 0.00629081)
(0.0976154 -0.331536 4.06003e-318 -0.105028 8.68834e-319 0.00741275)
(0.136792 -0.2681 3.10524e-318 -0.146129 6.33891e-319 0.00933699)
(0.214415 -0.204944 1.93622e-318 -0.227338 3.84264e-319 0.0129225)
(0.270427 -0.0178524 5.54124e-319 -0.293343 1.34687e-319 0.0229165)
(0.331661 0.151521 -9.97519e-319 -0.380795 -1.72483e-319 0.0491339)
(0.348267 0.533801 -2.69086e-318 -0.465603 -8.12526e-319 0.117336)
(0.131997 0.85892 -4.34183e-318 -0.404186 -2.62578e-318 0.272188)
(-0.11325 -0.102344 2.57566e-317 0.380409 1.15819e-317 -0.26716)
(-0.152445 -0.112113 2.13202e-317 0.274651 3.25159e-318 -0.122206)
(-0.159048 -0.118399 1.65186e-317 0.216218 1.69557e-318 -0.0571695)
(-0.120073 -0.160279 1.2915e-317 0.147792 2.10152e-318 -0.0277193)
(-0.102655 -0.192365 1.02794e-317 0.116332 2.48438e-318 -0.0136771)
(-0.066539 -0.223753 8.54515e-318 0.0735406 2.6611e-318 -0.00700153)
(-0.0537341 -0.248436 7.35198e-318 0.0569509 2.63487e-318 -0.00321685)
(-0.0293964 -0.266914 6.53365e-318 0.0305509 2.47385e-318 -0.00115453)
(-0.023121 -0.28146 5.9244e-318 0.0225096 2.22691e-318 0.000611479)
(-0.00538037 -0.292791 5.43151e-318 0.00354235 1.9252e-318 0.00183802)
(-0.00173577 -0.300525 4.97727e-318 -0.00156093 1.58945e-318 0.0032967)
(0.0201069 -0.306249 4.50345e-318 -0.0245478 1.23338e-318 0.00444087)
(0.0279284 -0.302082 3.95559e-318 -0.0338596 8.71077e-319 0.00593126)
(0.0700723 -0.293332 3.28039e-318 -0.0773705 5.14619e-319 0.0072982)
(0.0896362 -0.252444 2.41741e-318 -0.0993051 1.89114e-319 0.00966884)
(0.173519 -0.201803 1.34343e-318 -0.187385 -7.98064e-320 0.0138664)
(0.204358 -0.0626734 -3.5133e-320 -0.22925 -2.49587e-319 0.0248926)
(0.333579 0.0919463 -1.54327e-318 -0.387169 -2.99853e-319 0.0535899)
(0.332155 0.426584 -3.34786e-318 -0.46659 -5.17934e-319 0.134435)
(0.321194 0.848125 -5.13045e-318 -0.689051 -1.7349e-318 0.367857)
(-0.0981884 -0.136137 2.15521e-317 0.284976 -7.78637e-318 -0.186788)
(-0.0567729 -0.205112 1.62697e-317 0.137243 -9.2181e-318 -0.0804705)
(-0.0776585 -0.230454 1.11272e-317 0.114609 -6.71383e-318 -0.0369506)
(-0.0444486 -0.261726 8.21887e-318 0.062339 -4.012e-318 -0.0178904)
(-0.0358483 -0.290153 6.29952e-318 0.0447217 -2.4417e-318 -0.0088734)
(-0.0110408 -0.305692 5.16971e-318 0.0156949 -1.41134e-318 -0.00465412)
(-0.00291453 -0.321863 4.42585e-318 0.00509318 -7.59349e-319 -0.00217866)
(0.0131979 -0.330474 3.9369e-318 -0.0123507 -3.07126e-319 -0.000847242)
(0.016449 -0.339207 3.57545e-318 -0.0168458 2.02023e-320 0.000396844)
(0.0272735 -0.346756 3.28088e-318 -0.0285243 2.70471e-319 0.00125085)
(0.0281357 -0.352874 3.00324e-318 -0.0304931 4.70642e-319 0.00235746)
(0.0413221 -0.361576 2.70802e-318 -0.044553 6.38664e-319 0.0032309)
(0.0451288 -0.363342 2.36696e-318 -0.0495775 7.83405e-319 0.00444874)
(0.0729524 -0.369008 1.95571e-318 -0.0785406 9.10854e-319 0.00558816)
(0.0876938 -0.350905 1.46424e-318 -0.095251 1.01763e-318 0.00755718)
(0.147358 -0.337086 9.00499e-319 -0.158202 1.09469e-318 0.010844)
(0.184944 -0.252871 3.20999e-319 -0.204177 1.11054e-318 0.0192336)
(0.273821 -0.189448 -2.03718e-319 -0.314851 1.01383e-318 0.04103)
(0.339035 0.043523 -4.629e-319 -0.443604 6.42498e-319 0.104568)
(0.163238 0.155881 -8.24309e-319 -0.44649 -3.58049e-319 0.283252)
(-0.00145259 -0.313109 2.20841e-317 0.0563154 2.76949e-317 -0.0548628)
(-0.047434 -0.276898 1.60675e-317 0.0745715 1.58656e-317 -0.0271374)
(-0.0123343 -0.204194 9.40896e-318 0.0250586 1.10476e-317 -0.0127243)
(0.0154888 -0.219926 6.25167e-318 -0.00922004 8.22449e-318 -0.0062688)
(0.0288116 -0.198412 4.2993e-318 -0.025651 6.73077e-318 -0.00316053)
(0.0523134 -0.210172 3.31601e-318 -0.050575 5.59448e-318 -0.00173845)
(0.053732 -0.203068 2.71176e-318 -0.0528973 4.71106e-318 -0.000834659)
(0.0648205 -0.207858 2.35105e-318 -0.0644485 3.92585e-318 -0.000372076)
(0.0604056 -0.204566 2.10144e-318 -0.0605413 3.21577e-318 0.000135686)
(0.0650691 -0.202715 1.91517e-318 -0.0655276 2.55318e-318 0.000458493)
(0.0570156 -0.200795 1.75428e-318 -0.0579598 1.93459e-318 0.000944243)
(0.0616093 -0.191047 1.59357e-318 -0.0629133 1.35889e-318 0.00130397)
(0.0512311 -0.189462 1.4104e-318 -0.0530941 8.35149e-319 0.00186297)
(0.0656718 -0.167582 1.18014e-318 -0.0680289 3.75401e-319 0.00235714)
(0.0548604 -0.165146 8.71502e-319 -0.0580871 3.27071e-321 0.00322676)
(0.103491 -0.122847 4.74763e-319 -0.108014 -2.55027e-319 0.00452335)
(0.092935 -0.118458 -6.65111e-320 -0.1007 -3.89665e-319 0.00776533)
(0.232277 -0.0434226 -6.03724e-319 -0.248427 -3.71063e-319 0.01615)
(0.194867 -0.0253335 -1.18807e-318 -0.239874 -4.2125e-319 0.0450067)
(0.398748 0.244547 -1.72785e-318 -0.579979 -8.72757e-319 0.181232)
)
;

boundaryField
{
    cavity
    {
        type            mySigma;
    }
    lid
    {
        type            fixedValue;
        value           uniform (0.1 -0.3 0 -0.1 0 0);
    }
    frontAndBack
    {
        type            empty;
    }
}


// ************************************************************************* //
