/*--------------------------------*- C++ -*----------------------------------*\
| =========                 |                                                 |
| \\      /  F ield         | foam-extend: Open Source CFD                    |
|  \\    /   O peration     | Version:  3.0                                   |
|   \\  /    A nd           | Web:         http://www.extend-project.de       |
|    \\/     M anipulation  |                                                 |
\*---------------------------------------------------------------------------*/
FoamFile
{
    version     2.0;
    format      ascii;
    class       volScalarField;
    location    "4";
    object      p;
}
// * * * * * * * * * * * * * * * * * * * * * * * * * * * * * * * * * * * * * //

dimensions      [0 0 0 0 0 0 0];

internalField   nonuniform List<scalar> 
728
(
0.0273509
-0.0273424
0.0619711
-0.0621572
-0.0213763
0.0213998
-0.193079
0.192572
-0.0659195
0.0785054
0.0659919
-0.0787264
-0.0685909
-0.0808253
0.0689295
0.0808261
0.00378079
0.0954721
-0.0953542
-0.00376101
0.0385709
0.11265
-0.113066
-0.0385526
0.0286331
0.169877
-0.168378
-0.0288946
0.00136429
0.10605
-0.105633
-0.00131626
0.0382987
0.122744
-0.123336
-0.0383106
0.0851799
0.0351527
-0.0853515
-0.0353752
-0.0419646
0.0944911
0.0418896
-0.0947532
-0.0400933
-0.0968845
0.0399902
0.0967058
-0.0750048
-0.123744
0.124801
0.0752213
0.227307
0.005591
-0.227511
-0.00551779
-0.0335603
0.0865014
-0.0864835
0.0335519
-0.0280448
-0.0967217
0.0964365
0.0279929
0.0705506
0.0405753
-0.0706717
-0.0402789
0.0208482
-0.0209894
0.137536
-0.136013
0.0749692
0.035076
-0.0352041
-0.0750403
-0.0163711
0.107126
0.016438
-0.107099
0.0911555
-0.0910586
-0.0986963
0.0988551
-0.0107285
0.0698369
0.0108107
-0.0699011
0.0859352
0.244121
-0.0859173
-0.245194
0.0926958
-0.0926152
-0.116084
0.115894
0.072062
0.0840549
-0.0720016
-0.0837995
-0.0300021
0.0301922
0.0740038
-0.0744511
0.043104
-0.0780869
0.077985
-0.0429659
-0.011947
0.0823207
0.0120507
-0.0823333
-0.0103581
0.0899889
0.0102882
-0.0899703
-0.0358113
0.035853
0.068219
-0.0683081
-0.0316167
0.077019
-0.0768871
0.0317064
-0.0664253
-0.0685576
0.066452
0.0687667
-0.0659224
0.066027
-0.0645696
0.0643841
-0.0217746
0.0795063
-0.0797703
0.0218666
-0.0590597
-0.0624759
0.0592239
0.0626084
0.0340884
0.114171
-0.114012
-0.0341489
0.0393664
0.0910299
-0.0393197
-0.0909419
-0.0336118
0.0869828
-0.0871281
0.0333835
0.0580909
-0.0579083
0.0513772
-0.0513716
-0.014429
-0.0984967
0.0144574
0.0984131
-0.187175
-0.0641333
0.189006
0.0642395
-0.0197482
-0.137944
0.139185
0.0199557
0.102718
-0.0287095
-0.102461
0.028718
-0.0681386
0.0682216
-0.0641947
0.0642203
-0.0535151
0.0536112
-0.0418942
0.0417774
0.106593
-0.106203
0.0524855
-0.0520778
-0.0493842
-0.149975
0.150556
0.0495405
0.045268
0.0987921
-0.0449315
-0.0990787
0.0560778
-0.0941843
0.0940044
-0.0561027
0.0152191
-0.0719186
0.0718962
-0.0152048
-0.0292259
-0.0817336
0.0815901
0.0291019
0.0449866
-0.0778021
-0.0448075
0.0777398
-0.0500729
-0.0674504
0.06748
0.0501232
-0.0871504
0.0869574
0.035641
-0.0357489
-0.0240853
-0.162172
0.161502
0.0238965
-0.0275574
-0.0788391
0.0787382
0.0274857
-0.0166502
0.0166297
0.107846
-0.108022
0.0654913
-0.0458973
0.0456836
-0.0652491
-0.0106102
0.0868793
0.0105733
-0.086904
0.102865
0.0456819
-0.0455602
-0.102552
0.0297858
-0.0298366
0.148362
-0.149811
0.0912311
-0.177347
-0.0913965
0.177522
-0.0805717
-0.046266
0.0803809
0.0461912
0.110032
0.15063
-0.110267
-0.15003
-0.0132451
-0.0845909
0.0133099
0.0846235
-0.105378
0.0437922
0.105048
-0.0435506
-0.0871564
-0.0507213
0.050922
0.0869215
-0.0581146
0.0580017
-0.137284
0.137722
0.0856856
-0.00380515
0.00379245
-0.0856331
0.053248
0.0600424
-0.0596469
-0.0531436
0.0310157
0.10633
-0.0307242
-0.10657
0.00126487
0.0984117
-0.0982286
-0.00127154
0.0872532
0.0544248
-0.0541464
-0.0865139
-0.0462491
0.0558696
-0.0558318
0.0461526
-0.075195
0.00269976
0.075212
-0.00269816
-0.0488776
-0.0654887
0.0655469
0.0488155
0.00917762
-0.0091807
0.128668
-0.129012
-0.0252672
0.096464
-0.0965992
0.0252454
-0.0673773
0.0672209
0.15941
-0.159615
-0.054206
0.0543046
-0.0879675
0.0877057
-0.136662
-0.0988861
0.0989431
0.136854
-0.0793582
0.0791693
-0.10905
0.109185
0.0353656
0.0639498
-0.0353954
-0.0639846
0.0352852
-0.035235
0.0910875
-0.0909367
-0.0736112
0.0735609
-0.14112
0.141252
-0.00555505
0.113101
-0.112803
0.0056919
-0.0634412
-0.0944423
0.0636976
0.0944049
0.0823511
0.0807098
-0.0825248
-0.0812764
-0.00377988
0.00381072
0.104112
-0.103927
-0.0553865
-0.07522
0.0553575
0.0752583
0.0334124
0.105827
-0.033282
-0.105712
0.0216109
0.0805321
-0.0803292
-0.0215058
0.097312
0.0917091
-0.097121
-0.0917942
-0.0672162
-0.107961
0.107957
0.0675154
-0.0579042
-0.0763216
0.0578466
0.0763375
0.0925002
-0.0243518
-0.0923881
0.0243473
0.0112157
0.0859451
-0.0859412
-0.0113034
-0.0030657
0.0856614
0.00303401
-0.0856349
-0.0147071
-0.0881772
0.0148093
0.0881936
-0.0733331
0.115962
0.0731393
-0.115936
-0.174479
0.201206
-0.201677
0.174693
0.0652432
0.251705
-0.0652564
-0.251321
-0.0574641
0.0578243
0.0706891
-0.0710527
0.0154594
-0.0154695
0.0973187
-0.0975399
-0.0566219
0.107255
-0.107315
0.0564851
0.0065137
-0.0913014
-0.00650577
0.0914166
-0.00138738
0.0912353
0.00140696
-0.0911621
0.0183035
-0.018411
0.089778
-0.0898561
0.0187257
-0.0661439
0.0660263
-0.0187029
0.0200241
0.0846615
-0.084756
-0.0201521
0.04398
-0.0623269
-0.0439783
0.0624146
-0.0979042
0.0637182
0.0984987
-0.0640529
-0.11521
0.0198828
-0.0197758
0.115073
0.0351933
-0.05841
-0.0352898
0.0584414
0.021524
-0.0214942
-0.11074
0.110824
-0.0932562
-0.0263057
0.0931567
0.0263202
0.0163622
0.129262
-0.016336
-0.129983
-0.103288
0.103199
0.0190382
-0.0190735
0.0821842
0.0699613
-0.0812107
-0.0696432
0.042268
-0.070774
0.0706978
-0.0423435
-0.0804467
-0.0689888
0.0699098
0.0802474
-0.0231562
0.0718879
0.0231251
-0.071973
-0.102712
0.102785
0.00852406
-0.00848307
0.113969
0.0177901
-0.0177478
-0.114804
-0.104953
-0.0498636
0.0501294
0.105199
-0.0291139
-0.0688678
0.0290677
0.0687902
0.11746
-0.12035
-0.118025
0.120628
-0.0917915
0.0844121
0.0920992
-0.0846655
-0.14203
-3.44546e-05
0.142325
0.00022731
-0.0765171
0.0765347
0.00822671
-0.00824286
-0.0828125
-0.0455261
0.082692
0.0453992
0.119508
0.0199833
-0.119083
-0.0199872
0.00404527
0.0743325
-0.00399069
-0.0743896
-0.0530459
-0.0699401
0.0530951
0.0701822
-0.0546574
0.0619705
0.0547935
-0.0618349
0.087529
0.0546375
-0.0876658
-0.0546754
-0.0793698
0.0586164
-0.0586599
0.0794113
-0.0111107
0.0111475
0.137709
-0.136715
-0.000713876
0.117127
0.000806591
-0.11695
0.0740436
-0.0353676
0.035162
-0.0741685
0.0932662
-0.0931852
-0.130911
0.131575
-0.123315
0.12411
-0.099235
0.099385
0.0430246
-0.0700484
0.0700219
-0.0432118
-0.0423997
-0.0807715
0.0806147
0.04225
-0.0178724
-0.122648
0.0181603
0.123108
0.124459
-0.124204
-0.0231836
0.0234757
0.0612242
-0.0612181
0.0419274
-0.0419848
0.00341939
-0.0836892
0.0837925
-0.00340038
-0.10153
-0.179763
0.179665
0.101836
0.000270414
0.124491
-0.000285505
-0.124714
-0.0552209
0.0551439
-0.0693262
0.0693754
-0.0510789
0.0500875
0.0509577
-0.0500771
0.0353371
0.112638
-0.0354273
-0.112482
-0.0859608
-0.00443487
0.0860814
0.00447658
0.128959
-0.0447223
-0.128628
0.0447775
0.114138
0.0364235
-0.0362891
-0.11407
-0.0739761
-0.0493118
0.0491695
0.0739557
-0.0573911
-0.0737451
0.0570193
0.0741119
-0.0589059
0.128813
-0.128658
0.0591893
-0.0618417
0.140716
-0.139923
0.0619832
0.0318038
0.107387
-0.107846
-0.0315523
0.169559
-0.126999
-0.169812
0.127196
0.0632707
0.0573547
-0.063092
-0.0573378
0.0357816
0.147944
-0.146731
-0.0355889
0.0415372
0.115339
-0.114654
-0.0410802
-0.00657029
0.00658061
-0.0934126
0.0935991
0.111545
0.00894807
-0.11152
-0.00885234
-0.0540127
0.0541012
-0.0592854
0.0594255
0.046911
-0.0721943
-0.0469871
0.0721667
0.0563589
0.0606702
-0.0605631
-0.0564704
-0.0148744
0.014937
0.0947453
-0.0948319
0.0926902
-0.0926677
-0.0734154
0.0733285
-0.0953209
0.0707033
0.0952206
-0.0707226
-0.00832419
-0.0993558
0.00815099
0.0995517
-0.096774
0.0968792
0.060301
-0.0602669
0.00822546
0.108448
-0.107992
-0.00815167
-0.114324
-0.0594139
0.114243
0.0593214
-0.0828948
0.0195677
0.0828197
-0.0197581
0.0164352
-0.0985966
0.0985242
-0.0165763
0.0855339
0.0263294
-0.0266038
-0.0856618
0.0949371
-0.0260141
0.0259685
-0.0951577
0.0276529
0.0888679
-0.0278018
-0.0889998
)
;

boundaryField
{
    insideCircle
    {
        type            zeroGradient;
    }
    outsideCircle
    {
        type            zeroGradient;
    }
    topAndBottom
    {
        type            empty;
    }
}


// ************************************************************************* //
