/*--------------------------------*- C++ -*----------------------------------*\
| =========                 |                                                 |
| \\      /  F ield         | foam-extend: Open Source CFD                    |
|  \\    /   O peration     | Version:  3.0                                   |
|   \\  /    A nd           | Web:         http://www.extend-project.de       |
|    \\/     M anipulation  |                                                 |
\*---------------------------------------------------------------------------*/
FoamFile
{
    version     2.0;
    format      ascii;
    class       volVectorField;
    location    "4";
    object      u;
}
// * * * * * * * * * * * * * * * * * * * * * * * * * * * * * * * * * * * * * //

dimensions      [0 0 0 0 0 0 0];

internalField   nonuniform List<vector> 
728
(
(1.02428 -0.00596297 2.0131e-19)
(1.02406 -0.00583452 2.12753e-19)
(1.0114 0.0104817 -1.78693e-18)
(1.01107 0.0110949 -2.33265e-18)
(1.41484 -0.0763779 -1.69553e-18)
(1.41528 -0.0766321 1.93659e-18)
(0.59821 0.0069834 -6.51862e-17)
(0.600889 0.00336312 1.0109e-17)
(1.09809 0.102525 -1.2814e-17)
(1.01375 -0.08969 4.89924e-18)
(1.09999 0.101996 5.0511e-18)
(1.01249 -0.0888256 -3.36381e-18)
(1.0716 0.0965534 -5.14072e-19)
(0.997802 -0.0820867 1.71016e-18)
(1.07372 0.0964805 8.97321e-18)
(0.997139 -0.0800334 -2.82357e-17)
(1.10753 -0.0112665 -6.56648e-18)
(0.975103 0.00387344 -4.60053e-18)
(0.976336 0.00411334 -2.35993e-17)
(1.10687 -0.0112324 3.07843e-18)
(1.17825 0.0707557 7.9081e-18)
(0.950728 -0.0776661 2.74675e-18)
(0.945624 -0.0806211 -2.40404e-18)
(1.17853 0.0706964 4.35119e-19)
(1.78557 0.0788574 -1.01452e-17)
(0.563805 0.214396 4.59206e-17)
(0.563512 0.220438 -7.26489e-17)
(1.78543 0.0783639 -1.20547e-18)
(1.1186 -0.0187512 -5.9939e-18)
(0.956132 0.00130543 4.85389e-18)
(0.958009 0.00162053 2.56893e-17)
(1.11891 -0.0194652 4.11157e-18)
(1.23277 0.0758056 6.7339e-18)
(0.929169 -0.0274194 -2.72405e-18)
(0.92708 -0.0293533 -2.87804e-18)
(1.23356 0.075458 1.4657e-18)
(0.995297 -0.0214098 2.596e-17)
(1.05732 0.0166188 4.6023e-18)
(0.995018 -0.0215397 -2.64776e-17)
(1.05718 0.0164955 1.35344e-17)
(1.12125 0.0423563 3.58339e-18)
(1.02104 -0.078179 -7.94738e-18)
(1.12148 0.0419801 -9.56802e-18)
(1.01995 -0.0782899 3.79816e-17)
(1.09238 0.0369498 -1.30366e-17)
(0.988106 -0.0383447 9.4113e-18)
(1.09277 0.0362764 -9.87371e-19)
(0.989061 -0.0375719 -3.12799e-17)
(1.11379 -0.164628 6.96243e-18)
(0.99176 0.137285 -5.94913e-18)
(0.991693 0.136624 -1.13594e-18)
(1.11318 -0.16343 3.19364e-18)
(0.207916 0.233645 -8.43665e-17)
(1.53005 -0.216523 -1.06663e-18)
(0.212731 0.236638 -7.64904e-17)
(1.5298 -0.216882 1.80513e-18)
(1.05501 -0.0322511 7.21692e-19)
(0.999246 0.0257127 2.1469e-18)
(0.999064 0.0257536 2.26953e-18)
(1.0546 -0.0320339 -1.91571e-19)
(1.11634 0.0298557 -3.57433e-18)
(0.99025 -0.0485401 1.39583e-18)
(0.991676 -0.0499868 -4.19126e-19)
(1.11739 0.030001 -1.08946e-18)
(1.0198 0.0368173 -1.69039e-17)
(1.04579 -0.0213199 -1.70765e-18)
(1.0196 0.0380858 5.75171e-18)
(1.04714 -0.0213401 1.2409e-17)
(1.47963 0.121819 9.22502e-19)
(1.4799 0.122265 -9.46317e-18)
(0.844904 -0.0816193 2.95946e-17)
(0.844756 -0.080238 -1.03165e-16)
(1.01847 -0.00877816 1.06573e-19)
(1.05275 0.0100431 -2.70628e-18)
(1.05204 0.0104533 2.26943e-18)
(1.01837 -0.00883344 -4.54895e-19)
(1.13225 0.00713994 -3.57629e-18)
(0.982795 -0.0242863 -2.01915e-18)
(1.13317 0.0068611 -4.04382e-19)
(0.981843 -0.0233811 1.0303e-18)
(1.02869 -0.313981 -2.66435e-17)
(1.02876 -0.312683 6.55685e-18)
(1.1199 0.222643 -3.31688e-17)
(1.12076 0.223686 -1.38845e-17)
(1.0289 -0.00337514 -1.48019e-18)
(1.01645 0.00479017 2.22933e-17)
(1.02903 -0.00357814 -1.04777e-18)
(1.01643 0.0049206 -1.22942e-18)
(1.05013 -0.45585 -1.46385e-17)
(0.401524 0.42891 -3.98297e-17)
(1.04979 -0.455373 1.13565e-17)
(0.404866 0.434138 5.51066e-17)
(1.11782 -0.277927 1.14763e-17)
(1.11793 -0.278049 -2.78984e-17)
(1.06342 0.234825 2.4114e-17)
(1.06931 0.235316 4.10859e-17)
(1.09162 0.125188 -3.66559e-18)
(0.988589 -0.123259 -1.70245e-17)
(1.09298 0.126656 -7.06169e-18)
(0.986647 -0.12284 -2.37084e-17)
(1.02733 -0.0210752 -6.78931e-18)
(1.02764 -0.0207609 -2.20853e-17)
(0.995647 0.0149707 -9.85038e-18)
(0.995117 0.0148874 -3.2751e-18)
(1.05184 -0.0438441 2.54488e-19)
(1.00946 0.0187333 1.66625e-17)
(1.01127 0.0169677 -1.63039e-18)
(1.05297 -0.0433032 -1.02555e-17)
(1.02156 -0.00893103 -1.46313e-18)
(0.998763 0.0180452 6.23288e-18)
(1.02176 -0.00911155 -9.39365e-19)
(0.99745 0.0179433 -2.28804e-18)
(1.0777 -0.00421289 -1.33272e-19)
(0.992725 -0.00593038 9.58505e-18)
(1.07763 -0.00392623 -4.34294e-18)
(0.993049 -0.0050032 -1.82263e-18)
(1.02546 -0.0254074 -3.12562e-18)
(1.02537 -0.0258055 -1.00622e-19)
(1.00718 0.0125067 8.97356e-18)
(1.00731 0.0130263 -1.43952e-18)
(1.04982 -0.0247738 1.63409e-18)
(1.01309 0.0210148 2.13647e-17)
(1.01266 0.0212851 1.38303e-17)
(1.04901 -0.0241969 4.00403e-18)
(1.07786 0.0945629 1.02672e-17)
(1.03761 -0.0742972 1.76526e-17)
(1.08153 0.0957669 2.09631e-17)
(1.03486 -0.0738467 -1.26336e-17)
(1.02127 -0.0513742 -3.78312e-18)
(1.01928 -0.0521385 -5.65808e-18)
(1.03125 0.0404959 -4.14314e-18)
(1.03231 0.0396616 -7.61945e-19)
(1.06543 -0.0205051 5.6937e-18)
(1.01598 0.00590681 -5.21283e-18)
(1.01607 0.00537885 6.22328e-18)
(1.06504 -0.02036 -4.38332e-18)
(1.05676 -0.0424519 -1.73018e-19)
(1.05573 0.0352128 -1.88932e-18)
(1.05608 -0.0429346 -2.68006e-18)
(1.05514 0.0368536 -2.4342e-18)
(1.30611 0.110553 4.2872e-18)
(0.888647 -0.0845005 4.6237e-18)
(0.884578 -0.0832808 -3.39097e-18)
(1.30617 0.110934 4.3825e-18)
(1.08369 -0.0555467 -2.15387e-18)
(1.01098 0.0676372 -1.59577e-17)
(1.08262 -0.0564433 -8.69201e-18)
(1.01168 0.0669246 -1.1784e-17)
(1.07373 0.0279378 -6.76362e-18)
(1.00235 -0.0204017 -2.12904e-17)
(1.0019 -0.0203022 1.74227e-17)
(1.07412 0.0271523 2.71259e-18)
(1.00574 0.00811382 5.39194e-19)
(1.00551 0.0079386 3.77319e-19)
(1.01926 -0.0284469 -1.37535e-18)
(1.01872 -0.0278905 1.98982e-18)
(1.0709 0.00880689 1.17203e-18)
(1.00101 -0.00627409 -2.23797e-21)
(1.07063 0.00911691 -3.76637e-19)
(1.00201 -0.00686764 3.5692e-18)
(0.751752 0.345128 2.46897e-17)
(1.29461 -0.238544 -2.02108e-18)
(0.746782 0.351016 3.30306e-18)
(1.29541 -0.237981 2.50084e-18)
(1.37085 -0.174321 -2.64575e-18)
(0.789209 0.107637 3.37009e-17)
(0.777769 0.106632 1.6643e-17)
(1.36991 -0.177512 6.00726e-18)
(0.999037 0.0503382 4.57461e-18)
(1.10081 -0.0473556 -7.57196e-18)
(1.00047 0.0503146 5.59763e-17)
(1.10145 -0.0472239 -1.28797e-17)
(1.02698 -0.0596456 -3.69314e-19)
(1.02505 -0.0594742 -7.12588e-18)
(1.06283 0.0548861 5.67512e-19)
(1.06299 0.0550963 6.34824e-19)
(1.01755 0.00177866 2.4292e-19)
(1.01702 0.00150947 8.20255e-19)
(1.02511 -0.0151175 1.92907e-18)
(1.02559 -0.0155187 -1.02755e-18)
(0.989946 0.128081 1.87197e-17)
(0.990168 0.129495 -7.15969e-18)
(1.17621 -0.139915 4.33024e-18)
(1.17804 -0.139431 -4.01248e-19)
(1.52433 -0.274317 -7.34112e-18)
(0.687177 0.346764 1.88865e-17)
(0.679184 0.350591 -6.34229e-18)
(1.52367 -0.273288 1.3998e-17)
(1.15571 0.0596918 1.77758e-17)
(0.994451 -0.0498359 4.46847e-17)
(1.1561 0.0598853 -4.87938e-18)
(0.993702 -0.0512565 -1.80132e-17)
(1.12473 0.0846084 6.8619e-18)
(0.993714 -0.0893037 -6.9819e-18)
(0.992826 -0.08901 1.26921e-17)
(1.12496 0.0854 -8.47889e-18)
(1.02513 0.00423339 -5.66953e-18)
(1.01037 -0.00142957 -1.30673e-18)
(1.01036 -0.00151434 -2.05086e-17)
(1.02561 0.00410413 3.50817e-18)
(1.02249 0.00335141 8.99472e-18)
(0.991716 -0.00813352 -5.97154e-18)
(0.991752 -0.0080979 3.88791e-18)
(1.02226 0.00338293 6.17141e-18)
(1.06951 -0.0439314 6.48377e-18)
(1.01941 0.0578125 -2.45758e-18)
(1.06906 -0.0424629 1.99172e-17)
(1.02231 0.0582471 1.6046e-18)
(1.01562 0.0134154 2.26693e-17)
(0.999119 -0.0154902 2.93418e-17)
(0.998873 -0.0154448 -2.73215e-17)
(1.01582 0.013363 -2.16132e-17)
(1.00134 -0.0370686 2.91689e-18)
(1.00171 -0.0371664 -8.51054e-18)
(1.09773 0.0310134 1.36053e-18)
(1.09757 0.031209 -7.17532e-18)
(1.41191 -0.0356276 -2.33295e-18)
(0.765605 0.198601 1.33013e-16)
(0.772564 0.19884 1.28379e-18)
(1.4133 -0.0362988 3.403e-18)
(1.04244 0.0142456 -3.32939e-18)
(0.987982 -0.0100816 -2.18933e-17)
(0.988123 -0.0102536 2.34325e-17)
(1.04216 0.0142436 9.76112e-18)
(1.16002 0.0218152 -1.57518e-18)
(1.16036 0.0222857 1.6972e-18)
(0.984908 -0.0440872 -1.68612e-18)
(0.984782 -0.0406551 2.56877e-18)
(1.02167 0.00743194 -4.96931e-18)
(1.0508 -0.0384019 6.93573e-19)
(1.05047 -0.0368891 -3.05223e-18)
(1.02335 0.00909067 4.38715e-18)
(1.05487 0.00297541 2.70509e-18)
(0.998851 -0.0063329 -1.04284e-17)
(1.05466 0.00309969 -8.25644e-19)
(0.998802 -0.00590287 -3.93739e-19)
(1.00533 0.080438 2.9994e-17)
(1.10194 -0.0722117 -1.47776e-17)
(1.10282 -0.0719412 -4.30176e-18)
(1.00592 0.0824097 5.68329e-18)
(1.31733 0.0487874 9.79986e-18)
(1.31687 0.0490046 1.25229e-17)
(0.843681 -0.0809351 2.46215e-17)
(0.837285 -0.0791735 -4.00347e-17)
(1.46018 0.673154 2.25645e-17)
(0.749969 -0.510053 -2.42075e-17)
(1.46141 0.674859 1.75109e-17)
(0.750436 -0.512021 5.81673e-17)
(1.02663 -0.0469194 1.05998e-18)
(1.10288 0.0379441 -4.17754e-19)
(1.02735 -0.0464896 -1.00106e-17)
(1.10323 0.038083 -1.68351e-18)
(1.39359 0.440235 8.60932e-18)
(0.639623 -0.534524 -3.85785e-17)
(1.39359 0.440948 3.24262e-17)
(0.640408 -0.532725 4.84929e-18)
(1.05109 -0.0137371 -6.70147e-19)
(1.00278 0.00718304 1.28598e-17)
(1.05122 -0.0139718 -8.97275e-19)
(1.00297 0.00714766 2.21051e-18)
(0.98881 -0.0548975 -7.01921e-18)
(1.19894 0.0918476 1.29614e-17)
(0.989003 -0.0526455 -1.8214e-17)
(1.20007 0.0926331 -1.5242e-19)
(1.02049 0.0572264 1.17014e-17)
(1.06355 -0.0603721 2.81206e-18)
(1.06422 -0.0621585 2.18117e-17)
(1.02443 0.0568382 4.03806e-18)
(1.2321 0.229978 5.77194e-18)
(1.23279 0.229249 -4.02975e-18)
(0.843178 -0.173036 2.28215e-20)
(0.842614 -0.173463 -5.19721e-18)
(0.991214 0.00197532 6.02646e-19)
(1.02171 -0.00404932 1.03784e-18)
(1.02151 -0.00420014 -2.58116e-18)
(0.991194 0.00194568 -2.22614e-17)
(1.02464 -0.0303319 -1.0737e-18)
(1.0238 0.0166459 -3.69027e-19)
(1.02476 0.0163735 1.08373e-18)
(1.02496 -0.029918 8.9011e-19)
(1.13997 0.0375444 -5.08425e-18)
(0.969434 -0.0460527 -2.82195e-18)
(1.13921 0.0374978 2.46743e-18)
(0.966464 -0.0473186 1.09789e-17)
(1.0759 -0.0120559 -4.36294e-18)
(0.968657 0.0085002 -1.32072e-17)
(0.969689 0.00926021 -5.45943e-18)
(1.07592 -0.0121875 3.52734e-18)
(1.039 0.0778712 -1.68863e-17)
(1.09185 -0.071896 2.72096e-18)
(1.09428 -0.0719392 3.88301e-19)
(1.0391 0.0799051 8.53453e-18)
(1.01401 0.00164459 -3.6168e-19)
(1.01016 -0.0127787 -4.74109e-18)
(1.01037 -0.0129886 6.03258e-18)
(1.0147 0.00189049 -2.71275e-19)
(1.00886 0.00351837 -1.315e-18)
(1.02104 0.00201004 -2.13079e-18)
(1.00876 0.00342462 -2.13165e-19)
(1.02129 0.00199655 1.54566e-20)
(1.03643 0.0241361 -3.15974e-18)
(1.00476 -0.0211291 -9.33436e-18)
(1.00444 -0.0206218 1.1634e-17)
(1.03677 0.0242041 7.65421e-18)
(1.34259 0.0261823 -1.66424e-19)
(1.34328 0.0252045 1.24264e-18)
(0.924593 -0.0159162 -4.6483e-17)
(0.916852 -0.0187488 4.75755e-17)
(1.09708 0.0134524 -6.23807e-18)
(0.976419 -0.0206743 -1.05428e-18)
(0.975635 -0.0206532 1.63207e-19)
(1.09753 0.013032 -6.78693e-19)
(1.37221 0.38399 -2.66746e-18)
(1.37273 0.382204 -1.15564e-17)
(0.753709 -0.167379 -3.60222e-17)
(0.751696 -0.165983 1.56602e-17)
(1.12442 0.0735543 -5.47499e-18)
(1.12469 0.0735455 9.70993e-18)
(0.996003 -0.0584302 -1.81451e-17)
(0.998134 -0.0594311 4.39784e-18)
(0.883407 -0.345909 -5.40055e-18)
(1.14119 0.275128 -2.32428e-17)
(1.14152 0.27469 -1.0976e-17)
(0.88208 -0.346151 2.88419e-18)
(1.24416 0.198879 -1.2747e-17)
(1.24529 0.200363 -1.31894e-17)
(0.973495 -0.227128 4.62502e-18)
(0.973512 -0.226936 -3.99163e-18)
(1.01914 0.00504149 6.21433e-19)
(1.00362 -0.0024878 -3.32399e-18)
(1.01884 0.0048667 1.66981e-18)
(1.00358 -0.00263565 3.07219e-18)
(1.07626 -0.0427411 -5.98805e-19)
(1.07568 -0.0428257 -1.35111e-17)
(1.00506 0.0458993 2.55577e-17)
(1.00376 0.0447589 1.19219e-18)
(1.22406 0.267034 2.0421e-17)
(1.22424 0.266487 -6.62202e-18)
(0.780838 -0.252972 4.82104e-18)
(0.781828 -0.253189 -2.48066e-17)
(1.16838 -0.0241621 -4.29723e-19)
(0.918783 -0.0170966 5.05188e-19)
(0.921801 -0.0146317 7.79027e-18)
(1.16883 -0.0240516 3.36986e-19)
(1.12526 -0.152712 2.0886e-17)
(1.03827 0.16287 -1.52046e-17)
(1.12403 -0.152175 9.5879e-18)
(1.03898 0.164624 -5.08258e-17)
(1.05472 0.140953 2.11063e-17)
(1.02893 -0.148083 2.32913e-17)
(1.05871 0.138875 -7.86014e-18)
(1.02751 -0.149456 1.73449e-17)
(1.14655 -0.0163839 4.62527e-18)
(1.14701 -0.0159047 -4.13769e-18)
(0.946333 0.000681648 9.78656e-19)
(0.947684 0.00108214 2.39593e-17)
(1.04767 0.0535614 1.00169e-17)
(0.997382 -0.0508286 1.31259e-17)
(1.04671 0.0544331 -3.73512e-18)
(0.996748 -0.050145 3.55028e-18)
(1.12349 -0.0670861 6.83638e-18)
(0.98667 0.0679675 -1.21848e-17)
(1.12354 -0.0673491 5.92111e-18)
(0.986424 0.0646855 -1.12391e-17)
(1.0254 -0.0118203 -3.91589e-19)
(0.998665 0.0138895 -1.45538e-17)
(0.999147 0.0135043 -3.52604e-18)
(1.02557 -0.0115378 -2.32452e-18)
(1.02904 -0.218392 3.69438e-19)
(1.07541 0.183528 -1.41868e-18)
(1.02983 -0.217284 -6.99921e-19)
(1.07641 0.181735 5.93491e-18)
(1.13821 -0.188572 -3.6736e-18)
(1.01795 0.230139 1.41131e-17)
(1.0165 0.232685 -1.23402e-18)
(1.13778 -0.188922 8.64987e-18)
(1.05987 0.0592886 2.1239e-17)
(1.00967 -0.0665476 2.39265e-18)
(1.06013 0.0600725 -1.85407e-17)
(1.00907 -0.066162 -1.91036e-17)
(1.00148 0.0218633 3.0807e-18)
(1.06301 -0.0317438 -1.06449e-17)
(1.00239 0.0216807 -2.97101e-17)
(1.06272 -0.0312164 9.82377e-18)
(1.02434 -0.00490214 -4.27535e-18)
(0.994699 -0.0125386 7.05449e-18)
(0.994806 -0.012524 -1.3477e-20)
(1.0245 -0.00520609 2.51065e-18)
(1.0523 -0.00371139 3.2323e-18)
(0.996836 -0.0061696 8.76818e-19)
(1.05233 -0.00380606 -1.75326e-18)
(0.996814 -0.00599795 3.7032e-18)
(1.06457 -0.0262482 5.01836e-19)
(0.993456 -0.00565847 2.28092e-17)
(1.0637 -0.026487 -8.30442e-19)
(0.994215 -0.00563182 -4.33631e-17)
(1.16053 0.186554 -4.33838e-18)
(0.959478 -0.192814 8.0394e-18)
(1.16119 0.186612 -2.41661e-17)
(0.960369 -0.192621 3.62954e-17)
(0.806812 -0.528837 1.8071e-17)
(0.598346 0.662263 3.35284e-18)
(0.598802 0.664985 9.82781e-19)
(0.806662 -0.52942 -1.75493e-17)
(1.52895 0.229065 -2.90992e-18)
(0.206332 -0.256263 7.65595e-17)
(1.52898 0.228433 -3.27127e-17)
(0.206938 -0.254173 2.26672e-17)
(1.05479 -0.0747058 -1.46213e-18)
(1.05483 -0.0741824 -5.61956e-18)
(1.04313 0.053816 7.75369e-19)
(1.04329 0.0521187 -2.03575e-17)
(1.11992 -0.000320445 1.67783e-18)
(1.12009 -0.00132197 -1.36768e-18)
(1.00146 -0.03363 -5.49482e-18)
(1.00133 -0.0328367 1.73864e-18)
(1.17577 0.153272 -8.58131e-19)
(0.935064 -0.190958 -3.75682e-18)
(0.935993 -0.189247 -2.43868e-17)
(1.17626 0.152516 4.96927e-18)
(1.05851 -0.00971587 -1.21212e-18)
(1.00292 0.0211122 -3.33784e-17)
(1.05869 -0.010016 -9.81447e-19)
(1.00221 0.0213175 3.58142e-17)
(1.06901 -0.0111542 4.82634e-18)
(0.979668 0.00930358 4.8311e-18)
(1.06904 -0.011284 -3.59063e-18)
(0.980154 0.00909595 -5.43282e-18)
(1.07887 -0.000394764 -2.77621e-18)
(1.07923 -0.000540221 -2.01678e-18)
(1.01123 -0.00662566 -3.22468e-20)
(1.01103 -0.00607794 8.80534e-18)
(1.02507 -0.00391307 -2.05524e-19)
(1.01308 0.00540005 -3.35026e-18)
(1.01306 0.00557515 -2.24897e-18)
(1.02544 -0.00402096 -2.59993e-18)
(1.02304 0.00346436 -2.36172e-17)
(1.01077 -0.00110478 -2.61362e-18)
(1.01068 -0.00109211 7.39873e-18)
(1.02345 0.00362487 -5.39851e-18)
(1.02128 -0.0257772 -1.38539e-18)
(1.00703 0.0147167 7.0514e-19)
(1.02047 -0.0259953 1.24229e-18)
(1.00629 0.0150146 1.24415e-18)
(1.02671 0.11622 3.46057e-17)
(1.08042 -0.0995258 3.43243e-18)
(1.02614 0.11524 1.45757e-17)
(1.08495 -0.0999864 -1.65521e-18)
(0.957365 -0.0416547 6.52893e-18)
(1.17893 0.0177936 8.93783e-19)
(1.17821 0.0172378 -1.41952e-19)
(0.960789 -0.0415395 -3.40546e-18)
(1.01906 -0.012147 -3.73923e-19)
(1.01229 0.0114289 -6.63665e-19)
(1.019 -0.0119599 1.32064e-18)
(1.01213 0.0110704 2.19135e-18)
(1.15237 -0.0489549 -1.88944e-18)
(1.15169 -0.0492469 4.19804e-18)
(0.963645 0.0537107 -2.37098e-17)
(0.967005 0.0537854 -2.91159e-18)
(1.00404 0.0476341 1.36346e-17)
(1.08407 -0.0353752 -6.82055e-18)
(1.0028 0.0464297 3.11383e-17)
(1.08449 -0.0356402 -2.20159e-18)
(1.23085 -0.00136376 1.45818e-18)
(0.910571 0.0085867 -4.22947e-18)
(1.23128 -0.0015409 -3.24648e-18)
(0.906393 0.00722711 7.75469e-18)
(0.974387 0.0296122 -8.79788e-18)
(0.978279 0.0275664 -1.72725e-18)
(1.11711 -0.0489389 -3.50728e-18)
(1.11755 -0.0494196 -9.32901e-20)
(1.02554 0.0904067 1.39454e-19)
(1.02525 -0.0892022 -2.61015e-17)
(1.02557 0.0878009 2.00795e-17)
(1.02962 -0.08805 -1.34548e-17)
(1.0207 0.0146282 -8.08822e-20)
(1.00459 -0.00679076 6.27823e-18)
(1.0045 -0.00658109 -7.54412e-18)
(1.02071 0.0145996 4.82355e-18)
(1.069 0.126315 -1.10056e-17)
(1.0506 -0.108839 -6.9443e-18)
(1.047 -0.106785 4.41435e-17)
(1.0658 0.129068 -2.60785e-17)
(1.01685 0.00319483 -1.2788e-18)
(0.996983 -0.000449078 9.81294e-18)
(1.01744 0.00322052 -6.14016e-18)
(0.996999 -0.000434399 -1.17401e-17)
(0.989042 0.0142929 -3.49829e-18)
(0.986188 0.0167473 7.04999e-19)
(1.13042 -0.02848 -3.10118e-18)
(1.13073 -0.029316 9.83272e-19)
(0.953791 -0.00219807 -3.97613e-18)
(1.22674 0.0392471 3.21517e-18)
(1.22651 0.0384636 -4.51726e-19)
(0.949711 -0.00427719 7.09336e-18)
(1.004 0.0910252 9.54633e-18)
(1.12447 -0.104903 -3.99885e-18)
(1.12312 -0.105822 -1.05408e-17)
(1.00531 0.0903854 2.61909e-17)
(1.01088 0.00375396 5.88088e-18)
(1.00455 -0.0164101 -9.67567e-18)
(1.01065 0.00343648 -4.21192e-18)
(1.00457 -0.0163028 9.5978e-18)
(1.27371 0.31007 -3.6418e-17)
(0.954859 -0.514275 4.09079e-18)
(1.26849 0.30476 -6.31813e-17)
(0.953435 -0.515656 -2.73534e-17)
(1.04629 0.139342 -9.3141e-18)
(1.03178 -0.215616 5.91493e-18)
(1.04579 0.140405 4.48876e-17)
(1.02703 -0.214039 -2.77264e-18)
(0.789518 0.000112296 1.74125e-17)
(1.32194 -0.0831807 -5.21878e-18)
(0.789372 -0.000397339 -2.43939e-17)
(1.32134 -0.0838788 -2.8723e-18)
(0.997391 0.00127856 1.01113e-17)
(0.997406 0.00132906 1.17103e-18)
(1.01182 0.000785901 -2.4835e-18)
(1.01216 0.00087046 2.31109e-19)
(0.997298 -0.032847 5.60448e-17)
(1.06664 0.0292872 2.35775e-18)
(0.997894 -0.0318414 -4.66429e-19)
(1.06641 0.0295504 -4.63938e-18)
(0.919572 0.0487889 -5.21545e-18)
(1.15472 -0.0721822 -4.29199e-18)
(0.921232 0.0469707 1.15855e-18)
(1.1541 -0.072094 3.75102e-18)
(1.01415 -0.00525765 1.29353e-18)
(1.00022 0.00752087 2.2953e-18)
(1.01383 -0.00515627 -2.73634e-18)
(1.00023 0.00703436 -1.3298e-17)
(1.01493 -0.0482049 1.70615e-19)
(1.02519 0.0425022 2.46628e-18)
(1.0162 -0.046165 -3.57636e-18)
(1.02312 0.0427965 -4.50478e-18)
(1.02097 -0.0288943 1.38708e-18)
(1.04007 0.0390295 -2.20189e-18)
(1.02065 -0.0279306 -1.81719e-18)
(1.0417 0.0394502 2.28642e-18)
(0.990837 -0.0611192 -5.47735e-18)
(1.09035 0.0567399 -2.04037e-18)
(0.989854 -0.062013 -1.41591e-17)
(1.0906 0.0556936 -3.37531e-18)
(0.997757 -0.0741472 -4.46014e-18)
(1.07976 0.0800446 7.28567e-18)
(1.07932 0.0782944 -1.03594e-17)
(0.997247 -0.0732983 1.56932e-17)
(1.26345 -0.038032 -5.13367e-18)
(1.26272 -0.0393805 -6.13057e-18)
(0.870057 0.0226017 3.51483e-17)
(0.875741 0.0228766 -4.77486e-18)
(1.22675 -0.0297865 -3.27797e-18)
(0.889647 0.00601383 6.09108e-18)
(1.22605 -0.0303067 -2.21534e-18)
(0.893189 0.00898569 -9.37052e-20)
(1.0052 -0.010905 -2.29619e-17)
(1.02309 0.00517114 1.42217e-18)
(1.02319 0.00492963 -3.08278e-19)
(1.00523 -0.0110285 2.27627e-17)
(1.15235 -0.34448 8.84855e-18)
(1.15152 -0.342485 -2.35293e-17)
(1.04209 0.295367 -1.9067e-18)
(1.04138 0.29782 6.00959e-19)
(1.14324 0.452844 2.88978e-17)
(1.1458 0.45287 -9.62118e-18)
(1.15104 -0.407026 -5.02099e-18)
(1.14988 -0.408537 3.01287e-17)
(1.03299 0.0155752 2.43339e-18)
(1.00966 -0.0278092 -1.74552e-17)
(1.00955 -0.0272179 1.04992e-17)
(1.03293 0.0156312 -1.27778e-18)
(1.05028 0.027392 1.36128e-18)
(1.00932 -0.0237809 -5.51421e-18)
(1.00967 -0.0233141 1.48763e-18)
(1.05059 0.027261 -1.43345e-17)
(1.23559 -0.0919838 -7.67404e-19)
(0.887257 0.0706865 -1.84033e-17)
(1.23465 -0.0945028 -5.96829e-18)
(0.884827 0.0662604 1.15356e-17)
(0.948869 0.0597542 -1.4918e-17)
(0.949354 0.0631534 2.51213e-17)
(1.20012 -0.064475 -1.94851e-18)
(1.19939 -0.0647384 -6.70208e-19)
(1.00206 -0.00462938 2.1537e-18)
(1.00212 -0.00480435 -1.58026e-18)
(1.0144 0.00723316 5.91528e-18)
(1.014 0.0070804 1.34687e-18)
(1.02532 -0.00524801 6.18742e-19)
(0.991683 0.00435299 -1.0552e-18)
(0.990946 0.00492331 1.18754e-17)
(1.02501 -0.00518952 -2.89963e-18)
(1.18576 -0.56093 1.19761e-17)
(0.790478 0.484085 -1.94285e-17)
(0.794113 0.488975 -1.83123e-17)
(1.18464 -0.560608 9.89482e-18)
(1.16771 -0.0228358 3.72134e-18)
(0.885592 0.00060226 7.82682e-19)
(1.16685 -0.0231423 -4.47716e-19)
(0.890427 0.00142239 2.67574e-18)
(1.04154 0.0380001 1.2327e-17)
(1.04025 0.0383344 1.136e-18)
(1.00277 -0.0422912 2.04622e-17)
(1.00204 -0.0416143 2.46503e-17)
(1.00335 0.00427831 -1.01272e-19)
(1.01039 -0.0171383 -1.29027e-18)
(1.00393 0.00484471 3.50192e-19)
(1.01023 -0.0166608 2.08961e-18)
(1.15103 -0.0859746 -2.08307e-18)
(0.982121 0.068642 2.25663e-17)
(1.15115 -0.0857093 -9.82433e-19)
(0.982158 0.0699568 5.10764e-18)
(1.00086 0.00611059 2.26125e-17)
(1.0535 -0.00753943 4.61285e-18)
(1.00026 0.00637881 -2.40279e-17)
(1.05364 -0.00753184 -6.64056e-18)
(0.944978 0.117161 6.55117e-18)
(1.18919 -0.114568 2.22284e-18)
(0.947503 0.11809 -5.33287e-18)
(1.18755 -0.114929 2.96659e-18)
(0.950817 0.0759496 5.89081e-18)
(1.18357 -0.104542 1.45814e-18)
(1.18562 -0.105621 -6.21106e-18)
(0.952762 0.0792112 5.19134e-17)
(1.01929 -0.0319089 2.1728e-17)
(1.07915 0.0306733 3.9712e-18)
(1.07899 0.0309902 -5.09532e-18)
(1.01894 -0.0309783 3.80292e-18)
(1.03872 -0.0655519 -1.17813e-18)
(1.00895 0.0470502 -5.387e-18)
(1.03974 -0.0649176 -3.90974e-18)
(1.00772 0.0485591 -2.47533e-18)
(1.29638 -0.270996 3.22281e-18)
(0.954704 0.350865 -1.47288e-18)
(0.954027 0.348944 3.1769e-17)
(1.29823 -0.271621 7.92527e-19)
(1.22468 -0.192791 -8.49457e-18)
(0.900456 0.243401 -2.02178e-17)
(0.902444 0.240752 7.13117e-18)
(1.22394 -0.192587 3.63451e-18)
(1.1616 0.0564487 -1.2463e-18)
(0.962523 -0.0605933 -4.83467e-18)
(0.960622 -0.0618128 8.51551e-18)
(1.16185 0.0561739 9.94851e-19)
(0.796873 0.753046 2.04027e-17)
(1.37031 -0.654573 9.04595e-18)
(0.799212 0.757665 1.71186e-18)
(1.37095 -0.654812 -2.43452e-17)
(1.0219 -0.0417254 -1.26735e-17)
(1.02342 0.0346824 1.58053e-18)
(1.02309 -0.0416966 -1.52561e-17)
(1.02427 0.0355943 -1.96348e-17)
(1.27555 -0.102109 5.16769e-19)
(0.840304 0.148646 -3.6177e-17)
(0.842584 0.145939 -2.6738e-17)
(1.27781 -0.101315 1.15688e-18)
(1.23884 -0.143527 1.61667e-18)
(0.945542 0.161853 1.36324e-17)
(0.945843 0.159994 -3.49422e-18)
(1.24105 -0.145318 3.73023e-18)
(1.08245 -0.018074 -5.06466e-19)
(1.08191 -0.0179658 -4.22096e-18)
(1.00001 0.00607852 -8.77279e-18)
(0.998986 0.00763052 1.05094e-17)
(0.955263 0.0394891 -2.48053e-18)
(1.18915 -0.0351992 4.80669e-18)
(0.959062 0.0411159 6.57792e-19)
(1.18791 -0.036228 1.70088e-18)
(1.01041 0.0196899 -1.97426e-18)
(1.01115 0.0199683 5.72084e-19)
(1.00592 -0.0200257 4.70992e-18)
(1.00563 -0.0204403 -4.64945e-18)
(1.04626 0.0227943 7.75814e-18)
(1.01164 -0.0224857 -1.45753e-17)
(1.04591 0.022669 -8.95004e-18)
(1.01147 -0.0217984 -2.651e-18)
(1.03169 0.0222875 4.52529e-19)
(1.01376 -0.032959 -3.02752e-18)
(1.01434 -0.0323536 -1.02164e-18)
(1.03174 0.0224308 -2.86959e-18)
(1.08192 -0.0193802 -3.48531e-18)
(1.08129 -0.0200892 -2.48555e-18)
(1.00805 0.0219778 -6.49398e-18)
(1.00533 0.0213207 -1.03528e-18)
(1.03366 -0.177514 -8.85991e-20)
(1.03518 -0.17754 -3.36733e-19)
(1.14921 0.147854 1.75799e-18)
(1.14811 0.148619 -1.40722e-17)
(1.0272 -0.155368 -5.42487e-18)
(1.10254 0.111801 -1.97651e-17)
(1.02663 -0.154644 -2.47663e-18)
(1.10301 0.111877 8.28556e-18)
(1.10485 -0.0241355 -3.2967e-19)
(0.983447 0.00787066 1.01362e-17)
(1.10449 -0.0236314 -3.07169e-18)
(0.980794 0.00860334 1.20227e-18)
(1.00219 -0.160243 -1.45241e-18)
(1.00093 -0.160091 6.95725e-18)
(1.12795 0.102556 -1.50621e-17)
(1.12825 0.103161 1.81493e-18)
(1.14527 -0.0409201 4.1154e-18)
(0.958963 0.0159327 -7.81077e-19)
(0.961563 0.0157298 -1.28779e-17)
(1.14533 -0.041346 -4.07237e-18)
(0.944162 -0.1602 -3.25913e-17)
(1.13321 0.119495 4.61142e-18)
(0.942918 -0.15922 -1.62968e-17)
(1.1333 0.118535 -2.29109e-17)
(1.00706 0.00156321 -1.11444e-17)
(1.05091 0.00396582 -1.08109e-17)
(1.00704 0.00119159 3.7374e-17)
(1.05152 0.00417686 -8.5084e-18)
(1.09706 -0.0323978 -5.21353e-18)
(0.99833 0.0375579 -1.66203e-17)
(1.00096 0.0360872 -9.92592e-18)
(1.09692 -0.0320433 -2.70499e-18)
(0.982876 -0.0128884 8.28073e-18)
(1.05897 0.0164337 1.47852e-18)
(1.059 0.0168445 -2.15301e-18)
(0.982654 -0.0126708 5.51618e-18)
(0.980335 -0.0286965 -4.76305e-18)
(1.07846 0.0162226 -9.86362e-18)
(1.07856 0.0157971 -2.92951e-18)
(0.979982 -0.0284438 2.4262e-18)
(1.07198 0.0185716 -3.42203e-19)
(0.983122 -0.0325519 -2.11362e-17)
(1.07215 0.0192315 -5.72258e-18)
(0.98281 -0.0325453 5.03801e-18)
)
;

boundaryField
{
    insideCircle
    {
        type            fixedValue;
        value           uniform (0 0 0);
    }
    outsideCircle
    {
        type            fixedValue;
        value           uniform (1 0 0);
    }
    topAndBottom
    {
        type            empty;
    }
}


// ************************************************************************* //
