/*--------------------------------*- C++ -*----------------------------------*\
| =========                 |                                                 |
| \\      /  F ield         | foam-extend: Open Source CFD                    |
|  \\    /   O peration     | Version:  3.0                                   |
|   \\  /    A nd           | Web:         http://www.extend-project.de       |
|    \\/     M anipulation  |                                                 |
\*---------------------------------------------------------------------------*/
FoamFile
{
    version     2.0;
    format      ascii;
    class       volScalarField;
    location    "9.1";
    object      p;
}
// * * * * * * * * * * * * * * * * * * * * * * * * * * * * * * * * * * * * * //

dimensions      [0 0 0 0 0 0 0];

internalField   nonuniform List<scalar> 
400
(
2.3033
0.418669
0.547429
0.0342669
0.633177
0.42556
1.05148
0.88548
1.4603
1.28964
1.83741
1.6624
2.2125
2.02081
2.56006
2.28473
2.69916
2.1199
2.04792
0.4099
4.97482
3.41388
3.21864
2.39956
2.58862
1.9957
2.23049
1.69932
1.90236
1.38227
1.55304
1.02372
1.17687
0.622244
0.758794
0.144115
0.202274
-0.587595
-0.863391
-2.18904
3.90003
2.47048
2.4697
1.84684
2.14116
1.71809
2.0498
1.66302
1.9894
1.59932
1.93178
1.53033
1.88066
1.45729
1.80602
1.31898
1.57013
0.889126
0.7735
-0.480097
4.05156
3.20937
2.98731
2.47244
2.49129
2.06133
2.13
1.70817
1.78071
1.35754
1.439
1.02056
1.12336
0.707922
0.819158
0.372105
0.402699
-0.181735
-0.469289
-1.3644
3.11014
2.40266
2.39022
1.99944
2.17096
1.85124
2.08503
1.76932
2.05336
1.7334
2.08851
1.77083
2.21295
1.89177
2.39238
2.01433
2.43466
1.84471
1.83698
0.727716
2.8505
2.51206
2.38085
2.12388
2.08373
1.82235
1.81343
1.53574
1.55651
1.28234
1.35692
1.11186
1.26844
1.05984
1.29781
1.0696
1.2884
0.836544
0.704851
-0.419123
2.30816
2.12281
2.12534
1.95132
2.01695
1.80826
1.93895
1.70288
1.92805
1.68782
2.05235
1.83527
2.38521
2.20003
2.94043
2.71885
3.50579
2.96795
3.26966
1.64528
1.90241
2.00027
1.93606
1.87513
1.76761
1.61695
1.51695
1.32656
1.26977
1.08661
1.11658
0.989516
1.16188
1.12203
1.4775
1.46432
1.92618
1.59101
1.67983
-0.0470028
1.59312
1.89607
1.88811
1.89261
1.83327
1.70148
1.69834
1.50399
1.61592
1.40879
1.7027
1.53453
2.10081
2.01217
2.93236
2.86949
4.0704
3.62595
4.42633
2.10663
1.13073
1.67848
1.64073
1.73242
1.53693
1.4481
1.23745
1.07584
0.902358
0.735113
0.648798
0.549513
0.628704
0.672045
1.01047
1.18196
1.77129
1.64945
1.94232
-0.177426
0.955141
1.7237
1.67834
1.82315
1.63553
1.55003
1.39936
1.20816
1.15707
0.924472
1.04486
0.844019
1.26205
1.18085
2.0733
2.13039
3.58801
3.37825
4.79604
2.24932
0.525797
1.47085
1.43502
1.6404
1.3645
1.30834
0.99064
0.815565
0.501466
0.28039
0.00864983
-0.167215
-0.314986
-0.31635
-0.206696
0.0658124
0.524545
0.77427
1.15319
-0.544763
0.466798
1.57449
1.49183
1.73584
1.45462
1.39957
1.11825
0.904728
0.665981
0.35642
0.215602
-0.106668
-0.0181085
-0.215757
0.351578
0.433056
1.79951
2.00123
4.01387
2.30402
0.168965
1.35045
1.3116
1.59269
1.27395
1.23996
0.841886
0.630662
0.176213
-0.149448
-0.645984
-0.993503
-1.47348
-1.66962
-1.99493
-1.77539
-1.75723
-1.01755
-0.766891
-0.790482
0.265792
1.4816
1.38564
1.68839
1.37169
1.34331
0.967709
0.720572
0.299964
-0.118109
-0.56058
-1.07404
-1.44455
-1.88839
-1.93299
-1.9863
-1.17728
-0.467578
1.87447
2.42302
0.206177
1.38635
1.34809
1.66907
1.35075
1.33572
0.888894
0.63307
0.0591986
-0.393211
-1.10859
-1.68566
-2.5319
-3.05663
-3.93657
-3.99077
-4.65902
-3.49629
-3.64722
-0.674806
0.538266
1.57717
1.49336
1.81933
1.51281
1.50553
1.06746
0.782596
0.210072
-0.320618
-1.04178
-1.77103
-2.62458
-3.40827
-4.23141
-4.62827
-4.84232
-3.76894
-1.78201
2.33223
0.839806
1.75215
1.70837
2.0311
1.72562
1.71246
1.23137
0.925745
0.266504
-0.302689
-1.18095
-1.98441
-3.13655
-4.05809
-5.47093
-6.05249
-7.48761
-6.33906
-7.16257
-0.510526
1.47561
2.0835
2.01525
2.3278
2.02379
2.00605
1.51245
1.18136
0.502613
-0.1177
-1.03069
-1.93916
-3.16762
-4.30415
-5.85607
-6.80864
-8.31762
-7.45039
-7.16575
0.814162
2.27776
2.7268
2.63323
2.89441
2.54673
2.47218
1.94628
1.57232
0.876535
0.223274
-0.706881
-1.67008
-2.95536
-4.24148
-5.97328
-7.31069
-9.31337
-9.19422
-10.6864
-2.06931
)
;

boundaryField
{
    cavity
    {
        type            implicitExtrapolation;
    }
    lid
    {
        type            implicitExtrapolation;
    }
    frontAndBack
    {
        type            empty;
    }
}


// ************************************************************************* //
