/*--------------------------------*- C++ -*----------------------------------*\
| =========                 |                                                 |
| \\      /  F ield         | foam-extend: Open Source CFD                    |
|  \\    /   O peration     | Version:  3.0                                   |
|   \\  /    A nd           | Web:         http://www.extend-project.de       |
|    \\/     M anipulation  |                                                 |
\*---------------------------------------------------------------------------*/
FoamFile
{
    version     2.0;
    format      ascii;
    class       volSymmTensorField;
    location    "9.1";
    object      sigma;
}
// * * * * * * * * * * * * * * * * * * * * * * * * * * * * * * * * * * * * * //

dimensions      [0 0 0 0 0 0 0];

internalField   nonuniform List<symmTensor> 
400
(
(1.48982 0.876044 3.81265e-316 -2.063 4.11733e-316 0.573179)
(2.69231 0.0698625 3.74686e-316 -1.78598 4.23618e-316 -0.906331)
(3.19818 -0.945025 3.5349e-316 -1.62346 4.06291e-316 -1.57472)
(3.01288 -1.62694 3.28523e-316 -1.29289 3.76581e-316 -1.71999)
(2.77419 -2.37474 3.00138e-316 -1.12484 3.40861e-316 -1.64935)
(2.26904 -2.85519 2.73295e-316 -0.851537 3.05864e-316 -1.4175)
(1.83668 -3.3004 2.46923e-316 -0.691596 2.70791e-316 -1.14508)
(1.28521 -3.5768 2.23042e-316 -0.462078 2.40121e-316 -0.823133)
(0.798664 -3.77515 2.00705e-316 -0.299718 2.10477e-316 -0.498945)
(0.236657 -3.86385 1.80481e-316 -0.0847005 1.85828e-316 -0.151956)
(-0.289418 -3.85425 1.61944e-316 0.0945181 1.61959e-316 0.1949)
(-0.874243 -3.76107 1.44781e-316 0.318052 1.42633e-316 0.556191)
(-1.42793 -3.55016 1.29156e-316 0.519423 1.23588e-316 0.908508)
(-2.01164 -3.27095 1.13956e-316 0.759223 1.08252e-316 1.25242)
(-2.51085 -2.84343 1.00005e-316 0.967045 9.27991e-317 1.54381)
(-2.97166 -2.38077 8.53019e-317 1.2103 7.99929e-317 1.76136)
(-3.18828 -1.71878 7.13301e-317 1.38064 6.68027e-317 1.80764)
(-3.20705 -1.09994 5.54471e-317 1.59281 5.48228e-317 1.61425)
(-2.61442 -0.242407 3.96412e-317 1.66263 4.15986e-317 0.951792)
(-1.34785 0.474721 2.20919e-317 1.75476 2.58548e-317 -0.406907)
(0.904184 0.717074 2.61493e-316 -2.25952 3.11246e-316 1.35534)
(1.84238 0.247708 2.63651e-316 -2.16261 3.57347e-316 0.32023)
(2.18388 -0.35134 2.53073e-316 -1.93041 3.61849e-316 -0.253473)
(2.20192 -0.825378 2.38618e-316 -1.68516 3.44872e-316 -0.516763)
(2.03427 -1.30822 2.21358e-316 -1.43355 3.16902e-316 -0.600726)
(1.73781 -1.64777 2.04493e-316 -1.16528 2.86218e-316 -0.572525)
(1.41572 -1.94888 1.87785e-316 -0.927865 2.54199e-316 -0.487852)
(1.0235 -2.12749 1.72298e-316 -0.657284 2.25245e-316 -0.366213)
(0.648612 -2.25473 1.57659e-316 -0.419304 1.97326e-316 -0.229308)
(0.221173 -2.28222 1.44118e-316 -0.141667 1.73731e-316 -0.0795066)
(-0.184792 -2.25597 1.31529e-316 0.112471 1.51321e-316 0.0723209)
(-0.62921 -2.1507 1.19697e-316 0.403037 1.33057e-316 0.226174)
(-1.049 -1.99191 1.08805e-316 0.679055 1.15635e-316 0.369943)
(-1.47223 -1.77968 9.82197e-317 0.974893 1.01778e-316 0.497342)
(-1.8455 -1.51235 8.84847e-317 1.26014 8.84991e-317 0.585351)
(-2.13791 -1.23223 7.84196e-317 1.52634 7.80572e-317 0.611567)
(-2.30677 -0.884416 6.88161e-317 1.77983 6.80178e-317 0.526939)
(-2.21843 -0.590228 5.7963e-317 1.94483 5.94869e-317 0.273601)
(-1.82592 -0.203552 4.64443e-317 2.07804 4.98691e-317 -0.252124)
(-0.855336 0.0302007 3.27702e-317 2.02641 3.68288e-317 -1.17108)
(0.829413 1.53538 1.53853e-316 -2.38836 2.2486e-316 1.55894)
(1.48375 0.975872 1.63959e-316 -2.15329 2.98728e-316 0.66954)
(1.72091 0.436948 1.63112e-316 -1.90148 3.19787e-316 0.180567)
(1.67216 -0.0244893 1.58832e-316 -1.59902 3.12432e-316 -0.0731399)
(1.55646 -0.458269 1.51834e-316 -1.3649 2.90849e-316 -0.191552)
(1.33221 -0.764684 1.44292e-316 -1.10642 2.64156e-316 -0.225783)
(1.11986 -1.03025 1.36072e-316 -0.90563 2.35458e-316 -0.214231)
(0.847236 -1.1762 1.27956e-316 -0.674411 2.08678e-316 -0.172825)
(0.594116 -1.27195 1.19768e-316 -0.476001 1.83022e-316 -0.118114)
(0.291758 -1.2684 1.11801e-316 -0.238226 1.60838e-316 -0.0535314)
(-0.00375853 -1.21522 1.04048e-316 -0.00751449 1.40136e-316 0.011273)
(-0.339806 -1.08831 9.65092e-317 0.264281 1.22821e-316 0.0755244)
(-0.681123 -0.924693 8.94053e-317 0.55223 1.06718e-316 0.128893)
(-1.03297 -0.720786 8.2453e-317 0.865793 9.35659e-317 0.167173)
(-1.38152 -0.502339 7.61325e-317 1.20844 8.14807e-317 0.17308)
(-1.66187 -0.284551 6.98509e-317 1.53019 7.20312e-317 0.131677)
(-1.876 -0.0680051 6.42418e-317 1.86732 6.38782e-317 0.00867434)
(-1.85886 0.11494 5.83091e-317 2.09562 5.81597e-317 -0.236753)
(-1.59318 0.305604 5.22567e-317 2.27443 5.309e-317 -0.681252)
(-0.78832 0.46751 4.34929e-317 2.23079 4.68983e-317 -1.44247)
(0.400348 1.75293 3.25075e-317 -1.49906 1.28321e-316 1.09871)
(0.877788 1.26528 5.40449e-317 -1.45034 2.30706e-316 0.572549)
(1.05595 0.780529 6.67908e-317 -1.29717 2.68065e-316 0.241228)
(1.10447 0.375393 7.51241e-317 -1.15478 2.70838e-316 0.0503127)
(1.04715 0.00680755 8.02693e-317 -0.995999 2.56407e-316 -0.0511497)
(0.94947 -0.242113 8.30903e-317 -0.855069 2.34947e-316 -0.0944011)
(0.829942 -0.448487 8.41008e-317 -0.725499 2.10554e-316 -0.104443)
(0.682703 -0.538485 8.36751e-317 -0.590062 1.87102e-316 -0.0926409)
(0.536401 -0.589804 8.21043e-317 -0.465389 1.64435e-316 -0.071012)
(0.354748 -0.53533 7.96574e-317 -0.312006 1.44547e-316 -0.0427423)
(0.171355 -0.455147 7.65908e-317 -0.155857 1.26015e-316 -0.0154976)
(-0.053712 -0.286929 7.30752e-317 0.044385 1.10317e-316 0.00932695)
(-0.291672 -0.121254 6.94472e-317 0.268245 9.5775e-317 0.0234268)
(-0.556579 0.100086 6.57838e-317 0.533779 8.37308e-317 0.0227996)
(-0.837417 0.273191 6.26407e-317 0.843496 7.26766e-317 -0.00607908)
(-1.07256 0.449135 6.00319e-317 1.14785 6.39701e-317 -0.0752901)
(-1.2879 0.532546 5.89406e-317 1.49826 5.66041e-317 -0.210363)
(-1.2752 0.552086 5.90412e-317 1.71506 5.23209e-317 -0.439855)
(-1.11777 0.488645 6.17561e-317 1.92574 5.10952e-317 -0.807961)
(-0.477273 0.310246 6.32487e-317 1.83066 5.60242e-317 -1.35338)
(0.372785 2.06109 -6.4034e-317 -1.2545 4.40799e-317 0.881715)
(0.694951 1.58687 -3.40084e-317 -1.14951 1.64003e-316 0.454561)
(0.819314 1.16477 -9.72485e-318 -1.0266 2.13438e-316 0.207286)
(0.832361 0.74817 9.39904e-318 -0.898942 2.2514e-316 0.0665805)
(0.823095 0.406037 2.44828e-317 -0.812126 2.17909e-316 -0.0109688)
(0.767448 0.147326 3.57338e-317 -0.719709 2.02212e-316 -0.0477384)
(0.73318 -0.0445351 4.38942e-317 -0.6712 1.82863e-316 -0.06198)
(0.661708 -0.137789 4.94249e-317 -0.600864 1.6339e-316 -0.0608444)
(0.610305 -0.172971 5.28267e-317 -0.556308 1.4432e-316 -0.0539969)
(0.512193 -0.112537 5.45395e-317 -0.469252 1.27099e-316 -0.0429413)
(0.413658 -0.00775149 5.49582e-317 -0.378628 1.10993e-316 -0.0350302)
(0.254595 0.180723 5.43785e-317 -0.223988 9.68402e-317 -0.030607)
(0.0651081 0.378847 5.31976e-317 -0.0266793 8.35885e-317 -0.0384288)
(-0.182565 0.637489 5.1557e-317 0.243826 7.18671e-317 -0.0612608)
(-0.483623 0.833055 4.99955e-317 0.597021 6.06617e-317 -0.113398)
(-0.778413 1.0532 4.85235e-317 0.983949 5.0529e-317 -0.205536)
(-1.09976 1.1004 4.80127e-317 1.46468 4.09348e-317 -0.364914)
(-1.21148 1.134 4.82496e-317 1.83272 3.29988e-317 -0.621243)
(-1.19024 0.914464 5.04786e-317 2.22071 2.89712e-317 -1.03047)
(-0.586599 0.668969 5.33864e-317 2.2579 3.54845e-317 -1.6713)
(0.130134 2.23741 -1.49732e-316 -0.650201 -3.32817e-317 0.520067)
(0.295575 1.73228 -1.12991e-316 -0.570171 9.749e-317 0.274595)
(0.395516 1.28029 -7.82379e-317 -0.517645 1.56087e-316 0.122129)
(0.438635 0.866621 -4.92875e-317 -0.471909 1.76234e-316 0.033274)
(0.480708 0.517728 -2.50954e-317 -0.465209 1.76471e-316 -0.0154997)
(0.500045 0.276729 -6.27396e-318 -0.461257 1.67254e-316 -0.038788)
(0.537667 0.0907603 8.30776e-318 -0.489891 1.53479e-316 -0.047776)
(0.55551 0.0233954 1.90332e-317 -0.507834 1.38609e-316 -0.0476758)
(0.58954 0.00215403 2.67074e-317 -0.544841 1.23466e-316 -0.0446994)
(0.58703 0.100861 3.1828e-317 -0.546406 1.09397e-316 -0.0406235)
(0.586415 0.232307 3.49334e-317 -0.545659 9.59955e-317 -0.0407559)
(0.517228 0.481774 3.63891e-317 -0.470462 8.3962e-317 -0.0467657)
(0.427952 0.725554 3.65689e-317 -0.361938 7.25345e-317 -0.066014)
(0.236368 1.07126 3.56789e-317 -0.132887 6.21762e-317 -0.103481)
(0.0112879 1.32101 3.40269e-317 0.161828 5.20707e-317 -0.173116)
(-0.304851 1.62437 3.16923e-317 0.594658 4.25898e-317 -0.289806)
(-0.612661 1.68003 2.90569e-317 1.09663 3.32292e-317 -0.483973)
(-0.853011 1.69879 2.62133e-317 1.64796 2.47865e-317 -0.794949)
(-0.900159 1.34525 2.39056e-317 2.18919 1.87141e-317 -1.28903)
(-0.483099 0.863322 2.34006e-317 2.53193 1.84183e-317 -2.04884)
(0.0814535 2.31709 -1.94997e-316 -0.335219 -8.69009e-317 0.253765)
(0.139424 1.82169 -1.57657e-316 -0.244093 4.02186e-317 0.10467)
(0.214726 1.37731 -1.18391e-316 -0.240052 1.02209e-316 0.0253259)
(0.251134 0.95655 -8.45548e-317 -0.234419 1.28504e-316 -0.0167146)
(0.336646 0.606392 -5.57252e-317 -0.298991 1.35408e-316 -0.0376546)
(0.393347 0.347492 -3.28388e-317 -0.347722 1.32426e-316 -0.0456258)
(0.496225 0.154143 -1.48383e-317 -0.448881 1.24267e-316 -0.0473438)
(0.571107 0.0618195 -1.19572e-318 -0.526218 1.14094e-316 -0.044889)
(0.682241 0.03503 8.92332e-318 -0.639179 1.03027e-316 -0.0430619)
(0.747768 0.110687 1.61308e-317 -0.705671 9.22212e-317 -0.0420967)
(0.82887 0.253173 2.09958e-317 -0.781301 8.16524e-317 -0.0475694)
(0.82313 0.498841 2.39161e-317 -0.762925 7.18156e-317 -0.0602045)
(0.797206 0.789638 2.5267e-317 -0.70824 6.23064e-317 -0.0889656)
(0.62925 1.17515 2.51903e-317 -0.490686 5.33387e-317 -0.138565)
(0.401422 1.51998 2.3941e-317 -0.174588 4.43767e-317 -0.226834)
(0.0147832 1.92786 2.14153e-317 0.356326 3.54314e-317 -0.37111)
(-0.417692 2.10569 1.78609e-317 1.02999 2.60782e-317 -0.612299)
(-0.842866 2.29026 1.3261e-317 1.84652 1.63438e-317 -1.00366)
(-1.08329 2.02204 8.27132e-318 2.73139 7.23759e-318 -1.6481)
(-0.70945 1.73693 5.44319e-318 3.41624 1.36965e-318 -2.70679)
(-0.0837596 2.37126 -2.20391e-316 0.17803 -1.23117e-316 -0.0942701)
(-0.145677 1.82168 -1.8525e-316 0.236645 -6.04607e-318 -0.0909683)
(-0.10497 1.32712 -1.44802e-316 0.189081 5.54493e-317 -0.0841103)
(-0.0533845 0.904622 -1.08878e-316 0.129366 8.58254e-317 -0.0759815)
(0.0545778 0.531335 -7.76257e-317 0.0123082 9.81559e-317 -0.0668861)
(0.158398 0.277925 -5.24577e-317 -0.100479 1.00675e-316 -0.0579183)
(0.299657 0.0675947 -3.235e-317 -0.249994 9.75379e-317 -0.0496629)
(0.435518 -0.0227413 -1.68955e-317 -0.39302 9.16749e-317 -0.0424977)
(0.601119 -0.0618268 -5.20844e-318 -0.562954 8.4302e-317 -0.0381654)
(0.742772 0.0245752 3.28533e-318 -0.70543 7.65562e-317 -0.0373418)
(0.9023 0.174751 9.16395e-318 -0.85861 6.8629e-317 -0.0436901)
(0.983859 0.466695 1.28137e-317 -0.924247 6.10206e-317 -0.0596119)
(1.06181 0.81199 1.45339e-317 -0.968946 5.35456e-317 -0.0928672)
(0.965706 1.31178 1.44711e-317 -0.814338 4.64212e-317 -0.151368)
(0.849443 1.78107 1.26592e-317 -0.595911 3.92942e-317 -0.253533)
(0.455727 2.38139 9.03857e-318 -0.0320197 3.21261e-317 -0.423707)
(0.0959205 2.73161 3.37465e-318 0.614095 2.44257e-317 -0.710015)
(-0.49107 3.1108 -4.14999e-318 1.67525 1.56052e-317 -1.18418)
(-0.746927 2.93828 -1.37102e-317 2.72131 4.8159e-318 -1.97438)
(-0.619663 2.62987 -2.17083e-317 3.88702 -1.05906e-317 -3.26736)
(-0.170753 2.2939 -2.11796e-316 0.606215 -1.36494e-316 -0.435463)
(-0.305038 1.76551 -1.83435e-316 0.595864 -3.87415e-317 -0.290825)
(-0.280551 1.27221 -1.47276e-316 0.4779 1.77802e-317 -0.197349)
(-0.216318 0.855398 -1.13925e-316 0.354367 4.95014e-317 -0.138049)
(-0.0856119 0.478056 -8.43604e-317 0.184714 6.55694e-317 -0.0991025)
(0.0461297 0.207626 -6.00505e-317 0.026844 7.24225e-317 -0.0729737)
(0.222763 -0.0211327 -4.03927e-317 -0.167632 7.35345e-317 -0.0551304)
(0.396497 -0.151101 -2.4985e-317 -0.353852 7.14409e-317 -0.0426453)
(0.615625 -0.21718 -1.31318e-317 -0.579738 6.73995e-317 -0.0358871)
(0.812047 -0.184341 -4.27974e-318 -0.778041 6.24687e-317 -0.0340059)
(1.049 -0.0502298 2.07528e-318 -1.008 5.70302e-317 -0.0410031)
(1.20125 0.193683 6.29268e-318 -1.14294 5.15622e-317 -0.0583129)
(1.36982 0.570322 8.66435e-318 -1.27444 4.60912e-317 -0.0953797)
(1.3336 1.06564 9.29928e-318 -1.17385 4.08218e-317 -0.15975)
(1.27108 1.66709 8.27249e-318 -0.997118 3.56024e-317 -0.273958)
(0.852624 2.36967 5.45521e-318 -0.387862 3.03458e-317 -0.464762)
(0.406806 3.0001 6.49795e-319 0.385166 2.46165e-317 -0.791973)
(-0.382824 3.67369 -6.1258e-318 1.72609 1.74366e-317 -1.34326)
(-0.899641 3.91273 -1.52417e-317 3.19259 6.97042e-318 -2.29295)
(-0.924274 4.17967 -2.40132e-317 4.86495 -1.09767e-317 -3.94067)
(-0.293859 2.15893 -1.93691e-316 1.08938 -1.36087e-316 -0.795518)
(-0.519126 1.62135 -1.72338e-316 1.01139 -5.78129e-317 -0.492259)
(-0.545162 1.11768 -1.41843e-316 0.853217 -8.3572e-318 -0.308054)
(-0.471182 0.723925 -1.12458e-316 0.668518 2.2556e-317 -0.197336)
(-0.349843 0.341425 -8.56748e-317 0.478572 4.04506e-317 -0.12873)
(-0.194759 0.0755128 -6.31981e-317 0.28069 5.0085e-317 -0.085931)
(-0.0170162 -0.173899 -4.46771e-317 0.075025 5.41584e-317 -0.0580088)
(0.188112 -0.321789 -2.99466e-317 -0.148234 5.48253e-317 -0.0398788)
(0.421189 -0.419489 -1.84254e-317 -0.392143 5.32778e-317 -0.0290463)
(0.667722 -0.410389 -9.69536e-318 -0.642815 5.05165e-317 -0.0249072)
(0.943796 -0.298636 -3.322e-318 -0.914188 4.70174e-317 -0.0296073)
(1.17508 -0.0506132 1.00562e-318 -1.12905 4.32743e-317 -0.0460287)
(1.42362 0.354118 3.5162e-318 -1.34159 3.94469e-317 -0.0820346)
(1.48883 0.940342 4.36273e-318 -1.34094 3.57858e-317 -0.147888)
(1.5548 1.68572 3.53379e-318 -1.28951 3.22855e-317 -0.265291)
(1.20676 2.64011 1.08199e-318 -0.740097 2.89404e-317 -0.466665)
(0.917308 3.58273 -3.34113e-318 -0.102001 2.53642e-317 -0.815306)
(0.0552171 4.67071 -9.49139e-318 1.35844 2.05562e-317 -1.41366)
(-0.348467 5.2937 -1.81152e-317 2.7987 1.17252e-317 -2.45023)
(-0.643475 5.83096 -2.76167e-317 4.85552 -7.63263e-318 -4.21204)
(-0.405785 1.94301 -1.58507e-316 1.55456 -1.23894e-316 -1.14878)
(-0.66204 1.46245 -1.45913e-316 1.34363 -6.76457e-317 -0.681595)
(-0.706858 0.998107 -1.23823e-316 1.11592 -2.67963e-317 -0.40906)
(-0.61419 0.627078 -1.00699e-316 0.864244 1.67477e-318 -0.250054)
(-0.498488 0.258661 -7.88267e-317 0.653299 2.01018e-317 -0.154811)
(-0.332996 -0.0184679 -5.97932e-317 0.430202 3.14518e-317 -0.0972057)
(-0.15332 -0.283976 -4.37652e-317 0.214258 3.76841e-317 -0.0609382)
(0.0645532 -0.473297 -3.06777e-317 -0.0268443 4.05075e-317 -0.0377089)
(0.319055 -0.609029 -2.02189e-317 -0.295377 4.10044e-317 -0.0236771)
(0.595672 -0.668295 -1.20668e-317 -0.578832 4.00858e-317 -0.0168404)
(0.926951 -0.60036 -5.90269e-318 -0.907477 3.82785e-317 -0.0194737)
(1.21997 -0.439346 -1.46196e-318 -1.18659 3.60707e-317 -0.0333752)
(1.56784 -0.0455853 1.48549e-318 -1.50048 3.37084e-317 -0.0673576)
(1.7251 0.465502 3.09776e-318 -1.59467 3.14598e-317 -0.130429)
(1.90978 1.31611 3.50214e-318 -1.66356 2.94145e-317 -0.246227)
(1.62101 2.28688 2.7867e-318 -1.17483 2.76108e-317 -0.446183)
(1.34568 3.5797 9.19812e-319 -0.546671 2.57534e-317 -0.799005)
(0.332031 4.94493 -1.97767e-318 1.08157 2.30036e-317 -1.4136)
(-0.366862 6.24367 -6.28306e-318 2.88192 1.67367e-317 -2.51505)
(-1.0165 7.62317 -1.23488e-317 5.54696 1.89531e-318 -4.53046)
(-0.481341 1.61848 -1.2838e-316 1.91861 -1.04365e-316 -1.43727)
(-0.816918 1.20716 -1.21537e-316 1.65491 -6.53246e-317 -0.837993)
(-0.918112 0.80453 -1.05892e-316 1.40813 -3.35478e-317 -0.490019)
(-0.830257 0.486876 -8.81383e-317 1.12058 -9.20147e-318 -0.290322)
(-0.741265 0.145941 -7.05727e-317 0.914324 7.92781e-318 -0.173059)
(-0.574499 -0.123354 -5.48361e-317 0.678176 1.93583e-317 -0.103677)
(-0.418747 -0.398851 -4.12039e-317 0.479149 2.63546e-317 -0.0604016)
(-0.197815 -0.613838 -2.98386e-317 0.230793 3.01922e-317 -0.032978)
(0.0323743 -0.784473 -2.05455e-317 -0.0170703 3.17886e-317 -0.015304)
(0.324446 -0.889296 -1.31569e-317 -0.318951 3.19374e-317 -0.00549476)
(0.640275 -0.866728 -7.44098e-318 -0.636113 3.1154e-317 -0.00416217)
(0.983313 -0.74769 -3.19492e-318 -0.969283 2.98963e-317 -0.0140299)
(1.34855 -0.373251 -2.41262e-319 -1.30674 2.84415e-317 -0.0418085)
(1.61743 0.162793 1.61748e-318 -1.51962 2.70599e-317 -0.0978056)
(1.88966 1.11006 2.48131e-318 -1.68751 2.58856e-317 -0.202144)
(1.77262 2.30432 2.6193e-318 -1.38525 2.50139e-317 -0.387369)
(1.69628 3.95288 2.02757e-318 -0.980417 2.42155e-317 -0.715863)
(0.825328 5.87683 1.03739e-318 0.470446 2.2975e-317 -1.29577)
(0.422739 7.80733 -5.93437e-319 1.90772 1.90281e-317 -2.33046)
(-0.356945 9.77445 -4.26586e-318 4.48931 8.3545e-318 -4.13236)
(-0.588125 1.33686 -9.69515e-317 2.27659 -8.86711e-317 -1.68847)
(-0.906897 0.999827 -9.51342e-317 1.86271 -6.52291e-317 -0.955816)
(-1.03315 0.670345 -8.56877e-317 1.57894 -4.06009e-317 -0.545785)
(-0.933072 0.383691 -7.32055e-317 1.2488 -1.94775e-317 -0.315726)
(-0.871223 0.0741137 -6.01778e-317 1.05459 -3.28476e-318 -0.183369)
(-0.711879 -0.195237 -4.7934e-317 0.818175 8.27763e-318 -0.106296)
(-0.577211 -0.474256 -3.69861e-317 0.636072 1.59375e-317 -0.0588611)
(-0.367241 -0.713185 -2.7538e-317 0.395873 2.06635e-317 -0.0286314)
(-0.146952 -0.914449 -1.95896e-317 0.155604 2.32363e-317 -0.00865144)
(0.141771 -1.07315 -1.30608e-317 -0.145709 2.43664e-317 0.00393793)
(0.473214 -1.1061 -7.8212e-318 -0.481781 2.45443e-317 0.0085669)
(0.84351 -1.08161 -3.71606e-318 -0.847109 2.41953e-317 0.00359957)
(1.28103 -0.768211 -5.71021e-319 -1.26334 2.35938e-317 -0.0176807)
(1.63958 -0.365875 1.80438e-318 -1.57621 2.29879e-317 -0.063374)
(2.06622 0.592663 3.63083e-318 -1.91377 2.25031e-317 -0.152445)
(2.08712 1.6575 5.15817e-318 -1.7755 2.22255e-317 -0.311614)
(2.16355 3.56938 6.69382e-318 -1.56605 2.19691e-317 -0.597503)
(1.2483 5.52945 8.37737e-318 -0.142843 2.14344e-317 -1.10546)
(0.599843 8.1801 1.05043e-317 1.44479 1.92783e-317 -2.04463)
(-0.843019 10.876 1.07397e-317 4.7243 1.42014e-317 -3.88128)
(-0.610898 0.904601 -7.48849e-317 2.42141 -6.4004e-317 -1.81051)
(-1.00948 0.702073 -7.39564e-317 2.02308 -5.15537e-317 -1.01359)
(-1.17757 0.500883 -6.73524e-317 1.74626 -3.49621e-317 -0.568686)
(-1.09925 0.281451 -5.88096e-317 1.42201 -1.88915e-317 -0.32276)
(-1.05787 0.0294126 -4.94643e-317 1.24138 -5.52342e-318 -0.183518)
(-0.909269 -0.226418 -4.03882e-317 1.01286 4.47171e-318 -0.103589)
(-0.803211 -0.49302 -3.18822e-317 0.85773 1.13661e-317 -0.0545192)
(-0.609301 -0.746055 -2.42776e-317 0.632425 1.57907e-317 -0.023124)
(-0.437713 -0.962818 -1.76517e-317 0.439017 1.83568e-317 -0.0013042)
(-0.169077 -1.16019 -1.20529e-317 0.155514 1.96383e-317 0.0135636)
(0.0945529 -1.23674 -7.43703e-318 -0.116689 2.00566e-317 0.0221358)
(0.46595 -1.27538 -3.71389e-318 -0.488298 1.99707e-317 0.0223482)
(0.835459 -1.02273 -7.68895e-319 -0.845186 1.96242e-317 0.00972665)
(1.27419 -0.671984 1.58406e-318 -1.25047 1.92264e-317 -0.0237155)
(1.67907 0.281065 3.50228e-318 -1.58764 1.88833e-317 -0.0914285)
(1.94352 1.4476 5.29716e-318 -1.72727 1.86719e-317 -0.216251)
(2.14168 3.60982 7.19339e-318 -1.70406 1.84361e-317 -0.437613)
(1.68049 6.11996 9.43412e-318 -0.852853 1.80784e-317 -0.827634)
(1.45274 9.50157 1.22925e-317 0.0653144 1.69225e-317 -1.51806)
(0.354715 13.1181 1.37163e-317 2.33336 1.48961e-317 -2.68807)
(-0.675278 0.663437 -5.73154e-317 2.53755 -6.33568e-317 -1.86228)
(-1.00624 0.501803 -5.71184e-317 2.01962 -5.677e-317 -1.01338)
(-1.19949 0.360918 -5.26029e-317 1.75705 -4.17626e-317 -0.557559)
(-1.1208 0.16476 -4.70072e-317 1.43216 -2.59659e-317 -0.311361)
(-1.11045 -0.0582639 -4.0586e-317 1.28485 -1.28766e-317 -0.174399)
(-0.980073 -0.297083 -3.40098e-317 1.07678 -2.92149e-318 -0.0967064)
(-0.900056 -0.550961 -2.75306e-317 0.949249 4.03556e-318 -0.0491923)
(-0.732059 -0.794158 -2.14609e-317 0.750455 8.71593e-318 -0.0183951)
(-0.58963 -1.01741 -1.59796e-317 0.585925 1.16713e-317 0.00370555)
(-0.355148 -1.22857 -1.11865e-317 0.335094 1.34471e-317 0.0200542)
(-0.116898 -1.34819 -7.09907e-318 0.0855588 1.44153e-317 0.0313391)
(0.230849 -1.45017 -3.66401e-318 -0.267222 1.48883e-317 0.036373)
(0.616108 -1.29194 -7.74809e-319 -0.647364 1.50685e-317 0.0312553)
(1.09149 -1.08641 1.72274e-318 -1.10192 1.51215e-317 0.0104298)
(1.62723 -0.254236 4.04151e-318 -1.5907 1.51108e-317 -0.0365223)
(2.03924 0.64913 6.38674e-318 -1.91529 1.50708e-317 -0.123943)
(2.51618 2.80875 9.11231e-318 -2.23972 1.48676e-317 -0.276461)
(2.1068 4.9271 1.21932e-317 -1.5729 1.44392e-317 -0.533894)
(1.84299 8.70959 1.61037e-317 -0.85293 1.38152e-317 -0.990059)
(-0.376701 12.2744 1.90316e-317 2.35128 1.43534e-317 -1.97458)
(-0.654193 0.243858 -3.19839e-317 2.41135 -3.21126e-317 -1.75715)
(-1.06854 0.239291 -3.3732e-317 2.01129 -3.51308e-317 -0.942748)
(-1.26061 0.268968 -3.3071e-317 1.77129 -2.73857e-317 -0.51068)
(-1.20703 0.132304 -3.19657e-317 1.48862 -1.6876e-317 -0.281591)
(-1.18983 -0.00733413 -2.94793e-317 1.34585 -7.40099e-318 -0.156016)
(-1.06541 -0.223136 -2.59109e-317 1.15093 -3.74798e-320 -0.0855209)
(-1.00387 -0.430385 -2.16934e-317 1.0461 5.1997e-318 -0.0422277)
(-0.857043 -0.65942 -1.72807e-317 0.870846 8.72628e-318 -0.0138033)
(-0.770587 -0.857671 -1.30289e-317 0.763023 1.09461e-317 0.0075639)
(-0.580676 -1.07068 -9.14774e-318 0.556382 1.22426e-317 0.0242946)
(-0.441608 -1.19925 -5.74471e-318 0.403897 1.28979e-317 0.0377108)
(-0.144688 -1.33853 -2.82391e-318 0.0981841 1.31425e-317 0.0465044)
(0.0990754 -1.2442 -3.41473e-319 -0.147644 1.31336e-317 0.0485683)
(0.581745 -1.12226 1.82777e-318 -0.620847 1.29929e-317 0.0391017)
(0.952428 -0.40218 3.79968e-318 -0.965222 1.2766e-317 0.0127936)
(1.59668 0.444017 5.7705e-318 -1.55739 1.24671e-317 -0.0392886)
(1.96348 2.59752 7.88138e-318 -1.84179 1.19866e-317 -0.121693)
(2.34036 5.06179 1.01716e-317 -2.10323 1.13102e-317 -0.237132)
(2.35372 9.40792 1.27585e-317 -2.00356 1.07094e-317 -0.350159)
(1.5029 14.3328 1.47688e-317 -1.23881 1.14732e-317 -0.264087)
(-0.627164 0.136217 -2.05863e-317 2.18216 -5.32765e-317 -1.55499)
(-0.912588 0.0776409 -2.37846e-317 1.72287 -5.02812e-317 -0.810282)
(-1.11441 0.079274 -2.46214e-317 1.54628 -3.7978e-317 -0.431869)
(-1.07173 -0.0510024 -2.50294e-317 1.30771 -2.42943e-317 -0.235974)
(-1.07582 -0.196125 -2.38106e-317 1.20591 -1.44031e-317 -0.130086)
(-0.977678 -0.371671 -2.14437e-317 1.04877 -7.05554e-318 -0.0710959)
(-0.934414 -0.559693 -1.8302e-317 0.969035 -2.07351e-318 -0.0346216)
(-0.821136 -0.742649 -1.48494e-317 0.831337 1.39662e-318 -0.0102007)
(-0.762991 -0.923717 -1.1423e-317 0.754108 3.73318e-318 0.00888289)
(-0.622947 -1.10763 -8.22444e-318 0.598218 5.32101e-318 0.0247288)
(-0.524492 -1.25311 -5.35863e-318 0.485949 6.37699e-318 0.0385425)
(-0.293419 -1.40834 -2.83535e-318 0.243862 7.08047e-318 0.0495565)
(-0.082121 -1.41005 -6.06693e-319 0.0258281 7.53627e-318 0.0562929)
(0.344784 -1.39994 1.42002e-318 -0.400511 7.8231e-318 0.0557274)
(0.769689 -0.915056 3.38026e-318 -0.814741 7.9602e-318 0.0450517)
(1.43097 -0.385382 5.35037e-318 -1.45241 7.9425e-318 0.0214361)
(2.11184 1.37608 7.50535e-318 -2.10449 7.70888e-318 -0.00734601)
(2.45095 3.01534 9.64156e-318 -2.4375 7.23397e-318 -0.0134514)
(2.88699 6.98426 1.18721e-317 -2.97878 6.99044e-318 0.0917839)
(0.213202 10.1693 1.37625e-317 -0.545355 8.40827e-318 0.332152)
(-0.56665 -0.185301 2.32927e-317 1.7733 -1.569e-319 -1.20665)
(-0.947245 -0.0858377 9.78092e-318 1.56579 -1.4828e-317 -0.61855)
(-1.07096 0.12167 -2.74453e-318 1.39716 -1.31172e-317 -0.326207)
(-1.0332 0.0416311 -9.62155e-318 1.21083 -7.67972e-318 -0.177631)
(-0.99952 0.0275322 -1.30971e-317 1.09754 -2.47894e-318 -0.098016)
(-0.888884 -0.11144 -1.34002e-317 0.942763 1.58574e-318 -0.0538789)
(-0.856485 -0.199714 -1.22069e-317 0.882629 4.58944e-318 -0.0261448)
(-0.757358 -0.337716 -1.012e-317 0.76455 6.69179e-318 -0.00719184)
(-0.751863 -0.437648 -7.78746e-318 0.743515 8.10642e-318 0.00834819)
(-0.659512 -0.569698 -5.46825e-318 0.63769 8.99439e-318 0.021822)
(-0.662206 -0.65818 -3.34653e-318 0.627712 9.4933e-318 0.0344946)
(-0.509809 -0.768519 -1.46186e-318 0.46417 9.71008e-318 0.0456396)
(-0.470149 -0.770594 1.83886e-319 0.415366 9.72216e-318 0.0547826)
(-0.117979 -0.761719 1.65801e-318 0.0583552 9.58549e-318 0.0596241)
(0.0303294 -0.410463 3.01311e-318 -0.0902281 9.31495e-318 0.0598987)
(0.804973 0.0209707 4.3325e-318 -0.860069 8.90861e-318 0.0550962)
(1.05555 1.464 5.6029e-318 -1.11706 8.31285e-318 0.0615058)
(2.38587 3.122 6.72995e-318 -2.51198 7.50627e-318 0.126106)
(2.42814 7.0532 7.47367e-318 -2.8762 6.83726e-318 0.448065)
(2.95426 12.2666 8.01833e-318 -4.74494 6.90407e-318 1.79068)
(-0.357831 -0.105359 6.85096e-318 1.12291 -4.30819e-317 -0.765076)
(-0.49515 -0.211982 -1.03496e-318 0.880424 -3.35577e-317 -0.385274)
(-0.61402 -0.230596 -7.0575e-318 0.816163 -2.40072e-317 -0.202143)
(-0.60104 -0.311558 -1.01108e-317 0.711521 -1.51187e-317 -0.110481)
(-0.593923 -0.420431 -1.08941e-317 0.655393 -1.04485e-317 -0.0614696)
(-0.539097 -0.495402 -1.04071e-317 0.573442 -7.21912e-318 -0.034345)
(-0.517846 -0.601136 -9.16839e-318 0.534715 -5.20819e-318 -0.0168691)
(-0.465666 -0.676526 -7.6085e-318 0.470298 -3.73537e-318 -0.00463222)
(-0.459891 -0.774735 -5.97026e-318 0.453994 -2.66492e-318 0.00589723)
(-0.412332 -0.868223 -4.39612e-318 0.396919 -1.8278e-318 0.0154125)
(-0.411583 -0.971192 -2.95561e-318 0.38674 -1.16997e-318 0.0248438)
(-0.32911 -1.08984 -1.66001e-318 0.295358 -6.40314e-319 0.0337517)
(-0.290903 -1.17482 -4.88769e-319 0.248877 -2.18066e-319 0.0420257)
(-0.0825104 -1.27508 5.97148e-319 0.0341545 1.13131e-319 0.0483559)
(0.0803318 -1.19713 1.66175e-318 -0.133488 3.59373e-319 0.0531566)
(0.553976 -1.10426 2.69459e-318 -0.610832 5.23359e-319 0.0568555)
(1.02164 -0.378951 3.73072e-318 -1.09531 6.28422e-319 0.0736758)
(1.63857 0.241463 4.55773e-318 -1.78175 6.98584e-319 0.143179)
(2.71999 2.63112 5.00613e-318 -3.13921 9.58255e-319 0.41922)
(0.219115 3.53479 5.35234e-318 -1.39542 2.05737e-318 1.1763)
(-0.185049 -0.430756 4.89436e-317 0.434156 3.23685e-317 -0.249107)
(-0.500018 -0.245486 2.99689e-317 0.630093 6.17749e-318 -0.130075)
(-0.444384 0.0680526 1.04879e-317 0.513359 1.51426e-318 -0.0689742)
(-0.403153 0.0704566 2.85661e-318 0.44153 7.62091e-319 -0.0383768)
(-0.353253 0.236053 -1.50984e-318 0.375054 2.64899e-318 -0.0218007)
(-0.269499 0.205223 -2.66583e-318 0.282127 4.56978e-318 -0.0126271)
(-0.269031 0.300392 -2.87508e-318 0.27545 6.49142e-318 -0.00641898)
(-0.219277 0.283957 -2.41388e-318 0.221234 8.01853e-318 -0.00195664)
(-0.261859 0.351162 -1.79907e-318 0.259718 9.21033e-318 0.00214138)
(-0.243318 0.368521 -1.12886e-318 0.237342 1.00411e-317 0.00597658)
(-0.324434 0.427977 -5.18161e-319 0.314452 1.05729e-317 0.00998207)
(-0.30608 0.502127 2.11608e-320 0.292118 1.08438e-317 0.0139622)
(-0.421599 0.572641 4.75756e-319 0.403609 1.08929e-317 0.0179901)
(-0.322704 0.748625 8.74447e-319 0.301134 1.07553e-317 0.0215701)
(-0.461461 0.870709 1.22613e-318 0.436391 1.0435e-317 0.0250698)
(-0.0395585 1.23226 1.57056e-318 0.011079 9.9407e-318 0.0284795)
(-0.210275 1.53443 1.86792e-318 0.172379 9.2745e-318 0.037896)
(1.25388 2.24299 2.05264e-318 -1.32474 8.45724e-318 0.0708558)
(0.762053 3.26653 1.90984e-318 -1.0014 7.67331e-318 0.239352)
(3.84531 6.67484 1.71451e-318 -5.20049 6.74075e-318 1.35518)
)
;

boundaryField
{
    cavity
    {
        type            mySigma;
    }
    lid
    {
        type            fixedValue;
        value           uniform (0.1 -0.3 0 -0.1 0 0);
    }
    frontAndBack
    {
        type            empty;
    }
}


// ************************************************************************* //
