/*--------------------------------*- C++ -*----------------------------------*\
| =========                 |                                                 |
| \\      /  F ield         | foam-extend: Open Source CFD                    |
|  \\    /   O peration     | Version:  3.0                                   |
|   \\  /    A nd           | Web:         http://www.extend-project.de       |
|    \\/     M anipulation  |                                                 |
\*---------------------------------------------------------------------------*/
FoamFile
{
    version     2.0;
    format      ascii;
    class       volVectorField;
    location    "64";
    object      u;
}
// * * * * * * * * * * * * * * * * * * * * * * * * * * * * * * * * * * * * * //

dimensions      [0 0 0 0 0 0 0];

internalField   nonuniform List<vector> 
2688
(
(0.2640474911 -0.05221397796 7.323212565e-17)
(0.1739996271 -0.04189309919 -9.542749243e-17)
(0.557195422 -0.03667856917 1.812881147e-16)
(0.4299926295 -0.02776017252 -6.855944616e-17)
(0.7278739806 -0.02656173726 9.998131787e-17)
(0.5960627971 -0.01925263698 -2.491733455e-17)
(0.8347659275 -0.01950900277 6.542555169e-18)
(0.7076889233 -0.01387795843 5.805339619e-17)
(0.9059666555 -0.01434954069 -6.378295343e-17)
(0.7843314231 -0.01030035236 7.953310481e-17)
(0.9558161363 -0.0104422314 -2.520922235e-17)
(0.8374708363 -0.007781490883 4.245693449e-17)
(0.9920514538 -0.007396315276 3.173929593e-17)
(0.8742143412 -0.005902316952 -9.108477453e-17)
(1.019060256 -0.004956687266 1.048762425e-16)
(0.8991097809 -0.004413490636 -1.104770409e-16)
(1.039415725 -0.002955297358 1.055260548e-16)
(0.9151689645 -0.00314642076 -7.05393279e-17)
(1.054610456 -0.001285720711 1.72261569e-17)
(0.9244976219 -0.001958059428 1.917021786e-17)
(1.06540925 9.094763648e-05 -3.116447687e-17)
(0.9286932179 -0.0007012198178 1.168235584e-17)
(1.071991637 0.001129497941 -3.636469523e-17)
(0.9291274973 0.001644845161 8.979073097e-18)
(0.2757461978 -0.155777091 -2.289745153e-16)
(0.1833620381 -0.1251751014 -7.857381393e-19)
(0.5654358567 -0.1097575531 -3.823006692e-16)
(0.4362234403 -0.08329204086 4.378199565e-17)
(0.7338727705 -0.07987650345 -1.84905938e-16)
(0.600419555 -0.0581574198 -3.004814254e-17)
(0.8392062657 -0.05909075591 -1.314925548e-17)
(0.7108678241 -0.04236084427 -1.448483865e-16)
(0.9092692584 -0.04393296619 7.371365337e-17)
(0.7867301553 -0.0319225656 -1.22921289e-16)
(0.9582581854 -0.03249898529 -5.026622303e-18)
(0.8393237113 -0.0246397461 -1.020683312e-16)
(0.9938215085 -0.0236212177 2.176471975e-17)
(0.8756627208 -0.01925798638 2.126299663e-17)
(1.020288883 -0.01653275234 -4.355794909e-17)
(0.9002402192 -0.01502316973 8.249260581e-17)
(1.040197642 -0.01073376673 -7.761917786e-17)
(0.916031641 -0.0114237957 1.810928157e-17)
(1.0550238 -0.005928009691 8.968629854e-17)
(0.9251099706 -0.008040567927 -1.180358421e-16)
(1.065530893 -0.001995169625 1.121764525e-16)
(0.9290361162 -0.004455880391 -1.883288995e-17)
(1.071911922 0.0009916376676 5.303179946e-17)
(0.9290950108 0.0005793819126 3.310170352e-17)
(0.298922978 -0.257348408 4.173352952e-16)
(0.2019963455 -0.2068121522 1.104881077e-16)
(0.5817681712 -0.1814045638 4.808034139e-16)
(0.4486257031 -0.1377064387 -2.166167314e-17)
(0.7457656982 -0.1321135807 2.277224296e-16)
(0.609081663 -0.09625640298 1.063491588e-16)
(0.8480147898 -0.09785646626 -8.930524276e-18)
(0.717183861 -0.07023116833 2.256977024e-16)
(0.9158317909 -0.07289645811 -6.217828696e-17)
(0.7915024789 -0.05306270876 2.060360293e-16)
(0.9631317317 -0.0540865707 3.158193978e-17)
(0.8430260937 -0.04111175943 1.243881541e-16)
(0.9973887866 -0.03949791948 -2.634620853e-17)
(0.8785820092 -0.03230698391 -5.296587449e-17)
(1.022816414 -0.02786246587 6.722198561e-17)
(0.9025527925 -0.02540431838 -1.904851978e-16)
(1.041871956 -0.018348112 2.144784812e-16)
(0.9178426964 -0.01956444431 -1.691000545e-16)
(1.055974278 -0.01045194282 -2.281832282e-17)
(0.9264732351 -0.01410989702 5.408668833e-17)
(1.06584575 -0.003948167644 -5.827709666e-17)
(0.9299693742 -0.00836579971 -6.684519943e-17)
(1.071665387 0.001085800077 -5.390924265e-17)
(0.929546272 -0.0008608441605 -7.249938496e-18)
(0.3333675209 -0.3557076686 -4.536243379e-16)
(0.2296557504 -0.2859181245 -2.718351241e-16)
(0.6060674138 -0.2508132985 -5.961526062e-16)
(0.4670568491 -0.1904562741 2.566383614e-17)
(0.7634810323 -0.1827499752 -3.286809122e-16)
(0.6219857159 -0.1332124756 -6.638555216e-17)
(0.8611549464 -0.1354513972 -7.782498974e-17)
(0.7266208465 -0.09728804123 -1.779382948e-16)
(0.9256389272 -0.1009974386 -8.186771463e-17)
(0.7986533424 -0.07360494746 -1.588890169e-16)
(0.970425803 -0.07504112724 -9.918507034e-17)
(0.8485852011 -0.05713079335 -1.379394607e-16)
(1.00273034 -0.05491587806 1.047489211e-16)
(0.8829668462 -0.04499921093 -2.137414853e-17)
(1.02659552 -0.03886929686 6.298534405e-17)
(0.9060138511 -0.03548343926 8.98031551e-17)
(1.044369005 -0.02575719947 -1.002197729e-16)
(0.9205159516 -0.02741108904 8.561779482e-17)
(1.057410597 -0.01490192733 5.808813694e-17)
(0.9284008318 -0.01983182319 -1.036396766e-16)
(1.066429014 -0.006017427955 1.271526218e-16)
(0.9311031997 -0.01181203974 8.736890904e-17)
(1.07163928 0.0007829772661 -2.76657728e-17)
(0.9296799906 -0.001741593142 1.675909977e-16)
(0.3785745798 -0.4495719916 4.869726258e-16)
(0.2659841493 -0.3613610224 2.426699032e-16)
(0.6379358347 -0.3170271511 7.074592829e-16)
(0.491251114 -0.2407422827 -5.876158353e-17)
(0.7866981098 -0.2310310985 3.193731511e-16)
(0.6389030541 -0.1684226462 1.318610581e-16)
(0.878363519 -0.1712837001 3.205251483e-17)
(0.7389742153 -0.1230464846 1.876318058e-16)
(0.9384741962 -0.1277705229 1.554519165e-16)
(0.8080027044 -0.09314318073 1.76668402e-16)
(0.9799710447 -0.0949970977 -3.708289515e-17)
(0.8558506925 -0.07235306901 2.423625349e-16)
(1.009730098 -0.06959363878 -2.193273026e-16)
(0.8887047806 -0.05705502142 1.609518102e-16)
(1.031570223 -0.04934484496 -2.345236418e-16)
(0.91056352 -0.04507074576 -7.785769698e-17)
(1.047687428 -0.03279914421 4.116547724e-17)
(0.9240740281 -0.03492936404 -7.209799348e-17)
(1.059338223 -0.01908823104 -2.048169734e-17)
(0.9310572446 -0.0254491938 3.43844853e-17)
(1.067156787 -0.007832811606 -1.384321464e-16)
(0.9328650743 -0.01547073165 -5.624642224e-18)
(1.071312531 0.0008952488487 -1.760996619e-16)
(0.9304573914 -0.003208303684 4.568308883e-17)
(0.43403043 -0.5377978682 -3.754037338e-16)
(0.3105547336 -0.4323197502 -2.21033604e-16)
(0.6770652861 -0.3792870676 -5.260195368e-16)
(0.5209603455 -0.2880610488 -2.601153057e-17)
(0.8152360451 -0.2764508455 -1.889635235e-16)
(0.6597089511 -0.2015743996 -2.543418978e-16)
(0.8995432097 -0.2050059723 6.380955525e-17)
(0.7541981407 -0.1473192083 -2.569525183e-16)
(0.9542954206 -0.1529780567 -3.039149359e-16)
(0.8195499698 -0.111573798 5.064465441e-17)
(0.9917556242 -0.1137957104 -2.904538565e-17)
(0.8648415571 -0.08672832721 -1.176772475e-16)
(1.01838378 -0.08342746941 6.371793106e-17)
(0.8958118224 -0.06844716045 2.544630677e-17)
(1.037725936 -0.05922457976 7.758068896e-17)
(0.9161875907 -0.05411521789 1.478866494e-16)
(1.051802235 -0.03945811501 1.303216265e-16)
(0.9284282551 -0.04195225096 -4.63391112e-17)
(1.061771494 -0.02311011637 1.311217829e-16)
(0.934201022 -0.03050799545 -8.841967585e-17)
(1.068243787 -0.009772196554 2.454458795e-16)
(0.9347032742 -0.01837961248 -1.175165753e-17)
(1.071457001 0.000441139704 2.202231468e-16)
(0.9307340836 -0.003934790407 -4.573663738e-17)
(0.4989968216 -0.6192476161 -6.035917321e-17)
(0.3627594204 -0.4977883737 9.748041283e-17)
(0.7228702621 -0.4367469442 5.382627055e-16)
(0.5557347352 -0.3317008473 -7.293613046e-17)
(0.8486117676 -0.3183549922 6.777143583e-17)
(0.6840322612 -0.2321336153 2.855994993e-16)
(0.9242866822 -0.2361099883 9.26966913e-18)
(0.771966499 -0.1696776099 -2.760994672e-17)
(0.9727555792 -0.1762215767 4.466496822e-16)
(0.8330027669 -0.12853467 -2.191681748e-16)
(1.00548786 -0.1311235463 -1.160240676e-16)
(0.8752987576 -0.09994366698 3.21692338e-16)
(1.028457097 -0.09617437189 -2.709226337e-16)
(0.9040696446 -0.07891482145 2.618205229e-16)
(1.044889359 -0.0683229705 -3.786766617e-16)
(0.9227273687 -0.06244320985 1.572827722e-16)
(1.056593013 -0.04557263921 -3.554923033e-16)
(0.9335206417 -0.04849406692 1.599884484e-16)
(1.064592651 -0.02674119756 -1.756214547e-16)
(0.9379563873 -0.0354248652 1.195467096e-17)
(1.069406263 -0.01132970964 -1.718991891e-16)
(0.9371077619 -0.0216821439 -2.335892769e-16)
(1.071201921 0.0006895296745 1.526944507e-16)
(0.9315225151 -0.005442334036 -5.839554015e-16)
(0.5726853817 -0.6929176888 6.146955202e-16)
(0.421999955 -0.5570404158 -3.929268634e-16)
(0.7748676134 -0.4887364632 6.631755952e-17)
(0.5952280685 -0.371212953 -3.654656271e-16)
(0.8865401058 -0.3562802647 2.42537502e-16)
(0.7116950229 -0.2598159274 -4.128785721e-16)
(0.952442984 -0.2642668433 1.813401531e-16)
(0.7922136351 -0.1899463019 -2.97113065e-17)
(0.9937973869 -0.1972684281 -8.765233445e-17)
(0.8483680126 -0.143926451 1.156485132e-16)
(1.021172744 -0.1468185607 2.035130012e-16)
(0.8872724579 -0.1119512294 -2.875393222e-16)
(1.039991091 -0.1077220818 1.522318904e-16)
(0.9135468666 -0.0884338394 -2.551455243e-16)
(1.053118159 -0.07656455901 3.968530578e-16)
(0.9302410783 -0.07000288133 -3.686367827e-16)
(1.062130827 -0.05111722531 4.959510606e-16)
(0.9393494207 -0.05435744247 -3.90511812e-16)
(1.06792391 -0.03008087364 3.738531516e-16)
(0.9421548132 -0.0396053186 -3.028744132e-16)
(1.070972793 -0.01296042134 5.596150593e-16)
(0.9395363382 -0.02399001897 -2.236202212e-16)
(1.071390979 0.0002939666792 1.866089394e-16)
(0.9321811606 -0.006144830344 1.099022135e-16)
(0.6541492603 -0.7578691203 -9.480561079e-16)
(0.4874671886 -0.609252113 4.176200546e-16)
(0.832309582 -0.5345627691 -4.212049985e-16)
(0.6388410198 -0.4060210016 4.389322976e-16)
(0.928399369 -0.3897082794 -7.138359347e-17)
(0.7422045065 -0.2841956017 6.666636593e-17)
(0.9834788255 -0.2890861458 -1.769426692e-16)
(0.8145043908 -0.2077879397 -6.221584552e-18)
(1.01695403 -0.21582141 -1.717938676e-16)
(0.8652472727 -0.1574650788 6.180872892e-18)
(1.038399524 -0.1606551308 -4.064101604e-16)
(0.9003947574 -0.1225050897 5.317107881e-16)
(1.052627842 -0.1179055751 -4.335980302e-16)
(0.9239098782 -0.09680192353 5.41537842e-16)
(1.062106063 -0.08383545696 -4.820410885e-16)
(0.9384454424 -0.07667699864 5.647058587e-16)
(1.068156324 -0.05599534239 -5.289626103e-16)
(0.9457218118 -0.05963109474 5.070053565e-16)
(1.071543888 -0.03293293883 -2.241771199e-16)
(0.9467787535 -0.0436297154 7.920235127e-17)
(1.072754342 -0.01402586168 -1.27547141e-16)
(0.9422083174 -0.02682453901 -2.816417422e-16)
(1.071941603 0.000898717062 4.651234397e-16)
(0.9325713432 -0.007704788329 -9.607658462e-16)
(0.7423765972 -0.8132905165 1.009971636e-15)
(0.5584018277 -0.6538265108 -1.028404354e-15)
(0.8945677154 -0.5736737146 1.184139517e-15)
(0.686133612 -0.4357435791 -8.171918501e-16)
(0.9738153837 -0.4182354782 4.575003897e-16)
(0.7753340365 -0.3050179248 -2.010573349e-16)
(1.017198607 -0.3102630481 3.120159732e-16)
(0.8387573739 -0.223033342 1.167105492e-16)
(1.042159577 -0.2316488158 3.653219107e-16)
(0.88365826 -0.1690430212 -1.283498613e-17)
(1.057194748 -0.1724555894 3.516690514e-16)
(0.9147492283 -0.1315400135 -3.217367101e-16)
(1.066455272 -0.1265836045 2.084433547e-16)
(0.9352816218 -0.1039709683 -5.171455551e-16)
(1.071974984 -0.09001913787 3.462675769e-16)
(0.9474786911 -0.08238776418 -7.3992348e-16)
(1.074796387 -0.06013139918 5.793028558e-16)
(0.952767843 -0.06411035249 -7.661635296e-16)
(1.075524628 -0.03535631706 4.497111681e-16)
(0.951947786 -0.04697762054 -4.032069682e-16)
(1.074586337 -0.01499746243 4.992559272e-16)
(0.9453579459 -0.02900716697 -2.109213551e-16)
(1.072157462 0.000996958225 1.841731913e-16)
(0.9333690298 -0.008205825994 3.17992735e-16)
(0.8362516676 -0.8584871052 -5.318240859e-16)
(0.6338504494 -0.6901635562 6.436197198e-16)
(0.9607655533 -0.605570993 -4.949594314e-16)
(0.7363995978 -0.4599769599 1.357029306e-16)
(1.022058841 -0.4415143499 -4.431691221e-17)
(0.8105001374 -0.3219992556 -2.104153408e-16)
(1.052969779 -0.327557109 -2.094250906e-16)
(0.864452144 -0.2354678501 -4.002158037e-16)
(1.068849997 -0.244585857 -3.544243118e-16)
(0.9031165765 -0.1784848833 -1.795524863e-16)
(1.077049587 -0.1821128256 -3.797513766e-16)
(0.9298786614 -0.1389067366 4.738418006e-16)
(1.081016466 -0.133700039 -4.567155395e-16)
(0.9472350919 -0.1098211848 7.824095195e-16)
(1.08232207 -0.09510884662 -3.993350476e-16)
(0.9569560066 -0.08707055149 9.084573991e-16)
(1.081705727 -0.0635529269 -5.66034489e-16)
(0.9601625975 -0.06784422191 8.057806107e-16)
(1.079588897 -0.03735161559 -3.375556882e-16)
(0.9574089453 -0.04989750404 1.767794919e-16)
(1.076312085 -0.01571338482 -6.861188823e-17)
(0.9487591587 -0.03111809957 -4.465286946e-16)
(1.072146043 0.001299778976 4.113523555e-16)
(0.9341586888 -0.00914433859 -7.839329177e-16)
(0.9345931923 -0.8928821866 4.088655464e-16)
(0.7129179869 -0.7178254392 -5.179842319e-16)
(1.030161049 -0.6298409768 5.160274412e-16)
(0.7891154449 -0.4784186023 -2.680624145e-16)
(1.072682907 -0.4592109508 2.404786026e-16)
(0.8474312239 -0.3349155378 1.968971572e-16)
(1.090559863 -0.3406895177 1.773831988e-16)
(0.891491485 -0.2449229223 5.280178831e-16)
(1.096952995 -0.2543972592 3.593273561e-16)
(0.9236470156 -0.1856653554 2.128047051e-16)
(1.098009319 -0.1894250302 1.904554017e-16)
(0.9458906242 -0.144512208 -2.692501461e-16)
(1.096436612 -0.1390753041 3.266305115e-16)
(0.9599262464 -0.1142745803 -6.080109607e-16)
(1.093317183 -0.09893800532 2.911555514e-16)
(0.9670484022 -0.09062986401 -9.03884339e-16)
(1.089066721 -0.06611480694 3.78240127e-16)
(0.9680629954 -0.07065941363 -5.768180007e-16)
(1.083904232 -0.03885675118 2.043898424e-16)
(0.9632935694 -0.05204093425 -3.772354684e-16)
(1.078051299 -0.01633335586 4.035784041e-16)
(0.9525777993 -0.03254347032 -1.381098596e-16)
(1.071849302 0.00130314522 2.268076271e-16)
(0.9353819469 -0.009475929526 1.424584833e-16)
(1.03617226 -0.9160575723 -1.073132073e-16)
(0.7945660092 -0.736466586 4.13771975e-17)
(1.101796309 -0.6462119417 1.186823495e-17)
(0.8435157637 -0.4908645005 -1.970593173e-16)
(1.124892657 -0.4711765936 -4.578655206e-17)
(0.8854918672 -0.3436505015 -7.651393088e-17)
(1.129273312 -0.349595254 -2.260123189e-16)
(0.9193020917 -0.2513309308 -4.183983541e-16)
(1.125838587 -0.2610745608 -2.302076758e-16)
(0.9447073947 -0.1905407205 -5.460258401e-17)
(1.119495282 -0.1944239413 -2.865365199e-16)
(0.9622646998 -0.1483231187 4.350962732e-16)
(1.112189656 -0.1427729859 -6.882152416e-16)
(0.9728622535 -0.1173058122 9.099148089e-16)
(1.104501514 -0.1015974315 -6.269093093e-16)
(0.9773062114 -0.09305955861 9.288655401e-16)
(1.096512966 -0.06792275712 -3.879402922e-16)
(0.9760751268 -0.07259821378 4.843467411e-16)
(1.088232268 -0.03995133205 -7.633287122e-18)
(0.9692406655 -0.05354674941 5.924071451e-17)
(1.079755479 -0.01683228602 -2.096735417e-17)
(0.9563975345 -0.03358507527 -1.403331048e-16)
(1.071481503 0.001235593747 1.435193139e-16)
(0.9365793951 -0.00992007226 -4.528559565e-16)
(1.13969573 -0.927703222 5.114100396e-17)
(0.8777972448 -0.7458293148 -7.341208505e-18)
(1.174846583 -0.6544233739 -7.320252503e-17)
(0.8990063408 -0.4971001067 6.768895924e-17)
(1.17818269 -0.4771536724 1.045233081e-16)
(0.9243677657 -0.3480117904 -1.35181221e-16)
(1.168845528 -0.3540221649 2.666072158e-16)
(0.947767787 -0.2545193288 1.040662257e-16)
(1.155427816 -0.2643744344 2.1491628e-16)
(0.9663246598 -0.1929604976 -1.402495313e-16)
(1.14156904 -0.1968767888 3.673810452e-16)
(0.9791290141 -0.150213715 -4.146668967e-16)
(1.128434821 -0.1445712101 5.181627084e-16)
(0.9862335541 -0.1188131149 -6.13381984e-16)
(1.116087245 -0.1028764689 4.896304059e-16)
(0.9879422786 -0.09427315636 -5.893236187e-16)
(1.104263676 -0.06878316438 2.095560511e-16)
(0.9843990513 -0.07356785836 -2.002401256e-16)
(1.092758696 -0.04048164134 -1.010409702e-16)
(0.9754247004 -0.05427833141 5.324911946e-17)
(1.081550328 -0.01714011661 3.666002256e-17)
(0.9604120625 -0.03402403654 -3.816400977e-19)
(1.071035696 0.001056880675 8.647981352e-17)
(0.9381505797 -0.01012988985 1.704434575e-17)
(1.24388524 -0.9276952663 9.362787195e-18)
(0.961552374 -0.7458407525 -5.780829034e-17)
(1.248329154 -0.6544486947 -6.362936455e-17)
(0.9548158882 -0.497136372 1.938745816e-16)
(1.231743325 -0.4772087175 -9.155968967e-17)
(0.9634170361 -0.3480656028 2.609980486e-16)
(1.208562191 -0.3540969554 -2.381776674e-16)
(0.976301468 -0.2545842374 2.1558823e-16)
(1.185061387 -0.2644624884 -1.183414023e-16)
(0.9879309327 -0.1930310232 1.60617209e-16)
(1.163608871 -0.196972731 -4.097315041e-16)
(0.9959225714 -0.1502846459 3.299496339e-16)
(1.144589958 -0.1446692164 -3.14277788e-16)
(0.9994910879 -0.1188801461 3.374059705e-16)
(1.127553408 -0.1029700214 -4.539005314e-16)
(0.998436609 -0.09433469006 4.080371459e-16)
(1.111899742 -0.0688668804 -2.289370101e-16)
(0.9925596286 -0.0736259659 9.87373667e-17)
(1.097224945 -0.0405609212 1.121590876e-17)
(0.9813988586 -0.05432831842 -1.022969223e-16)
(1.083422272 -0.01725546117 -3.089007847e-17)
(0.9641049935 -0.0340610221 5.058153382e-17)
(1.070862137 0.0009252483324 -2.168525676e-16)
(0.9393506216 -0.01042595157 2.598451616e-16)
(1.347398789 -0.9160087342 -1.344326584e-16)
(1.044769001 -0.7364359354 2.361287629e-16)
(1.321367607 -0.6461900966 -1.737462214e-16)
(1.010292906 -0.4908539294 -1.851255595e-16)
(1.285022334 -0.471166105 5.563050166e-17)
(1.002282458 -0.3436529468 -3.841566602e-16)
(1.248127501 -0.3495945578 2.273095813e-16)
(1.00476077 -0.2513445067 -4.887370405e-16)
(1.214649731 -0.2610811982 4.656409024e-17)
(1.009547285 -0.1905657744 -3.582726755e-16)
(1.185689924 -0.194435059 4.907305765e-16)
(1.012793014 -0.148361924 -3.525613536e-16)
(1.160853091 -0.1427847432 3.582301822e-16)
(1.012876104 -0.1173640447 -2.904186102e-16)
(1.139170404 -0.1016047086 3.774911862e-16)
(1.009091176 -0.09314772084 -1.013684467e-16)
(1.119698601 -0.06792256727 1.166703856e-16)
(1.000895816 -0.07272790125 1.314327192e-16)
(1.101830046 -0.03996684008 -1.005844627e-16)
(0.9875525608 -0.05369528678 2.509937316e-16)
(1.085377643 -0.01697541365 -9.668971809e-17)
(0.9680044557 -0.03370988018 6.589132452e-17)
(1.070629987 0.001006151882 5.584855011e-17)
(0.9410266651 -0.01071917579 -2.279811679e-16)
(1.448974299 -0.8928179988 9.26913349e-17)
(1.126433858 -0.7178174544 -1.947630198e-16)
(1.393015313 -0.6298692235 1.352497425e-16)
(1.064716771 -0.4784797511 1.54304174e-16)
(1.337251803 -0.4593093196 -8.501864541e-18)
(1.040366397 -0.3350253086 3.608682778e-16)
(1.286859666 -0.3408378433 -7.464306003e-17)
(1.032591123 -0.2450678964 4.857464865e-16)
(1.243548608 -0.2545812379 2.898759936e-17)
(1.030620288 -0.1858366255 4.213685562e-16)
(1.20718005 -0.189631485 -2.739172409e-16)
(1.029167544 -0.1447039136 1.627284339e-16)
(1.176598843 -0.1392870466 -1.992711796e-16)
(1.025793166 -0.1144875799 1.607563778e-16)
(1.150339027 -0.09912985741 -3.831249387e-16)
(1.019298671 -0.09087921196 -1.099141965e-17)
(1.127138792 -0.0662543146 -1.066016666e-16)
(1.008799848 -0.07097947495 -2.334078992e-16)
(1.106221763 -0.0389310021 1.291915543e-16)
(0.9932570482 -0.05245455131 -2.122191328e-16)
(1.087372837 -0.01642483865 3.145709567e-17)
(0.971335124 -0.03308392387 1.325164923e-16)
(1.070836632 0.001298272117 -2.742635549e-16)
(0.9418597355 -0.01112174677 5.576247141e-16)
(1.547286309 -0.8583864469 -2.149693067e-16)
(1.205458204 -0.6901188035 4.256956532e-16)
(1.462375469 -0.6055562023 -3.564228356e-16)
(1.117392259 -0.4599964527 4.250396387e-17)
(1.387842311 -0.4415514591 -2.988914276e-17)
(1.077265488 -0.3220615007 -4.019023459e-16)
(1.324427242 -0.3276322394 1.547834781e-16)
(1.059609451 -0.2355626331 -5.451241373e-16)
(1.271645046 -0.2446862113 1.107899291e-16)
(1.051145039 -0.1786081382 -5.570009214e-16)
(1.228154322 -0.1822239682 3.591910815e-16)
(1.045195625 -0.1390609188 -3.112364369e-16)
(1.192059253 -0.1338001751 3.066668464e-16)
(1.038529617 -0.1100225094 -3.254785332e-16)
(1.161400469 -0.0951613495 5.521668535e-16)
(1.029471022 -0.087360457 -7.802182331e-17)
(1.134583279 -0.06350170261 2.160731467e-16)
(1.016811905 -0.0682980043 1.187806733e-16)
(1.110625925 -0.03714114556 -6.339461891e-17)
(0.9992488258 -0.05060238217 1.59058218e-16)
(1.089227618 -0.01534749361 -1.860329476e-16)
(0.9752277962 -0.03218929276 6.263351432e-17)
(1.070565279 0.001955523118 -1.510962355e-16)
(0.9436683736 -0.01148303685 -1.015131536e-16)
(1.641154329 -0.813176136 2.812651189e-16)
(1.280940368 -0.6538036794 -3.78868369e-16)
(1.528598292 -0.5737071265 4.705632288e-16)
(1.167705357 -0.4358318347 -1.953461679e-16)
(1.436125909 -0.4183770358 8.923675399e-17)
(1.112479693 -0.3051853742 1.63815139e-16)
(1.360238056 -0.3104841388 -1.953564128e-17)
(1.08534813 -0.2232617636 3.880785205e-16)
(1.298366058 -0.2319282288 -1.69892641e-16)
(1.07063796 -0.1693231586 4.82423376e-16)
(1.248021882 -0.172771107 -1.854657466e-16)
(1.060343941 -0.1318709019 4.311762171e-17)
(1.206604932 -0.1268994344 -1.545887096e-17)
(1.050479565 -0.1043700007 1.267076744e-16)
(1.171695517 -0.09026914969 -3.485290643e-16)
(1.038915357 -0.08291133223 5.125410401e-17)
(1.141409674 -0.06019972732 -1.394722533e-16)
(1.024128318 -0.06488316086 -1.905858446e-16)
(1.114623234 -0.0350682391 9.864799505e-17)
(1.004533516 -0.04822166497 -9.867960949e-17)
(1.09102543 -0.01412490503 1.143313955e-16)
(0.9782660503 -0.03106855882 9.661668684e-17)
(1.070857589 0.002727751472 -1.147417344e-17)
(0.9439967046 -0.01189496278 1.763346256e-16)
(1.729334047 -0.7577269545 -3.984121463e-16)
(1.351805572 -0.60920315 3.717640591e-16)
(1.590798267 -0.5345617923 -4.552108041e-16)
(1.214932181 -0.4060784751 3.005416625e-16)
(1.481485016 -0.3897985063 -1.799801618e-16)
(1.145554682 -0.2843247484 -3.74913403e-17)
(1.393915712 -0.2892419368 8.053140309e-17)
(1.109560834 -0.2079713806 -3.808749634e-16)
(1.323550223 -0.2160197058 2.168122686e-16)
(1.089029814 -0.1576958789 -3.586411673e-16)
(1.266822135 -0.1608684395 1.410409229e-16)
(1.074714138 -0.1227888381 -1.060264154e-16)
(1.220466293 -0.1180885776 1.229911842e-16)
(1.061925637 -0.09717192311 -2.044871804e-16)
(1.181614611 -0.08390437425 2.506411328e-16)
(1.048120909 -0.07722027402 -3.725799026e-17)
(1.148064688 -0.05580178086 8.230629854e-17)
(1.031510361 -0.06052236688 1.284256056e-16)
(1.118457538 -0.03223718985 -1.312311253e-16)
(1.01031713 -0.04518716445 1.222200578e-16)
(1.092310396 -0.01244535598 -2.133617305e-16)
(0.9824718468 -0.0295248046 5.393416316e-17)
(1.06990797 0.003616996753 -1.430358006e-16)
(0.9462707479 -0.01183696967 -4.332165317e-17)
(1.810787575 -0.6927648115 2.735291703e-16)
(1.417322165 -0.5570110995 -2.483977769e-16)
(1.648277646 -0.4887798981 2.18251138e-16)
(1.25861497 -0.3713327157 -1.883358886e-16)
(1.523405402 -0.3564655903 1.407096373e-16)
(1.176138394 -0.2600433364 -7.374585379e-17)
(1.425015128 -0.2645592482 -2.474772073e-17)
(1.131925115 -0.1902600719 2.589194622e-16)
(1.346761535 -0.1976417922 -2.32835355e-16)
(1.105977548 -0.1443187009 2.617867297e-16)
(1.284080902 -0.1472437031 -5.105562586e-17)
(1.08789483 -0.1124274159 -3.732527972e-17)
(1.233091089 -0.1081470514 3.772409715e-17)
(1.072333962 -0.08902809288 6.166490486e-17)
(1.190518638 -0.07688428874 -5.00482153e-17)
(1.056358775 -0.07080961386 -5.115192229e-17)
(1.153910207 -0.05112978671 6.559127493e-17)
(1.037906169 -0.05558451058 -1.03115021e-16)
(1.121790283 -0.02942338753 1.059881692e-16)
(1.01496982 -0.04169016835 -7.386869359e-17)
(1.093659694 -0.01096425005 1.6104151e-16)
(0.985174617 -0.02770742053 5.509457786e-17)
(1.070061767 0.004263264002 8.026508811e-17)
(0.9459893421 -0.01182958931 1.28985933e-16)
(1.884412039 -0.6190793572 -1.304683748e-16)
(1.47647167 -0.4977490377 2.755898059e-16)
(1.700195614 -0.4367694688 -1.618023253e-16)
(1.29802065 -0.3318069853 1.688265551e-16)
(1.561253899 -0.3185063515 -1.234459395e-16)
(1.203724496 -0.2323394831 1.15986786e-16)
(1.453106745 -0.2363550782 1.688682737e-17)
(1.152108184 -0.1699605604 -1.368992009e-16)
(1.367758858 -0.1765303048 2.395303726e-16)
(1.121298521 -0.1288855893 -2.283085734e-16)
(1.299746381 -0.1314607009 1.296445324e-16)
(1.099862954 -0.1003686797 -4.091988787e-17)
(1.244632263 -0.09648157315 -3.698649061e-17)
(1.081884824 -0.07945310469 -3.026369127e-17)
(1.198761529 -0.06849087368 -2.271270459e-17)
(1.064106897 -0.06319662909 5.97006806e-17)
(1.1593869 -0.04540335736 -1.197828933e-16)
(1.04428977 -0.04966432184 8.314417956e-17)
(1.124760321 -0.02589946213 -9.625995175e-17)
(1.020350705 -0.03739316138 4.377068275e-17)
(1.094088491 -0.009227896916 -1.197273517e-16)
(0.9897639139 -0.02508512089 -4.937085089e-17)
(1.068037751 0.004486823844 -5.294390273e-17)
(0.9490869845 -0.01060953849 -1.237785883e-16)
(1.949366775 -0.537623764 -1.794565197e-17)
(1.528738507 -0.4322952417 -2.074462723e-16)
(1.746050116 -0.3793478471 -1.323657303e-17)
(1.332884265 -0.2882183026 -6.278179499e-17)
(1.594710762 -0.2766810502 -5.381884981e-18)
(1.228146593 -0.2018638155 -7.502877198e-17)
(1.477938683 -0.2053674061 1.060560334e-17)
(1.169981158 -0.1477171069 2.936677555e-17)
(1.386303235 -0.1534429906 -1.65478163e-16)
(1.134859057 -0.1120728212 9.756972559e-17)
(1.313543424 -0.1143347513 -4.711676285e-17)
(1.110426072 -0.08733550385 -1.61901208e-17)
(1.254724971 -0.08398992336 1.018257073e-16)
(1.090238771 -0.0691980235 -4.214609937e-17)
(1.205864921 -0.05970854189 7.14203356e-17)
(1.070715601 -0.05510198473 -4.004853947e-17)
(1.164021432 -0.03966608758 6.902589509e-17)
(1.04937625 -0.04336963708 -2.476104159e-17)
(1.127377156 -0.02267909022 2.397649364e-17)
(1.023939066 -0.03276343994 3.43157959e-17)
(1.095160427 -0.008003011744 -7.788631677e-18)
(0.9916025914 -0.02222322117 1.575507183e-16)
(1.068498536 0.004262950437 -7.265545092e-17)
(0.9478759709 -0.009837151468 2.136231986e-16)
(2.004742849 -0.449397912 6.400088675e-17)
(1.573204906 -0.3613474087 2.485201918e-16)
(1.785081661 -0.3170853557 9.305808351e-18)
(1.36249116 -0.2409088261 1.025058506e-16)
(1.623149257 -0.2312530828 1.382432553e-17)
(1.248858058 -0.1687158098 7.841650963e-17)
(1.49903294 -0.1716285046 -9.393085574e-19)
(1.185117532 -0.1234407121 -3.100880221e-17)
(1.402055591 -0.1282067127 1.549193667e-16)
(1.146329868 -0.09362751293 -9.90305314e-17)
(1.325279299 -0.09549223472 1.147213854e-16)
(1.119368421 -0.07292894471 -6.197379607e-17)
(1.263353423 -0.07009858 -6.02184569e-18)
(1.097368386 -0.0577485344 -2.418694784e-17)
(1.212002912 -0.04977290771 -3.08962754e-17)
(1.076532616 -0.04595289087 3.174741845e-17)
(1.168038652 -0.03300118159 -4.728522341e-17)
(1.054307123 -0.03614302444 1.723175632e-17)
(1.129368604 -0.01882550479 -2.976436555e-17)
(1.028456417 -0.02727412428 -7.707645042e-18)
(1.094857155 -0.006705073951 -2.033269309e-17)
(0.9961596786 -0.01832901659 -8.410094246e-17)
(1.06554343 0.003074797863 3.418815331e-17)
(0.9518666831 -0.007168025453 -1.101298508e-16)
(2.049942076 -0.3555345498 -7.660663476e-17)
(1.609600821 -0.2859119402 -1.943315062e-16)
(1.817010992 -0.2509006068 -5.788845397e-17)
(1.386786326 -0.1906583819 -7.035552745e-17)
(1.646463279 -0.1830264225 -1.829493859e-17)
(1.265891828 -0.1335659954 -8.54133097e-17)
(1.516350251 -0.1358786948 4.698056036e-18)
(1.197599987 -0.09776685053 -1.463943089e-17)
(1.415002332 -0.1015490917 -6.405937187e-17)
(1.155819205 -0.07420005712 1.288219827e-17)
(1.334926945 -0.07569353274 -4.611867575e-17)
(1.126777532 -0.05784353104 2.807218319e-18)
(1.270426148 -0.05563635733 4.119017074e-17)
(1.103232524 -0.04584759171 -3.312674826e-17)
(1.217001028 -0.03960140895 6.466125743e-17)
(1.081132774 -0.03651358232 -3.949988178e-17)
(1.171350147 -0.02639948833 2.243877704e-17)
(1.057690751 -0.02871237027 1.173960121e-17)
(1.131394122 -0.01527173868 9.112575588e-19)
(1.030414455 -0.02157598211 4.171642269e-17)
(1.096168566 -0.005761012467 -2.6312323e-17)
(0.9961835591 -0.01428698248 9.982659049e-17)
(1.06732898 0.002026719699 -6.933520631e-17)
(0.9495415622 -0.005640188301 1.128474243e-16)
(2.084291743 -0.2571934822 9.754559827e-17)
(1.637154787 -0.2068396666 1.533112201e-16)
(1.841200066 -0.1815127289 4.882057779e-17)
(1.405111338 -0.1379434869 8.087937116e-17)
(1.664068403 -0.1324155139 2.327022923e-17)
(1.278693191 -0.09664544095 6.076211506e-17)
(1.529393831 -0.09830903149 2.579269949e-17)
(1.206935215 -0.07074578801 -6.224437261e-18)
(1.42472634 -0.07347228947 7.425585284e-17)
(1.162869296 -0.05369114012 -4.149549879e-17)
(1.342153802 -0.05476463106 7.574543499e-17)
(1.132245731 -0.04184894316 -3.591537115e-17)
(1.275722567 -0.04025535714 7.771763843e-18)
(1.107566637 -0.0331567073 -1.710316138e-18)
(1.220750862 -0.02867013798 -1.556965871e-17)
(1.084668204 -0.02638154296 6.353344239e-18)
(1.173766745 -0.01917236398 -1.486484752e-17)
(1.060778666 -0.02069562575 -7.342369978e-18)
(1.132480648 -0.01127560514 -7.144795835e-18)
(1.033558147 -0.01541999355 -2.198318812e-17)
(1.095562806 -0.004821979637 2.085709631e-19)
(1.000127171 -0.009762966809 -5.470361493e-17)
(1.064033518 -1.437777088e-05 3.820306435e-17)
(0.9537360274 -0.002757161564 -8.435183264e-17)
(2.107469816 -0.1556300932 -9.105207107e-17)
(1.655853215 -0.1252037175 -1.008995302e-16)
(1.85760056 -0.1098819213 -7.954271682e-17)
(1.417616195 -0.08354783114 -5.354475516e-17)
(1.676065367 -0.08020133575 -3.291581092e-17)
(1.28747774 -0.05857815258 -5.21081188e-17)
(1.538319794 -0.05958116181 -1.073252857e-17)
(1.21338998 -0.04291847076 -2.832854655e-17)
(1.431414072 -0.04456479061 -2.026518454e-17)
(1.167793953 -0.03260543568 -1.112422441e-17)
(1.347152705 -0.03325477568 -1.68269233e-17)
(1.136102626 -0.02543965802 -8.304058605e-18)
(1.279404843 -0.02448748376 1.894894835e-17)
(1.110607505 -0.0201665615 -1.975051423e-17)
(1.223385247 -0.01750348702 2.934622193e-17)
(1.086970757 -0.01602311403 -1.168238102e-17)
(1.175605323 -0.011824755 1.236935728e-17)
(1.062190658 -0.01247043586 5.938717193e-18)
(1.133897706 -0.007220836069 5.807256825e-18)
(1.033542312 -0.009008708879 1.764976307e-17)