/*--------------------------------*- C++ -*----------------------------------*\
| =========                 |                                                 |
| \\      /  F ield         | foam-extend: Open Source CFD                    |
|  \\    /   O peration     | Version:  3.0                                   |
|   \\  /    A nd           | Web:         http://www.extend-project.de       |
|    \\/     M anipulation  |                                                 |
\*---------------------------------------------------------------------------*/
FoamFile
{
    version     2.0;
    format      ascii;
    class       volScalarField;
    location    "12";
    object      p;
}
// * * * * * * * * * * * * * * * * * * * * * * * * * * * * * * * * * * * * * //

dimensions      [0 0 0 0 0 0 0];

internalField   nonuniform List<scalar> 
728
(
0.0270118
-0.0270032
0.0617184
-0.0619048
-0.0214179
0.0214436
-0.192892
0.192381
-0.0658484
0.0781545
0.0659203
-0.0783771
-0.0685252
-0.0804731
0.0688635
0.0804736
0.00390886
0.0951153
-0.0949982
-0.00388694
0.0386232
0.112333
-0.112751
-0.0386028
0.0285192
0.169795
-0.168294
-0.02878
0.00147247
0.105746
-0.105329
-0.0014216
0.0383605
0.122479
-0.12307
-0.0383705
0.0847753
0.0351571
-0.0849478
-0.0353785
-0.0419774
0.0941434
0.0419038
-0.0944056
-0.0400934
-0.0964975
0.0399926
0.0963166
-0.0747558
-0.123614
0.124671
0.0749711
0.227187
0.00555401
-0.227394
-0.00547949
-0.0332834
0.0862455
-0.0862304
0.0332773
-0.0281051
-0.0963619
0.0960758
0.0280537
0.0703406
0.0402278
-0.0704628
-0.0399307
0.0209463
-0.0210857
0.137372
-0.135847
0.0745671
0.0350688
-0.0351952
-0.0746369
-0.0164305
0.106802
0.0165002
-0.106777
0.0908478
-0.0907506
-0.0986344
0.0987951
-0.0104926
0.0694916
0.0105765
-0.069558
0.0858532
0.244087
-0.0858346
-0.245162
0.0925189
-0.0924381
-0.11599
0.115799
0.0720001
0.0837272
-0.0719398
-0.0834706
-0.0296807
0.0298706
0.0737516
-0.0742025
0.0427769
-0.0778785
0.0777756
-0.0426367
-0.0117267
0.0819696
0.0118318
-0.0819849
-0.0104679
0.0896269
0.0103993
-0.0896097
-0.0354683
0.0355102
0.0680015
-0.0680916
-0.0313211
0.0767565
-0.0766262
0.0314132
-0.0663407
-0.0681982
0.0663665
0.068407
-0.065541
0.0656459
-0.0644677
0.0642796
-0.0215263
0.0792025
-0.0794697
0.0216189
-0.0586778
-0.0623501
0.0588407
0.0624805
0.0341536
0.113884
-0.113728
-0.0342119
0.0391446
0.0907901
-0.0390974
-0.0907041
-0.0336298
0.0865741
-0.0867204
0.0334021
0.0579375
-0.0577559
0.0509998
-0.0509949
-0.0145178
-0.0981334
0.0145489
0.0980486
-0.18705
-0.0639805
0.18888
0.0640874
-0.01961
-0.137787
0.139029
0.0198199
0.102476
-0.0284728
-0.102221
0.0284832
-0.0677644
0.0678496
-0.0641096
0.0641346
-0.0533423
0.0534366
-0.0415082
0.0413907
0.106434
-0.106044
0.0522816
-0.0518716
-0.049257
-0.14985
0.150427
0.0494141
0.0452767
0.0984515
-0.0449386
-0.0987399
0.0560595
-0.0938416
0.0936612
-0.0560831
0.0153149
-0.0715072
0.0714846
-0.0152993
-0.0292467
-0.0813095
0.0811646
0.0291234
0.0446975
-0.0775947
-0.0445172
0.0775305
-0.0499961
-0.0670467
0.0670758
0.0500458
-0.0867795
0.0865871
0.0356573
-0.0357643
-0.0239914
-0.162004
0.161332
0.0238035
-0.0275777
-0.0784263
0.0783254
0.0275062
-0.0167292
0.0167107
0.107523
-0.107701
0.0652996
-0.04554
0.0453251
-0.0650578
-0.0107415
0.0864907
0.0107072
-0.0865173
0.102678
0.0454169
-0.0452944
-0.102368
0.0298505
-0.0299003
0.148141
-0.149592
0.0912469
-0.177157
-0.0914123
0.177331
-0.0802109
-0.0462385
0.0800204
0.0461635
0.110065
0.150506
-0.110299
-0.149904
-0.0130583
-0.0842583
0.0131239
0.084288
-0.105058
0.0438052
0.104728
-0.0435608
-0.08699
-0.0503898
0.0505937
0.086753
-0.0581155
0.0580041
-0.13705
0.137491
0.0853131
-0.00394958
0.00393946
-0.0852608
0.0528567
0.0599081
-0.0595134
-0.052753
0.0310542
0.105991
-0.0307591
-0.106234
0.00138641
0.0980862
-0.0979037
-0.00139036
0.0870743
0.0541715
-0.0538925
-0.0863368
-0.0461462
0.0554609
-0.0554235
0.0460486
-0.0748076
0.00286383
0.0748228
-0.00286056
-0.0488004
-0.0650819
0.0651403
0.0487379
0.0092429
-0.00924298
0.128432
-0.128779
-0.0253033
0.0961115
-0.0962472
0.0252835
-0.0673814
0.0672264
0.159217
-0.159424
-0.0541603
0.0542593
-0.0876188
0.0873564
-0.136459
-0.0988311
0.0988871
0.136651
-0.07936
0.0791733
-0.108774
0.108908
0.035325
0.0635306
-0.0353555
-0.063564
0.0350094
-0.0349584
0.0908544
-0.0907059
-0.0736434
0.0735948
-0.140881
0.141013
-0.0056391
0.112798
-0.1125
0.00577729
-0.0632055
-0.0943147
0.0634631
0.0942763
0.0822623
0.0804077
-0.0824379
-0.0809733
-0.0038868
0.00391929
0.10378
-0.103597
-0.0553171
-0.0748391
0.0552884
0.0748778
0.0332413
0.105573
-0.0331086
-0.10546
0.0213472
0.0802291
-0.080029
-0.0212401
0.0970875
0.0916383
-0.0968973
-0.0917241
-0.0670101
-0.107822
0.107816
0.0673093
-0.0578362
-0.075938
0.057778
0.075954
0.0922144
-0.0241227
-0.0921044
0.0241189
0.0113401
0.0855628
-0.08556
-0.0114263
-0.00320462
0.0852904
0.00317495
-0.0852657
-0.0145014
-0.087856
0.014605
0.0878704
-0.0733097
0.115715
0.0731162
-0.115689
-0.17435
0.201191
-0.201663
0.174564
0.0653052
0.251577
-0.0653174
-0.251195
-0.0571405
0.0575018
0.0705364
-0.0708983
0.0155492
-0.0155579
0.0969661
-0.0971888
-0.0566203
0.106958
-0.107018
0.0564857
0.00636459
-0.0909625
-0.00635544
0.0910753
-0.00153417
0.0908793
0.00155643
-0.0908063
0.0183839
-0.0184898
0.0894013
-0.0894803
0.0184356
-0.0658433
0.0657223
-0.0184111
0.0200984
0.084244
-0.0843401
-0.0202246
0.0436152
-0.0621428
-0.0436138
0.0622309
-0.0977857
0.0634256
0.0983815
-0.0637581
-0.114907
0.019941
-0.0198302
0.114768
0.0348333
-0.0582038
-0.0349301
0.0582354
0.021339
-0.0213078
-0.110496
0.110577
-0.0929715
-0.0261053
0.0928693
0.0261216
0.0164524
0.129013
-0.0164247
-0.129738
-0.102998
0.102905
0.018896
-0.0189301
0.0820834
0.069614
-0.0811111
-0.0692926
0.0422212
-0.0703519
0.0702754
-0.0422957
-0.0803385
-0.0686881
0.0696095
0.0801375
-0.0231951
0.0714554
0.0231635
-0.0715408
-0.10241
0.102481
0.00836829
-0.00832629
0.113684
0.017838
-0.0177948
-0.114521
-0.104754
-0.0496531
0.0499214
0.104997
-0.0291222
-0.0684383
0.0290755
0.0683608
0.11745
-0.12012
-0.118013
0.120399
-0.0916929
0.0841044
0.0919989
-0.0843584
-0.141797
5.44662e-05
0.142091
0.000141215
-0.0761244
0.0761413
0.00836997
-0.00838468
-0.0824182
-0.0454817
0.0822964
0.0453564
0.119255
0.0198459
-0.118832
-0.0198482
0.00384473
0.0739608
-0.00378869
-0.0740199
-0.0526887
-0.0697829
0.0527383
0.0700254
-0.054285
0.0618198
0.0544212
-0.0616858
0.0871539
0.0545985
-0.0872905
-0.0546361
-0.0790101
0.0585511
-0.0585944
0.0790521
-0.0110062
0.0110434
0.13748
-0.136486
-0.000805173
0.116867
0.000898834
-0.11669
0.073622
-0.0353488
0.0351435
-0.073747
0.0930397
-0.092959
-0.130831
0.131494
-0.123245
0.12404
-0.0990814
0.099231
0.0429723
-0.0696419
0.0696161
-0.043159
-0.0423777
-0.0803595
0.0802016
0.0422284
-0.0177327
-0.122426
0.0180215
0.122883
0.124241
-0.123987
-0.0230222
0.0233151
0.0608061
-0.0607998
0.0418533
-0.0419108
0.00324491
-0.083333
0.0834353
-0.00322467
-0.10138
-0.179684
0.179588
0.101688
0.000166261
0.124213
-0.000179732
-0.124438
-0.0551397
0.055062
-0.0689356
0.0689836
-0.050936
0.0496969
0.0508167
-0.0496865
0.0351298
0.11243
-0.0352185
-0.112274
-0.0856108
-0.00426277
0.0857306
0.00430597
0.128793
-0.0445283
-0.128463
0.0445839
0.113917
0.0362539
-0.0361176
-0.113853
-0.0735905
-0.0492497
0.0491078
0.0735707
-0.0570272
-0.0736052
0.0566554
0.0739726
-0.0587476
0.128689
-0.128535
0.0590313
-0.0616582
0.140575
-0.139784
0.0617996
0.0318521
0.107057
-0.107516
-0.0315988
0.169506
-0.126844
-0.16976
0.127041
0.0628805
0.0572503
-0.0627001
-0.0572336
0.0356338
0.14778
-0.146568
-0.0354405
0.0413785
0.115163
-0.114479
-0.0409191
-0.00639857
0.00641095
-0.0930769
0.0932627
0.111278
0.00881493
-0.111256
-0.00871799
-0.0538918
0.05398
-0.0588916
0.0590335
0.0468542
-0.0717902
-0.0469305
0.0717625
0.0562409
0.0602854
-0.0601783
-0.0563557
-0.0147077
0.0147708
0.094426
-0.0945163
0.0923696
-0.0923467
-0.0733785
0.0732934
-0.095017
0.0706684
0.0949161
-0.0706878
-0.00819784
-0.0990409
0.00802725
0.0992356
-0.0964462
0.0965521
0.0602793
-0.060245
0.00811154
0.108156
-0.1077
-0.00803631
-0.114037
-0.0594136
0.113956
0.0593219
-0.0824978
0.0196172
0.0824222
-0.0198044
0.0162387
-0.0983059
0.0982311
-0.016378
0.0851278
0.0263612
-0.0266338
-0.0852569
0.0945422
-0.0260587
0.0260155
-0.0947649
0.0276896
0.0884684
-0.0278369
-0.0886014
)
;

boundaryField
{
    insideCircle
    {
        type            zeroGradient;
    }
    outsideCircle
    {
        type            zeroGradient;
    }
    topAndBottom
    {
        type            empty;
    }
}


// ************************************************************************* //
