/*--------------------------------*- C++ -*----------------------------------*\
| =========                 |                                                 |
| \\      /  F ield         | foam-extend: Open Source CFD                    |
|  \\    /   O peration     | Version:  3.0                                   |
|   \\  /    A nd           | Web:         http://www.extend-project.de       |
|    \\/     M anipulation  |                                                 |
\*---------------------------------------------------------------------------*/
FoamFile
{
    version     2.0;
    format      ascii;
    class       volScalarField;
    location    "22";
    object      p;
}
// * * * * * * * * * * * * * * * * * * * * * * * * * * * * * * * * * * * * * //

dimensions      [0 0 0 0 0 0 0];

internalField   nonuniform List<scalar> 
480
(
-0.243591
-0.201197
-0.191419
-0.17209
-0.171422
-0.162165
-0.164191
-0.159163
-0.159674
-0.154139
-0.23937
-0.197715
-0.18811
-0.169119
-0.168465
-0.159372
-0.161366
-0.156427
-0.15693
-0.151492
-0.231162
-0.190933
-0.181655
-0.163314
-0.16268
-0.153897
-0.155822
-0.151051
-0.151536
-0.146283
-0.218893
-0.180804
-0.172024
-0.15466
-0.154064
-0.145751
-0.147577
-0.143062
-0.143524
-0.138549
-0.202986
-0.167665
-0.159521
-0.143418
-0.142865
-0.135155
-0.136848
-0.13266
-0.133088
-0.128474
-0.183499
-0.151575
-0.144218
-0.129667
-0.129172
-0.122206
-0.123741
-0.119959
-0.120349
-0.116177
-0.160979
-0.132975
-0.12652
-0.113754
-0.113319
-0.107209
-0.108556
-0.105238
-0.10558
-0.101918
-0.135598
-0.112017
-0.106585
-0.0958379
-0.0954773
-0.090335
-0.0914752
-0.0886829
-0.0889757
-0.0858898
-0.108004
-0.0892229
-0.0848968
-0.0763376
-0.0760508
-0.0719559
-0.0728651
-0.0706415
-0.0708755
-0.0684156
-0.078453
-0.0648197
-0.0616835
-0.0554725
-0.0552704
-0.0523013
-0.0529678
-0.0513561
-0.0515305
-0.049742
-0.0476665
-0.0393876
-0.0374838
-0.0337128
-0.0335921
-0.0317906
-0.0321984
-0.0312206
-0.0313286
-0.0302391
-0.0159557
-0.0131981
-0.0125695
-0.0113168
-0.0112853
-0.0106903
-0.0108361
-0.0105139
-0.0105567
-0.0101882
0.0159219
0.0131376
0.0124913
0.0112191
0.0111676
0.0105548
0.0106784
0.0103452
0.0103723
0.0100163
0.0476357
0.0393321
0.0374117
0.0336227
0.0334835
0.0316654
0.0320527
0.0310647
0.0311582
0.0300805
0.0784284
0.0647738
0.0616234
0.0553971
0.0551792
0.052196
0.0528451
0.0512249
0.0513872
0.049609
0.107988
0.0891906
0.0848537
0.0762829
0.0759843
0.0718788
0.072775
0.0705452
0.0707703
0.0683188
0.135592
0.112001
0.106563
0.0958086
0.0954409
0.0902923
0.0914249
0.0886292
0.0889172
0.0858372
0.160985
0.132977
0.126521
0.113753
0.113317
0.107205
0.10855
0.105231
0.105574
0.101915
0.183517
0.151597
0.144243
0.129695
0.129204
0.122241
0.123781
0.120001
0.120396
0.116224
0.203015
0.167705
0.159568
0.143474
0.14293
0.135228
0.136932
0.13275
0.133187
0.12857
0.218932
0.180861
0.172092
0.154741
0.154159
0.145858
0.1477
0.143194
0.143669
0.138688
0.23121
0.191003
0.18174
0.163415
0.1628
0.154032
0.155977
0.151217
0.151718
0.146457
0.239424
0.197793
0.188206
0.169234
0.168601
0.159525
0.161543
0.156616
0.157137
0.151689
0.243647
0.20128
0.191521
0.172212
0.171565
0.162328
0.164379
0.159364
0.159893
0.154348
0.243593
0.201238
0.191485
0.172184
0.17154
0.162307
0.16436
0.159347
0.159878
0.154334
0.239477
0.197834
0.188242
0.169263
0.168627
0.159547
0.161562
0.156632
0.157151
0.151701
0.231155
0.190961
0.181704
0.163387
0.162774
0.154011
0.155957
0.1512
0.151702
0.146442
0.218985
0.180901
0.172127
0.154769
0.154185
0.145879
0.147718
0.143209
0.143681
0.138698
0.202959
0.167662
0.159532
0.143445
0.142904
0.135206
0.136911
0.132732
0.13317
0.128552
0.183568
0.151636
0.144277
0.129722
0.129228
0.122261
0.123798
0.120014
0.120406
0.11623
0.160928
0.132934
0.126483
0.113722
0.113289
0.10718
0.108527
0.10521
0.105553
0.101893
0.135642
0.112039
0.106595
0.0958339
0.0954627
0.0903089
0.0914382
0.0886384
0.0889229
0.0858393
0.107929
0.0891454
0.084814
0.0762499
0.0759537
0.0718515
0.0727484
0.0705196
0.0707445
0.0682924
0.0784767
0.0648099
0.061654
0.05542
0.0551981
0.0522093
0.0528546
0.0512298
0.0513879
0.0496061
0.0475754
0.0392852
0.0373699
0.0335873
0.0334499
0.0316347
0.0320221
0.0310346
0.0311273
0.0300491
0.015969
0.013172
0.0125198
0.0112395
0.0111835
0.0105647
0.0106839
0.0103457
0.0103682
0.0100087
-0.0160171
-0.0132465
-0.0126133
-0.0113546
-0.0113216
-0.0107242
-0.0108704
-0.0105479
-0.010592
-0.0102237
-0.0476201
-0.0393544
-0.0374569
-0.0336944
-0.0335786
-0.0317835
-0.0321961
-0.0312234
-0.0313363
-0.03025
-0.0785148
-0.0648691
-0.0617284
-0.0555118
-0.0553085
-0.0523372
-0.0530045
-0.0513926
-0.0515684
-0.0497798
-0.107957
-0.0891902
-0.0848706
-0.07632
-0.0760384
-0.07195
-0.0728642
-0.0706457
-0.0708846
-0.0684277
-0.135659
-0.112066
-0.10663
-0.0958774
-0.0955157
-0.0903712
-0.0915121
-0.0887194
-0.0890135
-0.0859273
-0.160932
-0.132941
-0.126493
-0.113736
-0.113306
-0.107202
-0.108554
-0.105241
-0.105588
-0.101929
-0.183559
-0.151624
-0.144262
-0.129705
-0.129209
-0.122241
-0.123776
-0.119993
-0.120384
-0.116211
-0.202937
-0.16763
-0.159492
-0.143398
-0.14285
-0.135146
-0.136843
-0.132659
-0.133092
-0.128479
-0.218951
-0.18085
-0.172065
-0.154695
-0.154098
-0.145782
-0.147607
-0.143091
-0.143553
-0.138577
-0.231111
-0.190896
-0.181624
-0.163291
-0.162661
-0.153883
-0.155811
-0.151044
-0.151532
-0.146281
-0.239426
-0.197758
-0.188148
-0.169151
-0.168495
-0.159397
-0.16139
-0.156449
-0.156951
-0.151511
-0.243538
-0.201156
-0.191384
-0.172063
-0.171398
-0.162145
-0.164174
-0.159149
-0.159661
-0.154128
)
;

boundaryField
{
    out
    {
        type            implicitExtrapolation;
    }
    in
    {
        type            implicitExtrapolation;
    }
    frontAndBack
    {
        type            empty;
    }
}


// ************************************************************************* //
