/*--------------------------------*- C++ -*----------------------------------*\
| =========                 |                                                 |
| \\      /  F ield         | foam-extend: Open Source CFD                    |
|  \\    /   O peration     | Version:  3.0                                   |
|   \\  /    A nd           | Web:         http://www.extend-project.de       |
|    \\/     M anipulation  |                                                 |
\*---------------------------------------------------------------------------*/
FoamFile
{
    version     2.0;
    format      ascii;
    class       volSymmTensorField;
    location    "22";
    object      sigma;
}
// * * * * * * * * * * * * * * * * * * * * * * * * * * * * * * * * * * * * * //

dimensions      [0 0 0 0 0 0 0];

internalField   nonuniform List<symmTensor> 
480
(
(-0.164034 -0.0121764 2.36608e-20 0.164029 -3.78986e-21 5.23855e-06)
(-0.146718 -0.0137384 1.0612e-19 0.146705 -3.39758e-20 1.28636e-05)
(-0.124278 -0.0130793 1.04894e-19 0.124259 1.74979e-19 1.89225e-05)
(-0.102192 -0.0117032 -7.18903e-20 0.102169 1.2125e-19 2.34731e-05)
(-0.0821427 -0.0101668 1.18638e-19 0.0821163 -2.04937e-19 2.64317e-05)
(-0.064535 -0.00869924 4.03101e-19 0.0645075 -8.80426e-20 2.75321e-05)
(-0.0494382 -0.00738594 3.9049e-19 0.0494118 -1.86256e-19 2.64691e-05)
(-0.0370083 -0.00629862 4.74097e-20 0.0369855 -4.4977e-20 2.28037e-05)
(-0.0273562 -0.00546071 4.87642e-19 0.0273401 -7.30758e-19 1.61792e-05)
(-0.0210526 -0.00492203 5.40157e-20 0.0210463 -1.84589e-19 6.24085e-06)
(-0.159761 -0.0360815 1.34588e-21 0.159756 -1.31636e-20 4.92715e-06)
(-0.139991 -0.040239 1.58786e-19 0.139979 -1.14759e-19 1.20922e-05)
(-0.117091 -0.038159 3.48731e-19 0.117073 -1.86534e-19 1.777e-05)
(-0.0952844 -0.0341021 -2.59049e-20 0.0952624 -1.63667e-19 2.20154e-05)
(-0.0757697 -0.029642 -2.13736e-19 0.0757449 -1.98545e-19 2.47564e-05)
(-0.0587398 -0.0254247 2.22205e-19 0.058714 -1.84399e-20 2.57488e-05)
(-0.0441791 -0.0216921 3.35901e-19 0.0441544 -2.28129e-19 2.47166e-05)
(-0.032177 -0.0186495 7.75273e-20 0.0321557 -1.82051e-19 2.12549e-05)
(-0.022826 -0.0163645 -5.34196e-19 0.0228109 -5.17694e-19 1.50429e-05)
(-0.0166614 -0.0150147 1.48026e-19 0.0166556 2.92108e-19 5.782e-06)
(-0.151506 -0.0585353 -5.2166e-20 0.151501 -4.59153e-20 4.49545e-06)
(-0.127282 -0.063657 -4.17925e-21 0.127271 -2.4666e-19 1.10317e-05)
(-0.103592 -0.0597112 1.99487e-20 0.103576 -2.1484e-19 1.62075e-05)
(-0.0823457 -0.0529836 -1.45581e-19 0.0823256 -2.22317e-20 2.00655e-05)
(-0.0638527 -0.0457806 -1.8957e-19 0.0638302 3.5517e-19 2.25378e-05)
(-0.0479139 -0.0390372 3.68028e-19 0.0478905 1.38515e-19 2.34052e-05)
(-0.0343585 -0.0331 9.27535e-20 0.0343361 -3.75912e-20 2.24208e-05)
(-0.0231531 -0.0282682 -1.7712e-19 0.0231339 -1.30728e-19 1.92297e-05)
(-0.0143561 -0.0246429 -1.37607e-19 0.0143425 6.14877e-19 1.35607e-05)
(-0.00843269 -0.0225101 6.4669e-19 0.00842751 -4.7799e-19 5.18185e-06)
(-0.139823 -0.0787386 -1.61414e-19 0.139819 -1.26113e-20 3.98409e-06)
(-0.109999 -0.0824015 -4.18919e-19 0.109989 2.30167e-19 9.77199e-06)
(-0.0854415 -0.0759373 2.49567e-20 0.0854271 3.31043e-19 1.43428e-05)
(-0.0650561 -0.0665641 2.34238e-19 0.0650384 2.92329e-19 1.77296e-05)
(-0.0480026 -0.0568967 8.36683e-20 0.0479827 4.12197e-19 1.98739e-05)
(-0.033575 -0.0479673 1.38207e-19 0.0335544 -1.06538e-19 2.05878e-05)
(-0.0214026 -0.0401509 2.62408e-19 0.0213829 -8.56832e-20 1.96623e-05)
(-0.0112935 -0.0337807 3.62526e-19 0.0112767 -1.25968e-20 1.68013e-05)
(-0.00326135 -0.0289756 1.93319e-19 0.00324956 -6.27682e-19 1.17909e-05)
(0.00232388 -0.0261003 -8.80329e-19 -0.00232835 9.29159e-20 4.4721e-06)
(-0.125456 -0.0961215 3.1668e-20 0.125452 -1.58109e-20 3.40026e-06)
(-0.0899909 -0.095507 -3.3586e-19 0.0899826 5.58777e-19 8.3341e-06)
(-0.0648158 -0.0857852 -2.56528e-19 0.0648036 5.99199e-19 1.22121e-05)
(-0.0456176 -0.0738199 -2.3552e-20 0.0456026 4.10131e-19 1.50576e-05)
(-0.0303296 -0.0620358 4.15014e-19 0.0303127 -1.29059e-19 1.68246e-05)
(-0.0177102 -0.0513377 3.42533e-20 0.0176928 -5.47115e-19 1.73624e-05)
(-0.00717843 -0.0420386 4.86942e-19 0.00716193 -8.99336e-19 1.65052e-05)
(0.00162569 -0.0344359 -2.6609e-19 -0.00163972 -7.60074e-19 1.40239e-05)
(0.00873726 -0.0286476 -1.76662e-19 -0.00874703 -7.15816e-19 9.76911e-06)
(0.0138939 -0.0250817 5.22312e-19 -0.0138975 3.27839e-19 3.66249e-06)
(-0.109236 -0.110387 6.90268e-20 0.109233 1.67939e-19 2.75865e-06)
(-0.0692837 -0.102749 3.48373e-19 0.069277 3.83809e-19 6.75182e-06)
(-0.0440893 -0.0890855 3.20189e-19 0.0440794 3.08137e-19 9.86499e-06)
(-0.0264264 -0.0746254 1.99526e-19 0.0264143 -6.22901e-20 1.21126e-05)
(-0.0131274 -0.0611078 -6.30906e-20 0.0131139 -7.5078e-19 1.34632e-05)
(-0.00247747 -0.0490878 -5.5591e-19 0.00246366 -1.10506e-18 1.3808e-05)
(0.00628829 -0.038727 -1.13871e-18 -0.00630132 -5.49704e-19 1.30292e-05)
(0.0136792 -0.0302178 9.40534e-20 -0.0136901 -4.78722e-19 1.09709e-05)
(0.0197752 -0.0236585 -1.12003e-18 -0.0197827 -2.78149e-19 7.55167e-06)
(0.0244203 -0.0194642 5.10325e-19 -0.0244231 -3.87654e-19 2.77866e-06)
(-0.0919825 -0.121516 -3.81536e-20 0.0919804 2.33247e-19 2.07116e-06)
(-0.0497862 -0.104648 5.93859e-19 0.0497811 5.00589e-20 5.05651e-06)
(-0.0254838 -0.0865542 8.22085e-19 0.0254764 -2.80572e-19 7.35045e-06)
(-0.00971787 -0.0697551 6.4198e-19 0.00970891 -7.60054e-19 8.95821e-06)
(0.00146922 -0.0548887 -4.02095e-19 -0.00147909 -9.05585e-19 9.86478e-06)
(0.0101189 -0.0419752 -1.02138e-18 -0.0101289 -5.59332e-19 1.0006e-05)
(0.0171195 -0.0309513 -1.25151e-18 -0.0171289 2.29497e-19 9.31555e-06)
(0.0230847 -0.0218463 -6.95392e-19 -0.0230925 -3.67231e-19 7.7147e-06)
(0.0281288 -0.014723 -1.60158e-18 -0.028134 3.26089e-19 5.19167e-06)
(0.0321884 -0.00997188 2.42279e-19 -0.0321903 -1.21084e-19 1.8406e-06)
(-0.0744046 -0.129733 9.51888e-20 0.0744032 -1.45002e-20 1.35344e-06)
(-0.0330217 -0.10236 2.70642e-19 0.0330184 -2.06819e-19 3.28692e-06)
(-0.0107472 -0.0796632 1.93474e-19 0.0107424 -3.96516e-19 4.72691e-06)
(0.00276219 -0.0607505 -1.14536e-19 -0.00276786 -4.96814e-19 5.66948e-06)
(0.0118013 -0.0448914 -6.62731e-19 -0.0118074 -2.38082e-19 6.11688e-06)
(0.0185278 -0.0314534 -6.56593e-19 -0.0185339 4.94195e-20 6.05138e-06)
(0.0238678 -0.0201019 -5.30794e-19 -0.0238732 1.58075e-19 5.4601e-06)
(0.0284738 -0.0106663 -5.75278e-19 -0.0284782 1.77259e-19 4.34223e-06)
(0.0324787 -0.00316279 -3.3842e-19 -0.0324814 -7.28439e-20 2.75538e-06)
(0.0358885 0.00206528 -1.10876e-18 -0.0358893 1.42125e-19 8.77072e-07)
(-0.0570262 -0.135438 -3.13944e-20 0.0570256 -6.48876e-20 6.2027e-07)
(-0.019921 -0.0974795 -2.58769e-19 0.0199195 -1.50955e-19 1.48067e-06)
(-0.000905441 -0.0703968 -4.82647e-19 0.00090339 -1.03017e-19 2.05163e-06)
(0.0100095 -0.0496713 -4.10841e-19 -0.0100118 4.6863e-20 2.31999e-06)
(0.0169284 -0.0331254 -2.86726e-20 -0.0169307 3.26771e-20 2.30543e-06)
(0.0218815 -0.0194437 -4.04361e-19 -0.0218836 3.28996e-20 2.0369e-06)
(0.0257328 -0.00800905 -3.41168e-19 -0.0257343 6.70718e-20 1.55456e-06)
(0.0290987 0.00155896 -3.23027e-19 -0.0290996 1.94582e-19 9.34584e-07)
(0.0321113 0.00929458 -5.61613e-20 -0.0321116 -8.1581e-20 3.01249e-07)
(0.0348174 0.0149127 -5.72131e-19 -0.0348173 3.18303e-19 -8.96629e-08)
(-0.0401437 -0.139122 -5.07413e-20 0.0401439 -4.71129e-20 -1.12233e-07)
(-0.0107079 -0.0917717 -1.4009e-19 0.0107082 -1.62221e-19 -3.22772e-07)
(0.00387247 -0.0609342 -6.87952e-19 -0.00387185 -2.86835e-20 -6.16268e-07)
(0.0118988 -0.0387703 -6.31197e-19 -0.0118978 1.4694e-19 -1.01498e-06)
(0.0167612 -0.021783 -4.32796e-19 -0.0167597 2.0101e-19 -1.48216e-06)
(0.0201204 -0.00803739 -5.98866e-20 -0.0201185 1.38018e-19 -1.94334e-06)
(0.0226798 0.00333903 -3.46634e-19 -0.0226775 1.42658e-19 -2.30692e-06)
(0.024945 0.0129172 -1.26076e-20 -0.0249426 3.34663e-19 -2.42351e-06)
(0.0270284 0.0207782 5.5561e-19 -0.0270263 3.24402e-20 -2.10694e-06)
(0.0289883 0.0266937 -1.09702e-19 -0.0289873 -1.47226e-20 -1.03237e-06)
(-0.0238207 -0.141259 -5.8442e-20 0.0238215 -3.08874e-20 -8.29939e-07)
(-0.00489618 -0.0868886 -1.02694e-19 0.00489827 -1.07662e-19 -2.08773e-06)
(0.00427767 -0.0533041 -3.67027e-19 -0.00427444 -1.20953e-20 -3.22324e-06)
(0.0091866 -0.0301405 -2.71305e-19 -0.00918234 1.18653e-19 -4.26728e-06)
(0.012063 -0.0128979 -2.79187e-19 -0.0120578 1.22756e-19 -5.16702e-06)
(0.0139943 0.000827494 -4.47629e-19 -0.0139885 9.96112e-20 -5.80479e-06)
(0.0154404 0.0121016 -4.14534e-19 -0.0154343 1.8521e-19 -6.04089e-06)
(0.0167328 0.0216395 -1.13036e-19 -0.0167271 2.99001e-19 -5.65841e-06)
(0.0179476 0.0295587 4.07298e-19 -0.0179432 5.39502e-20 -4.4161e-06)
(0.0191306 0.0356747 -3.73233e-20 -0.0191287 -1.91128e-20 -1.9308e-06)
(-0.00792137 -0.142228 -7.9166e-20 0.00792289 -1.60537e-20 -1.51867e-06)
(-0.00139553 -0.0841026 -1.45038e-19 0.00139931 -7.38065e-20 -3.77972e-06)
(0.0017317 -0.049066 -2.89634e-19 -0.00172598 -1.24507e-20 -5.71797e-06)
(0.00337751 -0.0253889 -3.83831e-19 -0.00337013 1.1242e-19 -7.37204e-06)
(0.00432087 -0.0080308 -3.74985e-19 -0.0043122 1.0603e-19 -8.67435e-06)
(0.00494035 0.00566472 -3.5189e-19 -0.00493088 8.72788e-20 -9.46739e-06)
(0.00539634 0.0168677 -1.67634e-19 -0.00538677 1.64484e-19 -9.56789e-06)
(0.00580466 0.0263707 -1.12324e-19 -0.00579596 2.61228e-19 -8.69912e-06)
(0.006194 0.0343115 2.87805e-19 -0.00618743 9.73943e-20 -6.57328e-06)
(0.00658171 0.040528 1.56364e-19 -0.00657895 -2.35723e-20 -2.76261e-06)
(0.00782326 -0.142234 -7.66344e-20 -0.00782109 -4.88078e-21 -2.16663e-06)
(0.00128828 -0.0841047 -2.11359e-19 -0.00128291 -6.22017e-20 -5.36903e-06)
(-0.00185529 -0.0490658 -1.7908e-19 0.00186335 -2.34162e-20 -8.05622e-06)
(-0.00352322 -0.0253871 -3.21732e-19 0.00353349 1.0874e-19 -1.02736e-05)
(-0.00449371 -0.00802773 -4.28122e-19 0.00450565 1.03686e-19 -1.19405e-05)
(-0.00514498 0.00566864 -3.08097e-19 0.00515784 6.32278e-20 -1.28638e-05)
(-0.0056354 0.0168725 -2.70608e-20 0.00564823 1.1449e-19 -1.28223e-05)
(-0.00607969 0.0263762 -1.63212e-19 0.00609118 2.15075e-19 -1.14886e-05)
(-0.00650085 0.0343183 6.55e-20 0.00650939 8.34485e-20 -8.53806e-06)
(-0.00691441 0.0405344 1.71595e-19 0.00691792 -2.59692e-20 -3.51279e-06)
(0.0237288 -0.141276 -9.10036e-20 -0.023726 9.63481e-21 -2.76252e-06)
(0.00479118 -0.0868942 -2.51545e-19 -0.00478435 -5.43299e-20 -6.82844e-06)
(-0.00440152 -0.0533033 -2.9301e-20 0.00441172 -4.26664e-20 -1.0198e-05)
(-0.0093343 -0.0301353 -5.1968e-20 0.00934722 1.04383e-19 -1.29221e-05)
(-0.0122391 -0.0128895 -5.31959e-19 0.012254 9.61779e-20 -1.49089e-05)
(-0.0142033 0.000838207 -3.33666e-19 0.0142192 4.85907e-20 -1.59347e-05)
(-0.0156847 0.0121147 -2.4869e-19 0.0157005 3.88645e-20 -1.57467e-05)
(-0.0170138 0.0216544 1.89654e-19 0.0170278 1.67908e-19 -1.39767e-05)
(-0.0182619 0.0295774 -4.12655e-19 0.0182722 7.19707e-20 -1.02741e-05)
(-0.0194702 0.0356918 7.62548e-20 0.0194743 -1.43998e-20 -4.16649e-06)
(0.0400627 -0.139143 -3.8267e-20 -0.0400594 4.35612e-20 -3.29753e-06)
(0.0106067 -0.0917791 -2.82213e-19 -0.0105986 -1.65397e-20 -8.13596e-06)
(-0.00399687 -0.0609328 -3.91733e-19 0.00400898 -9.30831e-20 -1.21109e-05)
(-0.0120501 -0.0387631 -2.87855e-19 0.0120653 1.06528e-20 -1.52778e-05)
(-0.0169432 -0.0217714 -3.95755e-19 0.0169607 6.51142e-20 -1.75357e-05)
(-0.0203368 -0.00802278 -1.09524e-19 0.0203555 5.57739e-20 -1.86352e-05)
(-0.0229333 0.00335677 -1.83259e-19 0.0229516 5.29124e-20 -1.82989e-05)
(-0.0252365 0.0129373 -5.81777e-20 0.0252527 6.76178e-20 -1.61286e-05)
(-0.0273556 0.0208034 -1.78997e-19 0.0273674 -6.25518e-20 -1.17582e-05)
(-0.0293397 0.0267166 3.53775e-19 0.0293444 1.23845e-20 -4.71591e-06)
(0.0569576 -0.13546 -4.52299e-20 -0.0569538 5.37372e-20 -3.76375e-06)
(0.0198241 -0.0974862 -4.49919e-19 -0.0198148 -5.36224e-20 -9.27294e-06)
(0.00078021 -0.0703948 -1.37851e-19 -0.000766442 -1.12182e-19 -1.37684e-05)
(-0.010165 -0.0496637 1.13447e-19 0.0101823 -2.26132e-20 -1.73087e-05)
(-0.0171174 -0.0331137 1.48636e-19 0.0171372 2.05874e-19 -1.97858e-05)
(-0.0221069 -0.0194292 -2.86504e-19 0.0221278 1.64391e-19 -2.09304e-05)
(-0.0259971 -0.00799162 -2.96602e-19 0.0260176 -9.49245e-20 -2.04472e-05)
(-0.0294024 0.00157855 5.5733e-21 0.0294203 -1.19758e-19 -1.79184e-05)
(-0.0324534 0.00931898 1.95268e-20 0.0324664 1.8943e-20 -1.2973e-05)
(-0.0351823 0.0149345 -6.91198e-19 0.0351874 8.01859e-20 -5.15471e-06)
(0.0743465 -0.129747 4.79165e-20 -0.0743424 -3.414e-20 -4.15572e-06)
(0.0329282 -0.102364 2.21648e-19 -0.0329179 9.6516e-20 -1.0226e-05)
(0.0106208 -0.0796608 1.64019e-19 -0.0106057 1.1224e-19 -1.51516e-05)
(-0.00292192 -0.0607443 3.99281e-20 0.00294092 9.47528e-20 -1.89928e-05)
(-0.0119968 -0.0448826 4.3928e-20 0.0120184 1.70365e-19 -2.16366e-05)
(-0.0187613 -0.0314429 -5.68178e-19 0.0187841 2.2148e-19 -2.27994e-05)
(-0.0241418 -0.0200897 -8.01224e-19 0.024164 -3.14868e-19 -2.21744e-05)
(-0.0287883 -0.010653 -4.47812e-19 0.0288077 1.90578e-19 -1.93345e-05)
(-0.0328338 -0.00314637 -1.43964e-18 0.0328477 -6.15263e-19 -1.39134e-05)
(-0.0362648 0.00207927 9.09072e-19 0.0362703 2.14803e-20 -5.48257e-06)
(0.0919304 -0.121518 -1.07846e-19 -0.0919259 -2.98594e-19 -4.46907e-06)
(0.049694 -0.104647 4.92172e-19 -0.049683 -1.34539e-19 -1.09854e-05)
(0.025356 -0.0865515 5.3884e-19 -0.0253398 5.58373e-20 -1.62474e-05)
(0.0095549 -0.0697518 3.69482e-19 -0.00953458 3.63762e-19 -2.03158e-05)
(-0.00166932 -0.0548852 -4.97258e-19 0.00169239 3.28138e-19 -2.30747e-05)
(-0.0103578 -0.0419718 -8.70814e-19 0.0103821 5.08727e-19 -2.42312e-05)
(-0.0173999 -0.0309481 -1.50444e-18 0.0174234 -7.5717e-21 -2.34734e-05)
(-0.023406 -0.0218434 -1.85644e-19 0.0234264 -7.70604e-20 -2.0374e-05)
(-0.0284915 -0.0147198 -1.18325e-18 0.0285061 2.59077e-19 -1.45797e-05)
(-0.0325711 -0.00997046 -4.24461e-19 0.0325768 -6.46151e-19 -5.70088e-06)
(0.109183 -0.110376 -3.3725e-20 -0.109179 -1.94931e-19 -4.70162e-06)
(0.0691902 -0.102743 2.39702e-20 -0.0691787 -4.26915e-19 -1.15462e-05)
(0.0439599 -0.0890825 -6.15303e-20 -0.0439428 -5.0292e-19 -1.70496e-05)
(0.0262617 -0.0746254 -1.29912e-19 -0.0262404 -1.84677e-19 -2.12723e-05)
(0.0129255 -0.0611104 -5.72811e-19 -0.0129014 2.86653e-19 -2.4097e-05)
(0.00223679 -0.0490926 -4.67614e-19 -0.00221156 4.4255e-19 -2.52263e-05)
(-0.0065701 -0.038734 1.54652e-19 0.00659445 7.69428e-19 -2.43488e-05)
(-0.0140015 -0.0302268 -3.86973e-19 0.0140225 4.46058e-19 -2.1045e-05)
(-0.0201383 -0.0236702 -4.28536e-19 0.0201533 1.05603e-18 -1.49815e-05)
(-0.0248023 -0.0194768 -5.05377e-19 0.0248081 -6.38908e-19 -5.81531e-06)
(0.125396 -0.0960985 -1.32786e-20 -0.125391 2.53866e-20 -4.85224e-06)
(0.0898936 -0.095496 -5.14824e-19 -0.0898817 -3.09592e-19 -1.19065e-05)
(0.0646847 -0.0857823 -8.32126e-19 -0.0646672 -6.37736e-19 -1.75573e-05)
(0.0454527 -0.0738231 -5.77497e-19 -0.0454309 -5.38466e-19 -2.18634e-05)
(0.0301288 -0.062044 7.68843e-20 -0.0301041 1.59974e-19 -2.47078e-05)
(0.0174717 -0.0513498 4.80186e-19 -0.0174459 3.45924e-19 -2.5793e-05)
(0.00690006 -0.0420546 5.76405e-19 -0.00687525 4.53968e-19 -2.48128e-05)
(-0.00194334 -0.0344552 4.03285e-19 0.00196471 3.58782e-19 -2.1362e-05)
(-0.00909354 -0.0286721 4.5828e-19 0.00910867 1.19781e-18 -1.51325e-05)
(-0.0142683 -0.0251061 -9.75958e-19 0.0142742 1.0552e-19 -5.83276e-06)
(0.139752 -0.0787083 -1.47965e-19 -0.139747 3.64858e-20 -4.92151e-06)
(0.109896 -0.0823879 -5.33688e-19 -0.109884 9.97397e-20 -1.20683e-05)
(0.0853087 -0.0759348 -5.91447e-19 -0.0852909 -1.38541e-19 -1.77746e-05)
(0.0648924 -0.0665696 1.51857e-19 -0.0648703 -2.29e-19 -2.20965e-05)
(0.0478052 -0.0569085 7.66893e-19 -0.0477803 -6.55272e-21 -2.49186e-05)
(0.0333417 -0.047984 3.35953e-19 -0.0333157 2.67461e-19 -2.5947e-05)
(0.0211313 -0.0401723 2.80923e-19 -0.0211064 8.76473e-22 -2.48848e-05)
(0.0109847 -0.033806 6.50556e-19 -0.0109634 2.32307e-19 -2.13458e-05)
(0.00291717 -0.0290073 3.53511e-19 -0.00290212 4.63251e-19 -1.50509e-05)
(-0.00268603 -0.026131 2.73686e-19 0.00269179 6.96016e-19 -5.76228e-06)
(0.15142 -0.058504 -2.52848e-20 -0.151415 1.15761e-19 -4.91084e-06)
(0.127173 -0.0636436 -1.57617e-19 -0.127161 4.50612e-19 -1.20358e-05)
(0.103458 -0.0597093 -3.05248e-19 -0.10344 4.93194e-19 -1.7709e-05)
(0.0821837 -0.0529898 1.16022e-19 -0.0821617 2.56055e-19 -2.19833e-05)
(0.0636598 -0.0457931 2.59841e-19 -0.063635 -2.25575e-19 -2.47454e-05)
(0.047687 -0.0390544 4.54416e-19 -0.0476613 -2.39842e-19 -2.57085e-05)
(0.0340957 -0.0331218 2.42418e-19 -0.0340711 -2.10291e-19 -2.45878e-05)
(0.0228547 -0.0282936 1.09318e-18 -0.0228337 -3.03362e-19 -2.10202e-05)
(0.0140258 -0.0246742 9.15418e-19 -0.0140111 9.13928e-20 -1.47568e-05)
(0.00808436 -0.0225397 -7.57058e-20 -0.00807875 2.14112e-19 -5.61323e-06)
(0.159663 -0.0360557 2.17513e-20 -0.159658 8.24294e-20 -4.82281e-06)
(0.139876 -0.0402282 1.57433e-20 -0.139865 2.40892e-19 -1.18157e-05)
(0.116955 -0.0381577 7.49565e-20 -0.116938 4.83587e-19 -1.73716e-05)
(0.0951241 -0.0341075 2.80608e-19 -0.0951026 2.87032e-19 -2.1539e-05)
(0.0755807 -0.0296523 1.08666e-19 -0.0755565 1.12014e-19 -2.42078e-05)
(0.0585185 -0.0254386 -1.39166e-19 -0.0584934 -1.25213e-19 -2.51008e-05)
(0.0439237 -0.0217093 2.19143e-19 -0.0438998 2.02638e-20 -2.39476e-05)
(0.0318875 -0.0186692 6.3851e-19 -0.0318671 -3.40435e-19 -2.04105e-05)
(0.0225075 -0.0163881 5.41405e-19 -0.0224933 -3.88117e-19 -1.4271e-05)
(0.0163245 -0.0150362 7.34286e-20 -0.0163191 9.07399e-20 -5.39508e-06)
(0.163928 -0.012161 2.96626e-20 -0.163923 3.00959e-20 -4.66051e-06)
(0.1466 -0.0137322 5.59742e-20 -0.146588 4.62841e-20 -1.14161e-05)
(0.124141 -0.0130787 2.41406e-20 -0.124125 2.30083e-19 -1.6775e-05)
(0.102033 -0.0117064 3.10219e-20 -0.102012 9.75099e-21 -2.07808e-05)
(0.0819559 -0.0101726 1.59416e-19 -0.0819326 -9.44532e-20 -2.3327e-05)
(0.0643168 -0.00870681 2.77493e-19 -0.0642927 1.29893e-19 -2.41483e-05)
(0.0491869 -0.00739487 3.92914e-19 -0.0491639 2.20746e-19 -2.29903e-05)
(0.0367236 -0.00630822 4.3384e-19 -0.0367041 -1.24301e-19 -1.95417e-05)
(0.0270441 -0.00547113 6.08134e-19 -0.0270305 -2.69903e-19 -1.36134e-05)
(0.0207216 -0.00493053 7.37277e-20 -0.0207165 1.6024e-19 -5.11669e-06)
(0.163918 0.0122319 2.37025e-20 -0.163914 -3.76976e-21 -4.42778e-06)
(0.146586 0.0138371 1.06245e-19 -0.146575 -3.39356e-20 -1.08465e-05)
(0.124121 0.0132309 1.04958e-19 -0.124105 1.75213e-19 -1.59337e-05)
(0.102004 0.011922 -7.18694e-20 -0.101984 1.21384e-19 -1.97275e-05)
(0.0819152 0.0104702 1.18958e-19 -0.0818931 -2.05105e-19 -2.21252e-05)
(0.0642621 0.00910828 4.03743e-19 -0.0642393 -8.79068e-20 -2.28754e-05)
(0.049115 0.00792542 3.90929e-19 -0.0490932 -1.85815e-19 -2.17406e-05)
(0.0366306 0.00699737 4.78005e-20 -0.0366121 -4.47779e-20 -1.84366e-05)
(0.026926 0.00634947 4.88443e-19 -0.0269132 -7.31551e-19 -1.28016e-05)
(0.02057 0.00606315 5.36419e-20 -0.0205652 -1.8463e-19 -4.78555e-06)
(0.159635 0.0361217 1.38465e-21 -0.159631 -1.31723e-20 -4.1287e-06)
(0.139834 0.0403259 1.58972e-19 -0.139824 -1.14797e-19 -1.01171e-05)
(0.116894 0.0382995 3.48875e-19 -0.116879 -1.86411e-19 -1.48627e-05)
(0.0950374 0.0343082 -2.60322e-20 -0.095019 -1.63549e-19 -1.83978e-05)
(0.0754613 0.0299293 -2.13564e-19 -0.0754407 -1.98878e-19 -2.0624e-05)
(0.0583581 0.0258122 2.22719e-19 -0.0583368 -1.83993e-20 -2.13051e-05)
(0.0437127 0.0222031 3.36537e-19 -0.0436925 -2.28206e-19 -2.02216e-05)
(0.0316146 0.0193105 7.70817e-20 -0.0315975 -1.81538e-19 -1.71157e-05)
(0.0221613 0.0172056 -5.34427e-19 -0.0221494 -5.19518e-19 -1.18507e-05)
(0.0158801 0.0160905 1.48318e-19 -0.0158757 2.92345e-19 -4.40794e-06)
(0.151375 0.0585604 -5.2155e-20 -0.151372 -4.59267e-20 -3.76788e-06)
(0.127106 0.0637274 -4.04006e-21 -0.127097 -2.46805e-19 -9.23879e-06)
(0.10336 0.0598308 2.01456e-20 -0.103347 -2.15069e-19 -1.35779e-05)
(0.0820455 0.0531618 -1.45548e-19 -0.0820287 -2.23423e-20 -1.68112e-05)
(0.0634696 0.0460304 -1.89288e-19 -0.0634508 3.55284e-19 -1.88446e-05)
(0.0474316 0.0393742 3.68393e-19 -0.0474122 1.39011e-19 -1.9459e-05)
(0.0337598 0.0335444 9.28596e-20 -0.0337414 -3.73361e-20 -1.84532e-05)
(0.0224204 0.0288426 -1.77578e-19 -0.0224048 -1.30804e-19 -1.55958e-05)
(0.0134749 0.0253742 -1.37354e-19 -0.0134641 6.1517e-19 -1.07723e-05)
(0.00737741 0.0234426 6.46135e-19 -0.00737342 -4.7704e-19 -3.98815e-06)
(0.139694 0.0787513 -1.61435e-19 -0.13969 -1.26273e-20 -3.35001e-06)
(0.109808 0.0824521 -4.18724e-19 -0.1098 2.29956e-19 -8.22287e-06)
(0.0851811 0.0760277 2.5228e-20 -0.085169 3.31051e-19 -1.20953e-05)
(0.0647118 0.0667007 2.34366e-19 -0.0646968 2.92634e-19 -1.49865e-05)
(0.0475569 0.0570893 8.36817e-20 -0.0475401 4.12865e-19 -1.68073e-05)
(0.0330083 0.0482276 1.38406e-19 -0.032991 -1.06236e-19 -1.73569e-05)
(0.020693 0.0404943 2.62635e-19 -0.0206766 -8.54023e-20 -1.64531e-05)
(0.0104184 0.0342244 3.62524e-19 -0.0104045 -1.21174e-20 -1.38908e-05)
(0.00219883 0.0295409 1.91698e-19 -0.00218926 -6.26848e-19 -9.57518e-06)
(-0.00360734 0.0268196 -8.79661e-19 0.00361087 9.12519e-20 -3.52924e-06)
(0.125329 0.0961254 3.16323e-20 -0.125326 -1.57486e-20 -2.88035e-06)
(0.0897914 0.0955362 -3.35856e-19 -0.0897843 5.58907e-19 -7.08156e-06)
(0.0645355 0.0858401 -2.56387e-19 -0.064525 5.99295e-19 -1.04318e-05)
(0.0452417 0.0739042 -2.32847e-20 -0.0452287 4.10223e-19 -1.29433e-05)
(0.0298388 0.0621555 4.1514e-19 -0.0298243 -1.28668e-19 -1.45322e-05)
(0.0170827 0.0515 3.45231e-20 -0.0170677 -5.47277e-19 -1.50174e-05)
(0.00638899 0.0422531 4.87489e-19 -0.00637475 -9.00005e-19 -1.42369e-05)
(-0.00260346 0.0347134 -2.66317e-19 0.00261548 -7.61068e-19 -1.20118e-05)
(-0.00993048 0.0290019 -1.74573e-19 0.00993874 -7.19257e-19 -8.26549e-06)
(-0.0153412 0.0255325 5.21705e-19 0.0153442 3.28489e-19 -3.03264e-06)
(0.109111 0.110385 6.91148e-20 -0.109109 1.67919e-19 -2.36418e-06)
(0.0690799 0.102756 3.48322e-19 -0.0690741 3.84049e-19 -5.82735e-06)
(0.0437987 0.0891009 3.20119e-19 -0.0437901 3.08405e-19 -8.60469e-06)
(0.0260341 0.0746505 1.99491e-19 -0.0260234 -6.21041e-20 -1.07014e-05)
(0.0126131 0.0611444 -6.27837e-20 -0.0126011 -7.51113e-19 -1.20391e-05)
(0.00181826 0.0491382 -5.55571e-19 -0.0018058 -1.1061e-18 -1.24586e-05)
(-0.00711955 0.0387946 -1.13687e-18 0.00713137 -5.52227e-19 -1.18188e-05)
(-0.0147107 0.0303062 9.44964e-20 0.0147206 -4.79896e-19 -9.96833e-06)
(-0.0210369 0.0237726 -1.11846e-18 0.0210438 -2.80474e-19 -6.84761e-06)
(-0.0259535 0.0196107 5.11034e-19 0.025956 -3.88267e-19 -2.49893e-06)
(0.0918586 0.121509 -3.80238e-20 -0.0918567 2.332e-19 -1.80764e-06)
(0.0495828 0.104632 5.93952e-19 -0.0495783 5.01176e-20 -4.47431e-06)
(0.0251935 0.0865289 8.22079e-19 -0.0251869 -2.80511e-19 -6.63327e-06)
(0.00932577 0.0697185 6.41942e-19 -0.00931749 -7.60138e-19 -8.28237e-06)
(-0.00198326 0.0548386 -4.01566e-19 0.00199261 -9.06325e-19 -9.34986e-06)
(-0.0107778 0.041909 -1.02054e-18 0.0107875 -5.60757e-19 -9.69973e-06)
(-0.0179506 0.0308656 -1.2507e-18 0.0179598 2.28239e-19 -9.21399e-06)
(-0.0241162 0.0217375 -6.94558e-19 0.0241239 -3.68448e-19 -7.77011e-06)
(-0.0293907 0.0145865 -1.60009e-18 0.029396 3.24895e-19 -5.32567e-06)
(-0.033722 0.00980159 2.42392e-19 0.0337239 -1.213e-19 -1.92844e-06)
(0.0742792 0.129721 9.52681e-20 -0.074278 -1.45045e-20 -1.21691e-06)
(0.0328232 0.102322 2.70932e-19 -0.0328202 -2.06914e-19 -3.03711e-06)
(0.0104677 0.0795984 1.93861e-19 -0.0104631 -3.96789e-19 -4.53776e-06)
(-0.00313734 0.0606545 -1.14078e-19 0.00314305 -4.97509e-19 -5.70934e-06)
(-0.0122913 0.044758 -6.61995e-19 0.0122977 -2.39224e-19 -6.48743e-06)
(-0.0191545 0.0312751 -6.56035e-19 0.0191612 4.83206e-20 -6.76153e-06)
(-0.0246566 0.019869 -5.30701e-19 0.024663 1.57536e-19 -6.43856e-06)
(-0.0294513 0.010368 -5.74963e-19 0.0294567 1.76497e-19 -5.42733e-06)
(-0.0336723 0.00278551 -3.3972e-19 0.033676 -7.12245e-20 -3.70387e-06)
(-0.0373368 -0.0025404 -1.10816e-18 0.0373382 1.41566e-19 -1.32119e-06)
(0.0568989 0.135419 -3.12197e-20 -0.0568983 -6.49587e-20 -5.99374e-07)
(0.019732 0.0974207 -2.58268e-19 -0.0197305 -1.51145e-19 -1.53279e-06)
(0.000646391 0.0702965 -4.81989e-19 -0.000644049 -1.03453e-19 -2.34179e-06)
(-0.0103524 0.0495228 -4.10387e-19 0.0103554 4.59679e-20 -3.00938e-06)
(-0.0173727 0.0329188 -2.87898e-20 0.0173762 3.18936e-20 -3.47958e-06)
(-0.0224468 0.0191669 -4.04195e-19 0.0224504 3.23593e-20 -3.66953e-06)
(-0.0264411 0.00764663 -3.41297e-19 0.0264446 6.67692e-20 -3.51347e-06)
(-0.029973 -0.00202422 -3.23199e-19 0.029976 1.94118e-19 -2.95467e-06)
(-0.0331741 -0.00988387 -5.63327e-20 0.0331761 -8.11535e-20 -1.98984e-06)
(-0.0361022 -0.0156573 -5.71613e-19 0.0361029 3.18065e-19 -6.78942e-07)
(0.0400159 0.139091 -5.0571e-20 -0.040016 -4.71949e-20 3.75312e-08)
(0.0105334 0.0916936 -1.3972e-19 -0.0105335 -1.62335e-19 2.06793e-08)
(-0.00410263 0.0608048 -6.87213e-19 0.00410271 -2.90612e-20 -7.05813e-08)
(-0.012197 0.0385801 -6.30573e-19 0.0121973 1.46239e-19 -2.11927e-07)
(-0.0171422 0.0215188 -4.32677e-19 0.0171425 2.00279e-19 -3.56839e-07)
(-0.0206005 0.00768323 -6.04297e-20 0.0206009 1.37711e-19 -4.52392e-07)
(-0.0232764 -0.0038033 -3.46943e-19 0.0232769 1.42308e-19 -4.62735e-07)
(-0.0256762 -0.0135141 -1.37785e-20 0.0256765 3.3375e-19 -3.69341e-07)
(-0.0279093 -0.0215347 5.53669e-19 0.0279095 3.28704e-20 -1.92709e-07)
(-0.0300448 -0.0276527 -1.09838e-19 0.0300448 -1.40045e-20 -3.43842e-09)
(0.0236965 0.141214 -5.83163e-20 -0.0236972 -3.09606e-20 6.84823e-07)
(0.0047411 0.0867942 -1.02486e-19 -0.0047427 -1.07771e-19 1.60228e-06)
(-0.00447239 0.0531539 -3.66618e-19 0.00447014 -1.23674e-20 2.24599e-06)
(-0.00943115 0.0299223 -2.71091e-19 0.0094285 1.18247e-19 2.64762e-06)
(-0.0123685 0.0125958 -2.79154e-19 0.0123657 1.22552e-19 2.8429e-06)
(-0.014373 -0.00123259 -4.47505e-19 0.0143701 9.9545e-20 2.85282e-06)
(-0.0159038 -0.012633 -4.14285e-19 0.0159011 1.84908e-19 2.68058e-06)
(-0.0172926 -0.0223238 -1.13561e-19 0.0172903 2.98217e-19 2.30261e-06)
(-0.018611 -0.0304259 4.05739e-19 0.0186093 5.38936e-20 1.67086e-06)
(-0.0199124 -0.036778 -3.71962e-20 0.0199117 -1.90107e-20 6.99424e-07)
(0.00780688 0.142168 -7.90877e-20 -0.00780822 -1.60947e-20 1.33359e-06)
(0.00126438 0.0839967 -1.44955e-19 -0.00126758 -7.38847e-20 3.19005e-06)
(-0.00188677 0.0489048 -2.89433e-19 0.0018822 -1.25928e-20 4.57632e-06)
(-0.0035636 0.025158 -3.83725e-19 0.00355807 1.12219e-19 5.53109e-06)
(-0.00454496 0.00771241 -3.75076e-19 0.00453888 1.05818e-19 6.07835e-06)
(-0.00520943 -0.00609156 -3.51788e-19 0.00520323 8.69541e-20 6.20517e-06)
(-0.00571576 -0.017428 -1.67575e-19 0.00570988 1.64215e-19 5.87963e-06)
(-0.00617891 -0.0270932 -1.12583e-19 0.00617387 2.6073e-19 5.03203e-06)
(-0.00662176 -0.0352269 2.86474e-19 0.00661817 9.69365e-20 3.58273e-06)
(-0.00706367 -0.0416973 1.5619e-19 0.00706225 -2.31118e-20 1.42444e-06)
(-0.00792137 0.142162 -7.6605e-20 0.00791939 -4.89056e-21 1.97328e-06)
(-0.00139203 0.0839937 -2.11337e-19 0.00138727 -6.22621e-20 4.75881e-06)
(0.00174144 0.0489041 -1.79042e-19 -0.00174832 -2.34973e-20 6.88372e-06)
(0.00339604 0.0251591 -3.21649e-19 -0.00340444 1.08723e-19 8.3936e-06)
(0.00435098 0.00771495 -4.28302e-19 -0.00436028 1.03578e-19 9.29949e-06)
(0.00498525 -0.00608784 -3.0841e-19 -0.0049948 6.28956e-20 9.55327e-06)
(0.00545989 -0.017423 -2.79473e-20 -0.00546897 1.14362e-19 9.08566e-06)
(0.00589148 -0.0270871 -1.63445e-19 -0.00589926 2.15183e-19 7.77743e-06)
(0.00630924 -0.0352188 6.36616e-20 -0.00631475 8.29131e-20 5.51352e-06)
(0.00673525 -0.0416891 1.70785e-19 -0.00673741 -2.56995e-20 2.15964e-06)
(-0.0238048 0.141197 -9.10124e-20 0.0238022 9.64449e-21 2.59367e-06)
(-0.0048659 0.0867857 -2.51594e-19 0.00485962 -5.43822e-20 6.28296e-06)
(0.00432764 0.0531519 -2.96014e-20 -0.00433677 -4.27857e-20 9.13052e-06)
(0.00926249 0.0299251 -5.23254e-20 -0.00927368 1.04482e-19 1.11883e-05)
(0.012172 0.0126027 -5.31951e-19 -0.0121845 9.6396e-20 1.24539e-05)
(0.0141452 -0.00122241 -3.338e-19 -0.014158 4.85834e-20 1.28431e-05)
(0.0156431 -0.0126194 -2.49286e-19 -0.0156553 3.86448e-20 1.22477e-05)
(0.0169993 -0.022307 1.88439e-19 -0.0170098 1.68405e-19 1.04962e-05)
(0.0182907 -0.0304037 -4.12845e-19 -0.0182981 7.24664e-20 7.43478e-06)
(0.0195761 -0.0367554 7.66561e-20 -0.019579 -1.46842e-20 2.89579e-06)
(-0.0401136 0.139066 -3.83268e-20 0.0401105 4.35872e-20 3.18314e-06)
(-0.0106533 0.0916817 -2.82315e-19 0.0106455 -1.65134e-20 7.73438e-06)
(0.00395895 0.0608017 -3.91797e-19 -0.00397022 -9.30627e-20 1.12749e-05)
(0.0120265 0.0385838 -2.87864e-19 -0.0120404 1.07893e-20 1.38627e-05)
(0.0169414 0.0215281 -3.95304e-19 -0.0169569 6.53582e-20 1.54813e-05)
(0.0203665 0.00769718 -1.0979e-19 -0.0203825 5.57958e-20 1.60104e-05)
(0.0230074 -0.00378449 -1.83697e-19 -0.0230227 5.3134e-20 1.53023e-05)
(0.0253727 -0.0134909 -5.89029e-20 -0.0253858 6.82105e-20 1.31319e-05)
(0.0275755 -0.0215039 -1.77816e-19 -0.0275848 -6.26334e-20 9.3042e-06)
(0.029695 -0.0276213 3.51707e-19 -0.0296986 1.17878e-20 3.61448e-06)
(-0.0569843 0.135394 -4.52799e-20 0.0569806 5.37773e-20 3.73092e-06)
(-0.019846 0.0974081 -4.49756e-19 0.0198369 -5.35034e-20 9.08564e-06)
(-0.00078871 0.0702929 -1.37733e-19 0.000775434 -1.12173e-19 1.32757e-05)
(0.0101799 0.0495262 1.13335e-19 -0.0101963 -2.27328e-20 1.63647e-05)
(0.0171671 0.032928 1.48451e-19 -0.0171854 2.05937e-19 1.83219e-05)
(0.0222056 0.019181 -2.87019e-19 -0.0222246 1.64597e-19 1.89919e-05)
(0.0261625 0.00766574 -2.97113e-19 -0.0261807 -9.47482e-20 1.81882e-05)
(0.0296578 -0.00200049 4.72387e-21 -0.0296734 -1.19703e-19 1.56318e-05)
(0.0328246 -0.00985236 1.72756e-20 -0.0328356 1.88435e-20 1.10855e-05)
(0.0357366 -0.015625 -6.90233e-19 -0.0357409 8.04611e-20 4.30353e-06)
(-0.0743539 0.129701 4.78479e-20 0.0743497 -3.41385e-20 4.2254e-06)
(-0.0329319 0.102312 2.21647e-19 0.0329216 9.65307e-20 1.03084e-05)
(-0.0106085 0.0795948 1.64057e-19 0.0105934 1.12243e-19 1.50902e-05)
(0.00296335 0.0606564 3.98628e-20 -0.00298199 9.46757e-20 1.86393e-05)
(0.0120817 0.0447646 4.31734e-20 -0.0121026 1.70138e-19 2.09113e-05)
(0.0189073 0.0312856 -5.68804e-19 -0.0189291 2.21775e-19 2.17175e-05)
(0.0243698 0.0198835 -8.01744e-19 -0.0243907 -3.14483e-19 2.08342e-05)
(0.0291258 0.0103863 -4.48608e-19 -0.0291437 1.91548e-19 1.79304e-05)
(0.0333091 0.00280996 -1.43752e-18 -0.0333218 -6.14127e-19 1.27278e-05)
(0.0369573 -0.00251484 9.09898e-19 -0.0369622 2.18711e-20 4.93971e-06)