/*--------------------------------*- C++ -*----------------------------------*\
| =========                 |                                                 |
| \\      /  F ield         | foam-extend: Open Source CFD                    |
|  \\    /   O peration     | Version:  3.0                                   |
|   \\  /    A nd           | Web:         http://www.extend-project.de       |
|    \\/     M anipulation  |                                                 |
\*---------------------------------------------------------------------------*/
FoamFile
{
    version     2.0;
    format      ascii;
    class       volVectorField;
    location    "22";
    object      u;
}
// * * * * * * * * * * * * * * * * * * * * * * * * * * * * * * * * * * * * * //

dimensions      [0 0 0 0 0 0 0];

internalField   nonuniform List<vector> 
480
(
(0.282531 -0.102546 3.39966e-19)
(0.543698 -0.0691034 1.75269e-18)
(0.723123 -0.048519 -3.60988e-18)
(0.817254 -0.0345812 3.9698e-18)
(0.897364 -0.0250827 2.54122e-18)
(0.93266 -0.0182939 -2.13249e-18)
(0.973914 -0.0128488 -1.29198e-17)
(0.981918 -0.00893526 9.92451e-18)
(1.00443 -0.00492971 -8.10681e-18)
(0.995394 -0.00144852 -8.43758e-18)
(0.335533 -0.300262 1.93165e-18)
(0.579351 -0.202005 2.56522e-18)
(0.748083 -0.141476 -1.90327e-17)
(0.834966 -0.100423 -1.63872e-17)
(0.910117 -0.0723713 1.3951e-17)
(0.941857 -0.0522373 3.93644e-18)
(0.98024 -0.036014 6.4473e-18)
(0.986161 -0.0242441 -2.04163e-17)
(1.00652 -0.0120853 2.77914e-17)
(0.99571 -0.00204609 4.81376e-18)
(0.437903 -0.477524 -2.13543e-18)
(0.648183 -0.321157 2.84286e-18)
(0.796255 -0.224812 1.22073e-17)
(0.869118 -0.159449 1.13807e-17)
(0.934683 -0.11476 2.29766e-17)
(0.959532 -0.0826585 -7.05737e-18)
(0.992356 -0.0567681 3.1193e-18)
(0.994231 -0.0379501 1.00106e-18)
(1.01039 -0.0184766 2.86285e-17)
(0.996178 -0.00255348 -5.21891e-17)
(0.58266 -0.622255 1.13317e-18)
(0.745512 -0.418439 3.44692e-17)
(0.864355 -0.292852 1.23352e-17)
(0.91739 -0.207634 -6.39854e-18)
(0.969388 -0.149359 -8.04821e-18)
(0.98449 -0.107481 -1.54268e-18)
(1.00944 -0.0736949 -3.66845e-19)
(1.00559 -0.0491154 -8.96447e-18)
(1.0158 -0.0236666 -4.0852e-17)
(0.99677 -0.00293207 6.49919e-17)
(0.759943 -0.724587 -8.28118e-18)
(0.864702 -0.487223 6.70428e-18)
(0.947751 -0.340955 1.18788e-17)
(0.976493 -0.241696 1.30386e-17)
(1.01188 -0.173808 -1.72781e-17)
(1.01503 -0.125012 -3.52436e-18)
(1.03034 -0.0856373 -1.23821e-17)
(1.01946 -0.0569768 -1.53767e-17)
(1.02238 -0.0272956 4.76821e-17)
(0.997445 -0.00315144 -6.84527e-17)
(0.957669 -0.77755 1.11615e-17)
(0.997638 -0.522818 -1.75245e-17)
(1.04076 -0.365844 -2.00655e-17)
(1.04241 -0.259309 -2.05378e-17)
(1.05925 -0.186441 -4.03427e-18)
(1.04908 -0.134053 -5.61203e-18)
(1.05362 -0.0917799 5.52994e-17)
(1.0349 -0.0609932 -2.73081e-17)
(1.0297 -0.0291145 3.34546e-17)
(0.998162 -0.00319198 -1.02004e-17)
(1.16236 -0.77753 1.12515e-17)
(1.13526 -0.522799 -1.19097e-17)
(1.13705 -0.365818 -2.21944e-17)
(1.11065 -0.259272 -2.90572e-17)
(1.1083 -0.186391 -1.91819e-19)
(1.08433 -0.133987 1.33227e-17)
(1.07773 -0.0916973 1.21428e-17)
(1.05088 -0.0608884 5.94851e-19)
(1.03725 -0.0289914 2.95238e-17)
(0.99887 -0.00305053 -2.93516e-18)
(1.36008 -0.724533 -5.11049e-18)
(1.26819 -0.487163 -9.00855e-19)
(1.23006 -0.340879 5.34961e-18)
(1.17656 -0.241582 7.89828e-18)
(1.15568 -0.17366 1.25517e-17)
(1.11837 -0.124809 3.31645e-18)
(1.101 -0.0853932 -6.59627e-18)
(1.0663 -0.0566625 6.76633e-18)
(1.04453 -0.0269323 -2.84261e-17)
(0.999522 -0.00273322 4.80211e-17)
(1.53734 -0.622166 1.81432e-18)
(1.38738 -0.418339 9.29752e-18)
(1.31345 -0.292719 1.41239e-17)
(1.23567 -0.207442 6.38534e-18)
(1.19816 -0.149106 -1.02169e-17)
(1.1489 -0.107144 6.77478e-19)
(1.12187 -0.0732879 -4.1394e-19)
(1.08012 -0.048601 3.46183e-18)
(1.05105 -0.023068 -3.11153e-18)
(1.00007 -0.00226381 1.0719e-17)
(1.68206 -0.47741 1.61478e-18)
(1.48469 -0.321011 2.36177e-19)
(1.38155 -0.22462 1.10366e-17)
(1.28393 -0.159171 8.16617e-18)
(1.23285 -0.114401 5.76319e-18)
(1.17383 -0.0821864 -5.80728e-18)
(1.13891 -0.0562043 1.02934e-18)
(1.0914 -0.0372449 -2.13168e-18)
(1.05636 -0.0176591 -1.26756e-17)
(1.0005 -0.00167055 2.66808e-18)
(1.78439 -0.300124 9.56391e-19)
(1.55351 -0.201813 -7.44375e-19)
(1.42971 -0.141213 3.12971e-18)
(1.31807 -0.100056 2.98801e-19)
(1.2574 -0.0719013 4.61124e-20)
(1.19146 -0.0516345 2.42034e-18)
(1.15097 -0.035296 2.86907e-18)
(1.09938 -0.0233651 1.60106e-18)
(1.06012 -0.011063 -5.71267e-18)
(1.00076 -0.000995517 3.02383e-18)
(1.83735 -0.102395 6.03056e-19)
(1.58913 -0.0688618 -8.24646e-19)
(1.45466 -0.0481846 2.32701e-18)
(1.33576 -0.0341186 1.14999e-18)
(1.27012 -0.0245008 -6.62612e-19)
(1.2006 -0.0175611 1.37398e-18)
(1.15722 -0.0119859 1.56623e-18)
(1.10351 -0.0078979 1.1343e-18)
(1.06206 -0.00372574 -4.02371e-18)
(1.00085 -0.000278169 5.4812e-19)
(1.83733 0.102309 2.28148e-19)
(1.58914 0.0687813 -1.14746e-18)
(1.45468 0.0481351 2.51036e-18)
(1.33579 0.0341492 1.78835e-18)
(1.27015 0.0245791 -1.68277e-18)
(1.20063 0.0177137 1.30634e-19)
(1.15724 0.0121482 7.39696e-19)
(1.10351 0.00810584 7.04027e-19)
(1.06206 0.00386472 -4.02738e-18)
(1.00077 0.000434324 6.01982e-19)
(1.78434 0.300034 -2.33926e-20)
(1.55353 0.201742 -2.01174e-18)
(1.42978 0.14118 2.8067e-18)
(1.31816 0.100102 3.46142e-18)
(1.25749 0.0719938 -4.16856e-18)
(1.19154 0.0517945 -8.52579e-19)
(1.15103 0.0354633 -2.1176e-18)
(1.09939 0.0235659 4.273e-18)
(1.06012 0.0111954 -8.20887e-18)
(1.00054 0.00110448 1.95688e-18)
(1.68198 0.477313 1.17392e-18)
(1.48473 0.320959 -3.40534e-18)
(1.38165 0.224616 -6.63802e-18)
(1.28406 0.159245 -3.24951e-18)
(1.233 0.11452 -5.55454e-18)
(1.17395 0.08236 3.01975e-18)
(1.13901 0.0563801 -8.9095e-19)
(1.09143 0.0374323 -5.60521e-19)
(1.05637 0.0177794 -5.22795e-18)
(1.00016 0.00169288 1.66659e-17)
(1.53723 0.622062 7.95677e-19)
(1.38741 0.418311 -1.52997e-17)
(1.31358 0.292755 -5.67662e-18)
(1.23583 0.207553 5.08559e-18)
(1.19834 0.149258 8.26803e-18)
(1.14905 0.107335 7.39535e-19)
(1.122 0.0734745 -1.24079e-18)
(1.08016 0.0487706 4.79824e-18)
(1.05106 0.0231726 1.81146e-17)
(0.999666 0.00217446 -2.82318e-17)
(1.35996 0.724425 6.19333e-18)
(1.26823 0.487165 2.28264e-18)
(1.23018 0.340959 -4.13483e-18)
(1.17674 0.241733 -5.6998e-18)
(1.15588 0.173847 1.14652e-17)
(1.11855 0.125017 1.62271e-19)
(1.10116 0.0855899 -4.8058e-19)
(1.06636 0.0568117 8.32439e-18)
(1.04455 0.0270195 -3.74262e-17)
(0.999095 0.00252584 4.8193e-17)
(1.16225 0.777424 -1.14748e-17)
(1.13528 0.522831 1.77382e-17)
(1.13716 0.36594 1.93683e-17)
(1.11082 0.259459 2.01593e-17)
(1.1085 0.18661 -1.21644e-18)
(1.08452 0.134207 -4.46589e-20)
(1.0779 0.0919013 -5.0746e-17)
(1.05097 0.0610173 1.96467e-17)
(1.03729 0.0290626 -2.4325e-17)
(0.998477 0.00273914 -2.57102e-18)
(0.957554 0.777454 -1.43756e-17)
(0.997645 0.522878 8.64315e-18)
(1.04085 0.366 1.62644e-17)
(1.04256 0.259522 2.2775e-17)
(1.05944 0.186681 -6.30181e-18)
(1.04927 0.13428 -1.63142e-17)
(1.0538 0.0919856 -3.01327e-18)
(1.03501 0.0611037 -2.7394e-18)
(1.02976 0.029173 -1.9739e-17)
(0.99785 0.00280914 -7.78445e-18)
(0.759837 0.724513 4.55218e-18)
(0.864687 0.487307 -5.36483e-18)
(0.947806 0.341132 -2.06258e-17)
(0.976615 0.241922 -2.498e-17)
(1.01203 0.174055 -1.73088e-17)
(1.01521 0.125236 5.21567e-19)
(1.03051 0.0858376 1.51997e-17)
(1.01959 0.0570728 -6.60569e-18)
(1.02247 0.0273468 5.02114e-17)
(0.997243 0.00274407 -6.97316e-17)
(0.582563 0.622213 -6.33107e-18)
(0.745472 0.418541 -1.87419e-17)
(0.864369 0.293036 -3.07393e-17)
(0.917474 0.207855 -1.52105e-17)
(0.969514 0.149596 2.55921e-17)
(0.984657 0.10769 3.87054e-18)
(1.00961 0.0738815 -5.60494e-19)
(1.00575 0.0492013 -2.34101e-18)
(1.0159 0.023716 5.23116e-18)
(0.996688 0.00255408 -8.89378e-18)
(0.437813 0.477524 -2.10752e-18)
(0.648118 0.321269 7.08278e-18)
(0.79623 0.224987 -2.02025e-17)
(0.869166 0.159649 -1.50152e-17)
(0.934776 0.114969 -1.41423e-17)
(0.959683 0.0828417 1.51806e-17)
(0.992515 0.0569325 -6.70525e-18)
(0.994409 0.0380306 5.44927e-18)
(1.01051 0.0185302 3.61408e-17)
(0.996209 0.00225881 -6.82044e-18)
(0.335445 0.300311 1.46371e-20)
(0.579263 0.202121 8.35864e-18)
(0.748025 0.141628 3.78354e-18)
(0.834984 0.100587 1.22469e-17)
(0.910182 0.0725395 7.79656e-18)
(0.941993 0.0523857 -1.39653e-17)
(0.980388 0.0361493 -1.09494e-17)
(0.986351 0.0243226 -9.25459e-18)
(1.00665 0.0121469 9.38541e-18)
(0.995826 0.0018787 -1.27397e-17)
(0.282436 0.102648 -9.34944e-19)
(0.543593 0.0692177 3.00634e-18)
(0.723042 0.0486384 -3.51465e-19)
(0.817251 0.0346986 -4.7e-18)
(0.89741 0.0251983 -1.6653e-20)
(0.932784 0.0183994 2.38273e-20)
(0.974054 0.0129485 6.51975e-18)
(0.98211 0.00901312 -2.53786e-18)
(1.00456 0.00500158 1.19585e-17)
(0.995552 0.00143928 4.60484e-18)
(0.282393 -0.101994 -3.39333e-19)
(0.543541 -0.068382 -1.75207e-18)
(0.722977 -0.0476412 3.61345e-18)
(0.817178 -0.0335262 -3.97139e-18)
(0.897321 -0.0238258 -2.5434e-18)
(0.932683 -0.0168005 2.13516e-18)
(0.973933 -0.0110873 1.29386e-17)
(0.981972 -0.00685512 -9.93691e-18)
(1.0044 -0.00241828 8.12547e-18)
(0.995396 0.000966356 8.46566e-18)
(0.33532 -0.29967 -1.93151e-18)
(0.579103 -0.201301 -2.56537e-18)
(0.747837 -0.140648 1.9046e-17)
(0.834761 -0.0994363 1.64017e-17)
(0.909923 -0.071191 -1.3966e-17)
(0.941688 -0.050815 -3.94104e-18)
(0.980033 -0.0343203 -6.45636e-18)
(0.985936 -0.0222021 2.04546e-17)
(1.00615 -0.00960814 -2.78395e-17)
(0.995359 0.000486773 -4.8248e-18)
(0.437605 -0.476908 2.13606e-18)
(0.647858 -0.320479 -2.8431e-18)
(0.795918 -0.224044 -1.22126e-17)
(0.868803 -0.158538 -1.13879e-17)
(0.934347 -0.113669 -2.29968e-17)
(0.959184 -0.0813257 7.06497e-18)
(0.991928 -0.0551683 -3.12336e-18)
(0.993727 -0.0359834 -9.9824e-19)
(1.00969 -0.0160806 -2.86763e-17)
(0.99544 2.76859e-05 5.22756e-17)
(0.582282 -0.621632 -1.13342e-18)
(0.745113 -0.417795 -3.44811e-17)
(0.863946 -0.292144 -1.23376e-17)
(0.916974 -0.206806 6.40535e-18)
(0.968928 -0.148365 8.05336e-18)
(0.98397 -0.106256 1.54674e-18)
(1.0088 -0.0722113 3.69507e-19)
(1.00481 -0.0472638 8.97795e-18)
(1.01477 -0.0213968 4.09103e-17)
(0.995627 -0.000386511 -6.5084e-17)
(0.759485 -0.723979 8.28291e-18)
(0.864242 -0.486618 -6.70447e-18)
(0.947274 -0.340309 -1.18797e-17)
(0.975991 -0.24095 -1.30416e-17)
(1.0113 -0.172917 1.7287e-17)
(1.01435 -0.123907 3.53328e-18)
(1.0295 -0.0842918 1.23937e-17)
(1.01842 -0.0552766 1.53942e-17)
(1.02105 -0.0251995 -4.7731e-17)
(0.995909 -0.000731111 6.85154e-17)
(0.957143 -0.776974 -1.11611e-17)
(0.997121 -0.522259 1.753e-17)
(1.04023 -0.365256 2.00707e-17)
(1.04182 -0.258646 2.05446e-17)
(1.05857 -0.185652 4.03829e-18)
(1.04826 -0.133081 5.62016e-18)
(1.05261 -0.090588 -5.53297e-17)
(1.03362 -0.0594815 2.73253e-17)
(1.02808 -0.0272323 -3.34891e-17)
(0.996264 -0.000988155 1.02114e-17)
(1.16178 -0.777008 -1.12495e-17)
(1.13469 -0.522288 1.19122e-17)
(1.13646 -0.36529 2.21964e-17)
(1.10998 -0.258689 2.90567e-17)
(1.10752 -0.185709 1.93759e-19)
(1.08336 -0.133154 -1.33173e-17)
(1.07654 -0.0906776 -1.21521e-17)
(1.04938 -0.059594 -5.88068e-19)
(1.03537 -0.0273638 -2.95365e-17)
(0.996669 -0.00114 2.95273e-18)
(1.35946 -0.724076 5.11202e-18)
(1.26758 -0.48671 9.00968e-19)
(1.22941 -0.340409 -5.34573e-18)
(1.17582 -0.241084 -7.89135e-18)
(1.15479 -0.173085 -1.25509e-17)
(1.11728 -0.124129 -3.31743e-18)
(1.09966 -0.0845568 6.58597e-18)
(1.06461 -0.0556138 -6.75972e-18)
(1.04244 -0.0255881 2.83921e-17)
(0.997095 -0.00117989 -4.79659e-17)
(1.5367 -0.621788 -1.81271e-18)
(1.38673 -0.417946 -9.29665e-18)
(1.31275 -0.292316 -1.41144e-17)
(1.23484 -0.207031 -6.37722e-18)
(1.19718 -0.148649 1.01968e-17)
(1.14768 -0.106623 -6.83897e-19)
(1.1204 -0.0726514 4.12568e-19)
(1.07828 -0.0478144 -3.45717e-18)
(1.04878 -0.0220352 3.10708e-18)
(0.997511 -0.00110245 -1.07018e-17)
(1.68143 -0.477111 -1.61618e-18)
(1.48401 -0.32069 -2.40896e-19)
(1.38079 -0.224288 -1.10294e-17)
(1.28303 -0.15886 -8.15814e-18)
(1.23178 -0.114068 -5.7579e-18)
(1.17251 -0.081838 5.79061e-18)
(1.13732 -0.0557755 -1.02712e-18)
(1.08944 -0.0367359 2.12626e-18)
(1.05397 -0.0169504 1.26193e-17)
(0.997887 -0.000916522 -2.66501e-18)
(1.78378 -0.29991 -9.59775e-19)
(1.5528 -0.201568 7.3706e-19)
(1.42889 -0.14097 -3.13304e-18)
(1.3171 -0.0998537 -3.08098e-19)
(1.25623 -0.071709 -5.6622e-20)
(1.19005 -0.0514653 -2.40764e-18)
(1.14929 -0.0350892 -2.85573e-18)
(1.09734 -0.0231359 -1.58007e-18)
(1.05765 -0.010691 5.69787e-18)
(0.998191 -0.0006327 -3.00669e-18)
(1.83678 -0.102256 -6.0739e-19)
(1.58841 -0.0687055 8.19918e-19)
(1.45379 -0.0480401 -2.3302e-18)
(1.33472 -0.0340429 -1.15017e-18)
(1.26888 -0.024459 6.58984e-19)
(1.19913 -0.0175839 -1.37672e-18)
(1.15547 -0.0120046 -1.57922e-18)
(1.10143 -0.00795088 -1.1311e-18)
(1.05955 -0.00368721 4.0021e-18)
(0.998397 -0.000276833 -5.69427e-19)
(1.83681 0.102375 -2.33359e-19)
(1.58841 0.0688453 1.14452e-18)
(1.45377 0.0481615 -2.51531e-18)
(1.3347 0.0340872 -1.78918e-18)
(1.26885 0.0244522 1.68201e-18)
(1.19911 0.0174951 -1.34485e-19)
(1.15546 0.0118947 -7.59757e-19)
(1.10144 0.00778106 -6.93098e-19)
(1.05956 0.00357162 4.01831e-18)
(0.998486 0.000125155 -6.26961e-19)
(1.78388 0.30004 1.77932e-20)
(1.55281 0.201704 2.00853e-18)
(1.42885 0.14108 -2.81789e-18)
(1.31703 0.0998864 -3.47584e-18)
(1.25616 0.0716916 4.17641e-18)
(1.19 0.0513725 8.56834e-19)
(1.14924 0.0349783 2.12643e-18)
(1.09735 0.0229775 -4.30646e-18)
(1.05767 0.0105866 8.25886e-18)
(0.998447 0.000534579 -1.95673e-18)
(1.68158 0.477263 -1.17996e-18)
(1.48402 0.320818 3.40301e-18)
(1.38073 0.224376 6.6409e-18)
(1.28293 0.158871 3.25347e-18)
(1.23166 0.114032 5.56683e-18)
(1.17242 0.0817384 -3.02938e-18)
(1.13725 0.0556631 8.92957e-19)
(1.08945 0.0365989 5.55648e-19)
(1.05401 0.0168668 5.27212e-18)
(0.998276 0.000916958 -1.67502e-17)
(1.53689 0.621967 -7.99355e-19)
(1.38675 0.418064 1.5304e-17)
(1.31268 0.292376 5.67805e-18)
(1.23472 0.207016 -5.09206e-18)
(1.19704 0.148588 -8.28105e-18)
(1.14757 0.106516 -7.44575e-19)
(1.1203 0.0725387 1.23939e-18)
(1.07828 0.0477067 -4.80944e-18)
(1.04882 0.0219799 -1.81499e-17)
(0.997986 0.00123092 2.83155e-17)
(1.35968 0.724284 -6.19698e-18)
(1.26762 0.486817 -2.28376e-18)
(1.22934 0.34044 4.13273e-18)
(1.17569 0.241041 5.69866e-18)
(1.15464 0.173 -1.14804e-17)
(1.11714 0.124017 -1.64843e-19)
(1.09955 0.0844461 4.78727e-19)
(1.0646 0.0555401 -8.33427e-18)
(1.04247 0.0255649 3.74997e-17)
(0.997596 0.00144523 -4.82678e-17)
(1.16201 0.777243 1.14724e-17)
(1.13475 0.522386 -1.77396e-17)
(1.1364 0.365296 -1.93738e-17)
(1.10986 0.258624 -2.0164e-17)
(1.10736 0.185606 1.2127e-18)
(1.08322 0.133041 4.63044e-20)
(1.07642 0.0905737 5.07598e-17)
(1.04935 0.0595558 -1.96522e-17)
(1.03539 0.0273734 2.43499e-17)
(0.997139 0.00152922 2.55601e-18)
(0.957369 0.777227 1.4373e-17)
(0.997194 0.52235 -8.64185e-18)
(1.0402 0.365244 -1.62627e-17)
(1.04172 0.258568 -2.27744e-17)
(1.05844 0.185542 6.29836e-18)
(1.04811 0.132975 1.63098e-17)
(1.05248 0.0904962 3.00324e-18)
(1.03356 0.0594767 2.72461e-18)
(1.02807 0.0272713 1.97224e-17)
(0.996652 0.00146764 7.7527e-18)
(0.759695 0.724239 -4.55273e-18)
(0.864332 0.486706 5.36369e-18)
(0.947279 0.340292 2.06217e-17)
(0.975918 0.240874 2.49707e-17)
(1.01119 0.172813 1.7297e-17)
(1.01421 0.123817 -5.25482e-19)
(1.02937 0.0842194 -1.51997e-17)
(1.01833 0.055301 6.58694e-18)
(1.02102 0.0252625 -5.01767e-17)
(0.996179 0.00125215 6.96415e-17)
(0.582468 0.621884 6.3294e-18)
(0.745218 0.417885 1.87345e-17)
(0.863983 0.292135 3.07299e-17)
(0.916932 0.206747 1.52035e-17)
(0.968841 0.148283 -2.55776e-17)
(0.98384 0.106192 -3.86792e-18)
(1.00867 0.0721648 5.56089e-19)
(1.00469 0.0473109 2.32903e-18)
(1.01472 0.0214757 -5.22571e-18)
(0.995764 0.00089167 8.85514e-18)
(0.437764 0.47714 2.1068e-18)
(0.647972 0.320573 -7.08097e-18)
(0.795983 0.224057 2.0193e-17)
(0.868787 0.158511 1.50042e-17)
(0.934284 0.113624 1.41316e-17)
(0.959062 0.0812974 -1.51615e-17)
(0.991799 0.0551543 6.698e-18)
(0.993581 0.0360464 -5.44651e-18)
(1.00961 0.0161675 -3.60794e-17)
(0.99545 0.000404796 6.80598e-18)
(0.335452 0.299867 -1.49683e-20)
(0.579222 0.201402 -8.35606e-18)
(0.747921 0.140692 -3.7804e-18)
(0.834765 0.0994517 -1.22394e-17)
(0.909877 0.0711937 -7.79153e-18)
(0.94157 0.0508284 1.39513e-17)
(0.979903 0.0343428 1.09318e-17)
(0.985766 0.0222744 9.23596e-18)
(1.00604 0.00969512 -9.36578e-18)
(0.995268 -0.000175122 1.27207e-17)
(0.282502 0.102146 9.34959e-19)
(0.543656 0.0684901 -3.00435e-18)
(0.723067 0.0477222 3.51903e-19)
(0.817188 0.0335925 4.69634e-18)
(0.897282 0.023885 1.66086e-20)
(0.932565 0.0168605 -2.39864e-20)
(0.973801 0.0111492 -6.51266e-18)
(0.981787 0.00693175 2.53244e-18)
(1.00427 0.00249942 -1.19338e-17)
(0.995246 -0.000809847 -4.58784e-18)
)
;

boundaryField
{
    out
    {
        type            fixedValue;
        value           uniform (1 0 0);
    }
    in
    {
        type            myVelocity;
    }
    frontAndBack
    {
        type            empty;
    }
}


// ************************************************************************* //
