/*--------------------------------*- C++ -*----------------------------------*\
| =========                 |                                                 |
| \\      /  F ield         | foam-extend: Open Source CFD                    |
|  \\    /   O peration     | Version:  3.0                                   |
|   \\  /    A nd           | Web:         http://www.extend-project.de       |
|    \\/     M anipulation  |                                                 |
\*---------------------------------------------------------------------------*/
FoamFile
{
    version     2.0;
    format      ascii;
    class       volScalarField;
    location    "32";
    object      p;
}
// * * * * * * * * * * * * * * * * * * * * * * * * * * * * * * * * * * * * * //

dimensions      [0 0 0 0 0 0 0];

internalField   nonuniform List<scalar> 
672
(
-0.2346971871
-0.1993581699
-0.1885135353
-0.169871524
-0.1676781078
-0.1569576499
-0.1583560533
-0.1518727832
-0.153882796
-0.1492994221
-0.1492741359
-0.1443380669
-0.2317084313
-0.1968174947
-0.1861094376
-0.1677030991
-0.1655359264
-0.154950708
-0.1563294774
-0.1499276711
-0.1519103801
-0.1473826692
-0.1473569512
-0.1424736334
-0.2258299168
-0.1918201671
-0.1813809876
-0.1634383244
-0.1613236844
-0.1510032579
-0.1523444619
-0.1461009314
-0.1480296224
-0.1436135623
-0.1435822396
-0.1388242784
-0.2170891543
-0.1843935169
-0.1743566916
-0.157107119
-0.1550728057
-0.1451510123
-0.1464387706
-0.140436244
-0.1422889141
-0.1380413757
-0.1380106646
-0.1334274646
-0.2056412329
-0.1746657428
-0.1651555555
-0.1488126773
-0.1468832853
-0.1374817319
-0.1386988525
-0.1330098643
-0.1347605093
-0.1307343241
-0.1306979291
-0.1263542682
-0.1915854544
-0.1627246316
-0.1538626724
-0.138635404
-0.136836427
-0.1280764742
-0.1292088399
-0.1239078417
-0.1255367384
-0.1217834645
-0.1217468919
-0.1176915012
-0.1751421608
-0.1487542502
-0.1406501096
-0.1267270287
-0.1250800535
-0.1170695506
-0.1181021265
-0.1132537851
-0.114739239
-0.1113052117
-0.111266253
-0.1075536021
-0.1564753419
-0.1328965936
-0.1256541301
-0.1132129696
-0.1117399284
-0.1045814195
-0.1055019769
-0.1011686794
-0.1024920577
-0.09942126307
-0.09937957262
-0.0960536974
-0.1358612243
-0.1153840708
-0.1090923877
-0.09828736714
-0.09700550156
-0.09078787728
-0.09158413871
-0.08781972703
-0.08896497959
-0.08629523148
-0.08625409205
-0.0833566139
-0.1135184152
-0.09640410187
-0.09114437177
-0.08211310578
-0.08103999181
-0.07584180323
-0.07650475582
-0.07335625979
-0.07430881009
-0.07207426952
-0.07203163592
-0.06960357453
-0.08976722037
-0.07622750017
-0.07206366593
-0.06491821989
-0.06406551491
-0.05995226298
-0.06047188265
-0.05798004046
-0.05872705987
-0.05695578372
-0.05691385742
-0.05497746121
-0.0648677557
-0.05507603749
-0.05206266814
-0.04689381124
-0.04627410609
-0.04329653802
-0.04366823415
-0.04186219979
-0.04239605743
-0.04111008031
-0.04106941874
-0.03966246911
-0.03917071933
-0.03324712828
-0.03141974098
-0.0282915004
-0.02791034726
-0.0261068952
-0.02632361649
-0.02522837944
-0.02554045942
-0.02475621129
-0.02471805811
-0.02384372598
-0.01296219321
-0.01098399236
-0.01036785826
-0.009319952129
-0.009184166106
-0.008575695677
-0.008636783105
-0.008262917133
-0.008350757858
-0.008077516026
-0.008040818935
-0.007726559945
0.01339165027
0.01140239489
0.01080195265
0.009757081594
0.009648034044
0.009052554784
0.00914986174
0.008795178349
0.008933003316
0.008691883504
0.008722301672
0.008487062544
0.03959582642
0.03366142534
0.03184968477
0.02872488529
0.0283704992
0.02658045802
0.02683345897
0.02575777713
0.02611985484
0.02536755966
0.02539641572
0.02459971819
0.06528430473
0.05548227419
0.05248438477
0.04731979743
0.04672658484
0.04376336992
0.04417042324
0.04238510917
0.04296615686
0.04171242472
0.04173319258
0.04039735518
0.09017069285
0.07662136488
0.07247283822
0.06533271648
0.06450645396
0.06040854743
0.06096327026
0.05849301395
0.05928595136
0.05754637126
0.05756290134
0.0556918175
0.1139048108
0.09678178861
0.09153702165
0.0825124718
0.08146537953
0.07628393208
0.07698098133
0.07385537032
0.07485091339
0.07264737853
0.07265718964
0.07028509076
0.1362258306
0.1157410402
0.1094639302
0.09866697023
0.09741073208
0.09121092149
0.09204009061
0.08829943886
0.08948353745
0.0868435295
0.08684570548
0.08399176973
0.1568144466
0.1332292352
0.1260007208
0.113569191
0.112120975
0.1049816175
0.1059337966
0.1016250939
0.1029844478
0.09994152273
0.0999375487
0.0966447838
0.1754509729
0.1490578981
0.1409670163
0.1270547932
0.1254317768
0.1174411319
0.1185035673
0.1136801593
0.1151967878
0.1117885585
0.11177747
0.1080843045
0.1918606572
0.1629959897
0.1541462036
0.13893116
0.1371543913
0.1284152702
0.1295746234
0.124299175
0.1259536603
0.1222243294
0.1222060119
0.1181573408
0.2058781988
0.1749002211
0.165401175
0.1490711517
0.1471625244
0.1377816163
0.1390236686
0.1333594244
0.1351320089
0.1311268179
0.1311025915
0.1267556886
0.2172851905
0.1845884056
0.1745610312
0.1573250873
0.1553086852
0.1454075491
0.1467159589
0.1407376956
0.1426052068
0.1383762023
0.1383467772
0.1337481048
0.2259808556
0.1919711889
0.1815400994
0.1636106078
0.161511661
0.1512102192
0.1525690779
0.1463473038
0.1482864284
0.1438847025
0.1438481014
0.1390656799
0.2318124224
0.1969229157
0.1862206131
0.167827346
0.1656720762
0.1551043996
0.1564960196
0.150113441
0.152100657
0.1475831746
0.147545158
0.1426293665
0.2347502847
0.1994141149
0.1885737899
0.1699431409
0.1677586596
0.1570522569
0.1584595366
0.1519909906
0.1540002153
0.1494218538
0.1493772189
0.1444018219
0.2347134595
0.1993805424
0.1885397635
0.1699106316
0.1677240433
0.1570186075
0.1584230308
0.1519550057
0.1539618824
0.1493821343
0.1493375572
0.1443537713
0.2317465003
0.1968555278
0.1861492652
0.1677509197
0.1655898685
0.1550145064
0.1563992038
0.1500073824
0.1519866066
0.1474609608
0.1474132239
0.1424976701
0.2258428054
0.1918380344
0.1814021791
0.1634705315
0.1613617454
0.1510544229
0.1524006706
0.1461706779
0.1480966126
0.1436843492
0.1436367248
0.1388385676
0.2171202944
0.1844239276
0.1743883283
0.1571442001
0.1551143583
0.1451996544
0.1464916516
0.1404965909
0.1423463211
0.1381006321
0.1380531227
0.1334461227
0.2056456409
0.1746740221
0.165166258
0.1488306397
0.1469050797
0.1375119674
0.1387324059
0.133052057
0.1348013469
0.1307777145
0.1307320302
0.1263641123
0.1916056609
0.1627432993
0.1538814299
0.1386557317
0.1368585248
0.1281011182
0.1292351952
0.1239370635
0.1255642146
0.1218113408
0.1217663813
0.1176996138
0.1751353977
0.1487499275
0.1406469748
0.1267261682
0.1250802656
0.1170718952
0.118105304
0.1132588538
0.114744117
0.1113105476
0.1112698519
0.1075525678
0.1564828478
0.1329016892
0.1256578814
0.1132139
0.1117394187
0.1045782238
0.1054976917
0.1011618458
0.1024855644
0.0994133819
0.09937468709
0.09605314567
0.1358428039
0.1153666215
0.1090748308
0.0982669311
0.09698319605
0.09076126707
0.09155561127
0.08778639259
0.08893240313
0.08626146585
0.08622623554
0.08334485606
0.1135139621
0.09639645048
0.09113398574
0.08209587735
0.08101818533
0.07581261506
0.07647156187
0.07331590447
0.07427017208
0.07203326785
0.0720035261
0.06959441883
0.08973898387
0.07619900871
0.0720339922
0.06488138223
0.06402437762
0.05990152753
0.06041713248
0.05791502291
0.05866435817
0.05689075759
0.05686286045
0.05496141312
0.06485445559
0.05505896851
0.05204184368
0.04686322793
0.04623660322
0.04324829975
0.04361369248
0.04179732702
0.04233339822
0.04104461348
0.04102300066
0.03964492462
0.0391364598
0.03321185635
0.03138265074
0.02824464184
0.02785775029
0.02604152016
0.02625304688
0.0251442881
0.02545980602
0.02467255972
0.02465352861
0.02382551995
0.01294490829
0.01096267988
0.01034236566
0.00928343277
0.009139747673
0.008519126543
0.008573044696
0.008187539605
0.008278177676
0.008002041622
0.007987756298
0.007707219713
-0.01342695812
-0.01143886177
-0.01084032647
-0.009805641617
-0.009702577529
-0.009120283354
-0.009223075106
-0.008882149746
-0.00901667265
-0.008778230216
-0.008789314333
-0.008506230932
-0.0396114688
-0.03368099307
-0.03187319807
-0.02875879053
-0.02841180455
-0.02663304469
-0.02689267739
-0.02582762012
-0.0261866953
-0.02543670245
-0.02544363117
-0.02461444966
-0.06531547433
-0.05551412233
-0.05251767459
-0.04736143221
-0.04677321134
-0.04382074604
-0.04423253
-0.04245820401
-0.04303681449
-0.04178458914
-0.04178954121
-0.04041348186
-0.09017941836
-0.07663357044
-0.07248816038
-0.06535606127
-0.06453539351
-0.06044588143
-0.06100566371
-0.05854298733
-0.05933390442
-0.05759549324
-0.05759581735
-0.0557003293
-0.1139274633
-0.09680411849
-0.09155985711
-0.08253997478
-0.08149576303
-0.07632046965
-0.0770203166
-0.07390094522
-0.07489476531
-0.07269160081
-0.07269098295
-0.07029327297
-0.1362237295
-0.1157417204
-0.1094664563
-0.09867393747
-0.09742047496
-0.09122491997
-0.09205668937
-0.08831960006
-0.0895034477
-0.0868639037
-0.0868597827
-0.08399543518
-0.1568258865
-0.1332390152
-0.1260097909
-0.1135781653
-0.112130026
-0.1049910954
-0.1059434635
-0.101635437
-0.1029941204
-0.09995105499
-0.09994450944
-0.09664643833
-0.1754362593
-0.1490451295
-0.1409546305
-0.1270427227
-0.1254191318
-0.1174281569
-0.1184899847
-0.1136660644
-0.1151835974
-0.1117759137
-0.1117685819
-0.1080807174
-0.1918604154
-0.1629926273
-0.1541409231
-0.1389207683
-0.137141236
-0.1283965878
-0.1295536429
-0.1242730722
-0.1259287357
-0.1221987363
-0.1221876438
-0.1181560551
-0.2058515775
-0.1748746751
-0.1653747126
-0.1490410026
-0.1471287124
-0.1377430397
-0.1389814465
-0.1333126791
-0.1350870235
-0.1310821965
-0.1310705166
-0.1267430256
-0.217275118
-0.1845738481
-0.1745436569
-0.1572982002
-0.1552767179
-0.1453648412
-0.1466688488
-0.1406802468
-0.1425502326
-0.138319598
-0.1383048209
-0.1337411531
-0.2259453906
-0.1919359985
-0.181503205
-0.1635668545
-0.1614621434
-0.151152379
-0.1525056271
-0.1462758229
-0.1482179551
-0.1438157555
-0.1437993023
-0.1390473405
-0.2317963158
-0.1969013222
-0.1861957555
-0.1677901351
-0.1656283785
-0.1550465398
-0.1564323633
-0.1500358607
-0.1520259552
-0.1475058141
-0.1474861778
-0.1426159425
-0.2347108101
-0.1993743785
-0.1885320809
-0.1698930774
-0.1677019133
-0.1569854268
-0.1583862105
-0.1519077051
-0.1539205012
-0.1493407469
-0.1493196316
-0.1443793779
)
;

boundaryField
{
    out
    {
        type            implicitExtrapolation;
    }
    in
    {
        type            implicitExtrapolation;
    }
    frontAndBack
    {
        type            empty;
    }
}


// ************************************************************************* //
