/*--------------------------------*- C++ -*----------------------------------*\
| =========                 |                                                 |
| \\      /  F ield         | foam-extend: Open Source CFD                    |
|  \\    /   O peration     | Version:  3.0                                   |
|   \\  /    A nd           | Web:         http://www.extend-project.de       |
|    \\/     M anipulation  |                                                 |
\*---------------------------------------------------------------------------*/
FoamFile
{
    version     2.0;
    format      ascii;
    class       volVectorField;
    location    "32";
    object      u;
}
// * * * * * * * * * * * * * * * * * * * * * * * * * * * * * * * * * * * * * //

dimensions      [0 0 0 0 0 0 0];

internalField   nonuniform List<vector> 
672
(
(0.4885903243 -0.09026388567 5.732965468e-17)
(0.2942026306 -0.06068348469 3.320750545e-17)
(0.8622729291 -0.04977130285 4.873549551e-18)
(0.6040213942 -0.02968074256 1.951274647e-17)
(1.010792875 -0.02850708237 3.899961718e-17)
(0.7551220232 -0.01650289675 5.417073963e-17)
(1.083394514 -0.01528133432 8.916531118e-17)
(0.8278891703 -0.009938506189 -1.207981652e-17)
(1.12467218 -0.00632465341 3.180234518e-17)
(0.8570767184 -0.005346929866 2.192421137e-17)
(1.147601789 -0.0002268263881 6.642351755e-19)
(0.8613831845 0.0002850306264 -2.435261195e-17)
(0.5291884422 -0.2674327546 -1.408840273e-17)
(0.3212972796 -0.1805652612 -9.756959452e-17)
(0.8845505692 -0.1480619059 6.156347639e-17)
(0.6172430433 -0.08924678892 -1.616212157e-16)
(1.023481686 -0.08533102199 -8.721479296e-17)
(0.7624712486 -0.05062830267 -2.306887089e-17)
(1.09030015 -0.04624557627 -2.712738577e-16)
(0.8322512206 -0.03164386905 1.068066349e-16)
(1.128018829 -0.01987963945 -1.00174381e-16)
(0.8589803539 -0.01834896474 1.198518621e-16)
(1.149077533 -0.002409782126 -1.936545701e-16)
(0.8599946593 -0.002235002666 2.864101677e-16)
(0.6078858533 -0.4312069112 2.349351038e-18)
(0.3745334058 -0.2909620883 1.425167788e-16)
(0.9283556577 -0.2387171511 4.21430953e-17)
(0.6438058561 -0.1440561775 2.231807131e-16)
(1.048926073 -0.1376794798 6.923588292e-17)
(0.7778376447 -0.08221973271 1.719100482e-16)
(1.104090374 -0.07466253226 1.480959212e-16)
(0.8422950891 -0.05218265054 1.338176579e-16)
(1.133526111 -0.03184252457 -5.734542797e-17)
(0.8657084909 -0.03144067048 1.422532619e-17)
(1.148581753 -0.003182065111 5.412411505e-18)
(0.8629788326 -0.006308205728 -5.280013091e-17)
(0.7213307759 -0.5732698214 -1.781415976e-16)
(0.4509785164 -0.3873356921 -1.078047176e-16)
(0.9911410857 -0.3176490933 -2.156696168e-16)
(0.6815482951 -0.1919840058 -2.300281137e-18)
(1.085116619 -0.183324847 -4.053298955e-16)
(0.7991858067 -0.109580209 1.465338813e-16)
(1.123950156 -0.09957180763 -4.629927982e-16)
(0.8554214229 -0.06934718947 2.675738683e-16)
(1.142844243 -0.04297341491 -3.09703173e-16)
(0.8726566336 -0.04140907047 4.597586904e-16)
(1.151483478 -0.005448136669 -4.315994032e-16)
(0.862408434 -0.007997479659 5.978022697e-16)
(0.8633801234 -0.6865955126 3.890768354e-16)
(0.5467507158 -0.4636049859 6.920744239e-17)
(1.069965678 -0.3802544621 2.237695251e-16)
(0.7291852436 -0.2298670514 4.96150477e-17)
(1.130752042 -0.2194351462 2.76960809e-16)
(0.8267067976 -0.1316366438 1.133897453e-16)
(1.148665008 -0.1190215086 1.357960019e-16)
(0.8734180357 -0.0841483732 -1.375583627e-17)
(1.152895474 -0.05068792293 1.961114994e-16)
(0.8844318232 -0.05144587973 -3.749042317e-16)
(1.151297061 -0.005038039766 2.598833696e-16)
(0.8666032598 -0.01173044723 -2.396369646e-16)
(1.027213473 -0.7654243734 -2.648657022e-16)
(0.6574523761 -0.5173492324 2.364318019e-17)
(1.160843512 -0.4241637635 -3.014124053e-16)
(0.7840036692 -0.2566263759 1.810282658e-16)
(1.183239526 -0.2448149502 -4.926240071e-16)
(0.8578078427 -0.1468038896 1.985539411e-16)
(1.177430261 -0.1328985201 -4.034399266e-16)
(0.8926442861 -0.09339250133 1.857914081e-16)
(1.166156745 -0.05716688497 -3.411800359e-16)
(0.8950018333 -0.05641384388 6.735720968e-16)
(1.154819129 -0.006954909842 -7.109925951e-16)
(0.8670792758 -0.01220436778 6.892466054e-16)
(1.204431161 -0.8058312538 5.221001344e-17)
(0.776789404 -0.5444387467 8.486709549e-17)
(1.259024895 -0.4463441992 -1.399346288e-17)
(0.8432917335 -0.2701432703 -9.728159462e-17)
(1.23999785 -0.2575477625 2.9604426e-16)
(0.8921086201 -0.1549970476 -2.754840804e-17)
(1.208156417 -0.1394867125 1.867656741e-16)
(0.9151762465 -0.09955213905 -9.159501026e-17)
(1.178766048 -0.05897059254 1.897697778e-16)
(0.9096404201 -0.0615212702 -4.225605382e-16)
(1.155025276 -0.00516800228 4.157858637e-16)
(0.8717154793 -0.01525691954 -2.769796107e-16)
(1.386220302 -0.8058277741 2.15305956e-17)
(0.8998268775 -0.5448761684 -6.93488304e-17)
(1.360001924 -0.4464856601 1.893906953e-16)
(0.9043335531 -0.270394196 -7.403997422e-17)
(1.298333442 -0.2575997314 6.737836645e-18)
(0.926853351 -0.1549615862 -6.088199088e-17)
(1.239971922 -0.1395944233 4.319353264e-17)
(0.936831956 -0.09908513695 3.845105743e-17)
(1.193080376 -0.05960139503 -1.518490131e-16)
(0.9218870884 -0.06047767844 4.177494423e-16)
(1.15824993 -0.006607041392 -4.18441575e-16)
(0.8730137571 -0.01400883837 3.658729718e-16)
(1.563468375 -0.7653047274 7.87819006e-18)
(1.019115137 -0.5174479675 1.064661019e-17)
(1.458085703 -0.4239073096 -3.453507685e-16)
(0.9635510019 -0.2568990186 2.012119379e-16)
(1.354958069 -0.2445218712 -2.773043059e-16)
(0.9611577018 -0.1476370878 2.179063007e-16)
(1.270543322 -0.1321485514 -1.733294828e-16)
(0.9594848215 -0.095249741 6.398204265e-17)
(1.205512419 -0.05530173835 8.222577367e-17)
(0.9366995607 -0.0595389704 -3.086799248e-16)
(1.158307027 -0.003827368838 2.945661205e-16)
(0.8777568953 -0.0161084711 -3.215287189e-16)
(1.727226857 -0.6864885572 8.189756877e-17)
(1.130087511 -0.4644707813 -3.483265668e-17)
(1.549143005 -0.3802055223 4.057678589e-16)
(1.018684333 -0.2305568227 -1.364983843e-16)
(1.407574491 -0.2191618575 2.794968026e-16)
(0.9926450497 -0.1323791929 -2.630808767e-16)
(1.2991549 -0.1183515508 2.069004788e-16)
(0.9792633216 -0.08518566289 -8.195007197e-17)
(1.218240296 -0.04976133751 -1.938247164e-18)
(0.9480575555 -0.05274944602 2.238616678e-17)
(1.161017182 -0.00428979257 -3.837666216e-18)
(0.8791758488 -0.01329021459 3.914666577e-17)
(1.869378316 -0.5730654547 -2.618391956e-17)
(1.225743109 -0.3879532696 -2.111720136e-17)
(1.627741848 -0.3173850758 -2.283043996e-16)
(1.066156979 -0.1927539979 -3.448563533e-17)
(1.452868741 -0.1829527327 -9.188075813e-17)
(1.02022655 -0.1110294252 3.7714234e-17)
(1.323432588 -0.09851851305 -7.777728909e-17)
(0.9976740882 -0.07211626546 -2.646756667e-18)
(1.227773378 -0.04052958273 3.214030034e-17)
(0.960345508 -0.04585154282 -4.911925683e-17)
(1.16049414 -0.001522850876 6.252106799e-17)
(0.8833867928 -0.01383597812 -9.92366103e-17)
(1.982692926 -0.4310696841 -2.885081466e-17)
(1.302611443 -0.2920623454 -1.839442789e-18)
(1.690793963 -0.2384933626 1.949925006e-16)
(1.104385776 -0.1450112604 -9.182121431e-18)
(1.489286202 -0.13719517 1.689922166e-16)
(1.042139056 -0.08346841275 -1.313969574e-16)
(1.343147003 -0.07358539572 1.96267046e-16)
(1.01155739 -0.0542289228 -1.268091855e-16)
(1.236414154 -0.03003639709 7.585274314e-17)
(0.9684528355 -0.03437014578 -8.371036259e-17)
(1.16217506 -0.001081780527 1.149119016e-16)
(0.884656463 -0.009868811196 -1.112308923e-16)
(2.061590704 -0.2672212689 4.651736056e-19)
(1.355730103 -0.1815616994 -3.302407891e-17)
(1.734408181 -0.1478715921 -8.287444941e-17)
(1.13077495 -0.09037636801 -5.105228491e-17)
(1.514354341 -0.08504009344 -4.839761855e-17)
(1.05760997 -0.05235820158 -1.714518444e-17)
(1.356394307 -0.04528012578 -2.325881029e-17)
(1.022146428 -0.03463783592 -3.43312881e-17)
(1.241280813 -0.01755350605 3.680374454e-17)
(0.9757622424 -0.02313071641 -4.827202245e-17)
(1.161427313 0.001442672127 4.997179397e-17)
(0.8872358549 -0.009014251716 -5.75207109e-17)
(2.102044093 -0.09019165775 5.62216038e-18)
(1.383208368 -0.06179961858 1.286864407e-17)
(1.756926257 -0.04947261622 8.698118593e-17)
(1.144461469 -0.03070325625 1.903242216e-18)
(1.527304556 -0.02804500822 9.655824193e-17)
(1.065550169 -0.01785872155 -4.865663156e-17)
(1.36324505 -0.01441368994 9.84758667e-17)
(1.027347103 -0.01215669343 -6.292706055e-17)
(1.244028284 -0.004812819876 6.182662957e-17)
(0.9790051421 -0.008621342082 -6.429448205e-17)
(1.161616225 0.001702749563 7.561482771e-17)
(0.8881132724 -0.003961697863 -8.395774218e-17)
(2.102076601 0.09162122507 -1.287281365e-17)
(1.383277745 0.06088036198 -3.688420836e-17)
(1.756976561 0.05104339101 -3.971683694e-17)
(1.144543593 0.02999464476 -5.103994769e-17)
(1.527263298 0.02976093083 -2.580058181e-17)
(1.065790319 0.01685077509 -4.306937094e-17)
(1.362971865 0.01684735116 -9.021015049e-18)
(1.027855305 0.009956581935 -3.636735556e-17)
(1.243476665 0.008775692127 2.139559453e-17)
(0.9796750994 0.004361222435 -3.158889472e-17)
(1.160994942 0.004167246855 3.122640554e-17)
(0.8885362693 -0.00251939247 -3.429274322e-17)
(2.061684744 0.268609906 3.281408744e-17)
(1.35588582 0.1807089088 2.953660309e-17)
(1.734506355 0.1493901325 5.887256832e-17)
(1.130949673 0.08973079587 2.131564558e-17)
(1.51420123 0.08663597716 1.031121682e-16)
(1.058176105 0.05149259361 -3.668461016e-17)
(1.355654556 0.04741334536 1.262413045e-16)
(1.023354013 0.03276150965 -7.425408438e-17)
(1.239881188 0.02093664003 7.528797079e-17)
(0.9773671491 0.01940923744 -8.990747635e-17)
(1.159857923 0.003639187995 1.045649173e-16)
(0.8884806774 0.003135486786 -1.377347466e-16)
(1.982872528 0.4323768557 -2.905484521e-17)
(1.302863498 0.2913511754 -5.234828465e-17)
(1.691007615 0.2399465607 -4.152598368e-17)
(1.104667878 0.1445029611 -7.639502043e-17)
(1.489099917 0.1386703354 -4.432191339e-17)
(1.043040118 0.08286631709 -6.454482739e-17)
(1.342009334 0.07544688115 -4.769328389e-17)
(1.013487701 0.05283521977 -4.200339679e-17)
(1.234175008 0.03299315849 8.952458027e-18)
(0.9710521558 0.03128337612 1.425485624e-17)
(1.159597079 0.005693750096 -1.792383586e-17)
(0.8867194829 0.004619318587 2.075862286e-17)
(1.86965629 0.5742685306 1.16230291e-16)
(1.226022808 0.3874197482 3.394974167e-17)
(1.628040084 0.3187111191 1.198188687e-16)
(1.066485058 0.1924194001 -2.945750952e-17)
(1.452665648 0.1841598575 2.034392049e-16)
(1.021352956 0.1108063095 -8.127062245e-17)
(1.32205186 0.0997358682 2.095527587e-16)
(1.000102585 0.07153269927 -1.179368264e-16)
(1.225067156 0.04229827579 1.468468957e-16)
(0.9635318405 0.04399796287 -2.231655413e-16)
(1.157514015 0.00461576527 2.161874283e-16)
(0.8855907696 0.009785349379 -2.763244379e-16)
(1.72763928 0.6875648445 -1.970278912e-16)
(1.130361867 0.4641663691 -1.572248315e-17)
(1.54959725 0.3814197816 -9.77565805e-17)
(1.019006943 0.2304271027 1.836720346e-17)
(1.407476312 0.2201397598 -1.663135567e-16)
(0.9938253693 0.1325444183 -2.394073257e-17)
(1.29778155 0.1189946225 -8.76917724e-17)
(0.9818189826 0.08539380258 5.428170357e-17)
(1.215447368 0.05044753964 -1.412850055e-16)
(0.9514245448 0.05215176153 2.615753093e-16)
(1.157888561 0.005893823281 -1.967315079e-16)
(0.8816827851 0.01078184384 1.936985141e-16)
(1.564029448 0.7662578518 1.322486857e-16)
(1.019318991 0.517372494 -2.480277713e-17)
(1.458662097 0.4249722879 9.615830188e-17)
(0.9638193049 0.2569842392 -1.061249779e-16)
(1.354948551 0.2452442999 2.380573888e-16)
(0.9623194284 0.1482110233 -8.285639879e-17)
(1.269209244 0.1322635133 1.841182862e-16)
(0.9620538539 0.09624561128 -8.016324426e-17)
(1.202728594 0.05512263982 1.940033018e-16)
(0.9400189146 0.06004993625 -4.369893466e-16)
(1.155298387 0.004415006495 4.570584464e-16)
(0.8798946391 0.01468483827 -4.286740319e-16)
(1.386959876 0.8066635787 3.17114834e-17)
(0.8999159257 0.5450427573 -3.546404577e-17)
(1.360768981 0.4474379811 1.367498773e-16)
(0.9045108051 0.2706974986 9.064454692e-17)
(1.298557472 0.2580802396 -1.686401611e-16)
(0.9278802353 0.1559494712 3.471125474e-17)
(1.239028408 0.139068499 -1.313833487e-16)
(0.9391006059 0.1009626222 9.973561093e-17)
(1.190972143 0.05813673206 -1.830526962e-16)
(0.9246412445 0.06243524671 4.303725403e-16)
(1.156193129 0.005387509397 -4.304094357e-16)
(0.8743871542 0.01425581469 3.362873572e-16)
(1.205356731 0.8065673756 -1.169266049e-16)
(0.7767082323 0.5448168392 7.566562954e-17)
(1.259945517 0.4471453923 -4.210294374e-16)
(0.8432996566 0.2706301627 1.500616701e-16)
(1.240436284 0.2578103346 -2.104210342e-16)
(0.8928166531 0.1562548972 1.86833908e-16)
(1.207642964 0.1385929374 -2.108730992e-16)
(0.9168153476 0.1018994212 5.77058328e-17)
(1.177410564 0.05694694833 6.208359865e-17)
(0.9114758643 0.06420519544 -3.315707437e-16)
(1.153929221 0.003214313021 3.292820125e-16)
(0.8722343821 0.01657803875 -2.484928744e-16)
(1.028317442 0.7661010432 1.652475312e-17)
(0.6571796776 0.5179081445 2.84782409e-17)
(1.161945469 0.4249040128 5.664981477e-16)
(0.7838532751 0.2572845966 -2.380023198e-16)
(1.183941162 0.2449644005 4.583291077e-16)
(0.8582358629 0.148352325 -2.720747137e-16)
(1.177418421 0.131718717 2.784106389e-16)
(0.8937268091 0.0963003347 -7.046682908e-17)
(1.165631081 0.0545785331 -1.071589356e-16)
(0.8959633965 0.05994072307 4.306756156e-16)
(1.154812323 0.004242999648 -4.115025429e-16)
(0.866463984 0.01437232665 4.624678938e-16)
(0.8646763349 0.6872223969 -1.389736908e-16)
(0.5462442802 0.4643100709 4.123556539e-17)
(1.071242601 0.3808598331 -7.710751751e-16)
(0.7288013919 0.2306446119 2.247235739e-16)
(1.131777837 0.2194323643 -5.989480935e-16)
(0.8266664229 0.1332809249 5.156802237e-16)
(1.149418793 0.1176564873 -4.747144492e-16)
(0.8735239521 0.08718960144 2.364027695e-16)
(1.153809595 0.04781471914 -8.675567877e-17)
(0.8838830068 0.05528326455 5.936156384e-17)
(1.153198637 0.001865504746 -1.150186271e-16)
(0.8644526522 0.01459140845 3.300994919e-17)
(0.7227310214 0.5739135222 -2.699671322e-17)
(0.4502783592 0.3881071494 5.06361144e-17)
(0.9925271165 0.3182636799 4.465551291e-16)
(0.6809832426 0.1928113442 1.563216736e-16)
(1.086345501 0.1833819623 1.486168681e-16)
(0.7987752665 0.1112035537 -4.652061503e-17)
(1.125156365 0.09839584702 1.358002375e-16)
(0.854816858 0.07227700447 2.065415243e-17)
(1.144486242 0.04040786761 -8.151571264e-17)
(0.8711605956 0.04517338623 3.373987481e-17)
(1.154189833 0.002505569113 -6.97897757e-17)
(0.8593922215 0.01115934842 1.257302504e-16)
(0.6094469188 0.4318522221 1.892208138e-16)
(0.3735864582 0.2917960786 9.953567551e-18)
(0.9298965721 0.2392370377 -3.921121816e-16)
(0.6430215396 0.1449218582 -5.052527017e-17)
(1.050418012 0.1377262867 -3.600454212e-16)
(0.7770569899 0.08374578368 3.005437604e-16)
(1.105873863 0.07367292349 -4.998059472e-16)
(0.8409679885 0.054842375 3.348101933e-16)
(1.136216274 0.02965557165 -1.892435844e-16)
(0.8630733928 0.03486700001 2.413526247e-16)
(1.152699313 0.0006772687478 -3.414209551e-16)
(0.8585959452 0.009213088255 3.313835621e-16)
(0.5307006676 0.2681434983 -1.141569532e-16)
(0.3202531988 0.1813611579 1.801146661e-17)
(0.886069679 0.1486194909 1.704214967e-16)
(0.6163495534 0.09006825485 8.17356846e-17)
(1.025042801 0.08552179481 1.43364345e-16)
(0.7614297286 0.05190129247 -4.814783043e-17)
(1.092380855 0.04571162346 9.511062201e-17)
(0.8303783014 0.0337089191 2.237259992e-17)
(1.131321638 0.01849658519 -1.113942658e-16)
(0.8555404057 0.02106919485 6.328969201e-17)
(1.153994234 0.0006891565313 -6.354089257e-17)
(0.8548226286 0.005064803706 5.431654524e-17)
(0.4902038709 0.09100462286 5.754402588e-17)
(0.2929502333 0.0614607199 4.109312467e-17)
(0.8638832845 0.05027774161 -1.755586403e-16)
(0.6029817177 0.03045595036 7.223626366e-17)
(1.012446645 0.02879189918 -1.481486155e-16)
(0.753910588 0.01750437097 1.059509638e-16)
(1.08560103 0.01519752825 -6.035196849e-17)
(0.8257616619 0.0113701171 2.425187907e-17)
(1.128126645 0.005810296525 -1.275216235e-18)
(0.8533100857 0.007172553334 3.048967105e-17)
(1.152655097 -0.0004313116053 -4.676536845e-17)
(0.8558306809 0.001710311917 3.835267313e-17)
(0.4902458101 -0.09069458364 -5.722447432e-17)
(0.2928992431 -0.0613350886 -3.293263707e-17)
(0.8636653095 -0.05046044889 -4.958179914e-18)
(0.6027845426 -0.03055161431 -1.909435756e-17)
(1.012156295 -0.02928582274 -3.899269608e-17)
(0.7536331219 -0.01774929783 -5.376001855e-17)
(1.085483885 -0.01600410668 -8.910301401e-17)
(0.8253349013 -0.01167167537 1.235669387e-17)
(1.128502826 -0.006985688204 -3.173589964e-17)
(0.8524024761 -0.007447645079 -2.183215303e-17)
(1.153858086 -0.001091486917 -6.301894103e-19)
(0.8540700472 -0.002418182298 2.436238502e-17)
(0.5305620777 -0.2678561288 1.377650813e-17)
(0.3203186522 -0.1810458842 9.729646082e-17)
(0.8862778009 -0.1486516883 -6.191664066e-17)
(0.6166270068 -0.09004500733 1.614916595e-16)
(1.025386318 -0.08587866136 8.655184399e-17)
(0.7618552624 -0.05221135638 2.332429795e-17)
(1.092599351 -0.04634212844 2.702477594e-16)
(0.8310160719 -0.0343723258 -1.058667191e-16)
(1.131085886 -0.0192449092 9.850545204e-17)
(0.8566702842 -0.02201049331 -1.179098141e-16)
(1.152995116 -0.001476204746 1.912095458e-16)
(0.8568056988 -0.006374595918 -2.835128294e-16)
(0.6093843668 -0.4315840302 -1.879287835e-18)
(0.3736472469 -0.2918523667 -1.420433267e-16)
(0.9297694184 -0.2395758853 -4.175659093e-17)
(0.6429879411 -0.1451116061 -2.227041745e-16)
(1.050277627 -0.1383553118 -6.881171437e-17)
(0.7769404129 -0.08389839491 -1.715543167e-16)
(1.105914301 -0.07465867629 -1.478058382e-16)
(0.8406808418 -0.05477493158 -1.336486293e-16)
(1.13674616 -0.03124234 5.756695315e-17)
(0.8623223094 -0.03451178096 -1.431758796e-17)
(1.154040698 -0.002880108951 -5.171574179e-18)
(0.8572014564 -0.009350815385 5.247431199e-17)
(0.7225411473 -0.5736980177 1.774764653e-16)
(0.4502764606 -0.3876641222 1.07567559e-16)
(0.9926609629 -0.3182079757 2.146120893e-16)
(0.6812542232 -0.1926934688 2.544722724e-18)
(1.08668711 -0.1836499303 4.037595406e-16)
(0.7992928465 -0.111527029 -1.454983475e-16)
(1.125474175 -0.09889996245 4.608607977e-16)
(0.8556554713 -0.07315474396 -2.654263261e-16)
(1.144422845 -0.04080550071 3.066298937e-16)
(0.8725294014 -0.04662287094 -4.561388733e-16)
(1.153436215 -0.002595129608 4.271507549e-16)
(0.8615603738 -0.01316631667 -5.925059538e-16)
(0.8645429998 -0.6870544551 -3.883765282e-16)
(0.5464875772 -0.464477845 -6.8672296e-17)
(1.071302942 -0.3812888694 -2.229675515e-16)
(0.7289906188 -0.2308672813 -4.920478718e-17)
(1.13190345 -0.220106751 -2.761549686e-16)
(0.8267149043 -0.1333572832 -1.132047718e-16)
(1.149767677 -0.1187022018 -1.352193229e-16)
(0.8732944652 -0.08690222015 1.375911424e-17)
(1.154719778 -0.04960610392 -1.958101839e-16)
(0.8831458094 -0.0545401877 3.746969328e-16)
(1.154950243 -0.004493626852 -2.594327166e-16)
(0.8633452491 -0.01421498516 2.389824915e-16)
(1.02814184 -0.7659781261 2.639729779e-16)
(0.657089349 -0.5174473049 -2.377567564e-17)
(1.161996256 -0.4248513448 2.998057323e-16)
(0.7840792783 -0.2571501889 -1.803910521e-16)
(1.184253553 -0.2452148438 4.904150535e-16)
(0.8588034814 -0.1486861545 -1.96977504e-16)
(1.1777967 -0.1321641314 4.007434851e-16)
(0.8947449047 -0.09725953236 -1.831792998e-16)
(1.165644794 -0.05478489115 3.378356618e-16)
(0.8976215454 -0.06165066487 -6.698111627e-16)
(1.154119714 -0.003892424647 7.066153941e-16)
(0.8689639925 -0.01692551983 -6.8414702e-16)
(1.205217235 -0.8065332092 -5.135774328e-17)
(0.7771500171 -0.5449886194 -8.440393911e-17)
(1.26023476 -0.4475519318 1.51282376e-17)
(0.8437285766 -0.270790662 9.748827584e-17)
(1.240876074 -0.2583811671 -2.949761561e-16)
(0.8930425608 -0.1562483659 2.755070004e-17)
(1.208392913 -0.1394893948 -1.86197464e-16)
(0.9166238477 -0.1015409932 9.17031914e-17)
(1.178887235 -0.05857442078 -1.89800887e-16)
(0.9106825447 -0.06338696683 4.228990109e-16)
(1.156352958 -0.005735298202 -4.162113907e-16)
(0.8713737683 -0.01600229255 2.774841907e-16)
(1.386865532 -0.8066238303 -2.250653958e-17)
(0.899797603 -0.5446701903 6.936618941e-17)
(1.360793359 -0.4474694331 -1.912646519e-16)
(0.90474089 -0.2706257809 7.495914447e-17)
(1.298862251 -0.2583787679 -9.184014776e-18)
(0.9285437862 -0.1563085623 6.270070505e-17)
(1.239447681 -0.1395062757 -4.584935052e-17)
(0.9403458106 -0.101918875 -3.601215831e-17)
(1.191037483 -0.0582844527 1.490016693e-16)
(0.9266021769 -0.06418979415 -4.147632893e-16)
(1.155611965 -0.004880279321 4.151698859e-16)
(0.8771154296 -0.01702387681 -3.622941164e-16)
(1.563963247 -0.7663547502 -7.046723444e-18)
(1.019912676 -0.517444471 -1.031135332e-17)
(1.45915092 -0.4252536844 3.4653024e-16)
(0.9644461703 -0.2569832238 -2.011863482e-16)
(1.355642482 -0.24560691 2.78371897e-16)
(0.9627342476 -0.1480712711 -2.180322409e-16)
(1.270250046 -0.1329073577 1.738010448e-16)
(0.9620170429 -0.09585071079 -6.374424367e-17)
(1.204525298 -0.05641098872 -8.262503348e-17)
(0.939437145 -0.05930555598 3.095034787e-16)
(1.15797681 -0.006511739603 -2.957215994e-16)
(0.879670374 -0.01413494835 3.230854475e-16)
(1.727682408 -0.6875712959 -8.272794504e-17)
(1.130331436 -0.4639318578 3.494273836e-17)
(1.549707851 -0.3815564087 -4.074780997e-16)
(1.019325815 -0.2304424743 1.375192025e-16)
(1.407877325 -0.2204767886 -2.817377077e-16)
(0.9946008272 -0.1329097052 2.649044106e-16)
(1.298365589 -0.1193434883 -2.093522019e-16)
(0.9831972049 -0.0862955067 8.430863338e-17)
(1.21580769 -0.05037676113 -6.777942754e-19)
(0.9534757682 -0.05390214957 -1.962448155e-17)
(1.157803323 -0.00502119486 8.361053942e-19)
(0.8844322038 -0.01372131816 -3.590707144e-17)
(1.869739173 -0.5744514991 2.679368688e-17)
(1.226682296 -0.3873337363 2.13234697e-17)
(1.628655873 -0.3187994287 2.292562817e-16)
(1.067236409 -0.1922179233 3.432295755e-17)
(1.453508073 -0.1842433743 9.278308179e-17)
(1.021983611 -0.1105466642 -3.802719553e-17)
(1.323214611 -0.1000429973 7.818208526e-17)
(1.000434576 -0.07117908251 2.635387874e-18)
(1.226837295 -0.04314764931 -3.235223639e-17)
(0.9635614537 -0.04340123492 4.96105811e-17)
(1.15994104 -0.006218535672 -6.31946037e-17)
(0.8863060942 -0.009137129857 1.000639165e-16)
(1.983086783 -0.4323744941 2.829789394e-17)
(1.303047194 -0.291222897 2.008897914e-18)
(1.691311745 -0.2401325853 -1.962227757e-16)
(1.105163028 -0.1445660045 1.009359686e-17)
(1.489676236 -0.138968388 -1.705732677e-16)
(1.043926172 -0.0831927192 1.329207385e-16)
(1.342810414 -0.07560036224 -1.979759104e-16)
(1.014870707 -0.05362360681 1.287060731e-16)
(1.234927123 -0.03258334547 -7.79336975e-17)
(0.9729977769 -0.03293733533 8.613076546e-17)
(1.160128357 -0.004348997947 -1.175081367e-16)
(0.8895176952 -0.00759343718 1.14249932e-16)
(2.061966018 -0.2688002796 -1.769944951e-19)
(1.356525288 -0.1804594931 3.304199218e-17)
(1.735159779 -0.1492668923 8.341907602e-17)
(1.13176356 -0.08933346682 5.081632852e-17)
(1.515066469 -0.08641024245 4.881953289e-17)
(1.05907831 -0.05111411163 1.680811906e-17)
(1.356763657 -0.04729524196 2.341139915e-17)
(1.024286421 -0.03244786244 3.417111078e-17)
(1.241354756 -0.0211818327 -3.68520117e-17)
(0.9783253399 -0.01895538086 4.829275761e-17)
(1.16175106 -0.004536268486 -5.014216002e-17)
(0.890182741 -0.002322187805 5.762809625e-17)
(2.102468308 -0.0915516403 -5.747123574e-18)
(1.383762467 -0.060747507 -1.263549924e-17)
(1.757527655 -0.05117406135 -8.745693675e-17)
(1.145285865 -0.02999749986 -1.353943063e-18)
(1.528020343 -0.02993998857 -9.705291798e-17)
(1.066829034 -0.01704549347 4.938857279e-17)
(1.363920976 -0.01680258391 -9.892119084e-17)
(1.029241845 -0.0105254407 6.362617196e-17)
(1.244535203 -0.008142645093 -6.226267942e-17)
(0.98145636 -0.005709305321 6.491493876e-17)
(1.162111912 -0.002600666065 -7.612803877e-17)
(0.8913123544 -4.464779155e-05 8.463672234e-17)
(2.102532318 0.09008687583 1.278779052e-17)
(1.383769804 0.06218283356 3.663332716e-17)
(1.757546348 0.04976829142 3.981686511e-17)
(1.145284604 0.03128225237 5.064610197e-17)
(1.528086877 0.02851384961 2.580047694e-17)
(1.066717513 0.01844006616 4.268670033e-17)
(1.364151768 0.01487893884 8.956730626e-18)
(1.028941138 0.01265658316 3.612481386e-17)
(1.244992248 0.005075217327 -2.147508025e-17)
(0.9810027033 0.009216551878 3.153811491e-17)
(1.162710467 -0.001935459059 -3.12975717e-17)
(0.8908977684 0.005059223246 3.435275903e-17)
(2.062141711 0.2674122204 -3.250732014e-17)
(1.356517748 0.1818519138 -2.924840501e-17)
(1.735190349 0.1479210529 -5.853718054e-17)
(1.131764157 0.09058739908 -2.115048506e-17)
(1.515253547 0.08506888018 -1.024704101e-16)
(1.05881538 0.05243514335 3.647539358e-17)
(1.35741302 0.04553620294 -1.252496143e-16)
(1.023573121 0.03441351934 7.339988763e-17)
(1.242543606 0.01838246032 -7.371089601e-17)
(0.9773782659 0.02222717277 8.812948748e-17)
(1.163081795 0.0003139335179 -1.023023671e-16)
(0.8897499802 0.007153256189 1.351047209e-16)
(1.983353215 0.4311399447 2.86136419e-17)
(1.303079109 0.2925379801 5.189594742e-17)
(1.691359132 0.2388961213 4.114906183e-17)
(1.10518155 0.1457437228 7.594037388e-17)
(1.489955769 0.1377807305 4.389185039e-17)
(1.043491199 0.08433566699 6.422367525e-17)
(1.343818112 0.07417928555 4.739053201e-17)
(1.013670559 0.05519204121 4.186108262e-17)
(1.236845209 0.03041737955 -9.166249553e-18)
(0.9713204019 0.03555878441 -1.415159649e-17)
(1.162420177 0.001015344272 1.769489629e-17)
(0.8884485129 0.01166647036 -2.042702613e-17)
(1.870047941 0.5734244957 -1.155686758e-16)
(1.22673693 0.3885343673 -3.369288476e-17)
(1.62866421 0.3177221911 -1.18768396e-16)
(1.067289901 0.1933145475 2.923431718e-17)
(1.4538226 0.1832768702 -2.018702442e-16)
(1.021506165 0.1115067786 8.026698656e-17)
(1.324436323 0.09904269713 -2.07452867e-16)
(0.999079103 0.07234143288 1.158704936e-16)
(1.229110655 0.04165508089 -1.438802283e-16)
(0.9617683718 0.04544598909 2.19710311e-16)
(1.162490048 0.003666551183 -2.11942904e-16)
(0.8855230256 0.01275196749 2.713187295e-16)
(1.727984976 0.6868038313 1.963486505e-16)
(1.130485326 0.4650138391 1.521328279e-17)
(1.549677239 0.3806737093 9.694490418e-17)
(1.019446548 0.2314184238 -1.874633101e-17)
(1.408177127 0.2197713843 1.655016923e-16)
(0.9940815988 0.1335807774 2.380404684e-17)
(1.299677664 0.1188951021 8.71001154e-17)
(0.9816508643 0.08680878035 -5.426442007e-17)
(1.218329747 0.04991610064 1.409779663e-16)
(0.9514089623 0.05488578376 -2.613422157e-16)
(1.160696045 0.003921186732 1.962669956e-16)
(0.8835055842 0.01612334106 -1.930089683e-16)
(1.564195069 0.765865362 -1.31345323e-16)
(1.020149683 0.5183795737 2.494195503e-17)
(1.45900368 0.4245779831 -9.455402621e-17)
(0.9646557713 0.257858819 1.055202902e-16)
(1.355842647 0.2451773622 -2.358713022e-16)
(0.9623442177 0.1485438009 8.1325014e-17)
(1.271447801 0.1329617372 -1.814570275e-16)
(0.9607175412 0.09593233726 7.763232954e-17)
(1.206801904 0.0567323095 -1.907314104e-16)
(0.9378431737 0.05967228751 4.333323264e-16)
(1.16037709 0.006313323857 -4.527905603e-16)
(0.8795042591 0.01602362053 4.237624746e-16)
(1.386972633 0.8064238668 -3.255157519e-17)
(0.9001940021 0.545497913 3.503148916e-17)
(1.360534079 0.447028733 -1.378765698e-16)
(0.9050677703 0.2713857768 -9.082694927e-17)
(1.298914326 0.2582340088 1.675818253e-16)
(0.9282666601 0.1564989383 -3.467674403e-17)
(1.24041461 0.1401075325 1.307940843e-16)
(0.9392146049 0.1013617649 -9.977501123e-17)
(1.192995168 0.05961725 1.830189063e-16)
(0.9252733467 0.06350400699 -4.306027082e-16)
(1.157642244 0.006125308338 4.30707288e-16)
(0.8773358886 0.01771466639 -3.365990204e-16)
(1.205140403 0.8066037469 1.17885949e-16)
(0.7776844979 0.5456887221 -7.565577774e-17)
(1.259792844 0.4473057084 4.228746549e-16)
(0.844193277 0.2714713473 -1.509501484e-16)
(1.240707949 0.2584689372 2.128463625e-16)
(0.8930465053 0.1563298293 -1.886166193e-16)
(1.208936271 0.1404655055 2.135042259e-16)
(0.9160952605 0.1007610375 -6.010824265e-17)
(1.180028477 0.06044530203 -5.925127088e-17)
(0.9103538104 0.06238039691 3.28610767e-16)
(1.157169793 0.007579810695 -3.260262384e-16)
(0.8728064759 0.01642371386 2.449700721e-16)
(1.02784374 0.7662929268 -1.731604004e-17)
(0.6578087329 0.5180923308 -2.880147626e-17)
(1.161376732 0.4248290725 -5.676382939e-16)
(0.7846801049 0.2577629054 2.380124519e-16)
(1.183827896 0.2455238016 -4.593884927e-16)
(0.8590259821 0.1486134685 2.72238218e-16)
(1.17786149 0.1334711629 -2.789150055e-16)
(0.8946530359 0.09612325435 7.033128805e-17)
(1.166037118 0.05726186928 1.074461419e-16)
(0.8979497379 0.06000411158 -4.313416501e-16)
(1.154046733 0.006682450315 4.124693144e-16)
(0.8710937569 0.0165341539 -4.637366996e-16)
(0.8639963578 0.6875631052 1.39800609e-16)
(0.547360581 0.4650590494 -4.131990764e-17)
(1.070482973 0.3814051319 7.727349819e-16)
(0.7297436087 0.2314565779 -2.257070804e-16)
(1.131218198 0.2205311703 6.011415589e-16)
(0.8272706267 0.1333423562 -5.174432185e-16)
(1.149282923 0.120083816 4.771207156e-16)
(0.8739307369 0.08592566441 -2.387276567e-16)
(1.154059732 0.05206612787 8.936280322e-17)
(0.8846583776 0.05313600736 -6.208274234e-17)
(1.153366603 0.007181766571 1.180091261e-16)
(0.8668420172 0.01405564299 -3.621948385e-17)
(0.7217260028 0.5743586472 2.640206119e-17)
(0.4513126554 0.388250355 -5.08253186e-17)
(0.9916249555 0.3184967272 -4.474698211e-16)
(0.6821197086 0.1932679121 -1.561375013e-16)
(1.085697686 0.1841809032 -1.494858453e-16)
(0.8000735713 0.1115279518 4.686638446e-17)
(1.124428042 0.100296802 -1.362087434e-16)
(0.8567855842 0.07221851863 -2.056093139e-17)
(1.142871588 0.04328402878 8.164327252e-17)
(0.8747770379 0.04518107148 -3.405021987e-17)
(1.150796677 0.005475043544 7.027640589e-17)
(0.8657350714 0.01279098517 -1.262736374e-16)
(0.6083433919 0.4323271172 -1.886586705e-16)
(0.3747846661 0.2924548135 -1.010207991e-17)
(0.928577298 0.2399381298 3.933107643e-16)
(0.6439652892 0.1457321458 4.96472664e-17)
(1.049079265 0.1388743736 3.615777332e-16)
(0.7779824181 0.08413627766 -3.020090194e-16)
(1.104399376 0.07580624006 5.014608479e-16)
(0.8423932081 0.05439737689 -3.366378988e-16)
(1.134293345 0.03312148211 1.912783864e-16)
(0.8655240656 0.03388257406 -2.437016775e-16)
(1.150114115 0.004953099173 3.439475022e-16)
(0.8624721621 0.009661017448 -3.342972472e-16)
(0.5292577413 0.2686481675 1.138810747e-16)