/*--------------------------------*- C++ -*----------------------------------*\
| =========                 |                                                 |
| \\      /  F ield         | foam-extend: Open Source CFD                    |
|  \\    /   O peration     | Version:  3.0                                   |
|   \\  /    A nd           | Web:         http://www.extend-project.de       |
|    \\/     M anipulation  |                                                 |
\*---------------------------------------------------------------------------*/
FoamFile
{
    version     2.0;
    format      ascii;
    class       volScalarField;
    location    "29";
    object      p;
}
// * * * * * * * * * * * * * * * * * * * * * * * * * * * * * * * * * * * * * //

dimensions      [0 0 0 0 0 0 0];

internalField   nonuniform List<scalar> 
7680
(
-0.236412
-0.224328
-0.215362
-0.205938
-0.199063
-0.191605
-0.186283
-0.180321
-0.176183
-0.171386
-0.168168
-0.164293
-0.1618
-0.158663
-0.156745
-0.154204
-0.152742
-0.150684
-0.149582
-0.147912
-0.147089
-0.145725
-0.14511
-0.143982
-0.14351
-0.142553
-0.142165
-0.141317
-0.140953
-0.140153
-0.139755
-0.138943
-0.13845
-0.137562
-0.13691
-0.135877
-0.134997
-0.133746
-0.13256
-0.131011
-0.23618
-0.224108
-0.215152
-0.205737
-0.198868
-0.191417
-0.186101
-0.180145
-0.176011
-0.171218
-0.168004
-0.164133
-0.161642
-0.158509
-0.156592
-0.154055
-0.152594
-0.150538
-0.149437
-0.147769
-0.146946
-0.145585
-0.14497
-0.143844
-0.143372
-0.142416
-0.142028
-0.141181
-0.140818
-0.140019
-0.139622
-0.13881
-0.138318
-0.13743
-0.136779
-0.135747
-0.134867
-0.133617
-0.132432
-0.130884
-0.235659
-0.223614
-0.214678
-0.205285
-0.198432
-0.190998
-0.185694
-0.179751
-0.175628
-0.170846
-0.167639
-0.163777
-0.161292
-0.158166
-0.156255
-0.153723
-0.152266
-0.150215
-0.149117
-0.147453
-0.146633
-0.145274
-0.144661
-0.143538
-0.143068
-0.142115
-0.141728
-0.140883
-0.140521
-0.139724
-0.139328
-0.138518
-0.138027
-0.137141
-0.136492
-0.135462
-0.134584
-0.133337
-0.132155
-0.130609
-0.234922
-0.222915
-0.214007
-0.204643
-0.197811
-0.190401
-0.185113
-0.17919
-0.175079
-0.170312
-0.167116
-0.163265
-0.160789
-0.157672
-0.155767
-0.153243
-0.151791
-0.149747
-0.148652
-0.146993
-0.146176
-0.144821
-0.14421
-0.143091
-0.142622
-0.141672
-0.141287
-0.140444
-0.140083
-0.139289
-0.138894
-0.138087
-0.137598
-0.136715
-0.136067
-0.13504
-0.134165
-0.132922
-0.131743
-0.130202
-0.233896
-0.221942
-0.213074
-0.203752
-0.19695
-0.189573
-0.184309
-0.178411
-0.174319
-0.169574
-0.166392
-0.162559
-0.160093
-0.156991
-0.155094
-0.152582
-0.151137
-0.149102
-0.148013
-0.146361
-0.145548
-0.1442
-0.143592
-0.142477
-0.142012
-0.141066
-0.140682
-0.139844
-0.139485
-0.138695
-0.138302
-0.137498
-0.137011
-0.136132
-0.135487
-0.134465
-0.133594
-0.132356
-0.131182
-0.129648
-0.232657
-0.220767
-0.211945
-0.202672
-0.195907
-0.188569
-0.183333
-0.177467
-0.173396
-0.168676
-0.165511
-0.161698
-0.159246
-0.15616
-0.154273
-0.151774
-0.150337
-0.148313
-0.147229
-0.145587
-0.144777
-0.143437
-0.142832
-0.141724
-0.14126
-0.14032
-0.139938
-0.139105
-0.138747
-0.137961
-0.13757
-0.136771
-0.136287
-0.135412
-0.134771
-0.133754
-0.132887
-0.131656
-0.130488
-0.128962
-0.231132
-0.21932
-0.210557
-0.201345
-0.194625
-0.187336
-0.182134
-0.176307
-0.172264
-0.167575
-0.164431
-0.160644
-0.158208
-0.155143
-0.153269
-0.150787
-0.149359
-0.147349
-0.146273
-0.144641
-0.143838
-0.142507
-0.141906
-0.140805
-0.140345
-0.139411
-0.139032
-0.138205
-0.13785
-0.137069
-0.136681
-0.135887
-0.135406
-0.134537
-0.133901
-0.13289
-0.132029
-0.130806
-0.129646
-0.12813
-0.229396
-0.217673
-0.208976
-0.199833
-0.193164
-0.185929
-0.180766
-0.174983
-0.17097
-0.166317
-0.163196
-0.159437
-0.15702
-0.153978
-0.152118
-0.149655
-0.148238
-0.146242
-0.145175
-0.143555
-0.142758
-0.141437
-0.140841
-0.139748
-0.139292
-0.138365
-0.137989
-0.137167
-0.136815
-0.13604
-0.135655
-0.134867
-0.13439
-0.133527
-0.132895
-0.131893
-0.131038
-0.129824
-0.128672
-0.127168
-0.227377
-0.215758
-0.207138
-0.198077
-0.191466
-0.184296
-0.179179
-0.173447
-0.16947
-0.164858
-0.161766
-0.15804
-0.155645
-0.15263
-0.150787
-0.148345
-0.146941
-0.144964
-0.143906
-0.142301
-0.141511
-0.140202
-0.139611
-0.138529
-0.138076
-0.137158
-0.136785
-0.135971
-0.135623
-0.134855
-0.134473
-0.133692
-0.133219
-0.132365
-0.131738
-0.130744
-0.129897
-0.128694
-0.127553
-0.126062
-0.225152
-0.213647
-0.205111
-0.196138
-0.189593
-0.182492
-0.177426
-0.17175
-0.167812
-0.163245
-0.160183
-0.156494
-0.154121
-0.151136
-0.149311
-0.146894
-0.145503
-0.143545
-0.142497
-0.140908
-0.140126
-0.138829
-0.138245
-0.137173
-0.136725
-0.135815
-0.135447
-0.13464
-0.134295
-0.133534
-0.133157
-0.132383
-0.131915
-0.131069
-0.130448
-0.129465
-0.128626
-0.127434
-0.126304
-0.124828
-0.222649
-0.211272
-0.202832
-0.19396
-0.187487
-0.180466
-0.175456
-0.169844
-0.16595
-0.161434
-0.158407
-0.154759
-0.152414
-0.149462
-0.147657
-0.145267
-0.143893
-0.141957
-0.140921
-0.13935
-0.138577
-0.137295
-0.136717
-0.135657
-0.135215
-0.134315
-0.133951
-0.133154
-0.132812
-0.132061
-0.131687
-0.130923
-0.13046
-0.129623
-0.12901
-0.128037
-0.127208
-0.12603
-0.124913
-0.123453
-0.219944
-0.208705
-0.200368
-0.191603
-0.185209
-0.178274
-0.173325
-0.167781
-0.163934
-0.159473
-0.156482
-0.152879
-0.150562
-0.147646
-0.145863
-0.143502
-0.142144
-0.140232
-0.139208
-0.137657
-0.136893
-0.135626
-0.135055
-0.134008
-0.133571
-0.132683
-0.132323
-0.131535
-0.131198
-0.130455
-0.130086
-0.129331
-0.128873
-0.128047
-0.127441
-0.12648
-0.125661
-0.124498
-0.123394
-0.121953
-0.216967
-0.205881
-0.197656
-0.189011
-0.182704
-0.175863
-0.170982
-0.165513
-0.161719
-0.157318
-0.154368
-0.150814
-0.148529
-0.145653
-0.143895
-0.141566
-0.140227
-0.13834
-0.137331
-0.135801
-0.135048
-0.133799
-0.133236
-0.132203
-0.131772
-0.130896
-0.130541
-0.129764
-0.129432
-0.128699
-0.128335
-0.127591
-0.127139
-0.126324
-0.125727
-0.124779
-0.123971
-0.122824
-0.121736
-0.120315
-0.213794
-0.20287
-0.194766
-0.186247
-0.180032
-0.173291
-0.168481
-0.163092
-0.159353
-0.155018
-0.152111
-0.148608
-0.146357
-0.143522
-0.14179
-0.139495
-0.138175
-0.136317
-0.135322
-0.133814
-0.133072
-0.131841
-0.131286
-0.130269
-0.129844
-0.12898
-0.12863
-0.127865
-0.127537
-0.126815
-0.126457
-0.125723
-0.125278
-0.124475
-0.123886
-0.122953
-0.122157
-0.121027
-0.119955
-0.118555
-0.210355
-0.199608
-0.191634
-0.183253
-0.177139
-0.170506
-0.165774
-0.160472
-0.156794
-0.152528
-0.149669
-0.146223
-0.144008
-0.141219
-0.139515
-0.137258
-0.13596
-0.134131
-0.133153
-0.131669
-0.130939
-0.129728
-0.129183
-0.128182
-0.127764
-0.126914
-0.12657
-0.125817
-0.125495
-0.124785
-0.124432
-0.12371
-0.123273
-0.122483
-0.121904
-0.120986
-0.120203
-0.119091
-0.118037
-0.11666
-0.206728
-0.196166
-0.18833
-0.180093
-0.174084
-0.167566
-0.162915
-0.157705
-0.15409
-0.149898
-0.147087
-0.143701
-0.141524
-0.138784
-0.137109
-0.13489
-0.133614
-0.131817
-0.130856
-0.129397
-0.12868
-0.12749
-0.126954
-0.12597
-0.125559
-0.124724
-0.124386
-0.123646
-0.123329
-0.122631
-0.122284
-0.121575
-0.121145
-0.120369
-0.119799
-0.118897
-0.118128
-0.117036
-0.116
-0.114648
-0.202843
-0.19248
-0.184791
-0.17671
-0.170814
-0.164419
-0.159856
-0.154744
-0.151197
-0.147084
-0.144327
-0.141005
-0.138869
-0.13618
-0.134537
-0.132361
-0.131109
-0.129346
-0.128403
-0.126972
-0.126268
-0.125101
-0.124575
-0.12361
-0.123207
-0.122388
-0.122056
-0.12133
-0.12102
-0.120335
-0.119995
-0.119299
-0.118877
-0.118116
-0.117558
-0.116672
-0.115918
-0.114847
-0.113831
-0.112504
-0.198777
-0.188621
-0.181087
-0.173167
-0.16739
-0.161123
-0.156651
-0.151642
-0.148166
-0.144135
-0.141433
-0.138178
-0.136084
-0.13345
-0.13184
-0.129706
-0.12848
-0.126752
-0.125828
-0.124426
-0.123736
-0.122592
-0.122076
-0.12113
-0.120735
-0.119932
-0.119607
-0.118896
-0.118591
-0.11792
-0.117587
-0.116905
-0.116492
-0.115745
-0.115198
-0.114331
-0.113592
-0.112543
-0.111547
-0.110248
-0.194461
-0.184527
-0.177156
-0.169409
-0.163758
-0.157627
-0.153253
-0.148353
-0.144953
-0.14101
-0.138367
-0.135182
-0.133135
-0.130558
-0.128983
-0.126896
-0.125696
-0.124006
-0.123102
-0.121731
-0.121056
-0.119937
-0.119433
-0.118508
-0.118122
-0.117336
-0.117018
-0.116323
-0.116025
-0.115368
-0.115042
-0.114375
-0.113971
-0.113242
-0.112707
-0.111859
-0.111136
-0.110109
-0.109136
-0.107866
-0.189974
-0.180269
-0.173069
-0.1655
-0.159979
-0.153989
-0.149716
-0.144929
-0.141607
-0.137755
-0.135173
-0.132062
-0.130061
-0.127544
-0.126005
-0.123966
-0.122794
-0.121143
-0.12026
-0.11892
-0.118261
-0.117167
-0.116675
-0.115771
-0.115393
-0.114626
-0.114316
-0.113636
-0.113345
-0.112703
-0.112385
-0.111733
-0.111338
-0.110625
-0.110103
-0.109275
-0.108569
-0.107566
-0.106616
-0.105376
-0.185247
-0.175783
-0.168763
-0.161383
-0.155999
-0.15016
-0.145993
-0.141325
-0.138087
-0.134331
-0.131813
-0.12878
-0.126829
-0.124375
-0.122875
-0.120887
-0.119744
-0.118134
-0.117273
-0.115967
-0.115324
-0.114259
-0.113778
-0.112897
-0.112529
-0.111781
-0.111478
-0.110816
-0.110532
-0.109907
-0.109596
-0.108961
-0.108576
-0.107881
-0.107372
-0.106565
-0.105877
-0.1049
-0.103973
-0.102764
-0.180358
-0.171144
-0.164309
-0.157124
-0.151882
-0.146196
-0.142139
-0.137595
-0.134442
-0.130785
-0.128333
-0.12538
-0.123481
-0.121091
-0.11963
-0.117695
-0.116582
-0.115015
-0.114176
-0.112904
-0.112279
-0.111241
-0.110773
-0.109915
-0.109557
-0.108828
-0.108533
-0.107888
-0.107612
-0.107003
-0.106701
-0.106082
-0.105707
-0.105031
-0.104535
-0.103749
-0.103079
-0.102129
-0.101227
-0.100051
-0.175239
-0.166287
-0.159646
-0.152665
-0.147573
-0.142049
-0.138108
-0.133692
-0.130629
-0.127076
-0.124695
-0.121825
-0.119981
-0.117659
-0.11624
-0.11436
-0.113279
-0.111756
-0.110942
-0.109706
-0.109098
-0.10809
-0.107636
-0.106802
-0.106454
-0.105747
-0.10546
-0.104833
-0.104565
-0.103974
-0.10368
-0.103079
-0.102716
-0.102058
-0.101577
-0.100814
-0.100163
-0.0992399
-0.0983643
-0.0972218
-0.169969
-0.161287
-0.154845
-0.148074
-0.143134
-0.137776
-0.133954
-0.129671
-0.1267
-0.123254
-0.120944
-0.118161
-0.116371
-0.114119
-0.112743
-0.110919
-0.10987
-0.108393
-0.107603
-0.106405
-0.105815
-0.104837
-0.104396
-0.103588
-0.10325
-0.102564
-0.102286
-0.101677
-0.101417
-0.100844
-0.100559
-0.0999761
-0.0996231
-0.0989859
-0.0985188
-0.0977787
-0.097148
-0.0962528
-0.095404
-0.0942963
-0.164481
-0.156079
-0.149845
-0.143293
-0.138514
-0.133329
-0.12963
-0.125486
-0.122611
-0.119277
-0.117042
-0.114349
-0.112618
-0.110438
-0.109107
-0.107342
-0.106328
-0.104898
-0.104134
-0.102975
-0.102404
-0.101458
-0.101032
-0.100249
-0.0999226
-0.0992587
-0.0989898
-0.0984015
-0.0981497
-0.0975949
-0.0973194
-0.0967557
-0.0964144
-0.0957979
-0.0953462
-0.0946303
-0.0940202
-0.0931544
-0.0923333
-0.091262
-0.158853
-0.150738
-0.144718
-0.13839
-0.133774
-0.128767
-0.125194
-0.121192
-0.118415
-0.115195
-0.113036
-0.110435
-0.108763
-0.106658
-0.105372
-0.103667
-0.102687
-0.101307
-0.100569
-0.0994488
-0.0988976
-0.0979836
-0.0975718
-0.0968161
-0.0965005
-0.0958592
-0.0955994
-0.0950311
-0.0947878
-0.094252
-0.0939858
-0.0934415
-0.0931118
-0.0925165
-0.0920803
-0.0913891
-0.0908001
-0.0899642
-0.0891716
-0.0881374
-0.153018
-0.145201
-0.139403
-0.133308
-0.128862
-0.124039
-0.120598
-0.116743
-0.114068
-0.110966
-0.108887
-0.106382
-0.104772
-0.102744
-0.101506
-0.0998643
-0.0989207
-0.0975913
-0.0968804
-0.0958017
-0.0952709
-0.0943907
-0.0939942
-0.0932665
-0.0929626
-0.0923451
-0.092095
-0.0915478
-0.0913136
-0.0907976
-0.0905414
-0.0900173
-0.0896999
-0.0891267
-0.0887068
-0.0880413
-0.0874742
-0.0866694
-0.0859062
-0.0849106
-0.147056
-0.139544
-0.133971
-0.128113
-0.12384
-0.119205
-0.115898
-0.112193
-0.109623
-0.106642
-0.104643
-0.102236
-0.100688
-0.0987396
-0.097549
-0.0959715
-0.0950645
-0.0937867
-0.0931034
-0.0920666
-0.0915564
-0.0907103
-0.0903291
-0.0896296
-0.0893375
-0.0887439
-0.0885034
-0.0879775
-0.0877523
-0.0872564
-0.0870101
-0.0865064
-0.0862014
-0.0856507
-0.0852472
-0.0846078
-0.084063
-0.0832898
-0.0825567
-0.0816003
-0.140899
-0.133702
-0.128363
-0.122751
-0.118657
-0.114216
-0.111048
-0.107499
-0.105036
-0.10218
-0.100266
-0.0979596
-0.0964768
-0.0946103
-0.0934698
-0.0919586
-0.0910898
-0.0898658
-0.0892113
-0.0882181
-0.0877295
-0.0869191
-0.0865541
-0.085884
-0.0856043
-0.0850358
-0.0848055
-0.0843018
-0.0840862
-0.0836113
-0.0833755
-0.0828931
-0.082601
-0.0820736
-0.0816873
-0.0810749
-0.0805532
-0.0798128
-0.0791108
-0.0781948
-0.134629
-0.127752
-0.12265
-0.117288
-0.113376
-0.109133
-0.106105
-0.102714
-0.100361
-0.097632
-0.0958028
-0.0935987
-0.0921819
-0.0903983
-0.0893084
-0.0878644
-0.0870341
-0.0858644
-0.0852389
-0.0842898
-0.0838228
-0.0830484
-0.0826994
-0.0820591
-0.0817917
-0.0812484
-0.0810283
-0.0805469
-0.0803408
-0.079887
-0.0796617
-0.0792008
-0.0789217
-0.0784179
-0.0780488
-0.0774639
-0.0769656
-0.0762584
-0.0755879
-0.0747132
-0.128177
-0.12163
-0.116774
-0.111669
-0.107945
-0.103905
-0.101023
-0.0977943
-0.0955544
-0.0929566
-0.0912154
-0.0891173
-0.0877686
-0.0860708
-0.0850334
-0.0836588
-0.0828686
-0.0817552
-0.0811599
-0.0802566
-0.0798121
-0.079075
-0.078743
-0.0781336
-0.0778792
-0.0773621
-0.0771528
-0.0766946
-0.0764986
-0.0760668
-0.0758524
-0.0754138
-0.0751484
-0.0746689
-0.0743178
-0.0737612
-0.0732871
-0.0726141
-0.0719761
-0.0711437
-0.121626
-0.115413
-0.110805
-0.10596
-0.102426
-0.0985932
-0.0958585
-0.0927946
-0.0906691
-0.088204
-0.0865517
-0.0845607
-0.0832809
-0.0816698
-0.0806853
-0.0793808
-0.0786309
-0.0775743
-0.0770093
-0.076152
-0.0757302
-0.0750307
-0.0747155
-0.0741371
-0.0738956
-0.0734049
-0.0732061
-0.0727714
-0.0725853
-0.0721755
-0.0719721
-0.0715559
-0.0713041
-0.0708492
-0.0705161
-0.0699882
-0.0695385
-0.0689002
-0.0682951
-0.0675057
-0.114907
-0.109038
-0.104684
-0.100108
-0.0967695
-0.0931484
-0.0905652
-0.0876709
-0.0856632
-0.0833346
-0.0817739
-0.0798932
-0.0786844
-0.0771626
-0.0762328
-0.0750006
-0.0742924
-0.0732944
-0.0727609
-0.0719512
-0.0715529
-0.0708923
-0.0705947
-0.0700485
-0.0698206
-0.0693572
-0.0691696
-0.0687591
-0.0685835
-0.0681965
-0.0680046
-0.0676116
-0.0673739
-0.0669445
-0.06663
-0.0661315
-0.0657069
-0.0651043
-0.064533
-0.0637876
-0.108102
-0.10258
-0.0984841
-0.0941787
-0.0910381
-0.0876313
-0.0852009
-0.082478
-0.080589
-0.0783983
-0.0769299
-0.0751605
-0.0740232
-0.0725914
-0.0717166
-0.0705573
-0.0698909
-0.068952
-0.0684499
-0.0676881
-0.0673133
-0.0666916
-0.0664116
-0.0658977
-0.0656832
-0.0652471
-0.0650706
-0.0646843
-0.0645191
-0.064155
-0.0639744
-0.0636048
-0.0633812
-0.0629773
-0.0626815
-0.0622128
-0.0618135
-0.0612469
-0.0607097
-0.0600088
-0.101144
-0.0959779
-0.0921461
-0.0881181
-0.08518
-0.0819929
-0.0797194
-0.0771721
-0.075405
-0.0733557
-0.0719821
-0.0703269
-0.0692631
-0.0679238
-0.0671056
-0.0660212
-0.065398
-0.0645198
-0.0640503
-0.0633378
-0.0629873
-0.062406
-0.0621442
-0.0616636
-0.0614631
-0.0610553
-0.0608904
-0.0605292
-0.0603748
-0.0600344
-0.0598657
-0.0595201
-0.0593111
-0.0589334
-0.058657
-0.0582187
-0.0578455
-0.0573156
-0.0568133
-0.056158
-0.0941146
-0.0893077
-0.085742
-0.0819939
-0.0792599
-0.0762942
-0.0741785
-0.0718082
-0.0701639
-0.0682569
-0.0669787
-0.0654385
-0.0644485
-0.0632022
-0.0624407
-0.0614317
-0.0608517
-0.0600344
-0.0595975
-0.0589344
-0.0586082
-0.0580672
-0.0578235
-0.0573762
-0.0571896
-0.0568101
-0.0566566
-0.0563205
-0.0561768
-0.0558601
-0.055703
-0.0553815
-0.0551871
-0.0548358
-0.0545787
-0.0541711
-0.053824
-0.0533312
-0.0528642
-0.0522548
-0.0869476
-0.0825072
-0.0792134
-0.0757511
-0.0732258
-0.0704863
-0.0685322
-0.0663427
-0.064824
-0.0630626
-0.0618821
-0.0604595
-0.0595453
-0.0583942
-0.0576911
-0.0567592
-0.0562236
-0.0554689
-0.0550655
-0.0544532
-0.0541521
-0.0536526
-0.0534277
-0.0530147
-0.0528426
-0.0524922
-0.0523506
-0.0520404
-0.0519079
-0.0516155
-0.0514706
-0.0511739
-0.0509945
-0.0506703
-0.050433
-0.0500568
-0.0497364
-0.0492815
-0.0488504
-0.0482879
-0.0797247
-0.075653
-0.0726328
-0.069458
-0.0671424
-0.0646304
-0.0628386
-0.0608309
-0.0594384
-0.0578232
-0.0567408
-0.0554363
-0.0545979
-0.0535425
-0.0528977
-0.0520431
-0.051552
-0.0508599
-0.05049
-0.0499285
-0.0496524
-0.0491943
-0.048988
-0.0486093
-0.0484514
-0.0481301
-0.0480002
-0.0477158
-0.0475942
-0.0473262
-0.0471934
-0.0469214
-0.046757
-0.0464598
-0.0462424
-0.0458976
-0.0456041
-0.0451874
-0.0447924
-0.044277
-0.0723792
-0.0686831
-0.0659416
-0.0630598
-0.060958
-0.0586779
-0.0570516
-0.0552293
-0.0539655
-0.0524995
-0.0515172
-0.0503333
-0.0495726
-0.0486147
-0.0480297
-0.0472542
-0.0468087
-0.0461807
-0.0458451
-0.0453357
-0.0450853
-0.0446696
-0.0444827
-0.0441392
-0.043996
-0.0437047
-0.043587
-0.043329
-0.0432189
-0.0429759
-0.0428556
-0.0426089
-0.04246
-0.0421905
-0.0419934
-0.0416807
-0.0414146
-0.0410366
-0.0406784
-0.0402109
-0.0649934
-0.0616745
-0.0592127
-0.0566249
-0.0547375
-0.0526901
-0.0512297
-0.0495934
-0.0484585
-0.0471421
-0.04626
-0.0451969
-0.0445138
-0.0436537
-0.0431283
-0.0424319
-0.0420319
-0.0414679
-0.0411666
-0.0407091
-0.0404842
-0.040111
-0.0399431
-0.0396346
-0.0395061
-0.0392444
-0.0391388
-0.0389071
-0.0388083
-0.0385901
-0.0384821
-0.0382608
-0.0381271
-0.0378853
-0.0377085
-0.037428
-0.0371892
-0.0368502
-0.0365289
-0.0361097
-0.0575009
-0.054565
-0.0523875
-0.0500986
-0.0484293
-0.0466183
-0.0453268
-0.0438796
-0.042876
-0.0417118
-0.0409318
-0.0399917
-0.0393878
-0.0386272
-0.0381628
-0.0375471
-0.0371935
-0.0366949
-0.0364287
-0.0360243
-0.0358256
-0.0354958
-0.0353475
-0.0350749
-0.0349615
-0.0347304
-0.0346372
-0.0344325
-0.0343454
-0.0341527
-0.0340574
-0.0338619
-0.033744
-0.0335304
-0.0333743
-0.0331265
-0.0329157
-0.0326162
-0.0323324
-0.031962
-0.049984
-0.0474319
-0.0455391
-0.0435494
-0.0420984
-0.0405242
-0.0394016
-0.0381436
-0.0372713
-0.0362594
-0.0355814
-0.0347642
-0.0342393
-0.0335782
-0.0331745
-0.0326394
-0.032332
-0.0318987
-0.0316672
-0.0313157
-0.0311431
-0.0308564
-0.0307275
-0.0304906
-0.030392
-0.0301912
-0.0301102
-0.0299324
-0.0298567
-0.0296893
-0.0296066
-0.0294368
-0.0293344
-0.029149
-0.0290135
-0.0287985
-0.0286155
-0.0283556
-0.0281093
-0.0277879
-0.0423764
-0.0402133
-0.0386092
-0.0369229
-0.0356933
-0.0343593
-0.0334081
-0.0323421
-0.0316031
-0.0307457
-0.0301714
-0.0294791
-0.0290345
-0.0284745
-0.0281328
-0.0276795
-0.0274194
-0.0270524
-0.0268566
-0.026559
-0.026413
-0.0261703
-0.0260615
-0.025861
-0.0257778
-0.0256078
-0.0255395
-0.0253891
-0.0253253
-0.0251837
-0.025114
-0.0249704
-0.024884
-0.0247272
-0.0246128
-0.0244309
-0.0242763
-0.0240565
-0.0238483
-0.0235764
-0.0347607
-0.0329865
-0.0316708
-0.0302877
-0.0292792
-0.0281851
-0.027405
-0.0265308
-0.0259247
-0.0252216
-0.0247507
-0.024183
-0.0238185
-0.0233593
-0.023079
-0.0227074
-0.0224941
-0.0221932
-0.0220327
-0.0217887
-0.0216691
-0.0214701
-0.0213809
-0.0212166
-0.0211484
-0.0210091
-0.0209532
-0.02083
-0.0207778
-0.0206619
-0.0206048
-0.0204873
-0.0204167
-0.0202884
-0.0201949
-0.0200461
-0.0199197
-0.01974
-0.0195698
-0.0193476
-0.0270705
-0.0256895
-0.0246656
-0.0235893
-0.0228046
-0.0219533
-0.0213465
-0.0206664
-0.0201951
-0.0196482
-0.0192821
-0.0188406
-0.0185573
-0.0182003
-0.0179826
-0.0176938
-0.0175282
-0.0172944
-0.01717
-0.0169805
-0.0168878
-0.0167333
-0.0166643
-0.0165368
-0.0164841
-0.0163761
-0.016333
-0.0162376
-0.0161973
-0.0161075
-0.0160636
-0.0159726
-0.0159181
-0.0158187
-0.0157465
-0.0156313
-0.0155335
-0.0153943
-0.0152625
-0.0150903
-0.0193887
-0.0183999
-0.017667
-0.0168964
-0.0163349
-0.0157256
-0.0152914
-0.0148047
-0.0144675
-0.0140762
-0.0138144
-0.0134986
-0.013296
-0.0130407
-0.0128852
-0.0126786
-0.0125603
-0.0123932
-0.0123043
-0.0121689
-0.0121028
-0.0119925
-0.0119433
-0.0118522
-0.0118148
-0.0117377
-0.0117071
-0.0116391
-0.0116106
-0.0115466
-0.0115155
-0.0114508
-0.0114121
-0.0113416
-0.0112904
-0.0112086
-0.0111392
-0.0110405
-0.010947
-0.0108248
-0.0116489
-0.0110559
-0.0106166
-0.0101548
-0.00981851
-0.00945353
-0.00919373
-0.0089024
-0.00870086
-0.0084668
-0.00831048
-0.00812173
-0.00800097
-0.00784849
-0.00775591
-0.0076327
-0.00756247
-0.00746289
-0.00741027
-0.0073297
-0.0072907
-0.00722517
-0.00719632
-0.00714236
-0.00712053
-0.00707497
-0.00705724
-0.00701709
-0.00700065
-0.00696301
-0.00694504
-0.00690699
-0.0068846
-0.00684316
-0.00681331
-0.00676529
-0.00672473
-0.00666671
-0.00661187
-0.0065401
-0.00393387
-0.00373483
-0.00358779
-0.00343314
-0.0033209
-0.00319898
-0.00311255
-0.00301548
-0.00294868
-0.0028709
-0.00281931
-0.00275677
-0.00271712
-0.00266676
-0.00263656
-0.00259602
-0.00257329
-0.00254067
-0.00252382
-0.00249756
-0.00248526
-0.00246404
-0.00245512
-0.0024378
-0.00243123
-0.00241675
-0.00241158
-0.00239898
-0.00239429
-0.00238263
-0.00237753
-0.00236588
-0.00235945
-0.00234687
-0.00233817
-0.00232368
-0.00231169
-0.00229424
-0.00227788
-0.00225633
0.00382261
0.00362498
0.00347768
0.00332294
0.00320941
0.00308646
0.00299809
0.00289939
0.00283026
0.00275046
0.00269632
0.00263153
0.00258921
0.00253648
0.00250357
0.00246059
0.00243518
0.0024001
0.00238061
0.00235189
0.00233699
0.00231331
0.00230184
0.00228201
0.00227291
0.00225584
0.00224808
0.00223273
0.00222531
0.00221063
0.00220254
0.00218746
0.00217763
0.00216103
0.00214832
0.00212899
0.00211215
0.00208877
0.00206642
0.00203752
0.0115376
0.010946
0.0105065
0.0100446
0.00970698
0.00934096
0.00907922
0.00878625
0.00858237
0.00834629
0.00818741
0.0079964
0.00787297
0.0077181
0.00762281
0.00749715
0.00742423
0.00732218
0.00726692
0.00718387
0.00714228
0.00707427
0.00704287
0.0069864
0.00696203
0.00691387
0.00689355
0.00685065
0.00683147
0.00679081
0.00676985
0.00672838
0.00670259
0.00665713
0.00662329
0.00657043
0.00652503
0.00646109
0.00640029
0.00632119
0.0192776
0.0182901
0.0175569
0.0167862
0.0162233
0.0156129
0.0151768
0.0146884
0.0143489
0.0139556
0.0136912
0.0133731
0.0131679
0.0129101
0.0127518
0.0125428
0.0124219
0.0122522
0.0121607
0.0120228
0.0119541
0.0118412
0.0117895
0.0116959
0.0116559
0.0115763
0.0115431
0.0114722
0.011441
0.011374
0.0113399
0.0112718
0.0112298
0.0111552
0.0111
0.0110134
0.0109392
0.0108346
0.0107351
0.0106057
0.0269595
0.0255798
0.0245555
0.023479
0.022693
0.0218405
0.0212317
0.0205499
0.0200762
0.0195273
0.0191586
0.0187148
0.0184288
0.0180694
0.017849
0.0175576
0.0173894
0.0171531
0.0170259
0.0168339
0.0167386
0.0165816
0.01651
0.01638
0.0163247
0.0162141
0.0161684
0.0160702
0.0160272
0.0159344
0.0158874
0.015793
0.0157351
0.0156318
0.0155556
0.0154356
0.015333
0.015188
0.0150503
0.0148709
0.0346499
0.0328768
0.0315607
0.0301774
0.0291675
0.0280723
0.0272901
0.0264142
0.0258057
0.0251005
0.024627
0.0240569
0.0236896
0.023228
0.022945
0.0225708
0.0223548
0.0220513
0.0218881
0.0216416
0.0215193
0.0213178
0.021226
0.0210591
0.0209883
0.0208464
0.0207878
0.0206619
0.0206069
0.020488
0.020428
0.020307
0.020233
0.0201008
0.0200033
0.0198499
0.0197187
0.0195332
0.0193571
0.0191277
0.0422657
0.0401037
0.0384991
0.0368125
0.0355814
0.0342462
0.0332929
0.0322252
0.0314837
0.0306242
0.0300473
0.0293526
0.0289052
0.0283427
0.0279982
0.0275423
0.0272794
0.0269099
0.0267113
0.0264111
0.0262625
0.0260172
0.0259057
0.0257026
0.0256168
0.0254442
0.0253732
0.0252201
0.0251535
0.0250089
0.0249362
0.0247892
0.0246994
0.0245387
0.0244204
0.0242339
0.0240745
0.023849
0.023635
0.0233561
0.0498736
0.0473225
0.0454291
0.043439
0.0419864
0.040411
0.0392863
0.0380265
0.0371516
0.0361375
0.0354568
0.0346373
0.0341095
0.0334458
0.0330393
0.0325015
0.0321914
0.0317554
0.0315212
0.031167
0.0309917
0.0307024
0.0305708
0.0303313
0.0302301
0.0300265
0.0299428
0.0297622
0.0296838
0.0295133
0.0294277
0.0292545
0.0291488
0.0289595
0.0288202
0.0286005
0.0284129
0.0281474
0.0278954
0.027567
0.0573907
0.0544556
0.0522775
0.049988
0.0483171
0.0465049
0.0452111
0.043762
0.0427559
0.0415895
0.0408067
0.0398641
0.0392573
0.0384941
0.0380268
0.0374085
0.037052
0.0365508
0.0362817
0.0358746
0.0356732
0.0353407
0.0351897
0.0349144
0.0347983
0.0345645
0.0344686
0.0342611
0.0341712
0.0339755
0.0338772
0.0336784
0.0335571
0.0333397
0.0331798
0.0329275
0.0327121
0.032407
0.0321177
0.0317404
0.0648837
0.0615653
0.0591028
0.0565144
0.0546253
0.0525764
0.0511138
0.0494755
0.048338
0.0470193
0.0461344
0.0450688
0.0443827
0.0435199
0.0429916
0.0422925
0.0418895
0.0413228
0.0410186
0.0405584
0.0403306
0.0399547
0.039784
0.0394729
0.0393416
0.0390772
0.0389688
0.0387343
0.0386327
0.0384115
0.0383005
0.0380758
0.0379389
0.0376933
0.0375127
0.0372277
0.0369845
0.0366401
0.0363133
0.0358874
0.0722697
0.0685741
0.0658317
0.0629492
0.0608456
0.058564
0.0569353
0.055111
0.0538445
0.0523761
0.0513909
0.0502044
0.0494407
0.0484801
0.047892
0.0471138
0.0466653
0.0460345
0.045696
0.0451837
0.0449304
0.044512
0.0443223
0.043976
0.0438301
0.0435359
0.0434155
0.0431546
0.0430417
0.0427957
0.0426724
0.0424224
0.0422702
0.041997
0.0417962
0.0414792
0.0412086
0.0408254
0.0404619
0.0399879
0.0796157
0.0755443
0.0725231
0.0693474
0.0670299
0.0645163
0.0627221
0.0607123
0.059317
0.0576993
0.0566139
0.0553068
0.0544654
0.0534071
0.0527592
0.0519018
0.0514076
0.0507126
0.0503397
0.0497753
0.0494962
0.0490353
0.0488262
0.0484447
0.0482839
0.0479598
0.0478271
0.0475397
0.0474154
0.0471443
0.0470086
0.0467333
0.0465657
0.0462648
0.0460438
0.0456947
0.0453969
0.0449751
0.0445749
0.0440532
0.086839
0.0823987
0.0791038
0.0756404
0.0731131
0.0703719
0.0684153
0.0662236
0.064702
0.062938
0.0617546
0.0603292
0.0594118
0.0582579
0.0575516
0.0566167
0.0560781
0.0553204
0.0549139
0.0542986
0.0539945
0.0534921
0.0532642
0.0528484
0.0526733
0.0523202
0.0521757
0.0518625
0.0517271
0.0514318
0.0512839
0.050984
0.0508014
0.0504736
0.0502327
0.0498523
0.0495278
0.049068
0.0486319
0.0480633
0.0940066
0.0891997
0.0856326
0.0818833
0.0791472
0.0761796
0.0740614
0.0716887
0.0700415
0.0681318
0.0668505
0.0653075
0.0643143
0.063065
0.0623003
0.0612882
0.060705
0.0598847
0.0594446
0.0587785
0.0584491
0.0579052
0.0576585
0.0572082
0.0570186
0.0566363
0.0564798
0.0561408
0.0559942
0.0556744
0.0555144
0.0551897
0.0549921
0.0546373
0.0543768
0.0539651
0.053614
0.0531165
0.0526446
0.0520295
0.101036
0.0958701
0.0920368
0.0880074
0.0850672
0.0818781
0.0796018
0.0770521
0.0752821
0.0732299
0.0718532
0.0701951
0.069128
0.0677856
0.0669641
0.0658766
0.0652501
0.0643687
0.063896
0.0631803
0.0628267
0.0622423
0.0619774
0.0614938
0.0612902
0.0608795
0.0607116
0.0603475
0.0601901
0.0598467
0.059675
0.0593263
0.0591142
0.0587331
0.0584532
0.0580111
0.057634
0.0570996
0.0565927
0.0559319
0.107995
0.102473
0.0983752
0.0940682
0.0909253
0.0875164
0.0850832
0.0823577
0.0804657
0.0782721
0.0768004
0.075028
0.0738873
0.0724523
0.0715741
0.0704116
0.0697418
0.0687997
0.0682942
0.0675292
0.0671511
0.0665264
0.0662431
0.0657261
0.0655084
0.0650694
0.0648898
0.0645006
0.0643324
0.0639653
0.0637817
0.063409
0.0631823
0.062775
0.062476
0.0620035
0.0616006
0.0610296
0.060488
0.059782
0.1148
0.108931
0.104575
0.0999972
0.0966566
0.0930332
0.0904471
0.0875502
0.0855393
0.0832077
0.0816437
0.0797598
0.0785475
0.0770225
0.0760892
0.0748538
0.074142
0.0731408
0.0726038
0.0717908
0.0713891
0.0707252
0.0704244
0.069875
0.0696439
0.0691774
0.0689867
0.0685732
0.0683946
0.0680046
0.0678096
0.0674137
0.0671729
0.0667402
0.0664225
0.0659205
0.0654924
0.0648857
0.0643103
0.06356
0.121521
0.115307
0.110696
0.10585
0.102314
0.098478
0.0957404
0.0926737
0.0905449
0.0880768
0.086421
0.0844268
0.0831433
0.0815289
0.0805408
0.0792329
0.0784794
0.0774194
0.0768508
0.0759902
0.0755648
0.074862
0.0745434
0.0739618
0.073717
0.0732232
0.0730212
0.0725834
0.0723943
0.0719814
0.071775
0.0713559
0.071101
0.070643
0.0703068
0.0697755
0.0693225
0.0686804
0.0680715
0.0672776
0.128073
0.121525
0.116666
0.111559
0.107832
0.10379
0.100905
0.097673
0.0954297
0.0928288
0.091084
0.0889825
0.0876302
0.085929
0.0848879
0.0835098
0.0827159
0.081599
0.081
0.0800931
0.0796451
0.0789046
0.0785691
0.0779563
0.0776986
0.0771783
0.0769657
0.0765044
0.0763053
0.0758704
0.0756531
0.0752115
0.0749431
0.0744607
0.0741065
0.0735468
0.0730695
0.0723931
0.0717516
0.0709151
0.134526
0.127647
0.122543
0.117178
0.113264
0.109018
0.105987
0.102592
0.100236
0.0975039
0.095671
0.0934635
0.0920429
0.0902558
0.0891621
0.0877144
0.0868803
0.085707
0.0850777
0.0841251
0.0836543
0.0828764
0.0825238
0.0818801
0.0816092
0.0810626
0.0808392
0.0803546
0.0801454
0.0796885
0.0794602
0.0789964
0.0787144
0.0782077
0.0778357
0.0772479
0.0767466
0.0760363
0.0753626
0.0744843
0.140797
0.133598
0.128256
0.122642
0.118545
0.114101
0.11093
0.107377
0.104911
0.102052
0.100134
0.0978237
0.0963371
0.094467
0.0933226
0.0918076
0.0909349
0.0897071
0.0890487
0.0880519
0.0875594
0.0867454
0.0863766
0.0857031
0.0854198
0.0848479
0.0846143
0.0841073
0.0838885
0.0834106
0.0831717
0.0826865
0.0823916
0.0818614
0.0814723
0.0808573
0.0803328
0.0795896
0.0788847
0.0779656
0.146955
0.139441
0.133865
0.128005
0.123728
0.11909
0.11578
0.112072
0.109497
0.106513
0.104511
0.1021
0.100548
0.0985958
0.0974011
0.0958197
0.0949087
0.0936271
0.0929397
0.0918991
0.091385
0.0905352
0.0901502
0.0894471
0.0891512
0.0885542
0.0883102
0.087781
0.0875526
0.0870537
0.0868043
0.0862978
0.08599
0.0854366
0.0850305
0.0843887
0.0838414
0.0830657
0.0823302
0.0813711
0.152917
0.145099
0.139298
0.1332
0.12875
0.123924
0.120479
0.116621
0.113943
0.110837
0.108754
0.106246
0.104631
0.1026
0.101357
0.0997118
0.098764
0.0974306
0.0967156
0.095633
0.0950981
0.0942141
0.0938137
0.0930822
0.0927746
0.0921535
0.0918998
0.0913493
0.0911118
0.0905928
0.0903335
0.0898066
0.0894865
0.0889108
0.0884884
0.0878207
0.0872514
0.0864444
0.0856792
0.0846814
0.158754
0.150637
0.144614
0.138283
0.133663
0.128652
0.125076
0.12107
0.11829
0.115066
0.112903
0.110298
0.108622
0.106513
0.105223
0.103514
0.10253
0.101146
0.100403
0.0992791
0.0987237
0.0978058
0.0973899
0.0966304
0.0963109
0.095666
0.0954025
0.0948309
0.0945842
0.0940453
0.093776
0.093229
0.0928966
0.092299
0.0918605
0.0911673
0.0905763
0.0897387
0.0889443
0.0879087
0.164383
0.155978
0.149742
0.143187
0.138404
0.133216
0.129513
0.125365
0.122486
0.119148
0.116909
0.114212
0.112476