/*--------------------------------*- C++ -*----------------------------------*\
| =========                 |                                                 |
| \\      /  F ield         | foam-extend: Open Source CFD                    |
|  \\    /   O peration     | Version:  3.0                                   |
|   \\  /    A nd           | Web:         http://www.extend-project.de       |
|    \\/     M anipulation  |                                                 |
\*---------------------------------------------------------------------------*/
FoamFile
{
    version     2.0;
    format      ascii;
    class       volSymmTensorField;
    location    "29";
    object      sigma;
}
// * * * * * * * * * * * * * * * * * * * * * * * * * * * * * * * * * * * * * //

dimensions      [0 0 0 0 0 0 0];

internalField   nonuniform List<symmTensor> 
7680
(
(-0.179241 -0.0027119 3.80177e-22 0.17924 -1.12162e-21 1.06018e-06)
(-0.178579 -0.00310913 6.14225e-22 0.178576 -2.29216e-21 3.00785e-06)
(-0.175841 -0.00336436 1.07118e-22 0.175836 -5.64775e-21 4.84235e-06)
(-0.171717 -0.00351689 -4.41057e-22 0.17171 -6.30798e-21 6.57719e-06)
(-0.166685 -0.00359466 -6.13919e-22 0.166677 -5.8584e-21 8.22273e-06)
(-0.161077 -0.00361783 -1.34232e-21 0.161068 -3.72152e-21 9.78694e-06)
(-0.155128 -0.00360107 -1.10647e-21 0.155117 -2.36404e-21 1.12759e-05)
(-0.149002 -0.00355519 -1.50999e-21 0.148989 -1.25107e-21 1.26939e-05)
(-0.142814 -0.00348819 -1.55631e-21 0.1428 1.15993e-21 1.40439e-05)
(-0.136647 -0.00340604 -7.82927e-22 0.136631 -2.90881e-22 1.53278e-05)
(-0.130556 -0.00331322 -9.87209e-22 0.13054 -2.46758e-21 1.65463e-05)
(-0.124583 -0.00321313 -9.41541e-22 0.124565 -3.2042e-21 1.76992e-05)
(-0.118753 -0.00310833 -1.67399e-21 0.118734 -3.01185e-21 1.87856e-05)
(-0.113084 -0.00300077 -3.73872e-21 0.113064 2.35689e-22 1.98037e-05)
(-0.107586 -0.00289194 -7.69429e-21 0.107566 2.40878e-21 2.07512e-05)
(-0.102268 -0.00278297 -8.39092e-21 0.102246 4.23866e-21 2.1625e-05)
(-0.0971313 -0.00267472 -8.72985e-21 0.0971089 7.66038e-21 2.24213e-05)
(-0.0921774 -0.00256788 -9.92555e-21 0.0921543 1.06314e-20 2.31358e-05)
(-0.0874058 -0.00246294 -1.34367e-20 0.087382 1.22246e-20 2.37637e-05)
(-0.0828148 -0.00236032 -1.63305e-20 0.0827905 1.30933e-20 2.42994e-05)
(-0.0784024 -0.0022603 -2.32034e-20 0.0783777 1.21854e-20 2.47369e-05)
(-0.0741664 -0.00216315 -2.44848e-20 0.0741413 1.30431e-20 2.50695e-05)
(-0.0701043 -0.00206905 -2.50544e-20 0.070079 1.52936e-20 2.529e-05)
(-0.0662141 -0.00197817 -2.44286e-20 0.0661887 1.7562e-20 2.53905e-05)
(-0.0624939 -0.00189064 -2.41799e-20 0.0624685 1.84749e-20 2.53627e-05)
(-0.0589423 -0.00180659 -2.38255e-20 0.0589171 2.27858e-20 2.51973e-05)
(-0.0555583 -0.00172615 -2.16608e-20 0.0555334 2.58725e-20 2.48849e-05)
(-0.0523416 -0.00164943 -1.72721e-20 0.0523172 2.49941e-20 2.44151e-05)
(-0.0492924 -0.00157655 -1.7927e-20 0.0492687 2.11528e-20 2.37771e-05)
(-0.0464117 -0.00150764 -2.02878e-20 0.0463887 1.70982e-20 2.29592e-05)
(-0.0437009 -0.00144287 -1.97731e-20 0.043679 1.39272e-20 2.19493e-05)
(-0.0411625 -0.00138238 -1.40249e-20 0.0411418 1.09956e-20 2.07342e-05)
(-0.0387996 -0.00132637 -5.59276e-21 0.0387803 7.58632e-21 1.93007e-05)
(-0.0366162 -0.00127503 -2.39205e-21 0.0365985 8.73882e-21 1.76342e-05)
(-0.0346169 -0.00122861 -1.12981e-20 0.0346012 9.23046e-21 1.572e-05)
(-0.0328077 -0.00118737 -1.69774e-20 0.0327941 8.00211e-21 1.3542e-05)
(-0.031195 -0.00115155 -1.66212e-20 0.0311839 3.26447e-21 1.10841e-05)
(-0.0297865 -0.00112142 -6.22892e-21 0.0297782 3.61751e-21 8.32875e-06)
(-0.0285906 -0.00109705 -3.68119e-21 0.0285853 9.42087e-22 5.25827e-06)
(-0.0276163 -0.00107795 -8.34187e-22 0.0276144 -1.49962e-21 1.85363e-06)
(-0.179106 -0.0081166 1.08127e-21 0.179105 -1.67864e-21 1.05681e-06)
(-0.178335 -0.00932991 1.51286e-21 0.178332 -2.90801e-21 2.99843e-06)
(-0.175519 -0.0101153 6.97037e-22 0.175514 -6.01983e-21 4.82719e-06)
(-0.17134 -0.0105911 1.0305e-21 0.171334 -6.16657e-21 6.55653e-06)
(-0.166269 -0.0108418 1.94032e-21 0.166261 -6.28242e-21 8.19683e-06)
(-0.160636 -0.0109281 1.73588e-21 0.160626 -3.66999e-21 9.756e-06)
(-0.15467 -0.0108941 1.42776e-21 0.154659 -2.35355e-21 1.12401e-05)
(-0.148534 -0.0107724 1.26407e-21 0.148521 -2.14516e-22 1.26534e-05)
(-0.142342 -0.0105871 9.70957e-22 0.142328 3.24179e-21 1.39989e-05)
(-0.136175 -0.0103563 -1.00469e-21 0.136159 1.08786e-21 1.52784e-05)
(-0.130087 -0.0100934 -1.62485e-21 0.130071 -2.00686e-21 1.64927e-05)
(-0.124119 -0.00980869 -8.2252e-22 0.124101 -2.04099e-21 1.76415e-05)
(-0.118296 -0.00950991 -7.72447e-22 0.118277 -2.09131e-22 1.8724e-05)
(-0.112635 -0.00920294 -2.32292e-21 0.112615 3.20003e-21 1.97384e-05)
(-0.107147 -0.00889229 -6.05816e-21 0.107126 7.48699e-21 2.06824e-05)
(-0.101838 -0.0085814 -6.62569e-21 0.101816 1.03011e-20 2.15527e-05)
(-0.0967109 -0.0082729 -6.53553e-21 0.0966885 1.52314e-20 2.23459e-05)
(-0.0917671 -0.00796882 -5.85242e-21 0.091744 1.38594e-20 2.30575e-05)
(-0.0870056 -0.00767071 -9.77379e-21 0.0869819 1.5362e-20 2.36828e-05)
(-0.0824247 -0.00737979 -1.57757e-20 0.0824004 1.3639e-20 2.42161e-05)
(-0.0780222 -0.00709699 -2.33962e-20 0.0779976 1.39051e-20 2.46516e-05)
(-0.0737959 -0.00682305 -2.30062e-20 0.0737709 1.48005e-20 2.49824e-05)
(-0.0697433 -0.00655855 -2.15583e-20 0.0697181 1.7919e-20 2.52016e-05)
(-0.0658622 -0.00630398 -2.10312e-20 0.0658369 1.91953e-20 2.53011e-05)
(-0.0621507 -0.00605973 -2.45135e-20 0.0621255 2.57595e-20 2.52728e-05)
(-0.0586075 -0.00582618 -1.66502e-20 0.0585824 3.07644e-20 2.51075e-05)
(-0.0552315 -0.00560363 -1.51775e-20 0.0552067 3.43364e-20 2.47956e-05)
(-0.0520223 -0.00539242 -1.59926e-20 0.051998 2.95894e-20 2.4327e-05)
(-0.0489801 -0.00519285 -1.97227e-20 0.0489564 2.54916e-20 2.36908e-05)
(-0.0461059 -0.00500527 -2.12477e-20 0.046083 2.25293e-20 2.28754e-05)
(-0.0434011 -0.00483003 -2.1724e-20 0.0433793 2.1593e-20 2.18687e-05)
(-0.0408682 -0.00466753 -2.1513e-20 0.0408476 2.03303e-20 2.06578e-05)
(-0.0385102 -0.0045182 -1.10993e-20 0.038491 1.18027e-20 1.92292e-05)
(-0.0363311 -0.00438253 2.33562e-21 0.0363135 4.3505e-21 1.75687e-05)
(-0.0343356 -0.00426107 -6.41263e-21 0.03432 1.0997e-20 1.56614e-05)
(-0.0325295 -0.00415443 -1.41778e-20 0.032516 1.26766e-20 1.34914e-05)
(-0.0309193 -0.00406327 -2.06834e-20 0.0309083 1.22503e-20 1.10426e-05)
(-0.0295126 -0.00398836 -6.70864e-21 0.0295043 1.31224e-20 8.29753e-06)
(-0.0283178 -0.00393045 -7.64303e-21 0.0283126 8.12666e-21 5.23857e-06)
(-0.0273439 -0.00389019 -4.90948e-21 0.027342 3.52837e-21 1.84669e-06)
(-0.178839 -0.0135211 1.72685e-21 0.178838 -2.30047e-21 1.05243e-06)
(-0.177851 -0.0155331 2.41703e-21 0.177848 -4.26235e-21 2.98599e-06)
(-0.17488 -0.0168358 1.23452e-21 0.174875 -5.73809e-21 4.80719e-06)
(-0.17059 -0.0176257 2.83808e-21 0.170583 -6.73432e-21 6.52938e-06)
(-0.165442 -0.0180426 3.03327e-21 0.165434 -5.88819e-21 8.16284e-06)
(-0.159756 -0.018187 4.16057e-21 0.159747 -3.77583e-21 9.71546e-06)
(-0.153757 -0.0181324 3.68104e-21 0.153746 -2.76384e-21 1.11932e-05)
(-0.147602 -0.0179327 5.09379e-21 0.14759 -5.80713e-22 1.26005e-05)
(-0.141402 -0.0176278 5.92585e-21 0.141388 1.36673e-21 1.39401e-05)
(-0.135234 -0.0172475 -3.59803e-22 0.135219 -1.83754e-22 1.5214e-05)
(-0.129152 -0.0168143 -3.49094e-21 0.129136 -9.29502e-22 1.64228e-05)
(-0.123194 -0.0163451 2.25515e-22 0.123177 -4.83108e-22 1.75665e-05)
(-0.117384 -0.0158527 3.48255e-21 0.117366 1.32729e-21 1.8644e-05)
(-0.111739 -0.0153469 1.32192e-21 0.11172 8.21303e-21 1.96537e-05)
(-0.106269 -0.0148352 -4.18105e-21 0.106248 1.75337e-20 2.05932e-05)
(-0.100979 -0.0143233 -5.11177e-21 0.100957 2.06587e-20 2.14594e-05)
(-0.0958717 -0.0138155 6.02699e-22 0.0958495 2.0532e-20 2.22486e-05)
(-0.0909479 -0.0133152 -9.90852e-21 0.090925 1.82421e-20 2.29566e-05)
(-0.0862065 -0.012825 -6.17613e-21 0.0861829 1.40009e-20 2.35786e-05)
(-0.0816456 -0.0123468 -1.75834e-20 0.0816215 1.60982e-20 2.41091e-05)
(-0.0772629 -0.0118823 -2.12816e-20 0.0772383 1.6428e-20 2.4542e-05)
(-0.0730558 -0.0114326 -2.28298e-20 0.0730309 1.99269e-20 2.48709e-05)
(-0.0690219 -0.0109987 -1.966e-20 0.0689968 2.3286e-20 2.50885e-05)
(-0.0651589 -0.0105815 -2.23609e-20 0.0651337 2.9009e-20 2.5187e-05)
(-0.0614647 -0.0101815 -1.10678e-20 0.0614396 3.67733e-20 2.51582e-05)
(-0.0579381 -0.00979932 -1.16947e-20 0.0579131 4.25663e-20 2.49931e-05)
(-0.0545777 -0.00943554 -1.20735e-20 0.054553 4.52508e-20 2.46822e-05)
(-0.0513833 -0.00909065 -2.14595e-20 0.0513591 3.93251e-20 2.42152e-05)
(-0.048355 -0.00876515 -2.02829e-20 0.0483314 3.34266e-20 2.35814e-05)
(-0.0454936 -0.00845959 -1.97297e-20 0.0454708 3.00277e-20 2.27693e-05)
(-0.0428007 -0.00817452 -1.57227e-20 0.0427789 3.09528e-20 2.17669e-05)
(-0.0402785 -0.00791058 -1.74705e-20 0.0402579 3.64086e-20 2.05613e-05)
(-0.0379301 -0.00766843 -2.4809e-20 0.037911 2.66292e-20 1.91392e-05)
(-0.0357594 -0.00744887 -1.1991e-20 0.0357419 8.37033e-21 1.74861e-05)
(-0.0337711 -0.00725271 1.31636e-21 0.0337555 2.1292e-20 1.55876e-05)
(-0.0319709 -0.00708095 -9.62742e-21 0.0319575 2.11321e-20 1.34277e-05)
(-0.0303653 -0.00693465 -1.21751e-20 0.0303543 2.3063e-20 1.09904e-05)
(-0.0289619 -0.00681506 -2.25124e-21 0.0289536 2.39469e-20 8.25828e-06)
(-0.0277687 -0.00672363 -5.61084e-21 0.0277635 1.19503e-20 5.21379e-06)
(-0.0267948 -0.00666213 -1.1834e-21 0.0267929 3.8731e-21 1.83797e-06)
(-0.178439 -0.0189256 2.39455e-21 0.178438 -3.12098e-21 1.04697e-06)
(-0.177128 -0.0217073 3.98856e-21 0.177126 -6.08888e-21 2.97044e-06)
(-0.173925 -0.0235062 2.42538e-21 0.17392 -5.36292e-21 4.78217e-06)
(-0.169471 -0.0245946 3.69136e-21 0.169465 -7.00752e-21 6.49536e-06)
(-0.164209 -0.0251664 4.78111e-21 0.1642 -3.62752e-21 8.12028e-06)
(-0.158445 -0.0253611 6.22322e-21 0.158436 -3.72928e-21 9.66472e-06)
(-0.152397 -0.0252804 5.10341e-21 0.152386 -2.85636e-21 1.11347e-05)
(-0.146213 -0.0249988 6.08304e-21 0.1462 -6.61399e-22 1.25344e-05)
(-0.14 -0.0245718 4.8605e-21 0.139986 3.17215e-22 1.38668e-05)
(-0.133832 -0.0240408 -2.84533e-21 0.133816 1.68047e-21 1.51337e-05)
(-0.127758 -0.0234368 -3.90014e-21 0.127742 3.20146e-21 1.6336e-05)
(-0.121815 -0.0227833 -6.48386e-22 0.121798 2.78373e-21 1.74733e-05)
(-0.116026 -0.022098 5.19738e-21 0.116007 2.35355e-21 1.85448e-05)
(-0.110405 -0.0213944 1.10531e-20 0.110385 1.22468e-20 1.95487e-05)
(-0.104961 -0.020683 1.17899e-20 0.10494 2.21271e-20 2.04828e-05)
(-0.0996988 -0.0199715 2.73147e-21 0.0996774 2.53551e-20 2.13439e-05)
(-0.0946208 -0.019266 4.20028e-21 0.0945987 1.52826e-20 2.21285e-05)
(-0.0897268 -0.0185711 -5.49349e-21 0.089704 1.90304e-20 2.28322e-05)
(-0.0850153 -0.0178905 -1.53235e-20 0.0849919 1.76845e-20 2.34504e-05)
(-0.0804842 -0.0172269 -1.22175e-20 0.0804602 2.1279e-20 2.39774e-05)
(-0.0761308 -0.0165824 -2.37165e-20 0.0761064 2.43067e-20 2.44075e-05)
(-0.0719524 -0.0159586 -1.81982e-20 0.0719277 2.8988e-20 2.47341e-05)
(-0.0679463 -0.0153571 -1.42009e-20 0.0679214 3.18167e-20 2.495e-05)
(-0.0641102 -0.0147787 -4.97573e-21 0.0640852 3.55751e-20 2.50475e-05)
(-0.0604419 -0.0142245 -4.66715e-22 0.0604169 3.95792e-20 2.50183e-05)
(-0.0569399 -0.0136953 7.06916e-21 0.056915 4.49375e-20 2.48537e-05)
(-0.0536029 -0.0131917 1.29976e-21 0.0535783 4.95561e-20 2.4544e-05)
(-0.0504305 -0.0127145 -1.71886e-20 0.0504064 4.81891e-20 2.40792e-05)
(-0.0474228 -0.0122643 -2.2758e-20 0.0473993 4.26582e-20 2.34486e-05)
(-0.0445805 -0.0118419 -2.28958e-20 0.0445578 4.4531e-20 2.26407e-05)
(-0.0419051 -0.011448 -8.15551e-21 0.0418834 3.92036e-20 2.16437e-05)
(-0.0393988 -0.0110835 4.60828e-21 0.0393784 3.46687e-20 2.04446e-05)
(-0.0370646 -0.0107494 -2.5067e-20 0.0370456 3.66968e-20 1.90303e-05)
(-0.0349064 -0.0104466 -2.86875e-20 0.034889 2.9852e-20 1.73865e-05)
(-0.0329287 -0.0101763 1.95062e-20 0.0329132 3.4305e-20 1.54986e-05)
(-0.0311373 -0.00993987 -1.72947e-21 0.0311239 2.60717e-20 1.33509e-05)
(-0.0295384 -0.0097387 -3.59746e-21 0.0295274 2.44961e-20 1.09275e-05)
(-0.0281394 -0.00957457 5.44229e-21 0.0281312 1.9495e-20 8.21098e-06)
(-0.0269485 -0.00944959 -1.57944e-20 0.0269434 6.78235e-22 5.18391e-06)
(-0.0259743 -0.00936664 -6.34034e-21 0.0259724 -6.95758e-21 1.82743e-06)
(-0.177905 -0.0243298 2.5872e-21 0.177904 -2.96773e-21 1.0404e-06)
(-0.176169 -0.0278412 4.66812e-21 0.176166 -4.8067e-21 2.95179e-06)
(-0.172661 -0.0301069 4.60615e-21 0.172656 -6.27046e-21 4.75214e-06)
(-0.16799 -0.0314724 2.59586e-21 0.167984 -1.11705e-21 6.45457e-06)
(-0.162577 -0.0321836 6.54683e-21 0.162569 2.05071e-23 8.06925e-06)
(-0.156712 -0.0324174 6.73252e-21 0.156702 -3.59912e-21 9.60393e-06)
(-0.150598 -0.0323027 6.51669e-21 0.150587 -2.32678e-21 1.10645e-05)
(-0.144377 -0.0319341 8.4541e-21 0.144364 3.45876e-22 1.24553e-05)
(-0.138148 -0.0313819 7.08284e-21 0.138134 2.97961e-21 1.37791e-05)
(-0.131978 -0.0306984 -1.36461e-21 0.131963 8.61143e-21 1.50378e-05)
(-0.125917 -0.029923 -3.91336e-21 0.1259 9.88448e-21 1.62322e-05)
(-0.119994 -0.0290854 -4.11752e-21 0.119977 1.01264e-20 1.7362e-05)
(-0.114231 -0.028208 3.75453e-21 0.114213 6.55718e-21 1.84264e-05)
(-0.108642 -0.0273081 2.25014e-20 0.108622 9.83295e-21 1.94236e-05)
(-0.103233 -0.0263986 2.17821e-20 0.103212 1.59562e-20 2.03513e-05)
(-0.0980079 -0.0254895 1.09702e-20 0.0979867 1.55539e-20 2.12066e-05)
(-0.0929686 -0.0245885 -6.23754e-21 0.0929466 1.05216e-20 2.19857e-05)
(-0.088114 -0.0237014 5.99974e-22 0.0880913 1.74728e-20 2.26845e-05)
(-0.0834421 -0.0228328 -5.35245e-21 0.0834189 2.15443e-20 2.32982e-05)
(-0.0789504 -0.0219861 -7.9986e-21 0.0789266 2.56952e-20 2.38214e-05)
(-0.0746358 -0.021164 -1.8947e-20 0.0746115 3.86761e-20 2.42483e-05)
(-0.0704953 -0.0203687 -1.54897e-20 0.0704707 4.00594e-20 2.45723e-05)
(-0.0665261 -0.0196017 -3.97503e-21 0.0665013 2.92131e-20 2.47863e-05)
(-0.0627255 -0.0188646 -3.10779e-21 0.0627006 3.06182e-20 2.48827e-05)
(-0.0590913 -0.0181584 1.32616e-21 0.0590665 4.40779e-20 2.48534e-05)
(-0.0556218 -0.0174841 9.80798e-21 0.0555971 4.40652e-20 2.46894e-05)
(-0.0523157 -0.0168426 1.85382e-20 0.0522913 3.99092e-20 2.43814e-05)
(-0.0491724 -0.0162349 -5.49005e-21 0.0491485 4.68359e-20 2.39193e-05)
(-0.0461919 -0.0156617 -1.47784e-20 0.0461686 4.73474e-20 2.32926e-05)
(-0.0433748 -0.015124 -3.5255e-22 0.0433523 4.19798e-20 2.24898e-05)
(-0.0407226 -0.0146228 -4.15693e-22 0.0407011 1.89894e-20 2.14991e-05)
(-0.0382373 -0.0141591 6.62893e-21 0.038217 6.97039e-21 2.03078e-05)
(-0.0359219 -0.013734 8.17525e-21 0.035903 1.56728e-20 1.89028e-05)
(-0.0337801 -0.013349 -5.0673e-21 0.0337628 2.53966e-20 1.72699e-05)
(-0.0318164 -0.0130053 2.81702e-20 0.0318011 1.76683e-20 1.53945e-05)
(-0.0300364 -0.0127047 1.04089e-20 0.0300232 -7.25292e-21 1.32612e-05)
(-0.0284463 -0.0124491 1.33847e-20 0.0284354 -1.51512e-20 1.0854e-05)
(-0.0270533 -0.0122406 6.3015e-21 0.0270451 -1.77305e-20 8.15571e-06)
(-0.0258652 -0.012082 -3.2639e-20 0.0258601 -2.31064e-20 5.149e-06)
(-0.0248903 -0.0119772 -1.76139e-20 0.0248885 -1.181e-20 1.81512e-06)
(-0.177236 -0.0297335 3.19162e-21 0.177235 -1.76596e-21 1.03276e-06)
(-0.174976 -0.0339237 4.55285e-21 0.174973 -1.26254e-22 2.93008e-06)
(-0.171093 -0.0366189 4.94285e-21 0.171088 -1.50945e-21 4.71718e-06)
(-0.166156 -0.0382344 7.913e-21 0.16615 2.99245e-21 6.40705e-06)
(-0.160557 -0.0390652 5.70746e-21 0.160549 3.89051e-21 8.00982e-06)
(-0.154567 -0.0393241 1.26963e-21 0.154558 3.42198e-21 9.53313e-06)
(-0.148374 -0.0391655 5.29169e-21 0.148363 2.41535e-21 1.09829e-05)
(-0.142107 -0.0387033 1.07386e-20 0.142095 1.58576e-21 1.23632e-05)
(-0.135858 -0.0380217 1.3786e-20 0.135844 2.66363e-21 1.36772e-05)
(-0.129689 -0.0371835 5.50974e-21 0.129674 1.30046e-20 1.49264e-05)
(-0.123641 -0.0362359 -3.31951e-21 0.123625 1.75864e-20 1.61117e-05)
(-0.117744 -0.0352145 -3.75425e-21 0.117727 1.76752e-20 1.72328e-05)
(-0.112015 -0.0341462 -1.97132e-21 0.111996 1.19279e-20 1.8289e-05)
(-0.106464 -0.0330516 1.99325e-20 0.106445 6.07361e-21 1.92785e-05)
(-0.101099 -0.0319463 3.14918e-20 0.101078 2.83433e-21 2.0199e-05)
(-0.0959201 -0.0308423 1.35382e-20 0.0958991 1.19972e-21 2.10475e-05)
(-0.0909288 -0.0297485 -6.75563e-22 0.090907 9.47214e-21 2.18205e-05)
(-0.086123 -0.0286722 1.18209e-20 0.0861005 1.08217e-20 2.25137e-05)
(-0.0815002 -0.0276186 6.76061e-21 0.0814771 1.0677e-20 2.31224e-05)
(-0.0770572 -0.0265919 1.24263e-20 0.0770335 1.71827e-20 2.36413e-05)
(-0.0727906 -0.0255953 1.49987e-20 0.0727665 3.03617e-20 2.40646e-05)
(-0.068697 -0.0246314 1.35197e-21 0.0686727 2.57384e-20 2.43857e-05)
(-0.0647734 -0.023702 -1.93559e-20 0.0647488 1.91926e-20 2.45977e-05)
(-0.0610168 -0.0228089 6.67e-21 0.0609922 2.61077e-20 2.4693e-05)
(-0.0574249 -0.0219534 3.7079e-20 0.0574002 3.20439e-20 2.46636e-05)
(-0.0539957 -0.0211368 2.0063e-20 0.0539712 3.29259e-20 2.45005e-05)
(-0.0507278 -0.0203599 2.23021e-20 0.0507036 1.77028e-20 2.41946e-05)
(-0.0476204 -0.019624 2.15532e-20 0.0475967 3.029e-20 2.37357e-05)
(-0.0446735 -0.01893 -3.86263e-21 0.0446504 3.80995e-20 2.31136e-05)
(-0.0418877 -0.018279 -1.58467e-20 0.0418653 1.97874e-20 2.23167e-05)
(-0.0392641 -0.0176722 -3.16509e-20 0.0392427 -1.08877e-20 2.13335e-05)
(-0.0368048 -0.0171108 -9.40821e-21 0.0367846 -9.46033e-21 2.01512e-05)
(-0.0345126 -0.0165963 1.2168e-20 0.0344938 -1.3454e-20 1.87568e-05)
(-0.0323911 -0.0161301 6.73932e-21 0.032374 -4.92606e-21 1.71364e-05)
(-0.0304447 -0.015714 2.54558e-20 0.0304295 -3.13676e-20 1.52755e-05)
(-0.0286788 -0.01535 -3.32031e-20 0.0286657 -4.56955e-20 1.31586e-05)
(-0.0270995 -0.0150403 -1.9062e-20 0.0270887 -4.65036e-20 1.07699e-05)
(-0.0257138 -0.0147876 3.74931e-21 0.0257057 -5.41693e-20 8.09252e-06)
(-0.0245292 -0.0145953 -2.65942e-20 0.0245241 -5.03337e-20 5.10907e-06)
(-0.0235534 -0.0144683 -1.49616e-20 0.0235516 -8.59857e-21 1.80103e-06)
(-0.176429 -0.0351362 4.58275e-21 0.176427 -1.23765e-22 1.02404e-06)
(-0.173553 -0.0399441 7.917e-21 0.17355 -3.26017e-22 2.90533e-06)
(-0.169229 -0.043024 6.5447e-21 0.169224 2.07713e-21 4.67732e-06)
(-0.163979 -0.0448566 9.0716e-21 0.163973 6.41763e-21 6.35289e-06)
(-0.158163 -0.0457834 9.25514e-21 0.158155 5.52707e-21 7.94207e-06)
(-0.152027 -0.0460503 6.46589e-21 0.152017 4.92801e-21 9.45245e-06)
(-0.14574 -0.0458362 6.74777e-21 0.145729 2.71375e-21 1.08899e-05)
(-0.139421 -0.0452725 8.39773e-21 0.139409 2.99621e-21 1.22584e-05)
(-0.133149 -0.0444565 1.45498e-20 0.133136 3.38819e-21 1.35611e-05)
(-0.12698 -0.0434609 1.99658e-20 0.126965 9.18333e-21 1.47995e-05)
(-0.12095 -0.0423401 1.20997e-20 0.120934 1.20986e-20 1.59745e-05)
(-0.115083 -0.0411353 2.06081e-21 0.115066 1.54067e-20 1.70859e-05)
(-0.109394 -0.0398775 -8.31448e-21 0.109376 1.59693e-20 1.81329e-05)
(-0.10389 -0.0385904 6.51032e-21 0.103871 9.39844e-21 1.91137e-05)
(-0.0985763 -0.037292 2.41475e-20 0.0985562 -8.1899e-21 2.0026e-05)
(-0.0934527 -0.035996 1.66233e-20 0.0934318 -8.68202e-21 2.0867e-05)
(-0.0885183 -0.034713 1.66396e-20 0.0884967 -4.96206e-21 2.1633e-05)
(-0.0837705 -0.0334509 1.57793e-20 0.0837482 -7.768e-21 2.23199e-05)
(-0.0792059 -0.032216 1.5198e-20 0.0791829 -1.6563e-20 2.29231e-05)
(-0.0748207 -0.031013 2.48627e-20 0.0747972 -9.49396e-21 2.34372e-05)
(-0.070611 -0.0298456 2.61806e-20 0.0705871 9.49666e-22 2.38565e-05)
(-0.0665731 -0.0287167 -2.01584e-21 0.066549 2.93667e-21 2.41745e-05)
(-0.0627036 -0.0276285 -1.51809e-20 0.0626792 1.75329e-20 2.43844e-05)
(-0.0589992 -0.0265829 9.28511e-21 0.0589747 1.58069e-20 2.44786e-05)
(-0.0554573 -0.0255815 3.34271e-20 0.0554328 3.27885e-21 2.44492e-05)
(-0.0520758 -0.0246255 3.46511e-20 0.0520515 7.44696e-23 2.42872e-05)
(-0.0488532 -0.0237163 1.51694e-20 0.0488292 -1.0366e-20 2.39837e-05)
(-0.0457885 -0.022855 4.4998e-20 0.045765 5.45564e-22 2.35287e-05)
(-0.0428815 -0.0220428 4.38067e-21 0.0428586 3.68888e-20 2.29117e-05)
(-0.0401326 -0.0212809 -3.9211e-20 0.0401105 2.30503e-20 2.21217e-05)
(-0.037543 -0.0205707 -8.53668e-20 0.0375218 2.15646e-20 2.11469e-05)
(-0.0351145 -0.0199136 -2.46826e-20 0.0350945 1.36213e-20 1.99748e-05)
(-0.0328498 -0.0193112 -1.29712e-20 0.0328312 -6.31384e-21 1.85926e-05)
(-0.0307524 -0.0187653 -2.30893e-20 0.0307355 6.48268e-21 1.69862e-05)
(-0.0288266 -0.0182779 -3.94848e-20 0.0288115 -2.5094e-20 1.51416e-05)
(-0.0270775 -0.0178514 -4.15591e-20 0.0270644 -2.87052e-20 1.30432e-05)
(-0.025511 -0.0174882 -4.09963e-20 0.0255003 -2.46796e-20 1.06754e-05)
(-0.0241339 -0.0171915 -5.00782e-20 0.0241259 -3.64956e-20 8.02149e-06)
(-0.0229534 -0.0169653 -5.61432e-20 0.0229484 -2.69831e-20 5.0642e-06)
(-0.0219766 -0.0168155 4.91435e-21 0.0219748 7.23457e-21 1.78519e-06)
(-0.175481 -0.0405371 4.8314e-21 0.17548 1.74526e-21 1.01426e-06)
(-0.171905 -0.0458918 9.76424e-21 0.171902 -7.37063e-22 2.87757e-06)
(-0.167078 -0.0493046 1.00846e-20 0.167074 2.72827e-21 4.63261e-06)
(-0.161473 -0.0513164 1.36032e-20 0.161467 5.01421e-21 6.29214e-06)
(-0.15541 -0.0523118 1.21783e-20 0.155402 1.8979e-22 7.86609e-06)
(-0.149108 -0.0525671 7.00067e-21 0.149098 -1.23852e-22 9.36198e-06)
(-0.142716 -0.0522837 4.39286e-21 0.142705 2.80879e-21 1.07856e-05)
(-0.136337 -0.0516093 1.02952e-20 0.136325 3.06492e-21 1.21409e-05)
(-0.130041 -0.0506533 1.44963e-20 0.130028 5.16846e-21 1.3431e-05)
(-0.123873 -0.0494972 1.99386e-20 0.123859 4.80924e-21 1.46574e-05)
(-0.117864 -0.0482022 6.46238e-21 0.117849 1.11197e-20 1.58209e-05)
(-0.112033 -0.0468144 8.29075e-21 0.112016 1.12169e-20 1.69215e-05)
(-0.10639 -0.0453687 -4.34358e-21 0.106372 1.74428e-20 1.79582e-05)
(-0.10094 -0.0438916 2.47799e-21 0.100921 9.52522e-21 1.89293e-05)
(-0.095686 -0.0424032 2.69615e-21 0.0956662 -7.80268e-21 1.98326e-05)
(-0.0906258 -0.0409189 8.85691e-21 0.0906052 -9.37434e-21 2.06652e-05)
(-0.0857571 -0.0394505 2.59532e-21 0.0857357 -1.21251e-20 2.14235e-05)
(-0.081076 -0.0380068 6.19857e-21 0.0810539 -2.06581e-20 2.21036e-05)
(-0.0765784 -0.0365949 -1.27758e-20 0.0765557 -2.65359e-20 2.27006e-05)
(-0.0722598 -0.0352199 1.46301e-20 0.0722366 -1.7363e-20 2.32095e-05)
(-0.0681157 -0.0338859 3.27138e-20 0.0680921 -1.24571e-20 2.36244e-05)
(-0.0641419 -0.0325963 1.04102e-20 0.0641179 -4.18173e-21 2.39391e-05)
(-0.0603345 -0.0313534 4.59467e-21 0.0603103 1.11036e-20 2.41467e-05)
(-0.0566901 -0.0301593 -8.14708e-21 0.0566659 1.1098e-20 2.42398e-05)
(-0.0532058 -0.0290157 7.27003e-21 0.0531816 -5.38294e-21 2.42104e-05)
(-0.0498793 -0.0279242 2.08432e-20 0.0498552 -2.38966e-20 2.40498e-05)
(-0.0467087 -0.0268861 -8.88409e-21 0.046685 -1.11158e-20 2.37491e-05)
(-0.0436931 -0.0259027 4.1505e-20 0.0436698 1.95002e-21 2.32984e-05)
(-0.040832 -0.0249752 8.30576e-20 0.0408093 2.42291e-20 2.26873e-05)
(-0.0381257 -0.0241052 5.15872e-22 0.0381038 9.31968e-21 2.19049e-05)
(-0.0355751 -0.0232941 -3.46337e-20 0.0355542 3.39692e-20 2.09395e-05)
(-0.0331821 -0.0225435 -4.57629e-20 0.0331624 2.9235e-20 1.97789e-05)
(-0.0309491 -0.0218552 -3.54134e-20 0.0309307 2.56541e-20 1.84102e-05)
(-0.0288795 -0.0212313 1.64815e-20 0.0288627 2.081e-20 1.68195e-05)
(-0.0269773 -0.0206739 -5.41731e-20 0.0269623 1.25874e-20 1.49929e-05)
(-0.0252475 -0.0201857 -7.05364e-20 0.0252346 1.50566e-20 1.29151e-05)
(-0.0236958 -0.0197697 -5.61604e-20 0.0236852 3.09207e-20 1.05706e-05)
(-0.0223288 -0.0194293 -5.13432e-20 0.0223208 1.58346e-20 7.94266e-06)
(-0.0211531 -0.019169 -3.27244e-20 0.0211481 -6.65734e-22 5.0144e-06)
(-0.0201751 -0.0189957 1.14543e-20 0.0201733 1.06573e-20 1.76761e-06)
(-0.174391 -0.0459349 3.88604e-21 0.17439 4.35037e-21 1.00343e-06)
(-0.170035 -0.0517567 9.90976e-21 0.170032 1.0579e-21 2.84682e-06)
(-0.164651 -0.0554439 1.28874e-20 0.164647 1.00432e-21 4.5831e-06)
(-0.158652 -0.0575924 1.53274e-20 0.158646 9.51734e-23 6.22488e-06)
(-0.152315 -0.0586253 7.39537e-21 0.152308 1.11969e-21 7.78197e-06)
(-0.14583 -0.0588471 3.48694e-21 0.145821 4.29633e-21 9.26183e-06)
(-0.139323 -0.058479 7.42309e-21 0.139312 2.46301e-21 1.06701e-05)
(-0.132879 -0.0576836 9.61475e-21 0.132867 2.28441e-21 1.20109e-05)
(-0.126557 -0.0565812 1.39837e-20 0.126543 7.42985e-21 1.3287e-05)
(-0.120392 -0.0552611 1.7459e-20 0.120377 1.09695e-20 1.45002e-05)
(-0.114407 -0.0537908 6.84047e-21 0.114392 2.38398e-20 1.56511e-05)
(-0.108617 -0.0522206 -3.72288e-21 0.1086 2.36845e-20 1.67397e-05)
(-0.103026 -0.0505888 -6.47035e-21 0.103009 2.34251e-20 1.77651e-05)
(-0.0976382 -0.0489246 -1.62003e-20 0.0976195 1.83864e-20 1.87255e-05)
(-0.0924513 -0.0472498 -1.62467e-20 0.0924317 7.0939e-21 1.96189e-05)
(-0.0874626 -0.0455812 5.98986e-21 0.0874422 -3.94739e-21 2.04423e-05)
(-0.0826679 -0.0439318 -4.98134e-21 0.0826467 -4.65887e-21 2.11923e-05)
(-0.078062 -0.0423112 -5.49819e-21 0.0780402 -1.96318e-20 2.18648e-05)
(-0.0736399 -0.040727 -2.34023e-20 0.0736175 -1.02318e-20 2.24552e-05)
(-0.0693962 -0.0391849 1.05372e-21 0.0693733 2.15386e-21 2.29583e-05)
(-0.0653259 -0.0376893 1.82105e-20 0.0653025 -1.71386e-21 2.33686e-05)
(-0.0614241 -0.0362437 8.90756e-21 0.0614004 2.20729e-21 2.36796e-05)
(-0.0576867 -0.0348507 1.98927e-20 0.0576628 2.8084e-22 2.38848e-05)
(-0.0541098 -0.0335127 3.58092e-21 0.0540859 7.35891e-21 2.39767e-05)
(-0.0506903 -0.0322314 -1.79848e-20 0.0506664 1.55612e-21 2.39474e-05)
(-0.0474255 -0.0310085 -5.15102e-21 0.0474017 -1.93858e-20 2.37885e-05)
(-0.0443136 -0.0298453 -5.52461e-23 0.0442901 1.79968e-20 2.34909e-05)
(-0.0413532 -0.0287435 1.51499e-20 0.0413301 4.37804e-20 2.3045e-05)
(-0.0385437 -0.0277042 4.21984e-20 0.0385212 3.39222e-20 2.24405e-05)
(-0.0358852 -0.0267292 -3.01534e-20 0.0358636 1.72447e-20 2.16665e-05)
(-0.0333787 -0.02582 -8.94227e-21 0.033358 1.65646e-20 2.07117e-05)
(-0.0310256 -0.0249784 -5.58558e-21 0.031006 9.58427e-21 1.95636e-05)
(-0.0288283 -0.0242064 -1.25297e-20 0.0288101 1.38603e-20 1.82098e-05)
(-0.0267899 -0.0235063 1.4894e-20 0.0267733 -2.21218e-20 1.66365e-05)
(-0.0249143 -0.0228804 -1.60393e-20 0.0248995 1.41832e-20 1.48297e-05)
(-0.0232064 -0.0223318 -1.56048e-20 0.0231936 2.05096e-20 1.27745e-05)
(-0.0216714 -0.0218636 4.64116e-21 0.021661 2.68826e-20 1.04555e-05)
(-0.0203157 -0.0214797 -5.84791e-20 0.0203079 9.10274e-21 7.85611e-06)
(-0.0191456 -0.0211852 -9.72115e-20 0.0191406 2.37426e-20 4.95972e-06)
(-0.0181665 -0.0209877 1.71176e-20 0.0181647 2.22502e-20 1.7483e-06)
(-0.173154 -0.0513282 5.52321e-21 0.173153 -1.89e-22 9.91556e-07)
(-0.16795 -0.0575291 1.19738e-20 0.167947 -4.47376e-21 2.81314e-06)
(-0.16196 -0.0614263 1.18732e-20 0.161955 1.30265e-21 4.52886e-06)
(-0.155532 -0.0636644 1.2022e-20 0.155526 6.24561e-21 6.15118e-06)
(-0.148899 -0.0647009 9.23429e-21 0.148891 6.35423e-21 7.68981e-06)
(-0.142215 -0.0648648 1.2719e-20 0.142206 -2.60602e-21 9.15211e-06)
(-0.135584 -0.0643953 6.45732e-21 0.135573 -1.67717e-21 1.05437e-05)
(-0.129072 -0.0634676 1.02065e-20 0.12906 1.40727e-21 1.18685e-05)
(-0.122722 -0.0622117 1.34481e-20 0.122709 1.40258e-20 1.31294e-05)
(-0.116562 -0.060724 1.80625e-20 0.116548 2.61228e-20 1.43281e-05)
(-0.110606 -0.0590769 2.41718e-20 0.110591 3.08539e-20 1.54652e-05)
(-0.104861 -0.057325 1.00778e-20 0.104845 2.90374e-20 1.65407e-05)
(-0.0993299 -0.0555093 -4.97395e-21 0.0993123 2.99593e-20 1.75538e-05)
(-0.0940101 -0.053661 -4.71148e-21 0.0939916 2.01604e-20 1.85027e-05)
(-0.0888982 -0.0518037 -2.17499e-20 0.0888788 1.36034e-20 1.93853e-05)
(-0.0839889 -0.0499555 -1.55808e-20 0.0839687 7.24337e-21 2.01987e-05)
(-0.0792761 -0.04813 -7.1076e-21 0.0792552 1.82815e-21 2.09396e-05)
(-0.0747536 -0.0463378 -2.09593e-20 0.074732 -9.9081e-21 2.16038e-05)
(-0.070415 -0.0445866 -1.61726e-20 0.0703928 6.56875e-21 2.2187e-05)
(-0.0662541 -0.0428828 3.96596e-21 0.0662314 2.4234e-20 2.2684e-05)
(-0.0622653 -0.0412309 4.46706e-21 0.0622422 2.39739e-20 2.30892e-05)
(-0.0584432 -0.0396346 2.40179e-21 0.0584198 1.56488e-20 2.33964e-05)
(-0.0547831 -0.0380968 3.6867e-21 0.0547595 -2.48403e-21 2.3599e-05)
(-0.0512808 -0.0366199 1.83097e-20 0.0512571 -2.86541e-21 2.36897e-05)
(-0.0479328 -0.0352056 -8.10759e-21 0.0479091 1.01571e-21 2.36607e-05)
(-0.0447363 -0.0338559 -3.17324e-20 0.0447128 4.13746e-21 2.35036e-05)
(-0.041689 -0.0325721 4.40951e-20 0.0416658 3.76383e-20 2.32095e-05)
(-0.0387896 -0.0313558 8.88126e-20 0.0387668 4.4415e-20 2.27688e-05)
(-0.0360371 -0.0302086 8.83901e-20 0.036015 3.46545e-20 2.21716e-05)
(-0.0334316 -0.029132 -1.1019e-20 0.0334102 2.34597e-20 2.14069e-05)
(-0.0309737 -0.0281279 -3.26784e-20 0.0309532 -5.54575e-22 2.04634e-05)
(-0.0286648 -0.0271981 -3.47426e-20 0.0286454 -1.819e-20 1.93292e-05)
(-0.0265069 -0.0263448 -1.07463e-20 0.026489 -3.49828e-20 1.79916e-05)
(-0.0245032 -0.0255705 -3.55507e-20 0.0244868 -3.32069e-20 1.64371e-05)
(-0.0226572 -0.0248779 3.01473e-20 0.0226425 4.96699e-21 1.4652e-05)
(-0.0209734 -0.02427 -3.10024e-20 0.0209608 -3.94196e-21 1.26214e-05)
(-0.0194572 -0.0237503 -6.35721e-21 0.0194468 8.72469e-21 1.03301e-05)
(-0.0181142 -0.0233233 -3.69878e-20 0.0181064 3.29345e-20 7.7619e-06)
(-0.0169503 -0.0229943 -1.71314e-20 0.0169454 6.28805e-20 4.9002e-06)
(-0.0159702 -0.0227718 2.00468e-20 0.0159685 2.09938e-20 1.72729e-06)
(-0.171769 -0.056715 9.82804e-21 0.171768 -1.1639e-20 9.78654e-07)
(-0.165655 -0.0631997 1.61406e-20 0.165653 -1.1941e-20 2.77654e-06)
(-0.159017 -0.0672373 1.88819e-20 0.159013 -2.23739e-21 4.46993e-06)
(-0.152132 -0.0695141 2.58737e-20 0.152126 -5.25408e-21 6.07113e-06)
(-0.145183 -0.0705174 1.41368e-20 0.145175 -3.83164e-21 7.58972e-06)
(-0.138289 -0.0705972 1.22989e-21 0.13828 -2.8529e-21 9.03295e-06)
(-0.131526 -0.0700079 2.57554e-21 0.131515 1.31389e-21 1.04064e-05)
(-0.124942 -0.0689358 -1.19373e-21 0.124931 1.77481e-20 1.17139e-05)
(-0.118566 -0.0675188 1.37834e-20 0.118553 3.01763e-20 1.29583e-05)
(-0.112413 -0.0658595 3.95368e-20 0.112399 2.26879e-20 1.41413e-05)
(-0.106489 -0.0640345 3.6972e-20 0.106474 1.97099e-20 1.52635e-05)
(-0.100796 -0.0621016 1.40922e-20 0.10078 2.48857e-20 1.63249e-05)
(-0.0953297 -0.0601042 -1.11285e-21 0.0953124 3.12616e-20 1.73246e-05)
(-0.0900851 -0.0580754 -2.28197e-20 0.0900668 2.46633e-20 1.82609e-05)
(-0.0850553 -0.05604 -3.41018e-20 0.0850362 2.53771e-20 1.91319e-05)
(-0.0802328 -0.054017 -2.62535e-20 0.0802128 2.72215e-20 1.99345e-05)
(-0.0756096 -0.0520209 -2.3525e-20 0.0755889 1.47737e-20 2.06656e-05)
(-0.0711779 -0.0500625 -4.24418e-20 0.0711566 1.55921e-20 2.1321e-05)