/*--------------------------------*- C++ -*----------------------------------*\
| =========                 |                                                 |
| \\      /  F ield         | foam-extend: Open Source CFD                    |
|  \\    /   O peration     | Version:  3.0                                   |
|   \\  /    A nd           | Web:         http://www.extend-project.de       |
|    \\/     M anipulation  |                                                 |
\*---------------------------------------------------------------------------*/
FoamFile
{
    version     2.0;
    format      ascii;
    class       volSymmTensorField;
    location    "27";
    object      sigma;
}
// * * * * * * * * * * * * * * * * * * * * * * * * * * * * * * * * * * * * * //

dimensions      [0 0 0 0 0 0 0];

internalField   nonuniform List<symmTensor> 
1920
(
(-0.176276 -0.00577492 4.99296e-20 0.176277 -1.1403e-20 -5.515e-07)
(-0.171011 -0.00683698 9.64086e-20 0.171013 1.52955e-20 -1.46917e-06)
(-0.161269 -0.00720221 1.09088e-19 0.161272 1.07431e-20 -2.27735e-06)
(-0.14966 -0.00718888 9.80663e-20 0.149663 3.97097e-20 -2.99566e-06)
(-0.137516 -0.00697062 7.76805e-20 0.13752 6.50617e-20 -3.63724e-06)
(-0.125497 -0.00664446 7.8494e-20 0.125501 5.35429e-20 -4.20882e-06)
(-0.113941 -0.00626643 6.26505e-20 0.113945 9.56403e-20 -4.71417e-06)
(-0.103001 -0.0058693 7.58347e-20 0.103006 8.03127e-20 -5.15264e-06)
(-0.0927449 -0.00547242 7.10429e-20 0.0927504 1.21354e-19 -5.52181e-06)
(-0.0831894 -0.0050877 6.32596e-20 0.0831952 1.36911e-19 -5.8152e-06)
(-0.0743307 -0.00472195 3.72436e-20 0.0743367 1.49536e-19 -6.02477e-06)
(-0.0661589 -0.00438007 1.9381e-20 0.0661651 1.26136e-19 -6.13809e-06)
(-0.0586601 -0.00406454 4.79739e-20 0.0586662 1.12131e-19 -6.14098e-06)
(-0.0518322 -0.00377817 6.11189e-20 0.0518382 1.27846e-19 -6.01404e-06)
(-0.0456716 -0.00352216 2.66123e-20 0.0456774 1.03359e-19 -5.73574e-06)
(-0.0401971 -0.00329926 5.26812e-20 0.0402024 1.79013e-20 -5.27816e-06)
(-0.0354237 -0.00311066 6.24954e-20 0.0354283 -2.3568e-20 -4.61074e-06)
(-0.0313977 -0.00295998 2.29387e-20 0.0314013 -3.39138e-20 -3.69508e-06)
(-0.0281582 -0.00284951 1.97362e-20 0.0281607 -6.86001e-20 -2.48968e-06)
(-0.0257832 -0.00278114 -3.23521e-21 0.0257841 -3.92413e-20 -9.43601e-07)
(-0.175519 -0.0172998 5.40678e-20 0.175519 6.33833e-21 -5.4913e-07)
(-0.169636 -0.0204183 9.78566e-20 0.169637 1.51472e-20 -1.46285e-06)
(-0.15958 -0.0214774 1.10465e-19 0.159582 1.2568e-23 -2.26752e-06)
(-0.147831 -0.0214188 1.28241e-19 0.147834 -4.80639e-21 -2.98273e-06)
(-0.135645 -0.0207557 9.67168e-20 0.135649 5.07657e-20 -3.62153e-06)
(-0.123642 -0.0197752 9.08716e-20 0.123646 6.37664e-20 -4.19063e-06)
(-0.112136 -0.0186427 8.99882e-20 0.11214 9.81625e-20 -4.69378e-06)
(-0.101263 -0.0174551 7.02429e-20 0.101268 1.96149e-19 -5.13035e-06)
(-0.0910826 -0.0162692 7.69323e-20 0.0910881 2.39841e-19 -5.49792e-06)
(-0.0816054 -0.0151204 6.19922e-20 0.0816112 2.20664e-19 -5.79005e-06)
(-0.072824 -0.0140286 4.6911e-20 0.07283 2.09526e-19 -5.99873e-06)
(-0.0647258 -0.0130082 3.12949e-20 0.0647319 1.9918e-19 -6.1116e-06)
(-0.0572954 -0.0120666 8.03945e-20 0.0573015 1.57503e-19 -6.1145e-06)
(-0.0505294 -0.0112119 7.87978e-20 0.0505354 1.68419e-19 -5.98816e-06)
(-0.0444234 -0.0104477 -5.31771e-21 0.0444291 2.18298e-19 -5.71109e-06)
(-0.0389951 -0.0097822 -6.95623e-20 0.0390003 2.33339e-19 -5.25552e-06)
(-0.0342589 -0.00921887 -4.50054e-20 0.0342634 2.12464e-19 -4.59101e-06)
(-0.0302599 -0.00876842 1.78513e-20 0.0302635 1.32965e-19 -3.6793e-06)
(-0.0270366 -0.00843771 3.70866e-20 0.0270391 8.42859e-20 -2.47908e-06)
(-0.0246669 -0.00823241 5.91027e-20 0.0246678 -3.70686e-20 -9.39602e-07)
(-0.174008 -0.02875 4.82876e-20 0.174009 1.08803e-20 -5.44375e-07)
(-0.166915 -0.0337246 7.75702e-20 0.166917 1.04512e-20 -1.45017e-06)
(-0.156248 -0.0353694 7.42558e-20 0.15625 6.91713e-21 -2.2479e-06)
(-0.144224 -0.0352101 1.09495e-19 0.144227 -2.09593e-20 -2.95696e-06)
(-0.131961 -0.034078 1.29969e-19 0.131964 -4.67152e-21 -3.5903e-06)
(-0.119992 -0.0324372 1.02277e-19 0.119996 6.9142e-20 -4.15455e-06)
(-0.108584 -0.030555 1.57645e-19 0.108589 1.06664e-19 -4.65343e-06)
(-0.0978445 -0.0285878 2.31051e-19 0.0978495 2.01744e-19 -5.08632e-06)
(-0.0878138 -0.0266274 1.49969e-19 0.0878192 2.57557e-19 -5.45079e-06)
(-0.0784913 -0.0247302 9.90145e-20 0.0784971 2.16507e-19 -5.74047e-06)
(-0.0698626 -0.0229285 8.58727e-20 0.0698685 2.13632e-19 -5.9474e-06)
(-0.0619098 -0.0212453 2.41426e-20 0.0619159 2.49951e-19 -6.05933e-06)
(-0.0546148 -0.0196921 8.61583e-20 0.0546208 1.15581e-19 -6.06223e-06)
(-0.047971 -0.0182823 2.0528e-19 0.0479769 1.35549e-19 -5.93698e-06)
(-0.0419729 -0.0170215 2.37927e-19 0.0419785 1.5378e-19 -5.6623e-06)
(-0.0366357 -0.0159228 2.05162e-19 0.0366409 2.48175e-19 -5.21063e-06)
(-0.0319731 -0.0149921 9.31326e-20 0.0319777 2.32004e-19 -4.5518e-06)
(-0.0280277 -0.0142467 -7.72143e-21 0.0280314 6.73095e-20 -3.64788e-06)
(-0.0248366 -0.0136978 -8.25002e-20 0.0248391 -4.6112e-20 -2.45791e-06)
(-0.0224776 -0.013355 -7.33682e-20 0.0224785 4.66242e-21 -9.31581e-07)
(-0.17175 -0.040076 4.26822e-20 0.171751 4.40453e-21 -5.37291e-07)
(-0.16291 -0.0465817 6.05955e-20 0.162911 2.82759e-20 -1.4313e-06)
(-0.151361 -0.048637 4.90107e-20 0.151363 4.08127e-20 -2.21867e-06)
(-0.138947 -0.0482875 6.33714e-20 0.13895 2.93497e-20 -2.91855e-06)
(-0.126575 -0.0466471 1.36314e-19 0.126578 -3.46402e-20 -3.54371e-06)
(-0.114661 -0.0443363 1.80606e-19 0.114665 -1.7278e-20 -4.10069e-06)
(-0.1034 -0.0417126 1.96756e-19 0.103405 5.77943e-21 -4.59316e-06)
(-0.0928576 -0.0389838 2.90407e-19 0.0928626 -2.23373e-20 -5.0205e-06)
(-0.0830478 -0.0362722 2.44911e-19 0.0830531 -2.68154e-21 -5.38031e-06)
(-0.0739531 -0.0336525 1.18064e-19 0.0739587 5.78734e-20 -5.66629e-06)
(-0.0655488 -0.0311673 1.74428e-19 0.0655547 1.13983e-19 -5.87059e-06)
(-0.0578098 -0.0288467 5.42555e-20 0.0578158 1.82114e-19 -5.9811e-06)
(-0.0507135 -0.0267059 -1.44212e-20 0.0507194 9.5473e-20 -5.98399e-06)
(-0.0442493 -0.0247625 1.64195e-19 0.0442552 4.95956e-20 -5.86037e-06)
(-0.0384097 -0.0230238 2.09954e-19 0.0384153 1.25878e-20 -5.58924e-06)
(-0.0332067 -0.0215074 3.18123e-19 0.0332119 -2.35296e-19 -5.14341e-06)
(-0.0286526 -0.0202212 4.00719e-20 0.0286571 -1.37988e-19 -4.49309e-06)
(-0.0247864 -0.0191886 -1.24098e-19 0.02479 -2.10171e-19 -3.60084e-06)
(-0.0216432 -0.018425 -4.64855e-20 0.0216456 -2.42651e-20 -2.42622e-06)
(-0.0193007 -0.0179439 5.05366e-20 0.0193016 1.12669e-19 -9.19573e-07)
(-0.168755 -0.051229 2.54404e-20 0.168756 4.54631e-20 -5.27915e-07)
(-0.157707 -0.0588294 2.80592e-20 0.157709 9.8363e-20 -1.40633e-06)
(-0.145051 -0.0610598 1.2445e-20 0.145053 1.06282e-19 -2.17997e-06)
(-0.132151 -0.0604002 -3.85209e-20 0.132154 1.62475e-19 -2.86766e-06)
(-0.119651 -0.0581992 -4.82189e-23 0.119655 6.53688e-20 -3.48195e-06)
(-0.107816 -0.0552061 8.78484e-20 0.10782 -7.74432e-21 -4.02926e-06)
(-0.0967501 -0.0518519 1.68943e-19 0.0967546 -1.20574e-19 -4.51321e-06)
(-0.0864657 -0.0483861 2.03165e-19 0.0864706 -5.53598e-20 -4.93315e-06)
(-0.0769434 -0.0449553 2.67289e-19 0.0769487 -5.82363e-20 -5.28675e-06)
(-0.0681445 -0.0416481 1.78347e-19 0.06815 1.51447e-19 -5.5678e-06)
(-0.0600313 -0.038515 2.60686e-19 0.060037 9.43386e-20 -5.76858e-06)
(-0.0525691 -0.0355916 1.51943e-19 0.0525749 1.26995e-19 -5.87721e-06)
(-0.0457301 -0.0328956 -3.1648e-20 0.045736 1.71499e-19 -5.88007e-06)
(-0.0394986 -0.0304477 3.56528e-20 0.0395044 2.8056e-19 -5.75861e-06)
(-0.0338645 -0.0282566 -1.64159e-20 0.03387 2.33064e-20 -5.4922e-06)
(-0.0288356 -0.0263434 7.61133e-21 0.0288406 -1.58503e-19 -5.05412e-06)
(-0.0244225 -0.0247179 2.05928e-19 0.0244269 -1.01297e-19 -4.4151e-06)
(-0.0206596 -0.0234088 -1.2884e-20 0.0206631 -3.04623e-20 -3.53834e-06)
(-0.0175795 -0.0224352 1.9424e-19 0.0175818 1.16016e-19 -2.38412e-06)
(-0.0152597 -0.0218148 -7.84327e-20 0.0152606 1.53788e-19 -9.03615e-07)
(-0.165036 -0.0621609 -1.97645e-20 0.165037 1.54572e-19 -5.16281e-07)
(-0.15142 -0.0703255 -4.83576e-20 0.151421 2.59271e-19 -1.37533e-06)
(-0.137483 -0.0724455 -1.0043e-20 0.137485 2.25023e-19 -2.13193e-06)
(-0.124032 -0.0713308 1.64231e-20 0.124034 1.34734e-19 -2.80449e-06)
(-0.111398 -0.0685062 -9.10887e-20 0.111401 1.41362e-19 -3.40528e-06)
(-0.0996692 -0.0648165 -7.28779e-20 0.0996731 8.60618e-20 -3.94059e-06)
(-0.0888464 -0.060746 -1.64645e-20 0.0888508 6.61901e-20 -4.41392e-06)
(-0.0788768 -0.0565739 2.0144e-19 0.0788816 9.15336e-20 -4.82467e-06)
(-0.0697031 -0.0524631 3.47692e-19 0.0697083 -8.14903e-21 -5.17053e-06)
(-0.0612614 -0.0485116 2.83922e-19 0.0612668 1.26589e-19 -5.44544e-06)
(-0.053499 -0.0447747 1.75432e-19 0.0535047 8.88934e-20 -5.64185e-06)
(-0.0463703 -0.041291 2.26018e-19 0.046376 1.6639e-19 -5.74812e-06)
(-0.0398412 -0.0380795 2.34175e-19 0.0398469 1.88283e-19 -5.75094e-06)
(-0.0338898 -0.0351629 9.68372e-20 0.0338954 3.86887e-19 -5.63217e-06)
(-0.0285033 -0.0325507 -1.84498e-19 0.0285087 -1.00701e-21 -5.37163e-06)
(-0.0236844 -0.0302666 -1.02883e-19 0.0236893 4.42474e-20 -4.94318e-06)
(-0.0194419 -0.0283217 4.34769e-20 0.0194462 -9.45374e-20 -4.31819e-06)
(-0.0158047 -0.0267495 -1.64587e-20 0.0158082 -4.9014e-21 -3.46069e-06)
(-0.0128023 -0.0255718 3.00393e-19 0.0128047 -1.61767e-19 -2.3318e-06)
(-0.0105121 -0.0248108 9.00074e-21 0.010513 -2.65895e-20 -8.83791e-07)
(-0.16061 -0.0728247 6.9862e-21 0.16061 1.45423e-19 -5.02438e-07)
(-0.144179 -0.0809504 -6.83699e-20 0.14418 2.79641e-19 -1.33845e-06)
(-0.128853 -0.0826362 -8.57077e-20 0.128855 1.32877e-19 -2.07477e-06)
(-0.114818 -0.0809023 -2.84969e-20 0.114821 1.0183e-20 -2.72932e-06)
(-0.10206 -0.0773837 -6.34628e-20 0.102064 1.50569e-19 -3.31402e-06)
(-0.0904721 -0.0729823 -5.48484e-20 0.090476 1.04083e-19 -3.83501e-06)
(-0.0799382 -0.0682128 -1.03273e-20 0.0799425 1.09143e-19 -4.29569e-06)
(-0.0703359 -0.0633702 7.03424e-20 0.0703405 -4.6371e-20 -4.69547e-06)
(-0.061565 -0.0586251 2.63425e-19 0.0615701 -1.26957e-19 -5.03211e-06)
(-0.0535344 -0.0540794 4.355e-19 0.0535397 -6.03118e-20 -5.2997e-06)
(-0.0461747 -0.0497894 3.3748e-19 0.0461802 1.80807e-20 -5.49089e-06)
(-0.0394282 -0.0457946 3.45262e-19 0.0394338 -2.20157e-20 -5.59434e-06)
(-0.0332542 -0.0421137 4.56025e-19 0.0332598 -1.59207e-19 -5.59711e-06)
(-0.0276239 -0.0387698 4.08976e-19 0.0276294 -6.87791e-20 -5.48154e-06)
(-0.0225214 -0.0357726 -1.45856e-19 0.0225267 -3.95083e-19 -5.22799e-06)
(-0.0179439 -0.0331474 -9.30774e-20 0.0179487 -3.28144e-19 -4.81101e-06)
(-0.0138982 -0.0309065 8.43659e-21 0.0139024 -2.1858e-19 -4.20275e-06)
(-0.0104069 -0.0290864 1.10332e-21 0.0104103 -6.33802e-19 -3.36818e-06)
(-0.00749622 -0.0277117 -4.54418e-20 0.00749849 -3.05279e-19 -2.26948e-06)
(-0.00524309 -0.0268092 2.47362e-19 0.00524395 -4.68994e-19 -8.60173e-07)
(-0.155494 -0.0831745 6.82745e-20 0.155495 6.97024e-20 -4.86444e-07)
(-0.136133 -0.0906102 3.83146e-20 0.136134 3.25407e-20 -1.29585e-06)
(-0.119381 -0.0915128 -1.3913e-19 0.119383 -8.61731e-21 -2.00873e-06)
(-0.104765 -0.0889841 -2.90354e-20 0.104768 1.08207e-20 -2.64245e-06)
(-0.0919118 -0.084697 5.94722e-20 0.0919151 7.08815e-21 -3.20856e-06)
(-0.0805035 -0.0795691 -1.00508e-19 0.0805072 2.04805e-20 -3.71299e-06)
(-0.0703036 -0.074121 -7.82238e-20 0.0703077 -6.34072e-20 -4.15905e-06)
(-0.0611154 -0.068648 -7.3365e-20 0.06112 -1.22617e-19 -4.54615e-06)
(-0.0527943 -0.0633196 2.54749e-20 0.0527992 3.25214e-20 -4.87211e-06)
(-0.04522 -0.0582349 3.97055e-19 0.0452251 -7.11558e-20 -5.13123e-06)
(-0.0383061 -0.0534482 2.03604e-19 0.0383114 1.24715e-19 -5.31637e-06)
(-0.0319819 -0.0489964 7.91721e-20 0.0319874 -4.05298e-20 -5.41656e-06)
(-0.0262 -0.0448968 1.78907e-19 0.0262055 -1.71679e-19 -5.41928e-06)
(-0.0209244 -0.0411714 3.41266e-19 0.0209297 -2.06178e-19 -5.30741e-06)
(-0.0161361 -0.0378291 -3.70812e-19 0.0161411 -3.37783e-19 -5.06193e-06)
(-0.0118262 -0.034896 -2.54223e-19 0.0118309 -6.39326e-20 -4.65822e-06)
(-0.00799944 -0.0323847 -3.04067e-19 0.00800351 -4.15416e-19 -4.06929e-06)
(-0.00467191 -0.030334 -5.15283e-19 0.00467517 -4.56983e-19 -3.26124e-06)
(-0.001866 -0.0287704 -2.52294e-19 0.0018682 1.63889e-19 -2.19743e-06)
(0.000341841 -0.0277255 1.50028e-19 -0.000341008 -8.45556e-20 -8.32874e-07)
(-0.149713 -0.093166 4.21287e-20 0.149714 3.04008e-20 -4.68363e-07)
(-0.12744 -0.0992387 5.70212e-20 0.127442 -7.5352e-20 -1.24768e-06)
(-0.109298 -0.098999 -9.3944e-20 0.1093 -6.57705e-20 -1.93406e-06)
(-0.0941473 -0.0954959 -9.87749e-20 0.0941498 -3.47273e-20 -2.54424e-06)
(-0.0812434 -0.0903657 1.76816e-20 0.0812465 -3.83411e-20 -3.08933e-06)
(-0.0700605 -0.0844982 -2.78892e-20 0.070064 -3.04387e-20 -3.57503e-06)
(-0.0602382 -0.0783946 -1.80469e-19 0.0602422 -2.26656e-20 -4.00454e-06)
(-0.0515056 -0.072335 -8.3916e-20 0.05151 9.81994e-21 -4.37728e-06)
(-0.0436729 -0.0664777 -1.21484e-19 0.0436776 2.3807e-19 -4.69117e-06)
(-0.036591 -0.0609133 1.40719e-19 0.036596 2.65134e-19 -4.94069e-06)
(-0.0301563 -0.0556896 4.43854e-19 0.0301615 3.11529e-19 -5.119e-06)
(-0.0242855 -0.0508386 7.99026e-20 0.0242907 -2.74325e-20 -5.21551e-06)
(-0.018924 -0.0463742 -1.92175e-19 0.0189292 1.64497e-19 -5.21815e-06)
(-0.0140289 -0.0423158 3.21567e-19 0.014034 1.99983e-20 -5.11047e-06)
(-0.00957795 -0.0386711 -2.60849e-19 0.00958283 1.46605e-19 -4.87413e-06)
(-0.0055564 -0.0354652 -3.7803e-19 0.00556089 3.33924e-20 -4.48543e-06)
(-0.00196665 -0.0327111 -8.14999e-19 0.00197057 1.0786e-19 -3.91837e-06)
(0.00118194 -0.0304483 -4.9061e-19 -0.0011788 6.13429e-19 -3.14031e-06)
(0.0038708 -0.0287049 -1.85224e-19 -0.00386868 4.78301e-19 -2.11596e-06)
(0.00602438 -0.0275171 -2.56794e-19 -0.00602358 3.04753e-19 -8.01999e-07)
(-0.143291 -0.102756 -5.02158e-20 0.143291 9.76976e-20 -4.48276e-07)
(-0.118266 -0.106799 -1.43404e-20 0.118267 -3.92282e-20 -1.19416e-06)
(-0.0988466 -0.105063 -9.35841e-20 0.0988485 -8.04685e-20 -1.85111e-06)
(-0.0832431 -0.10041 -1.33102e-19 0.0832455 1.74455e-22 -2.43512e-06)
(-0.0703534 -0.0943653 -5.41976e-20 0.0703564 3.05893e-20 -2.95684e-06)
(-0.0594471 -0.0877484 -1.45886e-19 0.0594505 1.1799e-19 -3.42173e-06)
(-0.0500445 -0.0810154 -2.13254e-19 0.0500484 1.02356e-19 -3.83284e-06)
(-0.0418029 -0.0744153 -1.48816e-19 0.0418071 1.68851e-19 -4.18963e-06)
(-0.0344891 -0.0680861 8.92991e-20 0.0344936 2.4535e-19 -4.49009e-06)
(-0.0279263 -0.062103 8.99609e-20 0.0279311 2.92388e-19 -4.72895e-06)
(-0.0219945 -0.056504 3.35135e-19 0.0219994 -4.04142e-20 -4.89965e-06)
(-0.0165983 -0.0513132 4.0899e-19 0.0166033 -3.11035e-19 -4.99206e-06)
(-0.0116766 -0.0465395 3.59215e-20 0.0116816 2.69594e-20 -4.99463e-06)
(-0.00717978 -0.0421982 2.0177e-19 0.00718468 6.83785e-22 -4.8916e-06)
(-0.00308249 -0.0382948 5.66994e-20 0.00308715 -6.80681e-20 -4.66542e-06)
(0.00063575 -0.0348526 -2.40601e-20 -0.000631456 -3.9613e-20 -4.29339e-06)
(0.00397478 -0.0318843 1.28401e-19 -0.00397103 1.16812e-19 -3.75064e-06)
(0.00693191 -0.029429 -2.99974e-19 -0.0069289 2.56188e-19 -3.00591e-06)
(0.00949242 -0.0275154 1.67271e-20 -0.0094904 5.633e-20 -2.02542e-06)
(0.011582 -0.0261849 -4.49849e-19 -0.0115813 4.59656e-19 -7.67691e-07)
(-0.136256 -0.111905 -6.5486e-20 0.136256 4.44146e-20 -4.26261e-07)
(-0.108772 -0.113284 -1.16724e-19 0.108774 -2.73282e-20 -1.13552e-06)
(-0.0882627 -0.109717 -1.27456e-19 0.0882645 -3.86404e-20 -1.7602e-06)
(-0.0723293 -0.103751 -1.04138e-19 0.0723316 -2.17517e-21 -2.31553e-06)
(-0.0595361 -0.096728 -1.37398e-19 0.0595389 2.11593e-19 -2.81163e-06)
(-0.0489634 -0.0893565 3.97788e-20 0.0489666 1.28746e-19 -3.25371e-06)
(-0.0400208 -0.0820228 -1.17767e-19 0.0400244 -7.74507e-21 -3.64465e-06)
(-0.0322995 -0.0749299 -1.03243e-19 0.0323035 4.76254e-20 -3.98395e-06)
(-0.0255266 -0.0681864 1.83473e-19 0.0255309 -5.0666e-20 -4.26969e-06)
(-0.0195002 -0.0618463 3.20858e-19 0.0195047 -1.7859e-19 -4.49686e-06)
(-0.0140852 -0.0559338 4.05016e-20 0.0140898 -3.37599e-19 -4.65922e-06)
(-0.00917537 -0.0504625 1.38176e-19 0.00918012 -2.79264e-19 -4.74714e-06)
(-0.00470403 -0.0454349 3.60544e-19 0.00470878 -7.86156e-20 -4.74963e-06)
(-0.000615172 -0.0408606 4.54794e-19 0.000619823 -2.71243e-19 -4.6517e-06)
(0.00311915 -0.0367424 3.21234e-20 -0.00311471 -2.72708e-19 -4.43666e-06)
(0.00652476 -0.0331004 -2.17553e-19 -0.00652068 -1.84057e-19 -4.08291e-06)
(0.00960367 -0.0299467 5.70628e-20 -0.0096001 -2.17448e-19 -3.5668e-06)
(0.0123595 -0.0273188 1.20862e-19 -0.0123567 1.40235e-19 -2.8586e-06)
(0.0147814 -0.0252454 4.73358e-19 -0.0147795 2.80799e-19 -1.92618e-06)
(0.0167967 -0.0237734 2.10097e-19 -0.016796 -1.89172e-19 -7.30085e-07)
(-0.128638 -0.120572 7.41148e-21 0.128639 -4.06303e-20 -4.0242e-07)
(-0.0991179 -0.118713 -6.09428e-20 0.0991189 -8.58201e-20 -1.072e-06)
(-0.0777738 -0.113016 -1.40916e-19 0.0777755 -5.51471e-20 -1.66173e-06)
(-0.0616689 -0.105593 -4.33017e-20 0.0616711 2.25302e-20 -2.186e-06)
(-0.0490711 -0.0975404 -3.3751e-20 0.0490737 1.69658e-19 -2.65436e-06)
(-0.0388938 -0.0894148 2.25475e-20 0.0388968 -1.00942e-19 -3.07172e-06)
(-0.0304496 -0.0815116 -9.74265e-20 0.030453 -1.0021e-19 -3.44081e-06)
(-0.0232721 -0.0739744 -1.04518e-19 0.0232759 -1.5671e-19 -3.76115e-06)
(-0.0170541 -0.0668735 -1.22274e-19 0.0170581 -2.0366e-19 -4.03095e-06)
(-0.0115721 -0.0602366 1.54615e-19 0.0115763 -2.54218e-19 -4.24545e-06)
(-0.00667843 -0.0540708 5.02022e-20 0.00668283 -1.58837e-19 -4.39878e-06)
(-0.00225784 -0.0483767 -7.51842e-20 0.00226232 -7.29036e-20 -4.48183e-06)
(0.00176129 -0.043149 -1.09811e-19 -0.00175681 -1.92852e-19 -4.48424e-06)
(0.00544011 -0.0383902 2.62469e-20 -0.00543572 -8.27642e-20 -4.39182e-06)
(0.00880882 -0.0340999 4.15973e-19 -0.00880463 -4.3701e-20 -4.18885e-06)
(0.011898 -0.0302938 -1.02853e-19 -0.0118941 -1.13508e-19 -3.85491e-06)
(0.0147115 -0.0269831 -5.51208e-20 -0.0147082 1.2075e-20 -3.36766e-06)
(0.017259 -0.0242025 9.56767e-20 -0.0172563 4.15228e-20 -2.69903e-06)
(0.0195329 -0.0219803 1.23209e-19 -0.0195311 -2.34141e-19 -1.81868e-06)
(0.0214629 -0.0203686 1.83829e-19 -0.0214622 -3.28462e-19 -6.89352e-07)
(-0.120472 -0.128721 3.62979e-20 0.120472 -6.2404e-20 -3.76843e-07)
(-0.089449 -0.123134 7.33893e-20 0.08945 -1.67449e-19 -1.00386e-06)
(-0.0675884 -0.115055 -9.56288e-20 0.06759 -7.41072e-20 -1.55611e-06)
(-0.0515023 -0.106061 -5.41442e-20 0.0515044 3.77543e-20 -2.04706e-06)
(-0.0392132 -0.0969393 1.84183e-19 0.0392157 -6.74392e-20 -2.48566e-06)
(-0.0294972 -0.0880673 5.12941e-20 0.0295 -1.76976e-19 -2.8765e-06)
(-0.0215876 -0.0796284 -4.70571e-20 0.0215908 -1.16553e-19 -3.22216e-06)
(-0.0149718 -0.0716948 -2.42709e-19 0.0149753 -7.39314e-20 -3.52217e-06)
(-0.00931504 -0.0642916 -4.58775e-19 0.00931881 1.57544e-20 -3.77485e-06)
(-0.00437713 -0.0574153 -2.31624e-19 0.0043811 -3.99949e-20 -3.97577e-06)
(-7.13321e-07 -0.0510531 -4.64174e-20 4.83273e-06 -3.39035e-20 -4.11941e-06)
(0.00393639 -0.0451906 -7.05373e-20 -0.00393219 2.85521e-20 -4.19724e-06)
(0.00750929 -0.0398134 -2.02252e-19 -0.00750509 1.00259e-19 -4.19955e-06)
(0.0107831 -0.0349159 -4.18198e-19 -0.010779 2.04595e-19 -4.11307e-06)
(0.0137898 -0.0304937 -9.8962e-20 -0.0137859 6.70813e-22 -3.92303e-06)
(0.0165637 -0.0265574 -5.13377e-20 -0.0165601 3.40311e-20 -3.61034e-06)
(0.0191106 -0.023117 -2.07461e-20 -0.0191074 -8.62187e-20 -3.15405e-06)
(0.0214449 -0.0202033 -1.08498e-19 -0.0214424 -8.80955e-20 -2.52787e-06)
(0.0235627 -0.0178434 -1.37226e-19 -0.023561 -1.22371e-19 -1.70338e-06)
(0.025396 -0.0160952 3.30868e-20 -0.0253954 3.83676e-20 -6.45658e-07)
(-0.11179 -0.136317 7.78873e-20 0.111791 -1.1991e-19 -3.49652e-07)
(-0.0798966 -0.126618 3.38719e-20 0.0798976 -9.99595e-20 -9.31416e-07)
(-0.0578892 -0.115966 1.76051e-20 0.0578906 -5.14261e-20 -1.44381e-06)
(-0.0420388 -0.105316 -1.23659e-20 0.0420407 -8.35573e-20 -1.89932e-06)
(-0.0301833 -0.0951058 1.16829e-19 0.0301856 -1.9563e-19 -2.30628e-06)
(-0.0209972 -0.0855031 1.54575e-19 0.0209999 -2.05215e-19 -2.66893e-06)
(-0.0136563 -0.0765645 6.9638e-20 0.0136593 -4.71693e-20 -2.98966e-06)
(-0.00761467 -0.0682814 1.20659e-19 0.00761794 -1.63525e-21 -3.26805e-06)
(-0.00251879 -0.0606279 -2.09707e-19 0.00252229 -7.39324e-20 -3.50254e-06)
(0.00188289 -0.0535654 -4.01362e-19 -0.0018792 -1.71925e-19 -3.68901e-06)
(0.00575387 -0.0470592 -3.10903e-19 -0.00575005 -9.68947e-21 -3.82234e-06)
(0.00922061 -0.041078 -1.26915e-19 -0.00921672 1.90432e-19 -3.89462e-06)
(0.0123602 -0.0355975 -4.15736e-20 -0.0123563 3.36992e-19 -3.89683e-06)
(0.0152404 -0.0306032 -5.99238e-20 -0.0152366 1.48367e-19 -3.81664e-06)
(0.0178941 -0.026086 -3.25031e-19 -0.0178904 1.50291e-19 -3.64037e-06)
(0.0203585 -0.0220508 -3.75458e-19 -0.0203552 1.04868e-19 -3.35027e-06)
(0.0226408 -0.018506 -3.6855e-19 -0.0226379 1.6678e-19 -2.9269e-06)
(0.0247597 -0.0154779 -1.63121e-19 -0.0247573 2.62882e-19 -2.34586e-06)
(0.0267139 -0.0129921 -2.06614e-19 -0.0267123 -5.92064e-20 -1.58076e-06)
(0.028439 -0.0111117 -3.46727e-19 -0.0284384 2.41658e-19 -5.99195e-07)
(-0.102633 -0.143329 3.4576e-20 0.102633 -5.31068e-20 -3.2095e-07)
(-0.0705722 -0.129256 4.63675e-20 0.0705731 -2.39042e-20 -8.54955e-07)
(-0.0488269 -0.115906 8.23419e-20 0.0488283 -7.67557e-20 -1.32528e-06)
(-0.0334488 -0.103556 -1.19675e-20 0.0334506 -1.61207e-19 -1.7434e-06)
(-0.0221602 -0.0922578 -4.92357e-20 0.0221623 -1.97221e-19 -2.11696e-06)
(-0.0135745 -0.0819489 7.79747e-22 0.013577 -1.3074e-19 -2.44985e-06)
(-0.00683374 -0.0725488 5.888e-20 0.00683649 -1.14361e-20 -2.74428e-06)
(-0.00137426 -0.0639613 1.38956e-19 0.00137726 -4.77118e-20 -2.99985e-06)
(0.00316709 -0.0561053 1.37528e-19 -0.00316388 -2.11684e-19 -3.21514e-06)
(0.00704679 -0.0489046 -2.85206e-19 -0.00704341 -1.80509e-19 -3.38636e-06)
(0.0104306 -0.0423009 -2.59953e-19 -0.0104271 2.68308e-20 -3.50881e-06)
(0.0134464 -0.0362449 2.24304e-20 -0.0134428 1.21161e-19 -3.57524e-06)
(0.0161715 -0.0307018 2.17578e-19 -0.016168 8.23174e-20 -3.57734e-06)
(0.0186746 -0.0256473 1.62199e-19 -0.0186711 -4.30932e-20 -3.50381e-06)
(0.0209889 -0.0210679 3.62143e-19 -0.0209856 1.17772e-19 -3.34206e-06)
(0.0231534 -0.016962 1.46397e-19 -0.0231504 6.20922e-20 -3.0758e-06)
(0.0251762 -0.0133359 7.57738e-20 -0.0251736 -6.70799e-21 -2.68718e-06)
(0.0270793 -0.010211 -4.39862e-20 -0.0270771 -1.14947e-19 -2.15378e-06)
(0.0288637 -0.00761088 3.81601e-20 -0.0288622 -9.45433e-20 -1.45136e-06)
(0.0304687 -0.00560407 4.97462e-20 -0.0304682 -8.15213e-20 -5.50159e-07)
(-0.0930373 -0.149726 4.17227e-21 0.0930375 -1.46661e-20 -2.90871e-07)
(-0.0615641 -0.131152 -3.51074e-21 0.0615649 2.52896e-20 -7.74819e-07)
(-0.0405157 -0.11506 1.65569e-19 0.0405169 -1.11259e-19 -1.20105e-06)
(-0.0258589 -0.101007 -5.20682e-21 0.0258605 -1.56357e-19 -1.57999e-06)
(-0.0152751 -0.0886407 -1.3919e-19 0.015277 -1.42862e-19 -1.91853e-06)
(-0.00736007 -0.0776596 -1.42392e-19 0.00736229 -3.55053e-20 -2.22024e-06)
(-0.00124845 -0.0678383 5.80687e-20 0.00125094 -1.20303e-20 -2.4871e-06)
(0.00362499 -0.0589891 5.5176e-20 -0.00362227 -8.22295e-20 -2.71876e-06)
(0.00762289 -0.0509734 1.55187e-19 -0.00761997 -2.32272e-19 -2.91392e-06)
(0.0109999 -0.0436763 -2.04705e-19 -0.0109968 -9.10162e-20 -3.06916e-06)
(0.0139199 -0.0370148 -2.0299e-19 -0.0139167 -1.60244e-19 -3.18022e-06)
(0.0165089 -0.0309212 -1.95389e-19 -0.0165057 -9.65448e-20 -3.2405e-06)
(0.0188429 -0.0253499 1.35687e-19 -0.0188397 -5.66125e-20 -3.24249e-06)
(0.0209896 -0.0202665 6.17884e-20 -0.0209864 -2.22899e-19 -3.17593e-06)
(0.0229817 -0.0156526 1.31696e-19 -0.0229787 -9.44085e-22 -3.02941e-06)
(0.0248589 -0.0115 4.49094e-19 -0.0248561 -1.78438e-19 -2.78813e-06)
(0.0266297 -0.00781317 1.85827e-19 -0.0266272 -2.06433e-19 -2.43593e-06)
(0.0283181 -0.00460766 1.94635e-19 -0.0283162 -2.34365e-19 -1.95245e-06)
(0.0299273 -0.0019051 -2.20233e-19 -0.029926 -2.51278e-19 -1.31573e-06)
(0.0314007 0.000220963 1.18519e-19 -0.0314002 -3.80968e-20 -4.98763e-07)
(-0.0830458 -0.155482 3.34869e-20 0.0830461 -3.72688e-21 -2.59533e-07)
(-0.0529356 -0.132423 1.09905e-19 0.0529363 -5.13248e-20 -6.91336e-07)
(-0.0330296 -0.113622 7.92381e-20 0.0330306 -9.85211e-20 -1.07164e-06)
(-0.0193471 -0.0979082 6.74018e-20 0.0193486 -1.0201e-19 -1.40975e-06)
(-0.00960655 -0.0845178 7.3045e-21 0.00960826 -1.47447e-19 -1.71183e-06)
(-0.00243111 -0.0729081 -1.26621e-19 0.00243309 -8.50376e-20 -1.98106e-06)
(0.00302505 -0.0627076 2.38091e-22 -0.00302283 -6.71163e-20 -2.2192e-06)
(0.00731182 -0.0536365 -6.21436e-20 -0.0073094 -1.13793e-19 -2.42595e-06)
(0.0107809 -0.0454987 -1.60998e-19 -0.0107783 -3.43299e-20 -2.60016e-06)
(0.0136781 -0.03814 1.28629e-20 -0.0136754 -2.43812e-20 -2.73875e-06)
(0.0161612 -0.0314531 -1.72309e-19 -0.0161583 -2.51029e-19 -2.83793e-06)
(0.0183509 -0.0253518 -5.1683e-19 -0.018348 -4.47247e-20 -2.89182e-06)
(0.0203201 -0.0197797 -2.83105e-19 -0.0203172 -2.92471e-20 -2.8937e-06)
(0.0221339 -0.0146923 -4.05901e-19 -0.022131 -1.29789e-20 -2.8344e-06)
(0.0238235 -0.0100666 -1.75355e-19 -0.0238208 1.13101e-19 -2.70373e-06)
(0.0254279 -0.0058874 -1.66541e-19 -0.0254254 -1.38423e-19 -2.48849e-06)
(0.0269559 -0.00215719 -1.97491e-19 -0.0269538 1.1958e-19 -2.17421e-06)
(0.0284324 0.00111419 1.59782e-20 -0.0284306 2.85151e-20 -1.74274e-06)
(0.0298616 0.00390743 -1.28845e-19 -0.0298605 -3.66714e-20 -1.17445e-06)
(0.0311923 0.00614412 -1.24766e-19 -0.0311919 6.01466e-20 -4.45227e-07)
(-0.0727009 -0.160572 8.74318e-20 0.0727011 -3.55508e-20 -2.27081e-07)
(-0.0447237 -0.13319 1.17314e-19 0.0447243 -6.21753e-20 -6.04877e-07)
(-0.0264004 -0.111796 9.73746e-20 0.0264014 -8.40517e-20 -9.37618e-07)
(-0.0139415 -0.094507 5.69842e-21 0.0139427 -7.24021e-20 -1.23345e-06)
(-0.00517894 -0.0801593 6.21732e-20 0.00518044 -1.41707e-19 -1.49776e-06)
(0.00119125 -0.0679741 -6.79095e-20 -0.00118951 -1.03113e-19 -1.73335e-06)
(0.00596845 -0.0574381 -1.37826e-20 -0.00596651 -5.21721e-20 -1.94176e-06)
(0.00967046 -0.048182 -1.90616e-20 -0.00966833 -1.37977e-20 -2.12271e-06)
(0.0126276 -0.0399537 -3.38104e-20 -0.0126253 -3.40387e-20 -2.27521e-06)
(0.01507 -0.0325613 -3.2737e-20 -0.0150676 -1.32545e-19 -2.39657e-06)
(0.0171447 -0.0258737 -7.57382e-20 -0.0171422 -1.19569e-19 -2.48346e-06)
(0.0189645 -0.0197871 -2.0632e-19 -0.018962 3.93827e-20 -2.53072e-06)
(0.0205968 -0.0142345 -1.06899e-19 -0.0205943 -6.21567e-20 -2.53248e-06)
(0.0221025 -0.00916173 -3.6525e-19 -0.0221 -2.78812e-20 -2.4807e-06)
(0.0235107 -0.00454118 -1.10604e-19 -0.0235083 9.6556e-22 -2.36645e-06)
(0.0248582 -0.000351014 -2.54053e-19 -0.024856 -4.6308e-21 -2.17816e-06)
(0.0261536 0.00340824 -1.68004e-19 -0.0261517 1.4929e-19 -1.90317e-06)
(0.0274216 0.00673245 -3.29353e-20 -0.02742 -4.12216e-20 -1.52556e-06)
(0.0286671 0.00960463 -3.39077e-19 -0.0286661 9.30507e-20 -1.02813e-06)
(0.0298444 0.0119419 1.64579e-19 -0.029844 1.56244e-20 -3.89781e-07)
(-0.0620468 -0.164976 -9.90803e-22 0.062047 -3.90889e-21 -1.93642e-07)
(-0.0369388 -0.133575 8.87172e-21 0.0369393 -1.45559e-20 -5.15798e-07)
(-0.0206184 -0.109782 2.29339e-20 0.0206192 -1.66824e-20 -7.99535e-07)
(-0.00961943 -0.091048 8.84313e-20 0.00962048 -7.1823e-20 -1.05181e-06)
(-0.00196195 -0.0758314 1.91116e-20 0.00196322 -1.33871e-19 -1.27722e-06)
(0.00354211 -0.0631332 -9.14683e-20 -0.00354063 -8.47444e-20 -1.47816e-06)
(0.00761977 -0.0523068 -9.30957e-20 -0.00761811 -1.80253e-20 -1.65593e-06)
(0.0107406 -0.0428994 2.06363e-20 -0.0107388 -1.74341e-21 -1.81032e-06)
(0.0132037 -0.0346067 1.16088e-19 -0.0132018 -1.07389e-19 -1.94046e-06)
(0.0152167 -0.0272013 -3.14928e-20 -0.0152147 -1.62738e-19 -2.04406e-06)
(0.0169121 -0.0205303 -9.96032e-20 -0.01691 -1.14891e-19 -2.11829e-06)
(0.0183913 -0.014473 -7.30394e-20 -0.0183891 -6.93282e-20 -2.15874e-06)
(0.0197147 -0.00895312 -2.96508e-20 -0.0197125 -1.23124e-19 -2.16038e-06)
(0.0209372 -0.00390717 -1.73965e-19 -0.0209351 -1.56166e-19 -2.11634e-06)
(0.022085 0.000696671 -3.00094e-19 -0.022083 -5.27903e-20 -2.01901e-06)
(0.0231916 0.00488646 -2.31533e-19 -0.0231897 3.98104e-20 -1.85849e-06)
(0.0242651 0.00866355 -2.10812e-19 -0.0242635 1.73327e-19 -1.62396e-06)
(0.0253285 0.0120292 1.16177e-19 -0.0253272 2.34126e-19 -1.30183e-06)
(0.0263872 0.0149687 1.05871e-19 -0.0263863 5.31313e-20 -8.77409e-07)
(0.0274014 0.0173951 3.72882e-20 -0.0274011 -9.71992e-20 -3.32665e-07)
(-0.051129 -0.168674 -1.89879e-20 0.0511291 1.71586e-21 -1.5937e-07)
(-0.0295657 -0.133692 -3.35026e-20 0.0295661 3.31191e-22 -4.24492e-07)
(-0.015633 -0.107771 -2.73578e-20 0.0156336 -1.13563e-20 -6.57998e-07)
(-0.00630979 -0.0877623 -2.46886e-20 0.00631065 -5.18206e-20 -8.65623e-07)
(0.000127313 -0.0717862 -8.02509e-20 -0.000126262 -6.25369e-20 -1.05116e-06)
(0.00471069 -0.0586457 -1.18522e-19 -0.00470947 -1.73832e-20 -1.21658e-06)
(0.00807122 -0.0475755 -2.81863e-20 -0.00806985 -2.83476e-20 -1.36296e-06)
(0.0106155 -0.0380475 -5.61655e-20 -0.010614 -5.91835e-20 -1.49012e-06)
(0.0126021 -0.0297107 -1.97612e-20 -0.0126005 -1.08303e-19 -1.59735e-06)
(0.0142102 -0.0223064 -6.54523e-20 -0.0142085 -9.54348e-20 -1.68276e-06)
(0.0155538 -0.0156618 -2.00006e-20 -0.0155521 -1.16049e-19 -1.74401e-06)
(0.0167203 -0.00964165 -1.26166e-19 -0.0167185 -1.24173e-19 -1.77747e-06)
(0.0177614 -0.00416083 -1.17472e-19 -0.0177596 -1.19385e-19 -1.77898e-06)
(0.0187245 0.000852161 -2.32384e-19 -0.0187227 -8.17629e-20 -1.74289e-06)
(0.019632 0.00543294 -1.95307e-19 -0.0196303 2.55262e-20 -1.66289e-06)
(0.020513 0.00961516 -2.28276e-19 -0.0205115 4.2329e-20 -1.53083e-06)
(0.0213749 0.0134019 -2.2531e-19 -0.0213735 1.58157e-19 -1.33778e-06)
(0.0222379 0.0167992 9.57595e-20 -0.0222368 1.20631e-19 -1.07251e-06)
(0.0231072 0.0197945 7.41008e-20 -0.0231065 -1.52864e-20 -7.22921e-07)
(0.0239497 0.0222973 5.61059e-21 -0.0239494 2.00782e-20 -2.74122e-07)
(-0.0399939 -0.171651 -2.69108e-20 0.039994 2.82552e-21 -1.24402e-07)
(-0.0225656 -0.133647 -5.19165e-20 0.022566 2.74909e-21 -3.31339e-07)
(-0.0113562 -0.105936 -5.55598e-20 0.0113567 -7.94022e-21 -5.136e-07)
(-0.00389664 -0.0848587 -6.66566e-20 0.00389732 -2.63909e-20 -6.7568e-07)
(0.00122019 -0.0682507 -7.84641e-20 -0.00121937 -1.58867e-20 -8.20547e-07)
(0.00483611 -0.0547467 -1.53e-20 -0.00483516 -1.8166e-20 -9.49737e-07)
(0.00746501 -0.04348 -6.23931e-21 -0.00746395 -4.24271e-20 -1.06409e-06)
(0.0094376 -0.0338593 2.64673e-20 -0.00943644 -7.32589e-20 -1.16348e-06)