/*--------------------------------*- C++ -*----------------------------------*\
| =========                 |                                                 |
| \\      /  F ield         | foam-extend: Open Source CFD                    |
|  \\    /   O peration     | Version:  3.0                                   |
|   \\  /    A nd           | Web:         http://www.extend-project.de       |
|    \\/     M anipulation  |                                                 |
\*---------------------------------------------------------------------------*/
FoamFile
{
    version     2.0;
    format      ascii;
    class       volVectorField;
    location    "27";
    object      u;
}
// * * * * * * * * * * * * * * * * * * * * * * * * * * * * * * * * * * * * * //

dimensions      [0 0 0 0 0 0 0];

internalField   nonuniform List<vector> 
1920
(
(0.148266 -0.0596712 5.64932e-18)
(0.341357 -0.047209 1.88862e-18)
(0.490955 -0.0380448 1.83101e-18)
(0.596995 -0.0309638 -4.80395e-19)
(0.684713 -0.0255655 4.16384e-18)
(0.747358 -0.0212441 1.07616e-18)
(0.802549 -0.0178295 3.48014e-18)
(0.841337 -0.0150178 2.31703e-18)
(0.877895 -0.0127116 6.58415e-19)
(0.902444 -0.0107745 -7.02359e-19)
(0.92754 -0.00911481 -2.01511e-18)
(0.942945 -0.00770567 7.40925e-19)
(0.960534 -0.00643082 2.005e-18)
(0.969635 -0.00534797 -7.96367e-19)
(0.982012 -0.00429941 -6.75252e-19)
(0.98644 -0.00341822 9.26196e-19)
(0.994978 -0.00249342 -7.47115e-18)
(0.995671 -0.00173022 -2.00737e-18)
(1.0012 -0.000874524 -3.51068e-18)
(0.998725 -5.5336e-05 9.53386e-19)
(0.163843 -0.177993 9.6836e-18)
(0.353681 -0.140819 1.21817e-18)
(0.500887 -0.113484 2.68692e-18)
(0.605079 -0.0923618 -5.20851e-18)
(0.691387 -0.0762593 -2.71724e-18)
(0.752904 -0.0633688 -7.96095e-20)
(0.807204 -0.0531835 -2.28158e-18)
(0.845257 -0.0447967 7.95416e-18)
(0.881213 -0.0379175 5.84566e-18)
(0.905257 -0.0321393 6.24978e-18)
(0.929919 -0.0271886 3.56403e-18)
(0.944956 -0.0229853 5.39568e-18)
(0.962213 -0.0191826 1.67961e-18)
(0.971031 -0.0159526 1.4899e-18)
(0.983135 -0.0128248 2.506e-18)
(0.987332 -0.0101963 1.22252e-17)
(0.995629 -0.00743771 1.39932e-17)
(0.996123 -0.00516116 1.2177e-17)
(1.00143 -0.00260869 5.29926e-18)
(0.99874 -0.000164997 4.05051e-18)
(0.194731 -0.293269 4.75825e-18)
(0.378118 -0.23202 6.68338e-19)
(0.52058 -0.186981 4.67799e-18)
(0.621107 -0.152179 4.83056e-18)
(0.70462 -0.125648 -1.7929e-18)
(0.763901 -0.104409 1.63782e-18)
(0.816433 -0.0876275 6.16673e-18)
(0.853031 -0.0738091 -8.15583e-18)
(0.887793 -0.0624747 -8.48732e-18)
(0.910834 -0.0529542 -5.41826e-18)
(0.934638 -0.0447972 -5.06883e-18)
(0.948945 -0.0378717 -1.65947e-18)
(0.965542 -0.0316061 4.54739e-19)
(0.973799 -0.0262842 -2.47234e-18)
(0.98536 -0.0211308 -1.10094e-17)
(0.989102 -0.0167999 -9.9441e-18)
(0.99692 -0.0122547 -1.83661e-17)
(0.997018 -0.00850378 -8.14773e-18)
(1.00188 -0.00429823 -1.53575e-17)
(0.998768 -0.000271826 1.15444e-17)
(0.240402 -0.403528 7.46932e-18)
(0.41425 -0.319252 3.66754e-18)
(0.549698 -0.257279 4.51574e-18)
(0.644805 -0.209393 4.45207e-18)
(0.724188 -0.172887 2.36157e-18)
(0.78016 -0.143663 -1.01092e-17)
(0.830079 -0.120572 -6.33926e-18)
(0.864525 -0.101559 -8.44874e-18)
(0.897523 -0.0859628 -1.73984e-17)
(0.919081 -0.0728631 -2.02912e-18)
(0.941614 -0.0616394 -1.13669e-18)
(0.954843 -0.0521101 -9.56665e-18)
(0.970464 -0.0434889 9.87813e-18)
(0.977893 -0.0361661 9.04245e-19)
(0.988651 -0.0290752 3.93544e-18)
(0.991718 -0.0231161 -1.15175e-17)
(0.998828 -0.0168621 -7.70315e-18)
(0.998343 -0.0117009 6.27937e-18)
(1.00255 -0.00591422 1.40236e-17)
(0.998811 -0.00037402 2.98124e-18)
(0.300073 -0.506881 1.28465e-17)
(0.461459 -0.40102 7.42776e-18)
(0.587743 -0.323174 7.25891e-18)
(0.675769 -0.263024 1.14913e-17)
(0.749753 -0.217168 1.63618e-17)
(0.801405 -0.180459 1.0497e-17)
(0.847909 -0.151454 1.29176e-18)
(0.879543 -0.12757 9.50648e-18)
(0.910234 -0.10798 5.00105e-18)
(0.929855 -0.0915252 6.8269e-18)
(0.950729 -0.0774268 1.75571e-18)
(0.962548 -0.0654568 -1.08724e-17)
(0.976895 -0.0546275 4.90007e-18)
(0.983241 -0.0454291 1.40773e-17)
(0.99295 -0.0365221 -1.11788e-17)
(0.995136 -0.0290367 3.14446e-17)
(1.00132 -0.0211809 -1.48869e-17)
(1.00007 -0.0146978 1.43088e-17)
(1.00342 -0.00742902 -1.27387e-17)
(0.998866 -0.000469797 -1.78051e-18)
(0.372724 -0.601562 1.81643e-17)
(0.518938 -0.475927 1.48929e-17)
(0.634064 -0.383541 1.21782e-17)
(0.713468 -0.312155 -1.87882e-17)
(0.78088 -0.257733 2.96094e-18)
(0.82727 -0.214168 -4.04329e-19)
(0.869617 -0.179744 2.64374e-17)
(0.897828 -0.151399 1.37561e-18)
(0.925711 -0.12815 6.46157e-19)
(0.942974 -0.108621 -2.06751e-17)
(0.961826 -0.0918895 8.6879e-18)
(0.97193 -0.0776836 -5.17435e-18)
(0.984725 -0.0648315 2.75899e-18)
(0.989752 -0.0539149 -1.7158e-17)
(0.998185 -0.0433441 3.50921e-21)
(0.999298 -0.0344605 5.81583e-18)
(1.00436 -0.0251373 -2.78288e-18)
(1.00218 -0.0174433 3.3344e-18)
(1.00449 -0.00881669 5.01796e-19)
(0.998933 -0.000557562 -2.51103e-17)
(0.457112 -0.68595 -6.18293e-18)
(0.585701 -0.542691 -1.11672e-17)
(0.687867 -0.437344 -9.39704e-18)
(0.757258 -0.355944 1.97705e-18)
(0.817035 -0.293889 2.81585e-18)
(0.857314 -0.244211 -1.93832e-18)
(0.894831 -0.204959 -5.55162e-18)
(0.919067 -0.172638 -1.03394e-17)
(0.943688 -0.146127 1.15665e-17)
(0.958211 -0.123859 -1.57991e-17)
(0.974717 -0.10478 -1.30783e-18)
(0.982828 -0.0885811 -2.44055e-17)
(0.993819 -0.0739262 -9.84616e-19)
(0.997315 -0.0614782 -4.08996e-17)
(1.00427 -0.0494245 -1.67599e-17)
(1.00413 -0.0392947 -3.06506e-19)
(1.00788 -0.0286636 -8.67043e-18)
(1.00463 -0.0198902 -2.30781e-17)
(1.00572 -0.0100535 1.74188e-17)
(0.999011 -0.000635761 -2.5076e-17)
(0.551794 -0.758602 -8.77786e-19)
(0.660608 -0.600169 -3.42335e-17)
(0.748234 -0.483665 -5.57954e-19)
(0.806389 -0.393644 5.03885e-18)
(0.8576 -0.325015 -1.82836e-17)
(0.891022 -0.270077 -4.62803e-18)
(0.923122 -0.226667 2.18323e-18)
(0.942896 -0.190923 2.316e-18)
(0.963858 -0.161604 3.10762e-17)
(0.975307 -0.136977 -4.34104e-18)
(0.989179 -0.115877 1.7752e-17)
(0.995055 -0.0979631 -1.38787e-18)
(1.00402 -0.0817559 3.96391e-17)
(1.0058 -0.0679896 -1.59716e-17)
(1.01109 -0.0546592 2.15208e-17)
(1.00956 -0.0434566 3.26767e-17)
(1.01184 -0.0316995 -1.99077e-17)
(1.00737 -0.0219969 5.76423e-17)
(1.00711 -0.0111183 1.00147e-18)
(0.999099 -0.00070312 5.17489e-17)
(0.655147 -0.818273 3.79074e-18)
(0.742377 -0.647378 -5.80086e-18)
(0.814129 -0.52171 -5.56979e-18)
(0.86002 -0.424607 3.93309e-18)
(0.901881 -0.350581 1.18716e-17)
(0.927818 -0.291321 -1.16456e-17)
(0.954003 -0.244496 1.12581e-17)
(0.968907 -0.205941 4.68984e-18)
(0.985875 -0.174315 8.37596e-18)
(0.993969 -0.147752 2.85636e-17)
(1.00497 -0.124992 -1.52638e-17)
(1.0084 -0.105669 -3.32689e-17)
(1.01516 -0.0881868 3.20712e-17)
(1.01506 -0.0733376 -1.92824e-17)
(1.01853 -0.0589587 -2.43276e-18)
(1.01548 -0.0468748 -1.59708e-17)
(1.01616 -0.034193 2.28044e-17)
(1.01037 -0.0237271 3.23901e-17)
(1.00863 -0.0119929 -2.66024e-17)
(0.999195 -0.000758412 2.75263e-17)
(0.765406 -0.863944 1.30738e-17)
(0.829608 -0.683511 -1.44445e-18)
(0.884427 -0.550828 4.71642e-19)
(0.917233 -0.448306 6.14563e-18)
(0.94912 -0.370148 5.6739e-18)
(0.967072 -0.30758 1.15267e-17)
(0.986948 -0.258143 5.7521e-18)
(0.996657 -0.217435 1.66876e-17)
(1.00936 -0.184045 -6.52124e-18)
(1.01388 -0.155998 -8.96446e-18)
(1.02181 -0.131969 -5.51269e-18)
(1.02264 -0.111567 -2.15478e-17)
(1.02704 -0.0931088 -1.11835e-17)
(1.02495 -0.0774309 5.77327e-18)
(1.02648 -0.0622494 -2.78596e-17)
(1.02179 -0.0494911 1.86161e-17)
(1.02077 -0.0361014 -5.37819e-17)
(1.01357 -0.0250514 5.40364e-19)
(1.01024 -0.0126623 -2.63101e-17)
(0.999297 -0.000800774 2.28296e-17)
(0.880682 -0.894832 -1.42827e-17)
(0.920809 -0.707948 -6.20141e-19)
(0.957924 -0.570522 5.04797e-18)
(0.977051 -0.464334 -3.48225e-18)
(0.998509 -0.383382 2.34518e-17)
(1.00811 -0.318577 -2.63237e-17)
(1.02139 -0.267372 -9.49705e-18)
(1.02567 -0.225209 -8.41715e-18)
(1.03392 -0.190625 -3.44376e-18)
(1.03469 -0.161576 -3.1484e-17)
(1.03942 -0.136687 -6.81906e-19)
(1.03753 -0.115555 2.33979e-17)
(1.03947 -0.0964377 -4.99389e-18)
(1.03528 -0.0801992 -2.39582e-17)
(1.03478 -0.064475 -6.8746e-18)
(1.0284 -0.0512605 7.3924e-18)
(1.02558 -0.0373921 2.12451e-17)
(1.01691 -0.0259471 3.88415e-18)
(1.01193 -0.013115 1.3743e-17)
(0.999404 -0.00082939 -7.69141e-17)
(0.999004 -0.910409 -1.61725e-17)
(1.01442 -0.720272 -1.43577e-17)
(1.03336 -0.580453 -4.65877e-19)
(1.03845 -0.472417 4.85493e-18)
(1.0492 -0.390056 -1.26956e-17)
(1.05024 -0.324123 -7.66e-18)
(1.05675 -0.272026 5.58226e-18)
(1.05545 -0.229129 -4.93316e-18)
(1.05913 -0.193943 1.96585e-17)
(1.05606 -0.164388 1.30071e-17)
(1.05749 -0.139066 1.07256e-18)
(1.05281 -0.117567 4.64476e-18)
(1.05222 -0.0981165 2.83758e-18)
(1.04588 -0.0815953 4.52304e-17)
(1.04331 -0.0655973 -2.60756e-17)
(1.03517 -0.0521529 -1.27089e-18)
(1.03053 -0.038043 -2.68067e-18)
(1.02034 -0.0263988 -3.96625e-18)
(1.01367 -0.0133433 -1.8781e-17)
(0.999514 -0.000843868 3.1244e-17)
(1.11835 -0.910409 -7.1856e-18)
(1.10884 -0.720272 -1.50917e-17)
(1.10945 -0.580453 -3.07456e-18)
(1.10038 -0.472417 1.00349e-17)
(1.10033 -0.390056 -2.35846e-17)
(1.09273 -0.324123 -5.9207e-18)
(1.09241 -0.272026 -4.87945e-18)
(1.08548 -0.229129 6.62154e-18)
(1.08455 -0.193943 1.87037e-17)
(1.07761 -0.164388 1.85533e-17)
(1.07572 -0.139066 1.76637e-18)
(1.06822 -0.117567 2.16093e-18)
(1.06508 -0.0981165 -8.51192e-19)
(1.05658 -0.0815953 7.12935e-18)
(1.05191 -0.0655974 1.95156e-17)
(1.04201 -0.0521529 8.30827e-19)
(1.03551 -0.0380431 2.38973e-18)
(1.0238 -0.0263988 1.33779e-18)
(1.01542 -0.0133433 1.7353e-17)
(0.999624 -0.000843854 5.3726e-19)
(1.23667 -0.894832 -1.30317e-17)
(1.20245 -0.707948 9.86066e-18)
(1.18489 -0.570522 -8.15687e-18)
(1.16177 -0.464334 -5.9832e-18)
(1.15103 -0.383382 1.32621e-18)
(1.13485 -0.318577 -5.3602e-18)
(1.12776 -0.267372 1.66039e-18)
(1.11526 -0.225209 -2.13698e-17)
(1.10976 -0.190625 -2.71758e-17)
(1.09897 -0.161576 5.04828e-18)
(1.09379 -0.136687 1.26507e-17)
(1.0835 -0.115555 1.30849e-17)
(1.07783 -0.0964377 -3.98331e-18)
(1.06718 -0.0801992 -1.87423e-17)
(1.06043 -0.0644749 3.03736e-18)
(1.04879 -0.0512605 3.44444e-18)
(1.04046 -0.0373921 2.40384e-17)
(1.02723 -0.0259471 1.01975e-18)
(1.01715 -0.013115 -9.99361e-18)
(0.999734 -0.000829461 3.31989e-17)
(1.35194 -0.863944 5.54476e-18)
(1.29365 -0.683511 2.97917e-18)
(1.25839 -0.550828 -9.89994e-18)
(1.22159 -0.448306 -1.63435e-18)
(1.20042 -0.370148 5.83521e-18)
(1.17589 -0.30758 1.62562e-17)
(1.1622 -0.258143 1.48359e-18)
(1.14428 -0.217435 6.96303e-18)
(1.13431 -0.184045 -2.18255e-17)
(1.11979 -0.155998 7.97004e-18)
(1.1114 -0.131969 -8.32516e-19)
(1.09838 -0.111567 1.83176e-19)
(1.09026 -0.0931088 -2.56951e-17)
(1.07751 -0.0774308 7.01007e-19)
(1.06874 -0.0622494 -2.3994e-17)
(1.05539 -0.0494911 -2.71132e-17)
(1.04528 -0.0361014 -1.83924e-17)
(1.03057 -0.0250515 -2.30328e-17)
(1.01884 -0.0126623 1.11187e-17)
(0.999841 -0.000800814 -4.70899e-17)
(1.4622 -0.818273 2.26486e-18)
(1.38088 -0.647378 7.99779e-18)
(1.32869 -0.52171 -1.29138e-17)
(1.27881 -0.424607 -1.99785e-18)
(1.24766 -0.350581 3.35606e-18)
(1.21514 -0.291321 1.43266e-17)
(1.19515 -0.244496 -5.42926e-18)
(1.17202 -0.205941 3.07496e-19)
(1.1578 -0.174315 -7.18919e-18)
(1.1397 -0.147752 5.99485e-18)
(1.12825 -0.124992 -7.23935e-18)
(1.11262 -0.105669 2.34826e-17)
(1.10214 -0.0881868 -4.47467e-18)
(1.0874 -0.0733377 2.85951e-18)
(1.07668 -0.0589587 2.07187e-17)
(1.06171 -0.0468749 -1.93914e-17)
(1.04988 -0.034193 1.55752e-17)
(1.03377 -0.0237272 -1.87207e-17)
(1.02045 -0.0119929 2.06659e-17)
(0.999943 -0.00075853 8.16701e-18)
(1.56556 -0.758602 -1.9623e-18)
(1.46265 -0.600169 -1.11526e-17)
(1.39458 -0.483665 2.89977e-18)
(1.33244 -0.393643 -4.33222e-18)
(1.29194 -0.325015 -1.23517e-17)
(1.25194 -0.270076 3.50913e-18)
(1.22603 -0.226667 -9.6596e-19)
(1.19804 -0.190923 3.10282e-18)
(1.17982 -0.161604 2.07929e-17)
(1.15836 -0.136977 -1.06184e-17)
(1.14403 -0.115877 -7.37788e-18)
(1.12597 -0.0979631 2.53225e-17)
(1.11328 -0.081756 2.64647e-18)
(1.09666 -0.0679896 2.7867e-17)
(1.08413 -0.0546593 -1.84864e-18)
(1.06763 -0.0434566 1.35257e-17)
(1.0542 -0.0316996 1.73239e-17)
(1.03677 -0.0219969 -6.51301e-18)
(1.02197 -0.0111184 3.4501e-18)
(1.00004 -0.000703197 -3.77703e-18)
(1.66024 -0.685951 -5.05971e-18)
(1.53756 -0.542691 -2.44879e-18)
(1.45495 -0.437344 -3.48918e-18)
(1.38157 -0.355944 3.63269e-18)
(1.3325 -0.293888 -5.48962e-18)
(1.28565 -0.244211 1.55249e-18)
(1.25432 -0.204959 8.10875e-20)
(1.22187 -0.172638 -1.03691e-18)
(1.19999 -0.146127 -1.0196e-17)
(1.17545 -0.123859 1.13782e-18)
(1.1585 -0.10478 -3.01282e-18)
(1.1382 -0.0885812 -4.14955e-18)
(1.12348 -0.0739262 -1.70818e-17)
(1.10515 -0.0614783 2.68591e-18)
(1.09095 -0.0494245 -8.8178e-18)
(1.07305 -0.0392948 -2.35275e-18)
(1.05816 -0.0286637 5.62922e-19)
(1.03951 -0.0198903 -1.45161e-17)
(1.02336 -0.0100536 2.59276e-17)
(1.00013 -0.000635902 -2.2423e-17)
(1.74463 -0.601563 7.36575e-18)
(1.60432 -0.475927 6.63215e-18)
(1.50875 -0.383541 4.3414e-18)
(1.42536 -0.312155 -7.37982e-18)
(1.36866 -0.257733 -8.73213e-19)
(1.31569 -0.214168 4.09433e-18)
(1.27953 -0.179744 6.1299e-18)
(1.2431 -0.151399 -1.84556e-19)
(1.21797 -0.12815 -9.87249e-18)
(1.19069 -0.108621 6.74739e-19)
(1.17139 -0.0918895 2.3357e-18)
(1.14909 -0.0776836 1.26707e-18)
(1.13258 -0.0648315 -2.80452e-18)
(1.11271 -0.053915 -1.28911e-18)
(1.09703 -0.0433442 1.2444e-17)
(1.07789 -0.0344606 1.81223e-18)
(1.06168 -0.0251374 1.14661e-17)
(1.04196 -0.0174433 -4.96035e-18)
(1.02459 -0.0088168 -1.58841e-17)
(1.0002 -0.000557651 3.90249e-18)
(1.81728 -0.506882 3.98446e-18)
(1.6618 -0.40102 3.79982e-18)
(1.55507 -0.323174 2.63933e-18)
(1.46306 -0.263024 2.64884e-18)
(1.39978 -0.217168 4.76837e-18)
(1.34156 -0.180459 4.52636e-18)
(1.30124 -0.151454 -2.29947e-18)
(1.26139 -0.12757 3.53067e-18)
(1.23344 -0.10798 2.64715e-18)
(1.20381 -0.0915253 3.74152e-18)
(1.18248 -0.0774268 -4.81798e-18)
(1.15847 -0.0654569 3.5615e-18)
(1.14041 -0.0546276 -2.14548e-19)
(1.11922 -0.0454292 5.13185e-18)
(1.10227 -0.0365221 -2.36659e-18)
(1.08205 -0.0290368 1.24318e-19)
(1.06472 -0.021181 6.94568e-18)
(1.04407 -0.0146979 -4.46814e-18)
(1.02566 -0.00742908 3.89436e-18)
(1.00027 -0.00046993 1.17824e-18)
(1.87695 -0.403528 2.6138e-18)
(1.70901 -0.319252 2.40958e-18)
(1.59312 -0.257279 1.65995e-18)
(1.49402 -0.209393 1.46847e-18)
(1.42535 -0.172887 1.49709e-18)
(1.3628 -0.143663 -3.13543e-18)
(1.31907 -0.120572 -1.24085e-18)
(1.27641 -0.101559 -3.43379e-18)
(1.24615 -0.0859629 -1.14443e-18)
(1.21458 -0.0728631 1.12314e-18)
(1.1916 -0.0616394 -6.77191e-19)
(1.16618 -0.0521101 3.79368e-18)
(1.14684 -0.043489 -1.02068e-18)
(1.12457 -0.0361661 3.33915e-18)
(1.10657 -0.0290753 1.10311e-17)
(1.08547 -0.0231161 -2.48185e-18)
(1.06721 -0.0168622 1.26051e-18)
(1.0458 -0.011701 -8.07773e-19)
(1.02653 -0.00591432 -1.43652e-19)
(1.00033 -0.000374088 -2.69357e-18)
(1.92262 -0.293269 1.23787e-18)
(1.74514 -0.232021 1.53445e-18)
(1.62224 -0.186981 9.68325e-19)
(1.51772 -0.152179 2.18872e-18)
(1.44492 -0.125648 1.31094e-18)
(1.37906 -0.104409 -1.62093e-18)
(1.33272 -0.0876275 1.82704e-19)
(1.2879 -0.0738091 -2.34156e-18)
(1.25588 -0.0624747 -1.55801e-18)
(1.22283 -0.0529543 -6.04296e-19)
(1.19857 -0.0447973 3.25873e-19)
(1.17208 -0.0378718 -1.09925e-19)
(1.15176 -0.0316062 -3.98998e-20)
(1.12866 -0.0262843 1.24039e-18)
(1.10986 -0.0211308 1.20167e-18)
(1.08808 -0.0168 -2.40988e-18)
(1.06912 -0.0122548 -2.87879e-18)
(1.04712 -0.00850389 -2.17834e-18)
(1.0272 -0.00429829 2.16616e-18)
(1.00037 -0.00027192 -2.96342e-18)
(1.95351 -0.177993 1.23386e-18)
(1.76958 -0.140819 9.97941e-19)
(1.64193 -0.113484 5.76106e-19)
(1.53375 -0.0923617 2.81984e-19)
(1.45815 -0.0762593 2.50889e-19)
(1.39006 -0.0633688 -7.88745e-19)
(1.34195 -0.0531835 -1.02104e-19)
(1.29567 -0.0447967 -6.08995e-19)
(1.26246 -0.0379176 4.77062e-20)
(1.22841 -0.0321394 1.55744e-18)
(1.20329 -0.0271887 3.57574e-19)
(1.17607 -0.0229854 1.0437e-18)
(1.15509 -0.0191827 6.09743e-19)
(1.13143 -0.0159526 1.23295e-18)
(1.11208 -0.0128249 1.50536e-18)
(1.08985 -0.0101964 1.19419e-18)
(1.07041 -0.00743781 1.34639e-18)
(1.04802 -0.00516122 1.66366e-18)
(1.02766 -0.00260879 1.01536e-18)
(1.0004 -0.000165015 6.43714e-19)
(1.96908 -0.0596713 4.48056e-19)
(1.7819 -0.0472091 5.51399e-19)
(1.65186 -0.0380448 2.54353e-19)
(1.54183 -0.0309638 2.4083e-19)
(1.46482 -0.0255655 2.4709e-19)
(1.3956 -0.0212441 -3.02119e-19)
(1.3466 -0.0178295 1.1257e-19)
(1.2996 -0.0150179 -2.99172e-19)
(1.26578 -0.0127116 2.50226e-19)
(1.23122 -0.0107746 9.54962e-19)
(1.20567 -0.00911485 8.31957e-19)
(1.17808 -0.00770577 9.00069e-19)
(1.15677 -0.00643088 6.00905e-19)
(1.13283 -0.00534808 1.17334e-18)
(1.11321 -0.00429948 1.29619e-18)
(1.09075 -0.00341833 1.03905e-18)
(1.07106 -0.00249348 1.43355e-18)
(1.04847 -0.00173033 1.6097e-18)
(1.02788 -0.00087457 8.08395e-19)
(1.00041 -5.5364e-05 1.13773e-18)
(1.96908 0.0596714 -4.3049e-19)
(1.7819 0.0472092 1.64747e-19)
(1.65186 0.038045 -7.72607e-20)
(1.54183 0.030964 3.26909e-19)
(1.46482 0.0255656 1.91748e-19)
(1.3956 0.0212442 1.86754e-20)
(1.3466 0.0178296 1.47361e-19)
(1.2996 0.015018 -1.47083e-19)
(1.26578 0.0127117 3.27496e-19)
(1.23122 0.0107746 6.42449e-19)
(1.20567 0.00911487 8.63814e-19)
(1.17808 0.00770577 7.46875e-19)
(1.15677 0.00643086 6.10994e-19)
(1.13283 0.00534804 1.09845e-18)
(1.11321 0.00429943 1.23705e-18)
(1.09075 0.00341827 6.3523e-19)
(1.07106 0.00249343 1.06324e-18)
(1.04847 0.00173026 7.41648e-19)
(1.02788 0.00087453 6.80251e-19)
(1.00041 5.53198e-05 8.17976e-19)
(1.95351 0.177993 -1.45463e-18)
(1.76958 0.14082 -1.48859e-19)
(1.64193 0.113484 -5.24626e-19)
(1.53375 0.0923619 4.05075e-19)
(1.45815 0.0762594 3.03277e-19)
(1.39006 0.0633689 1.31647e-19)
(1.34195 0.0531836 2.14763e-19)
(1.29567 0.0447968 -9.80209e-21)
(1.26246 0.0379177 6.19422e-19)
(1.22841 0.0321394 4.9779e-19)
(1.20329 0.0271887 8.69845e-19)
(1.17607 0.0229854 7.3517e-19)
(1.15509 0.0191827 8.05225e-19)
(1.13143 0.0159526 1.07012e-18)
(1.11208 0.0128249 1.57206e-18)
(1.08985 0.0101963 5.43756e-19)
(1.07041 0.00743776 7.25772e-19)
(1.04802 0.00516116 4.24127e-20)
(1.02766 0.00260875 8.84588e-19)
(1.0004 0.000164979 3.83079e-19)
(1.92262 0.293269 -1.528e-18)
(1.74514 0.232021 -4.7309e-19)
(1.62224 0.186981 -1.08554e-18)
(1.51772 0.15218 -1.21125e-18)
(1.44492 0.125648 -4.09617e-19)
(1.37906 0.10441 5.79589e-20)
(1.33272 0.0876276 -1.13729e-18)
(1.2879 0.0738092 2.09357e-18)
(1.25588 0.0624747 2.78457e-18)
(1.22283 0.0529544 1.87715e-18)
(1.19857 0.0447973 1.9967e-18)
(1.17208 0.0378718 2.13468e-18)
(1.15176 0.0316062 5.8181e-19)
(1.12866 0.0262842 1.34409e-18)
(1.10986 0.0211308 3.1357e-18)
(1.08808 0.0168 3.14089e-18)
(1.06912 0.0122547 5.35191e-18)
(1.04712 0.00850384 2.01692e-18)
(1.0272 0.00429826 2.88314e-18)
(1.00037 0.000271901 -8.72823e-19)
(1.87695 0.403528 -2.84681e-18)
(1.70901 0.319252 -1.35189e-18)
(1.59312 0.257279 -1.24641e-18)
(1.49402 0.209393 -1.17262e-18)
(1.42535 0.172887 -1.8794e-18)
(1.3628 0.143663 2.11307e-18)
(1.31907 0.120572 6.43109e-19)
(1.27641 0.101559 1.08891e-18)
(1.24615 0.0859629 3.37348e-18)
(1.21458 0.0728631 2.13748e-19)
(1.1916 0.0616394 3.86988e-19)
(1.16618 0.0521101 3.69581e-18)
(1.14684 0.0434889 -1.58659e-18)
(1.12457 0.0361661 2.98025e-19)
(1.10657 0.0290752 -7.31751e-19)
(1.08547 0.0231161 1.2809e-18)
(1.06721 0.0168621 2.36763e-18)
(1.0458 0.0117009 -2.6307e-18)
(1.02653 0.0059143 -3.26099e-18)
(1.00033 0.000374092 7.38509e-19)
(1.81728 0.506882 -4.77154e-18)
(1.6618 0.40102 -2.25385e-18)
(1.55507 0.323175 -2.00704e-18)
(1.46306 0.263024 -2.29981e-18)
(1.39978 0.217168 -5.49468e-18)
(1.34156 0.180459 -3.19036e-18)
(1.30124 0.151454 -2.10629e-18)
(1.26139 0.12757 -3.83667e-18)
(1.23344 0.10798 -3.13643e-18)
(1.20381 0.0915253 -1.82428e-18)
(1.18248 0.0774268 -5.69337e-19)
(1.15847 0.0654569 4.01348e-18)
(1.14041 0.0546275 -3.22492e-19)
(1.11922 0.0454292 -2.04027e-18)
(1.10227 0.0365221 3.73434e-18)
(1.08205 0.0290368 -1.01263e-17)
(1.06472 0.0211809 4.74156e-18)
(1.04407 0.0146979 -4.81645e-18)
(1.02566 0.00742907 4.01345e-18)
(1.00027 0.000469965 2.14757e-18)
(1.74463 0.601563 -6.54552e-18)
(1.60432 0.475927 -3.83963e-18)
(1.50875 0.383541 -3.39228e-18)
(1.42536 0.312155 8.20335e-18)
(1.36866 0.257733 -8.01704e-19)
(1.31569 0.214168 1.3766e-18)
(1.27953 0.179744 -9.68639e-18)
(1.2431 0.151399 -2.70496e-19)
(1.21797 0.12815 -1.70354e-18)
(1.19069 0.108621 7.66176e-18)
(1.17139 0.0918895 -3.15332e-18)
(1.14909 0.0776836 2.84244e-18)
(1.13258 0.0648315 -7.99132e-19)
(1.11271 0.0539149 9.82035e-18)
(1.09703 0.0433441 6.59081e-20)
(1.07789 0.0344605 -1.40532e-18)
(1.06168 0.0251374 7.92467e-19)
(1.04196 0.0174433 -1.50298e-18)
(1.02459 0.0088168 -1.64161e-18)
(1.00021 0.00055772 8.56142e-18)
(1.66024 0.685951 3.06361e-18)
(1.53756 0.542691 7.58915e-18)
(1.45495 0.437344 5.01991e-18)
(1.38157 0.355944 -1.13754e-18)
(1.3325 0.293889 -7.78551e-19)
(1.28565 0.244211 2.13258e-18)
(1.25432 0.204959 3.43976e-18)
(1.22187 0.172638 4.03909e-18)
(1.19999 0.146127 -7.14846e-18)
(1.17545 0.123859 4.69883e-18)
(1.1585 0.10478 -4.87737e-19)
(1.13819 0.0885812 1.10451e-17)
(1.12348 0.0739261 -2.28804e-18)
(1.10515 0.0614782 1.84519e-17)
(1.09095 0.0494245 4.8628e-18)
(1.07305 0.0392948 -2.01759e-18)
(1.05816 0.0286636 2.81852e-18)
(1.03951 0.0198903 6.17174e-18)
(1.02336 0.0100536 -8.95973e-18)
(1.00013 0.00063601 5.83864e-18)
(1.56556 0.758602 -6.54638e-19)
(1.46265 0.600169 1.80756e-17)
(1.39458 0.483665 -4.75314e-19)
(1.33244 0.393644 -2.94537e-18)
(1.29194 0.325015 9.15456e-18)
(1.25194 0.270077 3.4137e-18)
(1.22603 0.226667 -1.60244e-18)
(1.19804 0.190923 -2.62047e-18)
(1.17982 0.161604 -1.71625e-17)
(1.15836 0.136977 -1.52442e-19)
(1.14403 0.115877 -9.04011e-18)
(1.12597 0.0979631 1.31217e-18)
(1.11328 0.0817559 -2.3505e-17)
(1.09666 0.0679896 6.37544e-18)
(1.08413 0.0546592 -1.30461e-17)
(1.06763 0.0434566 -1.84482e-17)
(1.0542 0.0316996 8.7696e-18)
(1.03677 0.0219969 -3.3351e-17)
(1.02197 0.0111185 1.71782e-18)
(1.00004 0.000703344 -3.01256e-17)
(1.4622 0.818273 -3.81064e-18)
(1.38088 0.647378 1.46968e-18)
(1.32869 0.52171 2.19343e-18)
(1.27881 0.424608 -2.42814e-18)
(1.24766 0.350581 -8.53711e-18)
(1.21514 0.291321 7.03471e-18)
(1.19515 0.244496 -6.3635e-18)
(1.17202 0.205941 -3.37059e-18)
(1.1578 0.174315 -3.94803e-18)
(1.1397 0.147752 -1.60159e-17)
(1.12825 0.124992 1.13853e-17)
(1.11262 0.105669 2.0311e-17)
(1.10214 0.0881868 -1.85878e-17)
(1.0874 0.0733376 1.02511e-17)
(1.07668 0.0589587 2.48254e-18)
(1.06171 0.0468749 9.8687e-18)
(1.04988 0.034193 -1.25082e-17)
(1.03377 0.0237272 -1.50344e-17)
(1.02045 0.011993 2.05132e-17)
(0.999943 0.000758716 -1.37504e-17)
(1.35194 0.863944 -8.9861e-18)
(1.29365 0.683511 -9.92941e-20)
(1.25839 0.550828 -1.18373e-18)
(1.22159 0.448306 -3.36896e-18)
(1.20042 0.370148 -4.09021e-18)
(1.17589 0.30758 -7.13734e-18)
(1.1622 0.258143 -1.39702e-18)
(1.14428 0.217435 -1.06401e-17)
(1.13431 0.184045 5.54114e-18)
(1.11979 0.155998 9.91001e-18)
(1.1114 0.131969 3.30373e-18)
(1.09838 0.111567 9.5767e-18)
(1.09026 0.0931088 7.52647e-18)
(1.07751 0.0774308 -6.06551e-18)
(1.06874 0.0622494 1.77787e-17)
(1.05539 0.0494911 -1.51484e-17)
(1.04528 0.0361015 3.78993e-17)
(1.03057 0.0250515 2.96794e-18)
(1.01884 0.0126624 1.78308e-17)
(0.999841 0.000801036 -9.6468e-18)
(1.23667 0.894832 1.30621e-17)
(1.20245 0.707948 5.30126e-19)
(1.18489 0.570522 -3.53188e-18)
(1.16177 0.464334 4.3866e-18)
(1.15103 0.383382 -1.69995e-17)
(1.13485 0.318577 2.25818e-17)
(1.12776 0.267372 9.16062e-18)
(1.11526 0.225209 8.40064e-18)
(1.10976 0.190625 1.7158e-18)
(1.09897 0.161576 2.30967e-17)
(1.09379 0.136687 -2.31424e-18)
(1.0835 0.115555 -2.44127e-17)
(1.07783 0.0964377 2.34848e-19)
(1.06718 0.0801992 1.4245e-17)
(1.06043 0.0644749 1.99876e-18)
(1.04879 0.0512605 -6.80881e-18)
(1.04046 0.0373921 -2.11617e-17)
(1.02723 0.0259472 -3.51491e-18)
(1.01715 0.0131151 -1.36394e-17)
(0.999734 0.000829716 6.20817e-17)
(1.11835 0.91041 1.45047e-17)
(1.10884 0.720272 1.29855e-17)
(1.10945 0.580453 2.01431e-18)
(1.10038 0.472417 -3.82021e-18)
(1.10033 0.390056 1.54724e-17)
(1.09273 0.324123 5.53017e-18)
(1.09241 0.272026 -5.27225e-18)
(1.08548 0.229129 4.80287e-18)
(1.08455 0.193943 -1.84141e-17)
(1.07761 0.164388 -1.73255e-17)
(1.07572 0.139066 -4.18966e-18)
(1.06822 0.117567 -6.01027e-18)
(1.06508 0.0981165 -4.47423e-18)
(1.05658 0.0815953 -4.51104e-17)
(1.05191 0.0655973 1.92499e-17)
(1.04201 0.0521529 3.09493e-19)
(1.03551 0.0380431 1.19339e-18)
(1.0238 0.0263989 3.04535e-18)
(1.01542 0.0133434 1.45853e-17)
(0.999625 0.000844134 -3.65449e-17)
(0.999004 0.910409 6.26276e-18)
(1.01442 0.720272 1.31425e-17)
(1.03336 0.580453 4.83531e-18)
(1.03845 0.472418 -9.86775e-18)
(1.0492 0.390056 2.48379e-17)
(1.05024 0.324123 3.79702e-18)
(1.05675 0.272026 5.00198e-18)
(1.05545 0.229129 -4.21604e-18)
(1.05913 0.193943 -1.38114e-17)
(1.05606 0.164388 -2.01035e-17)
(1.05749 0.139066 -3.76752e-18)
(1.05281 0.117567 -4.19682e-18)
(1.05222 0.0981165 2.66631e-18)
(1.04588 0.0815953 -3.77218e-18)
(1.04331 0.0655973 -2.24246e-17)
(1.03517 0.0521529 -1.4974e-19)
(1.03053 0.0380431 -4.65805e-18)
(1.02034 0.0263989 -9.81952e-19)
(1.01367 0.0133434 -2.01812e-17)
(0.999514 0.000844168 -3.30362e-18)
(0.880682 0.894832 1.41059e-17)
(0.920809 0.707948 -1.46849e-17)
(0.957924 0.570522 1.09999e-17)
(0.977051 0.464334 7.47811e-18)
(0.998509 0.383382 -4.79911e-18)
(1.00811 0.318577 2.17716e-18)
(1.02139 0.267372 -3.66436e-18)
(1.02567 0.225209 2.70815e-17)
(1.03392 0.190625 3.84122e-17)
(1.03469 0.161576 -4.42899e-18)
(1.03942 0.136687 -1.50792e-17)
(1.03753 0.115555 -1.76513e-17)
(1.03947 0.0964377 8.22302e-18)
(1.03528 0.0801992 2.17885e-17)
(1.03478 0.0644749 4.74111e-19)
(1.0284 0.0512605 7.71802e-19)
(1.02558 0.0373922 -2.77068e-17)
(1.01691 0.0259472 3.42471e-18)
(1.01193 0.0131151 1.2067e-17)
(0.999404 0.000829697 -3.56185e-17)
(0.765406 0.863944 -8.79091e-18)
(0.829608 0.683511 -4.72078e-18)
(0.884427 0.550828 1.36892e-17)
(0.917233 0.448306 1.22135e-18)
(0.94912 0.370148 -9.29694e-18)
(0.967072 0.30758 -2.55996e-17)
(0.986948 0.258143 -2.66715e-18)
(0.996657 0.217435 -1.20926e-17)
(1.00936 0.184045 2.86314e-17)
(1.01388 0.155998 -9.75489e-18)
(1.02181 0.131969 2.83834e-18)
(1.02264 0.111567 -4.2996e-18)
(1.02704 0.0931088 3.4782e-17)
(1.02495 0.0774308 -9.48239e-18)
(1.02648 0.0622493 2.95374e-17)
(1.02179 0.0494911 3.68546e-17)
(1.02077 0.0361014 2.32242e-17)
(1.01357 0.0250515 3.31404e-17)
(1.01024 0.0126624 -2.0977e-17)
(0.999297 0.000801082 6.78036e-17)
(0.655148 0.818274 -2.09838e-18)
(0.742377 0.647378 -1.14631e-17)
(0.814129 0.52171 1.80775e-17)
(0.86002 0.424607 2.02129e-18)
(0.901881 0.350581 -3.04805e-18)
(0.927818 0.291321 -2.13238e-17)
(0.954003 0.244496 8.33071e-18)
(0.968907 0.205941 -1.58269e-18)
(0.985875 0.174315 6.74323e-18)
(0.993969 0.147752 -7.43864e-18)
(1.00497 0.124992 1.32709e-17)
(1.0084 0.105669 -4.08237e-17)
(1.01516 0.0881868 3.10494e-18)
(1.01506 0.0733376 -1.48171e-17)
(1.01853 0.0589587 -3.87466e-17)
(1.01548 0.0468748 2.08165e-17)
(1.01616 0.034193 -3.4184e-17)
(1.01037 0.0237272 2.38157e-17)
(1.00863 0.011993 -3.63455e-17)
(0.999195 0.000758707 -1.85529e-17)
(0.551794 0.758602 5.34348e-18)
(0.660608 0.600169 2.1546e-17)
(0.748234 0.483665 -8.63818e-18)
(0.806389 0.393644 4.91954e-18)
(0.8576 0.325015 2.43362e-17)
(0.891022 0.270077 -4.08893e-18)
(0.923122 0.226667 5.03956e-19)
(0.942896 0.190923 -5.47958e-18)
(0.963858 0.161604 -3.75756e-17)
(0.975307 0.136977 2.01039e-17)
(0.989179 0.115877 1.48609e-17)
(0.995054 0.0979631 -4.01682e-17)
(1.00402 0.0817559 -1.08438e-18)
(1.0058 0.0679896 -5.13852e-17)
(1.01109 0.0546592 7.03656e-18)
(1.00956 0.0434566 -2.85352e-17)
(1.01184 0.0316995 -3.32756e-17)
(1.00737 0.021997 8.33834e-18)
(1.00711 0.0111184 -6.66842e-18)
(0.999099 0.000703393 8.59984e-18)
(0.457113 0.685951 1.01649e-17)
(0.585701 0.542691 2.00752e-18)
(0.687868 0.437344 4.99883e-18)
(0.757258 0.355944 -1.10285e-17)
(0.817035 0.293889 9.63402e-18)
(0.857314 0.244211 -3.7153e-18)
(0.894831 0.204959 -1.00934e-18)
(0.919067 0.172638 3.37403e-18)
(0.943688 0.146127 2.64777e-17)
(0.958211 0.123859 -4.73239e-18)
(0.974717 0.10478 5.20255e-18)
(0.982828 0.0885811 1.57071e-17)
(0.993819 0.0739261 4.00161e-17)
(0.997315 0.0614782 1.84473e-18)
(1.00427 0.0494245 1.93839e-17)
(1.00413 0.0392947 7.99437e-18)
(1.00788 0.0286637 6.79945e-19)
(1.00463 0.0198903 3.11568e-17)
(1.00572 0.0100536 -5.02374e-17)
(0.999012 0.000636 4.65758e-17)
(0.372725 0.601563 -1.92042e-17)
(0.518938 0.475927 -1.88143e-17)
(0.634064 0.383541 -1.37341e-17)
(0.713469 0.312155 1.60655e-17)
(0.78088 0.257733 -9.47145e-19)
(0.82727 0.214168 -1.07744e-17)
(0.869617 0.179744 -1.41762e-17)
(0.897828 0.151399 -3.19306e-19)
(0.925711 0.12815 2.01661e-17)
(0.942973 0.108621 -3.36913e-18)
(0.961826 0.0918895 -6.78728e-18)
(0.97193 0.0776836 -4.8095e-18)
(0.984725 0.0648315 2.55625e-18)
(0.989752 0.053915 5.34334e-18)
(0.998185 0.0433441 -3.2192e-17)
(0.999298 0.0344606 -1.72581e-18)
(1.00436 0.0251373 -2.97183e-17)
(1.00218 0.0174433 1.24955e-17)
(1.00449 0.00881676 4.67083e-17)
(0.998933 0.000557758 -1.48743e-17)
(0.300073 0.506882 -7.52893e-18)
(0.46146 0.40102 -8.75392e-18)
(0.587743 0.323175 -7.3077e-18)
(0.675769 0.263024 -1.26039e-17)
(0.749753 0.217168 -1.55867e-17)
(0.801405 0.180459 -1.00985e-17)
(0.847909 0.151454 1.11865e-17)
(0.879543 0.12757 -9.29192e-18)
(0.910234 0.10798 -1.37694e-17)
(0.929855 0.0915253 -1.15636e-17)
(0.950729 0.0774268 1.53034e-17)
(0.962548 0.0654568 -1.17259e-17)
(0.976895 0.0546275 2.52657e-19)
(0.983241 0.0454292 -1.44436e-17)
(0.99295 0.0365221 1.16291e-17)
(0.995136 0.0290367 6.2511e-18)
(1.00132 0.0211809 -1.45502e-17)
(1.00007 0.0146979 1.51109e-17)
(1.00342 0.00742907 -1.75872e-17)
(0.998866 0.000469939 -6.12663e-20)
(0.240402 0.403528 -3.60549e-18)
(0.41425 0.319252 -4.52723e-18)
(0.549698 0.257279 -3.39971e-18)
(0.644805 0.209393 -5.84827e-18)
(0.724188 0.172887 -2.92395e-18)
(0.78016 0.143663 1.69457e-17)
(0.830079 0.120572 4.51563e-18)
(0.864525 0.101559 1.68219e-17)
(0.897523 0.0859629 5.49295e-18)
(0.919081 0.0728631 -1.88428e-18)
(0.941614 0.0616394 1.91069e-19)