/*--------------------------------*- C++ -*----------------------------------*\
| =========                 |                                                 |
| \\      /  F ield         | foam-extend: Open Source CFD                    |
|  \\    /   O peration     | Version:  3.0                                   |
|   \\  /    A nd           | Web:         http://www.extend-project.de       |
|    \\/     M anipulation  |                                                 |
\*---------------------------------------------------------------------------*/
FoamFile
{
    version     2.0;
    format      ascii;
    class       volScalarField;
    location    "3";
    object      p;
}
// * * * * * * * * * * * * * * * * * * * * * * * * * * * * * * * * * * * * * //

dimensions      [0 0 0 0 0 0 0];

internalField   nonuniform List<scalar> 
1920
(
-0.189454
-0.166129
-0.152338
-0.136425
-0.12726
-0.115712
-0.109289
-0.100544
-0.0958477
-0.0890068
-0.0854195
-0.0799232
-0.0770251
-0.0724995
-0.0699649
-0.0661333
-0.0636667
-0.0602819
-0.0575693
-0.0543411
-0.188658
-0.165431
-0.151694
-0.135848
-0.126717
-0.11522
-0.108821
-0.100115
-0.0954362
-0.0886252
-0.0850516
-0.0795791
-0.0766924
-0.0721862
-0.0696618
-0.0658467
-0.0633902
-0.0600201
-0.0573187
-0.0541045
-0.18702
-0.163994
-0.150377
-0.134669
-0.125619
-0.114222
-0.10788
-0.0992494
-0.0946122
-0.0878602
-0.0843181
-0.078893
-0.0760317
-0.0715646
-0.0690623
-0.0652803
-0.0628452
-0.0595043
-0.0568263
-0.0536397
-0.184614
-0.161884
-0.148442
-0.132935
-0.124001
-0.112749
-0.106487
-0.0979665
-0.0933879
-0.0867222
-0.0832251
-0.0778695
-0.0750448
-0.0706349
-0.0681648
-0.0644314
-0.0620277
-0.0587298
-0.0560865
-0.0529413
-0.181387
-0.159054
-0.145847
-0.130612
-0.121835
-0.11078
-0.104629
-0.096257
-0.091759
-0.0852099
-0.0817743
-0.0765123
-0.0737372
-0.0694045
-0.0669776
-0.0633095
-0.0609478
-0.0577075
-0.0551103
-0.0520199
-0.177413
-0.155569
-0.142651
-0.127748
-0.119162
-0.108349
-0.102331
-0.094142
-0.089742
-0.0833356
-0.0799748
-0.0748276
-0.072113
-0.0678749
-0.0655012
-0.0619133
-0.0596034
-0.0564342
-0.0538941
-0.0508719
-0.172651
-0.151394
-0.138823
-0.124321
-0.115966
-0.105442
-0.0995872
-0.091618
-0.0873363
-0.081102
-0.0778317
-0.0728227
-0.0701811
-0.0660568
-0.0637467
-0.0602552
-0.0580072
-0.054923
-0.0524509
-0.0495097
-0.167177
-0.146592
-0.13442
-0.120376
-0.112285
-0.102095
-0.0964248
-0.0887072
-0.0845609
-0.0785235
-0.0753565
-0.0705058
-0.0679478
-0.0639539
-0.061717
-0.058336
-0.0561593
-0.0531729
-0.0507794
-0.0479318
-0.160961
-0.141143
-0.129423
-0.115902
-0.108112
-0.0983011
-0.092842
-0.0854116
-0.0814195
-0.0756068
-0.0725576
-0.0678874
-0.0654244
-0.0615791
-0.0594253
-0.05617
-0.054074
-0.0511987
-0.0488939
-0.0461521
-0.15408
-0.135108
-0.123889
-0.110945
-0.103488
-0.094095
-0.0888688
-0.0817552
-0.0779334
-0.0723684
-0.0694493
-0.0649781
-0.0626203
-0.0589389
-0.0568771
-0.0537607
-0.0517544
-0.0490019
-0.0467959
-0.0441715
-0.146517
-0.128477
-0.117809
-0.1055
-0.0984095
-0.0894779
-0.0845083
-0.0777441
-0.0741099
-0.0688182
-0.0660424
-0.0617907
-0.0595485
-0.0560479
-0.0540872
-0.0511237
-0.0492157
-0.0465983
-0.0445003
-0.0420046
-0.138348
-0.121313
-0.111239
-0.0996163
-0.0929203
-0.0844856
-0.0797927
-0.0734047
-0.0699729
-0.0649754
-0.0623541
-0.0583389
-0.0562216
-0.0529157
-0.0510642
-0.0482657
-0.0464641
-0.0439926
-0.0420116
-0.0396554
-0.129566
-0.113612
-0.104178
-0.0932935
-0.0870228
-0.0791237
-0.0747288
-0.0687463
-0.0655323
-0.0608521
-0.0583972
-0.0546369
-0.0526539
-0.0495578
-0.0478237
-0.0452028
-0.0435154
-0.0412006
-0.0393452
-0.0371384
-0.120248
-0.105442
-0.0966863
-0.086583
-0.0807628
-0.0734308
-0.0693515
-0.0637984
-0.0608152
-0.0564708
-0.0541922
-0.0507016
-0.0488611
-0.0459872
-0.0443778
-0.0419451
-0.0403789
-0.0382306
-0.0365087
-0.0344607
-0.110397
-0.0968038
-0.0887656
-0.0794903
-0.0741469
-0.0674157
-0.0636705
-0.0585723
-0.0558334
-0.0518449
-0.0497528
-0.0465482
-0.0448584
-0.0422199
-0.0407422
-0.0385087
-0.0370707
-0.0350982
-0.0335172
-0.0316369
-0.100092
-0.0877668
-0.080479
-0.0720684
-0.0672235
-0.0611196
-0.0577237
-0.0531005
-0.050617
-0.0470001
-0.045103
-0.042197
-0.0406647
-0.0382721
-0.0369322
-0.0349069
-0.0336031
-0.0318147
-0.0303813
-0.0286766
-0.0893401
-0.0783389
-0.0718339
-0.0643268
-0.0600023
-0.054554
-0.0515228
-0.0473961
-0.0451792
-0.0419507
-0.0402573
-0.0376633
-0.0362955
-0.0341598
-0.0329638
-0.031156
-0.0299921
-0.0283957
-0.0271161
-0.0255944
-0.0782229
-0.0685903
-0.0628947
-0.0563207
-0.052534
-0.0477627
-0.0451082
-0.0414942
-0.0395528
-0.0367252
-0.0352423
-0.0329705
-0.0317727
-0.0299023
-0.028855
-0.0272719
-0.0262528
-0.0248549
-0.0237345
-0.0224023
-0.0667542
-0.0585336
-0.0536731
-0.0480627
-0.044831
-0.040759
-0.0384935
-0.035409
-0.0337521
-0.0313388
-0.0300732
-0.0281342
-0.0271119
-0.0255156
-0.0246218
-0.0232706
-0.0224009
-0.0212078
-0.0202516
-0.0191145
-0.0550159
-0.0482404
-0.0442345
-0.0396095
-0.0369457
-0.0335886
-0.0317211
-0.029178
-0.027812
-0.0258222
-0.0247789
-0.0231801
-0.0223375
-0.0210213
-0.0202845
-0.0191706
-0.0184537
-0.0174703
-0.0166822
-0.0157451
-0.043026
-0.0377267
-0.0345938
-0.0309762
-0.0288927
-0.0262665
-0.0248057
-0.0228161
-0.0217476
-0.0201909
-0.0193747
-0.0181239
-0.0174648
-0.0164351
-0.0158588
-0.0149874
-0.0144267
-0.0136575
-0.013041
-0.0123081
-0.0308677
-0.0270652
-0.0248176
-0.0222207
-0.0207255
-0.01884
-0.0177914
-0.0163627
-0.0155956
-0.0144776
-0.0138917
-0.0129934
-0.0125203
-0.0117809
-0.0113673
-0.0107416
-0.0103392
-0.00978711
-0.00934476
-0.00881902
-0.0185615
-0.0162742
-0.0149227
-0.0133596
-0.01246
-0.0113247
-0.0106935
-0.009833
-0.00937118
-0.00869766
-0.00834496
-0.00780383
-0.00751909
-0.00707372
-0.00682487
-0.00644814
-0.00620606
-0.00587373
-0.00560757
-0.00529135
-0.00619146
-0.00542706
-0.0049762
-0.00445184
-0.00415081
-0.00376915
-0.00355741
-0.00326758
-0.00311251
-0.00288543
-0.00276703
-0.00258458
-0.0024891
-0.00233907
-0.00225573
-0.00212905
-0.00204804
-0.00193664
-0.00184762
-0.00174216
0.00622066
0.00545684
0.00500391
0.0044855
0.00418578
0.00381076
0.00360149
0.00331828
0.00316546
0.00294424
0.00282743
0.00264969
0.00255514
0.00240861
0.00232577
0.00220141
0.00212073
0.00201045
0.00192176
0.00181589
0.0185907
0.0163039
0.0149503
0.0133931
0.0124948
0.0113661
0.0107373
0.0098833
0.00942371
0.00875601
0.00840487
0.00786842
0.00758461
0.00714273
0.00689437
0.00651995
0.00627822
0.00594702
0.00568122
0.00536462
0.0308965
0.0270946
0.0248449
0.0222539
0.02076
0.018881
0.0178348
0.0164127
0.0156479
0.0145357
0.0139514
0.0130579
0.0125857
0.0118498
0.0114367
0.0108134
0.0104114
0.00986037
0.0094184
0.00889232
0.0430546
0.0377559
0.0346209
0.0310088
0.0289265
0.0263067
0.0248482
0.022865
0.0217986
0.0202476
0.019433
0.0181868
0.0175286
0.0165024
0.0159266
0.0150575
0.0144972
0.0137291
0.0131131
0.01238
0.0550438
0.0482689
0.0442609
0.0396416
0.036979
0.0336282
0.031763
0.0292264
0.0278626
0.0258785
0.0248367
0.0232427
0.0224009
0.0210883
0.0203521
0.0192405
0.0185241
0.0175419
0.0167543
0.015817
0.0667818
0.0585617
0.053699
0.0480939
0.0448632
0.0407972
0.0385338
0.0354555
0.0338005
0.0313928
0.0301286
0.0281941
0.0271728
0.0255798
0.0246866
0.0233377
0.0224685
0.0212767
0.0203211
0.019184
0.0782492
0.0686172
0.0629195
0.056351
0.0525652
0.0478001
0.0451477
0.0415399
0.0396005
0.0367786
0.0352971
0.0330299
0.0318331
0.0299662
0.0289195
0.0273387
0.0263202
0.0249237
0.0238039
0.0224717
0.0893662
0.0783654
0.0718582
0.0643559
0.0600322
0.0545895
0.0515601
0.0474392
0.0452241
0.0420008
0.0403087
0.0377191
0.0363522
0.0342198
0.0330244
0.0312189
0.0300557
0.0284607
0.0271818
0.0256603
0.100116
0.0877914
0.0805015
0.0720961
0.067252
0.0611539
0.0577599
0.0531427
0.0506609
0.0470494
0.0451537
0.0422521
0.0407207
0.0383315
0.0369923
0.0349695
0.0336664
0.0318794
0.0304467
0.0287423
0.110421
0.0968281
0.0887877
0.0795167
0.0741739
0.0674477
0.0637041
0.0586112
0.0558738
0.0518902
0.0497993
0.0465988
0.0449097
0.0422744
0.0407974
0.0385662
0.037129
0.035158
0.0335779
0.0316981
0.120269
0.105463
0.096706
0.0866076
0.080788
0.0734614
0.0693838
0.0638362
0.0608545
0.0565152
0.0542378
0.0507515
0.0489118
0.0460412
0.0444325
0.0420022
0.0404368
0.0382901
0.0365691
0.0345217
0.129587
0.113634
0.104198
0.0933167
0.0870462
0.0791517
0.074758
0.0687803
0.0655675
0.0608917
0.0584378
0.0546812
0.052699
0.0496059
0.0478726
0.0452539
0.0435673
0.0412542
0.0394
0.037194
0.138365
0.121331
0.111256
0.0996371
0.0929417
0.0845119
0.0798204
0.0734374
0.0700069
0.0650141
0.0623938
0.0583825
0.0562661
0.0529633
0.0511126
0.0483165
0.0465157
0.0440459
0.0420661
0.0397108
0.146535
0.128495
0.117825
0.10552
0.0984291
0.0895012
0.0845326
0.0777724
0.0741392
0.0688514
0.0660764
0.061828
0.0595866
0.0560887
0.0541288
0.0511675
0.0492605
0.0466448
0.0445482
0.0420538
0.154093
0.135122
0.123902
0.110962
0.103505
0.0941162
0.0888912
0.081782
0.0779613
0.0724005
0.0694823
0.0650146
0.0626577
0.0589792
0.0569182
0.0538042
0.0517988
0.0490483
0.0468435
0.0442207
0.160976
0.141158
0.129436
0.115918
0.108128
0.0983192
0.0928607
0.0854337
0.0814423
0.0756328
0.0725844
0.067917
0.0654547
0.0616119
0.0594589
0.0562057
0.0541109
0.0512374
0.0489342
0.0461942
0.167185
0.146602
0.134428
0.120388
0.112297
0.10211
0.096441
0.0887272
0.0845818
0.078548
0.0753819
0.0705343
0.0679772
0.063986
0.0617501
0.0583713
0.0561958
0.0532115
0.0508196
0.0479739
0.172663
0.151405
0.138832
0.124332
0.115976
0.105455
0.0995998
0.091633
0.0873518
0.0811201
0.0778503
0.0728437
0.0702028
0.0660807
0.0637716
0.0602821
0.0580354
0.0549533
0.052483
0.0495441
0.177416
0.155573
0.142654
0.127754
0.119168
0.108357
0.102341
0.0941541
0.089755
0.0833515
0.0799916
0.0748471
0.0721335
0.0678978
0.0655252
0.0619396
0.0596311
0.0564641
0.0539259
0.0509062
0.181395
0.159061
0.145853
0.130618
0.12184
0.110786
0.104635
0.0962644
0.0917666
0.0852192
0.0817841
0.076524
0.0737496
0.0694188
0.0669931
0.0633269
0.0609667
0.0577287
0.0551336
0.0520461
0.184612
0.161882
0.148439
0.132934
0.124
0.112749
0.106489
0.09797
0.0933923
0.0867287
0.0832326
0.077879
0.0750555
0.0706478
0.0681791
0.0644479
0.0620459
0.0587504
0.0561093
0.0529671
0.187023
0.163996
0.150378
0.13467
0.125619
0.114221
0.107879
0.0992485
0.094611
0.0878601
0.0843183
0.0788947
0.0760343
0.0715689
0.069068
0.065288
0.0628546
0.059516
0.0568404
0.0536571
0.188648
0.165421
0.151684
0.135839
0.12671
0.115213
0.108815
0.100109
0.0954315
0.0886218
0.0850492
0.0795783
0.0766931
0.0721888
0.0696662
0.0658532
0.0633988
0.0600311
0.0573323
0.0541212
0.189451
0.166125
0.152329
0.136417
0.127248
0.115702
0.109277
0.100534
0.0958364
0.0889974
0.0854096
0.0799153
0.0770178
0.0724942
0.0699609
0.0661316
0.0636667
0.0602847
0.0575743
0.0543495
0.189457
0.16613
0.152334
0.13642
0.127251
0.115705
0.109279
0.100536
0.0958378
0.0889984
0.0854105
0.0799157
0.0770182
0.0724943
0.069961
0.0661315
0.0636666
0.0602843
0.0575738
0.0543489
0.188637
0.165411
0.151675
0.13583
0.1267
0.115203
0.108806
0.1001
0.0954219
0.0886118
0.0850394
0.0795683
0.0766833
0.0721788
0.0696565
0.0658434
0.0633891
0.0600214
0.0573226
0.0541115
0.187024
0.163996
0.150377
0.134667
0.125616
0.114217
0.107874
0.0992421
0.0946042
0.0878521
0.0843103
0.0788857
0.0760254
0.0715593
0.0690586
0.065278
0.0628447
0.0595056
0.0568299
0.0536462
0.184596
0.161866
0.148424
0.132918
0.123984
0.112733
0.106472
0.0979522
0.0933745
0.0867099
0.083214
0.0778597
0.0750366
0.0706283
0.06816
0.0644283
0.0620266
0.0587308
0.0560897
0.0529472
0.181391
0.159056
0.145847
0.13061
0.121831
0.110775
0.104623
0.0962501
0.0917518
0.0852026
0.0817674
0.0765058
0.0737317
0.0693998
0.0669744
0.0633074
0.0609473
0.0577086
0.0551133
0.0520252
0.177395
0.155552
0.142634
0.127732
0.119147
0.108334
0.102317
0.0941287
0.0897294
0.0833243
0.0799647
0.0748188
0.0721058
0.0678691
0.0654971
0.0619107
0.0596027
0.0564351
0.0538969
0.0508767
0.172654
0.151394
0.138822
0.124318
0.115961
0.105437
0.099581
0.0916112
0.0873294
0.0810952
0.0778254
0.0728168
0.0701763
0.0660527
0.0637442
0.0602535
0.0580071
0.054924
0.0524536
0.0495139
0.16716
0.146576
0.134404
0.120361
0.11227
0.102081
0.096411
0.0886945
0.0845489
0.0785128
0.0753471
0.0704977
0.0679412
0.0639487
0.0617136
0.0583338
0.0561589
0.0531738
0.0507818
0.0479355
0.160963
0.141142
0.129421
0.115898
0.108108
0.0982952
0.0928355
0.0854048
0.0814128
0.0756003
0.0725518
0.067882
0.0654203
0.0615756
0.0594234
0.0561687
0.0540744
0.0511998
0.0488964
0.0461555
0.154064
0.135093
0.123874
0.11093
0.103473
0.0940809
0.0888552
0.0817427
0.0779217
0.072358
0.0694403
0.0649704
0.0626143
0.0589341
0.0568742
0.0537589
0.0517543
0.0490027
0.046798
0.0441743
0.146518
0.128476
0.117806
0.105496
0.0984042
0.0894716
0.0845016
0.0777372
0.0741033
0.0688118
0.0660369
0.0617858
0.0595451
0.056045
0.054086
0.0511231
0.0492167
0.0465998
0.0445029
0.0420075
0.138332
0.121297
0.111224
0.0996011
0.0929053
0.0844714
0.0797791
0.0733922
0.0699613
0.0649652
0.0623454
0.0583315
0.0562161
0.0529114
0.0510619
0.0482644
0.0464645
0.0439936
0.0420138
0.0396576
0.129566
0.113611
0.104175
0.0932886
0.0870169
0.0791171
0.0747219
0.0687394
0.0655259
0.0608461
0.0583923
0.0546325
0.0526512
0.0495557
0.0478235
0.0452031
0.0435173
0.0412028
0.0393483
0.0371412
0.120233
0.105426
0.0966705
0.0865677
0.0807477
0.0734165
0.0693378
0.0637859
0.0608038
0.0564608
0.0541839
0.0506947
0.0488562
0.0459836
0.0443762
0.0419444
0.0403801
0.0382321
0.0365111
0.0344627
0.110398
0.0968016
0.0887618
0.0794849
0.0741408
0.0674088
0.0636637
0.0585655
0.0558274
0.0518393
0.0497486
0.0465447
0.0448567
0.0422188
0.0407431
0.03851
0.0370737
0.0351012
0.033521
0.0316399
0.100077
0.0877516
0.0804633
0.0720531
0.0672084
0.0611053
0.0577102
0.0530882
0.050606
0.0469905
0.0450953
0.0421907
0.0406606
0.0382692
0.0369316
0.0349071
0.0336052
0.0318169
0.0303843
0.0286788
0.0893399
0.0783363
0.0718298
0.0643212
0.0599961
0.0545472
0.0515161
0.0473896
0.0451737
0.0419457
0.0402539
0.0376606
0.0362949
0.0341598
0.0329658
0.0311584
0.0299962
0.0283995
0.0271206
0.0255978
0.0782083
0.0685752
0.0628792
0.0563055
0.0525191
0.0477485
0.045095
0.0414821
0.0395423
0.0367161
0.0352353
0.0329649
0.0317695
0.0299003
0.0288553
0.0272729
0.0262557
0.0248577
0.0237381
0.0224046
0.0667536
0.0585305
0.0536687
0.0480569
0.0448248
0.0407522
0.0384871
0.0354028
0.033747
0.0313343
0.0300705
0.0281323
0.0271122
0.0255165
0.0246248
0.0232739
0.0224058
0.0212124
0.0202566
0.0191182
0.0550013
0.0482252
0.0442191
0.0395944
0.036931
0.0335746
0.0317082
0.0291662
0.027802
0.0258136
0.0247724
0.0231751
0.0223349
0.0210199
0.0202856
0.0191723
0.0184573
0.0174737
0.0166861
0.0157477
0.043025
0.0377233
0.0345892
0.0309702
0.0288865
0.0262598
0.0247995
0.0228102
0.021743
0.0201869
0.0193726
0.0181226
0.0174657
0.0164367
0.0158626
0.0149915
0.0144323
0.0136626
0.0130464
0.0123119
0.0308531
0.02705
0.0248023
0.0222056
0.020711
0.0188261
0.0177787
0.0163511
0.0155858
0.0144692
0.0138856
0.0129888
0.0125182
0.01178
0.0113689
0.0107439
0.0103433
0.00979091
0.00934901
0.00882163
0.0185602
0.0162705
0.0149179
0.0133536
0.0124538
0.0113181
0.0106875
0.00982722
0.00936678
0.00869391
0.00834316
0.00780284
0.00752036
0.0070757
0.00682901
0.00645258
0.00621202
0.00587919
0.00561325
0.00529521
0.00617673
0.00541172
0.00496084
0.00443672
0.00413631
0.00375536
0.00354484
0.00325612
0.00310289
0.00287718
0.00276114
0.00258011
0.00248724
0.00233843
0.00225756
0.00213158
0.00205235
0.00194069
0.00185205
0.00174481
-0.00622215
-0.00546073
-0.00500879
-0.0044916
-0.00419202
-0.0038174
-0.00360748
-0.00332403
-0.00316983
-0.00294796
-0.00282918
-0.0026506
-0.0025538
-0.0024065
-0.00232151
-0.00219678
-0.00211461
-0.00200481
-0.00191595
-0.001812
-0.0186054
-0.0163193
-0.0149657
-0.0134083
-0.0125093
-0.0113799
-0.0107499
-0.00989477
-0.00943334
-0.00876428
-0.00841081
-0.00787291
-0.00758651
-0.00714333
-0.00689253
-0.00651733
-0.00627383
-0.00594283
-0.00567666
-0.00536189
-0.030898
-0.0270985
-0.0248498
-0.02226
-0.0207662
-0.0188877
-0.0178409
-0.0164186
-0.0156524
-0.0145396
-0.0139533
-0.0130589
-0.0125845
-0.0118477
-0.0114325
-0.0108088
-0.0104052
-0.00985467
-0.0094125
-0.00888831
-0.0430694
-0.0377713
-0.0346363
-0.031024
-0.0289411
-0.0263206
-0.0248608
-0.0228766
-0.0218084
-0.020256
-0.0194391
-0.0181914
-0.0175307
-0.0165031
-0.0159249
-0.015055
-0.0144929
-0.0137249
-0.0131084
-0.012377
-0.0550451
-0.0482726
-0.0442657
-0.0396477
-0.0369852
-0.0336349
-0.0317692
-0.0292323
-0.0278672
-0.0258825
-0.0248389
-0.0232439
-0.0224001
-0.0210865
-0.0203482
-0.0192361
-0.0185181
-0.0175362
-0.0167482
-0.0158127
-0.0667965
-0.0585771
-0.0537144
-0.0481092
-0.0448779
-0.0408111
-0.0385466
-0.0354671
-0.0338104
-0.0314013
-0.0301349
-0.0281989
-0.0271751
-0.0255808
-0.0246851
-0.0233353
-0.0224643
-0.0212724
-0.0203162
-0.0191806
-0.0782503
-0.0686206
-0.0629241
-0.0563569
-0.0525715
-0.0478068
-0.0451539
-0.0415459
-0.0396054
-0.0367828
-0.0352996
-0.0330314
-0.0318326
-0.0299647
-0.0289159
-0.0273345
-0.0263144
-0.0249179
-0.0237977
-0.0224668
-0.0893808
-0.0783807
-0.0718737
-0.0643713
-0.0600469
-0.0546035
-0.051573
-0.0474509
-0.0452341
-0.0420094
-0.0403153
-0.037724
-0.0363548
-0.0342209
-0.0330231
-0.0312165
-0.0300515
-0.0284561
-0.0271766
-0.0256562
-0.100116
-0.0877944
-0.0805058
-0.0721019
-0.0672582
-0.0611606
-0.0577662
-0.0531488
-0.0506659
-0.0470537
-0.0451564
-0.0422538
-0.0407205
-0.0383302
-0.036989
-0.0349654
-0.0336606
-0.0318734
-0.0304401
-0.0287367
-0.110436
-0.0968433
-0.0888032
-0.0795321
-0.0741887
-0.0674618
-0.0637171
-0.058623
-0.055884
-0.0518989
-0.0498059
-0.0466038
-0.0449125
-0.0422756
-0.0407962
-0.0385638
-0.0371247
-0.0351532
-0.0335721
-0.0316929
-0.120269
-0.105466
-0.0967099
-0.0866131
-0.0807941
-0.073468
-0.06939
-0.0638422
-0.0608596
-0.0565196
-0.0542407
-0.0507533
-0.0489118
-0.0460401
-0.0444294
-0.0419982
-0.0404311
-0.0382838
-0.036562
-0.034515
-0.129602
-0.113649
-0.104214
-0.0933323
-0.0870613
-0.0791659
-0.0747711
-0.0687922
-0.0655778
-0.0609005
-0.0584446
-0.0546863
-0.0527019
-0.0496071
-0.0478715
-0.0452514
-0.0435629
-0.0412489
-0.0393934
-0.0371875
-0.138364
-0.121333
-0.111259
-0.0996422
-0.0929476
-0.0845183
-0.0798267
-0.0734435
-0.0700121
-0.0650186
-0.062397
-0.0583846
-0.0562664
-0.0529625
-0.0511098
-0.0483126
-0.0465101
-0.0440394
-0.0420584
-0.0397029
-0.14655
-0.128511
-0.117841
-0.105536
-0.0984444
-0.0895157
-0.084546
-0.0777845
-0.0741498
-0.0688603
-0.0660834
-0.0618334
-0.0595898
-0.0560901
-0.0541279
-0.0511651
-0.049256
-0.0466391
-0.0445409
-0.042046
-0.154092
-0.135123
-0.123905
-0.110966
-0.103511
-0.0941226
-0.0888975
-0.0817882
-0.0779669
-0.0724053
-0.0694859
-0.0650172
-0.0626586
-0.0589789
-0.0569161
-0.0538007
-0.0517935
-0.0490417
-0.0468355
-0.0442117
-0.160992
-0.141174
-0.129452
-0.115934
-0.108143
-0.098334
-0.0928745
-0.0854462
-0.0814533
-0.0756423
-0.0725919
-0.0679228
-0.0654585
-0.0616138
-0.0594586
-0.0562036
-0.0541066
-0.0512315
-0.0489265
-0.0461852
-0.167183
-0.146602
-0.13443
-0.120392
-0.112303
-0.102116
-0.0964475
-0.0887337
-0.0845878
-0.0785534
-0.0753862
-0.0705376
-0.0679789
-0.0639864
-0.0617487
-0.0583685
-0.056191
-0.0532052
-0.0508114
-0.0479642
-0.17268
-0.151422
-0.138849
-0.124348
-0.115992
-0.10547
-0.0996142
-0.0916461
-0.0873635
-0.0811302
-0.0778586
-0.0728503
-0.0702074
-0.0660835
-0.0637721
-0.0602807
-0.0580316
-0.0549476
-0.0524752
-0.0495343
-0.177413
-0.155572
-0.142656
-0.127758
-0.119173
-0.108363
-0.102347
-0.0941611
-0.0897617
-0.0833576
-0.0799969
-0.0748513
-0.0721363
-0.0678993
-0.065525
-0.0619377
-0.0596273
-0.0564585
-0.0539182
-0.0508962
-0.181413
-0.15908
-0.145871
-0.130636
-0.121857
-0.110802
-0.10465
-0.0962782
-0.0917791
-0.0852303
-0.0817934
-0.0765316
-0.0737553
-0.0694227
-0.0669947
-0.0633265
-0.0609639
-0.0577237
-0.0551262
-0.0520361
-0.184607
-0.16188
-0.14844
-0.132937
-0.124005
-0.112756
-0.106496
-0.0979777
-0.0933999
-0.0867358
-0.0832389
-0.0778844
-0.0750596
-0.0706505
-0.0681802
-0.0644473
-0.0620433
-0.0587457
-0.0561024
-0.0529573
-0.187042
-0.164015
-0.150396
-0.134687
-0.125636
-0.114238
-0.107895
-0.0992631
-0.0946245
-0.0878722
-0.0843289
-0.0789037
-0.0760414
-0.0715742
-0.0690711
-0.065289
-0.0628532
-0.0595122
-0.0568341
-0.0536477
-0.188642
-0.165418
-0.151685
-0.135843
-0.126715
-0.11522
-0.108823
-0.100118
-0.09544
-0.08863
-0.0850568
-0.079585
-0.0766986
-0.0721929
-0.0696687
-0.065854
-0.0633976
-0.0600277
-0.0573265
-0.0541123
-0.189473
-0.166145
-0.152348
-0.136434
-0.127265
-0.115718
-0.109293
-0.100549
-0.0958504
-0.0890106
-0.0854215
-0.0799257
-0.0770264
-0.072501
-0.0699656
-0.0661341
-0.0636669
-0.0602823
-0.0575693
-0.0543412
)
;

boundaryField
{
    out
    {
        type            implicitExtrapolation;
    }
    in
    {
        type            implicitExtrapolation;
    }
    frontAndBack
    {
        type            empty;
    }
}


// ************************************************************************* //
