/*--------------------------------*- C++ -*----------------------------------*\
| =========                 |                                                 |
| \\      /  F ield         | foam-extend: Open Source CFD                    |
|  \\    /   O peration     | Version:  3.0                                   |
|   \\  /    A nd           | Web:         http://www.extend-project.de       |
|    \\/     M anipulation  |                                                 |
\*---------------------------------------------------------------------------*/
FoamFile
{
    version     2.0;
    format      ascii;
    class       volVectorField;
    location    "3";
    object      u;
}
// * * * * * * * * * * * * * * * * * * * * * * * * * * * * * * * * * * * * * //

dimensions      [0 0 0 0 0 0 0];

internalField   nonuniform List<vector> 
1920
(
(0.142643 -0.0572695 4.50113e-18)
(0.328268 -0.0453013 1.23314e-18)
(0.472597 -0.0365384 1.20748e-18)
(0.575036 -0.0297845 -7.61472e-19)
(0.660295 -0.024629 3.05462e-18)
(0.721309 -0.020531 6.85901e-19)
(0.775649 -0.0172877 2.64854e-18)
(0.813996 -0.0146491 1.77142e-18)
(0.850766 -0.0124782 3.8955e-19)
(0.875688 -0.0106923 -6.85753e-19)
(0.901798 -0.00915284 -1.6373e-18)
(0.918206 -0.00789121 5.04505e-19)
(0.937503 -0.00673322 1.31872e-18)
(0.948157 -0.00580538 -6.61027e-19)
(0.962917 -0.00487722 -5.12805e-19)
(0.969436 -0.00416608 5.52166e-19)
(0.981085 -0.00336854 -5.1789e-18)
(0.984443 -0.00280379 -1.42818e-18)
(0.993943 -0.00196911 -2.23975e-18)
(0.994417 -0.00251719 5.27902e-19)
(0.157593 -0.170809 7.89061e-18)
(0.340091 -0.135138 7.79203e-19)
(0.482136 -0.109013 1.97026e-18)
(0.582806 -0.088872 -4.31433e-18)
(0.666725 -0.0735017 -2.31592e-18)
(0.726666 -0.0612795 -3.20519e-19)
(0.780166 -0.0516119 -1.58525e-18)
(0.817821 -0.0437423 5.92551e-18)
(0.854028 -0.0372715 4.35743e-18)
(0.878482 -0.031945 4.72856e-18)
(0.904193 -0.0273564 2.65171e-18)
(0.92027 -0.0235946 3.96057e-18)
(0.939267 -0.0201455 1.06334e-18)
(0.949679 -0.0173815 8.51146e-19)
(0.964199 -0.0146192 1.6462e-18)
(0.970531 -0.0125031 8.42121e-18)
(0.981973 -0.0101299 9.57601e-18)
(0.985184 -0.00845115 7.8572e-18)
(0.994466 -0.00596487 3.34539e-18)
(0.995086 -0.00764068 2.11209e-18)
(0.187239 -0.281435 4.09747e-18)
(0.363545 -0.222664 4.64137e-19)
(0.501057 -0.17963 3.70534e-18)
(0.598237 -0.146447 3.52133e-18)
(0.67949 -0.121122 -1.49109e-18)
(0.737312 -0.10098 8.84324e-19)
(0.789131 -0.0850489 4.22104e-18)
(0.825419 -0.072081 -6.52643e-18)
(0.8605 -0.0614211 -7.04728e-18)
(0.884029 -0.0526472 -4.28577e-18)
(0.908944 -0.0450898 -3.95954e-18)
(0.92437 -0.038894 -1.32629e-18)
(0.942769 -0.0332126 2.60766e-19)
(0.952701 -0.0286596 -2.01187e-18)
(0.966741 -0.0241086 -8.00833e-18)
(0.972707 -0.0206229 -7.12742e-18)
(0.983736 -0.0167142 -1.23039e-17)
(0.986656 -0.0139501 -5.27556e-18)
(0.995506 -0.00985635 -9.5974e-18)
(0.99642 -0.0126308 7.95302e-18)
(0.231064 -0.387225 6.54372e-18)
(0.398218 -0.306368 3.07829e-18)
(0.529034 -0.247161 3.85587e-18)
(0.621046 -0.201507 3.6128e-18)
(0.698357 -0.166665 1.92513e-18)
(0.75304 -0.138952 -7.92771e-18)
(0.802378 -0.117033 -5.18808e-18)
(0.836646 -0.0991908 -7.18744e-18)
(0.870069 -0.0845241 -1.38346e-17)
(0.892232 -0.0724526 -1.91995e-18)
(0.91597 -0.0620545 -1.21786e-18)
(0.930431 -0.0535299 -7.11694e-18)
(0.947945 -0.0457132 7.23088e-18)
(0.957169 -0.0394489 6.09364e-19)
(0.9705 -0.0331881 2.44205e-18)
(0.975923 -0.0283926 -8.48764e-18)
(0.986344 -0.0230155 -5.18902e-18)
(0.988833 -0.0192133 4.33389e-18)
(0.997046 -0.0135811 9.47386e-18)
(0.998393 -0.0174057 1.66524e-18)
(0.288326 -0.48641 1.10791e-17)
(0.443525 -0.384842 6.21629e-18)
(0.565588 -0.310474 6.13961e-18)
(0.65085 -0.253125 8.92615e-18)
(0.723009 -0.209358 1.30168e-17)
(0.773594 -0.174544 7.88684e-18)
(0.81969 -0.14701 1.48507e-18)
(0.851319 -0.124598 6.86647e-18)
(0.882572 -0.106176 3.48609e-18)
(0.90295 -0.0910129 4.7194e-18)
(0.92515 -0.0779533 1.1348e-18)
(0.938351 -0.067246 -8.43391e-18)
(0.954709 -0.057428 3.70871e-18)
(0.963007 -0.0495595 1.00996e-17)
(0.975412 -0.0416955 -7.69639e-18)
(0.980126 -0.0356721 2.18946e-17)
(0.989751 -0.0289186 -1.03102e-17)
(0.991678 -0.0241434 9.67758e-18)
(0.999057 -0.0170701 -8.55189e-18)
(1.00097 -0.0218797 -7.56285e-19)
(0.358038 -0.577255 1.51521e-17)
(0.498682 -0.456722 1.17564e-17)
(0.610089 -0.368467 9.59423e-18)
(0.687132 -0.300409 -1.4381e-17)
(0.753019 -0.248468 2.59891e-18)
(0.798613 -0.207152 1.36436e-19)
(0.840764 -0.174475 2.02984e-17)
(0.869181 -0.147878 9.75762e-19)
(0.897794 -0.126015 1.90533e-19)
(0.915999 -0.108021 -1.61532e-17)
(0.936329 -0.0925221 6.24305e-18)
(0.947994 -0.0798154 -4.35098e-18)
(0.962946 -0.0681637 1.73659e-18)
(0.970115 -0.0588256 -1.23643e-17)
(0.981394 -0.0494927 2.71924e-19)
(0.985243 -0.0423445 4.28e-18)
(0.993901 -0.0343299 -1.79682e-18)
(0.995143 -0.0286633 2.13221e-18)
(1.00151 -0.0202692 -1.18003e-19)
(1.00411 -0.0259806 -1.65878e-17)
(0.439019 -0.658239 -4.87285e-18)
(0.562757 -0.520796 -9.53794e-18)
(0.661784 -0.420162 -7.48561e-18)
(0.72928 -0.342554 1.07708e-18)
(0.78788 -0.283326 1.87962e-18)
(0.827678 -0.236212 -1.88179e-18)
(0.865243 -0.198951 -3.83981e-18)
(0.889929 -0.168621 -8.10273e-18)
(0.915475 -0.143693 8.66526e-18)
(0.931156 -0.123175 -1.30934e-17)
(0.949311 -0.105503 -1.38252e-18)
(0.959195 -0.0910137 -1.88507e-17)
(0.972511 -0.0777283 -1.51595e-18)
(0.978371 -0.0670802 -3.03994e-17)
(0.98834 -0.0564387 -1.15998e-17)
(0.991187 -0.0482878 -1.29769e-19)
(0.99872 -0.0391496 -5.67951e-18)
(0.999168 -0.0326885 -1.59845e-17)
(1.00436 -0.023118 1.18985e-17)
(1.00776 -0.0296335 -1.76506e-17)
(0.52987 -0.727947 -9.0535e-19)
(0.634639 -0.575953 -2.81664e-17)
(0.719779 -0.464663 -9.54514e-19)
(0.776563 -0.378838 3.71476e-18)
(0.826989 -0.313337 -1.40997e-17)
(0.860284 -0.261234 -4.19542e-18)
(0.892708 -0.220027 1.78164e-18)
(0.913207 -0.186486 1.84509e-18)
(0.935313 -0.158917 2.39079e-17)
(0.948163 -0.136226 -3.20434e-18)
(0.963879 -0.116683 1.29147e-17)
(0.971763 -0.10066 -1.40222e-18)
(0.983246 -0.0859669 2.88642e-17)
(0.987635 -0.0741911 -1.23133e-17)
(0.996135 -0.0624224 1.58452e-17)
(0.997857 -0.0534083 2.26844e-17)
(1.00413 -0.0433024 -1.33436e-17)
(1.00368 -0.0361572 3.88638e-17)
(1.00755 -0.0255734 6.68327e-19)
(1.01186 -0.0327806 3.1775e-17)
(0.629051 -0.785211 2.99703e-18)
(0.713114 -0.62126 -5.62949e-18)
(0.783092 -0.501217 -4.52176e-18)
(0.828183 -0.408638 3.3228e-18)
(0.869684 -0.337984 8.84925e-18)
(0.89588 -0.281782 -8.88052e-18)
(0.922689 -0.237333 8.92075e-18)
(0.938618 -0.201153 4.01858e-18)
(0.956968 -0.171416 7.37059e-18)
(0.966726 -0.146941 2.0732e-17)
(0.979779 -0.125861 -1.19572e-17)
(0.98548 -0.108577 -2.48987e-17)
(0.994961 -0.0927297 2.37416e-17)
(0.997746 -0.0800275 -1.46394e-17)
(1.00464 -0.0673337 -1.47493e-18)
(1.00514 -0.0576104 -1.04802e-17)
(1.01003 -0.0467105 1.73074e-17)
(1.00861 -0.0390033 2.23424e-17)
(1.01104 -0.027588 -1.71732e-17)
(1.01633 -0.0353631 1.7993e-17)
(0.734851 -0.829031 1.05103e-17)
(0.796824 -0.655934 -1.69775e-18)
(0.850629 -0.529193 3.67483e-19)
(0.883246 -0.431448 5.12653e-18)
(0.915227 -0.356851 5.2358e-18)
(0.933851 -0.297512 8.18399e-18)
(0.954671 -0.250583 5.10562e-18)
(0.965726 -0.212384 1.27235e-17)
(0.98007 -0.180988 -4.89148e-18)
(0.98653 -0.155147 -6.9308e-18)
(0.996744 -0.13289 -5.07347e-18)
(1.00012 -0.114642 -1.70517e-17)
(1.00746 -0.0979097 -8.17141e-18)
(1.00853 -0.0844986 3.43939e-18)
(1.01372 -0.0710962 -1.97583e-17)
(1.0129 -0.0608302 1.24929e-17)
(1.01633 -0.0493219 -3.74419e-17)
(1.01387 -0.0411846 3.95763e-19)
(1.01476 -0.0291325 -1.73972e-17)
(1.0211 -0.0373418 1.60639e-17)
(0.845473 -0.858674 -1.18523e-17)
(0.884351 -0.679387 -9.71661e-19)
(0.921245 -0.548114 4.03043e-18)
(0.94082 -0.446873 -2.10603e-18)
(0.962847 -0.369609 1.7892e-17)
(0.973552 -0.308147 -2.04162e-17)
(0.98811 -0.25954 -7.30499e-18)
(0.994068 -0.219975 -6.3652e-18)
(1.00422 -0.187457 -3.48537e-18)
(1.00723 -0.160692 -2.44477e-17)
(1.01448 -0.13764 -7.35233e-19)
(1.01542 -0.11874 1.67062e-17)
(1.02053 -0.10141 -4.79608e-18)
(1.01981 -0.0875192 -1.8192e-17)
(1.02321 -0.0736384 -5.77012e-18)
(1.02102 -0.0630052 5.15902e-18)
(1.02291 -0.0510862 1.40282e-17)
(1.01937 -0.0426577 1.87281e-18)
(1.01865 -0.0301756 8.06172e-18)
(1.02608 -0.0386782 -5.09175e-17)
(0.959012 -0.873619 -1.38468e-17)
(0.974185 -0.691214 -1.1941e-17)
(0.993722 -0.557657 -4.25978e-19)
(0.999911 -0.454655 3.85388e-18)
(1.01172 -0.376046 -9.72528e-18)
(1.0143 -0.313515 -6.93607e-18)
(1.02243 -0.264061 3.85134e-18)
(1.02316 -0.223807 -3.52103e-18)
(1.02901 -0.190723 1.53376e-17)
(1.02849 -0.163493 9.19557e-18)
(1.03268 -0.14004 6.00946e-19)
(1.03112 -0.12081 3.63512e-18)
(1.03394 -0.103179 2.12896e-18)
(1.03139 -0.0890462 3.17918e-17)
(1.03295 -0.0749235 -1.96124e-17)
(1.02936 -0.0641051 -1.01115e-18)
(1.02967 -0.0519786 -1.79384e-18)
(1.02502 -0.0434032 -3.08802e-18)
(1.02264 -0.030704 -1.2649e-17)
(1.0312 -0.0393541 1.9782e-17)
(1.07354 -0.873621 -6.60984e-18)
(1.0648 -0.691215 -1.2581e-17)
(1.06683 -0.557657 -2.71598e-18)
(1.05951 -0.454654 7.57611e-18)
(1.06102 -0.376044 -1.88478e-17)
(1.0554 -0.313512 -5.3824e-18)
(1.05705 -0.264059 -3.51109e-18)
(1.0525 -0.223805 5.1297e-18)
(1.05402 -0.190722 1.51583e-17)
(1.04992 -0.163491 1.46825e-17)
(1.05104 -0.140039 1.28885e-18)
(1.04696 -0.120809 1.4113e-18)
(1.04747 -0.103178 -6.78854e-19)
(1.04306 -0.0890456 6.19044e-18)
(1.04277 -0.0749236 1.38193e-17)
(1.03777 -0.064105 4.3057e-19)
(1.03649 -0.0519793 1.35904e-18)
(1.03071 -0.0434035 1.08292e-18)
(1.02667 -0.0307049 1.15356e-17)
(1.03636 -0.0393541 -1.1801e-19)
(1.18708 -0.858672 -1.0933e-17)
(1.15463 -0.679389 7.38063e-18)
(1.13931 -0.548117 -6.85368e-18)
(1.11861 -0.446876 -4.51204e-18)
(1.1099 -0.369612 1.93326e-19)
(1.09615 -0.308151 -4.20103e-18)
(1.09137 -0.259544 5.00663e-19)
(1.08159 -0.219978 -1.6702e-17)
(1.07881 -0.187461 -2.04286e-17)
(1.07117 -0.160696 4.72489e-18)
(1.06925 -0.137646 9.698e-18)
(1.06267 -0.118745 9.61619e-18)
(1.06088 -0.101415 -3.21908e-18)
(1.05464 -0.0875246 -1.37014e-17)
(1.05252 -0.073644 2.56946e-18)
(1.0461 -0.0630105 2.98146e-18)
(1.04325 -0.0510921 1.68745e-17)
(1.03635 -0.0426629 9.03925e-19)
(1.03066 -0.0301816 -6.65792e-18)
(1.04148 -0.0386821 2.23587e-17)
(1.2977 -0.829034 4.32773e-18)
(1.24216 -0.655938 2.46081e-18)
(1.20992 -0.529197 -8.29483e-18)
(1.17618 -0.43145 -1.33659e-18)
(1.15751 -0.356852 4.65987e-18)
(1.13585 -0.297512 1.27472e-17)
(1.12481 -0.250583 1.19852e-18)
(1.10993 -0.212383 4.3904e-18)
(1.10296 -0.180989 -1.72238e-17)
(1.09188 -0.155148 6.49938e-18)
(1.08698 -0.132893 -2.75374e-19)
(1.07796 -0.114645 -1.98973e-19)
(1.07395 -0.0979146 -1.94732e-17)
(1.06592 -0.0845032 -6.7974e-19)
(1.06201 -0.0711023 -1.81587e-17)
(1.05422 -0.0608356 -1.9258e-17)
(1.04983 -0.0493292 -1.29167e-17)
(1.04185 -0.0411906 -1.49033e-17)
(1.03455 -0.0291406 6.69769e-18)
(1.04646 -0.0373466 -3.0417e-17)
(1.4035 -0.785208 1.97301e-18)
(1.32587 -0.621264 6.41165e-18)
(1.27746 -0.501223 -1.07271e-17)
(1.23124 -0.408643 -1.78456e-18)
(1.20306 -0.337989 2.80479e-18)
(1.17382 -0.281786 1.17154e-17)
(1.15679 -0.237338 -4.18687e-18)
(1.13704 -0.201158 1.94359e-19)
(1.12606 -0.171423 -6.06395e-18)
(1.11168 -0.146948 4.90171e-18)
(1.10394 -0.12587 -4.72218e-18)
(1.0926 -0.108587 1.75389e-17)
(1.08645 -0.0927404 -4.14657e-18)
(1.07671 -0.080038 1.40438e-18)
(1.07108 -0.0673453 1.32053e-17)
(1.06199 -0.0576214 -1.55674e-17)
(1.05613 -0.0467231 8.62262e-18)
(1.04711 -0.0390148 -1.37958e-17)
(1.03828 -0.0276017 1.3094e-17)
(1.05123 -0.0353736 4.1539e-18)
(1.50268 -0.727949 -1.50623e-18)
(1.40435 -0.57596 -8.80142e-18)
(1.34077 -0.464671 1.58252e-18)
(1.28286 -0.378842 -3.76327e-18)
(1.24575 -0.31334 -9.67592e-18)
(1.20942 -0.261235 3.2154e-18)
(1.18677 -0.220028 -9.52373e-19)
(1.16245 -0.186487 2.72523e-18)
(1.14771 -0.158921 1.54429e-17)
(1.13024 -0.136231 -7.66829e-18)
(1.11984 -0.116691 -5.21594e-18)
(1.10632 -0.100668 1.99688e-17)
(1.09816 -0.0859775 2.71647e-18)
(1.08682 -0.0742013 2.05074e-17)
(1.07959 -0.0624347 -1.05514e-18)
(1.06927 -0.0534198 9.13935e-18)
(1.06204 -0.0433167 1.13978e-17)
(1.05204 -0.0361702 -4.6679e-18)
(1.04176 -0.0255898 1.78767e-18)
(1.0557 -0.0327942 -1.68972e-18)
(1.59354 -0.658233 -4.10284e-18)
(1.47623 -0.520801 -2.19999e-18)
(1.39877 -0.42017 -2.93446e-18)
(1.33015 -0.342561 2.37197e-18)
(1.28486 -0.283332 -4.87051e-18)
(1.24202 -0.236217 1.34048e-18)
(1.21424 -0.198957 -1.34279e-19)
(1.18573 -0.168628 -9.59786e-19)
(1.16755 -0.143701 -7.13654e-18)
(1.14725 -0.123185 4.80596e-19)
(1.13441 -0.105516 -2.53745e-18)
(1.11888 -0.0910279 -2.46603e-18)
(1.1089 -0.0777443 -1.21424e-17)
(1.09608 -0.0670961 2.90155e-18)
(1.08739 -0.0564563 -6.43684e-18)
(1.07594 -0.048305 -1.24099e-18)
(1.06745 -0.0391694 1.17938e-19)
(1.05656 -0.0327075 -9.44764e-18)
(1.04496 -0.0231403 1.78539e-17)
(1.05979 -0.0296548 -1.46584e-17)
(1.67452 -0.577256 6.04521e-18)
(1.54031 -0.45673 5.27516e-18)
(1.45046 -0.368478 3.31343e-18)
(1.37229 -0.300416 -5.79495e-18)
(1.31972 -0.248473 -1.03692e-18)
(1.27109 -0.207154 3.34531e-18)
(1.23871 -0.174478 4.74666e-18)
(1.20647 -0.147881 -2.43709e-19)
(1.18523 -0.126021 -7.89709e-18)
(1.1624 -0.108029 4.9527e-19)
(1.14739 -0.0925344 1.73986e-18)
(1.13008 -0.0798288 8.01756e-19)
(1.11847 -0.0681798 -2.43745e-18)
(1.10434 -0.0588416 -7.86011e-19)
(1.09434 -0.0495112 8.86578e-18)
(1.08188 -0.0423627 1.52012e-18)
(1.07227 -0.0343513 7.6459e-18)
(1.06058 -0.0286844 -3.67864e-18)
(1.04781 -0.0202945 -1.04254e-17)
(1.06344 -0.0260072 2.58737e-18)
(1.74424 -0.4864 3.51836e-18)
(1.59547 -0.384845 3.3298e-18)
(1.49497 -0.310482 2.28151e-18)
(1.40858 -0.253132 1.87094e-18)
(1.34973 -0.209364 3.69609e-18)
(1.29611 -0.174549 3.77184e-18)
(1.25979 -0.147016 -1.33715e-18)
(1.22434 -0.124604 2.89033e-18)
(1.20046 -0.106186 1.77388e-18)
(1.17545 -0.0910258 2.85842e-18)
(1.15857 -0.0779697 -3.461e-18)
(1.13973 -0.0672641 2.64147e-18)
(1.1267 -0.0574486 -4.02138e-20)
(1.11145 -0.0495804 3.65543e-18)
(1.10032 -0.0417186 -1.50239e-18)
(1.087 -0.0356955 7.56675e-19)
(1.07642 -0.0289452 5.44766e-18)
(1.06405 -0.0241706 -2.99642e-18)
(1.05026 -0.0171012 1.82515e-18)
(1.06659 -0.0219153 1.00888e-18)
(1.8015 -0.387222 2.33698e-18)
(1.64078 -0.306373 2.1743e-18)
(1.53152 -0.247173 1.51326e-18)
(1.43838 -0.201515 1.25325e-18)
(1.37438 -0.166672 1.34728e-18)
(1.31666 -0.138955 -2.24564e-18)
(1.2771 -0.117036 -1.15372e-18)
(1.239 -0.0991949 -2.5132e-18)
(1.21296 -0.0845323 -7.64467e-19)
(1.18617 -0.0724638 9.92699e-19)
(1.16775 -0.0620704 -6.51888e-19)
(1.14765 -0.0535479 3.0202e-18)
(1.13347 -0.0457343 -5.34881e-19)
(1.11729 -0.0394705 2.91605e-18)
(1.10523 -0.0332121 8.14639e-18)
(1.09121 -0.0284172 -1.3913e-18)
(1.07983 -0.0230436 1.40779e-18)
(1.0669 -0.0192428 -4.86733e-19)
(1.05228 -0.0136151 -3.43072e-19)
(1.06917 -0.0174475 -1.5418e-18)
(1.84533 -0.281418 1.07446e-18)
(1.67546 -0.22266 1.35165e-18)
(1.5595 -0.179634 8.87583e-19)
(1.46119 -0.146452 1.8534e-18)
(1.39325 -0.121128 1.1022e-18)
(1.33239 -0.100984 -1.47825e-18)
(1.29035 -0.0850543 -8.35514e-20)
(1.25023 -0.0720883 -2.10806e-18)
(1.22253 -0.0614322 -1.3608e-18)
(1.19437 -0.0526617 -5.29928e-19)
(1.17478 -0.0451084 1.89978e-19)
(1.15371 -0.0389149 7.86182e-20)
(1.13865 -0.0332365 9.84954e-20)
(1.12176 -0.0286846 1.25374e-18)
(1.10899 -0.0241364 1.51891e-18)
(1.09443 -0.0206521 -1.77313e-18)
(1.08244 -0.016747 -2.25388e-18)
(1.06908 -0.0139853 -1.69272e-18)
(1.05382 -0.00989542 1.31816e-18)
(1.07115 -0.0126813 -2.21392e-18)
(1.87497 -0.170799 9.54574e-19)
(1.69891 -0.135136 8.26346e-19)
(1.57842 -0.109021 4.79556e-19)
(1.47661 -0.0888807 3.4301e-19)
(1.40601 -0.0735104 2.1805e-19)
(1.34302 -0.0612849 -7.97354e-19)
(1.2993 -0.0516169 -1.71362e-19)
(1.25783 -0.043748 -6.89157e-19)
(1.229 -0.0372813 -6.58623e-20)
(1.19992 -0.0319587 1.18634e-18)
(1.17953 -0.0273751 3.56403e-19)
(1.15781 -0.0236164 8.01406e-19)
(1.14215 -0.0201707 5.94138e-19)
(1.12478 -0.0174082 1.08755e-18)
(1.11154 -0.0146483 1.237e-18)
(1.0966 -0.0125338 8.21136e-19)
(1.0842 -0.0101641 7.26701e-19)
(1.07056 -0.00848828 1.05517e-18)
(1.05487 -0.00600633 8.73404e-19)
(1.07249 -0.00769736 2.35269e-19)
(1.88992 -0.0572566 2.64602e-19)
(1.71074 -0.0453008 4.13419e-19)
(1.58797 -0.036543 1.61713e-19)
(1.4844 -0.0297894 1.86078e-19)
(1.41244 -0.0246355 1.57761e-19)
(1.34839 -0.0205369 -3.31232e-19)
(1.30383 -0.0172959 4.80511e-20)
(1.26166 -0.0146586 -2.98548e-19)
(1.23226 -0.0124914 2.26743e-19)
(1.20272 -0.0107079 9.24838e-19)
(1.18193 -0.00917213 7.74519e-19)
(1.15988 -0.00791273 8.16318e-19)
(1.14392 -0.00675825 6.00674e-19)
(1.1263 -0.00583273 1.07657e-18)
(1.11282 -0.00490812 1.17171e-18)
(1.0977 -0.00419997 1.05119e-18)
(1.0851 -0.00340615 1.3893e-18)
(1.0713 -0.00284531 1.53827e-18)
(1.0554 -0.00201361 7.28673e-19)
(1.07317 -0.00258133 7.93372e-19)
(1.88992 0.0572654 -5.08041e-19)
(1.71074 0.0453108 6.58916e-20)
(1.58797 0.0365611 -1.39546e-19)
(1.4844 0.0298121 2.52285e-19)
(1.41244 0.0246611 1.86426e-19)
(1.34839 0.0205625 -7.05029e-22)
(1.30382 0.0173206 1.59741e-19)
(1.26166 0.014681 -1.39945e-19)
(1.23226 0.0125111 2.97201e-19)
(1.20272 0.0107251 5.65201e-19)
(1.18193 0.0091865 8.02299e-19)
(1.15988 0.00792528 6.76595e-19)
(1.14391 0.00676846 6.17707e-19)
(1.1263 0.00584157 1.01884e-18)
(1.11282 0.00491494 1.12052e-18)
(1.0977 0.00420516 6.09285e-19)
(1.0851 0.00340949 7.95058e-19)
(1.0713 0.0028464 6.18117e-19)
(1.0554 0.00201355 4.38138e-19)
(1.07317 0.00257966 4.6991e-19)
(1.87498 0.170808 -1.38257e-18)
(1.69892 0.135147 -2.29846e-19)
(1.57843 0.10904 -5.44931e-19)
(1.47662 0.0889037 2.06292e-19)
(1.40601 0.0735363 2.20567e-19)
(1.34303 0.0613107 1.10244e-19)
(1.29931 0.0516418 1.44303e-19)
(1.25783 0.0437705 1.75142e-19)
(1.229 0.0373011 7.33536e-19)
(1.19992 0.031976 5.83855e-19)
(1.17953 0.0273897 8.92715e-19)
(1.15781 0.0236293 7.93865e-19)
(1.14215 0.0201812 8.36117e-19)
(1.12478 0.0174175 1.04258e-18)
(1.11154 0.0146556 1.55177e-18)
(1.09661 0.0125397 9.60886e-19)
(1.08421 0.0101682 1.02911e-18)
(1.07056 0.00849037 4.77663e-19)
(1.05488 0.00600735 9.05057e-19)
(1.0725 0.00769721 1.50236e-19)
(1.84534 0.281429 -1.52849e-18)
(1.67547 0.222671 -5.58743e-19)
(1.55951 0.179653 -1.03376e-18)
(1.46119 0.146474 -1.10685e-18)
(1.39325 0.121153 -5.00183e-19)
(1.33239 0.101009 1.04824e-19)
(1.29035 0.0850781 -7.97489e-19)
(1.25023 0.0721097 1.80859e-18)
(1.22253 0.0614512 2.51582e-18)
(1.19437 0.0526783 1.64628e-18)
(1.17478 0.0451225 1.75395e-18)
(1.15371 0.0389274 1.96972e-18)
(1.13865 0.0332469 5.95177e-19)
(1.12176 0.028694 1.16031e-18)
(1.109 0.0241441 2.48666e-18)
(1.09443 0.0206588 2.76639e-18)
(1.08245 0.0167521 4.18039e-18)
(1.06909 0.0139889 1.60413e-18)
(1.05384 0.00989821 1.81256e-18)
(1.07117 0.0126837 -6.8946e-19)
(1.80152 0.387235 -2.72508e-18)
(1.6408 0.306386 -1.32186e-18)
(1.53154 0.247193 -1.20391e-18)
(1.43839 0.201539 -1.05757e-18)
(1.37439 0.166697 -1.78866e-18)
(1.31666 0.13898 1.46785e-18)
(1.2771 0.11706 3.86625e-19)
(1.23901 0.0992169 7.19368e-19)
(1.21296 0.0845519 2.47847e-18)
(1.18617 0.0724811 1.50492e-19)
(1.16776 0.0620854 3.87487e-19)
(1.14765 0.0535615 3.00393e-18)
(1.13347 0.045746 -9.5329e-19)
(1.11729 0.0394815 2.55271e-19)
(1.10524 0.0332215 -3.67988e-19)
(1.09122 0.0284259 4.85596e-19)
(1.07984 0.0230511 1.38855e-18)
(1.06692 0.0192493 -2.15767e-18)
(1.0523 0.013621 -2.25889e-18)
(1.0692 0.0174541 7.13584e-19)
(1.74426 0.486414 -4.30701e-18)
(1.59549 0.384858 -1.96414e-18)
(1.49499 0.310503 -1.74643e-18)
(1.40859 0.253155 -1.60367e-18)
(1.34974 0.209389 -4.43436e-18)
(1.29611 0.174573 -2.56083e-18)
(1.25979 0.147038 -2.22327e-18)
(1.22434 0.124625 -3.12267e-18)
(1.20046 0.106204 -2.69211e-18)
(1.17546 0.0910419 -1.15754e-18)
(1.15858 0.0779838 -4.64514e-19)
(1.13973 0.0672772 3.16225e-18)
(1.12671 0.0574603 7.88723e-20)
(1.11146 0.0495918 -8.84825e-19)
(1.10033 0.0417289 2.81134e-18)
(1.08702 0.0357057 -7.34955e-18)
(1.07643 0.0289546 2.94851e-18)
(1.06407 0.02418 -3.3547e-18)
(1.05029 0.0171104 2.74794e-18)
(1.06662 0.0219263 1.62935e-18)
(1.67454 0.577272 -5.49875e-18)
(1.54033 0.456746 -2.74711e-18)
(1.45049 0.368501 -2.4802e-18)
(1.37231 0.30044 6.42374e-18)
(1.31973 0.248499 -5.56373e-19)
(1.27109 0.207179 1.05744e-18)
(1.23872 0.174502 -7.42328e-18)
(1.20648 0.147902 -1.57835e-19)
(1.18524 0.126041 -1.55104e-18)
(1.16241 0.108047 6.01333e-18)
(1.1474 0.0925505 -2.33339e-18)
(1.13009 0.0798442 2.41799e-18)
(1.11848 0.0681939 -3.30544e-19)
(1.10435 0.0588558 7.92604e-18)
(1.09435 0.0495245 1.77804e-19)
(1.0819 0.0423763 -8.26295e-19)
(1.07229 0.0343644 2.26736e-19)
(1.06061 0.0286982 -8.99656e-19)
(1.04784 0.0203083 -1.73883e-18)
(1.06349 0.0260243 5.77175e-18)
(1.59357 0.658253 2.39557e-18)
(1.47626 0.520819 6.73108e-18)
(1.39879 0.420194 4.13074e-18)
(1.33016 0.342585 -8.43245e-19)
(1.28487 0.283356 -2.81981e-19)
(1.24203 0.23624 2.01875e-18)
(1.21424 0.198978 2.66197e-18)
(1.18573 0.168647 3.02175e-18)
(1.16756 0.143719 -5.9973e-18)
(1.14725 0.123202 3.5389e-18)
(1.13442 0.105531 -4.58368e-19)
(1.11889 0.0910429 8.3324e-18)
(1.10891 0.0777587 -2.04177e-18)
(1.0961 0.067111 1.34697e-17)
(1.0874 0.056471 2.79886e-18)
(1.07596 0.0483208 -2.04154e-18)
(1.06747 0.0391853 1.43471e-18)
(1.05659 0.032725 2.92476e-18)
(1.045 0.0231585 -6.97131e-18)
(1.05984 0.0296774 3.18221e-18)
(1.50271 0.727971 -6.68665e-19)
(1.40438 0.575981 1.4764e-17)
(1.3408 0.464698 -2.10699e-19)
(1.28288 0.378868 -2.33779e-18)
(1.24577 0.313367 6.88212e-18)
(1.20943 0.26126 3.06415e-18)
(1.18678 0.220052 -1.41855e-18)
(1.16245 0.186509 -2.35406e-18)
(1.14772 0.158941 -1.33375e-17)
(1.13025 0.136251 -8.47307e-19)
(1.11985 0.116709 -6.5251e-18)
(1.10633 0.100686 1.16885e-18)
(1.09818 0.0859955 -1.78335e-17)
(1.08683 0.0742202 4.34086e-18)
(1.07961 0.0624535 -9.94116e-18)
(1.06929 0.0534402 -1.27517e-17)
(1.06206 0.0433374 5.21864e-18)
(1.05207 0.0361931 -2.34728e-17)
(1.0418 0.0256136 1.63415e-18)
(1.05575 0.0328237 -1.93861e-17)
(1.40353 0.785233 -3.29078e-18)
(1.32591 0.621287 1.34379e-18)
(1.27749 0.50125 1.59873e-18)
(1.23126 0.408669 -2.14437e-18)
(1.20307 0.338014 -6.76257e-18)
(1.17383 0.281809 5.2808e-18)
(1.1568 0.237359 -5.00261e-18)
(1.13704 0.201177 -2.95443e-18)
(1.12607 0.171441 -3.08501e-18)
(1.11169 0.146966 -1.13764e-17)
(1.10396 0.125888 9.03813e-18)
(1.09261 0.108605 1.51981e-17)
(1.08646 0.092759 -1.33912e-17)
(1.07672 0.0800579 7.37231e-18)
(1.0711 0.067366 2.12618e-18)
(1.06201 0.0576442 6.75929e-18)
(1.05616 0.046747 -8.73329e-18)
(1.04714 0.0390415 -8.91562e-18)
(1.03832 0.0276302 1.46958e-17)
(1.05128 0.0354085 -7.93684e-18)
(1.29773 0.82906 -7.12025e-18)
(1.24219 0.655965 9.69866e-20)
(1.20995 0.529227 -1.08366e-18)
(1.1762 0.431478 -2.75895e-18)
(1.15753 0.35688 -3.76698e-18)
(1.13586 0.297538 -4.61468e-18)
(1.12482 0.250607 -1.05704e-18)
(1.10994 0.212406 -7.69159e-18)
(1.10297 0.181011 4.48578e-18)
(1.09189 0.15517 8.34143e-18)
(1.08699 0.132916 2.62935e-18)
(1.07798 0.114668 6.4889e-18)
(1.07397 0.0979379 5.39523e-18)
(1.06594 0.084528 -4.2822e-18)
(1.06203 0.0711279 1.22952e-17)
(1.05424 0.0608636 -1.08277e-17)
(1.04986 0.0493585 2.63464e-17)
(1.04189 0.041223 2.66819e-18)
(1.0346 0.0291751 1.17296e-17)
(1.04652 0.0373884 -5.15585e-18)
(1.18711 0.858701 1.1142e-17)
(1.15467 0.679417 9.25853e-19)
(1.13934 0.548149 -2.69822e-18)
(1.11863 0.446904 3.11302e-18)
(1.10991 0.369638 -1.2288e-17)
(1.09616 0.308174 1.79332e-17)
(1.09138 0.259566 7.32922e-18)
(1.0816 0.219999 6.81351e-18)
(1.07882 0.187481 1.54491e-18)
(1.07118 0.160717 1.72547e-17)
(1.06926 0.137667 -2.34526e-18)
(1.06268 0.118768 -1.87315e-17)
(1.0609 0.101439 2.17122e-20)
(1.05466 0.0875503 9.45384e-18)
(1.05254 0.0736714 1.29659e-18)
(1.04613 0.0630408 -5.05758e-18)
(1.04328 0.0511246 -1.52061e-17)
(1.03639 0.0426989 -2.15191e-18)
(1.03071 0.0302205 -8.59374e-18)
(1.04153 0.0387288 4.03069e-17)
(1.07356 0.873651 1.25804e-17)
(1.06483 0.691246 1.0907e-17)
(1.06686 0.557692 1.98514e-18)
(1.05954 0.454685 -2.88782e-18)
(1.06104 0.376074 1.27414e-17)
(1.05542 0.313539 5.03029e-18)
(1.05706 0.264085 -3.64907e-18)
(1.05251 0.22383 3.46017e-18)
(1.05403 0.190746 -1.46439e-17)
(1.04993 0.163516 -1.3719e-17)
(1.05106 0.140065 -3.60894e-18)
(1.04698 0.120837 -4.78844e-18)
(1.04749 0.103207 -3.86116e-18)
(1.04309 0.0890767 -3.26851e-17)
(1.0428 0.0749564 1.3537e-17)
(1.03779 0.0641408 -8.27706e-22)
(1.03652 0.0520173 9.16091e-19)
(1.03074 0.0434453 2.16229e-18)
(1.02671 0.0307498 9.24549e-18)
(1.03641 0.0394073 -2.51624e-17)
(0.959041 0.873651 5.89951e-18)
(0.974223 0.691247 1.07424e-17)
(0.993759 0.557693 4.52159e-18)
(0.999939 0.454685 -7.10079e-18)
(1.01174 0.376073 1.9679e-17)
(1.01432 0.313539 3.34831e-18)
(1.02245 0.264084 3.59315e-18)
(1.02317 0.223829 -2.69737e-18)
(1.02903 0.190746 -1.00564e-17)
(1.0285 0.163516 -1.56738e-17)
(1.0327 0.140065 -3.18544e-18)
(1.03114 0.120837 -3.17433e-18)
(1.03396 0.103208 2.35681e-18)
(1.03141 0.0890778 -2.28511e-18)
(1.03298 0.0749577 -1.60535e-17)
(1.02939 0.0641426 8.35711e-20)
(1.0297 0.0520195 -3.12358e-18)
(1.02505 0.043448 -8.62693e-19)
(1.02269 0.0307528 -1.3319e-17)
(1.03125 0.0394117 -1.41379e-18)
(0.845498 0.858703 1.18175e-17)
(0.884387 0.679421 -1.13837e-17)
(0.921281 0.548153 9.55106e-18)
(0.940848 0.446907 5.90755e-18)
(0.96287 0.36964 -3.44001e-18)
(0.973571 0.308175 7.58414e-19)
(0.988127 0.259567 -2.14677e-18)
(0.994084 0.220001 2.11808e-17)
(1.00424 0.187484 3.02141e-17)
(1.00725 0.16072 -3.79395e-18)
(1.0145 0.137671 -1.12641e-17)
(1.01544 0.118772 -1.29786e-17)
(1.02055 0.101445 7.03924e-18)
(1.01984 0.0875565 1.62364e-17)
(1.02324 0.0736783 1.09872e-18)
(1.02105 0.0630483 1.16911e-18)
(1.02295 0.0511328 -1.81411e-17)
(1.01941 0.0427082 3.24529e-18)
(1.01869 0.0302304 8.69646e-18)
(1.02613 0.0387425 -2.24795e-17)
(0.734877 0.829063 -6.7369e-18)
(0.796862 0.65597 -3.66745e-18)
(0.850668 0.529233 1.16671e-17)
(0.883278 0.431481 1.08403e-18)
(0.915253 0.356881 -7.50381e-18)
(0.933872 0.297538 -2.0699e-17)
(0.954691 0.250608 -2.18342e-18)
(0.965744 0.212407 -8.61756e-18)
(0.980089 0.181012 2.20292e-17)
(0.986549 0.155173 -7.65524e-18)
(0.996764 0.13292 2.53906e-18)
(1.00014 0.114674 -3.21251e-18)
(1.00748 0.0979448 2.57555e-17)
(1.00856 0.0845362 -6.89666e-18)
(1.01375 0.0711373 2.09447e-17)
(1.01293 0.0608747 2.58813e-17)
(1.01636 0.0493708 1.59556e-17)
(1.01391 0.0412375 2.14691e-17)
(1.0148 0.0291907 -1.43886e-17)
(1.02115 0.0374107 4.37968e-17)
(0.629071 0.785237 -1.3157e-18)
(0.713148 0.621296 -8.56352e-18)
(0.783128 0.501259 1.48657e-17)
(0.828213 0.408674 1.97025e-18)
(0.86971 0.338018 -1.93141e-18)
(0.895902 0.281811 -1.70245e-17)
(0.922709 0.237362 6.49178e-18)
(0.938638 0.20118 -1.3294e-18)
(0.956989 0.171446 4.64862e-18)
(0.966747 0.146973 -5.4258e-18)
(0.979802 0.125896 9.53148e-18)
(0.985503 0.108615 -3.10431e-17)
(0.994985 0.0927706 2.40875e-18)
(0.997771 0.080071 -1.17075e-17)
(1.00467 0.0673805 -2.71689e-17)
(1.00516 0.0576606 1.43679e-17)
(1.01006 0.0467651 -2.33232e-17)
(1.00865 0.039062 1.59156e-17)
(1.01108 0.0276523 -2.38175e-17)
(1.01638 0.0354394 -1.192e-17)
(0.529891 0.727975 4.77437e-18)
(0.634675 0.57599 1.73843e-17)
(0.719818 0.464707 -5.95803e-18)
(0.776597 0.378874 4.28498e-18)
(0.827018 0.31337 1.94712e-17)
(0.860309 0.261261 -3.47879e-18)
(0.892731 0.220054 6.39799e-19)
(0.913229 0.186511 -4.68364e-18)
(0.935336 0.158945 -2.7499e-17)
(0.948185 0.136256 1.48856e-17)
(0.963903 0.116718 1.08344e-17)
(0.971786 0.100697 -3.01031e-17)
(0.98327 0.0860082 -9.46065e-19)
(0.98766 0.0742351 -3.72331e-17)
(0.996161 0.0624704 5.41382e-18)
(0.997884 0.0534596 -2.06107e-17)
(1.00416 0.043359 -2.21045e-17)
(1.00372 0.0362181 5.77793e-18)
(1.00759 0.0256407 -3.63922e-18)
(1.0119 0.0328621 5.90405e-18)
(0.439033 0.658257 8.35367e-18)
(0.562787 0.52083 1.67615e-18)
(0.66182 0.420206 3.85953e-18)
(0.729312 0.342592 -7.80174e-18)
(0.787908 0.283361 8.17227e-18)
(0.827703 0.236243 -3.14968e-18)
(0.865267 0.198982 -5.74545e-19)
(0.889952 0.168651 3.29473e-18)
(0.915499 0.143726 2.02379e-17)
(0.93118 0.123211 -3.14905e-18)
(0.949336 0.105543 4.25601e-18)
(0.95922 0.0910572 1.19628e-17)
(0.972537 0.0777757 2.95742e-17)
(0.978396 0.0671302 1.38613e-18)
(0.988366 0.0564924 1.38205e-17)
(0.991214 0.0483449 5.53196e-18)
(0.998749 0.0392118 1.55213e-18)
(0.999198 0.0327551 2.11657e-17)
(1.00439 0.023191 -3.21296e-17)
(1.00781 0.0297231 3.1005e-17)
(0.358052 0.577277 -1.56265e-17)
(0.498714 0.456758 -1.51951e-17)
(0.610127 0.368514 -1.09277e-17)
(0.687167 0.300448 1.21345e-17)
(0.75305 0.248503 -7.24332e-19)
(0.798641 0.207182 -8.67052e-18)
(0.84079 0.174504 -1.04822e-17)
(0.869206 0.147906 -4.0215e-20)
(0.89782 0.126047 1.54635e-17)
(0.916025 0.108056 -2.94016e-18)
(0.936354 0.0925625 -4.84359e-18)
(0.94802 0.079859 -3.72087e-18)
(0.962971 0.0682118 1.918e-18)
(0.97014 0.0588763 3.32168e-18)
(0.981418 0.0495476 -2.28584e-17)
(0.985269 0.0424028 -9.94899e-19)
(0.993927 0.0343937 -1.94228e-17)
(0.995171 0.0287319 9.6805e-18)
(1.00154 0.0203446 3.23454e-17)
(1.00415 0.0260759 -1.0986e-17)
(0.288334 0.486419 -6.28427e-18)
(0.443552 0.384871 -7.34777e-18)
(0.565623 0.310517 -6.11424e-18)
(0.650883 0.253164 -9.89607e-18)
(0.72304 0.209395 -1.22448e-17)
(0.773621 0.174577 -7.42943e-18)
(0.819716 0.147043 8.27627e-18)
(0.851344 0.12463 -6.90572e-18)
(0.882598 0.106212 -1.03204e-17)
(0.902976 0.0910532 -8.8633e-18)
(0.925177 0.0779991 1.11883e-17)
(0.938376 0.0672954 -8.91326e-18)
(0.954734 0.0574818 -9.06099e-20)
(0.963031 0.049616 -1.04079e-17)
(0.975436 0.0417559 8.32193e-18)
(0.980149 0.0357359 4.6345e-18)
(0.989775 0.0289878 -9.14334e-18)
(0.991704 0.0242175 1.06014e-17)
(0.999084 0.0171506 -1.14359e-17)
(1.00101 0.0219831 -3.76677e-20)
(0.231072 0.387238 -2.89479e-18)
(0.398246 0.3064 -3.72301e-18)
(0.52907 0.247208 -2.81278e-18)
(0.621082 0.201548 -4.82999e-18)
(0.698392 0.166704 -2.3488e-18)
(0.753072 0.138984 1.33784e-17)
(0.802408 0.117064 4.15632e-18)
(0.836675 0.099222 1.3197e-17)
(0.870097 0.0845602 4.339e-18)
(0.892259 0.0724925 -1.453e-18)
(0.915997 0.0621008 2.3246e-19)
(0.930457 0.0535802 -7.66285e-18)
(0.94797 0.0457682 5.4518e-18)
(0.957192 0.0395067 -4.64685e-18)