/*--------------------------------*- C++ -*----------------------------------*\
| =========                 |                                                 |
| \\      /  F ield         | foam-extend: Open Source CFD                    |
|  \\    /   O peration     | Version:  3.0                                   |
|   \\  /    A nd           | Web:         http://www.extend-project.de       |
|    \\/     M anipulation  |                                                 |
\*---------------------------------------------------------------------------*/
FoamFile
{
    version     2.0;
    format      ascii;
    class       volScalarField;
    location    "1";
    object      p;
}
// * * * * * * * * * * * * * * * * * * * * * * * * * * * * * * * * * * * * * //

dimensions      [0 0 0 0 0 0 0];

internalField   nonuniform List<scalar> 
728
(
0.0480489
-0.04795
0.0829168
-0.0830339
-0.0163455
0.0163394
-0.225022
0.224579
-0.084266
0.115
0.0842134
-0.11518
-0.086673
-0.116367
0.0870508
0.116393
-0.00845563
0.132146
-0.132021
0.00846873
0.0425203
0.154209
-0.154551
-0.0423748
0.0330655
0.195347
-0.193893
-0.0333803
-0.00867441
0.144302
-0.143906
0.00867067
0.0388805
0.163201
-0.16385
-0.0388638
0.120836
0.0371544
-0.121019
-0.0374267
-0.0478021
0.134989
0.0478205
-0.135305
-0.0443723
-0.137233
0.0441992
0.13709
-0.103512
-0.153121
0.154341
0.103779
0.254573
0.0128461
-0.254513
-0.0128019
-0.0566283
0.113849
-0.11381
0.0566825
-0.0267309
-0.137149
0.136852
0.0267188
0.093456
0.0653733
-0.0934347
-0.0649378
0.0202912
-0.0204461
0.168908
-0.167389
0.109092
0.0377474
-0.0379191
-0.109192
-0.0115361
0.147537
0.011547
-0.147543
0.123042
-0.123041
-0.121072
0.12127
-0.0288331
0.0944246
0.0289402
-0.0944163
0.0935593
0.267695
-0.0935643
-0.26866
0.122348
-0.122233
-0.141431
0.141173
0.0916151
0.120257
-0.0914511
-0.119907
-0.0514873
0.0517616
0.0978631
-0.0982709
0.0683853
-0.102517
0.102597
-0.0681606
-0.0308056
0.109729
0.0309162
-0.109704
-0.00260055
0.124694
0.00247437
-0.12468
-0.0584712
0.0585563
0.0900838
-0.0900145
-0.0543915
0.102761
-0.102517
0.0545364
-0.087029
-0.101973
0.0869714
0.102002
-0.0970579
0.0970868
-0.0832133
0.0829192
-0.0427915
0.107344
-0.107592
0.0428746
-0.0893637
-0.0812646
0.0894424
0.0813194
0.0377731
0.152513
-0.152373
-0.0378488
0.0645647
0.121464
-0.0644661
-0.121362
-0.0350338
0.123977
-0.124129
0.0346767
0.0749656
-0.0746887
0.0779774
-0.0779974
-0.00869603
-0.135553
0.00865399
0.135458
-0.214412
-0.0809689
0.216215
0.0811555
-0.0338148
-0.172229
0.173326
0.0340128
0.13617
-0.0515706
-0.13587
0.0515872
-0.101322
0.101271
-0.0812244
0.0812162
-0.0697902
0.069911
-0.0664744
0.0663689
0.139617
-0.139216
0.0798995
-0.0795601
-0.065316
-0.1791
0.179671
0.0654197
0.0523127
0.140424
-0.0519147
-0.140649
0.0681659
-0.134228
0.134005
-0.0682732
0.00844609
-0.101845
0.101802
-0.00847765
-0.0274406
-0.115239
0.115096
0.0272431
0.0717621
-0.10334
-0.0715108
0.103327
-0.059495
-0.0987252
0.0987178
0.0596004
-0.125115
0.124883
0.0383195
-0.0383915
-0.0337296
-0.195629
0.194933
0.0334516
-0.0257044
-0.112619
0.112501
0.0255245
-0.0107517
0.0106806
0.148881
-0.148992
0.0859898
-0.0722501
0.0720579
-0.0856456
-0.00273134
0.120639
0.00265115
-0.120659
0.134482
0.0725813
-0.0724893
-0.134078
0.0265869
-0.0266916
0.185793
-0.187399
0.10342
-0.203829
-0.10357
0.204067
-0.11798
-0.0537733
0.117763
0.0536974
0.117107
0.176502
-0.117385
-0.175866
-0.0319244
-0.113395
0.031986
0.113468
-0.146478
0.0505556
0.146134
-0.0502058
-0.113891
-0.0790164
0.0793381
0.113899
-0.0637406
0.0636071
-0.174592
0.174964
0.11648
0.00840162
-0.00841728
-0.116452
0.0808227
0.0771962
-0.0766625
-0.0807334
0.031475
0.148144
-0.0310937
-0.148321
-0.00962778
0.133951
-0.133803
0.00964172
0.11552
0.083681
-0.0833579
-0.114634
-0.0559293
0.0844048
-0.0844118
0.0558564
-0.10336
-0.010455
0.103365
0.0104717
-0.0581086
-0.0972585
0.0972732
0.0580888
0.00471663
-0.00470398
0.167141
-0.167491
-0.0234661
0.135691
-0.135841
0.0233932
-0.0737718
0.0736026
0.190581
-0.190788
-0.0659608
0.0660813
-0.127689
0.127472
-0.167884
-0.115688
0.115658
0.168077
-0.0918054
0.0916219
-0.142434
0.142581
0.0375677
0.0945843
-0.0376462
-0.0946593
0.0597509
-0.0597481
0.120839
-0.120583
-0.0809023
0.0807949
-0.174168
0.174238
0.00287141
0.153895
-0.153635
-0.00285506
-0.0950738
-0.122779
0.0952891
0.122673
0.10552
0.114977
-0.105743
-0.11556
0.00737993
-0.00742016
0.143823
-0.143646
-0.066515
-0.11027
0.0665036
0.11026
0.0557601
0.140835
-0.0556147
-0.140597
0.0420768
0.106606
-0.106332
-0.0419133
0.131178
0.114142
-0.130934
-0.114247
-0.0965218
-0.137663
0.137643
0.0966859
-0.0716356
-0.11159
0.0715835
0.111578
0.122426
-0.0457207
-0.122254
0.0457111
0.00420105
0.118134
-0.118147
-0.00433642
0.00883475
0.117645
-0.00886099
-0.117627
-0.0340618
-0.118295
0.0341756
0.118361
-0.0881509
0.151638
0.0878729
-0.151585
-0.195545
0.217678
-0.218134
0.195783
0.0696646
0.278427
-0.0696982
-0.27786
-0.0869608
0.0873923
0.0940072
-0.0942686
0.00900079
-0.00909706
0.13646
-0.136647
-0.0668946
0.145965
-0.146016
0.066779
0.0216979
-0.123888
-0.0216678
0.124028
0.0120926
0.124146
-0.012081
-0.12409
0.0129464
-0.0131478
0.125597
-0.125698
0.0380276
-0.0887368
0.0886399
-0.0379312
0.014221
0.118128
-0.118228
-0.0143821
0.0687308
-0.0813066
-0.0686837
0.0814874
-0.126034
0.093628
0.126916
-0.093909
-0.157671
0.0160711
-0.0159535
0.157643
0.0573669
-0.0769421
-0.0574423
0.0770514
0.0410645
-0.0410806
-0.147409
0.147516
-0.125594
-0.0483318
0.125518
0.0483717
0.0104519
0.170702
-0.0104703
-0.171397
-0.139297
0.139175
0.037971
-0.038065
0.105295
0.102321
-0.104267
-0.102042
0.0468399
-0.103603
0.10351
-0.0469368
-0.105028
-0.101552
0.102474
0.104935
-0.0186138
0.102654
0.0185435
-0.102758
-0.139884
0.139994
0.0246554
-0.0246961
0.155402
0.0135279
-0.0135419
-0.156193
-0.13711
-0.0767121
0.0771281
0.137408
-0.0282107
-0.0996554
0.0281167
0.0995516
0.131494
-0.148997
-0.132074
0.149255
-0.116377
0.117142
0.116828
-0.117565
-0.180018
-0.0096037
0.18025
0.00978548
-0.105743
0.105744
-0.00107112
0.0010605
-0.119921
-0.0522744
0.119797
0.0521499
0.157809
0.0371006
-0.157312
-0.0371212
0.0200918
0.100665
-0.020022
-0.100738
-0.0798288
-0.091157
0.0799315
0.091546
-0.082895
0.080498
0.0830174
-0.0803296
0.126201
0.0655548
-0.126354
-0.0656124
-0.116342
0.0716084
-0.0716513
0.116334
-0.0239365
0.0240122
0.176573
-0.175515
0.00985699
0.158351
-0.00975526
-0.15808
0.107118
-0.0370536
0.0367776
-0.107255
0.119564
-0.119534
-0.154336
0.154914
-0.146126
0.14682
-0.12388
0.124029
0.0485594
-0.103224
0.103162
-0.0487829
-0.046493
-0.116415
0.116251
0.0462874
-0.0333661
-0.161348
0.0336081
0.161828
0.162106
-0.161693
-0.0415626
0.0419054
0.0912485
-0.0912809
0.0474498
-0.0474835
0.0181089
-0.113175
0.113254
-0.018076
-0.122509
-0.199991
0.19988
0.122827
0.0114939
0.164803
-0.011548
-0.164932
-0.0680076
0.0679743
-0.101461
0.101478
-0.0640072
0.0768946
0.0639465
-0.0769424
0.0589402
0.148062
-0.0589933
-0.147765
-0.116233
-0.0203738
0.116333
0.0204136
0.16285
-0.0681524
-0.162468
0.0682666
0.150876
0.0582722
-0.0580719
-0.150767
-0.109025
-0.0584092
0.0582729
0.108971
-0.0868488
-0.0958535
0.0864114
0.0962364
-0.0818971
0.158914
-0.158919
0.0822553
-0.0855594
0.171661
-0.170817
0.0857601
0.0323911
0.149848
-0.150325
-0.0320025
0.190139
-0.145893
-0.190413
0.146102
0.0948833
0.0709519
-0.0947616
-0.0708926
0.0539228
0.182318
-0.181185
-0.0535164
0.0634113
0.150938
-0.150206
-0.0628939
-0.023385
0.0233227
-0.126919
0.127076
0.150684
0.023918
-0.150702
-0.0238149
-0.065819
0.066064
-0.0889469
0.0890121
0.0542904
-0.106119
-0.054356
0.106062
0.0707227
0.0901878
-0.0901471
-0.0708028
-0.0337742
0.0337669
0.127565
-0.127657
0.129413
-0.129375
-0.0906451
0.0906091
-0.132776
0.0878136
0.132692
-0.0879083
-0.0238581
-0.13524
0.0236709
0.135437
-0.135874
0.135993
0.0733638
-0.0732867
0.0231946
0.147011
-0.146664
-0.0231037
-0.153424
-0.069387
0.153358
0.0692423
-0.11711
0.0143163
0.117017
-0.0145565
0.0357143
-0.132929
0.132894
-0.0358999
0.12104
0.0231959
-0.0235773
-0.121173
0.132892
-0.0223673
0.0223119
-0.133107
0.0254662
0.125651
-0.0257081
-0.125785
)
;

boundaryField
{
    insideCircle
    {
        type            zeroGradient;
    }
    outsideCircle
    {
        type            zeroGradient;
    }
    topAndBottom
    {
        type            empty;
    }
}


// ************************************************************************* //
