/*--------------------------------*- C++ -*----------------------------------*\
| =========                 |                                                 |
| \\      /  F ield         | foam-extend: Open Source CFD                    |
|  \\    /   O peration     | Version:  3.0                                   |
|   \\  /    A nd           | Web:         http://www.extend-project.de       |
|    \\/     M anipulation  |                                                 |
\*---------------------------------------------------------------------------*/
FoamFile
{
    version     2.0;
    format      ascii;
    class       volVectorField;
    location    "26";
    object      u;
}
// * * * * * * * * * * * * * * * * * * * * * * * * * * * * * * * * * * * * * //

dimensions      [0 0 0 0 0 0 0];

internalField   nonuniform List<vector> 
120
(
(0.499924 -0.157153 -8.51031e-20)
(0.758616 -0.0863535 5.95074e-18)
(0.953194 -0.0444755 -1.4072e-17)
(0.959315 -0.0243247 7.44546e-18)
(1.04732 0.00453045 3.51816e-17)
(0.657095 -0.429382 2.39993e-18)
(0.844981 -0.235957 -3.33723e-17)
(0.99769 -0.121549 -9.97517e-18)
(0.983657 -0.066506 -3.16981e-17)
(1.04283 0.0122998 -2.80578e-17)
(0.929316 -0.586558 4.04034e-18)
(0.994581 -0.32233 6.55575e-18)
(1.07476 -0.166052 1.8603e-17)
(1.02583 -0.0908594 1.12551e-17)
(1.03504 0.0167797 8.85265e-17)
(1.24366 -0.586558 1.89795e-18)
(1.16732 -0.322335 -7.00215e-19)
(1.16375 -0.166054 2.74641e-17)
(1.07453 -0.0908663 -1.43383e-18)
(1.02606 0.0167739 -6.25422e-18)
(1.51588 -0.429394 -2.17862e-18)
(1.31692 -0.235964 3.37088e-18)
(1.24082 -0.121563 -3.16693e-18)
(1.1167 -0.0665175 6.00151e-18)
(1.01828 0.012275 -2.96711e-17)
(1.67305 -0.157166 -9.08201e-19)
(1.40329 -0.0863701 5.01704e-18)
(1.28532 -0.0444921 -2.77192e-18)
(1.14105 -0.0243486 2.24335e-18)
(1.01379 0.00449521 -1.33551e-17)
(1.67306 0.157168 -1.08931e-18)
(1.40329 0.0863727 4.32007e-18)
(1.28532 0.0444953 4.28727e-19)
(1.14105 0.024351 1.54159e-18)
(1.01379 -0.00449333 -1.14349e-17)
(1.51588 0.429397 -2.98924e-18)
(1.31692 0.235967 9.6161e-18)
(1.24082 0.121566 -1.44375e-18)
(1.1167 0.0665193 8.45529e-18)
(1.01828 -0.0122745 3.49203e-18)
(1.24366 0.586561 -2.96952e-18)
(1.16732 0.322338 -1.31483e-17)
(1.16375 0.166056 -2.07206e-17)
(1.07453 0.0908671 -1.48583e-17)
(1.02606 -0.0167759 -5.65636e-17)
(0.929318 0.586562 2.078e-18)
(0.994581 0.322332 1.58075e-18)
(1.07475 0.166054 -2.67683e-17)
(1.02583 0.0908591 5.89215e-18)
(1.03504 -0.0167844 4.14901e-17)
(0.657096 0.429387 7.82334e-18)
(0.844981 0.235959 -4.55581e-18)
(0.997689 0.12155 2.46845e-17)
(0.983655 0.0665045 -8.1331e-18)
(1.04283 -0.0123067 6.57004e-17)
(0.499925 0.157159 -2.45601e-19)
(0.758616 0.0863558 -1.15946e-17)
(0.953194 0.0444758 1.84333e-17)
(0.959314 0.0243227 -2.83198e-18)
(1.04732 -0.00453825 3.27471e-18)
(0.499932 -0.157184 8.30259e-20)
(0.758618 -0.086389 -5.95379e-18)
(0.953204 -0.0445211 1.40656e-17)
(0.959319 -0.0243813 -7.44957e-18)
(1.04734 0.00443609 -3.51782e-17)
(0.657103 -0.429412 -2.4009e-18)
(0.844998 -0.235989 3.33555e-17)
(0.997706 -0.121594 9.97242e-18)
(0.983682 -0.0665571 3.16843e-17)
(1.04286 0.0122116 2.8046e-17)
(0.929338 -0.58658 -4.04314e-18)
(0.994601 -0.32236 -6.5609e-18)
(1.07479 -0.166087 -1.85969e-17)
(1.02587 -0.0909066 -1.12556e-17)
(1.0351 0.0167081 -8.85049e-17)
(1.24368 -0.58658 -1.90219e-18)
(1.16735 -0.322355 6.90614e-19)
(1.16379 -0.166085 -2.74558e-17)
(1.07458 -0.0908986 1.42946e-18)
(1.02614 0.0167164 6.23203e-18)
(1.51591 -0.429402 2.17429e-18)
(1.31695 -0.235981 -3.37833e-18)
(1.24087 -0.121578 3.15876e-18)
(1.11676 -0.0665425 -6.00319e-18)
(1.01837 0.0122433 2.96449e-17)
(1.67308 -0.157174 9.05831e-19)
(1.40333 -0.0863721 -5.01844e-18)
(1.28536 -0.0445018 2.76426e-18)
(1.14111 -0.0243531 -2.24716e-18)
(1.01388 0.00448052 1.33479e-17)
(1.67309 0.157176 1.08731e-18)
(1.40333 0.0863747 -4.32306e-18)
(1.28536 0.0445045 -4.35162e-19)
(1.14111 0.024355 -1.54563e-18)
(1.01388 -0.00447927 1.14391e-17)
(1.51591 0.429405 2.98837e-18)
(1.31695 0.235983 -9.63298e-18)
(1.24086 0.121581 1.44092e-18)
(1.11676 0.0665438 -8.46958e-18)
(1.01837 -0.012243 -3.504e-18)
(1.24368 0.586584 2.96685e-18)
(1.16735 0.322357 1.31434e-17)
(1.16379 0.166087 2.0727e-17)
(1.07457 0.090899 1.48581e-17)
(1.02613 -0.016718 5.65875e-17)
(0.92934 0.586584 -2.08219e-18)
(0.994601 0.322363 -1.59033e-18)
(1.07479 0.166088 2.67769e-17)
(1.02586 0.0909059 -5.89657e-18)
(1.0351 -0.0167119 -4.15129e-17)
(0.657104 0.429417 -7.82768e-18)
(0.844998 0.235991 4.54838e-18)
(0.997704 0.121594 -2.46928e-17)
(0.983681 0.0665555 8.13151e-18)
(1.04286 -0.0122176 -6.57274e-17)
(0.499933 0.157189 2.43188e-19)
(0.758618 0.0863913 1.15933e-17)
(0.953203 0.0445213 -1.8441e-17)
(0.959319 0.0243791 2.82823e-18)
(1.04734 -0.00444353 -3.28211e-18)
)
;

boundaryField
{
    out
    {
        type            fixedValue;
        value           uniform (1 0 0);
    }
    in
    {
        type            myVelocity;
    }
    frontAndBack
    {
        type            empty;
    }
}


// ************************************************************************* //
