/*--------------------------------*- C++ -*----------------------------------*\
| =========                 |                                                 |
| \\      /  F ield         | foam-extend: Open Source CFD                    |
|  \\    /   O peration     | Version:  3.0                                   |
|   \\  /    A nd           | Web:         http://www.extend-project.de       |
|    \\/     M anipulation  |                                                 |
\*---------------------------------------------------------------------------*/
FoamFile
{
    version     2.0;
    format      ascii;
    class       volScalarField;
    location    "8.4";
    object      p;
}
// * * * * * * * * * * * * * * * * * * * * * * * * * * * * * * * * * * * * * //

dimensions      [0 0 0 0 0 0 0];

internalField   nonuniform List<scalar> 
400
(
1.92032
0.60587
0.675706
0.30468
0.713704
0.564798
1.00543
0.894574
1.30735
1.19763
1.59465
1.48171
1.87966
1.75085
2.13651
1.94158
2.23055
1.81488
1.75222
0.598099
3.73235
2.64381
2.50056
1.9279
2.06078
1.65269
1.82572
1.46577
1.62149
1.27072
1.40538
1.04629
1.16708
0.785562
0.890123
0.459651
0.501555
-0.0583474
-0.259302
-1.19168
2.98644
1.98358
1.97421
1.53509
1.74389
1.45207
1.69482
1.43367
1.67628
1.41487
1.66255
1.39239
1.65142
1.36255
1.61729
1.27804
1.45845
0.975515
0.88958
-0.000210365
3.08373
2.45328
2.30373
1.93546
1.96684
1.67136
1.74097
1.45657
1.52935
1.2453
1.32387
1.04185
1.13456
0.851217
0.948189
0.636516
0.672534
0.25295
0.0531229
-0.609274
2.44126
1.88779
1.88143
1.5979
1.73622
1.51885
1.70274
1.49371
1.71155
1.50102
1.76731
1.55788
1.88448
1.67036
2.03769
1.77829
2.08728
1.66522
1.66165
0.834994
2.25489
1.93369
1.8541
1.65949
1.66139
1.48401
1.50753
1.3244
1.36585
1.18613
1.26363
1.10339
1.23862
1.10148
1.2953
1.13853
1.31835
0.987608
0.905872
0.047327
1.88472
1.66652
1.67732
1.54252
1.61454
1.47665
1.59239
1.44081
1.61848
1.4651
1.73768
1.60034
2.00236
1.88613
2.42294
2.27651
2.84614
2.46074
2.67662
1.46857
1.58986
1.56986
1.53873
1.48239
1.43869
1.33997
1.2997
1.17794
1.16383
1.04757
1.09222
1.01451
1.15989
1.14163
1.41868
1.41418
1.76807
1.52059
1.5995
0.313398
1.37377
1.5124
1.51633
1.51176
1.49323
1.41111
1.4292
1.30728
1.40129
1.27097
1.48945
1.38655
1.79514
1.74784
2.40543
2.37345
3.22773
2.91468
3.47661
1.79879
1.02997
1.35769
1.34519
1.40445
1.29299
1.23948
1.11497
1.01298
0.91057
0.80428
0.761103
0.701811
0.775729
0.815617
1.07495
1.20181
1.64103
1.55099
1.77716
0.243654
0.902292
1.41237
1.38765
1.49325
1.37586
1.32873
1.23489
1.11462
1.08669
0.936962
1.02648
0.899382
1.19643
1.1545
1.78393
1.83953
2.86376
2.72754
3.71656
1.92353
0.574382
1.23064
1.2212
1.37359
1.19716
1.16931
0.960151
0.847856
0.637644
0.49161
0.30949
0.194706
0.100497
0.108598
0.198322
0.398804
0.738554
0.921269
1.21114
0.018883
0.527065
1.32909
1.27726
1.46754
1.27569
1.25305
1.05841
0.921156
0.75307
0.546569
0.444855
0.230072
0.288113
0.163857
0.556938
0.633356
1.585
1.75199
3.155
1.99945
0.29108
1.16435
1.15628
1.37671
1.16249
1.15329
0.877979
0.738901
0.42042
0.198212
-0.151186
-0.38881
-0.725662
-0.854726
-1.07985
-0.912847
-0.89068
-0.350464
-0.148759
-0.119327
0.355126
1.28119
1.22303
1.46942
1.24684
1.24555
0.976711
0.813441
0.509665
0.223061
-0.0978332
-0.4504
-0.721422
-1.02006
-1.06251
-1.07752
-0.521377
0.0156894
1.65166
2.12344
0.29858
1.21328
1.20815
1.46941
1.24876
1.25465
0.935919
0.762937
0.351334
0.0365308
-0.475403
-0.877183
-1.48
-1.84072
-2.46406
-2.48573
-2.95338
-2.1038
-2.18591
-0.016391
0.537455
1.3716
1.32694
1.59976
1.37996
1.39332
1.07329
0.879415
0.461831
0.0913239
-0.431527
-0.940039
-1.55581
-2.09613
-2.68962
-2.94507
-3.10848
-2.30726
-0.915836
2.08503
0.767626
1.51542
1.50274
1.77013
1.55018
1.55512
1.20318
0.990823
0.51126
0.110325
-0.523153
-1.08734
-1.91238
-2.55408
-3.55995
-3.95117
-4.96629
-4.12
-4.68416
0.0855676
1.2469
1.77993
1.74428
2.00564
1.78004
1.78007
1.41349
1.1811
0.683386
0.245005
-0.416745
-1.05571
-1.93883
-2.73199
-3.84163
-4.49195
-5.56763
-4.9133
-4.71681
0.995727
1.89676
2.28834
2.22325
2.4343
2.17171
2.12328
1.73149
1.46447
0.954381
0.490393
-0.183048
-0.862894
-1.78589
-2.68849
-3.92576
-4.85453
-6.2804
-6.16517
-7.22224
-1.09707
)
;

boundaryField
{
    cavity
    {
        type            implicitExtrapolation;
    }
    lid
    {
        type            implicitExtrapolation;
    }
    frontAndBack
    {
        type            empty;
    }
}


// ************************************************************************* //
