/*--------------------------------*- C++ -*----------------------------------*\
| =========                 |                                                 |
| \\      /  F ield         | OpenFOAM: The Open Source CFD Toolbox           |
|  \\    /   O peration     | Version:  2.2.0                                 |
|   \\  /    A nd           | Web:      www.OpenFOAM.org                      |
|    \\/     M anipulation  |                                                 |
\*---------------------------------------------------------------------------*/
FoamFile
{
    version     2.0;
    format      ascii;
    class       volVectorField;
    location    "4.9";
    object      s;
}
// * * * * * * * * * * * * * * * * * * * * * * * * * * * * * * * * * * * * * //

dimensions      [0 1 -1 0 0 0 0];

internalField   nonuniform List<vector> 
1600
(
(1.76005 0.0691547 0)
(1.49553 0.0587602 0)
(1.29807 0.0510014 0)
(1.14715 0.0450716 0)
(1.02743 0.040368 0)
(0.930346 0.0365535 0)
(0.850012 0.0333971 0)
(0.782451 0.0307426 0)
(0.724847 0.0284794 0)
(0.675155 0.026527 0)
(0.631851 0.0248256 0)
(0.593781 0.0233298 0)
(0.560051 0.0220045 0)
(0.529959 0.0208222 0)
(0.502949 0.019761 0)
(0.478573 0.0188032 0)
(0.45645 0.017934 0)
(0.436338 0.0171438 0)
(0.417813 0.0164159 0)
(0.401013 0.0157558 0)
(1.7492 0.207035 0)
(1.48631 0.175918 0)
(1.29006 0.15269 0)
(1.14007 0.134937 0)
(1.0211 0.120855 0)
(0.92461 0.109435 0)
(0.844771 0.0999853 0)
(0.777627 0.0920382 0)
(0.720378 0.0852624 0)
(0.670992 0.0794172 0)
(0.627956 0.0743235 0)
(0.59012 0.0698453 0)
(0.556598 0.0658777 0)
(0.526692 0.0623381 0)
(0.499848 0.059161 0)
(0.475623 0.0562937 0)
(0.453636 0.0536914 0)
(0.433648 0.0513257 0)
(0.415237 0.0491466 0)
(0.39854 0.0471703 0)
(1.72756 0.343638 0)
(1.46793 0.291991 0)
(1.27411 0.253436 0)
(1.12597 0.22397 0)
(1.00847 0.200597 0)
(0.913174 0.181642 0)
(0.834322 0.165957 0)
(0.768008 0.152766 0)
(0.711468 0.14152 0)
(0.662693 0.131818 0)
(0.620189 0.123363 0)
(0.582821 0.11593 0)
(0.549713 0.109345 0)
(0.520177 0.10347 0)
(0.493666 0.0981962 0)
(0.46974 0.093437 0)
(0.448025 0.0891177 0)
(0.428285 0.0851911 0)
(0.410101 0.0815742 0)
(0.393611 0.078294 0)
(1.69527 0.478121 0)
(1.44049 0.406263 0)
(1.25029 0.35262 0)
(1.10493 0.311622 0)
(0.98962 0.279102 0)
(0.896107 0.252728 0)
(0.818729 0.230905 0)
(0.753655 0.212553 0)
(0.698171 0.196905 0)
(0.650308 0.183406 0)
(0.608598 0.171642 0)
(0.571928 0.1613 0)
(0.539439 0.152138 0)
(0.510456 0.143963 0)
(0.484439 0.136626 0)
(0.460961 0.130004 0)
(0.439652 0.123995 0)
(0.42028 0.118531 0)
(0.402437 0.113499 0)
(0.386255 0.108935 0)
(1.65253 0.609655 0)
(1.40418 0.51803 0)
(1.21877 0.44963 0)
(1.07707 0.397353 0)
(0.964671 0.355886 0)
(0.873516 0.322257 0)
(0.798089 0.29443 0)
(0.734655 0.271028 0)
(0.68057 0.251075 0)
(0.633913 0.233863 0)
(0.593255 0.218863 0)
(0.55751 0.205676 0)
(0.52584 0.193992 0)
(0.497587 0.183569 0)
(0.472227 0.174213 0)
(0.44934 0.16577 0)
(0.428568 0.158107 0)
(0.409685 0.151141 0)
(0.392291 0.144724 0)
(0.376517 0.138904 0)
(1.5996 0.737431 0)
(1.3592 0.626603 0)
(1.17974 0.543868 0)
(1.04258 0.480634 0)
(0.933775 0.430476 0)
(0.845539 0.389799 0)
(0.772528 0.35614 0)
(0.711126 0.327833 0)
(0.658773 0.303698 0)
(0.61361 0.282878 0)
(0.574254 0.264734 0)
(0.539654 0.248784 0)
(0.508998 0.234651 0)
(0.48165 0.222044 0)
(0.457102 0.210727 0)
(0.434948 0.200514 0)
(0.414842 0.191245 0)
(0.396564 0.182818 0)
(0.379727 0.175056 0)
(0.364458 0.168017 0)
(1.53681 0.860661 0)
(1.30585 0.731313 0)
(1.13343 0.634752 0)
(1.00165 0.560952 0)
(0.897121 0.502412 0)
(0.812349 0.454937 0)
(0.742204 0.415654 0)
(0.683212 0.382617 0)
(0.632914 0.354449 0)
(0.589524 0.330149 0)
(0.551713 0.308974 0)
(0.518471 0.290357 0)
(0.489019 0.273863 0)
(0.462744 0.259149 0)
(0.43916 0.245941 0)
(0.417875 0.234021 0)
(0.398558 0.223203 0)
(0.380997 0.213369 0)
(0.364821 0.20431 0)
(0.350152 0.196094 0)
(1.46455 0.978584 0)
(1.24445 0.831514 0)
(1.08014 0.721723 0)
(0.954552 0.637811 0)
(0.854937 0.57125 0)
(0.774151 0.517271 0)
(0.707304 0.472605 0)
(0.651086 0.435041 0)
(0.603154 0.403014 0)
(0.561804 0.375385 0)
(0.52577 0.351308 0)
(0.494091 0.330141 0)
(0.466024 0.311387 0)
(0.440985 0.294656 0)
(0.418509 0.279639 0)
(0.398226 0.266086 0)
(0.379817 0.253786 0)
(0.363082 0.242604 0)
(0.347667 0.232303 0)
(0.333687 0.222962 0)
(1.38326 1.09047 0)
(1.17537 0.926588 0)
(1.02018 0.804245 0)
(0.901567 0.710738 0)
(0.807482 0.636567 0)
(0.73118 0.576415 0)
(0.668044 0.526642 0)
(0.614946 0.484784 0)
(0.569674 0.449094 0)
(0.53062 0.418306 0)
(0.496586 0.391477 0)
(0.466666 0.367889 0)
(0.440156 0.346991 0)
(0.416507 0.328347 0)
(0.395279 0.311613 0)
(0.376121 0.29651 0)
(0.358734 0.282803 0)
(0.342928 0.270343 0)
(0.328369 0.258865 0)
(0.315165 0.248456 0)
(1.29344 1.19564 0)
(1.09905 1.01595 0)
(0.953935 0.881807 0)
(0.843024 0.779283 0)
(0.755048 0.697959 0)
(0.683701 0.632006 0)
(0.624664 0.577433 0)
(0.575015 0.531537 0)
(0.532682 0.492406 0)
(0.496164 0.458649 0)
(0.464341 0.429231 0)
(0.436363 0.403369 0)
(0.411575 0.380455 0)
(0.389461 0.360014 0)
(0.369612 0.341665 0)
(0.351698 0.325106 0)
(0.33544 0.310077 0)
(0.32066 0.296415 0)
(0.307046 0.28383 0)
(0.2947 0.272417 0)
(1.19564 1.29344 0)
(1.01595 1.09905 0)
(0.881808 0.953934 0)
(0.779284 0.843023 0)
(0.697959 0.755047 0)
(0.632007 0.6837 0)
(0.577434 0.624663 0)
(0.531538 0.575014 0)
(0.492407 0.532682 0)
(0.458649 0.496163 0)
(0.429232 0.46434 0)
(0.40337 0.436362 0)
(0.380456 0.411574 0)
(0.360014 0.389461 0)
(0.341666 0.369611 0)
(0.325106 0.351698 0)
(0.310078 0.33544 0)
(0.296415 0.32066 0)
(0.28383 0.307046 0)
(0.272417 0.2947 0)
(1.09047 1.38326 0)
(0.926588 1.17537 0)
(0.804245 1.02018 0)
(0.710739 0.901566 0)
(0.636568 0.807481 0)
(0.576416 0.731179 0)
(0.526643 0.668043 0)
(0.484785 0.614945 0)
(0.449095 0.569673 0)
(0.418307 0.530619 0)
(0.391477 0.496585 0)
(0.36789 0.466665 0)
(0.346991 0.440156 0)
(0.328348 0.416507 0)
(0.311613 0.395279 0)
(0.29651 0.376121 0)
(0.282803 0.358734 0)
(0.270343 0.342928 0)
(0.258865 0.328368 0)
(0.248456 0.315165 0)
(0.978584 1.46455 0)
(0.831514 1.24445 0)
(0.721724 1.08013 0)
(0.637812 0.954551 0)
(0.571251 0.854936 0)
(0.517272 0.77415 0)
(0.472606 0.707303 0)
(0.435042 0.651085 0)
(0.403014 0.603152 0)
(0.375385 0.561803 0)
(0.351309 0.525769 0)
(0.330142 0.494091 0)
(0.311387 0.466023 0)
(0.294657 0.440984 0)
(0.279639 0.418509 0)
(0.266086 0.398225 0)
(0.253786 0.379817 0)
(0.242604 0.363082 0)
(0.232303 0.347666 0)
(0.222962 0.333687 0)
(0.86066 1.53681 0)
(0.731313 1.30585 0)
(0.634753 1.13343 0)
(0.560953 1.00165 0)
(0.502413 0.89712 0)
(0.454938 0.812348 0)
(0.415655 0.742203 0)
(0.382617 0.683211 0)
(0.354449 0.632913 0)
(0.33015 0.589523 0)
(0.308974 0.551712 0)
(0.290358 0.51847 0)
(0.273864 0.489018 0)
(0.259149 0.462743 0)
(0.245941 0.439159 0)
(0.234021 0.417875 0)
(0.223203 0.398557 0)
(0.213369 0.380997 0)
(0.20431 0.364821 0)
(0.196094 0.350151 0)
(0.737431 1.5996 0)
(0.626603 1.3592 0)
(0.543869 1.17974 0)
(0.480635 1.04257 0)
(0.430477 0.933773 0)
(0.389799 0.845538 0)
(0.356141 0.772527 0)
(0.327834 0.711124 0)
(0.303699 0.658772 0)
(0.282879 0.613609 0)
(0.264735 0.574253 0)
(0.248784 0.539653 0)
(0.234652 0.508997 0)
(0.222044 0.481649 0)
(0.210727 0.457101 0)
(0.200514 0.434947 0)
(0.191245 0.414841 0)
(0.182818 0.396563 0)
(0.175056 0.379726 0)
(0.168017 0.364457 0)
(0.609655 1.65253 0)
(0.51803 1.40417 0)
(0.449631 1.21877 0)
(0.397354 1.07707 0)
(0.355887 0.96467 0)
(0.322258 0.873514 0)
(0.294431 0.798087 0)
(0.271029 0.734654 0)
(0.251076 0.680569 0)
(0.233863 0.633912 0)
(0.218864 0.593253 0)
(0.205677 0.557509 0)
(0.193993 0.525839 0)
(0.18357 0.497586 0)
(0.174214 0.472226 0)
(0.16577 0.449339 0)
(0.158107 0.428567 0)
(0.151141 0.409684 0)
(0.144724 0.39229 0)
(0.138904 0.376516 0)
(0.478121 1.69527 0)
(0.406263 1.44049 0)
(0.352621 1.25029 0)
(0.311623 1.10493 0)
(0.279102 0.989618 0)
(0.252729 0.896106 0)
(0.230906 0.818728 0)
(0.212553 0.753654 0)
(0.196905 0.69817 0)
(0.183406 0.650306 0)
(0.171643 0.608596 0)
(0.161301 0.571927 0)
(0.152138 0.539438 0)
(0.143964 0.510455 0)
(0.136626 0.484439 0)
(0.130004 0.46096 0)
(0.123995 0.439651 0)
(0.118531 0.42028 0)
(0.113499 0.402436 0)
(0.108935 0.386254 0)
(0.343637 1.72756 0)
(0.291991 1.46793 0)
(0.253437 1.27411 0)
(0.223971 1.12597 0)
(0.200597 1.00847 0)
(0.181642 0.913172 0)
(0.165958 0.834321 0)
(0.152767 0.768007 0)
(0.14152 0.711467 0)
(0.131818 0.662691 0)
(0.123364 0.620187 0)
(0.115931 0.58282 0)
(0.109345 0.549712 0)
(0.10347 0.520176 0)
(0.0981965 0.493665 0)
(0.0934372 0.469739 0)
(0.0891178 0.448024 0)
(0.0851911 0.428284 0)
(0.0815741 0.4101 0)
(0.0782939 0.39361 0)
(0.207035 1.74919 0)
(0.175918 1.48631 0)
(0.15269 1.29006 0)
(0.134938 1.14007 0)
(0.120856 1.0211 0)
(0.109436 0.924608 0)
(0.0999861 0.844769 0)
(0.092039 0.777625 0)
(0.0852631 0.720377 0)
(0.0794179 0.670991 0)
(0.0743241 0.627954 0)
(0.0698458 0.590119 0)
(0.0658781 0.556596 0)
(0.0623385 0.526691 0)
(0.0591613 0.499847 0)
(0.0562939 0.475622 0)
(0.0536915 0.453635 0)
(0.0513258 0.433648 0)
(0.0491466 0.415236 0)
(0.0471703 0.398539 0)
(0.0691549 1.76005 0)
(0.0587607 1.49553 0)
(0.0510021 1.29807 0)
(0.0450724 1.14714 0)
(0.0403689 1.02743 0)
(0.0365543 0.930344 0)
(0.033398 0.85001 0)
(0.0307435 0.782449 0)
(0.0284801 0.724846 0)
(0.0265277 0.675153 0)
(0.0248262 0.63185 0)
(0.0233304 0.593779 0)
(0.022005 0.560049 0)
(0.0208226 0.529958 0)
(0.0197613 0.502948 0)
(0.0188035 0.478572 0)
(0.0179342 0.456449 0)
(0.017144 0.436338 0)
(0.016416 0.417812 0)
(0.0157558 0.401012 0)
(-0.0691543 1.76005 0)
(-0.0587594 1.49553 0)
(-0.0510005 1.29807 0)
(-0.0450706 1.14714 0)
(-0.0403669 1.02743 0)
(-0.0365524 0.930344 0)
(-0.033396 0.85001 0)
(-0.0307416 0.782449 0)
(-0.0284784 0.724846 0)
(-0.026526 0.675153 0)
(-0.0248247 0.63185 0)
(-0.023329 0.593779 0)
(-0.0220038 0.560049 0)
(-0.0208216 0.529958 0)
(-0.0197604 0.502948 0)
(-0.0188028 0.478572 0)
(-0.0179336 0.456449 0)
(-0.0171435 0.436338 0)
(-0.0164157 0.417812 0)
(-0.0157557 0.401012 0)
(-0.207034 1.74919 0)
(-0.175917 1.48631 0)
(-0.152689 1.29006 0)
(-0.134936 1.14007 0)
(-0.120854 1.0211 0)
(-0.109434 0.924608 0)
(-0.0999841 0.844769 0)
(-0.0920371 0.777625 0)
(-0.0852614 0.720377 0)
(-0.0794162 0.670991 0)
(-0.0743225 0.627954 0)
(-0.0698444 0.590119 0)
(-0.0658769 0.556596 0)
(-0.0623374 0.526691 0)
(-0.0591604 0.499847 0)
(-0.0562931 0.475621 0)
(-0.0536909 0.453635 0)
(-0.0513253 0.433647 0)
(-0.0491463 0.415236 0)
(-0.0471702 0.398539 0)
(-0.343637 1.72756 0)
(-0.29199 1.46792 0)
(-0.253435 1.27411 0)
(-0.223969 1.12597 0)
(-0.200595 1.00847 0)
(-0.18164 0.913172 0)
(-0.165956 0.83432 0)
(-0.152765 0.768007 0)
(-0.141519 0.711467 0)
(-0.131817 0.662691 0)
(-0.123362 0.620187 0)
(-0.115929 0.582819 0)
(-0.109344 0.549712 0)
(-0.103469 0.520176 0)
(-0.0981955 0.493664 0)
(-0.0934364 0.469739 0)
(-0.0891171 0.448024 0)
(-0.0851907 0.428284 0)
(-0.0815738 0.4101 0)
(-0.0782938 0.39361 0)
(-0.47812 1.69527 0)
(-0.406262 1.44049 0)
(-0.352619 1.25029 0)
(-0.311621 1.10493 0)
(-0.2791 0.989618 0)
(-0.252727 0.896105 0)
(-0.230904 0.818728 0)
(-0.212551 0.753653 0)
(-0.196903 0.69817 0)
(-0.183404 0.650306 0)
(-0.171641 0.608596 0)
(-0.161299 0.571927 0)
(-0.152137 0.539438 0)
(-0.143963 0.510454 0)
(-0.136625 0.484438 0)
(-0.130004 0.460959 0)
(-0.123994 0.439651 0)
(-0.118531 0.420279 0)
(-0.113498 0.402436 0)
(-0.108935 0.386253 0)
(-0.609654 1.65253 0)
(-0.518028 1.40417 0)
(-0.449629 1.21877 0)
(-0.397352 1.07707 0)
(-0.355885 0.964669 0)
(-0.322256 0.873514 0)
(-0.294429 0.798087 0)
(-0.271027 0.734653 0)
(-0.251074 0.680569 0)
(-0.233861 0.633912 0)
(-0.218862 0.593253 0)
(-0.205675 0.557508 0)
(-0.193991 0.525839 0)
(-0.183568 0.497586 0)
(-0.174213 0.472225 0)
(-0.165769 0.449338 0)
(-0.158106 0.428567 0)
(-0.15114 0.409684 0)
(-0.144723 0.39229 0)
(-0.138904 0.376516 0)
(-0.73743 1.5996 0)
(-0.626601 1.3592 0)
(-0.543866 1.17974 0)
(-0.480633 1.04257 0)
(-0.430474 0.933773 0)
(-0.389797 0.845537 0)
(-0.356138 0.772526 0)
(-0.327832 0.711124 0)
(-0.303697 0.658771 0)
(-0.282877 0.613609 0)
(-0.264733 0.574253 0)
(-0.248782 0.539653 0)
(-0.23465 0.508997 0)
(-0.222043 0.481649 0)
(-0.210726 0.457101 0)
(-0.200513 0.434947 0)
(-0.191244 0.414841 0)
(-0.182818 0.396562 0)
(-0.175056 0.379726 0)
(-0.168017 0.364457 0)
(-0.860659 1.53681 0)
(-0.731311 1.30585 0)
(-0.634751 1.13343 0)
(-0.56095 1.00165 0)
(-0.50241 0.897119 0)
(-0.454936 0.812348 0)
(-0.415652 0.742202 0)
(-0.382615 0.68321 0)
(-0.354447 0.632913 0)
(-0.330148 0.589523 0)
(-0.308972 0.551712 0)
(-0.290356 0.51847 0)
(-0.273862 0.489018 0)
(-0.259148 0.462743 0)
(-0.24594 0.439158 0)
(-0.23402 0.417874 0)
(-0.223202 0.398557 0)
(-0.213368 0.380996 0)
(-0.204309 0.36482 0)
(-0.196094 0.350151 0)
(-0.978581 1.46455 0)
(-0.831512 1.24444 0)
(-0.721722 1.08013 0)
(-0.637809 0.95455 0)
(-0.571249 0.854935 0)
(-0.517269 0.774149 0)
(-0.472603 0.707302 0)
(-0.43504 0.651085 0)
(-0.403012 0.603152 0)
(-0.375383 0.561802 0)
(-0.351307 0.525769 0)
(-0.33014 0.49409 0)
(-0.311386 0.466023 0)
(-0.294655 0.440984 0)
(-0.279638 0.418508 0)
(-0.266085 0.398225 0)
(-0.253785 0.379816 0)
(-0.242603 0.363081 0)
(-0.232303 0.347666 0)
(-0.222962 0.333686 0)
(-1.09047 1.38325 0)
(-0.926586 1.17537 0)
(-0.804243 1.02018 0)
(-0.710736 0.901565 0)
(-0.636565 0.80748 0)
(-0.576414 0.731178 0)
(-0.526641 0.668042 0)
(-0.484782 0.614945 0)
(-0.449093 0.569673 0)
(-0.418305 0.530618 0)
(-0.391475 0.496585 0)
(-0.367888 0.466665 0)
(-0.34699 0.440155 0)
(-0.328346 0.416506 0)
(-0.311611 0.395278 0)
(-0.296509 0.37612 0)
(-0.282802 0.358733 0)
(-0.270342 0.342927 0)
(-0.258864 0.328368 0)
(-0.248455 0.315164 0)
(-1.19564 1.29343 0)
(-1.01595 1.09905 0)
(-0.881805 0.953932 0)
(-0.779281 0.843022 0)
(-0.697957 0.755046 0)
(-0.632004 0.683699 0)
(-0.577431 0.624663 0)
(-0.531536 0.575013 0)
(-0.492404 0.532681 0)
(-0.458647 0.496163 0)
(-0.42923 0.464339 0)
(-0.403368 0.436362 0)
(-0.380454 0.411574 0)
(-0.360013 0.38946 0)
(-0.341664 0.369611 0)
(-0.325105 0.351697 0)
(-0.310076 0.335439 0)
(-0.296414 0.320659 0)
(-0.283829 0.307045 0)
(-0.272417 0.294699 0)
(-1.29343 1.19564 0)
(-1.09905 1.01595 0)
(-0.953932 0.881806 0)
(-0.843021 0.779282 0)
(-0.755045 0.697958 0)
(-0.683698 0.632005 0)
(-0.624662 0.577432 0)
(-0.575012 0.531537 0)
(-0.53268 0.492405 0)
(-0.496162 0.458648 0)
(-0.464338 0.429231 0)
(-0.436361 0.403369 0)
(-0.411573 0.380455 0)
(-0.389459 0.360013 0)
(-0.36961 0.341665 0)
(-0.351696 0.325105 0)
(-0.335439 0.310077 0)
(-0.320659 0.296414 0)
(-0.307045 0.28383 0)
(-0.294698 0.272417 0)
(-1.38325 1.09047 0)
(-1.17537 0.926586 0)
(-1.02018 0.804243 0)
(-0.901564 0.710737 0)
(-0.807479 0.636566 0)
(-0.731177 0.576415 0)
(-0.668041 0.526642 0)
(-0.614943 0.484783 0)
(-0.569671 0.449094 0)
(-0.530617 0.418306 0)
(-0.496584 0.391476 0)
(-0.466664 0.367889 0)
(-0.440154 0.34699 0)
(-0.416505 0.328347 0)
(-0.395277 0.311612 0)
(-0.37612 0.296509 0)
(-0.358733 0.282802 0)
(-0.342927 0.270342 0)
(-0.328367 0.258864 0)
(-0.315164 0.248455 0)
(-1.46455 0.978581 0)
(-1.24444 0.831512 0)
(-1.08013 0.721722 0)
(-0.954549 0.63781 0)
(-0.854934 0.57125 0)
(-0.774148 0.51727 0)
(-0.707301 0.472604 0)
(-0.651083 0.435041 0)
(-0.603151 0.403013 0)
(-0.561801 0.375384 0)
(-0.525768 0.351308 0)
(-0.494089 0.33014 0)
(-0.466022 0.311386 0)
(-0.440983 0.294656 0)
(-0.418507 0.279638 0)
(-0.398224 0.266085 0)
(-0.379815 0.253785 0)
(-0.36308 0.242603 0)
(-0.347665 0.232303 0)
(-0.333685 0.222962 0)
(-1.53681 0.860659 0)
(-1.30585 0.731311 0)
(-1.13343 0.634751 0)
(-1.00165 0.560951 0)
(-0.897118 0.502411 0)
(-0.812346 0.454937 0)
(-0.742201 0.415653 0)
(-0.683209 0.382616 0)
(-0.632911 0.354448 0)
(-0.589522 0.330149 0)
(-0.55171 0.308973 0)
(-0.518468 0.290357 0)
(-0.489016 0.273863 0)
(-0.462742 0.259148 0)
(-0.439157 0.24594 0)
(-0.417873 0.234021 0)
(-0.398556 0.223202 0)
(-0.380995 0.213368 0)
(-0.36482 0.204309 0)
(-0.35015 0.196094 0)
(-1.5996 0.73743 0)
(-1.3592 0.626602 0)
(-1.17974 0.543867 0)
(-1.04257 0.480633 0)
(-0.933771 0.430475 0)
(-0.845536 0.389798 0)
(-0.772525 0.356139 0)
(-0.711123 0.327833 0)
(-0.65877 0.303698 0)
(-0.613607 0.282877 0)
(-0.574251 0.264734 0)
(-0.539651 0.248783 0)
(-0.508996 0.234651 0)
(-0.481648 0.222043 0)
(-0.4571 0.210726 0)
(-0.434946 0.200513 0)
(-0.41484 0.191244 0)
(-0.396562 0.182818 0)
(-0.379725 0.175056 0)
(-0.364456 0.168017 0)
(-1.65253 0.609654 0)
(-1.40417 0.518029 0)
(-1.21877 0.449629 0)
(-1.07707 0.397352 0)
(-0.964667 0.355885 0)
(-0.873512 0.322256 0)
(-0.798086 0.29443 0)
(-0.734652 0.271028 0)
(-0.680567 0.251075 0)
(-0.63391 0.233862 0)
(-0.593252 0.218863 0)
(-0.557507 0.205676 0)
(-0.525837 0.193992 0)
(-0.497584 0.183569 0)
(-0.472224 0.174213 0)
(-0.449337 0.16577 0)
(-0.428566 0.158106 0)
(-0.409683 0.15114 0)
(-0.392289 0.144723 0)
(-0.376515 0.138904 0)
(-1.69527 0.478119 0)
(-1.44049 0.406262 0)
(-1.25029 0.35262 0)
(-1.10492 0.311622 0)
(-0.989616 0.279101 0)
(-0.896104 0.252728 0)
(-0.818726 0.230905 0)
(-0.753652 0.212552 0)
(-0.698168 0.196904 0)
(-0.650305 0.183405 0)
(-0.608595 0.171642 0)
(-0.571925 0.1613 0)
(-0.539437 0.152137 0)
(-0.510453 0.143963 0)
(-0.484437 0.136626 0)
(-0.460958 0.130004 0)
(-0.439649 0.123994 0)
(-0.420278 0.118531 0)
(-0.402434 0.113498 0)
(-0.386252 0.108934 0)
(-1.72755 0.343637 0)
(-1.46792 0.29199 0)
(-1.2741 0.253436 0)
(-1.12597 0.223969 0)
(-1.00846 0.200596 0)
(-0.91317 0.181641 0)
(-0.834319 0.165957 0)
(-0.768005 0.152766 0)
(-0.711465 0.141519 0)
(-0.66269 0.131817 0)
(-0.620185 0.123363 0)
(-0.582818 0.11593 0)
(-0.54971 0.109344 0)
(-0.520175 0.103469 0)
(-0.493663 0.0981958 0)
(-0.469737 0.0934367 0)
(-0.448023 0.0891173 0)
(-0.428282 0.0851907 0)
(-0.410099 0.0815738 0)
(-0.393609 0.0782936 0)
(-1.74919 0.207034 0)
(-1.48631 0.175917 0)
(-1.29006 0.152689 0)
(-1.14007 0.134936 0)
(-1.02109 0.120855 0)
(-0.924606 0.109435 0)
(-0.844768 0.099985 0)
(-0.777623 0.092038 0)
(-0.720375 0.0852622 0)
(-0.670989 0.0794169 0)
(-0.627953 0.0743232 0)
(-0.590117 0.0698451 0)
(-0.556595 0.0658774 0)
(-0.526689 0.0623379 0)
(-0.499846 0.0591607 0)
(-0.47562 0.0562934 0)
(-0.453633 0.0536911 0)
(-0.433646 0.0513254 0)
(-0.415235 0.0491463 0)
(-0.398538 0.0471701 0)
(-1.76004 0.0691545 0)
(-1.49553 0.05876 0)
(-1.29806 0.0510012 0)
(-1.14714 0.0450714 0)
(-1.02743 0.0403678 0)
(-0.930342 0.0365533 0)
(-0.850008 0.033397 0)
(-0.782447 0.0307425 0)
(-0.724844 0.0284792 0)
(-0.675152 0.0265268 0)
(-0.631848 0.0248254 0)
(-0.593778 0.0233296 0)
(-0.560048 0.0220044 0)
(-0.529957 0.0208221 0)
(-0.502947 0.0197608 0)
(-0.478571 0.0188031 0)
(-0.456448 0.0179339 0)
(-0.436336 0.0171437 0)
(-0.417811 0.0164158 0)
(-0.40101 0.0157557 0)
(-1.76004 -0.0691545 0)
(-1.49553 -0.05876 0)
(-1.29806 -0.0510013 0)
(-1.14714 -0.0450715 0)
(-1.02743 -0.0403679 0)
(-0.930342 -0.0365534 0)
(-0.850008 -0.033397 0)
(-0.782447 -0.0307426 0)
(-0.724844 -0.0284793 0)
(-0.675152 -0.0265269 0)
(-0.631848 -0.0248255 0)
(-0.593778 -0.0233297 0)
(-0.560048 -0.0220044 0)
(-0.529957 -0.0208221 0)
(-0.502947 -0.0197609 0)
(-0.478571 -0.0188031 0)
(-0.456448 -0.0179339 0)
(-0.436336 -0.0171437 0)
(-0.417811 -0.0164158 0)
(-0.40101 -0.0157557 0)
(-1.74919 -0.207034 0)
(-1.48631 -0.175917 0)
(-1.29006 -0.152689 0)
(-1.14007 -0.134937 0)
(-1.02109 -0.120855 0)
(-0.924606 -0.109435 0)
(-0.844768 -0.0999851 0)
(-0.777623 -0.092038 0)
(-0.720375 -0.0852622 0)
(-0.670989 -0.079417 0)
(-0.627953 -0.0743233 0)
(-0.590117 -0.0698451 0)
(-0.556595 -0.0658775 0)
(-0.526689 -0.0623379 0)
(-0.499846 -0.0591607 0)
(-0.47562 -0.0562934 0)
(-0.453634 -0.0536911 0)
(-0.433646 -0.0513255 0)
(-0.415235 -0.0491463 0)
(-0.398538 -0.0471701 0)
(-1.72755 -0.343637 0)
(-1.46792 -0.29199 0)
(-1.2741 -0.253436 0)
(-1.12597 -0.22397 0)
(-1.00846 -0.200596 0)
(-0.91317 -0.181641 0)
(-0.834319 -0.165957 0)
(-0.768005 -0.152766 0)
(-0.711465 -0.14152 0)
(-0.66269 -0.131817 0)
(-0.620185 -0.123363 0)
(-0.582818 -0.11593 0)
(-0.54971 -0.109344 0)
(-0.520175 -0.103469 0)
(-0.493663 -0.0981959 0)
(-0.469737 -0.0934367 0)
(-0.448023 -0.0891174 0)
(-0.428282 -0.0851908 0)
(-0.410099 -0.0815738 0)
(-0.393609 -0.0782936 0)
(-1.69527 -0.478119 0)
(-1.44049 -0.406262 0)
(-1.25029 -0.35262 0)
(-1.10492 -0.311622 0)
(-0.989616 -0.279101 0)
(-0.896104 -0.252728 0)
(-0.818726 -0.230905 0)
(-0.753652 -0.212552 0)
(-0.698168 -0.196904 0)
(-0.650305 -0.183405 0)
(-0.608595 -0.171642 0)
(-0.571926 -0.1613 0)
(-0.539437 -0.152137 0)
(-0.510453 -0.143963 0)
(-0.484437 -0.136626 0)
(-0.460958 -0.130004 0)
(-0.439649 -0.123994 0)
(-0.420278 -0.118531 0)
(-0.402435 -0.113498 0)
(-0.386252 -0.108934 0)
(-1.65253 -0.609654 0)
(-1.40417 -0.518029 0)
(-1.21877 -0.44963 0)
(-1.07707 -0.397353 0)
(-0.964667 -0.355885 0)
(-0.873513 -0.322256 0)
(-0.798086 -0.29443 0)
(-0.734652 -0.271028 0)
(-0.680567 -0.251075 0)
(-0.63391 -0.233862 0)
(-0.593252 -0.218863 0)
(-0.557507 -0.205676 0)
(-0.525837 -0.193992 0)
(-0.497584 -0.183569 0)
(-0.472224 -0.174213 0)
(-0.449337 -0.16577 0)
(-0.428566 -0.158106 0)
(-0.409683 -0.15114 0)
(-0.392289 -0.144723 0)
(-0.376515 -0.138904 0)
(-1.5996 -0.73743 0)
(-1.3592 -0.626602 0)
(-1.17974 -0.543867 0)
(-1.04257 -0.480633 0)
(-0.933771 -0.430475 0)
(-0.845536 -0.389798 0)
(-0.772525 -0.356139 0)
(-0.711123 -0.327833 0)
(-0.65877 -0.303698 0)
(-0.613607 -0.282878 0)
(-0.574251 -0.264734 0)
(-0.539651 -0.248783 0)
(-0.508996 -0.234651 0)
(-0.481648 -0.222043 0)
(-0.4571 -0.210726 0)
(-0.434946 -0.200513 0)
(-0.41484 -0.191244 0)
(-0.396562 -0.182818 0)
(-0.379725 -0.175056 0)
(-0.364456 -0.168017 0)
(-1.53681 -0.860659 0)
(-1.30585 -0.731311 0)
(-1.13343 -0.634751 0)
(-1.00165 -0.560951 0)
(-0.897118 -0.502411 0)
(-0.812346 -0.454937 0)
(-0.742201 -0.415653 0)
(-0.683209 -0.382616 0)
(-0.632912 -0.354448 0)
(-0.589522 -0.330149 0)
(-0.55171 -0.308973 0)
(-0.518469 -0.290357 0)
(-0.489016 -0.273863 0)
(-0.462742 -0.259148 0)
(-0.439158 -0.24594 0)
(-0.417873 -0.234021 0)
(-0.398556 -0.223202 0)
(-0.380996 -0.213368 0)
(-0.36482 -0.204309 0)
(-0.35015 -0.196094 0)
(-1.46455 -0.978581 0)
(-1.24444 -0.831512 0)
(-1.08013 -0.721722 0)
(-0.954549 -0.63781 0)
(-0.854934 -0.57125 0)
(-0.774148 -0.51727 0)
(-0.707301 -0.472605 0)
(-0.651083 -0.435041 0)
(-0.603151 -0.403013 0)
(-0.561801 -0.375384 0)
(-0.525768 -0.351308 0)
(-0.494089 -0.330141 0)
(-0.466022 -0.311387 0)
(-0.440983 -0.294656 0)
(-0.418508 -0.279638 0)
(-0.398224 -0.266085 0)
(-0.379815 -0.253785 0)
(-0.36308 -0.242603 0)
(-0.347665 -0.232303 0)
(-0.333686 -0.222962 0)
(-1.38325 -1.09047 0)
(-1.17537 -0.926586 0)
(-1.02018 -0.804243 0)
(-0.901564 -0.710737 0)
(-0.807479 -0.636566 0)
(-0.731177 -0.576415 0)
(-0.668041 -0.526642 0)
(-0.614943 -0.484783 0)
(-0.569672 -0.449094 0)
(-0.530617 -0.418306 0)
(-0.496584 -0.391476 0)
(-0.466664 -0.367889 0)
(-0.440154 -0.34699 0)
(-0.416505 -0.328347 0)
(-0.395277 -0.311612 0)
(-0.37612 -0.296509 0)
(-0.358733 -0.282803 0)
(-0.342927 -0.270342 0)
(-0.328367 -0.258864 0)
(-0.315164 -0.248455 0)
(-1.29343 -1.19564 0)
(-1.09905 -1.01595 0)
(-0.953932 -0.881806 0)
(-0.843021 -0.779282 0)
(-0.755045 -0.697958 0)
(-0.683698 -0.632005 0)
(-0.624662 -0.577432 0)
(-0.575012 -0.531537 0)
(-0.53268 -0.492405 0)
(-0.496162 -0.458648 0)
(-0.464338 -0.429231 0)
(-0.436361 -0.403369 0)
(-0.411573 -0.380455 0)
(-0.38946 -0.360013 0)
(-0.36961 -0.341665 0)
(-0.351697 -0.325105 0)
(-0.335439 -0.310077 0)
(-0.320659 -0.296414 0)
(-0.307045 -0.28383 0)
(-0.294699 -0.272417 0)
(-1.19564 -1.29343 0)
(-1.01595 -1.09905 0)
(-0.881805 -0.953933 0)
(-0.779281 -0.843023 0)
(-0.697957 -0.755047 0)
(-0.632004 -0.6837 0)
(-0.577431 -0.624663 0)
(-0.531536 -0.575013 0)
(-0.492404 -0.532681 0)
(-0.458647 -0.496163 0)
(-0.42923 -0.464339 0)
(-0.403368 -0.436362 0)
(-0.380454 -0.411574 0)
(-0.360013 -0.38946 0)
(-0.341664 -0.369611 0)
(-0.325105 -0.351697 0)
(-0.310076 -0.335439 0)
(-0.296414 -0.320659 0)
(-0.283829 -0.307045 0)
(-0.272417 -0.294699 0)
(-1.09047 -1.38325 0)
(-0.926586 -1.17537 0)
(-0.804243 -1.02018 0)
(-0.710736 -0.901565 0)
(-0.636565 -0.80748 0)
(-0.576414 -0.731178 0)
(-0.526641 -0.668042 0)
(-0.484782 -0.614945 0)
(-0.449093 -0.569673 0)
(-0.418305 -0.530618 0)
(-0.391475 -0.496585 0)
(-0.367888 -0.466665 0)
(-0.34699 -0.440155 0)
(-0.328346 -0.416506 0)
(-0.311612 -0.395278 0)
(-0.296509 -0.37612 0)
(-0.282802 -0.358733 0)
(-0.270342 -0.342927 0)
(-0.258864 -0.328368 0)
(-0.248455 -0.315164 0)
(-0.978582 -1.46455 0)
(-0.831512 -1.24444 0)
(-0.721722 -1.08013 0)
(-0.637809 -0.95455 0)
(-0.571249 -0.854935 0)
(-0.517269 -0.774149 0)
(-0.472603 -0.707303 0)
(-0.43504 -0.651085 0)
(-0.403012 -0.603152 0)
(-0.375384 -0.561803 0)
(-0.351307 -0.525769 0)
(-0.33014 -0.49409 0)
(-0.311386 -0.466023 0)
(-0.294655 -0.440984 0)
(-0.279638 -0.418508 0)
(-0.266085 -0.398225 0)
(-0.253785 -0.379816 0)
(-0.242603 -0.363081 0)
(-0.232303 -0.347666 0)
(-0.222962 -0.333686 0)
(-0.860659 -1.53681 0)
(-0.731311 -1.30585 0)
(-0.634751 -1.13343 0)
(-0.56095 -1.00165 0)
(-0.50241 -0.89712 0)
(-0.454936 -0.812348 0)
(-0.415652 -0.742202 0)
(-0.382615 -0.68321 0)
(-0.354447 -0.632913 0)
(-0.330148 -0.589523 0)
(-0.308973 -0.551712 0)
(-0.290356 -0.51847 0)
(-0.273862 -0.489018 0)
(-0.259148 -0.462743 0)
(-0.24594 -0.439159 0)
(-0.23402 -0.417874 0)
(-0.223202 -0.398557 0)
(-0.213368 -0.380996 0)
(-0.204309 -0.36482 0)
(-0.196094 -0.350151 0)
(-0.73743 -1.5996 0)
(-0.626601 -1.3592 0)
(-0.543867 -1.17974 0)
(-0.480633 -1.04257 0)
(-0.430475 -0.933773 0)
(-0.389797 -0.845537 0)
(-0.356139 -0.772526 0)
(-0.327832 -0.711124 0)
(-0.303697 -0.658772 0)
(-0.282877 -0.613609 0)
(-0.264733 -0.574253 0)
(-0.248783 -0.539653 0)
(-0.23465 -0.508997 0)
(-0.222043 -0.481649 0)
(-0.210726 -0.457101 0)
(-0.200513 -0.434947 0)
(-0.191244 -0.414841 0)
(-0.182818 -0.396563 0)
(-0.175056 -0.379726 0)
(-0.168017 -0.364457 0)
(-0.609654 -1.65253 0)
(-0.518029 -1.40417 0)
(-0.449629 -1.21877 0)
(-0.397352 -1.07707 0)
(-0.355885 -0.964669 0)
(-0.322256 -0.873514 0)
(-0.294429 -0.798087 0)
(-0.271027 -0.734653 0)
(-0.251074 -0.680569 0)
(-0.233862 -0.633912 0)
(-0.218862 -0.593253 0)
(-0.205675 -0.557509 0)
(-0.193992 -0.525839 0)
(-0.183569 -0.497586 0)
(-0.174213 -0.472225 0)
(-0.165769 -0.449339 0)
(-0.158106 -0.428567 0)
(-0.15114 -0.409684 0)
(-0.144723 -0.39229 0)
(-0.138904 -0.376516 0)
(-0.47812 -1.69527 0)
(-0.406262 -1.44049 0)
(-0.352619 -1.25029 0)
(-0.311621 -1.10493 0)
(-0.2791 -0.989618 0)
(-0.252727 -0.896105 0)
(-0.230904 -0.818728 0)
(-0.212551 -0.753653 0)
(-0.196903 -0.69817 0)
(-0.183405 -0.650306 0)
(-0.171641 -0.608596 0)
(-0.161299 -0.571927 0)
(-0.152137 -0.539438 0)
(-0.143963 -0.510455 0)
(-0.136625 -0.484438 0)
(-0.130004 -0.46096 0)
(-0.123994 -0.439651 0)
(-0.118531 -0.420279 0)
(-0.113498 -0.402436 0)
(-0.108935 -0.386254 0)
(-0.343637 -1.72756 0)
(-0.29199 -1.46792 0)
(-0.253435 -1.27411 0)
(-0.223969 -1.12597 0)
(-0.200596 -1.00847 0)
(-0.18164 -0.913172 0)
(-0.165956 -0.83432 0)
(-0.152765 -0.768007 0)
(-0.141519 -0.711467 0)
(-0.131817 -0.662691 0)
(-0.123362 -0.620187 0)
(-0.115929 -0.58282 0)
(-0.109344 -0.549712 0)
(-0.103469 -0.520176 0)
(-0.0981956 -0.493665 0)
(-0.0934365 -0.469739 0)
(-0.0891172 -0.448024 0)
(-0.0851907 -0.428284 0)
(-0.0815739 -0.4101 0)
(-0.0782938 -0.39361 0)
(-0.207034 -1.74919 0)
(-0.175917 -1.48631 0)
(-0.152689 -1.29006 0)
(-0.134936 -1.14007 0)
(-0.120854 -1.0211 0)
(-0.109434 -0.924608 0)
(-0.0999842 -0.844769 0)
(-0.0920372 -0.777625 0)
(-0.0852614 -0.720377 0)
(-0.0794163 -0.670991 0)
(-0.0743226 -0.627954 0)
(-0.0698445 -0.590119 0)
(-0.065877 -0.556596 0)
(-0.0623375 -0.526691 0)
(-0.0591604 -0.499847 0)
(-0.0562932 -0.475622 0)
(-0.053691 -0.453635 0)
(-0.0513254 -0.433648 0)
(-0.0491463 -0.415236 0)
(-0.0471702 -0.39854 0)
(-0.0691543 -1.76005 0)
(-0.0587595 -1.49553 0)
(-0.0510006 -1.29807 0)
(-0.0450706 -1.14714 0)
(-0.040367 -1.02743 0)
(-0.0365525 -0.930344 0)
(-0.0333961 -0.85001 0)
(-0.0307417 -0.782449 0)
(-0.0284785 -0.724846 0)
(-0.0265261 -0.675153 0)
(-0.0248248 -0.63185 0)
(-0.0233291 -0.59378 0)
(-0.0220039 -0.560049 0)
(-0.0208216 -0.529958 0)
(-0.0197605 -0.502948 0)
(-0.0188028 -0.478572 0)
(-0.0179337 -0.456449 0)
(-0.0171436 -0.436338 0)
(-0.0164158 -0.417812 0)
(-0.0157558 -0.401012 0)
(1.76005 -0.0691547 0)
(1.7492 -0.207035 0)
(1.72756 -0.343638 0)
(1.69527 -0.478121 0)
(1.65253 -0.609655 0)
(1.5996 -0.737431 0)
(1.53681 -0.860661 0)
(1.46455 -0.978584 0)
(1.38326 -1.09047 0)
(1.29344 -1.19564 0)
(1.19564 -1.29344 0)
(1.09047 -1.38326 0)
(0.978583 -1.46455 0)
(0.86066 -1.53681 0)
(0.737431 -1.5996 0)
(0.609655 -1.65253 0)
(0.47812 -1.69527 0)
(0.343637 -1.72756 0)
(0.207035 -1.74919 0)
(0.0691549 -1.76005 0)
(1.49553 -0.0587601 0)
(1.48631 -0.175918 0)
(1.46793 -0.291991 0)
(1.44049 -0.406263 0)
(1.40418 -0.51803 0)
(1.3592 -0.626603 0)
(1.30585 -0.731313 0)
(1.24445 -0.831514 0)
(1.17537 -0.926588 0)
(1.09905 -1.01595 0)
(1.01595 -1.09905 0)
(0.926588 -1.17537 0)
(0.831514 -1.24445 0)
(0.731313 -1.30585 0)
(0.626603 -1.3592 0)
(0.51803 -1.40417 0)
(0.406263 -1.44049 0)
(0.291991 -1.46793 0)
(0.175918 -1.48631 0)
(0.0587606 -1.49553 0)
(1.29807 -0.0510013 0)
(1.29006 -0.15269 0)
(1.27411 -0.253436 0)
(1.25029 -0.35262 0)
(1.21877 -0.44963 0)
(1.17974 -0.543868 0)
(1.13343 -0.634752 0)
(1.08014 -0.721723 0)
(1.02018 -0.804245 0)
(0.953935 -0.881807 0)
(0.881808 -0.953934 0)
(0.804245 -1.02018 0)
(0.721724 -1.08013 0)
(0.634753 -1.13343 0)
(0.543868 -1.17974 0)
(0.449631 -1.21877 0)
(0.352621 -1.25029 0)
(0.253437 -1.27411 0)
(0.15269 -1.29006 0)
(0.0510021 -1.29807 0)
(1.14715 -0.0450715 0)
(1.14007 -0.134937 0)
(1.12597 -0.22397 0)
(1.10493 -0.311622 0)
(1.07707 -0.397353 0)
(1.04258 -0.480634 0)
(1.00165 -0.560952 0)
(0.954552 -0.637811 0)
(0.901567 -0.710738 0)
(0.843024 -0.779283 0)
(0.779284 -0.843023 0)
(0.710739 -0.901566 0)
(0.637812 -0.954551 0)
(0.560952 -1.00165 0)
(0.480635 -1.04257 0)
(0.397354 -1.07707 0)
(0.311623 -1.10493 0)
(0.223971 -1.12597 0)
(0.134937 -1.14007 0)
(0.0450723 -1.14714 0)
(1.02743 -0.0403679 0)
(1.0211 -0.120855 0)