/*--------------------------------*- C++ -*----------------------------------*\
| =========                 |                                                 |
| \\      /  F ield         | OpenFOAM: The Open Source CFD Toolbox           |
|  \\    /   O peration     | Version:  2.2.0                                 |
|   \\  /    A nd           | Web:      www.OpenFOAM.org                      |
|    \\/     M anipulation  |                                                 |
\*---------------------------------------------------------------------------*/
FoamFile
{
    version     2.0;
    format      ascii;
    class       volVectorField;
    location    "1.3";
    object      s;
}
// * * * * * * * * * * * * * * * * * * * * * * * * * * * * * * * * * * * * * //

dimensions      [0 1 -1 0 0 0 0];

internalField   nonuniform List<vector> 
1600
(
(1.8528 0.0727987 0)
(1.5656 0.0615131 0)
(1.35182 0.0531134 0)
(1.18649 0.0466173 0)
(1.05461 0.0414357 0)
(0.946753 0.0371981 0)
(0.856747 0.0336617 0)
(0.780372 0.0306609 0)
(0.714653 0.0280788 0)
(0.65743 0.0258305 0)
(0.607102 0.0238531 0)
(0.562458 0.022099 0)
(0.522563 0.0205315 0)
(0.486686 0.0191219 0)
(0.454248 0.0178474 0)
(0.424784 0.0166898 0)
(0.397917 0.0156342 0)
(0.373338 0.0146685 0)
(0.350769 0.0137817 0)
(0.330308 0.0129778 0)
(1.84138 0.217945 0)
(1.55595 0.18416 0)
(1.34349 0.159013 0)
(1.17917 0.139564 0)
(1.04811 0.124052 0)
(0.940916 0.111365 0)
(0.851465 0.100778 0)
(0.775561 0.0917938 0)
(0.710247 0.0840633 0)
(0.653376 0.0773322 0)
(0.603359 0.0714123 0)
(0.55899 0.0661608 0)
(0.519341 0.061468 0)
(0.483685 0.0572479 0)
(0.451447 0.0534323 0)
(0.422165 0.0499665 0)
(0.395464 0.0468062 0)
(0.371036 0.0439149 0)
(0.348606 0.0412603 0)
(0.328272 0.0388535 0)
(1.8186 0.361746 0)
(1.5367 0.305671 0)
(1.32687 0.263932 0)
(1.16459 0.231651 0)
(1.03514 0.205903 0)
(0.929278 0.184845 0)
(0.840933 0.167272 0)
(0.765968 0.152361 0)
(0.701462 0.139529 0)
(0.645295 0.128357 0)
(0.595896 0.118531 0)
(0.552076 0.109815 0)
(0.512917 0.102026 0)
(0.477702 0.0950209 0)
(0.445863 0.0886877 0)
(0.416943 0.0829351 0)
(0.390572 0.0776896 0)
(0.366446 0.0728907 0)
(0.344294 0.0684844 0)
(0.324211 0.0644896 0)
(1.78461 0.503316 0)
(1.50798 0.425297 0)
(1.30207 0.367223 0)
(1.14282 0.322309 0)
(1.0158 0.286484 0)
(0.91191 0.257185 0)
(0.825217 0.232735 0)
(0.751653 0.211988 0)
(0.688352 0.194135 0)
(0.633235 0.178591 0)
(0.58476 0.164919 0)
(0.541758 0.152792 0)
(0.503331 0.141954 0)
(0.468775 0.132208 0)
(0.43753 0.123396 0)
(0.409151 0.115392 0)
(0.383273 0.108094 0)
(0.359598 0.101417 0)
(0.33786 0.0952863 0)
(0.318152 0.0897281 0)
(1.73962 0.641783 0)
(1.46996 0.542301 0)
(1.26925 0.468251 0)
(1.11401 0.410981 0)
(0.990187 0.3653 0)
(0.88892 0.32794 0)
(0.804413 0.296764 0)
(0.732703 0.270309 0)
(0.670998 0.247544 0)
(0.617271 0.227723 0)
(0.570018 0.210291 0)
(0.5281 0.194826 0)
(0.490642 0.181007 0)
(0.456956 0.16858 0)
(0.4265 0.157344 0)
(0.398836 0.147138 0)
(0.37361 0.137832 0)
(0.350532 0.129318 0)
(0.329342 0.121501 0)
(0.310131 0.114413 0)
(1.6839 0.776292 0)
(1.42288 0.65596 0)
(1.22859 0.566391 0)
(1.07833 0.497118 0)
(0.958473 0.441863 0)
(0.86045 0.396673 0)
(0.778649 0.358962 0)
(0.709237 0.326963 0)
(0.649508 0.299427 0)
(0.597501 0.275452 0)
(0.551761 0.254365 0)
(0.511186 0.23566 0)
(0.474928 0.218945 0)
(0.442321 0.203913 0)
(0.41284 0.190322 0)
(0.386062 0.177977 0)
(0.361644 0.16672 0)
(0.339305 0.156422 0)
(0.318794 0.146966 0)
(0.300198 0.138393 0)
(1.6178 0.906015 0)
(1.36703 0.765576 0)
(1.18037 0.661039 0)
(1.036 0.58019 0)
(0.920851 0.515701 0)
(0.826675 0.46296 0)
(0.748085 0.418948 0)
(0.681397 0.381601 0)
(0.624012 0.349464 0)
(0.574047 0.321482 0)
(0.530103 0.296872 0)
(0.491121 0.275041 0)
(0.456285 0.255532 0)
(0.424959 0.237988 0)
(0.396635 0.222126 0)
(0.370908 0.207718 0)
(0.347449 0.194581 0)
(0.325987 0.182561 0)
(0.30628 0.171525 0)
(0.288415 0.16152 0)
(1.54173 1.03015 0)
(1.30275 0.870472 0)
(1.12487 0.751612 0)
(0.987288 0.659685 0)
(0.87755 0.586361 0)
(0.787803 0.526393 0)
(0.712909 0.47635 0)
(0.649356 0.433886 0)
(0.59467 0.397346 0)
(0.547054 0.36553 0)
(0.505176 0.337548 0)
(0.468027 0.312726 0)
(0.43483 0.290544 0)
(0.404976 0.270597 0)
(0.377984 0.252561 0)
(0.353467 0.236179 0)
(0.331111 0.221241 0)
(0.310658 0.207575 0)
(0.291879 0.195027 0)
(0.274853 0.183651 0)
(1.45615 1.14794 0)
(1.23044 0.97 0)
(1.06243 0.83755 0)
(0.932486 0.735113 0)
(0.82884 0.653405 0)
(0.744074 0.586581 0)
(0.673337 0.530816 0)
(0.613312 0.483496 0)
(0.561662 0.442778 0)
(0.516689 0.407325 0)
(0.477135 0.376143 0)
(0.442048 0.348483 0)
(0.410694 0.323765 0)
(0.382497 0.301536 0)
(0.357003 0.281439 0)
(0.333847 0.263184 0)
(0.312732 0.246538 0)
(0.293414 0.231309 0)
(0.275677 0.217326 0)
(0.259596 0.204649 0)
(1.3616 1.25865 0)
(1.15054 1.06355 0)
(0.993438 0.918325 0)
(0.871936 0.806009 0)
(0.775019 0.71642 0)
(0.695758 0.643152 0)
(0.629614 0.582009 0)
(0.573487 0.530126 0)
(0.52519 0.485481 0)
(0.483138 0.446608 0)
(0.446153 0.412419 0)
(0.413344 0.382091 0)
(0.384025 0.354989 0)
(0.35766 0.330617 0)
(0.333821 0.308581 0)
(0.312169 0.288566 0)
(0.292425 0.270315 0)
(0.274361 0.253617 0)
(0.257776 0.238286 0)
(0.242739 0.224386 0)
(1.25865 1.3616 0)
(1.06355 1.15054 0)
(0.918325 0.993438 0)
(0.806009 0.871936 0)
(0.716421 0.775019 0)
(0.643152 0.695758 0)
(0.582009 0.629614 0)
(0.530126 0.573487 0)
(0.485481 0.52519 0)
(0.446608 0.483138 0)
(0.412419 0.446153 0)
(0.382091 0.413344 0)
(0.354989 0.384025 0)
(0.330617 0.35766 0)
(0.308581 0.333821 0)
(0.288566 0.312169 0)
(0.270315 0.292425 0)
(0.253617 0.274361 0)
(0.238286 0.257776 0)
(0.224386 0.242739 0)
(1.14794 1.45615 0)
(0.97 1.23044 0)
(0.83755 1.06243 0)
(0.735113 0.932486 0)
(0.653405 0.82884 0)
(0.586581 0.744074 0)
(0.530816 0.673337 0)
(0.483496 0.613312 0)
(0.442778 0.561661 0)
(0.407324 0.516689 0)
(0.376143 0.477135 0)
(0.348483 0.442048 0)
(0.323765 0.410694 0)
(0.301536 0.382497 0)
(0.281439 0.357003 0)
(0.263184 0.333847 0)
(0.246538 0.312732 0)
(0.231309 0.293414 0)
(0.217326 0.275677 0)
(0.204649 0.259596 0)
(1.03015 1.54173 0)
(0.870472 1.30275 0)
(0.751612 1.12486 0)
(0.659685 0.987288 0)
(0.586361 0.87755 0)
(0.526393 0.787803 0)
(0.47635 0.712908 0)
(0.433886 0.649356 0)
(0.397346 0.59467 0)
(0.36553 0.547054 0)
(0.337548 0.505176 0)
(0.312726 0.468027 0)
(0.290544 0.43483 0)
(0.270596 0.404976 0)
(0.252561 0.377984 0)
(0.236179 0.353467 0)
(0.221241 0.331111 0)
(0.207575 0.310658 0)
(0.195027 0.291878 0)
(0.183651 0.274853 0)
(0.906015 1.6178 0)
(0.765576 1.36703 0)
(0.661039 1.18037 0)
(0.58019 1.036 0)
(0.515701 0.92085 0)
(0.46296 0.826675 0)
(0.418948 0.748085 0)
(0.381601 0.681397 0)
(0.349464 0.624012 0)
(0.321482 0.574047 0)
(0.296872 0.530103 0)
(0.275041 0.491121 0)
(0.255532 0.456285 0)
(0.237988 0.424959 0)
(0.222126 0.396635 0)
(0.207718 0.370908 0)
(0.194581 0.347449 0)
(0.182561 0.325986 0)
(0.171525 0.30628 0)
(0.16152 0.288414 0)
(0.776292 1.6839 0)
(0.65596 1.42288 0)
(0.566391 1.22859 0)
(0.497118 1.07833 0)
(0.441863 0.958473 0)
(0.396673 0.86045 0)
(0.358962 0.778649 0)
(0.326962 0.709236 0)
(0.299427 0.649507 0)
(0.275451 0.597501 0)
(0.254365 0.551761 0)
(0.23566 0.511186 0)
(0.218944 0.474928 0)
(0.203913 0.442321 0)
(0.190322 0.41284 0)
(0.177977 0.386062 0)
(0.16672 0.361644 0)
(0.156422 0.339305 0)
(0.146966 0.318794 0)
(0.138393 0.300198 0)
(0.641783 1.73962 0)
(0.5423 1.46996 0)
(0.46825 1.26925 0)
(0.410981 1.11401 0)
(0.365299 0.990187 0)
(0.32794 0.88892 0)
(0.296763 0.804413 0)
(0.270308 0.732703 0)
(0.247544 0.670998 0)
(0.227723 0.61727 0)
(0.21029 0.570017 0)
(0.194826 0.5281 0)
(0.181007 0.490642 0)
(0.16858 0.456956 0)
(0.157344 0.4265 0)
(0.147138 0.398836 0)
(0.137832 0.37361 0)
(0.129318 0.350532 0)
(0.121501 0.329342 0)
(0.114413 0.310131 0)
(0.503316 1.78461 0)
(0.425297 1.50798 0)
(0.367223 1.30207 0)
(0.322309 1.14282 0)
(0.286484 1.0158 0)
(0.257185 0.91191 0)
(0.232735 0.825217 0)
(0.211988 0.751653 0)
(0.194135 0.688351 0)
(0.17859 0.633234 0)
(0.164919 0.584759 0)
(0.152791 0.541758 0)
(0.141954 0.503331 0)
(0.132208 0.468774 0)
(0.123396 0.43753 0)
(0.115392 0.40915 0)
(0.108094 0.383273 0)
(0.101417 0.359598 0)
(0.0952862 0.33786 0)
(0.089728 0.318152 0)
(0.361746 1.8186 0)
(0.305671 1.5367 0)
(0.263932 1.32687 0)
(0.231651 1.16459 0)
(0.205903 1.03514 0)
(0.184845 0.929277 0)
(0.167272 0.840933 0)
(0.15236 0.765968 0)
(0.139529 0.701461 0)
(0.128357 0.645294 0)
(0.118531 0.595896 0)
(0.109814 0.552076 0)
(0.102025 0.512917 0)
(0.0950207 0.477702 0)
(0.0886875 0.445863 0)
(0.082935 0.416943 0)
(0.0776895 0.390572 0)
(0.0728906 0.366446 0)
(0.0684843 0.344294 0)
(0.0644895 0.324211 0)
(0.217945 1.84138 0)
(0.18416 1.55595 0)
(0.159013 1.34349 0)
(0.139564 1.17917 0)
(0.124051 1.04811 0)
(0.111365 0.940915 0)
(0.100777 0.851465 0)
(0.0917935 0.775561 0)
(0.084063 0.710246 0)
(0.0773319 0.653376 0)
(0.071412 0.603359 0)
(0.0661606 0.55899 0)
(0.0614678 0.519341 0)
(0.0572477 0.483685 0)
(0.0534321 0.451447 0)
(0.0499663 0.422165 0)
(0.0468061 0.395464 0)
(0.0439149 0.371035 0)
(0.0412602 0.348606 0)
(0.0388534 0.328271 0)
(0.0727987 1.8528 0)
(0.061513 1.5656 0)
(0.0531133 1.35182 0)
(0.0466171 1.18649 0)
(0.0414355 1.05461 0)
(0.0371978 0.946752 0)
(0.0336614 0.856747 0)
(0.0306606 0.780372 0)
(0.0280785 0.714652 0)
(0.0258302 0.657429 0)
(0.0238528 0.607102 0)
(0.0220988 0.562458 0)
(0.0205313 0.522562 0)
(0.0191217 0.486685 0)
(0.0178473 0.454247 0)
(0.0166897 0.424784 0)
(0.0156341 0.397917 0)
(0.0146684 0.373337 0)
(0.0137817 0.350769 0)
(0.0129778 0.330308 0)
(-0.0727988 1.8528 0)
(-0.0615132 1.5656 0)
(-0.0531136 1.35182 0)
(-0.0466175 1.18649 0)
(-0.0414359 1.05461 0)
(-0.0371983 0.946753 0)
(-0.033662 0.856747 0)
(-0.0306612 0.780372 0)
(-0.0280791 0.714652 0)
(-0.0258308 0.657429 0)
(-0.0238534 0.607102 0)
(-0.0220993 0.562458 0)
(-0.0205318 0.522562 0)
(-0.0191221 0.486685 0)
(-0.0178476 0.454247 0)
(-0.0166899 0.424784 0)
(-0.0156343 0.397917 0)
(-0.0146685 0.373337 0)
(-0.0137818 0.350769 0)
(-0.0129778 0.330308 0)
(-0.217945 1.84138 0)
(-0.18416 1.55595 0)
(-0.159013 1.34349 0)
(-0.139565 1.17917 0)
(-0.124052 1.04811 0)
(-0.111365 0.940916 0)
(-0.100778 0.851465 0)
(-0.0917941 0.775561 0)
(-0.0840635 0.710246 0)
(-0.0773325 0.653376 0)
(-0.0714126 0.603359 0)
(-0.0661611 0.55899 0)
(-0.0614683 0.519341 0)
(-0.0572481 0.483685 0)
(-0.0534324 0.451447 0)
(-0.0499666 0.422165 0)
(-0.0468063 0.395464 0)
(-0.043915 0.371036 0)
(-0.0412603 0.348606 0)
(-0.0388535 0.328271 0)
(-0.361746 1.8186 0)
(-0.305671 1.5367 0)
(-0.263932 1.32687 0)
(-0.231651 1.16459 0)
(-0.205903 1.03514 0)
(-0.184845 0.929277 0)
(-0.167272 0.840933 0)
(-0.152361 0.765968 0)
(-0.13953 0.701461 0)
(-0.128357 0.645295 0)
(-0.118531 0.595896 0)
(-0.109815 0.552076 0)
(-0.102026 0.512917 0)
(-0.0950211 0.477702 0)
(-0.0886878 0.445863 0)
(-0.0829352 0.416943 0)
(-0.0776898 0.390572 0)
(-0.0728908 0.366446 0)
(-0.0684845 0.344294 0)
(-0.0644896 0.324211 0)
(-0.503317 1.78461 0)
(-0.425297 1.50798 0)
(-0.367223 1.30207 0)
(-0.32231 1.14282 0)
(-0.286485 1.0158 0)
(-0.257186 0.91191 0)
(-0.232736 0.825217 0)
(-0.211988 0.751653 0)
(-0.194136 0.688352 0)
(-0.178591 0.633235 0)
(-0.16492 0.58476 0)
(-0.152792 0.541758 0)
(-0.141954 0.503331 0)
(-0.132208 0.468774 0)
(-0.123396 0.43753 0)
(-0.115393 0.409151 0)
(-0.108094 0.383273 0)
(-0.101417 0.359598 0)
(-0.0952864 0.33786 0)
(-0.0897281 0.318152 0)
(-0.641783 1.73962 0)
(-0.542301 1.46996 0)
(-0.468251 1.26925 0)
(-0.410981 1.11401 0)
(-0.3653 0.990187 0)
(-0.327941 0.88892 0)
(-0.296764 0.804413 0)
(-0.270309 0.732704 0)
(-0.247545 0.670998 0)
(-0.227724 0.617271 0)
(-0.210291 0.570018 0)
(-0.194827 0.5281 0)
(-0.181008 0.490642 0)
(-0.16858 0.456957 0)
(-0.157344 0.4265 0)
(-0.147138 0.398836 0)
(-0.137832 0.37361 0)
(-0.129318 0.350532 0)
(-0.121501 0.329342 0)
(-0.114413 0.310131 0)
(-0.776292 1.6839 0)
(-0.655961 1.42288 0)
(-0.566391 1.22859 0)
(-0.497118 1.07833 0)
(-0.441863 0.958473 0)
(-0.396674 0.86045 0)
(-0.358963 0.778649 0)
(-0.326963 0.709237 0)
(-0.299427 0.649508 0)
(-0.275452 0.597501 0)
(-0.254366 0.551761 0)
(-0.23566 0.511187 0)
(-0.218945 0.474928 0)
(-0.203913 0.442321 0)
(-0.190322 0.41284 0)
(-0.177977 0.386062 0)
(-0.166721 0.361645 0)
(-0.156422 0.339305 0)
(-0.146966 0.318794 0)
(-0.138393 0.300198 0)
(-0.906016 1.6178 0)
(-0.765576 1.36703 0)
(-0.661039 1.18037 0)
(-0.580191 1.036 0)
(-0.515702 0.920851 0)
(-0.462961 0.826675 0)
(-0.418948 0.748085 0)
(-0.381601 0.681397 0)
(-0.349464 0.624013 0)
(-0.321482 0.574047 0)
(-0.296872 0.530103 0)
(-0.275041 0.491121 0)
(-0.255533 0.456286 0)
(-0.237989 0.424959 0)
(-0.222127 0.396635 0)
(-0.207719 0.370908 0)
(-0.194581 0.347449 0)
(-0.182561 0.325987 0)
(-0.171525 0.306281 0)
(-0.16152 0.288415 0)
(-1.03015 1.54173 0)
(-0.870472 1.30275 0)
(-0.751612 1.12487 0)
(-0.659686 0.987288 0)
(-0.586361 0.877551 0)
(-0.526394 0.787803 0)
(-0.476351 0.712909 0)
(-0.433887 0.649357 0)
(-0.397346 0.59467 0)
(-0.365531 0.547055 0)
(-0.337549 0.505177 0)
(-0.312726 0.468028 0)
(-0.290545 0.43483 0)
(-0.270597 0.404977 0)
(-0.252561 0.377985 0)
(-0.236179 0.353467 0)
(-0.221242 0.331111 0)
(-0.207575 0.310658 0)
(-0.195027 0.291879 0)
(-0.183651 0.274853 0)
(-1.14794 1.45615 0)
(-0.970001 1.23044 0)
(-0.837551 1.06243 0)
(-0.735114 0.932487 0)
(-0.653405 0.82884 0)
(-0.586582 0.744075 0)
(-0.530817 0.673337 0)
(-0.483497 0.613313 0)
(-0.442779 0.561662 0)
(-0.407325 0.516689 0)
(-0.376144 0.477136 0)
(-0.348483 0.442049 0)
(-0.323765 0.410694 0)
(-0.301537 0.382497 0)
(-0.281439 0.357004 0)
(-0.263184 0.333847 0)
(-0.246538 0.312732 0)
(-0.231309 0.293415 0)
(-0.217327 0.275677 0)
(-0.204649 0.259597 0)
(-1.25865 1.3616 0)
(-1.06355 1.15054 0)
(-0.918326 0.993439 0)
(-0.80601 0.871936 0)
(-0.716421 0.77502 0)
(-0.643153 0.695758 0)
(-0.58201 0.629614 0)
(-0.530127 0.573487 0)
(-0.485482 0.525191 0)
(-0.446609 0.483138 0)
(-0.41242 0.446153 0)
(-0.382092 0.413344 0)
(-0.35499 0.384026 0)
(-0.330618 0.35766 0)
(-0.308582 0.333822 0)
(-0.288566 0.312169 0)
(-0.270315 0.292425 0)
(-0.253618 0.274362 0)
(-0.238286 0.257776 0)
(-0.224386 0.24274 0)
(-1.3616 1.25865 0)
(-1.15054 1.06355 0)
(-0.993439 0.918325 0)
(-0.871936 0.806009 0)
(-0.77502 0.716421 0)
(-0.695759 0.643152 0)
(-0.629615 0.582009 0)
(-0.573488 0.530126 0)
(-0.525191 0.485481 0)
(-0.483138 0.446608 0)
(-0.446153 0.41242 0)
(-0.413345 0.382092 0)
(-0.384026 0.35499 0)
(-0.35766 0.330618 0)
(-0.333822 0.308582 0)
(-0.312169 0.288566 0)
(-0.292425 0.270315 0)
(-0.274362 0.253617 0)
(-0.257776 0.238286 0)
(-0.24274 0.224386 0)
(-1.45615 1.14794 0)
(-1.23044 0.970001 0)
(-1.06243 0.837551 0)
(-0.932487 0.735114 0)
(-0.828841 0.653405 0)
(-0.744075 0.586581 0)
(-0.673338 0.530816 0)
(-0.613313 0.483497 0)
(-0.561662 0.442779 0)
(-0.51669 0.407325 0)
(-0.477136 0.376144 0)
(-0.442049 0.348483 0)
(-0.410694 0.323765 0)
(-0.382498 0.301537 0)
(-0.357004 0.281439 0)
(-0.333848 0.263184 0)
(-0.312733 0.246538 0)
(-0.293415 0.231309 0)
(-0.275678 0.217327 0)
(-0.259597 0.20465 0)
(-1.54173 1.03015 0)
(-1.30275 0.870472 0)
(-1.12487 0.751612 0)
(-0.987289 0.659686 0)
(-0.877551 0.586361 0)
(-0.787804 0.526394 0)
(-0.71291 0.476351 0)
(-0.649357 0.433886 0)
(-0.594671 0.397346 0)
(-0.547055 0.36553 0)
(-0.505177 0.337548 0)
(-0.468028 0.312726 0)
(-0.434831 0.290544 0)
(-0.404977 0.270597 0)
(-0.377985 0.252561 0)
(-0.353468 0.236179 0)
(-0.331112 0.221242 0)
(-0.310659 0.207575 0)
(-0.291879 0.195027 0)
(-0.274853 0.183651 0)
(-1.6178 0.906016 0)
(-1.36703 0.765576 0)
(-1.18037 0.661039 0)
(-1.036 0.58019 0)
(-0.920852 0.515702 0)
(-0.826676 0.462961 0)
(-0.748086 0.418948 0)
(-0.681398 0.381601 0)
(-0.624013 0.349464 0)
(-0.574048 0.321482 0)
(-0.530104 0.296872 0)
(-0.491122 0.275041 0)
(-0.456286 0.255532 0)
(-0.42496 0.237989 0)
(-0.396636 0.222126 0)
(-0.370909 0.207719 0)
(-0.347449 0.194581 0)
(-0.325987 0.182562 0)
(-0.306281 0.171526 0)
(-0.288415 0.16152 0)
(-1.6839 0.776293 0)
(-1.42288 0.655961 0)
(-1.2286 0.566391 0)
(-1.07833 0.497118 0)
(-0.958474 0.441863 0)
(-0.860451 0.396673 0)
(-0.77865 0.358963 0)
(-0.709238 0.326963 0)
(-0.649508 0.299427 0)
(-0.597502 0.275452 0)
(-0.551762 0.254366 0)
(-0.511187 0.23566 0)
(-0.474929 0.218945 0)
(-0.442322 0.203913 0)
(-0.412841 0.190322 0)
(-0.386063 0.177977 0)
(-0.361645 0.166721 0)
(-0.339306 0.156422 0)
(-0.318795 0.146966 0)
(-0.300199 0.138393 0)
(-1.73962 0.641783 0)
(-1.46997 0.542301 0)
(-1.26925 0.468251 0)
(-1.11401 0.410981 0)
(-0.990188 0.3653 0)
(-0.888921 0.32794 0)
(-0.804414 0.296764 0)
(-0.732704 0.270309 0)
(-0.670999 0.247545 0)
(-0.617272 0.227723 0)
(-0.570018 0.210291 0)
(-0.528101 0.194827 0)
(-0.490643 0.181008 0)
(-0.456957 0.16858 0)
(-0.426501 0.157344 0)
(-0.398836 0.147138 0)
(-0.373611 0.137832 0)
(-0.350533 0.129318 0)
(-0.329343 0.121501 0)
(-0.310131 0.114414 0)
(-1.78461 0.503317 0)
(-1.50798 0.425297 0)
(-1.30207 0.367223 0)
(-1.14282 0.32231 0)
(-1.0158 0.286484 0)
(-0.911911 0.257186 0)
(-0.825218 0.232736 0)
(-0.751654 0.211988 0)
(-0.688353 0.194136 0)
(-0.633236 0.178591 0)
(-0.58476 0.164919 0)
(-0.541759 0.152792 0)
(-0.503332 0.141954 0)
(-0.468775 0.132208 0)
(-0.437531 0.123396 0)
(-0.409151 0.115393 0)
(-0.383273 0.108094 0)
(-0.359598 0.101417 0)
(-0.33786 0.0952864 0)
(-0.318152 0.0897282 0)
(-1.8186 0.361747 0)
(-1.5367 0.305671 0)
(-1.32687 0.263932 0)
(-1.16459 0.231651 0)
(-1.03514 0.205903 0)
(-0.929279 0.184845 0)
(-0.840934 0.167272 0)
(-0.765969 0.152361 0)
(-0.701462 0.13953 0)
(-0.645296 0.128357 0)
(-0.595897 0.118531 0)
(-0.552077 0.109815 0)
(-0.512918 0.102026 0)
(-0.477703 0.0950211 0)
(-0.445864 0.0886878 0)
(-0.416944 0.0829353 0)
(-0.390573 0.0776898 0)
(-0.366447 0.0728908 0)
(-0.344295 0.0684845 0)
(-0.324212 0.0644897 0)
(-1.84138 0.217945 0)
(-1.55595 0.18416 0)
(-1.34349 0.159013 0)
(-1.17917 0.139564 0)
(-1.04811 0.124052 0)
(-0.940917 0.111365 0)
(-0.851466 0.100778 0)
(-0.775562 0.0917939 0)
(-0.710247 0.0840634 0)
(-0.653377 0.0773323 0)
(-0.60336 0.0714124 0)
(-0.558991 0.066161 0)
(-0.519342 0.0614682 0)
(-0.483686 0.057248 0)
(-0.451448 0.0534324 0)
(-0.422166 0.0499666 0)
(-0.395464 0.0468063 0)
(-0.371036 0.043915 0)
(-0.348607 0.0412603 0)
(-0.328272 0.0388535 0)
(-1.8528 0.0727988 0)
(-1.5656 0.0615131 0)
(-1.35182 0.0531134 0)
(-1.18649 0.0466172 0)
(-1.05461 0.0414357 0)
(-0.946754 0.0371981 0)
(-0.856748 0.0336618 0)
(-0.780373 0.030661 0)
(-0.714654 0.0280789 0)
(-0.657431 0.0258306 0)
(-0.607103 0.0238532 0)
(-0.562459 0.0220991 0)
(-0.522564 0.0205316 0)
(-0.486686 0.019122 0)
(-0.454248 0.0178475 0)
(-0.424784 0.0166899 0)
(-0.397918 0.0156343 0)
(-0.373338 0.0146685 0)
(-0.350769 0.0137818 0)
(-0.330308 0.0129779 0)
(-1.8528 -0.0727989 0)
(-1.5656 -0.0615133 0)
(-1.35182 -0.0531136 0)
(-1.18649 -0.0466174 0)
(-1.05461 -0.0414358 0)
(-0.946754 -0.0371981 0)
(-0.856748 -0.0336617 0)
(-0.780373 -0.030661 0)
(-0.714654 -0.0280788 0)
(-0.657431 -0.0258305 0)
(-0.607103 -0.0238531 0)
(-0.562459 -0.022099 0)
(-0.522564 -0.0205315 0)
(-0.486687 -0.0191219 0)
(-0.454248 -0.0178474 0)
(-0.424784 -0.0166898 0)
(-0.397918 -0.0156342 0)
(-0.373338 -0.0146685 0)
(-0.35077 -0.0137818 0)
(-0.330308 -0.0129778 0)
(-1.84138 -0.217945 0)
(-1.55595 -0.18416 0)
(-1.34349 -0.159013 0)
(-1.17917 -0.139565 0)
(-1.04811 -0.124052 0)
(-0.940917 -0.111365 0)
(-0.851466 -0.100778 0)
(-0.775562 -0.0917939 0)
(-0.710247 -0.0840633 0)
(-0.653377 -0.0773323 0)
(-0.60336 -0.0714124 0)
(-0.558991 -0.0661609 0)
(-0.519342 -0.0614681 0)
(-0.483686 -0.057248 0)
(-0.451448 -0.0534323 0)
(-0.422166 -0.0499666 0)
(-0.395465 -0.0468063 0)
(-0.371036 -0.043915 0)
(-0.348607 -0.0412603 0)
(-0.328272 -0.0388535 0)
(-1.8186 -0.361747 0)
(-1.5367 -0.305671 0)
(-1.32687 -0.263932 0)
(-1.16459 -0.231651 0)
(-1.03514 -0.205903 0)
(-0.929279 -0.184845 0)
(-0.840934 -0.167272 0)
(-0.765969 -0.152361 0)
(-0.701463 -0.13953 0)
(-0.645296 -0.128357 0)
(-0.595897 -0.118531 0)
(-0.552077 -0.109815 0)
(-0.512918 -0.102026 0)
(-0.477703 -0.0950211 0)
(-0.445864 -0.0886878 0)
(-0.416944 -0.0829353 0)
(-0.390573 -0.0776898 0)
(-0.366447 -0.0728908 0)
(-0.344295 -0.0684845 0)
(-0.324212 -0.0644897 0)
(-1.78461 -0.503317 0)
(-1.50798 -0.425297 0)
(-1.30207 -0.367224 0)
(-1.14282 -0.32231 0)
(-1.0158 -0.286485 0)
(-0.911911 -0.257186 0)
(-0.825218 -0.232736 0)
(-0.751654 -0.211988 0)
(-0.688353 -0.194136 0)
(-0.633236 -0.178591 0)
(-0.584761 -0.16492 0)
(-0.541759 -0.152792 0)
(-0.503332 -0.141954 0)
(-0.468775 -0.132208 0)
(-0.437531 -0.123397 0)
(-0.409152 -0.115393 0)
(-0.383274 -0.108094 0)
(-0.359598 -0.101417 0)
(-0.33786 -0.0952865 0)
(-0.318152 -0.0897282 0)
(-1.73962 -0.641783 0)
(-1.46997 -0.542301 0)
(-1.26925 -0.468251 0)
(-1.11401 -0.410981 0)
(-0.990188 -0.3653 0)
(-0.888921 -0.327941 0)
(-0.804414 -0.296764 0)
(-0.732704 -0.270309 0)
(-0.670999 -0.247545 0)
(-0.617272 -0.227724 0)
(-0.570018 -0.210291 0)
(-0.528101 -0.194827 0)
(-0.490643 -0.181008 0)
(-0.456957 -0.16858 0)
(-0.426501 -0.157344 0)
(-0.398837 -0.147139 0)
(-0.373611 -0.137832 0)
(-0.350533 -0.129318 0)
(-0.329343 -0.121501 0)
(-0.310132 -0.114414 0)
(-1.6839 -0.776293 0)
(-1.42289 -0.655961 0)
(-1.2286 -0.566391 0)
(-1.07833 -0.497118 0)
(-0.958475 -0.441863 0)
(-0.860451 -0.396674 0)
(-0.77865 -0.358963 0)
(-0.709238 -0.326963 0)
(-0.649508 -0.299428 0)
(-0.597502 -0.275452 0)
(-0.551762 -0.254366 0)
(-0.511187 -0.235661 0)
(-0.474929 -0.218945 0)
(-0.442322 -0.203913 0)
(-0.412841 -0.190322 0)
(-0.386063 -0.177977 0)
(-0.361645 -0.166721 0)
(-0.339306 -0.156422 0)
(-0.318795 -0.146966 0)
(-0.300199 -0.138394 0)
(-1.6178 -0.906016 0)
(-1.36703 -0.765577 0)
(-1.18037 -0.66104 0)
(-1.036 -0.580191 0)
(-0.920852 -0.515702 0)
(-0.826676 -0.462961 0)
(-0.748086 -0.418949 0)
(-0.681398 -0.381601 0)
(-0.624013 -0.349465 0)
(-0.574048 -0.321483 0)
(-0.530104 -0.296873 0)
(-0.491122 -0.275042 0)
(-0.456286 -0.255533 0)
(-0.42496 -0.237989 0)
(-0.396636 -0.222127 0)
(-0.370909 -0.207719 0)
(-0.34745 -0.194581 0)
(-0.325987 -0.182562 0)
(-0.306281 -0.171526 0)
(-0.288415 -0.16152 0)
(-1.54173 -1.03015 0)
(-1.30275 -0.870473 0)
(-1.12487 -0.751612 0)
(-0.987289 -0.659686 0)
(-0.877552 -0.586362 0)
(-0.787804 -0.526394 0)
(-0.71291 -0.476351 0)
(-0.649357 -0.433887 0)
(-0.594671 -0.397347 0)
(-0.547055 -0.365531 0)
(-0.505177 -0.337549 0)
(-0.468028 -0.312727 0)
(-0.434831 -0.290545 0)
(-0.404977 -0.270597 0)
(-0.377985 -0.252562 0)
(-0.353468 -0.23618 0)
(-0.331112 -0.221242 0)
(-0.310659 -0.207576 0)
(-0.291879 -0.195027 0)
(-0.274853 -0.183651 0)
(-1.45615 -1.14794 0)
(-1.23044 -0.970001 0)
(-1.06243 -0.837551 0)
(-0.932488 -0.735114 0)
(-0.828841 -0.653406 0)
(-0.744075 -0.586582 0)
(-0.673338 -0.530817 0)
(-0.613313 -0.483497 0)
(-0.561663 -0.442779 0)
(-0.51669 -0.407326 0)
(-0.477136 -0.376144 0)
(-0.442049 -0.348484 0)
(-0.410695 -0.323766 0)
(-0.382498 -0.301537 0)
(-0.357004 -0.281439 0)
(-0.333848 -0.263184 0)
(-0.312733 -0.246539 0)
(-0.293415 -0.23131 0)
(-0.275678 -0.217327 0)
(-0.259597 -0.20465 0)
(-1.3616 -1.25865 0)
(-1.15054 -1.06355 0)
(-0.993439 -0.918326 0)
(-0.871937 -0.80601 0)
(-0.77502 -0.716422 0)
(-0.695759 -0.643153 0)
(-0.629615 -0.58201 0)
(-0.573488 -0.530127 0)
(-0.525191 -0.485482 0)
(-0.483139 -0.446609 0)
(-0.446154 -0.41242 0)
(-0.413345 -0.382092 0)
(-0.384026 -0.35499 0)
(-0.357661 -0.330618 0)
(-0.333822 -0.308582 0)
(-0.312169 -0.288567 0)
(-0.292425 -0.270315 0)
(-0.274362 -0.253618 0)
(-0.257777 -0.238286 0)
(-0.24274 -0.224387 0)
(-1.25865 -1.3616 0)
(-1.06355 -1.15054 0)
(-0.918326 -0.993439 0)
(-0.80601 -0.871937 0)
(-0.716422 -0.77502 0)
(-0.643153 -0.695759 0)
(-0.58201 -0.629615 0)
(-0.530127 -0.573488 0)
(-0.485482 -0.525191 0)
(-0.446609 -0.483139 0)
(-0.41242 -0.446154 0)
(-0.382092 -0.413345 0)
(-0.35499 -0.384026 0)
(-0.330618 -0.357661 0)
(-0.308582 -0.333822 0)
(-0.288566 -0.31217 0)
(-0.270315 -0.292425 0)
(-0.253618 -0.274362 0)
(-0.238286 -0.257777 0)
(-0.224387 -0.24274 0)
(-1.14794 -1.45615 0)
(-0.970001 -1.23044 0)
(-0.837551 -1.06243 0)
(-0.735114 -0.932487 0)
(-0.653406 -0.828841 0)
(-0.586582 -0.744075 0)
(-0.530817 -0.673338 0)
(-0.483497 -0.613314 0)
(-0.442779 -0.561663 0)
(-0.407325 -0.51669 0)
(-0.376144 -0.477136 0)
(-0.348484 -0.442049 0)
(-0.323766 -0.410695 0)
(-0.301537 -0.382498 0)
(-0.281439 -0.357004 0)
(-0.263184 -0.333848 0)
(-0.246539 -0.312733 0)
(-0.23131 -0.293415 0)
(-0.217327 -0.275678 0)
(-0.20465 -0.259597 0)
(-1.03015 -1.54173 0)
(-0.870473 -1.30275 0)
(-0.751612 -1.12487 0)
(-0.659686 -0.987289 0)
(-0.586361 -0.877552 0)
(-0.526394 -0.787804 0)
(-0.476351 -0.71291 0)
(-0.433887 -0.649358 0)
(-0.397347 -0.594671 0)
(-0.365531 -0.547056 0)
(-0.337549 -0.505178 0)
(-0.312727 -0.468028 0)
(-0.290545 -0.434831 0)
(-0.270597 -0.404977 0)
(-0.252562 -0.377985 0)
(-0.23618 -0.353468 0)
(-0.221242 -0.331112 0)
(-0.207576 -0.310659 0)
(-0.195027 -0.291879 0)
(-0.183651 -0.274853 0)
(-0.906016 -1.6178 0)
(-0.765577 -1.36703 0)
(-0.66104 -1.18037 0)
(-0.580191 -1.036 0)
(-0.515702 -0.920852 0)
(-0.462961 -0.826676 0)
(-0.418949 -0.748086 0)
(-0.381601 -0.681398 0)
(-0.349464 -0.624014 0)
(-0.321482 -0.574048 0)
(-0.296872 -0.530104 0)
(-0.275041 -0.491122 0)
(-0.255533 -0.456286 0)
(-0.237989 -0.42496 0)
(-0.222127 -0.396636 0)
(-0.207719 -0.370909 0)
(-0.194581 -0.34745 0)
(-0.182562 -0.325987 0)
(-0.171526 -0.306281 0)
(-0.16152 -0.288415 0)
(-0.776293 -1.6839 0)
(-0.655961 -1.42289 0)
(-0.566391 -1.2286 0)
(-0.497118 -1.07833 0)
(-0.441863 -0.958474 0)
(-0.396674 -0.860451 0)
(-0.358963 -0.77865 0)
(-0.326963 -0.709238 0)
(-0.299428 -0.649509 0)
(-0.275452 -0.597502 0)
(-0.254366 -0.551762 0)
(-0.235661 -0.511187 0)
(-0.218945 -0.474929 0)
(-0.203913 -0.442322 0)
(-0.190322 -0.412841 0)
(-0.177977 -0.386063 0)
(-0.166721 -0.361645 0)
(-0.156422 -0.339306 0)
(-0.146966 -0.318795 0)
(-0.138394 -0.300199 0)
(-0.641783 -1.73962 0)
(-0.542301 -1.46997 0)
(-0.468251 -1.26925 0)
(-0.410981 -1.11401 0)
(-0.3653 -0.990188 0)
(-0.327941 -0.888921 0)
(-0.296764 -0.804414 0)
(-0.270309 -0.732705 0)
(-0.247545 -0.670999 0)
(-0.227724 -0.617272 0)
(-0.210291 -0.570018 0)
(-0.194827 -0.528101 0)
(-0.181008 -0.490643 0)
(-0.168581 -0.456957 0)
(-0.157344 -0.426501 0)
(-0.147139 -0.398837 0)
(-0.137832 -0.373611 0)
(-0.129318 -0.350533 0)
(-0.121501 -0.329343 0)
(-0.114414 -0.310132 0)
(-0.503317 -1.78461 0)
(-0.425297 -1.50798 0)
(-0.367224 -1.30207 0)
(-0.32231 -1.14282 0)
(-0.286485 -1.0158 0)
(-0.257186 -0.911911 0)
(-0.232736 -0.825218 0)
(-0.211989 -0.751654 0)
(-0.194136 -0.688353 0)
(-0.178591 -0.633236 0)
(-0.16492 -0.58476 0)
(-0.152792 -0.541759 0)
(-0.141954 -0.503332 0)
(-0.132208 -0.468775 0)
(-0.123397 -0.437531 0)
(-0.115393 -0.409151 0)
(-0.108094 -0.383274 0)
(-0.101417 -0.359598 0)
(-0.0952865 -0.33786 0)
(-0.0897282 -0.318152 0)
(-0.361747 -1.8186 0)
(-0.305671 -1.5367 0)
(-0.263932 -1.32687 0)
(-0.231651 -1.16459 0)
(-0.205903 -1.03514 0)
(-0.184845 -0.929279 0)
(-0.167273 -0.840934 0)
(-0.152361 -0.765969 0)
(-0.13953 -0.701462 0)
(-0.128358 -0.645296 0)
(-0.118532 -0.595897 0)
(-0.109815 -0.552077 0)
(-0.102026 -0.512918 0)
(-0.0950212 -0.477703 0)
(-0.0886879 -0.445864 0)
(-0.0829353 -0.416944 0)
(-0.0776899 -0.390573 0)
(-0.0728909 -0.366447 0)
(-0.0684845 -0.344295 0)
(-0.0644897 -0.324212 0)
(-0.217945 -1.84138 0)
(-0.18416 -1.55595 0)
(-0.159013 -1.34349 0)
(-0.139565 -1.17917 0)
(-0.124052 -1.04811 0)
(-0.111365 -0.940917 0)
(-0.100778 -0.851466 0)
(-0.0917941 -0.775562 0)
(-0.0840636 -0.710247 0)
(-0.0773325 -0.653377 0)
(-0.0714126 -0.60336 0)
(-0.0661611 -0.558991 0)
(-0.0614683 -0.519342 0)
(-0.0572481 -0.483686 0)
(-0.0534325 -0.451448 0)
(-0.0499667 -0.422165 0)
(-0.0468064 -0.395464 0)
(-0.0439151 -0.371036 0)
(-0.0412604 -0.348607 0)
(-0.0388535 -0.328272 0)
(-0.0727988 -1.8528 0)
(-0.0615133 -1.5656 0)
(-0.0531137 -1.35182 0)
(-0.0466175 -1.18649 0)
(-0.041436 -1.05461 0)
(-0.0371983 -0.946754 0)
(-0.033662 -0.856748 0)
(-0.0306612 -0.780373 0)
(-0.0280791 -0.714653 0)
(-0.0258308 -0.65743 0)
(-0.0238534 -0.607103 0)
(-0.0220993 -0.562459 0)
(-0.0205318 -0.522563 0)
(-0.0191221 -0.486686 0)
(-0.0178476 -0.454248 0)
(-0.0166899 -0.424784 0)
(-0.0156343 -0.397918 0)
(-0.0146686 -0.373338 0)
(-0.0137818 -0.350769 0)
(-0.0129778 -0.330308 0)
(1.8528 -0.0727988 0)
(1.84138 -0.217945 0)
(1.8186 -0.361746 0)
(1.78461 -0.503317 0)
(1.73962 -0.641783 0)
(1.6839 -0.776292 0)
(1.6178 -0.906016 0)
(1.54173 -1.03015 0)
(1.45615 -1.14794 0)
(1.3616 -1.25865 0)
(1.25865 -1.3616 0)
(1.14794 -1.45615 0)
(1.03015 -1.54173 0)
(0.906016 -1.6178 0)
(0.776293 -1.6839 0)
(0.641783 -1.73962 0)
(0.503317 -1.78461 0)
(0.361746 -1.8186 0)
(0.217945 -1.84138 0)
(0.0727987 -1.8528 0)
(1.5656 -0.0615132 0)
(1.55595 -0.18416 0)
(1.5367 -0.305671 0)
(1.50798 -0.425297 0)
(1.46996 -0.542301 0)
(1.42288 -0.655961 0)
(1.36703 -0.765577 0)
(1.30275 -0.870472 0)
(1.23044 -0.970001 0)
(1.15054 -1.06355 0)
(1.06355 -1.15054 0)
(0.970001 -1.23044 0)
(0.870472 -1.30275 0)
(0.765576 -1.36703 0)
(0.655961 -1.42288 0)
(0.542301 -1.46996 0)
(0.425297 -1.50798 0)
(0.305671 -1.5367 0)
(0.18416 -1.55595 0)
(0.061513 -1.5656 0)
(1.35182 -0.0531135 0)
(1.34349 -0.159013 0)
(1.32687 -0.263932 0)
(1.30207 -0.367223 0)
(1.26925 -0.468251 0)
(1.22859 -0.566391 0)
(1.18037 -0.661039 0)
(1.12487 -0.751612 0)
(1.06243 -0.837551 0)
(0.993439 -0.918326 0)
(0.918325 -0.993439 0)
(0.837551 -1.06243 0)
(0.751612 -1.12487 0)
(0.661039 -1.18037 0)
(0.566391 -1.2286 0)
(0.468251 -1.26925 0)
(0.367223 -1.30207 0)
(0.263932 -1.32687 0)
(0.159013 -1.34349 0)
(0.0531133 -1.35182 0)
(1.18649 -0.0466173 0)
(1.17917 -0.139565 0)
(1.16459 -0.231651 0)
(1.14282 -0.32231 0)
(1.11401 -0.410981 0)
(1.07833 -0.497118 0)
(1.036 -0.580191 0)
(0.987288 -0.659686 0)
(0.932487 -0.735114 0)
(0.871936 -0.80601 0)
(0.806009 -0.871936 0)
(0.735114 -0.932487 0)
(0.659685 -0.987289 0)
(0.58019 -1.036 0)
(0.497118 -1.07833 0)
(0.410981 -1.11401 0)
(0.322309 -1.14282 0)
(0.231651 -1.16459 0)
(0.139564 -1.17917 0)
(0.0466171 -1.18649 0)
(1.05461 -0.0414358 0)
(1.04811 -0.124052 0)
(1.03514 -0.205903 0)
(1.0158 -0.286485 0)