/*--------------------------------*- C++ -*----------------------------------*\
| =========                 |                                                 |
| \\      /  F ield         | foam-extend: Open Source CFD                    |
|  \\    /   O peration     | Version:  3.0                                   |
|   \\  /    A nd           | Web:         http://www.extend-project.de       |
|    \\/     M anipulation  |                                                 |
\*---------------------------------------------------------------------------*/
FoamFile
{
    version     2.0;
    format      ascii;
    class       volVectorField;
    location    "22";
    object      u;
}
// * * * * * * * * * * * * * * * * * * * * * * * * * * * * * * * * * * * * * //

dimensions      [0 0 0 0 0 0 0];

internalField   nonuniform List<vector> 
2688
(
(0.1901904389 -0.05983115476 3.995030023e-17)
(0.2410005914 -0.04691129345 -3.060019272e-17)
(0.4767585254 -0.04259093347 8.466346554e-17)
(0.4896105858 -0.03360538131 2.431235262e-18)
(0.6502679239 -0.03137772319 2.862710709e-17)
(0.6465798253 -0.02537892593 4.744584347e-18)
(0.7633901905 -0.02381941652 -1.086491485e-17)
(0.7503141298 -0.01981195195 3.278313199e-17)
(0.8408898747 -0.01851696136 -4.129103306e-17)
(0.8215346727 -0.01578053407 3.486530298e-17)
(0.8958881534 -0.01459314371 -3.579916483e-18)
(0.8717942516 -0.01270433889 2.178520843e-17)
(0.935956774 -0.01151879947 1.954643336e-17)
(0.907805892 -0.01024651219 -5.986238691e-17)
(0.9656852567 -0.008980801973 5.85664729e-17)
(0.9336372678 -0.008198332397 -5.435072439e-17)
(0.9879321386 -0.006790538247 5.958114219e-17)
(0.9518283021 -0.006425090544 -3.279951441e-17)
(1.004478812 -0.004845404905 4.758365402e-18)
(0.9640045603 -0.004829692055 2.01724396e-17)
(1.016313623 -0.003146169363 -1.244546369e-17)
(0.9712629212 -0.003405490565 -5.74529263e-18)
(1.023718098 -0.001611032541 -9.476370199e-18)
(0.9740794861 -0.004317961298 -6.474604463e-18)
(0.2022788918 -0.1638319285 -1.387431813e-16)
(0.2503067953 -0.1263888422 -5.821388601e-18)
(0.485126118 -0.1143489767 -2.464410397e-16)
(0.4960421124 -0.0881476426 1.957628642e-17)
(0.656215331 -0.08214433215 -1.051687369e-16)
(0.651237414 -0.06471105069 -9.920371961e-18)
(0.7677210241 -0.06058109501 -4.161369197e-18)
(0.7537904577 -0.04903260559 -8.009104259e-17)
(0.8441092655 -0.04564911237 4.641382758e-17)
(0.8241775902 -0.03786395817 -5.363311147e-17)
(0.8983031283 -0.03479658811 -3.666929026e-17)
(0.8738233635 -0.02953219404 -5.492250307e-17)
(0.9377606464 -0.02648642514 6.922180154e-18)
(0.9093664354 -0.02305119742 2.018584112e-17)
(0.9670031865 -0.01979645751 -3.265376282e-17)
(0.9348290778 -0.01778732634 5.355452954e-17)
(0.9888503869 -0.0141490267 -6.784443818e-17)
(0.9527296244 -0.01329859062 5.961297904e-18)
(1.005073539 -0.009181805611 6.333669004e-17)
(0.9646911152 -0.0091972657 -9.777784871e-17)
(1.016678727 -0.004730235039 6.401510445e-17)
(0.9717974429 -0.005143721954 2.841745782e-18)
(1.023896716 -0.000402794176 1.631605634e-17)
(0.9744904544 -0.003444106939 3.053178081e-17)
(0.2260271401 -0.2658341513 2.81022745e-16)
(0.2684903794 -0.2042666489 8.373568263e-17)
(0.5015425545 -0.1845752154 2.921838941e-16)
(0.508551009 -0.1415324161 -1.059043613e-18)
(0.6678511341 -0.1317705956 1.039305549e-16)
(0.6602764709 -0.1031522671 8.71555159e-17)
(0.7761793985 -0.09648613101 -5.039781951e-17)
(0.7605363976 -0.07753050331 1.698090505e-16)
(0.8503888218 -0.07209619975 -6.510269761e-17)
(0.8293176434 -0.05933653839 1.446180621e-16)
(0.903026264 -0.05442635437 4.881966332e-17)
(0.8777964193 -0.04582497266 7.557679489e-17)
(0.941320847 -0.04095379663 -6.729146982e-18)
(0.9124620176 -0.03536744175 -5.519467145e-17)
(0.9696512632 -0.03016257395 6.150763853e-17)
(0.9372400781 -0.02692117799 -1.512954931e-16)
(0.9907482103 -0.02111191694 1.932857907e-16)
(0.954589469 -0.01977104321 -1.282929728e-16)
(1.006338734 -0.01322486613 -1.350807036e-17)
(0.9660959436 -0.01328990318 6.854044977e-17)
(1.017423392 -0.006203430577 -3.518060518e-17)
(0.9727817213 -0.006795152009 -4.311347859e-17)
(1.024111148 0.0008276431508 -5.042080589e-17)
(0.9750483237 -0.002153035061 5.060429244e-17)
(0.2610041768 -0.3645900721 -3.121324064e-16)
(0.2952222572 -0.2797030974 -1.908165744e-16)
(0.525678926 -0.2526723358 -4.176343738e-16)
(0.5269224622 -0.193283425 5.931470344e-17)
(0.6849450129 -0.1799427933 -2.277240758e-16)
(0.6735493635 -0.1404756782 -3.211498921e-18)
(0.7885757217 -0.1313810551 -5.34934624e-17)
(0.7704106851 -0.105268985 -1.048958953e-16)
(0.8595527005 -0.0978657741 -7.512034764e-17)
(0.8367915984 -0.08031657872 -9.809934258e-17)
(0.9098641273 -0.07363676593 -1.10678223e-16)
(0.8835029244 -0.06183418066 -8.473430938e-17)
(0.9463976756 -0.05521292873 7.267494619e-17)
(0.9168106964 -0.04757231119 -1.006635706e-18)
(0.9733180943 -0.04049892308 3.97180814e-17)
(0.9404871753 -0.03608421206 8.403221477e-17)
(0.9932090485 -0.02819045174 -1.210044137e-16)
(0.9568792548 -0.02637194414 8.419504344e-17)
(1.007702472 -0.01747748374 3.20980703e-18)
(0.9675040072 -0.01754402686 -7.97388523e-17)
(1.01779963 -0.007884641851 5.619986124e-17)
(0.9734134901 -0.008523512636 8.832897598e-17)
(1.023681525 0.001911263541 -5.575653671e-17)
(0.9753054421 -8.300660399e-05 1.069664781e-16)
(0.3068430239 -0.4587543823 3.603282961e-16)
(0.3302697397 -0.3515924956 1.50168679e-16)
(0.5572872999 -0.3175053723 5.214379732e-16)
(0.5509732474 -0.2425562249 -8.773523271e-17)
(0.7073026496 -0.2257537472 2.002349275e-16)
(0.69087656 -0.1759504157 8.563908679e-17)
(0.8047629895 -0.1645167625 -9.214292367e-18)
(0.7832700379 -0.1315637209 1.367946245e-16)
(0.8714924137 -0.1222674853 1.387996504e-16)
(0.8465021144 -0.1001241793 1.163433805e-16)
(0.9187512829 -0.09174219153 -7.299583307e-19)
(0.8909028169 -0.07685385982 1.546292621e-16)
(0.9529851868 -0.06854477385 -1.411961831e-16)
(0.9224507276 -0.0589041713 8.5007303e-17)
(0.9780884739 -0.05002563746 -1.570033319e-16)
(0.9447324878 -0.04444204702 -1.107782398e-16)
(0.9964733591 -0.03454605195 9.131144452e-17)
(0.9599758406 -0.03222254464 -8.226334879e-17)
(1.009676394 -0.02113689692 2.8970178e-17)
(0.9696380515 -0.02120087406 4.159736984e-17)
(1.018710627 -0.009333758368 -1.032907774e-16)
(0.974791399 -0.01013520103 5.126629942e-17)
(1.023732554 0.002361284461 -2.048633898e-16)
(0.9763682802 0.001850078601 1.921693422e-16)
(0.362929256 -0.5472975808 -3.073511133e-16)
(0.3731114403 -0.419193527 -8.135344629e-17)
(0.595965662 -0.3785213535 -4.307588711e-16)
(0.5803937173 -0.2889174675 7.558114332e-17)
(0.7346769764 -0.2689087976 -1.484625893e-16)
(0.7121101875 -0.2093841858 -1.577645632e-16)
(0.8246033843 -0.195782109 5.435043654e-17)
(0.7990543581 -0.1564167433 -1.921346948e-16)
(0.8861495171 -0.145365882 -2.941379396e-16)
(0.8584405343 -0.1189333461 8.943848012e-17)
(0.929681569 -0.1089757904 -5.932321468e-17)
(0.9000124474 -0.09122267893 -4.254827393e-17)
(0.9611019561 -0.08135530903 -7.283961935e-18)
(0.9293926732 -0.06987499714 1.057730315e-16)
(0.9839665251 -0.05933400986 -1.087910075e-17)
(0.9499182498 -0.05269148704 2.191568174e-16)
(1.00044248 -0.0409563425 1.902168372e-17)
(0.9635975129 -0.03818609045 3.672871329e-17)
(1.011837554 -0.02509853181 2.602019195e-19)
(0.9716383064 -0.02515449321 -1.15965718e-17)
(1.018939439 -0.01129254071 1.154265734e-16)
(0.974957711 -0.01208702398 1.23234008e-17)
(1.022014622 0.001830793566 1.596809036e-16)
(0.9749044309 0.005830214981 -1.223758419e-16)
(0.4285675258 -0.6288998799 -5.816412392e-17)
(0.4232667633 -0.4814942243 -3.931775356e-17)
(0.6411881199 -0.4347165313 4.80243848e-16)
(0.6147723435 -0.3316143189 -1.585864597e-16)
(0.7666293863 -0.3086134241 3.624528582e-17)
(0.736846947 -0.2401239256 2.232518563e-16)
(0.8476979486 -0.2244982536 1.040278174e-17)
(0.8173713862 -0.1792038122 -4.808782066e-17)
(0.9031380444 -0.1665144286 4.456455267e-16)
(0.8722207005 -0.1361030488 -2.594512656e-16)
(0.9422716018 -0.1246708742 -3.103536133e-17)
(0.9104503974 -0.1042462726 1.793526455e-16)
(0.9703691809 -0.09291199096 -1.183881076e-16)
(0.9372715438 -0.0796943207 8.246686979e-17)
(0.9906042904 -0.06756866412 -2.000850426e-16)
(0.9557527406 -0.05988013114 -4.363101708e-18)
(1.004902595 -0.04634786296 -1.90447244e-16)
(0.9677169064 -0.04302200275 5.024340255e-17)
(1.014419835 -0.02791481825 -6.291272778e-17)
(0.9742544558 -0.02768838112 -5.871358961e-19)
(1.019891448 -0.01197172149 -1.459661688e-16)
(0.9764462365 -0.01253657142 -9.763079333e-17)
(1.021534297 0.000997328234 1.812077351e-17)
(0.9786308417 0.006637081849 -2.538411175e-16)
(0.5029487049 -0.7027796233 5.199278934e-16)
(0.480067657 -0.5378587098 -2.049431466e-16)
(0.6924576475 -0.4855838468 -1.10744339e-17)
(0.6537620823 -0.3702524456 -1.93276634e-16)
(0.80290561 -0.3445790057 1.616119767e-16)
(0.7649728605 -0.267980027 -3.002322638e-16)
(0.8739829914 -0.2505514977 1.057672469e-16)
(0.838270666 -0.199910067 1.132730305e-18)
(0.9225491964 -0.1857637229 -1.337951694e-16)
(0.8880214105 -0.1517797807 1.501677043e-16)
(0.95674269 -0.1390394676 1.125001713e-16)
(0.9225056617 -0.116234292 -1.55356243e-16)
(0.981122754 -0.1036035998 1.066435404e-17)
(0.9464757104 -0.08886366765 -6.214212016e-17)
(0.9984432637 -0.07534741698 1.992266292e-16)
(0.9627102864 -0.06678660071 -1.425798786e-16)
(1.010390442 -0.05170203649 2.648789146e-16)
(0.9728433938 -0.04798587978 -1.731708348e-16)
(1.018021166 -0.03118383382 1.432237774e-16)
(0.9777946313 -0.03077312635 -1.401589511e-16)
(1.022104827 -0.01358527286 3.618459859e-16)
(0.9781234824 -0.0130086135 -1.704728358e-16)
(1.02383978 -0.002517355818 1.297468806e-16)
(0.9753070538 0.01458150082 -1.454419566e-17)
(0.5850944337 -0.7677225166 -7.957654906e-16)
(0.5428207344 -0.5874521616 2.499818308e-16)
(0.7490323102 -0.5303292966 -3.040349416e-16)
(0.696748551 -0.4042416051 2.985243311e-16)
(0.842851088 -0.3761939598 -5.137369529e-18)
(0.7958792282 -0.2924543837 2.475970789e-17)
(0.9028258943 -0.2734196119 -1.113025606e-16)
(0.8611262186 -0.218060631 1.352413893e-18)
(0.9437325279 -0.2026138509 -9.669133615e-17)
(0.9051788889 -0.165470469 -4.761487238e-17)
(0.9723998835 -0.1515606018 -2.506024587e-16)
(0.9354556538 -0.1266447067 3.209402524e-16)
(0.9925954008 -0.112851736 -1.962757622e-16)
(0.9561905053 -0.09676075966 2.414967792e-16)
(1.006591775 -0.08198886915 -2.038276905e-16)
(0.9698087689 -0.07266559064 2.556371177e-16)
(1.015761311 -0.05615021477 -2.665742586e-16)
(0.9776399347 -0.05215501248 2.812859789e-16)
(1.020942957 -0.03370127283 -6.270618905e-17)
(0.9802059722 -0.03342411238 3.219498928e-17)
(1.022869667 -0.01447661876 -1.183114248e-16)
(0.9773109662 -0.0144081693 -9.793830862e-17)
(1.02424672 -0.002853692701 2.324031183e-16)
(0.9656039332 0.01107725324 -4.983000424e-16)
(0.6740416674 -0.8232252303 8.118952783e-16)
(0.6107246896 -0.6297440824 -8.213146281e-16)
(0.8103138244 -0.5684902094 9.587298086e-16)
(0.7433438578 -0.4332108326 -6.164840482e-16)
(0.8862028166 -0.4031577234 2.949172719e-16)
(0.8294803135 -0.3133253574 -1.149895125e-16)
(0.934229675 -0.2929399362 1.823379693e-16)
(0.8860853542 -0.2335665999 1.182269762e-16)
(0.9669144988 -0.2170289262 2.529337926e-16)
(0.9240397377 -0.1772081961 3.683971833e-17)
(0.9896696919 -0.162318048 1.993763685e-16)
(0.9498338859 -0.1356251134 -1.378193119e-16)
(1.005409531 -0.1208550112 1.980470557e-19)
(0.9671518654 -0.1036378387 -2.218539429e-16)
(1.015897804 -0.08779473419 7.958976852e-17)
(0.978067455 -0.07784362133 -3.950063312e-16)
(1.022200049 -0.06005158523 2.800923739e-16)
(0.9836653833 -0.05582715839 -4.497603684e-16)
(1.024988472 -0.03572176077 1.800968805e-16)
(0.9842262578 -0.03558119628 -1.973308388e-16)
(1.024926358 -0.01427588204 3.011414168e-16)
(0.9791127868 -0.01530431491 -1.529187365e-16)
(1.023945148 0.002063884666 1.402346262e-16)
(0.9624230846 0.005784462417 1.616666203e-16)
(0.7685711779 -0.8682471458 -3.48989352e-16)
(0.68293671 -0.6641493131 4.916173842e-16)
(0.8754123872 -0.59954675 -3.201981898e-16)
(0.7927914451 -0.456796337 2.116713999e-17)
(0.9321463746 -0.4251047326 6.080387857e-17)
(0.8650141024 -0.3303161681 -2.184110584e-16)
(0.9673823435 -0.3088223418 -1.138408636e-16)
(0.9123416552 -0.246180204 -3.57349371e-16)
(0.9912385405 -0.2287454597 -2.370771231e-16)
(0.9437253517 -0.1867430798 -2.318952619e-16)
(1.007619672 -0.1710474133 -1.817215443e-16)
(0.9646673658 -0.1429082537 2.284509748e-16)
(1.018533068 -0.1273400899 -1.729302473e-16)
(0.978270557 -0.1092160016 4.060293937e-16)
(1.025204667 -0.09251152774 -7.865420864e-17)
(0.9862504145 -0.08208375753 5.167347066e-16)
(1.028383136 -0.06329366343 -2.691254286e-16)
(0.9894765588 -0.05896936553 5.194916057e-16)
(1.028570346 -0.0376124631 -1.595450838e-16)
(0.9880701862 -0.03772780041 1.047095793e-16)
(1.026244256 -0.01457623467 -6.326785219e-17)
(0.981156978 -0.01645008111 -2.671626506e-16)
(1.021298606 0.006507067096 1.926609721e-16)
(0.9632234964 0.003599371045 -3.679873693e-16)
(0.8676250107 -0.9025827308 2.392118114e-16)
(0.7585282423 -0.6902419033 -3.754869973e-16)
(0.9436243922 -0.6230829786 3.193866066e-16)
(0.8446472039 -0.4746377665 -1.231458624e-16)
(0.9803910638 -0.4417073317 8.630035956e-17)
(0.9023977917 -0.3431464803 2.448419788e-16)
(1.002320589 -0.3208189501 4.170136423e-17)
(0.9401005494 -0.2556948413 5.136199583e-16)
(1.017017739 -0.2375870151 2.172181462e-16)
(0.9646899741 -0.1939351651 2.709488092e-16)
(1.026807742 -0.1776363396 1.001845418e-17)
(0.9806328544 -0.1484115616 -5.601767843e-17)
(1.032743145 -0.1322475963 7.938631734e-17)
(0.9904181313 -0.1134502602 -2.790778193e-16)
(1.035472414 -0.09610632105 1.155230848e-17)
(0.9953709519 -0.08532924077 -5.363985446e-16)
(1.035373765 -0.06580714863 1.081784098e-16)
(0.996093746 -0.06140277986 -2.945122583e-16)
(1.032672106 -0.03915205908 -3.506425195e-18)
(0.9924472412 -0.03939406079 -2.040432656e-16)
(1.027489011 -0.01499006351 2.555801662e-16)
(0.9833191052 -0.01718674264 -9.674951316e-17)
(1.017715316 0.009535294238 1.89577852e-16)
(0.9661603209 0.002644413361 3.687660811e-17)
(0.969793483 -0.9254223492 8.290365787e-18)
(0.8365898698 -0.7077379023 -2.814542455e-17)
(1.013995469 -0.6388955916 1.176613029e-16)
(0.8980896424 -0.4866424763 -2.564993096e-16)
(1.030042648 -0.4528902485 3.692262951e-17)
(0.9407904573 -0.3518074168 -9.030941931e-17)
(1.03813438 -0.3289244865 -1.281918258e-16)
(0.968454952 -0.2621441202 -4.00686463e-16)
(1.043276523 -0.2435869434 -1.034434306e-16)
(0.9859303924 -0.1988388285 -1.388890761e-16)
(1.046162931 -0.182137975 -8.302516989e-17)
(0.9966150673 -0.152197756 1.896800334e-16)
(1.04686451 -0.1356415294 -3.902687285e-16)
(1.002370007 -0.1164079439 5.433611357e-16)
(1.045442867 -0.09865836852 -3.121753858e-16)
(1.004130347 -0.08765908632 5.714202526e-16)
(1.041909696 -0.06770830686 -1.435763999e-16)
(1.002247918 -0.06322915303 2.596496258e-16)
(1.036235836 -0.04052041197 1.087505206e-16)
(0.9963753639 -0.04068504978 6.943369634e-19)
(1.02829146 -0.01573829938 -1.122682105e-17)
(0.9852806395 -0.01747162244 -5.772626778e-17)
(1.014717652 0.01057119617 3.558699493e-17)
(0.9693651425 0.004859184597 -2.285322311e-16)
(1.073987955 -0.9368656835 -2.313781771e-17)
(0.9160678839 -0.7163205912 4.3556101e-17)
(1.08570887 -0.6466249241 -1.54101629e-16)
(0.9525971978 -0.4924577593 1.453792842e-16)
(1.080751877 -0.4582947661 2.182377953e-18)
(0.980073782 -0.35594731 -5.707008203e-17)
(1.074844566 -0.332787406 1.331704404e-16)
(0.9976118437 -0.2651797384 1.62404605e-16)
(1.070348174 -0.2463983339 6.35127981e-17)
(1.007935235 -0.2011089251 -1.57149061e-17)
(1.066293576 -0.1842095467 1.613309461e-16)
(1.013348978 -0.1539262896 -1.857776255e-16)
(1.061742936 -0.1371844047 2.604186327e-16)
(1.015059381 -0.1177557476 -3.149494433e-16)
(1.056141661 -0.09983548467 2.321612135e-16)
(1.013575808 -0.08875090394 -3.173826295e-16)
(1.049102358 -0.06867026262 2.643920809e-17)
(1.008957931 -0.06415533856 -3.882906288e-17)
(1.040331759 -0.0414214287 -1.898206528e-16)
(1.000644154 -0.04143343356 1.157018306e-16)
(1.029587808 -0.01669740505 -1.630239561e-17)
(0.9873552025 -0.01759413707 1.888176952e-17)
(1.013487135 0.009238871177 5.929230037e-17)
(0.9711721353 0.008849155764 -2.904536269e-18)
(1.178668587 -0.9363758462 2.918449928e-17)
(0.9960792946 -0.7160314045 -5.181482076e-17)
(1.157839674 -0.6464000094 -5.742750281e-17)
(1.007371209 -0.4922809318 1.588831381e-16)
(1.131639054 -0.4581531552 -5.201747002e-17)
(1.019417561 -0.3558450076 1.938137729e-16)
(1.111541473 -0.3327101578 -1.433570887e-16)
(1.026660809 -0.2651415352 1.311095701e-16)
(1.097242638 -0.2463799095 1.151210825e-17)
(1.029682116 -0.2011337624 2.777527929e-17)
(1.086098391 -0.1842517681 -2.092932743e-16)
(1.029686123 -0.1540181799 1.131877027e-16)
(1.076161304 -0.1372969905 -7.99816624e-17)
(1.02722573 -0.1179219319 8.268927731e-17)
(1.066271832 -0.1000419368 -2.150382904e-16)
(1.022393692 -0.08899970279 1.857286302e-16)
(1.055672991 -0.0690205731 -7.759477096e-17)
(1.014977479 -0.06448486647 -8.699658119e-18)
(1.043875894 -0.04201134942 6.532798204e-17)
(1.00424636 -0.04178943803 -1.242535015e-16)
(1.030709478 -0.01771910914 -9.932659695e-18)
(0.9888645233 -0.01760314096 3.503041994e-17)
(1.013956847 0.006332145211 -1.802935191e-16)
(0.9702647665 0.01350841895 2.251984757e-16)
(1.282782426 -0.924353282 -1.134148379e-16)
(1.075449233 -0.7066750045 2.054579973e-16)
(1.229450748 -0.6379356485 -1.405871897e-16)
(1.061789608 -0.485777568 -1.41848067e-16)
(1.182261408 -0.4520876502 1.321192066e-17)
(1.058622504 -0.3510837011 -2.616389343e-16)
(1.148172456 -0.3282413232 1.083586526e-16)
(1.055744302 -0.2615386093 -3.24611527e-16)
(1.124237472 -0.2430096528 -1.050313048e-16)
(1.051613996 -0.1983540941 -1.718951637e-16)
(1.106151302 -0.1816801824 2.764090585e-16)
(1.046341208 -0.1518608085 -1.376030027e-16)
(1.090959304 -0.1353527146 1.339512058e-16)
(1.039817978 -0.1162735306 -7.584561828e-17)
(1.076890527 -0.09864667553 1.793559802e-16)
(1.031700377 -0.08781236194 4.456606389e-17)
(1.06281104 -0.06818133681 1.647581117e-17)
(1.021476374 -0.06376228282 1.694368506e-16)
(1.048053132 -0.04183845829 -1.051000331e-16)
(1.008230461 -0.04157545074 2.269389784e-16)
(1.032622885 -0.01851637339 -8.264438203e-17)
(0.9904938927 -0.01778903433 6.994614377e-17)
(1.016293636 0.00262625656 2.778730144e-17)
(0.966905926 0.01676415876 -1.592377123e-16)
(1.384724588 -0.9005585178 3.782774208e-17)
(1.153414171 -0.6886128586 -1.275916413e-16)
(1.299741508 -0.6216802316 4.643228061e-17)
(1.115166649 -0.4734240235 1.529129472e-16)
(1.231851675 -0.4406239047 -1.723074001e-17)
(1.096964848 -0.3422180519 2.561401442e-16)
(1.183933749 -0.3199797624 -1.186561557e-18)
(1.084054831 -0.2550082959 3.234541095e-16)
(1.150442703 -0.2369667735 1.446181142e-16)
(1.07280405 -0.1934912459 2.447551565e-16)
(1.12543767 -0.1772496625 -1.126278939e-16)
(1.062244284 -0.1482455295 -1.134726551e-18)
(1.10497743 -0.1321546843 -2.722346511e-17)
(1.051622838 -0.1136312257 8.352513607e-18)
(1.086704195 -0.09643826615 -2.239651141e-16)
(1.040180328 -0.08596083762 -1.020337512e-16)
(1.069145967 -0.06681604657 -3.38654246e-17)
(1.027133988 -0.06259276473 -2.393350719e-16)
(1.051519585 -0.04127835053 1.252631389e-16)
(1.011413336 -0.04109508832 -1.985727015e-16)
(1.034106918 -0.01897418698 4.269313132e-17)
(0.9913834475 -0.01815138061 6.965328983e-17)
(1.019056172 -0.000717421423 -1.76079912e-16)
(0.9618534777 0.01720210202 3.818866146e-16)
(1.483544024 -0.8656760403 -1.379405265e-16)
(1.228689115 -0.6617904589 3.347010431e-16)
(1.367653518 -0.5974502852 -2.427286789e-16)
(1.166760949 -0.4549303125 3.142965725e-17)
(1.279842173 -0.4233955351 -1.408426975e-17)
(1.134119115 -0.3287949971 -2.768160401e-16)
(1.218640657 -0.3074040143 6.791941022e-17)
(1.111599868 -0.2449442243 -3.42319094e-16)
(1.175997677 -0.2275786982 -3.265304825e-17)
(1.093558877 -0.1857897865 -3.394644632e-16)
(1.144399004 -0.1701459517 1.770050846e-16)
(1.077991834 -0.1422853223 -1.266704473e-16)
(1.118953429 -0.1267772949 1.275929628e-16)
(1.063523511 -0.1090247142 -1.735146257e-16)
(1.096734906 -0.09244671342 3.895108163e-16)
(1.04898486 -0.08248837024 -5.475838089e-18)
(1.07593445 -0.06402366417 1.556262152e-16)
(1.033303805 -0.06018538263 1.025843197e-16)
(1.055625387 -0.03964156158 -2.758376361e-17)
(1.015187279 -0.039895504 1.056475436e-16)
(1.036266214 -0.01868416928 -1.281137898e-16)
(0.9926971839 -0.01866621194 5.286437525e-17)
(1.02183625 -0.002913364541 -1.449870837e-16)
(0.957246115 0.01379264038 -2.163095942e-17)
(1.577636512 -0.8197706726 1.931713357e-16)
(1.300713462 -0.6268555308 -2.681105373e-16)
(1.43259606 -0.5659717911 3.292068307e-16)
(1.216081629 -0.4310104871 -1.471911501e-16)
(1.325667909 -0.4011746984 4.168774984e-17)
(1.169558227 -0.3115987301 8.225024172e-17)
(1.251696649 -0.2913605867 2.354782323e-17)
(1.137779917 -0.2322341596 2.249821889e-16)
(1.200229702 -0.2158006859 -6.691960862e-17)
(1.113167792 -0.1762654608 3.116610514e-16)
(1.162237722 -0.1614508585 -6.984912288e-17)
(1.092718808 -0.1351276308 -6.425544336e-17)
(1.131913601 -0.1204176316 8.104040686e-17)
(1.074459787 -0.1036988791 4.981314392e-17)
(1.105785869 -0.08792487913 -2.52078748e-16)
(1.056837048 -0.07864024363 2.169341063e-17)
(1.08173086 -0.06098029933 -1.101585666e-16)
(1.038521812 -0.05759859722 -1.574116872e-16)
(1.058700059 -0.03780235397 6.811815358e-17)
(1.018031506 -0.03856363669 -7.438251515e-17)
(1.037308095 -0.0179247106 9.458641194e-17)
(0.9932372445 -0.01918021894 4.24882512e-17)
(1.022546463 -0.003395467358 4.989552064e-17)
(0.9545726806 0.006970552472 2.114680782e-17)
(1.666217282 -0.7637812845 -3.10236165e-16)
(1.368114792 -0.5839179445 2.527547994e-16)
(1.493400474 -0.5271978436 -3.18556322e-16)
(1.262260953 -0.4014594971 2.352896139e-16)
(1.368616985 -0.3736550522 -1.265092801e-16)
(1.202795318 -0.2901930655 2.824964349e-17)
(1.282735307 -0.2713165689 3.111746681e-17)
(1.162401634 -0.2162174639 -2.122666116e-16)
(1.223057777 -0.2008712191 9.886403644e-17)
(1.131702236 -0.1640247256 -1.806746058e-16)
(1.179148646 -0.150169656 1.460246897e-17)
(1.106773977 -0.1256436599 1.8134245e-17)
(1.14435715 -0.1118612933 1.179373711e-17)
(1.085103039 -0.09631753171 -1.176874201e-16)
(1.114716436 -0.08149992705 1.617710221e-16)
(1.064796526 -0.07296514743 -1.030686951e-17)
(1.087811259 -0.05630224701 6.200152272e-17)
(1.044286301 -0.05345947016 9.074665645e-17)
(1.062419917 -0.0346267534 -7.669854402e-17)
(1.021824349 -0.03609257578 6.922011927e-17)
(1.039027459 -0.01611788475 -1.426549246e-16)
(0.9949331927 -0.01922566396 4.032125546e-17)
(1.021684702 -0.002127481354 -1.255519962e-16)
(0.9561404824 -0.002205195863 2.734650409e-17)
(1.747744008 -0.6980686414 2.036396376e-16)
(1.430599882 -0.5338540372 -1.290795377e-16)
(1.549751788 -0.4820647583 1.025056361e-16)
(1.305065521 -0.3671607003 -1.121746936e-16)
(1.408396031 -0.3417780877 8.259648e-17)
(1.233571266 -0.2655120238 -9.940899222e-17)
(1.311450006 -0.2482788827 -4.682216618e-18)
(1.185163529 -0.1979426096 1.436396385e-16)
(1.244133247 -0.1839285425 -1.572151274e-16)
(1.148785727 -0.1502874685 1.461802996e-16)
(1.19469175 -0.1376272242 1.079308703e-17)
(1.11964764 -0.1152697315 -8.895429112e-17)
(1.155672993 -0.1026567652 7.45996992e-17)
(1.094717134 -0.08854968492 4.041982328e-17)
(1.122622023 -0.07494102776 -2.738060998e-17)
(1.071768499 -0.06731327717 -3.619133081e-17)
(1.09281288 -0.05189123403 4.966763535e-17)
(1.049000261 -0.04960559618 -6.792825116e-17)
(1.064811502 -0.03190200737 6.512747808e-17)
(1.024433528 -0.03386592119 -5.336436845e-17)
(1.03890242 -0.0144843388 1.306896112e-16)
(0.9955440111 -0.01900112942 1.023090096e-17)
(1.017013132 0.0002817558809 1.16052354e-16)
(0.9612390421 -0.0112658666 -4.725995117e-18)
(1.821657687 -0.6237825201 -8.548755559e-17)
(1.486746817 -0.4769613605 1.555277503e-16)
(1.600399681 -0.4307001657 -6.904184193e-17)
(1.343513618 -0.3280437778 8.785211425e-17)
(1.444151352 -0.3053598055 -7.610565441e-17)
(1.261224993 -0.2372102916 1.235790879e-16)
(1.337266068 -0.2217890658 -8.316604601e-18)
(1.205626951 -0.1767926203 -3.871564551e-17)
(1.263090109 -0.1642285678 1.523784154e-16)
(1.164165553 -0.134136837 -1.096506946e-16)
(1.208697552 -0.1227604768 4.819894627e-17)
(1.131289936 -0.102743205 2.768332143e-17)
(1.165936083 -0.09137982983 -8.216208314e-17)
(1.103535365 -0.07873967204 7.604693869e-19)
(1.129949369 -0.06644065298 -4.5223291e-17)
(1.078436022 -0.0596282715 5.338022926e-17)
(1.097788751 -0.04562274856 -9.906144212e-17)
(1.054065519 -0.04370649285 5.278091381e-17)
(1.067868038 -0.02747752416 -4.982919148e-17)
(1.028278846 -0.02969832068 1.787091463e-17)
(1.040078945 -0.01152100105 -7.296247597e-17)
(0.9983633959 -0.01715799033 -3.263784834e-17)
(1.011900509 0.003629337811 -5.434501886e-17)
(0.9715859765 -0.01808279588 -3.627916023e-17)
(1.886532716 -0.5415580518 -3.253606866e-17)
(1.536568182 -0.4142700198 -9.8540099e-17)
(1.645342384 -0.3741654511 -6.750038522e-17)
(1.377662684 -0.2850738599 1.117818145e-17)
(1.475897853 -0.2654116035 -3.456810791e-17)
(1.285803032 -0.2062655802 -6.249153087e-17)
(1.360212882 -0.192894105 2.057302862e-17)
(1.223842961 -0.1538454925 -1.88252548e-17)
(1.279975643 -0.1429463917 -1.159278307e-16)
(1.177891133 -0.1168404297 3.867428172e-17)
(1.221208136 -0.1069699672 -1.671996074e-17)
(1.141706557 -0.08962380269 -3.339932362e-17)
(1.175114169 -0.0797687325 9.575812169e-17)
(1.111411326 -0.06886017 -2.922262225e-17)
(1.136432006 -0.05820231634 5.383331772e-17)
(1.084268757 -0.05241829251 -1.745948778e-17)
(1.101914966 -0.04027536027 4.093168193e-17)
(1.058141117 -0.03884545597 -5.872635797e-18)
(1.069664777 -0.02467283447 -1.026589311e-18)
(1.030617549 -0.02695000622 2.50948699e-17)
(1.039000555 -0.01061446206 -8.003782564e-18)
(0.9990083654 -0.01614094728 9.345870257e-17)
(1.002960245 0.005152124384 -1.974475217e-17)
(0.980749957 -0.02065885076 8.128351682e-17)
(1.942086456 -0.4526999931 5.463397103e-17)
(1.578646674 -0.3462819767 1.426056211e-16)
(1.683297106 -0.3127960641 3.90720546e-17)
(1.406454437 -0.238364872 2.819758251e-17)
(1.502672618 -0.2219371746 2.893275534e-17)
(1.306492264 -0.1725069576 5.708313562e-17)
(1.37952135 -0.1613125396 -1.870209927e-17)
(1.239127973 -0.1286538297 9.208875947e-18)
(1.294121659 -0.1195035607 9.570167545e-17)
(1.189344628 -0.09763539865 -3.689712592e-17)
(1.231611698 -0.08932248412 6.392861385e-17)
(1.150326174 -0.07474337386 -2.440586257e-17)
(1.182661931 -0.06641968026 -2.336435126e-17)
(1.117865643 -0.05717695602 -1.302214945e-17)
(1.141701411 -0.04815854842 -2.791878635e-17)
(1.089056311 -0.04313134303 2.311334669e-17)
(1.105330554 -0.03285246094 -2.745609177e-17)
(1.061746228 -0.0313515403 5.965313133e-18)
(1.07164669 -0.01936606758 -4.607216404e-18)
(1.033689144 -0.02077644734 -5.333208916e-18)
(1.039956703 -0.006932991387 -6.571830618e-18)
(1.002793616 -0.01099336713 -4.607390632e-17)
(0.9986474677 0.008101127906 9.049061712e-18)
(0.9955144967 -0.01591175035 -2.331456763e-17)
(1.987056665 -0.3580856135 -4.48705183e-17)
(1.613309552 -0.2740988064 -1.031246966e-16)
(1.714579465 -0.2476865015 -5.445752962e-17)
(1.430235049 -0.188869991 -9.953536115e-18)
(1.524794102 -0.1759109271 -1.695177979e-17)
(1.323636688 -0.1368392961 -5.526073421e-17)
(1.395548649 -0.1279952768 1.694192986e-17)
(1.251879797 -0.1021686631 -2.277041841e-17)
(1.305973006 -0.09492690135 -3.467191567e-17)
(1.1990198 -0.07761890421 -5.669122323e-18)
(1.240477714 -0.07103622841 -3.046487557e-17)
(1.157765096 -0.05948253829 1.818341971e-18)
(1.189292722 -0.05291000313 2.842588255e-17)
(1.123626977 -0.04557768998 -1.798686076e-17)
(1.146574747 -0.03852488422 4.003824621e-17)
(1.093512616 -0.03455513922 -2.204697632e-17)
(1.108719308 -0.02669181691 2.341239208e-18)
(1.065106446 -0.02559632725 1.336230182e-17)
(1.073558175 -0.01680965481 -1.018286402e-17)
(1.035901166 -0.01813477005 2.035110421e-17)
(1.039717422 -0.008564806228 -1.622944251e-17)
(1.003384044 -0.01155582724 4.453643878e-17)
(0.9923655515 0.002380174498 -2.295349159e-17)
(0.9929734663 -0.01168927831 1.729148571e-17)
(2.021475417 -0.2591081817 5.120005952e-17)
(1.639212032 -0.1984300731 6.79517798e-17)
(1.737942766 -0.1793987679 3.210038141e-17)
(1.447932616 -0.1369236155 2.152245678e-17)
(1.541255855 -0.1275764091 1.398021377e-17)
(1.336335242 -0.09933870199 2.870267942e-17)
(1.407398449 -0.09293302059 6.538181077e-18)
(1.261236702 -0.07423751876 4.993083725e-20)
(1.314624671 -0.06896405423 3.549194453e-17)
(1.205992999 -0.05639160252 -1.50233492e-17)
(1.246792425 -0.05157430499 4.23901922e-17)
(1.162943379 -0.0431164038 -1.654733905e-17)
(1.193782602 -0.03829380195 -1.685364654e-18)
(1.127359015 -0.03281571162 3.736938185e-18)
(1.149513362 -0.02764738726 -1.02343369e-17)
(1.095955659 -0.02445599644 5.804888426e-18)
(1.110186012 -0.0187336848 -2.952497889e-18)
(1.066247897 -0.01727791507 -4.295732649e-18)
(1.073528697 -0.01102751033 3.729990044e-18)
(1.035813881 -0.01047721094 -7.856904976e-18)
(1.038796802 -0.004353317435 1.401349172e-18)
(1.004261685 -0.002827677195 -2.084463235e-17)
(0.992915125 0.002212268023 1.405375878e-17)
(1.013456106 0.009752835774 -2.05787321e-17)
(2.044281669 -0.1568460349 -3.333182423e-17)
(1.656976539 -0.120369084 -3.140212558e-17)
(1.753992003 -0.108975175 -3.857393506e-17)
(1.460145162 -0.08338291154 -1.033149658e-17)
(1.552633395 -0.0777768139 -8.302557338e-18)
(1.345172266 -0.06073529493 -2.253198687e-17)
(1.415685714 -0.05686030885 5.786503034e-18)
(1.267860908 -0.04554162017 -1.623300171e-17)
(1.320820972 -0.04231724083 -1.943926099e-18)
(1.211094327 -0.03465486769 -8.584103863e-18)
(1.251531072 -0.03168449341 -1.000875494e-17)
(1.166975086 -0.02645751285 -1.071079117e-18)
(1.197490227 -0.02348049226 7.523325599e-18)
(1.130649512 -0.01998559366 -7.888625749e-18)
(1.152532016 -0.01683261738 1.166076491e-17)
(1.098792981 -0.01460749257 -4.976129821e-18)
(1.112904242 -0.01122879276 -1.167613221e-18)
(1.068948884 -0.00982210654 1.75149712e-18)
(1.076528029 -0.006397823506 -4.000341212e-19)
(1.038523234 -0.004962792747 3.233372478e-19)