/*--------------------------------*- C++ -*----------------------------------*\
| =========                 |                                                 |
| \\      /  F ield         | foam-extend: Open Source CFD                    |
|  \\    /   O peration     | Version:  3.0                                   |
|   \\  /    A nd           | Web:         http://www.extend-project.de       |
|    \\/     M anipulation  |                                                 |
\*---------------------------------------------------------------------------*/
FoamFile
{
    version     2.0;
    format      ascii;
    class       volSymmTensorField;
    location    "46";
    object      sigma;
}
// * * * * * * * * * * * * * * * * * * * * * * * * * * * * * * * * * * * * * //

dimensions      [0 0 0 0 0 0 0];

internalField   nonuniform List<symmTensor> 
7680
(
(-0.180118 -0.00216018 -1.35291e-20 0.18012 6.40914e-21 -1.55178e-06)
(-0.179392 -0.00260826 4.72315e-20 0.179396 1.34957e-19 -4.36502e-06)
(-0.176647 -0.00290327 2.03064e-21 0.176654 -6.58939e-20 -6.97723e-06)
(-0.172442 -0.00308201 -3.27832e-21 0.172452 7.00716e-20 -9.40927e-06)
(-0.167403 -0.00317979 1.26066e-20 0.167415 -1.17122e-20 -1.16787e-05)
(-0.161727 -0.00321376 -7.15584e-21 0.16174 2.38945e-20 -1.37996e-05)
(-0.155774 -0.00320316 2.41144e-20 0.15579 -4.9657e-20 -1.57844e-05)
(-0.149596 -0.00315701 9.15317e-21 0.149614 -2.2277e-20 -1.76431e-05)
(-0.143408 -0.00308576 8.24084e-21 0.143427 -7.61686e-20 -1.93848e-05)
(-0.137205 -0.00299443 1.65925e-20 0.137226 -1.2125e-20 -2.10167e-05)
(-0.131118 -0.0028889 -3.4174e-20 0.13114 -9.70862e-20 -2.25449e-05)
(-0.125121 -0.00277194 1.85494e-20 0.125145 3.94531e-20 -2.39734e-05)
(-0.119296 -0.00264698 3.65307e-21 0.119321 -8.36786e-20 -2.53048e-05)
(-0.113613 -0.00251551 -3.09531e-20 0.11364 4.28551e-20 -2.65396e-05)
(-0.108124 -0.00237957 -2.55759e-20 0.108151 5.96326e-21 -2.76764e-05)
(-0.102799 -0.00223992 6.04803e-21 0.102828 9.51799e-20 -2.87119e-05)
(-0.097672 -0.00209778 -9.39861e-21 0.0977017 -8.11107e-20 -2.96412e-05)
(-0.0927182 -0.00195352 -5.74997e-21 0.0927487 1.84224e-19 -3.04577e-05)
(-0.0879576 -0.00180783 2.37071e-20 0.0879887 -9.57932e-20 -3.1154e-05)
(-0.0833719 -0.00166085 -8.36733e-21 0.0834037 1.68491e-19 -3.17218e-05)
(-0.0789718 -0.001513 -2.99637e-20 0.0790039 -4.89011e-20 -3.21526e-05)
(-0.0747457 -0.00136425 -3.15378e-20 0.0747781 1.41997e-19 -3.24379e-05)
(-0.0706969 -0.00121489 -3.74878e-20 0.0707295 -1.77336e-20 -3.25694e-05)
(-0.0668209 -0.00106471 -2.25944e-20 0.0668534 1.83956e-19 -3.25391e-05)
(-0.0631152 -0.000914051 -5.36577e-21 0.0631475 -2.82415e-20 -3.23393e-05)
(-0.0595819 -0.000762531 -6.03321e-20 0.0596139 1.48812e-19 -3.1962e-05)
(-0.0562138 -0.000610569 5.98275e-21 0.0562452 8.03767e-20 -3.13992e-05)
(-0.05302 -0.000457745 -6.08717e-21 0.0530506 1.22456e-19 -3.06419e-05)
(-0.0499884 -0.000304549 1.40907e-20 0.0500181 7.33554e-20 -2.96808e-05)
(-0.0471356 -0.000150804 -4.3297e-20 0.0471641 4.1895e-20 -2.85048e-05)
(-0.044445 2.90474e-06 -1.07615e-20 0.0444721 3.30222e-20 -2.71022e-05)
(-0.04194 0.000156529 -2.89254e-20 0.0419654 -1.18392e-20 -2.54602e-05)
(-0.0396018 0.000307558 1.71835e-20 0.0396253 1.25204e-20 -2.35656e-05)
(-0.037453 0.000459836 -4.76734e-20 0.0374744 -1.80958e-20 -2.14046e-05)
(-0.0354916 0.000597965 3.45206e-21 0.0355106 6.89524e-21 -1.89641e-05)
(-0.0336994 0.000750283 -7.08252e-20 0.0337156 1.33699e-20 -1.62314e-05)
(-0.0321589 0.000846309 2.87071e-21 0.0321721 -1.05888e-19 -1.31944e-05)
(-0.0307142 0.0010266 -2.38716e-21 0.0307241 3.1448e-20 -9.84274e-06)
(-0.0296192 0.00101375 -2.51969e-20 0.0296254 -7.27579e-20 -6.16483e-06)
(-0.0285557 0.00110205 1.1115e-20 0.0285578 -6.20615e-20 -2.15154e-06)
(-0.180029 -0.00756756 2.17032e-20 0.18003 -2.02184e-22 -1.54843e-06)
(-0.17919 -0.00883264 -3.36892e-20 0.179195 6.08388e-20 -4.35482e-06)
(-0.176364 -0.00966347 -3.10658e-20 0.176371 -3.30369e-21 -6.96052e-06)
(-0.172103 -0.0101632 4.17131e-20 0.172112 -2.10354e-20 -9.38639e-06)
(-0.167024 -0.0104354 -1.18648e-20 0.167036 -3.57641e-20 -1.165e-05)
(-0.161321 -0.01053 -5.12752e-21 0.161335 5.49766e-20 -1.37653e-05)
(-0.155352 -0.0105022 -3.07673e-20 0.155368 5.08689e-20 -1.57447e-05)
(-0.149165 -0.0103785 -1.76141e-20 0.149183 2.72517e-20 -1.75983e-05)
(-0.142974 -0.0101887 -5.17604e-21 0.142994 1.36549e-19 -1.93352e-05)
(-0.136772 -0.00994753 8.96621e-21 0.136793 1.18666e-19 -2.09626e-05)
(-0.130689 -0.00967178 4.98342e-20 0.130712 -1.95772e-20 -2.24866e-05)
(-0.124699 -0.00936959 5.00439e-21 0.124723 7.1548e-20 -2.39113e-05)
(-0.118884 -0.0090507 2.13617e-20 0.118909 -7.23776e-20 -2.52393e-05)
(-0.113211 -0.00871965 4.92606e-20 0.113238 6.26232e-20 -2.64711e-05)
(-0.107734 -0.00838211 3.06317e-20 0.107761 -1.45064e-19 -2.76053e-05)
(-0.102421 -0.00804074 -6.60126e-20 0.10245 -1.7545e-20 -2.86385e-05)
(-0.0973075 -0.00769867 6.7921e-20 0.097337 7.63225e-21 -2.95657e-05)
(-0.0923671 -0.00735768 -1.82464e-20 0.0923975 -5.4715e-20 -3.03804e-05)
(-0.0876203 -0.00701923 -1.32125e-20 0.0876514 9.97082e-20 -3.10751e-05)
(-0.0830486 -0.00668473 9.2978e-21 0.0830802 -4.67342e-20 -3.16414e-05)
(-0.0786625 -0.00635454 -6.20502e-20 0.0786945 1.79428e-20 -3.2071e-05)
(-0.0744503 -0.00602997 3.06008e-20 0.0744827 -8.10977e-20 -3.2355e-05)
(-0.0704156 -0.00571065 -2.62139e-21 0.0704481 5.07174e-20 -3.24856e-05)
(-0.0665533 -0.0053979 1.96227e-21 0.0665858 -1.34591e-19 -3.24545e-05)
(-0.0628613 -0.00509086 -8.88769e-20 0.0628935 2.73644e-21 -3.22543e-05)
(-0.0593413 -0.00479095 7.43641e-20 0.0593732 -7.90031e-20 -3.18769e-05)
(-0.0559864 -0.00449695 -3.82744e-20 0.0560177 1.13172e-20 -3.13145e-05)
(-0.0528052 -0.00421059 -7.29932e-21 0.0528357 -4.21555e-20 -3.05582e-05)
(-0.0497864 -0.00393026 -7.21034e-20 0.049816 -5.1795e-20 -2.95985e-05)
(-0.0469454 -0.00365828 -4.46565e-20 0.0469739 2.36334e-20 -2.84244e-05)
(-0.0442676 -0.00339303 -4.46524e-20 0.0442946 -1.45132e-20 -2.70244e-05)
(-0.0417737 -0.00313624 -3.99535e-20 0.0417991 5.21203e-21 -2.53853e-05)
(-0.0394498 -0.00289122 2.72023e-20 0.0394733 -1.77347e-21 -2.34942e-05)
(-0.0373123 -0.00264732 2.14428e-20 0.0373337 -6.00281e-20 -2.1337e-05)
(-0.035369 -0.002439 3.08769e-21 0.0353879 3.7986e-20 -1.89012e-05)
(-0.0335924 -0.0021954 -1.21283e-19 0.0336086 -6.11259e-22 -1.6174e-05)
(-0.0320681 -0.00206258 -5.32521e-20 0.0320813 8.22317e-21 -1.31443e-05)
(-0.030662 -0.001787 3.05447e-20 0.0306718 3.20687e-20 -9.80219e-06)
(-0.0295571 -0.00178147 -1.19089e-19 0.0295632 -2.48734e-20 -6.13749e-06)
(-0.0285565 -0.00165599 2.12587e-20 0.0285587 4.10356e-20 -2.1419e-06)
(-0.179809 -0.0129781 2.91679e-20 0.179811 -2.8851e-20 -1.54188e-06)
(-0.17875 -0.0150429 5.43199e-20 0.178754 6.76241e-20 -4.33694e-06)
(-0.175764 -0.0163963 -1.50276e-20 0.175771 -1.91858e-19 -6.93216e-06)
(-0.171391 -0.0172075 -2.88934e-20 0.171401 1.52748e-19 -9.34844e-06)
(-0.166234 -0.0176472 7.46043e-20 0.166246 -1.13218e-19 -1.16033e-05)
(-0.160479 -0.0177974 5.37991e-20 0.160493 -1.13207e-20 -1.37107e-05)
(-0.154477 -0.017749 2.28434e-20 0.154492 -9.98044e-20 -1.5683e-05)
(-0.148271 -0.0175453 6.62939e-20 0.148289 1.11685e-20 -1.75302e-05)
(-0.142073 -0.0172356 8.43534e-20 0.142092 -5.8264e-21 -1.92613e-05)
(-0.135871 -0.0168439 -8.5347e-20 0.135892 -1.09377e-20 -2.08836e-05)
(-0.129796 -0.0163976 -5.41086e-20 0.129818 -1.48713e-19 -2.24029e-05)
(-0.123818 -0.0159104 -2.57537e-20 0.123842 6.80989e-20 -2.38232e-05)
(-0.118018 -0.015398 3.97481e-21 0.118043 -4.88455e-20 -2.51471e-05)
(-0.112364 -0.0148681 -8.96668e-20 0.11239 4.80263e-20 -2.6375e-05)
(-0.106907 -0.0143298 -9.45986e-20 0.106934 8.86122e-20 -2.75055e-05)
(-0.101617 -0.0137877 1.1805e-19 0.101645 9.09889e-20 -2.85351e-05)
(-0.0965253 -0.0132468 -3.15714e-20 0.0965548 7.29764e-20 -2.9459e-05)
(-0.0916085 -0.0127103 5.80367e-20 0.0916387 1.52453e-19 -3.02705e-05)
(-0.0868855 -0.0121804 6.32491e-20 0.0869164 -1.42311e-19 -3.09624e-05)
(-0.0823377 -0.0116597 -9.2819e-20 0.0823692 1.23952e-19 -3.15262e-05)
(-0.0779755 -0.0111485 -4.98417e-20 0.0780075 -3.43576e-20 -3.19538e-05)
(-0.0737872 -0.0106496 -1.90945e-20 0.0738194 1.2723e-19 -3.22366e-05)
(-0.0697758 -0.0101618 -7.26965e-20 0.0698082 -1.37759e-20 -3.23664e-05)
(-0.0659367 -0.00968801 -7.6467e-20 0.065969 6.54798e-20 -3.23353e-05)
(-0.062267 -0.00922631 3.98619e-20 0.0622992 1.84587e-19 -3.21356e-05)
(-0.0587691 -0.00877962 -5.50989e-20 0.0588009 1.10634e-19 -3.17594e-05)
(-0.0554354 -0.0083456 5.20752e-20 0.0554666 1.79708e-19 -3.11988e-05)
(-0.052275 -0.00792731 -6.16221e-20 0.0523054 4.97797e-20 -3.04446e-05)
(-0.0492758 -0.00752219 7.92791e-20 0.0493053 1.42928e-19 -2.94876e-05)
(-0.0464541 -0.00713322 4.95676e-21 0.0464825 3.31472e-21 -2.83165e-05)
(-0.0437942 -0.00675895 -2.55363e-20 0.0438211 6.13314e-20 -2.69201e-05)
(-0.0413181 -0.00639895 -1.49169e-20 0.0413434 9.08732e-20 -2.52849e-05)
(-0.0390105 -0.00606202 -7.28443e-20 0.0390339 1.66253e-19 -2.33984e-05)
(-0.0368888 -0.00572537 1.12857e-20 0.03691 -2.83454e-19 -2.12468e-05)
(-0.0349618 -0.0054452 5.70262e-20 0.0349806 1.99279e-19 -1.88175e-05)
(-0.033198 -0.00511839 -9.30327e-20 0.0332141 -1.06815e-19 -1.60982e-05)
(-0.0316958 -0.00493044 2.39003e-20 0.0317089 8.80026e-21 -1.30782e-05)
(-0.030305 -0.00459837 -5.08694e-20 0.0303147 1.05122e-19 -9.74834e-06)
(-0.0292263 -0.00454204 -1.78067e-20 0.0292324 -4.63926e-20 -6.09937e-06)
(-0.0282741 -0.00438858 -2.2419e-20 0.0282762 1.58133e-19 -2.12575e-06)
(-0.179459 -0.0183925 7.30176e-20 0.179461 5.02255e-20 -1.53428e-06)
(-0.178073 -0.0212272 -9.4001e-20 0.178077 1.47779e-20 -4.31475e-06)
(-0.174851 -0.0230818 -1.11298e-20 0.174858 2.69892e-19 -6.89639e-06)
(-0.170312 -0.0241889 1.30447e-19 0.170321 -2.56059e-19 -9.30014e-06)
(-0.165039 -0.0247847 -1.22004e-19 0.165051 6.05514e-20 -1.15435e-05)
(-0.159206 -0.0249827 7.93649e-21 0.15922 6.95643e-20 -1.36404e-05)
(-0.153154 -0.024908 -2.09564e-20 0.15317 6.97394e-20 -1.56031e-05)
(-0.146921 -0.0246207 5.13925e-20 0.146939 -2.65426e-20 -1.74416e-05)
(-0.140711 -0.0241887 1.53414e-20 0.14073 -1.08714e-19 -1.91649e-05)
(-0.13451 -0.0236452 -6.98241e-20 0.134531 -5.60791e-20 -2.07799e-05)
(-0.128445 -0.0230281 9.31484e-20 0.128467 5.00481e-20 -2.22926e-05)
(-0.122484 -0.0223561 7.61327e-20 0.122508 1.22575e-20 -2.3707e-05)
(-0.116707 -0.021651 3.05879e-20 0.116732 -1.62677e-19 -2.50253e-05)
(-0.111079 -0.0209234 1.48832e-19 0.111105 1.19339e-19 -2.6248e-05)
(-0.105651 -0.0201858 6.57852e-20 0.105678 -1.87179e-21 -2.73736e-05)
(-0.100391 -0.0194446 -1.15871e-19 0.10042 3.20847e-19 -2.83987e-05)
(-0.0953327 -0.0187066 1.72361e-19 0.0953621 -1.97098e-19 -2.93183e-05)
(-0.090449 -0.0179764 -2.25797e-19 0.0904792 2.16037e-19 -3.01261e-05)
(-0.0857597 -0.0172569 -1.61341e-20 0.0857905 -1.28843e-19 -3.08147e-05)
(-0.0812456 -0.0165519 1.02004e-19 0.081277 1.27375e-19 -3.13758e-05)
(-0.0769171 -0.0158617 -5.34075e-20 0.0769489 -1.28417e-19 -3.18013e-05)
(-0.0727618 -0.0151903 5.38046e-20 0.0727939 -7.46881e-23 -3.20827e-05)
(-0.0687831 -0.0145359 -5.82687e-20 0.0688153 2.97871e-20 -3.2212e-05)
(-0.0649757 -0.0139028 1.64395e-19 0.0650079 1.61539e-19 -3.21811e-05)
(-0.0613372 -0.013288 -1.28239e-20 0.0613692 -1.04745e-19 -3.19827e-05)
(-0.0578693 -0.0126962 7.75464e-20 0.057901 8.17047e-20 -3.16086e-05)
(-0.0545647 -0.0121234 -7.1266e-20 0.0545957 2.49377e-20 -3.10509e-05)
(-0.0514321 -0.011575 -4.81871e-20 0.0514624 1.05267e-19 -3.03005e-05)
(-0.0484596 -0.0110459 -9.47951e-20 0.048489 -1.30736e-19 -2.9348e-05)
(-0.0456635 -0.0105422 -1.31266e-19 0.0456917 1.0998e-19 -2.81822e-05)
(-0.0430273 -0.0100598 6.26279e-20 0.043054 -6.46224e-21 -2.67918e-05)
(-0.0405747 -0.00959995 1.09749e-19 0.0405999 4.93383e-20 -2.51635e-05)
(-0.0382862 -0.0091736 -3.65827e-19 0.0383095 1.32307e-19 -2.32849e-05)
(-0.0361891 -0.00874686 8.81419e-21 0.0362103 -1.66316e-20 -2.11423e-05)
(-0.0342718 -0.00840467 2.20226e-19 0.0342905 1.2047e-19 -1.87234e-05)
(-0.0325432 -0.00798083 -3.36478e-19 0.0325592 4.58074e-20 -1.6016e-05)
(-0.031032 -0.00776931 1.81531e-19 0.031045 8.87163e-20 -1.30098e-05)
(-0.0296992 -0.00732138 -1.92202e-20 0.0297089 9.48863e-20 -9.69572e-06)
(-0.028599 -0.007247 -5.00037e-20 0.0286051 -9.39723e-20 -6.06538e-06)
(-0.0277014 -0.00701791 -4.68602e-20 0.0277035 -1.66105e-19 -2.11361e-06)
(-0.178976 -0.0238105 4.87815e-20 0.178978 -1.2082e-19 -1.5239e-06)
(-0.17716 -0.027375 2.17031e-19 0.177164 -2.22385e-19 -4.28625e-06)
(-0.173628 -0.0297007 -1.12688e-19 0.173635 -3.00139e-19 -6.85113e-06)
(-0.168871 -0.0310821 -1.433e-19 0.16888 -2.14791e-20 -9.23938e-06)
(-0.163446 -0.0318182 2.70965e-19 0.163457 3.5464e-20 -1.14684e-05)
(-0.157511 -0.0320526 8.32044e-20 0.157525 -1.66538e-19 -1.35521e-05)
(-0.151394 -0.0319438 -1.85314e-20 0.15141 -1.54802e-19 -1.55027e-05)
(-0.145124 -0.0315677 -6.38584e-20 0.145142 9.05216e-20 -1.73301e-05)
(-0.138899 -0.0310102 6.41919e-20 0.138918 5.75619e-20 -1.90432e-05)
(-0.132699 -0.0303132 -8.49548e-21 0.13272 1.17162e-19 -2.06489e-05)
(-0.126647 -0.0295247 9.79935e-21 0.126669 -1.92863e-19 -2.2153e-05)
(-0.120708 -0.0286682 -1.97456e-19 0.120732 1.27867e-19 -2.35594e-05)
(-0.11496 -0.0277714 8.61239e-20 0.114985 -1.24011e-19 -2.48705e-05)
(-0.109366 -0.0268475 1.59014e-20 0.109392 1.94538e-19 -2.60864e-05)
(-0.103975 -0.0259124 1.17525e-19 0.104003 -6.36194e-21 -2.72057e-05)
(-0.0987563 -0.0249743 -3.28151e-20 0.0987845 1.86849e-19 -2.82251e-05)
(-0.0937394 -0.0240416 -7.14103e-20 0.0937686 -2.75398e-19 -2.91395e-05)
(-0.0888986 -0.0231202 1.4666e-19 0.0889285 1.05782e-19 -2.99426e-05)
(-0.0842526 -0.0222136 -6.81343e-20 0.0842833 5.50567e-20 -3.06272e-05)
(-0.0797818 -0.021327 -6.04321e-20 0.079813 -4.02473e-20 -3.1185e-05)
(-0.0754964 -0.0204605 -2.00776e-19 0.075528 2.15148e-19 -3.1608e-05)
(-0.0713835 -0.0196192 1.14326e-19 0.0714154 1.86562e-19 -3.18878e-05)
(-0.0674465 -0.0188009 6.74266e-20 0.0674785 1.00066e-19 -3.20165e-05)
(-0.0636797 -0.0180113 -1.48522e-19 0.0637117 -1.7651e-19 -3.1986e-05)
(-0.0600807 -0.0172461 -5.59971e-20 0.0601125 2.84217e-19 -3.17891e-05)
(-0.0566509 -0.016512 1.16546e-19 0.0566824 -3.89129e-20 -3.14175e-05)
(-0.0533829 -0.0158032 1.13073e-19 0.0534137 1.46432e-19 -3.08635e-05)
(-0.0502855 -0.0151271 -1.85942e-19 0.0503156 6.10615e-20 -3.01178e-05)
(-0.0473461 -0.0144771 6.63502e-20 0.0473753 3.04678e-19 -2.91713e-05)
(-0.0445822 -0.0138607 1.24855e-19 0.0446102 2.15598e-19 -2.80124e-05)
(-0.0419749 -0.0132726 -1.22623e-19 0.0420015 2.70921e-19 -2.66303e-05)
(-0.0395522 -0.0127146 2.32774e-19 0.0395772 -6.06088e-20 -2.50115e-05)
(-0.0372863 -0.0121981 -1.01527e-19 0.0373094 1.76329e-19 -2.31438e-05)
(-0.0352216 -0.0116869 -9.42708e-20 0.0352426 1.27182e-19 -2.10135e-05)
(-0.0333122 -0.0112686 1.79945e-19 0.0333308 2.92228e-19 -1.86086e-05)
(-0.0316306 -0.0107796 -9.12062e-20 0.0316465 -7.22051e-20 -1.59169e-05)
(-0.0300973 -0.0104947 6.50122e-20 0.0301102 1.22202e-20 -1.29283e-05)
(-0.0288326 -0.0100192 -2.13785e-19 0.0288422 6.34237e-20 -9.63352e-06)
(-0.027684 -0.0098675 -3.59561e-19 0.02769 -3.96478e-20 -6.02518e-06)
(-0.0268241 -0.00961948 1.0716e-19 0.0268262 1.12513e-19 -2.09789e-06)
(-0.178359 -0.0292324 2.71403e-20 0.17836 5.38651e-20 -1.51261e-06)
(-0.176014 -0.0334751 -2.12882e-19 0.176019 3.07495e-19 -4.25365e-06)
(-0.172102 -0.0362342 1.73966e-19 0.172109 -7.21095e-20 -6.79875e-06)
(-0.167078 -0.0378625 2.08096e-19 0.167087 3.49682e-19 -9.16866e-06)
(-0.161465 -0.0387191 -2.04764e-19 0.161476 -2.3033e-20 -1.13807e-05)
(-0.155406 -0.0389758 -6.47363e-20 0.155419 -8.8738e-20 -1.34488e-05)
(-0.149209 -0.0388231 1.35774e-19 0.149225 1.0805e-19 -1.53849e-05)
(-0.142895 -0.0383516 2.05311e-19 0.142912 -9.57065e-20 -1.7199e-05)
(-0.136651 -0.0376646 4.55852e-20 0.13667 -1.12962e-19 -1.88998e-05)
(-0.130452 -0.0368118 -2.59568e-19 0.130473 1.37408e-19 -2.04943e-05)
(-0.124416 -0.0358513 8.19645e-20 0.124438 2.22414e-19 -2.1988e-05)
(-0.118505 -0.0348107 1.11317e-19 0.118528 1.05727e-19 -2.33849e-05)
(-0.112792 -0.0337234 3.02074e-20 0.112816 4.97752e-21 -2.46871e-05)
(-0.107239 -0.032605 3.01222e-19 0.107265 -2.19432e-19 -2.5895e-05)
(-0.101895 -0.0314749 7.36904e-20 0.101922 3.70699e-20 -2.70069e-05)
(-0.0967248 -0.0303424 -2.3804e-19 0.0967528 -1.08969e-19 -2.80196e-05)
(-0.0917592 -0.029218 8.33825e-21 0.0917881 2.05708e-19 -2.8928e-05)
(-0.0869704 -0.0281085 5.23751e-20 0.0870001 1.75688e-19 -2.97259e-05)
(-0.0823773 -0.027018 -1.1736e-19 0.0824077 6.98711e-20 -3.04059e-05)
(-0.077959 -0.025953 2.41465e-19 0.07799 2.09021e-19 -3.09602e-05)
(-0.073726 -0.0249132 1.10747e-19 0.0737574 2.36795e-19 -3.13806e-05)
(-0.0696645 -0.0239052 -7.92413e-20 0.0696961 1.73763e-19 -3.16589e-05)
(-0.0657781 -0.0229259 -3.14879e-19 0.0658099 -1.71909e-19 -3.17872e-05)
(-0.0620603 -0.0219827 3.18597e-19 0.0620921 2.38248e-19 -3.17577e-05)
(-0.0585091 -0.0210698 1.01979e-19 0.0585407 9.25905e-20 -3.15629e-05)
(-0.0551254 -0.0201961 -1.13991e-19 0.0551566 2.99449e-19 -3.11948e-05)
(-0.0519017 -0.0193535 1.18495e-19 0.0519323 -1.15648e-19 -3.06457e-05)
(-0.0488468 -0.0185525 1.32613e-19 0.0488767 1.3401e-19 -2.99063e-05)
(-0.0459476 -0.0177831 5.44792e-20 0.0459766 -8.55903e-20 -2.89674e-05)
(-0.0432221 -0.0170572 -6.62885e-20 0.0432499 -1.01787e-19 -2.78177e-05)
(-0.0406495 -0.0163644 -1.18389e-19 0.0406759 -5.5382e-19 -2.64461e-05)
(-0.0382615 -0.0157128 -1.91678e-20 0.0382863 2.12093e-20 -2.48395e-05)
(-0.0360214 -0.015106 -2.01787e-20 0.0360444 -3.08098e-19 -2.29856e-05)
(-0.0339906 -0.0145174 1.17183e-19 0.0340114 6.23989e-20 -2.08707e-05)
(-0.0320898 -0.0140227 1.26316e-19 0.0321082 -2.96817e-19 -1.84831e-05)
(-0.03045 -0.0134688 -6.12621e-19 0.0304658 -1.5267e-19 -1.58102e-05)
(-0.0289002 -0.0131237 3.87055e-19 0.0289131 -1.66078e-19 -1.28423e-05)
(-0.0276868 -0.0125897 -1.14567e-21 0.0276964 -4.94905e-20 -9.5696e-06)
(-0.0265199 -0.0123961 4.04286e-22 0.0265258 -4.94189e-19 -5.9853e-06)
(-0.0256799 -0.0121223 -2.32591e-19 0.025682 1.055e-19 -2.08386e-06)
(-0.177604 -0.0346575 2.08437e-19 0.177606 -8.82815e-20 -1.49853e-06)
(-0.174639 -0.039517 1.23657e-19 0.174644 6.60901e-20 -4.21483e-06)
(-0.17028 -0.0426639 -1.83147e-19 0.170286 -2.08212e-22 -6.73701e-06)
(-0.164942 -0.0445063 4.22889e-21 0.164951 -2.88787e-19 -9.08566e-06)
(-0.15911 -0.0454593 2.56961e-20 0.159121 1.45298e-19 -1.1278e-05)
(-0.152904 -0.0457214 2.88664e-21 0.152918 4.59102e-19 -1.33278e-05)
(-0.146615 -0.0455129 -6.6128e-20 0.14663 2.19385e-20 -1.5247e-05)
(-0.140249 -0.0449381 -2.23619e-19 0.140266 1.55828e-19 -1.70454e-05)
(-0.133983 -0.0441165 2.87404e-19 0.134002 -1.31255e-20 -1.87317e-05)
(-0.127787 -0.0431055 2.3069e-19 0.127807 1.12118e-19 -2.03127e-05)
(-0.121769 -0.0419719 -5.98907e-20 0.121791 -6.80708e-22 -2.17941e-05)
(-0.11589 -0.0407477 -3.58993e-19 0.115913 1.80203e-19 -2.31796e-05)
(-0.110219 -0.0394713 -1.91503e-19 0.110244 5.63875e-21 -2.44713e-05)
(-0.104716 -0.0381608 -3.32955e-20 0.104742 3.32091e-19 -2.56696e-05)
(-0.0994262 -0.0368383 3.3397e-19 0.099453 -1.6785e-19 -2.67727e-05)
(-0.0943137 -0.0355148 1.18045e-19 0.0943415 5.08802e-21 -2.77774e-05)
(-0.0894081 -0.034202 1.06756e-19 0.0894368 5.92838e-21 -2.86788e-05)
(-0.0846805 -0.032908 8.07846e-20 0.08471 -3.78575e-21 -2.94705e-05)
(-0.0801494 -0.0316375 -2.01217e-20 0.0801796 -1.37066e-19 -3.01454e-05)
(-0.0757927 -0.0303979 1.06081e-19 0.0758234 -2.04259e-19 -3.06955e-05)
(-0.071621 -0.0291887 -1.12464e-19 0.0716521 -6.34619e-21 -3.11129e-05)
(-0.0676194 -0.0280179 -6.47787e-20 0.0676508 -3.22486e-19 -3.13894e-05)
(-0.063792 -0.0268814 4.3252e-21 0.0638235 1.99057e-19 -3.15173e-05)
(-0.0601313 -0.0257883 5.04744e-20 0.0601628 -1.26738e-19 -3.14888e-05)
(-0.0566356 -0.0247314 1.67337e-19 0.0566669 -1.23268e-19 -3.12965e-05)
(-0.053305 -0.0237213 -2.95999e-20 0.053336 -6.3989e-20 -3.09324e-05)
(-0.0501326 -0.0227484 -9.26639e-20 0.050163 -1.79158e-20 -3.03888e-05)
(-0.0471262 -0.0218255 -2.55911e-20 0.0471559 -3.23467e-19 -2.96566e-05)
(-0.0442732 -0.0209397 -2.12581e-19 0.044302 6.28763e-19 -2.87266e-05)
(-0.041591 -0.0201067 -2.62675e-19 0.0416186 -4.80284e-20 -2.75874e-05)
(-0.0390587 -0.0193116 -1.1675e-19 0.0390849 3.48447e-19 -2.62282e-05)
(-0.0367088 -0.018569 4.42081e-19 0.0367334 1.47651e-19 -2.46356e-05)
(-0.0345009 -0.0178727 -4.10084e-20 0.0345237 -2.12667e-19 -2.27979e-05)
(-0.0325054 -0.0172129 -1.2645e-19 0.0325261 2.47428e-19 -2.07009e-05)
(-0.0306214 -0.0166361 1.34841e-19 0.0306398 -1.81324e-19 -1.83333e-05)
(-0.0290231 -0.0160429 -2.9719e-20 0.0290388 -4.07362e-20 -1.56822e-05)
(-0.0274564 -0.0156112 2.3588e-20 0.0274691 1.44213e-20 -1.27382e-05)
(-0.0263037 -0.0150837 -5.21073e-19 0.0263132 -1.10242e-19 -9.49072e-06)
(-0.025076 -0.0148051 -2.24025e-19 0.0250819 -1.38693e-19 -5.93436e-06)
(-0.0242949 -0.014546 2.51982e-19 0.024297 5.76714e-19 -2.06357e-06)
(-0.17671 -0.0400854 9.85912e-20 0.176712 1.30082e-19 -1.48368e-06)
(-0.173039 -0.0454901 -2.52573e-20 0.173043 -8.61268e-20 -4.17215e-06)
(-0.168171 -0.0489726 -1.70723e-20 0.168177 9.63896e-20 -6.66847e-06)
(-0.162477 -0.050991 1.41372e-19 0.162486 7.13769e-19 -8.9931e-06)
(-0.156395 -0.0520128 2.32418e-19 0.156406 5.32808e-20 -1.11632e-05)
(-0.150025 -0.0522607 6.2046e-22 0.150038 -4.4725e-19 -1.31922e-05)
(-0.14363 -0.0519828 8.77913e-21 0.143645 -7.85356e-20 -1.50922e-05)
(-0.137206 -0.0512955 1.68514e-19 0.137223 -1.57674e-19 -1.68728e-05)
(-0.130917 -0.0503338 -7.11759e-20 0.130935 -3.72947e-20 -1.85426e-05)
(-0.124723 -0.0491614 -1.27043e-19 0.124743 -1.55593e-19 -2.01083e-05)
(-0.118728 -0.0478539 2.92063e-19 0.11875 -1.24452e-19 -2.15756e-05)
(-0.112886 -0.0464465 2.43403e-19 0.112909 -2.62316e-19 -2.2948e-05)
(-0.107264 -0.0449828 6.91928e-20 0.107288 9.74107e-20 -2.42278e-05)
(-0.101817 -0.0434827 7.90016e-20 0.101843 -5.09599e-20 -2.54151e-05)
(-0.0965895 -0.0419711 -1.40023e-19 0.096616 -3.76026e-19 -2.65084e-05)
(-0.091543 -0.0404602 -1.11661e-19 0.0915705 5.96219e-20 -2.75042e-05)
(-0.0867062 -0.0389631 1.22993e-19 0.0867346 -3.0379e-19 -2.83977e-05)
(-0.0820485 -0.0374889 -2.41043e-20 0.0820777 2.62696e-20 -2.91825e-05)
(-0.0775881 -0.0360427 -1.94295e-19 0.0776179 -4.63568e-19 -2.98518e-05)
(-0.0733016 -0.0346328 3.74309e-19 0.073332 5.09418e-20 -3.03975e-05)
(-0.0691997 -0.0332587 1.02037e-19 0.0692306 -8.03448e-20 -3.08118e-05)
(-0.0652664 -0.0319293 7.0547e-20 0.0652975 4.40742e-20 -3.10866e-05)
(-0.0615062 -0.0306399 -2.02066e-19 0.0615374 1.70489e-19 -3.12143e-05)
(-0.0579103 -0.0294008 1.49038e-20 0.0579414 6.72847e-20 -3.11872e-05)
(-0.0544779 -0.0282037 1.34805e-19 0.0545089 1.43838e-19 -3.09979e-05)
(-0.0512077 -0.0270613 1.83303e-19 0.0512383 -3.13253e-19 -3.06386e-05)
(-0.0480936 -0.0259614 -2.65048e-19 0.0481237 2.4384e-19 -3.01016e-05)
(-0.0451424 -0.0249202 9.32038e-19 0.0451717 -5.54121e-19 -2.93778e-05)
(-0.0423419 -0.0239212 3.2197e-19 0.0423704 4.93013e-19 -2.84581e-05)
(-0.0397087 -0.022985 -2.4013e-19 0.0397361 -5.74831e-19 -2.73312e-05)
(-0.0372218 -0.0220901 -2.63359e-19 0.0372478 4.97221e-19 -2.59863e-05)
(-0.0349139 -0.0212609 -5.92556e-19 0.0349383 -5.08495e-20 -2.44101e-05)
(-0.0327418 -0.0204769 7.81505e-20 0.0327644 2.01641e-19 -2.25907e-05)
(-0.0307812 -0.0197511 1.15082e-19 0.0308018 2.81707e-19 -2.05143e-05)
(-0.0289182 -0.0190932 -3.40335e-19 0.0289364 1.57742e-19 -1.81693e-05)
(-0.0273514 -0.0184625 -4.0625e-19 0.0273669 1.93169e-20 -1.55427e-05)
(-0.0257838 -0.017953 3.53795e-19 0.0257964 3.00792e-19 -1.26254e-05)
(-0.0246639 -0.0174178 -1.95194e-19 0.0246733 2.8832e-19 -9.4064e-06)
(-0.0234213 -0.0170878 6.22001e-19 0.0234272 -1.88023e-19 -5.88115e-06)
(-0.0226488 -0.0168321 -4.99369e-19 0.0226508 1.13675e-19 -2.04466e-06)
(-0.175673 -0.0455148 1.22025e-19 0.175674 -9.34528e-20 -1.46601e-06)
(-0.171217 -0.0513846 1.34292e-19 0.171221 -6.97107e-20 -4.12328e-06)
(-0.165785 -0.0551433 2.38854e-19 0.165791 -6.84304e-20 -6.59065e-06)
(-0.159696 -0.0572949 1.24461e-19 0.159704 -7.05921e-19 -8.88839e-06)
(-0.153339 -0.0583545 -4.68322e-19 0.15335 -4.93148e-19 -1.10334e-05)
(-0.146785 -0.058566 -2.37559e-20 0.146799 1.83368e-19 -1.30392e-05)
(-0.140276 -0.0582032 3.01875e-20 0.140291 2.46111e-19 -1.49175e-05)
(-0.133788 -0.0573932 -1.61054e-19 0.133804 3.59665e-20 -1.66779e-05)
(-0.127473 -0.056285 2.45624e-19 0.127492 3.38716e-19 -1.83289e-05)
(-0.121284 -0.0549478 2.63183e-19 0.121304 -4.54641e-19 -1.98773e-05)
(-0.115315 -0.0534652 -3.19669e-19 0.115337 3.1847e-19 -2.13284e-05)
(-0.109516 -0.0518753 -6.26522e-20 0.109539 -2.69816e-19 -2.2686e-05)
(-0.103949 -0.0502263 -1.01698e-20 0.103973 8.35812e-20 -2.39521e-05)
(-0.0985655 -0.0485394 -2.69052e-19 0.0985906 -6.17461e-20 -2.51269e-05)
(-0.0934078 -0.0468424 3.20628e-19 0.093434 2.50233e-19 -2.62088e-05)
(-0.0884353 -0.0451482 1.89041e-19 0.0884625 -1.8798e-19 -2.71944e-05)
(-0.0836756 -0.0434715 -9.72635e-20 0.0837036 4.39189e-19 -2.80789e-05)
(-0.079096 -0.0418217 7.80647e-20 0.0791249 -2.31292e-19 -2.8856e-05)
(-0.0747147 -0.0402048 -2.50469e-19 0.0747442 2.51503e-19 -2.95188e-05)
(-0.0705065 -0.0386296 3.12094e-19 0.0705366 4.51372e-21 -3.00594e-05)
(-0.0664826 -0.0370954 -2.67655e-20 0.0665131 -2.01013e-19 -3.04701e-05)
(-0.0626252 -0.0356124 1.63233e-19 0.062656 -5.88506e-20 -3.07428e-05)
(-0.0589397 -0.0341747 1.48026e-19 0.0589706 -1.49507e-19 -3.08702e-05)
(-0.0554157 -0.0327944 -5.90603e-20 0.0554466 -2.84381e-20 -3.08444e-05)
(-0.0520535 -0.0314614 -3.36373e-19 0.0520842 1.99278e-19 -3.06583e-05)
(-0.04885 -0.0301907 2.5558e-19 0.0488803 -5.44667e-19 -3.03041e-05)
(-0.0458005 -0.0289678 -5.83043e-19 0.0458303 1.50478e-19 -2.97743e-05)
(-0.0429096 -0.0278119 -1.08359e-19 0.0429386 1.85333e-19 -2.90596e-05)
(-0.0401672 -0.0267029 2.3666e-19 0.0401954 3.96024e-20 -2.81511e-05)
(-0.037587 -0.0256663 -9.19672e-20 0.037614 -2.8182e-19 -2.70376e-05)
(-0.0351509 -0.0246747 6.30769e-19 0.0351766 1.80619e-19 -2.57084e-05)
(-0.0328871 -0.0237614 1.93058e-19 0.0329112 -2.70689e-19 -2.415e-05)
(-0.0307575 -0.0228923 -5.21115e-20 0.0307798 6.02391e-19 -2.23509e-05)
(-0.0288306 -0.0221051 2.85075e-19 0.0288509 -7.55334e-19 -2.02969e-05)
(-0.0269994 -0.0213678 -1.67016e-19 0.0270174 5.47258e-19 -1.79769e-05)
(-0.0254564 -0.0207126 3.67272e-20 0.0254717 -1.83417e-19 -1.53775e-05)
(-0.0239015 -0.0201193 2.47365e-19 0.023914 4.97581e-19 -1.249e-05)
(-0.0228082 -0.0196071 -9.57145e-19 0.0228175 -3.54864e-19 -9.30313e-06)
(-0.021543 -0.0192017 -3.63253e-19 0.0215488 1.54841e-19 -5.81387e-06)
(-0.0208176 -0.0189809 4.65504e-19 0.0208196 3.70381e-19 -2.01841e-06)
(-0.174489 -0.0509444 -8.80803e-20 0.17449 6.6363e-19 -1.44768e-06)
(-0.16918 -0.0571907 -1.53192e-19 0.169184 2.98424e-19 -4.07075e-06)
(-0.163133 -0.0611605 -3.6011e-19 0.16314 8.69912e-20 -6.50631e-06)
(-0.156616 -0.0633984 3.60071e-21 0.156624 5.14395e-19 -8.77445e-06)
(-0.14996 -0.0644614 5.67299e-19 0.149971 6.63461e-19 -1.08919e-05)
(-0.143209 -0.0646124 1.95624e-19 0.143222 2.49363e-19 -1.2872e-05)
(-0.136575 -0.0641478 -3.57938e-20 0.13659 -1.13216e-19 -1.47264e-05)
(-0.13002 -0.0632039 2.52785e-19 0.130036 -3.08633e-19 -1.64645e-05)
(-0.12368 -0.0619422 -3.97736e-19 0.123698 -2.92543e-19 -1.80948e-05)
(-0.117496 -0.0604366 -1.77887e-19 0.117516 2.22712e-19 -1.96238e-05)
(-0.111558 -0.0587778 3.42565e-19 0.111579 4.87259e-19 -2.10572e-05)
(-0.105806 -0.0570061 -1.94167e-19 0.105829 4.25324e-19 -2.23983e-05)
(-0.1003 -0.0551739 2.11166e-19 0.100324 2.89114e-19 -2.36493e-05)
(-0.0949872 -0.0533035 4.43951e-20 0.095012 2.766e-19 -2.48102e-05)
(-0.0899069 -0.0514252 -4.4665e-19 0.0899327 5.79893e-20 -2.58796e-05)
(-0.0850161 -0.0495523 1.56447e-19 0.0850429 -9.40178e-20 -2.6854e-05)
(-0.0803413 -0.0477009 6.44615e-20 0.080369 1.07384e-21 -2.77287e-05)
(-0.0758478 -0.0458809 -9.36604e-20 0.0758763 -2.8954e-19 -2.84974e-05)
(-0.0715535 -0.0440986 -8.58719e-20 0.0715826 -2.29686e-19 -2.91532e-05)
(-0.0674314 -0.0423636 -1.90899e-19 0.0674611 3.83242e-19 -2.96884e-05)
(-0.063493 -0.0406749 3.92188e-20 0.0635231 1.67997e-20 -3.00953e-05)
(-0.059719 -0.0390435 -3.60076e-20 0.0597493 3.55251e-19 -3.0366e-05)
(-0.0561155 -0.0374629 -6.00562e-20 0.056146 -9.89698e-20 -3.04931e-05)
(-0.0526703 -0.0359464 4.81252e-19 0.0527007 1.14418e-19 -3.0469e-05)
(-0.0493849 -0.0344827 -4.66832e-19 0.0494152 2.43911e-19 -3.02867e-05)
(-0.0462543 -0.0330885 8.44021e-20 0.0462842 -1.10504e-19 -2.99382e-05)
(-0.0432754 -0.0317472 4.50459e-19 0.0433048 5.9544e-19 -2.94163e-05)
(-0.0404503 -0.0304811 4.95604e-19 0.040479 1.74711e-19 -2.87118e-05)
(-0.0377713 -0.0292666 -1.52967e-19 0.0377991 4.20885e-19 -2.78158e-05)
(-0.0352486 -0.0281338 -5.16974e-19 0.0352753 4.79982e-19 -2.67171e-05)
(-0.0328675 -0.0270496 -2.25625e-19 0.0328929 7.96371e-20 -2.54051e-05)
(-0.030651 -0.0260562 4.72103e-20 0.0306749 -1.9188e-20 -2.38665e-05)
(-0.0285673 -0.0251065 -3.14236e-19 0.0285894 -6.52382e-21 -2.20898e-05)
(-0.0266744 -0.0242603 1.30598e-19 0.0266945 -2.13825e-19 -2.00607e-05)
(-0.0248807 -0.0234491 4.01285e-19 0.0248984 2.97517e-19 -1.77682e-05)
(-0.0233546 -0.0227674 -4.30799e-19 0.0233698 -3.52679e-19 -1.5199e-05)
(-0.0218284 -0.022102 6.7873e-19 0.0218407 4.01469e-20 -1.23446e-05)
(-0.0207409 -0.0215996 -2.18551e-19 0.0207501 -1.28452e-19 -9.19415e-06)
(-0.0194859 -0.021144 9.84424e-19 0.0194917 5.34785e-19 -5.74514e-06)
(-0.0187649 -0.0209319 -5.84601e-19 0.0187669 -3.29377e-19 -1.99453e-06)
(-0.173155 -0.056372 6.42115e-20 0.173157 -4.29458e-19 -1.4265e-06)
(-0.166932 -0.0628992 -6.45828e-22 0.166936 -5.26088e-19 -4.01203e-06)
(-0.160229 -0.0670097 2.15932e-19 0.160236 1.97494e-19 -6.41275e-06)
(-0.153254 -0.0692827 1.17268e-19 0.153262 -3.23587e-20 -8.64846e-06)
(-0.14628 -0.0703121 -7.55638e-19 0.146291 -1.08152e-19 -1.07357e-05)
(-0.13932 -0.0703763 -2.0508e-20 0.139332 -8.30985e-19 -1.26875e-05)
(-0.132555 -0.0697916 -2.70919e-19 0.132569 -3.50871e-20 -1.45155e-05)
(-0.125929 -0.0687016 -1.26562e-19 0.125945 -2.60392e-19 -1.6229e-05)
(-0.119563 -0.067279 5.50584e-19 0.119581 6.07151e-19 -1.78363e-05)
(-0.113388 -0.065601 5.66289e-19 0.113408 -7.55762e-21 -1.93441e-05)
(-0.107484 -0.0637647 -4.90812e-20 0.107505 -3.75442e-20 -2.07575e-05)