/*--------------------------------*- C++ -*----------------------------------*\
| =========                 |                                                 |
| \\      /  F ield         | foam-extend: Open Source CFD                    |
|  \\    /   O peration     | Version:  3.0                                   |
|   \\  /    A nd           | Web:         http://www.extend-project.de       |
|    \\/     M anipulation  |                                                 |
\*---------------------------------------------------------------------------*/
FoamFile
{
    version     2.0;
    format      ascii;
    class       volScalarField;
    location    "20";
    object      p;
}
// * * * * * * * * * * * * * * * * * * * * * * * * * * * * * * * * * * * * * //

dimensions      [0 0 0 0 0 0 0];

internalField   nonuniform List<scalar> 
672
(
-0.2388276362
-0.2026807585
-0.1910606114
-0.1727752704
-0.1694580285
-0.1597313554
-0.1599127965
-0.1546000124
-0.1556038803
-0.1519606349
-0.1514360408
-0.1467790295
-0.2358722177
-0.2001762911
-0.1887015924
-0.1706453945
-0.1673707969
-0.157766565
-0.1579470092
-0.1527014707
-0.1536939643
-0.150097006
-0.1495798679
-0.1449817149
-0.2299272732
-0.1951363817
-0.1839545657
-0.1663571745
-0.1631679273
-0.1538084841
-0.1539866457
-0.1488753429
-0.1498446136
-0.1463397843
-0.1458370399
-0.1413560186
-0.2211123269
-0.187659661
-0.1769087619
-0.1599889929
-0.1569236983
-0.1479251518
-0.1480977501
-0.1431838582
-0.1441169451
-0.1407475893
-0.1402650114
-0.1359569828
-0.2094951442
-0.177805738
-0.1676233591
-0.1515964255
-0.1486950483
-0.1401721146
-0.1403379434
-0.1356842903
-0.1365701386
-0.1333792951
-0.132923458
-0.1288430449
-0.195264833
-0.1657327962
-0.1562446573
-0.1413095932
-0.1386071761
-0.1306654264
-0.1308213942
-0.1264854319
-0.1273121586
-0.1243392426
-0.1239152982
-0.120113335
-0.1785575952
-0.1515586655
-0.1428863205
-0.1292334257
-0.126765335
-0.1195062224
-0.1196513314
-0.1156886326
-0.1164465571
-0.1137296361
-0.113343453
-0.1098681973
-0.1596260828
-0.1354954417
-0.1277457549
-0.1155442042
-0.1133400926
-0.1068532898
-0.1069847344
-0.1034440692
-0.1041229212
-0.1016954755
-0.101351339
-0.09824604143
-0.1386661407
-0.1177115674
-0.1109841574
-0.1003899036
-0.09847884893
-0.09284753929
-0.09296463426
-0.08989159031
-0.09048359087
-0.08837683572
-0.08807966685
-0.08538381852
-0.1159833787
-0.09846410025
-0.09284145358
-0.0839852258
-0.08238993919
-0.07768334162
-0.07778367782
-0.07521584924
-0.07571281707
-0.07395257094
-0.07370551014
-0.07145258219
-0.09182130369
-0.07796191866
-0.07351686172
-0.06651254853
-0.06525442385
-0.06153334941
-0.06161662286
-0.05958739069
-0.05998385803
-0.05859298212
-0.05839980252
-0.05661858136
-0.06652534084
-0.05649589835
-0.05328227463
-0.04821548782
-0.04730908908
-0.04461876213
-0.04468305033
-0.04321689689
-0.04350718119
-0.04250248327
-0.04236500956
-0.04107746834
-0.04037224476
-0.03430311778
-0.03236342491
-0.02930038992
-0.0287584148
-0.02713429066
-0.02717971299
-0.02629618013
-0.02647738771
-0.02587226453
-0.02579290081
-0.02501570932
-0.01373213794
-0.01169544303
-0.01105206043
-0.01002885031
-0.00985690878
-0.009317866885
-0.009343035049
-0.009052216128
-0.009121435107
-0.008922811331
-0.00890199545
-0.008644495866
0.01310106451
0.01107549257
0.01041241609
0.009380437347
0.009178912572
0.008624476388
0.008618981455
0.00831232686
0.008355250474
0.00814410573
0.008105479187
0.007839556085
0.03974890551
0.03369072789
0.03173151987
0.02865976422
0.02808848459
0.02644907733
0.02646410989
0.02556484447
0.0257199612
0.02510237937
0.02500530253
0.02421973614
0.06591723016
0.05589842445
0.05266568474
0.04759029292
0.04665519217
0.04394981711
0.0439843106
0.04250264706
0.04276731709
0.0417503057
0.04159541113
0.04029958779
0.09123606029
0.0773868026
0.07292316616
0.06591040095
0.06462441075
0.0608886333
0.06094293671
0.05889852244
0.05927000122
0.05786702452
0.05765674419
0.05586739908
0.115427901
0.09791815058
0.09227772717
0.08341329497
0.08179135281
0.07707054167
0.07714311007
0.07456056272
0.07503350737
0.07326146405
0.07299788087
0.07073703147
0.1381476647
0.1172018081
0.1104575148
0.09985534128
0.09791902628
0.09227411435
0.09236483336
0.08927767003
0.08984673411
0.08772859979
0.08741552407
0.08471205039
0.1591505486
0.1350277886
0.1272624302
0.1150533665
0.1128258122
0.1063261826
0.1064330693
0.1028790276
0.1035364047
0.1010980836
0.1007389094
0.09762633552
0.1781315563
0.1511394509
0.1424526763
0.1287927258
0.1263031428
0.1190321233
0.1191546522
0.1151794959
0.1159175439
0.113190416
0.1127901814
0.1093081117
0.1948929299
0.1653667189
0.1558657756
0.1409242516
0.138202752
0.1302501877
0.1303860021
0.1260386513
0.1268474677
0.123865112
0.123428329
0.1196200907
0.2091829832
0.1774981829
0.1673045563
0.1512718394
0.1483538609
0.1398213715
0.1399696012
0.135305819
0.1361758779
0.1329765379
0.1325092445
0.1284232049
0.2208629743
0.1874138421
0.176653743
0.1597289966
0.1566500591
0.1476433704
0.147801362
0.1428787497
0.1437985189
0.1404217317
0.1399293073
0.1356164
0.2297450917
0.1949564801
0.1837672374
0.1661657922
0.1629658409
0.1535998425
0.1537664617
0.1486480311
0.1496066056
0.1460955901
0.1455847912
0.1410997418
0.2357586069
0.2000638099
0.1885841649
0.1705249222
0.1672430383
0.1576339524
0.1578063345
0.1525554224
0.1535401786
0.149938407
0.1494151768
0.1448139447
0.2387869558
0.2026390683
0.1910154038
0.1727279661
0.1694066547
0.1596769532
0.1598537923
0.1545375469
0.1555367743
0.1518903037
0.1513617999
0.1467027435
0.238833001
0.202682414
0.19105894
0.1727708413
0.1694507166
0.1597212033
0.1598995144
0.1545837685
0.1555843393
0.1519383517
0.1514107444
0.1467520155
0.2358552451
0.2001607818
0.1886856891
0.1706294084
0.1673534576
0.1577481186
0.1579265241
0.1526792419
0.1536692517
0.1500703625
0.1495508702
0.1449515507
0.2299320123
0.195138367
0.1839539977
0.1663541637
0.1631624283
0.1538005027
0.1539759935
0.1488621381
0.149828569
0.1463213582
0.1458160321
0.1413335224
0.2210969403
0.1876458625
0.1768948792
0.1599753074
0.1569091541
0.1479099976
0.1480812255
0.1431662153
0.1440975861
0.1407269179
0.1402426896
0.1359338492
0.2095018999
0.17780988
0.167625514
0.1515965362
0.1486933576
0.140168578
0.1403326096
0.1356772173
0.1365612321
0.1333688057
0.1329112708
0.1288298426
0.1952519721
0.1657217372
0.1562340637
0.1412997262
0.1385972476
0.1306556582
0.130811275
0.1264751387
0.1273013356
0.1243280414
0.1239035119
0.1201012996
0.1785669673
0.1515657138
0.14289207
0.1292377351
0.1267687594
0.1195086553
0.1196530986
0.1156896933
0.1164470762
0.1137296004
0.1133429036
0.1098672711
0.1596161346
0.135487578
0.1277390252
0.1155388569
0.1133356321
0.1068499023
0.1069821795
0.1034424201
0.1041220953
0.1016953339
0.1013518643
0.09824698107
0.138678227
0.1177216473
0.1109936435
0.100398616
0.09848764779
0.09285626487
0.09297388562
0.08990121247
0.09049400014
0.08838774824
0.08809129385
0.08539574455
0.1159761492
0.09845922503
0.09283834725
0.08398413082
0.08239063125
0.0776859794
0.07778826659
0.07522236891
0.07572141916
0.07396286197
0.07371765292
0.07146578022
0.09183566353
0.07797453962
0.07352948164
0.06652496965
0.06526776018
0.06154740225
0.06163221935
0.0596042746
0.0600026535
0.05861316792
0.05842173855
0.05664139107
0.06652011038
0.05649321955
0.05328183388
0.04821752477
0.0473135792
0.04462584571
0.04469290974
0.04322944642
0.04352272814
0.04252046416
0.04238569953
0.0410996963
0.0403879853
0.03431728659
0.03237796097
0.02931508692
0.02877454394
0.02715162855
0.02719922878
0.02631755197
0.02650137
0.02589818366
0.02582121488
0.02504525247
0.0137278064
0.01169375124
0.01105281765
0.01003229424
0.009863104866
0.009326945153
0.009355257176
0.009067465364
0.00914008469
0.008944227273
0.008926492974
0.008670750831
-0.01308511427
-0.01106107504
-0.01039755673
-0.009365347547
-0.009162289716
-0.008606555641
-0.008598764353
-0.008290152667
-0.008330338085
-0.008117159526
-0.008076016795
-0.007808799812
-0.0397536069
-0.03369282607
-0.03173125645
-0.02865690358
-0.0280829977
-0.026440837
-0.02645288559
-0.0255507432
-0.02570263843
-0.0250824345
-0.0249824402
-0.02419520571
-0.06590228985
-0.05588511074
-0.05265216047
-0.04757677359
-0.04664047278
-0.04393413397
-0.04396675129
-0.04248352013
-0.04274592073
-0.04172725055
-0.0415702692
-0.04027339037
-0.09124232736
-0.07739062104
-0.07292499041
-0.06590999837
-0.06462190531
-0.06088389533
-0.0609358704
-0.05888918655
-0.059258169
-0.05785316139
-0.0576406309
-0.0558499965
-0.1154149982
-0.09790708276
-0.0922669368
-0.08340300231
-0.08178055506
-0.07705946817
-0.07713103127
-0.07454771702
-0.07501936063
-0.07324643093
-0.07298165695
-0.07072024581
-0.1381563916
-0.1172083319
-0.1104626169
-0.09985879482
-0.09792118953
-0.09227485189
-0.0923642651
-0.08927577902
-0.08984348554
-0.08772424256
-0.08740997855
-0.08470580553
-0.1591403143
-0.1350196726
-0.1272552336
-0.1150473184
-0.1128201701
-0.1063211602
-0.1064281856
-0.1028744251
-0.1035317768
-0.1010935826
-0.1007344051
-0.09762191794
-0.17814316
-0.1511491465
-0.142461609
-0.1288006811
-0.1263107451
-0.1190392235
-0.119161635
-0.1151862523
-0.1159242841
-0.1131971134
-0.1127969517
-0.109314859
-0.1948854699
-0.1653616815
-0.1558623178
-0.1409226193
-0.1382024727
-0.1302514428
-0.1303885864
-0.1260426033
-0.1268527287
-0.1238715553
-0.1234360112
-0.1196285314
-0.2091973108
-0.1775108998
-0.1673171198
-0.1512840482
-0.1483666002
-0.1398344611
-0.1399836945
-0.135320713
-0.1361920333
-0.1329936487
-0.1325276169
-0.1284421792
-0.2208578389
-0.1874113904
-0.1766534224
-0.1597310471
-0.1566542735
-0.1476498739
-0.1478102067
-0.1428898827
-0.1438121005
-0.1404373962
-0.1399472561
-0.1356356698
-0.2297614293
-0.1949714425
-0.1837824968
-0.1661811121
-0.1629823476
-0.153617314
-0.1537857706
-0.1486689011
-0.1496296859
-0.1461203645
-0.1456116916
-0.1411276923
-0.2357548197
-0.2000628665
-0.1885857538
-0.1705291387
-0.1672499429
-0.1576435963
-0.1578189605
-0.1525709153
-0.1535588425
-0.1499597135
-0.14943939
-0.1448398367
-0.2388041801
-0.2026549493
-0.1910317773
-0.1727445098
-0.1694246662
-0.1596961923
-0.1598752499
-0.1545609175
-0.1555627913
-0.151918366
-0.1513924008
-0.1467346231
)
;

boundaryField
{
    out
    {
        type            implicitExtrapolation;
    }
    in
    {
        type            implicitExtrapolation;
    }
    frontAndBack
    {
        type            empty;
    }
}


// ************************************************************************* //
