/*--------------------------------*- C++ -*----------------------------------*\
| =========                 |                                                 |
| \\      /  F ield         | foam-extend: Open Source CFD                    |
|  \\    /   O peration     | Version:  3.0                                   |
|   \\  /    A nd           | Web:         http://www.extend-project.de       |
|    \\/     M anipulation  |                                                 |
\*---------------------------------------------------------------------------*/
FoamFile
{
    version     2.0;
    format      ascii;
    class       volScalarField;
    location    "8";
    object      p;
}
// * * * * * * * * * * * * * * * * * * * * * * * * * * * * * * * * * * * * * //

dimensions      [0 0 0 0 0 0 0];

internalField   nonuniform List<scalar> 
576
(
-5.52369
-5.53676
-4.49451
-4.12943
-4.21169
-3.15335
-4.01551
-3.03132
-3.62311
-3.22476
-3.47775
-3.41911
-5.42408
-5.44158
-4.41561
-4.05879
-4.14036
-3.09867
-3.9473
-2.97966
-3.56165
-3.17062
-3.41897
-3.361
-5.24102
-5.25568
-4.26312
-3.91814
-3.99816
-2.99135
-3.81132
-2.87712
-3.43883
-3.06158
-3.30113
-3.24529
-4.95875
-4.97431
-4.036
-3.71039
-3.78633
-2.8333
-3.60996
-2.72549
-3.25728
-2.90004
-3.12679
-3.07399
-4.59895
-4.61323
-3.7417
-3.44023
-3.51046
-2.62702
-3.34723
-2.52754
-3.02042
-2.68933
-2.8994
-2.85049
-4.15578
-4.16917
-3.3814
-3.10979
-3.17371
-2.3754
-3.02664
-2.28604
-2.73159
-2.43242
-2.62227
-2.57811
-3.64434
-3.65637
-2.96544
-2.72719
-2.78335
-2.0836
-2.65452
-2.00563
-2.39615
-2.13403
-2.30039
-2.26171
-3.06956
-3.07956
-2.49791
-2.2974
-2.34501
-1.75597
-2.23671
-1.69065
-2.01947
-1.79894
-1.93904
-1.90653
-2.44286
-2.45083
-1.98836
-1.82891
-1.86692
-1.39861
-1.78084
-1.34687
-1.60832
-1.43311
-1.54456
-1.51875
-1.77405
-1.77984
-1.44449
-1.32904
-1.35683
-1.01732
-1.29452
-0.980013
-1.16964
-1.04273
-1.12366
-1.10499
-1.07472
-1.07842
-0.875876
-0.806505
-0.82359
-0.618682
-0.786151
-0.596446
-0.711019
-0.634549
-0.683574
-0.672351
-0.356774
-0.358418
-0.292104
-0.270097
-0.276227
-0.209427
-0.264363
-0.202682
-0.240259
-0.215533
-0.23182
-0.22823
0.367432
0.367785
0.296767
0.270987
0.275879
0.203443
0.261923
0.194543
0.234584
0.207153
0.22388
0.219777
1.08545
1.08774
0.880641
0.807492
0.823286
0.612869
0.783722
0.588445
0.705404
0.626285
0.67574
0.664012
1.78494
1.78911
1.44949
1.33022
1.35662
1.01184
1.29211
0.972287
1.16415
1.0347
1.11604
1.09688
2.4539
2.45986
1.99356
1.8302
1.86674
1.39351
1.77839
1.3395
1.60297
1.42541
1.53724
1.51098
3.08088
3.0885
2.50352
2.29888
2.34493
1.75136
2.23424
1.6838
2.01437
1.79173
1.93213
1.89922
3.65514
3.66428
2.97064
2.72823
2.78298
2.07924
2.65186
1.99929
2.39131
2.1274
2.29398
2.25498
4.16684
4.17735
3.38693
3.11089
3.17341
2.37155
3.02411
2.28058
2.72733
2.42667
2.61657
2.57214
4.60723
4.61892
3.74525
3.44032
3.50954
2.62328
3.34461
2.52285
3.01668
2.68442
2.89439
2.84531
4.96879
4.98146
4.03949
3.71089
3.78562
2.83013
3.60789
2.72195
3.25442
2.89624
3.1227
3.06978
5.24532
5.25875
4.26461
3.91796
3.99691
2.98855
3.80943
2.87448
3.43648
3.05851
3.29757
3.24174
5.4321
5.44606
4.41675
4.05799
4.13982
3.09584
3.94579
2.97783
3.55974
3.16845
3.41602
3.35822
5.52594
5.54018
4.49332
4.12859
4.21189
3.15016
4.01463
3.03022
3.62209
3.22417
3.47602
3.41725
5.52522
5.53951
4.493
4.12855
4.21189
3.15058
4.01479
3.03077
3.62246
3.22473
3.47655
3.41781
5.42997
5.44405
4.41581
4.05787
4.13983
3.09709
3.94625
2.97946
3.56086
3.17011
3.4176
3.3599
5.24182
5.25545
4.26307
3.91776
3.99694
2.99061
3.81019
2.87718
3.43833
3.06126
3.30017
3.24449
4.96398
4.97692
4.03738
3.71062
3.78565
2.83297
3.60894
2.72566
3.25697
2.90002
3.12627
3.07358
4.60121
4.61324
3.74263
3.43999
3.5096
2.62685
3.34594
2.52752
3.01989
2.68917
2.89889
2.85008
4.15973
4.17063
3.38384
3.11051
3.1735
2.37579
3.02569
2.28612
2.73113
2.43231
2.62191
2.57781
3.64708
3.65667
2.96716
2.72781
2.78311
2.08409
2.65368
2.00561
2.39565
2.13383
2.30007
2.26144
3.07204
3.08015
2.49973
2.29845
2.3451
1.75672
2.23626
1.69078
2.01917
1.79884
1.93887
1.90637
2.44445
2.45094
1.98955
1.82978
1.86698
1.39931
1.78058
1.34702
1.60814
1.43306
1.5445
1.51868
1.77506
1.77982
1.44534
1.32982
1.35694
1.01796
1.29444
0.980214
1.1696
1.04276
1.12368
1.10499
1.07531
1.07828
0.876433
0.807131
0.823699
0.619217
0.786167
0.596634
0.711032
0.634604
0.683621
0.672382
0.357202
0.358332
0.292558
0.270667
0.276402
0.2099
0.264466
0.202855
0.240304
0.215589
0.231851
0.228249
-0.366988
-0.367699
-0.296283
-0.27038
-0.275572
-0.202964
-0.261715
-0.194369
-0.234519
-0.207103
-0.223891
-0.219799
-1.08486
-1.08738
-0.880023
-0.806753
-0.822778
-0.612305
-0.783356
-0.588222
-0.70529
-0.626218
-0.675786
-0.664078
-1.78411
-1.78839
-1.44864
-1.32925
-1.35582
-1.01109
-1.29149
-0.971928
-1.16392
-1.03454
-1.11606
-1.09695
-2.45283
-2.45875
-1.99251
-1.829
-1.86568
-1.39256
-1.77748
-1.33895
-1.60255
-1.42509
-1.53714
-1.51096
-3.07941
-3.08691
-2.50214
-2.29733
-2.3435
-1.75014
-2.23295
-1.68296
-2.01366
-1.79114
-1.93178
-1.89898
-3.65352
-3.66238
-2.96928
-2.72658
-2.78153
-2.07803
-2.65043
-1.99835
-2.39041
-2.1266
-2.29333
-2.25444
-4.16448
-4.17478
-3.3852
-3.10896
-3.17182
-2.37032
-3.02255
-2.27962
-2.72635
-2.42581
-2.61576
-2.5714
-4.60514
-4.6164
-3.74395
-3.43856
-3.50851
-2.62273
-3.34375
-2.52259
-3.01632
-2.68409
-2.89403
-2.84492
-4.96569
-4.97783
-4.03802
-3.70904
-3.78491
-2.82997
-3.60732
-2.7222
-3.25455
-2.89643
-3.12308
-3.07019
-5.24207
-5.25606
-4.26344
-3.91627
-3.99637
-2.98912
-3.80953
-2.8755
-3.43745
-3.05931
-3.29846
-3.24269
-5.42999
-5.44211
-4.41559
-4.05544
-4.13878
-3.09681
-3.94506
-2.97815
-3.55999
-3.16835
-3.4162
-3.3583
-5.52049
-5.53687
-4.49071
-4.12823
-4.20869
-3.15101
-4.01412
-3.02998
-3.6227
-3.2239
-3.47611
-3.41728
)
;

boundaryField
{
    out
    {
        type            implicitExtrapolation;
    }
    in
    {
        type            implicitExtrapolation;
    }
    frontAndBack
    {
        type            empty;
    }
}


// ************************************************************************* //
