/*--------------------------------*- C++ -*----------------------------------*\
| =========                 |                                                 |
| \\      /  F ield         | foam-extend: Open Source CFD                    |
|  \\    /   O peration     | Version:  3.0                                   |
|   \\  /    A nd           | Web:         http://www.extend-project.de       |
|    \\/     M anipulation  |                                                 |
\*---------------------------------------------------------------------------*/
FoamFile
{
    version     2.0;
    format      ascii;
    class       volVectorField;
    location    "8";
    object      u;
}
// * * * * * * * * * * * * * * * * * * * * * * * * * * * * * * * * * * * * * //

dimensions      [0 0 0 0 0 0 0];

internalField   nonuniform List<vector> 
576
(
(0.0512846 -0.0246497 4.26906e-20)
(0.141353 -0.0275544 1.23001e-19)
(0.236878 -0.0424258 -4.35749e-19)
(0.375775 -0.0413839 -4.05014e-19)
(0.472882 -0.0456155 3.53872e-19)
(0.565683 -0.0442336 4.23707e-19)
(0.692676 -0.0408952 4.68998e-19)
(0.743892 -0.0385728 8.39733e-19)
(0.847851 -0.031739 2.7711e-19)
(0.893934 -0.0257194 3.1201e-19)
(0.954532 -0.0165382 6.94355e-19)
(0.987587 -0.0064844 -2.71115e-19)
(0.06403 -0.0719616 9.40731e-20)
(0.155637 -0.0811248 -3.04589e-18)
(0.258866 -0.124478 -2.20111e-18)
(0.397082 -0.121599 -7.02974e-19)
(0.496568 -0.134318 1.1523e-18)
(0.588572 -0.13018 -2.75346e-19)
(0.713823 -0.120487 1.89072e-20)
(0.763906 -0.113705 6.39492e-18)
(0.864307 -0.0935708 5.17736e-18)
(0.907318 -0.0758642 -8.67209e-21)
(0.963144 -0.0487907 -4.07743e-18)
(0.990953 -0.0191517 -3.93214e-18)
(0.0885475 -0.114299 -2.0004e-19)
(0.183322 -0.129022 1.48466e-18)
(0.301275 -0.198075 -7.06958e-19)
(0.438594 -0.193501 -4.24813e-18)
(0.542419 -0.213839 -2.09482e-18)
(0.633005 -0.207277 4.61841e-18)
(0.755019 -0.191866 6.74701e-18)
(0.802781 -0.181077 2.79395e-18)
(0.896305 -0.14897 9.09537e-18)
(0.933274 -0.120773 3.0842e-18)
(0.979824 -0.0776432 1.99912e-18)
(0.997507 -0.0304868 8.94815e-18)
(0.123201 -0.148955 -2.85706e-19)
(0.222509 -0.168193 6.79564e-19)
(0.361335 -0.258166 -2.04097e-18)
(0.497331 -0.252221 3.50588e-18)
(0.607304 -0.278757 -6.02504e-18)
(0.695892 -0.270223 -1.85984e-18)
(0.813256 -0.250166 3.19474e-19)
(0.857747 -0.236106 8.50236e-18)
(0.941528 -0.194234 7.15381e-18)
(0.969944 -0.157455 9.01524e-18)
(1.00339 -0.101214 8.07729e-18)
(1.00677 -0.0397433 1.98631e-17)
(0.165636 -0.173392 -2.48396e-19)
(0.270441 -0.195812 -7.91192e-19)
(0.434871 -0.300641 -2.39715e-19)
(0.569224 -0.293771 3.93398e-19)
(0.68676 -0.324681 2.90759e-18)
(0.772935 -0.314775 -7.77088e-18)
(0.884595 -0.291419 -5.40307e-18)
(0.925078 -0.275044 -1.4817e-17)
(0.996907 -0.226267 -1.43976e-17)
(1.01483 -0.183407 -4.088e-18)
(1.03223 -0.11789 -6.3268e-18)
(1.0181 -0.0462942 -2.09248e-17)
(0.212955 -0.186098 2.36486e-19)
(0.32391 -0.210168 1.26873e-18)
(0.516959 -0.322665 3.52374e-20)
(0.649455 -0.315316 -3.32868e-18)
(0.775425 -0.348471 -4.87252e-19)
(0.858898 -0.337865 -2.5379e-18)
(0.964179 -0.312814 -5.80838e-18)
(1.0002 -0.29524 -2.36684e-19)
(1.0587 -0.242892 -7.73324e-18)
(1.06492 -0.196873 -1.24041e-17)
(1.06442 -0.126545 1.2864e-18)
(1.03075 -0.0496944 -7.08426e-18)
(0.261942 -0.186095 3.23163e-19)
(0.379244 -0.210146 7.42886e-19)
(0.601935 -0.322653 6.07221e-18)
(0.732506 -0.315344 1.02636e-18)
(0.867213 -0.348486 2.45891e-19)
(0.947907 -0.337899 -1.46682e-18)
(1.04658 -0.312856 7.01765e-19)
(1.07799 -0.295278 2.9994e-18)
(1.12268 -0.242935 -2.46933e-19)
(1.11678 -0.196903 2.93477e-18)
(1.09775 -0.126568 -4.30325e-19)
(1.04384 -0.0497052 -4.38206e-18)
(0.309275 -0.173443 2.36428e-19)
(0.432723 -0.195842 9.59733e-19)
(0.684052 -0.300675 3.9868e-18)
(0.812768 -0.293891 -2.93911e-18)
(0.955899 -0.324752 6.3983e-18)
(1.03391 -0.314899 -4.49781e-18)
(1.12619 -0.29157 -3.48241e-18)
(1.15314 -0.275177 -1.02067e-19)
(1.1845 -0.226411 -9.86382e-18)
(1.16689 -0.183504 4.15181e-18)
(1.12996 -0.11796 2.02956e-18)
(1.0565 -0.046326 8.98596e-18)
(0.351718 -0.148968 3.79878e-19)
(0.480676 -0.168187 7.69218e-19)
(0.75767 -0.258199 -2.28301e-18)
(0.884735 -0.252407 3.36931e-18)
(1.03541 -0.278886 -3.73953e-18)
(1.11102 -0.270434 6.10406e-18)
(1.19756 -0.25041 -2.07423e-18)
(1.22052 -0.236313 -1.35164e-17)
(1.23992 -0.194448 -1.22268e-17)
(1.21181 -0.15759 -5.1479e-18)
(1.15883 -0.101309 -1.01132e-17)
(1.06784 -0.0397864 1.01106e-17)
(0.386379 -0.114346 6.84006e-19)
(0.51985 -0.129082 1.56407e-18)
(0.817788 -0.19814 3.72831e-20)
(0.943519 -0.193732 3.31194e-18)
(1.10034 -0.214028 1.55682e-19)
(1.174 -0.207548 4.59303e-18)
(1.25585 -0.192197 6.64246e-18)
(1.27553 -0.181349 -2.60502e-18)
(1.28517 -0.149239 2.56135e-18)
(1.24848 -0.120938 5.20999e-18)
(1.18241 -0.0777542 3.3626e-18)
(1.0771 -0.0305338 -4.62887e-18)
(0.410891 -0.0719333 1.38705e-19)
(0.547568 -0.0811792 -1.11804e-19)
(0.860305 -0.124584 1.41967e-18)
(0.98511 -0.121858 -2.23768e-18)
(1.14627 -0.134592 1.93634e-18)
(1.21855 -0.130525 -1.71267e-20)
(1.29709 -0.120897 -5.10363e-19)
(1.31445 -0.114034 6.27881e-18)
(1.31718 -0.0938672 6.00246e-18)
(1.27442 -0.0760476 8.50301e-18)
(1.19908 -0.048903 1.28113e-17)
(1.08366 -0.0191996 -1.6208e-18)
(0.423582 -0.0246219 -6.13263e-20)
(0.561944 -0.0277414 -1.5998e-18)
(0.882329 -0.0425413 -1.02465e-18)
(1.00668 -0.0416792 1.75401e-18)
(1.17008 -0.0459885 -1.1905e-18)
(1.24165 -0.0446074 2.34104e-19)
(1.31847 -0.0413644 -1.0972e-18)
(1.33461 -0.0389506 1.38349e-18)
(1.33376 -0.0321052 3.27986e-19)
(1.28786 -0.0259787 1.05803e-18)
(1.20773 -0.0167213 1.24976e-18)
(1.08705 -0.00655628 2.21136e-18)
(0.423586 0.0243617 -4.8929e-20)
(0.561995 0.0275944 1.28053e-18)
(0.882363 0.0424 1.41782e-18)
(1.00676 0.0413461 1.93253e-18)
(1.17014 0.0457526 1.45736e-18)
(1.24173 0.044355 1.89456e-19)
(1.31854 0.0409867 1.78202e-18)
(1.33466 0.0387882 -2.81745e-18)
(1.3338 0.0318419 -3.40152e-18)
(1.28788 0.0258592 -4.01345e-18)
(1.20775 0.0165993 -3.29905e-19)
(1.08706 0.006535 1.38104e-18)
(0.410905 0.0716766 3.67619e-19)
(0.54772 0.0810585 -1.16701e-18)
(0.860407 0.124453 -1.2562e-19)
(0.985341 0.121562 1.06217e-18)
(1.14646 0.134383 3.36711e-18)
(1.21878 0.130305 5.00063e-19)
(1.29729 0.120549 -4.15128e-18)
(1.31459 0.11389 -2.78046e-18)
(1.31729 0.0936195 -5.65218e-18)
(1.27449 0.0759362 -4.45914e-18)
(1.19914 0.0487895 7.297e-19)
(1.08368 0.0191826 -3.94908e-18)
(0.386405 0.114097 -1.14037e-20)
(0.520089 0.129008 -2.85853e-18)
(0.817959 0.198028 -5.85476e-19)
(0.943888 0.193504 -4.65051e-18)
(1.10064 0.213866 6.89032e-19)
(1.17436 0.207387 -5.1568e-19)
(1.25617 0.191904 2.43111e-18)
(1.27577 0.181238 1.11574e-18)
(1.28536 0.14902 2.84151e-18)
(1.24859 0.120841 2.76822e-18)
(1.1825 0.0776568 -6.66733e-19)
(1.07715 0.030525 -9.1619e-18)
(0.351757 0.148729 -6.83464e-19)
(0.480987 0.168174 1.56265e-18)
(0.757911 0.258111 -2.56301e-18)
(0.885225 0.252268 -5.21896e-19)
(1.03581 0.278784 -5.60738e-18)
(1.11151 0.270349 5.15904e-18)
(1.19799 0.250188 8.50714e-18)
(1.22083 0.236245 6.57842e-18)
(1.24017 0.194269 1.5483e-17)
(1.21196 0.157515 1.1808e-17)
(1.15896 0.101234 -3.40883e-18)
(1.0679 0.0397895 5.9593e-18)
(0.309324 0.173214 -4.60044e-19)
(0.433078 0.195886 -1.37984e-18)
(0.684358 0.300606 -4.75087e-18)
(0.813349 0.293848 4.12485e-18)
(0.956379 0.324713 -8.1499e-19)
(1.0345 0.3149 2.36104e-18)
(1.12671 0.291431 2.40192e-18)
(1.15354 0.275162 4.14161e-18)
(1.18481 0.226283 9.29877e-18)
(1.16708 0.183459 6.78542e-18)
(1.13011 0.117916 5.01877e-18)
(1.05657 0.0463447 2.06476e-17)
(0.261999 0.185882 -5.93189e-19)
(0.379627 0.210257 -1.61369e-18)
(0.602311 0.322618 -1.73782e-18)
(0.733158 0.315411 -2.13144e-18)
(0.867771 0.348523 8.96439e-19)
(0.948581 0.338003 -2.49131e-18)
(1.04718 0.31282 -4.61975e-18)
(1.07846 0.295337 -1.20811e-17)
(1.12305 0.242879 3.1844e-18)
(1.11702 0.196904 -5.05064e-18)
(1.09793 0.126564 -7.54693e-19)
(1.04393 0.0497439 -7.3071e-18)
(0.213007 0.185869 -1.09205e-19)
(0.324278 0.210304 1.74676e-19)
(0.517362 0.322645 -5.45048e-19)
(0.650119 0.315485 -3.37199e-19)
(0.776019 0.348589 -2.86587e-18)
(0.859611 0.338083 -3.09249e-19)
(0.964818 0.312898 -5.7182e-18)
(1.00072 0.295395 1.40953e-17)
(1.05911 0.242927 1.31509e-17)
(1.06518 0.196935 -7.71337e-18)
(1.06461 0.126589 3.50821e-18)
(1.03083 0.0497555 -4.54426e-18)
(0.165687 0.173177 -3.29626e-19)
(0.270801 0.196026 -4.69195e-19)
(0.435301 0.300686 5.30948e-18)
(0.569889 0.294066 -2.42469e-18)
(0.687377 0.324907 2.03987e-18)
(0.773652 0.315134 -4.60236e-18)
(0.885247 0.291659 3.90947e-18)
(0.925612 0.27533 1.15455e-17)
(0.997324 0.226424 -1.85008e-18)
(1.0151 0.183548 -5.87879e-18)
(1.03242 0.11799 -7.24612e-18)
(1.01819 0.0463786 -1.70273e-17)
(0.123265 0.148671 -3.52979e-19)
(0.222842 0.168395 1.76195e-18)
(0.36172 0.258238 -6.7468e-19)
(0.497937 0.252613 -2.0501e-18)
(0.607884 0.279092 7.43097e-19)
(0.696561 0.270721 -6.53226e-18)
(0.813883 0.250549 7.00239e-19)
(0.858258 0.236511 8.9476e-19)
(0.941918 0.194493 -1.23196e-17)
(0.970192 0.157657 -7.96907e-18)
(1.00355 0.101352 -1.20637e-17)
(1.00684 0.0398435 -2.33929e-18)
(0.0886314 0.114021 1.29439e-19)
(0.183669 0.129293 -6.122e-20)
(0.301632 0.198193 -7.82349e-19)
(0.439165 0.193951 2.32919e-18)
(0.542957 0.214264 -4.72268e-18)
(0.633593 0.20787 3.14163e-18)
(0.755592 0.192372 -2.59849e-18)
(0.803245 0.181583 -1.28589e-17)
(0.896665 0.149311 -1.00488e-17)
(0.933515 0.121025 -1.38783e-17)
(0.979971 0.0778101 -8.48408e-18)
(0.997579 0.0305953 1.5423e-17)
(0.0641459 0.0715886 7.62275e-19)
(0.15595 0.0813856 2.55933e-18)
(0.259132 0.124643 1.14876e-18)
(0.397579 0.122077 -1.28028e-18)
(0.497022 0.134841 2.23971e-18)
(0.589037 0.130863 -6.15963e-19)
(0.714344 0.12109 1.33254e-19)
(0.764324 0.114289 -2.05862e-18)
(0.864648 0.0939563 2.17241e-19)
(0.907569 0.0761498 -1.66362e-18)
(0.963289 0.0489675 -2.7516e-18)
(0.991024 0.0192645 -6.4859e-18)
(0.0514771 0.0242652 1.03797e-19)
(0.141575 0.0279373 1.61288e-19)
(0.237117 0.0426002 1.69296e-19)
(0.376012 0.0418905 -5.38515e-19)
(0.473207 0.0462375 -1.24215e-18)
(0.56593 0.0449494 1.84758e-19)
(0.692951 0.0415624 -8.12136e-19)
(0.744146 0.0392157 -5.40127e-19)
(0.848049 0.032202 -1.46399e-18)
(0.894122 0.0260885 1.08787e-18)
(0.95464 0.0167903 -1.05407e-18)
(0.987624 0.00662327 -1.54509e-18)
(0.0514881 -0.024724 -4.30512e-20)
(0.141523 -0.0274098 -1.21208e-19)
(0.237085 -0.0423441 4.37154e-19)
(0.375933 -0.0411454 4.05705e-19)
(0.473137 -0.0455102 -3.52757e-19)
(0.565846 -0.0440166 -4.21382e-19)
(0.692869 -0.0407917 -4.6637e-19)
(0.744086 -0.0385219 -8.37536e-19)
(0.847999 -0.0317436 -2.76671e-19)
(0.89409 -0.0257468 -3.12243e-19)
(0.954613 -0.0165288 -6.93983e-19)
(0.987612 -0.00646698 2.70879e-19)
(0.0641777 -0.0720405 -9.48516e-20)
(0.155797 -0.0808839 3.04803e-18)
(0.25904 -0.124401 2.20187e-18)
(0.397348 -0.121372 7.04633e-19)
(0.496814 -0.134149 -1.1489e-18)
(0.588791 -0.129972 2.78489e-19)
(0.714106 -0.12036 -1.74277e-20)
(0.764148 -0.113626 -6.39374e-18)
(0.8645 -0.093523 -5.176e-18)
(0.907475 -0.0758239 1.01944e-20)
(0.963212 -0.0487191 4.07764e-18)
(0.990989 -0.0191141 3.93124e-18)
(0.088681 -0.11446 1.995e-19)
(0.183424 -0.128841 -1.48481e-18)
(0.301483 -0.19798 7.06176e-19)
(0.438797 -0.193321 4.2479e-18)
(0.542625 -0.21364 2.09433e-18)
(0.633201 -0.20706 -4.61731e-18)
(0.755212 -0.191721 -6.74383e-18)
(0.802965 -0.180978 -2.79148e-18)
(0.89643 -0.148926 -9.0929e-18)
(0.933365 -0.12073 -3.08216e-18)
(0.979849 -0.0775869 -1.99838e-18)
(0.997524 -0.0304563 -8.94676e-18)
(0.123328 -0.149092 2.85672e-19)
(0.222521 -0.168014 -6.78759e-19)
(0.361524 -0.258066 2.04107e-18)
(0.497455 -0.252091 -3.50558e-18)
(0.607449 -0.278565 6.02535e-18)
(0.69605 -0.270027 1.86186e-18)
(0.813387 -0.250011 -3.17805e-19)
(0.857891 -0.235988 -8.50003e-18)
(0.941611 -0.194177 -7.15092e-18)
(0.969996 -0.157405 -9.01322e-18)
(1.00339 -0.101165 -8.07608e-18)
(1.00677 -0.0397205 -1.98616e-17)
(0.165757 -0.173576 2.47997e-19)
(0.270424 -0.195733 7.90828e-19)
(0.435069 -0.300565 2.39265e-19)
(0.569324 -0.293677 -3.92588e-19)
(0.686867 -0.3245 -2.90622e-18)
(0.773053 -0.314583 7.77181e-18)
(0.884666 -0.291258 5.40413e-18)
(0.925183 -0.274908 1.48178e-17)
(0.996964 -0.226193 1.43975e-17)
(1.01487 -0.18335 4.0879e-18)
(1.03223 -0.117847 6.32717e-18)
(1.0181 -0.0462756 2.09234e-17)
(0.213076 -0.186243 -2.3682e-19)
(0.323868 -0.210109 -1.2697e-18)
(0.517107 -0.322581 -3.62718e-20)
(0.649507 -0.315245 3.32852e-18)
(0.775468 -0.348315 4.87477e-19)
(0.858964 -0.33769 2.5383e-18)
(0.964192 -0.312652 5.80764e-18)
(1.00026 -0.295087 2.36952e-19)
(1.05872 -0.242793 7.73495e-18)
(1.06493 -0.196797 1.24043e-17)
(1.06441 -0.126495 -1.28577e-18)
(1.03074 -0.0496748 7.08437e-18)
(0.262061 -0.186232 -3.23331e-19)
(0.379211 -0.210164 -7.4304e-19)
(0.602047 -0.322614 -6.07325e-18)
(0.732539 -0.315326 -1.02678e-18)
(0.867212 -0.348388 -2.45738e-19)
(0.947928 -0.337776 1.46695e-18)
(1.04655 -0.312735 -7.01435e-19)
(1.07799 -0.295148 -2.99766e-18)
(1.12266 -0.242844 2.47729e-19)
(1.11677 -0.196829 -2.93418e-18)
(1.09773 -0.126522 4.30825e-19)
(1.04383 -0.0496865 4.38224e-18)
(0.309373 -0.173543 -2.3644e-19)
(0.432681 -0.195892 -9.59781e-19)
(0.684101 -0.300662 -3.98644e-18)
(0.812762 -0.293913 2.93952e-18)
(0.955849 -0.324714 -6.39724e-18)
(1.03388 -0.314833 4.49744e-18)
(1.12611 -0.2915 3.48234e-18)
(1.1531 -0.275087 1.02535e-19)
(1.18445 -0.226343 9.86273e-18)
(1.16685 -0.183444 -4.15161e-18)
(1.12992 -0.117923 -2.02963e-18)
(1.05648 -0.04631 -8.98572e-18)
(0.351788 -0.149041 -3.79976e-19)
(0.480635 -0.168269 -7.69095e-19)
(0.757676 -0.25822 2.28375e-18)
(0.884709 -0.252467 -3.36979e-18)
(1.03534 -0.278905 3.73937e-18)
(1.11097 -0.270426 -6.10347e-18)
(1.19748 -0.250396 2.07363e-18)
(1.22045 -0.236272 1.35148e-17)
(1.23985 -0.194415 1.22254e-17)
(1.21176 -0.157555 5.14713e-18)
(1.15879 -0.101287 1.01125e-17)
(1.06783 -0.0397753 -1.01106e-17)
(0.386415 -0.114395 -6.83964e-19)
(0.519805 -0.129175 -1.5636e-18)
(0.817759 -0.198182 -3.67524e-20)
(0.943476 -0.193812 -3.31113e-18)
(1.10026 -0.214084 -1.55189e-19)
(1.17394 -0.207579 -4.59237e-18)
(1.25577 -0.192222 -6.64117e-18)
(1.27547 -0.181347 2.60467e-18)
(1.28511 -0.149234 -2.56172e-18)
(1.24844 -0.120924 -5.21029e-18)
(1.18237 -0.0777445 -3.36297e-18)
(1.07709 -0.0305273 4.62862e-18)
(0.410895 -0.0719669 -1.38696e-19)
(0.54752 -0.0812751 1.12037e-19)
(0.860255 -0.124639 -1.4189e-18)
(0.985059 -0.121945 2.23801e-18)
(1.14619 -0.134668 -1.93586e-18)
(1.2185 -0.130577 1.76087e-20)
(1.29702 -0.120943 5.10761e-19)
(1.31439 -0.114053 -6.2779e-18)
(1.31713 -0.0938783 -6.00175e-18)
(1.27439 -0.0760466 -8.50212e-18)
(1.19906 -0.0489005 -1.28106e-17)
(1.08365 -0.0191958 1.6208e-18)
(0.423559 -0.0246476 6.14185e-20)
(0.561893 -0.0278342 1.59992e-18)
(0.882268 -0.0426019 1.02507e-18)
(1.00662 -0.0417629 -1.7533e-18)
(1.17001 -0.0460691 1.19081e-18)
(1.2416 -0.0446655 -2.33786e-19)
(1.31841 -0.0414148 1.09748e-18)
(1.33457 -0.0389779 -1.38294e-18)
(1.33373 -0.0321201 -3.27471e-19)
(1.28784 -0.0259815 -1.05752e-18)
(1.20771 -0.0167198 -1.24926e-18)
(1.08705 -0.0065529 -2.21122e-18)
(0.423543 0.0243388 4.9e-20)
(0.561942 0.0275054 -1.27999e-18)
(0.882297 0.0423375 -1.41718e-18)
(1.0067 0.0412687 -1.93172e-18)
(1.17007 0.0456739 -1.45679e-18)
(1.24168 0.0442988 -1.89048e-19)
(1.31849 0.0409408 -1.78143e-18)
(1.33463 0.0387628 2.8176e-18)
(1.33378 0.0318316 3.40151e-18)
(1.28787 0.0258595 4.0135e-18)
(1.20774 0.0166045 3.30078e-19)
(1.08706 0.00653993 -1.38088e-18)
(0.410849 0.0716545 -3.67496e-19)
(0.547664 0.0809712 1.16695e-18)
(0.860339 0.12439 1.26045e-19)
(0.985275 0.12149 -1.06139e-18)
(1.14639 0.134307 -3.36602e-18)
(1.21874 0.130251 -4.99684e-19)
(1.29725 0.120509 4.15138e-18)
(1.31457 0.113868 2.78058e-18)
(1.31728 0.0936165 5.65181e-18)
(1.27448 0.0759416 4.45882e-18)
(1.19914 0.0487998 -7.29709e-19)
(1.08368 0.0191897 3.94909e-18)
(0.38634 0.114076 1.15268e-20)
(0.520032 0.128918 2.85793e-18)
(0.817891 0.197964 5.85557e-19)
(0.943817 0.193432 4.64993e-18)
(1.10057 0.213788 -6.88208e-19)
(1.17432 0.207331 5.16258e-19)
(1.25614 0.191865 -2.43087e-18)
(1.27575 0.181217 -1.1158e-18)
(1.28535 0.14902 -2.8415e-18)
(1.24859 0.120848 -2.76829e-18)
(1.1825 0.077669 6.66437e-19)
(1.07714 0.0305327 9.16191e-18)
(0.351683 0.148711 6.83344e-19)
(0.480928 0.168076 -1.56211e-18)
(0.757843 0.258041 2.56272e-18)
(0.885146 0.252188 5.21434e-19)
(1.03574 0.278697 5.60638e-18)
(1.11147 0.270282 -5.15813e-18)
(1.19796 0.250141 -8.50541e-18)
(1.22082 0.236214 -6.57762e-18)
(1.24016 0.194261 -1.54816e-17)
(1.21195 0.157514 -1.18071e-17)
(1.15895 0.10124 3.40848e-18)
(1.06789 0.0397938 -5.95936e-18)
(0.309242 0.173202 4.59877e-19)
(0.433017 0.195775 1.3798e-18)
(0.68429 0.300532 4.7495e-18)
(0.813263 0.293754 -4.12325e-18)
(0.956316 0.324612 8.14081e-19)
(1.03446 0.314813 -2.36058e-18)
(1.12668 0.291367 -2.40114e-18)
(1.15353 0.275111 -4.1406e-18)
(1.18481 0.226256 -9.29598e-18)
(1.16708 0.183441 -6.7834e-18)
(1.13011 0.117906 -5.0183e-18)
(1.05655 0.0463407 -2.06458e-17)
(0.261901 0.185874 5.93008e-19)
(0.379563 0.210121 1.61327e-18)
(0.602236 0.322528 1.73724e-18)
(0.733058 0.315288 2.13063e-18)
(0.867699 0.348398 -8.9573e-19)
(0.948544 0.337886 2.49059e-18)
(1.04714 0.312731 4.6202e-18)
(1.07846 0.29526 1.20786e-17)
(1.12306 0.242827 -3.18481e-18)
(1.11702 0.196865 5.05066e-18)
(1.09794 0.126534 7.55032e-19)
(1.04391 0.0497309 7.3072e-18)
(0.212896 0.185874 1.09006e-19)
(0.324211 0.210147 -1.74316e-19)
(0.51728 0.32255 5.44844e-19)
(0.650008 0.315334 3.36917e-19)
(0.775938 0.348451 2.86494e-18)
(0.859576 0.33794 3.09861e-19)
(0.964782 0.312798 5.71719e-18)
(1.00073 0.295304 -1.40948e-17)
(1.05913 0.242863 -1.31477e-17)
(1.0652 0.196889 7.71264e-18)
(1.06464 0.126555 -3.5076e-18)
(1.03084 0.0497444 4.54417e-18)
(0.16555 0.173181 3.29387e-19)
(0.270725 0.195832 4.68806e-19)
(0.435199 0.300568 -5.30774e-18)
(0.56976 0.293872 2.42395e-18)
(0.687264 0.324749 -2.0386e-18)
(0.773597 0.314953 4.60142e-18)
(0.885175 0.291545 -3.90902e-18)
(0.925598 0.275233 -1.15435e-17)
(0.997325 0.226363 1.85211e-18)
(1.01511 0.18352 5.87984e-18)
(1.03245 0.11798 7.24743e-18)
(1.0182 0.0463918 1.70256e-17)
(0.123112 0.148688 3.52662e-19)
(0.222759 0.168188 -1.76105e-18)
(0.361595 0.258108 6.74687e-19)
(0.497798 0.252378 2.0496e-18)
(0.607726 0.278928 -7.41615e-19)
(0.69648 0.27052 6.53358e-18)
(0.813765 0.250456 -6.9922e-19)
(0.858199 0.236437 -8.93647e-19)
(0.941882 0.194469 1.232e-17)
(0.970167 0.157678 7.96969e-18)
(1.00355 0.10139 1.20641e-17)
(1.00685 0.0398958 2.33893e-18)
(0.0884592 0.114051 -1.29249e-19)
(0.183556 0.129052 6.17487e-20)
(0.301457 0.19805 7.82413e-19)
(0.439011 0.193684 -2.32676e-18)
(0.542754 0.214103 4.72229e-18)
(0.633487 0.207638 -3.13932e-18)
(0.755415 0.19227 2.59933e-18)
(0.80311 0.181501 1.28594e-17)
(0.896557 0.14928 1.00506e-17)
(0.93341 0.121053 1.38795e-17)
(0.97992 0.0778542 8.48568e-18)
(0.997554 0.0306461 -1.54231e-17)
(0.0639477 0.0715974 -7.61649e-19)
(0.155792 0.0811614 -2.55631e-18)
(0.25893 0.124486 -1.14707e-18)
(0.397434 0.121819 1.28094e-18)
(0.496805 0.134656 -2.23675e-18)
(0.588897 0.130617 6.18779e-19)
(0.71414 0.121 -1.30563e-19)
(0.764168 0.114208 2.06154e-18)
(0.864536 0.0939385 -2.1497e-19)
(0.907481 0.0761702 1.66472e-18)
(0.96328 0.0489815 2.75231e-18)
(0.991014 0.019273 6.48619e-18)
(0.0512743 0.0243514 -1.02862e-19)
(0.141346 0.0277155 -1.6075e-19)
(0.236814 0.0424355 -1.68127e-19)
(0.375724 0.041629 5.41136e-19)
(0.472898 0.0461033 1.2436e-18)
(0.565719 0.0447481 -1.82749e-19)
(0.692624 0.0414975 8.12417e-19)
(0.743896 0.0391348 5.40202e-19)
(0.847847 0.0321586 1.46336e-18)
(0.893956 0.0260665 -1.08854e-18)
(0.954592 0.0167973 1.05301e-18)
(0.987593 0.00665952 1.54519e-18)
)
;

boundaryField
{
    out
    {
        type            fixedValue;
        value           uniform (1 0 0);
    }
    in
    {
        type            fixedValue;
        value           uniform (0 0 0);
    }
    frontAndBack
    {
        type            empty;
    }
}


// ************************************************************************* //
