/*--------------------------------*- C++ -*----------------------------------*\
| =========                 |                                                 |
| \\      /  F ield         | foam-extend: Open Source CFD                    |
|  \\    /   O peration     | Version:  3.0                                   |
|   \\  /    A nd           | Web:         http://www.extend-project.de       |
|    \\/     M anipulation  |                                                 |
\*---------------------------------------------------------------------------*/
FoamFile
{
    version     2.0;
    format      ascii;
    class       volSymmTensorField;
    location    "33";
    object      sigma;
}
// * * * * * * * * * * * * * * * * * * * * * * * * * * * * * * * * * * * * * //

dimensions      [0 0 0 0 0 0 0];

internalField   nonuniform List<symmTensor> 
7680
(
(-0.178997 -0.00267128 -1.01979e-20 0.178853 1.74886e-20 0.000144711)
(-0.178369 -0.00299037 3.77168e-20 0.177961 1.35067e-19 0.000408731)
(-0.175852 -0.00318532 3.44777e-21 0.175197 -4.38392e-20 0.000655604)
(-0.171965 -0.00328865 -3.84791e-21 0.171077 6.5169e-20 0.000887248)
(-0.167297 -0.00332877 1.24302e-20 0.166191 3.52528e-21 0.00110518)
(-0.162043 -0.00332196 -4.86745e-21 0.160732 1.71431e-20 0.00131054)
(-0.156529 -0.00328303 2.17738e-20 0.155025 -3.59406e-20 0.00150424)
(-0.150821 -0.00322103 1.01106e-20 0.149134 -2.80312e-20 0.00168692)
(-0.145101 -0.00314409 8.11393e-21 0.143242 -6.49185e-20 0.00185907)
(-0.139384 -0.00305737 1.27235e-20 0.137363 -1.98429e-20 0.00202098)
(-0.133774 -0.00296579 -2.90597e-20 0.131601 -8.33051e-20 0.00217283)
(-0.128261 -0.0028723 1.82534e-20 0.125946 2.63624e-20 0.00231468)
(-0.122908 -0.0027802 4.92302e-21 0.120462 -7.20472e-20 0.00244646)
(-0.117697 -0.00269127 -2.63956e-20 0.115129 2.45777e-20 0.00256803)
(-0.112666 -0.00260798 -2.35845e-20 0.109987 1.54576e-20 0.00267914)
(-0.107794 -0.00253156 7.61164e-21 0.105015 7.20679e-20 0.00277949)
(-0.103104 -0.0024641 -7.95395e-21 0.100235 -6.30487e-20 0.00286868)
(-0.0985762 -0.00240661 -8.30593e-21 0.09563 1.52117e-19 0.00294625)
(-0.0942236 -0.00236115 2.62364e-20 0.0912119 -7.86627e-20 0.00301169)
(-0.0900303 -0.00232869 -1.05611e-20 0.0869659 1.37134e-19 0.00306442)
(-0.0860008 -0.00231156 -2.48366e-20 0.082897 -3.44996e-20 0.0031038)
(-0.082123 -0.00231074 -2.63156e-20 0.0789938 1.17742e-19 0.00312913)
(-0.0783955 -0.002329 -3.90664e-20 0.0752559 -1.3864e-20 0.00313969)
(-0.0748094 -0.00236734 -1.4931e-20 0.0716748 1.60517e-19 0.00313465)
(-0.0713586 -0.00242895 -8.21724e-21 0.0682454 -2.912e-20 0.00311321)
(-0.0680358 -0.00251468 -5.08534e-20 0.0649613 1.30593e-19 0.00307448)
(-0.0648309 -0.00262771 2.11476e-21 0.0618134 6.12516e-20 0.00301755)
(-0.0617368 -0.0027685 -4.78892e-21 0.0587953 1.04383e-19 0.00294148)
(-0.0587399 -0.00293872 1.22913e-20 0.0558946 4.90773e-20 0.00284532)
(-0.0558306 -0.00313837 -3.63464e-20 0.0531025 3.32347e-20 0.00272809)
(-0.0529928 -0.00336413 -1.25747e-20 0.050404 1.17808e-20 0.00258883)
(-0.0502118 -0.00361672 -2.18931e-20 0.0477852 -1.32832e-20 0.00242657)
(-0.0474702 -0.00388038 8.16637e-21 0.0452298 2.72492e-22 0.00224039)
(-0.0447459 -0.0041626 -3.8136e-20 0.0427165 -2.33586e-20 0.0020294)
(-0.0420219 -0.0044197 -1.26988e-21 0.0402292 8.97634e-22 0.00179274)
(-0.0392672 -0.00468985 -5.60973e-20 0.0377375 2.78531e-21 0.00152967)
(-0.0364645 -0.00486022 -1.99916e-22 0.035225 -9.72153e-20 0.00123946)
(-0.0335767 -0.00507503 -2.20867e-21 0.0326552 1.70203e-20 0.000921531)
(-0.0306242 -0.00503066 -2.20838e-20 0.030049 -5.68113e-20 0.000575183)
(-0.0274538 -0.00495802 -3.07054e-21 0.0272538 -7.6459e-20 0.000199979)
(-0.178808 -0.00818789 2.13785e-20 0.178663 -1.30242e-20 0.000144596)
(-0.178085 -0.00926928 -2.73387e-20 0.177677 5.14659e-20 0.000408376)
(-0.1755 -0.00996285 -2.75239e-20 0.174845 -2.18554e-20 0.000655031)
(-0.171566 -0.0103638 3.59382e-20 0.170679 -2.23081e-20 0.000886483)
(-0.166866 -0.0105619 -8.39106e-21 0.165762 -4.68608e-20 0.00110425)
(-0.161592 -0.0106071 -1.01216e-20 0.160282 5.44418e-20 0.00130948)
(-0.156066 -0.0105456 -2.50449e-20 0.154563 4.06136e-20 0.00150307)
(-0.150352 -0.0104051 -1.95014e-20 0.148667 2.64546e-20 0.00168568)
(-0.144633 -0.0102105 -4.03379e-21 0.142775 1.23114e-19 0.00185778)
(-0.138919 -0.00997715 1.13905e-20 0.136899 1.09487e-19 0.00201968)
(-0.133315 -0.00971941 4.33198e-20 0.131143 -1.71736e-20 0.00217157)
(-0.127811 -0.00944577 4.48089e-21 0.125497 6.59882e-20 0.00231347)
(-0.122468 -0.00916508 1.5212e-20 0.120023 -6.17484e-20 0.00244535)
(-0.117269 -0.00888215 4.67483e-20 0.114702 5.68901e-20 0.00256705)
(-0.112251 -0.00860265 2.89795e-20 0.109573 -1.25692e-19 0.00267834)
(-0.107393 -0.00832958 -6.21565e-20 0.104614 -1.95767e-20 0.00277889)
(-0.102718 -0.00806676 6.14644e-20 0.0998493 1.25077e-20 0.00286833)
(-0.0982061 -0.00781639 -1.74335e-20 0.0952599 -5.5557e-20 0.00294619)
(-0.0938704 -0.00758132 -1.55043e-20 0.0908584 9.74092e-20 0.00301197)
(-0.0896953 -0.00736347 1.14758e-20 0.0866302 -4.65094e-20 0.00306506)
(-0.0856854 -0.00716538 -5.27818e-20 0.0825805 2.01081e-20 0.00310484)
(-0.081829 -0.00698896 2.29767e-20 0.0786983 -7.75551e-20 0.00313061)
(-0.078125 -0.00683698 5.46462e-21 0.0749834 5.276e-20 0.00314162)
(-0.0745652 -0.00671133 -4.2744e-21 0.0714281 -1.22114e-19 0.00313707)
(-0.0711437 -0.00661543 -7.52353e-20 0.0680276 6.96744e-21 0.00311613)
(-0.0678541 -0.00655093 6.00452e-20 0.0647762 -7.09321e-20 0.00307789)
(-0.0646868 -0.00652201 -3.46343e-20 0.0616654 1.39501e-20 0.00302144)
(-0.0616352 -0.00652962 -1.16302e-20 0.0586894 -3.34955e-20 0.00294582)
(-0.0586863 -0.00657804 -6.62839e-20 0.0558362 -4.0567e-20 0.00285007)
(-0.0558299 -0.00666701 -4.21298e-20 0.0530967 2.79653e-20 0.00273318)
(-0.0530508 -0.00679861 -4.01315e-20 0.0504567 -3.6056e-21 0.00259416)
(-0.0503298 -0.00697155 -3.39267e-20 0.0478978 4.51959e-21 0.00243202)
(-0.0476526 -0.00718009 1.77553e-20 0.0454068 9.82612e-21 0.00224581)
(-0.0449825 -0.00742631 1.79338e-20 0.0429479 -5.27268e-20 0.0020346)
(-0.0423162 -0.00768427 -1.6469e-22 0.0405187 4.22432e-20 0.00179754)
(-0.0395836 -0.00798314 -1.10452e-19 0.0380498 -2.02256e-21 0.00153386)
(-0.0368243 -0.00824312 -5.72692e-20 0.0355814 1.03582e-20 0.00124283)
(-0.033883 -0.00859071 3.74041e-20 0.0329591 2.88041e-20 0.00092391)
(-0.0309702 -0.00888888 -1.27802e-19 0.0303937 -2.59035e-20 0.000576463)
(-0.0274516 -0.00872381 3.42609e-20 0.0272514 3.94154e-20 0.000200195)
(-0.178471 -0.0136902 3.27097e-20 0.178326 -1.25892e-20 0.000144281)
(-0.17755 -0.0155257 4.1769e-20 0.177142 7.51921e-20 0.000407523)
(-0.174823 -0.0167078 -1.1455e-20 0.174169 -1.68804e-19 0.000653687)
(-0.170789 -0.0173984 -2.51912e-20 0.169905 1.55906e-19 0.000884692)
(-0.166021 -0.0177485 7.28221e-20 0.164919 -9.52464e-20 0.00110206)
(-0.160702 -0.0178415 5.72791e-20 0.159395 -1.63458e-20 0.00130693)
(-0.155149 -0.0177548 1.83889e-20 0.153649 -8.60269e-20 0.00150021)
(-0.149421 -0.0175342 6.63853e-20 0.147739 2.17039e-21 0.00168254)
(-0.143697 -0.017221 7.65354e-20 0.141843 3.0183e-21 0.00185442)
(-0.137986 -0.0168407 -7.75871e-20 0.13597 -1.73442e-20 0.00201614)
(-0.132391 -0.016417 -4.79628e-20 0.130223 -1.32353e-19 0.00216789)
(-0.1269 -0.0159638 -1.86601e-20 0.124591 5.47369e-20 0.0023097)
(-0.121574 -0.0154953 3.64806e-21 0.119133 -3.71829e-20 0.00244154)
(-0.116394 -0.0150195 -7.70916e-20 0.113831 3.02343e-20 0.00256325)
(-0.111397 -0.014545 -8.99428e-20 0.108722 8.80734e-20 0.0026746)
(-0.106561 -0.0140767 1.10393e-19 0.103786 6.48134e-20 0.00277526)
(-0.101909 -0.0136199 -3.02821e-20 0.0990438 7.1358e-20 0.00286488)
(-0.0974214 -0.0131782 5.15543e-20 0.0944785 1.26657e-19 0.00294296)
(-0.0931109 -0.012755 6.35118e-20 0.0901018 -1.2457e-19 0.00300902)
(-0.0889619 -0.0123533 -8.9903e-20 0.0858995 1.06177e-19 0.00306246)
(-0.0849791 -0.0119756 -4.28963e-20 0.0818765 -2.54627e-20 0.00310264)
(-0.0811514 -0.0116249 -1.30368e-20 0.0780225 1.16497e-19 0.00312887)
(-0.0774777 -0.0113037 -6.67926e-20 0.0743373 -1.58874e-20 0.00314039)
(-0.0739505 -0.0110149 -6.62842e-20 0.0708141 5.66826e-20 0.0031364)
(-0.0705642 -0.010762 3.44267e-20 0.0674481 1.59218e-19 0.00311605)
(-0.0673139 -0.0105473 -4.68059e-20 0.0642354 9.74493e-20 0.00307844)
(-0.0641898 -0.010376 5.01563e-20 0.0611672 1.41768e-19 0.00302266)
(-0.0611876 -0.0102495 -5.29601e-20 0.0582399 4.58735e-20 0.0029477)
(-0.0582941 -0.0101748 7.50943e-20 0.0554415 1.0848e-19 0.0028526)
(-0.0555017 -0.0101511 9.54966e-21 0.0527654 1.00113e-20 0.00273632)
(-0.0527953 -0.0101868 -3.05699e-20 0.0501974 3.09642e-20 0.00259786)
(-0.0501574 -0.0102771 -6.98666e-21 0.0477212 8.01372e-20 0.00243619)
(-0.0475753 -0.0104296 -7.00133e-20 0.045325 1.32813e-19 0.00225033)
(-0.0450087 -0.0106318 9.59659e-21 0.0429694 -2.60804e-19 0.00203931)
(-0.0424629 -0.0108853 4.36791e-20 0.0406607 1.78693e-19 0.00180226)
(-0.0398406 -0.0111673 -8.0208e-20 0.0383022 -1.11229e-19 0.00153835)
(-0.0372276 -0.0114653 1.92396e-20 0.0359807 3.62506e-21 0.00124687)
(-0.0343147 -0.0117331 -5.26495e-20 0.0333875 8.18446e-20 0.000927206)
(-0.031684 -0.012181 -1.51308e-20 0.0311053 -3.87199e-20 0.000578786)
(-0.0272764 -0.0116918 -3.38115e-20 0.0270754 1.30561e-19 0.00020105)
(-0.177984 -0.0191936 7.01021e-20 0.177841 3.11904e-20 0.000143853)
(-0.176767 -0.0217503 -8.51518e-20 0.17636 3.25538e-21 0.00040628)
(-0.173826 -0.0234005 -8.0048e-21 0.173175 2.41384e-19 0.000651688)
(-0.169643 -0.0243669 1.20934e-19 0.168761 -2.56086e-19 0.000881998)
(-0.164771 -0.0248592 -1.21301e-19 0.163672 4.45499e-20 0.00109873)
(-0.159383 -0.0249934 -6.51865e-22 0.15808 7.01356e-20 0.00130302)
(-0.153787 -0.024877 -1.64022e-20 0.152292 6.00497e-20 0.00149577)
(-0.148037 -0.0245733 4.45899e-20 0.146359 -1.89482e-20 0.00167764)
(-0.142305 -0.0241402 1.71594e-20 0.140456 -1.07847e-19 0.0018491)
(-0.136597 -0.0236125 -6.45774e-20 0.134586 -4.87063e-20 0.00201046)
(-0.131013 -0.0230232 8.25347e-20 0.128851 4.75444e-20 0.00216191)
(-0.12554 -0.0223914 7.19627e-20 0.123237 1.35624e-20 0.00230347)
(-0.120236 -0.0217367 1.98285e-20 0.117801 -1.51138e-19 0.00243513)
(-0.115082 -0.0210698 1.373e-19 0.112526 1.09022e-19 0.0025567)
(-0.110113 -0.0204024 5.9173e-20 0.107445 -5.68625e-21 0.00266799)
(-0.105307 -0.0197412 -1.09962e-19 0.102539 2.91414e-19 0.00276866)
(-0.100686 -0.0190931 1.62399e-19 0.0978281 -1.76063e-19 0.00285834)
(-0.0962314 -0.0184626 -2.0719e-19 0.0932948 1.98101e-19 0.00293657)
(-0.0919538 -0.0178539 -1.35149e-20 0.0889509 -1.14091e-19 0.00300284)
(-0.0878383 -0.0172709 9.70217e-20 0.0847818 1.13328e-19 0.00305656)
(-0.0838897 -0.0167162 -3.94523e-20 0.0807926 -1.13319e-19 0.0030971)
(-0.0800969 -0.0161935 3.72748e-20 0.0769732 -1.08878e-20 0.00312376)
(-0.0764592 -0.0157052 -4.86667e-20 0.0733234 2.87789e-20 0.00313579)
(-0.0729697 -0.0152549 1.38974e-19 0.0698373 1.44745e-19 0.00313237)
(-0.0696229 -0.0148458 -5.45381e-21 0.0665102 -9.61143e-20 0.00311268)
(-0.0664156 -0.0144812 5.06616e-20 0.0633398 7.56092e-20 0.00307577)
(-0.0633377 -0.0141664 -6.00767e-20 0.060317 2.06836e-20 0.00302074)
(-0.060388 -0.0139034 -4.7507e-20 0.0574414 9.45659e-20 0.00294658)
(-0.0575523 -0.0137007 -8.04865e-20 0.0547 -1.21013e-19 0.0028523)
(-0.0548281 -0.0135571 -1.21762e-19 0.0520912 9.39201e-20 0.00273684)
(-0.0521978 -0.0134859 4.74298e-20 0.0495986 -9.48072e-21 0.00259919)
(-0.0496525 -0.0134775 1.12257e-19 0.0472142 3.78548e-20 0.00243826)
(-0.0471735 -0.0135525 -3.38971e-19 0.0449204 1.24837e-19 0.00225306)
(-0.0447353 -0.0136813 2.34802e-20 0.0426928 -2.54221e-20 0.00204256)
(-0.042329 -0.0139001 1.85251e-19 0.0405232 1.14876e-19 0.00180583)
(-0.039887 -0.0141217 -3.07171e-19 0.038345 3.1019e-20 0.00154199)
(-0.0374541 -0.0144521 1.57546e-19 0.0362039 8.80537e-20 0.00125028)
(-0.0348373 -0.0144455 2.76625e-21 0.0339073 7.88146e-20 0.000930016)
(-0.0323428 -0.0152283 -6.43336e-20 0.0317621 -8.40785e-20 0.000580648)
(-0.0287734 -0.0127927 -2.16226e-20 0.0285718 -1.50104e-19 0.000201644)
(-0.177352 -0.0246799 5.25502e-20 0.177209 -9.43184e-20 0.000143219)
(-0.175738 -0.0279274 1.9645e-19 0.175333 -1.93971e-19 0.000404536)
(-0.172513 -0.0300202 -1.05646e-19 0.171865 -2.7011e-19 0.000648917)
(-0.168131 -0.031243 -1.34472e-19 0.167253 -2.54107e-22 0.000878276)
(-0.163121 -0.0318635 2.68687e-19 0.162027 4.63086e-20 0.00109413)
(-0.157642 -0.0320289 8.82663e-20 0.156344 -1.52996e-19 0.00129761)
(-0.151989 -0.0318759 -2.0376e-20 0.1505 -1.41092e-19 0.00148963)
(-0.146207 -0.0314849 -5.55189e-20 0.144537 8.17363e-20 0.00167082)
(-0.140464 -0.0309293 5.54267e-20 0.138622 5.76261e-20 0.00184168)
(-0.134759 -0.0302532 -1.13454e-22 0.132756 1.06544e-19 0.0020025)
(-0.129189 -0.0294984 1.11982e-20 0.127036 -1.8156e-19 0.00215347)
(-0.123739 -0.028689 -1.78776e-19 0.121444 1.18341e-19 0.00229464)
(-0.118464 -0.0278496 7.61679e-20 0.116038 -1.0784e-19 0.00242596)
(-0.113342 -0.0269938 1.65597e-20 0.110795 1.82233e-19 0.00254728)
(-0.108409 -0.0261363 1.04151e-19 0.105751 -9.01181e-21 0.00265838)
(-0.103641 -0.0252851 -2.11485e-20 0.100882 1.67877e-19 0.00275894)
(-0.09906 -0.0244489 -6.41666e-20 0.0962114 -2.58478e-19 0.0028486)
(-0.0946454 -0.0236332 1.3268e-19 0.0917185 9.37692e-20 0.00292689)
(-0.0904087 -0.0228428 -5.90304e-20 0.0874154 4.30175e-20 0.00299331)
(-0.0863344 -0.0220824 -6.05607e-20 0.0832871 -4.15803e-20 0.00304728)
(-0.082427 -0.0213547 -1.8437e-19 0.0793388 1.86674e-19 0.00308816)
(-0.0786758 -0.0206642 1.07422e-19 0.0755606 1.66352e-19 0.00311524)
(-0.0750799 -0.0200129 6.96022e-20 0.0719521 8.64542e-20 0.0031278)
(-0.0716333 -0.0194055 -1.34593e-19 0.0685083 -1.58023e-19 0.00312501)
(-0.0683303 -0.0188445 -4.6325e-20 0.0652242 2.41107e-19 0.00310603)
(-0.0651694 -0.0183346 1.08302e-19 0.0620995 -3.5222e-20 0.00306993)
(-0.0621402 -0.0178806 1.04012e-19 0.0591244 1.1333e-19 0.00301579)
(-0.0592448 -0.0174863 -1.66333e-19 0.0563022 5.98974e-20 0.0029426)
(-0.0564674 -0.0171604 6.03883e-20 0.0536181 2.56205e-19 0.00284934)
(-0.0538122 -0.0169037 1.18911e-19 0.0510773 2.04549e-19 0.00273496)
(-0.0512572 -0.0167319 -1.19457e-19 0.0486588 2.31132e-19 0.0025984)
(-0.0488064 -0.0166369 2.23408e-19 0.0463678 -3.36673e-20 0.00243854)
(-0.0464297 -0.0166453 -9.47742e-20 0.0441753 1.40404e-19 0.00225436)
(-0.0441298 -0.016725 -8.49524e-20 0.042085 1.19771e-19 0.00204475)
(-0.0418678 -0.0169244 1.62939e-19 0.0400591 2.4598e-19 0.00180874)
(-0.0396491 -0.0171357 -7.64664e-20 0.0381038 -6.46437e-20 0.00154534)
(-0.0374221 -0.0174896 6.02511e-20 0.0361684 1.13092e-20 0.00125372)
(-0.0352569 -0.0174888 -2.03334e-19 0.0343238 4.50761e-20 0.000933101)
(-0.0328396 -0.0183173 -3.16107e-19 0.0322567 -1.98771e-20 0.000582873)
(-0.03099 -0.0162552 8.33652e-20 0.0307873 8.20673e-20 0.000202629)
(-0.17657 -0.0301636 2.8242e-20 0.176428 2.86568e-20 0.000142482)
(-0.174469 -0.034049 -1.99333e-19 0.174066 2.73251e-19 0.000402411)
(-0.170894 -0.0365485 1.70724e-19 0.170248 -8.91987e-20 0.000645501)
(-0.166265 -0.0380027 1.94289e-19 0.165392 3.15388e-19 0.00087366)
(-0.161085 -0.0387336 -2.0645e-19 0.159997 -4.42787e-20 0.0010884)
(-0.155493 -0.0389178 -7.09527e-20 0.154202 -9.3595e-20 0.00129085)
(-0.149769 -0.0387199 1.28494e-19 0.148287 9.27555e-20 0.00148192)
(-0.143948 -0.0382363 1.88668e-19 0.142286 -8.77353e-20 0.00166224)
(-0.13819 -0.0375553 4.58048e-20 0.136358 -1.11095e-19 0.0018323)
(-0.132489 -0.0367296 -2.45328e-19 0.130496 1.25606e-19 0.00199241)
(-0.126936 -0.0358094 7.49506e-20 0.124794 1.99775e-19 0.00214273)
(-0.121513 -0.0348237 1.14911e-19 0.119229 8.64811e-20 0.00228333)
(-0.116272 -0.0338019 2.25478e-20 0.113858 -2.67804e-21 0.00241417)
(-0.11119 -0.0327601 2.73293e-19 0.108655 -2.1713e-19 0.00253508)
(-0.106301 -0.0317157 5.8747e-20 0.103655 3.73852e-20 0.00264586)
(-0.101579 -0.0306784 -2.22419e-19 0.098833 -1.11621e-19 0.0027462)
(-0.0970455 -0.0296582 1.08794e-20 0.0942098 2.00469e-19 0.00283572)
(-0.0926792 -0.0286617 5.03928e-20 0.0897653 1.42865e-19 0.00291396)
(-0.0884912 -0.0276941 -1.08827e-19 0.0855108 7.50838e-20 0.00298044)
(-0.0844656 -0.0267613 2.26039e-19 0.081431 1.73955e-19 0.00303456)
(-0.0806066 -0.0258654 1.10538e-19 0.0775308 2.20299e-19 0.00307571)
(-0.0769034 -0.0250123 -7.74199e-20 0.0738003 1.41197e-19 0.00310317)
(-0.0733553 -0.0242029 -2.77473e-19 0.0702391 -1.49543e-19 0.00311622)
(-0.0699568 -0.0234435 2.67309e-19 0.0668428 2.16051e-19 0.00311403)
(-0.0667023 -0.0227353 9.79039e-20 0.0636065 8.00777e-20 0.00309576)
(-0.0635919 -0.022085 -1.23607e-19 0.0605314 2.67328e-19 0.00306049)
(-0.0606149 -0.0214958 1.15519e-19 0.0576076 -1.02877e-19 0.00300729)
(-0.0577772 -0.0209743 1.17497e-19 0.0548421 1.21609e-19 0.00293513)
(-0.055062 -0.0205279 6.24832e-20 0.052219 -9.51047e-20 0.00284301)
(-0.0524811 -0.0201616 -5.34823e-20 0.0497513 -9.40133e-20 0.00272983)
(-0.0500094 -0.0198896 -1.06157e-19 0.0474149 -4.99288e-19 0.00259453)
(-0.047666 -0.0197115 -1.4774e-20 0.0452301 3.59627e-20 0.00243596)
(-0.0454122 -0.0196523 -4.26488e-20 0.0431592 -2.74166e-19 0.00225305)
(-0.0432807 -0.0196935 1.23513e-19 0.0412361 6.30522e-20 0.00204463)
(-0.0412065 -0.0198798 9.39708e-20 0.0393968 -2.50932e-19 0.00180967)
(-0.0392534 -0.020134 -5.38782e-19 0.0377064 -1.26357e-19 0.00154707)
(-0.0372873 -0.0205672 3.29389e-19 0.0360314 -1.31471e-19 0.00125593)
(-0.0355262 -0.0207821 3.26986e-20 0.0345908 -2.06345e-20 0.000935337)
(-0.0333274 -0.0218666 -2.31028e-20 0.0327428 -4.43269e-19 0.000584635)
(-0.0324574 -0.0202735 -1.89212e-19 0.0322541 1.19262e-19 0.000203345)
(-0.175642 -0.0356275 2.04568e-19 0.1755 -5.97934e-20 0.00014153)
(-0.172963 -0.0400997 1.06972e-19 0.172563 8.82912e-20 0.000399776)
(-0.168973 -0.0429657 -1.71435e-19 0.168332 1.48817e-20 0.000641301)
(-0.164055 -0.0446214 5.21989e-21 0.163187 -2.54714e-19 0.000868005)
(-0.158674 -0.0454409 4.06749e-20 0.157593 1.47778e-19 0.00108139)
(-0.152948 -0.0456285 1.41404e-20 0.151666 4.59332e-19 0.00128258)
(-0.147141 -0.0453753 -5.75023e-20 0.145669 2.24291e-20 0.00147248)
(-0.141275 -0.0447921 -2.06326e-19 0.139623 1.59486e-19 0.00165173)
(-0.1355 -0.0439817 2.61532e-19 0.133679 -1.29044e-20 0.0018208)
(-0.129802 -0.0430047 2.20746e-19 0.127822 1.12306e-19 0.00198)
(-0.12427 -0.0419192 -6.24069e-20 0.12214 -4.40604e-22 0.00212951)
(-0.118878 -0.0407584 -3.32518e-19 0.116609 1.85689e-19 0.00226938)
(-0.113678 -0.0395564 -1.79541e-19 0.111279 6.90148e-21 0.00239957)
(-0.108643 -0.0383317 -2.66458e-20 0.106123 3.34275e-19 0.00251994)
(-0.103805 -0.0371042 3.04729e-19 0.101175 -1.4654e-19 0.00263027)
(-0.0991373 -0.0358852 1.15746e-19 0.096407 2.8906e-20 0.00273026)
(-0.0946593 -0.0346857 9.45387e-20 0.0918398 8.60343e-22 0.00281953)
(-0.0903495 -0.0335137 6.73893e-20 0.0874519 1.45362e-20 0.00289764)
(-0.0862182 -0.0323745 -1.4984e-20 0.0832541 -1.24157e-19 0.0029641)
(-0.0822488 -0.031275 7.78419e-20 0.0792305 -1.67143e-19 0.00301832)
(-0.0784454 -0.0302171 -1.00562e-19 0.0753857 -1.26514e-20 0.00305968)
(-0.074797 -0.0292077 -5.69969e-20 0.0717095 -2.80439e-19 0.00308749)
(-0.0713027 -0.028247 3.08718e-20 0.0682017 1.74474e-19 0.00310101)
(-0.0679575 -0.0273427 3.6752e-20 0.0648581 -1.12578e-19 0.00309942)
(-0.0647558 -0.0264944 1.51221e-19 0.0616739 -1.15571e-19 0.0030819)
(-0.061699 -0.0257112 -1.77884e-20 0.0586515 -5.53444e-20 0.0030475)
(-0.0587764 -0.0249941 -8.7134e-20 0.0557811 -6.57393e-21 0.00299531)
(-0.055997 -0.0243531 -4.25107e-20 0.0530727 -2.82253e-19 0.0029243)
(-0.0533435 -0.0237926 -1.9748e-19 0.05051 5.63236e-19 0.00283344)
(-0.0508341 -0.0233233 -2.0827e-19 0.0481125 -4.41605e-20 0.00272164)
(-0.0484417 -0.0229546 -9.71969e-20 0.0458539 3.04025e-19 0.00258781)
(-0.0461984 -0.0226968 4.20089e-19 0.0437676 1.44982e-19 0.00243077)
(-0.0440595 -0.0225653 -5.50789e-20 0.0418101 -2.09261e-19 0.00224941)
(-0.0420825 -0.022564 -1.03069e-19 0.0400399 2.35392e-19 0.00204251)
(-0.040187 -0.0227187 1.27573e-19 0.038378 -1.80184e-19 0.00180898)
(-0.0384843 -0.0230059 -2.63318e-20 0.0369367 -1.51182e-20 0.00154761)
(-0.0368086 -0.0234965 3.4067e-20 0.0355512 8.45202e-21 0.00125741)
(-0.0354757 -0.0239715 -5.00813e-19 0.0345384 -9.77605e-20 0.000937313)
(-0.0337516 -0.0252495 -1.84529e-19 0.0331651 -1.14385e-19 0.000586553)
(-0.0339565 -0.0247118 2.0007e-19 0.0337522 5.15077e-19 0.000204331)
(-0.174561 -0.0410852 9.8979e-20 0.174421 1.04917e-19 0.000140485)
(-0.171225 -0.0460726 -2.31251e-20 0.170829 -1.06977e-19 0.000396772)
(-0.166764 -0.0492551 -1.43174e-20 0.166128 7.26993e-20 0.000636471)
(-0.161515 -0.0510772 1.27e-19 0.160654 6.6246e-19 0.000861472)
(-0.155905 -0.0519604 2.0928e-19 0.154832 3.47546e-20 0.00107327)
(-0.150028 -0.0521338 -8.14631e-21 0.148755 -4.47404e-19 0.00127298)
(-0.144126 -0.0518132 2.4778e-21 0.142665 -8.80917e-20 0.0014615)
(-0.138208 -0.0511229 1.58393e-19 0.136569 -1.62205e-19 0.00163947)
(-0.132414 -0.0501787 -6.72164e-20 0.130607 -4.26619e-20 0.00180736)
(-0.126722 -0.0490484 -1.2068e-19 0.124756 -1.48359e-19 0.00196546)
(-0.121213 -0.0477976 2.77532e-19 0.119099 -1.19192e-19 0.00211398)
(-0.115857 -0.0464633 2.40987e-19 0.113604 -2.60307e-19 0.00225295)
(-0.110704 -0.0450839 6.48728e-20 0.108322 7.84951e-20 0.00238235)
(-0.105723 -0.0436799 7.95541e-20 0.103221 -7.66683e-20 0.00250202)
(-0.100943 -0.0422738 -1.41056e-19 0.0983316 -3.53305e-19 0.00261176)
(-0.0963375 -0.040878 -1.11995e-19 0.0936263 3.22256e-20 0.00271126)
(-0.0919234 -0.0395048 1.13912e-19 0.0891233 -2.76994e-19 0.00280016)
(-0.0876781 -0.038163 -1.21693e-20 0.0848001 8.47009e-22 0.00287801)
(-0.0836116 -0.0368584 -1.80139e-19 0.0806672 -4.06163e-19 0.00294433)
(-0.0797061 -0.0355988 3.41821e-19 0.0767076 3.18737e-20 0.00299853)
(-0.0759659 -0.0343856 8.6138e-20 0.0729259 -4.6398e-20 0.00304002)
(-0.0723794 -0.0332271 5.43381e-20 0.0693113 2.60218e-20 0.00306808)
(-0.0689458 -0.0321223 -1.83851e-19 0.0658638 1.65959e-19 0.00308199)
(-0.06566 -0.0310805 5.36306e-21 0.0625791 4.05174e-20 0.00308094)
(-0.062517 -0.0300999 1.16683e-19 0.0594529 1.50392e-19 0.0030641)
(-0.0595189 -0.0291917 1.59001e-19 0.0564884 -2.84827e-19 0.00303054)
(-0.0566557 -0.0283544 -2.28149e-19 0.0536763 2.55155e-19 0.00297933)
(-0.0539384 -0.0276022 8.27789e-19 0.0510289 -5.15693e-19 0.00290944)
(-0.0513505 -0.0269352 2.74398e-19 0.0485307 4.72313e-19 0.00281987)
(-0.048915 -0.0263716 -2.16976e-19 0.0462056 -5.31573e-19 0.00270947)
(-0.0466053 -0.0259133 -2.25513e-19 0.0440281 4.63092e-19 0.00257717)
(-0.0444619 -0.0255854 -5.2379e-19 0.0420402 -6.53e-20 0.00242176)
(-0.04244 -0.0253894 4.37019e-20 0.0401979 1.88838e-19 0.00224209)
(-0.040611 -0.0253588 1.23891e-19 0.0385741 2.44255e-19 0.0020369)
(-0.0388928 -0.025493 -3.19616e-19 0.0370878 1.58258e-19 0.00180503)
(-0.037419 -0.02583 -3.34087e-19 0.0358738 6.81161e-21 0.00154518)
(-0.0360255 -0.0263795 2.89799e-19 0.0347692 2.69054e-19 0.0012563)
(-0.0350567 -0.0270775 -1.19075e-19 0.0341196 2.68408e-19 0.00093711)
(-0.0338209 -0.0284104 5.37653e-19 0.0332341 -1.74166e-19 0.000586829)
(-0.0346243 -0.0285977 -4.30083e-19 0.0344198 1.29518e-19 0.000204452)
(-0.173334 -0.0465199 1.22075e-19 0.173195 -7.51885e-20 0.000139216)
(-0.169263 -0.0519531 1.18315e-19 0.16887 -4.74047e-20 0.000393249)
(-0.164276 -0.0553988 2.35832e-19 0.163645 -5.20023e-20 0.00063085)
(-0.15866 -0.0573479 1.20943e-19 0.157806 -6.48425e-19 0.000853892)
(-0.152796 -0.058266 -4.31449e-19 0.151732 -4.61049e-19 0.00106386)
(-0.14675 -0.0584051 -1.57126e-20 0.145488 2.06541e-19 0.00126186)
(-0.140744 -0.0580034 3.88542e-20 0.139295 2.38841e-19 0.00144879)
(-0.134769 -0.0571969 -1.49319e-19 0.133144 6.06185e-20 0.00162526)
(-0.128955 -0.0561136 2.27226e-19 0.127163 3.30129e-19 0.00179177)
(-0.123269 -0.0548276 2.51477e-19 0.12132 -4.11487e-19 0.0019486)
(-0.117787 -0.0534113 -3.17794e-19 0.115691 3.0205e-19 0.00209595)
(-0.112473 -0.0519049 -6.46935e-20 0.11024 -2.32706e-19 0.00223386)
(-0.107373 -0.0503509 -2.0005e-20 0.105011 8.44984e-20 0.0023623)
(-0.102453 -0.0487715 -2.41771e-19 0.0999716 -2.50509e-20 0.00248112)
(-0.0977391 -0.0471915 3.00396e-19 0.095149 2.39223e-19 0.00259013)
(-0.093203 -0.0456242 1.80208e-19 0.090514 -1.35095e-19 0.00268901)
(-0.0888608 -0.0440831 -9.95979e-20 0.0860834 4.08324e-19 0.00277741)
(-0.084688 -0.0425779 7.03153e-20 0.0818331 -1.70692e-19 0.0028549)
(-0.0806943 -0.0411146 -2.17009e-19 0.0777733 2.33508e-19 0.00292098)
(-0.0768606 -0.0397019 2.70179e-19 0.0738855 2.78303e-20 0.00297509)
(-0.0731913 -0.0383409 -1.72288e-20 0.0701747 -1.94001e-19 0.00301662)
(-0.0696738 -0.0370409 1.30811e-19 0.0666289 -3.82129e-20 0.00304487)
(-0.0663079 -0.0357999 1.55002e-19 0.0632487 -1.35012e-19 0.00305913)
(-0.0630877 -0.0346289 -5.0254e-20 0.0600291 -3.74763e-20 0.00305858)
(-0.0600093 -0.0335239 -2.91184e-19 0.0569669 1.92496e-19 0.0030424)
(-0.0570744 -0.0324991 2.5043e-19 0.0540648 -5.01389e-19 0.00300967)
(-0.0542747 -0.0315495 -5.43735e-19 0.0513152 1.47382e-19 0.00295946)
(-0.0516219 -0.0306938 -1.08645e-19 0.0487312 1.27263e-19 0.00289073)
(-0.0491018 -0.0299263 2.08536e-19 0.0462993 3.44187e-20 0.00280248)
(-0.0467393 -0.0292734 -7.03124e-20 0.0440457 -2.82002e-19 0.00269357)
(-0.0445117 -0.0287275 5.6498e-19 0.0419488 1.73195e-19 0.00256291)
(-0.0424632 -0.0283281 2.0814e-19 0.040054 -2.70553e-19 0.00240925)
(-0.0405556 -0.0280606 -6.00575e-20 0.0383241 5.44344e-19 0.00223144)
(-0.0388652 -0.0279866 2.79695e-19 0.036837 -6.87937e-19 0.00202817)
(-0.0373231 -0.0280764 -1.54158e-19 0.0355249 5.06193e-19 0.00179823)
(-0.0360651 -0.0284221 2.88348e-20 0.0345248 -1.85827e-19 0.00154024)
(-0.0349569 -0.0289731 2.50646e-19 0.0337039 4.62938e-19 0.00125307)
(-0.0343089 -0.029796 -8.90365e-19 0.0333736 -3.32147e-19 0.000935336)
(-0.0335474 -0.0310503 -2.77474e-19 0.0329613 1.57765e-19 0.000586177)
(-0.0346094 -0.0318511 3.85587e-19 0.034405 3.22267e-19 0.000204406)
(-0.171951 -0.0519438 -7.61141e-20 0.171813 6.23917e-19 0.000137866)
(-0.167082 -0.0577354 -1.47211e-19 0.166693 2.69009e-19 0.000389374)
(-0.161522 -0.0613822 -3.40894e-19 0.160898 6.91703e-20 0.000624617)
(-0.155506 -0.0634145 -4.77418e-21 0.154661 4.66601e-19 0.000845455)
(-0.149366 -0.0643363 5.33792e-19 0.148312 6.11917e-19 0.00105336)
(-0.143138 -0.064419 1.76777e-19 0.141888 2.19082e-19 0.00124943)
(-0.137019 -0.0639211 -4.19665e-20 0.135585 -1.23419e-19 0.00143455)
(-0.130984 -0.0629887 2.43924e-19 0.129375 -3.02498e-19 0.00160934)
(-0.125148 -0.0617607 -3.78261e-19 0.123374 -2.92409e-19 0.00177427)
(-0.119471 -0.0603164 -1.67e-19 0.117542 1.90577e-19 0.00192965)
(-0.11402 -0.0587345 3.36786e-19 0.111944 4.36833e-19 0.00207565)
(-0.108753 -0.0570577 -1.65423e-19 0.106541 3.78588e-19 0.00221232)
(-0.103712 -0.0553323 2.05727e-19 0.101372 2.53673e-19 0.00233963)
(-0.0988592 -0.0535817 4.8746e-20 0.0964018 2.24965e-19 0.00245745)
(-0.0942193 -0.0518328 -4.21461e-19 0.0916537 5.28891e-20 0.00256557)
(-0.0897604 -0.0500998 1.44258e-19 0.0870968 -1.31876e-19 0.00266369)
(-0.0854981 -0.0483972 6.06289e-20 0.0827466 1.44461e-20 0.00275146)
(-0.0814059 -0.0467353 -7.49789e-20 0.0785774 -3.06828e-19 0.00282844)
(-0.077493 -0.0451205 -9.47915e-20 0.0745989 -1.95049e-19 0.00289416)
(-0.0737392 -0.0435622 -1.76082e-19 0.0707911 3.1465e-19 0.00294805)
(-0.0701489 -0.0420611 2.34574e-20 0.0671594 2.36311e-20 0.0029895)
(-0.0667081 -0.0406276 -2.91779e-20 0.0636903 2.98603e-19 0.00301782)
(-0.0634177 -0.0392585 -9.05093e-20 0.0603853 -7.21986e-20 0.00303232)
(-0.0602704 -0.0379667 4.40135e-19 0.0572383 9.16102e-20 0.00303216)
(-0.0572638 -0.036746 -4.27216e-19 0.0542472 2.31897e-19 0.00301654)
(-0.0543987 -0.035613 7.72581e-20 0.0514141 -1.14322e-19 0.00298454)
(-0.0516689 -0.0345595 4.02714e-19 0.0487337 5.48245e-19 0.00293523)
(-0.0490855 -0.0336082 4.22343e-19 0.0462179 1.34453e-19 0.00286759)
(-0.0466379 -0.0327479 -1.42685e-19 0.0438573 3.81937e-19 0.00278059)
(-0.0443504 -0.0320119 -4.57256e-19 0.0416773 4.23643e-19 0.00267311)
(-0.0422066 -0.031383 -1.97281e-19 0.0396626 8.73112e-20 0.00254403)
(-0.040249 -0.0309133 3.98879e-20 0.0378569 -1.93881e-20 0.00239212)
(-0.0384512 -0.0305715 -2.94336e-19 0.036235 3.1938e-20 0.00221619)
(-0.0368841 -0.0304418 1.37608e-19 0.0348692 -1.85559e-19 0.0020149)
(-0.0355007 -0.0304646 3.41654e-19 0.0337137 2.84567e-19 0.00178702)
(-0.034421 -0.0307695 -3.64775e-19 0.0328899 -3.25179e-19 0.00153111)
(-0.0335527 -0.0312482 5.89485e-19 0.0323067 6.67319e-20 0.00124602)
(-0.0331384 -0.0320528 -1.37824e-19 0.0322081 -1.19577e-19 0.000930263)
(-0.0327634 -0.0330719 8.68421e-19 0.0321804 4.68755e-19 0.000583029)
(-0.0338083 -0.034174 -4.97066e-19 0.0336051 -3.1229e-19 0.000203184)
(-0.170418 -0.0573412 6.27054e-20 0.170282 -3.90586e-19 0.000136283)
(-0.16469 -0.0634058 -1.04654e-20 0.164305 -4.89889e-19 0.000384974)
(-0.158516 -0.0671896 2.09234e-19 0.157898 2.04651e-19 0.00061759)
(-0.152072 -0.0692576 1.09875e-19 0.151236 -6.60902e-21 0.00083597)
(-0.145636 -0.0701488 -7.02954e-19 0.144595 -9.12348e-20 0.00104157)
(-0.139215 -0.070151 -1.03339e-20 0.137979 -7.64923e-19 0.00123548)
(-0.132977 -0.0695404 -2.48534e-19 0.131558 -1.57478e-20 0.00141858)
(-0.126879 -0.0684713 -1.1763e-19 0.125288 -2.25847e-19 0.00159147)
(-0.121023 -0.0670922 5.10473e-19 0.119268 5.81673e-19 0.00175463)
(-0.115357 -0.0654866 5.27135e-19 0.113448 1.31891e-20 0.00190836)
(-0.10994 -0.0637387 -7.32603e-20 0.107887 -2.17107e-20 0.00205283)
(-0.104726 -0.0618931 5.97765e-20 0.102538 -7.16772e-19 0.00218809)
(-0.0997497 -0.0599994 -2.10622e-19 0.0974356 1.25508e-19 0.00231412)
(-0.0949712 -0.0580819 -1.90763e-20 0.0925404 -6.10594e-19 0.00243078)
(-0.0904121 -0.0561694 9.85552e-20 0.0878742 -9.14511e-20 0.00253787)
(-0.0860382 -0.0542766 8.52212e-21 0.0834031 -9.57242e-20 0.00263509)
(-0.0818635 -0.0524189 -1.25258e-19 0.0791414 1.42697e-19 0.0027221)
(-0.0778598 -0.0506072 -1.01247e-19 0.0750614 -1.35375e-19 0.00279846)
(-0.0740359 -0.0488482 2.70325e-19 0.0711722 3.40241e-19 0.0028637)
(-0.0703699 -0.0471516 5.38415e-19 0.0674526 -1.32585e-19 0.00291726)
(-0.0668665 -0.0455181 -1.61857e-19 0.063908 1.33108e-19 0.00295854)
(-0.0635104 -0.0439588 1.02235e-19 0.0605235 -1.07565e-20 0.00298686)