/*--------------------------------*- C++ -*----------------------------------*\
| =========                 |                                                 |
| \\      /  F ield         | foam-extend: Open Source CFD                    |
|  \\    /   O peration     | Version:  3.0                                   |
|   \\  /    A nd           | Web:         http://www.extend-project.de       |
|    \\/     M anipulation  |                                                 |
\*---------------------------------------------------------------------------*/
FoamFile
{
    version     2.0;
    format      ascii;
    class       volVectorField;
    location    "33";
    object      u;
}
// * * * * * * * * * * * * * * * * * * * * * * * * * * * * * * * * * * * * * //

dimensions      [0 0 0 0 0 0 0];

internalField   nonuniform List<vector> 
7680
(
(0.111183 -0.0322884 3.99271e-17)
(0.157275 -0.0272879 4.35276e-17)
(0.319387 -0.0257153 -3.48665e-17)
(0.345624 -0.0215384 3.25851e-17)
(0.469139 -0.0206523 -1.52828e-17)
(0.483933 -0.0175955 1.67911e-17)
(0.580656 -0.0170486 -6.39679e-18)
(0.587808 -0.0148274 -1.03381e-17)
(0.66585 -0.0144668 -1.6944e-17)
(0.667507 -0.0128482 -1.50748e-17)
(0.73225 -0.0126345 -1.63921e-17)
(0.729851 -0.0114468 2.21683e-17)
(0.784892 -0.0113585 -3.05642e-17)
(0.779449 -0.0104879 2.39194e-17)
(0.827281 -0.0104996 -9.68125e-18)
(0.819498 -0.00986553 3.58607e-17)
(0.86192 -0.0099494 -3.03456e-17)
(0.852283 -0.00948618 5.16204e-17)
(0.890636 -0.0096155 -3.4066e-17)
(0.879483 -0.00926131 3.72525e-17)
(0.914796 -0.00940832 -3.58242e-17)
(0.902373 -0.00909577 3.65234e-17)
(0.935451 -0.00922397 -3.16429e-17)
(0.921958 -0.00887054 4.81376e-17)
(0.953438 -0.00892014 -3.55994e-17)
(0.939058 -0.00842021 3.61179e-17)
(0.969439 -0.00828443 -1.76948e-17)
(0.954373 -0.00751044 2.51144e-17)
(0.984025 -0.00699941 -1.84381e-17)
(0.968511 -0.00583103 1.16831e-17)
(0.997673 -0.00461129 -1.05445e-17)
(0.981992 -0.00302835 7.8842e-18)
(1.01079 -0.000526428 -7.86556e-18)
(0.995235 0.00114233 4.40612e-18)
(1.02367 0.00600334 6.25098e-18)
(1.00837 0.00630541 -4.43196e-18)
(1.03614 0.0164697 1.46466e-17)
(1.01974 0.0105778 -1.5597e-17)
(1.04327 0.0356528 1.66514e-17)
(1.02458 0.0215239 -1.70726e-17)
(0.115221 -0.0955712 -5.03321e-17)
(0.160788 -0.0799101 -6.73004e-17)
(0.322998 -0.0747496 3.68856e-17)
(0.34889 -0.0628046 -4.22815e-17)
(0.472506 -0.0597077 -1.15732e-17)
(0.487032 -0.0506393 5.35893e-18)
(0.583831 -0.0484106 1.03306e-17)
(0.590779 -0.0416524 3.26778e-17)
(0.668878 -0.0399149 4.37822e-17)
(0.670372 -0.0348352 4.86949e-17)
(0.735155 -0.0334711 1.49046e-17)
(0.732613 -0.0295913 -1.63795e-18)
(0.787674 -0.028532 1.71137e-17)
(0.782092 -0.0255357 -3.99192e-18)
(0.829917 -0.0247175 -2.85354e-17)
(0.821985 -0.0223987 -3.6475e-17)
(0.864369 -0.0217633 4.04561e-17)
(0.854561 -0.0199763 -8.84107e-17)
(0.892841 -0.0194733 7.13306e-17)
(0.881486 -0.0181004 -7.71988e-17)
(0.916689 -0.0176876 5.39139e-17)
(0.904021 -0.0166216 -6.30656e-17)
(0.93695 -0.016262 4.19239e-17)
(0.923157 -0.0153946 -8.04973e-17)
(0.954445 -0.0150494 3.87445e-17)
(0.939701 -0.0142589 -4.74298e-17)
(0.969835 -0.0138693 2.14116e-18)
(0.954336 -0.0130124 -2.57201e-17)
(0.983646 -0.0124573 -4.08215e-18)
(0.967626 -0.0113785 1.05852e-18)
(0.996221 -0.0103955 -1.62172e-18)
(0.979941 -0.00898597 4.45996e-18)
(1.00753 -0.00702442 4.14448e-18)
(0.991247 -0.00536206 -8.06393e-18)
(1.01677 -0.0011156 5.65059e-19)
(1.00091 0.000152375 -1.27373e-17)
(1.02197 0.0109178 1.97118e-17)
(1.00863 0.0115044 -3.79266e-18)
(1.02006 0.0322175 -7.72719e-18)
(1.02203 0.100017 3.33634e-17)
(0.123599 -0.158783 5.6066e-17)
(0.167753 -0.134222 6.11326e-17)
(0.329094 -0.125353 -7.42851e-17)
(0.353732 -0.105375 9.73449e-17)
(0.476753 -0.100002 -6.24399e-18)
(0.490318 -0.0849327 -1.66247e-17)
(0.586667 -0.0810825 -4.95879e-17)
(0.592878 -0.0698534 -1.77347e-17)
(0.670612 -0.0668421 -8.45602e-17)
(0.67153 -0.0583898 -6.98254e-17)
(0.736008 -0.0560024 -2.77025e-17)
(0.733006 -0.0495332 -4.54112e-18)
(0.787814 -0.047642 -6.74568e-18)
(0.781859 -0.0426359 -9.77829e-18)
(0.829475 -0.0411192 6.80587e-17)
(0.821238 -0.0372364 5.09915e-17)
(0.863448 -0.0359859 -3.95118e-17)
(0.853385 -0.0329881 1.2005e-16)
(0.891521 -0.0319189 -1.10154e-16)
(0.879942 -0.0296219 9.67277e-17)
(0.915028 -0.0286727 -6.28335e-17)
(0.902157 -0.0269177 1.00521e-16)
(0.935 -0.0260423 -7.29466e-17)
(0.921013 -0.0246714 1.23029e-16)
(0.952259 -0.0238265 -4.44756e-17)
(0.937329 -0.0226576 8.79585e-17)
(0.967489 -0.0217804 -1.45448e-17)
(0.951825 -0.0205799 4.84599e-17)
(0.981274 -0.0195433 7.62867e-18)
(0.965175 -0.017998 1.59341e-18)
(0.994104 -0.0165175 -3.16797e-18)
(0.978053 -0.0142037 1.19059e-17)
(1.0063 -0.0117127 -4.58295e-18)
(0.99118 -0.00810302 5.21863e-18)
(1.01764 -0.00373008 1.2251e-18)
(1.0055 0.00121976 -7.84439e-18)
(1.0259 0.00830353 6.93594e-18)
(1.02448 0.0135823 -1.7641e-17)
(1.015 0.0154624 2.19892e-17)
(1.09394 0.0849775 -2.95325e-17)
(0.135871 -0.220978 -2.98223e-17)
(0.178132 -0.185663 -1.13237e-16)
(0.339043 -0.173224 2.23865e-16)
(0.362306 -0.145637 -2.35114e-16)
(0.485117 -0.138086 6.32633e-17)
(0.497626 -0.117128 3.02491e-17)
(0.593822 -0.111619 8.02777e-17)
(0.599231 -0.0959414 2.82176e-17)
(0.676832 -0.0915711 4.6739e-17)
(0.677127 -0.0797244 5.459e-17)
(0.741484 -0.0762023 8.79203e-17)
(0.737976 -0.0670959 -3.19391e-17)
(0.792664 -0.0642486 9.71125e-18)
(0.786276 -0.0571661 6.38507e-18)
(0.833763 -0.0548327 -8.40066e-17)
(0.825135 -0.0493107 -7.18295e-18)
(0.867198 -0.0473505 -2.93962e-19)
(0.856765 -0.0430711 -1.25865e-16)
(0.894729 -0.041375 1.45388e-16)
(0.882782 -0.0381018 -1.30945e-16)
(0.917668 -0.0365945 7.39045e-17)
(0.904406 -0.0341356 -1.22878e-16)
(0.937019 -0.032774 7.1014e-17)
(0.922594 -0.0309565 -8.95143e-17)
(0.953584 -0.0297255 -1.35211e-17)
(0.938133 -0.0283681 -5.86776e-17)
(0.968029 -0.0272711 -3.03574e-17)
(0.951723 -0.0261523 -1.61719e-17)
(0.980941 -0.0251869 -4.74767e-17)
(0.964034 -0.0240123 2.11641e-17)
(0.992848 -0.0231353 -6.0454e-18)
(0.975762 -0.0214635 -4.34647e-18)
(1.00417 -0.0205836 -4.48666e-17)
(0.987667 -0.0174795 9.75396e-17)
(1.01485 -0.0165444 -7.63524e-17)
(1.00057 -0.00899177 3.93767e-17)
(1.02303 -0.0102499 2.37561e-17)
(1.01574 0.0248975 -2.59582e-17)
(1.01918 -0.0532309 1.59452e-17)
(1.06284 0.243253 -2.70522e-17)
(0.152412 -0.282501 4.3531e-18)
(0.192088 -0.238808 3.11019e-17)
(0.351708 -0.222784 -3.64743e-16)
(0.372705 -0.187359 3.3447e-16)
(0.494653 -0.17759 -7.74029e-17)
(0.505433 -0.150771 -8.92792e-17)
(0.600982 -0.143679 -1.28287e-16)
(0.605084 -0.123633 7.75658e-18)
(0.682164 -0.118015 -2.23757e-17)
(0.681453 -0.102871 -3.65033e-17)
(0.745379 -0.0983403 -1.02461e-16)
(0.741081 -0.0866967 1.43795e-17)
(0.795408 -0.0830197 5.21411e-17)
(0.788387 -0.0739598 -3.53979e-17)
(0.835563 -0.0709195 1.19743e-16)
(0.826417 -0.0638509 -7.38523e-17)
(0.868204 -0.061258 6.93673e-17)
(0.857331 -0.0557749 2.19886e-17)
(0.89504 -0.0534846 -4.32372e-17)
(0.882698 -0.0492878 4.39942e-17)
(0.917337 -0.0472012 1.0251e-17)
(0.90369 -0.0440506 1.29496e-16)
(0.936058 -0.0421087 -6.84088e-17)
(0.921212 -0.0397893 6.01137e-17)
(0.951953 -0.0379656 4.83696e-17)
(0.935983 -0.0362523 6.12677e-17)
(0.96562 -0.0345415 1.21601e-17)
(0.948589 -0.0331577 1.6909e-17)
(0.977534 -0.031548 9.50169e-17)
(0.959498 -0.0301085 -2.96264e-17)
(0.988027 -0.0285286 3.63735e-17)
(0.969002 -0.0264103 1.79343e-17)
(0.997162 -0.0247397 -3.6383e-17)
(0.977031 -0.0206775 2.79415e-17)
(1.0045 -0.019218 3.25666e-18)
(0.982985 -0.0101198 -2.52857e-17)
(1.00954 -0.0137982 -1.2999e-18)
(0.985149 0.0201118 -3.18857e-17)
(1.02168 -0.0655799 3.77735e-17)
(0.969004 0.194694 3.22319e-17)
(0.172717 -0.342539 4.81287e-17)
(0.209133 -0.288198 1.02503e-16)
(0.367815 -0.268699 4.09756e-16)
(0.386432 -0.225945 -2.61973e-16)
(0.507862 -0.214067 5.88848e-17)
(0.516819 -0.181579 1.14584e-16)
(0.611985 -0.172883 1.81197e-16)
(0.614704 -0.148553 -5.60805e-17)
(0.691464 -0.14162 -5.81484e-18)
(0.689684 -0.123207 9.48037e-18)
(0.753332 -0.117577 2.39956e-16)
(0.748179 -0.103394 -1.17422e-16)
(0.802255 -0.0987902 7.08262e-17)
(0.794526 -0.0877334 -1.15732e-16)
(0.841464 -0.0838966 -4.00423e-17)
(0.831712 -0.0752526 -7.7685e-17)
(0.873259 -0.0719584 1.30895e-16)
(0.861847 -0.0652445 -1.29165e-16)
(0.899302 -0.0623201 1.2474e-16)
(0.88646 -0.0571864 -6.58176e-17)
(0.920825 -0.054514 9.76634e-18)
(0.906686 -0.050691 -1.41135e-16)
(0.938755 -0.0482037 3.42459e-17)
(0.923387 -0.0454647 2.24084e-17)
(0.953814 -0.0431418 -1.25319e-16)
(0.937246 -0.0412658 2.47108e-17)
(0.966592 -0.0391196 -7.1318e-17)
(0.948828 -0.0378489 2.7791e-18)
(0.977603 -0.0358893 -1.26994e-16)
(0.958632 -0.0348722 2.72262e-18)
(0.987348 -0.0330288 -1.19695e-16)
(0.96712 -0.0316837 5.75183e-17)
(0.99641 -0.0297327 -9.70854e-17)
(0.974732 -0.0267884 8.95147e-17)
(1.0056 -0.0245262 -1.5227e-16)
(0.981697 -0.016639 7.65581e-17)
(1.01634 -0.0168914 1.68213e-17)
(0.984051 0.0170481 -4.33638e-17)
(1.03924 -0.0597044 -1.24959e-17)
(0.937083 0.238706 -5.02171e-17)
(0.197118 -0.401332 -5.04515e-17)
(0.229858 -0.339251 -2.32027e-16)
(0.386838 -0.316341 -2.93704e-16)
(0.402212 -0.266082 9.15729e-17)
(0.522525 -0.25208 -2.71546e-17)
(0.529017 -0.213973 2.63077e-17)
(0.623351 -0.203754 -2.04637e-16)
(0.624213 -0.175234 1.26605e-16)
(0.700304 -0.167097 4.27311e-17)
(0.697106 -0.145517 -8.7359e-17)
(0.760201 -0.138909 -2.04734e-16)
(0.753941 -0.122285 6.08964e-17)
(0.80755 -0.116869 2.55884e-17)
(0.798938 -0.103904 1.67331e-16)
(0.845469 -0.0993665 4.5024e-17)
(0.834996 -0.0892246 1.61535e-18)
(0.876171 -0.0852939 -4.47732e-17)
(0.864153 -0.0774089 -6.02888e-19)
(0.901253 -0.0738745 -6.73579e-17)
(0.887873 -0.0678382 -8.53807e-18)
(0.921879 -0.0645529 -1.9914e-17)
(0.907222 -0.0600541 6.25396e-17)
(0.938911 -0.0569267 2.4391e-17)
(0.922988 -0.0537106 -3.10153e-17)
(0.952992 -0.0506984 7.49183e-17)
(0.935743 -0.0485334 -6.00159e-17)
(0.964603 -0.0456289 1.00331e-16)
(0.945895 -0.0442764 -5.54646e-17)
(0.974105 -0.0414697 2.04698e-16)
(0.953707 -0.0406632 -3.87655e-17)
(0.98179 -0.0378612 2.38445e-16)
(0.959287 -0.0372622 -5.94064e-17)
(0.987973 -0.0342264 5.27793e-17)
(0.96256 -0.0331595 -2.12615e-18)
(0.993204 -0.0296962 8.66887e-17)
(0.96315 -0.0261298 -5.93049e-17)
(0.998941 -0.0241626 5.30473e-17)
(0.956954 -0.00128129 -7.30159e-17)
(1.01982 -0.0573311 1.74246e-16)
(0.89093 0.191164 -2.75489e-17)
(0.225103 -0.458184 1.64726e-16)
(0.253253 -0.385764 1.1139e-16)
(0.408811 -0.359541 3.48584e-16)
(0.420848 -0.302355 1.31492e-16)
(0.540349 -0.286354 -1.11179e-17)
(0.544282 -0.242891 -2.51096e-16)
(0.638015 -0.231153 2.08133e-16)
(0.636941 -0.198587 -2.32793e-16)
(0.712534 -0.189201 2.60776e-17)
(0.707846 -0.164533 -1.94366e-17)
(0.770517 -0.156879 2.59889e-16)
(0.763078 -0.137855 -2.78773e-16)
(0.816316 -0.131553 1.09454e-16)
(0.806746 -0.116698 -3.41022e-16)
(0.852939 -0.111392 4.33318e-17)
(0.84167 -0.0997569 -1.00384e-16)
(0.882521 -0.0951368 1.25345e-16)
(0.869825 -0.0860801 -1.25261e-16)
(0.906598 -0.0819029 1.2553e-16)
(0.892624 -0.0749677 8.29412e-18)
(0.926288 -0.0710584 -2.02241e-17)
(0.911089 -0.0659031 -2.24425e-18)
(0.942414 -0.0621461 -5.15283e-17)
(0.925961 -0.0585017 8.88983e-17)
(0.955585 -0.0548269 -6.80855e-17)
(0.937775 -0.0524639 2.76176e-17)
(0.966259 -0.0488224 -8.77489e-17)
(0.946904 -0.0475277 9.93244e-17)
(0.974795 -0.0438282 -3.32343e-16)
(0.953581 -0.0434043 3.64103e-17)
(0.981504 -0.0393747 -2.16431e-16)
(0.957891 -0.0396354 5.72168e-17)
(0.986741 -0.034641 -1.32278e-17)
(0.959665 -0.0352196 -7.42378e-18)
(0.99097 -0.0282256 -6.86777e-17)
(0.95811 -0.0277271 6.67582e-17)
(0.994992 -0.0186545 1.68384e-17)
(0.948286 -0.00443835 -3.57109e-17)
(1.01204 -0.0354347 5.76436e-18)
(0.877324 0.155368 -2.08635e-16)
(0.256943 -0.51325 -1.81387e-16)
(0.28041 -0.433842 -1.56838e-16)
(0.433878 -0.40443 -3.1687e-16)
(0.441748 -0.340201 -5.19919e-16)
(0.559893 -0.322202 -5.37965e-17)
(0.560666 -0.273458 4.16538e-16)
(0.653393 -0.260283 -1.51231e-16)
(0.649944 -0.223775 2.85755e-16)
(0.72473 -0.21325 6.62435e-17)
(0.718233 -0.1856 -1.17875e-16)
(0.780237 -0.177015 -8.06521e-17)
(0.77139 -0.15569 2.12771e-16)
(0.824065 -0.14861 -1.75242e-17)
(0.813377 -0.131953 2.42907e-16)
(0.859079 -0.12597 1.77384e-16)
(0.846905 -0.112914 -1.02785e-16)
(0.887306 -0.107671 1.4572e-16)
(0.873864 -0.0974993 -8.49358e-17)
(0.910201 -0.0927143 9.82883e-17)
(0.895591 -0.084915 -4.9036e-17)
(0.928811 -0.08038 -1.7114e-17)
(0.913036 -0.0745755 3.4866e-17)
(0.943887 -0.0701432 -5.33373e-17)
(0.926867 -0.0660474 -3.00152e-17)
(0.955959 -0.0616149 1.68517e-17)
(0.937526 -0.0590079 3.62865e-17)
(0.965393 -0.0544884 -7.32959e-17)
(0.945273 -0.0532149 2.50147e-16)
(0.972436 -0.0484652 8.68056e-18)
(0.950219 -0.048479 1.78622e-16)
(0.977288 -0.0431366 5.89439e-17)
(0.952342 -0.0445861 -4.26189e-17)
(0.980234 -0.0378405 4.99167e-17)
(0.95149 -0.0409801 -7.19756e-17)
(0.981857 -0.0314224 6.20209e-17)
(0.947349 -0.0358808 -6.24653e-17)
(0.983584 -0.0220008 5.45944e-17)
(0.937266 -0.01943 -1.75095e-16)
(0.998873 -0.0253416 3.17094e-16)
(0.878203 0.0929727 -9.85975e-17)
(0.292126 -0.565945 4.50102e-16)
(0.309731 -0.476699 2.06876e-16)
(0.461328 -0.444202 4.29969e-16)
(0.464963 -0.373566 7.75663e-16)
(0.582022 -0.353714 2.53342e-16)
(0.579549 -0.30002 -4.35754e-16)
(0.671472 -0.285436 6.5701e-17)
(0.665571 -0.245187 -3.58972e-16)
(0.739696 -0.233503 -1.81078e-16)
(0.731319 -0.202995 3.00614e-16)
(0.792765 -0.193436 3.31919e-17)
(0.782441 -0.169887 -1.18782e-16)
(0.834637 -0.161976 9.14367e-17)
(0.822765 -0.143564 -3.22994e-16)
(0.868039 -0.136853 -5.46751e-17)
(0.854903 -0.122405 1.60386e-17)
(0.894905 -0.116496 -1.32183e-16)
(0.880672 -0.105224 -1.81616e-17)
(0.916619 -0.0998005 -7.59064e-17)
(0.901352 -0.0911444 7.1791e-17)
(0.934175 -0.0859634 3.70672e-17)
(0.91785 -0.0795131 2.91841e-17)
(0.948283 -0.0743904 2.38625e-17)
(0.930793 -0.0698401 1.0561e-16)
(0.95944 -0.0646251 -1.7476e-16)
(0.940591 -0.0617513 2.3931e-16)
(0.96798 -0.056286 -1.62428e-16)
(0.947477 -0.0549575 9.24375e-18)
(0.974117 -0.0489812 -2.65346e-16)
(0.951531 -0.0492344 1.32652e-16)
(0.977999 -0.0421844 -2.18681e-16)
(0.952701 -0.0443666 2.14453e-16)
(0.979814 -0.0351012 -2.62062e-16)
(0.950798 -0.039889 3.21512e-16)
(0.980012 -0.0265604 -2.86658e-16)
(0.945595 -0.0344744 1.9527e-16)
(0.979938 -0.0149485 -1.18613e-16)
(0.936013 -0.0224704 4.95139e-17)
(0.991461 -0.00829703 -5.23175e-17)
(0.893155 0.0378898 -2.63365e-16)
(0.330856 -0.616353 -8.0013e-16)
(0.342874 -0.520973 -4.62661e-16)
(0.492019 -0.485555 -3.71036e-16)
(0.490635 -0.408455 -9.27402e-16)
(0.606117 -0.386763 -3.06253e-16)
(0.59984 -0.328216 2.30436e-16)
(0.690596 -0.312305 -5.1559e-17)
(0.681842 -0.26843 4.50032e-16)
(0.755031 -0.255692 2.64835e-16)
(0.744485 -0.222439 -3.34717e-16)
(0.805161 -0.212016 -1.20564e-16)
(0.793153 -0.186347 -9.85765e-17)
(0.844701 -0.17771 -8.37276e-18)
(0.8315 -0.157635 9.83786e-17)
(0.876209 -0.150287 9.83969e-17)
(0.862012 -0.134525 -4.72528e-17)
(0.901499 -0.128026 1.85358e-16)
(0.886411 -0.115717 -1.86846e-17)
(0.921865 -0.109712 2.37645e-16)
(0.905902 -0.100246 -2.49426e-16)
(0.93823 -0.0944577 3.59869e-17)
(0.92133 -0.0873919 -9.75547e-17)
(0.951241 -0.0816025 -3.91604e-17)
(0.933267 -0.0766153 -8.97857e-18)
(0.96134 -0.0706361 -1.10593e-16)
(0.942076 -0.0675139 1.1119e-16)
(0.968811 -0.0611404 -2.08366e-16)
(0.947957 -0.0598015 3.31778e-16)
(0.97383 -0.0527079 -1.33274e-16)
(0.950998 -0.0533135 8.14029e-18)
(0.976538 -0.0448311 3.83711e-17)
(0.951251 -0.047984 -3.59462e-18)
(0.977213 -0.036804 -1.76852e-17)
(0.94884 -0.0436296 -3.948e-18)
(0.976615 -0.0276834 9.73713e-18)
(0.944272 -0.0394334 3.52229e-18)
(0.976702 -0.0160516 1.05601e-16)
(0.938657 -0.0329545 -1.45081e-16)
(0.986628 -0.000458024 2.97653e-16)
(0.917235 -0.0192694 -2.99166e-17)
(0.372638 -0.663988 7.03812e-16)
(0.3776 -0.559454 4.59612e-16)
(0.524466 -0.521241 3.3828e-16)
(0.518023 -0.438364 7.80498e-16)
(0.632172 -0.414999 1.76577e-16)
(0.622022 -0.351991 1.95143e-16)
(0.711789 -0.334807 -8.27841e-17)
(0.700112 -0.28756 -2.12806e-16)
(0.772493 -0.273771 -3.6734e-16)
(0.759713 -0.237939 3.67384e-16)
(0.81971 -0.22663 -3.23332e-18)
(0.805959 -0.19895 4.00443e-16)
(0.856928 -0.189553 -4.06445e-17)
(0.842343 -0.167885 8.19434e-17)
(0.886545 -0.159865 4.53298e-17)
(0.87124 -0.142833 1.17111e-16)
(0.910263 -0.135711 -2.28112e-16)
(0.89429 -0.122389 8.9074e-17)
(0.929301 -0.115774 -2.16e-16)
(0.912641 -0.105506 3.29851e-16)
(0.944526 -0.0990869 -8.40754e-17)
(0.927095 -0.0913942 9.84507e-17)
(0.95655 -0.0849134 2.66705e-17)
(0.938198 -0.0794501 1.82138e-16)
(0.965785 -0.0726713 -1.71062e-16)
(0.946301 -0.0692099 1.78101e-16)
(0.972494 -0.0618636 -1.2628e-16)
(0.951602 -0.0603353 -3.39134e-18)
(0.976831 -0.0520039 -1.2882e-16)
(0.954212 -0.0526337 1.62458e-16)
(0.978913 -0.0425261 -1.43615e-16)
(0.954241 -0.0460891 3.11248e-17)
(0.978989 -0.0327592 -1.76441e-17)
(0.951955 -0.0407526 1.88833e-16)
(0.977866 -0.022116 -3.02609e-16)
(0.948218 -0.0365434 1.97712e-16)
(0.977688 -0.0101298 -1.81392e-16)
(0.945821 -0.0348782 1.01688e-16)
(0.984423 0.0101189 -2.28064e-16)
(0.945799 -0.0647109 -1.62941e-16)
(0.417591 -0.708889 -1.92313e-16)
(0.416178 -0.599163 -2.46628e-16)
(0.560264 -0.558339 -3.11652e-16)
(0.548035 -0.469686 -5.04657e-16)
(0.660406 -0.444668 -3.35539e-16)
(0.645872 -0.377317 -3.9084e-16)
(0.734329 -0.358938 7.56738e-17)
(0.719365 -0.308444 1.27749e-16)
(0.790697 -0.293705 7.13375e-17)
(0.775422 -0.255414 -6.64236e-18)
(0.834558 -0.243326 -9.25735e-17)
(0.818876 -0.213744 -4.85044e-16)
(0.869123 -0.20369 -9.0613e-17)
(0.853023 -0.180529 -3.24785e-16)
(0.896601 -0.171931 -5.1667e-17)
(0.8801 -0.153717 -3.69941e-16)
(0.918561 -0.146058 3.26319e-16)
(0.901647 -0.131799 -3.45841e-16)
(0.936127 -0.124654 3.01831e-16)
(0.918739 -0.113648 -4.96979e-16)
(0.950103 -0.106676 1.58064e-16)
(0.932128 -0.0984108 -1.46037e-16)
(0.961051 -0.0913246 -4.55686e-17)
(0.942332 -0.0854352 -1.17079e-17)
(0.969355 -0.0779662 -8.13811e-17)
(0.949696 -0.0742218 2.49926e-16)
(0.97527 -0.0660632 -1.90611e-16)
(0.954452 -0.0644131 2.10528e-16)
(0.978968 -0.0551011 4.82511e-17)
(0.956799 -0.0558346 -5.7445e-17)
(0.980621 -0.0445175 1.22624e-16)
(0.957032 -0.0485503 -1.23935e-17)
(0.980605 -0.0337258 -1.8837e-17)
(0.95573 -0.0428174 -1.03777e-16)
(0.97995 -0.0224293 2.94663e-16)
(0.954212 -0.0390349 -2.969e-16)
(0.980938 -0.0106799 2.89567e-16)
(0.956453 -0.0411096 -2.55113e-16)
(0.985096 0.0143129 3.35802e-16)
(0.977222 -0.102979 3.19374e-17)
(0.465258 -0.75065 6.59798e-17)
(0.455701 -0.632626 1.89743e-16)
(0.597149 -0.589348 2.32243e-16)
(0.579124 -0.495648 3.79315e-16)
(0.689943 -0.469168 4.82142e-16)
(0.670977 -0.397922 3.63342e-16)
(0.758282 -0.378429 3.98113e-18)
(0.739979 -0.324987 1.74632e-16)
(0.810371 -0.309325 -4.19741e-17)
(0.79255 -0.268776 2.35765e-17)
(0.850902 -0.255906 8.84822e-17)
(0.833239 -0.224559 4.73836e-16)
(0.882823 -0.213832 3.46001e-16)
(0.865161 -0.189269 4.641e-16)
(0.908162 -0.180071 4.48447e-17)
(0.890427 -0.160733 5.4487e-16)
(0.928367 -0.152513 -4.59117e-16)
(0.910488 -0.137351 5.78471e-16)
(0.94448 -0.129654 -2.50717e-16)
(0.926361 -0.11792 4.27908e-16)
(0.957249 -0.110376 -1.1487e-16)
(0.93876 -0.101524 1.38708e-16)
(0.967204 -0.0938146 -8.38753e-17)
(0.948191 -0.0874514 8.23151e-17)
(0.974713 -0.0792756 2.15836e-17)
(0.955001 -0.0751464 -2.67313e-16)
(0.980026 -0.0661606 2.28222e-16)
(0.959455 -0.0642082 -2.72982e-16)
(0.98332 -0.0539115 5.8836e-17)
(0.961815 -0.0544479 -1.73321e-16)
(0.984775 -0.0419611 7.7475e-17)
(0.962481 -0.0459976 -1.99042e-16)
(0.98478 -0.0298341 1.41704e-16)
(0.962189 -0.0393485 8.44906e-18)
(0.984394 -0.0176391 -1.42737e-16)
(0.962441 -0.0354864 2.61373e-16)
(0.985834 -0.00627896 -2.26192e-16)
(0.968088 -0.04063 1.89947e-16)
(0.986714 0.0198917 -1.33047e-16)
(1.00738 -0.127247 -2.13687e-16)
(0.515667 -0.789289 -4.87875e-16)
(0.499066 -0.667085 8.5434e-18)
(0.637448 -0.621548 -3.52765e-16)
(0.612968 -0.522856 -2.55227e-16)
(0.721835 -0.494936 -4.45746e-16)
(0.697975 -0.419929 -3.24382e-16)
(0.783844 -0.399395 -2.18268e-16)
(0.761876 -0.343141 -1.14292e-16)
(0.831121 -0.326653 -4.95243e-16)
(0.810521 -0.283973 2.71715e-16)
(0.867931 -0.270424 -3.39264e-16)
(0.848125 -0.237429 -2.67142e-16)
(0.896925 -0.22613 -7.18152e-16)
(0.877587 -0.200271 -4.44565e-16)
(0.919918 -0.190571 -2.19451e-16)
(0.900872 -0.170205 -2.7759e-16)
(0.938215 -0.161521 3.69475e-16)
(0.919324 -0.145541 -5.372e-16)
(0.952764 -0.13739 3.93147e-16)
(0.933888 -0.125007 -5.12145e-16)
(0.964249 -0.116996 2.70491e-16)
(0.945243 -0.107633 -2.40468e-16)
(0.973167 -0.0994267 1.67665e-16)
(0.953876 -0.0926622 -9.45714e-17)
(0.979874 -0.0839406 7.71378e-17)
(0.960161 -0.0795041 8.67509e-17)
(0.984638 -0.0699088 2.33824e-17)
(0.964414 -0.0677273 2.11084e-17)
(0.987675 -0.0567474 1.92898e-16)
(0.96701 -0.057135 -3.42809e-17)
(0.989226 -0.0438908 1.63933e-16)
(0.968504 -0.0478881 -9.64855e-17)
(0.989743 -0.0309324 1.83328e-16)
(0.9698 -0.0405863 -1.65728e-16)
(0.990302 -0.0181973 1.6785e-16)
(0.97246 -0.0364759 -2.10357e-16)
(0.992828 -0.0069946 1.1202e-16)
(0.981542 -0.0427923 -1.64966e-16)
(0.990712 0.0205877 4.48711e-17)
(1.03552 -0.141608 2.80066e-18)
(0.568405 -0.824462 6.48658e-16)
(0.542703 -0.69497 -9.46595e-19)
(0.678135 -0.647368 2.33834e-16)
(0.647225 -0.544446 4.30289e-16)
(0.75435 -0.515301 2.73291e-16)
(0.72558 -0.437032 5.22101e-16)
(0.810157 -0.415561 1.04088e-16)
(0.784492 -0.356834 2.93419e-16)
(0.852685 -0.339566 4.09635e-16)
(0.82927 -0.294989 -1.03545e-16)
(0.885807 -0.280776 1.51552e-16)
(0.863816 -0.246295 3.88422e-16)
(0.911881 -0.234422 6.74135e-16)
(0.890828 -0.207378 5.70095e-16)
(0.932523 -0.197166 2.36402e-16)
(0.912131 -0.175846 1.13555e-16)
(0.948906 -0.166684 -4.10526e-16)
(0.928975 -0.14993 4.74511e-16)
(0.961889 -0.141313 -3.96145e-16)
(0.942244 -0.1283 2.33143e-16)
(0.972102 -0.119815 7.14612e-18)
(0.952578 -0.109933 2.23071e-17)
(0.980008 -0.101227 6.83167e-17)
(0.960461 -0.0940284 -1.10435e-16)
(0.98596 -0.0847716 9.42532e-17)
(0.966274 -0.0799534 -3.02015e-16)
(0.990229 -0.0697838 1.91711e-16)
(0.97038 -0.0672484 -3.07888e-16)
(0.993054 -0.0556686 5.03635e-17)
(0.973218 -0.0557088 -1.93476e-16)
(0.994687 -0.0418786 9.40069e-17)
(0.975433 -0.0455359 -1.79252e-16)
(0.99556 -0.0280973 1.20499e-16)
(0.977982 -0.0374443 -3.45765e-16)
(0.996669 -0.0148953 2.79193e-16)
(0.982341 -0.0329081 -1.19569e-16)
(0.999601 -0.00406313 2.25e-17)
(0.993553 -0.0396858 1.94725e-16)
(0.994811 0.0220352 -9.83621e-17)
(1.05807 -0.142705 1.90759e-16)
(0.623409 -0.85619 -6.83952e-16)
(0.590123 -0.723588 2.65938e-16)
(0.72225 -0.674114 -5.58075e-16)
(0.684322 -0.567063 -2.05247e-16)
(0.789352 -0.536717 -5.98094e-16)
(0.755259 -0.455333 -2.2986e-16)
(0.838297 -0.432994 -1.28591e-16)
(0.808647 -0.371938 -3.183e-17)
(0.875611 -0.353982 -6.89556e-16)
(0.84918 -0.30764 4.02712e-16)
(0.904711 -0.292864 -2.84518e-16)
(0.880396 -0.257016 -3.09377e-16)
(0.927626 -0.244669 -5.77658e-16)
(0.904764 -0.21655 -6.79283e-16)
(0.945749 -0.205925 -2.789e-16)
(0.923951 -0.183752 -6.00574e-17)
(0.960102 -0.174211 3.31988e-16)
(0.939096 -0.156779 -3.30759e-16)
(0.971442 -0.147801 2.4135e-16)
(0.951011 -0.134246 -1.89184e-16)
(0.980339 -0.125404 1.42178e-16)
(0.960297 -0.115092 -2.03044e-16)
(0.987226 -0.106027 5.80745e-17)
(0.967429 -0.0984812 -8.10465e-17)
(0.992445 -0.0888618 2.06339e-16)
(0.972811 -0.0837546 -2.42729e-17)
(0.996294 -0.0732304 1.66959e-16)
(0.976855 -0.0704279 1.3141e-17)
(0.999038 -0.0585218 3.19636e-16)
(0.980075 -0.058273 -1.92424e-16)
(1.00096 -0.0441895 3.91327e-16)
(0.983196 -0.0474717 -2.61994e-16)
(1.00247 -0.029934 3.48568e-16)
(0.987184 -0.0387225 -7.41762e-17)
(1.0044 -0.0163764 2.49773e-16)
(0.993264 -0.0334303 -4.57718e-16)
(1.00786 -0.00543974 3.75658e-16)
(1.00588 -0.0388501 -4.2287e-16)
(1.00085 0.0194398 1.1175e-16)
(1.07507 -0.135364 -1.0285e-16)
(0.680321 -0.884175 7.04545e-16)
(0.637123 -0.74543 5.69966e-17)
(0.766047 -0.694315 1.76627e-16)
(0.721166 -0.583928 5.82694e-16)
(0.824298 -0.552615 6.26708e-16)
(0.7849 -0.468657 2.83072e-16)
(0.866531 -0.445575 -1.23859e-16)
(0.83289 -0.382564 1.3656e-16)
(0.898712 -0.363985 4.81565e-16)
(0.869244 -0.316139 -2.9434e-16)
(0.923828 -0.30083 2.3359e-16)
(0.897161 -0.263802 3.20846e-16)
(0.943595 -0.250992 4.88645e-16)
(0.91889 -0.221929 4.33895e-16)
(0.959191 -0.210892 4.33056e-16)
(0.935949 -0.187955 -1.24932e-17)
(0.971492 -0.178035 -1.88813e-16)
(0.949374 -0.159981 1.17713e-16)
(0.981162 -0.15064 -1.35016e-17)
(0.959911 -0.136578 -1.80069e-17)
(0.988709 -0.127381 7.6229e-17)
(0.968119 -0.116649 -9.38179e-17)
(0.994536 -0.107236 2.34458e-16)
(0.974457 -0.0993345 -3.49097e-16)
(0.998977 -0.0893823 1.54856e-16)
(0.979339 -0.0839558 -3.43518e-16)
(1.00233 -0.0731347 5.89643e-17)
(0.983205 -0.0700143 -2.44469e-16)
(1.00488 -0.057894 -2.38698e-17)
(0.986612 -0.0572774 -1.35669e-16)
(1.0069 -0.0431313 -1.84201e-16)
(0.990315 -0.045923 5.69923e-17)
(1.00874 -0.0285729 -1.6151e-16)
(0.995221 -0.0366171 -1.93708e-16)
(1.01105 -0.0148739 6.38591e-17)
(1.00226 -0.0306315 2.05067e-16)
(1.0145 -0.00407728 -9.88566e-17)
(1.01508 -0.03428 2.65178e-16)
(1.00632 0.0174481 -1.59295e-16)
(1.08387 -0.118445 2.37132e-16)
(0.738984 -0.90846 -7.16116e-16)
(0.687793 -0.767715 -3.78557e-16)
(0.813226 -0.715145 -2.96686e-16)
(0.76088 -0.60156 -2.18881e-16)
(0.861805 -0.569304 -1.02894e-15)
(0.816744 -0.482931 -1.20447e-16)
(0.896755 -0.459168 -9.33481e-17)
(0.858877 -0.394352 -1.7716e-18)
(0.923406 -0.375236 -4.11215e-16)
(0.890732 -0.326022 2.2357e-16)
(0.94426 -0.310275 -1.79438e-17)
(0.915126 -0.272186 -5.27002e-16)
(0.960688 -0.259011 -2.23559e-16)
(0.934065 -0.229113 -3.41607e-16)
(0.973627 -0.217761 -2.27061e-16)
(0.948898 -0.194161 -5.14153e-17)
(0.983795 -0.183958 3.6947e-16)
(0.960545 -0.165378 -2.69465e-16)
(0.991753 -0.155777 3.09148e-16)
(0.969671 -0.141298 -3.84241e-16)
(0.997939 -0.13186 2.36782e-16)
(0.976794 -0.120801 -1.35002e-16)
(1.00272 -0.11117 2.62804e-17)
(0.982352 -0.103011 6.99778e-17)
(1.00641 -0.0928765 1.96353e-16)
(0.986763 -0.0872359 1.05915e-16)
(1.00933 -0.0762994 1.06749e-16)
(0.990487 -0.0729705 1.14522e-16)
(1.01175 -0.0608413 8.97784e-17)
(0.994102 -0.0599602 1.61438e-16)
(1.01394 -0.0459701 1.76438e-16)
(0.998358 -0.0483311 -3.90863e-17)
(1.01616 -0.0313767 1.71528e-16)
(1.00405 -0.0386223 2.05842e-16)
(1.01881 -0.0176008 7.11046e-17)
(1.0117 -0.0317598 -3.78035e-16)
(1.0221 -0.00654469 3.65275e-16)
(1.02368 -0.0324403 -3.24772e-16)
(1.01324 0.0121839 1.33173e-16)
(1.0859 -0.097512 -1.88897e-16)
(0.799098 -0.928778 9.39321e-16)
(0.737355 -0.783148 8.41526e-16)
(0.859387 -0.729393 2.33264e-16)
(0.799686 -0.613423 2.57127e-16)
(0.898591 -0.580478 8.25947e-16)
(0.847926 -0.492262 9.42396e-17)
(0.92644 -0.467963 1.75571e-16)
(0.884346 -0.401743 1.35511e-16)
(0.947661 -0.382172 1.6566e-16)
(0.911782 -0.331873 -1.5086e-16)
(0.964305 -0.315735 -4.67963e-17)
(0.932689 -0.276791 3.88244e-16)
(0.977409 -0.263276 2.81744e-16)
(0.948841 -0.232692 2.38817e-16)
(0.987681 -0.221037 4.26701e-17)
(0.961429 -0.196882 -6.10201e-18)
(0.995683 -0.186406 -3.45989e-16)
(0.971257 -0.167373 1.10103e-16)
(1.00187 -0.15752 -3.31673e-17)
(0.978914 -0.142675 9.82661e-17)
(1.00662 -0.133007 3.12654e-17)
(0.984868 -0.121652 -4.65889e-17)
(1.01025 -0.111821 1.41827e-16)
(0.989525 -0.103421 -1.90841e-16)
(1.01307 -0.0931397 -2.2719e-17)
(0.993296 -0.0872955 -3.06102e-16)
(1.01537 -0.0762965 1.26972e-16)
(0.996641 -0.0727725 -3.04484e-16)
(1.01743 -0.0607192 1.16201e-16)
(1.00014 -0.0595986 -3.37778e-16)
(1.01949 -0.0458909 -7.5815e-17)
(1.00451 -0.0478706 -4.72454e-17)
(1.0217 -0.0314732 -2.19612e-16)
(1.01041 -0.037996 -2.1199e-16)
(1.02427 -0.0178796 -1.86465e-16)
(1.01799 -0.0305309 1.73632e-16)
(1.02706 -0.0068593 -2.13966e-16)
(1.02828 -0.0283918 1.22816e-16)
(1.01886 0.00782075 -6.68812e-17)
(1.07977 -0.0725573 2.88963e-16)
(0.860424 -0.945213 -1.08428e-15)
(0.790411 -0.798717 -8.44386e-16)
(0.908824 -0.743949 -5.03715e-16)
(0.841334 -0.625765 6.28106e-17)
(0.937957 -0.592148 -7.28521e-16)
(0.88138 -0.502257 1.35787e-16)
(0.958219 -0.477477 -4.01232e-16)
(0.911703 -0.410006 -1.15795e-16)
(0.973682 -0.39006 1.68553e-18)
(0.93446 -0.338812 2.02759e-16)
(0.985891 -0.32237 8.66821e-17)
(0.951705 -0.28269 -1.98607e-16)
(0.995524 -0.268924 -1.2416e-16)
(0.964959 -0.23776 -4.60604e-16)
(1.00304 -0.225893 1.1758e-16)
(0.975233 -0.201278 2.82831e-18)
(1.00883 -0.190615 3.36565e-16)
(0.983213 -0.171221 -2.62878e-16)
(1.01324 -0.161207 1.51893e-16)
(0.989398 -0.146081 -1.95723e-16)
(1.01656 -0.13628 5.37816e-17)
(0.9942 -0.124714 -5.76256e-18)
(1.01908 -0.11479 -1.64451e-16)
(0.997988 -0.10624 1.78823e-17)
(1.02106 -0.0959264 2.7595e-16)
(1.00114 -0.0899818 1.27463e-17)
(1.02278 -0.079045 6.66253e-17)
(1.0041 -0.0754494 1.37643e-16)
(1.02449 -0.0635945 2.00159e-17)
(1.00742 -0.0623877 1.69594e-16)
(1.02637 -0.0490624 7.30322e-17)
(1.01174 -0.0508396 2.22947e-16)
(1.02847 -0.0350491 7.75679e-17)
(1.01757 -0.0410457 3.69041e-16)
(1.03074 -0.0217589 1.95824e-16)
(1.02458 -0.0330805 -5.79512e-17)
(1.03274 -0.0105943 1.58664e-16)
(1.03224 -0.0277837 -7.59565e-18)
(1.0254 0.00104142 -8.86852e-17)
(1.06852 -0.0492266 -9.44588e-17)
(0.922714 -0.957518 1.10265e-15)
(0.841693 -0.807483 7.91601e-16)
(0.956567 -0.752006 4.13843e-16)
(0.881449 -0.632431 1.095e-16)
(0.975966 -0.598415 3.13727e-16)
(0.913579 -0.507445 -9.35201e-18)
(0.98886 -0.482346 3.41884e-16)
(0.937977 -0.414044 8.50227e-17)
(0.998692 -0.393821 -1.16692e-16)
(0.956149 -0.341926 -1.68388e-16)
(1.00654 -0.325241 1.06746e-16)
(0.96978 -0.285049 -6.45164e-17)
(1.01272 -0.271069 -5.5071e-17)
(0.980142 -0.23949 6.58503e-16)
(1.01747 -0.227434 -3.78682e-16)
(0.988084 -0.202482 1.12896e-16)
(1.02101 -0.191656 -1.37967e-16)
(0.994164 -0.171989 4.2125e-18)
(1.02356 -0.161833 1.9913e-16)
(0.998791 -0.146492 -1.05515e-16)
(1.02536 -0.136579 8.77642e-17)
(1.00231 -0.12485 6.05968e-17)
(1.02662 -0.114858 1.0007e-16)
(1.00506 -0.106197 -1.72631e-16)
(1.02757 -0.0958772 1.13451e-16)
(1.00736 -0.0898733 -2.62102e-16)
(1.02845 -0.0790251 3.30174e-17)