/*--------------------------------*- C++ -*----------------------------------*\
| =========                 |                                                 |
| \\      /  F ield         | foam-extend: Open Source CFD                    |
|  \\    /   O peration     | Version:  3.0                                   |
|   \\  /    A nd           | Web:         http://www.extend-project.de       |
|    \\/     M anipulation  |                                                 |
\*---------------------------------------------------------------------------*/
FoamFile
{
    version     2.0;
    format      ascii;
    class       volScalarField;
    location    "47";
    object      p;
}
// * * * * * * * * * * * * * * * * * * * * * * * * * * * * * * * * * * * * * //

dimensions      [0 0 0 0 0 0 0];

internalField   nonuniform List<scalar> 
672
(
-0.2334584752
-0.1981435643
-0.1869968744
-0.1684937238
-0.1659394522
-0.1553268388
-0.1563978485
-0.1499581278
-0.151700991
-0.1470951112
-0.1468747741
-0.1418366454
-0.2305396872
-0.1956651715
-0.1846566607
-0.1663841018
-0.1638606472
-0.1533805106
-0.1544371254
-0.1480779021
-0.1497985541
-0.1452493377
-0.1450325356
-0.1400527544
-0.2246832514
-0.1906953889
-0.1799673462
-0.1621597982
-0.1597013057
-0.1494879806
-0.1505184508
-0.1443213233
-0.1459980673
-0.1415654804
-0.141352303
-0.1365017674
-0.2160407024
-0.1833592194
-0.1730426817
-0.1559197838
-0.1535548382
-0.1437346502
-0.1447246476
-0.1387663699
-0.1403783881
-0.1361158784
-0.1359117702
-0.1312441766
-0.2046420512
-0.1736858861
-0.1639144212
-0.1476963646
-0.1454568674
-0.13615628
-0.1370944308
-0.1314521117
-0.1329785668
-0.1289426227
-0.1287473569
-0.124327232
-0.1907100088
-0.1618603837
-0.1527531243
-0.1376390659
-0.1355511694
-0.1268842852
-0.1277577854
-0.1225004639
-0.1239223901
-0.1201614691
-0.1199793007
-0.115857451
-0.1743393992
-0.1479674445
-0.1396426058
-0.1258278892
-0.1239197188
-0.1159990957
-0.1167979061
-0.1119943013
-0.1132939887
-0.1098577934
-0.1096904181
-0.1059221608
-0.155817282
-0.132246098
-0.1248048081
-0.1124576845
-0.1107515672
-0.1036729911
-0.1043861885
-0.1000940096
-0.1012544273
-0.09818419301
-0.09803284078
-0.09466335074
-0.135294257
-0.1148290417
-0.1083683301
-0.09764988839
-0.09616873786
-0.09002555537
-0.09064488622
-0.08692127872
-0.08792877267
-0.08526498599
-0.08513347127
-0.08220556192
-0.1131115704
-0.09600063686
-0.09059845314
-0.08163722638
-0.08039850137
-0.07526299835
-0.07578030375
-0.07266827544
-0.07350939471
-0.07128362166
-0.07117131443
-0.06872368863
-0.08946394606
-0.0759316862
-0.07165912854
-0.06457420117
-0.06359436256
-0.05953633567
-0.05994509578
-0.05748787492
-0.05815252879
-0.05639455577
-0.05630527964
-0.05436458567
-0.06473371473
-0.05494081653
-0.05184858435
-0.04672208829
-0.04601284886
-0.04307726616
-0.04337276843
-0.04159619366
-0.04207600292
-0.04080571198
-0.0407384282
-0.03933558785
-0.03914611231
-0.03322526933
-0.03135517848
-0.02825841801
-0.02782911602
-0.02605878437
-0.0262366912
-0.02516791135
-0.02545686808
-0.02469199693
-0.02465015652
-0.02379507337
-0.01310912924
-0.01112503378
-0.01049773716
-0.009462248155
-0.009317982047
-0.0087284582
-0.008787277186
-0.008434036111
-0.008528472237
-0.008276384346
-0.008257577291
-0.007969685922
0.013136397
0.01114909557
0.01052287868
0.009477042194
0.009334175692
0.008729355552
0.008790968065
0.008419330896
0.008520035066
0.008254694924
0.008246282617
0.007971708575
0.03917372046
0.03324983836
0.031380822
0.0282742986
0.02784640428
0.02606160619
0.02624232993
0.0251560946
0.02545136743
0.02467394768
0.02464259273
0.02380079779
0.06476198038
0.05496636044
0.05187518602
0.04674007668
0.04603215677
0.04308383865
0.04338179562
0.04158992838
0.04207511991
0.04079400451
0.04073568725
0.03934453863
0.08949307411
0.07595856121
0.07168703034
0.06459512418
0.06361656312
0.05954815478
0.05995920825
0.05748946118
0.05815904551
0.05639237389
0.05631132215
0.05438137336
0.1131417193
0.09602909636
0.09062792622
0.08166174747
0.08042424591
0.07528133063
0.07580064167
0.07267961998
0.07352486552
0.07129307047
0.0711876445
0.06874898412
0.1353253627
0.1148591363
0.108399364
0.09767831231
0.09619823586
0.09005105265
0.09067185728
0.08694338328
0.08795357474
0.085286974
0.08515991672
0.08223838187
0.155849235
0.1322777356
0.1248373579
0.1124901044
0.1107850156
0.1037060191
0.1044204742
0.1001275868
0.1012900796
0.09822008989
0.09807214025
0.09470727966
0.1743718133
0.1480002955
0.1396762678
0.1258639577
0.1239566611
0.1160392822
0.1168388313
0.1120389022
0.113339251
0.1099066416
0.1097402291
0.1059738905
0.1907424513
0.1618939565
0.1527874158
0.1376782162
0.1355910011
0.1269309275
0.1278046221
0.1225552102
0.123976488
0.1202223119
0.1200389965
0.1159164056
0.2046738356
0.1737194755
0.1639486292
0.1477375968
0.1454987179
0.136208004
0.1371461657
0.1315152831
0.1330405064
0.1290138594
0.1288163377
0.1243939477
0.2160711214
0.1833919964
0.1730759007
0.1559619486
0.153597301
0.1437897747
0.1447790573
0.1388355666
0.1404447547
0.1361940198
0.1359851533
0.1313123087
0.224711372
0.1907263368
0.1799986439
0.1622013621
0.1597431433
0.14954432
0.1505740068
0.1443937463
0.1460673213
0.141647893
0.1414291339
0.1365722456
0.2305646996
0.1956932916
0.1846849047
0.166423582
0.163900111
0.1534358158
0.1544912276
0.1481503774
0.1498670998
0.1453319471
0.1451084043
0.1401203632
0.2334792375
0.1981676067
0.1870210208
0.1685292593
0.1659749802
0.155378428
0.1564481512
0.1500271061
0.1517655905
0.1471738607
0.1469456965
0.1418983326
0.2334961405
0.198180675
0.187031969
0.16853802
0.1659822625
0.1553846079
0.1564532581
0.150031535
0.1517697552
0.1471765589
0.1469495364
0.1418970027
0.2305376004
0.1956699569
0.1846634303
0.1664037137
0.1638814557
0.1534174192
0.1544736788
0.148132444
0.1498492018
0.1453142659
0.1450891768
0.1401051032
0.2247184187
0.1907293893
0.1799993748
0.1621992149
0.1597393394
0.1495384378
0.1505668392
0.1443847927
0.1460576091
0.1416356787
0.1414169601
0.1365542837
0.2160340663
0.1833587531
0.1730442091
0.1559315211
0.1535677125
0.1437599751
0.1447497751
0.1388052564
0.1404143238
0.136162761
0.1359524096
0.1312817395
0.2046719004
0.173713338
0.163940038
0.1477254615
0.1454848606
0.1361911577
0.1371279451
0.1314943249
0.1330183713
0.1289885551
0.1287899352
0.1243621747
0.1906962616
0.1618517414
0.1527464169
0.1376384394
0.1355515813
0.1268913296
0.1277649979
0.1225145867
0.1239352966
0.1201797809
0.1199948433
0.1158717915
0.1743622088
0.1479862753
0.1396597326
0.1258433366
0.1239343716
0.1160132901
0.1168115585
0.1120082023
0.1133072264
0.109871157
0.1097028424
0.1059325105
0.1557952662
0.1322279843
0.1247885035
0.1124426955
0.1107374654
0.1036587514
0.1043725798
0.1000792743
0.101240676
0.09816930725
0.09801957959
0.09465131403
0.1353097157
0.1148388953
0.1083765908
0.09765110972
0.09616944967
0.09001817858
0.09063777571
0.08690564709
0.08791424625
0.08524438535
0.0851144136
0.08219028275
0.1130817625
0.09597362546
0.09057308868
0.08160874844
0.08037068653
0.07522876485
0.0757469941
0.07262642656
0.07347036552
0.07123747911
0.07113064989
0.06868635714
0.0894732066
0.07593398643
0.07165991821
0.06456346122
0.06358335553
0.05951083943
0.0599206195
0.05744749073
0.05811498704
0.0563457227
0.05626055392
0.05432903399
0.0646981354
0.05490723368
0.05181650346
0.0466836661
0.04597486112
0.04302831049
0.04332481903
0.04153439523
0.04201812689
0.04073649677
0.04067718622
0.03927900035
0.03915155714
0.03322292727
0.03135136955
0.02824034282
0.02781091184
0.02602220532
0.02620159675
0.02511243684
0.02540535212
0.02462605461
0.02459001292
0.0237475451
0.01307094612
0.01108849773
0.01046263012
0.009419380434
0.009275427645
0.00867295135
0.008732804668
0.008363413689
0.008462312398
0.008197090085
0.008187518626
0.007905061115
-0.01313163117
-0.01115226063
-0.01052751065
-0.009496396754
-0.009353673439
-0.008767828173
-0.008827968507
-0.008477331579
-0.00857404857
-0.008323487701
-0.008309186194
-0.00802148802
-0.03921082413
-0.03328513258
-0.03141466681
-0.02831525534
-0.02788703174
-0.02611423873
-0.02629396748
-0.02522274319
-0.02551371104
-0.02474845968
-0.02470813554
-0.02386087664
-0.06475461904
-0.05496637148
-0.05187669654
-0.04675442663
-0.04604677521
-0.04311470073
-0.04341156105
-0.04163748362
-0.04211949442
-0.04085081442
-0.04078772535
-0.03938562621
-0.0895256305
-0.07598866869
-0.07171558292
-0.06462821913
-0.06364920339
-0.05958912712
-0.05999939339
-0.05754028765
-0.05820669921
-0.05644864247
-0.05636091189
-0.05442674532
-0.1131289972
-0.09602259891
-0.09062298051
-0.08166582156
-0.08042875834
-0.07529665199
-0.07581541036
-0.07270594746
-0.07354925291
-0.07132551886
-0.07121709969
-0.0687716932
-0.1353508005
-0.1148811322
-0.1084196382
-0.09769916142
-0.0962184014
-0.09007393019
-0.09069422378
-0.08696976233
-0.08797856708
-0.08531528967
-0.08518533517
-0.08226190088
-0.1558294494
-0.1322626538
-0.1248239092
-0.1124806654
-0.1107762331
-0.1037009661
-0.104415577
-0.1001261761
-0.1012884333
-0.0982209148
-0.09807255993
-0.09470681448
-0.1743889673
-0.1480128428
-0.1396869147
-0.1258705764
-0.123962295
-0.1160411748
-0.1168403796
-0.1120369551
-0.1133376585
-0.109902474
-0.1097370976
-0.1059712832
-0.1907153068
-0.161869897
-0.1527651198
-0.1376546676
-0.1355683989
-0.1269046308
-0.1277793383
-0.122524918
-0.1239480066
-0.1201903962
-0.1200098308
-0.1158928727
-0.2046831847
-0.1737230879
-0.1639502316
-0.1477307693
-0.1454906686
-0.136190076
-0.1371280402
-0.1314865512
-0.1330136571
-0.1289788488
-0.1287858458
-0.1243660354
-0.21603779
-0.183360331
-0.1730461715
-0.1559264466
-0.1535630533
-0.1437454704
-0.1447365312
-0.1387807413
-0.1403934476
-0.1361341526
-0.1359305604
-0.131268672
-0.2247149521
-0.1907232951
-0.1799936009
-0.1621845132
-0.1597250083
-0.1495115994
-0.1505413481
-0.1443449762
-0.1460217805
-0.1415897893
-0.1413783799
-0.1365256668
-0.2305275798
-0.195656917
-0.1846506088
-0.1663806522
-0.163858649
-0.1533802634
-0.1544379192
-0.1480801324
-0.1498013074
-0.1452542854
-0.1450372774
-0.1400631974
-0.2334802504
-0.1981615603
-0.1870129979
-0.1685078521
-0.1659522923
-0.1553389269
-0.1564089092
-0.1499690869
-0.1517115305
-0.1471050114
-0.1468855708
-0.1418430053
)
;

boundaryField
{
    out
    {
        type            implicitExtrapolation;
    }
    in
    {
        type            implicitExtrapolation;
    }
    frontAndBack
    {
        type            empty;
    }
}


// ************************************************************************* //
