/*--------------------------------*- C++ -*----------------------------------*\
| =========                 |                                                 |
| \\      /  F ield         | foam-extend: Open Source CFD                    |
|  \\    /   O peration     | Version:  3.0                                   |
|   \\  /    A nd           | Web:         http://www.extend-project.de       |
|    \\/     M anipulation  |                                                 |
\*---------------------------------------------------------------------------*/
FoamFile
{
    version     2.0;
    format      ascii;
    class       volScalarField;
    location    "7.2";
    object      p;
}
// * * * * * * * * * * * * * * * * * * * * * * * * * * * * * * * * * * * * * //

dimensions      [0 0 0 0 0 0 0];

internalField   nonuniform List<scalar> 
400
(
1.49125
0.786765
0.804568
0.59001
0.803045
0.716524
0.962032
0.905939
1.14647
1.09606
1.33208
1.27974
1.51486
1.44908
1.67113
1.56118
1.71984
1.48266
1.43871
0.805323
2.41229
1.83045
1.74602
1.43477
1.50878
1.29264
1.39945
1.21522
1.32011
1.14309
1.23924
1.05604
1.14248
0.941844
1.01272
0.777486
0.803768
0.490996
0.374209
-0.134265
2.0138
1.47259
1.45774
1.21518
1.33296
1.17737
1.32435
1.19131
1.34382
1.21325
1.37004
1.23404
1.39515
1.24527
1.39892
1.21524
1.3196
1.05027
0.997807
0.507348
2.05481
1.67057
1.59647
1.38666
1.42634
1.27013
1.33645
1.19237
1.26248
1.12028
1.19369
1.05133
1.13104
0.984117
1.06283
0.893531
0.931984
0.691668
0.585736
0.189652
1.7252
1.35954
1.35979
1.19335
1.29233
1.18008
1.30768
1.20621
1.3518
1.25129
1.42192
1.32158
1.52367
1.41835
1.641
1.50508
1.6918
1.452
1.45269
0.949876
1.61699
1.34291
1.31601
1.19213
1.23208
1.14097
1.19377
1.10591
1.16603
1.08105
1.15911
1.08371
1.19304
1.1275
1.26941
1.18664
1.31876
1.12193
1.09164
0.542882
1.42834
1.20042
1.21993
1.12999
1.20484
1.13857
1.23579
1.16841
1.29467
1.22751
1.40209
1.34351
1.58731
1.53896
1.85666
1.78669
2.12147
1.9014
2.02666
1.28548
1.25458
1.1318
1.13409
1.08597
1.10498
1.05876
1.07849
1.0252
1.05487
1.00486
1.06418
1.0342
1.14898
1.14949
1.33891
1.34138
1.57398
1.42393
1.48895
0.696789
1.13758
1.11646
1.13388
1.12055
1.14399
1.11096
1.15164
1.10177
1.17834
1.12445
1.26488
1.22606
1.46828
1.45971
1.83743
1.83415
2.31772
2.1451
2.45484
1.47603
0.92459
1.02932
1.04131
1.06662
1.04194
1.02325
0.989998
0.94782
0.922558
0.877428
0.882272
0.861873
0.931251
0.96392
1.13755
1.21422
1.48894
1.43403
1.58414
0.690821
0.847436
1.08455
1.08326
1.1446
1.10345
1.09318
1.06312
1.01431
1.01594
0.950528
1.01262
0.960011
1.13286
1.12827
1.48021
1.52943
2.0925
2.0315
2.56504
1.57912
0.631087
0.97957
0.994946
1.08813
1.01782
1.01715
0.926803
0.878804
0.784471
0.71616
0.635377
0.583489
0.551282
0.56693
0.637791
0.75848
0.969836
1.07862
1.26778
0.618488
0.595938
1.06328
1.04495
1.17206
1.07914
1.08693
0.991099
0.93231
0.847832
0.749023
0.697929
0.59548
0.629196
0.580001
0.793348
0.859416
1.37147
1.49448
2.24689
1.67469
0.42607
0.959662
0.981394
1.13115
1.03163
1.0458
0.908259
0.844762
0.680205
0.567815
0.384971
0.264126
0.0888671
0.0301392
-0.0814587
0.0263722
0.0552413
0.376278
0.521168
0.59745
0.456246
1.05495
1.03575
1.21334
1.09671
1.12049
0.974951
0.899899
0.732233
0.585745
0.406746
0.225686
0.0724499
-0.0726415
-0.103296
-0.0818232
0.209524
0.552375
1.43173
1.80228
0.398626
1.00767
1.03707
1.22603
1.11627
1.14188
0.970193
0.885745
0.659577
0.492909
0.211054
-0.0022278
-0.332685
-0.517917
-0.856597
-0.846068
-1.09276
-0.586874
-0.59689
0.691205
0.539101
1.12782
1.12249
1.32853
1.20927
1.24197
1.06027
0.964102
0.726087
0.528409
0.232061
-0.0388739
-0.386234
-0.665963
-1.00133
-1.10859
-1.20961
-0.710319
0.0414241
1.82275
0.683562
1.22311
1.24675
1.44611
1.32776
1.35086
1.15025
1.03926
0.766314
0.547855
0.191003
-0.11467
-0.575181
-0.915747
-1.47267
-1.66136
-2.21664
-1.7029
-1.98657
0.735624
0.991448
1.41073
1.41135
1.60957
1.47944
1.4981
1.28214
1.15761
0.869115
0.628335
0.25113
-0.0965033
-0.594347
-1.01776
-1.63897
-1.96624
-2.56606
-2.14833
-2.04453
1.20631
1.46104
1.75753
1.73108
1.88427
1.72637
1.70791
1.47475
1.32551
1.02933
0.771281
0.387737
0.0145958
-0.505226
-0.993815
-1.68618
-2.17531
-2.96954
-2.86273
-3.44556
-0.0218487
)
;

boundaryField
{
    cavity
    {
        type            implicitExtrapolation;
    }
    lid
    {
        type            implicitExtrapolation;
    }
    frontAndBack
    {
        type            empty;
    }
}


// ************************************************************************* //
