/*--------------------------------*- C++ -*----------------------------------*\
| =========                 |                                                 |
| \\      /  F ield         | foam-extend: Open Source CFD                    |
|  \\    /   O peration     | Version:  3.0                                   |
|   \\  /    A nd           | Web:         http://www.extend-project.de       |
|    \\/     M anipulation  |                                                 |
\*---------------------------------------------------------------------------*/
FoamFile
{
    version     2.0;
    format      ascii;
    class       volVectorField;
    location    "7.2";
    object      s;
}
// * * * * * * * * * * * * * * * * * * * * * * * * * * * * * * * * * * * * * //

dimensions      [0 0 0 0 0 0 0];

internalField   nonuniform List<vector> 
400
(
(-0.0141412 0.0263049 9.84376e-318)
(-0.0237092 0.0381337 1.72298e-317)
(-0.0513633 0.0395506 1.9519e-317)
(-0.0660413 0.0328647 1.95845e-317)
(-0.0867316 0.0279184 1.87245e-317)
(-0.0988559 0.02076 1.74923e-317)
(-0.111906 0.015685 1.61455e-317)
(-0.119537 0.00990603 1.48234e-317)
(-0.125697 0.00521916 1.35491e-317)
(-0.128241 9.69215e-05 1.23861e-317)
(-0.127884 -0.00473563 1.12944e-317)
(-0.124901 -0.0101139 1.03199e-317)
(-0.11778 -0.0155164 9.41388e-318)
(-0.108998 -0.021625 8.59935e-318)
(-0.0946996 -0.0273161 7.84048e-318)
(-0.0807342 -0.0337965 7.11785e-318)
(-0.0596308 -0.0381471 6.38751e-318)
(-0.0434562 -0.042413 5.53939e-318)
(-0.018436 -0.0392983 4.3415e-318)
(-0.00861459 -0.0255621 2.25623e-318)
(-0.015586 0.0157114 1.25529e-317)
(-0.0354475 0.0356608 2.44763e-317)
(-0.066708 0.0438834 2.94243e-317)
(-0.0897178 0.0433912 3.07118e-317)
(-0.116111 0.0387743 3.01676e-317)
(-0.135099 0.0315374 2.87723e-317)
(-0.153327 0.0236207 2.69839e-317)
(-0.165343 0.0151616 2.51144e-317)
(-0.174417 0.00673198 2.32272e-317)
(-0.178305 -0.00179937 2.14551e-317)
(-0.177871 -0.0103597 1.97489e-317)
(-0.173079 -0.0189141 1.81874e-317)
(-0.1629 -0.0273923 1.66933e-317)
(-0.149431 -0.0353922 1.53084e-317)
(-0.129836 -0.0424621 1.39463e-317)
(-0.109057 -0.047552 1.2589e-317)
(-0.0821625 -0.0493856 1.11059e-317)
(-0.0582728 -0.0457948 9.34156e-318)
(-0.0294502 -0.0342976 6.918e-318)
(-0.0107076 -0.0130763 3.21571e-318)
(-0.0154369 0.0476666 1.118e-317)
(-0.0341442 0.0854548 2.27113e-317)
(-0.0652537 0.0969891 2.81558e-317)
(-0.0873201 0.0920541 3.01644e-317)
(-0.112475 0.081419 3.02829e-317)
(-0.130668 0.0661448 2.9422e-317)
(-0.147991 0.0503544 2.80333e-317)
(-0.159776 0.0334374 2.64429e-317)
(-0.168735 0.0167506 2.47464e-317)
(-0.173026 -0.000363582 2.30855e-317)
(-0.173195 -0.0175568 2.14387e-317)
(-0.169272 -0.0350473 1.98828e-317)
(-0.160108 -0.052527 1.8354e-317)
(-0.147605 -0.069512 1.68847e-317)
(-0.128963 -0.0849711 1.53812e-317)
(-0.108749 -0.0974495 1.38103e-317)
(-0.0821277 -0.104214 1.20147e-317)
(-0.0580613 -0.102247 9.83814e-318)
(-0.0284168 -0.0849175 6.95172e-318)
(-0.00987642 -0.0437367 2.93207e-318)
(-0.0106197 0.0476639 8.23612e-318)
(-0.0264397 0.0915688 1.74962e-317)
(-0.048605 0.107184 2.24445e-317)
(-0.0662112 0.104099 2.4812e-317)
(-0.0856428 0.0930847 2.56033e-317)
(-0.10053 0.076622 2.54976e-317)
(-0.114788 0.0585826 2.48265e-317)
(-0.124975 0.0391649 2.38711e-317)
(-0.133015 0.019448 2.27219e-317)
(-0.137452 -0.000824707 2.15136e-317)
(-0.138539 -0.0215161 2.02442e-317)
(-0.136405 -0.0425146 1.89848e-317)
(-0.129768 -0.0637106 1.7688e-317)
(-0.120426 -0.0839487 1.63751e-317)
(-0.105606 -0.102491 1.49566e-317)
(-0.0893065 -0.116273 1.33815e-317)
(-0.0674639 -0.123136 1.14961e-317)
(-0.0470583 -0.117079 9.13553e-318)
(-0.0233135 -0.0931434 6.10135e-318)
(-0.00658593 -0.0422332 2.19336e-318)
(-0.00902599 0.0593612 5.10034e-318)
(-0.0197566 0.111867 1.17368e-317)
(-0.0372357 0.129607 1.58997e-317)
(-0.0497558 0.125942 1.84323e-317)
(-0.0647462 0.11284 1.97867e-317)
(-0.0758468 0.0934488 2.03796e-317)
(-0.0871506 0.0721283 2.0413e-317)
(-0.0954447 0.0490388 2.0102e-317)
(-0.102526 0.0254713 1.95288e-317)
(-0.107176 0.000966838 1.88135e-317)
(-0.109381 -0.0242649 1.79731e-317)
(-0.109504 -0.0502653 1.70759e-317)
(-0.105735 -0.0768722 1.6097e-317)
(-0.10025 -0.102798 1.50573e-317)
(-0.0891521 -0.127148 1.38894e-317)
(-0.0773793 -0.146005 1.25463e-317)
(-0.0585928 -0.156883 1.08978e-317)
(-0.042251 -0.151442 8.79194e-318)
(-0.0194688 -0.124031 6.02957e-318)
(-0.00645559 -0.0594576 2.35189e-318)
(-0.00594191 0.0591188 2.10543e-318)
(-0.0128683 0.113154 6.21671e-318)
(-0.0234092 0.132571 9.55782e-318)
(-0.0311265 0.129539 1.21447e-317)
(-0.0408552 0.116906 1.39507e-317)
(-0.0483131 0.0974052 1.51481e-317)
(-0.0564368 0.0758661 1.58202e-317)
(-0.0628904 0.052201 1.6115e-317)
(-0.0689348 0.0278723 1.61006e-317)
(-0.0737806 0.00221694 1.58792e-317)
(-0.0770907 -0.0245363 1.54844e-317)
(-0.0794933 -0.0525966 1.49787e-317)
(-0.0787851 -0.0818354 1.43595e-317)
(-0.0773784 -0.110909 1.36482e-317)
(-0.0706064 -0.13888 1.27995e-317)
(-0.0638115 -0.161004 1.17716e-317)
(-0.0491805 -0.174509 1.04486e-317)
(-0.037229 -0.168542 8.66854e-318)
(-0.0167066 -0.137328 6.18499e-318)
(-0.00640419 -0.0627556 2.60351e-318)
(-0.00416614 0.0611107 -8.19655e-320)
(-0.00729052 0.117097 2.03494e-318)
(-0.0130806 0.137388 4.62971e-318)
(-0.0166475 0.134743 7.14022e-318)
(-0.0222466 0.122327 9.19808e-318)
(-0.0264849 0.102662 1.07869e-317)
(-0.0318511 0.0809747 1.19012e-317)
(-0.0365539 0.0568223 1.26307e-317)
(-0.0415495 0.0319405 1.30291e-317)
(-0.0464394 0.00526844 1.31833e-317)
(-0.0506062 -0.0228124 1.31334e-317)
(-0.0550696 -0.0529837 1.2939e-317)
(-0.0570739 -0.0849451 1.26134e-317)
(-0.0596737 -0.117875 1.21801e-317)
(-0.0567627 -0.150328 1.16148e-317)
(-0.0551691 -0.177835 1.08814e-317)
(-0.0436398 -0.196234 9.88131e-318)
(-0.0364805 -0.193832 8.44416e-318)
(-0.0154088 -0.161812 6.26374e-318)
(-0.00865045 -0.0776986 2.81918e-318)
(-0.00178659 0.0586677 -1.63248e-318)
(-0.0023629 0.112622 -1.03056e-318)
(-0.00276154 0.133058 9.15815e-319)
(-0.00280689 0.130832 3.25524e-318)
(-0.00406266 0.119675 5.41162e-318)
(-0.00533286 0.101055 7.23197e-318)
(-0.00777461 0.0807187 8.64335e-318)
(-0.0106407 0.0576476 9.68783e-318)
(-0.0142786 0.0338741 1.04018e-317)
(-0.0188254 0.00791405 1.08549e-317)
(-0.0234153 -0.0197395 1.10899e-317)
(-0.029364 -0.0502512 1.1162e-317)
(-0.033758 -0.0832797 1.10942e-317)
(-0.0398117 -0.118576 1.09123e-317)
(-0.0409747 -0.154474 1.0604e-317)
(-0.0442479 -0.186713 1.01436e-317)
(-0.0369657 -0.210203 9.43713e-318)
(-0.0343386 -0.211515 8.31802e-318)
(-0.0146408 -0.179527 6.42268e-318)
(-0.0101835 -0.0861515 3.11204e-318)
(0.000265606 0.0560565 -2.36127e-318)
(0.00190941 0.108083 -2.7205e-318)
(0.00595868 0.128107 -1.31961e-318)
(0.00874785 0.12655 7.50501e-319)
(0.0111935 0.116526 2.83373e-318)
(0.01249 0.0991961 4.69563e-318)
(0.0127834 0.0803448 6.22442e-318)
(0.0117879 0.0586565 7.42239e-318)
(0.00976012 0.0363447 8.31089e-318)
(0.0059879 0.0115438 8.94111e-318)
(0.00158355 -0.0150844 9.35225e-318)
(-0.00520815 -0.0453501 9.59174e-318)
(-0.0112316 -0.0786511 9.68337e-318)
(-0.02031 -0.115891 9.65164e-318)
(-0.0249528 -0.15458 9.49142e-318)
(-0.0335206 -0.192234 9.17865e-318)
(-0.0301209 -0.221132 8.62921e-318)
(-0.0337118 -0.2296 7.68814e-318)
(-0.0140294 -0.199632 5.98886e-318)
(-0.0143567 -0.101195 2.93187e-318)
(0.00209551 0.0511314 -2.63044e-318)
(0.00537227 0.0990424 -3.57662e-318)
(0.0136147 0.118336 -2.62249e-318)
(0.0189318 0.117328 -8.60203e-319)
(0.0249946 0.108885 1.05987e-318)
(0.02881 0.093318 2.86224e-318)
(0.0319687 0.0765789 4.4084e-318)
(0.0331027 0.0569775 5.67243e-318)
(0.033104 0.036894 6.65716e-318)
(0.030759 0.0141718 7.39862e-318)
(0.0272618 -0.0104566 7.92843e-318)
(0.020721 -0.0392787 8.28561e-318)
(0.0138895 -0.0717007 8.49259e-318)
(0.00323696 -0.109514 8.5702e-318)
(-0.0045939 -0.150135 8.51238e-318)
(-0.0168853 -0.192239 8.29733e-318)
(-0.0187732 -0.227196 7.84113e-318)
(-0.0270202 -0.243012 7.00988e-318)
(-0.0118794 -0.217795 5.46524e-318)
(-0.0143979 -0.114217 2.68506e-318)
(0.00425079 0.046561 -2.47216e-318)
(0.00834623 0.090374 -3.69149e-318)
(0.0202957 0.108146 -3.09491e-318)
(0.0273152 0.107807 -1.65882e-318)
(0.036482 0.100553 2.87447e-320)
(0.0423505 0.086849 1.68143e-318)
(0.0481734 0.0721219 3.15256e-318)
(0.0513904 0.0547505 4.39244e-318)
(0.0536268 0.0370513 5.39183e-318)
(0.0530977 0.0167409 6.1694e-318)
(0.0511794 -0.00535598 6.74812e-318)
(0.0456353 -0.032023 7.15558e-318)
(0.0390651 -0.0624203 7.40981e-318)
(0.0275065 -0.0996526 7.52263e-318)
(0.017604 -0.140269 7.48546e-318)
(0.00107574 -0.185806 7.27188e-318)
(-0.00535329 -0.224395 6.80441e-318)
(-0.0214544 -0.248737 5.96807e-318)
(-0.00906609 -0.22697 4.50043e-318)
(-0.019621 -0.124427 2.05854e-318)
(0.00513551 0.0395834 -2.1337e-318)
(0.010475 0.0786728 -3.44017e-318)
(0.0250586 0.095241 -3.12125e-318)
(0.0339726 0.095548 -1.98922e-318)
(0.0458497 0.0897287 -5.48413e-319)
(0.053862 0.0779575 9.25513e-319)
(0.0622574 0.0654031 2.28081e-318)
(0.0677411 0.0504281 3.4558e-318)
(0.0724251 0.0353009 4.42731e-318)
(0.0742662 0.0177317 5.20241e-318)
(0.0745687 -0.00147368 5.79418e-318)
(0.071262 -0.0252871 6.22202e-318)
(0.0660141 -0.0529694 6.49821e-318)
(0.0557683 -0.0883249 6.62848e-318)
(0.0446776 -0.128141 6.59886e-318)
(0.0272793 -0.175519 6.38188e-318)
(0.0150411 -0.218524 5.90147e-318)
(-0.004314 -0.251414 5.06335e-318)
(-0.00248693 -0.23885 3.68176e-318)
(-0.0142126 -0.14006 1.55372e-318)
(0.00686811 0.0348294 -1.83953e-318)
(0.0117272 0.0686443 -3.1181e-318)
(0.0286774 0.0829018 -2.97257e-318)
(0.0383022 0.0835378 -2.07749e-318)
(0.0523149 0.0785711 -8.56147e-319)
(0.0617435 0.0686265 4.38493e-319)
(0.0722486 0.0579796 1.66264e-318)
(0.0795874 0.0453381 2.74679e-318)
(0.086534 0.0326875 3.66216e-318)
(0.0906719 0.0179035 4.40552e-318)
(0.0934873 0.00177967 4.98124e-318)
(0.09273 -0.0187505 5.40129e-318)
(0.0897816 -0.0428007 5.67131e-318)
(0.0812774 -0.0749853 5.79029e-318)
(0.0707032 -0.111522 5.74081e-318)
(0.0516788 -0.158232 5.49206e-318)
(0.0358996 -0.200516 4.97885e-318)
(0.00835238 -0.23904 4.12095e-318)
(0.00445319 -0.228386 2.81652e-318)
(-0.0199162 -0.136417 9.98694e-319)
(0.00659333 0.026917 -1.37664e-318)
(0.01242 0.0565194 -2.54662e-318)
(0.0302551 0.0691921 -2.54795e-318)
(0.0412327 0.0703599 -1.8754e-318)
(0.0568175 0.0663922 -8.76176e-319)
(0.0677331 0.0581669 2.27611e-319)
(0.0799748 0.0493804 1.29938e-318)
(0.089054 0.0389478 2.26842e-318)
(0.0980585 0.0286416 3.09962e-318)
(0.104617 0.0165516 3.78334e-318)
(0.110124 0.00340226 4.31848e-318)
(0.112799 -0.0136922 4.7113e-318)
(0.112933 -0.0339665 4.96214e-318)
(0.108596 -0.0621562 5.06818e-318)
(0.0996544 -0.0949791 5.00991e-318)
(0.0841435 -0.139431 4.75937e-318)
(0.0639191 -0.182114 4.25904e-318)
(0.0376261 -0.226955 3.44594e-318)
(0.0166972 -0.228085 2.27309e-318)
(-0.00444471 -0.152934 7.28218e-319)
(0.00709439 0.0230713 -1.43226e-318)
(0.0113633 0.0468234 -2.42942e-318)
(0.0297173 0.0567688 -2.4214e-318)
(0.0404944 0.0576852 -1.83935e-318)
(0.0567761 0.0542569 -9.74915e-319)
(0.0680975 0.0475813 -9.15998e-321)
(0.0811427 0.0404195 9.40088e-319)
(0.091053 0.0320485 1.80811e-318)
(0.10131 0.0238353 2.56124e-318)
(0.109467 0.0142331 3.18667e-318)
(0.117171 0.00384535 3.68025e-318)
(0.122558 -0.00984171 4.04379e-318)
(0.126005 -0.0260975 4.27503e-318)
(0.12511 -0.0494406 4.36824e-318)
(0.119564 -0.0766667 4.30423e-318)
(0.1057 -0.115594 4.05696e-318)
(0.0856604 -0.152342 3.58448e-318)
(0.0531913 -0.195104 2.83648e-318)
(0.0271183 -0.193322 1.80713e-318)
(-0.0114675 -0.125493 5.17618e-319)
(0.00576425 0.0158375 -7.77956e-319)
(0.0105411 0.0362357 -1.66191e-318)
(0.0285149 0.0441711 -1.7748e-318)
(0.0399249 0.0453304 -1.38799e-318)
(0.0565871 0.0424814 -7.23856e-319)
(0.0681943 0.0372147 5.33097e-320)
(0.0816134 0.0315771 8.37767e-319)
(0.091912 0.0250281 1.56627e-318)
(0.102921 0.0187142 2.20535e-318)
(0.11235 0.0113062 2.73871e-318)
(0.121875 0.00341397 3.16057e-318)
(0.130266 -0.00714983 3.47125e-318)
(0.137052 -0.0196035 3.6667e-318)
(0.141596 -0.0381326 3.74095e-318)
(0.139972 -0.059822 3.67908e-318)
(0.133916 -0.0929872 3.45952e-318)
(0.112973 -0.125381 3.05123e-318)
(0.089641 -0.169952 2.41893e-318)
(0.0431267 -0.179259 1.56898e-318)
(0.0190125 -0.143289 5.05889e-319)
(0.00425043 0.0132635 -1.26042e-318)
(0.0068955 0.0273901 -1.85343e-318)
(0.0230899 0.032586 -1.82457e-318)
(0.0332341 0.0330515 -1.41868e-318)
(0.0483823 0.0307592 -8.25757e-319)
(0.0588645 0.0269008 -1.53654e-319)
(0.0709291 0.0226931 5.16906e-319)
(0.0803023 0.0179055 1.13841e-318)
(0.0905009 0.013169 1.68492e-318)
(0.0995653 0.00768204 2.14326e-318)
(0.10935 0.00175332 2.50848e-318)
(0.118441 -0.0060339 2.77931e-318)
(0.12729 -0.0152637 2.95213e-318)
(0.134052 -0.0287463 3.0202e-318)
(0.136935 -0.0446573 2.97269e-318)
(0.133696 -0.0687402 2.79184e-318)
(0.118751 -0.0921863 2.46029e-318)
(0.0926566 -0.123714 1.95562e-318)
(0.0507166 -0.124532 1.29213e-318)
(0.00575301 -0.0837478 4.61986e-319)
(0.00224679 0.00820291 -7.6175e-320)
(0.00513797 0.0195183 -7.70036e-319)
(0.0206719 0.0225355 -9.41837e-319)
(0.0301475 0.023034 -7.83642e-319)
(0.044533 0.0211493 -4.00292e-319)
(0.0534655 0.0183974 6.75684e-320)
(0.0644113 0.0155104 5.5572e-319)
(0.0723272 0.0121355 1.01331e-318)
(0.0815812 0.00899112 1.41794e-318)
(0.0899821 0.00515285 1.7571e-318)
(0.0995958 0.00127984 2.02664e-318)
(0.109633 -0.00410886 2.22454e-318)
(0.119864 -0.0100023 2.34866e-318)
(0.130632 -0.0193428 2.39512e-318)
(0.13705 -0.0294132 2.35518e-318)
(0.143177 -0.0472095 2.2175e-318)
(0.131009 -0.0629777 1.96957e-318)
(0.12284 -0.0940388 1.5985e-318)
(0.0636761 -0.101513 1.11198e-318)
(0.0549121 -0.108259 4.78107e-319)
(-0.000737541 0.00627629 -9.70024e-319)
(-9.10729e-06 0.0106458 -1.15946e-318)
(0.01001 0.0117081 -1.08297e-318)
(0.0162471 0.0116975 -8.38751e-319)
(0.0252153 0.0107546 -5.25098e-319)
(0.0310583 0.00952371 -1.80042e-319)
(0.0375798 0.00790891 1.58669e-319)
(0.0426095 0.00614604 4.71561e-319)
(0.048234 0.00411637 7.46093e-319)
(0.0535194 0.00181156 9.7745e-319)
(0.0599471 -0.00087739 1.16322e-318)
(0.0663703 -0.00416387 1.30194e-318)
(0.0742964 -0.00814649 1.3919e-318)
(0.0813407 -0.0132384 1.43011e-318)
(0.0886826 -0.0194764 1.41187e-318)
(0.0920861 -0.0272483 1.33057e-318)
(0.0898212 -0.0359443 1.18368e-318)
(0.0782601 -0.0434519 9.68388e-319)
(0.0481434 -0.0428649 6.9271e-319)
(0.0159334 -0.0124129 3.34161e-319)
(-0.00133354 0.00335917 5.96886e-319)
(0.000688225 0.0063944 6.88085e-320)
(0.00927646 0.00610897 -8.25188e-320)
(0.0125923 0.00610326 -1.09979e-319)
(0.0195253 0.00542013 -9.76274e-321)
(0.0218161 0.00463902 1.16506e-319)
(0.0264452 0.0041694 2.55961e-319)
(0.0285402 0.00333278 3.83993e-319)
(0.0322676 0.00299539 4.96674e-319)
(0.035283 0.00212905 5.89653e-319)
(0.0394779 0.0018246 6.62784e-319)
(0.0444635 0.000659502 7.16163e-319)
(0.0498782 0.000313976 7.49947e-319)
(0.0576444 -0.001793 7.63401e-319)
(0.0632699 -0.00217974 7.53737e-319)
(0.0736276 -0.00715339 7.18589e-319)
(0.072076 -0.00717044 6.53427e-319)
(0.0831415 -0.022341 5.56086e-319)
(0.0455804 -0.0202267 4.34921e-319)
(0.0718431 -0.0640993 2.68367e-319)
)
;

boundaryField
{
    cavity
    {
        type            myHeatFlux;
        ThetaWall       uniform 0;
        value           nonuniform List<vector> 
60
(
(0.001 0 0)
(0.001 0 0)
(0.001 0 0)
(0.001 0 0)
(0.001 0 0)
(0.001 0 0)
(0.001 0 0)
(0.001 0 0)
(0.001 0 0)
(0.001 0 0)
(0.001 0 0)
(0.001 0 0)
(0.001 0 0)
(0.001 0 0)
(0.001 0 0)
(0.001 0 0)
(0.001 0 0)
(0.001 0 0)
(0.001 0 0)
(0.001 0 0)
(0 -0.001 0)
(0 -0.001 0)
(0 -0.001 0)
(0 -0.001 0)
(0 -0.001 0)
(0 -0.001 0)
(0 -0.001 0)
(0 -0.001 0)
(0 -0.001 0)
(0 -0.001 0)
(0 -0.001 0)
(0 -0.001 0)
(0 -0.001 0)
(0 -0.001 0)
(0 -0.001 0)
(0 -0.001 0)
(0 -0.001 0)
(0 -0.001 0)
(0 -0.001 0)
(0 -0.001 0)
(-0.001 0 0)
(-0.001 0 0)
(-0.001 0 0)
(-0.001 0 0)
(-0.001 0 0)
(-0.001 0 0)
(-0.001 0 0)
(-0.001 0 0)
(-0.001 0 0)
(-0.001 0 0)
(-0.001 0 0)
(-0.001 0 0)
(-0.001 0 0)
(-0.001 0 0)
(-0.001 0 0)
(-0.001 0 0)
(-0.001 0 0)
(-0.001 0 0)
(-0.001 0 0)
(-0.001 0 0)
)
;
    }
    lid
    {
        type            myHeatFlux;
        ThetaWall       uniform 0;
        value           nonuniform List<vector> 
20
(
(0.000135815 0.0009 0)
(0.000135815 0.0009 0)
(0.000135815 0.0009 0)
(0.000135815 0.0009 0)
(0.000135815 0.0009 0)
(0.000135815 0.0009 0)
(0.000135815 0.0009 0)
(0.000135815 0.0009 0)
(0.000135815 0.0009 0)
(0.000135815 0.0009 0)
(0.000135815 0.0009 0)
(0.000135815 0.0009 0)
(0.000135815 0.0009 0)
(0.000135815 0.0009 0)
(0.000135815 0.0009 0)
(0.000135815 0.0009 0)
(0.000135815 0.0009 0)
(0.000135815 0.0009 0)
(0.000135815 0.0009 0)
(0.000135815 0.0009 0)
)
;
    }
    frontAndBack
    {
        type            empty;
    }
}


// ************************************************************************* //
