/*--------------------------------*- C++ -*----------------------------------*\
| =========                 |                                                 |
| \\      /  F ield         | foam-extend: Open Source CFD                    |
|  \\    /   O peration     | Version:  3.0                                   |
|   \\  /    A nd           | Web:         http://www.extend-project.de       |
|    \\/     M anipulation  |                                                 |
\*---------------------------------------------------------------------------*/
FoamFile
{
    version     2.0;
    format      ascii;
    class       volScalarField;
    location    "7.2";
    object      Theta;
}
// * * * * * * * * * * * * * * * * * * * * * * * * * * * * * * * * * * * * * //

dimensions      [0 0 0 0 0 0 0];

internalField   nonuniform List<scalar> 
400
(
0.258829
-0.0888909
-0.123126
-0.187108
-0.134368
-0.115424
-0.0475761
-0.00482444
0.0612461
0.110102
0.174032
0.221714
0.284338
0.32107
0.376406
0.380299
0.406156
0.325124
0.261453
-0.0552914
0.710064
0.426554
0.352408
0.23823
0.22939
0.180934
0.185462
0.161571
0.165427
0.148332
0.14823
0.127576
0.122347
0.088508
0.0755762
0.0139882
-0.017556
-0.137369
-0.226445
-0.475584
0.554676
0.286383
0.240394
0.152879
0.158785
0.130442
0.14528
0.136395
0.150394
0.146903
0.159443
0.154423
0.1659
0.151538
0.158692
0.119294
0.108124
0.00818111
-0.0614057
-0.305432
0.549108
0.36101
0.307523
0.230873
0.223626
0.189098
0.190684
0.170941
0.172622
0.157942
0.160109
0.145807
0.149975
0.129893
0.133269
0.0930511
0.0794946
-0.0130051
-0.0875911
-0.284585
0.401336
0.221931
0.197775
0.138708
0.149175
0.129796
0.144716
0.138909
0.154093
0.154312
0.17324
0.176883
0.203604
0.205129
0.238145
0.219435
0.240389
0.15493
0.107241
-0.141391
0.342427
0.208955
0.190964
0.146942
0.155836
0.139433
0.150464
0.143418
0.155187
0.154147
0.1724
0.177776
0.209114
0.217849
0.263148
0.257347
0.29733
0.221741
0.186297
-0.0888231
0.238768
0.128616
0.129112
0.0991035
0.115147
0.106594
0.121706
0.120733
0.13747
0.143444
0.170367
0.186136
0.233466
0.257877
0.330975
0.343915
0.425045
0.352381
0.352833
-0.0128115
0.169141
0.111126
0.117641
0.103057
0.11519
0.109123
0.118146
0.115082
0.125925
0.129067
0.151942
0.167392
0.21518
0.245765
0.327593
0.356167
0.455856
0.400025
0.414861
0.0173478
0.0856481
0.0785318
0.0919647
0.0918013
0.0997894
0.0967294
0.100615
0.0969495
0.103608
0.105418
0.126511
0.142581
0.194885
0.231767
0.332197
0.375057
0.517172
0.47057
0.544216
0.0632321
0.0105492
0.065941
0.085314
0.100464
0.102011
0.0998431
0.0946781
0.0861971
0.0823711
0.0765409
0.0858742
0.0943436
0.134953
0.169664
0.261637
0.316487
0.456527
0.441892
0.513588
0.0664188
-0.0581962
0.0632096
0.0789894
0.109189
0.10014
0.0990846
0.0837333
0.0705174
0.0559493
0.0416687
0.0393186
0.0377767
0.0688785
0.096759
0.191717
0.251228
0.428923
0.43423
0.604073
0.124011
-0.129334
0.0473476
0.0742716
0.117905
0.105114
0.104357
0.0801737
0.0602598
0.0322711
0.0056324
-0.0158799
-0.0336969
-0.0285763
-0.0152076
0.0467692
0.108783
0.246835
0.302134
0.425349
0.103438
-0.173986
0.0621546
0.0773719
0.135648
0.11184
0.112676
0.0777986
0.0514403
0.00961346
-0.03044
-0.0708521
-0.108297
-0.125949
-0.134745
-0.0887968
-0.0387783
0.125831
0.207299
0.482287
0.211397
-0.223947
0.0444456
0.0784897
0.146492
0.124873
0.126042
0.084859
0.0510888
-0.00463091
-0.0599642
-0.123687
-0.184339
-0.238799
-0.27492
-0.285415
-0.247805
-0.169207
-0.0263677
0.119757
0.166027
-0.227688
0.0744536
0.0930682
0.173989
0.144852
0.148635
0.0986599
0.0581129
-0.0115687
-0.0824837
-0.168043
-0.254442
-0.340467
-0.41282
-0.457444
-0.455056
-0.368522
-0.20921
0.144137
0.337224
-0.229915
0.0758197
0.116445
0.201712
0.178435
0.181484
0.127136
0.0788767
-0.003197
-0.0896095
-0.197637
-0.309702
-0.435225
-0.544285
-0.65835
-0.688128
-0.727314
-0.518134
-0.409903
0.245473
-0.169069
0.130192
0.156845
0.250933
0.223341
0.227894
0.166112
0.110842
0.0166646
-0.0843386
-0.212071
-0.350131
-0.508477
-0.6617
-0.822365
-0.91283
-0.973385
-0.78481
-0.452191
0.415756
-0.0832947
0.190892
0.23123
0.320866
0.294804
0.293584
0.226442
0.162401
0.0590643
-0.0546756
-0.197894
-0.357713
-0.546642
-0.73874
-0.962465
-1.109
-1.30471
-1.1289
-1.15037
0.202278
0.0678108
0.288984
0.319522
0.409024
0.376678
0.371099
0.295598
0.223542
0.111354
-0.0131347
-0.168991
-0.348301
-0.562083
-0.795451
-1.06697
-1.2918
-1.54806
-1.4582
-1.37089
0.164487
0.300541
0.467952
0.486399
0.552479
0.50613
0.480613
0.39712
0.312138
0.197981
0.0650091
-0.0904883
-0.282158
-0.501065
-0.76763
-1.06521
-1.3766
-1.71217
-1.79913
-2.00403
-0.415781
)
;

boundaryField
{
    cavity
    {
        type            implicitExtrapolation;
    }
    lid
    {
        type            implicitExtrapolation;
    }
    frontAndBack
    {
        type            empty;
    }
}


// ************************************************************************* //
