/*--------------------------------*- C++ -*----------------------------------*\
| =========                 |                                                 |
| \\      /  F ield         | foam-extend: Open Source CFD                    |
|  \\    /   O peration     | Version:  3.0                                   |
|   \\  /    A nd           | Web:         http://www.extend-project.de       |
|    \\/     M anipulation  |                                                 |
\*---------------------------------------------------------------------------*/
FoamFile
{
    version     2.0;
    format      ascii;
    class       volVectorField;
    location    "0.7";
    object      s;
}
// * * * * * * * * * * * * * * * * * * * * * * * * * * * * * * * * * * * * * //

dimensions      [0 0 0 0 0 0 0];

internalField   nonuniform List<vector> 
400
(
(-0.000745833 -0.000132381 3.84735e-318)
(-0.000639137 0.000441863 6.6222e-318)
(-0.00081583 0.000857556 7.16582e-318)
(-0.00122775 0.00107388 6.5609e-318)
(-0.00172522 0.0010652 5.50825e-318)
(-0.00222918 0.000908951 4.51108e-318)
(-0.00267476 0.000646207 3.52881e-318)
(-0.00302658 0.000319907 2.81065e-318)
(-0.00326526 -4.62053e-05 2.13651e-318)
(-0.00337869 -0.000433514 1.68167e-318)
(-0.00336182 -0.000828581 1.20397e-318)
(-0.00321027 -0.00122132 8.85321e-319)
(-0.00292186 -0.00159873 5.03008e-319)
(-0.00249852 -0.00194766 2.66035e-319)
(-0.00194452 -0.00224795 -2.13239e-320)
(-0.00128219 -0.00247322 -1.29529e-319)
(-0.000537226 -0.00258372 -2.49488e-319)
(0.000206146 -0.00251842 -1.88279e-319)
(0.000870142 -0.00214339 -9.47667e-320)
(0.00117353 -0.00118078 -1.86683e-319)
(-0.000982138 0.000413363 3.49645e-318)
(-0.00115519 0.0015464 7.47602e-318)
(-0.00168096 0.00236269 9.05762e-318)
(-0.0023708 0.00280835 9.29639e-318)
(-0.00315102 0.00287386 8.54401e-318)
(-0.00391796 0.00264094 7.52698e-318)
(-0.00460203 0.00218039 6.26522e-318)
(-0.00514659 0.00156144 5.18494e-318)
(-0.00551667 0.00083741 4.08008e-318)
(-0.00568728 5.1944e-05 3.23078e-318)
(-0.00564612 -0.000758453 2.35163e-318)
(-0.00538765 -0.00156061 1.69246e-318)
(-0.00491484 -0.00231881 9.67208e-319)
(-0.00424258 -0.00299208 4.42055e-319)
(-0.0033973 -0.00352911 -1.47291e-319)
(-0.00243158 -0.00386518 -5.17055e-319)
(-0.00141503 -0.00391881 -9.26921e-319)
(-0.000462299 -0.00358801 -1.08567e-318)
(0.000326891 -0.00274043 -1.21683e-318)
(0.00080268 -0.00120335 -8.96462e-319)
(-0.00106837 0.00121777 3.50052e-318)
(-0.00139287 0.00318056 7.51818e-318)
(-0.00211354 0.00446114 9.29334e-318)
(-0.00296922 0.00510037 9.6776e-318)
(-0.00389479 0.00515648 9.13835e-318)
(-0.0047754 0.00475196 8.23122e-318)
(-0.00554783 0.00399809 7.05812e-318)
(-0.00615536 0.00299809 5.93716e-318)
(-0.00656591 0.0018342 4.78054e-318)
(-0.00675451 0.000573268 3.7789e-318)
(-0.00670979 -0.000728105 2.76413e-318)
(-0.00642663 -0.00201772 1.8876e-318)
(-0.00590845 -0.00323815 9.68517e-319)
(-0.0051717 -0.00432069 1.63131e-319)
(-0.0042429 -0.00517808 -6.92275e-319)
(-0.00317706 -0.00569769 -1.41454e-318)
(-0.00204004 -0.0057468 -2.11679e-318)
(-0.000951269 -0.00516352 -2.53021e-318)
(1.85417e-05 -0.00381214 -2.5089e-318)
(0.000674333 -0.00153513 -1.47981e-318)
(-0.00113296 0.00191025 2.44193e-318)
(-0.00151622 0.00473293 5.80684e-318)
(-0.00233437 0.00644642 7.6822e-318)
(-0.00325049 0.0072293 8.41925e-318)
(-0.00421477 0.00722313 8.29955e-318)
(-0.00510367 0.00661923 7.67619e-318)
(-0.00586812 0.00557621 6.75331e-318)
(-0.00645945 0.00423013 5.72592e-318)
(-0.0068558 0.00268575 4.6532e-318)
(-0.00703807 0.00102432 3.61434e-318)
(-0.0069988 -0.000687141 2.5901e-318)
(-0.00673377 -0.00238679 1.61508e-318)
(-0.00624388 -0.00400557 6.54899e-319)
(-0.00554089 -0.00545577 -2.47497e-319)
(-0.00464108 -0.00662338 -1.09733e-318)
(-0.00358964 -0.00735419 -1.80349e-318)
(-0.00243251 -0.00746722 -2.30585e-318)
(-0.0012887 -0.00673673 -2.42757e-318)
(-0.000191598 -0.00498941 -2.05286e-318)
(0.000576398 -0.00201115 -9.59327e-319)
(-0.00116955 0.00275771 2.676e-318)
(-0.00151956 0.00656979 5.83153e-318)
(-0.00236249 0.0087198 7.43139e-318)
(-0.00324325 0.00959203 7.9426e-318)
(-0.00414872 0.00944759 7.75927e-318)
(-0.00494848 0.00857835 7.14702e-318)
(-0.00561781 0.00720394 6.2803e-318)
(-0.00612237 0.00549704 5.29797e-318)
(-0.00645605 0.00358143 4.26174e-318)
(-0.00660941 0.00154438 3.22611e-318)
(-0.00658043 -0.000546805 2.19173e-318)
(-0.0063662 -0.00263242 1.17709e-318)
(-0.00596222 -0.00464296 1.69321e-319)
(-0.00537139 -0.00648194 -8.07046e-319)
(-0.00459097 -0.00801488 -1.741e-318)
(-0.00364804 -0.00904564 -2.56605e-318)
(-0.00255495 -0.0093334 -3.20116e-318)
(-0.00143322 -0.00855613 -3.48279e-318)
(-0.000267339 -0.00645377 -3.1054e-318)
(0.000517623 -0.00266143 -1.64681e-318)
(-0.00115763 0.00372269 2.04614e-318)
(-0.00137794 0.0086055 4.79522e-318)
(-0.00214872 0.0111519 6.36694e-318)
(-0.00286243 0.0120309 7.01809e-318)
(-0.00357154 0.0116617 6.97533e-318)
(-0.00414502 0.0104679 6.479e-318)
(-0.00459847 0.00873902 5.70527e-318)
(-0.00491903 0.00668458 4.78389e-318)
(-0.0051219 0.00443955 3.79093e-318)
(-0.00521046 0.00208747 2.77416e-318)
(-0.00518951 -0.000317594 1.75011e-318)
(-0.00505834 -0.00272992 7.31879e-319)
(-0.00480648 -0.00509494 -2.74374e-319)
(-0.00442591 -0.00731892 -1.24442e-318)
(-0.00388911 -0.00925938 -2.13817e-318)
(-0.00319738 -0.01068 -2.87376e-318)
(-0.00231151 -0.0112726 -3.33386e-318)
(-0.00134969 -0.0105809 -3.33722e-318)
(-0.000212758 -0.00820173 -2.70604e-318)
(0.000491141 -0.00349545 -1.22179e-318)
(-0.00112197 0.00489175 2.32196e-318)
(-0.00107754 0.0109309 5.00024e-318)
(-0.00164414 0.0137972 6.34641e-318)
(-0.00201074 0.0145666 6.76415e-318)
(-0.00234672 0.0138682 6.59756e-318)
(-0.00252595 0.0122858 6.0464e-318)
(-0.00262211 0.010183 5.26237e-318)
(-0.00264885 0.00780127 4.34848e-318)
(-0.00264501 0.00527727 3.36948e-318)
(-0.00262811 0.00267903 2.36399e-318)
(-0.00260911 3.5953e-05 1.34883e-318)
(-0.00259145 -0.00263362 3.33292e-319)
(-0.00255931 -0.00530304 -6.73861e-319)
(-0.00249561 -0.00789663 -1.65287e-318)
(-0.00234563 -0.0102769 -2.56645e-318)
(-0.00208071 -0.0121766 -3.34637e-318)
(-0.00158986 -0.0132165 -3.8832e-318)
(-0.00098122 -0.0127718 -4.01605e-318)
(-9.67739e-06 -0.0102323 -3.43246e-318)
(0.000472586 -0.0045353 -1.74317e-318)
(-0.00105912 0.00619651 1.92381e-318)
(-0.000609884 0.0133758 4.39688e-318)
(-0.000800494 0.0164187 5.75271e-318)
(-0.000603828 0.0169367 6.26212e-318)
(-0.00036371 0.0158113 6.15066e-318)
(3.47126e-05 0.0138017 5.63551e-318)
(0.000443548 0.0113381 4.87491e-318)
(0.000823041 0.00868251 3.97858e-318)
(0.00111095 0.00596003 3.01565e-318)
(0.00127799 0.003213 2.02477e-318)
(0.00130782 0.000434606 1.02464e-318)
(0.00119164 -0.00239257 2.49602e-320)
(0.000946916 -0.00528305 -9.62366e-319)
(0.000594907 -0.00819204 -1.91468e-318)
(0.000214234 -0.0110053 -2.78473e-318)
(-0.000138341 -0.0134406 -3.49045e-318)
(-0.000262103 -0.0150571 -3.90501e-318)
(-0.00024866 -0.015041 -3.84002e-318)
(0.000372952 -0.0125128 -3.09179e-318)
(0.000468627 -0.00580357 -1.40761e-318)
(-0.0010194 0.00761605 2.16082e-318)
(3.15342e-05 0.0157896 4.62938e-318)
(0.000426951 0.0188076 5.83634e-318)
(0.00143503 0.0189249 6.16927e-318)
(0.00245926 0.0173048 5.95463e-318)
(0.00360662 0.0148701 5.38313e-318)
(0.00464713 0.0120976 4.59859e-318)
(0.00552231 0.00925168 3.69751e-318)
(0.00615428 0.0064328 2.74085e-318)
(0.00650709 0.00364886 1.76288e-318)
(0.00656348 0.000852324 7.80159e-319)
(0.00630747 -0.00201564 -1.99647e-319)
(0.00575357 -0.00501591 -1.16669e-318)
(0.0049181 -0.00814729 -2.10121e-318)
(0.00389276 -0.0113341 -2.96257e-318)
(0.00275125 -0.0143061 -3.68187e-318)
(0.00178974 -0.0165816 -4.14634e-318)
(0.00092816 -0.0171731 -4.19599e-318)
(0.000962733 -0.0148772 -3.52771e-318)
(0.00042508 -0.00726764 -1.76143e-318)
(-0.000989581 0.00902904 1.90514e-318)
(0.000872636 0.0178752 4.27363e-318)
(0.00209536 0.0206312 5.5101e-318)
(0.00414519 0.0202256 5.9092e-318)
(0.00612474 0.0181039 5.71535e-318)
(0.00814136 0.015305 5.14886e-318)
(0.00988937 0.0123232 4.36556e-318)
(0.0113075 0.00940217 3.4697e-318)
(0.0123135 0.00660738 2.52509e-318)
(0.0128745 0.00390874 1.5658e-318)
(0.0129763 0.00121824 6.07138e-319)
(0.0125961 -0.00156202 -3.43153e-319)
(0.0117389 -0.00453907 -1.27672e-318)
(0.0104057 -0.00776061 -2.17254e-318)
(0.00868372 -0.0112016 -2.98861e-318)
(0.00664408 -0.0146346 -3.64834e-318)
(0.00466401 -0.0175677 -4.03036e-318)
(0.00266233 -0.018902 -3.95125e-318)
(0.0018279 -0.0170811 -3.19584e-318)
(0.000370678 -0.00886254 -1.48189e-318)
(-0.000972081 0.0102855 2.09382e-318)
(0.00196423 0.0192897 4.48108e-318)
(0.00424954 0.0215751 5.61071e-318)
(0.00751624 0.0205926 5.87328e-318)
(0.0105479 0.0180493 5.59805e-318)
(0.0134727 0.0150121 4.9841e-318)
(0.0159328 0.0119632 4.18088e-318)
(0.0178827 0.00910316 3.2838e-318)
(0.0192528 0.00645797 2.35252e-318)
(0.0200221 0.00396134 1.4172e-318)
(0.0201861 0.00149274 4.89891e-319)
(0.0197158 -0.00107693 -4.23686e-319)
(0.0186018 -0.00389154 -1.31724e-318)
(0.0168203 -0.00704658 -2.17419e-318)
(0.0144321 -0.0105699 -2.95823e-318)
(0.0114837 -0.0143068 -3.606e-318)
(0.00839179 -0.0177826 -4.01252e-318)
(0.00505045 -0.0199027 -4.03014e-318)
(0.00305048 -0.0187426 -3.37679e-318)
(0.000302559 -0.0104196 -1.68839e-318)
(-0.00082282 0.011188 1.93402e-318)
(0.00336666 0.0197299 4.27074e-318)
(0.00691164 0.0214323 5.41646e-318)
(0.0114374 0.0199202 5.70937e-318)
(0.0155085 0.017121 5.42783e-318)
(0.0192747 0.0140196 4.8045e-318)
(0.0223691 0.0110667 3.99817e-318)
(0.0247776 0.0084031 3.11116e-318)
(0.0264594 0.00601858 2.20212e-318)
(0.0274143 0.00381815 1.29962e-318)
(0.0276528 0.00166163 4.13227e-319)
(0.0271418 -0.000598358 -4.53681e-319)
(0.0258543 -0.00312748 -1.29583e-318)
(0.0237363 -0.00605976 -2.09794e-318)
(0.0208009 -0.009467 -2.82519e-318)
(0.0170546 -0.0132879 -3.41163e-318)
(0.0128846 -0.0170776 -3.75148e-318)
(0.00816322 -0.0198964 -3.68196e-318)
(0.0047353 -0.0194554 -2.9992e-318)
(0.00041829 -0.011693 -1.42661e-318)
(-0.000457966 0.0114245 2.08353e-318)
(0.0050751 0.0189106 4.4302e-318)
(0.00997099 0.0200974 5.47069e-318)
(0.0156483 0.018216 5.63658e-318)
(0.0206286 0.0153937 5.27978e-318)
(0.0250682 0.0124256 4.61863e-318)
(0.0286458 0.00973024 3.80567e-318)
(0.0313854 0.00738128 2.93407e-318)
(0.0332907 0.00534249 2.05638e-318)
(0.0343864 0.00350151 1.19654e-318)
(0.0347028 0.00171358 3.61404e-319)
(0.0342053 -0.000171424 -4.48523e-319)
(0.0328495 -0.00232328 -1.2306e-318)
(0.030552 -0.00489912 -1.9729e-318)
(0.027261 -0.00799738 -2.64427e-318)
(0.0229419 -0.0116552 -3.19061e-318)
(0.017864 -0.0154458 -3.52169e-318)
(0.0119117 -0.0187323 -3.51583e-318)
(0.00689574 -0.0188405 -2.93555e-318)
(0.000832672 -0.0122853 -1.4827e-318)
(0.000362609 0.0108495 1.99427e-318)
(0.00697792 0.0168818 4.28324e-318)
(0.0131911 0.0177295 5.28628e-318)
(0.0197242 0.0157083 5.43122e-318)
(0.0253793 0.0131034 5.04441e-318)
(0.0302402 0.0104501 4.37249e-318)
(0.0340952 0.0081425 3.57052e-318)
(0.0370006 0.00618997 2.73006e-318)
(0.0390152 0.00454321 1.8983e-318)
(0.0401899 0.00308518 1.09495e-318)
(0.0405766 0.00168182 3.23188e-319)
(0.0401421 0.000194386 -4.19047e-319)
(0.0388281 -0.00153296 -1.13073e-318)
(0.0365275 -0.00366328 -1.80106e-318)
(0.0331146 -0.00629991 -2.4009e-318)
(0.0285308 -0.00956762 -2.87503e-318)
(0.0228319 -0.0130342 -3.13529e-318)
(0.0160331 -0.0164651 -3.05205e-318)
(0.00941957 -0.0168106 -2.46292e-318)
(0.00189345 -0.0119292 -1.17967e-318)
(0.00145356 0.00911109 2.11842e-318)
(0.00873785 0.0137204 4.34401e-318)
(0.0160733 0.0145303 5.19272e-318)
(0.0230807 0.0126466 5.19727e-318)
(0.0291092 0.0104702 4.7442e-318)
(0.0340949 0.00827489 4.05765e-318)
(0.0379912 0.0064402 3.27892e-318)
(0.0408775 0.00492475 2.486e-318)
(0.042875 0.00367859 1.71631e-318)
(0.044055 0.00259237 9.83853e-319)
(0.044493 0.00155475 2.88095e-319)
(0.0441572 0.00045008 -3.75317e-319)
(0.0429834 -0.000849689 -1.00755e-318)
(0.0408487 -0.0024962 -1.59934e-318)
(0.0375569 -0.00457929 -2.12595e-318)
(0.0330461 -0.00728363 -2.53908e-318)
(0.027081 -0.0101515 -2.76176e-318)
(0.0199404 -0.0133446 -2.70125e-318)
(0.0119021 -0.0134722 -2.18411e-318)
(0.00341726 -0.0101998 -1.06559e-318)
(0.00283443 0.00682695 2.07093e-318)
(0.00996659 0.0102082 4.12561e-318)
(0.0180828 0.0110516 4.84446e-318)
(0.02507 0.00948416 4.78247e-318)
(0.0311088 0.00784211 4.30402e-318)
(0.0358919 0.00618137 3.63668e-318)
(0.039579 0.00484823 2.90905e-318)
(0.042258 0.00376688 2.18782e-318)
(0.0441099 0.00289501 1.50081e-318)
(0.0452168 0.00214015 8.56413e-319)
(0.0456759 0.00142253 2.50971e-319)
(0.0454552 0.000655349 -3.22546e-319)
(0.0444961 -0.000251572 -8.65712e-319)
(0.0426672 -0.00142622 -1.37146e-318)
(0.0397209 -0.00293278 -1.81623e-318)
(0.0356128 -0.00498291 -2.15309e-318)
(0.0297845 -0.00711018 -2.30658e-318)
(0.0229317 -0.00979096 -2.17576e-318)
(0.0138594 -0.00951127 -1.64619e-318)
(0.00555661 -0.00762812 -6.91015e-319)
(0.00357355 0.00368681 2.11275e-318)
(0.0101355 0.00652713 3.91269e-318)
(0.0185503 0.0074659 4.40905e-318)
(0.0251053 0.00640783 4.21629e-318)
(0.0307693 0.00534072 3.71815e-318)
(0.035031 0.00423993 3.09617e-318)
(0.0382621 0.00338647 2.44962e-318)
(0.0405564 0.00269869 1.82724e-318)
(0.0421427 0.00214786 1.2455e-318)
(0.0430992 0.00166471 7.07981e-319)
(0.0435416 0.00120489 2.07498e-319)
(0.043431 0.000710546 -2.64053e-319)
(0.0427313 0.000132749 -7.08925e-319)
(0.0413049 -0.00062457 -1.12237e-318)
(0.0388924 -0.00159742 -1.48464e-318)
(0.0354575 -0.00297614 -1.75595e-318)
(0.0301603 -0.00434246 -1.87124e-318)
(0.0240945 -0.00623725 -1.75585e-318)
(0.0145457 -0.00543024 -1.28673e-318)
(0.00712417 -0.00390837 -4.70509e-319)
(0.00360928 0.00167272 1.98297e-318)
(0.0089134 0.00382387 3.3605e-318)
(0.0168204 0.00452094 3.6464e-318)
(0.0223685 0.00390991 3.40364e-318)
(0.027152 0.00334132 2.94552e-318)
(0.0305528 0.00274547 2.41823e-318)
(0.0330875 0.00230229 1.89291e-318)
(0.0348431 0.00193729 1.40025e-318)
(0.0360619 0.00164015 9.49036e-319)
(0.0368005 0.00136376 5.3697e-319)
(0.0371817 0.00109939 1.56426e-319)
(0.0371574 0.000810761 -2.00408e-319)
(0.0367232 0.000490511 -5.36639e-319)
(0.0357476 7.04555e-05 -8.49823e-319)
(0.0340065 -0.000451803 -1.12338e-318)
(0.0314719 -0.00123089 -1.32423e-318)
(0.0271687 -0.00194499 -1.39457e-318)
(0.0224824 -0.00311336 -1.25596e-318)
(0.0134763 -0.00219405 -8.2384e-319)
(0.008429 -0.00128301 -1.43121e-319)
(0.00263265 -7.76086e-05 1.50564e-318)
(0.0067138 0.00168346 2.43009e-318)
(0.0131423 0.00204419 2.54273e-318)
(0.0171882 0.00193114 2.30031e-318)
(0.0205724 0.00175951 1.95354e-318)
(0.022805 0.00157021 1.58212e-318)
(0.0244235 0.00142551 1.22642e-318)
(0.0255081 0.00128963 9.00415e-319)
(0.0262707 0.00116784 6.06905e-319)
(0.0267272 0.00103476 3.41671e-319)
(0.0270035 0.000905082 9.8072e-320)
(0.0270219 0.000759296 -1.29574e-319)
(0.0268433 0.000613821 -3.44917e-319)
(0.0263094 0.000433613 -5.46743e-319)
(0.0253375 0.000227188 -7.24666e-319)
(0.0238047 -6.87579e-05 -8.59294e-319)
(0.020923 -0.000324305 -9.11971e-319)
(0.017809 -0.000676635 -8.37422e-319)
(0.0105408 5.84202e-05 -5.58146e-319)
(0.00718482 0.00178706 -6.02118e-320)
(-0.000546744 1.70901e-05 1.25427e-318)
(0.00255816 0.00111156 1.39693e-318)
(0.00595803 0.00100493 1.25175e-318)
(0.0077219 0.00102286 1.03736e-318)
(0.00911808 0.00103695 8.33454e-319)
(0.00993204 0.00104128 6.50388e-319)
(0.0105123 0.00104937 4.91141e-319)
(0.0109081 0.00102736 3.53988e-319)
(0.011171 0.0010059 2.3519e-319)
(0.0113604 0.000957426 1.30695e-319)
(0.0114544 0.000920291 3.5963e-320)
(0.0115075 0.000863178 -5.22326e-320)
(0.0114531 0.000834786 -1.36703e-319)
(0.0113561 0.00078526 -2.17399e-319)
(0.011032 0.000779376 -2.90738e-319)
(0.0106628 0.000724713 -3.48479e-319)
(0.00946606 0.000753549 -3.7133e-319)
(0.00862052 0.000610908 -3.28549e-319)
(0.00450407 0.000994675 -1.80724e-319)
(0.00484045 0.00103784 8.82698e-320)
)
;

boundaryField
{
    cavity
    {
        type            myHeatFlux;
        ThetaWall       uniform 0;
        value           nonuniform List<vector> 
60
(
(0.001 0 0)
(0.001 0 0)
(0.001 0 0)
(0.001 0 0)
(0.001 0 0)
(0.001 0 0)
(0.001 0 0)
(0.001 0 0)
(0.001 0 0)
(0.001 0 0)
(0.001 0 0)
(0.001 0 0)
(0.001 0 0)
(0.001 0 0)
(0.001 0 0)
(0.001 0 0)
(0.001 0 0)
(0.001 0 0)
(0.001 0 0)
(0.001 0 0)
(0 -0.001 0)
(0 -0.001 0)
(0 -0.001 0)
(0 -0.001 0)
(0 -0.001 0)
(0 -0.001 0)
(0 -0.001 0)
(0 -0.001 0)
(0 -0.001 0)
(0 -0.001 0)
(0 -0.001 0)
(0 -0.001 0)
(0 -0.001 0)
(0 -0.001 0)
(0 -0.001 0)
(0 -0.001 0)
(0 -0.001 0)
(0 -0.001 0)
(0 -0.001 0)
(0 -0.001 0)
(-0.001 0 0)
(-0.001 0 0)
(-0.001 0 0)
(-0.001 0 0)
(-0.001 0 0)
(-0.001 0 0)
(-0.001 0 0)
(-0.001 0 0)
(-0.001 0 0)
(-0.001 0 0)
(-0.001 0 0)
(-0.001 0 0)
(-0.001 0 0)
(-0.001 0 0)
(-0.001 0 0)
(-0.001 0 0)
(-0.001 0 0)
(-0.001 0 0)
(-0.001 0 0)
(-0.001 0 0)
)
;
    }
    lid
    {
        type            myHeatFlux;
        ThetaWall       uniform 0;
        value           nonuniform List<vector> 
20
(
(0.000135815 0.0009 0)
(0.000135815 0.0009 0)
(0.000135815 0.0009 0)
(0.000135815 0.0009 0)
(0.000135815 0.0009 0)
(0.000135815 0.0009 0)
(0.000135815 0.0009 0)
(0.000135815 0.0009 0)
(0.000135815 0.0009 0)
(0.000135815 0.0009 0)
(0.000135815 0.0009 0)
(0.000135815 0.0009 0)
(0.000135815 0.0009 0)
(0.000135815 0.0009 0)
(0.000135815 0.0009 0)
(0.000135815 0.0009 0)
(0.000135815 0.0009 0)
(0.000135815 0.0009 0)
(0.000135815 0.0009 0)
(0.000135815 0.0009 0)
)
;
    }
    frontAndBack
    {
        type            empty;
    }
}


// ************************************************************************* //
