/*--------------------------------*- C++ -*----------------------------------*\
| =========                 |                                                 |
| \\      /  F ield         | foam-extend: Open Source CFD                    |
|  \\    /   O peration     | Version:  3.0                                   |
|   \\  /    A nd           | Web:         http://www.extend-project.de       |
|    \\/     M anipulation  |                                                 |
\*---------------------------------------------------------------------------*/
FoamFile
{
    version     2.0;
    format      ascii;
    class       volSymmTensorField;
    location    "0.7";
    object      sigma;
}
// * * * * * * * * * * * * * * * * * * * * * * * * * * * * * * * * * * * * * //

dimensions      [0 0 0 0 0 0 0];

internalField   nonuniform List<symmTensor> 
400
(
(0.000611919 -0.000573051 4.49878e-317 -0.0046153 5.30086e-317 0.00400338)
(0.00184731 -0.000124272 4.34357e-317 -0.0075016 4.88151e-317 0.00565429)
(0.0024451 0.000552711 3.48912e-317 -0.00860824 3.69586e-317 0.00616314)
(0.00263862 0.000988614 2.72843e-317 -0.00880706 2.94535e-317 0.00616845)
(0.00247245 0.00128841 2.04539e-317 -0.00830082 2.03657e-317 0.00582837)
(0.00213994 0.00143322 1.53235e-317 -0.00745337 1.75939e-317 0.00531343)
(0.00171706 0.00151525 1.17859e-317 -0.00632922 1.268e-317 0.00461216)
(0.00127385 0.00154067 9.49801e-318 -0.00508391 1.30097e-317 0.00381006)
(0.000847865 0.00155662 8.1891e-318 -0.00374903 1.01739e-317 0.00290117)
(0.000420046 0.00156037 7.54847e-318 -0.00236825 1.18248e-317 0.00194821)
(6.7851e-06 0.00156843 7.46492e-318 -0.00097575 9.82453e-318 0.000968965)
(-0.000449238 0.00157351 7.79372e-318 0.000433184 1.20343e-317 1.60542e-05)
(-0.000919723 0.00156559 8.5549e-318 0.00180615 1.04568e-317 -0.000886428)
(-0.00144386 0.0015362 9.67605e-318 0.00313185 1.30264e-317 -0.00168799)
(-0.00195204 0.00144543 1.11686e-317 0.00433315 1.17523e-317 -0.00238112)
(-0.00240537 0.00128689 1.28519e-317 0.00531122 1.451e-317 -0.00290585)
(-0.00268474 0.000989841 1.44999e-317 0.0059599 1.31896e-317 -0.00327516)
(-0.00262543 0.000580776 1.55262e-317 0.006008 1.55289e-317 -0.00338258)
(-0.00210864 7.53363e-06 1.60133e-317 0.00528376 1.37235e-317 -0.00317512)
(-0.000865267 -0.000383197 1.34107e-317 0.00315739 1.50148e-317 -0.00229213)
(0.00150265 -0.000361933 1.81999e-317 -0.0078148 2.49739e-317 0.00631215)
(0.00288963 0.00070527 1.96485e-317 -0.0123802 2.77495e-317 0.00949059)
(0.00348159 0.00200282 1.9685e-317 -0.0142806 2.3802e-317 0.010799)
(0.0035519 0.00308973 1.77277e-317 -0.0146093 2.07092e-317 0.0110574)
(0.00327931 0.00396985 1.4953e-317 -0.013827 1.57985e-317 0.0105477)
(0.00281627 0.00455128 1.21385e-317 -0.0124203 1.41202e-317 0.00960403)
(0.00226676 0.00496256 9.7452e-318 -0.0105546 1.11039e-317 0.00828787)
(0.00169016 0.00518407 7.93853e-318 -0.00845101 1.11173e-317 0.00676085)
(0.00113864 0.00533908 6.73339e-318 -0.00619038 9.37247e-318 0.00505174)
(0.000578517 0.00541024 6.06913e-318 -0.00383791 1.02624e-317 0.00325939)
(3.2831e-05 0.00546039 5.88028e-318 -0.0014588 9.10218e-318 0.00142597)
(-0.000578029 0.00545994 6.10389e-318 0.000950032 1.03945e-317 -0.000372003)
(-0.00121504 0.00538775 6.69762e-318 0.00329988 9.54919e-318 -0.00208485)
(-0.00193466 0.00521306 7.60859e-318 0.00556664 1.11467e-317 -0.00363198)
(-0.00263931 0.00483433 8.77202e-318 0.00761061 1.06677e-317 -0.0049713)
(-0.00329154 0.00425554 1.00739e-317 0.00927592 1.27679e-317 -0.00598438)
(-0.00372159 0.00334889 1.13322e-317 0.0103464 1.30018e-317 -0.00662486)
(-0.00375798 0.00223309 1.23936e-317 0.0104231 1.60529e-317 -0.00666508)
(-0.00316393 0.000903371 1.28996e-317 0.00912214 1.70643e-317 -0.00595821)
(-0.00159564 -0.000193396 1.30516e-317 0.00558433 1.85986e-317 -0.0039887)
(0.00218364 -0.000392045 2.86805e-317 -0.0106807 2.60616e-317 0.00849706)
(0.00428261 0.00143828 2.43026e-317 -0.0167677 2.12577e-317 0.012485)
(0.00497676 0.00352763 1.99598e-317 -0.0191775 1.75893e-317 0.0142008)
(0.00487645 0.00534025 1.64545e-317 -0.0194404 1.46617e-317 0.0145639)
(0.00429666 0.00680557 1.32993e-317 -0.018186 1.20186e-317 0.0138894)
(0.00352871 0.00777526 1.06488e-317 -0.0161338 1.02565e-317 0.0126051)
(0.00273169 0.00844862 8.52602e-318 -0.0135364 8.81047e-318 0.0108047)
(0.00197821 0.00880188 6.94494e-318 -0.0106824 8.1101e-318 0.00870422)
(0.00133368 0.00904895 5.88498e-318 -0.00769212 7.50448e-318 0.00635844)
(0.000710955 0.00917146 5.30967e-318 -0.00460239 7.42431e-318 0.00389144)
(0.000135346 0.00927915 5.18434e-318 -0.00150864 7.2659e-318 0.0013733)
(-0.000557036 0.00932407 5.48742e-318 0.00166253 7.52265e-318 -0.00110549)
(-0.0013105 0.00926419 6.21956e-318 0.00477578 7.6544e-318 -0.00346528)
(-0.00226265 0.00903877 7.40577e-318 0.00786669 8.21571e-318 -0.00560404)
(-0.0032611 0.00846044 9.10721e-318 0.0107104 8.72656e-318 -0.00744934)
(-0.00429253 0.00752387 1.14273e-317 0.0131271 9.80904e-318 -0.00883458)
(-0.00507346 0.00600322 1.45556e-317 0.014751 1.10712e-317 -0.0096775)
(-0.00531993 0.00409349 1.86141e-317 0.0149795 1.33118e-317 -0.00965958)
(-0.00461777 0.00181711 2.42136e-317 0.0132059 1.6655e-317 -0.00858814)
(-0.00231517 -0.000172642 2.97208e-317 0.00814194 2.36844e-317 -0.00582677)
(0.00300733 -0.000212542 1.49966e-317 -0.0130215 1.67613e-317 0.0100142)
(0.00579498 0.00261302 1.41588e-317 -0.0200073 1.51156e-317 0.0142123)
(0.00647232 0.00559046 1.35858e-317 -0.0225227 1.27285e-317 0.0160504)
(0.00605852 0.00800774 1.22287e-317 -0.0224656 1.07083e-317 0.0164071)
(0.00506163 0.00987919 1.05817e-317 -0.0206314 8.9123e-318 0.0155698)
(0.00392623 0.0109961 8.87779e-318 -0.0179355 7.69969e-318 0.0140093)
(0.00288676 0.0117254 7.35308e-318 -0.0147204 6.7068e-318 0.0118336)
(0.00201456 0.0120179 6.13703e-318 -0.0113055 6.19493e-318 0.00929091)
(0.00138259 0.0122366 5.29187e-318 -0.00783819 5.76501e-318 0.0064556)
(0.000829442 0.0123331 4.83825e-318 -0.00429818 5.68327e-318 0.00346873)
(0.000366308 0.0125005 4.77714e-318 -0.000788774 5.5792e-318 0.000422466)
(-0.000276076 0.0126502 5.10544e-318 0.0028567 5.75901e-318 -0.00258063)
(-0.00104397 0.0127316 5.822e-318 0.00648273 5.89597e-318 -0.00543876)
(-0.00217963 0.0126446 6.92337e-318 0.01021 6.34412e-318 -0.0080304)
(-0.00348651 0.0120834 8.39261e-318 0.013749 6.83227e-318 -0.0102625)
(-0.00499092 0.0110348 1.01768e-317 0.0169191 7.78637e-318 -0.0119281)
(-0.0062765 0.00906971 1.2141e-317 0.0191978 9.03369e-318 -0.0129213)
(-0.00691671 0.00647776 1.41148e-317 0.0197671 1.11259e-317 -0.0128504)
(-0.00625119 0.00313714 1.5548e-317 0.0177437 1.39324e-317 -0.0114925)
(-0.00320158 3.0024e-05 1.68594e-317 0.011315 1.73873e-317 -0.00811344)
(0.00419717 2.58113e-05 2.74548e-317 -0.0168684 2.1864e-317 0.0126713)
(0.00779742 0.00393916 2.2028e-317 -0.0245601 1.43697e-317 0.0167627)
(0.00830137 0.00780157 1.71297e-317 -0.026826 1.05276e-317 0.0185247)
(0.00735492 0.0106782 1.36429e-317 -0.026115 8.23918e-318 0.0187601)
(0.0057254 0.0127305 1.08713e-317 -0.0234249 6.71609e-318 0.0176995)
(0.00408154 0.0137322 8.71659e-318 -0.0199058 5.70738e-318 0.0158242)
(0.00274748 0.0142625 7.05258e-318 -0.0159928 5.00779e-318 0.0132453)
(0.00178103 0.0142902 5.82946e-318 -0.0120077 4.58036e-318 0.0102266)
(0.00126586 0.0143325 5.02018e-318 -0.00812921 4.30691e-318 0.00686336)
(0.000914521 0.0143362 4.6091e-318 -0.00422317 4.19765e-318 0.00330864)
(0.000737389 0.0145713 4.59093e-318 -0.000419426 4.17127e-318 -0.000317963)
(0.000281611 0.0149177 4.96978e-318 0.00361671 4.27347e-318 -0.00389832)
(-0.000369909 0.0153132 5.76408e-318 0.00767919 4.46e-318 -0.00730928)
(-0.00166611 0.015607 7.01046e-318 0.0120655 4.82019e-318 -0.0103994)
(-0.00331319 0.0153584 8.77148e-318 0.0163829 5.36728e-318 -0.0130697)
(-0.00547399 0.0145047 1.11399e-317 0.0205344 6.2745e-318 -0.0150604)
(-0.00751009 0.012348 1.42774e-317 0.0237813 7.69168e-318 -0.0162712)
(-0.0088514 0.00922164 1.82681e-317 0.0250841 1.00522e-317 -0.0162327)
(-0.00843444 0.00476665 2.36539e-317 0.0231729 1.41423e-317 -0.0147385)
(-0.00450554 0.000351702 2.91236e-317 0.0154905 2.21995e-317 -0.0109849)
(0.00539785 0.000514242 1.67312e-317 -0.0203961 1.64582e-317 0.0149982)
(0.0096616 0.00570234 1.50406e-317 -0.0282617 1.22155e-317 0.0186001)
(0.00972784 0.0104386 1.36256e-317 -0.0298021 8.93738e-318 0.0200742)
(0.00799575 0.0135084 1.17304e-317 -0.0280813 6.75197e-318 0.0200855)
(0.00561046 0.0154121 9.85287e-318 -0.024397 5.31383e-318 0.0187866)
(0.00343884 0.0158992 8.12668e-318 -0.0200625 4.38786e-318 0.0166236)
(0.00191334 0.0158982 6.68171e-318 -0.0156253 3.78487e-318 0.0137119)
(0.00102611 0.0153649 5.57489e-318 -0.0113275 3.41646e-318 0.0103013)
(0.000853711 0.0150455 4.83073e-318 -0.00736903 3.19415e-318 0.00651532)
(0.000961678 0.0148376 4.45708e-318 -0.00346266 3.0957e-318 0.00250098)
(0.00133374 0.0151381 4.45752e-318 0.000255315 3.0783e-318 -0.00158905)
(0.00132992 0.015763 4.83817e-318 0.00430321 3.158e-318 -0.00563312)
(0.00103013 0.016671 5.60776e-318 0.0084538 3.32973e-318 -0.00948393)
(-0.000243549 0.017649 6.77437e-318 0.0132178 3.65133e-318 -0.0129743)
(-0.00213444 0.0180993 8.33219e-318 0.0181322 4.17571e-318 -0.0159977)
(-0.00500181 0.0179086 1.02371e-317 0.0232684 5.04805e-318 -0.0182665)
(-0.00797808 0.0159549 1.23538e-317 0.0276662 6.45784e-318 -0.0196881)
(-0.0103721 0.0126293 1.44987e-317 0.0301298 8.75677e-318 -0.0197577)
(-0.0105662 0.00703221 1.60767e-317 0.0288721 1.23287e-317 -0.0183059)
(-0.00591283 0.00107717 1.76496e-317 0.0204446 1.7192e-317 -0.0145318)
(0.0069328 0.00140311 2.69286e-317 -0.0251473 2.07225e-317 0.0182145)
(0.0116724 0.00770919 2.16084e-317 -0.0324695 1.24774e-317 0.0207971)
(0.0108474 0.0129603 1.66794e-317 -0.0325739 8.20258e-318 0.0217265)
(0.00794951 0.01566 1.31702e-317 -0.0293458 5.76585e-318 0.0213963)
(0.00460568 0.016836 1.04109e-317 -0.0244401 4.31464e-318 0.0198345)
(0.00186489 0.0163009 8.29696e-318 -0.0192702 3.43153e-318 0.0174053)
(0.000255202 0.0153468 6.68707e-318 -0.0144663 2.88716e-318 0.0142111)
(-0.000368232 0.0139696 5.51836e-318 -0.0101022 2.55789e-318 0.0104705)
(6.1381e-05 0.0130873 4.75444e-318 -0.006379 2.36528e-318 0.00631762)
(0.00090168 0.0125767 4.37704e-318 -0.00280783 2.27304e-318 0.00190615)
(0.00214226 0.0129259 4.38012e-318 0.000463475 2.25731e-318 -0.00260574)
(0.00288139 0.0139044 4.77019e-318 0.00417506 2.32331e-318 -0.00705645)
(0.00325481 0.0155138 5.56519e-318 0.00806412 2.48571e-318 -0.0113189)
(0.00222308 0.0174784 6.79732e-318 0.0129396 2.79473e-318 -0.0151627)
(0.000276925 0.0191007 8.51602e-318 0.0182593 3.32961e-318 -0.0185362)
(-0.00335362 0.0201679 1.07936e-317 0.0244387 4.23643e-318 -0.021085)
(-0.00747044 0.0191106 1.37645e-317 0.0302696 5.74835e-318 -0.0227991)
(-0.0114413 0.0162575 1.75009e-317 0.0345728 8.28235e-318 -0.0231316)
(-0.0128216 0.00989594 2.25767e-317 0.0348664 1.26571e-317 -0.0220449)
(-0.00772117 0.00247678 2.77818e-317 0.0265244 2.08783e-317 -0.0188032)
(0.00819654 0.00308394 1.80258e-317 -0.0298326 1.68454e-317 0.021636)
(0.0127737 0.0103058 1.6028e-317 -0.035681 1.1435e-317 0.0229073)
(0.010617 0.015559 1.42416e-317 -0.0336782 7.59129e-318 0.0230612)
(0.00628494 0.0170986 1.2033e-317 -0.0285458 5.17414e-318 0.0222609)
(0.00205257 0.0168366 9.94001e-318 -0.0224579 3.69806e-318 0.0204053)
(-0.00106134 0.0146621 8.08808e-318 -0.0166669 2.80818e-318 0.0177282)
(-0.00243882 0.0123211 6.5784e-318 -0.0118835 2.27247e-318 0.0143223)
(-0.00246358 0.00979063 5.44207e-318 -0.00787168 1.95319e-318 0.0103353)
(-0.00110735 0.00816708 4.68488e-318 -0.00482413 1.7671e-318 0.00593148)
(0.000795666 0.00724016 4.30396e-318 -0.00203249 1.67155e-318 0.00123682)
(0.0032117 0.00761616 4.29865e-318 0.000347653 1.64614e-318 -0.00355935)
(0.00504343 0.0089793 4.67449e-318 0.00324756 1.69368e-318 -0.00829099)
(0.00644091 0.0114482 5.443e-318 0.00638262 1.83393e-318 -0.0128235)
(0.00603869 0.0146805 6.61877e-318 0.0108697 2.11699e-318 -0.0169084)
(0.00439761 0.0179696 8.20434e-318 0.0161244 2.62846e-318 -0.020522)
(0.000232481 0.0210124 1.01695e-317 0.0230773 3.51649e-318 -0.0233097)
(-0.00497037 0.0217354 1.2399e-317 0.0303025 5.02203e-318 -0.0253321)
(-0.0109153 0.0203746 1.47227e-317 0.0370159 7.53128e-318 -0.0261005)
(-0.0140958 0.0138575 1.65375e-317 0.0398424 1.15524e-317 -0.0257466)
(-0.0093618 0.00524361 1.84072e-317 0.0331029 1.73299e-317 -0.0237411)
(0.00963216 0.00595524 2.62117e-317 -0.0354269 1.99822e-317 0.0257948)
(0.0132003 0.0131136 2.11907e-317 -0.0383186 1.16617e-317 0.0251184)
(0.00907926 0.0172196 1.64752e-317 -0.0332775 7.22248e-318 0.0241983)
(0.0029964 0.0164677 1.30812e-317 -0.0257968 4.68386e-318 0.0228004)
(-0.00202958 0.013866 1.03657e-317 -0.0186013 3.20665e-318 0.0206309)
(-0.00527294 0.00950219 8.25097e-318 -0.0124753 2.33913e-318 0.0177483)
(-0.00607741 0.00540874 6.62125e-318 -0.0081316 1.82514e-318 0.014209)
(-0.00518241 0.00157894 5.42734e-318 -0.0049022 1.51809e-318 0.0100846)
(-0.00259471 -0.000887878 4.6381e-318 -0.0029351 1.33516e-318 0.0055298)
(0.000638585 -0.00226725 4.23604e-318 -0.0013183 1.23219e-318 0.000679713)
(0.00451439 -0.00191342 4.21463e-318 -0.000204974 1.19201e-318 -0.00430942)
(0.00772737 -0.000205471 4.57883e-318 0.00146921 1.21739e-318 -0.00919658)
(0.0105247 0.00314159 5.34633e-318 0.00340008 1.33303e-318 -0.0139247)
(0.0111345 0.00773118 6.54746e-318 0.00701364 1.59265e-318 -0.0181482)
(0.0102775 0.0130535 8.22625e-318 0.0116881 2.09187e-318 -0.0219656)
(0.00587077 0.018682 1.04435e-317 0.0190984 2.99152e-318 -0.0249691)
(-0.000214576 0.0222997 1.3317e-317 0.0276053 4.55666e-318 -0.0273907)
(-0.0086157 0.0238597 1.69064e-317 0.0374269 7.2221e-318 -0.0288112)
(-0.0143847 0.0186615 2.17899e-317 0.0440643 1.17809e-317 -0.0296796)
(-0.0112509 0.0100675 2.67974e-317 0.0410499 2.00319e-317 -0.0297991)
(0.0103379 0.010631 1.89171e-317 -0.0407336 1.71125e-317 0.0303957)
(0.0114688 0.016368 1.67314e-317 -0.0389129 1.10022e-317 0.0274441)
(0.00517637 0.0178267 1.47407e-317 -0.0304388 6.87444e-318 0.0252625)
(-0.00253631 0.0134472 1.23574e-317 -0.0206587 4.36694e-318 0.023195)
(-0.0077766 0.00758696 1.01237e-317 -0.0129488 2.89033e-318 0.0207254)
(-0.0105927 0.000524574 8.16625e-318 -0.00708871 2.02953e-318 0.0176814)
(-0.0103313 -0.00556851 6.57557e-318 -0.00375518 1.52339e-318 0.0140865)
(-0.00814792 -0.0107684 5.37714e-318 -0.0017541 1.21925e-318 0.00990202)
(-0.00411148 -0.0140883 4.57008e-318 -0.00119108 1.03124e-318 0.00530256)
(0.000623769 -0.0159346 4.14604e-318 -0.00101498 9.14422e-319 0.000391213)
(0.00605199 -0.0156358 4.10151e-318 -0.0013907 8.5169e-319 -0.00466129)
(0.0108268 -0.0136763 4.44042e-318 -0.00123117 8.46883e-319 -0.00959565)
(0.0152368 -0.00950331 5.17768e-318 -0.000864559 9.24659e-319 -0.0143722)
(0.0172821 -0.00359196 6.33454e-318 0.00133969 1.13908e-318 -0.0186218)
(0.0177539 0.00400941 7.92751e-318 0.00474673 1.58884e-318 -0.0225006)
(0.0137825 0.0127428 9.94958e-318 0.0118638 2.44113e-318 -0.0256463)
(0.00750952 0.0204119 1.23174e-317 0.0209107 3.971e-318 -0.0284202)
(-0.00326379 0.0266144 1.48804e-317 0.0338959 6.61597e-318 -0.0306321)
(-0.0119252 0.0247399 1.70299e-317 0.0450414 1.09839e-317 -0.0331162)
(-0.012386 0.018119 1.92416e-317 0.0486807 1.75503e-317 -0.0362948)
(0.0109083 0.017093 2.54698e-317 -0.0462334 1.92961e-317 0.0353251)
(0.00796687 0.0187409 2.07785e-317 -0.037491 1.09939e-317 0.0295241)
(-0.000712162 0.015261 1.63447e-317 -0.0252216 6.53381e-318 0.0259337)
(-0.00983399 0.00603341 1.30877e-317 -0.0133475 4.02347e-318 0.0231815)
(-0.0146515 -0.00377456 1.04056e-317 -0.00579582 2.60333e-318 0.0204473)
(-0.0164725 -0.0135614 8.26105e-318 -0.00082731 1.78937e-318 0.0172998)
(-0.014707 -0.0215477 6.57778e-318 0.000984494 1.31084e-318 0.0137225)
(-0.0109681 -0.0278535 5.32627e-318 0.0013911 1.01503e-318 0.00957696)
(-0.00536686 -0.0318558 4.48272e-318 0.000344051 8.20767e-319 0.00502281)
(0.000900982 -0.0340614 4.02895e-318 -0.00107591 6.8688e-319 0.000174927)
(0.00787342 -0.033867 3.95605e-318 -0.00302172 5.96994e-319 -0.0048517)
(0.0142384 -0.0318378 4.26733e-318 -0.0045318 5.55453e-319 -0.00970657)
(0.0203843 -0.0271276 4.97956e-318 -0.00593249 5.87592e-319 -0.0144518)
(0.0241507 -0.0202886 6.12545e-318 -0.00553199 7.47922e-319 -0.0186188)
(0.0264731 -0.0106248 7.75446e-318 -0.00398189 1.14089e-318 -0.0224912)
(0.0235843 0.00112709 9.93146e-318 0.00211791 1.94607e-318 -0.0257022)
(0.0179831 0.0137017 1.27713e-317 0.0108135 3.46447e-318 -0.0287966)
(0.00499233 0.026068 1.63314e-317 0.0268504 6.18479e-318 -0.0318427)
(-0.00674259 0.0306409 2.11702e-317 0.0429838 1.09329e-317 -0.0362412)
(-0.0133176 0.0295872 2.6111e-317 0.0567626 1.93865e-317 -0.043445)
(0.00976542 0.0250534 1.95669e-317 -0.0491298 1.70885e-317 0.0393644)
(0.00118952 0.0197863 1.72829e-317 -0.0319701 1.04028e-317 0.0307805)
(-0.00890945 0.00905758 1.51668e-317 -0.0170794 6.19007e-318 0.0259889)
(-0.0183428 -0.0060254 1.2643e-317 -0.00438832 3.77096e-318 0.0227312)
(-0.0216799 -0.0201985 1.02683e-317 0.00179119 2.41317e-318 0.0198888)
(-0.0217676 -0.0325565 8.18857e-318 0.00501329 1.64205e-318 0.0167543)
(-0.0181728 -0.0421702 6.49963e-318 0.00487309 1.18397e-318 0.0132997)
(-0.0127724 -0.0492485 5.2231e-318 0.00349322 8.90761e-319 0.00927916)
(-0.0057551 -0.0536946 4.35206e-318 0.000883738 6.84943e-319 0.00487137)
(0.00183871 -0.0561295 3.86964e-318 -0.0020071 5.28482e-319 0.00016839)
(0.0100328 -0.0560485 3.76483e-318 -0.00531775 4.06665e-319 -0.00471501)
(0.017756 -0.0541279 4.03768e-318 -0.0083574 3.22205e-319 -0.00939861)
(0.0253978 -0.0491632 4.70352e-318 -0.0114267 2.97689e-319 -0.0139712)
(0.0309638 -0.0418651 5.79017e-318 -0.0130238 3.84408e-319 -0.01794)
(0.0353774 -0.0304848 7.3336e-318 -0.0137511 6.83826e-319 -0.0216264)
(0.0344188 -0.0160775 9.36179e-318 -0.00968712 1.37763e-318 -0.0247317)
(0.0306792 0.00193254 1.18453e-317 -0.00279657 2.78113e-318 -0.0278827)
(0.016763 0.0216336 1.46838e-317 0.0147394 5.4193e-318 -0.0315024)
(0.00314923 0.0358934 1.73021e-317 0.0344088 1.0066e-317 -0.037558)
(-0.0120642 0.0445227 2.00094e-317 0.0610226 1.75423e-317 -0.0489584)
(0.00783778 0.0313884 2.48451e-317 -0.0494115 1.84509e-317 0.0415737)
(-0.00747435 0.0160199 2.05076e-317 -0.0232094 1.0083e-317 0.0306837)
(-0.0181345 -0.00416904 1.63359e-317 -0.00706987 5.7707e-318 0.0252044)
(-0.026811 -0.0248974 1.31275e-317 0.00506961 3.48103e-318 0.0217414)
(-0.0278117 -0.0429701 1.03918e-317 0.00886307 2.24514e-318 0.0189487)
(-0.0256292 -0.0569565 8.15694e-318 0.00971304 1.5461e-318 0.0159162)
(-0.0200566 -0.067434 6.38918e-318 0.00740454 1.11737e-318 0.012652)
(-0.013049 -0.0746399 5.06995e-318 0.00421631 8.25875e-319 0.00883265)
(-0.00486206 -0.079123 4.17034e-318 0.000218752 6.04983e-319 0.0046433)
(0.00374817 -0.0815636 3.66116e-318 -0.00393288 4.23231e-319 0.000184717)
(0.0127863 -0.0816019 3.52408e-318 -0.00830821 2.67191e-319 -0.00447808)
(0.021529 -0.079984 3.75434e-318 -0.012641 1.3818e-319 -0.00888795)
(0.030335 -0.0752266 4.36608e-318 -0.0171197 5.40705e-320 -0.0132152)
(0.0375788 -0.0681918 5.39381e-318 -0.0206854 5.99895e-320 -0.0168935)
(0.0441207 -0.0560326 6.89569e-318 -0.0238191 2.52734e-319 -0.0203015)
(0.0456245 -0.0402142 8.95599e-318 -0.0224769 8.16088e-319 -0.0231476)
(0.044698 -0.0173645 1.17196e-317 -0.0186213 2.08423e-318 -0.0260767)
(0.031004 0.00919467 1.52859e-317 -0.00125532 4.6385e-318 -0.0297487)
(0.0167135 0.0363208 2.0245e-317 0.0199066 9.46786e-318 -0.0366201)
(-0.00945417 0.058949 2.5392e-317 0.0609242 1.84253e-317 -0.05147)
(0.00229969 0.0334696 2.01971e-317 -0.0416002 1.65623e-317 0.0393006)
(-0.0183165 0.00653117 1.78529e-317 -0.0100355 9.37151e-318 0.0283521)
(-0.0272127 -0.024082 1.55483e-317 0.00396666 5.36795e-318 0.0232461)
(-0.0330507 -0.0497693 1.27767e-317 0.0129958 3.27654e-318 0.0200549)
(-0.0309985 -0.0709729 1.01817e-317 0.0134473 2.16172e-318 0.0175512)
(-0.0262129 -0.0856712 7.94712e-318 0.0114529 1.52065e-318 0.01476)
(-0.0189498 -0.0963056 6.16205e-318 0.00716007 1.10815e-318 0.0117898)
(-0.0107249 -0.1031 4.82948e-318 0.00246494 8.09092e-319 0.00825993)
(-0.00193255 -0.107283 3.91826e-318 -0.00245302 5.67731e-319 0.00438556)
(0.00713316 -0.109539 3.39366e-318 -0.00738654 3.5922e-319 0.000253371)
(0.0163776 -0.109665 3.22814e-318 -0.0122976 1.70072e-319 -0.00407996)
(0.0255356 -0.108464 3.41111e-318 -0.0174044 -2.59879e-321 -0.00813122)
(0.0348019 -0.10421 3.95118e-318 -0.0227085 -1.46332e-319 -0.0120934)
(0.0432237 -0.0979971 4.87839e-318 -0.0278428 -2.26376e-319 -0.0153809)
(0.0513265 -0.0858185 6.24294e-318 -0.0329712 -1.60043e-319 -0.0183553)
(0.0555984 -0.0698067 8.10813e-318 -0.0348616 2.19889e-319 -0.0207367)
(0.0579879 -0.043018 1.05211e-317 -0.0349697 1.24394e-318 -0.0230181)
(0.0469943 -0.0108678 1.34879e-317 -0.021105 3.52536e-318 -0.0258893)
(0.0346811 0.0307549 1.66074e-317 -0.00294484 8.10757e-318 -0.0317363)
(-0.00176036 0.0696626 2.00488e-317 0.0483142 1.65196e-317 -0.0465538)
(-0.00421213 0.0226371 2.4555e-317 -0.0278658 1.70858e-317 0.0320779)
(-0.0282256 -0.0143345 2.04331e-317 0.0043668 8.73696e-318 0.0238588)
(-0.0341694 -0.0539505 1.6258e-317 0.0138516 4.91872e-318 0.0203179)
(-0.0357989 -0.0818621 1.28681e-317 0.0179543 3.08423e-318 0.0178446)
(-0.0304198 -0.104133 9.96422e-318 0.014634 2.11916e-318 0.0157858)
(-0.0230369 -0.118033 7.62409e-318 0.00972833 1.53749e-318 0.0133086)
(-0.0144768 -0.127781 5.81325e-318 0.00379328 1.1337e-318 0.0106835)
(-0.00548551 -0.133564 4.4867e-318 -0.00201954 8.19927e-319 0.00750505)
(0.00338856 -0.137079 3.58676e-318 -0.00740144 5.56935e-319 0.00401289)
(0.0124023 -0.138965 3.0626e-318 -0.0126955 3.23855e-319 0.000293209)
(0.0213131 -0.13914 2.87627e-318 -0.017679 1.06624e-319 -0.00363409)
(0.0303621 -0.138395 3.01172e-318 -0.0231197 -1.00715e-319 -0.00724233)
(0.039476 -0.134963 3.4725e-318 -0.0286986 -2.94503e-319 -0.0107774)
(0.0485644 -0.130051 4.28578e-318 -0.0349499 -4.51018e-319 -0.0136146)
(0.0576019 -0.118994 5.50947e-318 -0.0415006 -5.06239e-319 -0.0161013)
(0.0645721 -0.104469 7.23899e-318 -0.0466618 -3.12941e-319 -0.0179103)
(0.0702498 -0.0762697 9.65554e-318 -0.0509967 4.36942e-319 -0.0192531)
(0.0634758 -0.0423566 1.29446e-317 -0.0430229 2.36852e-318 -0.0204529)
(0.0543714 0.0123358 1.78824e-317 -0.0313982 6.69162e-318 -0.0229732)
(0.00838125 0.0651779 2.34003e-317 0.0242796 1.59035e-317 -0.0326608)
(-0.015831 -0.00121613 2.08996e-317 -0.0028045 1.50857e-317 0.0186355)
(-0.0347987 -0.0451017 1.82335e-317 0.0172907 7.91e-318 0.017508)
(-0.0359962 -0.0909128 1.53487e-317 0.0193958 4.57227e-318 0.0166003)
(-0.0316646 -0.118903 1.21457e-317 0.0165371 3.00218e-318 0.0151275)
(-0.0235839 -0.140525 9.32167e-318 0.00997596 2.14327e-318 0.0136079)
(-0.0142641 -0.152593 7.02819e-318 0.00274825 1.58606e-318 0.0115158)
(-0.00536473 -0.160785 5.278e-318 -0.00393825 1.17246e-318 0.00930298)
(0.00357886 -0.165212 4.01396e-318 -0.0101334 8.38479e-319 0.00655451)
(0.0118053 -0.167873 3.16289e-318 -0.0153396 5.5486e-319 0.00353426)
(0.0201122 -0.169276 2.66283e-318 -0.0204259 3.03371e-319 0.00031376)
(0.0280669 -0.169461 2.46964e-318 -0.0249616 6.91642e-320 -0.00310531)
(0.0363356 -0.169129 2.56058e-318 -0.0301458 -1.59282e-319 -0.00618983)
(0.0445152 -0.166619 2.93278e-318 -0.0353055 -3.86582e-319 -0.0092097)
(0.0533905 -0.163193 3.6039e-318 -0.0418526 -6.01515e-319 -0.011538)
(0.0621705 -0.153879 4.61703e-318 -0.0486875 -7.62684e-319 -0.013483)
(0.0711044 -0.141888 6.03909e-318 -0.0564386 -7.59982e-319 -0.0146658)
(0.0788009 -0.114216 7.96294e-318 -0.0638861 -3.38549e-319 -0.0149147)
(0.0785147 -0.0816904 1.04952e-317 -0.0646998 1.07576e-318 -0.0138149)
(0.0737372 -0.0171087 1.35616e-317 -0.0631318 4.68356e-318 -0.0106055)
(0.0269824 0.0449465 1.7493e-317 -0.0199833 1.29382e-317 -0.00699911)
(-0.024041 -0.0499306 2.39522e-317 0.0199159 1.44479e-317 0.00412506)
(-0.035062 -0.0918008 1.95953e-317 0.0240791 7.10322e-318 0.0109828)
(-0.0312184 -0.135609 1.49155e-317 0.018531 4.23189e-318 0.0126874)
(-0.0207388 -0.159728 1.12739e-317 0.00859584 2.9287e-318 0.0121429)
(-0.0106349 -0.177779 8.35634e-318 -0.000489258 2.15731e-318 0.0111241)
(-0.000168946 -0.186963 6.15381e-318 -0.00926296 1.60992e-318 0.00943191)
(0.00830305 -0.192959 4.53718e-318 -0.0159679 1.1835e-318 0.00766484)
(0.0165423 -0.195905 3.39743e-318 -0.0219475 8.35094e-319 0.00540518)
(0.0235905 -0.197648 2.64014e-318 -0.0265183 5.41995e-319 0.00292783)
(0.030727 -0.198547 2.19411e-318 -0.0310177 2.85945e-319 0.000290755)
(0.0373055 -0.198708 2.01089e-318 -0.0347675 4.99105e-320 -0.00253802)
(0.0443572 -0.198648 2.0647e-318 -0.0393328 -1.81268e-319 -0.00502433)
(0.0510977 -0.197055 2.3469e-318 -0.0436203 -4.18666e-319 -0.00747745)
(0.0591775 -0.194973 2.86901e-318 -0.0499026 -6.60941e-319 -0.00927495)
(0.0669026 -0.188054 3.66404e-318 -0.0561967 -8.88429e-319 -0.0107059)
(0.0771404 -0.179323 4.7965e-318 -0.0657903 -1.02853e-318 -0.0113501)
(0.0858418 -0.155717 6.4214e-318 -0.0751516 -8.91443e-319 -0.0106902)
(0.0927166 -0.129408 8.73452e-318 -0.0853059 -9.07105e-321 -0.00741064)
(0.0915505 -0.0651197 1.27042e-317 -0.0938648 2.74946e-318 0.00231428)
(0.0454298 -0.00780614 1.78033e-317 -0.0698434 1.02996e-317 0.0244136)
(-0.0321728 -0.110126 1.9473e-317 0.0399115 1.22745e-317 -0.00773876)
(-0.0215017 -0.148588 1.62361e-317 0.0157486 6.57987e-318 0.0057531)
(-0.0137409 -0.185974 1.25866e-317 0.00481284 4.13997e-318 0.00892809)
(0.00100966 -0.204522 9.33554e-318 -0.00994051 2.93388e-318 0.00893085)
(0.0108281 -0.217478 6.78682e-318 -0.0191387 2.15323e-318 0.00831057)
(0.0205426 -0.223334 4.90493e-318 -0.0275803 1.58173e-318 0.00703773)
(0.0273802 -0.226947 3.55897e-318 -0.0331384 1.14016e-318 0.00575814)
(0.0340109 -0.228445 2.62804e-318 -0.0380695 7.89334e-319 0.00405858)
(0.0393285 -0.229348 2.01675e-318 -0.0415341 5.03576e-319 0.00220559)
(0.0448125 -0.229742 1.65674e-318 -0.0450499 2.60921e-319 0.000237429)
(0.0496661 -0.229892 1.50251e-318 -0.0477602 4.16646e-320 -0.0019059)
(0.0550423 -0.229941 1.52888e-318 -0.051318 -1.71223e-319 -0.00372427)
(0.0599008 -0.22921 1.72358e-318 -0.0543516 -3.92777e-319 -0.00554917)
(0.0663298 -0.22819 2.08921e-318 -0.0595301 -6.29094e-319 -0.00679968)
(0.0719582 -0.223907 2.63804e-318 -0.0642049 -8.7586e-319 -0.00775331)
(0.0816378 -0.218438 3.39477e-318 -0.0736322 -1.09565e-318 -0.00800561)
(0.0887231 -0.200819 4.40416e-318 -0.0818569 -1.17254e-318 -0.00686617)
(0.101594 -0.182122 5.72192e-318 -0.0991972 -7.87659e-319 -0.0023971)
(0.100466 -0.124088 7.40775e-318 -0.112713 9.37178e-319 0.0122479)
(0.0732077 -0.0737999 1.02979e-317 -0.128526 6.27714e-318 0.0553178)
(-0.0206385 -0.186354 1.76983e-317 0.0273655 8.39022e-318 -0.00672705)
(0.00404245 -0.211693 1.37034e-317 -0.00712617 4.65368e-318 0.00308372)
(0.0154651 -0.228704 9.36581e-318 -0.0209563 3.18009e-318 0.00549117)
(0.0314854 -0.239098 6.60137e-318 -0.0370408 2.35321e-318 0.00555544)
(0.0396088 -0.245585 4.6233e-318 -0.0448296 1.74281e-318 0.00522078)
(0.0471699 -0.248462 3.2675e-318 -0.0515574 1.27224e-318 0.00438747)
(0.0516815 -0.250185 2.33359e-318 -0.0553018 9.06818e-319 0.00362021)
(0.0561178 -0.250776 1.70231e-318 -0.058659 6.20542e-319 0.00254115)
(0.059398 -0.251201 1.2928e-318 -0.0607779 3.91848e-319 0.00137985)
(0.0629163 -0.251308 1.05188e-318 -0.0630712 2.01272e-319 0.000154854)
(0.0658628 -0.251423 9.45844e-319 -0.0646451 3.23218e-320 -0.00121771)
(0.0692941 -0.251445 9.54555e-319 -0.066978 -1.3114e-319 -0.00231604)
(0.0721193 -0.251148 1.06831e-318 -0.0686525 -3.01696e-319 -0.00346678)
(0.0764366 -0.250682 1.28443e-318 -0.0722556 -4.87989e-319 -0.00418097)
(0.0796718 -0.248479 1.60515e-318 -0.0749513 -6.94182e-319 -0.00472047)
(0.0875943 -0.24565 2.04088e-318 -0.082821 -9.09051e-319 -0.00477327)
(0.0925247 -0.235798 2.64519e-318 -0.0887695 -1.08328e-318 -0.00375522)
(0.109257 -0.226669 3.46815e-318 -0.109372 -1.06617e-318 0.000114975)
(0.109959 -0.192776 5.22714e-318 -0.124265 -3.44971e-319 0.0143054)
(0.0925318 -0.172506 7.97009e-318 -0.157868 2.79266e-318 0.065336)
(0.0383436 -0.285107 8.27064e-318 -0.0425992 1.23288e-317 0.00425563)
(0.0576563 -0.287832 6.45561e-318 -0.0592658 7.40366e-318 0.00160957)
(0.0666382 -0.286081 4.27793e-318 -0.0686444 4.63674e-318 0.00200628)
(0.0738308 -0.288162 2.87132e-318 -0.0757818 2.95235e-318 0.00195097)
(0.0768053 -0.287874 1.93048e-318 -0.0786557 1.94255e-318 0.00185038)
(0.0798172 -0.287954 1.32213e-318 -0.0813432 1.29044e-318 0.00152604)
(0.0812462 -0.287719 9.21936e-319 -0.0825271 8.54655e-319 0.00128095)
(0.0829929 -0.287155 6.59538e-319 -0.0838828 5.5326e-319 0.000889859)
(0.084112 -0.287172 4.9287e-319 -0.0845927 3.36301e-319 0.000480755)
(0.0855486 -0.286555 3.95574e-319 -0.0856065 1.70581e-319 5.78805e-05)
(0.0865729 -0.286969 3.51547e-319 -0.086124 3.25046e-320 -0.000448812)
(0.0879893 -0.286417 3.51241e-319 -0.0871836 -9.48705e-320 -0.000805637)
(0.0888093 -0.287204 3.88849e-319 -0.0875832 -2.25299e-319 -0.00122606)
(0.0906162 -0.286346 4.59432e-319 -0.089178 -3.66947e-319 -0.0014382)
(0.0911805 -0.287341 5.56535e-319 -0.0895683 -5.21817e-319 -0.0016122)
(0.094928 -0.285091 6.63698e-319 -0.0933233 -6.76494e-319 -0.00160477)
(0.0950892 -0.286056 7.43342e-319 -0.0938982 -7.79151e-319 -0.00119102)
(0.105918 -0.280874 7.08446e-319 -0.106276 -7.17625e-319 0.000358583)
(0.0967395 -0.280751 3.15253e-319 -0.103676 -1.08531e-319 0.00693619)
(0.104683 -0.254871 4.14185e-319 -0.144503 1.35234e-318 0.0398206)
)
;

boundaryField
{
    cavity
    {
        type            mySigma;
    }
    lid
    {
        type            fixedValue;
        value           uniform (0.1 -0.3 0 -0.1 0 0);
    }
    frontAndBack
    {
        type            empty;
    }
}


// ************************************************************************* //
