/*--------------------------------*- C++ -*----------------------------------*\
| =========                 |                                                 |
| \\      /  F ield         | foam-extend: Open Source CFD                    |
|  \\    /   O peration     | Version:  3.0                                   |
|   \\  /    A nd           | Web:         http://www.extend-project.de       |
|    \\/     M anipulation  |                                                 |
\*---------------------------------------------------------------------------*/
FoamFile
{
    version     2.0;
    format      ascii;
    class       volVectorField;
    location    "0.7";
    object      u;
}
// * * * * * * * * * * * * * * * * * * * * * * * * * * * * * * * * * * * * * //

dimensions      [0 0 0 0 0 0 0];

internalField   nonuniform List<vector> 
400
(
(0.00115295 0.00687272 3.09893e-316)
(-0.0026676 0.014114 2.54608e-316)
(-0.00661422 0.015027 1.44803e-316)
(-0.0112574 0.0154411 1.66486e-316)
(-0.0156754 0.0136111 7.15152e-317)
(-0.0191121 0.0118057 1.21152e-316)
(-0.0223069 0.00920179 4.22225e-317)
(-0.024244 0.00678439 1.02929e-316)
(-0.0259765 0.00411167 3.05955e-317)
(-0.0266941 0.0015542 9.49521e-317)
(-0.027035 -0.00109443 2.42584e-317)
(-0.0266986 -0.0037228 8.88179e-317)
(-0.0255325 -0.00642884 1.71923e-317)
(-0.0239581 -0.00903542 7.9829e-317)
(-0.0210135 -0.0116979 5.35849e-318)
(-0.0178825 -0.0137766 6.4425e-317)
(-0.0132713 -0.0157088 -1.39737e-317)
(-0.0088106 -0.0158306 4.1329e-317)
(-0.00405458 -0.0153107 -3.20405e-317)
(-9.07026e-05 -0.010115 1.05768e-317)
(-0.00296463 0.033907 4.6755e-317)
(-0.0062457 0.0382928 8.91568e-317)
(-0.0101288 0.0374852 8.69968e-317)
(-0.0130751 0.0368142 8.10151e-317)
(-0.0164658 0.0333151 6.81292e-317)
(-0.0187516 0.0300341 5.95615e-317)
(-0.0213224 0.0254218 4.94849e-317)
(-0.0227122 0.0208575 4.4845e-317)
(-0.0242048 0.0159822 3.83017e-317)
(-0.0247368 0.0108417 3.62427e-317)
(-0.0250419 0.00599127 3.12544e-317)
(-0.0247605 0.000677915 2.98738e-317)
(-0.0237367 -0.00408798 2.48535e-317)
(-0.0225425 -0.0091069 2.29737e-317)
(-0.0200534 -0.0135632 1.73137e-317)
(-0.0178103 -0.0174088 1.52085e-317)
(-0.0140072 -0.0207857 1.03477e-317)
(-0.0108412 -0.0219605 1.23422e-317)
(-0.00631206 -0.0227488 1.27865e-317)
(-0.00268829 -0.0190072 3.27036e-317)
(-0.00323916 0.0523086 2.09864e-316)
(-0.00893903 0.057688 1.43075e-316)
(-0.0152048 0.0561531 1.05111e-316)
(-0.0198002 0.054754 8.25801e-317)
(-0.0250209 0.0487584 6.09185e-317)
(-0.0278808 0.0432234 5.29235e-317)
(-0.0314827 0.0353338 3.99059e-317)
(-0.0328304 0.0277106 3.78732e-317)
(-0.0348369 0.0193529 2.87685e-317)
(-0.0352066 0.0107814 2.91747e-317)
(-0.0357173 0.00240277 2.13295e-317)
(-0.0353898 -0.00650065 2.19967e-317)
(-0.0341866 -0.014841 1.34436e-317)
(-0.032942 -0.023343 1.23206e-317)
(-0.0295446 -0.0312776 5.49875e-319)
(-0.0268052 -0.0379052 -6.02221e-318)
(-0.0210211 -0.04408 -2.66958e-317)
(-0.0164303 -0.0463227 -4.97887e-317)
(-0.00913412 -0.0480935 -9.24093e-317)
(-0.0033759 -0.0428141 -1.73858e-316)
(-0.00435637 0.0878907 -1.21178e-318)
(-0.0122465 0.0940606 4.12039e-317)
(-0.0204024 0.0897015 4.76806e-317)
(-0.0257035 0.0864636 4.81425e-317)
(-0.0318854 0.0766964 4.27668e-317)
(-0.0345792 0.0680611 3.70242e-317)
(-0.0385527 0.0564856 3.10068e-317)
(-0.0395224 0.0451947 2.63502e-317)
(-0.0417208 0.0335692 2.18717e-317)
(-0.0419277 0.0210295 1.85014e-317)
(-0.0426497 0.00968698 1.47607e-317)
(-0.042529 -0.0034107 1.15086e-317)
(-0.0414706 -0.0147343 7.26813e-318)
(-0.040671 -0.0275067 2.96854e-318)
(-0.0369953 -0.038713 -2.63348e-318)
(-0.034483 -0.0491643 -8.05973e-318)
(-0.0275089 -0.0587345 -1.35426e-317)
(-0.0222025 -0.0631786 -1.43313e-317)
(-0.0125995 -0.0673693 -1.07838e-317)
(-0.00462215 -0.0606971 2.31027e-317)
(-0.00664759 0.106036 1.92974e-316)
(-0.0184993 0.113315 1.16233e-316)
(-0.030663 0.106303 8.30183e-317)
(-0.037618 0.10129 5.90313e-317)
(-0.0463427 0.0879018 4.41852e-317)
(-0.0488968 0.0763638 3.41934e-317)
(-0.0541797 0.0613654 2.67029e-317)
(-0.0543016 0.0469375 2.13732e-317)
(-0.0572045 0.0323409 1.67803e-317)
(-0.0567817 0.0165894 1.31984e-317)
(-0.0579847 0.00247868 9.44224e-318)
(-0.0579216 -0.0140713 5.87529e-318)
(-0.056967 -0.0283941 1.29647e-318)
(-0.0567929 -0.0449635 -4.05854e-318)
(-0.0521526 -0.059747 -1.17345e-317)
(-0.050048 -0.0739537 -2.2241e-317)
(-0.0401484 -0.0874944 -3.83022e-317)
(-0.0337313 -0.0942461 -6.4702e-317)
(-0.0190132 -0.101368 -1.02383e-316)
(-0.007449 -0.0928887 -1.86117e-316)
(-0.00891026 0.153986 -3.1351e-318)
(-0.0238066 0.162019 3.6434e-317)
(-0.0390357 0.149598 4.04168e-317)
(-0.046229 0.14112 3.92746e-317)
(-0.056094 0.12171 3.36421e-317)
(-0.0574957 0.105377 2.75998e-317)
(-0.0629196 0.0855017 2.19767e-317)
(-0.0618292 0.0661904 1.71998e-317)
(-0.0648158 0.0480177 1.30661e-317)
(-0.063895 0.0273618 9.44329e-318)
(-0.0655624 0.0103822 5.91147e-318)
(-0.0660214 -0.0114744 2.27377e-318)
(-0.0657717 -0.0288778 -1.90517e-318)
(-0.0670183 -0.051471 -6.77531e-318)
(-0.0625938 -0.0704989 -1.25896e-317)
(-0.0620666 -0.0910911 -1.90031e-317)
(-0.0506526 -0.110388 -2.52284e-317)
(-0.0443493 -0.121871 -2.72683e-317)
(-0.0253339 -0.134584 -2.41192e-317)
(-0.0104084 -0.124713 1.41229e-317)
(-0.0132168 0.175778 1.86519e-316)
(-0.0334027 0.183724 1.06257e-316)
(-0.0544721 0.165748 7.38924e-317)
(-0.0618488 0.153437 5.06628e-317)
(-0.0742119 0.1291 3.68743e-317)
(-0.0732836 0.108745 2.73147e-317)
(-0.0794737 0.085647 2.03859e-317)
(-0.0757822 0.0631242 1.50968e-317)
(-0.0792506 0.0430451 1.0799e-317)
(-0.0768266 0.0196397 7.07663e-318)
(-0.0793472 0.00129971 3.52143e-318)
(-0.0801035 -0.0236057 -2.13901e-319)
(-0.0808695 -0.0427278 -4.56779e-318)
(-0.084277 -0.0694275 -9.98705e-318)
(-0.07989 -0.0915793 -1.71783e-317)
(-0.0824345 -0.11759 -2.72447e-317)
(-0.0679999 -0.142263 -4.19686e-317)
(-0.0630367 -0.158901 -6.68115e-317)
(-0.0358101 -0.17826 -1.02019e-316)
(-0.0163725 -0.167873 -1.86366e-316)
(-0.0176361 0.234164 -3.49211e-319)
(-0.0398235 0.240348 3.90939e-317)
(-0.0645697 0.212028 4.05805e-317)
(-0.0691821 0.192958 3.7586e-317)
(-0.0814065 0.160546 3.08344e-317)
(-0.0767873 0.133838 2.41636e-317)
(-0.0818114 0.10602 1.82748e-317)
(-0.0753773 0.0785622 1.33439e-317)
(-0.078309 0.0561474 9.18772e-318)
(-0.0747568 0.0284478 5.51592e-318)
(-0.0779457 0.00888575 2.01571e-318)
(-0.0794746 -0.0208456 -1.65026e-318)
(-0.081973 -0.0414792 -5.81759e-318)
(-0.0882372 -0.074753 -1.0777e-317)
(-0.0857377 -0.100523 -1.67577e-317)
(-0.0929121 -0.135614 -2.36269e-317)
(-0.0782745 -0.168076 -3.0633e-317)
(-0.0775887 -0.194516 -3.38956e-317)
(-0.044271 -0.225745 -3.2218e-317)
(-0.0230746 -0.217342 8.03311e-318)
(-0.0261682 0.263653 1.81934e-316)
(-0.0517687 0.264755 1.00282e-316)
(-0.0834739 0.226576 6.93222e-317)
(-0.0835042 0.199967 4.71058e-317)
(-0.0963878 0.162379 3.3918e-317)
(-0.0856772 0.130749 2.46137e-317)
(-0.089767 0.101242 1.77917e-317)
(-0.0785165 0.0712832 1.25192e-317)
(-0.0812386 0.0489921 8.25429e-318)
(-0.0751505 0.0198744 4.55427e-318)
(-0.0795508 0.00118635 1.05432e-318)
(-0.081433 -0.0302152 -2.60921e-318)
(-0.0863796 -0.0500851 -6.82643e-318)
(-0.0964705 -0.0867576 -1.20437e-317)
(-0.0964327 -0.113286 -1.88784e-317)
(-0.11093 -0.155238 -2.83438e-317)
(-0.0953192 -0.192698 -4.20074e-317)
(-0.102786 -0.229721 -6.52749e-317)
(-0.0582096 -0.273092 -9.84223e-317)
(-0.0365307 -0.271146 -1.8386e-316)
(-0.0361025 0.334281 3.68222e-318)
(-0.0558422 0.324032 4.36781e-317)
(-0.0900046 0.268538 4.29571e-317)
(-0.0810341 0.229418 3.82479e-317)
(-0.0907095 0.183315 3.04085e-317)
(-0.0733659 0.144349 2.30923e-317)
(-0.0743584 0.112158 1.68831e-317)
(-0.0592163 0.0786808 1.18056e-317)
(-0.0606322 0.0565583 7.59302e-318)
(-0.0528676 0.0253734 3.94557e-318)
(-0.0579845 0.00807947 5.05765e-319)
(-0.0603015 -0.0259137 -3.0578e-318)
(-0.0679148 -0.0443034 -7.09839e-318)
(-0.0812606 -0.0863304 -1.1972e-317)
(-0.0854235 -0.11328 -1.7947e-317)
(-0.107505 -0.166456 -2.50445e-317)
(-0.0952187 -0.210711 -3.27437e-317)
(-0.115287 -0.26661 -3.73782e-317)
(-0.064566 -0.329764 -3.77427e-317)
(-0.0529424 -0.344432 3.24925e-318)
(-0.0545932 0.3735 1.78579e-316)
(-0.0664666 0.342352 9.64729e-317)
(-0.106307 0.275179 6.7059e-317)
(-0.0843381 0.223846 4.57609e-317)
(-0.0904526 0.175796 3.29116e-317)
(-0.0632284 0.132459 2.36579e-317)
(-0.0607859 0.101781 1.67855e-317)
(-0.0394491 0.0676584 1.14852e-317)
(-0.03981 0.0480164 7.22392e-318)
(-0.0288229 0.0174295 3.59363e-318)
(-0.0353701 0.00310677 2.18836e-319)
(-0.0374091 -0.0303933 -3.27098e-318)
(-0.0488829 -0.0451639 -7.25043e-318)
(-0.0660449 -0.0884456 -1.21484e-317)
(-0.0760834 -0.111523 -1.85372e-317)
(-0.108535 -0.171323 -2.73588e-317)
(-0.100452 -0.214802 -4.00419e-317)
(-0.139427 -0.28895 -6.18545e-317)
(-0.076873 -0.365172 -9.32009e-317)
(-0.0832983 -0.410314 -1.80162e-316)
(-0.0715974 0.462067 8.85413e-318)
(-0.0576851 0.392638 4.96696e-317)
(-0.0939464 0.305136 4.6568e-317)
(-0.0571813 0.233933 3.99844e-317)
(-0.0560196 0.181146 3.09378e-317)
(-0.0220531 0.131126 2.29358e-317)
(-0.0153092 0.101569 1.63772e-317)
(0.00909611 0.0666206 1.11515e-317)
(0.0102266 0.0498177 6.94086e-318)
(0.0228218 0.0201725 3.38458e-318)
(0.015669 0.00943614 1.09831e-319)
(0.0144449 -0.0234818 -3.23028e-318)
(0.000252383 -0.0337443 -6.98692e-318)
(-0.0176331 -0.0794324 -1.15444e-317)
(-0.0333322 -0.0974848 -1.7242e-317)
(-0.0714466 -0.168642 -2.42324e-317)
(-0.0717723 -0.21101 -3.22868e-317)
(-0.129734 -0.316492 -3.81554e-317)
(-0.0671592 -0.411732 -4.08053e-317)
(-0.113205 -0.51509 -4.89678e-319)
(-0.0994338 0.50312 1.77548e-316)
(-0.0570019 0.382759 9.54487e-317)
(-0.0911908 0.294446 6.6895e-317)
(-0.0351305 0.209123 4.58778e-317)
(-0.024472 0.162071 3.28467e-317)
(0.0196857 0.110769 2.33354e-317)
(0.0319004 0.086257 1.62985e-317)
(0.0615859 0.0532209 1.09494e-317)
(0.0641467 0.0402406 6.74145e-318)
(0.0798015 0.0130414 3.25464e-318)
(0.0711761 0.00590607 1.13398e-319)
(0.0716468 -0.0244997 -3.06545e-318)
(0.0529163 -0.0298125 -6.63323e-318)
(0.0344477 -0.0737161 -1.10133e-317)
(0.00976711 -0.0834254 -1.67225e-317)
(-0.0352974 -0.157842 -2.46438e-317)
(-0.048053 -0.187438 -3.60595e-317)
(-0.12963 -0.31632 -5.62071e-317)
(-0.063799 -0.405368 -8.56896e-317)
(-0.160616 -0.586719 -1.7499e-316)
(-0.0975372 0.604224 1.73684e-317)
(-0.0149348 0.402834 5.8356e-317)
(-0.0302565 0.303903 5.16107e-317)
(0.0346495 0.194546 4.23422e-317)
(0.0550708 0.150688 3.16979e-317)
(0.10003 0.096302 2.28542e-317)
(0.115488 0.0768775 1.5936e-317)
(0.144971 0.0463874 1.06341e-317)
(0.148132 0.0377497 6.51774e-318)
(0.164528 0.0141706 3.16282e-318)
(0.15546 0.0111545 1.86218e-319)
(0.158363 -0.0156912 -2.78016e-318)
(0.138065 -0.0153897 -6.06902e-318)
(0.124181 -0.0575359 -1.00271e-317)
(0.0947568 -0.0577826 -1.50299e-317)
(0.0549564 -0.139664 -2.13348e-317)
(0.0296273 -0.154992 -2.89337e-317)
(-0.0579412 -0.324664 -3.5216e-317)
(-0.0120416 -0.409177 -3.93977e-317)
(-0.1704 -0.716176 -1.05922e-318)
(-0.106963 0.607075 1.83466e-316)
(0.00716664 0.347473 9.9157e-317)
(0.0158013 0.271925 6.90109e-317)
(0.0952613 0.156605 4.68103e-317)
(0.131486 0.12457 3.28286e-317)
(0.181683 0.0740609 2.28106e-317)
(0.202892 0.0604657 1.55912e-317)
(0.234486 0.0338894 1.02718e-317)
(0.23859 0.0283504 6.26306e-318)
(0.256985 0.00799259 3.05133e-318)
(0.246574 0.0072462 2.63811e-319)
(0.252581 -0.0161649 -2.44568e-318)
(0.228217 -0.0125777 -5.43926e-318)
(0.219 -0.0503411 -9.04203e-318)
(0.179072 -0.0428722 -1.37229e-317)
(0.143776 -0.121536 -2.01841e-317)
(0.0951175 -0.11607 -2.95667e-317)
(0.000384324 -0.301273 -4.69347e-317)
(0.0184556 -0.337717 -7.29071e-317)
(-0.196736 -0.745655 -1.6415e-316)
(-0.00740977 0.689067 3.72971e-317)
(0.100728 0.325534 7.17996e-317)
(0.151557 0.252919 5.80014e-317)
(0.216181 0.121606 4.44084e-317)
(0.259449 0.0991865 3.16911e-317)
(0.300858 0.0527691 2.20156e-317)
(0.321691 0.0460868 1.4922e-317)
(0.349304 0.0252079 9.75692e-318)
(0.352413 0.023714 5.91305e-318)
(0.370353 0.00853682 2.90954e-318)
(0.359658 0.0106673 3.57116e-319)
(0.368798 -0.00721551 -2.08757e-318)
(0.344731 0.000291122 -4.73286e-318)
(0.344441 -0.0311302 -7.85236e-318)
(0.303273 -0.014942 -1.17431e-317)
(0.288002 -0.0913527 -1.66261e-317)
(0.226938 -0.0647194 -2.2474e-317)
(0.168387 -0.283625 -2.71924e-317)
(0.129968 -0.280903 -2.96482e-317)
(-0.0793113 -0.859777 9.33031e-318)
(0.0288378 0.563407 2.06284e-316)
(0.143153 0.251032 1.07539e-316)
(0.260572 0.205193 7.17882e-317)
(0.329774 0.0915706 4.66134e-317)
(0.392636 0.0759254 3.14132e-317)
(0.43253 0.0379457 2.1086e-317)
(0.456758 0.0336464 1.40266e-317)
(0.482831 0.0168992 9.06536e-318)
(0.485674 0.0161574 5.46999e-318)
(0.504067 0.0036658 2.71959e-318)
(0.492441 0.00574213 4.15593e-319)
(0.504867 -0.00912128 -1.74857e-318)
(0.478583 -0.00211189 -4.03447e-318)
(0.486243 -0.0282433 -6.70771e-318)
(0.4363 -0.0119625 -1.00564e-317)
(0.436758 -0.0778861 -1.45367e-317)
(0.341863 -0.0428479 -2.07838e-317)
(0.306427 -0.246538 -3.32522e-317)
(0.170957 -0.180194 -5.14448e-317)
(-0.0451297 -0.732394 -1.37055e-316)
(0.273516 0.58788 8.75594e-317)
(0.274588 0.185952 9.06008e-317)
(0.425838 0.14349 6.43497e-317)
(0.45865 0.0447658 4.44857e-317)
(0.515694 0.0414713 2.98371e-317)
(0.541611 0.0171446 1.98204e-317)
(0.561062 0.0191616 1.30026e-317)
(0.581864 0.00986067 8.31434e-318)
(0.582737 0.0116245 4.99066e-318)
(0.599998 0.00443142 2.4991e-318)
(0.588312 0.00740417 4.56981e-319)
(0.602894 -0.00140054 -1.42601e-318)
(0.578321 0.00633494 -3.39022e-318)
(0.594078 -0.00982531 -5.60741e-318)
(0.547502 0.00956874 -8.21212e-318)
(0.572382 -0.0387084 -1.11762e-317)
(0.474907 0.0105617 -1.40729e-317)
(0.518546 -0.184035 -1.44433e-317)
(0.307258 -0.0647198 -9.21136e-318)
(0.323052 -0.789049 4.36932e-317)
(0.414984 0.253283 2.12803e-316)
(0.470187 0.166601 9.54566e-317)
(0.726369 0.101728 6.08586e-317)
(0.768686 0.0419063 3.72923e-317)
(0.83309 0.0313641 2.43127e-317)
(0.851818 0.0140075 1.5908e-317)
(0.866644 0.0132439 1.03964e-317)
(0.881457 0.0061928 6.64037e-318)
(0.879782 0.00644982 3.98386e-318)
(0.894197 0.000797618 1.99826e-318)
(0.88343 0.00205072 3.79269e-319)
(0.89813 -0.00479931 -1.11235e-318)
(0.877869 -0.00068519 -2.6318e-318)
(0.897507 -0.0127926 -4.34796e-318)
(0.856185 -0.00257697 -6.36044e-318)
(0.890491 -0.0377516 -8.8297e-318)
(0.778194 -0.0130579 -1.18364e-317)
(0.83205 -0.150765 -1.84633e-317)
(0.470867 -0.0652155 -2.67438e-317)
(0.371015 -0.374996 -9.1007e-317)
(0.214271 0.0849758 2.72424e-316)
(0.413652 0.0192472 1.59487e-316)
(0.560353 -0.0178338 9.63984e-317)
(0.572506 -0.0099962 5.8325e-317)
(0.622477 -0.000213904 3.62799e-317)
(0.635281 0.00129095 2.28562e-317)
(0.653516 0.00565546 1.4434e-317)
(0.674221 0.00421818 8.97688e-318)
(0.674939 0.00514945 5.30712e-318)
(0.69655 0.00251397 2.66324e-318)
(0.68158 0.00309971 5.66422e-319)
(0.703158 1.97871e-05 -1.28018e-318)
(0.671178 0.00290692 -3.15494e-318)
(0.702668 -0.000621713 -5.15633e-318)
(0.644013 0.0095276 -7.22656e-318)
(0.712566 0.00138065 -8.90085e-318)
(0.575822 0.038397 -8.6232e-318)
(0.759406 -0.015881 -1.55515e-318)
(0.27132 0.186796 2.14929e-317)
(0.991844 -0.30664 1.14477e-316)
)
;

boundaryField
{
    cavity
    {
        type            myImplicitVelocity;
    }
    lid
    {
        type            fixedValue;
        value           uniform (1 0 0);
    }
    frontAndBack
    {
        type            empty;
    }
}


// ************************************************************************* //
