/*--------------------------------*- C++ -*----------------------------------*\
| =========                 |                                                 |
| \\      /  F ield         | foam-extend: Open Source CFD                    |
|  \\    /   O peration     | Version:  3.0                                   |
|   \\  /    A nd           | Web:         http://www.extend-project.de       |
|    \\/     M anipulation  |                                                 |
\*---------------------------------------------------------------------------*/
FoamFile
{
    version     2.0;
    format      ascii;
    class       volScalarField;
    location    "5";
    object      Theta;
}
// * * * * * * * * * * * * * * * * * * * * * * * * * * * * * * * * * * * * * //

dimensions      [0 2 -2 0 0 0 0];

internalField   nonuniform List<scalar> 
3012
(
-3.07095
1.90023
5.15802
0.166279
9.79098
-1.65295
-6.54318
5.19785
-2.18963
3.95597
-1.885
4.08532
0.917172
-0.855025
2.79039
1.01892
-3.62638
-11.3708
4.40289
12.7319
1.69967
-0.393816
2.44501
0.386542
5.67518
-1.43761
3.85445
-3.26362
-1.30136
3.65106
0.0417257
2.30735
0.23789
2.94696
-0.89744
1.82315
2.29578
6.50574
-4.62006
-0.56516
0.948637
3.15431
1.22224
-0.936812
0.595821
1.56962
-1.40075
3.56922
1.20411
2.63735
-0.620831
0.801623
-3.30005
1.31565
1.62783
6.1229
-5.31043
-8.48281
5.18736
8.74985
-6.00567
1.94706
10.4169
2.92767
0.920996
-1.4857
3.86173
1.40027
2.71193
1.34485
0.679033
-0.651915
2.50488
2.00255
0.0221451
-0.488484
-0.626443
2.75589
1.87118
0.27527
0.876403
-1.46623
1.23449
3.59524
2.92963
1.11459
0.960653
-0.773453
0.259232
2.98993
-0.788512
1.93981
2.9916
-2.07651
-0.750693
4.08139
-4.31565
3.17187
-1.7022
6.02919
3.51862
1.97952
0.400141
-1.14027
3.06034
-0.418792
2.73913
-0.737337
2.49392
0.319693
-0.377233
1.75021
-1.25425
3.47015
1.4448
0.795354
2.24905
0.0859076
2.11776
0.225118
-0.74172
0.191987
1.03629
2.72001
3.55671
-6.70122
7.13385
-2.97599
11.9068
-10.4881
6.11554
-5.03695
1.3663
-2.28832
2.89531
6.30862
-1.59615
9.85753
6.16174
-6.58554
7.29378
-1.10475
-3.72587
4.36349
6.98598
0.137662
-5.31448
2.96386
6.70295
-7.86633
-5.3376
9.29761
0.582772
-0.802111
1.6656
3.02494
1.96787
2.8505
-0.692067
0.206829
2.60395
-0.380275
2.19323
-0.0508982
-5.83437
-0.146035
7.08329
1.24524
0.420035
3.14634
-1.08888
1.67591
7.9584
7.46533
-6.00082
-5.17313
-5.81501
8.3153
1.89838
1.53866
-5.46031
-1.32014
6.76694
2.81506
2.84623
-1.36505
-0.491737
3.86526
-0.52074
2.92577
2.51094
-0.858377
2.21226
-0.123067
1.82022
0.225857
2.07751
3.3777
-1.28484
0.0563442
0.707497
-0.764524
1.08885
2.59475
1.19323
4.22927
-1.79249
1.31201
1.27329
1.87009
0.816961
0.0212263
0.750259
0.550825
1.24307
1.19609
3.57768
1.50685
0.603529
-1.43128
1.30293
0.491376
0.502058
1.20801
0.0363444
-0.533929
1.76958
2.3516
0.568329
-0.0758951
1.42534
1.95599
0.148848
1.79578
0.00468797
1.77751
3.19985
2.49062
-0.324163
-1.13796
2.11991
-0.561163
2.79343
0.115823
0.0875857
2.81569
2.14383
-0.521546
2.08239
-1.69059
0.143337
4.02902
-1.37907
3.7579
3.5009
-0.990511
5.59973
-0.05609
-2.46609
2.78826
0.483387
-0.0019242
1.30071
1.84417
0.936179
2.02306
0.886969
-0.160647
2.47663
-0.54956
-1.33662
3.36817
1.14997
3.79765
1.20176
-1.44729
1.36343
-1.1904
3.33599
0.738013
-3.30789
1.39664
1.07889
5.78625
0.779256
1.88822
0.00351601
1.12078
6.47964
-8.7928
-5.80871
9.65586
-3.73941
6.82198
-3.60927
6.52736
0.228854
-1.5442
2.20787
3.93721
2.71925
-0.474885
-1.37537
3.79839
1.91238
-1.08697
3.30307
0.259908
-2.40264
-0.391784
0.899898
2.85335
5.14484
-0.682069
-3.24855
2.31056
3.02455
2.89506
-0.6102
-0.655048
0.639637
2.13616
-0.230472
1.28647
-0.0593849
-0.876974
2.26845
3.14726
-3.40196
2.10407
0.783655
6.85577
2.68956
0.772629
1.25359
-0.621887
2.49744
-0.411758
1.87408
0.159694
1.89302
0.0147565
1.68962
0.15917
0.103276
3.14291
-0.849623
2.18766
0.909218
3.35043
1.39059
-1.02104
1.08574
2.27189
0.479655
-0.17903
0.686401
-0.251758
2.35372
1.42555
-0.320062
2.70174
2.50953
-0.469896
0.382881
3.11184
-0.857209
1.8511
-1.09139
3.26209
-1.25956
3.00871
-1.752
2.77162
4.20439
-0.185795
3.18733
2.13939
-1.10987
-0.094358
-0.744706
-0.571447
2.52792
2.74357
0.319381
-1.24436
3.42029
1.84902
3.80687
-1.50405
-1.22824
4.31547
3.3801
-1.7995
-1.51702
3.79794
-0.606791
2.30459
-0.182953
2.78563
2.29572
-0.31879
-1.81374
3.84822
1.07434
-1.07989
1.06495
3.23436
1.24319
-4.21719
7.2717
2.24349
1.55978
-1.98526
0.86487
4.51897
-3.89884
8.75035
-8.41496
4.4618
-0.417139
-0.344755
2.63497
2.55506
1.60889
-0.402248
0.601971
2.22897
-0.403038
2.61906
0.88306
1.02299
-0.754653
0.21893
2.03413
3.01799
-2.28983
1.5613
4.29011
0.298742
-2.20665
3.01023
4.52615
-0.757397
1.45123
0.103958
1.95387
-0.00259165
5.80178
1.5326
-3.23784
0.752028
1.46929
0.757793
0.212483
1.8186
-22.1254
1.30914
-2.68132
21.9481
4.47216
2.20046
0.318951
-1.80488
1.64634
0.907824
0.925293
0.204239
1.48207
7.11388
-4.69031
1.49612
2.68277
4.93727
-2.29089
-0.27926
2.01562
-0.357861
0.0231464
2.43986
-0.716576
-1.44207
3.96509
3.38133
0.967785
-1.59943
1.13797
3.81666
-10.4932
3.67254
-1.6614
13.6893
2.01067
2.4572
-0.576049
-0.0821366
0.614607
-0.811603
1.28053
2.77833
-0.233486
3.59287
2.06698
-1.82752
0.17804
3.56052
-1.21775
2.08443
-10.03
-1.85648
2.60669
11.0427
0.229664
2.67763
2.04483
-0.487018
4.6284
0.26204
2.42375
-2.09436
-0.217866
2.42388
-0.185309
2.37948
-0.0652504
2.41078
-0.269387
2.14521
3.34589
0.815602
-1.33136
1.26741
10.4962
-8.11283
-5.07417
7.18479
3.09475
2.68176
-0.879308
-0.402848
4.20023
0.713112
1.61693
-1.91345
0.483172
2.09902
-2.05638
4.62649
0.905247
-0.869599
3.0597
1.3027
3.04519
3.18722
-0.86069
-0.823665
0.415125
1.82544
-1.27817
3.55584
-0.0643131
2.35203
-1.38408
3.70474
0.414769
-1.61872
1.49358
3.55466
1.88442
-0.475937
0.111861
2.49838
3.8375
2.25059
0.0428499
-1.60871
1.09947
-0.857956
0.790272
2.80178
-0.569001
0.773035
1.27212
2.64387
-14.6761
17.4448
-18.3086
13.7616
0.786272
1.62167
-1.84086
4.28422
3.52287
2.02808
-1.39974
0.178238
-0.927475
4.77256
-2.08209
3.88807
-6.19394
9.89174
-9.44561
12.4685
-3.91076
-4.26666
7.13333
7.3316
-2.2765
2.58988
4.4329
-0.363021
-0.0533605
3.372
2.29403
-1.11836
-2.91556
3.53037
-1.53381
4.90643
1.57407
-0.812944
0.627876
3.05825
1.08408
0.323648
1.61801
0.685268
-3.35819
1.74686
4.96671
0.0424534
1.44694
2.95402
-0.758227
0.718837
0.114719
0.961446
1.71498
1.01269
3.43525
0.25184
1.6705
-1.55556
7.11433
5.04227
-0.958577
-3.45416
-2.41399
2.82027
0.0143697
5.05407
1.20903
-3.07739
1.70728
6.16706
-6.06472
5.09703
-2.75983
10.0176
5.45964
-4.57707
5.60931
-4.484
3.04563
-3.73715
7.42869
1.11528
-1.14143
2.14696
5.901
-4.70498
0.810966
-0.018936
1.00694
1.86351
0.372369
3.04778
-0.699383
1.95685
-20.2947
-8.68289
19.3681
7.9737
-1.43135
3.59928
-0.0587152
2.27212
4.74894
-2.18815
2.49321
0.0817573
1.23509
0.841074
-0.262106
2.26051
2.75873
1.83774
-0.508312
0.452596
2.18843
1.65969
-0.257619
0.25156
-9.34529
-20.6891
8.91912
19.964
1.95605
3.31419
-0.942456
0.359901
2.41902
-0.231797
-0.140178
2.34352
2.66394
0.712867
1.41017
-0.370145
2.88088
2.34771
-0.603255
-0.152355
1.64304
-0.768318
0.614713
3.0832
0.140137
2.52043
1.94105
-0.439206
-4.88614
4.52155
7.35212
-2.22871
0.909824
4.3841
1.03951
-2.57283
-3.29477
2.71647
6.14069
0.205884
-1.79726
-2.66611
3.68031
4.37973
1.92713
-4.51052
7.20656
0.881908
-0.353023
-3.31049
5.30037
2.41548
0.208642
3.1144
6.42802
-3.40385
2.58767
-0.482006
2.3553
-0.269053
2.97597
1.74155
0.0795303
-1.07602
-2.2851
-0.569165
5.45317
3.32431
2.52239
-0.725569
-0.625018
2.49742
-1.87026
2.87642
4.6265
-0.331848
2.97374
0.384361
1.69661
-0.834532
4.59902
0.452764
1.97148
-2.26
4.24719
1.22459
-2.22557
0.924397
-0.287473
2.71568
-1.88937
4.39973
-0.479566
0.679021
2.65287
1.46452
1.42417
1.57697
2.72879
-0.594971
3.7959
-1.08367
-1.23491
3.48132
2.89872
-1.23822
3.0964
-1.08712
0.638386
3.91588
1.70588
-1.61002
-1.40452
3.58043
1.89769
0.284564
3.47401
-1.38593
1.28754
0.761794
-0.92728
2.87136
3.01033
-0.674067
0.464271
1.74538
3.22217
-0.996449
-0.333886
0.2791
2.33723
2.10101
3.1434
-0.900945
-5.67471
8.30941
-0.25434
2.84753
2.47475
-0.6964
-5.26604
6.81816
3.67544
-2.56712
4.5347
-4.53904
-2.81678
6.26957
2.72321
0.627239
-0.530416
1.38454
1.12778
-2.28762
3.56277
6.96984
4.57174
-0.859183
-0.56317
5.92716
-1.96025
8.17159
3.9067
-6.56815
-2.53812
3.24428
5.13229
-0.573174
0.296762
0.270728
1.56578
1.53058
1.22181
0.0759148
1.76069
0.615835
-4.7718
1.29973
5.6514
-0.168956
2.9304
2.0332
-0.805011
0.116874
2.31709
-0.444977
-0.302502
2.52446
-3.2181
2.65169
1.98468
7.68616
1.01812
-2.25684
1.58584
4.97932
-1.38787
2.96983
3.77168
-0.705575
-2.05825
4.64639
-0.181765
2.93454
3.05938
2.07119
0.120839
-0.806621
-0.465899
2.75018
-0.443213
2.65699
2.17603
-3.0603
-0.0422649
5.25942
2.9805
-0.112519
-0.839866
2.27677
0.955984
-1.05357
3.34491
1.20202
4.08667
-1.8206
0.96593
1.34044
-1.72039
1.76487
-0.0573801
3.49475
2.58597
-0.36021
-0.463041
2.49201
1.57721
0.690263
3.38701
-1.08442
-0.269824
-0.926638
2.84532
2.12693
0.467211
1.52029
2.28448
-0.286562
1.50199
-1.03088
0.691977
3.22161
-2.50285
3.58923
-1.14015
4.82092
3.17183
1.62788
0.247287
-1.18301
-0.66372
2.76992
2.98894
-0.909816
2.43757
-0.909364
-0.499367
2.91132
-0.363216
2.52602
0.236046
1.89834
3.67228
-1.52541
-1.13079
3.90565
2.82146
-2.05741
-0.35675
4.61738
1.82601
-0.808192
0.316191
3.01812
3.07493
2.09415
0.18775
-0.873296
-0.6065
2.75576
1.28268
0.867678
3.52351
1.8324
0.230838
-1.42393
6.9076
-0.624468
-2.78817
4.08392
3.76939
-2.61611
-6.35469
7.24967
3.93849
0.511937
1.67543
-1.7152
1.3375
2.70919
0.623214
-0.699397
0.028985
-0.277782
2.3511
1.99078
1.73121
-1.169
3.42475
0.553973
-3.84552
5.36883
3.42764
-1.89288
1.06445
-0.882739
-7.66016
7.76399
1.41783
2.37937
0.466294
-0.496845
1.46539
-0.592936
0.74386
2.77378
-0.25671
2.06041
2.36719
0.0879457
-0.375757
2.08265
2.51328
0.11779
0.26723
3.31604
1.72756
-1.33865
-0.479281
2.65012
0.11456
1.97912
3.16959
0.815048
-5.14273
8.39712
-0.561045
0.463599
2.74292
1.74652
2.77517
-0.101988
-0.506475
2.31416
3.45657
-1.07241
3.10404
-0.623532
2.81034
-0.17429
2.44885
-0.467291
2.86584
1.30483
-0.719018
0.815692
1.12899
2.89732
1.03533
-0.687813
3.97327
-1.52353
0.312273
2.15138
2.94792
-0.570203
2.48775
-0.218165
-0.572716
1.18588
0.854343
2.66223
0.998579
2.80726
1.19708
-0.616471
3.74227
-1.53829
0.897751
1.2079
2.68282
-0.43764
3.43365
-1.25639
-2.65321
-2.18701
4.22258
4.4786
-0.290282
2.99894
2.44495
-0.785459
-0.359249
2.46553
1.89099
0.228302
-0.591956
2.693
0.805096
1.30013
-1.77551
4.36438
-1.665
4.60428
0.00479912
2.85374
2.03466
-0.721253
2.87479
-0.563195
2.47611
-0.240914
5.17496
3.33448
-2.74864
-0.871944
4.1562
2.84742
-1.79063
-0.415136
1.67948
7.64052
-7.56145
-1.87912
3.37105
1.52576
0.711619
-1.09688
0.414645
2.7037
1.25326
-0.983748
0.781751
-0.795877
1.11848
2.76207
1.97865
-0.308459
2.33642
-0.685162
0.996452
-1.00007
1.19136
3.2282
-1.5162
0.802031
0.769992
3.13494
2.88782
-0.208899
-1.35227
1.80897
1.45625
0.550033
2.61502
-0.603902
-3.54883
4.38526
5.54731
-2.4317
4.47959
-3.27909
5.72395
-4.6603
2.58461
0.825484
1.0789
-0.605272
5.82124
-0.380706
3.3759
-3.2547
0.208645
1.98128
0.0507435
1.77223
0.547368
2.59515
1.57253
-0.466296
0.654464
1.96211
-0.0511468
1.2819
2.69267
1.17538
0.848971
-0.55732
2.33329
0.647293
-0.300857
1.1722
0.0745699
-1.30576
2.49626
3.87526
3.03203
-2.67405
4.61088
-0.987279
2.10096
0.636607
-0.119103
1.32732
1.4238
4.12485
1.08577
-1.55794
2.21933
-0.514947
-0.167958
2.63111
2.90871
-2.02602
-0.390317
4.73998
-2.60758
-1.74279
4.50228
5.6337
-0.212863
2.25932
0.839265
1.2308
2.10016
0.35662
1.69994
-0.0259429
4.06705
-0.972986
5.49073
-3.0008
4.62469
2.89957
-4.19127
-2.42938
4.28196
-1.87185
2.48501
-0.0332408
2.03649
-0.667757
0.0651558
2.76926
2.83521
0.698777
1.48235
-0.666008
2.48445
0.751019
1.25185
-0.467492
2.34694
-0.436555
-0.212103
2.6366
-0.958601
2.16306
3.33243
0.156388
-7.49685
8.94742
3.40917
-2.34713
3.28943
-1.07593
-1.47827
2.98755
3.00833
-1.65441
-1.05718
3.76557
-0.503277
0.516795
2.52437
1.48861
-0.772268
2.56765
-1.86589
3.6
3.25805
-0.813298
-1.546
3.84106
0.489064
3.09367
-0.940807
1.60163
4.13947
0.0919115
2.35001
-1.61672
0.057658
2.06851
-0.0904189
1.89359
3.46906
-1.06906
-1.52283
2.91417
1.13167
-0.888811
2.91744
0.888644
-1.11139
3.3628
0.324435
1.88265
-0.50264
2.35384
0.761003
1.00248
-0.839016
3.44778
-0.999227
3.38069
2.28534
0.547285
1.38311
-0.292168
-0.567457
2.70976
2.30088
-0.185417
0.839089
2.49118
1.1542
-0.474272
-0.74312
1.7235
0.317186
2.80707
-0.715497
-0.448606
2.69854
2.91358
0.750482
0.978168
0.914094
0.671563
-0.459657
0.433855
2.28519
1.33448
0.772419
0.951507
0.592763
0.995509
-2.21501
1.47319
0.241304
3.99433
1.7272
4.52941
-2.10691
0.657176
4.37426
-0.0467663
8.60249
-4.77813
2.35307
1.71497
-0.352361
0.24559
-1.97429
-5.95434
9.35676
5.28476
-4.37934
-2.42569
7.11766
5.17832
2.82301
-2.20182
-0.347673
4.49062
1.38928
0.596493
-0.964026
2.99291
1.27659
0.772991
-0.926254
3.0245
0.823916
1.0938
3.26914
-1.26404
0.274693
0.0358136
1.93592
1.60421
2.07711
0.733921
-0.137983
1.1949
-0.815835
2.69513
4.95111
-2.62291
1.91558
2.65125
-0.0238927
-0.78195
2.93046
-0.669789
-0.587717
3.11252
-0.901146
8.35123
-4.29537
4.97423
-1.85056
4.08635
3.83289
-1.78174
-10.5382
1.26307
11.1669
-1.46043
4.66543
3.51031
1.02731
6.00328
2.83895
-0.171767
2.46048
-0.552928
0.243568
-1.42869
2.40361
4.02714
2.53369
-1.33965
3.06274
-0.92621
1.46781
-0.839645
2.94851
0.71967
-0.841885
3.16049
0.519718
1.73447
1.13268
0.531582
0.802955
0.865246
-0.657658
3.47611
-0.96718
3.38027
0.981972
1.10967
0.722674
0.595426
-1.64914
3.61794
-1.07302
4.40709
1.73951
-0.440789
2.48994
0.49131
1.96351
-1.48649
3.79974
0.264343
2.97271
3.27533
-0.668503
-1.07641
-0.446562
0.821624
2.60737
1.27712
0.244356
1.72304
-1.24587
3.17239
5.32728
1.44014
-3.29175
0.624171
3.42521
1.32871
-1.27301
0.753438
2.55908
-2.02929
4.07289
-0.548631
5.33057
-3.70176
0.757873
0.96056
3.55324
0.636274
1.52051
-1.48448
1.08995
0.747203
-2.34566
4.23117
0.217255
-0.144747
1.9019
2.30121
-7.08905
-3.90264
8.2838
5.05627
2.71108
-0.501753
2.13133
0.0119954
2.05859
-0.125257
2.28452
-0.328655
-0.461005
0.18348
2.44837
1.7802
0.854986
-0.448764
2.63527
1.25728
1.93772
0.394492
2.51878
-0.567875
1.08423
-0.0546476
2.05237
0.871311
-19.7367
7.05914
-5.61131
19.9422
-0.0880888
0.540024
2.08411
1.22933
2.23272
-0.135372
-0.385059
2.42702
1.63385
-0.608344
2.71761
0.481132
0.224837
-0.397516
1.5016
2.12608
0.111785
1.71589
2.02315
0.417789
0.0981259
1.66623
1.95694
0.302095
-0.560973
2.24406
2.83592
-0.0405096
1.76524
-0.218228
-0.0691579
1.93237
1.18575
0.86652
2.89397
-0.728893
-0.924228
0.303188
5.84521
4.4043
-0.357466
-0.208428
2.47881
2.51606
1.41225
-2.08248
4.41535
0.73125
-0.983296
0.0969173
2.02114
3.11527
1.23382
0.549514
1.04872
0.678924
-0.701995
2.96835
0.420231
1.88701
0.552026
1.22498
0.81787
0.887931
-0.863923
3.19027
-0.970256
2.93506
2.32306
-0.260429
-0.738691
2.87612
-0.409676
3.48737
-1.14481
2.61494
-1.54104
1.03735
1.39569
4.0034
-9.60498
-18.1858
9.80948
18.8401
0.46527
-0.366776
5.39485
4.52216
3.54783
-1.37943
0.0692281
2.0065
4.85818
2.1086
0.470508
-2.43013
3.2128
3.52109
-0.861203
-1.30342
-0.917148
2.1993
2.95157
5.6875
2.6241
-2.97956
5.00616
-0.547394
-0.276392
2.71442
-1.99625
4.67524
-0.0767744
-0.106875
2.35977
1.69376
2.35535
0.649628
1.42529
-0.19396
-2.18698
1.61919
0.115986
3.97922
-2.1492
1.90289
0.507765
4.74625
-0.82952
2.85449
0.907108
1.1105
3.27591
3.35349
-1.00867
-1.24641
-0.935557
3.13648
1.64357
0.549133
2.92039
-3.09628
-0.67418
5.16296
-1.37415
-0.792887
3.41795
2.99323
2.54846
0.183652
1.8745
-0.519654
2.16362
-0.346653
2.53725
-0.0174917
-0.566335
1.57871
0.63547
2.77139
1.83688
-0.934064
0.31554
3.09184
3.86347
-1.66743
0.864841
1.31384
3.54256
-2.04764
-0.74099
4.60444
-0.271569
-0.0724114
2.14929
2.34633
1.60239
-0.498644
2.63216
0.488023
-0.92492
1.74358
3.22741
0.554138
-0.908404
-1.59319
3.32217
4.20634
-0.860034
1.00301
3.11653
1.18364
3.48379
-0.909071
2.72007
-1.77461
-0.699526
-1.78839
3.36384
4.24403
1.76205
0.903643
-2.43342
5.07
1.92189
-0.1836
2.31536
-0.0542671
3.83958
-1.51704
3.73547
-1.89423
-0.393964
1.5067
2.50559
0.570368
3.92148
-1.73742
1.36242
0.754609
3.82394
-1.63419
1.56423
0.771225
-2.88921
-3.17884
5.01378
5.56592
4.19723
-1.92084
1.56806
0.670931
0.713487
-2.10914
4.03523
1.28401
-1.57523
7.1363
-3.60959
4.68634
-0.470228
3.81236
-1.87978
2.29272
2.06123
4.57849
-2.06292
0.430141
-1.36482
3.63519
1.61667
0.603667
-7.04224
2.63367
-1.52617
8.79925
2.57358
1.00334
1.05412
-0.467766
-0.377571
1.5959
2.47141
0.469291
0.283148
-0.333856
2.33226
1.71435
0.920892
1.04939
2.4614
-0.500781
3.77526
-1.99408
2.51104
-0.717601
-0.634877
2.74561
2.27307
-0.132865
-2.13835
4.12506
1.90702
0.265078
-0.944087
3.09969
1.51073
0.565404
0.713428
2.46593
-0.586215
1.16265
-0.134608
1.91451
4.10246
-2.33733
3.23571
-0.650276
5.27616
1.76951
2.36239
-0.417899
2.60932
-0.206042
0.199392
2.88396
1.70856
-0.423419
0.772554
0.174396
1.48471
2.76482
-0.692432
1.78837
0.462427
2.9176
2.5234
0.70608
-0.557085
1.56739
-0.0664881
2.07163
0.0338709
2.30468
0.779443
-0.736297
1.30768
2.82864
3.54264
-1.59366
0.801217
1.04401
2.32324
-0.182094
0.551264
1.52662
-0.323186
-0.765948
2.98462
2.48023
2.08094
0.0795951
0.10436
2.03361
3.92791
-2.12509
4.13504
-2.10669
2.38362
3.12041
-0.162823
-0.925212
4.7447
-1.64024
4.40564
-1.48683
2.00622
-0.108143
-4.5288
6.1374
-2.15957
3.1916
-0.886161
4.64452
-0.180285
3.25249
2.26729
-1.20677
3.81322
0.928662
1.07879
-1.79105
1.24082
3.40875
-1.25884
0.864989
-5.15683
3.27354
-1.30849
7.15051
2.78455
-1.90995
4.51616
-0.461558
5.03221
0.951405
1.62707
-2.41781
-3.96582
2.01944
1.06063
7.07928
1.41276
-0.0532486
5.09734
3.55378
0.158469
3.17397
1.69158
-1.34586
1.32721
-1.95999
4.00837
0.7134
-0.514804
0.995297
2.69995
1.15729
2.93711
-0.0230497
2.34045
-0.642447
-0.942844
1.53873
3.24775
0.698001
0.435545
2.52668
-0.392927
1.78953
0.400885
2.203
-0.161262
1.8243
-4.834
4.49385
6.96826
-2.32286
0.281798
2.16454
1.70491
-0.0673896
0.286619
0.0775502
1.6808
2.01099
0.445096
1.72123
3.06728
-0.87812
-0.0337999
2.08675
2.213
0.0166786
2.51327
2.33053
-0.359024
-0.5837
1.62176
-0.963512
2.94663
0.295855
-0.264143
2.68969
2.41588
-0.602968
-2.4976
2.4413
0.226371
5.25999
4.52863
-0.757797
3.63226
-1.86234
4.18045
-0.807702
2.66639
-2.41458
1.35942
0.695238
-1.34225
3.4734
0.820382
-0.0780888
2.03695
1.04247
0.439231
1.92518
1.52262
0.08509
2.86342
2.41462
-0.444257
-0.819231
-0.766683
4.72144
-2.00793
3.65826
-0.0847296
2.19803
3.38132
-1.21315
0.0167243
1.29645
5.29669
-3.81937
1.06985
2.06506
6.13145
-2.96025
-2.36651
2.10722
0.469409
5.07235
-0.106585
1.80912
4.56574
-2.74778
-14.0438
16.7438
12.4876
-18.0254
1.01582
-0.597035
6.69425
3.87341
-0.862453
3.17952
3.24393
-0.863848
0.569476
4.8307
1.28293
-2.87712
-0.817035
2.93766
1.9242
0.226674
3.96671
-2.9148
4.74224
-2.00246
4.24147
-1.23237
-2.47692
2.73338
3.09345
-0.384759
2.29832
-1.26514
3.10535
1.01966
-0.949553
1.1202
2.51352
-0.397348
-0.949975
3.1629
2.75206
-4.34543
5.23998
-1.7481
1.70644
-0.299583
0.391709
2.36197
-0.212804
2.05206
-1.15907
2.99158
-0.932928
2.27113
-0.458857
2.7748
0.0170521
-0.101992
2.25903
2.34653
-0.106951
1.95958
2.23683
0.0979317
1.65906
2.48744
-0.442455
0.333453
4.39743
-2.01413
1.31921
0.984157
-0.594085
-7.10716
9.0459
2.74986
0.276466
-1.68798
3.95469
2.04942
0.639533
4.57863
1.57343
-2.36105
-2.47261
5.42221
-3.3449
4.28045
2.38625
1.2034
-0.449358
1.05103
2.37586
-0.267042
0.489658
1.65295
-1.02721
4.11068
-2.06837
2.90304
-3.25892
7.63066
6.39081
-4.46162
-7.78758
7.13935
-4.65996
10.6212
-1.59029
-0.592475
2.51412
3.54272
4.30048
-0.221059
2.47378
-1.77067
1.0319
-2.71857
5.6401
1.80535
6.03351
3.21032
-1.3521
-4.46449
4.17641
-2.55559
-2.46876
4.07434
-0.606323
2.50997
2.88139
-0.3229
1.09512
0.750239
-0.279408
2.1622
-0.106395
2.25172
2.20679
-0.210221
4.78707
1.39534
0.818798
-2.58057
-0.751459
3.02273
0.0308203
2.25821
0.408011
-0.480907
1.69687
2.5654
2.6002
-1.32043
3.50117
-0.54216
3.2556
-1.22117
3.67919
-0.938916
-0.213964
1.95527
2.2251
0.0355522
-22.115
3.11655
-4.49155
21.1216
2.32419
-0.190172
2.35025
-0.274506
0.87965
3.53938
-1.63586
1.03587
2.67228
-0.472505
1.39375
0.80349
6.47407
0.909859
-2.97389
2.61552
0.880131
-0.343503
2.40621
1.19402
2.20781
0.318702
-0.0604232
1.69367
2.36329
-0.307161
2.25139
-0.413928
2.76996
-0.801543
1.56654
0.368207
-8.33437
6.36149
13.3871
0.256089
-2.1722
4.2634
-0.659591
3.02331
5.02249
-2.21572
3.58417
-1.10393
5.14757
-0.375492
-3.28311
2.55006
2.01089
-3.22336
0.136497
5.34346
-5.42723
-14.5364
5.30415
14.4269
-2.51156
2.0817
4.73048
0.296409
-3.09241
-0.913176
5.109
2.81122
-3.42979
1.72677
1.06222
6.75207
1.81627
-0.213942
2.18266
0.19205
-3.61874
3.29986
-1.99625
4.98007
-0.915603
2.76808
3.24375
-1.39384
0.61768
-0.244027
2.14584
1.22916
0.289069
-1.33575
3.75272
2.05629
-0.559991
3.26726
2.964
-0.931991
-2.73149
2.97715
-0.585476
4.96626
2.5784
3.83919
-0.331944
-1.51428
2.88547
3.38873
-0.651363
-1.03892
0.0798532
4.15275
-1.94416
1.99068
2.19402
-0.193704
1.01543
0.994423
0.029288
-1.15084
3.46223
2.18399
-2.75837
1.40054
0.945732
4.89949
-0.728777
-0.709627
3.09444
2.98889
6.75304
-0.75279
3.80146
-3.12096
2.17409
3.54558
-1.52905
-0.0291509
3.31485
1.0393
1.07967
-1.15702
1.90838
0.239956
3.16075
-1.06982
-0.646893
2.28677
2.92124
-0.0901696
-0.596462
2.3658
2.85117
-0.179969
-2.93224
11.184
7.46636
-6.53127
3.20199
-0.065418
1.97039
-1.34085
1.27509
-2.77304
5.12036
0.669326
1.03293
3.68762
0.9622
-1.56929
-0.571055
4.75755
-1.91819
3.22376
0.46188
1.87914
0.0834063
1.53394
1.84316
0.094565
1.59702
0.300695
-1.76291
3.06434
-1.42303
3.30738
3.83291
-1.68991
4.22021
-1.06051
3.94876
-1.69872
-0.0883563
2.39252
4.96769
1.48874
-3.26821
0.0927016
3.97593
-1.84959
-1.73311
3.93559
-0.127181
5.66916
1.73262
-3.64194
-1.45254
2.43365
3.58832
-0.432218
6.02173
-3.66933
-1.71749
4.40063
0.139775
4.06326
-1.83971
1.94132
3.19366
-1.22754
-3.51651
5.29227
-2.45199
0.156441
5.13393
2.38103
3.58199
-9.06192
-1.16751
11.7506
-0.641737
1.35598
4.5516
5.11225
2.9353
-0.175037
2.15405
-0.944049
2.78497
1.41343
-0.703312
0.637137
3.00617
4.35526
-2.73926
-1.23547
4.3534
4.06538
-1.72913
-1.09303
0.544568
4.17677
-2.24144
1.3543
1.63377
4.81998
0.860914
-2.27992
5.24828
0.88032
1.34704
-2.96795
-3.76849
2.49587
5.89773
-0.24678
4.62834
1.00524
1.1327
-2.44919
0.306585
2.50468
1.86493
-0.339403
-0.222159
2.05418
0.126574
2.36426
5.42251
1.77463
0.821386
-2.72911
6.35124
-14.139
14.3728
-6.05787
0.815867
-0.897804
3.10413
1.36213
1.84504
0.241031
2.31182
-0.138069
2.68037
1.4386
0.942914
-0.455583
-0.0415964
2.22226
2.88779
-0.708195
1.50589
-0.993874
0.707302
3.20225
-0.0132025
2.21083
-0.940802
3.13392
-1.16319
1.38608
3.40998
0.838514
2.22653
0.50899
-0.171917
1.77987
2.05134
0.0348981
2.07822
0.00492315
2.39904
-0.105045
-0.227839
2.22181
-1.8245
3.55753
3.8636
-1.35097
4.16129
2.11447
-0.386746
-2.42215
-10.8861
6.96247
-4.27899
13.4716
2.14964
-2.5196
4.67424
0.0679725
0.195391
2.00419
-1.09045
3.27691
1.1463
-1.25087
3.46131
1.06922
1.90674
0.430653
-1.91899
4.27952
-0.664592
1.18748
2.80306
0.872955
-0.78142
2.97102
1.266
0.833752
3.74873
-1.52771
0.921453
1.34464
2.21356
-0.338239
4.18877
-2.45471
-0.973434
0.165644
2.09796
3.22896
-1.06748
2.78562
-0.464982
3.48199
2.77032
-0.50242
2.74274
-0.53264
2.58802
-0.215185
-0.544146
2.31362
0.474261
2.02854
-1.88211
4.47236
7.16355
1.35768
-4.6967
1.46727
5.74237
-1.79068
4.01565
-3.46074
-1.48118
-0.558855
3.94449
3.17343
-1.51055
3.77358
2.98079
-0.600175
7.59384
6.66335
-3.59202
-4.80251
0.921045
6.02001
1.43682
-3.2424
-1.55784
5.83064
3.28926
-4.09532
0.217327
-0.431166
1.89829
2.50751
-1.14154
3.27473
1.61913
0.481958
0.364649
1.77542
3.63399
-1.48131
-2.39691
1.11768
4.86403
1.36054
-2.15122
0.0566033
2.58267
4.74096
-2.46464
2.20346
4.45893
-0.199481
1.99479
4.187
0.278351
-1.92639
4.08915
1.19908
1.08482
-1.85205
6.36733
3.08985
-2.21919
1.11861
-1.06924
1.21688
3.11847
0.830107
1.9343
2.45499
-0.354006
0.208368
-0.524679
2.64885
1.25149
0.672398
3.84353
-1.87275
-2.13911
3.6972
-1.44614
-0.693381
2.52018
3.38814
2.9106
-0.304419
-0.876637
2.44029
0.187
2.29469
-0.195809
1.8564
4.94451
0.705049
1.6981
-2.49776
2.55205
0.921215
-0.493738
1.07715
-0.275894
2.13649
2.33902
0.00250112
-14.156
-17.5594
15.4268
13.4128
1.68943
-0.340989
2.29172
0.229864
-1.56215
0.465588
1.69463
3.86021
-1.23447
2.74092
-0.496037
3.35996
-1.35433
2.59846
3.83669
-0.288846
4.27234
-2.47414
-2.13415
4.86683
5.39256
-0.814663
-2.28849
3.52855
5.15918
-0.316601
2.90749
-2.25689
2.98751
-0.863042
3.12286
-0.645614
0.276979
1.72541
3.01701
-0.929961
1.62994
-0.558515
0.501886
2.7118
2.14814
2.44042
-0.306353
-0.151026
1.98638
-0.0091421
-0.0726584
1.97059
1.48917
-3.2595
0.577614
5.4767
-0.32
0.910087
0.971461
2.20324
2.08363
-0.352122
-0.380162
2.02994
3.29143
-0.678458
-1.3288
3.84069
0.224547
2.46583
1.47591
-0.731649
4.42637
0.319427
2.20665
-1.83746
-23.1626
-2.38628
21.2939
0.711621
-0.392134
2.52491
2.43172
-0.429384
5.16182
2.62254
-2.77174
-0.215265
2.87162
-0.75798
0.173685
1.93134
3.11139
0.159893
1.82732
-1.02903
0.984527
3.41336
0.789167
-1.60009
3.90764
0.352493
-1.52568
1.97091
6.40807
0.967856
1.41924
-3.49537
3.36427
-1.02391
2.91071
-0.580768
3.07115
-3.42102
-0.750486
5.49569
2.68075
0.6922
-0.555405
1.44254
3.29822
-0.0392484
-1.38833
1.86118
1.00391
-2.06688
3.95368
0.920625
-2.59193
4.15072
3.34322
-1.57472
3.78718
-0.597213
2.97102
-1.28941
-1.73281
4.13722
1.46286
0.875122
4.02241
-1.6874
2.03371
0.395595
0.195251
2.56248
-0.720266
1.61644
3.94117
4.10464
-1.69687
-1.30711
-1.38772
0.549277
1.64626
3.66307
3.25855
-1.02833
-0.333571
2.57872
-1.80568
-2.80852
4.99868
3.65414
0.846183
1.10757
3.0437
-1.01846
-0.971067
5.46094
2.54973
-3.73665
-0.170874
0.735324
2.06167
1.02886
-0.577577
1.67222
2.55899
0.266062
0.471684
1.97042
-1.80991
4.19531
0.875466
1.10711
-1.01493
2.99918
-5.11691
0.433037
7.54045
2.72793
6.79014
-2.38681
5.68647
-2.87982
2.20682
3.83326
0.128788
-1.48773
6.05839
-0.935948
2.42271
-4.1767
7.17202
-3.68626
1.60126
1.74773
2.11637
3.88836
-2.50356
-0.590495
-0.75405
6.89224
2.85585
-4.57812
1.49083
-3.00726
1.26484
5.93257
-0.872118
-1.31887
3.17824
3.72221
3.14268
-0.760934
-0.929485
3.19996
3.37778
-1.88229
-1.25847
3.89247
2.01444
-0.0645948
2.67098
-0.793033
2.96864
0.683488
1.24153
-1.00361
0.51089
1.72563
-1.28234
3.62578
-0.324092
2.59725
-0.962964
3.21759
-3.37066
-1.48086
5.2702
3.30971
2.47536
0.212913
-0.544893
1.66599
3.15911
0.431193
1.69589
-0.998733
2.22341
-0.327519
2.05606
-0.168359
2.43683
-0.283182
2.78357
-0.700545
3.61914
-1.28054
3.26196
-1.51158
5.08641
-1.54055
4.79028
-2.30866
-4.46927
6.17376
0.0856208
1.19214
0.716537
1.65695
-2.20787
4.65649
)
;

boundaryField
{
    insideCircle
    {
        type            myTemperature;
        value           nonuniform List<scalar> 
24
(
4.66483
3.03218
1.03595
6.08323
-1.5938
0.90995
6.20576
3.97541
0.560459
-0.57007
5.45605
4.55565
-0.93215
1.91104
3.36047
5.93886
3.24973
-0.123913
5.46793
1.75713
1.37887
-0.0756901
5.14444
3.65535
)
;
    }
    outsideCircle
    {
        type            myTemperature;
        value           nonuniform List<scalar> 
124
(
2.24866
0.241672
2.15293
-0.381821
0.259166
1.0259
2.12481
2.03809
1.47896
-0.0979144
0.493454
2.49106
-0.316436
2.2667
1.18259
1.15469
2.5732
0.984409
1.25628
-0.607604
-0.469128
0.698464
2.59942
1.51684
1.12376
0.0446867
2.60198
-0.417573
-0.11661
-0.0320953
2.43445
1.90158
2.53144
0.748863
-0.381675
1.51541
1.28225
-0.342193
2.56051
0.771319
-0.511102
1.04668
2.6139
1.13158
0.145399
-0.287484
1.96296
2.50611
0.878116
-0.553756
2.67745
1.27788
1.79398
0.212293
2.35885
-0.00734198
0.46593
2.11362
1.99949
-0.238348
-0.633832
-0.570738
3.20105
1.32443
2.68521
0.56182
-0.288828
1.49438
-0.215145
2.19871
-0.0151968
2.38434
2.37867
-0.311909
0.499224
1.58187
1.98865
-0.0270038
0.0705899
2.03548
-0.57407
0.875916
2.73497
1.31363
0.253543
2.51703
-0.329645
1.90648
-0.044887
-0.0769181
2.03645
2.22693
1.92164
2.58686
-0.254072
0.430686
2.47855
0.901118
-0.217066
0.998942
2.25097
-0.21917
0.530232
1.55009
2.47821
-0.429859
1.30743
0.793461
0.185905
2.45671
1.94161
-0.251542
-0.144985
2.04089
0.0524816
2.40741
2.042
0.231685
2.47355
-0.37833
2.58609
1.26655
0.610709
-0.498388
)
;
    }
    topAndBottom
    {
        type            empty;
    }
}


// ************************************************************************* //
