/*--------------------------------*- C++ -*----------------------------------*\
| =========                 |                                                 |
| \\      /  F ield         | foam-extend: Open Source CFD                    |
|  \\    /   O peration     | Version:  3.0                                   |
|   \\  /    A nd           | Web:         http://www.extend-project.de       |
|    \\/     M anipulation  |                                                 |
\*---------------------------------------------------------------------------*/
FoamFile
{
    version     2.0;
    format      ascii;
    class       regIOobject;
    location    "20/uniform";
    object      profilingInfo;
}
// * * * * * * * * * * * * * * * * * * * * * * * * * * * * * * * * * * * * * //

profilingInfo
(

    {
        id              11;
        parentId        9;
        description     "Foam::Time::writeObject - outputTime";
        calls           2;
        totalTime       0.005747;
        childTime       0;
        onStack         1;
    }

    {
        id              9;
        parentId        1;
        description     "Foam::Time::writeObject";
        calls           2000;
        totalTime       0.012035;
        childTime       0.005747;
        onStack         1;
    }

    {
        id              1;
        description     "application::main";
        calls           1;
        totalTime       13.229;
        childTime       1.9257;
        onStack         1;
    }

    {
        id              3;
        parentId        2;
        description     "functionObjectList::read";
        calls           1;
        totalTime       1.3e-05;
        childTime       0;
        onStack         0;
    }

    {
        id              10;
        parentId        1;
        description     "functionObjects_.execute()";
        calls           1999;
        totalTime       0.00755;
        childTime       0;
        onStack         0;
    }

    {
        id              2;
        parentId        1;
        description     "functionObjects_.start()";
        calls           1;
        totalTime       5.6e-05;
        childTime       1.3e-05;
        onStack         0;
    }

    {
        id              7;
        parentId        1;
        description     "fvMatrix::solve_Theta";
        calls           2000;
        totalTime       0.141199;
        childTime       0.030379;
        onStack         0;
    }

    {
        id              4;
        parentId        1;
        description     "fvMatrix::solve_s";
        calls           2000;
        totalTime       1.76486;
        childTime       1.39148;
        onStack         0;
    }

    {
        id              8;
        parentId        7;
        description     "lduMatrix::solver_Theta";
        calls           2000;
        totalTime       0.030379;
        childTime       0;
        onStack         0;
    }

    {
        id              5;
        parentId        4;
        description     "lduMatrix::solver_sx";
        calls           2000;
        totalTime       0.707594;
        childTime       0;
        onStack         0;
    }

    {
        id              6;
        parentId        4;
        description     "lduMatrix::solver_sy";
        calls           2000;
        totalTime       0.683887;
        childTime       0;
        onStack         0;
    }
);


// ************************************************************************* //
