/*--------------------------------*- C++ -*----------------------------------*\
| =========                 |                                                 |
| \\      /  F ield         | foam-extend: Open Source CFD                    |
|  \\    /   O peration     | Version:  3.0                                   |
|   \\  /    A nd           | Web:         http://www.extend-project.de       |
|    \\/     M anipulation  |                                                 |
\*---------------------------------------------------------------------------*/
FoamFile
{
    version     2.0;
    format      ascii;
    class       volSymmTensorField;
    location    "6";
    object      sigma;
}
// * * * * * * * * * * * * * * * * * * * * * * * * * * * * * * * * * * * * * //

dimensions      [0 0 0 0 0 0 0];

internalField   nonuniform List<symmTensor> 
728
(
(-0.0153646 0.0355629 -4.87578e-19 0.0153002 1.03302e-19 6.43643e-05)
(0.0153856 -0.0355483 6.3732e-19 -0.0153207 1.22081e-19 -6.49279e-05)
(0.0226229 -0.0413111 -8.17454e-19 -0.0226881 -2.07796e-19 6.52019e-05)
(-0.0226699 0.041395 3.3092e-19 0.0227357 -1.35181e-19 -6.57423e-05)
(-0.00808629 0.074749 7.73091e-19 0.00807473 9.08827e-20 1.15602e-05)
(0.00816325 -0.0748555 1.50255e-19 -0.00815115 2.8668e-19 -1.21008e-05)
(-0.162579 -0.00324505 -5.20051e-19 0.162641 2.94413e-18 -6.26337e-05)
(0.16228 0.003733 -4.3678e-19 -0.162342 1.41588e-18 6.21398e-05)
(0.00526029 0.0418842 6.15308e-19 -0.00522678 4.28995e-20 -3.35105e-05)
(0.0333442 0.068655 3.73509e-19 -0.0334211 -4.72861e-19 7.69078e-05)
(-0.00513558 -0.0419029 1.18255e-19 0.00510255 -8.62083e-20 3.30276e-05)
(-0.0331631 -0.068685 3.19368e-20 0.0332405 -7.08181e-19 -7.73993e-05)
(0.00550995 0.0401987 1.87757e-19 -0.00547419 -3.71583e-20 -3.57598e-05)
(-0.0272687 -0.0657485 -2.90821e-19 0.0273472 -5.87967e-19 -7.84507e-05)
(-0.00534707 -0.0402478 2.03796e-19 0.00531173 4.98515e-20 3.5339e-05)
(0.0275063 0.0656194 -1.26509e-19 -0.0275843 -4.60199e-19 7.80122e-05)
(0.00819016 -0.00682467 3.87738e-19 -0.00816789 -1.83752e-19 -2.22673e-05)
(0.0734592 -0.00308611 -4.1933e-19 -0.0735444 -1.15324e-19 8.51958e-05)
(-0.0732861 0.00328075 1.16009e-18 0.0733717 -4.12206e-19 -8.56238e-05)
(-0.00819685 0.00679061 2.26392e-19 0.00817518 1.90455e-20 2.16714e-05)
(-0.00847315 -0.0279345 9.72582e-20 0.00846705 -1.40573e-19 6.09788e-06)
(0.0890138 0.0491249 1.36021e-19 -0.0890918 -8.38038e-20 7.79975e-05)
(-0.0891264 -0.0490906 -5.64247e-19 0.0892048 3.17218e-19 -7.84853e-05)
(0.00856386 0.0279528 4.49076e-19 -0.0085571 -2.16057e-19 -6.75817e-06)
(-0.00731567 0.111832 8.59229e-19 0.00729853 1.05397e-19 1.71448e-05)
(0.177694 -0.0166196 3.41025e-21 -0.177751 3.09094e-18 5.74032e-05)
(-0.177627 0.0175256 1.57742e-18 0.177685 1.74665e-18 -5.79402e-05)
(0.00738369 -0.111842 6.00935e-19 -0.00736602 4.74048e-19 -1.76663e-05)
(0.00627706 -0.00779548 -5.37451e-19 -0.00625789 -5.52832e-20 -1.91693e-05)
(0.0777958 0.00176913 -2.29167e-19 -0.0778804 -1.50377e-19 8.4581e-05)
(-0.077588 -0.00146914 4.70183e-19 0.077673 -5.10972e-19 -8.50237e-05)
(-0.00624079 0.00775573 -2.59725e-19 0.00622227 -1.72118e-20 1.85203e-05)
(-0.00693269 -0.0287599 1.55851e-20 0.00693046 -1.21902e-19 2.22324e-06)
(0.100135 0.0432653 -9.2621e-20 -0.100211 -4.34037e-20 7.62243e-05)
(-0.100317 -0.0434426 -5.59578e-19 0.100394 2.82861e-19 -7.66484e-05)
(0.00700683 0.0286942 4.93689e-19 -0.00700399 -2.39233e-19 -2.83689e-06)
(0.0512378 0.0421046 9.61101e-19 -0.0513283 -9.41612e-20 9.05168e-05)
(-0.0113604 -0.0100935 -4.05417e-19 0.0113493 -3.27709e-19 1.10736e-05)
(-0.051293 -0.0421391 6.80454e-19 0.051384 9.55069e-20 -9.09797e-05)
(0.0113887 0.0101192 -2.15309e-19 -0.011377 1.96931e-19 -1.16598e-05)
(0.0108718 0.0205403 2.35826e-19 -0.0108601 -1.96101e-19 -1.17144e-05)
(0.0657191 0.0493677 -8.30667e-19 -0.0658029 6.11658e-20 8.38021e-05)
(-0.0108079 -0.0205276 -5.15175e-19 0.0107968 2.01815e-19 1.10866e-05)
(-0.0657692 -0.0494702 -1.28183e-18 0.0658534 1.49764e-19 -8.42704e-05)
(0.0114729 0.0184577 8.34622e-19 -0.0114578 -7.31777e-20 -1.50546e-05)
(-0.0553437 -0.0498502 -5.52252e-19 0.0554304 1.97507e-19 -8.66685e-05)
(-0.0114424 -0.0184769 -4.29106e-19 0.0114279 -7.55579e-20 1.45182e-05)
(0.0552736 0.0497764 -6.53815e-19 -0.0553598 1.41679e-19 8.62003e-05)
(0.00251742 -0.0694555 -5.06782e-19 -0.00246278 -1.59214e-19 -5.46431e-05)
(-0.0441875 0.0694227 6.90848e-19 0.0442404 -4.15858e-19 -5.29557e-05)
(0.0444791 -0.0696246 -5.7655e-19 -0.0445316 6.18104e-19 5.24747e-05)
(-0.00249592 0.0694271 6.81196e-19 0.00244179 -4.56478e-19 5.41356e-05)
(0.172263 -0.0509611 -1.23253e-18 -0.172316 1.92217e-18 5.30244e-05)
(0.00701619 0.142426 1.09908e-18 -0.00704166 1.04345e-19 2.54771e-05)
(-0.172406 0.0508316 2.83913e-18 0.17246 3.28282e-18 -5.36643e-05)
(-0.00695066 -0.14244 3.9744e-19 0.00697661 5.00556e-19 -2.59569e-05)
(0.0164714 -0.0308969 4.51614e-19 -0.0164153 -2.84064e-19 -5.60772e-05)
(0.0372284 -0.0408616 -7.92852e-19 -0.0372983 -2.00104e-19 6.99116e-05)
(-0.0372107 0.0408353 1.74698e-19 0.0372811 2.74253e-19 -7.03984e-05)
(-0.0165423 0.0308049 -2.75508e-19 0.0164869 -1.08886e-19 5.54425e-05)
(0.00634621 0.010869 2.66474e-19 -0.00634649 -2.06405e-19 2.7565e-07)
(-0.0732405 -0.031138 -1.62988e-19 0.073327 -1.42446e-19 -8.64487e-05)
(0.0730948 0.0311731 -2.00311e-19 -0.0731808 -1.98966e-19 8.59956e-05)
(-0.00633669 -0.0109017 -3.59592e-19 0.00633754 -4.63851e-20 -8.55125e-07)
(0.0166284 -0.0428614 -7.95204e-19 -0.0166884 1.90079e-19 6.0015e-05)
(-0.0104724 0.0430203 -2.92652e-19 0.0104042 9.07894e-20 6.81922e-05)
(-0.0166222 0.0429245 1.40731e-19 0.0166828 -4.73613e-19 -6.05364e-05)
(0.0105523 -0.0429578 -8.35001e-20 -0.0104835 2.25173e-19 -6.87682e-05)
(0.00580732 -0.0607163 -3.43703e-20 -0.00580248 1.56614e-19 -4.84025e-06)
(-0.00571752 0.0606619 1.42533e-18 0.00571321 1.60734e-19 4.31111e-06)
(0.147639 0.0302711 1.26944e-19 -0.147704 2.64404e-19 6.48677e-05)
(-0.147586 -0.0298704 -1.89402e-20 0.147651 5.29239e-19 -6.54718e-05)
(0.0461522 0.0453673 2.59031e-19 -0.0462426 -5.05628e-19 9.0406e-05)
(-0.012584 -0.0120732 -7.48331e-19 0.0125686 -3.61851e-19 1.53858e-05)
(0.0125935 0.0120974 3.27558e-20 -0.0125775 2.52892e-20 -1.59696e-05)
(-0.0461821 -0.0454262 4.70094e-20 0.046273 -3.34573e-19 -9.08731e-05)
(0.00269373 0.00918526 1.70829e-19 -0.00269988 -1.13083e-19 6.15351e-06)
(0.0777426 0.0222099 -2.05618e-19 -0.077828 -1.6534e-19 8.53947e-05)
(-0.00269832 -0.00928972 -2.95966e-19 0.00270503 -2.39879e-20 -6.70625e-06)
(-0.0778962 -0.0220006 -3.00286e-20 0.077982 -3.28991e-20 -8.5821e-05)
(0.0319163 0.0966963 -1.10651e-20 -0.0319747 2.24877e-19 5.84533e-05)
(-0.0319119 -0.0965788 -2.3696e-19 0.0319709 4.04418e-20 -5.89488e-05)
(-0.0294309 0.077932 6.92069e-19 0.0294702 4.96245e-20 -3.92502e-05)
(0.029747 -0.0779354 -4.01803e-19 -0.0297857 3.19588e-19 3.86757e-05)
(0.0175258 -0.0164998 4.78085e-19 -0.0174793 -3.4216e-19 -4.64104e-05)
(0.0474218 -0.0298533 7.98807e-20 -0.0475005 4.75285e-19 7.86991e-05)
(-0.0175688 0.0164469 -1.69395e-19 0.017523 2.78367e-19 4.57998e-05)
(-0.0473624 0.0298774 6.80793e-19 0.0474415 9.99209e-20 -7.91536e-05)
(0.0407946 0.168855 7.89629e-19 -0.0408256 -9.13052e-20 3.10193e-05)
(0.171646 -0.0688696 -3.15184e-18 -0.171696 9.1278e-19 4.94277e-05)
(-0.0407626 -0.168859 2.6786e-19 0.0407941 2.29225e-19 -3.15151e-05)
(-0.171351 0.0690609 2.25231e-18 0.171401 2.69385e-18 -4.99743e-05)
(0.0186933 0.0950302 4.69536e-19 -0.0187468 -7.68161e-20 5.35018e-05)
(-0.0187256 -0.094926 4.27468e-19 0.0187796 -2.6139e-19 -5.40067e-05)
(-0.0446608 0.0831887 -4.97024e-20 0.0447046 -4.64614e-19 -4.38267e-05)
(0.0448072 -0.0831466 -8.18066e-20 -0.0448505 2.61305e-19 4.3229e-05)
(-0.0001329 -0.0486605 -6.72455e-20 9.8677e-05 5.68816e-20 3.42226e-05)
(0.0324887 0.0733874 1.6653e-19 -0.032562 1.53048e-19 7.333e-05)
(0.00017099 0.0485905 6.59179e-19 -0.000136183 -9.44024e-20 -3.48065e-05)
(-0.0326449 -0.0734221 7.35398e-19 0.0327187 -5.78493e-19 -7.38377e-05)
(0.0163861 -0.0322758 8.14931e-19 -0.0163247 4.72782e-21 -6.1445e-05)
(-0.0163382 0.0323945 -1.20371e-18 0.0162773 9.06877e-20 6.09613e-05)
(0.0281344 -0.0403053 -1.05699e-18 -0.0282022 1.18785e-19 6.78056e-05)
(-0.0281762 0.0403821 4.08996e-19 0.0282445 -1.13471e-19 -6.83124e-05)
(-0.0120628 0.041137 -2.16482e-19 0.0119978 -1.13947e-19 6.49771e-05)
(-0.0221943 0.0439813 -1.22849e-19 0.022257 -2.90125e-19 -6.27347e-05)
(0.0220649 -0.0439129 -4.49822e-19 -0.0221271 5.74367e-19 6.21869e-05)
(0.012114 -0.0409918 5.45151e-19 -0.0120485 2.27657e-19 -6.54818e-05)
(0.0167088 -0.0131316 4.31299e-19 -0.0166666 -3.64228e-19 -4.22367e-05)
(0.0522138 -0.0259148 7.49289e-21 -0.0522948 -3.34129e-21 8.09376e-05)
(-0.0167477 0.0130825 -1.49731e-19 0.016706 2.32512e-19 4.16321e-05)
(-0.0521714 0.0258986 8.73975e-19 0.0522528 4.07757e-20 -8.13996e-05)
(-0.00349553 0.00264338 1.91245e-19 0.00348037 8.17859e-20 1.51605e-05)
(0.0681085 0.00876056 -9.71409e-21 -0.0681974 2.44196e-20 8.88874e-05)
(0.00347636 -0.00270609 -1.12369e-19 -0.00346061 -2.86631e-19 -1.575e-05)
(-0.0680219 -0.00861666 2.3856e-19 0.0681113 -3.28202e-19 -8.93282e-05)
(0.0130349 -0.0396189 6.23958e-19 -0.0129667 3.02468e-19 -6.82329e-05)
(-0.0129776 0.0396482 -3.75669e-19 0.0129099 1.79767e-19 6.7691e-05)
(0.0174581 -0.0416787 -3.57217e-19 -0.0175201 -8.29789e-20 6.20505e-05)
(-0.0174472 0.0417391 3.42889e-19 0.0175098 -2.65018e-19 -6.25855e-05)
(0.0155513 -0.0338081 4.2497e-19 -0.0154915 -8.49663e-20 -5.97865e-05)
(0.0310345 -0.0417916 -3.33447e-19 -0.031102 1.79523e-19 6.74965e-05)
(-0.0310747 0.0417431 5.64334e-20 0.0311428 6.72336e-20 -6.80667e-05)
(-0.0156438 0.0336684 -1.20315e-19 0.0155847 -2.14765e-19 5.91405e-05)
(0.00254606 0.0424858 -9.5793e-21 -0.00250565 -2.97465e-19 -4.04164e-05)
(-0.0183044 -0.0637566 -6.38092e-19 0.0183818 -2.6129e-20 -7.73525e-05)
(-0.00247441 -0.0425723 1.60947e-19 0.0024345 3.03229e-20 3.99122e-05)
(0.018428 0.0636184 -2.54914e-19 -0.0185049 -1.24851e-19 7.6913e-05)
(-0.012063 -0.058192 -2.43789e-21 0.0121431 2.5484e-19 -8.01589e-05)
(0.0122555 0.0582723 -3.05477e-19 -0.0123351 1.3395e-19 7.96339e-05)
(0.00410044 0.0372552 4.7575e-19 -0.00405763 -3.37386e-19 -4.28039e-05)
(-0.00413708 -0.0372456 -5.40993e-19 0.00409473 1.16618e-19 4.23475e-05)
(0.0173691 -0.0251856 3.77921e-19 -0.0173181 -2.78706e-19 -5.10364e-05)
(0.0441057 -0.0369991 -1.0781e-18 -0.0441793 -8.92011e-20 7.36664e-05)
(-0.0441538 0.0369917 4.14412e-19 0.044228 4.91473e-19 -7.41575e-05)
(-0.0174084 0.0251582 -3.25331e-19 0.0173578 4.96513e-20 5.05135e-05)
(-0.00642419 -0.0558167 -4.21469e-21 0.00650245 1.23228e-19 -7.82617e-05)
(0.000435774 0.0392319 3.52817e-19 -0.000389171 -2.38385e-19 -4.66022e-05)
(0.00663134 0.055932 -2.82379e-19 -0.00670911 2.57821e-19 7.77645e-05)
(-0.0004474 -0.0393152 -5.93799e-19 0.000401235 1.46921e-20 4.61649e-05)
(-0.00556409 -0.0395414 -5.45607e-20 0.00556102 -1.68672e-19 3.07412e-06)
(0.112897 0.0495714 -1.58274e-19 -0.112969 -8.81529e-20 7.19111e-05)
(-0.113085 -0.0491932 -7.24621e-19 0.113158 -3.7075e-20 -7.2422e-05)
(0.00561503 0.0395117 6.71304e-19 -0.00561146 -1.9983e-19 -3.5735e-06)
(-0.0156174 0.0367635 -3.03499e-19 0.0155651 -4.28764e-20 5.22694e-05)
(0.0450899 -0.0464155 -6.06174e-19 -0.0451573 -2.86724e-19 6.73224e-05)
(0.0155826 -0.0367808 4.89199e-19 -0.0155298 1.0246e-19 -5.27822e-05)
(-0.0449761 0.0463898 1.68083e-19 0.0450439 -7.11706e-19 -6.78047e-05)
(0.0104497 0.00989984 5.16721e-19 -0.0104405 3.25847e-19 -9.19105e-06)
(0.0554248 0.0405823 2.3624e-19 -0.0555146 1.15034e-19 8.9819e-05)
(-0.0555016 -0.0405997 -2.34335e-20 0.0555919 2.72037e-19 -9.02805e-05)
(-0.0104413 -0.00989808 -3.42858e-19 0.0104326 -2.55927e-19 8.67302e-06)
(-0.000639952 -0.0366963 -6.06483e-19 0.000590719 -8.19691e-20 4.92326e-05)
(0.000727759 0.0365681 1.96555e-19 -0.000678051 -2.62255e-19 -4.97084e-05)
(0.00089682 0.0517724 -2.70074e-19 -0.000975567 4.26543e-19 7.87469e-05)
(-0.000780205 -0.0517376 -3.61016e-20 0.00085948 3.32124e-19 -7.92747e-05)
(-0.00052094 0.0036945 8.76921e-20 0.000510332 5.94334e-20 1.06081e-05)
(-0.0689469 -0.0153599 1.40869e-19 0.0690361 -2.47449e-19 -8.92433e-05)
(0.000465876 -0.00374248 -1.09462e-19 -0.000454739 -7.48824e-20 -1.1137e-05)
(0.0689805 0.0154789 2.22423e-19 -0.0690693 -1.36819e-19 8.8795e-05)
(-0.119331 0.0756303 -1.87932e-19 0.119387 1.24866e-19 -5.52178e-05)
(0.00471928 -0.0853469 2.52229e-19 -0.00468415 4.1815e-20 -3.51348e-05)
(0.120309 -0.0753781 -5.86449e-19 -0.120364 5.06233e-19 5.47892e-05)
(-0.00489605 0.0851224 1.37419e-18 0.0048615 -5.16324e-19 3.45533e-05)
(0.0113439 -0.0664352 4.11921e-21 -0.0113142 4.8196e-20 -2.97167e-05)
(-0.123816 0.0532835 -2.45324e-20 0.123877 -8.63303e-19 -6.0515e-05)
(0.124389 -0.0533265 -9.58745e-19 -0.124449 5.61275e-19 5.99466e-05)
(-0.0114517 0.0665166 1.44157e-18 0.0114224 -4.75087e-19 2.92924e-05)
(0.0538104 -0.0425202 -1.67486e-19 -0.0538811 -1.55478e-19 7.06733e-05)
(0.0169331 -0.0311062 4.0874e-19 -0.0168853 7.17088e-20 -4.78002e-05)
(-0.0537321 0.0425113 -4.58237e-19 0.0538033 -7.06376e-20 -7.11554e-05)
(-0.0169577 0.0311122 -6.57755e-19 0.0169105 -2.17726e-20 4.72298e-05)
(-0.0167102 -0.0602608 -2.24328e-19 0.0167904 2.30578e-19 -8.02127e-05)
(0.0168324 0.0602528 -2.4176e-19 -0.0169121 8.71617e-20 7.96786e-05)
(0.00559175 0.03766 3.43243e-19 -0.00555136 -2.38823e-19 -4.03854e-05)
(-0.00565993 -0.0375751 -4.0262e-19 0.00562009 3.43605e-19 3.9837e-05)
(-0.0026014 0.037822 2.33078e-19 0.00265412 -3.12132e-19 -5.27215e-05)
(0.0026421 -0.0379085 -5.8961e-19 -0.00269428 -5.51271e-20 5.21888e-05)
(0.00362723 -0.049429 8.11727e-20 -0.00354989 3.46674e-19 -7.73422e-05)
(-0.00358633 0.049405 -2.46035e-19 0.00350955 4.13187e-19 7.67815e-05)
(0.0554725 -0.0642023 -7.96817e-20 -0.0555304 2.17253e-19 5.78672e-05)
(-0.055401 0.063999 3.11681e-19 0.0554594 -3.34245e-19 -5.8425e-05)
(-0.00961005 0.0583493 4.84356e-19 0.00956015 -5.81354e-19 4.98944e-05)
(0.00974657 -0.0581333 -2.11738e-19 -0.00969624 1.77341e-20 -5.03241e-05)
(-0.00436125 -0.108413 5.15632e-19 0.00439726 2.9628e-19 -3.60075e-05)
(-0.128007 0.0847676 -1.66587e-19 0.128058 1.30478e-18 -5.13628e-05)
(0.128657 -0.0841419 -6.10263e-19 -0.128708 3.28475e-19 5.10053e-05)
(0.00428896 0.108312 1.635e-18 -0.00432446 -3.04752e-19 3.55033e-05)
(-0.0110366 -0.029066 4.05775e-19 0.0110207 -3.05188e-20 1.5893e-05)
(0.0652418 0.0581877 7.81232e-19 -0.0653224 1.21268e-19 8.0593e-05)
(0.01116 0.028984 5.66811e-19 -0.0111436 -9.82594e-20 -1.6357e-05)
(-0.06522 -0.0582637 -3.68478e-19 0.065301 1.96295e-19 -8.10738e-05)
(-0.010028 -0.0344577 1.51944e-19 0.0100064 -3.76733e-19 2.16467e-05)
(-0.0552547 -0.0647439 1.39904e-19 0.0553345 -1.37999e-19 -7.98725e-05)
(0.0552955 0.064696 6.94605e-19 -0.0553749 -4.39148e-19 7.94021e-05)
(0.0101442 0.0344753 6.77761e-19 -0.010122 -9.51773e-20 -2.21965e-05)
(-0.000560297 -0.000415301 -2.26035e-19 0.000570165 -8.45615e-19 -9.86804e-06)
(-0.0615391 -0.0165033 2.86697e-21 0.061631 -1.1444e-19 -9.19534e-05)
(0.0615808 0.0165953 -5.70193e-19 -0.0616723 -1.1219e-19 9.15094e-05)
(0.000530858 0.000324744 -4.03082e-19 -0.000540168 1.52213e-19 9.30964e-06)
(0.00971271 0.00554593 -2.84353e-19 -0.00970567 1.27955e-19 -7.03432e-06)
(-0.0534929 -0.0358831 2.36599e-19 0.0535854 -6.37246e-20 -9.25483e-05)
(0.0534599 0.0358881 3.90377e-19 -0.053552 -3.12037e-19 9.20913e-05)
(-0.00968406 -0.00554796 -7.68357e-19 0.00967763 -1.74223e-19 6.43367e-06)
(-0.0113077 0.0430603 1.23181e-19 0.011245 -3.02596e-19 6.26776e-05)
(-0.0255214 0.046499 2.62542e-19 0.0255835 -2.44231e-19 -6.21146e-05)
(0.0112615 -0.0430632 -3.40716e-19 -0.0111983 1.81616e-19 -6.31961e-05)
(0.0256177 -0.0465063 -2.67475e-19 -0.0256793 4.31603e-19 6.16474e-05)
(0.0122235 0.0252732 -6.62202e-19 -0.0121888 -1.68173e-19 -3.46615e-05)
(-0.0223312 -0.0546685 -9.4679e-19 0.0224183 1.02952e-19 -8.71006e-05)
(0.0224832 0.0546334 -9.41218e-19 -0.0225698 -5.71693e-20 8.66046e-05)
(-0.0122915 -0.025266 -1.38871e-18 0.0122573 -6.32254e-20 3.41347e-05)
(-0.0584713 -0.0423835 -3.59583e-19 0.05856 8.75174e-20 -8.87285e-05)
(0.0583822 0.0423447 -1.39417e-19 -0.0584705 -1.77969e-19 8.82658e-05)
(-0.0101348 -0.0123288 -3.52264e-19 0.0101259 -1.81085e-19 8.92052e-06)
(0.0101665 0.0123494 6.5344e-19 -0.010157 1.34109e-19 -9.52031e-06)
(0.00972608 -0.058438 -1.12292e-19 -0.00970411 1.68504e-19 -2.19668e-05)
(-0.136252 0.0277178 -8.63194e-19 0.136316 1.25291e-18 -6.37752e-05)
(0.136277 -0.027079 -1.06772e-18 -0.13634 2.54198e-19 6.33694e-05)
(-0.00976415 0.0583399 1.32296e-18 0.00974268 -3.27774e-19 2.14682e-05)
(0.00956596 0.00607022 2.57421e-19 -0.00955935 1.81939e-19 -6.60569e-06)
(-0.0548144 -0.0360243 4.82602e-19 0.0549065 2.59704e-19 -9.20385e-05)
(0.0547658 0.0360299 7.8182e-19 -0.0548574 -1.44568e-19 9.15809e-05)
(-0.0095832 -0.00613274 -3.70078e-19 0.00957705 -2.40444e-19 6.14892e-06)
(0.000218242 0.0133339 2.05912e-19 -0.000227464 -1.38728e-19 9.22112e-06)
(-0.000218836 -0.0132787 -2.99753e-19 0.000228642 5.54225e-20 -9.80586e-06)
(0.0879741 0.017547 -1.98088e-19 -0.0880559 -2.10282e-19 8.17791e-05)
(-0.0880499 -0.0172246 -1.64593e-19 0.0881322 5.2079e-20 -8.22586e-05)
(0.0102122 -0.0419533 -7.27245e-19 -0.0102683 -1.2782e-19 5.61473e-05)
(0.00704013 -0.0472219 1.19376e-19 -0.00696754 1.01479e-19 -7.25896e-05)
(-0.00692344 0.0472152 -2.74704e-19 0.00685139 2.61348e-19 7.20509e-05)
(-0.010136 0.04192 1.80694e-19 0.0101927 -3.99666e-19 -5.66607e-05)
(-0.0045198 0.00138678 -1.50641e-19 0.0045027 9.9237e-20 1.70964e-05)
(0.0660194 0.00603848 -3.53013e-19 -0.0661088 -1.55685e-19 8.9429e-05)
(0.00452757 -0.00145236 7.28403e-20 -0.00450984 -4.57349e-19 -1.77359e-05)
(-0.0659114 -0.0059103 2.41536e-19 0.0660013 -2.88289e-19 -8.9868e-05)
(0.0413515 -0.05381 -1.98291e-19 -0.0414127 5.39496e-19 6.11854e-05)
(-0.0119086 0.0480085 -2.76719e-19 0.0118533 -2.47832e-19 5.52254e-05)
(0.0119208 -0.0478697 5.43234e-20 -0.0118651 1.13384e-19 -5.57197e-05)
(-0.041127 0.0537694 4.698e-19 0.0411887 -3.50465e-19 -6.16848e-05)
(-0.000762926 -0.0412636 4.10548e-20 0.000766489 -9.3242e-21 -3.5638e-06)
(0.000835229 0.041165 5.93679e-19 -0.000838248 -3.70593e-20 3.0186e-06)
(0.12588 0.0330001 -5.93784e-19 -0.12595 5.65336e-19 7.00066e-05)
(-0.126402 -0.0327834 -1.54624e-18 0.126473 8.07108e-19 -7.04103e-05)
(0.0618513 -0.120134 -1.3426e-18 -0.0618752 8.64234e-19 2.39209e-05)
(-0.116079 -0.119258 6.89053e-19 0.116134 -2.74371e-19 -5.48722e-05)
(-0.0614457 0.120191 1.72463e-18 0.0614701 -2.72753e-19 -2.44152e-05)
(0.115968 0.119183 1.08698e-19 -0.116023 -7.92545e-19 5.43732e-05)
(-0.0463773 -0.0540652 -9.78659e-19 0.0464636 -2.88244e-19 -8.62963e-05)
(0.0123785 0.0218915 3.54565e-19 -0.0123572 4.45661e-20 -2.13206e-05)
(0.0463511 0.0539811 -6.50186e-20 -0.0464369 5.50964e-19 8.58237e-05)
(-0.0123727 -0.0218438 -5.43274e-19 0.012352 5.96368e-20 2.07745e-05)
(0.0397942 -0.113531 -9.4559e-19 -0.0398051 8.56515e-19 1.09067e-05)
(0.151871 0.0874574 -8.51332e-19 -0.15193 -3.4263e-19 5.85573e-05)
(-0.0395454 0.113493 6.87871e-19 0.0395568 -2.47273e-19 -1.1414e-05)
(-0.15201 -0.0874563 4.44464e-19 0.152069 4.19564e-20 -5.90714e-05)
(0.0161467 -0.0122088 2.22068e-19 -0.0161071 -3.56308e-19 -3.9551e-05)
(-0.0557755 0.0237933 5.23739e-19 0.0558576 -2.58667e-20 -8.20825e-05)
(-0.0161759 0.0121726 -3.25482e-19 0.0161369 1.60726e-19 3.8954e-05)
(0.0558732 -0.0237494 -7.81662e-20 -0.0559549 -9.23542e-20 8.16529e-05)
(-0.0803431 -0.0576455 -3.62734e-19 0.0804217 3.52796e-19 -7.85302e-05)
(-0.0096521 -0.0321188 1.74591e-19 0.00964089 -4.21437e-19 1.12093e-05)
(0.080371 0.0575527 3.05473e-19 -0.080449 2.39414e-19 7.80466e-05)
(0.00977513 0.0319814 4.62688e-19 -0.00976337 -2.02593e-19 -1.17553e-05)
(-0.0203268 0.0488056 2.44466e-19 0.0203838 -5.63299e-19 -5.69698e-05)
(0.00638508 -0.0504902 -6.63405e-20 -0.006319 -2.20682e-19 -6.60787e-05)
(-0.00634843 0.0505841 6.07665e-19 0.00628291 2.15783e-20 6.55254e-05)
(0.0203584 -0.0487316 -3.53576e-19 -0.0204148 1.32453e-19 5.64289e-05)
(0.00504306 0.0502008 7.0995e-19 -0.00503231 -1.63168e-19 -1.07504e-05)
(-0.00497958 -0.0501514 -5.16371e-19 0.00496938 -2.49134e-19 1.01952e-05)
(-0.103996 -0.0662491 2.14035e-19 0.104067 -6.04268e-20 -7.11712e-05)
(0.104187 0.0661879 2.38167e-19 -0.104258 2.97337e-20 7.0663e-05)
(0.0634921 -0.00371382 -1.9436e-19 -0.0635807 -3.22115e-19 8.85326e-05)
(-0.00887762 0.00189267 -1.16334e-19 0.00885335 3.58168e-20 2.42702e-05)
(0.00886142 -0.001954 4.85375e-20 -0.00883655 -5.60919e-19 -2.48776e-05)
(-0.0633483 0.00379408 9.26943e-19 0.0634373 -3.34107e-19 -8.89696e-05)
(0.00392136 0.05312 -2.73087e-19 -0.00400063 3.71876e-19 7.92682e-05)
(-0.0020643 -0.036637 -6.27454e-19 0.00201687 -1.14524e-19 4.74289e-05)
(0.00210005 0.0365061 1.85192e-19 -0.0020521 -2.30544e-19 -4.79539e-05)
(-0.00374956 -0.0530686 -8.73671e-20 0.00382935 2.41221e-19 -7.97851e-05)
(-0.00892203 -0.0174208 -4.63679e-19 0.00891715 1.04039e-19 4.8828e-06)
(0.0744431 0.0415314 -3.92279e-19 -0.0745268 -1.19712e-19 8.36848e-05)
(0.00891096 0.0172842 1.46797e-19 -0.00890559 -2.35441e-19 -5.37263e-06)
(-0.0745885 -0.0415563 -6.77939e-19 0.0746726 -3.03565e-19 -8.41501e-05)
(0.00780264 -0.00476931 4.62264e-19 -0.00778038 -3.16813e-19 -2.22581e-05)
(0.0697808 -0.00180003 -3.28449e-19 -0.0698676 -1.79881e-19 8.67358e-05)
(-0.0696081 0.00192927 5.69217e-19 0.0696953 -4.31452e-19 -8.71739e-05)
(-0.00780736 0.00474693 -5.83528e-20 0.00778572 5.54936e-20 2.16434e-05)
(0.03032 -0.0547379 -6.74156e-19 -0.0303769 4.54396e-19 5.68184e-05)
(-0.00715229 0.053778 4.17553e-19 0.00709178 -2.7052e-19 6.05065e-05)
(0.00726352 -0.0536217 3.92136e-22 -0.00720263 3.00272e-20 -6.08948e-05)
(-0.029784 0.0546444 4.24461e-19 0.0298412 -2.47831e-19 -5.72595e-05)
(0.0106196 0.0277836 3.21517e-20 -0.0105814 -1.5183e-19 -3.8206e-05)
(0.0170536 0.0549334 -5.67926e-19 -0.0171389 5.86351e-19 8.53312e-05)
(-0.0168918 -0.054927 -5.31489e-19 0.0169776 7.25362e-19 -8.58372e-05)
(-0.0107066 -0.0277415 -7.42989e-19 0.010669 -9.67162e-20 3.76423e-05)
(-0.061425 0.00904153 7.27781e-19 0.0615129 1.99666e-19 -8.78971e-05)
(0.0109737 -0.00326672 1.15387e-19 -0.010945 -5.54746e-19 -2.87671e-05)
(0.0615794 -0.00898309 -1.16168e-19 -0.0616668 -2.93211e-19 8.74609e-05)
(-0.0109934 0.00319747 -1.39804e-19 0.0109652 1.1284e-19 2.81625e-05)
(0.0122961 0.0254435 4.12862e-20 -0.0122624 -9.42397e-20 -3.37414e-05)
(-0.0241639 -0.0551337 -1.78937e-19 0.0242508 -7.03781e-21 -8.68599e-05)
(0.0243162 0.0550824 -1.83895e-19 -0.0244025 -1.94581e-19 8.63665e-05)
(-0.0123744 -0.0254253 -6.75887e-19 0.0123412 4.40261e-20 3.31765e-05)
(0.00307033 -0.0361076 -6.92628e-19 -0.00305947 4.3548e-20 -1.08572e-05)
(-0.00307063 0.035966 1.62706e-18 0.00306034 -2.42713e-19 1.02883e-05)
(0.123894 0.0126232 -9.86769e-19 -0.123964 4.14738e-19 7.0324e-05)
(-0.124006 -0.0127298 -9.1412e-19 0.124077 1.24643e-18 -7.08229e-05)
(0.00758654 0.00987098 4.73101e-19 -0.00758368 -8.13927e-20 -2.85691e-06)
(0.0663183 0.0344511 -1.38781e-19 -0.066406 -2.78913e-19 8.76877e-05)
(-0.0664356 -0.0344149 -2.27614e-19 0.0665238 -3.79294e-20 -8.81548e-05)
(-0.00758902 -0.00990299 -3.03692e-19 0.00758672 -7.4026e-20 2.30571e-06)
(-0.0105569 0.0766931 1.1076e-18 0.0105656 -3.50293e-20 -8.71064e-06)
(0.0107234 -0.0766914 -1.11527e-18 -0.0107316 3.31025e-19 8.18531e-06)
(0.134338 0.0718305 6.88228e-20 -0.134402 -3.58538e-19 6.36934e-05)
(-0.134672 -0.0717533 4.89481e-19 0.134736 -9.04177e-19 -6.41682e-05)
(0.00980545 0.0348013 6.26321e-19 -0.00977927 6.0217e-20 -2.61763e-05)
(-0.0096706 -0.0347766 1.91637e-19 0.00964497 -7.06484e-20 2.56288e-05)
(-0.0461175 -0.0648107 2.55101e-19 0.0461978 -3.63513e-19 -8.02483e-05)
(0.0461063 0.064822 3.61616e-19 -0.0461861 -3.88092e-19 7.97542e-05)
(-0.0690203 -0.106674 5.90805e-20 0.0690803 -2.25541e-19 -6.00107e-05)
(-0.0255235 0.0839066 1.55932e-18 0.0255532 7.62111e-19 -2.97246e-05)
(0.0256709 -0.0836853 -1.35506e-18 -0.0257002 -6.51808e-20 2.92827e-05)
(0.068918 0.106688 2.06144e-19 -0.0689775 -8.59348e-20 5.95197e-05)
(-0.0121701 0.0733843 1.397e-18 0.0121941 6.63614e-19 -2.3924e-05)
(0.0122847 -0.0732567 -1.317e-18 -0.0123081 -2.32991e-20 2.3393e-05)
(-0.0818868 -0.0951863 -1.47573e-19 0.0819511 -2.62579e-19 -6.42906e-05)
(0.0817623 0.0951879 3.07134e-19 -0.0818261 3.28531e-19 6.37894e-05)
(-0.0137326 -0.0135561 -8.65162e-19 0.013712 -2.52949e-19 2.05848e-05)
(0.0385631 0.0476622 5.29534e-20 -0.0386538 -3.75865e-21 9.06892e-05)
(0.0136936 0.013555 -2.33748e-19 -0.0136725 -2.53649e-19 -2.10819e-05)
(-0.0385258 -0.0477323 -1.83419e-19 0.038617 1.75502e-19 -9.11622e-05)
(-0.0145931 0.0376878 -1.92754e-19 0.0145365 -1.49834e-19 5.66061e-05)
(0.0145548 -0.0377143 6.64617e-19 -0.0144977 7.33079e-21 -5.70617e-05)
(0.0366694 -0.0457321 -3.84602e-20 -0.0367354 -1.50195e-19 6.60225e-05)
(-0.0366731 0.0456419 1.44703e-19 0.0367397 -2.55694e-19 -6.6557e-05)
(-0.00520789 0.0693313 6.84173e-19 0.005222 8.00932e-20 -1.411e-05)
(0.00534906 -0.0692655 -1.01676e-18 -0.00536265 1.78412e-20 1.35892e-05)
(-0.110259 -0.0798953 3.09888e-19 0.110325 -4.01846e-19 -6.61481e-05)
(0.110173 0.0797557 2.97701e-19 -0.110239 2.37726e-19 6.56943e-05)
(-0.00436549 0.013679 1.3604e-19 0.00435012 -5.27995e-20 1.53743e-05)
(0.0892414 0.00546764 -2.58363e-19 -0.0893222 -1.90285e-19 8.08344e-05)
(-0.0891249 -0.00535708 -2.59714e-19 0.0892063 -4.11586e-20 -8.13223e-05)
(0.00432756 -0.0137057 -3.48324e-19 -0.00431169 6.80074e-20 -1.5865e-05)
(-0.00286659 -0.0713098 -4.48434e-19 0.00292622 -7.82342e-20 -5.96297e-05)
(-0.0316508 0.0655592 5.13387e-19 0.0317005 7.26934e-20 -4.97334e-05)
(0.00320577 0.0715356 9.22203e-19 -0.00326491 -2.98873e-19 5.91407e-05)
(0.0319646 -0.0657082 -1.41752e-18 -0.0320138 -3.78139e-19 4.92533e-05)
(0.00846568 -0.0550181 -1.58738e-19 -0.0085052 3.7985e-19 3.95253e-05)
(0.0215833 0.0750802 8.67921e-19 -0.0216526 4.33688e-19 6.93113e-05)
(-0.00825616 0.0549488 5.55809e-19 0.00829614 -2.09006e-20 -3.99828e-05)
(-0.0219311 -0.0750813 1.15255e-19 0.022001 -3.09466e-19 -6.98821e-05)
(-0.00686397 0.0112617 -1.85598e-19 0.00684498 -1.2865e-20 1.89862e-05)
(0.00688665 -0.0113355 -5.81506e-19 -0.00686709 6.92062e-20 -1.95686e-05)
(0.0835153 -0.00103073 -2.12453e-19 -0.0835974 -1.19173e-19 8.21037e-05)
(-0.0833722 0.00116405 -2.48942e-19 0.0834547 -5.21565e-19 -8.25545e-05)
(0.0113917 0.0289882 -1.53984e-19 -0.0113582 -2.35865e-19 -3.34744e-05)
(-0.0268152 -0.0578974 -8.27235e-19 0.0269 3.3503e-19 -8.48371e-05)
(-0.0114078 -0.0289994 -7.27066e-19 0.0113749 -1.48873e-19 3.29464e-05)
(0.0269469 0.057831 5.56641e-19 -0.0270312 5.58879e-20 8.43459e-05)
(-0.0170153 0.031145 1.44534e-19 0.0169733 -2.18593e-19 4.20188e-05)
(0.0654953 -0.0422258 -8.9345e-19 -0.0655662 -3.30466e-19 7.08847e-05)
(0.0169415 -0.0311251 -4.55924e-19 -0.016899 4.07708e-20 -4.25044e-05)
(-0.0653647 0.0421954 4.86786e-19 0.0654361 6.39019e-19 -7.14097e-05)
(-0.0179101 0.0221246 -2.22345e-19 0.017859 3.16875e-19 5.10631e-05)
(0.0417525 -0.0345647 -6.99736e-19 -0.0418275 3.95621e-19 7.50327e-05)
(-0.0416779 0.0345883 5.62527e-19 0.0417534 1.41381e-19 -7.54794e-05)
(0.0178915 -0.0221863 5.67768e-19 -0.0178398 -2.17906e-19 -5.17059e-05)
(0.0359871 0.0896021 7.03254e-19 -0.0360505 2.8042e-19 6.3377e-05)
(0.0164524 -0.068147 -1.49384e-19 -0.0164888 -2.77007e-19 3.63834e-05)
(-0.0360505 -0.0894691 1.53622e-19 0.0361144 7.29966e-20 -6.38804e-05)
(-0.0162162 0.068184 4.26294e-19 0.0162531 4.63454e-19 -3.68879e-05)
(-0.000428617 -0.0779465 -4.68034e-21 0.000479797 -4.81473e-19 -5.11803e-05)
(-0.0535446 0.0773061 5.41873e-19 0.0535958 -4.61708e-19 -5.1222e-05)
(0.0540712 -0.0773429 -8.02188e-19 -0.0541221 1.14221e-19 5.08762e-05)
(0.000447922 0.0779767 8.3662e-19 -0.000498617 -4.33009e-19 5.06954e-05)
(0.00975183 0.0324423 -3.7907e-19 -0.00971727 7.53559e-20 -3.45589e-05)
(-0.0262876 -0.0602549 -7.11579e-19 0.0263705 -3.59411e-20 -8.28662e-05)
(-0.00974675 -0.0324126 -9.19304e-19 0.00971272 2.28744e-19 3.4027e-05)
(0.0264377 0.060167 -6.10491e-20 -0.0265201 -2.22276e-19 8.23813e-05)
(0.0509416 -0.0340743 -1.24725e-18 -0.0510177 -3.19105e-19 7.61452e-05)
(0.0171804 -0.0215302 9.40937e-19 -0.0171342 -3.41514e-19 -4.62699e-05)
(-0.0507767 0.0341315 9.47546e-19 0.0508533 1.57121e-20 -7.66126e-05)
(-0.0172097 0.0214925 3.04849e-19 0.017164 9.76797e-20 4.57091e-05)
(0.00297097 -0.000427676 -3.52017e-19 -0.00295547 -6.53846e-19 -1.54973e-05)
(0.0636989 0.00935829 -1.75438e-19 -0.0637895 -3.0312e-19 9.05714e-05)
(-0.0636156 -0.00925322 6.38658e-20 0.0637066 -2.06878e-19 -9.10121e-05)
(-0.00298113 0.000357179 -5.83413e-20 0.00296624 8.7574e-20 1.48884e-05)
(-0.00816918 0.00214404 -7.76875e-20 0.00814639 3.51583e-20 2.27945e-05)
(0.0651279 -0.00218663 -2.31015e-19 -0.0652163 -4.33521e-19 8.84211e-05)
(0.0081511 -0.00219372 1.17869e-19 -0.0081277 -4.98284e-19 -2.33976e-05)
(-0.0649739 0.00227774 5.69041e-19 0.0650627 -4.44003e-19 -8.88582e-05)
(0.0165485 -0.0160758 3.51659e-19 -0.0165072 -3.68937e-19 -4.13698e-05)
(-0.0558236 0.0279899 1.31495e-19 0.0559034 -9.48832e-20 -7.9824e-05)
(-0.0165656 0.0160126 -2.66673e-19 0.0165248 9.42725e-20 4.07622e-05)
(0.0559774 -0.0279044 -1.25128e-18 -0.0560568 -4.90788e-20 7.93763e-05)
(-0.00199989 0.0596997 7.39856e-19 0.002023 4.32489e-19 -2.31089e-05)
(0.0734284 0.0843729 4.0688e-19 -0.0734969 2.42346e-19 6.85107e-05)
(0.00205654 -0.0596366 -1.36098e-18 -0.00207911 -3.57117e-19 2.2578e-05)
(-0.0734187 -0.0843978 2.39697e-19 0.0734877 -1.75955e-19 -6.90002e-05)
(-0.116447 -0.15118 3.8679e-19 0.116496 -2.2349e-19 -4.85031e-05)
(0.125832 -0.120504 -1.44576e-18 -0.125865 3.85763e-19 3.3207e-05)
(-0.125413 0.12054 1.60975e-18 0.125446 4.78502e-19 -3.36994e-05)
(0.11638 0.151083 9.07197e-19 -0.116428 -8.48773e-19 4.80042e-05)
(0.0412194 -0.148919 -1.25163e-18 -0.0412195 5.94009e-19 1.37361e-07)
(0.183548 0.0456644 9.5174e-19 -0.183606 2.36685e-19 5.86785e-05)
(-0.0410119 0.148868 2.24236e-18 0.0410125 -1.73317e-19 -6.40769e-07)
(-0.183556 -0.0457765 6.36445e-19 0.183615 -2.4808e-19 -5.91968e-05)
(-0.00037306 -0.055564 3.06513e-20 0.000444433 -2.02024e-19 -7.13737e-05)
(0.000330213 0.0556006 -3.16378e-19 -0.000400942 4.18253e-19 7.07296e-05)