/*--------------------------------*- C++ -*----------------------------------*\
| =========                 |                                                 |
| \\      /  F ield         | foam-extend: Open Source CFD                    |
|  \\    /   O peration     | Version:  3.0                                   |
|   \\  /    A nd           | Web:         http://www.extend-project.de       |
|    \\/     M anipulation  |                                                 |
\*---------------------------------------------------------------------------*/
FoamFile
{
    version     2.0;
    format      ascii;
    class       volVectorField;
    location    "6";
    object      u;
}
// * * * * * * * * * * * * * * * * * * * * * * * * * * * * * * * * * * * * * //

dimensions      [0 0 0 0 0 0 0];

internalField   nonuniform List<vector> 
728
(
(1.02389 -0.0057096 3.34858e-19)
(1.02365 -0.00559263 2.7833e-19)
(1.0114 0.010388 -1.7364e-18)
(1.01106 0.0110079 -2.48631e-18)
(1.41468 -0.0754064 -1.57731e-18)
(1.41513 -0.0756554 2.02665e-18)
(0.598052 0.00773629 -6.53922e-17)
(0.60076 0.00419123 1.0175e-17)
(1.09825 0.102446 -1.28431e-17)
(1.01364 -0.0896719 4.63323e-18)
(1.10017 0.101912 5.38011e-18)
(1.01236 -0.0888182 -3.30302e-18)
(1.07176 0.0965337 -4.8266e-19)
(0.997553 -0.0820417 1.53737e-18)
(1.0739 0.0964668 9.14119e-18)
(0.996901 -0.0799669 -2.74566e-17)
(1.1073 -0.0114304 -6.3996e-18)
(0.974878 0.00337196 -4.50557e-18)
(0.976149 0.00359986 -2.30136e-17)
(1.10662 -0.0114067 3.03627e-18)
(1.17842 0.0710468 8.19943e-18)
(0.951636 -0.0778386 2.85016e-18)
(0.946477 -0.0808341 -2.52285e-18)
(1.17871 0.0709765 4.46522e-19)
(1.7845 0.079504 -1.01233e-17)
(0.563914 0.214858 4.56593e-17)
(0.563605 0.220895 -7.29354e-17)
(1.78437 0.0790045 -1.00875e-18)
(1.11843 -0.0189516 -6.42262e-18)
(0.955741 0.000670414 4.65781e-18)
(0.957683 0.00100088 2.48571e-17)
(1.11872 -0.0196709 4.49944e-18)
(1.23353 0.076489 7.08427e-18)
(0.929947 -0.027314 -2.61365e-18)
(0.927792 -0.0292829 -3.03876e-18)
(1.23435 0.0761226 1.51552e-18)
(0.995294 -0.0212547 2.53142e-17)
(1.057 0.0163615 4.67822e-18)
(0.995019 -0.02138 -2.57762e-17)
(1.05685 0.0162432 1.3503e-17)
(1.12132 0.0420845 3.47728e-18)
(1.02175 -0.078627 -8.29412e-18)
(1.12155 0.0417042 -9.59063e-18)
(1.02063 -0.0787737 3.75761e-17)
(1.09238 0.0367428 -1.32545e-17)
(0.98848 -0.0382296 9.71361e-18)
(1.09279 0.0360696 -1.07613e-18)
(0.989462 -0.0374355 -3.08475e-17)
(1.11446 -0.165114 6.95043e-18)
(0.991636 0.137414 -5.81102e-18)
(0.991564 0.136762 -1.09103e-18)
(1.1138 -0.163939 3.26079e-18)
(0.20783 0.234265 -8.32401e-17)
(1.52875 -0.216156 -1.11998e-18)
(0.212644 0.237222 -7.6693e-17)
(1.5285 -0.216514 1.91734e-18)
(1.05489 -0.0320941 8.74766e-19)
(0.999123 0.0254162 1.86771e-18)
(0.998929 0.0254709 2.31731e-18)
(1.05447 -0.0318594 -8.90529e-20)
(1.1163 0.0298064 -3.67378e-18)
(0.990641 -0.049272 1.49123e-18)
(0.99209 -0.0507469 -5.21279e-19)
(1.11737 0.0299579 -1.04996e-18)
(1.01977 0.0366229 -1.64992e-17)
(1.0458 -0.0210771 -1.72841e-18)
(1.01958 0.0379259 5.93653e-18)
(1.04714 -0.0210947 1.19692e-17)
(1.47955 0.122909 1.08462e-18)
(1.47983 0.12335 -9.57728e-18)
(0.84495 -0.0808519 2.91426e-17)
(0.844771 -0.0795242 -1.02557e-16)
(1.01835 -0.00872446 2.84703e-19)
(1.0525 0.00989806 -2.76423e-18)
(1.05179 0.0103008 2.3524e-18)
(1.01826 -0.0087644 -5.81154e-19)
(1.13223 0.00708995 -3.67861e-18)
(0.983177 -0.0250472 -2.07765e-18)
(1.13317 0.00681316 -3.13708e-19)
(0.982206 -0.0241134 1.1796e-18)
(1.0295 -0.315288 -2.62211e-17)
(1.02957 -0.313976 6.52527e-18)
(1.12042 0.222723 -3.26066e-17)
(1.12132 0.2238 -1.35281e-17)
(1.02852 -0.00309327 -1.49015e-18)
(1.01653 0.00485967 2.16868e-17)
(1.02866 -0.00331037 -1.03523e-18)
(1.01651 0.00499359 -1.39984e-18)
(1.04887 -0.454953 -1.45099e-17)
(0.401395 0.429126 -3.93569e-17)
(1.04854 -0.454482 1.12887e-17)
(0.40476 0.434369 5.43085e-17)
(1.11888 -0.278798 1.0986e-17)
(1.11897 -0.278898 -2.72135e-17)
(1.06375 0.235056 2.41416e-17)
(1.0697 0.235568 4.07097e-17)
(1.0914 0.125142 -3.39344e-18)
(0.988489 -0.123619 -1.65889e-17)
(1.0928 0.12663 -7.2077e-18)
(0.986532 -0.123226 -2.32099e-17)
(1.02692 -0.0208452 -6.44905e-18)
(1.02722 -0.0205393 -2.0942e-17)
(0.995678 0.0148488 -9.62652e-18)
(0.995143 0.0147662 -3.42446e-18)
(1.05183 -0.0437633 1.4677e-19)
(1.00933 0.018529 1.66671e-17)
(1.01115 0.0167206 -1.63146e-18)
(1.05295 -0.043215 -9.50853e-18)
(1.02106 -0.00894746 -1.52653e-18)
(0.99887 0.0181794 6.14956e-18)
(1.02126 -0.00912588 -8.87784e-19)
(0.997545 0.0180764 -2.40138e-18)
(1.07731 -0.00424499 -2.6607e-19)
(0.992824 -0.00609103 9.39096e-18)
(1.07723 -0.00394893 -4.18496e-18)
(0.993143 -0.00514319 -1.81421e-18)
(1.02514 -0.0250887 -2.7282e-18)
(1.02506 -0.0254921 1.07297e-20)
(1.00708 0.0123793 8.77151e-18)
(1.00721 0.0129021 -1.51352e-18)
(1.0496 -0.0246695 1.44923e-18)
(1.01308 0.0206535 2.0527e-17)
(1.01265 0.0209391 1.34968e-17)
(1.04879 -0.0241021 3.42349e-18)
(1.07802 0.0945403 1.02849e-17)
(1.03747 -0.0742563 1.69424e-17)
(1.08172 0.0957679 2.07836e-17)
(1.03463 -0.0737917 -1.24597e-17)
(1.02113 -0.0512806 -3.77211e-18)
(1.01911 -0.0520615 -5.71016e-18)
(1.03118 0.0402585 -4.23673e-18)
(1.03226 0.0394245 -6.91736e-19)
(1.06522 -0.0203564 5.60342e-18)
(1.01594 0.00548471 -5.36107e-18)
(1.01603 0.00496742 6.03126e-18)
(1.06482 -0.0202031 -4.35661e-18)
(1.05669 -0.0423426 -2.66422e-19)
(1.05574 0.0349031 -1.99025e-18)
(1.05601 -0.0428185 -2.88731e-18)
(1.05514 0.0365458 -2.38412e-18)
(1.30654 0.111476 4.47075e-18)
(0.889404 -0.0850514 4.45928e-18)
(0.885286 -0.0838229 -3.54205e-18)
(1.3066 0.111844 4.46158e-18)
(1.08372 -0.0552613 -1.76832e-18)
(1.01101 0.0675875 -1.53951e-17)
(1.08262 -0.0561696 -8.6639e-18)
(1.01171 0.066873 -1.10668e-17)
(1.07335 0.0276312 -6.83795e-18)
(1.00235 -0.0204718 -2.03698e-17)
(1.00191 -0.0203572 1.66165e-17)
(1.07373 0.0268454 2.87276e-18)
(1.0055 0.00801965 5.65083e-19)
(1.00526 0.00785064 3.31603e-19)
(1.01911 -0.0281324 -1.33501e-18)
(1.01856 -0.0275737 2.02943e-18)
(1.07074 0.008904 1.15098e-18)
(1.0013 -0.00645238 -1.14218e-19)
(1.07047 0.00920946 -2.30934e-19)
(1.00231 -0.00707528 3.74764e-18)
(0.751004 0.346028 2.55095e-17)
(1.29575 -0.239007 -2.03318e-18)
(0.746057 0.352036 3.13955e-18)
(1.29658 -0.238456 2.38153e-18)
(1.37206 -0.174447 -2.72683e-18)
(0.788405 0.108221 3.43111e-17)
(0.77694 0.107314 1.62859e-17)
(1.37113 -0.177632 5.7554e-18)
(0.999095 0.0501651 4.60077e-18)
(1.10078 -0.0472348 -7.75929e-18)
(1.00054 0.0501297 5.48642e-17)
(1.10144 -0.0470887 -1.23694e-17)
(1.02685 -0.0595469 -5.14424e-19)
(1.02483 -0.0593541 -7.11459e-18)
(1.06289 0.0548801 5.16143e-19)
(1.06306 0.0551091 6.85736e-19)
(1.0175 0.00160845 2.01402e-19)
(1.01697 0.0013463 8.34482e-19)
(1.02485 -0.0149248 2.01324e-18)
(1.02535 -0.0153288 -9.6823e-19)
(0.989856 0.127949 1.85885e-17)
(0.990075 0.129389 -6.93337e-18)
(1.17698 -0.140212 4.25107e-18)
(1.17882 -0.139727 -2.74074e-19)
(1.52415 -0.274354 -7.12406e-18)
(0.686368 0.347228 1.93344e-17)
(0.678363 0.351094 -6.29698e-18)
(1.52349 -0.273319 1.36716e-17)
(1.15608 0.0594968 1.79854e-17)
(0.995409 -0.0495887 4.33228e-17)
(1.15647 0.0596978 -4.92018e-18)
(0.994638 -0.0510462 -1.71846e-17)
(1.12478 0.0845377 7.08597e-18)
(0.994442 -0.0893164 -6.91652e-18)
(0.993563 -0.0890002 1.24824e-17)
(1.12501 0.0853365 -8.4488e-18)
(1.02488 0.00421972 -5.53918e-18)
(1.01037 -0.00119759 -1.32029e-18)
(1.01035 -0.00127561 -1.97728e-17)
(1.02538 0.00409979 3.69846e-18)
(1.02232 0.00329111 9.03085e-18)
(0.991626 -0.00792421 -5.81358e-18)
(0.991659 -0.0078863 3.80702e-18)
(1.02206 0.00330751 6.28725e-18)
(1.06964 -0.043748 6.42336e-18)
(1.01931 0.0576929 -2.04788e-18)
(1.06918 -0.0422668 1.9032e-17)
(1.02226 0.0581307 1.67325e-18)
(1.01551 0.013396 2.24295e-17)
(0.999002 -0.0153025 2.80897e-17)
(0.998761 -0.0152646 -2.61552e-17)
(1.01567 0.0133254 -2.13479e-17)
(1.00148 -0.0372723 2.95586e-18)
(1.00186 -0.0373907 -8.49433e-18)
(1.09766 0.0306802 1.50285e-18)
(1.09748 0.0308766 -7.42753e-18)
(1.41309 -0.0363467 -2.47216e-18)
(0.765353 0.199128 1.31881e-16)
(0.772356 0.199468 1.24277e-18)
(1.4145 -0.0370393 3.27075e-18)
(1.04211 0.0141116 -3.31515e-18)
(0.9879 -0.00992863 -2.12436e-17)
(0.988039 -0.0101007 2.27775e-17)
(1.04183 0.0141116 9.89701e-18)
(1.16017 0.0217217 -1.64416e-18)
(1.16052 0.0222036 1.74156e-18)
(0.9853 -0.044993 -1.73573e-18)
(0.98516 -0.041531 2.74696e-18)
(1.02156 0.00716271 -5.05036e-18)
(1.05068 -0.0383651 6.6844e-19)
(1.05037 -0.0368452 -3.09092e-18)
(1.02329 0.00885124 4.45174e-18)
(1.05454 0.00312116 2.7792e-18)
(0.998978 -0.00647913 -1.00777e-17)
(1.05432 0.00325112 -5.9869e-19)
(0.998914 -0.00602908 -3.98184e-19)
(1.00535 0.080119 2.96573e-17)
(1.10213 -0.0720285 -1.38548e-17)
(1.10303 -0.071764 -4.27377e-18)
(1.00594 0.0821331 5.89553e-18)
(1.31802 0.0498291 1.00474e-17)
(1.31756 0.0500436 1.25901e-17)
(0.843969 -0.08141 2.41176e-17)
(0.837471 -0.079648 -3.96853e-17)
(1.46038 0.672597 2.24548e-17)
(0.748738 -0.509734 -2.39295e-17)
(1.4616 0.674314 1.70988e-17)
(0.749193 -0.511715 5.74388e-17)
(1.02682 -0.0469121 2.13722e-18)
(1.10279 0.0377601 -6.11031e-19)
(1.02756 -0.0464524 -1.02996e-17)
(1.10317 0.0378981 -1.82434e-18)
(1.39343 0.440857 8.70793e-18)
(0.638623 -0.533433 -3.81354e-17)
(1.39344 0.441583 3.24262e-17)
(0.639428 -0.531628 4.85707e-18)
(1.05066 -0.013833 -1.01345e-18)
(1.00283 0.00709931 1.24277e-17)
(1.05078 -0.014063 -5.617e-19)
(1.00303 0.00707267 2.3425e-18)
(0.989803 -0.0549206 -6.92271e-18)
(1.19921 0.0916799 1.30933e-17)
(0.990015 -0.052624 -1.7545e-17)
(1.20035 0.0924688 -1.76514e-19)
(1.02041 0.0570132 1.14972e-17)
(1.06365 -0.0603275 2.67596e-18)
(1.06433 -0.0621306 2.08862e-17)
(1.0244 0.0566067 4.21806e-18)
(1.23246 0.230844 5.84107e-18)
(1.23316 0.230125 -4.1092e-18)
(0.843535 -0.174018 -8.43126e-21)
(0.842976 -0.174462 -5.20964e-18)
(0.991184 0.00218885 5.69246e-19)
(1.02148 -0.00409253 1.07799e-18)
(1.02127 -0.00423499 -2.6119e-18)
(0.991163 0.00216075 -2.1472e-17)
(1.02453 -0.0300127 -1.11197e-18)
(1.02356 0.0164382 -3.54685e-19)
(1.02451 0.0161852 1.03377e-18)
(1.02483 -0.0295952 8.92705e-19)
(1.14015 0.0374817 -5.18892e-18)
(0.970009 -0.0463763 -3.01114e-18)
(1.13938 0.0374299 2.46729e-18)
(0.966987 -0.0476787 1.12757e-17)
(1.0755 -0.0122588 -4.18837e-18)
(0.968401 0.00835873 -1.26854e-17)
(0.969467 0.00912361 -5.27343e-18)
(1.07552 -0.0124034 3.63751e-18)
(1.03893 0.0776407 -1.62663e-17)
(1.09199 -0.0717256 3.3335e-18)
(1.09444 -0.0717793 1.87556e-19)
(1.03902 0.0797167 8.6871e-18)
(1.01395 0.0015837 -3.21507e-19)
(1.01007 -0.012653 -4.52467e-18)
(1.01028 -0.0128604 5.89568e-18)
(1.0146 0.001814 -2.93814e-19)
(1.00894 0.00376842 -1.29143e-18)
(1.02091 0.00204686 -2.18816e-18)
(1.00883 0.00367637 -2.50113e-19)
(1.02116 0.00203167 8.60449e-20)
(1.03606 0.0239927 -2.86302e-18)
(1.00461 -0.0208652 -8.7125e-18)
(1.00429 -0.0203537 1.07665e-17)
(1.03639 0.0240624 7.32841e-18)
(1.34398 0.0260902 -2.95561e-19)
(1.34468 0.0250833 9.30278e-19)
(0.925065 -0.0161534 -4.56584e-17)
(0.917184 -0.0190216 4.7158e-17)
(1.09709 0.0135231 -6.42352e-18)
(0.976425 -0.0210458 -1.10519e-18)
(0.975629 -0.0209942 2.1722e-19)
(1.09756 0.0131041 -5.93487e-19)
(1.37212 0.384528 -2.6334e-18)
(1.37265 0.382738 -1.16591e-17)
(0.752832 -0.167064 -3.5607e-17)
(0.750823 -0.165691 1.52566e-17)
(1.12464 0.0735818 -5.52721e-18)
(1.12491 0.073571 9.90056e-18)
(0.996247 -0.0581725 -1.76823e-17)
(0.998411 -0.0591614 4.37263e-18)
(0.883703 -0.346981 -5.27968e-18)
(1.14192 0.275118 -2.3531e-17)
(1.14227 0.274709 -1.11796e-17)
(0.882376 -0.347235 2.85479e-18)
(1.2444 0.199133 -1.30619e-17)
(1.24555 0.200647 -1.34965e-17)
(0.974039 -0.227848 4.52194e-18)
(0.974072 -0.227662 -4.05554e-18)
(1.01912 0.00504685 6.17241e-19)
(1.00359 -0.00237647 -3.09401e-18)
(1.01886 0.00488035 1.7154e-18)
(1.00355 -0.00251518 2.85197e-18)
(1.07631 -0.0426723 -1.8774e-19)
(1.07571 -0.042762 -1.26079e-17)
(1.00502 0.0457447 2.50132e-17)
(1.0037 0.044595 1.44877e-18)
(1.2245 0.268087 2.02949e-17)
(1.2247 0.267554 -6.79653e-18)
(0.780959 -0.253582 4.66417e-18)
(0.781964 -0.253797 -2.45347e-17)
(1.16857 -0.0243548 -3.15291e-19)
(0.918359 -0.0178356 4.53207e-19)
(0.921441 -0.0153431 7.85763e-18)
(1.16904 -0.0242483 2.51334e-19)
(1.12574 -0.153161 2.02437e-17)
(1.03804 0.16302 -1.48664e-17)
(1.12446 -0.152651 9.61167e-18)
(1.03873 0.164772 -5.00842e-17)
(1.05464 0.14072 2.09134e-17)
(1.02877 -0.148689 2.24272e-17)
(1.05868 0.138653 -7.92533e-18)
(1.02736 -0.150071 1.65598e-17)
(1.14656 -0.0166369 4.95063e-18)
(1.14703 -0.0161562 -4.4976e-18)
(0.945966 -0.000139801 9.22604e-19)
(0.947381 0.000277749 2.35014e-17)
(1.04744 0.053704 1.00697e-17)
(0.997285 -0.0506478 1.28487e-17)
(1.04652 0.0545922 -3.76994e-18)
(0.996626 -0.0499311 3.57149e-18)
(1.1238 -0.0672858 6.26984e-18)
(0.986696 0.067807 -1.18672e-17)
(1.12384 -0.0675652 5.28037e-18)
(0.986435 0.0645041 -1.0884e-17)
(1.02494 -0.0116814 -4.35447e-19)
(0.998785 0.0138827 -1.38637e-17)
(0.999267 0.0134976 -3.66029e-18)
(1.02511 -0.0113999 -2.24038e-18)
(1.02992 -0.219719 4.00002e-19)
(1.07554 0.183446 -1.16771e-18)
(1.03069 -0.218591 -7.13381e-19)
(1.07654 0.181627 5.9251e-18)
(1.13923 -0.189485 -3.49124e-18)
(1.018 0.230626 1.4027e-17)
(1.01656 0.233196 -1.30716e-18)
(1.13875 -0.189844 8.45563e-18)
(1.05978 0.0593688 2.11012e-17)
(1.00953 -0.0664382 2.47284e-18)
(1.06005 0.060171 -1.83484e-17)
(1.00889 -0.0660131 -1.84218e-17)
(1.00157 0.0214838 2.58141e-18)
(1.06281 -0.0317956 -9.98025e-18)
(1.00247 0.0213089 -2.87066e-17)
(1.06251 -0.031266 9.07329e-18)
(1.02409 -0.00477966 -4.34715e-18)
(0.994729 -0.0123084 6.71119e-18)
(0.994829 -0.0122999 1.72633e-20)
(1.02426 -0.00508923 2.50458e-18)
(1.05183 -0.00373694 3.20541e-18)
(0.996777 -0.00626288 9.34697e-19)
(1.05186 -0.00381977 -1.69237e-18)
(0.996757 -0.00608154 3.43426e-18)
(1.06423 -0.0262246 2.12085e-19)
(0.993498 -0.00607029 2.23355e-17)
(1.06335 -0.0264516 -4.67284e-19)
(0.994273 -0.00605609 -4.21882e-17)
(1.16066 0.186597 -4.49721e-18)
(0.960309 -0.193865 7.7752e-18)
(1.16133 0.186675 -2.43497e-17)
(0.961187 -0.193656 3.52509e-17)
(0.805236 -0.528018 1.78829e-17)
(0.597932 0.662067 3.40863e-18)
(0.598394 0.664798 7.82327e-19)
(0.805075 -0.528595 -1.73564e-17)
(1.52837 0.229002 -2.93976e-18)
(0.20591 -0.255924 7.57998e-17)
(1.52839 0.228365 -3.28131e-17)
(0.206509 -0.253822 2.23973e-17)
(1.05471 -0.0748623 -1.44961e-18)
(1.05475 -0.0743544 -5.74542e-18)
(1.04307 0.053638 9.2923e-19)
(1.04324 0.0519229 -2.0028e-17)
(1.11984 -0.000413454 1.72616e-18)
(1.11999 -0.001422 -1.29016e-18)
(1.00172 -0.0344352 -5.33841e-18)
(1.00159 -0.0336052 1.75737e-18)
(1.17588 0.153486 -8.79544e-19)
(0.935626 -0.19208 -3.77509e-18)
(0.936551 -0.190338 -2.41115e-17)
(1.17638 0.152745 4.60598e-18)
(1.05799 -0.00963306 -1.8125e-18)
(1.00302 0.0210702 -3.22956e-17)
(1.05816 -0.00993435 -4.47585e-19)
(1.0023 0.0212885 3.47468e-17)
(1.06847 -0.0112923 4.68705e-18)
(0.979386 0.00933065 4.7823e-18)
(1.06851 -0.0114116 -3.5788e-18)
(0.979896 0.00910997 -5.27054e-18)
(1.07856 -0.000415589 -2.70642e-18)
(1.07892 -0.000556487 -2.00542e-18)
(1.01125 -0.0066901 3.58502e-19)
(1.01105 -0.00612408 8.34452e-18)
(1.02466 -0.00366882 -7.28726e-19)
(1.01314 0.00542611 -3.47008e-18)
(1.01312 0.00560243 -2.12547e-18)
(1.02501 -0.00376684 -2.52911e-18)
(1.02281 0.00331698 -2.40695e-17)
(1.01076 -0.000840772 -2.72881e-18)
(1.01067 -0.000834348 6.99108e-18)
(1.02324 0.00346013 -5.40135e-18)
(1.02098 -0.0255413 -1.36111e-18)
(1.00693 0.0145071 6.7924e-19)
(1.02017 -0.025764 1.33119e-18)
(1.00619 0.0148152 1.23131e-18)
(1.02652 0.116509 3.4516e-17)
(1.08051 -0.0994931 3.89863e-18)
(1.02594 0.115546 1.42775e-17)
(1.08512 -0.0999602 -1.81787e-18)
(0.957857 -0.0422434 6.77617e-18)
(1.1794 0.0176017 8.67472e-19)
(1.17867 0.0170395 -1.92905e-19)
(0.961349 -0.0420913 -3.47946e-18)
(1.01879 -0.0119164 -3.04773e-19)
(1.01225 0.0113315 -7.62418e-19)
(1.01873 -0.0117294 1.44579e-18)
(1.01209 0.0109772 2.16694e-18)
(1.15271 -0.0490575 -1.81644e-18)
(1.15202 -0.0493599 3.93759e-18)
(0.963469 0.0534707 -2.31493e-17)
(0.96686 0.0535635 -2.77371e-18)
(1.00418 0.0474384 1.3309e-17)
(1.08392 -0.035234 -6.78698e-18)
(1.00295 0.046219 3.02125e-17)
(1.08435 -0.0355006 -2.20887e-18)
(1.23192 -0.00146466 1.51017e-18)
(0.910902 0.00861886 -4.09526e-18)
(1.23235 -0.00165547 -3.27265e-18)
(0.906637 0.00722944 7.81688e-18)
(0.974276 0.0292362 -8.55703e-18)
(0.978211 0.027179 -1.60493e-18)
(1.11718 -0.0490246 -3.53043e-18)
(1.11763 -0.0495132 -1.53398e-19)
(1.02545 0.0906333 1.10643e-19)
(1.02484 -0.0894178 -2.56298e-17)
(1.0255 0.0879774 1.99226e-17)
(1.0293 -0.0882558 -1.27166e-17)
(1.02063 0.0145331 -3.77989e-20)
(1.0045 -0.0066273 6.11461e-18)
(1.00441 -0.00642642 -7.32916e-18)
(1.02068 0.0145171 4.79137e-18)
(1.06905 0.126443 -1.0447e-17)
(1.05039 -0.109187 -6.90653e-18)
(1.04668 -0.107127 4.23635e-17)
(1.0658 0.129232 -2.57698e-17)
(1.01684 0.00323206 -1.22552e-18)
(0.996926 -0.000234874 9.41675e-18)
(1.01738 0.00325763 -6.20503e-18)
(0.996944 -0.000224786 -1.13318e-17)
(0.988993 0.0138356 -3.41861e-18)
(0.986123 0.0162963 7.4804e-19)
(1.13048 -0.0285713 -3.23805e-18)
(1.13079 -0.0294224 9.81667e-19)
(0.954376 -0.00226072 -3.9068e-18)
(1.2278 0.0392969 3.30694e-18)
(1.22758 0.0384974 -4.99356e-19)
(0.950217 -0.00439033 7.26095e-18)
(1.00409 0.0907722 9.53081e-18)
(1.12495 -0.105194 -3.91284e-18)
(1.12358 -0.10612 -1.02492e-17)
(1.00542 0.0901036 2.59501e-17)
(1.01092 0.00367458 5.91728e-18)
(1.00447 -0.0162232 -9.45374e-18)
(1.01066 0.00334869 -4.20856e-18)
(1.00449 -0.0161127 9.36317e-18)
(1.27413 0.310085 -3.63423e-17)
(0.954922 -0.514454 3.96475e-18)
(1.2689 0.304756 -6.29551e-17)
(0.953507 -0.515848 -2.68444e-17)
(1.04629 0.139125 -9.43974e-18)
(1.0318 -0.216645 5.93982e-18)
(1.04577 0.140191 4.43875e-17)
(1.02705 -0.215046 -2.71257e-18)
(0.789504 -0.000193185 1.77787e-17)
(1.32325 -0.083651 -5.43682e-18)
(0.78939 -0.000689901 -2.39189e-17)
(1.32266 -0.0843733 -3.19943e-18)
(0.997416 0.00155936 9.81515e-18)
(0.997433 0.0016127 1.06921e-18)
(1.01184 0.000748842 -2.54591e-18)
(1.0122 0.000832441 2.40717e-19)
(0.99734 -0.0327129 5.43393e-17)
(1.0666 0.0292107 2.2908e-18)
(0.997949 -0.0316676 -7.17972e-19)
(1.06641 0.0294892 -4.79256e-18)
(0.919031 0.0484251 -5.11436e-18)
(1.15524 -0.0723181 -4.23335e-18)
(0.920719 0.046622 1.27912e-18)
(1.15461 -0.0722507 3.5312e-18)
(1.014 -0.00523747 1.09964e-18)
(1.00029 0.0077763 2.18492e-18)
(1.01367 -0.00513497 -2.53653e-18)
(1.00029 0.00728799 -1.29214e-17)
(1.0148 -0.0482012 1.61011e-19)
(1.02512 0.042501 2.44875e-18)
(1.01608 -0.046157 -3.64014e-18)
(1.02301 0.0427957 -4.57468e-18)
(1.02084 -0.028562 1.27915e-18)
(1.03992 0.0388439 -2.23484e-18)
(1.02053 -0.0275868 -1.95707e-18)
(1.04157 0.0392967 2.24039e-18)
(0.991007 -0.060895 -5.60647e-18)
(1.09026 0.0567195 -2.01243e-18)
(0.99 -0.0618039 -1.34011e-17)
(1.0905 0.0556573 -3.49106e-18)
(0.997607 -0.0739877 -4.17468e-18)
(1.07963 0.0800796 7.10113e-18)
(1.07918 0.0783156 -1.00936e-17)
(0.997109 -0.0731123 1.49568e-17)
(1.26443 -0.0384677 -4.96082e-18)
(1.26368 -0.0398163 -5.96668e-18)
(0.869787 0.022007 3.45817e-17)
(0.875529 0.0223326 -4.50897e-18)
(1.22771 -0.029937 -2.92544e-18)
(0.889156 0.00575659 5.99753e-18)
(1.22702 -0.0304742 -2.114e-18)
(0.892766 0.00876301 -3.90282e-20)
(1.00513 -0.0107557 -2.17041e-17)
(1.02302 0.00517003 1.50083e-18)
(1.02308 0.00492563 -3.45611e-19)
(1.00515 -0.0108738 2.14916e-17)
(1.15339 -0.345314 8.47385e-18)
(1.15255 -0.343296 -2.31777e-17)
(1.04249 0.295794 -1.56814e-18)
(1.04182 0.29829 6.08908e-19)
(1.14355 0.452917 2.86343e-17)
(1.14614 0.452955 -9.61916e-18)
(1.1512 -0.40745 -4.99177e-18)
(1.15004 -0.408978 2.94739e-17)
(1.03262 0.0154222 2.39792e-18)
(1.00955 -0.0275414 -1.64762e-17)
(1.00944 -0.0269472 9.93976e-18)
(1.03256 0.0154795 -1.21623e-18)
(1.05 0.0272446 1.42414e-18)
(1.00934 -0.0235238 -5.52718e-18)
(1.0097 -0.0230491 1.50112e-18)
(1.05032 0.0271221 -1.4265e-17)
(1.23654 -0.092269 -6.60695e-19)
(0.886725 0.0702077 -1.78632e-17)
(1.23557 -0.0947663 -5.67012e-18)
(0.884278 0.0656984 1.14077e-17)
(0.948415 0.0591462 -1.45876e-17)
(0.94892 0.0626259 2.47635e-17)
(1.20083 -0.0646754 -1.87043e-18)
(1.20009 -0.0649199 -5.96747e-19)
(1.00202 -0.00453146 2.20622e-18)
(1.00208 -0.00469431 -1.65015e-18)
(1.01441 0.00727047 5.78601e-18)
(1.01405 0.00714024 1.39167e-18)
(1.02503 -0.00527281 6.83823e-19)
(0.991728 0.00454898 -1.17483e-18)
(0.990983 0.00512389 1.15637e-17)
(1.02472 -0.00521961 -2.97305e-18)
(1.18563 -0.560478 1.17845e-17)
(0.789743 0.484178 -1.89945e-17)
(0.79339 0.489071 -1.83212e-17)
(1.18452 -0.560157 9.64238e-18)
(1.16828 -0.0229491 3.77466e-18)
(0.884954 0.000111001 8.0796e-19)
(1.16741 -0.0232651 -4.45593e-19)
(0.889873 0.000945607 2.70433e-18)
(1.04119 0.0378447 1.2049e-17)
(1.03992 0.038191 1.07158e-18)
(1.00258 -0.0421 1.98249e-17)
(1.00184 -0.0414063 2.3587e-17)
(1.00335 0.00428016 -9.84256e-20)
(1.01035 -0.0170514 -1.23503e-18)
(1.00393 0.00483263 3.46104e-19)
(1.01018 -0.0165618 2.08825e-18)
(1.15143 -0.086178 -2.26657e-18)
(0.98214 0.0681534 2.22652e-17)
(1.15155 -0.0859215 -1.08916e-18)
(0.982156 0.0695232 5.03664e-18)
(1.00092 0.00606419 2.1823e-17)
(1.05297 -0.00753849 4.29346e-18)
(1.00032 0.00634839 -2.31049e-17)
(1.05311 -0.00752531 -6.3646e-18)
(0.94464 0.116923 6.48279e-18)
(1.19001 -0.114936 2.16e-18)
(0.947194 0.11788 -5.03393e-18)
(1.18835 -0.115285 2.92913e-18)
(0.950551 0.0753654 5.86505e-18)
(1.18423 -0.104822 1.41692e-18)
(1.1863 -0.105922 -5.9304e-18)
(0.952522 0.0786983 5.11085e-17)
(1.01919 -0.0317074 2.11414e-17)
(1.07906 0.0306282 4.04911e-18)
(1.07893 0.0309647 -5.17539e-18)
(1.01883 -0.0307376 3.56162e-18)
(1.03868 -0.0657874 -1.17487e-18)
(1.00894 0.0468913 -5.35022e-18)
(1.0397 -0.0651544 -4.04138e-18)
(1.00768 0.0484304 -2.39021e-18)
(1.29755 -0.271649 2.96949e-18)
(0.954571 0.351746 -1.47388e-18)
(0.953898 0.349744 3.19766e-17)
(1.29941 -0.272298 7.58158e-19)
(1.22575 -0.193427 -8.44757e-18)
(0.900142 0.244072 -1.99688e-17)
(0.902156 0.241378 7.22133e-18)
(1.22498 -0.193215 3.63894e-18)
(1.16186 0.0564798 -1.31053e-18)
(0.96321 -0.061131 -4.87557e-18)
(0.961256 -0.0623983 8.73195e-18)
(1.16211 0.0561957 9.9808e-19)
(0.796404 0.753141 2.03462e-17)
(1.36834 -0.653293 8.92462e-18)
(0.798749 0.757783 1.46502e-18)
(1.36897 -0.653521 -2.40762e-17)
(1.02176 -0.0414757 -1.20076e-17)
(1.0231 0.034419 1.63853e-18)
(1.02297 -0.041445 -1.43404e-17)
(1.02392 0.0353435 -1.94483e-17)
(1.27671 -0.102413 6.02249e-19)
(0.839441 0.148894 -3.55977e-17)
(0.84178 0.146171 -2.5971e-17)
(1.27899 -0.101637 1.14292e-18)
(1.24 -0.144014 1.64742e-18)
(0.945356 0.162136 1.34985e-17)
(0.94568 0.160272 -3.23596e-18)
(1.24222 -0.145826 3.48962e-18)
(1.08203 -0.0180658 -4.19064e-19)
(1.08149 -0.01796 -4.24575e-18)
(1.00015 0.00567986 -8.67628e-18)
(0.999117 0.00724755 1.03489e-17)
(0.954748 0.0390202 -2.43846e-18)
(1.18969 -0.0352652 4.41126e-18)
(0.958596 0.0406643 8.19821e-19)
(1.18844 -0.0363161 1.66782e-18)
(1.01028 0.0196396 -1.98367e-18)
(1.011 0.0198703 6.00703e-19)
(1.00579 -0.0198511 4.73594e-18)
(1.00549 -0.0202776 -4.40942e-18)
(1.04595 0.0226449 7.53096e-18)
(1.01147 -0.0222267 -1.36299e-17)
(1.0456 0.0225155 -8.63514e-18)
(1.0113 -0.0215292 -2.80208e-18)
(1.03143 0.0220264 5.24915e-19)
(1.01356 -0.032731 -2.775e-18)
(1.01414 -0.0321142 -7.01389e-19)
(1.03147 0.0222066 -2.92286e-18)
(1.08158 -0.0192673 -3.20487e-18)
(1.08094 -0.0199836 -2.47364e-18)
(1.00823 0.0216173 -6.16958e-18)
(1.00548 0.020961 -9.59001e-19)
(1.03469 -0.178599 -1.09782e-19)
(1.0362 -0.178608 -5.69562e-19)
(1.14928 0.14788 1.81928e-18)
(1.14816 0.148658 -1.3987e-17)
(1.02821 -0.156166 -5.51984e-18)
(1.10239 0.11169 -1.95898e-17)
(1.02765 -0.155433 -2.38397e-18)
(1.1029 0.111762 8.19393e-18)
(1.10469 -0.0242157 -1.65865e-19)
(0.983436 0.00734088 9.64411e-18)
(1.10432 -0.0237077 -3.1299e-18)
(0.980772 0.00808237 1.24231e-18)
(1.003 -0.161067 -1.72542e-18)
(1.00176 -0.160908 6.91868e-18)
(1.12775 0.102549 -1.50152e-17)
(1.12808 0.103161 1.82702e-18)
(1.14543 -0.0410299 3.86637e-18)
(0.958516 0.0152561 -7.56395e-19)
(0.961171 0.0150776 -1.23956e-17)
(1.1455 -0.0414599 -4.01461e-18)
(0.944877 -0.16109 -3.20322e-17)
(1.1331 0.119456 4.5483e-18)
(0.943636 -0.160098 -1.58406e-17)
(1.13317 0.118498 -2.298e-17)
(1.00697 0.00164622 -1.0936e-17)
(1.05064 0.00380059 -1.11674e-17)
(1.00694 0.00126516 3.61622e-17)
(1.05123 0.00400011 -8.58476e-18)
(1.0968 -0.0322681 -5.07932e-18)
(0.998405 0.0372806 -1.61326e-17)
(1.00107 0.0357858 -9.65719e-18)
(1.09667 -0.0319115 -2.73049e-18)
(0.982819 -0.0128059 8.32719e-18)
(1.05855 0.0163292 1.43186e-18)
(1.05856 0.0167211 -2.25729e-18)
(0.982594 -0.0125851 5.10925e-18)
(0.980318 -0.0288221 -4.26168e-18)
(1.07808 0.0162457 -9.98409e-18)
(1.07817 0.0158366 -2.77288e-18)
(0.979953 -0.0285539 2.19232e-18)
(1.07143 0.0184778 -2.31877e-19)
(0.983098 -0.0325705 -1.98835e-17)
(1.0716 0.0191197 -5.84785e-18)
(0.982781 -0.0325569 4.45344e-18)
)
;

boundaryField
{
    insideCircle
    {
        type            fixedValue;
        value           uniform (0 0 0);
    }
    outsideCircle
    {
        type            fixedValue;
        value           uniform (1 0 0);
    }
    topAndBottom
    {
        type            empty;
    }
}


// ************************************************************************* //
