/*--------------------------------*- C++ -*----------------------------------*\
| =========                 |                                                 |
| \\      /  F ield         | foam-extend: Open Source CFD                    |
|  \\    /   O peration     | Version:  3.0                                   |
|   \\  /    A nd           | Web:         http://www.extend-project.de       |
|    \\/     M anipulation  |                                                 |
\*---------------------------------------------------------------------------*/
FoamFile
{
    version     2.0;
    format      ascii;
    class       volScalarField;
    location    "29";
    object      p;
}
// * * * * * * * * * * * * * * * * * * * * * * * * * * * * * * * * * * * * * //

dimensions      [0 0 0 0 0 0 0];

internalField   nonuniform List<scalar> 
672
(
-0.2400844808
-0.2039176919
-0.1923342754
-0.1740618528
-0.170794676
-0.1610866419
-0.1613133489
-0.1560131065
-0.1570472692
-0.1534061362
-0.1528920486
-0.1482303052
-0.2370737561
-0.2013598309
-0.1899210437
-0.171877119
-0.1686502357
-0.1590632971
-0.1592864675
-0.154052088
-0.1550726071
-0.1514766231
-0.1509683962
-0.146364776
-0.2310616435
-0.1962537967
-0.1851054446
-0.1675193638
-0.1643745358
-0.1550308326
-0.1552484687
-0.1501468287
-0.1511414884
-0.1476365694
-0.1471411109
-0.1426539621
-0.2221639314
-0.1886957397
-0.177976028
-0.1610665125
-0.1580421222
-0.1490575967
-0.1492661601
-0.1443603647
-0.1453160284
-0.1419455418
-0.1414685521
-0.1371538495
-0.2104523117
-0.1787487934
-0.1685945004
-0.1525766216
-0.1497118731
-0.1412010732
-0.141398753
-0.1367515537
-0.1376568386
-0.1344638918
-0.1340119086
-0.1299243705
-0.1961141743
-0.1665698958
-0.1571067482
-0.1421795206
-0.1395092673
-0.131577661
-0.1317611563
-0.1274299382
-0.1282728303
-0.1252968612
-0.1248750423
-0.1210656164
-0.1792897898
-0.1522804002
-0.1436293607
-0.1299829176
-0.1275419151
-0.1202908112
-0.120458635
-0.116498926
-0.1172694509
-0.1145485941
-0.1141627576
-0.1106798024
-0.1602307053
-0.1360917596
-0.1283596623
-0.1161632021
-0.1139809662
-0.1074999878
-0.1076492123
-0.1041097561
-0.1047976135
-0.1023653848
-0.1020198785
-0.09890674256
-0.1391366919
-0.1181758484
-0.1114618812
-0.1008711922
-0.09897634483
-0.09334855395
-0.09347810768
-0.09040445602
-0.09100159023
-0.0888892685
-0.08858893415
-0.08588521763
-0.1163128667
-0.09878962985
-0.09317627244
-0.08432212976
-0.08273732038
-0.07803193355
-0.07813938908
-0.07556915689
-0.07606746946
-0.07430092454
-0.07404904048
-0.07178829093
-0.09200645871
-0.07814527787
-0.07370506928
-0.06670122381
-0.06544755326
-0.06172529134
-0.06181008016
-0.05977661926
-0.06017042296
-0.05877256324
-0.05857279503
-0.05678389661
-0.06656287701
-0.05653398728
-0.05332081933
-0.04825294644
-0.04734501206
-0.04465113849
-0.04471141357
-0.04323926235
-0.04352302202
-0.0425107264
-0.0423650831
-0.04107007581
-0.04026239082
-0.03419598349
-0.03225220471
-0.02918643319
-0.02863681201
-0.02700674431
-0.02704252062
-0.02615122402
-0.02632195219
-0.02570865253
-0.02561946879
-0.02483509427
-0.01347540577
-0.01144370206
-0.01079181761
-0.009764305753
-0.009578751339
-0.009031446067
-0.009041496767
-0.008741225327
-0.00879618631
-0.008588887932
-0.008556776903
-0.00829244187
0.01350085235
0.01146823728
0.01081809565
0.009792033898
0.00961003546
0.009066155029
0.009081180458
0.008785612021
0.008846518726
0.008644501796
0.008618628058
0.008359143437
0.04028752502
0.0342202153
0.03227815589
0.02921381608
0.02866770724
0.02704102477
0.02708171884
0.02619507114
0.0263716774
0.02576359552
0.02568057463
0.02490098938
0.06658735622
0.05655759038
0.05334610708
0.04827963462
0.04737513198
0.04468456022
0.04474962926
0.0432820091
0.04357149507
0.04256428764
0.04242465246
0.04113431601
0.09203001847
0.07816798757
0.07372939454
0.06672689431
0.06547652492
0.06175744575
0.061846857
0.05981776658
0.06021709455
0.05882413627
0.05863015614
0.05684574921
0.1163351401
0.0988111055
0.09319929505
0.08434643711
0.08276477417
0.07806241121
0.07817425554
0.07560816723
0.07611171396
0.07434981632
0.07410341911
0.0718469288
0.13915749
0.1181958894
0.1114833584
0.1008938635
0.09900194875
0.09337698394
0.0935106406
0.09044086973
0.09104290516
0.08893493078
0.08863972752
0.08593998326
0.1602496349
0.1361100101
0.1283792488
0.1161838955
0.1140043703
0.1075259943
0.107678998
0.1041431047
0.1048354572
0.1024072109
0.1020664027
0.09895690314
0.1793067685
0.1522967509
0.143646901
0.1300014429
0.1275628661
0.1203140944
0.1204853048
0.1165287983
0.1173033613
0.1145860832
0.1142044672
0.1107247682
0.1961287787
0.1665839759
0.1571218918
0.142195539
0.1395274269
0.1315978709
0.1317843512
0.1274559435
0.1283023763
0.125329534
0.1249113975
0.1211048063
0.2104645954
0.1787606068
0.1686072009
0.1525900488
0.1497271035
0.1412180264
0.1414182139
0.1367733789
0.1376816358
0.1344913173
0.1340424295
0.1299572676
0.2221734366
0.1887049055
0.1779859414
0.1610770275
0.1580541016
0.1490709649
0.1492815578
0.144377664
0.1453357223
0.1419673433
0.1414928365
0.1371800256
0.2310685801
0.1962604425
0.1851126372
0.1675269863
0.1643832435
0.1550405583
0.1552596903
0.1501594479
0.1511558578
0.1476524804
0.1471588328
0.1426730596
0.2370776177
0.2013635588
0.1899251816
0.1718815579
0.1686553818
0.1590690932
0.1592932236
0.1540597277
0.1550813573
0.1514863333
0.1509792391
0.1463764639
0.2400855478
0.2039187388
0.192335553
0.1740632489
0.1707963588
0.1610885619
0.161315654
0.1560157597
0.1570503595
0.1534096016
0.152895949
0.1482345042
0.2400939598
0.2039251747
0.1923409255
0.1740673418
0.1707996699
0.1610909022
0.1613173149
0.1560166281
0.1570505857
0.1534091731
0.1528949077
0.1482329633
0.2370633494
0.201351475
0.1899137589
0.1718710784
0.1686448654
0.1590587612
0.159282429
0.1540486492
0.15506956
0.1514739885
0.1509660883
0.1463627203
0.2310712111
0.1962613029
0.1851120368
0.1675247743
0.1643794415
0.155035009
0.1552523342
0.1501502368
0.1511446608
0.1476394419
0.1471437809
0.1426564295
0.2221535305
0.1886873846
0.1779686943
0.1610604001
0.1580366494
0.1490529403
0.1492619713
0.1443567575
0.145312787
0.1419427031
0.1414660247
0.1371515698
0.2104618106
0.1787562437
0.1686010046
0.1525819296
0.1497166369
0.1412050851
0.1414024094
0.1367547241
0.137659736
0.1344664645
0.1340142508
0.1299264998
0.1961037363
0.1665615017
0.1570993388
0.1421733112
0.1395036566
0.1315728392
0.1317567563
0.1274260855
0.128269296
0.1252936952
0.124872143
0.1210629503
0.1792992045
0.1522877778
0.1436357659
0.12998811
0.1275465173
0.1202946288
0.1204620432
0.1165018081
0.1172720144
0.1145508026
0.114164702
0.1106815217
0.1602202155
0.1360833149
0.1283521748
0.116156896
0.1139752173
0.1074949934
0.1076445813
0.1041056222
0.104793736
0.1023618343
0.1020165504
0.09890363393
0.1391460226
0.1181831504
0.1114681889
0.1008762715
0.0989807946
0.09335218858
0.09348128673
0.09040706992
0.09100383984
0.08889113084
0.08859049618
0.08588654184
0.1163023226
0.09878113314
0.0931687118
0.08431573406
0.08273144434
0.07802677885
0.07813454667
0.07556477065
0.07606329065
0.07429704279
0.07404534797
0.07178480808
0.09201571904
0.07815251534
0.07371129693
0.06670621094
0.06545188371
0.06172878301
0.0618130828
0.0597790261
0.06017242906
0.05877415498
0.05857405651
0.0567849106
0.06655228846
0.05652544793
0.05331320177
0.04824648134
0.04733904029
0.04464586556
0.04470642203
0.0432347037
0.04351864289
0.04250662717
0.04236115186
0.04106634817
0.04027160783
0.03420318004
0.03225838371
0.02919136446
0.02864107293
0.02701015217
0.02704542079
0.02615351005
0.02632381613
0.02571008625
0.02562055537
0.02483592846
0.01346479321
0.01143513875
0.01078417048
0.009757805325
0.009572734482
0.009026119401
0.009036441905
0.008736595843
0.008791728209
0.008584704011
0.008552753737
0.008288620228
-0.01349164337
-0.01146105024
-0.01081192552
-0.009787113066
-0.009605784166
-0.0090627598
-0.009078294653
-0.008783344212
-0.008844676177
-0.008643092046
-0.008617567064
-0.008358335207
-0.04029813589
-0.03422877869
-0.03228579842
-0.02922030965
-0.0286737094
-0.02704633227
-0.02708674659
-0.02619966808
-0.02637609527
-0.02576773434
-0.02568454661
-0.02490475806
-0.06657811829
-0.05655037966
-0.0533399044
-0.04827467689
-0.04737082795
-0.04468110295
-0.04474666513
-0.04327965212
-0.0435695475
-0.04256276287
-0.04242346319
-0.04113337616
-0.09204060308
-0.0781765279
-0.07373699889
-0.06673333977
-0.06548245381
-0.06176266264
-0.06185176997
-0.05982223151
-0.06022135834
-0.0588281065
-0.05863394107
-0.05684932548
-0.1163258409
-0.09880384202
-0.09319302303
-0.08434140056
-0.0827603613
-0.07805882332
-0.0781711278
-0.07560562238
-0.07610954571
-0.07434805019
-0.07410196262
-0.07184571494
-0.1391680311
-0.11820439
-0.1114908988
-0.1009002293
-0.09900775716
-0.09338204927
-0.09351535999
-0.09044511112
-0.09104690783
-0.08893861658
-0.08864319826
-0.0859432369
-0.1602402513
-0.1361026735
-0.1283728809
-0.11617875
-0.1139998082
-0.1075222247
-0.1076756425
-0.1041402967
-0.1048329808
-0.1024051074
-0.102064574
-0.09895530701
-0.1793172601
-0.1523052049
-0.1436543651
-0.1300077139
-0.1275685318
-0.1203189762
-0.1204897834
-0.1165327557
-0.1173070277
-0.1145894002
-0.1142075312
-0.1107276038
-0.1961192999
-0.1665765571
-0.1571154183
-0.1421902723
-0.1395227019
-0.131593903
-0.1317807469
-0.1274528457
-0.1282995597
-0.1253270559
-0.1249091548
-0.121102783
-0.2104750441
-0.1787690169
-0.1686145935
-0.1525962271
-0.149732637
-0.1412227418
-0.1414224705
-0.1367770676
-0.1376849735
-0.1344942644
-0.1340450784
-0.1299596736
-0.222163863
-0.188697405
-0.1779793746
-0.1610716484
-0.1580492302
-0.1490668267
-0.1492777418
-0.1443743203
-0.1453326152
-0.1419645423
-0.1414902331
-0.1371776287
-0.2310790021
-0.1962688155
-0.1851199764
-0.1675330876
-0.1643886767
-0.1550451575
-0.1552637985
-0.1501629591
-0.1511589718
-0.1476551676
-0.1471611764
-0.1426751492
-0.2370679514
-0.2013559787
-0.1899185399
-0.1718760961
-0.1686504104
-0.1590648486
-0.1592892786
-0.154056237
-0.1550780764
-0.1514833361
-0.150976414
-0.1463738369
-0.2400959538
-0.2039270763
-0.1923428382
-0.1740692774
-0.170801718
-0.1610930837
-0.1613196763
-0.1560191797
-0.1570533709
-0.15341218
-0.1528981779
-0.1482364817
)
;

boundaryField
{
    out
    {
        type            implicitExtrapolation;
    }
    in
    {
        type            implicitExtrapolation;
    }
    frontAndBack
    {
        type            empty;
    }
}


// ************************************************************************* //
