/*--------------------------------*- C++ -*----------------------------------*\
| =========                 |                                                 |
| \\      /  F ield         | foam-extend: Open Source CFD                    |
|  \\    /   O peration     | Version:  3.0                                   |
|   \\  /    A nd           | Web:         http://www.extend-project.de       |
|    \\/     M anipulation  |                                                 |
\*---------------------------------------------------------------------------*/
FoamFile
{
    version     2.0;
    format      ascii;
    class       volVectorField;
    location    "81";
    object      u;
}
// * * * * * * * * * * * * * * * * * * * * * * * * * * * * * * * * * * * * * //

dimensions      [0 0 0 0 0 0 0];

internalField   nonuniform List<vector> 
2688
(
(0.2876325016 -0.05133032874 7.462163477e-17)
(0.1502476754 -0.0420633522 -1.150713814e-16)
(0.5824584118 -0.03624242275 1.992688329e-16)
(0.4063729084 -0.02782341806 -8.959274385e-17)
(0.7529949498 -0.0264865152 1.154933307e-16)
(0.5736128889 -0.01924829606 -3.45002983e-17)
(0.8587897602 -0.01969292001 1.037775487e-17)
(0.6868286687 -0.01387655644 6.164106317e-17)
(0.9285645172 -0.01469602718 -6.915106038e-17)
(0.76501875 -0.01037212644 8.908316429e-17)
(0.9770758709 -0.0108746313 -3.160630252e-17)
(0.8193823263 -0.00797322948 4.90939534e-17)
(1.012274745 -0.007864698153 3.05520147e-17)
(0.8569106699 -0.006229846332 -9.144077148e-17)
(1.038606759 -0.005434765745 1.090918187e-16)
(0.882156249 -0.004861872545 -1.151058233e-16)
(1.058608127 -0.003434448967 1.105089462e-16)
(0.898201717 -0.003676719691 -7.385688693e-17)
(1.07368892 -0.00177521916 1.808899006e-17)
(0.9072480725 -0.002519973746 2.063884273e-17)
(1.084509759 -0.0004181605574 -3.549981652e-17)
(0.9110046856 -0.001246622024 1.741046154e-17)
(1.091155832 0.0006745963551 -4.39137248e-17)
(0.9109668687 -1.783983053e-05 1.667733491e-17)
(0.2991836805 -0.1539489931 -2.365690141e-16)
(0.1597172442 -0.1263031392 5.750368013e-18)
(0.5906323527 -0.1088920099 -3.983868511e-16)
(0.4126536943 -0.08376131844 5.043629651e-17)
(0.7589865658 -0.0797790061 -1.944530326e-16)
(0.5779759469 -0.05815562731 -3.336886109e-17)
(0.8632615598 -0.05951866822 -9.589226975e-18)
(0.6899918096 -0.04213484924 -1.592797898e-16)
(0.9319175974 -0.04462853518 8.700961922e-17)
(0.7674000394 -0.03170791747 -1.426346546e-16)
(0.9795717722 -0.03325180241 1.090254834e-17)
(0.8212302006 -0.02460017496 -1.198683261e-16)
(1.014094104 -0.02430088496 3.512666191e-17)
(0.8583744327 -0.01946984334 8.864947895e-18)
(1.039879914 -0.01708779199 -3.331798882e-17)
(0.8833237735 -0.01548551344 7.362897014e-17)
(1.059434628 -0.01117056523 -6.701426492e-17)
(0.8991167481 -0.01207997343 8.571662759e-18)
(1.07415344 -0.006291816456 1.03952649e-16)
(0.9079141285 -0.00880399202 -1.299792043e-16)
(1.084696595 -0.002344761941 1.286113701e-16)
(0.9113831511 -0.00524569776 -3.008001395e-17)
(1.091152386 0.0007011112394 6.68161124e-17)
(0.9109977484 -0.001267879692 2.695753663e-17)
(0.3221429747 -0.2546186566 4.311843845e-16)
(0.1785562065 -0.2088910192 1.106577422e-16)
(0.6068780272 -0.1801186588 5.020347505e-16)
(0.4251540622 -0.1385751931 -2.592023195e-17)
(0.7708957297 -0.1320011876 2.439576894e-16)
(0.5866608656 -0.09625830299 1.067861072e-16)
(0.872154661 -0.09853140814 -4.198584229e-18)
(0.6962915059 -0.06978941098 2.339715898e-16)
(0.9385964022 -0.0739427559 -6.730659419e-17)
(0.7721501454 -0.05257398363 2.196544659e-16)
(0.9845609132 -0.05516353239 2.118615794e-17)
(0.8249274335 -0.04085532995 1.38423778e-16)
(1.017755001 -0.04039516591 -3.72765731e-17)
(0.8613160018 -0.03241932028 -4.289730215e-17)
(1.042468197 -0.02849755819 5.861733357e-17)
(0.8856851203 -0.02589872599 -1.85833655e-16)
(1.061133469 -0.01873130191 2.083478271e-16)
(0.9009946504 -0.02036766621 -1.693372853e-16)
(1.075098133 -0.01065382195 -2.638774693e-17)
(0.9093484046 -0.01509674953 4.773736059e-17)
(1.085000408 -0.004074389758 -5.487824334e-17)
(0.9123574614 -0.00940632343 -8.46206436e-17)
(1.09094252 0.001009121193 -3.693349025e-17)
(0.9114272898 -0.002827995298 -4.160437964e-17)
(0.3562453094 -0.3520921756 -4.690329263e-16)
(0.2065257077 -0.2889125954 -2.836045781e-16)
(0.6310183376 -0.2491259177 -6.111404012e-16)
(0.4437203027 -0.1917122225 1.57671592e-17)
(0.7886002685 -0.1826216303 -3.356115016e-16)
(0.5995707858 -0.1332177496 -7.941249303e-17)
(0.8853813228 -0.1363615233 -7.341470657e-17)
(0.7056641739 -0.09663423541 -1.961177315e-16)
(0.9485317053 -0.1023769249 -6.852388317e-17)
(0.779221808 -0.07284415637 -1.813049102e-16)
(0.9919803701 -0.07642234345 -7.965695453e-17)
(0.8304322216 -0.05665286644 -1.623345018e-16)
(1.023194037 -0.05601214188 1.276686086e-16)
(0.8656925549 -0.04499715688 -4.486919911e-17)
(1.046311771 -0.03957367378 8.750345652e-17)
(0.8891890804 -0.03598312248 6.852529061e-17)
(1.063672576 -0.02609366945 -7.465084085e-17)
(0.9037549474 -0.02832658361 6.699242247e-17)
(1.076573626 -0.01497335222 8.334762762e-17)
(0.9113885257 -0.02102130442 -1.165924512e-16)
(1.08563803 -0.005954334737 1.454388547e-16)
(0.9136019294 -0.01315311222 8.79487646e-17)
(1.090964556 0.0009793452188 -2.608048444e-17)
(0.9117278544 -0.004006747423 1.896140922e-16)
(0.4010310379 -0.4451284246 5.029855908e-16)
(0.2432721449 -0.3652370789 2.584457421e-16)
(0.6627048638 -0.314952728 7.228296363e-16)
(0.4681046997 -0.2423688526 -4.749447294e-17)
(0.8118288578 -0.2308866491 3.288656692e-16)
(0.6165150484 -0.1684306143 1.421734108e-16)
(0.9027284479 -0.1724188013 3.18554616e-17)
(0.7179562814 -0.1221908412 2.014514065e-16)
(0.9615599517 -0.1294706624 1.453512141e-16)
(0.7884909274 -0.09212619696 1.970351351e-16)
(1.00171256 -0.09667469189 -5.735044817e-17)
(0.8376471035 -0.07167309153 2.692999517e-16)
(1.0303363 -0.07088871808 -2.466643279e-16)
(0.871432908 -0.05696334793 1.890635466e-16)
(1.05136749 -0.05012197995 -2.633942077e-16)
(0.8937961248 -0.04561010306 -5.519001827e-17)
(1.067009403 -0.03308372234 1.681219187e-17)
(0.9074126332 -0.03600165293 -6.119399905e-17)
(1.078471406 -0.01899723035 -3.35127348e-17)
(0.9141614813 -0.02687659945 2.600243516e-17)
(1.086336078 -0.007520191227 -1.306806736e-16)
(0.9154358595 -0.01706324725 -4.234936729e-17)
(1.090728279 0.00132113323 -1.376537054e-16)
(0.9124167192 -0.005497082294 -2.579153719e-17)
(0.4559652344 -0.5325700038 -3.872244168e-16)
(0.288344743 -0.4370256367 -2.453029389e-16)
(0.7015948639 -0.3768568686 -5.296673673e-16)
(0.4980295128 -0.2900391576 -5.032520745e-17)
(0.8403559966 -0.2762955361 -1.850067327e-16)
(0.6373274424 -0.2015876356 -2.764522908e-16)
(0.9240468347 -0.206354209 7.569572872e-17)
(0.7330712419 -0.1462743861 -2.797522631e-16)
(0.9775814428 -0.1549779862 -2.844435547e-16)
(0.7999012171 -0.1103125354 2.239912636e-17)
(1.013687203 -0.1157457868 6.032482447e-19)
(0.8465355346 -0.08584775864 -1.545509179e-16)
(1.039127313 -0.08489896951 1.030857082e-16)
(0.8785044649 -0.06824866269 -1.705731823e-17)
(1.057595191 -0.06005965632 1.23681014e-16)
(0.8994593522 -0.05465321949 1.051328794e-16)
(1.07114113 -0.03969433009 1.783718017e-16)
(0.9118731318 -0.04312512355 -8.315068211e-17)
(1.080888841 -0.02289025187 1.735202267e-16)
(0.9174651548 -0.03215644762 -1.102262773e-16)
(1.087384871 -0.009241282121 2.71180266e-16)
(0.9174933716 -0.02038610905 -7.353265123e-18)
(1.090737678 0.001261398342 2.165959232e-16)
(0.9130277435 -0.006568952462 -6.203325152e-18)
(0.52033355 -0.6133067852 -5.31586597e-17)
(0.3411557267 -0.5032615454 1.221994094e-16)
(0.747135913 -0.433983729 5.385456722e-16)
(0.5330747656 -0.3340006167 -4.953751709e-17)
(0.8737399665 -0.318184725 6.33836449e-17)
(0.6616802548 -0.2321472202 3.041519896e-16)
(0.9489768374 -0.2376504635 -1.363183876e-18)
(0.750737588 -0.1684540867 -8.230643578e-18)
(0.9963031376 -0.1784957861 4.263869556e-16)
(0.813221971 -0.1270468119 -1.899551839e-16)
(1.027670718 -0.1333263539 -1.510919922e-16)
(0.8569027947 -0.09888389121 3.654073229e-16)
(1.049388957 -0.09781374749 -3.192198914e-16)
(0.8867511117 -0.07863691045 3.13470173e-16)
(1.064863197 -0.06921604973 -4.323802159e-16)
(0.9060738838 -0.06301881495 2.043479413e-16)
(1.075954927 -0.04575533689 -4.023941086e-16)
(0.9171131733 -0.04981361908 1.884255438e-16)
(1.083670257 -0.02635800775 -2.013860548e-16)
(0.9214080662 -0.03729513995 6.926284107e-18)
(1.088502565 -0.01054334693 -1.621547939e-16)
(0.920039013 -0.02386554869 -2.845257973e-16)
(1.090582225 0.001638258241 2.099650963e-16)
(0.9138638977 -0.007930261044 -6.869208572e-16)
(0.5933435323 -0.6863331783 6.15328789e-16)
(0.4010710996 -0.5632150904 -4.231199052e-16)
(0.7988232207 -0.4856805886 8.022129362e-17)
(0.5728572526 -0.3738110396 -3.997867512e-16)
(0.9116577576 -0.3561037916 2.620585567e-16)
(0.6893516464 -0.2598363021 -4.41987298e-16)
(0.9773177151 -0.2659869634 2.050956407e-16)
(0.7708377059 -0.1885656492 -5.747644872e-17)
(1.017608257 -0.1997936329 -5.667328676e-17)
(0.8284002606 -0.142234374 7.879585e-17)
(1.043601473 -0.1492487606 2.481797625e-16)
(0.8687315949 -0.1107230087 -3.407685504e-16)
(1.061092256 -0.1095084349 2.118345227e-16)
(0.8961667393 -0.08806582964 -3.209183294e-16)
(1.073162036 -0.07750727395 4.672346229e-16)
(0.9136182152 -0.070578812 -4.371396271e-16)
(1.081465947 -0.05126589629 5.676531092e-16)
(0.9230611995 -0.05577336105 -4.490273958e-16)
(1.086888304 -0.02960120128 4.338651364e-16)
(0.9258337626 -0.04171347608 -3.369903593e-16)
(1.089861667 -0.01198430799 5.938062221e-16)
(0.9228524677 -0.02664115153 -2.204610726e-16)
(1.09049969 0.001568105363 1.806227167e-16)
(0.9148096498 -0.00881971885 1.591194753e-16)
(0.6740659834 -0.750721839 -9.541662433e-16)
(0.4673002945 -0.616042455 4.446887992e-16)
(0.8559357179 -0.5312439461 -4.380791859e-16)
(0.6168072695 -0.408875551 4.692829697e-16)
(0.9535235483 -0.389518667 -9.059575518e-17)
(0.7198920746 -0.2842134277 9.037500409e-17)
(1.008580212 -0.2909560083 -2.00085572e-16)
(0.7929918751 -0.2062598977 1.824417831e-17)
(1.041083372 -0.2185601838 -2.050686224e-16)
(0.8451036716 -0.1555858169 4.534558155e-17)
(1.06113272 -0.1632801436 -4.576926295e-16)
(0.8817303543 -0.1211258255 5.926543776e-16)
(1.073954716 -0.1198169139 -5.022648522e-16)
(0.9065056119 -0.09635993393 6.161200665e-16)
(1.082271784 -0.08481276134 -5.580761718e-16)
(0.9219080303 -0.07726766922 6.354691402e-16)
(1.087508219 -0.05608993171 -5.954868827e-16)
(0.9296167751 -0.06114004081 5.531675734e-16)
(1.090411717 -0.03233438445 -2.614745275e-16)
(0.9307341101 -0.04586707085 8.146539366e-17)
(1.09135506 -0.01296069033 -1.191225356e-16)
(0.9259575341 -0.02949779945 -3.363338924e-16)
(1.090454646 0.001956605081 5.307493994e-16)
(0.9157470311 -0.01000898438 -1.076326975e-15)
(0.7614917069 -0.8056719017 1.022324015e-15)
(0.5390510788 -0.6611534918 -1.0578646e-15)
(0.9178280951 -0.5701403828 1.212405694e-15)
(0.6644497401 -0.4388274442 -8.550780122e-16)
(0.9989297965 -0.4180445224 4.897098768e-16)
(0.753032935 -0.3050430998 -2.336668274e-16)
(1.042521829 -0.3122696688 3.472850519e-16)
(0.8170681496 -0.2213875497 8.405431664e-17)
(1.066603427 -0.2345767351 4.086499019e-16)
(0.8632887814 -0.1670094019 -5.915810556e-17)
(1.080220062 -0.175251003 4.107899553e-16)
(0.8959081262 -0.1300327059 -3.897540557e-16)
(1.087980959 -0.1286044335 2.85069549e-16)
(0.9177991548 -0.1034594816 -6.017455749e-16)
(1.092218448 -0.09103414223 4.33946897e-16)
(0.9309704009 -0.08297354423 -8.272720159e-16)
(1.094106197 -0.06020881628 6.655817076e-16)
(0.9367846562 -0.06566292835 -8.392781409e-16)
(1.094243257 -0.03473405411 5.186969627e-16)
(0.9361031733 -0.04925164334 -4.458682734e-16)
(1.092934444 -0.01400386628 5.371150082e-16)
(0.9294146054 -0.03163845288 -2.115231348e-16)
(1.090294169 0.001908773418 1.793880054e-16)
(0.9169524842 -0.01065859456 3.656900594e-16)
(0.8545197222 -0.8504839234 -5.458521274e-16)
(0.6153799649 -0.6979241117 6.669517684e-16)
(0.983648829 -0.6018570282 -5.204691066e-16)
(0.715103023 -0.4632389713 1.655179533e-16)
(1.047179211 -0.4413120654 -7.233169576e-17)
(0.7882310964 -0.3220185851 -1.848422159e-16)
(1.078550086 -0.3296630035 -2.417494061e-16)
(0.8426000433 -0.2337128129 -3.712179987e-16)
(1.093655055 -0.2476554558 -3.982858251e-16)
(0.882537657 -0.1763123119 -1.320670312e-16)
(1.100418924 -0.1850347971 -4.428759085e-16)
(0.9108873081 -0.1372836013 5.463955385e-16)
(1.102795243 -0.1357957926 -5.382966596e-16)
(0.9297148707 -0.1092441785 8.708269039e-16)
(1.102701164 -0.09613092741 -4.87310831e-16)
(0.9405302268 -0.08764514224 9.922878791e-16)
(1.101042393 -0.06357008912 -6.41471023e-16)
(0.9443553259 -0.06942131191 8.625081964e-16)
(1.098261579 -0.03663032439 -3.807888408e-16)
(0.9417745174 -0.052173776 1.876041192e-16)
(1.094605253 -0.01467058809 -6.570619598e-17)
(0.9330115653 -0.03367399393 -4.913602015e-16)
(1.090210347 0.00220712951 4.673273872e-16)
(0.9180224413 -0.01158376578 -8.835087013e-16)
(0.9519781373 -0.8846025688 4.248665486e-16)
(0.6953647385 -0.7259300314 -5.406168686e-16)
(1.052641825 -0.6260014334 5.465752767e-16)
(0.7682126375 -0.4818287139 -3.019171475e-16)
(1.097795459 -0.4590120463 2.767795714e-16)
(0.8251762864 -0.3349417996 1.63640093e-16)
(1.116388923 -0.3428819183 2.1928096e-16)
(0.8694425581 -0.2430947794 4.905977533e-16)
(1.122109175 -0.2575838327 4.113761073e-16)
(0.9028159246 -0.1833953013 1.588450879e-16)
(1.121704789 -0.1924501883 2.58847629e-16)
(0.9267027433 -0.1428069248 -3.455298112e-16)
(1.118439642 -0.1412332603 4.112981311e-16)
(0.9423225965 -0.1136511788 -6.995673556e-16)
(1.113793163 -0.09997215133 3.829720307e-16)
(0.9506649515 -0.09119691101 -9.946427591e-16)
(1.108387575 -0.06609998995 4.629211429e-16)
(0.9524028852 -0.07225433221 -6.495698895e-16)
(1.102498091 -0.03808278761 2.687893932e-16)
(0.9478479434 -0.05432109061 -4.198234076e-16)
(1.096305071 -0.015268216 4.390609414e-16)
(0.9369690998 -0.03506834672 -1.439741235e-16)
(1.089963101 0.002232467143 2.276083982e-16)
(0.9194447901 -0.01204554838 1.746373509e-16)
(1.052646801 -0.9075909526 -1.208759403e-16)
(0.7779686241 -0.7448005251 5.608036812e-17)
(1.12387192 -0.6422823865 -1.042570613e-17)
(0.8230322848 -0.494364915 -1.733679623e-16)
(1.150011377 -0.4709679705 -7.361726109e-17)
(0.8632697956 -0.3436672856 -5.063560225e-17)
(1.155378539 -0.3518307763 -2.61885222e-16)
(0.8970737244 -0.2494366728 -3.847292899e-16)
(1.151382524 -0.2643232669 -2.794429922e-16)
(0.9236458396 -0.1881871103 -1.753491363e-18)
(1.143559386 -0.1975011494 -3.543757437e-16)
(0.9429106136 -0.1465455034 5.107083852e-16)
(1.134463197 -0.1449538065 -7.715527791e-16)
(0.955215097 -0.1166371635 9.981753963e-16)
(1.125123031 -0.1026150568 -7.125478574e-16)
(0.9610104103 -0.09361304509 1.010199223e-15)
(1.115868924 -0.06784676426 -4.581943113e-16)
(0.9606023517 -0.07420693675 5.392892798e-16)
(1.106804788 -0.03906891639 -4.841678819e-17)
(0.9540027719 -0.05585837693 7.653402552e-17)
(1.098052365 -0.01560615892 -2.632705801e-17)
(0.9408862766 -0.03618523907 -1.630242834e-16)
(1.089813291 0.002428043264 1.746027289e-16)
(0.9206068596 -0.01265362528 -5.125551372e-16)
(1.155251204 -0.9191677794 6.278281342e-17)
(0.8621727947 -0.7542968447 -2.039979943e-17)
(1.196503954 -0.6504631704 -5.147008084e-17)
(0.8789413829 -0.5006594152 4.20963627e-17)
(1.203296694 -0.4769526159 1.362585913e-16)
(0.9021623334 -0.3480342847 -1.684765699e-16)
(1.195214476 -0.3562891601 3.09587262e-16)
(0.9253325366 -0.2526000311 6.107054305e-17)
(1.181342016 -0.2676616776 2.708681876e-16)
(0.9449971111 -0.1905712922 -1.997462108e-16)
(1.165976137 -0.1999845142 4.384921202e-16)
(0.9595678796 -0.1484047339 -4.914945583e-16)
(1.150943631 -0.1467636328 6.000381295e-16)
(0.9685014892 -0.1181257124 -6.987003369e-16)
(1.136810732 -0.1038795327 5.715735055e-16)
(0.9717026344 -0.09482358098 -6.676896231e-16)
(1.123605608 -0.06865969928 2.786485199e-16)
(0.9691131636 -0.07519072823 -2.586524432e-16)
(1.111250183 -0.03950387919 -5.248812116e-17)
(0.9604632739 -0.05663643143 1.939142466e-17)
(1.099789761 -0.01572763884 6.425594957e-17)
(0.9451632209 -0.03675336671 -1.151491652e-17)
(1.089445506 0.0025484648 9.457810512e-17)
(0.9222679581 -0.01295346565 2.575882258e-17)
(1.25851255 -0.9191797156 2.563568641e-18)
(0.9469125938 -0.7543211582 -5.263759191e-17)
(1.269574188 -0.6504928564 -7.448001638e-17)
(0.9351822723 -0.5006927985 2.092148549e-16)
(1.256864269 -0.4769990468 -1.119084687e-16)
(0.941244744 -0.3480745324 2.865954307e-16)
(1.235213805 -0.3563474594 -2.723149627e-16)
(0.9536806137 -0.2526441454 2.53805888e-16)
(1.211372061 -0.2677275765 -1.674931092e-16)
(0.9663655038 -0.1906166888 2.156138706e-16)
(1.188392665 -0.2000537958 -4.744816071e-16)
(0.9761912459 -0.1484499792 4.001447824e-16)
(1.16737518 -0.1468309517 -3.878419826e-16)
(0.9817192883 -0.1181718436 4.125211055e-16)
(1.148425745 -0.1039374895 -5.245823781e-16)
(0.9823011499 -0.09487629872 4.729959081e-16)
(1.131275532 -0.06869767616 -2.833543962e-16)
(0.977500683 -0.07526347187 1.418872192e-16)
(1.115671591 -0.03950484331 -2.096625424e-17)
(0.966742114 -0.05675444971 -8.258581596e-17)
(1.101595107 -0.01566362636 -4.3507317e-17)
(0.949136566 -0.03695302106 5.217467088e-17)
(1.089318547 0.002706737014 -2.155458153e-16)
(0.9233885533 -0.01324359537 2.492243289e-16)
(1.361118152 -0.9076344346 -1.312329526e-16)
(1.031109828 -0.7448321585 2.330369947e-16)
(1.342200376 -0.642299623 -1.662347765e-16)
(0.9910822826 -0.4943765742 -2.013043614e-16)
(1.310142668 -0.4709673624 7.708816077e-17)
(0.9801290459 -0.3436658166 -4.159483143e-16)
(1.275045055 -0.3518196831 2.662395368e-16)
(0.9819335337 -0.2494289682 -5.357089691e-16)
(1.241330986 -0.264304871 1.007862394e-16)
(0.9877147449 -0.1881807032 -4.189800657e-16)
(1.210814135 -0.1974744801 5.571789542e-16)
(0.992852106 -0.1465506874 -4.225433442e-16)
(1.183865714 -0.1449126659 4.286303972e-16)
(0.9950167058 -0.116669149 -3.596623423e-16)
(1.160126891 -0.1025460385 4.412074701e-16)
(0.9930138909 -0.09369387608 -1.584079321e-16)
(1.139022865 -0.06772715525 1.637658161e-16)
(0.9860467215 -0.07436874285 9.339888686e-17)
(1.120109921 -0.03886345892 -7.159837368e-17)
(0.9732700946 -0.05615088441 2.288853547e-16)
(1.103276092 -0.01526756671 -7.916581226e-17)
(0.9535543121 -0.03667415212 5.136365551e-17)
(1.088798868 0.002916650508 6.976780108e-17)
(0.9253146198 -0.01331832959 -2.416636222e-16)
(1.461794335 -0.8846692111 9.418547075e-17)
(1.113739594 -0.7260085374 -1.985759787e-16)
(1.413449761 -0.6260763943 1.3849787e-16)
(1.045928665 -0.4819054797 1.602102716e-16)
(1.362380091 -0.4591022114 -1.809404667e-17)
(1.018245567 -0.3350198534 3.837345178e-16)
(1.314052917 -0.3429856585 -1.026378202e-16)
(1.00958225 -0.2431757167 5.252867985e-16)
(1.270615829 -0.2576963622 -1.505619566e-17)
(1.008555207 -0.183482283 4.734012881e-16)
(1.232670719 -0.1925621031 -3.289487228e-16)
(1.009061879 -0.1429083508 2.210686945e-16)
(1.199880703 -0.141326331 -2.567327804e-16)
(1.007900363 -0.1137861676 2.163976724e-16)
(1.171441772 -0.1000140689 -4.334323295e-16)
(1.003334985 -0.0914028942 3.268613556e-17)
(1.146496848 -0.06603882078 -1.414762919e-16)
(0.9941952653 -0.07259616337 -2.057116194e-16)
(1.124441176 -0.03784122147 1.08958301e-16)
(0.9793298357 -0.05489857968 -1.945316052e-16)
(1.105105207 -0.01474907884 1.65971412e-17)
(0.957308908 -0.03599794074 1.508139978e-16)
(1.088814153 0.003074241389 -2.935686151e-16)
(0.9261918762 -0.01328586108 5.840170982e-16)
(1.559255961 -0.8505810424 -2.189472799e-16)
(1.193703866 -0.698011432 4.316999498e-16)
(1.482425046 -0.6019208844 -3.621812288e-16)
(1.099011262 -0.463296862 3.678066326e-17)
(1.412975066 -0.4413575174 -1.991406804e-17)
(1.055165796 -0.3220577601 -4.288629326e-16)
(1.351876302 -0.3296988703 1.859638817e-16)
(1.036406187 -0.2337437285 -5.90793939e-16)
(1.29906548 -0.2476828002 1.586404242e-16)
(1.028826184 -0.1763478776 -6.133429639e-16)
(1.253965808 -0.1850458928 4.152509182e-16)
(1.024888234 -0.1373451529 -3.691969234e-16)
(1.215546459 -0.1357695794 3.61115011e-16)
(1.020546963 -0.1093690728 -3.763958884e-16)
(1.182556395 -0.09602582272 5.961266063e-16)
(1.013551444 -0.08789466309 -1.14292171e-16)
(1.153838241 -0.06331809465 2.428558573e-16)
(1.002394331 -0.06988445553 9.852536592e-17)
(1.128594052 -0.03614081744 -5.118488752e-17)
(0.9856770093 -0.05295652064 1.472069836e-16)
(1.106557465 -0.01386503453 -1.780480852e-16)
(0.9617506985 -0.0348513796 4.768594197e-17)
(1.088060951 0.003287336954 -1.364104995e-16)
(0.9283989545 -0.01299486825 -1.278069145e-16)
(1.652298621 -0.8057901016 2.876186558e-16)
(1.270083349 -0.6612824721 -3.905741616e-16)
(1.548283906 -0.5702568864 4.839021213e-16)
(1.149717455 -0.4389450655 -1.989405459e-16)
(1.461267467 -0.4181740024 8.931771627e-17)
(1.090410831 -0.3051578786 1.806395538e-16)
(1.387941964 -0.3124141837 -3.935844867e-17)
(1.061976188 -0.2215063298 4.230028546e-16)
(1.326141854 -0.2347312311 -2.051487977e-16)
(1.048102271 -0.1671423028 5.262588295e-16)
(1.274169774 -0.1754003172 -2.269828364e-16)
(1.039881991 -0.1302004301 8.634253572e-17)
(1.23034011 -0.1287144087 -5.456270911e-17)
(1.032463538 -0.1037048399 1.629878336e-16)
(1.192993298 -0.09103867037 -3.787375468e-16)
(1.023094761 -0.08337724664 7.616554577e-17)
(1.160721775 -0.05999780063 -1.570173922e-16)
(1.009914222 -0.06635446339 -1.757595627e-16)
(1.132602049 -0.03415895398 8.907972724e-17)
(0.9912148434 -0.05038881669 -8.451317128e-17)
(1.108346493 -0.01293912953 1.017195e-16)
(0.965032477 -0.0333172742 1.217921767e-16)
(1.08833865 0.003403901229 -3.791738028e-17)
(0.928811015 -0.01263193863 2.188696163e-16)
(1.739729126 -0.7508684018 -4.044396537e-16)
(1.341801454 -0.616183385 3.850431533e-16)
(1.610146478 -0.531352558 -4.678532128e-16)
(1.197316106 -0.4089804194 3.045775198e-16)
(1.506637071 -0.3896093744 -1.785952462e-16)
(1.123509723 -0.2842960389 -5.596390924e-17)
(1.42185433 -0.2910383982 1.027573637e-16)
(1.086018957 -0.2063338965 -4.185012651e-16)
(1.351647354 -0.2186329511 2.545280438e-16)
(1.066270949 -0.1556694056 -4.044883916e-16)
(1.293260305 -0.1633288407 1.832697763e-16)
(1.054075021 -0.1212517823 -1.489023897e-16)
(1.244381536 -0.1198054161 1.6030279e-16)
(1.043829196 -0.09658953195 -2.378753692e-16)
(1.202940191 -0.08466965647 2.764586729e-16)
(1.032329624 -0.07770536125 -5.715181554e-17)
(1.167239806 -0.05569923329 9.341306248e-17)
(1.017424995 -0.06193154987 1.202096607e-16)
(1.136163087 -0.03155912219 -1.300916175e-16)
(0.9971881048 -0.04714262597 1.16406908e-16)
(1.109339615 -0.0117440439 -2.113249925e-16)
(0.9694320853 -0.03124238496 3.926055046e-17)
(1.087209832 0.003419060357 -1.285249198e-16)
(0.9313025314 -0.01181055699 -7.511969455e-17)
(1.820472579 -0.6864978766 2.78576029e-16)
(1.408103138 -0.5633886189 -2.657430547e-16)
(1.667314738 -0.4858330029 2.33489988e-16)
(1.241343266 -0.3739656136 -1.993817222e-16)
(1.548566622 -0.3562659712 1.458595957e-16)
(1.154121052 -0.2599853427 -6.517092257e-17)
(1.453174288 -0.2661650161 -3.695679621e-17)
(1.108234949 -0.1887208468 2.84217164e-16)
(1.375163558 -0.1999832556 -2.577290472e-16)
(1.083024959 -0.14241208 2.93149094e-16)
(1.3108047 -0.1494314084 -7.837404348e-17)
(1.067111169 -0.1109541933 -9.869160369e-18)
(1.257216325 -0.1096388035 1.552347348e-17)
(1.054190669 -0.08841223409 8.137433802e-17)
(1.211976111 -0.07749358959 -6.369320618e-17)
(1.04062081 -0.07115530646 -4.014637922e-17)
(1.173186334 -0.05095213066 6.069445331e-17)
(1.023928505 -0.05675806324 -9.666619526e-17)
(1.13966006 -0.02878681991 1.036733756e-16)
(1.001882051 -0.0432924937 -6.25841452e-17)
(1.111064114 -0.01054898268 1.510656959e-16)
(0.9719778489 -0.02883879054 8.142353916e-17)
(1.087876578 0.003420303913 5.279889656e-17)
(0.9311027827 -0.01114028723 1.764999096e-16)
(1.893487597 -0.6134966947 -1.32387835e-16)
(1.467976441 -0.5034520353 2.938190053e-16)
(1.71896042 -0.4341340552 -1.734726574e-16)
(1.281067896 -0.3341522493 1.796765286e-16)
(1.586432363 -0.318319445 -1.253889209e-16)
(1.181734502 -0.2322760981 1.071048808e-16)
(1.481470149 -0.2377799698 3.14833833e-17)
(1.128284818 -0.1685761081 -1.630453971e-16)
(1.39643922 -0.1786181103 2.663280053e-16)
(1.098172041 -0.127183134 -2.607240933e-16)
(1.326725095 -0.1334249728 1.5830119e-16)
(1.078949646 -0.09907266796 -6.905783854e-17)
(1.268920002 -0.09784784898 -1.46097173e-17)
(1.063698636 -0.07894976274 -4.961865746e-17)
(1.220244911 -0.06910501714 -1.039767374e-17)
(1.048417127 -0.06357782649 5.045607263e-17)
(1.17853138 -0.04536975238 -1.178373489e-16)
(1.030412421 -0.05078354892 8.020109424e-17)
(1.142392502 -0.02555612516 -9.929545192e-17)
(1.007272863 -0.03879667088 3.898982204e-17)
(1.111423831 -0.009306564566 -1.183647271e-16)
(0.9762449643 -0.02580028706 -6.553834886e-17)
(1.086260654 0.00301440442 -3.728246343e-17)
(0.9338139052 -0.009710424356 -1.584487682e-16)
(1.957882935 -0.5327746321 -1.919740797e-17)
(1.520876978 -0.4372360481 -2.280534321e-16)
(1.764572424 -0.3770381518 -2.869010321e-18)
(1.31621022 -0.2902254267 -7.798165018e-17)
(1.619898225 -0.2764822495 -6.634907499e-19)
(1.206179675 -0.2017666246 -7.42484174e-17)
(1.506476578 -0.2065569366 3.618319495e-18)
(1.146036217 -0.1464608885 4.374346474e-17)
(1.415220512 -0.1551951955 -1.807918145e-16)
(1.111567716 -0.1105256771 1.16258493e-16)
(1.34073756 -0.1159616066 -6.25184326e-17)
(1.089375997 -0.08612046487 -1.697858469e-18)
(1.279164752 -0.0850719031 9.208251361e-17)
(1.071976608 -0.06864241793 -3.404256121e-17)
(1.227449172 -0.06010385262 6.836989692e-17)
(1.05500474 -0.05527853126 -3.685859572e-17)
(1.183286926 -0.0394628909 7.043315608e-17)
(1.035486769 -0.0441494398 -2.151996654e-17)
(1.145288968 -0.02219671936 2.400586231e-17)
(1.010737609 -0.0337475611 4.517555588e-17)
(1.113133109 -0.007985496038 -1.742513951e-17)
(0.9777723197 -0.02254745775 1.839138806e-16)
(1.087405326 0.002850102297 -9.979084691e-17)
(0.9330455014 -0.008754819739 2.604733845e-16)
(2.012820912 -0.4453545657 6.918824044e-17)
(1.565902283 -0.3654706495 2.693865004e-16)
(1.803410993 -0.3151409241 3.799266653e-18)
(1.346067984 -0.2425651637 1.171113226e-16)
(1.648360735 -0.2310635952 1.297299031e-17)
(1.226921951 -0.1686072928 7.743808117e-17)
(1.527736181 -0.1725963141 8.740187489e-18)
(1.161085712 -0.1223646085 -4.549184056e-17)
(1.431198404 -0.1296491439 1.723477215e-16)
(1.122929134 -0.09231731927 -1.186892777e-16)
(1.352689358 -0.09684297923 1.325574758e-16)
(1.098257273 -0.07191502839 -7.859940348e-17)
(1.287948215 -0.07101756886 6.133699214e-18)
(1.079134321 -0.05731532059 -3.449458713e-17)
(1.233641184 -0.05015371016 -2.625429921e-17)
(1.060948465 -0.0461694868 2.72606315e-17)
(1.187224961 -0.03292806979 -4.868804538e-17)
(1.040595714 -0.0368951906 1.496498608e-17)
(1.147099151 -0.01856294244 -3.264421972e-17)
(1.015274068 -0.02818753871 -1.388247071e-17)
(1.112860889 -0.006819200657 -1.742974816e-17)
(0.9817125415 -0.01869450435 -1.013518565e-16)
(1.085378614 0.002037939636 5.066155653e-17)
(0.9357608762 -0.006894135025 -1.439075415e-16)
(2.057639064 -0.352329161 -8.515960349e-17)
(1.602748847 -0.2891510619 -2.160285118e-16)
(1.835178836 -0.2493283733 -5.540875813e-17)
(1.37056262 -0.1919239976 -8.695749679e-17)
(1.671683399 -0.1828242383 -1.714313224e-17)
(1.243973656 -0.1334211995 -8.995600621e-17)
(1.545173443 -0.1365796817 -1.129516222e-19)
(1.173479746 -0.09684502982 -9.246295446e-18)
(1.444302061 -0.1026136736 -7.276395152e-17)
(1.132290012 -0.07308010207 2.129488972e-17)
(1.362469508 -0.07667058257 -5.342615077e-17)
(1.105540796 -0.05693989267 8.479373935e-18)
(1.295099744 -0.05624981665 3.879173273e-17)
(1.084889095 -0.04537688727 -3.143044523e-17)
(1.238681 -0.03975488111 6.671434541e-17)
(1.065444697 -0.03652309982 -3.95298255e-17)
(1.190612554 -0.02614157487 2.604075423e-17)
(1.043871139 -0.02912366935 1.430527009e-17)
(1.149354156 -0.01479192168 1.4229536e-18)
(1.017164755 -0.02217500826 5.1986776e-17)
(1.114578538 -0.005489005473 -3.486571153e-17)
(0.982027615 -0.01469221679 1.231892407e-16)
(1.086932564 0.001604006353 -9.278402687e-17)
(0.9346451276 -0.005546280441 1.530637397e-16)
(2.091744855 -0.2548738895 1.091423923e-16)
(1.630669056 -0.2091582713 1.746343386e-16)
(1.85926413 -0.1803401149 5.03506629e-17)
(1.389058113 -0.1388114354 9.675957964e-17)
(1.689318245 -0.1322171514 2.531762388e-17)
(1.256807871 -0.09648169075 6.518723095e-17)
(1.558335146 -0.09875564906 3.279951564e-17)
(1.182778595 -0.07001601321 -1.184741203e-17)
(1.454187359 -0.07418042235 8.510648096e-17)
(1.139300281 -0.05282019311 -5.128751976e-17)
(1.369862868 -0.05541390879 8.589197827e-17)
(1.11102015 -0.0411426588 -4.441528025e-17)
(1.300538657 -0.04065069734 1.363959175e-17)
(1.089327188 -0.03277862298 -6.694339516e-18)
(1.242517622 -0.0287418578 -1.46268843e-17)
(1.069203184 -0.0263739686 3.999503937e-18)
(1.193011232 -0.01893976105 -1.723754175e-17)
(1.047274939 -0.0210126165 -9.89917116e-18)
(1.150270288 -0.01080306994 -9.327597455e-18)
(1.020501544 -0.01595447354 -2.858887499e-17)
(1.113868642 -0.004168735873 3.296082695e-18)
(0.9852974075 -0.01047384326 -7.034539841e-17)
(1.08481397 0.0008774287944 5.249776183e-17)
(0.9370794599 -0.003755426021 -1.135586901e-16)
(2.11473867 -0.1542102076 -1.046443499e-16)
(1.64961254 -0.1265600467 -1.216268496e-16)
(1.875592562 -0.1091087842 -8.383592577e-17)
(1.401673731 -0.08399165914 -6.946777447e-17)
(1.701323816 -0.0799901612 -3.563779504e-17)
(1.265605638 -0.05837782657 -5.935003084e-17)
(1.567322261 -0.0597443597 -1.485406328e-17)
(1.189185339 -0.04236394743 -2.874506017e-17)
(1.460947867 -0.04487692036 -2.493981149e-17)
(1.14414501 -0.03195838104 -9.444092965e-18)
(1.374911595 -0.03352663894 -1.907602323e-17)
(1.114780027 -0.02488772053 -8.170367122e-18)
(1.304232843 -0.02460491102 2.057785218e-17)
(1.092251968 -0.01981068483 -2.150296089e-17)
(1.245142522 -0.01742683834 3.367795522e-17)
(1.071365463 -0.01589419317 -1.29894121e-17)
(1.194871523 -0.01156042023 1.670184994e-17)
(1.048582053 -0.0125642354 8.150349081e-18)
(1.1517717 -0.006763227088 6.692563722e-18)
(1.020754049 -0.009364867539 2.657037633e-17)