/*--------------------------------*- C++ -*----------------------------------*\
| =========                 |                                                 |
| \\      /  F ield         | foam-extend: Open Source CFD                    |
|  \\    /   O peration     | Version:  3.0                                   |
|   \\  /    A nd           | Web:         http://www.extend-project.de       |
|    \\/     M anipulation  |                                                 |
\*---------------------------------------------------------------------------*/
FoamFile
{
    version     2.0;
    format      ascii;
    class       volVectorField;
    location    "19";
    object      u;
}
// * * * * * * * * * * * * * * * * * * * * * * * * * * * * * * * * * * * * * //

dimensions      [0 0 0 0 0 0 0];

internalField   nonuniform List<vector> 
400
(
(-0.0944618 -0.0891605 0)
(-0.0778432 0.0366323 0)
(-0.275416 0.0411385 0)
(-0.228326 0.0427739 0)
(-0.390453 0.0402051 0)
(-0.331462 0.0269227 0)
(-0.462227 0.0240108 0)
(-0.39149 0.0150566 0)
(-0.501783 0.011739 0)
(-0.414554 0.00695959 0)
(-0.513447 0.00094355 0)
(-0.401872 -8.36598e-05 0)
(-0.499391 -0.0129991 0)
(-0.349918 -0.00861275 0)
(-0.460828 -0.0384362 0)
(-0.246798 -0.0177669 0)
(-0.399042 -0.0905332 0)
(-0.0633909 -0.00324431 0)
(-0.317408 -0.129382 0)
(0.207817 0.124462 0)
(-0.110986 0.26144 0)
(-0.0856877 0.142667 0)
(-0.217246 0.108965 0)
(-0.203229 0.0722151 0)
(-0.303105 0.0629659 0)
(-0.287811 0.0449316 0)
(-0.36663 0.0361237 0)
(-0.342263 0.0246315 0)
(-0.402723 0.0114723 0)
(-0.365077 0.00486945 0)
(-0.410463 -0.0134533 0)
(-0.356039 -0.0137925 0)
(-0.3901 -0.0387793 0)
(-0.315004 -0.029776 0)
(-0.342157 -0.0645218 0)
(-0.244782 -0.0438727 0)
(-0.266536 -0.0927438 0)
(-0.164693 -0.0782871 0)
(-0.146694 -0.141727 0)
(-0.103453 -0.233974 0)
(-0.0480687 0.105598 0)
(-0.0742047 0.139699 0)
(-0.178186 0.15777 0)
(-0.197914 0.127389 0)
(-0.280303 0.124562 0)
(-0.287095 0.0895674 0)
(-0.347512 0.0784614 0)
(-0.341633 0.0504377 0)
(-0.382881 0.0346798 0)
(-0.365328 0.0140732 0)
(-0.389214 -0.00789248 0)
(-0.359853 -0.0210438 0)
(-0.366578 -0.0538043 0)
(-0.324329 -0.0571604 0)
(-0.312088 -0.108438 0)
(-0.25562 -0.0940101 0)
(-0.220634 -0.170423 0)
(-0.150704 -0.123677 0)
(-0.0935625 -0.190387 0)
(-0.0193591 -0.125606 0)
(-0.0561406 0.383376 0)
(-0.0722946 0.272326 0)
(-0.153578 0.23255 0)
(-0.159415 0.174173 0)
(-0.22123 0.152236 0)
(-0.2221 0.112141 0)
(-0.268758 0.090839 0)
(-0.263478 0.0600679 0)
(-0.294656 0.0353773 0)
(-0.282196 0.0112859 0)
(-0.297539 -0.0187257 0)
(-0.278172 -0.036369 0)
(-0.277074 -0.0741434 0)
(-0.253248 -0.0842473 0)
(-0.233508 -0.133136 0)
(-0.212451 -0.135308 0)
(-0.165947 -0.197632 0)
(-0.163484 -0.205205 0)
(-0.0653993 -0.273066 0)
(-0.0870473 -0.346824 0)
(-0.0359782 0.234069 0)
(-0.0685875 0.234947 0)
(-0.137238 0.244359 0)
(-0.160754 0.194868 0)
(-0.216535 0.187292 0)
(-0.229365 0.137186 0)
(-0.269503 0.120008 0)
(-0.272988 0.0764988 0)
(-0.29703 0.0535987 0)
(-0.292956 0.0171342 0)
(-0.300541 -0.0117286 0)
(-0.290269 -0.041353 0)
(-0.279923 -0.0785835 0)
(-0.264769 -0.100608 0)
(-0.233216 -0.149146 0)
(-0.215615 -0.161473 0)
(-0.157694 -0.219335 0)
(-0.142513 -0.224106 0)
(-0.0564555 -0.266756 0)
(-0.0457548 -0.277986 0)
(-0.0262469 0.488023 0)
(-0.0499643 0.37336 0)
(-0.104062 0.324713 0)
(-0.115006 0.25354 0)
(-0.159099 0.221004 0)
(-0.162445 0.165293 0)
(-0.194915 0.134677 0)
(-0.19288 0.0878176 0)
(-0.212781 0.0555703 0)
(-0.206735 0.0150171 0)
(-0.213193 -0.0212126 0)
(-0.204764 -0.0567969 0)
(-0.196314 -0.0994885 0)
(-0.188139 -0.130807 0)
(-0.161906 -0.18219 0)
(-0.158403 -0.210713 0)
(-0.108852 -0.270676 0)
(-0.115355 -0.306326 0)
(-0.0358398 -0.369789 0)
(-0.0471127 -0.448979 0)
(-0.0325163 0.310415 0)
(-0.0616018 0.310319 0)
(-0.113735 0.308876 0)
(-0.130768 0.249819 0)
(-0.171728 0.234824 0)
(-0.18002 0.173167 0)
(-0.208712 0.150646 0)
(-0.210969 0.0945841 0)
(-0.227151 0.0676743 0)
(-0.225601 0.0177665 0)
(-0.228815 -0.0134979 0)
(-0.225045 -0.0580391 0)
(-0.213738 -0.0950461 0)
(-0.208786 -0.134862 0)
(-0.180043 -0.178764 0)
(-0.174759 -0.214411 0)
(-0.125066 -0.262302 0)
(-0.119981 -0.297021 0)
(-0.0495688 -0.33494 0)
(-0.0409881 -0.360877 0)
(-0.0148916 0.582278 0)
(-0.0265633 0.454389 0)
(-0.0668496 0.393891 0)
(-0.0721755 0.311629 0)
(-0.1045 0.270422 0)
(-0.104704 0.202477 0)
(-0.127318 0.165847 0)
(-0.124071 0.10649 0)
(-0.137158 0.0704319 0)
(-0.132403 0.0169082 0)
(-0.135731 -0.0215629 0)
(-0.131404 -0.0716781 0)
(-0.123563 -0.115583 0)
(-0.121716 -0.16435 0)
(-0.0999018 -0.216104 0)
(-0.1028 -0.265584 0)
(-0.0633437 -0.325384 0)
(-0.0724719 -0.381748 0)
(-0.0151704 -0.448732 0)
(-0.0274316 -0.539487 0)
(-0.0338504 0.352026 0)
(-0.052812 0.359582 0)
(-0.0973125 0.353954 0)
(-0.103129 0.287409 0)
(-0.13364 0.267469 0)
(-0.133349 0.196174 0)
(-0.152793 0.170232 0)
(-0.150307 0.104659 0)
(-0.160723 0.0762398 0)
(-0.158682 0.0165685 0)
(-0.16058 -0.0142845 0)
(-0.160572 -0.0700058 0)
(-0.152504 -0.10456 0)
(-0.154979 -0.158366 0)
(-0.133622 -0.197553 0)
(-0.137719 -0.250856 0)
(-0.0990754 -0.292544 0)
(-0.101974 -0.345116 0)
(-0.0446214 -0.379919 0)
(-0.039151 -0.403415 0)
(-0.00854952 0.669088 0)
(-0.00119378 0.517792 0)
(-0.0327149 0.444249 0)
(-0.0266216 0.348064 0)
(-0.0487134 0.30081 0)
(-0.042144 0.221832 0)
(-0.0555059 0.183025 0)
(-0.0486686 0.114649 0)
(-0.0559074 0.0790328 0)
(-0.0504552 0.0169879 0)
(-0.0525557 -0.0194692 0)
(-0.0502916 -0.079564 0)
(-0.046052 -0.121014 0)
(-0.0486424 -0.183088 0)
(-0.0348396 -0.233253 0)
(-0.0438329 -0.300037 0)
(-0.0164042 -0.361066 0)
(-0.0328477 -0.436142 0)
(0.00814802 -0.511507 0)
(-0.0157604 -0.62321 0)
(-0.0382653 0.361929 0)
(-0.0435602 0.380879 0)
(-0.083229 0.378855 0)
(-0.0731905 0.303369 0)
(-0.0933956 0.283123 0)
(-0.0807124 0.203164 0)
(-0.0904162 0.176977 0)
(-0.0805754 0.105292 0)
(-0.0853611 0.078255 0)
(-0.081283 0.0134397 0)
(-0.0831399 -0.0142418 0)
(-0.0863603 -0.0763178 0)
(-0.0839471 -0.106042 0)
(-0.0946493 -0.16943 0)
(-0.0834283 -0.202242 0)
(-0.0997511 -0.269189 0)
(-0.072739 -0.303449 0)
(-0.0890151 -0.369595 0)
(-0.0393706 -0.396942 0)
(-0.0424551 -0.410956 0)
(-0.000111706 0.75106 0)
(0.0296712 0.562934 0)
(0.00883337 0.47397 0)
(0.0288763 0.358342 0)
(0.0193622 0.308492 0)
(0.0344414 0.219041 0)
(0.0320342 0.18309 0)
(0.0435501 0.109805 0)
(0.0425823 0.0799466 0)
(0.0495984 0.0149674 0)
(0.0477662 -0.0142092 0)
(0.0489493 -0.0785883 0)
(0.0472658 -0.112583 0)
(0.0411982 -0.183483 0)
(0.043628 -0.228058 0)
(0.0285245 -0.310649 0)
(0.0410236 -0.371748 0)
(0.0143516 -0.469455 0)
(0.0390909 -0.558014 0)
(-0.00302335 -0.704979 0)
(-0.0475434 0.332522 0)
(-0.0341249 0.368987 0)
(-0.0676592 0.379154 0)
(-0.0350639 0.292824 0)
(-0.0406446 0.277693 0)
(-0.0112158 0.19068 0)
(-0.00809649 0.168071 0)
(0.0114038 0.0949516 0)
(0.0133252 0.0724075 0)
(0.0206413 0.0084481 0)
(0.018003 -0.0134176 0)
(0.0119995 -0.0756574 0)
(0.00589486 -0.0981535 0)
(-0.0140061 -0.165672 0)
(-0.0178089 -0.189471 0)
(-0.0503411 -0.2665 0)
(-0.0397945 -0.289203 0)
(-0.0775203 -0.36759 0)
(-0.0342114 -0.379496 0)
(-0.0531421 -0.374805 0)
(0.017396 0.832868 0)
(0.0712684 0.583558 0)
(0.0714947 0.475052 0)
(0.104122 0.331433 0)
(0.114214 0.284778 0)
(0.135924 0.186652 0)
(0.148056 0.160637 0)
(0.162659 0.0885549 0)
(0.16904 0.0708719 0)
(0.176973 0.0104455 0)
(0.174816 -0.00543001 0)
(0.175698 -0.0663558 0)
(0.165834 -0.0864767 0)
(0.158591 -0.159692 0)
(0.14512 -0.19166 0)
(0.127139 -0.288606 0)
(0.11775 -0.344524 0)
(0.0829106 -0.47498 0)
(0.0826115 -0.582328 0)
(0.0190507 -0.792263 0)
(-0.0718321 0.243994 0)
(-0.0197751 0.311966 0)
(-0.0406142 0.345875 0)
(0.0258066 0.250124 0)
(0.0452992 0.246025 0)
(0.0948936 0.157003 0)
(0.116549 0.141502 0)
(0.146061 0.0741288 0)
(0.156754 0.0582408 0)
(0.167677 0.00280932 0)
(0.164132 -0.0120237 0)
(0.15682 -0.0665702 0)
(0.13942 -0.0809591 0)
(0.111985 -0.144882 0)
(0.085456 -0.157955 0)
(0.0351532 -0.239068 0)
(0.0156672 -0.244912 0)
(-0.054071 -0.332376 0)
(-0.0255153 -0.315557 0)
(-0.079652 -0.273047 0)
(0.0619567 0.924603 0)
(0.123143 0.553251 0)
(0.173823 0.429612 0)
(0.203692 0.24559 0)
(0.245967 0.215775 0)
(0.263387 0.115507 0)
(0.293513 0.109576 0)
(0.304255 0.0484565 0)
(0.318334 0.0493493 0)
(0.324015 0.00315264 0)
(0.321447 0.00549492 0)
(0.322665 -0.0415845 0)
(0.304069 -0.0415999 0)
(0.300472 -0.105691 0)
(0.267738 -0.1148 0)
(0.256693 -0.218781 0)
(0.214886 -0.25526 0)
(0.186458 -0.433728 0)
(0.137837 -0.556663 0)
(0.0650555 -0.897344 0)
(-0.104759 0.0590023 0)
(0.0337891 0.197344 0)
(0.0630513 0.265082 0)
(0.170393 0.178068 0)
(0.234761 0.186473 0)
(0.298827 0.109591 0)
(0.344533 0.100746 0)
(0.377818 0.0494033 0)
(0.398353 0.0385567 0)
(0.410538 -0.000242036 0)
(0.407156 -0.0106302 0)
(0.401428 -0.0491569 0)
(0.373416 -0.058741 0)
(0.346317 -0.108525 0)
(0.291198 -0.114151 0)
(0.232757 -0.186173 0)
(0.157408 -0.174618 0)
(0.0555484 -0.255244 0)
(0.0189215 -0.194064 0)
(-0.106911 -0.070045 0)
(0.170698 0.99568 0)
(0.143928 0.386681 0)
(0.302877 0.293029 0)
(0.279829 0.0738794 0)
(0.365872 0.0873421 0)
(0.353836 0.00576232 0)
(0.399446 0.0306069 0)
(0.394159 -0.00534668 0)
(0.413206 0.0166308 0)
(0.412157 -0.00565624 0)
(0.410261 0.0145865 0)
(0.41286 -0.00786472 0)
(0.390492 0.0134856 0)
(0.397679 -0.023488 0)
(0.351098 -0.0012474 0)
(0.364982 -0.0849715 0)
(0.285245 -0.0780082 0)
(0.304643 -0.295154 0)
(0.164565 -0.394086 0)
(0.163484 -0.985221 0)
(0.137039 -0.255561 0)
(0.307182 0.0629049 0)
(0.517166 0.1293 0)
(0.618228 0.115263 0)
(0.728524 0.112631 0)
(0.779181 0.0761091 0)
(0.831667 0.0604662 0)
(0.853841 0.0356568 0)
(0.873735 0.0205478 0)
(0.881345 0.00267981 0)
(0.878768 -0.0113664 0)
(0.876721 -0.0294198 0)
(0.850772 -0.0435912 0)
(0.83571 -0.0691449 0)
(0.773506 -0.0814502 0)
(0.732777 -0.120283 0)
(0.605004 -0.114209 0)
(0.518044 -0.134457 0)
(0.285319 -0.0527906 0)
(0.139086 0.258139 0)
(0.232882 0.551536 0)
(0.0630916 0.00762683 0)
(0.303495 -0.0180662 0)
(0.174407 -0.137626 0)
(0.281211 -0.0737451 0)
(0.213359 -0.0974786 0)
(0.259899 -0.0441492 0)
(0.229722 -0.0475088 0)
(0.248087 -0.0109732 0)
(0.23933 -0.010788 0)
(0.240013 0.0191113 0)
(0.247107 0.020046 0)
(0.230678 0.0544219 0)
(0.257982 0.0537315 0)
(0.215328 0.101667 0)
(0.278275 0.0835575 0)
(0.178706 0.136794 0)
(0.30098 0.0246548 0)
(0.0690383 -0.0149607 0)
(0.233343 -0.560669 0)
)
;

boundaryField
{
    cavity
    {
        type            myImplicitVelocity;
    }
    lid
    {
        type            fixedValue;
        value           uniform (1 0 0);
    }
    frontAndBack
    {
        type            empty;
    }
}


// ************************************************************************* //
