/*--------------------------------*- C++ -*----------------------------------*\
| =========                 |                                                 |
| \\      /  F ield         | foam-extend: Open Source CFD                    |
|  \\    /   O peration     | Version:  3.0                                   |
|   \\  /    A nd           | Web:         http://www.extend-project.de       |
|    \\/     M anipulation  |                                                 |
\*---------------------------------------------------------------------------*/
FoamFile
{
    version     2.0;
    format      ascii;
    class       volSymmTensorField;
    location    "26";
    object      sigma;
}
// * * * * * * * * * * * * * * * * * * * * * * * * * * * * * * * * * * * * * //

dimensions      [0 0 0 0 0 0 0];

internalField   nonuniform List<symmTensor> 
2688
(
(-0.1774060903 -0.00484594302 4.29625644e-20 0.1774087754 7.74294184e-22 -2.685143858e-06)
(-0.1738906929 -0.005728277923 6.434058739e-20 0.1738983507 6.152232845e-21 -7.657888277e-06)
(-0.1665473715 -0.006120177422 1.154724922e-20 0.1665596781 4.96392343e-20 -1.230660925e-05)
(-0.1573085332 -0.006220120885 -6.438020872e-22 0.1573250737 6.292068815e-20 -1.654049367e-05)
(-0.1472607042 -0.006145621716 2.170684014e-20 0.147280968 8.016847277e-20 -2.026378457e-05)
(-0.1370068126 -0.005967607129 3.815578144e-20 0.1370302144 6.127235087e-20 -2.340178172e-05)
(-0.1268920872 -0.0057300877 4.862013355e-20 0.1269179652 7.496510588e-20 -2.587799299e-05)
(-0.1171020847 -0.005460633527 2.225618596e-20 0.1171297139 4.139123033e-20 -2.762925191e-05)
(-0.1077387943 -0.005176822199 -3.130308574e-21 0.1077673857 3.530048465e-20 -2.859140607e-05)
(-0.0988491362 -0.00488998997 8.888747491e-21 0.09887785517 5.316955172e-21 -2.871896799e-05)
(-0.09045306231 -0.004607401453 2.347405436e-20 0.09048102982 5.075713162e-20 -2.796751291e-05)
(-0.0825532113 -0.004333946503 3.33108677e-20 0.08257952977 6.901326995e-20 -2.631846552e-05)
(-0.07514436723 -0.00407267241 6.299150303e-20 0.07516813169 5.118182548e-20 -2.376446402e-05)
(-0.06821923879 -0.003825890053 3.48092528e-20 0.06823957754 6.655509606e-20 -2.033874645e-05)
(-0.06176874447 -0.003594930777 -3.109094838e-20 0.06178484903 8.550298474e-20 -1.610455806e-05)
(-0.05578891505 -0.003381180562 -1.478370657e-21 0.05580010624 9.135448894e-20 -1.119119086e-05)
(-0.05027525431 -0.003185357326 2.685952817e-20 0.05028104029 7.772372024e-20 -5.785980868e-06)
(-0.04523271089 -0.0030086875 -7.625389119e-21 0.045232888 1.186406004e-19 -1.771075185e-07)
(-0.04066512202 -0.002851794732 -1.043220736e-22 0.04065986666 8.712359186e-20 5.255358677e-06)
(-0.03658928604 -0.002716138545 3.540472353e-20 0.03657929453 9.832541746e-20 9.991505317e-06)
(-0.03301959511 -0.002602538698 4.297367249e-20 0.03300621352 1.503705191e-20 1.338159349e-05)
(-0.02998703803 -0.002512924365 1.792957534e-20 0.02997245007 2.794103295e-20 1.458795481e-05)
(-0.02751889462 -0.00244875248 1.712082382e-21 0.02750630255 -4.823848981e-21 1.259206321e-05)
(-0.02566147432 -0.002411075227 -2.778976877e-21 0.02565536125 -5.561668033e-20 6.11307245e-06)
(-0.1769065879 -0.01452766473 3.750715279e-20 0.1769092663 -1.489358851e-21 -2.678412461e-06)
(-0.1729646698 -0.01713497853 7.364719347e-20 0.1729723031 2.915881644e-21 -7.633330591e-06)
(-0.1653777695 -0.01828695334 3.644680364e-20 0.1653900413 2.248713238e-20 -1.227184365e-05)
(-0.156007789 -0.01857296657 5.02573569e-21 0.1560242803 4.890677746e-20 -1.649124727e-05)
(-0.1458990735 -0.01834192266 1.48002455e-20 0.1459192776 6.847207101e-20 -2.020415182e-05)
(-0.1356285214 -0.01780434408 3.599069655e-20 0.1356518514 4.600679248e-20 -2.332995248e-05)
(-0.12552499 -0.01709082455 3.969294205e-20 0.1255507867 7.880384779e-20 -2.579671923e-05)
(-0.1157634669 -0.01628314785 -4.124291696e-21 0.1157910078 2.882843783e-20 -2.754088309e-05)
(-0.1064390507 -0.01543343938 -3.336424856e-20 0.1064675494 5.698428587e-20 -2.849862625e-05)
(-0.09759404477 -0.01457529577 1.255597111e-20 0.09762267001 1.264852107e-20 -2.862524215e-05)
(-0.08924534839 -0.01373023493 5.779846383e-20 0.08927322513 2.989248563e-20 -2.787674364e-05)
(-0.08139344377 -0.01291272944 3.881640354e-20 0.08141967855 1.870661046e-20 -2.62347833e-05)
(-0.07403170612 -0.01213179231 5.947339055e-20 0.07405539784 3.027636997e-21 -2.369171677e-05)
(-0.06715174464 -0.01139425594 7.078623579e-20 0.06717202482 4.197141605e-20 -2.028017287e-05)
(-0.06074379922 -0.01070405148 3.404108001e-20 0.06075986152 6.977421685e-20 -1.606229172e-05)
(-0.05480324722 -0.01006527516 2.700800298e-20 0.0548144132 1.3250488e-19 -1.116598313e-05)
(-0.04932523341 -0.00948004335 8.533360188e-20 0.04933101059 2.361093885e-20 -5.777182067e-06)
(-0.04431420863 -0.008951988872 3.410715806e-20 0.04431439186 1.690926474e-19 -1.832322795e-07)
(-0.039773768 -0.008482967087 2.189643687e-20 0.03976853189 1.80266443e-19 5.236105575e-06)
(-0.03572021367 -0.00807732748 3.477930982e-20 0.03571025269 3.96602998e-20 9.960985167e-06)
(-0.03216770928 -0.007737514079 -3.317218604e-20 0.03215436684 3.289168838e-20 1.334243763e-05)
(-0.02914668191 -0.007469253763 1.534290391e-20 0.02913213667 1.373299968e-19 1.454524041e-05)
(-0.02668402624 -0.007276884395 -7.06486558e-20 0.02667147197 9.160728885e-20 1.255426622e-05)
(-0.02482602357 -0.007163585785 3.119885379e-20 0.02481992913 -5.312650875e-20 6.094440575e-06)
(-0.175907514 -0.02417839242 2.597249025e-20 0.1759101717 2.634889565e-20 -2.657670981e-06)
(-0.1711262808 -0.0283927872 5.976663257e-20 0.1711338553 3.25626055e-21 -7.574523619e-06)
(-0.1630604686 -0.03023436184 3.949700108e-20 0.1630726445 -3.146611479e-20 -1.217595233e-05)
(-0.1534331674 -0.03066539232 2.68547054e-20 0.1534495325 1.461623539e-20 -1.636506788e-05)
(-0.1432054728 -0.03025534128 1.626773587e-20 0.1432255275 5.949057126e-20 -2.005463015e-05)
(-0.1329030573 -0.02934762783 4.143695801e-20 0.1329262198 5.142166016e-20 -2.316252809e-05)
(-0.1228224641 -0.02815518036 4.817832409e-20 0.1228480817 8.867867872e-20 -2.561767865e-05)
(-0.1131178659 -0.02681123833 -5.326994563e-21 0.1131452214 8.666925889e-20 -2.735548557e-05)
(-0.103870798 -0.02540066581 -1.311615345e-20 0.1038991097 9.56173453e-20 -2.831169653e-05)
(-0.09511447463 -0.02397809311 -3.731892309e-20 0.09514291601 9.510270718e-20 -2.844137663e-05)
(-0.08685978427 -0.02257847366 1.28679401e-20 0.08688748453 1.115403912e-19 -2.770025988e-05)
(-0.07910296406 -0.02122527842 4.732584434e-21 0.07912903376 3.688344322e-20 -2.606970424e-05)
(-0.07183461694 -0.01993310063 7.541470322e-20 0.07185815891 -1.470332746e-20 -2.354197131e-05)
(-0.06504418897 -0.01871299119 1.137863046e-19 0.0650643386 9.191099868e-21 -2.014962601e-05)
(-0.05872058484 -0.01757129121 7.384148414e-20 0.05873653976 7.058036371e-20 -1.595491937e-05)
(-0.05285789357 -0.01651462708 1.487759605e-20 0.05286897913 9.198688676e-20 -1.10855638e-05)
(-0.0474505484 -0.01554641336 5.536866056e-20 0.0474562755 6.09804615e-20 -5.727105115e-06)
(-0.04250201433 -0.01467255721 2.701634274e-19 0.04250218013 1.621262309e-20 -1.658057777e-07)
(-0.03801540832 -0.01389608259 -2.212614675e-20 0.03801018793 6.274214929e-20 5.22038777e-06)
(-0.0340060613 -0.01322410399 -1.053288353e-19 0.03399614665 5.213513868e-20 9.914649232e-06)
(-0.03048769388 -0.01266063762 1.729134902e-19 0.03047442168 2.480950181e-20 1.327220501e-05)
(-0.02748962702 -0.01221507403 2.14722265e-19 0.0274751632 -1.965393943e-20 1.446382585e-05)
(-0.02503798898 -0.01189454244 -1.527525742e-19 0.02502550774 1.322833982e-19 1.248124651e-05)
(-0.023178998 -0.01170436617 -2.715992878e-20 0.02317293991 -5.748145154e-20 6.058089351e-06)
(-0.1744087248 -0.03377710482 -1.241642831e-22 0.1744113524 4.346744563e-20 -2.627653199e-06)
(-0.168402391 -0.03940596194 2.577684264e-20 0.1684098824 -3.535470395e-20 -7.4913889e-06)
(-0.1596387349 -0.04182201751 4.177220149e-20 0.1596507778 -8.733169137e-20 -1.204295858e-05)
(-0.1496376624 -0.04233104321 5.577744744e-20 0.1496538513 5.357184846e-22 -1.618894377e-05)
(-0.1392384329 -0.04170535513 4.374062421e-20 0.1392582767 3.457615478e-20 -1.984371568e-05)
(-0.1288917601 -0.04041031099 5.15716497e-20 0.128914684 6.282835526e-20 -2.292396561e-05)
(-0.1188469175 -0.03873422922 8.859968926e-20 0.118872277 7.535781092e-20 -2.535945958e-05)
(-0.1092276432 -0.03685729554 6.074179944e-21 0.1092547286 1.307696728e-19 -2.708538351e-05)
(-0.1000956388 -0.03489415443 4.004745193e-21 0.100123676 5.827841637e-20 -2.80372253e-05)
(-0.09147082862 -0.03291846587 5.384433691e-20 0.09149899858 4.438647384e-20 -2.816996731e-05)
(-0.08335531554 -0.03097728276 4.241711574e-20 0.08338275464 6.329393429e-20 -2.74391046e-05)
(-0.07573913521 -0.02910212003 -7.005920629e-20 0.07576496102 8.808427128e-21 -2.582580586e-05)
(-0.06860884273 -0.02731252098 -2.028269271e-20 0.06863216484 6.299526744e-20 -2.33221101e-05)
(-0.06195072632 -0.02562326016 1.538497626e-19 0.06197068668 1.070210497e-20 -1.996036036e-05)
(-0.05575174255 -0.02404277867 1.201376105e-19 0.05576754506 1.837374128e-19 -1.580251343e-05)
(-0.05000409982 -0.02257993873 9.098130691e-20 0.05001507545 -9.594648372e-21 -1.097562637e-05)
(-0.04470119452 -0.02123928888 2.69541422e-20 0.04470685864 -7.235086736e-20 -5.664124299e-06)
(-0.03984505294 -0.02002879427 7.678043421e-20 0.0398452053 -1.336018978e-19 -1.523560954e-07)
(-0.03543809461 -0.01895254419 1.83907479e-19 0.03543290989 -1.036758083e-19 5.184723611e-06)
(-0.03149422745 -0.01802021478 7.337287725e-21 0.0314843927 -6.441231065e-21 9.834746352e-06)
(-0.02802651694 -0.01723730654 -1.408314322e-19 0.02801335795 1.095817154e-20 1.315898568e-05)
(-0.02506266177 -0.01661665466 2.199765274e-19 0.02504832498 -3.046305848e-20 1.43367881e-05)
(-0.02262766321 -0.01616803475 6.648369517e-20 0.02261529361 1.291845581e-19 1.236960335e-05)
(-0.02076763726 -0.01589894417 -2.023482968e-20 0.02076163411 -2.914570665e-20 6.003154551e-06)
(-0.1724101463 -0.04330226267 -4.461790375e-20 0.1724127358 5.73404844e-20 -2.589475405e-06)
(-0.1648324888 -0.05008390557 -4.993144743e-20 0.1648398735 -2.332773204e-20 -7.384676629e-06)
(-0.15517602 -0.05291813717 2.940875181e-20 0.1551878928 -6.004509247e-20 -1.187284021e-05)
(-0.1446989742 -0.05341423961 8.970114979e-20 0.1447149369 1.781336824e-20 -1.596267486e-05)
(-0.1340837381 -0.05252330589 5.783832041e-20 0.1341033089 3.695453552e-20 -1.957076845e-05)
(-0.1236845444 -0.05081773371 7.679162236e-20 0.1237071577 4.411035282e-20 -2.261330188e-05)
(-0.1136898385 -0.04865178724 1.353949508e-19 0.1137148595 2.966576482e-20 -2.50210329e-05)
(-0.1041842106 -0.04624646878 2.533579217e-20 0.1042109399 1.246684568e-19 -2.672930835e-05)
(-0.09520385555 -0.04374218239 -6.630012277e-20 0.09523152924 3.327399873e-20 -2.767369249e-05)
(-0.08675161438 -0.04122889415 -2.518689039e-20 0.08677942356 2.48057943e-20 -2.780918431e-05)
(-0.07881830137 -0.03876394069 4.840481546e-20 0.07884539263 -8.498111103e-21 -2.709126273e-05)
(-0.07138598968 -0.0363855836 9.903512056e-21 0.07141149057 9.449546921e-21 -2.550088529e-05)
(-0.0644360399 -0.03411746023 3.25163394e-20 0.0644590698 1.039019521e-19 -2.302990911e-05)
(-0.05795068922 -0.03197739662 1.833558838e-19 0.05797039941 4.330238819e-20 -1.971018078e-05)
(-0.05191439681 -0.02997551303 1.774385333e-19 0.05192999991 5.975144984e-20 -1.560309645e-05)
(-0.04631695856 -0.02812250806 -1.445334831e-19 0.04632779301 -2.636224454e-19 -1.083444963e-05)
(-0.04115044215 -0.02642384122 -8.10000496e-20 0.04115602906 -1.363747934e-19 -5.586917674e-06)
(-0.03641502637 -0.024889241 9.872000821e-20 0.03641516826 3.860744327e-20 -1.418934384e-07)
(-0.03211223512 -0.02352372075 3.952608654e-20 0.03210710536 6.118387987e-20 5.129760574e-06)
(-0.02825414263 -0.0223392421 1.047402311e-19 0.02824442095 2.558021653e-20 9.721676794e-06)
(-0.02485296449 -0.02134267123 9.498641563e-20 0.02483996154 1.605969617e-19 1.300294751e-05)
(-0.02193430102 -0.02054999015 2.741388018e-19 0.02192013737 1.655959838e-19 1.416365324e-05)
(-0.0195216976 -0.01997342164 1.177827014e-19 0.0195094793 -1.145312714e-20 1.221830371e-05)
(-0.01766111887 -0.01962267711 -1.247365023e-19 0.01765518992 2.82692914e-19 5.928956182e-06)
(-0.1699118961 -0.05273163516 -5.276933341e-20 0.1699144396 1.537268668e-20 -2.543518162e-06)
(-0.1604676612 -0.06034304764 -1.064374366e-19 0.1604749165 1.693170781e-20 -7.255232239e-06)
(-0.1497542705 -0.06340265826 1.130802088e-20 0.1497659368 -2.930803623e-20 -1.166634018e-05)
(-0.1387173956 -0.06377383081 1.013596719e-19 0.1387330829 3.50083161e-20 -1.568735327e-05)
(-0.1278520898 -0.06255667641 7.886242401e-20 0.127871327 7.577665772e-21 -1.923717871e-05)
(-0.1173974219 -0.06041221867 5.585335841e-20 0.1174196541 1.230234256e-21 -2.223217848e-05)
(-0.1074692522 -0.0577489974 1.762864896e-19 0.1074938565 6.694392424e-21 -2.460426743e-05)
(-0.09810548124 -0.05482125672 1.545571812e-19 0.09813177056 -4.753124923e-20 -2.628931915e-05)
(-0.08931189461 -0.05179019237 1.92413298e-20 0.08933911781 -1.605301372e-19 -2.722320076e-05)
(-0.08107098076 -0.04875871193 -4.673718605e-20 0.08109834196 1.216809667e-19 -2.736120009e-05)
(-0.07336011309 -0.04579219334 1.482358759e-22 0.07338677198 5.211375324e-20 -2.665888984e-05)
(-0.06615189183 -0.04293404337 1.630563361e-20 0.06617698899 5.225713831e-20 -2.509715842e-05)
(-0.05942150274 -0.04021093648 4.32766991e-21 0.05944417033 1.082986025e-19 -2.266758221e-05)
(-0.0531463694 -0.03764292032 6.897679303e-20 0.05316577078 1.343078564e-19 -1.940137783e-05)
(-0.04730798661 -0.03524127483 8.943613033e-21 0.04732334557 -9.844239481e-21 -1.535895983e-05)
(-0.0418932836 -0.03301804172 -2.437931157e-19 0.04190394795 6.950392457e-20 -1.066435284e-05)
(-0.03689275157 -0.03097931596 5.06066042e-20 0.03689824924 3.141753379e-19 -5.497671183e-06)
(-0.03230436937 -0.02913622586 1.976538202e-19 0.03230450582 2.120775749e-19 -1.364551666e-07)
(-0.02812859402 -0.02749453477 1.287744289e-19 0.02812354025 2.055347941e-19 5.053765945e-06)
(-0.0243753069 -0.02606814869 3.48154553e-20 0.02436573282 2.268350175e-19 9.574080612e-06)
(-0.02105570156 -0.02486515197 1.494143887e-20 0.02104289836 3.111243604e-19 1.280320774e-05)
(-0.01819285907 -0.02390430331 6.037075841e-20 0.01817891481 4.598825539e-19 1.394426213e-05)
(-0.01580857642 -0.02320002648 3.822102247e-19 0.01579654877 3.480601276e-19 1.202765232e-05)
(-0.01394860577 -0.0227642963 -1.639171583e-20 0.01394276987 4.172473056e-19 5.835896488e-06)
(-0.1669144534 -0.0620421512 -2.341984495e-20 0.1669169434 -2.898064074e-20 -2.489933508e-06)
(-0.155369303 -0.07010851713 -1.137842969e-19 0.1553764067 2.522001995e-21 -7.103689934e-06)
(-0.143471754 -0.07317002011 -2.524758033e-20 0.1434831782 -5.344479601e-21 -1.142421261e-05)
(-0.1318131053 -0.0732866418 1.370590097e-19 0.1318284692 -4.166263245e-20 -1.536390763e-05)
(-0.1206760901 -0.07167291914 1.017439079e-19 0.1206949342 -8.882327861e-20 -1.884408674e-05)
(-0.1101693225 -0.06905710065 2.104965471e-20 0.1101911042 7.050130336e-20 -2.178178444e-05)
(-0.1003264748 -0.06588843965 9.953211974e-20 0.1003505852 1.953215424e-21 -2.411038086e-05)
(-0.091132618 -0.06244562157 4.864556063e-20 0.09115838453 -2.21217084e-19 -2.576653292e-05)
(-0.08255914758 -0.0589048621 4.367941837e-20 0.08258583434 -8.036641855e-20 -2.668676359e-05)
(-0.07456555651 -0.05537810252 2.177851067e-19 0.07459238333 4.42141226e-20 -2.682681938e-05)
(-0.06711404317 -0.05193615821 -2.177942001e-22 0.06714018582 -1.09574222e-20 -2.614264075e-05)
(-0.06016652494 -0.04862572183 2.866234396e-20 0.06019114001 1.31155169e-19 -2.461506678e-05)
(-0.05369123082 -0.04547527845 8.124330463e-20 0.05371346628 2.196311707e-19 -2.22354658e-05)
(-0.04766016456 -0.04250613437 1.084048792e-19 0.04767919874 1.741683308e-19 -1.903417094e-05)
(-0.04205148794 -0.03973012657 1.990939929e-19 0.04206655828 7.231521291e-21 -1.507034076e-05)
(-0.03684890232 -0.03716006719 1.532100297e-20 0.03685936791 2.427392051e-19 -1.046559161e-05)
(-0.03204112642 -0.03480236706 5.694610154e-20 0.0320465232 7.41435163e-20 -5.39678014e-06)
(-0.02762365458 -0.03266913176 7.018490396e-20 0.02762379109 -1.544062155e-21 -1.365108204e-07)
(-0.02359573768 -0.03076667281 2.226753298e-19 0.02359078153 -1.561364781e-20 4.956144651e-06)
(-0.01996476752 -0.02911044387 3.496419802e-19 0.01995537626 5.096924793e-20 9.391258557e-06)
(-0.01674077006 -0.02770957605 5.870904901e-19 0.01672821104 -6.682244839e-21 1.25590162e-05)
(-0.01394395321 -0.02658517321 4.409385444e-19 0.0139302753 3.839722089e-19 1.36779055e-05)
(-0.01159411548 -0.02575357306 4.155740322e-19 0.01158231821 2.803249416e-19 1.179726498e-05)
(-0.009736722098 -0.02522906832 -1.097253408e-19 0.009730998355 -3.97686606e-20 5.723742322e-06)
(-0.1634188687 -0.07120978253 -1.134225012e-20 0.1634212976 -5.793776791e-21 -2.42887594e-06)
(-0.149607577 -0.07931558232 -8.148868942e-20 0.1496145076 -1.970420292e-20 -6.930576378e-06)
(-0.1364404548 -0.0821315476 -3.393705501e-20 0.1364516019 -7.985752984e-20 -1.114715381e-05)
(-0.1241229259 -0.08185041997 7.469175966e-20 0.1241379191 -1.032246592e-19 -1.49931896e-05)
(-0.1127066304 -0.07976272621 1.798299865e-19 0.1127250229 -6.339239657e-20 -1.839248649e-05)
(-0.102158289 -0.07664016424 1.160526293e-19 0.1021795522 9.44769345e-20 -2.126318544e-05)
(-0.09242222836 -0.07295763695 -1.476174285e-20 0.09244576874 -1.293629239e-20 -2.35403855e-05)
(-0.0834261411 -0.06900849798 1.884495027e-20 0.08345130296 -1.179947486e-19 -2.516186071e-05)
(-0.07510409802 -0.06497757468 3.15762665e-20 0.07513016306 1.192640506e-19 -2.606504118e-05)
(-0.06739066449 -0.06098150448 8.083698052e-20 0.06741687092 2.766630138e-20 -2.620643156e-05)
(-0.06023160505 -0.05709365069 8.871555075e-20 0.06025714755 7.305630665e-20 -2.554250078e-05)
(-0.05357728435 -0.05336192963 2.37628035e-19 0.05360133857 1.06454711e-19 -2.405421797e-05)
(-0.04738841837 -0.04981527685 1.110013346e-19 0.04741015108 1.544775103e-19 -2.173270418e-05)
(-0.04163116212 -0.04647518966 -5.29941343e-20 0.04164976944 5.698528553e-20 -1.860732262e-05)
(-0.03628008717 -0.04335339412 6.027774166e-20 0.03629482277 5.199374265e-20 -1.473560476e-05)
(-0.03131541112 -0.04046283786 5.772004867e-20 0.03132564739 4.356876199e-20 -1.023626522e-05)
(-0.0267239435 -0.03780989318 -6.855091392e-20 0.02672922558 -4.611981292e-20 -5.282083982e-06)
(-0.02249848606 -0.0354071741 1.232536727e-19 0.02249862584 -8.810210731e-20 -1.397797739e-07)
(-0.01863698095 -0.03326131633 1.42300626e-19 0.01863214166 -1.229176328e-19 4.839294617e-06)
(-0.01514410432 -0.03138888036 1.709679622e-21 0.01513492866 -1.148624439e-19 9.175658819e-06)
(-0.01202859867 -0.02979985286 3.550182389e-19 0.01201632595 -2.743076992e-21 1.227271934e-05)
(-0.009307520982 -0.02851720215 8.878589984e-19 0.009294154171 -4.473530819e-20 1.336681089e-05)
(-0.006998469871 -0.0275588595 6.44122716e-19 0.0069869409 -3.285547635e-19 1.152897151e-05)
(-0.0051465332 -0.02694149408 3.050889835e-20 0.00514093961 -1.782726588e-19 5.593590567e-06)
(-0.1594269932 -0.08020947401 4.793837331e-20 0.1594293536 -8.816394258e-20 -2.360446041e-06)
(-0.1432596639 -0.08791081421 -7.436603501e-20 0.1432664003 -9.708996236e-20 -6.736364304e-06)
(-0.1287831159 -0.09021736606 -2.270997171e-20 0.1287939519 -1.95624058e-19 -1.08359414e-05)
(-0.115796641 -0.08938620011 -4.66568732e-21 0.1158112172 4.796057265e-20 -1.457620178e-05)
(-0.1041087914 -0.08674265132 1.781395934e-19 0.104126675 2.424290133e-20 -1.788360723e-05)
(-0.09353715693 -0.08307639949 2.076651367e-19 0.09355783466 2.15568399e-20 -2.067773198e-05)
(-0.08393222837 -0.0788718639 -1.112697983e-20 0.08395512408 -4.30186247e-20 -2.289570902e-05)
(-0.0751615068 -0.07442660331 -1.679913568e-20 0.07518598348 -1.219651515e-21 -2.447667869e-05)
(-0.06711994433 -0.06992719721 1.476490576e-19 0.06714530365 9.88484875e-20 -2.535932506e-05)
(-0.05971602196 -0.06549033837 6.953204022e-20 0.05974152305 1.665248368e-19 -2.550109559e-05)
(-0.05287832934 -0.06118884737 2.373969978e-20 0.05290318861 4.67587108e-20 -2.485927693e-05)
(-0.04654517983 -0.05706965939 1.640189082e-19 0.04656859485 7.319771678e-20 -2.34150239e-05)
(-0.04066946576 -0.05316070698 2.806529873e-19 0.04069062509 1.134605716e-19 -2.115932998e-05)
(-0.03521125781 -0.04948253783 8.641562551e-20 0.0352293782 7.675445288e-20 -1.812039468e-05)
(-0.03014140169 -0.04604605381 1.188895604e-19 0.03015575561 1.491003635e-19 -1.435392492e-05)
(-0.02543649026 -0.04286365952 3.85278369e-20 0.02544646542 1.114315683e-19 -9.975161357e-06)
(-0.02108135121 -0.03994131026 -1.240167439e-19 0.02108650338 2.891783819e-20 -5.152171309e-06)
(-0.01706596956 -0.03729162673 -2.44677382e-19 0.0170661143 1.231140907e-19 -1.447415481e-07)
(-0.01338691563 -0.03492132909 3.597022338e-20 0.01338221098 2.137069465e-19 4.704644869e-06)
(-0.01004600132 -0.03284761205 1.858907246e-19 0.01003707289 2.374645449e-19 8.928425805e-06)
(-0.007050602565 -0.03108111241 9.85288233e-20 0.007038657454 2.333002875e-19 1.194511088e-05)
(-0.004414429925 -0.02964614616 -4.461513749e-20 0.004401418853 -5.658704826e-20 1.301107169e-05)
(-0.002152734849 -0.02856189314 4.274483204e-19 0.002141512629 -2.590146414e-19 1.122222007e-05)
(-0.0003101215258 -0.02784745613 2.965397041e-19 0.0003046769356 -3.375596678e-19 5.444590122e-06)
(-0.1549417354 -0.08901511184 8.78035637e-20 0.1549440203 -7.854352037e-20 -2.284917263e-06)
(-0.1364078514 -0.09585294615 -3.397253107e-21 0.1364143732 -1.794923293e-19 -6.521773249e-06)
(-0.1206300097 -0.09737779961 -7.829855524e-20 0.1206405014 -8.262076181e-21 -1.04916933e-05)
(-0.1069929746 -0.09584002318 5.432531677e-20 0.107007089 1.41277234e-19 -1.411441272e-05)
(-0.09505736629 -0.0925570114 9.651056357e-20 0.09507468551 3.375857257e-20 -1.731922184e-05)
(-0.08448883847 -0.08830999749 2.432803876e-19 0.08450886592 -4.139969735e-20 -2.002745487e-05)
(-0.07504236807 -0.08357617942 4.679480314e-20 0.07506454659 -5.085332432e-20 -2.217851445e-05)
(-0.06652428218 -0.07864646996 4.742840449e-21 0.06654799539 2.5084787e-20 -2.371321522e-05)
(-0.05878982329 -0.07370208949 1.67023764e-19 0.05881439502 1.077727383e-19 -2.457173735e-05)
(-0.05172104852 -0.06885497703 1.401988e-19 0.05174576127 1.319465976e-19 -2.471275374e-05)
(-0.04522917756 -0.06417420935 -1.483592314e-20 0.0452532721 4.206548657e-20 -2.409453861e-05)
(-0.03924036519 -0.05970345808 1.918515073e-19 0.03926306381 1.063616175e-19 -2.269862455e-05)
(-0.03369962841 -0.05546814899 3.173161506e-19 0.0337201443 -3.806107522e-20 -2.051588109e-05)
(-0.02856092172 -0.05148670034 2.262761119e-19 0.02857849503 -1.727345471e-19 -1.757331423e-05)
(-0.02379135753 -0.04776845258 2.836004123e-19 0.02380528204 -8.483653846e-20 -1.392451129e-05)
(-0.01936388387 -0.04432456541 1.885083117e-19 0.0193735647 -9.672505087e-20 -9.680833696e-06)
(-0.01526134193 -0.04116018589 6.316709595e-20 0.01526634684 -4.418588514e-20 -5.00490957e-06)
(-0.01147086378 -0.03828742145 2.737665662e-19 0.0114710125 -3.69753066e-20 -1.487166276e-07)
(-0.007987626827 -0.03571282804 -5.970097751e-20 0.007983071516 2.315024207e-19 4.555310948e-06)
(-0.004810511344 -0.03345374353 -9.270905399e-21 0.00480185833 1.79206967e-19 8.653014643e-06)
(-0.001945477856 -0.03152124061 1.679517274e-19 0.00193389817 3.118441825e-19 1.157968635e-05)
(0.000597217721 -0.02994044485 -1.70170759e-19 -0.0006098319817 2.720619665e-19 1.261426076e-05)
(0.002804762017 -0.02873142448 -4.352457814e-19 -0.002815642087 -2.148910574e-19 1.08800702e-05)
(0.004633159546 -0.02791577111 1.681881558e-19 -0.004638438101 -1.097612288e-19 5.278554848e-06)
(-0.1499673233 -0.097599545 3.674228282e-20 0.1499695259 -5.713490126e-21 -2.202509578e-06)
(-0.1291375144 -0.1031134053 -5.687197388e-21 0.1291438018 -5.127276991e-20 -6.28749266e-06)
(-0.1121155278 -0.1035842122 -6.382618268e-20 0.1121256433 1.727861841e-19 -1.011554955e-05)
(-0.09787534782 -0.101183961 4.968111933e-20 0.09788895718 7.639457207e-20 -1.360935228e-05)
(-0.08573213745 -0.09717901515 2.595958156e-20 0.08574883868 2.492256314e-22 -1.670123025e-05)
(-0.07520134521 -0.09231553151 2.715121883e-19 0.07522065975 -1.143917828e-19 -1.931454481e-05)
(-0.06594363592 -0.08704662687 1.530910991e-19 0.06596502717 -8.882699482e-20 -2.139124394e-05)
(-0.05770505296 -0.08164564361 1.618165178e-19 0.05772792701 -1.30251709e-19 -2.287404208e-05)
(-0.05030176916 -0.07628128628 3.218778917e-19 0.05032547409 -4.508718943e-20 -2.370492922e-05)
(-0.0435899143 -0.07105590394 3.548029302e-19 0.04361375827 -9.542424029e-20 -2.384397491e-05)
(-0.0374637015 -0.06603161178 3.686564722e-20 0.03748695222 -3.820144264e-20 -2.325071178e-05)
(-0.03183741989 -0.06124652543 3.724308822e-20 0.03185932701 1.132199244e-20 -2.190712062e-05)
(-0.02664842411 -0.05672205458 9.837686778e-20 0.0266682282 -8.01511449e-20 -1.980408932e-05)
(-0.02184472902 -0.05247330432 2.88401595e-20 0.02186169631 -9.451229733e-20 -1.696728996e-05)
(-0.01738983701 -0.04850731463 8.908727103e-20 0.01740328508 1.914669379e-19 -1.344806936e-05)
(-0.01325315526 -0.04483329615 6.713487021e-20 0.01326250867 1.827580437e-19 -9.353410328e-06)
(-0.009415602913 -0.04145519538 -9.67051655e-20 0.009420442891 -6.763295693e-20 -4.839978098e-06)
(-0.005861513334 -0.0383840836 1.150827778e-19 0.005861664284 -2.205557223e-20 -1.50949935e-07)
(-0.00258469265 -0.03562610214 5.021290888e-19 0.002580300279 3.628649867e-19 4.392371064e-06)
(0.0004188944739 -0.03319823636 2.579527443e-19 -0.0004272451762 2.083937538e-19 8.350702289e-06)
(0.00314471639 -0.03111177756 6.244982581e-19 -0.003155894443 6.142450674e-20 1.11780536e-05)
(0.005585990976 -0.02939211583 2.199160197e-19 -0.005598168889 -4.455025468e-19 1.217791341e-05)
(0.00773237442 -0.02805984178 -4.84167653e-19 -0.007742878502 -4.529824041e-19 1.05040816e-05)
(0.009540621141 -0.02713908292 -9.19938907e-20 -0.009545717357 2.533184649e-20 5.096216188e-06)
(-0.1445095702 -0.1059346557 2.113345328e-20 0.1445116837 5.450821877e-20 -2.113559003e-06)
(-0.1215350432 -0.1096765044 -7.199461943e-21 0.1215410776 7.128032036e-20 -6.034399224e-06)
(-0.1033746854 -0.1088292704 -5.114893723e-20 0.1033843943 1.771170018e-19 -9.708907869e-06)
(-0.08860752869 -0.1054164195 4.399357422e-20 0.0886205916 8.037196788e-21 -1.306291666e-05)
(-0.07631303421 -0.1006110873 -6.166725793e-20 0.07632906619 -5.396719066e-20 -1.603198011e-05)
(-0.06586268804 -0.09509828989 1.13060781e-19 0.06588122981 -5.821812286e-20 -1.854176932e-05)
(-0.05682690777 -0.08929056788 1.123479767e-19 0.05684744475 -8.717423325e-20 -2.053697907e-05)
(-0.04889420587 -0.08343301265 -6.131082054e-20 0.04891616836 -7.269367051e-20 -2.196249194e-05)
(-0.04184354888 -0.07767481972 1.448490234e-19 0.0418663112 -8.773593632e-22 -2.276232175e-05)
(-0.03550646687 -0.0721040264 3.209366389e-19 0.03552936505 3.021993547e-22 -2.289817895e-05)
(-0.02976108481 -0.06677264697 2.933674886e-19 0.02978341582 -2.129724695e-20 -2.23310087e-05)
(-0.02451051625 -0.06171100675 1.254873105e-19 0.02453155967 8.640290849e-20 -2.10434186e-05)
(-0.01968492984 -0.05693502948 8.377546617e-20 0.01970395617 8.151033013e-20 -1.902633844e-05)
(-0.01522678388 -0.05245535498 2.31986213e-19 0.015243088 8.057002371e-20 -1.630411648e-05)
(-0.01109622416 -0.04827600441 4.35262642e-19 0.01110914979 2.670439201e-19 -1.292563052e-05)
(-0.007259343798 -0.04440355381 3.249577021e-19 0.007268336978 -1.877245326e-19 -8.993179656e-06)
(-0.003695273412 -0.04084036774 -8.349255518e-20 0.003699930249 -3.291667254e-19 -4.656837507e-06)
(-0.0003856915099 -0.0375959708 1.324851614e-19 0.0003858417388 2.967892409e-20 -1.502289236e-07)
(0.002676902735 -0.03467584486 5.753012633e-19 -0.002681120285 -1.075352036e-19 4.217549209e-06)
(0.005499361608 -0.03209613638 1.46364185e-19 -0.005507385079 -4.043889147e-19 8.023471742e-06)
(0.008078561024 -0.02986814077 -2.416072237e-21 -0.008089302863 -4.847025468e-19 1.074183866e-05)
(0.01041112293 -0.02801697574 2.03129732e-19 -0.01042282608 -6.218873219e-19 1.170315401e-05)
(0.01248914685 -0.02656339252 -2.55074839e-19 -0.01249924098 -7.822146151e-20 1.009413878e-05)
(0.01427029608 -0.02553409229 4.506543998e-20 -0.01427519298 1.818121358e-19 4.89690227e-06)
(-0.1385761343 -0.1139914782 1.457651936e-20 0.1385781526 8.155659443e-20 -2.01833487e-06)
(-0.1136857776 -0.1155392883 5.345126751e-20 0.113691541 6.963992539e-20 -5.763331095e-06)
(-0.09453963881 -0.113126622 -4.810867389e-20 0.09454891199 1.421122753e-19 -9.273175633e-06)
(-0.07934930029 -0.1085617142 9.522666855e-20 0.07936177735 -1.17969243e-19 -1.24770537e-05)
(-0.06697531184 -0.1028843818 -5.15244142e-20 0.06699062579 -7.24717043e-20 -1.531395042e-05)
(-0.05665579866 -0.09669375393 2.666045658e-20 0.05667351074 4.654523599e-20 -1.771208186e-05)
(-0.04787776186 -0.09034614266 1.653418898e-19 0.04789738098 -1.503328614e-20 -1.961912166e-05)
(-0.04027673387 -0.08404826262 4.61387803e-20 0.04029771618 2.104173958e-20 -2.098231133e-05)
(-0.03359752018 -0.07792317499 1.476791892e-20 0.03361926813 1.260842393e-19 -2.17479552e-05)
(-0.02764918062 -0.07204013741 1.040693538e-19 0.02767106016 1.335709155e-19 -2.187954609e-05)
(-0.02229520578 -0.06643809532 2.000575963e-19 0.02231654545 2.006939256e-20 -2.133967061e-05)
(-0.01742860753 -0.06113747425 2.851481465e-19 0.01744871916 6.981410624e-20 -2.011162686e-05)
(-0.012973098 -0.05614732595 2.349908248e-19 0.01299128452 -2.101242805e-19 -1.81865157e-05)
(-0.008866161793 -0.05147273938 -3.736719385e-20 0.008881749053 -5.63762917e-20 -1.558725983e-05)
(-0.005064966541 -0.04711404097 3.462258236e-19 0.00507732673 -2.119723108e-19 -1.2360189e-05)
(-0.001532636774 -0.04307452613 1.147622962e-19 0.00154123928 -3.948733361e-19 -8.602505487e-06)
(0.00175328564 -0.03935461858 2.775366583e-20 -0.001748828397 -2.106235085e-19 -4.457243556e-06)
(0.00481354633 -0.03596181317 -8.677359638e-20 -0.004813398795 -6.907675752e-20 -1.475352927e-07)
(0.007656847512 -0.03290070027 1.40370187e-19 -0.007660878298 4.783738044e-20 4.030785398e-06)
(0.01029267938 -0.03018612415 2.785880479e-19 -0.01030035181 -1.637295867e-19 7.67242377e-06)