/*--------------------------------*- C++ -*----------------------------------*\
| =========                 |                                                 |
| \\      /  F ield         | foam-extend: Open Source CFD                    |
|  \\    /   O peration     | Version:  3.0                                   |
|   \\  /    A nd           | Web:         http://www.extend-project.de       |
|    \\/     M anipulation  |                                                 |
\*---------------------------------------------------------------------------*/
FoamFile
{
    version     2.0;
    format      ascii;
    class       volVectorField;
    location    "20";
    object      s;
}
// * * * * * * * * * * * * * * * * * * * * * * * * * * * * * * * * * * * * * //

dimensions      [0 1 -1 0 0 0 0];

internalField   nonuniform List<vector> 
3012
(
(-2.24077 0.123903 0)
(-1.84251 -0.245191 0)
(-2.59502 0.164411 0)
(-1.7427 0.128317 0)
(-3.13051 0.358942 0)
(-2.18155 0.220677 0)
(-3.03917 -0.30819 0)
(-2.87387 0.101482 0)
(-2.01303 0.233445 0)
(-2.2193 -0.395881 0)
(-1.90278 -0.0768155 0)
(-2.23653 0.452683 0)
(-1.28294 -0.131981 0)
(-2.00898 0.0772391 0)
(-2.26099 0.0661808 0)
(-1.22423 0.116515 0)
(-3.11545 0.311436 0)
(-2.19996 0.271345 0)
(-2.96564 -0.336561 0)
(-2.88411 0.0967633 0)
(-1.2723 0.42362 0)
(-1.67741 -0.221669 0)
(-1.89025 -0.351816 0)
(-1.22384 0.300143 0)
(-2.68276 0.032605 0)
(-1.9769 -0.1391 0)
(-1.94042 0.265693 0)
(-2.27194 0.0478083 0)
(-1.87896 0.331399 0)
(-2.07373 0.415284 0)
(-1.37694 -0.166181 0)
(-1.55537 -0.439081 0)
(-1.31403 -0.144643 0)
(-2.09288 0.374804 0)
(-1.89383 0.307246 0)
(-1.47207 -0.411361 0)
(-2.09854 -0.186375 0)
(-2.73192 0.0516451 0)
(-2.29037 0.0508296 0)
(-2.05079 0.251266 0)
(-1.17196 -0.115777 0)
(-2.17121 0.0612076 0)
(-1.11327 0.110802 0)
(-1.94075 0.0727276 0)
(-1.29645 -0.103689 0)
(-1.43725 -0.370687 0)
(-1.93326 0.27514 0)
(-2.14611 0.330609 0)
(-1.27814 -0.36833 0)
(-2.02241 0.32855 0)
(-1.83688 0.287688 0)
(-1.15122 -0.13023 0)
(-2.22694 0.122118 0)
(-1.77518 -0.230235 0)
(-1.68008 0.130481 0)
(-2.56932 0.154364 0)
(-2.7249 -0.323383 0)
(-2.27362 0.444708 0)
(-3.06773 0.239436 0)
(-2.89551 0.086013 0)
(-2.71796 -0.353171 0)
(-2.25347 0.365643 0)
(-3.01829 0.263256 0)
(-2.91996 0.0482429 0)
(-1.30971 -0.0830487 0)
(-2.02541 0.0322019 0)
(-2.28913 0.00434691 0)
(-1.26683 0.163477 0)
(-2.13731 -0.148725 0)
(-1.18782 0.272924 0)
(-1.20062 0.0874534 0)
(-1.9007 -0.0844373 0)
(-1.78864 0.46686 0)
(-1.57532 -0.489711 0)
(-1.37175 -0.242015 0)
(-1.64733 0.37216 0)
(-1.69896 0.355921 0)
(-1.85051 0.426706 0)
(-1.42204 -0.469728 0)
(-1.24729 -0.229156 0)
(-1.39887 -0.0786122 0)
(-2.07384 0.0256298 0)
(-1.36082 0.186094 0)
(-2.35813 -0.00649946 0)
(-2.11632 -0.0392288 0)
(-1.09496 0.192746 0)
(-1.13295 -0.00382698 0)
(-1.89123 -0.0053563 0)
(-1.21886 -0.180429 0)
(-1.99633 0.387226 0)
(-1.81734 0.327629 0)
(-1.37114 -0.428571 0)
(-2.27237 -0.390739 0)
(-2.01641 0.222148 0)
(-1.93953 -0.0725665 0)
(-2.23936 0.457296 0)
(-2.21568 0.0161856 0)
(-2.30598 0.367595 0)
(-2.15392 -0.0294064 0)
(-2.69086 -0.191153 0)
(-2.11278 -0.164984 0)
(-1.16772 0.281776 0)
(-1.17886 0.10354 0)
(-1.88125 -0.0980676 0)
(-1.75002 0.472841 0)
(-1.36107 -0.249885 0)
(-1.56651 -0.494721 0)
(-1.61489 0.378441 0)
(-1.80896 -0.396419 0)
(-1.24962 0.324707 0)
(-1.60643 -0.249435 0)
(-1.31376 0.441005 0)
(-1.96413 0.2223 0)
(-2.18964 0.25709 0)
(-1.3585 -0.309934 0)
(-1.2457 -0.0465978 0)
(-1.52585 -0.49626 0)
(-1.3371 -0.278272 0)
(-1.51776 0.505646 0)
(-1.41037 0.402783 0)
(-1.76306 -0.179835 0)
(-1.08639 0.209659 0)
(-1.08776 0.319506 0)
(-1.96086 -0.264429 0)
(-2.49534 -0.203355 0)
(-2.32798 0.00628096 0)
(-2.79902 0.15042 0)
(-2.30468 0.320717 0)
(-3.05757 0.0486597 0)
(-2.67391 0.68142 0)
(-2.99786 0.060477 0)
(-2.43441 -0.305976 0)
(-2.57065 -0.205672 0)
(-2.31647 0.00649716 0)
(-2.41107 0.359138 0)
(-2.84139 0.122886 0)
(-3.06308 0.0761556 0)
(-3.04897 0.0907903 0)
(-2.60086 0.693054 0)
(-2.48933 -0.361103 0)
(-2.67578 0.0702939 0)
(-1.86596 0.232678 0)
(-2.26904 0.0646899 0)
(-1.92448 -0.169047 0)
(-3.00637 0.191291 0)
(-2.4177 0.494302 0)
(-2.54894 -0.31034 0)
(-2.94754 -0.00513815 0)
(-2.94136 0.213759 0)
(-2.37608 0.491966 0)
(-2.46905 -0.228972 0)
(-2.85382 -0.043127 0)
(-1.06946 -0.084607 0)
(-1.82815 0.24201 0)
(-1.17047 -0.309018 0)
(-2.02136 0.269065 0)
(-1.31969 -0.384774 0)
(-2.03547 0.348623 0)
(-1.84736 0.300568 0)
(-1.18373 -0.140125 0)
(-1.75241 -0.421481 0)
(-1.55452 -0.259993 0)
(-1.36108 0.460929 0)
(-1.28585 0.347033 0)
(-2.3058 0.051831 0)
(-2.37297 -0.188413 0)
(-2.81004 0.0303887 0)
(-2.3583 0.30307 0)
(-1.32671 -0.162025 0)
(-2.06807 0.395743 0)
(-1.87461 0.322486 0)
(-1.49358 -0.42939 0)
(-2.87722 0.298673 0)
(-2.79899 -0.084753 0)
(-2.48187 -0.195318 0)
(-2.24823 0.352712 0)
(-2.41868 -0.0752818 0)
(-2.84541 0.279151 0)
(-2.33014 0.329197 0)
(-2.73113 -0.164463 0)
(-2.29412 0.0559135 0)
(-2.3978 -0.222086 0)
(-2.82125 0.0522672 0)
(-2.36051 0.306359 0)
(-1.61635 0.458774 0)
(-1.85299 -0.198564 0)
(-1.52819 0.26973 0)
(-2.13397 -0.377267 0)
(-1.58075 0.30342 0)
(-2.06134 -0.421607 0)
(-1.69128 0.478569 0)
(-1.79061 -0.215942 0)
(-1.79084 -0.410046 0)
(-1.5876 -0.253867 0)
(-1.35116 0.458368 0)
(-1.27967 0.340812 0)
(-1.65818 -0.436359 0)
(-2.13774 0.415737 0)
(-1.92835 0.318938 0)
(-1.4694 -0.147465 0)
(-1.2994 -0.0569046 0)
(-2.01093 0.0165128 0)
(-1.26167 0.181156 0)
(-2.27114 -0.0169603 0)
(-1.31097 -0.153659 0)
(-2.27514 0.088977 0)
(-2.02061 0.0934953 0)
(-1.2455 0.101054 0)
(-1.10429 -0.251839 0)
(-2.01231 0.207728 0)
(-1.02548 -0.0350687 0)
(-1.81689 0.190711 0)
(-1.10424 0.22432 0)
(-1.76373 -0.178898 0)
(-1.97002 -0.267019 0)
(-1.10805 0.347649 0)
(-2.35423 -0.0357127 0)
(-1.36975 0.209596 0)
(-1.39904 -0.0483954 0)
(-2.06791 0.00563403 0)
(-1.55705 -0.509811 0)
(-1.41535 0.39965 0)
(-1.36569 -0.290914 0)
(-1.52298 0.503926 0)
(-1.38081 -0.177301 0)
(-1.84941 0.335889 0)
(-1.56249 -0.446478 0)
(-2.03515 0.422008 0)
(-1.1539 0.218091 0)
(-1.76949 -0.170247 0)
(-1.16705 0.348012 0)
(-1.98023 -0.265081 0)
(-1.4077 -0.272342 0)
(-1.54825 0.487112 0)
(-1.43952 0.382409 0)
(-1.6023 -0.489838 0)
(-2.10432 0.43018 0)
(-1.68247 -0.44618 0)
(-1.48481 -0.159936 0)
(-1.90305 0.327672 0)
(-1.27697 0.418018 0)
(-1.70807 -0.211893 0)
(-1.92549 -0.340239 0)
(-1.23133 0.288197 0)
(-1.25632 0.31657 0)
(-1.86006 -0.377968 0)
(-1.31624 0.439832 0)
(-1.6491 -0.235585 0)
(-1.65916 0.463514 0)
(-1.85994 -0.195575 0)
(-1.56385 0.270968 0)
(-2.14494 -0.382431 0)
(-1.59492 0.288338 0)
(-1.70397 0.473097 0)
(-2.10839 -0.410563 0)
(-1.828 -0.207334 0)
(-2.55295 -0.289866 0)
(-2.00283 0.107243 0)
(-2.12433 -0.0512721 0)
(-2.16474 0.444496 0)
(-1.14968 -0.196594 0)
(-1.74834 0.335018 0)
(-1.29486 -0.429299 0)
(-1.90781 0.387858 0)
(-1.09452 -0.100286 0)
(-2.08834 0.0588815 0)
(-1.03877 0.107581 0)
(-1.87619 0.0695392 0)
(-1.7559 0.468245 0)
(-1.64061 0.271705 0)
(-1.85869 -0.193766 0)
(-2.15253 -0.402244 0)
(-1.20949 -0.117283 0)
(-2.18679 0.0634628 0)
(-1.14985 0.112063 0)
(-1.9526 0.074826 0)
(-1.27748 -0.105341 0)
(-2.00711 0.0567026 0)
(-2.26138 0.0396453 0)
(-1.22446 0.13772 0)
(-2.26532 0.0825292 0)
(-1.89364 -0.228587 0)
(-1.81742 0.169949 0)
(-2.65015 0.102606 0)
(-1.05581 -0.0697794 0)
(-2.0233 0.252161 0)
(-1.82746 0.227032 0)
(-1.15008 -0.29131 0)
(-2.75997 -0.181526 0)
(-2.28051 0.0100972 0)
(-2.69019 0.409237 0)
(-2.86014 0.0440089 0)
(-2.89018 -0.215207 0)
(-2.85769 0.40757 0)
(-2.26591 0.049437 0)
(-2.88836 0.0480646 0)
(-1.26243 -0.105289 0)
(-1.92533 0.273132 0)
(-1.39812 -0.368683 0)
(-2.13588 0.324146 0)
(-1.80522 0.478639 0)
(-1.6814 0.280487 0)
(-1.85548 -0.18913 0)
(-2.15191 -0.407272 0)
(-1.34774 -0.324399 0)
(-1.94023 0.242291 0)
(-2.15826 0.282012 0)
(-1.22889 -0.0659451 0)
(-2.2584 0.0809588 0)
(-1.90043 -0.197869 0)
(-1.82698 0.191647 0)
(-2.64425 0.102204 0)
(-2.55537 -0.266613 0)
(-1.96761 0.0857559 0)
(-2.13099 -0.0606898 0)
(-2.10138 0.417887 0)
(-1.88806 -0.459638 0)
(-1.64295 0.491935 0)
(-1.53001 0.348213 0)
(-1.6496 -0.246778 0)
(-1.13462 -0.0343208 0)
(-2.13 -0.0132727 0)
(-1.90381 0.0146492 0)
(-1.09195 0.16952 0)
(-1.38331 0.256447 0)
(-1.83194 -0.194366 0)
(-1.44198 0.427829 0)
(-2.08842 -0.339285 0)
(-2.21398 -0.0236165 0)
(-2.17182 0.365024 0)
(-2.04898 -0.00966851 0)
(-2.67056 -0.206276 0)
(-2.14104 -0.0656761 0)
(-1.16284 0.00771051 0)
(-1.12976 0.208026 0)
(-1.90894 -0.0249163 0)
(-1.85867 0.440441 0)
(-1.70591 0.362439 0)
(-1.47075 -0.470664 0)
(-1.28679 -0.227198 0)
(-1.88621 0.421066 0)
(-1.72932 0.353071 0)
(-1.40123 -0.460594 0)
(-1.23162 -0.218878 0)
(-1.26839 -0.25244 0)
(-1.75556 0.452244 0)
(-1.61897 0.373747 0)
(-1.45817 -0.490546 0)
(-1.11244 0.0616169 0)
(-2.0795 -0.107863 0)
(-1.08671 0.241653 0)
(-1.85827 -0.0590908 0)
(-1.09499 -0.229148 0)
(-2.02094 0.191415 0)
(-1.01505 -0.00958253 0)
(-1.82501 0.174798 0)
(-1.05311 -0.119952 0)
(-1.78426 0.267318 0)
(-1.9628 0.2963 0)
(-1.16004 -0.337631 0)
(-1.29534 -0.245329 0)
(-1.76561 0.453318 0)
(-1.48831 -0.48522 0)
(-1.6284 0.371418 0)
(-1.13869 0.0642372 0)
(-2.09227 -0.117167 0)
(-1.8681 -0.0649207 0)
(-1.11566 0.245301 0)
(-1.85754 0.324021 0)
(-1.89585 -0.456921 0)
(-1.65327 -0.173233 0)
(-2.04353 0.468113 0)
(-1.91646 0.316961 0)
(-1.89112 -0.454116 0)
(-2.11984 0.456599 0)
(-1.65484 -0.156485 0)
(-2.18808 -0.290343 0)
(-1.45728 0.396205 0)
(-1.91368 -0.161138 0)
(-1.4107 0.200396 0)
(-1.6445 -0.230217 0)
(-1.63573 0.349393 0)
(-1.77072 0.496112 0)
(-1.89023 -0.468235 0)
(-1.31763 -0.0902319 0)
(-1.95894 0.261842 0)
(-2.18007 0.31644 0)
(-1.45565 -0.363122 0)
(-1.85767 0.476858 0)
(-1.93944 -0.162348 0)
(-1.7326 0.249368 0)
(-2.26336 -0.377879 0)
(-1.90349 0.461689 0)
(-1.97669 -0.141418 0)
(-1.77429 0.21752 0)
(-2.31849 -0.36085 0)
(-1.67153 -0.241738 0)
(-1.44622 0.461188 0)
(-1.36702 0.32434 0)
(-1.89723 -0.410764 0)
(-1.52824 0.31946 0)
(-1.51104 0.0667676 0)
(-2.06297 -0.0727339 0)
(-2.3728 -0.16206 0)
(-1.31289 -0.205212 0)
(-2.0021 0.134807 0)
(-1.23216 0.0523268 0)
(-2.2469 0.143341 0)
(-2.31714 -0.317963 0)
(-2.29927 0.0937427 0)
(-2.68661 0.264969 0)
(-2.08417 0.135838 0)
(-1.54119 0.301919 0)
(-2.10051 -0.046789 0)
(-1.53592 0.0337819 0)
(-2.41875 -0.121894 0)
(-2.57198 0.446843 0)
(-2.87181 0.119658 0)
(-2.35759 -0.111221 0)
(-2.83529 -0.13363 0)
(-1.41953 -0.257966 0)
(-1.56586 0.383079 0)
(-1.62742 -0.500124 0)
(-1.69325 0.488883 0)
(-1.22123 -0.420717 0)
(-1.73475 0.343093 0)
(-1.08516 -0.194084 0)
(-1.88585 0.389659 0)
(-1.84796 0.0833872 0)
(-2.05373 0.0778885 0)
(-0.982857 0.0756476 0)
(-1.03808 -0.128205 0)
(-1.86173 -0.134091 0)
(-1.20136 0.156697 0)
(-1.20469 0.323183 0)
(-2.09423 -0.218674 0)
(-2.072 -0.114498 0)
(-1.75801 0.395253 0)
(-2.42751 -0.26251 0)
(-1.68474 0.122529 0)
(-2.09979 -0.0946781 0)
(-1.75148 0.383373 0)
(-2.45955 -0.231792 0)
(-1.68762 0.099618 0)
(-1.52353 -0.492759 0)
(-1.31716 -0.271202 0)
(-1.55636 0.491908 0)
(-1.44617 0.399059 0)
(-2.53344 -0.216206 0)
(-1.86843 0.381707 0)
(-2.14731 -0.0740862 0)
(-1.79334 0.0685989 0)
(-1.09151 0.306705 0)
(-1.08601 0.179242 0)
(-1.77535 -0.162902 0)
(-1.97723 -0.2431 0)
(-2.25903 0.912952 0)
(-3.12522 -0.908045 0)
(-3.70976 -0.00705883 0)
(-3.09791 0.429359 0)
(-2.17384 -0.280074 0)
(-1.41101 0.390341 0)
(-1.37221 0.199767 0)
(-1.90487 -0.158394 0)
(-1.97248 0.285488 0)
(-1.04547 -0.101575 0)
(-1.14836 -0.317423 0)
(-1.78926 0.257361 0)
(-2.22055 0.199958 0)
(-2.73668 0.272934 0)
(-2.32658 0.0228443 0)
(-2.53027 -0.283384 0)
(-1.79071 0.362617 0)
(-2.5141 -0.199618 0)
(-2.13846 -0.0742466 0)
(-1.73442 0.0607163 0)
(-1.49293 0.474773 0)
(-1.66519 -0.24725 0)
(-1.4047 0.335731 0)
(-1.89484 -0.427837 0)
(-1.60855 -0.242209 0)
(-1.61945 0.357704 0)
(-1.75348 0.495767 0)
(-1.84503 -0.479472 0)
(-1.35996 -0.096056 0)
(-2.04973 0.0441217 0)
(-1.31441 0.161185 0)
(-2.32144 0.0195024 0)
(-2.24723 0.577621 0)
(-3.02201 -0.462159 0)
(-3.3602 0.215342 0)
(-2.9582 0.249046 0)
(-1.8524 -0.467058 0)
(-1.65888 0.496298 0)
(-1.54155 0.35738 0)
(-1.61847 -0.248308 0)
(-1.35645 0.239684 0)
(-1.84156 -0.18931 0)
(-1.40848 0.410992 0)
(-2.09615 -0.324793 0)
(-1.53916 -0.0515308 0)
(-2.33885 0.325036 0)
(-1.69788 -0.373714 0)
(-2.07681 0.2457 0)
(-1.25157 -0.167076 0)
(-2.0167 0.379408 0)
(-1.83378 0.318323 0)
(-1.40591 -0.419347 0)
(-2.23068 0.0998681 0)
(-2.8223 0.401381 0)
(-2.79147 -0.203368 0)
(-2.85325 0.0367875 0)
(-1.19238 0.297546 0)
(-1.87293 -0.341375 0)
(-1.23533 0.416485 0)
(-1.66529 -0.217505 0)
(-2.34254 0.346811 0)
(-1.57386 -0.0602378 0)
(-1.74644 -0.388108 0)
(-2.07926 0.255883 0)
(-1.33051 0.365267 0)
(-1.68659 -0.46333 0)
(-1.49367 -0.281358 0)
(-1.4201 0.474736 0)
(-1.34539 0.362052 0)
(-1.71996 -0.456513 0)
(-1.52069 -0.273981 0)
(-1.43516 0.476039 0)
(-2.31282 0.201424 0)
(-1.33868 0.0195083 0)
(-2.05373 0.174326 0)
(-1.43819 -0.265959 0)
(-3.32923 0.03326 0)
(-3.05996 0.738576 0)
(-2.29298 -0.264034 0)
(-2.94221 -0.0251176 0)
(-1.801 0.498176 0)
(-1.77864 -0.484413 0)
(-1.65787 0.36986 0)
(-1.54938 -0.235655 0)
(-2.24123 0.321674 0)
(-1.38708 -0.0748878 0)
(-1.532 -0.365717 0)
(-2.00543 0.259646 0)
(-1.36524 0.0110785 0)
(-1.47329 -0.278767 0)
(-2.06273 0.186102 0)
(-2.32301 0.220954 0)
(-1.09287 -0.0863807 0)
(-1.83469 0.24748 0)
(-2.02817 0.276607 0)
(-1.19784 -0.313164 0)
(-1.84522 0.491769 0)
(-1.78903 -0.481446 0)
(-1.55923 -0.226965 0)
(-1.69544 0.362922 0)
(-1.33598 0.151454 0)
(-1.35842 0.348356 0)
(-1.93378 -0.135811 0)
(-2.19873 -0.238765 0)
(-1.35996 0.13291 0)
(-1.37902 0.339064 0)
(-1.95707 -0.12169 0)
(-2.22908 -0.220534 0)
(-1.41344 0.0247908 0)
(-2.08513 0.180696 0)
(-1.52335 -0.274937 0)
(-2.35436 0.21872 0)
(-1.59197 -0.498458 0)
(-1.57024 0.383585 0)
(-1.38491 -0.255536 0)
(-1.69773 0.483697 0)
(-2.25007 0.324748 0)
(-1.57035 -0.373063 0)
(-1.42107 -0.0785008 0)
(-2.01241 0.25885 0)
(-1.29327 -0.178975 0)
(-1.99679 0.120278 0)
(-1.21834 0.0731399 0)
(-2.24098 0.123662 0)
(-1.86002 -0.124784 0)
(-1.17932 0.139072 0)
(-1.17612 0.305145 0)
(-2.08834 -0.201792 0)
(-2.01902 -0.3382 0)
(-3.82957 -0.107508 0)
(-3.62593 0.699399 0)
(-2.79873 -0.176549 0)
(-1.43201 0.0489193 0)
(-1.53404 -0.256375 0)
(-2.1096 0.163239 0)
(-2.38973 0.194461 0)
(-2.23494 0.374306 0)
(-1.68432 -0.415331 0)
(-2.00075 0.284344 0)
(-1.50684 -0.10995 0)
(-1.85014 -0.112707 0)
(-2.18571 0.468302 0)
(-1.9704 0.268632 0)
(-2.1471 -0.425147 0)
(-3.15919 -0.0705645 0)
(-2.9267 0.595866 0)
(-2.30451 -0.168846 0)
(-2.91869 0.0295712 0)
(-2.31078 0.0836073 0)
(-2.56489 -0.18004 0)
(-2.87411 0.000117951 0)
(-2.6153 0.356055 0)
(-2.05366 0.269143 0)
(-1.83628 -0.413081 0)
(-2.30829 0.381502 0)
(-1.63814 -0.0810579 0)
(-1.32769 -0.125417 0)
(-2.12809 0.362617 0)
(-1.48268 -0.396967 0)
(-1.92125 0.296729 0)
(-2.22652 0.169519 0)
(-2.0668 -0.344982 0)
(-1.87217 0.0521187 0)
(-2.56054 0.295195 0)
(-1.14734 -0.268811 0)
(-1.84193 0.210158 0)
(-1.05654 -0.0463444 0)
(-2.04235 0.232514 0)
(-1.2228 -0.403337 0)
(-1.7525 0.336883 0)
(-1.91182 0.384016 0)
(-1.08916 -0.177572 0)
(-2.21458 0.173138 0)
(-2.1096 -0.360906 0)
(-2.5508 0.315473 0)
(-1.89687 0.0464579 0)
(-1.16173 -0.258078 0)
(-2.06041 0.217562 0)
(-1.85778 0.197165 0)
(-1.07284 -0.0315769 0)
(-1.85368 0.0965007 0)
(-0.996172 0.0602513 0)
(-2.0597 0.0941938 0)
(-1.05595 -0.15097 0)
(-2.23776 0.367617 0)
(-1.4798 -0.0962855 0)
(-1.65069 -0.397498 0)
(-2.0036 0.282777 0)
(-2.61942 0.333148 0)
(-2.82495 -0.106975 0)
(-2.26303 0.131845 0)
(-2.42049 -0.15912 0)
(-2.03627 0.280522 0)
(-1.79018 -0.417117 0)
(-1.59691 -0.0928544 0)
(-2.28329 0.38738 0)
(-2.17176 0.354432 0)
(-2.27214 0.0222333 0)
(-2.13317 -0.0894108 0)
(-2.75244 -0.0610181 0)
(-2.19574 0.51477 0)
(-2.67884 -0.334162 0)
(-3.08059 0.283933 0)
(-2.85915 0.0914511 0)
(-2.74468 0.240255 0)
(-2.20014 0.239684 0)
(-2.47358 -0.254061 0)
(-2.32253 0.0221647 0)
(-2.34089 0.334023 0)
(-2.35281 -0.0086259 0)
(-2.82245 0.185781 0)
(-2.58182 -0.200924 0)
(-2.11108 -0.110703 0)
(-2.12548 0.323493 0)
(-2.73578 -0.0282235 0)
(-2.27413 0.030852 0)
(-1.13114 -0.168031 0)
(-1.78982 0.321623 0)
(-1.26689 -0.401607 0)
(-1.96094 0.368219 0)
(-1.15176 -0.180219 0)
(-1.9573 0.377773 0)
(-1.78723 0.326778 0)
(-1.29325 -0.417401 0)
(-3.22703 -0.784587 0)
(-2.12767 0.946495 0)
(-3.7025 0.037472 0)
(-2.95942 0.506825 0)
(-1.9161 0.311201 0)
(-2.12178 0.394921 0)
(-1.41606 -0.146632 0)
(-1.59187 -0.428615 0)
(-2.39001 0.295436 0)
(-2.114 0.223851 0)
(-1.69865 -0.350127 0)
(-1.5508 -0.0237263 0)
(-1.14303 0.316371 0)
(-1.14168 0.171096 0)
(-1.81213 -0.148424 0)
(-2.0264 -0.230375 0)
(-2.02158 -0.252586 0)
(-1.16854 0.337577 0)
(-1.80439 -0.161734 0)
(-1.15957 0.195408 0)
(-1.61049 0.486876 0)
(-1.57142 -0.498827 0)
(-1.49566 0.38826 0)
(-1.36563 -0.261289 0)
(-3.77506 0.151065 0)
(-2.03558 -0.395684 0)
(-3.51269 0.981746 0)
(-2.81746 -0.176044 0)
(-1.26166 -0.379002 0)
(-1.99612 0.34622 0)
(-1.81609 0.304062 0)
(-1.13218 -0.144529 0)
(-1.59379 0.495243 0)
(-1.48032 0.38995 0)
(-1.4028 -0.267454 0)
(-1.60372 -0.499197 0)
(-1.97984 0.223667 0)
(-1.01078 -0.0540429 0)
(-1.09621 -0.262115 0)
(-1.78634 0.203053 0)
(-1.59161 0.485681 0)
(-1.54121 -0.496553 0)
(-1.47999 0.39145 0)
(-1.33152 -0.260786 0)
(-1.11156 0.30319 0)
(-1.79853 -0.151964 0)
(-1.11364 0.164835 0)
(-2.00609 -0.229693 0)
(-1.29258 0.316591 0)
(-1.88361 -0.3876 0)
(-1.35792 0.446159 0)
(-1.66648 -0.237118 0)
(-2.27731 0.0454223 0)
(-2.37278 -0.134193 0)
(-2.81518 -0.0108343 0)
(-2.39059 0.379102 0)
(-1.60442 0.0579875 0)
(-2.48354 0.212613 0)
(-1.72065 -0.283672 0)
(-2.17545 0.162727 0)
(-2.28781 0.0952538 0)
(-2.01153 -0.242158 0)
(-2.67884 0.147733 0)
(-1.90519 0.172929 0)
(-2.01992 -0.0696919 0)
(-1.99002 0.182663 0)
(-2.392 -0.359748 0)
(-2.1903 0.457018 0)
(-2.09204 -0.231699 0)
(-2.30151 0.0750232 0)
(-2.71289 0.122733 0)
(-1.99253 0.200956 0)
(-2.1476 -0.219788 0)
(-2.30613 0.0628044 0)
(-2.74302 0.0796351 0)
(-2.08386 0.225732 0)
(-1.9455 0.0426489 0)
(-2.18191 -0.37073 0)
(-2.56274 0.31946 0)
(-2.22162 0.154293 0)
(-1.79725 0.477321 0)
(-1.65373 0.374537 0)
(-1.62506 -0.497897 0)
(-1.41647 -0.246623 0)
(-2.26669 -0.27553 0)
(-1.53826 0.392108 0)
(-1.48656 0.173269 0)
(-1.9698 -0.143398 0)
(-2.07184 -0.0552846 0)
(-2.02625 0.14585 0)
(-2.47246 -0.332359 0)
(-2.21906 0.450143 0)
(-1.86659 0.493049 0)
(-1.71677 0.334248 0)
(-1.69307 -0.21109 0)
(-1.95223 -0.462961 0)
(-1.99942 -0.148368 0)
(-1.74797 0.436738 0)
(-2.33136 -0.324289 0)
(-1.65743 0.194556 0)
(-2.16152 -0.168611 0)
(-1.23145 0.10633 0)
(-1.22512 0.29637 0)
(-1.91651 -0.0962808 0)
(-2.49574 0.243766 0)
(-1.64155 0.0407367 0)
(-1.77585 -0.308911 0)
(-2.18532 0.1792 0)
(-2.38448 0.276732 0)
(-1.64921 -0.337662 0)
(-2.10882 0.215342 0)
(-1.51265 -0.0148973 0)
(-1.49338 0.141503 0)
(-1.5363 0.376496 0)
(-2.01168 -0.125517 0)
(-2.31848 -0.246669 0)
(-1.75823 0.283755 0)
(-1.04271 -0.133589 0)
(-1.92939 0.316183 0)
(-1.15338 -0.345914 0)
(-1.06711 -0.214863 0)
(-0.989593 0.0115737 0)
(-2.0041 0.167185 0)
(-1.80909 0.156907 0)
(-1.94211 -0.471142 0)
(-1.76503 0.339829 0)
(-1.68287 -0.206378 0)
(-1.92872 0.498039 0)
(-1.74476 0.44772 0)
(-1.96425 -0.162286 0)
(-2.28524 -0.348238 0)
(-1.64661 0.218255 0)
(-1.375 -0.0306558 0)
(-2.29408 0.275152 0)
(-1.50236 -0.324082 0)
(-2.04293 0.225798 0)
(-1.98519 0.227207 0)
(-2.21644 0.268241 0)
(-1.40856 -0.314649 0)
(-1.28979 -0.0443874 0)
(-2.29974 0.0845292 0)
(-2.03808 0.0893476 0)
(-1.35112 -0.153266 0)
(-1.28758 0.107806 0)
(-1.70857 0.328134 0)
(-1.98988 -0.462911 0)
(-1.85693 0.494935 0)
(-1.72344 -0.21326 0)
(-1.29666 0.226931 0)
(-1.33394 0.389821 0)
(-2.07626 -0.296578 0)
(-1.83304 -0.176913 0)
(-1.49817 0.381756 0)
(-1.2217 -0.254069 0)
(-1.60861 0.454337 0)
(-1.42117 -0.485804 0)
(-2.72986 0.320917 0)
(-2.35229 -0.0302135 0)
(-2.19295 0.236012 0)
(-2.61737 -0.214067 0)
(-1.55461 -0.255372 0)
(-1.64509 0.492217 0)
(-1.77526 -0.478547 0)
(-1.52667 0.366166 0)
(-2.20966 0.20077 0)
(-2.73476 -0.164258 0)
(-2.69076 0.34748 0)
(-2.38185 -0.0935108 0)
(-2.6751 0.314801 0)
(-2.14374 0.162686 0)
(-2.30176 0.0572811 0)
(-2.46886 -0.291056 0)
(-1.96937 -0.157007 0)
(-1.04607 0.1057 0)
(-1.77151 -0.102125 0)
(-1.0274 0.252766 0)
(-2.51113 0.281999 0)
(-2.32398 0.0288443 0)
(-2.58575 -0.267056 0)
(-2.86646 0.0647223 0)
(-2.75533 0.346052 0)
(-2.24559 0.241587 0)
(-2.39561 -0.0943967 0)
(-2.75329 -0.173576 0)
(-2.20366 0.218111 0)
(-2.67325 0.367415 0)
(-2.75031 -0.140795 0)
(-2.37109 -0.0965578 0)
(-2.12167 0.237484 0)
(-1.94032 -0.400646 0)
(-2.40427 0.364471 0)
(-1.73282 -0.0447814 0)
(-1.6293 0.365512 0)
(-1.22685 -0.247403 0)
(-1.76705 0.43644 0)
(-1.40547 -0.479505 0)
(-1.05684 0.215515 0)
(-1.8456 -0.0335584 0)
(-2.06177 -0.0731269 0)
(-1.0891 0.03374 0)
(-2.3095 0.0842133 0)
(-2.25179 -0.235207 0)
(-2.74561 0.170162 0)
(-2.1131 0.245101 0)
(-2.01503 -0.33774 0)
(-1.3521 0.413651 0)
(-1.77922 -0.203831 0)
(-1.30236 0.263526 0)
(-1.56795 0.489892 0)
(-1.58097 -0.25539 0)
(-1.46339 0.360946 0)
(-1.80173 -0.459431 0)
(-2.3304 0.0626051 0)
(-2.35348 -0.247478 0)
(-2.16972 0.239837 0)
(-2.7669 0.193035 0)
(-1.45551 0.0742952 0)
(-2.05032 -0.0761434 0)
(-1.46699 0.319073 0)
(-2.35144 -0.162004 0)
(-2.03432 -0.125553 0)
(-1.67809 0.392851 0)
(-2.36615 -0.271573 0)
(-1.61137 0.142056 0)
(-1.83011 0.341722 0)
(-2.01095 0.477238 0)
(-1.61015 -0.196171 0)
(-1.84504 -0.475174 0)
(-2.05521 -0.323091 0)
(-1.35951 0.402364 0)
(-1.3125 0.24377 0)
(-1.81275 -0.192617 0)
(-1.58178 -0.252861 0)
(-1.80585 -0.466159 0)
(-1.50275 0.364494 0)
(-1.61375 0.495619 0)
(-1.91526 0.41046 0)
(-2.09842 -0.0912018 0)
(-1.81834 0.112991 0)
(-2.48463 -0.265799 0)
(-1.74039 0.483611 0)
(-1.43797 -0.251861 0)
(-1.60589 0.37658 0)
(-1.64785 -0.496488 0)
(-1.16174 -0.0520297 0)
(-1.9307 0.0290394 0)
(-2.16316 0.004985 0)
(-1.11554 0.161757 0)
(-2.37272 0.0671627 0)
(-2.08903 0.0773155 0)
(-1.36793 0.131881 0)
(-1.42745 -0.146796 0)
(-2.00205 -0.137218 0)
(-1.6734 0.409559 0)
(-1.60213 0.171128 0)
(-2.32462 -0.28949 0)
(-1.74089 0.488628 0)
(-1.47834 -0.249329 0)
(-1.60636 0.374866 0)
(-1.6934 -0.493783 0)
(-1.26544 -0.332809 0)
(-1.15028 -0.0915349 0)
(-2.07443 0.290663 0)
(-1.87431 0.255994 0)
(-1.59272 0.316066 0)
(-1.76189 -0.218987 0)
(-2.03012 -0.430022 0)
(-1.70711 0.486653 0)
(-1.13989 -0.106145 0)
(-1.26049 -0.342755 0)
(-2.04265 0.314267 0)
(-1.85038 0.275766 0)
(-1.23316 0.318243 0)
(-1.88709 -0.121621 0)
(-1.23097 0.141527 0)
(-2.12769 -0.204438 0)
(-2.1546 0.217003 0)
(-1.97027 -0.380645 0)
(-1.76679 -0.012011 0)
(-2.45126 0.341342 0)
(-2.26715 -0.289208 0)
(-1.56377 0.416045 0)
(-1.50577 0.194981 0)
(-1.96359 -0.148581 0)
(-1.46764 -0.17895 0)
(-1.66666 -0.454462 0)
(-2.04374 0.438335 0)
(-1.85622 0.336452 0)
(-1.58032 0.45146 0)
(-1.87186 -0.188805 0)
(-1.5019 0.259407 0)
(-2.15342 -0.355423 0)
(-1.66047 0.368993 0)
(-1.80362 0.439199 0)
(-1.21948 -0.238968 0)
(-1.39505 -0.472075 0)
(-1.9611 -0.464057 0)
(-1.79983 0.328167 0)
(-1.69914 -0.193064 0)
(-1.97065 0.489186 0)
(-1.56688 0.363521 0)
(-2.03311 -0.11005 0)
(-1.52606 0.12015 0)
(-2.34836 -0.228379 0)
(-1.27301 0.335215 0)
(-1.89233 -0.131988 0)
(-1.26187 0.15635 0)
(-2.13851 -0.223897 0)
(-1.93338 0.414094 0)
(-1.41525 -0.457886 0)
(-1.24763 -0.210353 0)
(-1.76685 0.345772 0)
(-1.86353 -0.0203102 0)
(-2.08191 -0.0569669 0)
(-1.05837 0.1956 0)
(-1.09355 0.00686449 0)
(-2.31173 -0.060312 0)
(-1.33975 0.224285 0)
(-1.36337 -0.0193874 0)
(-2.03637 -0.0125514 0)
(-2.57853 -0.246904 0)
(-2.27921 0.0394128 0)
(-2.15397 0.147656 0)
(-2.59573 0.380793 0)
(-2.6631 -0.181357 0)
(-2.22626 0.253092 0)
(-2.34551 -0.0225401 0)
(-2.70358 0.343957 0)
(-2.34699 -0.113581 0)
(-1.41638 0.0196683 0)
(-1.41078 0.26797 0)
(-2.05616 -0.047243 0)
(-1.26979 -0.294701 0)
(-2.1303 0.245656 0)
(-1.16578 -0.0480565 0)
(-1.91574 0.217639 0)
(-1.40348 0.377166 0)
(-1.463 -0.281273 0)
(-1.65943 -0.484942 0)
(-1.50615 0.487462 0)
(-1.34234 -0.368558 0)
(-1.86916 0.286264 0)
(-2.06258 0.333609 0)
(-1.20841 -0.120911 0)
(-2.30924 0.07169 0)
(-2.7463 0.153612 0)
(-2.24381 -0.225868 0)
(-2.11198 0.243354 0)
(-2.50475 -0.216219 0)
(-2.38654 0.328139 0)
(-2.31007 0.0307557 0)
(-2.82753 0.106561 0)
(-1.39 -0.386395 0)
(-2.08054 0.349154 0)
(-1.24728 -0.13082 0)
(-1.88322 0.294897 0)
(-1.20078 0.376065 0)
(-1.7714 -0.176175 0)
(-1.17845 0.240666 0)
(-1.98993 -0.279034 0)
(-1.73726 -0.191214 0)
(-1.21188 0.386915 0)
(-1.95178 -0.301507 0)
(-1.1825 0.257736 0)
(-1.43939 0.37999 0)
(-1.64702 -0.497894 0)
(-1.54917 0.489074 0)
(-1.44888 -0.282162 0)
(-1.35067 -0.0163511 0)
(-2.28846 0.252378 0)
(-1.4686 -0.303722 0)
(-2.03833 0.210459 0)
(-1.71822 0.351168 0)
(-1.87228 0.413711 0)
(-1.19072 -0.219454 0)
(-1.35186 -0.454003 0)
(-2.48676 0.40456 0)
(-2.82183 -0.175405 0)
(-2.36831 -0.131885 0)
(-2.87921 0.166308 0)
(-1.7529 0.335635 0)
(-1.17883 -0.208297 0)
(-1.91438 0.392659 0)
(-1.33096 -0.446777 0)
(-1.86795 -0.409427 0)
(-1.32639 0.33092 0)
(-1.64914 -0.246823 0)
(-1.40164 0.46112 0)
(-1.82986 0.46935 0)
(-1.68165 0.36679 0)
(-1.636 -0.488662 0)
(-1.42869 -0.235558 0)
(-1.79827 -0.387321 0)
(-1.2167 0.324469 0)
(-1.27513 0.437434 0)
(-1.59869 -0.248249 0)
(-2.1005 0.00572117 0)
(-1.05653 0.152296 0)
(-1.88264 0.0287348 0)
(-1.1028 -0.0493366 0)
(-1.05878 0.130324 0)
(-2.11252 0.0449303 0)
(-1.1126 -0.0787929 0)
(-1.89388 0.0595563 0)
(-2.18046 -0.15508 0)
(-1.93119 -0.0848185 0)
(-1.25583 0.0909214 0)
(-1.24798 0.286408 0)
(-1.72773 -0.429125 0)
(-1.53382 -0.268789 0)
(-1.34367 0.46442 0)
(-1.26888 0.353697 0)
(-1.88533 0.103199 0)
(-1.11012 -0.151977 0)
(-1.04407 0.0665085 0)
(-2.0987 0.101758 0)
(-1.11392 -0.129091 0)
(-2.11323 0.0773163 0)
(-1.05353 0.087901 0)
(-1.89611 0.0836335 0)
(-2.38046 0.0977063 0)
(-2.09668 0.0975411 0)
(-1.37887 0.11577 0)
(-1.44829 -0.170582 0)
(-1.76274 -0.46277 0)
(-1.54381 -0.182062 0)
(-2.04319 0.465344 0)
(-1.85575 0.344723 0)
(-2.13239 0.176043 0)
(-1.98444 0.00413684 0)
(-2.31516 -0.359943 0)
(-2.40391 0.416711 0)
(-1.40911 0.302341 0)
(-1.98474 -0.396628 0)
(-1.48791 0.455316 0)
(-1.74199 -0.227591 0)
(-1.69453 0.352057 0)
(-1.84386 0.412681 0)
(-1.33016 -0.459356 0)
(-1.17241 -0.228174 0)
(-1.86311 0.0274969 0)
(-2.07667 0.00473277 0)
(-1.07746 -0.0391251 0)
(-1.03195 0.156103 0)
(-2.16944 0.170871 0)
(-2.46735 0.405983 0)
(-1.99159 0.0252767 0)
(-2.3119 -0.362337 0)
(-1.41333 0.289702 0)
(-2.03144 -0.381369 0)
(-1.48837 0.451531 0)
(-1.78005 -0.217202 0)
(-1.80351 -0.449238 0)
(-1.5898 -0.263474 0)
(-1.47891 0.47909 0)
(-1.38716 0.353861 0)
(-2.56866 -0.185453 0)
(-1.9092 0.372953 0)
(-2.17237 -0.0500674 0)
(-1.83822 0.044218 0)
(-2.1929 0.403142 0)
(-1.69728 -0.425246 0)
(-1.97026 0.303781 0)
(-1.50753 -0.125478 0)
(-2.63098 0.332526 0)
(-2.78854 -0.113135 0)
(-2.23028 0.150334 0)
(-2.40908 -0.14683 0)
(-2.12546 0.198373 0)
(-1.20936 -0.245928 0)
(-1.11982 -0.00749615 0)
(-1.90985 0.180838 0)
(-1.41815 0.0454988 0)
(-2.33197 -0.128802 0)
(-1.41607 0.2864 0)
(-2.04127 -0.0582769 0)
(-1.14791 0.0494881 0)
(-1.94417 0.132765 0)
(-1.22431 -0.189414 0)
(-2.17175 0.138589 0)
(-1.7782 -0.469414 0)
(-1.55762 -0.190509 0)
(-2.0146 0.46307 0)
(-1.83268 0.341544 0)
(-1.17489 0.0717898 0)
(-1.96633 0.114102 0)
(-1.24716 -0.16936 0)
(-2.20096 0.115466 0)
(-2.10493 -0.0323828 0)
(-1.51387 0.275067 0)
(-1.51835 0.00448834 0)
(-2.41863 -0.0969011 0)
(-2.13836 0.449112 0)
(-1.62365 -0.147205 0)
(-1.93011 0.317741 0)
(-1.85032 -0.447945 0)
(-1.41132 -0.403951 0)
(-1.26221 -0.146616 0)
(-2.06252 0.359402 0)
(-1.8697 0.301935 0)
(-2.00309 0.0937453 0)
(-2.61333 0.309785 0)
(-2.25977 -0.334889 0)
(-2.25788 0.122963 0)
(-2.59622 -0.248409 0)
(-2.15461 0.111042 0)
(-2.52351 0.391581 0)
(-2.24125 0.0383135 0)
(-2.20172 0.0853127 0)
(-1.17462 0.0954398 0)
(-1.23932 -0.141243 0)
(-1.96573 0.0919249 0)
(-2.59288 0.331082 0)
(-2.09065 0.0756788 0)
(-2.39201 -0.351237 0)
(-2.24513 0.100295 0)
(-1.21896 -0.256076 0)
(-1.6529 0.455005 0)
(-1.53463 0.381265 0)
(-1.40974 -0.484838 0)
(-1.09232 -0.124288 0)
(-1.98613 0.315698 0)
(-1.2085 -0.349241 0)
(-1.80504 0.280773 0)
(-1.10204 -0.139796 0)
(-1.98419 0.332649 0)
(-1.80527 0.294905 0)
(-1.22436 -0.368753 0)
(-2.06338 0.172169 0)
(-1.12503 -0.220595 0)
(-1.04488 0.00696095 0)
(-1.85885 0.160297 0)
(-2.07871 0.152158 0)
(-1.04308 0.023993 0)
(-1.87042 0.143805 0)
(-1.11801 -0.20228 0)
(-1.13052 -0.210629 0)
(-1.73938 0.34454 0)
(-1.27534 -0.442869 0)
(-1.89705 0.397512 0)
(-2.07719 -0.315739 0)
(-2.25741 0.157132 0)
(-2.60849 0.275579 0)
(-1.89226 0.0939107 0)
(-1.99489 -0.135489 0)
(-1.04944 0.0835537 0)
(-1.79196 -0.0844824 0)
(-1.02951 0.242431 0)
(-1.01259 0.110993 0)
(-2.08728 0.0575043 0)
(-1.06716 -0.0960811 0)
(-1.87608 0.0682497 0)
(-1.50047 0.480141 0)
(-1.62443 -0.25014 0)
(-1.40911 0.347297 0)
(-1.84736 -0.435615 0)
(-1.98094 0.428314 0)
(-2.09152 -0.0934838 0)
(-1.85806 0.128213 0)
(-2.4853 -0.29589 0)
(-2.26686 0.0190358 0)
(-2.20772 -0.113534 0)
(-2.33808 0.312207 0)
(-2.76775 -0.159409 0)
(-1.84634 0.0513639 0)
(-2.05394 0.0341775 0)
(-1.04544 -0.0509317 0)
(-0.994142 0.143127 0)
(-1.83879 0.398238 0)
(-1.13058 -0.233347 0)
(-1.27835 -0.461761 0)
(-1.68949 0.344395 0)
(-2.63783 -0.237536 0)
(-2.1685 0.114183 0)
(-2.53514 0.384649 0)
(-2.25454 0.00371551 0)
(-2.69853 0.241245 0)
(-2.28462 -0.287509 0)
(-2.29734 0.0883279 0)
(-2.07434 0.171632 0)
(-2.21351 0.365816 0)
(-1.98669 0.286602 0)
(-1.60512 -0.394398 0)
(-1.43888 -0.102198 0)
(-1.39616 0.440289 0)
(-1.72643 -0.225359 0)
(-1.33125 0.297027 0)
(-1.95765 -0.376757 0)
(-2.09565 0.24686 0)
(-1.12689 -0.0536952 0)
(-1.22825 -0.291965 0)
(-1.88745 0.221085 0)
(-2.11863 0.171894 0)
(-1.09696 0.00430912 0)
(-1.17846 -0.232213 0)
(-1.90358 0.159788 0)
(-1.44111 0.454861 0)
(-1.7163 -0.23169 0)
(-1.36687 0.310073 0)
(-1.95057 -0.394131 0)
(-1.76456 -0.205418 0)
(-1.31784 0.411589 0)
(-1.99504 -0.33542 0)
(-1.27176 0.266637 0)
(-2.26324 0.0988901 0)
(-2.84017 -0.0395307 0)
(-2.50943 -0.17452 0)
(-2.61456 0.359539 0)
(-2.05656 0.479501 0)
(-1.84698 -0.143674 0)
(-1.87487 0.277851 0)
(-2.14883 -0.424188 0)
(-2.09701 0.484559 0)
(-1.82717 -0.140202 0)
(-1.90355 0.284662 0)
(-2.12756 -0.431818 0)
(-1.81403 0.315423 0)
(-1.1861 -0.166631 0)
(-1.99135 0.367385 0)