/*--------------------------------*- C++ -*----------------------------------*\
| =========                 |                                                 |
| \\      /  F ield         | foam-extend: Open Source CFD                    |
|  \\    /   O peration     | Version:  3.0                                   |
|   \\  /    A nd           | Web:         http://www.extend-project.de       |
|    \\/     M anipulation  |                                                 |
\*---------------------------------------------------------------------------*/
FoamFile
{
    version     2.0;
    format      ascii;
    class       volScalarField;
    location    "20";
    object      Theta;
}
// * * * * * * * * * * * * * * * * * * * * * * * * * * * * * * * * * * * * * //

dimensions      [0 2 -2 0 0 0 0];

internalField   nonuniform List<scalar> 
3012
(
-2.66586
1.79387
4.30732
-0.245525
22.3956
6.60576
-17.2191
-1.68384
-2.4724
3.81375
-2.67094
3.72143
1.00844
-0.7006
2.5396
0.87275
-15.7901
-20.6324
14.3401
20.5222
1.20502
-0.0224259
1.83062
0.837291
4.18894
-2.66877
5.38777
-2.01045
-1.58276
3.93842
-0.0966254
2.34305
0.433567
2.87613
-0.890947
1.49824
3.09718
7.78139
-6.01252
-1.8515
0.95507
3.09832
1.17446
-0.946129
0.87004
1.15531
-1.19945
3.20468
0.771409
1.72855
0.0909167
0.999324
-4.04867
1.65424
1.4261
6.80721
-5.60882
-12.2048
3.72224
10.4599
-12.0154
9.93696
18.6447
-2.8546
0.957926
-1.72477
4.13721
1.40842
2.08569
1.13147
0.910394
-0.0638143
2.30561
1.43788
0.0722714
-0.38735
-0.657674
2.72014
1.85018
0.210865
0.91387
-1.43223
1.13048
3.4818
2.89178
0.89265
1.00081
-0.806121
-0.138056
3.59715
-1.32489
2.42719
2.94574
-1.81884
-0.320009
4.00187
-5.50789
3.7772
-2.99474
6.26036
3.9635
2.05126
0.362306
-1.61173
3.39356
-0.835525
2.99214
-1.05631
2.25379
0.781673
-0.338796
1.22848
-1.07415
3.28702
1.22742
1.00526
2.4291
0.0775975
2.31339
0.209614
-0.877943
-0.0383814
0.817515
2.72392
4.29001
-8.98061
7.22646
-5.99338
24.4135
-25.4555
4.29738
-4.78492
-1.37858
0.97577
8.052
5.19546
-12.2715
11.9358
19.9569
-7.45728
9.11579
-2.21395
-5.15998
5.2997
6.88528
6.83418
-4.70737
-1.42238
5.98144
-20.0914
-5.98176
18.5063
0.260779
-0.831339
1.8477
2.94367
2.24686
3.16871
-0.994929
-0.0634232
2.56687
-0.42338
2.02263
0.0617488
-4.1322
-4.0394
5.73052
5.57044
0.445898
3.02972
-1.05911
1.50341
9.94752
9.09294
-9.06759
-8.76178
-7.73899
10.7726
11.777
-6.47339
-6.9897
1.28238
7.55589
-0.327985
3.4245
-1.54484
-1.07186
4.09934
-0.216499
2.71826
2.16113
-0.805088
2.27047
-0.174814
1.99887
0.0816488
2.00437
3.0903
-1.05095
0.0858473
0.857671
-0.448307
0.83507
2.11671
1.17268
4.53502
-2.13841
1.36025
1.45453
1.28446
1.07764
0.235265
1.07681
1.63355
0.0974731
1.08367
3.32993
1.46505
0.490325
-1.25983
0.393507
1.01578
0.855949
0.494917
0.17878
-0.252797
1.4078
1.97692
0.883757
1.48626
1.08444
0.100706
0.822662
0.299203
1.07085
0.581543
3.06607
2.48224
-0.488573
-1.14701
2.27194
-0.899266
3.12465
-0.0271281
-0.174638
3.17303
2.44236
-0.762194
1.70043
-1.75468
0.5078
4.02876
-1.85757
4.19186
3.79514
-1.3635
5.83547
1.28322
-2.06254
1.78279
1.00124
1.67915
0.305755
-0.126386
0.781994
0.288674
0.650307
1.28656
2.21227
-0.48833
-1.11516
2.9093
1.26919
4.13963
1.05811
-1.81703
1.49912
-1.23842
3.27502
0.463333
-4.90961
2.40642
0.468411
7.99044
0.875777
1.52045
0.198838
1.05276
14.6682
-14.6295
-16.3725
13.3353
-14.1956
19.5142
3.06457
1.67962
-0.295745
-1.92546
2.67742
4.31638
3.03872
-0.707126
-1.63052
4.18409
1.95396
-1.31911
3.48346
0.0197747
-1.16786
-1.22192
1.46761
1.16375
5.49751
-1.14002
-3.67088
2.52924
3.25115
3.5017
-1.01058
-0.787257
0.582792
1.44836
0.337548
1.31928
-0.0191377
-0.864254
2.17566
3.09316
-4.10416
0.378054
2.58584
8.38024
2.46305
0.563624
1.45083
-0.489777
2.15364
-0.0848714
1.96885
-0.0326869
1.30185
0.534331
1.36399
0.233646
-0.166947
3.47653
-1.18562
2.15903
1.03774
3.52161
1.30861
-1.16789
0.819863
1.99793
-0.0104674
0.0395611
0.707899
0.065378
2.00838
1.29222
-0.572425
2.6199
2.66604
-0.424696
0.253491
3.20484
-1.05369
1.88797
-0.221599
2.85984
-1.71465
1.51665
-2.70719
3.45351
5.72026
-0.180649
2.27432
2.05511
-0.492196
-0.146082
-0.517742
0.233473
1.33599
1.97648
0.0335133
-1.44456
3.63393
2.03765
4.07936
-1.8516
-1.24984
4.99449
3.27156
-1.93311
-1.99228
3.09908
-0.963472
2.39333
-0.27353
3.09527
2.38605
-0.841548
-1.2122
2.63086
0.909691
-1.131
1.33437
3.32521
-1.0004
-4.9459
9.52943
6.66378
1.61388
-2.79067
1.24271
5.85603
-8.75545
9.21199
-10.7193
7.19494
-0.80874
-0.445551
3.10857
2.72459
1.5738
-0.306181
0.665413
1.88465
-0.281685
2.52115
0.769603
1.00416
-1.20703
-0.0143468
2.27778
3.48526
-2.17316
1.40373
4.00955
0.24082
-2.65102
2.70295
4.70368
-0.511729
0.178773
-0.0688789
1.90117
-0.0243841
6.09225
0.653574
-3.7153
1.36128
1.39142
1.189
1.22202
0.834972
-32.0396
5.3667
-8.3214
29.9885
5.32773
2.35034
0.278978
-2.43174
1.19856
1.12094
0.573366
0.543967
6.95419
8.67733
-5.28923
-2.20562
2.9322
5.1575
-2.22344
-0.440776
1.82748
0.157964
0.201204
1.76931
-1.33346
-2.0715
4.72688
4.02437
0.975576
-1.56078
0.955012
3.66519
-19.4082
9.6571
-9.64106
21.0039
1.85223
2.15328
-0.428344
-0.17894
0.770736
-0.68312
1.10004
2.59965
-0.636419
2.66511
2.02159
-1.30236
0.162129
3.51594
-1.2013
1.88347
-19.2834
-15.045
12.9837
18.061
0.0445973
2.83991
2.33748
-0.627016
5.51572
0.162152
2.94171
-2.69236
-0.313055
2.47591
-0.327345
2.49307
-0.0252358
2.21061
-0.200752
1.98322
3.0411
0.60159
-1.16291
1.43894
21.6578
-20.2684
-4.93365
6.17038
3.97661
3.12621
-1.55377
-0.831601
4.45024
0.597383
1.73215
-2.21754
0.255549
2.36341
-2.64773
5.34539
0.969292
-1.04696
3.06137
1.2817
2.65675
2.95266
-0.872054
-0.62738
0.515381
1.84014
-1.98578
4.41487
-0.0057193
2.25462
-1.16986
3.31793
0.21501
-1.21845
1.35534
2.83884
1.35444
-0.321378
0.0453361
2.24325
3.64421
2.47727
-0.304953
-1.51949
1.19137
-0.562871
0.452537
2.34151
0.0157714
0.895334
1.13404
2.00471
-18.4443
27.9983
-30.2011
16.0042
0.701041
1.90629
-2.2754
4.96969
3.83437
2.12003
-1.62752
0.196463
-0.674048
5.47865
-2.29541
4.36994
-14.5232
18.966
-10.7039
13.9943
1.32307
-13.9948
2.99817
18.6839
-2.09438
2.29579
3.90267
-0.567377
-0.262977
3.35994
2.29127
-1.12339
-3.78729
3.74704
-1.7182
5.90679
1.5361
-0.951923
0.33496
3.12307
0.387554
1.3406
0.67144
1.01957
-3.0854
2.2568
4.21888
-0.999939
1.55913
2.8616
-0.827964
0.848705
0.989731
0.939055
0.634574
0.955461
2.87858
0.0457835
1.65049
-1.22387
13.5262
1.89869
4.32012
-7.65565
-2.72977
3.44534
-0.376143
5.48731
-0.692778
-3.25573
3.94843
6.99747
-6.46144
7.2428
-4.6113
11.5628
4.02487
-11.5841
9.95785
-4.96664
9.15744
-2.64704
8.28102
-2.41053
-3.22015
3.64459
5.43479
-4.87828
1.14313
1.05721
0.371634
0.584937
-0.17412
4.74763
-2.10871
2.76183
-24.158
-4.64035
23.7913
4.95832
-1.54243
3.6351
-0.37015
2.48372
5.37004
-2.60837
2.95223
-0.2264
0.849613
1.21876
0.724077
1.11247
3.94615
2.09254
-1.51749
0.349457
1.63725
0.525329
0.122616
0.473815
-16.3248
-21.1496
16.5715
21.1555
1.99904
3.8896
-1.41059
0.27296
3.29666
-0.902808
-0.636577
3.16685
2.79321
0.618799
1.41651
-0.309056
3.3356
2.69615
-1.01006
-0.626072
1.82418
-0.981892
0.569519
3.42408
0.296879
2.24838
1.78265
-0.319806
-8.20928
10.218
9.97426
-9.01817
0.65267
4.18166
1.08171
-2.75657
-3.01703
2.58832
5.48924
0.0583509
-2.04225
-3.61826
3.1955
4.8182
2.30438
-5.97591
8.7116
0.429922
-0.813931
-2.74787
4.46814
2.87345
0.402118
3.36299
7.31729
-3.97832
2.14373
-0.100267
2.34848
-0.28989
2.73572
2.03068
-0.177434
-0.805141
-2.10326
0.866196
6.16831
2.34711
2.02851
-0.424552
-0.583682
2.17581
-2.29368
3.18611
5.5145
-0.34271
2.75943
0.205752
1.64442
-0.767777
4.74786
0.420547
2.18947
-2.23768
3.91841
1.23049
-2.14662
0.783104
-0.0184021
2.30887
-2.02588
4.34417
-0.459882
0.610482
2.66953
1.45815
1.48666
1.64255
2.70271
-0.431531
3.88656
-1.03411
-1.4236
3.38018
2.34029
-1.29553
2.77109
-0.765614
0.860333
4.44282
1.52533
-2.01837
-1.36128
3.34454
2.43531
-0.397455
3.17219
-1.22839
1.36552
0.435705
-1.05438
3.01215
3.19025
-0.749267
0.709346
1.60998
3.31966
-1.10312
-0.440578
0.186163
2.41204
2.14368
1.29814
0.867822
-11.1552
13.288
-0.347255
3.09733
2.3097
-0.972887
-4.89029
5.95616
5.391
-4.66312
3.79561
-8.323
-2.65048
8.91461
2.7686
0.635886
-0.551568
1.33564
6.20865
0.442222
-0.052759
5.52351
3.03176
0.446603
1.72042
6.41715
-0.505195
9.43964
2.62559
-7.80077
-2.87674
3.3911
5.43359
-0.857484
0.844571
0.43848
0.901165
1.19952
1.1446
0.663713
1.03508
0.534166
-5.51404
0.835247
5.87569
-0.104467
2.53318
1.85437
-0.601483
0.295552
1.78991
-0.288081
-0.0241114
2.0796
-2.9843
1.37019
4.80472
8.75005
1.38976
-3.45412
1.52904
6.60909
-1.82919
3.1374
4.48345
-0.612655
-3.31636
6.27508
-0.445514
3.59818
3.17286
2.06727
0.0762465
-0.96388
-0.587976
2.91838
-0.670688
2.97206
1.60855
-3.77689
0.275817
5.77504
2.92157
-0.143428
-0.941215
1.91629
0.979109
-1.19735
3.44778
1.01262
4.45839
-2.18338
0.904627
1.35674
-1.46062
0.936116
0.337068
2.70148
2.75608
-0.661479
-0.561455
2.67566
1.56832
0.616476
3.41392
-1.14514
-0.0494321
-0.959555
2.66236
1.70617
0.423933
1.51124
2.16384
-0.195478
1.35174
-0.671825
0.954226
2.83099
-2.45143
3.90802
-1.73007
4.59225
3.01201
1.20088
0.495317
-1.13893
-1.10722
3.11747
2.66441
-0.594379
2.1229
-0.891538
-0.298441
2.67332
-0.583214
2.75693
0.0621954
1.8806
3.77231
-1.67484
-1.44635
3.93059
3.08023
-2.29134
-0.502505
4.89747
1.88318
-1.04809
0.212352
3.26876
3.17858
2.18245
0.0373422
-1.01962
-0.748524
2.89004
1.26052
0.985138
3.52929
2.06513
-0.0218008
-1.51948
9.31595
1.07853
-4.19362
3.01513
1.10865
-0.959522
-9.59119
9.6477
4.6852
0.665883
1.61986
-2.43571
1.1265
2.30725
0.650665
-0.501832
0.610915
-0.432161
2.36831
1.22443
1.53648
-1.07648
3.29566
0.598813
-4.24293
5.67866
4.09782
-2.66746
3.11993
-4.45764
-9.84279
8.47198
1.17736
2.11678
0.598572
-0.334125
1.16848
-1.11311
1.16023
3.35822
0.259101
2.42837
1.74623
-0.351921
-0.945827
2.08598
3.23785
0.066393
-0.311991
2.9585
2.20941
-1.15015
-0.26446
2.37607
-0.0961559
2.06629
13.1299
-6.52089
-5.17896
9.98449
-0.96423
0.261216
3.24189
1.99426
2.72748
-0.183558
-0.478685
2.38863
3.87379
-1.51527
3.29514
-1.15429
3.03462
-0.56099
2.88352
-0.577726
2.69269
1.30253
-0.667405
0.687987
1.13491
3.24103
1.07404
-1.01853
4.27364
-1.77993
0.353133
2.27851
3.30953
-0.957756
2.5591
-0.289925
-0.12054
1.15843
0.699544
1.9761
1.11357
3.74127
1.22987
-1.42566
3.60693
-1.43791
0.576999
1.53881
2.97745
-0.676415
4.05595
-1.76348
-3.38618
-2.796
4.41124
4.92386
-0.553117
3.60953
2.78834
-1.3714
-0.143008
2.17993
1.64144
0.290052
-0.229806
2.28442
0.874642
1.16369
-0.933574
3.80397
-1.77302
5.19966
0.399618
2.33186
1.47994
-0.375911
3.02867
-0.775267
2.53139
-0.232917
5.51605
3.42831
-3.18425
-0.995711
4.38914
3.19611
-2.06812
-0.921692
-2.38617
10.2685
-11.5282
0.657277
3.46353
1.61613
0.557208
-1.21692
0.409639
1.12939
0.832621
0.153498
0.473494
0.0978596
1.02631
1.51685
1.06269
0.0608582
0.832131
0.346239
1.14615
-1.42132
1.09779
3.72014
-1.01585
0.43239
0.71096
2.20672
1.93018
-0.0864258
-0.858072
1.16131
1.51902
0.434931
2.67815
-0.664994
-5.55041
3.47957
6.56206
-2.16871
3.55643
-3.66473
7.42503
-7.19653
2.03276
0.627337
1.14112
-0.177012
5.54205
-0.359338
3.67241
-2.85516
0.24449
1.68485
0.312391
1.37071
0.515689
2.86306
1.63654
-0.756652
0.750024
1.2847
0.529728
1.03412
2.90464
1.33019
0.824228
-0.872592
1.71065
0.566984
0.163854
1.04492
-0.467205
-2.23672
3.10404
4.9888
3.15975
-2.33016
3.82796
-1.61613
1.55534
0.721934
0.282606
1.12224
1.37998
5.30172
1.25437
-2.63487
1.95068
-0.626589
-0.0523199
2.60188
2.46632
-1.92929
0.312678
5.01572
-2.03464
-1.01842
4.2902
5.81422
-0.464866
2.40577
0.70091
1.42333
2.22324
0.0147101
2.01079
-0.0792
4.5458
-0.54659
4.82612
-1.89107
3.2417
4.16719
-4.09647
-5.23841
4.73531
-2.28431
2.70363
-0.299258
1.99955
-0.697713
0.121804
2.6679
3.04947
0.616378
1.67355
-0.846611
2.51108
0.577745
1.42205
-0.578745
2.23238
-0.0507147
-0.176377
2.14629
-1.21017
2.13541
3.6241
0.232821
-13.5825
13.7851
11.4835
-12.4137
3.34229
-0.767428
-1.45262
2.84578
2.3416
-2.17033
-0.806774
3.72722
0.268403
0.715175
1.57498
0.988004
-0.660047
1.58585
-1.55976
2.60196
4.15582
-1.27225
-1.7143
4.35545
0.0897447
2.76641
-0.69043
1.93949
5.15043
0.295133
2.29569
-2.47096
0.107131
1.67183
0.219923
1.52363
3.26767
-0.753836
-1.92744
2.15811
1.61392
-0.836069
2.75363
0.332542
-1.60782
3.91179
-0.27449
2.54779
0.0809098
1.59436
0.277017
1.25703
-1.22042
4.51003
-1.82672
4.00366
1.70384
0.562653
1.30451
0.243441
-0.0388563
2.1306
2.42703
-0.486135
1.12012
2.01684
0.80396
-0.0583581
-0.875218
1.20228
0.604555
2.86957
-0.767276
-1.31087
3.6352
3.0546
0.0110384
-0.00257122
1.40641
1.49475
-0.0465503
0.994075
1.68675
0.600046
1.87706
-0.110414
0.357848
0.979951
-1.81831
0.841769
0.176541
2.90754
2.34686
5.16691
-2.32333
0.508682
15.8283
-9.83133
10.8298
-6.01586
2.22836
1.15552
-0.290345
0.424178
6.12386
-15.2904
20.9405
-1.05684
-5.88912
-1.20962
9.34563
4.71107
2.89708
-2.56536
-0.22773
4.96559
1.35006
0.423404
-1.01705
2.83137
1.07664
0.946856
-0.507814
2.61502
0.242507
1.37844
2.41223
-0.623221
0.55272
0.406362
1.4931
1.24276
1.57806
0.863664
0.178863
0.919489
1.02752
0.915763
4.89108
-2.00217
1.64302
2.06322
-0.0114925
-0.336188
3.27064
-1.01579
-0.880237
3.39641
6.36004
17.7917
-12.1517
-1.13359
-1.93735
3.74595
3.92498
-2.19058
-19.0361
7.6471
17.5931
-10.5655
4.96568
2.73362
1.68573
7.21178
3.05678
-0.625425
2.73323
-0.773429
0.216441
-2.27282
2.76901
5.08196
1.89146
-1.29627
2.54041
-0.659578
1.68804
-0.787882
2.86763
0.542118
-1.0923
3.43325
0.381785
1.84445
0.25768
1.21202
0.471282
1.17091
-1.38769
4.29055
-1.79183
4.33719
0.1539
0.550672
1.25644
1.04473
-1.86395
4.02886
-1.44196
4.67121
1.87866
-0.52961
2.50749
0.298511
2.0325
-1.76558
4.17792
0.263528
3.25756
3.6266
-1.03548
-1.37617
-0.415973
0.638726
2.52244
1.39809
0.670037
0.923977
-0.99413
2.61301
4.9934
1.90558
-3.03661
0.265842
3.25255
1.34162
-1.14724
0.704893
2.48674
-2.1277
3.7387
-0.672088
5.60812
-4.1976
0.399189
1.07288
3.49066
0.5865
1.59462
-1.51427
1.47853
-0.229132
-2.17754
3.53982
0.194096
-0.211687
1.84719
2.30715
-17.5072
-3.70366
16.176
3.36119
2.65396
-0.48716
2.16616
-0.070511
1.26901
0.471756
1.95449
-0.158883
0.139618
0.0965119
1.67858
1.70853
0.890794
-0.437416
2.60758
1.16419
1.95587
0.332144
2.53555
-0.494813
0.546993
0.566172
1.44975
1.18361
-21.7054
13.9692
-11.421
21.994
0.350892
0.382636
1.45295
1.14221
1.8053
-0.157886
-0.319839
2.15166
1.54707
-0.10347
2.12308
0.642406
0.249123
0.339241
1.31149
1.11458
0.318353
1.98689
1.85425
0.195775
-0.155975
1.48184
2.12162
0.403433
-0.756823
2.35393
3.08257
-0.151608
0.791958
0.201344
0.638723
1.27652
1.08047
0.84948
2.95643
-0.825397
-1.55544
-1.76982
6.22601
6.26593
-0.56937
-0.126222
2.27997
2.68078
1.10937
-2.12388
4.62597
1.01959
-1.23365
0.176977
1.9961
3.29335
0.119223
1.63069
0.410582
1.01113
-0.899686
3.10059
0.731691
1.60663
1.64307
-0.00375548
0.789546
0.713442
-0.532234
3.03627
-1.14393
2.353
1.95005
-0.0728908
-1.02082
2.98282
-0.451709
3.44686
-1.04499
2.73074
-2.19348
0.895416
1.57718
4.68404
-6.85239
-23.6657
7.13293
24.9012
0.181771
-0.348946
5.31594
4.75732
3.84181
-1.64347
-0.220393
2.14998
5.21287
2.24236
0.670568
-2.64501
3.21399
3.63264
-0.947863
-1.42498
-1.11249
2.6107
2.55523
5.74972
2.96954
-3.3523
5.12251
-1.31167
-0.0592238
2.74103
-2.11976
5.18731
-0.651474
-0.300263
2.71567
0.912807
1.96224
0.666897
1.34651
0.162527
-1.82839
1.44649
-0.301182
2.88198
-2.46359
1.79207
0.895175
5.58827
-0.657399
2.44127
0.874124
0.90834
3.38459
3.0598
-1.26176
-1.07087
-0.864966
3.09388
1.93513
0.342619
2.33519
-3.9323
-0.628525
5.54475
-1.53056
-0.61953
3.53276
2.8453
2.4531
-0.0315805
2.01158
-0.446105
2.24598
-0.606573
2.81114
-0.394561
-0.566941
1.74908
0.646948
2.87816
1.84617
-0.818086
0.20681
2.83404
3.71987
-1.59474
0.569554
1.50621
4.69556
-1.75543
-1.31139
4.75492
-0.242067
-0.300636
2.19773
2.37691
1.64971
-0.556384
2.69835
0.379405
-1.13176
1.82069
3.53179
0.461102
-0.998598
-2.04343
3.40897
4.58865
-0.996858
1.02278
3.22595
1.14453
2.42431
-1.06684
1.89246
-1.47503
-0.679271
-2.24201
4.04258
5.20358
1.84327
0.930881
-2.93005
5.75382
1.30942
-0.222099
2.39145
-0.165531
3.72658
-1.38106
3.5264
-1.8557
-0.214197
1.20846
2.21064
0.728557
4.17282
-2.06944
1.41555
0.53631
3.61234
-1.51011
1.87612
0.542777
-4.55515
-4.22573
6.46178
6.14841
4.37149
-2.13234
1.57609
0.603838
0.474785
-1.99875
3.50845
1.28484
-2.78434
7.84654
-4.52328
5.80506
-0.635336
3.65745
-1.62212
2.31683
2.32828
5.19644
-2.33224
0.357424
-1.70313
4.04928
1.3583
0.777428
-11.1688
6.20969
-6.76336
11.9078
2.49306
0.977871
0.963885
-0.434047
-0.253418
1.68012
2.29892
0.380185
0.384187
0.228594
1.64651
1.33925
0.953296
0.922103
1.91892
-0.0849119
3.27723
-1.84637
2.28126
-1.05643
-0.208526
2.28876
2.83869
-0.682596
-2.03522
4.06756
2.29218
0.13007
-0.941002
3.04083
2.02194
-0.0500747
0.929257
1.98136
-0.213058
0.836981
-0.46353
1.74613
3.57687
-2.23161
2.95229
-0.693374
5.06656
1.90416
2.46918
-0.574687
2.73171
-0.390097
0.150491
3.04484
1.69349
-0.541209
1.43266
0.790452
0.693268
3.44139
-0.754314
1.88929
0.529641
3.01338
2.50476
0.812232
-0.572244
1.52927
-0.108411
2.06159
-0.0193334
2.34141
0.540587
-0.723149
1.55212
2.81602
3.43352
-1.55759
0.65411
1.03864
2.16125
-0.0739714
0.577208
1.36749
-0.438778
-0.773515
2.91641
2.59126
2.00126
0.230878
0.133504
1.87784
4.21743
-2.58939
3.86882
-2.91763
2.26074
3.14327
-0.0222427
-1.07418
5.67857
-0.293292
3.76013
-1.16615
2.23229
-0.412407
-4.91051
6.38072
-2.28368
2.91129
-0.740059
4.66311
-0.665551
3.04255
2.65942
-1.10113
3.70547
1.23925
0.71691
-1.77673
1.28603
3.27837
-1.34425
0.55344
-6.10347
3.72137
-2.32269
7.6648
2.88892
-1.83967
4.8066
-0.414048
5.58864
1.08527
1.61412
-2.7575
-3.9485
1.95467
1.26573
7.15141
1.5848
-0.00187787
5.10413
3.34521
0.204862
2.74986
1.43819
-1.09546
1.48612
-2.06374
3.85326
0.272447
-0.646082
1.05965
2.80749
1.07082
3.20046
-0.260972
2.55292
-0.930843
-1.31358
1.45213
3.58544
0.739668
0.401459
2.59243
-0.489321
1.82288
0.461148
1.97073
-0.0433719
1.84848
-4.50836
8.00986
6.29044
-5.77794
0.526015
1.98343
1.44755
0.00509689
0.463046
0.255894
1.52178
1.7417
0.359636
1.71077
2.68297
-0.590902
-0.125536
2.10067
2.19119
-0.0143239
2.0773
1.95578
-0.188113
-0.265515
1.43007
-0.675355
2.46392
0.361252
-0.348541
2.29859
2.34073
-0.327005
-3.19064
2.72071
0.228842
6.22462
5.49449
-1.24903
4.86784
-2.23552
3.81802
-0.673657
1.59573
-2.76073
1.59424
0.246759
-1.47046
3.50024
0.766731
0.266501
1.5464
0.895497
0.545067
1.48989
1.31239
0.407609
2.60981
1.62762
0.0292222
-0.917478
-1.21605
5.68331
-2.62923
4.45259
-0.10826
2.18689
3.31531
-1.29316
-0.552108
1.09227
5.62331
-4.53742
1.77425
2.19762
6.48373
-2.56621
-2.8425
2.51901
0.535942
6.06249
-0.712988
1.64815
3.79913
-2.79432
-14.1603
23.0091
12.0567
-25.1913
0.341798
2.44028
5.39215
5.62368
-0.977035
3.32057
3.43556
-1.15518
0.724801
4.73646
0.500325
-3.24857
-1.09978
3.16622
1.57695
0.353484
3.20737
-3.44901
5.08096
-1.79703
4.01277
-0.991291
-2.37856
2.28298
2.86069
-0.531742
2.32515
-1.15855
3.11648
1.42075
-1.00779
0.675687
2.60468
-0.592462
-0.975874
3.11774
1.54432
-5.35153
5.57156
-1.45515
1.3567
-0.377714
0.673506
2.27355
-0.1746
1.75341
-0.550991
1.92918
-0.776879
1.28831
0.205008
2.17012
0.00343662
-0.27668
2.32571
2.50385
-0.0449804
1.96727
2.15463
0.0443398
1.69824
2.60982
-0.554302
0.276004
4.70466
-2.37086
1.0839
1.18363
-3.48642
-9.32756
9.98262
4.35727
0.0313946
-1.69604
4.07794
2.31648
0.363477
3.98579
2.11257
-1.80313
-4.11141
5.44543
-4.39252
5.21349
2.12134
1.18956
-0.405196
1.08025
2.2134
-0.13522
0.480148
1.62023
-1.35592
3.57796
-2.17418
2.72462
-1.22665
12.4055
4.93947
-8.13106
-17.5384
6.24454
-4.7069
18.5513
-1.50317
-0.934982
2.65246
3.35605
4.84204
0.267491
2.33505
-1.72061
0.885664
-3.35123
6.47549
2.1014
7.6151
0.629447
0.553674
-6.68529
3.80818
-3.87299
-2.99471
4.75182
-0.934252
2.11236
3.02589
-0.132079
0.906569
0.709043
0.109569
1.59177
0.0657853
2.44902
1.87007
-0.38604
4.36056
1.4743
0.471707
-2.52254
-0.5192
2.73248
-0.210443
2.55329
0.806691
-0.471777
1.34578
2.50812
2.43864
-1.43193
3.48566
-0.467675
3.50575
-1.49458
4.00098
-1.11587
0.178721
2.12289
1.68651
-0.231182
-26.8818
7.99
-10.2102
25.4067
2.30673
-0.288439
2.31509
-0.269008
0.398581
3.46402
-1.67472
1.45903
2.71486
-0.514976
1.39823
0.781395
6.83565
1.68286
-2.85348
2.39036
0.875576
-0.193457
2.1693
1.12372
2.00767
0.231432
0.0858778
1.57661
1.96436
-0.756725
2.71238
-0.0155087
2.67673
-0.757531
2.00281
-0.108123
-9.8991
12.0842
15.5825
-3.79735
-2.33693
4.18239
-0.791644
2.87889
5.25198
-2.21035
3.74642
-1.14439
5.33787
0.559049
-3.49216
1.80712
2.16779
-3.7451
-0.521545
5.51856
-6.90187
-23.0971
5.51552
20.5128
-2.21501
2.0998
4.33153
0.33503
-3.49811
-2.42718
4.72412
3.66964
-4.30696
0.181527
2.66585
8.21402
1.65898
0.271055
1.5001
0.339951
-4.09835
4.00281
-3.51941
4.21483
-1.23867
2.70787
2.60528
-1.008
0.683431
0.21004
1.5762
0.937136
0.367272
-1.77317
4.25737
2.07286
-0.983844
3.81478
3.17622
-1.39985
-2.90645
3.19818
-0.890151
5.02935
2.71423
3.70528
-0.520346
-1.50074
3.09939
3.57917
-0.851033
-1.18262
-0.0929286
3.9349
-1.88422
1.9851
1.79571
-0.0214039
0.868504
1.09839
0.0718951
-1.42721
3.80172
2.13005
-2.68724
1.2784
1.13997
4.70501
-1.14462
-0.830152
3.43701
3.62254
7.98555
-0.11549
3.50884
-3.67845
2.1568
3.92884
-1.75972
0.247819
2.97845
1.67644
0.317392
-0.939031
1.02444
0.79778
3.23532
-1.31907
-0.669136
2.33487
2.94635
-0.182913
-0.632856
2.57023
2.8602
-0.275472
0.671486
23.0512
5.36849
-16.805
3.16726
0.0715945
1.80734
-1.32074
2.49575
-2.86246
5.60535
-0.433571
0.662104
4.00868
1.38606
-1.69079
-0.809633
5.68343
-2.50552
3.72995
0.473287
1.37156
0.484258
1.45287
1.66841
0.136548
1.15575
0.635333
-1.65692
2.2641
-1.60875
2.46808
4.88037
-1.47974
4.57439
-1.28883
4.07872
-1.83863
-0.136795
2.40925
4.875
1.25705
-3.78936
-0.460552
4.57761
-1.09522
-2.1529
3.36621
1.77254
6.07053
-0.583153
-4.04396
-1.83749
2.00984
3.89521
-0.0605447
6.82372
-4.75904
-1.94362
4.28437
0.132058
3.78809
-1.71542
1.75661
2.97459
-1.45737
-4.4862
5.89268
-2.63246
0.827719
5.84476
2.19006
9.9516
-14.9851
-8.81613
16.6653
-0.514192
9.2058
5.27454
0.0141811
2.55185
-0.28675
2.06075
-0.688926
2.75433
1.36959
-0.713248
0.579336
2.2474
4.36913
-3.3695
-1.30453
4.3611
4.66441
-1.27231
-0.909184
-0.136585
3.73624
-2.13342
1.66276
2.19004
5.32807
0.664744
-2.51921
5.83719
0.0710089
1.85894
-3.62144
-4.47254
2.92319
6.27793
-1.11961
3.79101
1.4645
0.62797
-1.87669
0.337806
2.59519
1.81806
-0.452282
-0.309626
1.99344
0.154658
2.47637
5.95277
1.38692
1.90776
-2.60053
13.9195
-21.9372
20.3368
-15.5556
0.7928
-1.09776
3.40263
1.51801
1.75395
0.179117
2.30759
-0.120384
2.6651
1.41295
1.01475
-0.446172
-0.444544
2.62061
2.95828
-0.760693
1.7244
-1.34045
0.479029
3.49858
0.212501
1.5953
-1.21282
3.31192
-1.0586
0.841679
3.24517
1.34776
1.88089
0.552713
0.0322646
1.80954
1.91057
-0.00172575
2.00415
0.0727264
2.47779
-0.0646787
-0.338801
2.19933
-1.34414
4.01548
3.49416
-1.71012
3.39631
2.03946
-0.785618
-2.39212
-21.4827
8.51945
-6.91216
22.7547
2.20437
-2.43268
4.55298
0.0284057
0.456425
1.4671
-1.48188
3.6137
0.569163
-1.32693
3.46606
1.65845
1.77012
0.489304
-1.86958
4.14294
-0.564433
1.14111
2.68473
0.586405
-0.960837
3.03231
1.41363
0.584615
3.72089
-1.57852
0.784595
1.52788
1.70007
-0.291721
3.71944
-2.44084
-1.23057
0.384736
2.01268
3.473
-1.67067
2.89439
-0.601495
4.05836
2.73719
-0.643666
3.12264
-0.922615
2.79942
-0.0448559
-0.697123
2.06763
0.483248
2.14369
-2.69578
5.42279
8.12951
1.57183
-5.67731
1.44085
5.86248
-2.87325
4.67875
-3.86156
-2.17547
-1.05836
4.75345
3.74292
-1.58826
3.74963
2.89518
-0.693537
5.64433
12.7591
-8.47385
-1.8413
3.65685
7.02763
-1.09964
-3.4517
-3.66713
5.38593
4.85197
-4.58413
-0.0111951
-0.0874411
2.03556
2.06802
-0.683394
2.63675
1.54613
0.415416
0.336531
1.80081
3.99097
-1.72901
-2.57386
1.11368
5.15314
1.52252
-2.77684
-0.224729
2.91863
5.50023
-2.50606
2.54563
4.40576
-0.772672
2.155
4.01368
-0.041628
-1.8909
4.5556
1.14333
1.23799
-2.21188
3.34626
-1.39726
1.80299
6.55212
-1.00863
0.826968
3.0104
1.14977
2.06993
2.36564
-0.350176
0.0773455
-0.753076
2.79461
1.28124
0.536185
3.88181
-2.19906
-2.66441
3.27797
-1.47354
-0.291171
1.99295
3.31462
2.2654
-0.330848
-0.487633
2.16909
0.410469
2.24026
-0.28968
1.63939
5.16202
0.995933
1.89376
-2.37639
2.09112
0.844355
-0.146547
1.05948
-0.361182
1.73981
2.37339
0.17567
-18.9487
-18.077
14.972
17.4356
0.990897
-0.377907
2.14331
0.752089
-1.69124
0.423822
1.75822
4.10402
-1.31715
2.97419
-0.745377
3.435
-1.48757
3.05631
4.22671
-0.611617
4.55186
-2.69877
-2.65731
4.78536
5.91308
-0.684052
-2.45622
3.53409
5.89138
0.445214
2.50435
-2.38553
3.04631
-1.1379
3.51868
-0.703923
0.482709
1.41462
2.7462
-0.741539
1.49306
-0.431244
0.51717
2.49221
1.77248
2.43713
-0.274775
-0.384464
1.72011
0.276664
0.0498359
1.49703
2.10786
-4.22909
-0.338033
6.60398
0.204365
0.719806
1.04192
1.50847
1.38648
0.520877
-0.0546647
0.811369
4.22639
-1.43773
-2.25859
5.07047
0.227618
1.19753
1.18412
0.165539
5.87513
0.206753
2.57766
-3.03427
-27.1928
1.11692
24.3489
-3.56322
-0.140203
2.39614
2.09499
-0.426578
4.72462
3.37078
-2.17601
-0.407711
2.54486
-0.534267
0.134875
1.88079
3.0024
0.417492
1.44001
-1.03309
0.910712
3.2781
0.720644
-1.53705
4.64236
0.156657
-2.18991
2.27828
7.62015
1.66327
0.789866
-4.17153
3.92652
-1.45084
3.54529
-1.26187
3.00227
-3.9519
-0.808392
5.88038
2.49218
1.20959
-0.42873
0.967766
2.73475
0.153787
-1.14855
1.42358
1.06616
-1.89659
3.41669
0.607093
-2.553
3.5603
3.52628
-1.99997
4.25703
-0.982422
3.39423
-1.70995
-1.93069
4.27749
1.84165
0.374524
4.31813
-2.09879
1.65051
0.580937
0.800486
2.13499
-0.51372
0.900842
4.82897
3.68252
-0.923085
-1.6625
-1.79151
0.490331
1.69893
4.08586
3.59353
-1.24948
-0.680863
2.85505
-0.433571
-3.51975
6.29721
2.62845
0.623898
1.29778
2.70333
-0.73279
-2.65173
5.23873
3.45162
-4.30369
0.414201
0.788267
1.35523
0.714287
-0.0720829
1.30905
1.9102
0.532102
0.0658138
2.29953
-2.27891
4.56787
0.792277
1.08037
-0.792344
2.69998
-6.75938
3.21535
8.99446
0.20206
6.90318
-4.55781
8.20527
-2.64124
2.80591
4.61584
-0.296999
-2.17168
6.13328
-0.272986
1.44535
-4.37487
8.83373
-4.96536
2.16195
1.29227
2.55712
2.74162
-1.67569
-0.882838
-1.81928
7.03143
3.46408
-5.42976
3.61012
-3.10645
-0.319081
6.8626
-1.15335
-1.42743
3.52545
3.84575
4.08222
-1.65376
-1.19913
3.64012
3.27179
-1.9399
-1.23842
3.87099
1.14442
0.439079
1.6814
-0.174488
1.81491
0.905617
0.729006
-0.125051
0.0585828
2.09384
-1.40744
3.73745
-0.82877
3.0437
-0.821483
3.02942
-3.85199
-2.91623
5.03286
4.25039
2.14268
0.0506847
-0.329559
1.64664
2.83675
0.499027
1.66865
-0.747932
2.15309
-0.318745
1.60293
0.263936
2.25553
-0.322345
2.54663
-0.639579
3.59407
-1.22454
3.10312
-1.624
5.68091
-1.3918
4.78137
-2.88978
-5.23386
7.06525
-3.45753
4.38065
0.401045
1.89546
-2.64802
5.11574
)
;

boundaryField
{
    insideCircle
    {
        type            myTemperature;
        value           nonuniform List<scalar> 
24
(
4.96565
2.32249
1.20024
7.44051
-2.65537
-0.680909
6.93542
5.2923
0.371298
-0.688462
5.41397
4.76388
-1.17097
2.15132
3.16042
6.10737
3.13061
0.0270318
5.65664
1.98029
1.57678
-0.091536
5.22572
3.45801
)
;
    }
    outsideCircle
    {
        type            myTemperature;
        value           nonuniform List<scalar> 
124
(
2.42907
0.318804
1.75952
-0.317628
0.730066
1.48063
2.24618
1.68524
1.32041
0.194881
0.438668
2.44387
-0.127256
1.93288
1.17591
1.2006
2.40023
1.02345
1.38415
-0.80072
-0.477762
0.687388
2.53585
1.51799
1.10115
-0.311291
2.61836
-0.655107
-0.115369
-0.234927
2.44714
1.78252
2.4872
0.78828
-0.426701
1.41185
1.02559
-0.0767837
2.34939
0.947985
-0.471441
1.05752
2.51546
1.08547
0.215556
-0.373192
1.90983
2.61529
0.87753
-0.69275
2.75557
1.22318
1.89873
0.111081
2.29344
-0.129025
0.502381
2.03488
1.99866
-0.270899
-1.60675
-1.33007
4.09595
0.458443
2.65518
0.560911
-0.244611
1.42404
-0.40769
2.19494
-0.0284529
2.54932
2.31198
-0.261713
0.599084
1.58279
1.89089
-0.0436285
0.0604965
1.93217
-0.729317
0.848391
2.85187
1.32243
0.0118904
2.57704
-0.402219
2.12262
-0.0820741
-0.169544
1.92858
2.32532
1.91368
2.59207
-0.300863
0.413635
2.43494
0.742647
0.00155862
1.00578
2.07266
-0.102939
0.554887
1.45818
2.41655
-0.481326
1.32509
0.740658
0.168587
2.51598
1.92267
-0.332934
-0.257373
2.07809
-0.0161063
2.46872
2.21407
0.155421
2.41595
-0.414716
2.61794
1.12739
0.587398
-0.603382
)
;
    }
    topAndBottom
    {
        type            empty;
    }
}


// ************************************************************************* //
