/*--------------------------------*- C++ -*----------------------------------*\
| =========                 |                                                 |
| \\      /  F ield         | foam-extend: Open Source CFD                    |
|  \\    /   O peration     | Version:  3.0                                   |
|   \\  /    A nd           | Web:         http://www.extend-project.de       |
|    \\/     M anipulation  |                                                 |
\*---------------------------------------------------------------------------*/
FoamFile
{
    version     2.0;
    format      ascii;
    class       volSymmTensorField;
    location    "10";
    object      sigma;
}
// * * * * * * * * * * * * * * * * * * * * * * * * * * * * * * * * * * * * * //

dimensions      [0 0 0 0 0 0 0];

internalField   nonuniform List<symmTensor> 
168
(
(-0.143399 -0.0199301 -7.2765e-19 0.142802 8.35283e-20 0.000597112)
(-0.112064 -0.0202844 2.50532e-19 0.110739 7.68121e-19 0.00132496)
(-0.0792806 -0.016902 6.53462e-19 0.0774533 -2.66926e-19 0.00182735)
(-0.0501625 -0.013022 -6.91712e-19 0.0481213 3.21487e-18 0.00204122)
(-0.0271563 -0.00936325 8.14541e-19 0.0253292 5.24371e-19 0.00182714)
(-0.0140755 -0.00725912 -2.40024e-19 0.0131748 -1.80876e-18 0.000900697)
(-0.12995 -0.0567242 7.54953e-20 0.129386 -3.6886e-20 0.000563292)
(-0.0936019 -0.0557764 6.1944e-19 0.0923497 -3.64768e-18 0.0012522)
(-0.0616157 -0.045962 2.11466e-18 0.0598878 -2.37658e-18 0.00172782)
(-0.0345341 -0.03532 3.19497e-18 0.0326028 -3.66369e-18 0.00193129)
(-0.0138997 -0.0258011 -3.74012e-18 0.0121724 1.43728e-19 0.00172727)
(-0.00160775 -0.0211742 -2.94531e-19 0.000757181 2.98501e-18 0.000850567)
(-0.106415 -0.0850449 1.08382e-18 0.105911 -5.65712e-18 0.000504086)
(-0.0631115 -0.0768999 -4.57434e-18 0.0619909 4.8639e-19 0.00112059)
(-0.032986 -0.0603252 -7.2082e-19 0.0314396 -8.71848e-19 0.00154645)
(-0.00953097 -0.043896 -3.32788e-19 0.00780385 1.08674e-18 0.00172711)
(0.00714757 -0.0299813 8.99432e-18 -0.00869103 4.24439e-18 0.00154345)
(0.0181812 -0.0229906 1.36331e-18 -0.0189401 -4.73166e-18 0.000758873)
(-0.078277 -0.102475 1.3538e-18 0.077858 2.55972e-18 0.000418931)
(-0.0309602 -0.0805482 2.98426e-18 0.0300287 5.26878e-18 0.000931496)
(-0.00427967 -0.0570846 4.80657e-19 0.00299409 -8.71439e-19 0.00128558)
(0.0144705 -0.0361924 -1.19367e-19 -0.015905 3.12408e-18 0.00143447)
(0.0265435 -0.0197142 -3.46449e-18 -0.027824 -8.84054e-18 0.00128053)
(0.0358403 -0.0105754 -3.65212e-19 -0.0364685 1.56814e-18 0.000628241)
(-0.0509055 -0.110042 -3.82798e-18 0.050593 1.84323e-18 0.000312516)
(-0.00689891 -0.0704521 8.27913e-19 0.00620382 -3.53406e-18 0.000695087)
(0.014322 -0.0405765 -1.51016e-18 -0.0152818 7.0317e-19 0.000959818)
(0.0278103 -0.016621 2.57347e-18 -0.0288806 -9.919e-19 0.00107029)
(0.0355203 0.00081508 5.9646e-20 -0.0364747 2.25033e-18 0.000954405)
(0.0425911 0.0117372 -2.57344e-18 -0.0430583 1.93622e-18 0.000467189)
(-0.0276057 -0.111334 1.0571e-18 0.0274158 2.81656e-19 0.000189846)
(0.0038995 -0.0552745 -9.4399e-19 -0.00432241 9.97904e-19 0.000422907)
(0.0176553 -0.0203626 -1.03145e-18 -0.01824 5.01985e-19 0.000584697)
(0.0257301 0.00541874 -1.27013e-18 -0.0263815 -7.00991e-19 0.000651388)
(0.0298548 0.0228429 -1.33442e-18 -0.0304343 -5.68376e-19 0.000579521)
(0.0342814 0.035064 1.38694e-18 -0.0345635 -2.03046e-19 0.000282025)
(-0.00856732 -0.11057 7.26572e-20 0.00850999 -1.27216e-19 5.73269e-05)
(0.00290791 -0.0445741 2.36559e-20 -0.00303687 -4.39292e-19 0.000128958)
(0.00769021 -0.00688018 9.12743e-19 -0.00787017 -3.75771e-19 0.00017996)
(0.0103994 0.019718 -3.37093e-20 -0.0105995 -5.67865e-19 0.000200125)
(0.0117101 0.0368966 -8.42884e-20 -0.0118866 7.41733e-19 0.000176476)
(0.0132668 0.0497644 -4.96722e-20 -0.0133505 -1.81582e-21 8.36887e-05)
(0.00869428 -0.110552 4.10545e-20 -0.00861575 2.91559e-19 -7.85352e-05)
(-0.00274701 -0.0445667 4.03642e-20 0.00291931 2.81376e-19 -0.000172301)
(-0.00748974 -0.00688212 1.59009e-19 0.00772465 -5.91793e-19 -0.00023491)
(-0.0101116 0.0196999 9.6103e-19 0.010374 -8.79293e-19 -0.000262343)
(-0.0113036 0.0368661 -1.12266e-19 0.0115402 -6.71471e-19 -0.000236604)
(-0.0127476 0.049723 -3.17371e-19 0.0128673 -7.22946e-20 -0.000119629)
(0.0277108 -0.111281 1.07974e-18 -0.0275001 -9.12841e-20 -0.000210697)
(-0.00377321 -0.0552353 -1.97046e-18 0.00423859 -9.47869e-19 -0.000465381)
(-0.0174878 -0.0203449 -1.14584e-18 0.0181262 -8.30074e-19 -0.000638408)
(-0.0254588 0.00541243 -1.87321e-18 0.0261706 -1.80887e-18 -0.000711849)
(-0.0294744 0.0228069 6.35957e-19 0.030112 1.51475e-18 -0.000637633)
(-0.0336945 0.0350662 1.6173e-18 0.034011 2.12629e-20 -0.000316483)
(0.0509828 -0.109964 -3.84789e-18 -0.0506502 -1.14736e-18 -0.000332599)
(0.00700585 -0.0703911 8.30894e-19 -0.00627009 3.62432e-18 -0.00073576)
(-0.0141686 -0.0405483 -1.24881e-18 0.0151794 1.18685e-19 -0.00101084)
(-0.0275492 -0.0166287 2.88367e-19 0.0286761 4.32282e-19 -0.00112687)
(-0.035116 0.000755259 2.74266e-18 0.0361241 -5.43698e-18 -0.00100815)
(-0.0419812 0.0117003 -2.79211e-18 0.0424796 -1.05992e-18 -0.00049849)
(0.0783274 -0.102389 1.89589e-18 -0.0778894 -2.30142e-18 -0.000437985)
(0.0310276 -0.0805005 5.01662e-18 -0.030058 -3.00194e-18 -0.000969592)
(0.00439656 -0.0570739 -1.57197e-18 -0.00306355 -4.79156e-19 -0.00133302)
(-0.0142482 -0.0361733 2.45874e-18 0.015734 1.39137e-18 -0.00148587)
(-0.02616 -0.0198239 -9.06545e-18 0.0274885 4.30154e-18 -0.00132847)
(-0.0352688 -0.0104937 9.25246e-19 0.0359243 -3.85755e-19 -0.000655559)
(0.106436 -0.0849594 2.25647e-18 -0.105914 5.31446e-18 -0.000521507)
(0.0631388 -0.0768593 -4.55604e-18 -0.0619837 -1.22092e-19 -0.00115505)
(0.0330798 -0.060321 4.06695e-19 -0.0314911 3.08861e-18 -0.0015887)
(0.00968163 -0.0439198 -2.11794e-18 -0.00791083 -2.72446e-18 -0.0017708)
(-0.00680146 -0.0300416 3.24134e-18 0.00838408 -4.9799e-19 -0.00158262)
(-0.0177161 -0.0228878 2.35808e-18 0.0184963 3.70879e-18 -0.000780189)
(0.129951 -0.0566286 1.01425e-19 -0.129372 -3.49906e-19 -0.000579003)
(0.0936078 -0.0557393 1.55176e-18 -0.092325 1.59817e-18 -0.00128279)
(0.0616683 -0.045964 1.93715e-18 -0.0599033 3.6727e-18 -0.00176499)
(0.0345969 -0.0353247 -2.21991e-18 -0.0326296 2.88307e-18 -0.00196727)
(0.014193 -0.0258569 -1.25874e-20 -0.0124352 1.86011e-18 -0.00175788)
(0.00211648 -0.0210468 -9.3299e-19 -0.00125038 -1.24529e-18 -0.0008661)
(0.143392 -0.0198249 -6.12579e-19 -0.142785 -6.63944e-19 -0.000607364)
(0.112069 -0.0202559 -1.05481e-19 -0.110723 -1.3289e-18 -0.00134603)
(0.0793364 -0.0168343 5.66627e-19 -0.077484 -1.42216e-18 -0.0018524)
(0.0501761 -0.0130659 -8.14331e-19 -0.0481116 -7.9127e-19 -0.0020645)
(0.0273708 -0.00935952 1.33163e-18 -0.0255267 4.25945e-19 -0.00184412)
(0.0143665 -0.00726439 -8.64076e-20 -0.0134586 -6.98402e-19 -0.000907878)
(0.143349 0.020169 -7.24543e-19 -0.142743 8.59262e-20 -0.000605425)
(0.111969 0.0207571 2.54838e-19 -0.110627 7.67302e-19 -0.00134197)
(0.0790869 0.0178569 6.55479e-19 -0.0772398 -2.60008e-19 -0.00184715)
(0.0498898 0.0144545 -6.96118e-19 -0.0478315 3.21226e-18 -0.00205827)
(0.0266637 0.0116926 8.00024e-19 -0.0248259 5.32675e-19 -0.00183778)
(0.0132397 0.0111785 -2.38132e-19 -0.0123357 -1.80694e-18 -0.000904005)
(0.129821 0.0569209 7.32727e-20 -0.129248 -3.91553e-20 -0.000572932)
(0.0933271 0.0561564 6.15187e-19 -0.0920567 -3.64497e-18 -0.00127032)
(0.0610192 0.0467151 2.11967e-18 -0.0592704 -2.37922e-18 -0.00174877)
(0.0336229 0.0364374 3.19382e-18 -0.0316746 -3.65782e-18 -0.00194828)
(0.0123704 0.0276268 -3.71438e-18 -0.0106317 1.52453e-19 -0.00173871)
(-0.00103978 0.024218 -3.00735e-19 0.00189408 2.96611e-18 -0.000854298)
(0.106231 0.0851611 1.08858e-18 -0.105719 -5.65352e-18 -0.000511947)
(0.0626905 0.0770873 -4.56604e-18 -0.0615551 4.84388e-19 -0.00113537)
(0.032109 0.0606896 -7.20756e-19 -0.0305456 -8.73697e-19 -0.00156342)
(0.00817917 0.0444948 -3.27051e-19 -0.00643763 1.08078e-18 -0.00174154)
(-0.00943159 0.030837 8.96595e-18 0.0109852 4.22833e-18 -0.00155363)
(-0.0219697 0.0245912 1.36062e-18 0.0227325 -4.70943e-18 -0.000762793)
(0.0780773 0.102494 1.34781e-18 -0.0776522 2.55334e-18 -0.000425099)
(0.0304816 0.080525 2.9809e-18 -0.0295384 5.26209e-18 -0.000943244)
(0.00332575 0.0570155 4.79103e-19 -0.00202647 -8.6315e-19 -0.00129928)
(-0.0160314 0.0360984 -1.16279e-19 0.0174785 3.12043e-18 -0.00144709)
(-0.0290825 0.0194498 -3.43577e-18 0.0303726 -8.79374e-18 -0.00129013)
(-0.0401618 0.0103403 -3.68504e-19 0.0407944 1.55199e-18 -0.000632526)
(0.0507419 0.109962 -3.82431e-18 -0.0504247 1.84565e-18 -0.000317203)
(0.0064895 0.0701858 8.28017e-19 -0.0057852 -3.52449e-18 -0.000704295)
(-0.0151577 0.0400577 -1.50589e-18 0.0161285 6.9699e-19 -0.000970863)
(-0.0292304 0.0157865 2.57471e-18 0.0303116 -9.90962e-19 -0.00108126)
(-0.0377678 -0.00218867 4.82367e-20 0.0387313 2.21882e-18 -0.000963498)
(-0.0465323 -0.0136994 -2.5404e-18 0.047004 1.92706e-18 -0.000471742)
(0.027495 0.111178 1.05502e-18 -0.0273018 2.79844e-19 -0.000193241)
(-0.00418554 0.0548131 -9.42853e-19 0.00461534 9.91353e-19 -0.000429798)
(-0.0182277 0.0194918 -1.03066e-18 0.0188209 5.00129e-19 -0.000593239)
(-0.026731 -0.00686397 -1.26718e-18 0.0273914 -6.97858e-19 -0.000660409)
(-0.0313799 -0.0250947 -1.32644e-18 0.0319672 -5.57122e-19 -0.00058734)
(-0.0370895 -0.0385649 1.3686e-18 0.0373756 -1.98569e-19 -0.000286173)
(0.00853589 0.110387 7.21824e-20 -0.00847606 -1.24786e-19 -5.98295e-05)
(-0.00298818 0.044026 2.13903e-20 0.00312229 -4.34579e-19 -0.000134108)
(-0.00786639 0.0058268 9.07516e-19 0.00805284 -3.76129e-19 -0.000186452)
(-0.0107227 -0.0215048 -3.44653e-20 0.0109298 -5.69899e-19 -0.000207068)
(-0.0122002 -0.0395933 -8.83751e-20 0.0123828 7.25967e-19 -0.000182539)
(-0.0143015 -0.0541597 -4.39498e-20 0.0143884 1.7437e-21 -8.68596e-05)
(-0.00864811 0.110361 4.24286e-20 0.00857147 2.89931e-19 7.6646e-05)
(0.00289847 0.0439978 3.79077e-20 -0.00306685 2.7859e-19 0.00016838)
(0.0077623 0.00581261 1.60942e-19 -0.00799243 -5.93128e-19 0.000230131)
(0.0105536 -0.0215128 9.53508e-19 -0.0108111 -8.79211e-19 0.000257536)
(0.0119596 -0.0395573 -1.09176e-19 -0.0121925 -6.61138e-19 0.000232863)
(0.0137041 -0.0541495 -3.18052e-19 -0.0138222 -7.30614e-20 0.000118029)
(-0.0276039 0.111123 1.07678e-18 0.027395 -8.83961e-20 0.000208966)
(0.00410067 0.0547645 -1.96631e-18 -0.00456262 -9.40626e-19 0.000461951)
(0.0181319 0.0194659 -1.14587e-18 -0.0187664 -8.29417e-19 0.00063455)
(0.0265756 -0.00688721 -1.86798e-18 -0.0272842 -1.80743e-18 0.000708645)
(0.0311426 -0.0249968 6.39208e-19 -0.0317784 1.49002e-18 0.000635852)
(0.0365642 -0.0385449 1.59808e-18 -0.0368806 2.28711e-20 0.000316388)
(-0.050822 0.109868 -3.84342e-18 0.0504914 -1.15097e-18 0.00033063)
(-0.00652507 0.0701083 8.33223e-19 0.00579319 3.6176e-18 0.000731886)
(0.0150993 0.040028 -1.24506e-18 -0.0161061 1.21399e-19 0.00100683)
(0.0291349 0.015755 2.91824e-19 -0.0302591 4.35686e-19 0.00112417)
(0.0375359 -0.00206342 2.72056e-18 -0.0385434 -5.40794e-18 0.00100748)
(0.0460666 -0.0136737 -2.76676e-18 -0.0465661 -1.05586e-18 0.000499442)
(-0.0781399 0.102374 1.89217e-18 0.0777048 -2.29379e-18 0.000435133)
(-0.0305002 0.0804266 5.01064e-18 0.0295361 -2.99883e-18 0.000964108)
(-0.00337247 0.0569696 -1.56462e-18 0.00204498 -4.75553e-19 0.00132749)
(0.0159858 0.0360573 2.44766e-18 -0.0174679 1.38554e-18 0.00148209)
(0.0288576 0.0195708 -9.02348e-18 -0.0301848 4.27986e-18 0.00132722)
(0.0397407 0.0104935 9.10478e-19 -0.0403971 -3.89286e-19 0.00065645)
(-0.106264 0.0850364 2.25857e-18 0.105747 5.31068e-18 0.000517263)
(-0.0626728 0.0770177 -4.5453e-18 0.061526 -1.23411e-19 0.00114676)
(-0.0321468 0.0606566 4.01467e-19 0.0305665 3.08676e-18 0.00158026)
(-0.00815055 0.044483 -2.11442e-18 0.006386 -2.72269e-18 0.00176455)
(0.0092637 0.0309391 3.21861e-18 -0.0108437 -4.79908e-19 0.00157998)
(0.0216865 0.0246814 2.34972e-18 -0.0224671 3.68349e-18 0.000780505)
(-0.129835 0.0567967 9.92714e-20 0.129262 -3.49214e-19 0.000572417)
(-0.0932883 0.0560938 1.54676e-18 0.0920182 1.59523e-18 0.00127014)
(-0.0610257 0.0466497 1.93433e-18 0.0592735 3.66846e-18 0.00175227)
(-0.033575 0.0364819 -2.21677e-18 0.0316182 2.87949e-18 0.00195687)
(-0.0124225 0.0276376 -1.96296e-21 0.01067 1.85289e-18 0.00175245)
(0.000806257 0.024262 -9.29393e-19 -0.00167084 -1.23179e-18 0.000864586)
(-0.143355 0.0200531 -6.10874e-19 0.142758 -6.65544e-19 0.000597548)
(-0.111947 0.0207197 -1.00718e-19 0.110619 -1.33138e-18 0.00132797)
(-0.0790675 0.0177893 5.65086e-19 0.0772329 -1.42316e-18 0.00183451)
(-0.0498195 0.0145045 -8.13879e-19 0.0477691 -7.94803e-19 0.00205042)
(-0.0266279 0.0116853 1.31431e-18 0.0247921 4.30492e-19 0.00183583)
(-0.013214 0.0111167 -8.16373e-20 0.0123085 -7.02711e-19 0.000905504)
)
;

boundaryField
{
    out
    {
        type            mySigma;
    }
    in
    {
        type            mySigma;
    }
    frontAndBack
    {
        type            empty;
    }
}


// ************************************************************************* //
