/*--------------------------------*- C++ -*----------------------------------*\
| =========                 |                                                 |
| \\      /  F ield         | foam-extend: Open Source CFD                    |
|  \\    /   O peration     | Version:  3.0                                   |
|   \\  /    A nd           | Web:         http://www.extend-project.de       |
|    \\/     M anipulation  |                                                 |
\*---------------------------------------------------------------------------*/
FoamFile
{
    version     2.0;
    format      ascii;
    class       volVectorField;
    location    "2.7";
    object      s;
}
// * * * * * * * * * * * * * * * * * * * * * * * * * * * * * * * * * * * * * //

dimensions      [0 0 0 0 0 0 0];

internalField   nonuniform List<vector> 
400
(
(-0.00230623 0.000613808 2.77097e-318)
(-0.00356748 0.00125553 4.8452e-318)
(-0.00550042 0.00152849 5.55869e-318)
(-0.00705152 0.00166133 5.69025e-318)
(-0.00872951 0.0014755 5.54867e-318)
(-0.0100891 0.00127567 5.2846e-318)
(-0.0113257 0.00087941 4.8947e-318)
(-0.0122316 0.000450988 4.48668e-318)
(-0.0128821 -8.82401e-05 3.98362e-318)
(-0.0131922 -0.000658568 3.50385e-318)
(-0.0131647 -0.00127845 2.95704e-318)
(-0.012798 -0.0018832 2.46519e-318)
(-0.0120438 -0.00249159 1.93397e-318)
(-0.0109876 -0.00300769 1.47906e-318)
(-0.00951978 -0.00351499 1.01158e-318)
(-0.00785602 -0.00382935 6.1987e-319)
(-0.00579088 -0.0041378 2.60338e-319)
(-0.00379728 -0.00410664 -4.73858e-320)
(-0.00143055 -0.00372523 -2.24602e-319)
(1.07155e-05 -0.00234888 -2.51889e-319)
(-0.00246862 0.00101832 2.67359e-318)
(-0.0047387 0.00241033 5.63082e-318)
(-0.00789629 0.00315086 7.1514e-318)
(-0.0104712 0.00334518 7.89343e-318)
(-0.0132371 0.00306985 8.08342e-318)
(-0.0154183 0.00257542 8.00086e-318)
(-0.0173889 0.0018515 7.62605e-318)
(-0.0187917 0.00104894 7.14382e-318)
(-0.0197802 0.000143902 6.47024e-318)
(-0.0202196 -0.000794485 5.77379e-318)
(-0.0201365 -0.00178013 4.95535e-318)
(-0.0195218 -0.0027622 4.17725e-318)
(-0.0183134 -0.0037475 3.3339e-318)
(-0.0166378 -0.00464781 2.57791e-318)
(-0.0143306 -0.00546847 1.80095e-318)
(-0.0117696 -0.00602356 1.1366e-318)
(-0.00863318 -0.00628858 5.01363e-319)
(-0.00574566 -0.00594487 -5.21733e-321)
(-0.00250302 -0.00474251 -3.46958e-319)
(-0.00029206 -0.0022974 -3.77708e-319)
(-0.00219837 0.00299046 2.08803e-318)
(-0.00459427 0.00647804 4.90147e-318)
(-0.00792839 0.00809164 6.61088e-318)
(-0.010786 0.00855991 7.59113e-318)
(-0.0138485 0.00801747 7.99027e-318)
(-0.016264 0.00696832 8.03036e-318)
(-0.0184718 0.00543117 7.74143e-318)
(-0.0200344 0.00367174 7.28345e-318)
(-0.0211603 0.00168661 6.62659e-318)
(-0.0216733 -0.00039827 5.90795e-318)
(-0.0216156 -0.00257904 5.07666e-318)
(-0.0209755 -0.00475605 4.25882e-318)
(-0.0196664 -0.00690787 3.39423e-318)
(-0.0178557 -0.00885829 2.60131e-318)
(-0.0153165 -0.0105637 1.82049e-318)
(-0.0125184 -0.0116588 1.16102e-318)
(-0.00907127 -0.0120677 5.86901e-319)
(-0.00588783 -0.0111477 1.89978e-319)
(-0.00245203 -0.00871638 -2.73119e-320)
(-4.75045e-05 -0.00390314 -2.09484e-320)
(-0.00221593 0.00395473 1.21996e-318)
(-0.00432759 0.00882572 3.40127e-318)
(-0.00752009 0.0109842 5.00156e-318)
(-0.0100436 0.0115524 6.08404e-318)
(-0.0128403 0.0107465 6.67235e-318)
(-0.0149165 0.00927434 6.89845e-318)
(-0.0168647 0.00722183 6.79828e-318)
(-0.0181945 0.0049131 6.48366e-318)
(-0.0191905 0.00236333 5.97199e-318)
(-0.0196598 -0.00029829 5.35675e-318)
(-0.0196648 -0.00307375 4.64091e-318)
(-0.0191936 -0.00586819 3.90603e-318)
(-0.018128 -0.00865903 3.14539e-318)
(-0.0166518 -0.0112424 2.43241e-318)
(-0.0144399 -0.0135364 1.75619e-318)
(-0.0120179 -0.0150582 1.18356e-318)
(-0.00880662 -0.0156563 7.03619e-319)
(-0.00587598 -0.0144048 3.71251e-319)
(-0.00241909 -0.0111623 1.6733e-319)
(-0.000116491 -0.00471522 7.88479e-320)
(-0.002242 0.00556004 9.73428e-319)
(-0.00397185 0.0120585 2.75211e-318)
(-0.00699252 0.014772 4.11749e-318)
(-0.00909633 0.0153607 5.0805e-318)
(-0.0115747 0.0142087 5.6436e-318)
(-0.0132654 0.0122341 5.8836e-318)
(-0.01494 0.00957745 5.83967e-318)
(-0.0160369 0.00662427 5.59233e-318)
(-0.0169216 0.0033971 5.16786e-318)
(-0.0173748 3.2544e-05 4.63764e-318)
(-0.017477 -0.00348033 4.01489e-318)
(-0.0172171 -0.00704696 3.36132e-318)
(-0.0164368 -0.0106484 2.6823e-318)
(-0.0153496 -0.0140473 2.03145e-318)
(-0.0135047 -0.0171381 1.41075e-318)
(-0.0115189 -0.0193042 8.67718e-319)
(-0.00854858 -0.0203286 4.09279e-319)
(-0.00591528 -0.0189437 7.69013e-320)
(-0.00234995 -0.0149296 -1.16076e-319)
(-0.000239068 -0.00644437 -1.20305e-319)
(-0.00241092 0.00691037 6.14341e-319)
(-0.00367274 0.0146089 1.97507e-318)
(-0.00643897 0.0175743 3.13349e-318)
(-0.00792309 0.0179892 4.00932e-318)
(-0.00990549 0.016451 4.56881e-318)
(-0.0110306 0.0140478 4.84945e-318)
(-0.0122818 0.0109731 4.87836e-318)
(-0.0130293 0.00763192 4.71256e-318)
(-0.0137234 0.00404261 4.38512e-318)
(-0.0141247 0.000316389 3.94915e-318)
(-0.0143332 -0.00358241 3.43178e-318)
(-0.0143422 -0.00759244 2.87827e-318)
(-0.0139525 -0.0117183 2.30887e-318)
(-0.0134092 -0.0157323 1.76217e-318)
(-0.0121185 -0.0195245 1.25207e-318)
(-0.0107959 -0.0223879 8.12802e-319)
(-0.00825752 -0.0240382 4.52811e-319)
(-0.00613542 -0.0228401 2.01515e-319)
(-0.00246372 -0.0184143 5.68225e-320)
(-0.000586408 -0.00810505 1.67291e-320)
(-0.00258899 0.00857663 6.72646e-319)
(-0.00319706 0.0172394 1.86619e-318)
(-0.00565593 0.0203133 2.82221e-318)
(-0.00643213 0.0203906 3.52659e-318)
(-0.00790268 0.0184614 3.97559e-318)
(-0.00845324 0.0156438 4.19168e-318)
(-0.00929171 0.0122253 4.20422e-318)
(-0.00969946 0.00857316 4.05159e-318)
(-0.010207 0.00471489 3.76421e-318)
(-0.0105512 0.000715384 3.38159e-318)
(-0.0108509 -0.00347962 2.92858e-318)
(-0.0111089 -0.00785834 2.43992e-318)
(-0.0110903 -0.0124463 1.93413e-318)
(-0.0110879 -0.0170601 1.4392e-318)
(-0.010358 -0.0215777 9.69263e-319)
(-0.00976656 -0.0252779 5.45167e-319)
(-0.00770272 -0.0277505 1.84702e-319)
(-0.0062773 -0.027119 -9.13972e-320)
(-0.00247758 -0.0225525 -2.47878e-319)
(-0.00111702 -0.0105352 -2.08767e-319)
(-0.00261212 0.00995661 5.34727e-319)
(-0.00250204 0.0191192 1.54138e-318)
(-0.00445543 0.0221656 2.37377e-318)
(-0.00447699 0.0218064 2.99835e-318)
(-0.00536366 0.0195642 3.402e-318)
(-0.00533033 0.0164307 3.60509e-318)
(-0.00572674 0.0128415 3.62703e-318)
(-0.00578209 0.00906483 3.5012e-318)
(-0.0060745 0.00515603 3.25608e-318)
(-0.00633237 0.00110926 2.92432e-318)
(-0.00668878 -0.00314325 2.53318e-318)
(-0.00716038 -0.00766085 2.11148e-318)
(-0.00749209 -0.0124883 1.68041e-318)
(-0.00801878 -0.0175317 1.26325e-318)
(-0.00788338 -0.022643 8.76048e-319)
(-0.00807628 -0.0271855 5.37094e-319)
(-0.00661652 -0.0305493 2.55807e-319)
(-0.0060265 -0.0307787 5.1032e-320)
(-0.0023117 -0.0263317 -6.44607e-320)
(-0.00157192 -0.0129463 -6.55427e-320)
(-0.00239903 0.011013 6.4318e-319)
(-0.00154227 0.020288 1.60544e-318)
(-0.00282007 0.0233022 2.31884e-318)
(-0.00211018 0.0224949 2.81878e-318)
(-0.00240186 0.0200803 3.12702e-318)
(-0.00183199 0.0167283 3.26186e-318)
(-0.00180139 0.0131067 3.24862e-318)
(-0.00152216 0.00932121 3.11255e-318)
(-0.00158433 0.00549108 2.87907e-318)
(-0.00172089 0.00152157 2.57388e-318)
(-0.00207423 -0.00265017 2.22084e-318)
(-0.00267656 -0.00716833 1.8427e-318)
(-0.00327501 -0.0120795 1.45813e-318)
(-0.00424015 -0.0174221 1.08401e-318)
(-0.0046514 -0.022983 7.33954e-319)
(-0.00561141 -0.0283391 4.16996e-319)
(-0.00482375 -0.0325504 1.45937e-319)
(-0.00521823 -0.033898 -7.38776e-320)
(-0.00180115 -0.0297353 -2.09523e-319)
(-0.0019534 -0.015495 -1.95161e-319)
(-0.00183024 0.0114832 5.60414e-319)
(-0.000422334 0.020537 1.43902e-318)
(-0.000772472 0.0235109 2.09901e-318)
(0.000541856 0.0223287 2.56028e-318)
(0.00088868 0.0198848 2.83578e-318)
(0.00191793 0.0164348 2.95164e-318)
(0.00237736 0.0129186 2.92985e-318)
(0.00296991 0.00925058 2.79737e-318)
(0.0031621 0.00563479 2.57893e-318)
(0.00318613 0.00188258 2.29936e-318)
(0.00290319 -0.0020531 1.98138e-318)
(0.00226709 -0.00640475 1.64692e-318)
(0.00149757 -0.0112102 1.31419e-318)
(0.000224512 -0.0166667 9.99994e-319)
(-0.000675086 -0.022473 7.17858e-319)
(-0.00228835 -0.028514 4.78305e-319)
(-0.00228356 -0.0334512 2.85328e-319)
(-0.00360285 -0.0360044 1.411e-319)
(-0.000953264 -0.0322854 4.43375e-320)
(-0.0018521 -0.0176098 -9.6244e-321)
(-0.0010725 0.0112146 6.36895e-319)
(0.000685161 0.019845 1.50979e-318)
(0.00138649 0.0228197 2.1064e-318)
(0.00318947 0.0214056 2.4907e-318)
(0.00419134 0.0190848 2.70163e-318)
(0.00561946 0.0156608 2.76605e-318)
(0.00650448 0.0123635 2.71302e-318)
(0.00739415 0.00890753 2.56627e-318)
(0.00786263 0.00559726 2.34907e-318)
(0.00808936 0.00215494 2.08301e-318)
(0.00795022 -0.00143798 1.789e-318)
(0.00739002 -0.00549573 1.48545e-318)
(0.00656674 -0.0100319 1.18913e-318)
(0.00513792 -0.0154138 9.13977e-319)
(0.00384386 -0.0212233 6.72068e-319)
(0.00168946 -0.027736 4.67287e-319)
(0.000849688 -0.0331336 3.05797e-319)
(-0.00143252 -0.0368472 1.73822e-319)
(0.000137072 -0.0335601 7.1264e-320)
(-0.00164515 -0.0190487 -1.33892e-320)
(-0.000167304 0.0105195 5.60152e-319)
(0.00162273 0.0185722 1.39558e-318)
(0.0035077 0.0214517 1.97692e-318)
(0.0056239 0.0199383 2.3476e-318)
(0.00731122 0.0178038 2.53674e-318)
(0.0090506 0.0145108 2.58391e-318)
(0.0103527 0.0115025 2.51767e-318)
(0.0115035 0.0083332 2.36636e-318)
(0.0122548 0.00538977 2.15371e-318)
(0.0127089 0.00232652 1.90114e-318)
(0.0127735 -0.000847436 1.62914e-318)
(0.0123934 -0.00450738 1.35566e-318)
(0.0116369 -0.00864231 1.09721e-318)
(0.0102398 -0.0137697 8.6797e-319)
(0.00867377 -0.0193741 6.81499e-319)
(0.00622422 -0.0261164 5.44925e-319)
(0.00448332 -0.0317965 4.59516e-319)
(0.00152239 -0.0365478 4.10168e-319)
(0.00144906 -0.0339762 3.58346e-319)
(-0.000761849 -0.0200783 2.12695e-319)
(0.00058743 0.00923184 5.94895e-319)
(0.00229568 0.0166659 1.44299e-318)
(0.00525786 0.0193774 1.98712e-318)
(0.00761339 0.017926 2.30401e-318)
(0.00995422 0.0160368 2.44384e-318)
(0.0119569 0.0129889 2.44994e-318)
(0.0136441 0.0103293 2.35843e-318)
(0.0150206 0.00751164 2.19475e-318)
(0.0160401 0.004974 1.98189e-318)
(0.0167275 0.00233442 1.73908e-318)
(0.0170346 -0.000374421 1.48452e-318)
(0.0169126 -0.00355742 1.23451e-318)
(0.0163307 -0.00717905 1.0042e-318)
(0.0151168 -0.0118626 8.06389e-319)
(0.0134163 -0.0170145 6.53827e-319)
(0.010824 -0.0236348 5.49757e-319)
(0.00822572 -0.0292057 4.97875e-319)
(0.00455572 -0.0346131 4.72129e-319)
(0.00275453 -0.0325093 4.29358e-319)
(-0.000248288 -0.0196811 2.64276e-319)
(0.00111528 0.00793921 5.43744e-319)
(0.00259987 0.0146057 1.38349e-318)
(0.00655544 0.0170184 1.91062e-318)
(0.00904619 0.015685 2.2039e-318)
(0.0119922 0.0140318 2.31421e-318)
(0.0141641 0.0112993 2.29785e-318)
(0.016165 0.0090111 2.19115e-318)
(0.0176911 0.00658116 2.02216e-318)
(0.018926 0.00445824 1.81292e-318)
(0.0198189 0.00225403 1.5811e-318)
(0.0203767 1.70363e-05 1.34411e-318)
(0.0205684 -0.00265621 1.11686e-318)
(0.0202627 -0.00571365 9.1335e-319)
(0.0194138 -0.00982871 7.47828e-319)
(0.0177697 -0.0143879 6.32048e-319)
(0.0153833 -0.0206241 5.73472e-319)
(0.0120564 -0.0259575 5.71372e-319)
(0.00822279 -0.0318354 6.06713e-319)
(0.00426062 -0.0307051 6.06377e-319)
(0.00127386 -0.0197024 4.23202e-319)
(0.00150353 0.00652404 5.74089e-319)
(0.00271098 0.0123316 1.4209e-318)
(0.00732789 0.0142501 1.89494e-318)
(0.00988662 0.0131338 2.123e-318)
(0.0132722 0.0117124 2.18375e-318)
(0.0155274 0.00939043 2.13278e-318)
(0.017724 0.00749651 2.00922e-318)
(0.0193112 0.00549114 1.83626e-318)
(0.0206777 0.00377842 1.63345e-318)
(0.0217139 0.00200667 1.41564e-318)
(0.0224902 0.000225127 1.19718e-318)
(0.0229872 -0.0019269 9.91486e-319)
(0.0230067 -0.00439438 8.11038e-319)
(0.0225922 -0.00781876 6.68303e-319)
(0.0211636 -0.0116208 5.73151e-319)
(0.0190958 -0.0170939 5.30177e-319)
(0.0153041 -0.021755 5.38378e-319)
(0.0111941 -0.02739 5.72671e-319)
(0.00555697 -0.026513 5.65058e-319)
(0.00166183 -0.0171014 3.91488e-319)
(0.00113569 0.00504745 6.52858e-319)
(0.00237006 0.0100526 1.45423e-318)
(0.00743806 0.0115515 1.8454e-318)
(0.0100773 0.0106093 2.0032e-318)
(0.0137512 0.00942853 2.01407e-318)
(0.0159653 0.00753413 1.9358e-318)
(0.0182003 0.00603891 1.80086e-318)
(0.0197256 0.00445536 1.62954e-318)
(0.0211055 0.0031329 1.4372e-318)
(0.0221997 0.00176253 1.23588e-318)
(0.0231302 0.000400341 1.0378e-318)
(0.023907 -0.00126264 8.54101e-319)
(0.0242799 -0.00316172 6.95427e-319)
(0.024406 -0.00587313 5.73946e-319)
(0.0233907 -0.00888115 4.98058e-319)
(0.0220292 -0.013454 4.73913e-319)
(0.0181104 -0.0174072 4.97139e-319)
(0.0146322 -0.0227915 5.51017e-319)
(0.00705858 -0.0228626 5.56387e-319)
(0.00400994 -0.0165107 3.94477e-319)
(0.00133037 0.0042865 6.3567e-319)
(0.0018931 0.00781605 1.35768e-318)
(0.00699595 0.00863477 1.66256e-318)
(0.00940444 0.00793698 1.75215e-318)
(0.0130084 0.00700992 1.73106e-318)
(0.0150014 0.00563042 1.64302e-318)
(0.017069 0.00453472 1.51648e-318)
(0.0184039 0.00338196 1.36341e-318)
(0.0196661 0.00241322 1.19624e-318)
(0.0206921 0.00140837 1.02392e-318)
(0.0216689 0.000405691 8.56176e-319)
(0.0225785 -0.000813374 7.0184e-319)
(0.0232321 -0.00220432 5.70256e-319)
(0.0237484 -0.00418784 4.70474e-319)
(0.0232225 -0.00638947 4.09101e-319)
(0.0224382 -0.00978371 3.88355e-319)
(0.0188911 -0.0127164 4.01527e-319)
(0.0156811 -0.0168047 4.27169e-319)
(0.00773093 -0.0166462 4.00682e-319)
(0.00374002 -0.0112453 2.50224e-319)
(-6.0284e-05 0.00271803 9.49026e-319)
(0.00130137 0.00582056 1.45198e-318)
(0.00627986 0.0061789 1.57186e-318)
(0.00861103 0.00565062 1.546e-318)
(0.0119986 0.00496729 1.46784e-318)
(0.0136163 0.00401419 1.35774e-318)
(0.0153546 0.00329454 1.23082e-318)
(0.0163729 0.00251817 1.09129e-318)
(0.0173924 0.00188191 9.45523e-319)
(0.0182669 0.0011958 7.98884e-319)
(0.019172 0.000530315 6.58021e-319)
(0.0201612 -0.000301052 5.29727e-319)
(0.020995 -0.00121041 4.20153e-319)
(0.0219495 -0.00254683 3.36572e-319)
(0.0219326 -0.00396679 2.84992e-319)
(0.0221176 -0.00632938 2.6769e-319)
(0.0191348 -0.00829427 2.79029e-319)
(0.0175445 -0.0117185 3.05278e-319)
(0.00856538 -0.0121409 2.87156e-319)
(0.00737355 -0.0108311 1.68323e-319)
(0.000127934 0.00276574 4.52648e-319)
(4.54139e-05 0.00333001 8.02066e-319)
(0.0038617 0.00341196 9.046e-319)
(0.00527413 0.00318341 9.05474e-319)
(0.00760675 0.00287578 8.73212e-319)
(0.00862879 0.00247063 8.17353e-319)
(0.00973219 0.00210008 7.48381e-319)
(0.010353 0.00170094 6.69098e-319)
(0.0109965 0.00132694 5.84583e-319)
(0.0115417 0.000923946 4.98295e-319)
(0.012205 0.000504429 4.14813e-319)
(0.0128769 7.27409e-06 3.39522e-319)
(0.0136375 -0.000554891 2.75708e-319)
(0.0143588 -0.00128977 2.28298e-319)
(0.0147162 -0.00210805 2.00976e-319)
(0.0149554 -0.00324133 1.92063e-319)
(0.0133885 -0.00430212 1.9526e-319)
(0.0121036 -0.00551396 1.93318e-319)
(0.00633449 -0.00551434 1.50003e-319)
(0.0040362 -0.00248526 3.75193e-320)
(-0.000889734 0.00123792 9.48843e-319)
(0.00049178 0.00253297 8.51621e-319)
(0.00341676 0.00206436 7.25313e-319)
(0.00418341 0.00191081 6.13259e-319)
(0.00579906 0.00168776 5.36155e-319)
(0.00609418 0.00144495 4.68048e-319)
(0.00670973 0.00134274 4.06438e-319)
(0.00687773 0.00117374 3.46819e-319)
(0.00717739 0.00110069 2.89206e-319)
(0.00745908 0.00095309 2.33594e-319)
(0.0077912 0.000879903 1.80719e-319)
(0.00833925 0.000703847 1.32647e-319)
(0.00878119 0.000614775 9.05573e-320)
(0.00966121 0.000336462 5.67434e-320)
(0.00992602 0.000220502 3.38139e-320)
(0.0110561 -0.000355406 2.27023e-320)
(0.00992154 -0.000468553 2.26529e-320)
(0.0110806 -0.00188559 3.14078e-320)
(0.00534154 -0.00178268 2.27764e-320)
(0.00811406 -0.0048261 -1.71391e-320)
)
;

boundaryField
{
    cavity
    {
        type            myHeatFlux;
        ThetaWall       uniform 0;
        value           nonuniform List<vector> 
60
(
(0.001 0 0)
(0.001 0 0)
(0.001 0 0)
(0.001 0 0)
(0.001 0 0)
(0.001 0 0)
(0.001 0 0)
(0.001 0 0)
(0.001 0 0)
(0.001 0 0)
(0.001 0 0)
(0.001 0 0)
(0.001 0 0)
(0.001 0 0)
(0.001 0 0)
(0.001 0 0)
(0.001 0 0)
(0.001 0 0)
(0.001 0 0)
(0.001 0 0)
(0 -0.001 0)
(0 -0.001 0)
(0 -0.001 0)
(0 -0.001 0)
(0 -0.001 0)
(0 -0.001 0)
(0 -0.001 0)
(0 -0.001 0)
(0 -0.001 0)
(0 -0.001 0)
(0 -0.001 0)
(0 -0.001 0)
(0 -0.001 0)
(0 -0.001 0)
(0 -0.001 0)
(0 -0.001 0)
(0 -0.001 0)
(0 -0.001 0)
(0 -0.001 0)
(0 -0.001 0)
(-0.001 0 0)
(-0.001 0 0)
(-0.001 0 0)
(-0.001 0 0)
(-0.001 0 0)
(-0.001 0 0)
(-0.001 0 0)
(-0.001 0 0)
(-0.001 0 0)
(-0.001 0 0)
(-0.001 0 0)
(-0.001 0 0)
(-0.001 0 0)
(-0.001 0 0)
(-0.001 0 0)
(-0.001 0 0)
(-0.001 0 0)
(-0.001 0 0)
(-0.001 0 0)
(-0.001 0 0)
)
;
    }
    lid
    {
        type            myHeatFlux;
        ThetaWall       uniform 0;
        value           nonuniform List<vector> 
20
(
(0.000135815 0.0009 0)
(0.000135815 0.0009 0)
(0.000135815 0.0009 0)
(0.000135815 0.0009 0)
(0.000135815 0.0009 0)
(0.000135815 0.0009 0)
(0.000135815 0.0009 0)
(0.000135815 0.0009 0)
(0.000135815 0.0009 0)
(0.000135815 0.0009 0)
(0.000135815 0.0009 0)
(0.000135815 0.0009 0)
(0.000135815 0.0009 0)
(0.000135815 0.0009 0)
(0.000135815 0.0009 0)
(0.000135815 0.0009 0)
(0.000135815 0.0009 0)
(0.000135815 0.0009 0)
(0.000135815 0.0009 0)
(0.000135815 0.0009 0)
)
;
    }
    frontAndBack
    {
        type            empty;
    }
}


// ************************************************************************* //
