/*--------------------------------*- C++ -*----------------------------------*\
| =========                 |                                                 |
| \\      /  F ield         | foam-extend: Open Source CFD                    |
|  \\    /   O peration     | Version:  3.0                                   |
|   \\  /    A nd           | Web:         http://www.extend-project.de       |
|    \\/     M anipulation  |                                                 |
\*---------------------------------------------------------------------------*/
FoamFile
{
    version     2.0;
    format      ascii;
    class       volScalarField;
    location    "2.7";
    object      Theta;
}
// * * * * * * * * * * * * * * * * * * * * * * * * * * * * * * * * * * * * * //

dimensions      [0 0 0 0 0 0 0];

internalField   nonuniform List<scalar> 
400
(
0.0871347
0.0602834
0.0520272
0.0444563
0.0460351
0.0487667
0.055879
0.0638865
0.0737816
0.0839797
0.0947224
0.104897
0.114742
0.122519
0.129238
0.131126
0.131521
0.122053
0.111518
0.0814123
0.116186
0.0909909
0.0840542
0.0763894
0.0765196
0.0762697
0.0790944
0.0816727
0.0852831
0.0886243
0.0922442
0.0953713
0.0985622
0.100481
0.102434
0.101061
0.0998435
0.0907719
0.0822418
0.0564744
0.106571
0.0821248
0.0752272
0.0674634
0.0686102
0.0689938
0.0733409
0.0772468
0.0826972
0.0878026
0.0934697
0.0984858
0.103773
0.107323
0.111182
0.110716
0.110783
0.101597
0.0930122
0.0677258
0.103218
0.0772324
0.0718746
0.0646137
0.0672179
0.0681806
0.0732785
0.0773866
0.0830431
0.0881186
0.0938673
0.0989527
0.10466
0.108676
0.113652
0.114045
0.115878
0.107146
0.0999295
0.0724365
0.090303
0.0606763
0.0567122
0.0500545
0.0551015
0.0578195
0.0653653
0.0715624
0.0796246
0.0869795
0.0952566
0.102811
0.111335
0.117935
0.126081
0.128727
0.133685
0.125297
0.119294
0.0858322
0.0796163
0.0462244
0.044575
0.0390304
0.0467929
0.0511774
0.0606882
0.0682457
0.0777263
0.0862716
0.0959205
0.104869
0.115274
0.123812
0.134829
0.139843
0.148555
0.141145
0.137423
0.0969858
0.0659433
0.0277957
0.0294201
0.025204
0.0361625
0.0424798
0.0542855
0.0635338
0.0747971
0.0849301
0.0963621
0.107135
0.119878
0.130815
0.145328
0.153227
0.166833
0.160618
0.160905
0.109928
0.0525387
0.0124575
0.0176049
0.0153567
0.0290307
0.0370137
0.0503819
0.060662
0.072847
0.0837293
0.0960108
0.107741
0.121909
0.134561
0.15186
0.162521
0.180822
0.176798
0.181726
0.122604
0.0370965
-0.00223171
0.00697857
0.00706951
0.0230951
0.0325489
0.0470528
0.0580786
0.0707995
0.0821083
0.0948282
0.107145
0.122255
0.13626
0.155906
0.169212
0.192368
0.191116
0.202705
0.135959
0.0205362
-0.0115598
0.000618911
0.00389517
0.0209402
0.0315314
0.0461837
0.057342
0.0697531
0.0807482
0.0930007
0.105043
0.119962
0.134398
0.154873
0.170253
0.196327
0.199214
0.216001
0.150734
0.00052064
-0.0194149
-0.00403387
0.00306422
0.0205821
0.0321613
0.0464334
0.0573725
0.0689475
0.0791516
0.0903088
0.10147
0.115371
0.129565
0.149884
0.16695
0.19543
0.203502
0.227906
0.168993
-0.0208248
-0.021737
-0.00492125
0.00702726
0.0236959
0.036119
0.0491887
0.0594645
0.0695446
0.0783791
0.0876954
0.0972112
0.108971
0.121906
0.140119
0.157959
0.185388
0.200076
0.227253
0.189294
-0.0459551
-0.0251743
-0.00570402
0.0117776
0.0278432
0.0412102
0.0529223
0.0623284
0.0705669
0.0776544
0.0846332
0.0919764
0.100897
0.111948
0.127282
0.145565
0.172178
0.19475
0.230176
0.217615
-0.0693094
-0.0236599
-0.00273052
0.020897
0.0356589
0.049798
0.059654
0.0678275
0.0738317
0.0787774
0.0829803
0.0875858
0.092859
0.101029
0.111628
0.128952
0.150243
0.180934
0.214406
0.242941
-0.0921566
-0.0236124
8.77078e-05
0.0300138
0.0442047
0.0591784
0.0672509
0.0740446
0.0776569
0.0802467
0.0814311
0.0829943
0.0842701
0.0891219
0.0947893
0.110865
0.128654
0.168291
0.211135
0.280257
-0.106488
-0.0173885
0.00967043
0.0448859
0.0581334
0.0730855
0.0789637
0.0838821
0.0849403
0.084958
0.0830858
0.0813292
0.0783357
0.0789596
0.0783157
0.090863
0.0997868
0.145213
0.178223
0.299375
-0.110809
-0.00681596
0.021057
0.0610416
0.0731908
0.0878669
0.0914015
0.0942785
0.0927077
0.0901339
0.0852065
0.08013
0.0728546
0.0690884
0.0623387
0.071014
0.0738995
0.125057
0.165874
0.333408
-0.0927684
0.0146118
0.0462595
0.0863778
0.0965004
0.10867
0.109335
0.109438
0.105359
0.100186
0.0926937
0.0844083
0.0733789
0.0645756
0.0513874
0.0528407
0.0446372
0.0920149
0.111081
0.318834
-0.0575608
0.0465909
0.0741796
0.114091
0.120683
0.129995
0.127348
0.124616
0.118001
0.110426
0.10052
0.0893317
0.0747243
0.0611002
0.0416842
0.035737
0.018527
0.0616281
0.0773747
0.319035
0.037155
0.105453
0.127278
0.155932
0.156282
0.158414
0.152178
0.145536
0.137216
0.127374
0.116511
0.102873
0.0867328
0.0679452
0.0445507
0.0263021
-0.000284031
0.0176307
0.00526005
0.215409
)
;

boundaryField
{
    cavity
    {
        type            implicitExtrapolation;
    }
    lid
    {
        type            implicitExtrapolation;
    }
    frontAndBack
    {
        type            empty;
    }
}


// ************************************************************************* //
