/*--------------------------------*- C++ -*----------------------------------*\
| =========                 |                                                 |
| \\      /  F ield         | foam-extend: Open Source CFD                    |
|  \\    /   O peration     | Version:  3.0                                   |
|   \\  /    A nd           | Web:         http://www.extend-project.de       |
|    \\/     M anipulation  |                                                 |
\*---------------------------------------------------------------------------*/
FoamFile
{
    version     2.0;
    format      ascii;
    class       volVectorField;
    location    "2.7";
    object      u;
}
// * * * * * * * * * * * * * * * * * * * * * * * * * * * * * * * * * * * * * //

dimensions      [0 0 0 0 0 0 0];

internalField   nonuniform List<vector> 
400
(
(-0.0100363 0.0591809 6.02389e-316)
(-0.139228 0.120157 5.45505e-316)
(-0.184327 0.11819 4.51885e-316)
(-0.297039 0.154836 4.2639e-316)
(-0.359588 0.138084 3.24164e-316)
(-0.445245 0.137976 3.21099e-316)
(-0.501692 0.114161 2.23455e-316)
(-0.557009 0.0913004 2.33951e-316)
(-0.590227 0.0622855 1.45174e-316)
(-0.61222 0.0289786 1.65598e-316)
(-0.613446 -0.00274571 8.52637e-317)
(-0.59955 -0.0375947 1.13278e-316)
(-0.567684 -0.0691336 3.93686e-317)
(-0.516503 -0.0955402 7.21223e-317)
(-0.459085 -0.122743 2.74908e-318)
(-0.371443 -0.125489 3.54239e-317)
(-0.30695 -0.143725 -2.7536e-317)
(-0.187342 -0.105693 -6.2858e-318)
(-0.143246 -0.105416 -5.11154e-317)
(-0.00718664 -0.0410153 -6.04015e-317)
(-0.0417005 0.195131 2.19988e-316)
(-0.112261 0.184411 2.59776e-316)
(-0.179391 0.159178 2.5024e-316)
(-0.241086 0.154177 2.55616e-316)
(-0.290102 0.123557 2.26016e-316)
(-0.336062 0.113314 2.18418e-316)
(-0.369505 0.0829508 1.80744e-316)
(-0.397718 0.0655436 1.6977e-316)
(-0.414889 0.0346328 1.31229e-316)
(-0.425627 0.0125045 1.21656e-316)
(-0.425162 -0.0202395 8.56614e-317)
(-0.418143 -0.0426011 7.92968e-317)
(-0.399974 -0.0775983 4.66478e-317)
(-0.373803 -0.0951551 4.31983e-317)
(-0.33946 -0.132252 1.3194e-317)
(-0.292481 -0.141214 1.01959e-317)
(-0.243592 -0.178285 -1.84098e-317)
(-0.177601 -0.179544 -2.8665e-317)
(-0.113286 -0.206699 -5.7777e-317)
(-0.0378966 -0.213138 -9.71805e-317)
(-0.0161817 0.30476 2.80686e-316)
(-0.112428 0.342518 2.73011e-316)
(-0.176531 0.325994 2.47044e-316)
(-0.254965 0.334901 2.3045e-316)
(-0.320108 0.291516 1.96801e-316)
(-0.375278 0.267424 1.82029e-316)
(-0.424395 0.213293 1.47954e-316)
(-0.458472 0.165279 1.35945e-316)
(-0.484623 0.106105 1.0395e-316)
(-0.499992 0.0455158 9.45159e-317)
(-0.500547 -0.0169174 6.47134e-317)
(-0.496875 -0.0789663 5.70245e-317)
(-0.470855 -0.143304 2.82007e-317)
(-0.444175 -0.194224 2.02146e-317)
(-0.393068 -0.256531 -9.9779e-318)
(-0.337176 -0.281094 -2.25353e-317)
(-0.269396 -0.331078 -5.68974e-317)
(-0.180646 -0.316296 -8.23947e-317)
(-0.119011 -0.331451 -1.22325e-316)
(-0.00791937 -0.283165 -1.70679e-316)
(-0.033471 0.391982 3.40811e-317)
(-0.114126 0.433556 9.09898e-317)
(-0.185775 0.383355 1.112e-316)
(-0.233047 0.382048 1.27433e-316)
(-0.290519 0.315378 1.25569e-316)
(-0.313917 0.281322 1.22483e-316)
(-0.351449 0.216384 1.09639e-316)
(-0.362735 0.163461 9.91361e-317)
(-0.38122 0.100622 8.23899e-317)
(-0.387588 0.0384417 7.00825e-317)
(-0.388135 -0.027006 5.29847e-317)
(-0.39131 -0.0907879 4.12168e-317)
(-0.372943 -0.164071 2.52597e-317)
(-0.36869 -0.220053 1.51508e-317)
(-0.328961 -0.303599 1.47517e-318)
(-0.306478 -0.337004 -5.22731e-318)
(-0.245697 -0.423907 -1.41749e-317)
(-0.189283 -0.413721 -1.2705e-317)
(-0.120326 -0.471984 -1.16293e-317)
(-0.0223279 -0.405886 8.69192e-318)
(-0.0503458 0.514864 2.02234e-316)
(-0.133104 0.563303 1.81445e-316)
(-0.231978 0.499829 1.64278e-316)
(-0.276506 0.490326 1.46277e-316)
(-0.355111 0.411508 1.29159e-316)
(-0.376557 0.35978 1.14627e-316)
(-0.428652 0.285956 9.80141e-317)
(-0.441507 0.211041 8.49399e-317)
(-0.468078 0.141905 6.89113e-317)
(-0.480186 0.0557912 5.64339e-317)
(-0.482277 -0.0144049 4.06707e-317)
(-0.494862 -0.103232 2.81108e-317)
(-0.470302 -0.181357 1.16818e-317)
(-0.47722 -0.262113 -2.5526e-318)
(-0.421412 -0.353126 -2.17492e-317)
(-0.407532 -0.406457 -4.13464e-317)
(-0.31967 -0.506235 -6.68593e-317)
(-0.261251 -0.501126 -9.91087e-317)
(-0.157702 -0.574558 -1.35504e-316)
(-0.0385418 -0.488449 -1.88709e-316)
(-0.0790863 0.638849 1.47396e-317)
(-0.131495 0.682909 5.42331e-317)
(-0.251964 0.58294 7.08539e-317)
(-0.256277 0.556411 8.33332e-317)
(-0.33669 0.457516 8.43849e-317)
(-0.323739 0.388302 8.19231e-317)
(-0.370719 0.30906 7.4514e-317)
(-0.360478 0.221314 6.58651e-317)
(-0.383132 0.15394 5.49776e-317)
(-0.385415 0.0578979 4.43118e-317)
(-0.388445 -0.0106877 3.2462e-317)
(-0.406334 -0.11109 2.1522e-317)
(-0.387155 -0.195474 9.90942e-318)
(-0.41685 -0.293521 -1.86574e-319)
(-0.365817 -0.407435 -1.01878e-317)
(-0.392776 -0.482828 -1.6963e-317)
(-0.298529 -0.629789 -2.22587e-317)
(-0.29137 -0.638299 -1.91236e-317)
(-0.155939 -0.774988 -1.39487e-317)
(-0.0733993 -0.669189 1.00126e-317)
(-0.132793 0.781146 1.93076e-316)
(-0.146934 0.788901 1.56127e-316)
(-0.318622 0.665078 1.34698e-316)
(-0.290769 0.607432 1.13096e-316)
(-0.394183 0.504612 9.79522e-317)
(-0.36367 0.411203 8.40013e-317)
(-0.421095 0.337721 7.14776e-317)
(-0.405939 0.231689 5.98981e-317)
(-0.433801 0.174887 4.82116e-317)
(-0.441709 0.0632105 3.71014e-317)
(-0.447193 0.00885848 2.54014e-317)
(-0.480832 -0.108711 1.38831e-317)
(-0.459925 -0.176179 1.25477e-318)
(-0.516146 -0.297275 -1.20884e-317)
(-0.45304 -0.396071 -2.75799e-317)
(-0.516823 -0.502883 -4.62637e-317)
(-0.387466 -0.64895 -6.84519e-317)
(-0.420787 -0.692611 -1.00501e-316)
(-0.20701 -0.860499 -1.35628e-316)
(-0.146191 -0.780933 -1.92378e-316)
(-0.187563 0.968941 2.51267e-317)
(-0.120206 0.909822 5.368e-317)
(-0.327785 0.760148 6.37719e-317)
(-0.241027 0.655374 7.11249e-317)
(-0.347093 0.551061 6.98075e-317)
(-0.279706 0.427773 6.5704e-317)
(-0.330656 0.363723 5.85487e-317)
(-0.29259 0.240257 5.01781e-317)
(-0.315715 0.196856 4.07775e-317)
(-0.31093 0.0731599 3.11003e-317)
(-0.317517 0.0314701 2.10249e-317)
(-0.349845 -0.101193 1.1049e-317)
(-0.335692 -0.162493 9.42475e-319)
(-0.408568 -0.310751 -8.67768e-318)
(-0.351928 -0.419019 -1.78427e-317)
(-0.463085 -0.571569 -2.49831e-317)
(-0.322535 -0.756493 -3.0487e-317)
(-0.448882 -0.86091 -2.86177e-317)
(-0.168413 -1.10711 -2.48715e-317)
(-0.236272 -1.08415 -2.88609e-318)
(-0.251432 1.12609 1.91321e-316)
(-0.105931 0.956042 1.4677e-316)
(-0.367041 0.809155 1.22482e-316)
(-0.23533 0.641126 9.90862e-317)
(-0.35738 0.556945 8.38366e-317)
(-0.270951 0.402299 7.00937e-317)
(-0.324797 0.358552 5.85487e-317)
(-0.28241 0.220577 4.77897e-317)
(-0.30671 0.197881 3.74958e-317)
(-0.307929 0.066395 2.74677e-317)
(-0.31805 0.0499948 1.73618e-317)
(-0.367235 -0.0920745 7.11352e-318)
(-0.357878 -0.118654 -3.69809e-318)
(-0.462437 -0.287961 -1.54671e-317)
(-0.40321 -0.349609 -2.87801e-317)
(-0.567119 -0.549241 -4.55123e-317)
(-0.393137 -0.684534 -6.53739e-317)
(-0.597902 -0.879526 -9.61336e-317)
(-0.20603 -1.11552 -1.30324e-316)
(-0.36042 -1.23582 -1.90928e-316)
(-0.274966 1.34211 3.51535e-317)
(-0.0407784 1.03727 5.99542e-317)
(-0.310118 0.900814 6.58452e-317)
(-0.135577 0.652958 6.96293e-317)
(-0.244843 0.59378 6.56785e-317)
(-0.137206 0.39936 5.96751e-317)
(-0.176691 0.379059 5.16342e-317)
(-0.118706 0.223856 4.28975e-317)
(-0.134773 0.223609 3.37593e-317)
(-0.120375 0.0838452 2.45443e-317)
(-0.130858 0.0896047 1.52786e-317)
(-0.164563 -0.0645623 6.0659e-318)
(-0.164839 -0.0709864 -3.14073e-318)
(-0.261091 -0.271825 -1.21125e-317)
(-0.21782 -0.321253 -2.07131e-317)
(-0.401577 -0.592537 -2.78844e-317)
(-0.233522 -0.737453 -3.36683e-317)
(-0.531044 -1.06471 -3.29802e-317)
(-0.0870212 -1.36314 -3.07561e-317)
(-0.448823 -1.67048 -1.13748e-317)
(-0.281393 1.44399 1.87235e-316)
(-0.00133587 1.00221 1.40995e-316)
(-0.275896 0.911818 1.16331e-316)
(-0.0854319 0.587497 9.28763e-317)
(-0.186072 0.567051 7.75667e-317)
(-0.0761595 0.343176 6.38963e-317)
(-0.105108 0.346642 5.25094e-317)
(-0.0496427 0.184318 4.20212e-317)
(-0.0610666 0.202952 3.22167e-317)
(-0.0526245 0.064386 2.28055e-317)
(-0.0674927 0.0933886 1.35713e-317)
(-0.112942 -0.0604059 4.36055e-318)
(-0.127025 -0.0283833 -5.10748e-318)
(-0.246284 -0.242085 -1.52486e-317)
(-0.220515 -0.222492 -2.64592e-317)
(-0.447125 -0.545441 -4.06425e-317)
(-0.276152 -0.576306 -5.7434e-317)
(-0.644039 -1.03964 -8.53258e-317)
(-0.119661 -1.2199 -1.16442e-316)
(-0.557197 -1.77353 -1.78869e-316)
(-0.194915 1.60634 4.10614e-317)
(0.0742383 1.03617 6.77302e-317)
(-0.11992 0.982113 7.11535e-317)
(0.052483 0.57408 7.24446e-317)
(-0.00243737 0.588571 6.60136e-317)
(0.0995001 0.327558 5.81247e-317)
(0.0961826 0.356562 4.89317e-317)
(0.155939 0.184223 3.95809e-317)
(0.156525 0.226165 3.03715e-317)
(0.182318 0.0884142 2.13904e-317)
(0.168604 0.142435 1.26649e-317)
(0.155514 -0.0135495 4.15683e-318)
(0.129931 0.0464267 -4.16035e-318)
(0.058542 -0.191875 -1.21814e-317)
(0.0540994 -0.143984 -1.97417e-317)
(-0.120604 -0.548856 -2.59888e-317)
(-0.00300678 -0.564399 -3.06481e-317)
(-0.366577 -1.21475 -2.90736e-317)
(0.0903263 -1.4469 -2.52306e-317)
(-0.503815 -2.28944 -3.7147e-318)
(-0.11764 1.56252 1.798e-316)
(0.106268 0.946857 1.38051e-316)
(-0.0122003 0.93978 1.14109e-316)
(0.126149 0.492588 9.11668e-317)
(0.116845 0.533235 7.54364e-317)
(0.201026 0.262871 6.14467e-317)
(0.224503 0.302971 4.97557e-317)
(0.275385 0.135788 3.91756e-317)
(0.28667 0.18394 2.95135e-317)
(0.307817 0.0564571 2.0493e-317)
(0.28961 0.119114 1.18862e-317)
(0.27265 -0.0258148 3.55124e-318)
(0.224388 0.0561473 -4.68616e-318)
(0.14485 -0.177836 -1.31599e-317)
(0.0945306 -0.070802 -2.2056e-317)
(-0.099363 -0.502345 -3.3032e-317)
(-0.0434929 -0.374979 -4.54029e-317)
(-0.434908 -1.13529 -6.7603e-317)
(-0.00447772 -1.1257 -9.13208e-317)
(-0.570375 -2.15649 -1.46581e-316)
(0.0758849 1.61977 4.80826e-317)
(0.145475 0.951268 8.15367e-317)
(0.210479 0.967951 8.11996e-317)
(0.2751 0.469838 7.88644e-317)
(0.342028 0.52906 6.90429e-317)
(0.397989 0.240522 5.87189e-317)
(0.452464 0.296637 4.8056e-317)
(0.499267 0.133378 3.79628e-317)
(0.522781 0.199176 2.85315e-317)
(0.560377 0.0846309 1.9717e-317)
(0.545171 0.169125 1.14172e-317)
(0.57097 0.0369088 3.58276e-318)
(0.514391 0.147228 -3.84321e-318)
(0.517589 -0.0899869 -1.07824e-317)
(0.430603 0.0508502 -1.69338e-317)
(0.377969 -0.440889 -2.149e-317)
(0.326275 -0.293674 -2.36648e-317)
(0.124871 -1.24875 -1.84505e-317)
(0.286053 -1.33154 -8.9598e-318)
(-0.215995 -2.7475 2.54412e-317)
(0.208075 1.40807 1.78455e-316)
(0.177356 0.85088 1.41708e-316)
(0.363963 0.848588 1.16187e-316)
(0.368113 0.395747 9.19214e-317)
(0.506163 0.444056 7.47962e-317)
(0.537205 0.181034 5.99197e-317)
(0.627798 0.229047 4.77333e-317)
(0.663777 0.084478 3.70111e-317)
(0.700637 0.140711 2.75102e-317)
(0.734966 0.0423211 1.88687e-317)
(0.716614 0.115276 1.08703e-317)
(0.744328 0.00151893 3.35517e-318)
(0.66283 0.102212 -3.76876e-318)
(0.668352 -0.109792 -1.07103e-317)
(0.514533 0.0409735 -1.74319e-317)
(0.454788 -0.421453 -2.50955e-317)
(0.270281 -0.181995 -3.27513e-317)
(0.0452865 -1.11453 -4.74447e-317)
(0.0668772 -0.885987 -6.15403e-317)
(-0.393031 -2.1429 -9.97383e-317)
(0.357807 1.34205 9.6097e-317)
(0.168664 0.838348 1.19185e-316)
(0.575246 0.829495 1.04872e-316)
(0.523597 0.36679 9.18527e-317)
(0.736625 0.406824 7.56857e-317)
(0.742039 0.152281 6.13417e-317)
(0.853514 0.204836 4.85894e-317)
(0.882002 0.0798936 3.73964e-317)
(0.924931 0.146715 2.75405e-317)
(0.971817 0.0716355 1.86678e-317)
(0.957751 0.160568 1.05798e-317)
(1.02767 0.0737397 3.13162e-318)
(0.948411 0.199542 -3.7463e-318)
(1.05014 0.0145638 -9.95594e-318)
(0.8762 0.202082 -1.50679e-317)
(1.02225 -0.267088 -1.81434e-317)
(0.716643 0.00113055 -1.80315e-317)
(0.900882 -1.10025 -8.45162e-318)
(0.447275 -1.0024 7.27658e-318)
(0.499704 -2.95247 6.00686e-317)
(0.666274 1.0604 1.90153e-316)
(0.265733 0.70888 1.37497e-316)
(0.76481 0.61411 1.09245e-316)
(0.64974 0.288276 8.32284e-317)
(0.915796 0.298267 6.66543e-317)
(0.903512 0.102474 5.26859e-317)
(1.04118 0.135756 4.16274e-317)
(1.05941 0.037382 3.2101e-317)
(1.11184 0.0825109 2.37842e-317)
(1.15189 0.0231184 1.63172e-317)
(1.1386 0.0823632 9.50234e-318)
(1.2042 0.0135004 3.2227e-318)
(1.11222 0.0953159 -2.54394e-318)
(1.20502 -0.0521024 -7.89276e-318)
(0.978862 0.0721654 -1.26739e-317)
(1.08756 -0.303479 -1.76122e-317)
(0.646742 -0.0871878 -2.19787e-317)
(0.6885 -0.932937 -3.10545e-317)
(0.134075 -0.624361 -3.98675e-317)
(-0.208358 -1.56229 -6.60741e-317)
(0.328278 0.745166 2.88513e-316)
(0.321804 0.771147 2.23602e-316)
(0.98129 0.578052 1.68463e-316)
(0.93892 0.268126 1.27357e-316)
(1.26774 0.242232 9.74497e-317)
(1.2403 0.0707985 7.45723e-317)
(1.38249 0.103621 5.69186e-317)
(1.39041 0.0332599 4.25164e-317)
(1.43826 0.08584 3.04547e-317)
(1.49274 0.0527978 1.99304e-317)
(1.48147 0.124855 1.05208e-317)
(1.59877 0.0886527 1.88538e-318)
(1.51922 0.19592 -6.07554e-318)
(1.73038 0.0976734 -1.33073e-317)
(1.51085 0.272689 -1.92815e-317)
(1.88267 -0.0564729 -2.28266e-317)
(1.31989 0.251287 -2.22905e-317)
(2.00793 -0.766481 -1.0004e-317)
(0.635631 -0.417437 1.08332e-317)
(1.80381 -2.92774 7.70798e-317)
(1.375 0.661196 6.44705e-317)
(0.456395 0.327168 1.89874e-317)
(0.962499 0.24777 1.98351e-317)
(0.818751 0.117642 1.5939e-317)
(1.02539 0.117003 1.61017e-317)
(1.00828 0.0324546 1.46929e-317)
(1.11357 0.0452909 1.32473e-317)
(1.11722 0.00406016 1.13477e-317)
(1.1598 0.0227683 9.32803e-318)
(1.17912 -0.00011888 7.27397e-318)
(1.17862 0.0236022 5.26679e-318)
(1.21946 -0.00262875 3.45988e-318)
(1.16628 0.026289 1.92314e-318)
(1.23418 -0.034836 7.05506e-319)
(1.0739 -0.00133086 -1.92048e-319)
(1.1753 -0.170665 -1.5135e-318)
(0.805858 -0.135115 -3.76223e-318)
(0.875033 -0.512551 -1.23601e-317)
(0.37017 -0.485875 -2.63044e-317)
(-0.463916 -0.195894 -6.74905e-317)
(-0.376962 -0.281945 8.29557e-316)
(1.02497 0.977583 5.14688e-316)
(2.05902 0.357442 3.60183e-316)
(2.14433 0.22398 2.54114e-316)
(2.69117 0.12906 1.89381e-316)
(2.59642 0.0184923 1.42283e-316)
(2.78168 0.03923 1.07338e-316)
(2.75048 0.00529084 7.93015e-317)
(2.79744 0.0480312 5.59181e-317)
(2.88222 0.0397184 3.55307e-317)
(2.87276 0.0980757 1.71656e-317)
(3.11245 0.0923096 8.31858e-320)
(3.04609 0.181435 -1.60073e-317)
(3.509 0.145924 -3.11636e-317)
(3.26783 0.296007 -4.45862e-317)
(4.07862 0.0933977 -5.452e-317)
(3.1528 0.405545 -5.74118e-317)
(4.62278 -0.501902 -4.35639e-317)
(1.30187 0.333985 -1.25107e-317)
(4.40639 -2.82891 7.49078e-317)
)
;

boundaryField
{
    cavity
    {
        type            myImplicitVelocity;
    }
    lid
    {
        type            fixedValue;
        value           uniform (1 0 0);
    }
    frontAndBack
    {
        type            empty;
    }
}


// ************************************************************************* //
