/*--------------------------------*- C++ -*----------------------------------*\
| =========                 |                                                 |
| \\      /  F ield         | foam-extend: Open Source CFD                    |
|  \\    /   O peration     | Version:  3.0                                   |
|   \\  /    A nd           | Web:         http://www.extend-project.de       |
|    \\/     M anipulation  |                                                 |
\*---------------------------------------------------------------------------*/
FoamFile
{
    version     2.0;
    format      ascii;
    class       volSymmTensorField;
    location    "21";
    object      sigma;
}
// * * * * * * * * * * * * * * * * * * * * * * * * * * * * * * * * * * * * * //

dimensions      [0 0 0 0 0 0 0];

internalField   nonuniform List<symmTensor> 
672
(
(-0.1687650455 -0.01037890341 -1.233737983e-19 0.1687924704 -2.495749757e-20 -2.742484504e-05)
(-0.1554825435 -0.01197624227 -2.850557734e-19 0.1555504399 -1.50712203e-20 -6.789640896e-05)
(-0.1367847705 -0.0118094304 -1.891638477e-19 0.1368860319 -5.934428171e-21 -0.0001012614049)
(-0.1174920174 -0.01096716194 -7.96484377e-20 0.1176211645 -5.429981278e-22 -0.0001291470933)
(-0.09933156579 -0.009900398413 -3.09983696e-19 0.09948389171 -3.390091581e-20 -0.0001523259196)
(-0.08282510553 -0.008806924606 -3.010628855e-19 0.08299563575 -1.469517404e-19 -0.000170530222)
(-0.06811016516 -0.007773272943 -4.651719915e-19 0.06829318198 -1.543804928e-19 -0.0001830168132)
(-0.05521376455 -0.006847874632 -5.72279839e-19 0.05540166351 -4.128002753e-19 -0.0001878989652)
(-0.044122605 -0.006048447496 -5.943863582e-19 0.04430517852 -2.739743286e-19 -0.000182573512)
(-0.03494952843 -0.005403281569 -3.324786946e-19 0.03511216182 -1.350193622e-20 -0.0001626333867)
(-0.0277861567 -0.004922085709 -1.004837515e-19 0.02790840933 1.226528941e-19 -0.0001222526304)
(-0.02297069664 -0.004629304257 -3.208327384e-20 0.02302331331 -2.046063119e-19 -5.261667071e-05)
(-0.1658561742 -0.03085857199 -1.021477665e-19 0.1658839638 7.996713134e-21 -2.778954169e-05)
(-0.1506810548 -0.03530108163 -2.71129253e-19 0.150749924 6.22828878e-20 -6.886920152e-05)
(-0.1314396076 -0.03468500688 -2.206289712e-19 0.1315423267 1.469226201e-19 -0.0001027190791)
(-0.1121741263 -0.0321434665 -4.851647298e-20 0.1123051274 -5.044089804e-20 -0.0001310011324)
(-0.09427963874 -0.02897237287 -2.994253268e-19 0.09443407913 2.291961664e-20 -0.0001544403962)
(-0.0781234137 -0.02573835656 -2.964452437e-19 0.07829617758 -2.442463426e-19 -0.0001727638837)
(-0.06377193256 -0.02268899464 -5.540778305e-19 0.06395714737 -3.704813887e-19 -0.0001852148099)
(-0.05121045822 -0.01996280015 -8.942082392e-19 0.05140036337 -5.64580088e-19 -0.0001899051502)
(-0.04040926727 -0.01761099962 -4.919969362e-19 0.04059350725 -7.395080921e-20 -0.0001842399805)
(-0.03145999545 -0.01571617794 -1.048633335e-19 0.03162383345 -1.090160097e-19 -0.0001638379977)
(-0.02444835728 -0.01430856039 -3.328850165e-19 0.02457127969 -1.369238093e-19 -0.000122922406)
(-0.01970167161 -0.0134652334 -1.562989212e-19 0.0197544459 -1.672959929e-19 -5.277428627e-05)
(-0.1601669364 -0.05056503181 -3.123623502e-20 0.1601947572 -5.07244203e-20 -2.782077751e-05)
(-0.1414601427 -0.0567859963 -2.088349928e-19 0.1415291271 1.374630529e-19 -6.898434163e-05)
(-0.1212249739 -0.05534613766 -2.760547792e-19 0.1213278717 2.589213402e-19 -0.0001028977987)
(-0.1020376228 -0.0510315613 -2.233608017e-19 0.1021688217 7.791427101e-20 -0.0001311988311)
(-0.08466744872 -0.04581441952 -3.474873473e-19 0.0848220373 5.67680204e-20 -0.0001545885762)
(-0.06919123226 -0.04055048003 -6.931231017e-19 0.0693640269 -1.628844726e-19 -0.0001727946316)
(-0.0555418951 -0.03561120632 -1.008304742e-18 0.05572695209 -4.661641447e-20 -0.0001850569904)
(-0.04362625384 -0.03120310564 -9.413708948e-19 0.04381575829 -7.516061939e-20 -0.0001895044416)
(-0.03338368044 -0.02740209094 -3.319780014e-19 0.03356725682 1.095371232e-20 -0.00018357638)
(-0.02486572923 -0.02433425259 -5.062336925e-19 0.02502869883 -2.573702343e-19 -0.000162969597)
(-0.01814662729 -0.0220475446 -3.652965194e-19 0.0182686584 -2.443955468e-19 -0.0001220311097)
(-0.01353213354 -0.02066729733 -6.392600001e-20 0.0135843893 -1.78082581e-19 -5.225576438e-05)
(-0.1519350548 -0.06904262115 5.394643265e-20 0.1519625612 -5.262610055e-20 -2.750637612e-05)
(-0.1285384924 -0.07540528864 -2.473199904e-20 0.128606724 1.659571255e-19 -6.823155718e-05)
(-0.1070371201 -0.07257037616 -1.897201582e-19 0.1071388929 2.655602876e-19 -0.0001017727465)
(-0.08802340999 -0.06637399832 -2.148926658e-19 0.08815314035 1.86028234e-19 -0.0001297303625)
(-0.07142130198 -0.05920477606 -2.606825738e-19 0.07157407416 -3.391004544e-20 -0.0001527721769)
(-0.05691605277 -0.05208492807 -4.747185019e-19 0.05708667856 1.084208656e-19 -0.0001706257889)
(-0.04426092131 -0.04545263768 -6.377010194e-19 0.0444434599 3.628429881e-19 -0.0001825385938)
(-0.03325735446 -0.03954841794 -1.295940179e-18 0.03344403559 3.375889392e-19 -0.0001866811357)
(-0.02380324956 -0.0344592897 -7.155375114e-19 0.02398381024 1.214665631e-19 -0.0001805606789)
(-0.01589588919 -0.03033818868 -8.894565672e-19 0.01605589866 6.087147154e-19 -0.0001600094722)
(-0.009593629704 -0.02724643543 -7.280755528e-19 0.009713201682 2.245327196e-19 -0.0001195719782)
(-0.005171792284 -0.02535064304 -1.865604597e-19 0.005222860526 2.770741102e-19 -5.106824272e-05)
(-0.1414895504 -0.08591770307 -2.18837678e-21 0.1415163914 1.396916188e-19 -2.68409466e-05)
(-0.1128970261 -0.09041078866 6.586366734e-20 0.1129636359 2.280858492e-19 -6.660975694e-05)
(-0.09009710953 -0.08548610545 -1.7912281e-19 0.09019646113 3.19552e-19 -9.935160441e-05)
(-0.07141236966 -0.07728380116 -3.148046204e-19 0.07153897995 1.594125644e-19 -0.0001266102936)
(-0.05580160987 -0.06828775521 -4.357638374e-19 0.05595062086 3.854134325e-21 -0.0001490109844)
(-0.04250503517 -0.05953509389 -3.535712316e-19 0.04267131847 2.443696131e-19 -0.0001662833)
(-0.03107236354 -0.05146014479 -2.000166488e-19 0.0312500552 3.17910388e-19 -0.0001776916646)
(-0.02118602236 -0.04429549938 -1.015250271e-18 0.02136749485 4.660529198e-19 -0.0001814724863)
(-0.01269718625 -0.03812252461 -4.356583228e-19 0.01287242075 4.740971096e-19 -0.0001752344974)
(-0.005541107108 -0.03310038944 3.641467357e-19 0.005696105536 4.234247528e-19 -0.0001549984281)
(0.0002424875395 -0.02929831396 -7.308872199e-19 -0.0001269088134 4.557695864e-19 -0.0001155787261)
(0.004415146279 -0.02691535786 -2.105492383e-19 -0.00436592189 2.261050211e-19 -4.922438944e-05)
(-0.1292212857 -0.1009191859 -2.354489847e-22 0.1292471194 1.783082875e-19 -2.583371894e-05)
(-0.09567471418 -0.101398912 9.680845164e-20 0.09573885572 3.039439363e-19 -6.4141542e-05)
(-0.07181844408 -0.09365700349 4.817926213e-20 0.07191411406 2.385079813e-19 -9.566997226e-05)
(-0.0536852849 -0.08333351894 -3.568267426e-19 0.0538071706 1.585281847e-19 -0.0001218856956)
(-0.03926426466 -0.07266167638 -2.302073415e-19 0.03940762736 -1.177614242e-19 -0.0001433627055)
(-0.02735163682 -0.06253056594 -2.892356503e-19 0.02751147122 2.326604401e-19 -0.000159834407)
(-0.01729526556 -0.05329487946 3.924973584e-19 0.01746585673 3.417290623e-20 -0.0001705911716)
(-0.008660156705 -0.04513429982 -4.306424044e-19 0.008834115668 7.37831044e-20 -0.0001739589631)
(-0.001251645145 -0.03810657991 -9.600718506e-19 0.001419324412 1.168461731e-19 -0.000167679267)
(0.005057423987 -0.03235489545 -2.299054136e-19 -0.00490940888 4.528844739e-19 -0.0001480151077)
(0.01024679657 -0.02795040943 7.8442846e-19 -0.01013668208 2.522367984e-21 -0.0001101144859)
(0.01411847395 -0.02511476272 -3.738915494e-19 -0.01407171877 2.110216536e-20 -4.675517943e-05)
(-0.1155489317 -0.1138885504 4.94382622e-20 0.115573429 1.059862266e-19 -2.449724118e-05)
(-0.07804850863 -0.108339864 9.190294089e-20 0.0781093668 2.83919876e-19 -6.085816482e-05)
(-0.05365456983 -0.0971182715 2.281378096e-19 0.05374534455 7.586059203e-20 -9.077472675e-05)
(-0.03636148444 -0.08459317844 -1.896704518e-19 0.03647710171 -1.060792443e-19 -0.0001156172761)
(-0.02330099142 -0.07241616884 -7.177249818e-19 0.02343689183 -1.005511679e-19 -0.0001359004139)
(-0.0128820584 -0.06117283986 -4.705799874e-19 0.01303342225 1.514115804e-19 -0.0001513638527)
(-0.004278368295 -0.05106609295 -1.543557145e-19 0.0044397008 3.680126737e-21 -0.000161332505)
(0.003045391932 -0.04217995762 2.97594585e-20 -0.002881148987 2.154530555e-19 -0.0001642429454)
(0.009322619857 -0.03453152453 -1.660379459e-19 -0.009164620128 4.477390547e-19 -0.0001579997293)
(0.01473571933 -0.02822670328 -5.195117202e-20 -0.01459656414 2.967828775e-19 -0.0001391551856)
(0.01928281633 -0.02333278052 -4.610626901e-19 -0.0191795605 -1.986856862e-19 -0.0001032558257)
(0.0228069746 -0.02008405565 -5.828604125e-20 -0.02276328013 4.739710611e-19 -4.369446392e-05)
(-0.1008840314 -0.1247784616 2.481131613e-20 0.1009068815 1.153787319e-19 -2.285003867e-05)
(-0.06111075609 -0.1115658496 1.1824855e-19 0.06116755974 1.890247764e-19 -5.680364912e-05)
(-0.03694327315 -0.09636071584 1.049734507e-19 0.03702800429 4.042528627e-20 -8.473113611e-05)
(-0.0208342377 -0.08161301248 -2.368459041e-20 0.02094212645 -7.993493206e-20 -0.0001078887576)
(-0.009276510394 -0.06811483207 -6.497502425e-19 0.009403234875 2.161516409e-19 -0.0001267244808)
(-0.0003986304811 -0.05601844262 -7.203239379e-19 0.0005396170104 2.352026982e-19 -0.0001409865292)
(0.006748773597 -0.04531494581 -7.856392493e-19 -0.006598731569 4.878363867e-19 -0.0001500420282)
(0.01277025032 -0.0359572804 -1.384941052e-19 -0.01261779208 4.437749834e-19 -0.0001524582428)
(0.01792520529 -0.02790780182 -2.607912831e-19 -0.01777887664 4.591864973e-19 -0.0001463286588)
(0.02243731832 -0.02121726866 -2.579799681e-19 -0.02230877843 7.139837595e-19 -0.0001285398927)
(0.0263202157 -0.01594405421 4.895295068e-19 -0.0262251248 5.359501445e-19 -9.509089762e-05)
(0.02945586865 -0.01232603874 -1.761779845e-19 -0.02941578964 2.41947029e-19 -4.007900913e-05)
(-0.08559893421 -0.1336403732 -5.743713769e-20 0.08561984697 1.509754133e-19 -2.091275369e-05)
(-0.04575774502 -0.111719821 1.297334217e-19 0.04580977441 1.200825623e-19 -5.202938804e-05)
(-0.0227653544 -0.0922646107 1.459697467e-19 0.02284297027 -2.689952844e-20 -7.761587118e-05)
(-0.00822131817 -0.07535302246 -1.494072215e-19 0.008320116625 1.86108385e-19 -9.87984547e-05)
(0.001719255975 -0.06072525206 6.676583421e-20 -0.001603303931 2.479479769e-19 -0.0001159520449)
(0.009062299305 -0.048011414 -5.755397608e-19 -0.008933463651 3.924288059e-19 -0.0001288356545)
(0.01481087012 -0.03695013433 -3.179746714e-19 -0.01467400409 4.362399049e-19 -0.0001368660324)
(0.01959681182 -0.02733945121 -3.432746549e-19 -0.01945805307 6.013697437e-19 -0.0001387587454)
(0.02368845687 -0.01907760162 3.595796954e-19 -0.02355563539 9.594614301e-19 -0.0001328214788)
(0.02733145874 -0.01214779701 7.285032939e-19 -0.02721514477 3.981593362e-19 -0.0001163139751)
(0.03055064801 -0.006595754882 3.12591982e-19 -0.03046490876 -1.929173369e-19 -8.573924623e-05)
(0.03326246092 -0.002655528221 3.355310002e-19 -0.03322649446 -5.354120823e-20 -3.596645647e-05)
(-0.07000101965 -0.1406027417 -1.355165716e-19 0.07001973062 1.245607194e-19 -1.871097079e-05)
(-0.03260174432 -0.1096706837 -4.740294138e-20 0.03264834188 6.652034911e-20 -4.659756073e-05)
(-0.01183331757 -0.08599091395 -2.845885998e-19 0.01190283906 1.535050338e-19 -6.952149333e-05)
(0.0007525920261 -0.06706737778 -1.550068241e-19 -0.0006641271942 3.200817051e-19 -8.846483194e-05)
(0.00898742504 -0.05150432821 -2.409694586e-21 -0.008883700962 3.819287325e-19 -0.0001037240783)
(0.01484209645 -0.03837277194 2.588381069e-19 -0.01472702527 3.188047111e-19 -0.000115071177)
(0.01929306361 -0.02714262024 -1.58421877e-19 -0.01917108478 2.18239149e-19 -0.0001219788333)
(0.02295104429 -0.01744785141 1.005036927e-19 -0.02282771778 5.986164788e-19 -0.0001233265082)
(0.02607362737 -0.009119132075 8.284816094e-19 -0.02595597133 3.734902396e-19 -0.0001176560424)
(0.02890589847 -0.00206667794 8.547665185e-19 -0.02880326349 -4.118564352e-19 -0.0001026349792)
(0.03147869799 0.003678491695 -9.590136067e-20 -0.03140338479 -2.373206575e-19 -7.531320281e-05)
(0.03373692605 0.007891321473 2.063787836e-19 -0.03370552544 -7.694152233e-20 -3.140061427e-05)
(-0.05431591355 -0.1458424865 -9.423952398e-20 0.05433218583 5.04840022e-20 -1.627227253e-05)
(-0.0219162596 -0.1064046371 -9.653423025e-20 0.02195683658 5.436308602e-20 -4.057698214e-05)
(-0.004422458208 -0.0788421535 -1.600918911e-19 0.004483009009 1.754276889e-19 -6.055080136e-05)
(0.005828545967 -0.05815673157 -2.459540605e-20 -0.00575152665 2.372055205e-19 -7.701931756e-05)
(0.01229185942 -0.04185184064 -1.475023144e-19 -0.012201663 3.733069908e-19 -9.019641952e-05)
(0.01672869252 -0.02845944188 3.1149228e-19 -0.01662882359 2.53926276e-19 -9.986893556e-05)
(0.02000629177 -0.0171913125 7.173226524e-20 -0.01990072026 2.24437868e-19 -0.0001055715078)
(0.02266450701 -0.00752430425 3.378913245e-19 -0.02255814624 2.950792976e-19 -0.0001063607647)
(0.024929994 0.0007754486378 4.054949369e-19 -0.02482896277 -7.14275854e-20 -0.0001010312217)
(0.02702396306 0.007868507869 4.533278821e-20 -0.02693627704 -2.797713815e-19 -8.768601966e-05)
(0.0289777758 0.01373872229 -1.315952519e-19 -0.02891381762 -2.751159465e-20 -6.395818225e-05)
(0.03075809527 0.01817262982 -1.635615239e-20 -0.03073164608 -2.500650084e-20 -2.64491936e-05)
(-0.03868133129 -0.1495530846 7.090783553e-20 0.03869495985 -2.853519847e-20 -1.362855946e-05)
(-0.01362045901 -0.1029049835 -7.824823422e-20 0.01365450488 -1.322259497e-21 -3.404586577e-05)
(-0.0003519236071 -0.07210872519 -2.323593269e-19 0.0004027439458 1.227631257e-19 -5.082033867e-05)
(0.007232993027 -0.05000510861 -2.777458922e-19 -0.007168382262 2.328592216e-19 -6.461076499e-05)
(0.01187839289 -0.03314877565 -1.908324595e-19 -0.0118028476 3.566773272e-19 -7.554528587e-05)
(0.0149749042 -0.01960851762 1.221538424e-19 -0.01489147663 2.2489285e-19 -8.342756785e-05)
(0.01720457118 -0.00837481716 -2.945617021e-19 -0.01711671223 3.268922811e-19 -8.785894923e-05)
(0.01899064752 0.001209934833 4.956076973e-19 -0.01890256346 2.890632133e-19 -8.808406195e-05)
(0.02051031284 0.009434734846 3.078638656e-19 -0.02042714922 -1.187720818e-19 -8.316362031e-05)
(0.02193938256 0.01652120135 -1.183416179e-19 -0.02186772253 -3.090443178e-19 -7.166003298e-05)
(0.0233046122 0.0224663575 -6.490803044e-19 -0.02325279418 -2.620172631e-20 -5.18180284e-05)
(0.02458793708 0.02706836865 1.597545714e-19 -0.02456676429 1.612228699e-21 -2.117278475e-05)
(-0.02315203995 -0.1519130337 5.35823653e-20 0.02316285332 -2.429802978e-20 -1.081337822e-05)
(-0.007304344951 -0.1000340193 -7.059539354e-20 0.007331432602 -4.793903273e-21 -2.708765129e-05)
(0.0009822525961 -0.06691793362 -2.084579002e-19 -0.0009417979819 1.010843013e-19 -4.045461424e-05)
(0.005642355496 -0.04381975431 -1.799395525e-19 -0.005590957507 2.098042675e-19 -5.139798892e-05)
(0.008439486863 -0.02659859894 -5.56550653e-20 -0.008379528587 2.952792935e-19 -5.995827586e-05)
(0.01026422888 -0.01298438923 1.123413017e-21 -0.0101982713 2.601594946e-19 -6.595757282e-05)
(0.01155229957 -0.00180591727 -1.869451299e-20 -0.01148323125 3.071539023e-19 -6.90683165e-05)
(0.01257359937 0.007692569776 2.302609912e-19 -0.0125048681 1.636616743e-19 -6.873127626e-05)
(0.01344091687 0.01584028771 -8.621927482e-20 -0.01337663248 -8.008352711e-20 -6.42843904e-05)
(0.01426732581 0.02290366249 -1.940511373e-19 -0.01421256109 -1.90774503e-19 -5.476471995e-05)
(0.01507078926 0.02888957856 -5.326349305e-19 -0.01503173943 -3.933794004e-20 -3.904982953e-05)
(0.01584310011 0.03360557898 -3.819254558e-20 -0.01582746071 -1.961296079e-20 -1.563940656e-05)
(-0.007715073346 -0.1530583298 4.835998258e-20 0.007722936622 -9.626745496e-21 -7.863275485e-06)
(-0.002291626727 -0.09843035165 -5.601345515e-20 0.002311418981 1.054321689e-20 -1.979225431e-05)
(0.0005260384335 -0.06410280357 -2.050893225e-19 -0.0004964509716 8.134986788e-20 -2.958746196e-05)
(0.00209663336 -0.04049196914 -7.384350506e-20 -0.002059081839 1.682155421e-19 -3.755152054e-05)
(0.003028406551 -0.02308934716 -8.88386818e-20 -0.002984770087 2.491973637e-19 -4.363646387e-05)
(0.003628027298 -0.009445920451 -1.310934718e-20 -0.003580342882 2.553747563e-19 -4.768441609e-05)
(0.004045309598 0.001694848115 5.392390835e-21 -0.003995867628 2.680674808e-19 -4.944196911e-05)
(0.004372991053 0.01114049746 -7.616819892e-20 -0.004324439001 1.620579716e-19 -4.855205218e-05)
(0.004649808327 0.01924148712 -1.866333746e-19 -0.004605171723 -1.46918648e-20 -4.463660396e-05)
(0.004914822162 0.02628799768 -3.189571393e-19 -0.004877603297 -1.160588693e-19 -3.721886431e-05)
(0.005174458737 0.03229225308 -3.692151452e-19 -0.005148637377 -3.933517684e-20 -2.582136016e-05)
(0.00542671124 0.03706721727 -1.115557487e-19 -0.005416787634 -3.180444172e-20 -9.923606783e-06)
(0.007686720413 -0.1530621784 4.560890594e-20 -0.007681904695 5.728466033e-21 -4.815717639e-06)
(0.00226695983 -0.09843325475 -3.47563032e-20 -0.00225470723 2.847103481e-20 -1.22525998e-05)
(-0.0005525447251 -0.06410544268 -1.846318439e-19 0.0005709020596 6.035801484e-20 -1.835733454e-05)
(-0.002128142747 -0.04049460496 8.80927287e-21 0.00215139039 1.302563614e-19 -2.324764264e-05)
(-0.003067375174 -0.02309204436 -4.793604865e-20 0.003094162714 2.118409096e-19 -2.678753995e-05)
(-0.003676532126 -0.009448613454 -1.85560986e-20 0.003705372511 2.303728215e-19 -2.884038459e-05)
(-0.00410542494 0.001692316534 -3.053938943e-20 0.004134654447 2.6298213e-19 -2.922950653e-05)
(-0.004446735874 0.01113838737 -1.582320712e-19 0.004474538705 1.856800817e-19 -2.78028307e-05)
(-0.004739156597 0.01924016978 -3.395832325e-19 0.004763626426 2.097317112e-20 -2.44698293e-05)
(-0.005021572213 0.02628798747 -4.03351527e-19 0.00504081544 -6.740179185e-20 -1.924322705e-05)
(-0.005300095461 0.03229423313 -2.573283202e-19 0.005312391172 -9.823406763e-21 -1.229571074e-05)
(-0.005571943455 0.03707238392 -1.675880778e-19 0.005576036613 -5.428466356e-20 -4.093157939e-06)
(0.02312577066 -0.1519242265 5.581548187e-20 -0.023124061 1.564977947e-20 -1.70966313e-06)
(0.007280587311 -0.1000425848 -2.465279933e-21 -0.007276022531 3.617572906e-20 -4.564779656e-06)
(-0.001008544018 -0.06692583498 -1.236945925e-19 0.001015451127 4.886589402e-20 -6.907109103e-06)
(-0.005674156808 -0.04382774503 4.261591076e-20 0.00568282487 9.32088383e-20 -8.668061613e-06)
(-0.008479208156 -0.02660686961 5.710699538e-20 0.008488833287 1.826738079e-19 -9.625131236e-06)
(-0.01031399513 -0.01299275667 9.488356686e-21 0.0103236592 1.931325559e-19 -9.664067277e-06)
(-0.01161430357 -0.001813935876 9.414838966e-20 0.01162298984 2.714150462e-19 -8.686277748e-06)
(-0.01265005551 0.007685639705 -3.861601774e-19 0.0126568012 2.023596172e-19 -6.745688911e-06)
(-0.01353408006 0.01583550459 -4.156876529e-19 0.01353811919 2.772467282e-20 -4.03912605e-06)
(-0.01437938427 0.02290249447 -3.096627752e-19 0.01438045168 -2.08507288e-20 -1.067402947e-06)
(-0.015203747 0.02889397639 -2.00479171e-19 0.01520239601 5.689817384e-20 1.350986457e-06)
(-0.01599860522 0.03361895587 -3.454878107e-19 0.01599683193 -8.902144509e-20 1.773292103e-06)
(0.03865900416 -0.149570621 6.326149771e-20 -0.0386604199 1.122646969e-20 1.415732835e-06)
(0.01359843686 -0.1029188004 3.99943853e-20 -0.01360161112 1.478486705e-20 3.174259875e-06)
(0.0003260698528 -0.07212184387 4.30879371e-20 -0.0003306887807 6.131229375e-20 4.61892796e-06)
(-0.00726529842 -0.05001869352 -4.884639385e-20 0.007259294661 5.685250845e-20 6.003758632e-06)
(-0.01191947048 -0.03316313349 1.475429473e-19 0.01191183545 1.509354619e-19 7.635032292e-06)
(-0.01502696645 -0.01962338581 -9.047916844e-20 0.01501736263 1.54456574e-19 9.603814742e-06)
(-0.01727003051 -0.008389537741 -5.971434595e-20 0.01725810055 2.473916048e-19 1.192995205e-05)
(-0.01907208252 0.001196465107 -4.687034706e-19 0.01905772685 1.777547489e-19 1.435567016e-05)
(-0.02061050299 0.009424100162 -2.138726711e-19 0.02059410252 7.836400791e-20 1.640046854e-05)
(-0.02206124531 0.01651560595 -4.442847297e-19 0.02204416159 9.640221573e-20 1.708371927e-05)
(-0.02345112441 0.02246873621 -2.942641029e-19 0.02343617195 8.913742125e-20 1.495246784e-05)
(-0.02476251129 0.02708385146 -3.237966042e-19 0.02475490497 -1.166937109e-19 7.606323886e-06)
(0.05429895376 -0.1458648136 -5.415065954e-20 -0.05430347494 -5.974920241e-20 4.521181454e-06)
(0.02189663889 -0.1064230637 1.058200129e-19 -0.0219075063 -5.631071178e-20 1.086740866e-05)
(0.004397276354 -0.07886040779 1.743808187e-19 -0.004413352843 3.269131553e-20 1.607648851e-05)
(-0.005861420653 -0.05817626295 1.011733631e-19 0.005840836062 4.551533577e-20 2.058459105e-05)
(-0.01233461918 -0.04187305676 1.732410365e-19 0.01230984112 7.14080489e-20 2.477806008e-05)
(-0.01678366014 -0.02848206037 2.792036073e-20 0.0167549361 -4.710749452e-20 2.872404806e-05)
(-0.02007616782 -0.01721457973 5.115609357e-19 0.02004380378 1.565331214e-19 3.236403976e-05)
(-0.0227523524 -0.007546932994 -1.019647673e-19 0.02271711196 3.493024109e-19 3.524043632e-05)
(-0.02503928671 0.0007553201535 -2.251987131e-19 0.02500269057 1.591222229e-19 3.659614789e-05)
(-0.02715859499 0.007853485077 -1.305816374e-19 0.02712361039 1.8964565e-19 3.498460133e-05)
(-0.02914202722 0.0137322873 -8.857238842e-20 0.02911368892 2.723602728e-19 2.833830393e-05)
(-0.03095774726 0.01818085687 -3.789629047e-19 0.0309444156 -7.697102754e-20 1.333165266e-05)
(0.06999027865 -0.1406279426 -1.085766594e-19 -0.06999784655 -1.193677531e-19 7.567892991e-06)
(0.03258497958 -0.1096929151 9.146593106e-20 -0.03260339829 -1.522212448e-19 1.841870857e-05)
(0.01180906187 -0.0860141819 2.353487039e-19 -0.01183638474 -5.618216698e-21 2.732286727e-05)
(-0.0007858984194 -0.06709326103 1.025825325e-19 0.000751005226 5.244229849e-20 3.48931934e-05)
(-0.009031813597 -0.05153331717 -1.474572562e-20 0.008990222388 8.623213386e-21 4.159120951e-05)
(-0.01490000114 -0.0384046378 -3.597381456e-20 0.01485254135 -2.30146736e-19 4.745979541e-05)
(-0.0193674971 -0.02717665864 4.806400332e-19 0.01931513388 -1.264377487e-19 5.236321884e-05)
(-0.02304559973 -0.01748281263 2.268011521e-19 0.02298994889 2.705330551e-19 5.565084221e-05)
(-0.02619255973 -0.009153183917 -1.09185418e-19 0.02613626037 -1.959014647e-20 5.62993617e-05)
(-0.02905418975 -0.00209722846 4.338909061e-19 0.02900177407 -1.572676268e-19 5.241567616e-05)
(-0.03166209294 0.003654930002 3.700212166e-19 0.03162074812 4.16436153e-19 4.134482457e-05)
(-0.03396388033 0.007880809413 -1.041428471e-19 0.03394500081 9.96973636e-20 1.887952466e-05)
(0.08559459246 -0.1336663695 3.086721079e-20 -0.08560511055 -8.478239738e-20 1.051809008e-05)
(0.04574404276 -0.1117449649 1.076444963e-19 -0.0457697774 -2.30816336e-19 2.573463317e-05)
(0.02274229653 -0.09229272033 3.959657524e-19 -0.0227805157 -6.418112182e-20 3.821916885e-05)
(0.008187944423 -0.07538563869 1.630913416e-19 -0.008236697823 5.380172746e-20 4.875340025e-05)
(-0.00176479078 -0.06076292833 4.911163685e-20 0.001706922462 -5.167412096e-20 5.78683175e-05)
(-0.009122514868 -0.04805405455 -6.843635575e-20 0.009056932676 -2.812790195e-19 6.55821925e-05)
(-0.01488906402 -0.03699723976 2.960131816e-19 0.01481737985 -5.004555247e-19 7.168416664e-05)
(-0.01969707961 -0.02739004848 3.711594703e-19 0.01962174037 3.778145425e-20 7.533924322e-05)
(-0.02381579895 -0.01913021959 -4.360163408e-20 0.02374052748 3.543438085e-19 7.527147034e-05)
(-0.02749191407 -0.0122003046 -2.273419954e-19 0.02742274789 -1.906478475e-19 6.91661776e-05)
(-0.03075139424 -0.006645243339 5.196252485e-19 0.03069757902 -1.850419599e-19 5.381521048e-05)
(-0.03351459267 -0.002696981335 -3.285561344e-19 0.0334904093 8.461295128e-20 2.418337472e-05)
(0.1008856043 -0.1248032481 -2.958292112e-21 -0.1008989396 -1.580597358e-19 1.3335217e-05)
(0.06110007771 -0.1115930099 1.019762063e-19 -0.06113280247 -2.69036435e-19 3.272476057e-05)
(0.03692170659 -0.09639343623 2.116110335e-19 -0.03697033758 -2.872453252e-19 4.863099826e-05)
(0.02080139327 -0.08165263562 2.063494901e-19 -0.02086338799 2.076390529e-20 6.199471319e-05)
(0.009230748059 -0.06816195623 -2.875439577e-19 -0.009304157679 1.27285121e-21 7.340962048e-05)
(0.0003373961331 -0.05607318089 -1.192384718e-19 -0.0004202655808 -1.267395598e-19 8.286944773e-05)
(-0.006828982479 -0.04537715319 -3.650209896e-19 0.006738891476 -5.550255594e-19 9.009100319e-05)
(-0.01287392215 -0.03602648893 2.860127554e-19 0.01277985619 -5.415514494e-19 9.406596003e-05)
(-0.0180579424 -0.02798321812 5.712531591e-19 0.01796466031 -1.743121568e-19 9.328209059e-05)
(-0.02260603204 -0.02129765023 6.058297375e-19 0.02252099923 3.016681862e-19 8.503281479e-05)
(-0.02653328455 -0.01602763046 -3.095043917e-19 0.02646768686 3.002890745e-19 6.559768898e-05)
(-0.02972663265 -0.01240982693 2.619565764e-19 0.02969745461 1.068407595e-19 2.917804155e-05)
(0.1155553247 -0.1139104086 -4.897145439e-20 -0.1155713094 -2.363922603e-19 1.598466776e-05)
(0.07804058947 -0.1083682205 8.680420933e-20 -0.07807989277 -2.70604248e-19 3.930329939e-05)
(0.05363480089 -0.09715530379 -3.118294401e-20 -0.05369323187 -3.958585827e-19 5.843097472e-05)
(0.03632996683 -0.0846398968 8.652218915e-20 -0.03640442254 -3.626704509e-19 7.445571188e-05)
(0.02325630283 -0.07247320026 3.421536255e-19 -0.02334432937 1.322147927e-19 8.802653871e-05)
(0.01282168632 -0.06124056959 1.054931161e-19 -0.01292079901 1.81137999e-19 9.91126843e-05)
(0.004198731865 -0.05114485478 7.674395473e-20 -0.004306094173 1.296323566e-20 0.0001073623087)
(-0.003148990935 -0.04226997962 4.140364116e-19 0.003037384449 -4.016863398e-19 0.0001116064858)
(-0.009456140207 -0.03463295671 6.213070349e-19 0.009346024238 -1.341636204e-20 0.000110115969)
(-0.01490662057 -0.02833955113 6.141999902e-19 0.01480679394 1.09420803e-19 9.982662791e-05)
(-0.01950026421 -0.0234568834 9.257081186e-19 0.01942371154 -7.516256794e-20 7.655266421e-05)
(-0.02308584462 -0.02021929578 2.058135131e-19 0.02305203975 4.345418202e-19 3.380486674e-05)
(0.1292309425 -0.1009368655 -1.548907507e-20 -0.1292493763 -1.768217119e-19 1.843380282e-05)
(0.09566911764 -0.1014277828 4.693194553e-21 -0.09571450709 -3.057553049e-19 4.538945728e-05)
(0.07180078853 -0.09369797104 -1.405883032e-19 -0.07186828758 -4.567403499e-19 6.74990547e-05)
(0.05365604264 -0.08338716637 1.328607355e-20 -0.0537420269 -5.869365981e-19 8.598425496e-05)
(0.03922224013 -0.07272864786 6.237371471e-19 -0.03932378129 -4.151445031e-19 0.000101541167)
(0.02729445298 -0.06261156161 4.564896321e-19 -0.02740856795 1.488997436e-19 0.0001141149689)
(0.01721942743 -0.05339079683 4.981105706e-19 -0.01734271689 1.137171629e-20 0.0001232894609)
(0.008560995454 -0.04524619363 4.713742861e-19 -0.008688745278 -2.366606057e-19 0.0001277498243)
(0.001123170386 -0.03823572535 1.337485972e-18 -0.00124874171 -4.184092171e-19 0.0001255713237)
(-0.005222788304 -0.0325027932 9.921816052e-19 0.005109417665 1.288626194e-19 0.0001133706383)
(-0.01045845016 -0.02811883294 -5.020649687e-19 0.01037190111 -3.939962415e-19 8.654904605e-05)
(-0.01439186303 -0.02530703138 2.157578882e-19 0.01435385483 -3.183296545e-20 3.800820789e-05)
(0.1415006325 -0.08593054843 1.952645133e-20 -0.1415212852 8.514237085e-21 2.065268169e-05)
(0.112893208 -0.09043967803 -1.598943384e-19 -0.1129441169 -1.742006627e-19 5.090889528e-05)
(0.09008187883 -0.08553055006 -3.116026168e-19 -0.09015760367 -4.034242611e-19 7.572483433e-05)
(0.07138642667 -0.07734391344 1.050470153e-19 -0.07148286717 -4.409051779e-19 9.644049503e-05)
(0.05576399072 -0.06836418866 2.173250026e-19 -0.05587778105 -9.190492403e-19 0.000113790331)
(0.04245360358 -0.05962887952 7.048971469e-19 -0.0425812995 -3.729096178e-19 0.0001276959174)
(0.0310038951 -0.05157277827 1.690114327e-21 -0.03114157689 -4.511557232e-19 0.0001376817853)
(0.02109615046 -0.04442891547 7.030476487e-19 -0.02123845379 -3.82127373e-19 0.0001423033306)
(0.01258026156 -0.0382791999 4.441027538e-19 -0.01271972582 -7.330744035e-19 0.0001394642562)
(0.005389935786 -0.0332834238 -6.720439837e-19 -0.005515439815 -8.24496053e-19 0.0001255040283)
(-0.0004368932939 -0.02951155468 -6.949873999e-19 0.0003414249931 -3.785553687e-19 9.546830078e-05)
(-0.004667679642 -0.02716580318 8.07864415e-21 0.004625941421 -4.132057251e-19 4.173822105e-05)
(0.1519456686 -0.06905062523 2.122094041e-20 -0.1519682826 1.521917548e-19 2.261404002e-05)
(0.1285358814 -0.07543390521 -1.588954181e-19 -0.1285916754 -4.380255168e-20 5.5794013e-05)
(0.1070246114 -0.07261775648 -1.0282513e-19 -0.1071076192 -1.611633275e-19 8.300785943e-05)
(0.08800178069 -0.06643979493 -6.126010051e-20 -0.0881074779 -4.056994003e-19 0.0001056972014)
(0.07138982488 -0.0592896473 -8.336293102e-21 -0.07151445042 -6.325905533e-19 0.0001246255425)
(0.05687293776 -0.05219022215 1.558049782e-19 -0.05701262941 -8.407009749e-19 0.0001396916542)
(0.04420340363 -0.04558042551 1.960117173e-20 -0.04435377003 -7.873050547e-19 0.0001503664095)
(0.0331816491 -0.03970148242 3.694766515e-19 -0.03333674218 -4.012453406e-19 0.000155093084)
(0.02370443204 -0.03464126642 -5.863156538e-19 -0.02385606155 -5.021982561e-19 0.0001516295017)
(0.01576766245 -0.0305537231 -9.571249509e-19 -0.01590374551 -5.308875374e-19 0.0001360830569)
(0.009428081908 -0.02750138246 -2.404851487e-19 -0.009531287079 -5.695601759e-19 0.0001032051713)
(0.004955739931 -0.02565555904 1.169892725e-19 -0.00500069098 2.276338973e-21 4.495104929e-05)
(0.1601753502 -0.05056881674 -5.729322333e-20 -0.1601996441 8.683800648e-20 2.429390888e-05)
(0.1414582165 -0.05681424605 -2.884313851e-19 -0.1415182016 -3.270720511e-20 5.99851486e-05)
(0.1212154518 -0.05539583293 -3.208021617e-19 -0.1213047113 -1.741315561e-19 8.925943615e-05)
(0.1020212195 -0.0511019594 -2.650849751e-19 -0.1021348616 -3.145888882e-19 0.0001136420156)
(0.08464367666 -0.04590618288 -1.057246305e-20 -0.08477759249 -3.078914561e-19 0.0001339158287)
(0.06915874556 -0.04066522895 -2.000345039e-19 -0.06930870328 -5.578429846e-19 0.0001499577278)