/*--------------------------------*- C++ -*----------------------------------*\
| =========                 |                                                 |
| \\      /  F ield         | foam-extend: Open Source CFD                    |
|  \\    /   O peration     | Version:  3.0                                   |
|   \\  /    A nd           | Web:         http://www.extend-project.de       |
|    \\/     M anipulation  |                                                 |
\*---------------------------------------------------------------------------*/
FoamFile
{
    version     2.0;
    format      ascii;
    class       volVectorField;
    location    "80";
    object      s;
}
// * * * * * * * * * * * * * * * * * * * * * * * * * * * * * * * * * * * * * //

dimensions      [0 1 -1 0 0 0 0];

internalField   nonuniform List<vector> 
1280
(
(2.72071 0.126104 0)
(1.89686 0.0862927 0)
(1.43632 0.0639394 0)
(1.10976 0.0487306 0)
(0.855366 0.0371982 0)
(0.646754 0.0278797 0)
(0.46939 0.0200088 0)
(0.313978 0.0131147 0)
(0.173918 0.00686941 0)
(0.0440417 0.00101541 0)
(-0.080212 -0.00467678 0)
(-0.203553 -0.0104393 0)
(-0.331862 -0.0165265 0)
(-0.473971 -0.023202 0)
(-0.645174 -0.030614 0)
(-0.87445 -0.0383258 0)
(2.70383 0.30043 0)
(1.88664 0.211298 0)
(1.42856 0.161424 0)
(1.1037 0.1254 0)
(0.850643 0.0970173 0)
(0.643148 0.0736034 0)
(0.46674 0.0536446 0)
(0.312167 0.0361535 0)
(0.172861 0.0204229 0)
(0.0436789 0.00589949 0)
(-0.0799133 -0.00790195 0)
(-0.202586 -0.0214862 0)
(-0.330139 -0.035516 0)
(-0.471209 -0.0510985 0)
(-0.640571 -0.0704447 0)
(-0.865845 -0.0984305 0)
(2.34278 0.424921 0)
(1.8043 0.328424 0)
(1.39391 0.256265 0)
(1.08342 0.200671 0)
(0.837126 0.155947 0)
(0.633923 0.11874 0)
(0.46083 0.0869201 0)
(0.309249 0.0590395 0)
(0.17309 0.0340526 0)
(0.0478056 0.0111689 0)
(-0.0701012 -0.0102336 0)
(-0.183209 -0.0306508 0)
(-0.292814 -0.0504428 0)
(-0.397568 -0.0697139 0)
(-0.489822 -0.0879193 0)
(-0.546723 -0.102771 0)
(2.13743 0.562512 0)
(1.70951 0.442901 0)
(1.34342 0.348759 0)
(1.05192 0.274279 0)
(0.815888 0.213688 0)
(0.619475 0.163031 0)
(0.451664 0.119628 0)
(0.304795 0.081602 0)
(0.173419 0.0475928 0)
(0.0536063 0.0165855 0)
(-0.0573871 -0.0121867 0)
(-0.161207 -0.0392921 0)
(-0.258264 -0.065112 0)
(-0.347466 -0.0898233 0)
(-0.426157 -0.113382 0)
(-0.491392 -0.135632 0)
(2.00115 0.704196 0)
(1.6179 0.555644 0)
(1.28497 0.439026 0)
(1.01249 0.34603 0)
(0.788371 0.269988 0)
(0.600402 0.206243 0)
(0.439298 0.151565 0)
(0.29832 0.103659 0)
(0.1726 0.0608538 0)
(0.0586268 0.0218988 0)
(-0.0460615 -0.0141558 0)
(-0.143075 -0.0480365 0)
(-0.233329 -0.080299 0)
(-0.31728 -0.111375 0)
(-0.395414 -0.141635 0)
(-0.469141 -0.171493 0)
(1.8935 0.84528 0)
(1.53094 0.666152 0)
(1.22248 0.526852 0)
(0.967544 0.415672 0)
(0.755885 0.324596 0)
(0.577336 0.248152 0)
(0.423884 0.182538 0)
(0.289549 0.125045 0)
(0.169918 0.0736852 0)
(0.0617392 0.0269651 0)
(-0.0373855 -0.0162657 0)
(-0.129237 -0.0569138 0)
(-0.215199 -0.0957141 0)
(-0.296501 -0.133289 0)
(-0.374492 -0.1702 0)
(-0.450897 -0.206998 0)
(1.79527 0.983066 0)
(1.44637 0.773545 0)
(1.15735 0.611811 0)
(0.918531 0.482885 0)
(0.719413 0.377244 0)
(0.550841 0.288534 0)
(0.405658 0.212368 0)
(0.27846 0.145617 0)
(0.165188 0.0859837 0)
(0.0627744 0.0317289 0)
(-0.0311445 -0.0184968 0)
(-0.118448 -0.0657711 0)
(-0.20072 -0.110982 0)
(-0.279408 -0.154888 0)
(-0.35595 -0.19816 0)
(-0.431831 -0.241416 0)
(1.69724 1.11581 0)
(1.36159 0.87691 0)
(1.08977 0.693377 0)
(0.866187 0.547302 0)
(0.679612 0.427647 0)
(0.521377 0.327165 0)
(0.384898 0.240882 0)
(0.265211 0.165254 0)
(0.158546 0.0976779 0)
(0.0620025 0.036178 0)
(-0.0267124 -0.0207846 0)
(-0.109472 -0.0744447 0)
(-0.187877 -0.125822 0)
(-0.263364 -0.175784 0)
(-0.337269 -0.225088 0)
(-0.410859 -0.274417 0)
(1.59501 1.24222 0)
(1.27461 0.975398 0)
(1.01947 0.770998 0)
(0.810831 0.608529 0)
(0.636897 0.475512 0)
(0.489302 0.363824 0)
(0.361887 0.267917 0)
(0.250043 0.183847 0)
(0.150261 0.108713 0)
(0.059812 0.0403152 0)
(-0.023484 -0.0230628 0)
(-0.101422 -0.0827999 0)
(-0.175533 -0.140034 0)
(-0.247161 -0.195728 0)
(-0.317517 -0.25072 0)
(-0.387705 -0.305757 0)
(1.48657 1.36131 0)
(1.18412 1.06824 0)
(0.946131 0.844133 0)
(0.752586 0.666176 0)
(0.591534 0.520547 0)
(0.454898 0.398294 0)
(0.336889 0.293318 0)
(0.233217 0.201294 0)
(0.140625 0.119039 0)
(0.0565676 0.0441439 0)
(-0.020991 -0.025276 0)
(-0.0937294 -0.0907312 0)
(-0.163069 -0.153467 0)
(-0.230242 -0.214538 0)
(-0.29634 -0.274855 0)
(-0.362342 -0.33523 0)
(1.37116 1.47219 0)
(1.08938 1.15476 0)
(0.869495 0.912277 0)
(0.691511 0.719864 0)
(0.543712 0.562468 0)
(0.418393 0.430363 0)
(0.310137 0.316935 0)
(0.214974 0.217499 0)
(0.129898 0.128611 0)
(0.0525647 0.0476636 0)
(-0.0189017 -0.0273807 0)
(-0.0860426 -0.0981551 0)
(-0.150156 -0.166005 0)
(-0.212358 -0.232065 0)
(-0.27363 -0.297321 0)
(-0.334843 -0.362644 0)
(1.24867 1.57411 0)
(0.990093 1.23435 0)
(0.78946 0.97496 0)
(0.627678 0.769238 0)
(0.493592 0.601007 0)
(0.379982 0.459832 0)
(0.28184 0.338626 0)
(0.195527 0.232371 0)
(0.1183 0.137382 0)
(0.0480271 0.0508697 0)
(-0.0169936 -0.0293437 0)
(-0.0781569 -0.105004 0)
(-0.136632 -0.177547 0)
(-0.193419 -0.248185 0)
(-0.249394 -0.317968 0)
(-0.305335 -0.387827 0)
(1.11937 1.66641 0)
(0.88624 1.30645 0)
(0.706063 1.03176 0)
(0.561201 0.81397 0)
(0.441337 0.635915 0)
(0.339848 0.486517 0)
(0.252183 0.358259 0)
(0.175057 0.245823 0)
(0.106005 0.145307 0)
(0.0431181 0.0537542 0)
(-0.0151232 -0.0311394 0)
(-0.0699609 -0.111221 0)
(-0.122433 -0.188009 0)
(-0.173424 -0.262787 0)
(-0.223709 -0.336664 0)
(-0.273973 -0.410622 0)
(0.983767 1.74848 0)
(0.778038 1.37059 0)
(0.619466 1.08229 0)
(0.492252 0.853766 0)
(0.387129 0.666965 0)
(0.298174 0.510247 0)
(0.22134 0.375713 0)
(0.153723 0.257777 0)
(0.0931537 0.152342 0)
(0.0379552 0.0563068 0)
(-0.013203 -0.032748 0)
(-0.0614053 -0.116759 0)
(-0.107556 -0.19732 0)
(-0.152426 -0.275775 0)
(-0.196687 -0.353287 0)
(-0.240937 -0.430887 0)
(0.842516 1.81981 0)
(0.665853 1.42636 0)
(0.529934 1.12623 0)
(0.42106 0.888363 0)
(0.331177 0.693956 0)
(0.255147 0.53087 0)
(0.189477 0.390878 0)
(0.131669 0.268159 0)
(0.0798618 0.158449 0)
(0.0326226 0.0585166 0)
(-0.011184 -0.0341543 0)
(-0.0524814 -0.12158 0)
(-0.0920389 -0.205417 0)
(-0.130512 -0.287066 0)
(-0.16847 -0.367734 0)
(-0.206421 -0.448495 0)
(0.696364 1.87995 0)
(0.550166 1.47338 0)
(0.437815 1.16327 0)
(0.347904 0.917536 0)
(0.273715 0.716712 0)
(0.210967 0.548254 0)
(0.15676 0.403658 0)
(0.109026 0.276906 0)
(0.0662266 0.16359 0)
(0.0271818 0.0603725 0)
(-0.00904344 -0.0353463 0)
(-0.0432083 -0.125649 0)
(-0.0759445 -0.212248 0)
(-0.10779 -0.296587 0)
(-0.139214 -0.379914 0)
(-0.170633 -0.463339 0)
(0.546131 1.92851 0)
(0.431537 1.51135 0)
(0.343523 1.19319 0)
(0.273108 0.941094 0)
(0.215003 0.735085 0)
(0.165844 0.562288 0)
(0.123356 0.413972 0)
(0.0859196 0.283962 0)
(0.0523344 0.167734 0)
(0.0216786 0.0618644 0)
(-0.00677662 -0.0363151 0)
(-0.0336233 -0.12894 0)
(-0.059354 -0.217768 0)
(-0.0843883 -0.304278 0)
(-0.109092 -0.389752 0)
(-0.13379 -0.475326 0)
(0.392687 1.96519 0)
(0.31059 1.54004 0)
(0.247522 1.21579 0)
(0.197032 0.958883 0)
(0.155327 0.748956 0)
(0.120002 0.57288 0)
(0.0894358 0.421753 0)
(0.0624747 0.289283 0)
(0.0382646 0.170856 0)
(0.0161493 0.0629833 0)
(-0.0043904 -0.037054 0)
(-0.0237764 -0.131433 0)
(-0.0423604 -0.221942 0)
(-0.0604424 -0.310091 0)
(-0.0782838 -0.397185 0)
(-0.0961183 -0.484382 0)
(0.236939 1.98977 0)
(0.187988 1.55925 0)
(0.150315 1.23092 0)
(0.120064 0.970787 0)
(0.094988 0.758233 0)
(0.0736753 0.57996 0)
(0.0551758 0.426952 0)
(0.0388151 0.292834 0)
(0.0240929 0.172935 0)
(0.0106236 0.0637221 0)
(-0.00189924 -0.0375583 0)
(-0.0137257 -0.13311 0)
(-0.0250653 -0.224745 0)
(-0.0360972 -0.313991 0)
(-0.0469784 -0.402169 0)
(-0.0578493 -0.490451 0)
(0.0798186 2.00209 0)
(0.0644275 1.56886 0)
(0.0524322 1.23848 0)
(0.0426137 0.976728 0)
(0.0343057 0.762856 0)
(0.0271078 0.583483 0)
(0.0207569 0.429533 0)
(0.0150659 0.294592 0)
(0.00989354 0.173958 0)
(0.00512801 0.0640757 0)
(0.000677656 -0.0378251 0)
(-0.00353464 -0.133962 0)
(-0.00757523 -0.226159 0)
(-0.0115023 -0.315952 0)
(-0.0153678 -0.404672 0)
(-0.0192188 -0.493496 0)
(-0.0777278 2.00207 0)
(-0.059374 1.56882 0)
(-0.0455751 1.23842 0)
(-0.0348906 0.976663 0)
(-0.0263899 0.762792 0)
(-0.0194486 0.583423 0)
(-0.0136358 0.429478 0)
(-0.00864641 0.294544 0)
(-0.00425994 0.173917 0)
(-0.000312963 0.0640412 0)
(0.00331839 -0.0378532 0)
(0.00673038 -0.133985 0)
(0.00999975 -0.226176 0)
(0.0131894 -0.315964 0)
(0.0163525 -0.404678 0)
(0.0195349 -0.493498 0)
(-0.234741 1.98972 0)
(-0.182687 1.55911 0)
(-0.143144 1.23074 0)
(-0.112012 0.970591 0)
(-0.0867605 0.758039 0)
(-0.065737 0.579778 0)
(-0.047814 0.426787 0)
(-0.0321939 0.292689 0)
(-0.0182939 0.172811 0)
(-0.0056757 0.0636181 0)
(0.00599967 -0.0376431 0)
(0.0170012 -0.133177 0)
(0.0275481 -0.224795 0)
(0.0378238 -0.314025 0)
(0.0479857 -0.402189 0)
(0.0581727 -0.490458 0)
(-0.390265 1.96509 0)
(-0.304777 1.5398 0)
(-0.239704 1.21548 0)
(-0.188307 0.958546 0)
(-0.146463 0.748622 0)
(-0.111497 0.572568 0)
(-0.0815878 0.421473 0)
(-0.0554479 0.289037 0)
(-0.0321347 0.170646 0)
(-0.0109369 0.0628082 0)
(0.00869773 -0.0371965 0)
(0.0272092 -0.131545 0)
(0.0449579 -0.222026 0)
(0.0622465 -0.310149 0)
(0.0793356 -0.397219 0)
(0.0964557 -0.484393 0)
(-0.54335 1.92836 0)
(-0.424912 1.511 0)
(-0.334686 1.19274 0)
(-0.263331 0.940601 0)
(-0.205154 0.7346 0)
(-0.156468 0.561837 0)
(-0.114767 0.413568 0)
(-0.0782796 0.28361 0)
(-0.0457086 0.167435 0)
(-0.0160731 0.0616157 0)
(0.0113889 -0.0365167 0)
(0.0372863 -0.129099 0)
(0.0621182 -0.217886 0)
(0.0863044 -0.304359 0)
(0.110207 -0.389799 0)
(0.134148 -0.475341 0)
(-0.69306 1.87974 0)
(-0.542365 1.47289 0)
(-0.427523 1.16265 0)
(-0.336643 0.916864 0)
(-0.262491 0.716055 0)
(-0.200389 0.547649 0)
(-0.147161 0.403119 0)
(-0.100561 0.27644 0)
(-0.0589421 0.163196 0)
(-0.0210611 0.0600473 0)
(0.0140502 -0.0356085 0)
(0.0471654 -0.125854 0)
(0.0789195 -0.2124 0)
(0.109847 -0.296691 0)
(0.140409 -0.379975 0)
(0.171016 -0.463358 0)
(-0.838476 1.81953 0)
(-0.656426 1.42571 0)
(-0.517659 1.12539 0)
(-0.407806 0.88748 0)
(-0.318136 0.693102 0)
(-0.243005 0.53009 0)
(-0.178584 0.390191 0)
(-0.122165 0.267571 0)
(-0.0717629 0.157956 0)
(-0.0258773 0.0581122 0)
(0.0166593 -0.034478 0)
(0.0567811 -0.121831 0)
(0.0952548 -0.205604 0)
(0.132726 -0.287193 0)
(0.169754 -0.367808 0)
(0.206832 -0.448519 0)
(-0.978707 1.7481 0)
(-0.766401 1.36974 0)
(-0.604551 1.0812 0)
(-0.476397 0.852629 0)
(-0.37176 0.665881 0)
(-0.284065 0.509268 0)
(-0.208853 0.374861 0)
(-0.142968 0.257055 0)
(-0.0840995 0.151744 0)
(-0.0304987 0.0558217 0)
(0.0191949 -0.0331325 0)
(0.06607 -0.117055 0)
(0.11102 -0.197538 0)
(0.1548 -0.275923 0)
(0.198059 -0.353372 0)
(0.241375 -0.430914 0)
(-1.11289 1.6659 0)
(-0.871619 1.30532 0)
(-0.687672 1.03035 0)
(-0.542001 0.812525 0)
(-0.423042 0.634558 0)
(-0.323327 0.48531 0)
(-0.23779 0.357223 0)
(-0.16285 0.244958 0)
(-0.0958828 0.1446 0)
(-0.0349022 0.0531894 0)
(0.0216369 -0.0315808 0)
(0.0749712 -0.111556 0)
(0.126117 -0.188253 0)
(0.175929 -0.262951 0)
(0.225149 -0.336757 0)
(0.274432 -0.410652 0)
(-1.2402 1.57343 0)
(-0.971438 1.23286 0)
(-0.766519 0.973155 0)
(-0.604225 0.767416 0)
(-0.471675 0.599327 0)
(-0.360555 0.458363 0)
(-0.265224 0.337387 0)
(-0.181695 0.231354 0)
(-0.107046 0.136567 0)
(-0.0390655 0.0502313 0)
(0.0239663 -0.0298326 0)
(0.0834269 -0.105368 0)
(0.140448 -0.177807 0)
(0.195983 -0.248358 0)
(0.250856 -0.318066 0)
(0.305799 -0.387858 0)
(-1.35986 1.47126 0)
(-1.06525 1.1528 0)
(-0.840612 0.909958 0)
(-0.662691 0.717577 0)
(-0.517367 0.560403 0)
(-0.395528 0.428592 0)
(-0.290993 0.315472 0)
(-0.199392 0.216325 0)
(-0.117524 0.127694 0)
(-0.042967 0.0469652 0)
(0.0261654 -0.0278991 0)
(0.0913823 -0.0985285 0)
(0.153924 -0.166263 0)
(0.214836 -0.232232 0)
(0.275021 -0.297413 0)
(0.335282 -0.362673 0)
(-1.47112 1.36002 0)
(-1.15247 1.06564 0)
(-0.909498 0.841152 0)
(-0.717045 0.663317 0)
(-0.559842 0.518026 0)
(-0.428035 0.396182 0)
(-0.314942 0.291615 0)
(-0.215837 0.199965 0)
(-0.127258 0.118036 0)
(-0.046586 0.0434109 0)
(0.0282178 -0.0257923 0)
(0.0987861 -0.091081 0)
(0.16646 -0.153694 0)
(0.23237 -0.214674 0)
(0.297494 -0.274927 0)
(0.362699 -0.335252 0)
(-1.57331 1.24039 0)
(-1.23258 0.971901 0)
(-0.972759 0.767162 0)
(-0.766956 0.604969 0)
(-0.598842 0.472457 0)
(-0.457881 0.361331 0)
(-0.336928 0.265961 0)
(-0.230931 0.182373 0)
(-0.136189 0.107651 0)
(-0.0499031 0.0395903 0)
(0.0301086 -0.0235255 0)
(0.105591 -0.0830711 0)
(0.177977 -0.140176 0)
(0.248477 -0.195793 0)
(0.318136 -0.250745 0)
(0.387881 -0.305763 0)
(-1.6658 1.11312 0)
(-1.30507 0.872175 0)
(-1.03001 0.688444 0)
(-0.812121 0.542892 0)
(-0.634132 0.423978 0)
(-0.484886 0.324253 0)
(-0.356819 0.23867 0)
(-0.244586 0.163658 0)
(-0.144267 0.0966033 0)
(-0.0529002 0.0355265 0)
(0.031824 -0.0211129 0)
(0.111752 -0.0745484 0)
(0.188403 -0.125794 0)
(0.263057 -0.175703 0)
(0.336819 -0.225017 0)
(0.410672 -0.27439 0)
(-1.74801 0.97898 0)
(-1.36951 0.767073 0)
(-1.08089 0.605482 0)
(-0.852264 0.47747 0)
(-0.665496 0.372885 0)
(-0.508885 0.285178 0)
(-0.374496 0.209908 0)
(-0.256719 0.143936 0)
(-0.151444 0.0849612 0)
(-0.0555609 0.0312446 0)
(0.0333518 -0.0185694 0)
(0.117232 -0.0655655 0)
(0.197673 -0.110635 0)
(0.276018 -0.154531 0)
(0.353428 -0.197901 0)
(0.430932 -0.241324 0)
(-1.81944 0.838809 0)
(-1.4255 0.657243 0)
(-1.1251 0.518788 0)
(-0.88714 0.409105 0)
(-0.692744 0.319494 0)
(-0.529734 0.244345 0)
(-0.389852 0.179852 0)
(-0.267259 0.123326 0)
(-0.157677 0.0727961 0)
(-0.0578704 0.0267707 0)
(0.0346813 -0.0159108 0)
(0.121995 -0.0561778 0)
(0.205729 -0.0947944 0)
(0.287281 -0.132405 0)
(0.367859 -0.169566 0)
(0.448535 -0.206771 0)
(-1.87966 0.693466 0)
(-1.47269 0.543361 0)
(-1.16236 0.428896 0)
(-0.916536 0.338218 0)
(-0.71571 0.264135 0)
(-0.547307 0.202007 0)
(-0.402794 0.148689 0)
(-0.276141 0.101958 0)
(-0.162929 0.0601828 0)
(-0.0598157 0.0221324 0)
(0.0358031 -0.0131536 0)
(0.126011 -0.0464435 0)
(0.21252 -0.0783689 0)
(0.296775 -0.109462 0)
(0.380024 -0.140184 0)
(0.463374 -0.170943 0)
(-1.92828 0.543848 0)
(-1.5108 0.426129 0)
(-1.19245 0.336361 0)
(-0.940272 0.265247 0)
(-0.734254 0.207148 0)
(-0.561495 0.158424 0)
(-0.413244 0.11661 0)
(-0.283313 0.0799609 0)
(-0.16717 0.0471991 0)
(-0.0613859 0.0173581 0)
(0.0367095 -0.0103148 0)
(0.129254 -0.0364224 0)
(0.218005 -0.0614599 0)
(0.304442 -0.0858449 0)
(0.389848 -0.109939 0)
(0.475357 -0.134061 0)
(-1.96501 0.390877 0)
(-1.53958 0.30627 0)
(-1.21518 0.241752 0)
(-0.958203 0.190641 0)
(-0.748264 0.148884 0)
(-0.572214 0.113866 0)
(-0.421138 0.0838125 0)
(-0.28873 0.0574717 0)
(-0.170373 0.0339249 0)
(-0.0625722 0.0124773 0)
(0.0373942 -0.00741214 0)
(0.131704 -0.0261765 0)
(0.222148 -0.0441718 0)
(0.310234 -0.0616981 0)
(0.397269 -0.079015 0)
(0.484409 -0.0963527 0)
(-1.98962 0.235496 0)
(-1.55888 0.184523 0)
(-1.23042 0.145653 0)
(-0.97022 0.114861 0)
(-0.757652 0.0897031 0)
(-0.579398 0.0686051 0)
(-0.426429 0.0504987 0)
(-0.292362 0.0346288 0)
(-0.172521 0.020442 0)
(-0.0633678 0.00751991 0)
(0.0378524 -0.00446343 0)
(0.133345 -0.0157689 0)
(0.224923 -0.0266111 0)
(0.314115 -0.0371707 0)
(0.402241 -0.0476041 0)
(0.490474 -0.0580501 0)
(-2.00197 0.0786625 0)
(-1.56855 0.0616383 0)
(-1.23806 0.0486566 0)
(-0.97625 0.0383722 0)
(-0.762364 0.0299694 0)
(-0.583003 0.0229223 0)
(-0.429085 0.0168741 0)
(-0.294185 0.0115727 0)
(-0.1736 0.00683345 0)
(-0.0637684 0.00251651 0)
(0.038081 -0.00148691 0)
(0.134167 -0.00526393 0)
(0.226315 -0.00888616 0)
(0.316061 -0.012414 0)
(0.404735 -0.0158997 0)
(0.493517 -0.0193895 0)
(-2.00197 -0.0786576 0)
(-1.56856 -0.0616262 0)
(-1.23806 -0.0486396 0)
(-0.976254 -0.0383524 0)
(-0.762368 -0.0299485 0)
(-0.583008 -0.0229014 0)
(-0.429089 -0.0168541 0)
(-0.29419 -0.0115542 0)
(-0.173604 -0.00681686 0)
(-0.0637718 -0.00250208 0)
(0.0380781 0.00149906 0)
(0.134165 0.00527377 0)
(0.226313 0.00889372 0)
(0.31606 0.0124193 0)
(0.404734 0.0159028 0)
(0.493516 0.0193906 0)
(-1.98962 -0.235491 0)
(-1.55889 -0.18451 0)
(-1.23043 -0.145636 0)
(-0.970235 -0.11484 0)
(-0.757667 -0.0896813 0)
(-0.579413 -0.0685834 0)
(-0.426443 -0.050478 0)
(-0.292375 -0.0346096 0)
(-0.172533 -0.0204248 0)
(-0.063378 -0.00750494 0)
(0.0378438 0.00447604 0)
(0.133338 0.0157792 0)
(0.224918 0.0266189 0)
(0.314111 0.0371762 0)
(0.402239 0.0476074 0)
(0.490474 0.0580512 0)
(-1.96501 -0.390872 0)
(-1.5396 -0.306256 0)
(-1.2152 -0.241733 0)
(-0.958228 -0.190619 0)
(-0.748289 -0.148861 0)
(-0.57224 -0.113842 0)
(-0.421162 -0.0837902 0)
(-0.288753 -0.0574511 0)
(-0.170393 -0.0339064 0)
(-0.0625896 -0.0124612 0)
(0.0373795 0.00742568 0)
(0.131692 0.0261875 0)
(0.222138 0.0441802 0)
(0.310228 0.061704 0)
(0.397265 0.0790185 0)
(0.484407 0.0963539 0)
(-1.92828 -0.543842 0)
(-1.51082 -0.426114 0)
(-1.19248 -0.33634 0)
(-0.940307 -0.265223 0)
(-0.734292 -0.207122 0)
(-0.561532 -0.158399 0)
(-0.413279 -0.116585 0)
(-0.283345 -0.079938 0)
(-0.167199 -0.0471786 0)
(-0.0614112 -0.0173403 0)
(0.0366882 0.0103298 0)
(0.129237 0.0364346 0)
(0.217991 0.0614692 0)
(0.304433 0.0858514 0)
(0.389842 0.109942 0)
(0.475355 0.134063 0)
(-1.87967 -0.69346 0)
(-1.47272 -0.543343 0)
(-1.1624 -0.428873 0)
(-0.916583 -0.338191 0)
(-0.715761 -0.264106 0)
(-0.547357 -0.201978 0)
(-0.402842 -0.148661 0)
(-0.276185 -0.101932 0)
(-0.162969 -0.0601596 0)
(-0.0598498 -0.0221122 0)
(0.0357744 0.0131706 0)
(0.125988 0.0464572 0)
(0.212503 0.0783794 0)
(0.296763 0.10947 0)
(0.380017 0.140189 0)
(0.463372 0.170945 0)
(-1.81946 -0.838801 0)
(-1.42554 -0.657223 0)
(-1.12515 -0.518761 0)
(-0.887202 -0.409073 0)
(-0.692809 -0.31946 0)
(-0.529799 -0.244311 0)
(-0.389914 -0.17982 0)
(-0.267316 -0.123296 0)
(-0.157728 -0.0727692 0)
(-0.0579146 -0.0267474 0)
(0.0346441 0.0159304 0)
(0.121965 0.0561937 0)
(0.205706 0.0948066 0)
(0.287265 0.132413 0)
(0.36785 0.169571 0)
(0.448532 0.206773 0)
(-1.74803 -0.978971 0)
(-1.36956 -0.76705 0)
(-1.08096 -0.60545 0)
(-0.852342 -0.477432 0)
(-0.665579 -0.372845 0)
(-0.508967 -0.285138 0)
(-0.374575 -0.20987 0)
(-0.256792 -0.1439 0)
(-0.151509 -0.0849297 0)
(-0.0556168 -0.0312172 0)
(0.0333048 0.0185924 0)
(0.117194 0.0655841 0)
(0.197644 0.11065 0)
(0.275998 0.154541 0)
(0.353416 0.197907 0)
(0.430928 0.241326 0)
(-1.66583 -1.1131 0)
(-1.30513 -0.872148 0)
(-1.03009 -0.688405 0)
(-0.812219 -0.542847 0)
(-0.634235 -0.42393 0)
(-0.484988 -0.324206 0)
(-0.356917 -0.238625 0)
(-0.244676 -0.163617 0)
(-0.144348 -0.096566 0)
(-0.0529699 -0.0354941 0)
(0.0317655 0.0211401 0)
(0.111705 0.0745704 0)
(0.188367 0.12581 0)
(0.263031 0.175715 0)
(0.336804 0.225024 0)
(0.410667 0.274392 0)
(-1.57335 -1.24038 0)
(-1.23265 -0.971868 0)
(-0.972864 -0.767116 0)
(-0.767078 -0.604915 0)
(-0.59897 -0.472401 0)
(-0.458008 -0.361274 0)
(-0.337049 -0.265908 0)
(-0.231042 -0.182323 0)
(-0.136288 -0.107606 0)
(-0.0499889 -0.0395516 0)
(0.0300365 0.023558 0)
(0.105532 0.0830973 0)
(0.177933 0.140196 0)
(0.248446 0.195807 0)
(0.318118 0.250753 0)
(0.387875 0.305766 0)
(-1.47116 -1.36 0)
(-1.15256 -1.0656 0)
(-0.909629 -0.841097 0)
(-0.717195 -0.663252 0)
(-0.56 -0.517958 0)
(-0.428191 -0.396114 0)
(-0.31509 -0.29155 0)
(-0.215973 -0.199905 0)
(-0.127379 -0.117982 0)
(-0.0466911 -0.0433647 0)
(0.0281296 0.0258312 0)
(0.0987149 0.0911124 0)
(0.166406 0.153718 0)
(0.232332 0.214691 0)
(0.297472 0.274937 0)
(0.362692 0.335255 0)
(-1.35991 -1.47124 0)
(-1.06536 -1.15275 0)
(-0.840772 -0.90989 0)
(-0.662876 -0.717499 0)
(-0.517561 -0.56032 0)
(-0.395719 -0.42851 0)
(-0.291174 -0.315394 0)
(-0.199558 -0.216253 0)
(-0.117672 -0.12763 0)
(-0.0430951 -0.0469095 0)
(0.026058 0.0279458 0)
(0.0912957 0.0985663 0)
(0.153858 0.166292 0)
(0.214789 0.232252 0)
(0.274994 0.297425 0)
(0.335273 0.362677 0)
(-1.24026 -1.57341 0)
(-0.97158 -1.2328 0)
(-0.766716 -0.973073 0)
(-0.604451 -0.767321 0)
(-0.471912 -0.599227 0)
(-0.360788 -0.458264 0)
(-0.265445 -0.337293 0)
(-0.181897 -0.231267 0)
(-0.107225 -0.13649 0)
(-0.039221 -0.0501643 0)
(0.023836 0.0298889 0)
(0.0833219 0.105413 0)
(0.140368 0.177841 0)
(0.195927 0.248382 0)
(0.250824 0.31808 0)
(0.305789 0.387863 0)
(-1.11296 -1.66587 0)
(-0.871794 -1.30525 0)
(-0.687913 -1.03026 0)
(-0.542278 -0.812411 0)
(-0.423331 -0.634437 0)
(-0.323611 -0.48519 0)
(-0.238059 -0.35711 0)
(-0.163096 -0.244854 0)
(-0.0961008 -0.144507 0)
(-0.0350904 -0.0531086 0)
(0.0214793 0.0316486 0)
(0.0748444 0.111611 0)
(0.12602 0.188295 0)
(0.175862 0.262981 0)
(0.22511 0.336775 0)
(0.27442 0.410657 0)
(-0.978795 -1.74807 0)
(-0.766616 -1.36965 0)
(-0.604846 -1.08108 0)
(-0.476735 -0.852489 0)
(-0.372112 -0.665734 0)
(-0.284411 -0.509123 0)
(-0.209179 -0.374723 0)
(-0.143266 -0.256929 0)
(-0.0843631 -0.151632 0)
(-0.030726 -0.0557242 0)
(0.0190049 0.0332143 0)
(0.0659171 0.117121 0)
(0.110904 0.197588 0)
(0.154718 0.275958 0)
(0.198012 0.353393 0)
(0.24136 0.43092 0)
(-0.838585 -1.81949 0)
(-0.656691 -1.4256 0)
(-0.518022 -1.12525 0)
(-0.40822 -0.88731 0)
(-0.318566 -0.692924 0)
(-0.243426 -0.529914 0)
(-0.178979 -0.390024 0)
(-0.122524 -0.267418 0)
(-0.0720809 -0.15782 0)
(-0.026151 -0.0579947 0)
(0.0164309 0.0345765 0)
(0.0565976 0.12191 0)
(0.0951151 0.205664 0)
(0.132629 0.287235 0)
(0.169697 0.367832 0)
(0.206813 0.448527 0)
(-0.693194 -1.87968 0)
(-0.542691 -1.47276 0)
(-0.427969 -1.16247 0)
(-0.337149 -0.916657 0)
(-0.263014 -0.715839 0)
(-0.2009 -0.547436 0)
(-0.147639 -0.402918 0)
(-0.100995 -0.276256 0)
(-0.0593249 -0.163033 0)
(-0.0213898 -0.0599057 0)
(0.0137764 0.0357271 0)
(0.0469457 0.125949 0)
(0.0787524 0.212473 0)
(0.10973 0.296742 0)
(0.140341 0.380005 0)
(0.170994 0.463368 0)
(-0.543516 -1.92829 0)
(-0.425314 -1.51084 0)
(-0.335234 -1.19252 0)
(-0.263951 -0.940349 0)
(-0.205792 -0.734337 0)
(-0.157087 -0.561579 0)
(-0.115345 -0.413324 0)
(-0.0788021 -0.283388 0)
(-0.0461682 -0.167238 0)
(-0.0164668 -0.0614452 0)
(0.0110617 0.0366593 0)
(0.0370242 0.129213 0)
(0.0619191 0.217973 0)
(0.0861658 0.30442 0)
(0.110126 0.389835 0)
(0.134122 0.475352 0)
(-0.390471 -1.96501 0)
(-0.305275 -1.5396 0)
(-0.240379 -1.21521 0)
(-0.189067 -0.958239 0)
(-0.147241 -0.748303 0)
(-0.112248 -0.572255 0)
(-0.0822855 -0.421178 0)
(-0.056076 -0.288769 0)
(-0.0326852 -0.170408 0)
(-0.0114068 -0.0626032 0)
(0.00830805 0.0373677 0)
(0.0268978 0.131682 0)
(0.0447218 0.222131 0)
(0.0620822 0.310222 0)
(0.0792397 0.397262 0)
(0.0964249 0.484406 0)
(-0.234998 -1.98962 0)
(-0.183305 -1.55887 0)
(-0.143977 -1.23041 0)
(-0.112944 -0.970215 0)
(-0.0877087 -0.75765 0)
(-0.0666477 -0.579398 0)
(-0.0486549 -0.42643 0)
(-0.0329471 -0.292365 0)
(-0.0189512 -0.172525 0)
(-0.00623466 -0.063372 0)
(0.0055377 0.0378483 0)
(0.016633 0.133342 0)
(0.0272694 0.22492 0)
(0.0376302 0.314113 0)
(0.0478728 0.40224 0)
(0.0581364 0.490474 0)
(-0.0780493 -2.00195 0)
(-0.0601437 -1.56852 0)
(-0.0466062 -1.23802 0)
(-0.0360354 -0.976204 0)
(-0.0275461 -0.762319 0)
(-0.0205515 -0.582962 0)
(-0.0146474 -0.429048 0)
(-0.00954712 -0.294154 0)
(-0.0050417 -0.173573 0)
(-0.000974769 -0.0637465 0)
(0.00277355 0.0380986 0)
(0.00629746 0.134181 0)
(0.00967293 0.226325 0)
(0.0129628 0.316068 0)
(0.0162205 0.404739 0)
(0.0194926 0.493518 0)
(0.0794141 -2.00194 0)
(0.0634651 -1.5685 0)
(0.051153 -1.23798 0)
(0.0412055 -0.976165 0)
(0.0328954 -0.76228 0)
(0.0257737 -0.582924 0)
(0.0195426 -0.429013 0)
(0.0139924 -0.294123 0)
(0.00896776 -0.173546 0)
(0.00434869 -0.0637236 0)
(3.91426e-05 0.0381175 0)
(-0.00403999 0.134196 0)
(-0.00795557 0.226336 0)
(-0.0117655 0.316076 0)
(-0.0155208 0.404744 0)
(-0.0192679 0.493519 0)
(0.236428 -1.98958 0)
(0.186779 -1.55879 0)
(0.148723 -1.2303 0)
(0.118328 -0.970098 0)
(0.0932673 -0.757531 0)
(0.0720632 -0.579284 0)
(0.0537218 -0.426325 0)
(0.0375408 -0.292271 0)
(0.0230025 -0.172443 0)
(0.00971202 -0.0633027 0)
(-0.00264166 0.0379055 0)
(-0.0143104 0.133387 0)
(-0.0255036 0.224955 0)
(-0.0363996 0.314137 0)
(-0.0471539 0.402254 0)
(-0.0579056 0.490478 0)
(0.392036 -1.96496 0)
(0.309064 -1.53947 0)
(0.245534 -1.21503 0)
(0.194889 -0.958038 0)
(0.153227 -0.7481 0)
(0.118057 -0.572061 0)
(0.0877004 -0.420999 0)
(0.0609693 -0.288609 0)
(0.0369887 -0.17027 0)
(0.0150919 -0.0624858 0)
(-0.00524511 0.0374645 0)
(-0.0244453 0.131759 0)
(-0.0428594 0.222189 0)
(-0.0607854 0.310262 0)
(-0.0784825 0.397285 0)
(-0.0961818 0.484414 0)
(0.545294 -1.92821 0)
(0.429599 -1.51064 0)
(0.34103 -1.19225 0)
(0.270458 -0.940055 0)
(0.21244 -0.734041 0)
(0.163501 -0.561297 0)
(0.121293 -0.413066 0)
(0.084152 -0.283158 0)
(0.050854 -0.167039 0)
(0.020465 -0.0612771 0)
(-0.00774814 0.0367976 0)
(-0.0343773 0.129323 0)
(-0.0599127 0.218056 0)
(-0.0847705 0.304477 0)
(-0.109312 0.389868 0)
(-0.13386 0.475363 0)
(0.69528 -1.87957 0)
(0.547688 -1.47249 0)
(0.434675 -1.1621 0)
(0.344618 -0.916258 0)
(0.270586 -0.715439 0)
(0.208151 -0.547057 0)
(0.154319 -0.402573 0)
(0.106966 -0.27595 0)
(0.0645266 -0.162769 0)
(0.0258076 -0.0596832 0)
(-0.0101293 0.0359096 0)
(-0.0440415 0.126094 0)
(-0.0765563 0.212582 0)
(-0.108206 0.296817 0)
(-0.139453 0.380049 0)
(-0.170709 0.463382 0)
(0.841096 -1.81933 0)
(0.662661 -1.42524 0)
(0.525961 -1.12477 0)
(0.416977 -0.886788 0)
(0.32736 -0.692404 0)
(0.251774 -0.529425 0)
(0.186605 -0.389581 0)
(0.129291 -0.267028 0)
(0.0779357 -0.157485 0)
(0.0310945 -0.0577134 0)
(-0.0123702 0.0348063 0)
(-0.053377 0.122092 0)
(-0.0926874 0.2058 0)
(-0.130947 0.28733 0)
(-0.168718 0.367887 0)
(-0.2065 0.448544 0)
(0.981883 -1.74787 0)
(0.77389 -1.36918 0)
(0.614415 -1.08047 0)
(0.48717 -0.85182 0)
(0.382477 -0.665074 0)
(0.294147 -0.508506 0)
(0.217987 -0.374169 0)
(0.15101 -0.256445 0)
(0.0910094 -0.151218 0)
(0.0362971 -0.0553794 0)
(-0.0144571 0.0334945 0)
(-0.0623289 0.117341 0)
(-0.10821 0.197753 0)
(-0.152858 0.276072 0)
(-0.196931 0.353459 0)
(-0.241014 0.430942 0)
(1.11683 -1.66561 0)
(0.880801 -1.30464 0)
(0.699608 -1.02947 0)
(0.554865 -0.811563 0)
(0.435675 -0.63361 0)
(0.335066 -0.484425 0)
(0.248303 -0.356429 0)
(0.172007 -0.244264 0)
(0.103673 -0.144008 0)
(0.0413811 -0.0526956 0)
(-0.0163845 0.031982 0)
(-0.0708511 0.111871 0)
(-0.123038 0.188489 0)
(-0.17381 0.263114 0)
(-0.223921 0.336852 0)
(-0.274039 0.410682 0)
(1.24519 -1.57306 0)
(0.982886 -1.23201 0)
(0.78117 -0.972067 0)
(0.619772 -0.766256 0)
(0.486719 -0.5982 0)
(0.37434 -0.457326 0)
(0.277403 -0.336467 0)
(0.192167 -0.23056 0)
(0.115847 -0.135898 0)
(0.0463027 -0.0496793 0)
(-0.0181587 0.0302769 0)
(-0.0789111 0.105714 0)
(-0.137097 0.178064 0)
(-0.193689 0.248534 0)
(-0.249531 0.318168 0)
(-0.305376 0.387891 0)
(1.36628 -1.47079 0)
(1.07973 -1.15173 0)
(0.858802 -0.90861 0)
(0.681652 -0.716166 0)
(0.535407 -0.559053 0)
(0.411792 -0.42737 0)
(0.305138 -0.314405 0)
(0.211369 -0.215417 0)
(0.12744 -0.12694 0)
(0.0510027 -0.0463509 0)
(-0.0198039 0.0283873 0)
(-0.0864954 0.0989049 0)
(-0.150335 0.16654 0)
(-0.212397 0.232421 0)
(-0.27362 0.297522 0)
(-0.334835 0.362708 0)
(1.47956 -1.3594 0)
(1.17103 -1.06427 0)
(0.932295 -0.839467 0)
(0.74032 -0.661586 0)
(0.581563 -0.516402 0)
(0.447261 -0.394737 0)
(0.331361 -0.290375 0)
(0.229483 -0.198929 0)
(0.138344 -0.11719 0)
(0.0553996 -0.0427345 0)
(-0.0213711 0.0263208 0)
(-0.0936188 0.091482 0)
(-0.162723 0.153985 0)
(-0.229862 0.214871 0)
(-0.296065 0.275039 0)
(-0.362245 0.335287 0)
(1.5846 -1.23957 0)
(1.25666 -0.970137 0)
(1.00155 -0.765038 0)
(0.795652 -0.602837 0)
(0.625043 -0.470499 0)
(0.480593 -0.359623 0)
(0.355918 -0.264526 0)
(0.246366 -0.181199 0)
(0.148427 -0.106713 0)
(0.0593785 -0.0388585 0)
(-0.0229504 0.0240831 0)
(-0.100338 0.0834839 0)
(-0.174277 0.140469 0)
(-0.246048 0.195987 0)
(-0.316773 0.250854 0)
(-0.387451 0.305798 0)
(1.68126 -1.112 0)
(1.33671 -0.869866 0)
(1.0666 -0.685748 0)
(0.847587 -0.540259 0)
(0.665726 -0.421616 0)
(0.511636 -0.32224 0)
(0.378648 -0.237016 0)
(0.261849 -0.16234 0)
(0.157522 -0.0955819 0)
(0.062779 -0.0347564 0)
(-0.0246877 0.0216772 0)
(-0.106772 0.0749488 0)
(-0.185073 0.126066 0)
(-0.260972 0.175877 0)
(-0.335691 0.225112 0)
(-0.410323 0.274419 0)
(1.76975 -0.977425 0)
(1.41159 -0.764013 0)
(1.12761 -0.602044 0)
(0.896109 -0.474214 0)
(0.703492 -0.370042 0)
(0.540228 -0.282816 0)
(0.399366 -0.208019 0)
(0.275738 -0.142477 0)
(0.165422 -0.0838754 0)
(0.0653805 -0.0304676 0)
(-0.0268089 0.0191012 0)
(-0.113135 0.0659117 0)
(-0.195287 0.110848 0)
(-0.274744 0.154652 0)
(-0.352834 0.197962 0)
(-0.430764 0.241342 0)
(1.85098 -0.836573 0)
(1.48212 -0.653136 0)
(1.18492 -0.514387 0)
(0.94122 -0.405085 0)
(0.738201 -0.316087 0)
(0.566176 -0.241592 0)
(0.417865 -0.177718 0)
(0.287807 -0.121742 0)
(0.171875 -0.0716808 0)
(0.0668905 -0.0260387 0)
(-0.029649 0.0163463 0)
(-0.119787 0.0564006 0)
(-0.205265 0.0948809 0)
(-0.287635 0.132419 0)
(-0.368339 0.169556 0)
(-0.448732 0.206765 0)
(1.92709 -0.690136 0)
(1.54974 -0.537789 0)
(1.23894 -0.423261 0)
(0.982858 -0.333279 0)
(0.769635 -0.260082 0)
(0.589237 -0.19883 0)
(0.433908 -0.146309 0)
(0.297818 -0.100275 0)
(0.176599 -0.0590917 0)
(0.066948 -0.0215232 0)
(-0.0336804 0.013394 0)
(-0.12731 0.0464304 0)
(-0.215643 0.0782155 0)
(-0.300226 0.109271 0)
(-0.382586 0.140038 0)
(-0.464287 0.17089 0)
(2.00266 -0.538687 0)
(1.61654 -0.418497 0)
(1.29001 -0.329168 0)
(1.02077 -0.259232 0)
(0.797426 -0.202382 0)
(0.60909 -0.154804 0)
(0.447241 -0.113998 0)
(0.305548 -0.0782216 0)
(0.17934 -0.0462044 0)
(0.0651687 -0.0169791 0)
(-0.0395121 0.0102155 0)
(-0.136602 0.035996 0)
(-0.22758 0.0608719 0)
(-0.313755 0.0852658 0)
(-0.396545 0.109522 0)
(-0.477741 0.133914 0)
(2.0871 -0.38251 0)
(1.68523 -0.29576 0)
(1.33802 -0.232658 0)
(1.05427 -0.183425 0)
(0.820969 -0.14337 0)
(0.625313 -0.109806 0)
(0.457616 -0.0809957 0)
(0.310861 -0.0557273 0)
(0.179973 -0.0331107 0)
(0.0612893 -0.0124602 0)
(-0.0477721 0.00677682 0)
(-0.148913 0.025066 0)
(-0.24312 0.0428133 0)
(-0.330902 0.0603733 0)
(-0.412786 0.0780365 0)
(-0.490227 0.0959923 0)
(2.19991 -0.22127 0)
(1.75818 -0.170096 0)
(1.38165 -0.134374 0)
(1.08198 -0.106398 0)
(0.839333 -0.0834638 0)
(0.637385 -0.0641453 0)
(0.46483 -0.0475188 0)
(0.313802 -0.0329287 0)
(0.178703 -0.0198833 0)
(0.0554902 -0.00799484 0)