/*--------------------------------*- C++ -*----------------------------------*\
| =========                 |                                                 |
| \\      /  F ield         | foam-extend: Open Source CFD                    |
|  \\    /   O peration     | Version:  3.0                                   |
|   \\  /    A nd           | Web:         http://www.extend-project.de       |
|    \\/     M anipulation  |                                                 |
\*---------------------------------------------------------------------------*/
FoamFile
{
    version     2.0;
    format      ascii;
    class       volScalarField;
    location    "12";
    object      p;
}
// * * * * * * * * * * * * * * * * * * * * * * * * * * * * * * * * * * * * * //

dimensions      [0 0 0 0 0 0 0];

internalField   nonuniform List<scalar> 
672
(
-0.2438281697
-0.2082906015
-0.19821692
-0.1796107474
-0.1784742109
-0.1680683391
-0.1706612823
-0.1646577576
-0.1679320172
-0.1639484711
-0.1650985395
-0.1609779593
-0.2407231028
-0.2056287793
-0.1956756303
-0.1772988919
-0.176166644
-0.1658856036
-0.168432676
-0.1624981936
-0.1657164888
-0.1617728099
-0.1628959607
-0.1587961717
-0.2345421757
-0.2003466916
-0.1906450212
-0.1727330159
-0.1716236656
-0.161593094
-0.1640674739
-0.1582653226
-0.1613896085
-0.1575229418
-0.1585951914
-0.154596734
-0.2254646836
-0.1925798578
-0.1832461691
-0.1660195902
-0.164945889
-0.155296615
-0.1576662585
-0.1520818004
-0.1550748986
-0.1513470543
-0.1523679327
-0.148481483
-0.2135056159
-0.1823597234
-0.1735167584
-0.1571955414
-0.1561740079
-0.1470224149
-0.1492608045
-0.1439521418
-0.1467746534
-0.1432195552
-0.1441560672
-0.1404571785
-0.1988998418
-0.1698729476
-0.1616280042
-0.1464156964
-0.1454581055
-0.1369246484
-0.1390028876
-0.1340481066
-0.1366695688
-0.1333448843
-0.1342108156
-0.1307274177
-0.1817654227
-0.1552301589
-0.1476896906
-0.1337777278
-0.1328978399
-0.1250841719
-0.1269787091
-0.1224288237
-0.1248153198
-0.1217476491
-0.1225168719
-0.1192949059
-0.1623606439
-0.1386470636
-0.1319049175
-0.1194695416
-0.1186772692
-0.1116860563
-0.1133692642
-0.1092858235
-0.1113996423
-0.1086255239
-0.1092701635
-0.1063397283
-0.1409119807
-0.1203177905
-0.1144579581
-0.1036528015
-0.1029589108
-0.09687363058
-0.09832837192
-0.09475858587
-0.09658292147
-0.09413731292
-0.09467515202
-0.0920711432
-0.1176799247
-0.1004689913
-0.0955674887
-0.08653258568
-0.0859449824
-0.08084681653
-0.08205082795
-0.07904441704
-0.08054868769
-0.07846701259
-0.07887548149
-0.07664931727
-0.09299222554
-0.07937249063
-0.07548675429
-0.06833045352
-0.06785618226
-0.06380534165
-0.06474607113
-0.06233924923
-0.0635099915
-0.06182054246
-0.06210499764
-0.06026810568
-0.067098714
-0.05725395455
-0.0544379814
-0.0492567424
-0.04890134209
-0.04595353758
-0.04661583023
-0.04484373614
-0.04566285974
-0.04439483695
-0.04455370959
-0.04316144033
-0.04040735594
-0.03444651566
-0.03272890176
-0.02958050115
-0.02934695866
-0.02753510472
-0.02791200918
-0.02679504171
-0.0272556559
-0.02642256467
-0.02645734556
-0.02550044673
-0.01315376998
-0.01116941638
-0.01057873837
-0.009510784473
-0.009401739171
-0.008752708493
-0.008834574952
-0.008387565998
-0.008474212147
-0.008086592682
-0.007981163469
-0.007507083458
0.01420690216
0.01220807038
0.01167258089
0.01065534535
0.01064057342
0.01012256436
0.01033451786
0.01010471024
0.01038314276
0.01031578918
0.0105336675
0.01054795722
0.04144978423
0.03547362414
0.0338110922
0.03071262077
0.03057430363
0.02889163281
0.02940048997
0.02849770776
0.02915125285
0.02863269786
0.02898654261
0.02849442397
0.06811215636
0.05825199768
0.05549136086
0.05035958839
0.05010134264
0.04727924179
0.04807547446
0.04650895031
0.04751708759
0.04654741075
0.04700177801
0.0460433257
0.09397401243
0.08033640105
0.07650554168
0.06939620872
0.0690212977
0.06509004676
0.06616895923
0.06395698381
0.06532038483
0.06391254439
0.06449101763
0.0630454163
0.1186048008
0.1013761057
0.09652951913
0.08754030987
0.08705450007
0.08206850873
0.0834133389
0.08058419112
0.08227638809
0.08044362099
0.08111847689
0.07922010813
0.1417853404
0.1211696654
0.1153635738
0.1045997317
0.1040093408
0.09802445442
0.09962130906
0.0962028961
0.09820493988
0.09595837075
0.09671367665
0.09436007304
0.1631516872
0.1394173313
0.1327281932
0.1203320033
0.1196444147
0.1127428227
0.114569661
0.1106125933
0.1128991491
0.1102761363
0.1111135973
0.1083472468
0.182486748
0.155926558
0.1484367913
0.1345581768
0.1337831239
0.126044557
0.128081602
0.1236284076
0.1261739323
0.123202583
0.124110305
0.1209633008
0.1995173428
0.1704673334
0.1622710612
0.1470895518
0.1462349527
0.1377645382
0.1399825783
0.135099341
0.1378670147
0.1345949228
0.13555596
0.1320682729
0.2140379461
0.1828650791
0.1740669455
0.1577695085
0.1568482505
0.147745152
0.1501202209
0.144860522
0.1478231946
0.1442896573
0.1453095715
0.1415408528
0.225876522
0.1929683299
0.1836754749
0.1664699728
0.1654898088
0.1558762588
0.1583732916
0.1528132498
0.1559272772
0.1521820128
0.1532390574
0.1492199776
0.2348574467
0.200635189
0.1909688675
0.1730694176
0.1720455877
0.1620341539
0.1646239243
0.1588202471
0.1620447304
0.1581214217
0.1591886506
0.1549903613
0.2409062418
0.2057915058
0.1958672419
0.1775003765
0.1764405182
0.1661654645
0.1688107749
0.1628510741
0.1661478161
0.1621120383
0.1632010205
0.1588566821
0.2439017118
0.2083464681
0.1982951772
0.1796907571
0.1786119706
0.1681945071
0.1708642905
0.1648099589
0.1681336566
0.1640239478
0.1651008761
0.1607052749
0.2438523175
0.2082938067
0.198234907
0.1796278601
0.1785378159
0.1681173362
0.1707730131
0.1647157943
0.168026374
0.1639120445
0.1649847553
0.1605640984
0.240717528
0.2056127305
0.1956789021
0.1773021851
0.1762187346
0.1659191871
0.1685304765
0.1625354131
0.1657897594
0.1617138693
0.1627541681
0.1583986696
0.2345671037
0.2003500521
0.1906601781
0.1727465331
0.1716777327
0.1616363357
0.1641649948
0.1583204411
0.1614761925
0.1575036059
0.1585088439
0.1542537701
0.2254647063
0.1925711912
0.1832515744
0.1660239999
0.164986979
0.1553236688
0.1577418817
0.1521136123
0.1551351172
0.1513136728
0.1522764022
0.1482050066
0.2135169356
0.1823590507
0.1735235619
0.1572021196
0.1562055962
0.1470485408
0.1493204526
0.1439878177
0.146831905
0.1432156619
0.144120198
0.1402665469
0.1989078491
0.1698754243
0.1616363425
0.1464215824
0.1454803744
0.1369381155
0.1390379759
0.1340594711
0.1366916359
0.1333178324
0.1341490565
0.1305775095
0.1817586441
0.1552235269
0.1476852383
0.1337746995
0.1328987713
0.1250851994
0.126983679
0.1224289176
0.12481604
0.1217327136
0.1224909171
0.1192367298
0.1623780304
0.1386627156
0.131916919
0.1194777663
0.1186784493
0.1116851731
0.1133596354
0.1092785383
0.1113875279
0.1086238475
0.1092800821
0.1063812916
0.1408861549
0.1203047317
0.1144418415
0.1036400621
0.1029287158
0.09685054577
0.09827971319
0.09472986934
0.09653573187
0.09413479981
0.09469098064
0.09219329993
0.1177062818
0.1004972333
0.09558335802
0.08654381846
0.08592756355
0.08083481063
0.08200235699
0.07902700554
0.08051307507
0.07850861739
0.07897352614
0.07689970558
0.0929501891
0.07935395594
0.07546101467
0.0683100085
0.06780091104
0.06376408824
0.0646561874
0.06229332135
0.06343485134
0.06184751686
0.062190723
0.060579236
0.06713188189
0.05729165971
0.05445707241
0.04927064374
0.04887075579
0.04593356921
0.0465385033
0.04481614819
0.04560367861
0.04445343345
0.04468705364
0.04352694561
0.04035529721
0.03442462796
0.03269749785
0.0295556902
0.02927695284
0.02748305995
0.02779698076
0.02673600146
0.02715813344
0.02645343898
0.02656066293
0.02589007441
0.01319011977
0.01121147241
0.01059956853
0.009526248908
0.00936585352
0.008729726334
0.008745304936
0.008355653091
0.008406287763
0.008152452416
0.008135623995
0.00792943171
-0.01426072548
-0.01223047622
-0.01170458111
-0.0106802303
-0.01071188841
-0.01017488854
-0.01045167464
-0.01016411331
-0.01048240779
-0.01028379619
-0.01042783835
-0.01014440238
-0.0414146408
-0.03543329121
-0.03379049625
-0.0306970212
-0.03060646195
-0.02891124673
-0.0294814758
-0.02852383346
-0.02920978695
-0.02856469258
-0.0288339394
-0.02809531565
-0.06815923527
-0.05827206621
-0.05551898022
-0.0503804573
-0.05016063275
-0.04732118763
-0.04817115245
-0.04655383529
-0.0475954479
-0.04651298724
-0.0469094596
-0.04570353267
-0.09394427207
-0.08030363391
-0.07648729701
-0.06938222032
-0.06904189785
-0.06510118212
-0.06622395922
-0.0639692745
-0.06535373537
-0.06384658357
-0.06435690125
-0.06272672282
-0.1186380387
-0.1013915901
-0.09654896174
-0.08755446532
-0.08709183953
-0.08209312853
-0.0834703146
-0.08060546712
-0.08231585643
-0.08040513994
-0.08103705631
-0.07898359415
-0.1417641869
-0.12114891
-0.1153495287
-0.104589331
-0.1040140066
-0.09802627497
-0.09964232313
-0.09620564969
-0.0982174995
-0.09592584859
-0.09665373939
-0.09421619687
-0.1631666368
-0.1394268963
-0.1327373403
-0.1203383593
-0.119654891
-0.1127486533
-0.1145822197
-0.1106157999
-0.1129058991
-0.1102656866
-0.1110915753
-0.1082972815
-0.1824756556
-0.1559197956
-0.1484278192
-0.1345524111
-0.1337703708
-0.1260376537
-0.1280661318
-0.1236258642
-0.1261684063
-0.1232218401
-0.1241468059
-0.1210387742
-0.1995130127
-0.1704705808
-0.162269535
-0.147087845
-0.1462178118
-0.137751632
-0.1399507786
-0.1350872009
-0.1378477096
-0.1346248959
-0.1356216941
-0.1322396389
-0.2140362221
-0.1828711741
-0.1740625028
-0.1577674755
-0.156818444
-0.1477286665
-0.1500680352
-0.1448467542
-0.1477899341
-0.1443353694
-0.1453994368
-0.1417738762
-0.2258555779
-0.1929657549
-0.1836647308
-0.1664606548
-0.1654480691
-0.1558451879
-0.1582998863
-0.1527797606
-0.1558715819
-0.1522204244
-0.1533348038
-0.1495230479
-0.2348622851
-0.2006499922
-0.1909672488
-0.1730689554
-0.1720017817
-0.1620088858
-0.1645427297
-0.1587966582
-0.1619918021
-0.1581902613
-0.1593349634
-0.1553646143
-0.2408743274
-0.2057844726
-0.1958500463
-0.1774853415
-0.1763819575
-0.1661212283
-0.1687085633
-0.1628013378
-0.1660655648
-0.1621550798
-0.1633175603
-0.1592550654
-0.2439088284
-0.2083637242
-0.198293417
-0.1796890689
-0.178559624
-0.1681627137
-0.1707663277
-0.1647785675
-0.168067088
-0.1641012474
-0.1652707111
-0.1611453529
)
;

boundaryField
{
    out
    {
        type            implicitExtrapolation;
    }
    in
    {
        type            implicitExtrapolation;
    }
    frontAndBack
    {
        type            empty;
    }
}


// ************************************************************************* //
