/*--------------------------------*- C++ -*----------------------------------*\
| =========                 |                                                 |
| \\      /  F ield         | foam-extend: Open Source CFD                    |
|  \\    /   O peration     | Version:  3.0                                   |
|   \\  /    A nd           | Web:         http://www.extend-project.de       |
|    \\/     M anipulation  |                                                 |
\*---------------------------------------------------------------------------*/
FoamFile
{
    version     2.0;
    format      ascii;
    class       volVectorField;
    location    "1";
    object      s;
}
// * * * * * * * * * * * * * * * * * * * * * * * * * * * * * * * * * * * * * //

dimensions      [0 0 0 0 0 0 0];

internalField   nonuniform List<vector> 
400
(
(-0.00128761 -0.000423784 3.77383e-318)
(-0.00149656 0.000144924 6.72393e-318)
(-0.00187612 0.000597512 7.53884e-318)
(-0.00245184 0.000904893 7.21167e-318)
(-0.00313499 0.000924318 6.31374e-318)
(-0.00383333 0.00077241 5.29996e-318)
(-0.00446118 0.00048335 4.1758e-318)
(-0.00496476 0.000122705 3.25274e-318)
(-0.00530853 -0.000283716 2.35734e-318)
(-0.00547237 -0.000711509 1.70965e-318)
(-0.00544469 -0.00114956 1.08065e-318)
(-0.00522086 -0.00158752 6.67305e-319)
(-0.00479928 -0.00201434 2.35694e-319)
(-0.0041903 -0.0024095 -1.22084e-320)
(-0.00340917 -0.00274796 -3.0346e-319)
(-0.00250225 -0.00297716 -4.32362e-319)
(-0.00151493 -0.00304943 -6.13793e-319)
(-0.00056778 -0.00285474 -6.68189e-319)
(0.000299564 -0.00232176 -6.04474e-319)
(0.000816422 -0.0011207 -4.83423e-319)
(-0.00183744 -0.00017177 3.55978e-318)
(-0.00255526 0.000566512 7.69411e-318)
(-0.00350762 0.00126133 9.55628e-318)
(-0.0043891 0.00175334 1.00757e-317)
(-0.00533583 0.00190303 9.51723e-318)
(-0.00623657 0.00177837 8.53894e-318)
(-0.00704224 0.00143091 7.1744e-318)
(-0.0076858 0.000932971 5.88565e-318)
(-0.00812211 0.000334323 4.52743e-318)
(-0.00831984 -0.000321376 3.42243e-318)
(-0.00825949 -0.0010048 2.32519e-318)
(-0.00793641 -0.00168434 1.49561e-318)
(-0.00735511 -0.00233038 6.55773e-319)
(-0.00653981 -0.00289752 5.20696e-320)
(-0.00552623 -0.00333341 -5.95473e-319)
(-0.004385 -0.00356153 -1.03347e-318)
(-0.00317501 -0.00350593 -1.52435e-318)
(-0.00203285 -0.00306381 -1.76758e-318)
(-0.000874968 -0.00219864 -1.84286e-318)
(4.09322e-05 -0.000813236 -1.2602e-318)
(-0.00183563 0.000833841 3.37946e-318)
(-0.00268788 0.0024823 7.51456e-318)
(-0.00388115 0.0036541 9.55202e-318)
(-0.00491547 0.00432681 1.02127e-317)
(-0.00596476 0.00444858 9.86882e-318)
(-0.00689427 0.00413262 9.0283e-318)
(-0.00769171 0.00347063 7.80101e-318)
(-0.00830614 0.00257017 6.53353e-318)
(-0.0087136 0.00150931 5.17841e-318)
(-0.00889516 0.000354896 3.96511e-318)
(-0.00883792 -0.000844984 2.75847e-318)
(-0.00853865 -0.00203999 1.72835e-318)
(-0.00799624 -0.00317901 7.04938e-319)
(-0.0072255 -0.00418711 -1.5816e-319)
(-0.00624389 -0.00497458 -1.02868e-318)
(-0.0051071 -0.00541343 -1.73199e-318)
(-0.00383805 -0.00538004 -2.37797e-318)
(-0.00258222 -0.0047098 -2.70341e-318)
(-0.00118651 -0.00336911 -2.5564e-318)
(-6.05263e-05 -0.00125517 -1.42545e-318)
(-0.00179885 0.0016519 2.36373e-318)
(-0.00259204 0.00424088 5.7637e-318)
(-0.00381628 0.00583226 7.79019e-318)
(-0.00480235 0.0066093 8.71867e-318)
(-0.00577246 0.00662621 8.75902e-318)
(-0.00656796 0.0060845 8.22694e-318)
(-0.00721903 0.00512184 7.30434e-318)
(-0.00769587 0.0038789 6.20492e-318)
(-0.00800277 0.00245017 5.00605e-318)
(-0.00813815 0.000913755 3.82488e-318)
(-0.00809902 -0.000678064 2.66234e-318)
(-0.00788315 -0.00226861 1.58233e-318)
(-0.00747995 -0.00380034 5.55725e-319)
(-0.00688752 -0.00518216 -3.61587e-319)
(-0.00609318 -0.00630178 -1.18646e-318)
(-0.00512721 -0.00698986 -1.83297e-318)
(-0.00396029 -0.0070778 -2.26971e-318)
(-0.00274833 -0.00632105 -2.33816e-318)
(-0.00126099 -0.0046404 -1.94475e-318)
(-9.26933e-05 -0.00181061 -8.97757e-319)
(-0.0017131 0.00274033 2.4671e-318)
(-0.00232755 0.00651256 5.59927e-318)
(-0.00349669 0.00857607 7.33792e-318)
(-0.00432977 0.00941506 8.05142e-318)
(-0.00512682 0.00923122 8.04353e-318)
(-0.00569762 0.00835993 7.5459e-318)
(-0.0061248 0.00700254 6.71998e-318)
(-0.0064019 0.00534286 5.71683e-318)
(-0.00656646 0.00349072 4.61094e-318)
(-0.00663738 0.00152887 3.48572e-318)
(-0.00662309 -0.000494512 2.35999e-318)
(-0.00652184 -0.00252806 1.27765e-318)
(-0.0063101 -0.00451666 2.34153e-319)
(-0.00596423 -0.00636205 -7.33643e-319)
(-0.00543208 -0.00793142 -1.61999e-318)
(-0.00471502 -0.00900612 -2.36179e-318)
(-0.00371705 -0.00935178 -2.89717e-318)
(-0.00262562 -0.00858934 -3.08955e-318)
(-0.0011135 -0.00652965 -2.70082e-318)
(-4.98648e-05 -0.00269273 -1.38886e-318)
(-0.00163284 0.00391333 1.88092e-318)
(-0.00200299 0.00893707 4.53785e-318)
(-0.00301616 0.0114208 6.17654e-318)
(-0.00355363 0.0122342 6.97512e-318)
(-0.0040375 0.0117589 7.09597e-318)
(-0.0042491 0.0104969 6.73499e-318)
(-0.00434162 0.00871825 6.04191e-318)
(-0.00433227 0.00664986 5.14702e-318)
(-0.00429649 0.00440898 4.13511e-318)
(-0.00427268 0.00207283 3.07489e-318)
(-0.00428201 -0.000325782 2.00244e-318)
(-0.00432292 -0.00275402 9.51946e-319)
(-0.00435888 -0.00517165 -5.7109e-320)
(-0.00434468 -0.00748673 -9.89984e-319)
(-0.00418316 -0.00955568 -1.81006e-318)
(-0.00384621 -0.0111125 -2.44657e-318)
(-0.00314879 -0.0118467 -2.81367e-318)
(-0.00231391 -0.0111977 -2.77407e-318)
(-0.000866749 -0.00880551 -2.20856e-318)
(1.38122e-05 -0.00379192 -9.71644e-319)
(-0.00160024 0.00522316 2.08207e-318)
(-0.00162476 0.011489 4.64166e-318)
(-0.00237079 0.0142771 6.05181e-318)
(-0.00244025 0.0149431 6.62707e-318)
(-0.00245416 0.0140848 6.63234e-318)
(-0.00216059 0.0123859 6.22686e-318)
(-0.00180307 0.0101817 5.54354e-318)
(-0.00141891 0.00773462 4.68259e-318)
(-0.00112296 0.00515949 3.71526e-318)
(-0.000970335 0.00251759 2.6966e-318)
(-0.000995082 -0.000183447 1.66094e-318)
(-0.00119654 -0.00294031 6.36628e-319)
(-0.00152759 -0.00573911 -3.55411e-319)
(-0.00192563 -0.00850736 -1.28513e-318)
(-0.00224776 -0.0111035 -2.11769e-318)
(-0.00244149 -0.0132225 -2.79575e-318)
(-0.00220796 -0.014476 -3.23374e-318)
(-0.00181745 -0.014088 -3.31454e-318)
(-0.000549446 -0.0114612 -2.80323e-318)
(1.79631e-05 -0.00515521 -1.40043e-318)
(-0.00160271 0.00659486 1.71793e-318)
(-0.00117224 0.0139658 4.03084e-318)
(-0.00149616 0.0168749 5.40778e-318)
(-0.000904196 0.0172546 6.04185e-318)
(-0.000279457 0.0159471 6.09598e-318)
(0.000663495 0.013809 5.73888e-318)
(0.00157852 0.0112269 5.09955e-318)
(0.00241635 0.00848188 4.28033e-318)
(0.0030251 0.00567517 3.3543e-318)
(0.00333872 0.00284177 2.37386e-318)
(0.00331122 -4.23379e-05 1.3746e-318)
(0.00294135 -0.00301207 3.8509e-319)
(0.00228228 -0.00608803 -5.70112e-319)
(0.00140586 -0.00923153 -1.45808e-318)
(0.000495624 -0.0123181 -2.23478e-318)
(-0.000382381 -0.0150256 -2.83155e-318)
(-0.000797535 -0.0168995 -3.15523e-318)
(-0.00107323 -0.0169457 -3.06973e-318)
(-0.000146185 -0.0142714 -2.43877e-318)
(-2.26493e-05 -0.00671458 -1.09076e-318)
(-0.00167158 0.00798431 1.90514e-318)
(-0.000591578 0.0161661 4.2017e-318)
(-0.000313714 0.0189754 5.43105e-318)
(0.00114106 0.0189346 5.89846e-318)
(0.0025519 0.0171545 5.85416e-318)
(0.00425441 0.0146194 5.44397e-318)
(0.00579842 0.0117484 4.78883e-318)
(0.00713727 0.00881889 3.97577e-318)
(0.00809029 0.00590839 3.06962e-318)
(0.00858867 0.00301879 2.11646e-318)
(0.00857694 9.09888e-05 1.14736e-318)
(0.00805092 -0.00295111 1.88204e-319)
(0.00706325 -0.00616779 -7.38193e-319)
(0.00568378 -0.0095647 -1.60352e-318)
(0.00412325 -0.013049 -2.36965e-318)
(0.00244249 -0.0163128 -2.98157e-318)
(0.00120619 -0.0188532 -3.35345e-318)
(1.46818e-05 -0.0195077 -3.37468e-318)
(0.000393481 -0.0170225 -2.82066e-318)
(-0.000181044 -0.00844359 -1.39881e-318)
(-0.00171718 0.00926081 1.66749e-318)
(0.000200036 0.017819 3.83707e-318)
(0.00128067 0.020328 5.07167e-318)
(0.00374362 0.0197841 5.58772e-318)
(0.00603564 0.0175792 5.56228e-318)
(0.00854473 0.0147441 5.16472e-318)
(0.0107374 0.0117144 4.52002e-318)
(0.0125824 0.00873839 3.72249e-318)
(0.0138832 0.00586573 2.83816e-318)
(0.0145763 0.00306213 1.91241e-318)
(0.0146006 0.000236168 9.76254e-319)
(0.0139486 -0.00272754 5.37049e-320)
(0.0126655 -0.00592712 -8.32436e-319)
(0.0108093 -0.00941889 -1.65283e-318)
(0.00859752 -0.0131492 -2.36669e-318)
(0.00606953 -0.0168621 -2.91295e-318)
(0.00389527 -0.0200232 -3.2036e-318)
(0.00159468 -0.0214081 -3.111e-318)
(0.00117891 -0.0193445 -2.48994e-318)
(-0.000342932 -0.0101857 -1.14348e-318)
(-0.00168457 0.0102479 1.81819e-318)
(0.00128013 0.0186402 4.00023e-318)
(0.00333664 0.0207428 5.13421e-318)
(0.00687447 0.0196902 5.52408e-318)
(0.010065 0.0171827 5.42073e-318)
(0.0133484 0.0141844 4.97573e-318)
(0.0161462 0.0111457 4.31282e-318)
(0.0184521 0.00826359 3.51682e-318)
(0.0200709 0.00556235 2.64885e-318)
(0.0209515 0.00297339 1.75011e-318)
(0.0210324 0.000379582 8.48311e-319)
(0.0203034 -0.00236664 -3.51182e-320)
(0.0187961 -0.00539444 -8.79916e-319)
(0.0165491 -0.00881101 -1.66089e-318)
(0.0137604 -0.0125997 -2.34339e-318)
(0.0104376 -0.0165937 -2.87759e-318)
(0.00729509 -0.0202248 -3.18756e-318)
(0.00377676 -0.0223701 -3.17861e-318)
(0.00232339 -0.0208534 -2.64707e-318)
(-0.000463876 -0.0117287 -1.32216e-318)
(-0.00136218 0.0107337 1.66254e-318)
(0.00267096 0.0184469 3.77898e-318)
(0.00583783 0.0201482 4.92009e-318)
(0.01037 0.0186703 5.33423e-318)
(0.0143931 0.0160364 5.22545e-318)
(0.018336 0.0130334 4.77356e-318)
(0.0216407 0.0101367 4.10989e-318)
(0.0243193 0.00747557 3.32463e-318)
(0.026198 0.00505717 2.4798e-318)
(0.0272418 0.00278402 1.61343e-318)
(0.0273951 0.000523282 7.52195e-319)
(0.0266464 -0.00189433 -8.48014e-320)
(0.0250091 -0.00461781 -8.78661e-319)
(0.0225018 -0.00779899 -1.60503e-318)
(0.0192737 -0.0114476 -2.22835e-318)
(0.0153119 -0.0155137 -2.69656e-318)
(0.0112728 -0.0193784 -2.93522e-318)
(0.00661218 -0.0221976 -2.83726e-318)
(0.00390252 -0.0212211 -2.27339e-318)
(-0.000233859 -0.0127829 -1.06921e-318)
(-0.000736053 0.0104115 1.78268e-318)
(0.00425838 0.0170936 3.91249e-318)
(0.00857028 0.0185483 4.95958e-318)
(0.0139204 0.0168109 5.2571e-318)
(0.0186443 0.0142556 5.07531e-318)
(0.0230744 0.0114061 4.58234e-318)
(0.0267443 0.00878447 3.90697e-318)
(0.0296724 0.00644559 3.13266e-318)
(0.0317276 0.0043899 2.31502e-318)
(0.0328933 0.0024991 1.48835e-318)
(0.0331267 0.00063582 6.74686e-319)
(0.0324175 -0.0013788 -1.09436e-319)
(0.0307588 -0.00370036 -8.47723e-319)
(0.0281518 -0.00651424 -1.51844e-318)
(0.0246685 -0.0098405 -2.0905e-318)
(0.0202988 -0.0137582 -2.52001e-318)
(0.0155186 -0.0175658 -2.74349e-318)
(0.00992276 -0.0208485 -2.69031e-318)
(0.00582464 -0.0202026 -2.20298e-318)
(0.000366077 -0.0129442 -1.09721e-318)
(0.000321622 0.00938102 1.69398e-318)
(0.00581942 0.014913 3.76943e-318)
(0.0112486 0.016224 4.78174e-318)
(0.0171124 0.0143974 5.05716e-318)
(0.0223555 0.0120803 4.84378e-318)
(0.0270534 0.00951365 4.33708e-318)
(0.0309176 0.0072636 3.66637e-318)
(0.0339485 0.0053133 2.9164e-318)
(0.0360793 0.00366276 2.13773e-318)
(0.0373112 0.00218228 1.36155e-318)
(0.037621 0.000740138 6.0524e-319)
(0.0370016 -0.000839511 -1.17123e-319)
(0.0354267 -0.00270641 -7.91607e-319)
(0.0328869 -0.00506387 -1.39682e-318)
(0.0293535 -0.00793018 -1.90149e-318)
(0.0248592 -0.0115049 -2.26033e-318)
(0.0195621 -0.0149992 -2.40952e-318)
(0.0134268 -0.0184963 -2.27001e-318)
(0.00788379 -0.0180071 -1.75326e-318)
(0.00163501 -0.0122184 -7.91557e-319)
(0.00136699 0.00740161 1.80693e-318)
(0.00696909 0.0119842 3.83877e-318)
(0.013355 0.0132879 4.71183e-318)
(0.0194621 0.0115823 4.85147e-318)
(0.0250199 0.00963645 4.56605e-318)
(0.0297588 0.00746279 4.03406e-318)
(0.0336276 0.00564884 3.37496e-318)
(0.0366011 0.00412219 2.66148e-318)
(0.0386936 0.00288578 1.93588e-318)
(0.0399236 0.00180954 1.2229e-318)
(0.0402939 0.000776567 5.35409e-319)
(0.0398007 -0.000374194 -1.16012e-319)
(0.0384044 -0.00177576 -7.19864e-319)
(0.0360868 -0.00363021 -1.25726e-318)
(0.0327106 -0.00594749 -1.69906e-318)
(0.0283717 -0.00901055 -2.00611e-318)
(0.0228109 -0.0119708 -2.12031e-318)
(0.0165193 -0.0153409 -1.99107e-318)
(0.00962435 -0.0147359 -1.51915e-318)
(0.00301936 -0.0102305 -6.70862e-319)
(0.00237084 0.00547516 1.78411e-318)
(0.00744734 0.0091801 3.6665e-318)
(0.0145495 0.0102919 4.41366e-318)
(0.0205377 0.00878845 4.47911e-318)
(0.026134 0.00724446 4.15561e-318)
(0.0306474 0.00552221 3.62862e-318)
(0.0343043 0.00416413 3.00664e-318)
(0.037049 0.00306008 2.35193e-318)
(0.0389814 0.00221372 1.69833e-318)
(0.0401336 0.00150435 1.06461e-318)
(0.0405363 0.000837279 4.59407e-319)
(0.040187 7.47717e-05 -1.09717e-319)
(0.0390438 -0.000890558 -6.33931e-319)
(0.0370805 -0.00224276 -1.09695e-318)
(0.0340668 -0.00398323 -1.46984e-318)
(0.0301707 -0.00643562 -1.7124e-318)
(0.0246786 -0.00877238 -1.76692e-318)
(0.0187551 -0.0118189 -1.57038e-318)
(0.0107677 -0.0112282 -1.07438e-318)
(0.00480446 -0.0080653 -3.38959e-319)
(0.00256725 0.00312858 1.83933e-318)
(0.00707426 0.0062869 3.50341e-318)
(0.0144599 0.00713977 4.03918e-318)
(0.020082 0.0060207 3.96804e-318)
(0.0253983 0.00491694 3.60859e-318)
(0.0294245 0.00369861 3.10584e-318)
(0.032642 0.00278902 2.54662e-318)
(0.0349892 0.00207943 1.97585e-318)
(0.0366403 0.00157252 1.41687e-318)
(0.0376355 0.00116897 8.81497e-319)
(0.0380339 0.00080042 3.74734e-319)
(0.0378257 0.000359562 -9.94258e-320)
(0.0369864 -0.000231941 -5.34648e-319)
(0.0354692 -0.00111981 -9.18068e-319)
(0.0329995 -0.00230518 -1.22466e-318)
(0.0297684 -0.00407042 -1.42025e-318)
(0.0246872 -0.00572866 -1.45319e-318)
(0.0194413 -0.0080846 -1.28137e-318)
(0.0108671 -0.00741244 -8.44729e-319)
(0.00561486 -0.00480229 -1.99178e-319)
(0.00197851 0.00196727 1.8122e-318)
(0.00567445 0.00421401 3.07681e-318)
(0.0126981 0.00456897 3.38677e-318)
(0.0174875 0.0037752 3.23583e-318)
(0.0220426 0.0030661 2.88565e-318)
(0.0252618 0.00232115 2.44856e-318)
(0.0277957 0.00180729 1.98657e-318)
(0.0295908 0.00142592 1.52866e-318)
(0.0308521 0.00118511 1.08831e-318)
(0.0316229 0.0010068 6.71826e-319)
(0.031971 0.000856454 2.80274e-319)
(0.0318859 0.000651902 -8.50485e-320)
(0.0313611 0.000354206 -4.19768e-319)
(0.0303464 -0.000148627 -7.14612e-319)
(0.0285708 -0.000843008 -9.50325e-319)
(0.0262379 -0.00196093 -1.09566e-318)
(0.0220508 -0.00300207 -1.1043e-318)
(0.0180698 -0.00472181 -9.258e-319)
(0.00978399 -0.00432943 -5.32084e-319)
(0.00658104 -0.00308568 9.29337e-321)
(0.0014676 0.00103123 1.31496e-318)
(0.00404874 0.00222413 2.17104e-318)
(0.00967328 0.00219299 2.32694e-318)
(0.0131281 0.00188383 2.17003e-318)
(0.0163789 0.00156149 1.90915e-318)
(0.0184944 0.00125587 1.60364e-318)
(0.0201181 0.0010557 1.29161e-318)
(0.0212222 0.000921185 9.88067e-319)
(0.0220039 0.000857817 6.99636e-319)
(0.022476 0.000822966 4.28968e-319)
(0.0227344 0.0008025 1.75354e-319)
(0.0227184 0.000749116 -6.11456e-320)
(0.0225035 0.000644868 -2.78228e-319)
(0.021957 0.000434155 -4.7084e-319)
(0.0209812 0.000115956 -6.26604e-319)
(0.0195845 -0.000394905 -7.26267e-319)
(0.0167653 -0.000908334 -7.40012e-319)
(0.0141028 -0.00165328 -6.42498e-319)
(0.00754488 -0.00145734 -4.04319e-319)
(0.00524603 0.000116212 -2.83643e-320)
(-0.00106833 0.000621931 1.28525e-318)
(0.00154437 0.00157565 1.3919e-318)
(0.00472442 0.00119782 1.25133e-318)
(0.00628423 0.00105449 1.05542e-318)
(0.00768433 0.000958808 8.72288e-319)
(0.00841984 0.00089018 7.02295e-319)
(0.00897766 0.000874685 5.49006e-319)
(0.00933731 0.000856386 4.10583e-319)
(0.00958312 0.000872704 2.85199e-319)
(0.00976554 0.00087932 1.70868e-319)
(0.00986026 0.000905958 6.54933e-320)
(0.00993687 0.000904368 -3.31864e-320)
(0.00991022 0.000913377 -1.25023e-319)
(0.00989822 0.000863183 -2.08921e-319)
(0.00961945 0.000828456 -2.80451e-319)
(0.00942875 0.000673572 -3.30569e-319)
(0.00820606 0.000597825 -3.42733e-319)
(0.00767248 0.000158742 -2.93638e-319)
(0.00350487 0.000285663 -1.65468e-319)
(0.00425167 -0.000189687 4.98018e-320)
)
;

boundaryField
{
    cavity
    {
        type            myHeatFlux;
        ThetaWall       uniform 0;
        value           nonuniform List<vector> 
60
(
(0.001 0 0)
(0.001 0 0)
(0.001 0 0)
(0.001 0 0)
(0.001 0 0)
(0.001 0 0)
(0.001 0 0)
(0.001 0 0)
(0.001 0 0)
(0.001 0 0)
(0.001 0 0)
(0.001 0 0)
(0.001 0 0)
(0.001 0 0)
(0.001 0 0)
(0.001 0 0)
(0.001 0 0)
(0.001 0 0)
(0.001 0 0)
(0.001 0 0)
(0 -0.001 0)
(0 -0.001 0)
(0 -0.001 0)
(0 -0.001 0)
(0 -0.001 0)
(0 -0.001 0)
(0 -0.001 0)
(0 -0.001 0)
(0 -0.001 0)
(0 -0.001 0)
(0 -0.001 0)
(0 -0.001 0)
(0 -0.001 0)
(0 -0.001 0)
(0 -0.001 0)
(0 -0.001 0)
(0 -0.001 0)
(0 -0.001 0)
(0 -0.001 0)
(0 -0.001 0)
(-0.001 0 0)
(-0.001 0 0)
(-0.001 0 0)
(-0.001 0 0)
(-0.001 0 0)
(-0.001 0 0)
(-0.001 0 0)
(-0.001 0 0)
(-0.001 0 0)
(-0.001 0 0)
(-0.001 0 0)
(-0.001 0 0)
(-0.001 0 0)
(-0.001 0 0)
(-0.001 0 0)
(-0.001 0 0)
(-0.001 0 0)
(-0.001 0 0)
(-0.001 0 0)
(-0.001 0 0)
)
;
    }
    lid
    {
        type            myHeatFlux;
        ThetaWall       uniform 0;
        value           nonuniform List<vector> 
20
(
(0.000135815 0.0009 0)
(0.000135815 0.0009 0)
(0.000135815 0.0009 0)
(0.000135815 0.0009 0)
(0.000135815 0.0009 0)
(0.000135815 0.0009 0)
(0.000135815 0.0009 0)
(0.000135815 0.0009 0)
(0.000135815 0.0009 0)
(0.000135815 0.0009 0)
(0.000135815 0.0009 0)
(0.000135815 0.0009 0)
(0.000135815 0.0009 0)
(0.000135815 0.0009 0)
(0.000135815 0.0009 0)
(0.000135815 0.0009 0)
(0.000135815 0.0009 0)
(0.000135815 0.0009 0)
(0.000135815 0.0009 0)
(0.000135815 0.0009 0)
)
;
    }
    frontAndBack
    {
        type            empty;
    }
}


// ************************************************************************* //
