/*--------------------------------*- C++ -*----------------------------------*\
| =========                 |                                                 |
| \\      /  F ield         | foam-extend: Open Source CFD                    |
|  \\    /   O peration     | Version:  3.0                                   |
|   \\  /    A nd           | Web:         http://www.extend-project.de       |
|    \\/     M anipulation  |                                                 |
\*---------------------------------------------------------------------------*/
FoamFile
{
    version     2.0;
    format      ascii;
    class       volScalarField;
    location    "1";
    object      Theta;
}
// * * * * * * * * * * * * * * * * * * * * * * * * * * * * * * * * * * * * * //

dimensions      [0 0 0 0 0 0 0];

internalField   nonuniform List<scalar> 
400
(
0.085212
0.0829197
0.0815549
0.0810957
0.0814911
0.0826362
0.0843825
0.0865834
0.0891025
0.0918014
0.094556
0.0972306
0.0996953
0.101783
0.103353
0.10415
0.104084
0.102654
0.100173
0.0952391
0.0938219
0.0900542
0.089282
0.0888539
0.0890685
0.0895517
0.0902881
0.0912047
0.0922534
0.0933718
0.0945045
0.0955749
0.0965266
0.0972753
0.097775
0.0979108
0.0976895
0.0967234
0.0953434
0.0912957
0.0933076
0.0880165
0.0867894
0.0861461
0.0865807
0.0873865
0.088549
0.0898943
0.0913733
0.0929118
0.0944679
0.095979
0.0973996
0.0986414
0.0996477
0.10022
0.100344
0.099316
0.0976353
0.0920857
0.0919893
0.0854363
0.0840292
0.0833415
0.0840993
0.0852784
0.0868805
0.0886512
0.0905462
0.0924872
0.0944497
0.0963857
0.0982666
0.100002
0.101538
0.102595
0.103167
0.102215
0.100464
0.0935914
0.0881319
0.0799877
0.0785364
0.077952
0.0793176
0.0811822
0.083583
0.0861546
0.0888572
0.0916005
0.0943757
0.0971469
0.0999001
0.102532
0.104989
0.106863
0.108179
0.10739
0.105622
0.0968731
0.08262
0.0729827
0.0718183
0.0716094
0.0738772
0.0766406
0.0800123
0.0835052
0.0871059
0.0907221
0.0943767
0.0980584
0.101785
0.105452
0.10903
0.111965
0.114361
0.114005
0.112542
0.101847
0.0752646
0.0639404
0.063557
0.0640474
0.0675978
0.0715181
0.0760706
0.0806295
0.0852373
0.089812
0.0944243
0.0991039
0.103919
0.108778
0.113712
0.118003
0.121917
0.122343
0.121723
0.108656
0.0659804
0.0532967
0.0542793
0.0558937
0.0610913
0.0663781
0.0722364
0.0779045
0.083517
0.0890171
0.0945444
0.100185
0.106081
0.112176
0.118607
0.124497
0.130372
0.13206
0.132974
0.11766
0.0549731
0.0411517
0.0443516
0.0475498
0.0547535
0.061558
0.0687726
0.0755171
0.0820561
0.0883758
0.0946987
0.101182
0.108058
0.115333
0.123297
0.130954
0.139217
0.142725
0.146233
0.12867
0.0422245
0.0284468
0.034593
0.0398553
0.0492425
0.0575923
0.0660786
0.0737606
0.0810528
0.0880002
0.0949132
0.102025
0.109666
0.117928
0.127281
0.136707
0.147551
0.153462
0.160515
0.141922
0.0281664
0.0158323
0.0257695
0.0335071
0.0451049
0.0549015
0.0644529
0.0728434
0.0806402
0.0879607
0.095195
0.102652
0.110744
0.119682
0.130098
0.141115
0.154486
0.163332
0.175023
0.157039
0.0131724
0.00526382
0.0190458
0.0295458
0.0429985
0.0539825
0.0642453
0.0730375
0.0810348
0.0884383
0.0956926
0.10317
0.111334
0.120536
0.131492
0.143698
0.159017
0.171154
0.187574
0.174069
-0.00248557
-0.00299964
0.0148121
0.0282866
0.0431506
0.0549953
0.0655559
0.0744086
0.0822816
0.0894685
0.0964355
0.103601
0.111433
0.120442
0.131315
0.144197
0.160655
0.176354
0.197619
0.192878
-0.0173884
-0.00620152
0.0142885
0.0306993
0.0461341
0.0583962
0.0687648
0.0773222
0.0847536
0.0914485
0.0978528
0.104406
0.111529
0.119892
0.129998
0.142906
0.159195
0.178362
0.202536
0.213016
-0.0325111
-0.00685316
0.0164883
0.0359791
0.0514919
0.0637971
0.0735475
0.0814791
0.0881834
0.094142
0.0997468
0.105428
0.111515
0.118827
0.127567
0.139936
0.155052
0.177831
0.204542
0.235558
-0.0426713
-0.000191226
0.0237702
0.0456637
0.0603193
0.0721008
0.080781
0.087773
0.0935178
0.0985577
0.103202
0.107834
0.112664
0.1186
0.125481
0.136605
0.149236
0.17462
0.200177
0.2567
-0.051794
0.0070761
0.033221
0.0574983
0.071099
0.0819626
0.089242
0.0950267
0.0996207
0.103592
0.10715
0.110595
0.114002
0.118302
0.122986
0.132405
0.142077
0.170123
0.195542
0.280942
-0.0441864
0.0256451
0.0511473
0.0751764
0.0866387
0.0956868
0.101197
0.105513
0.108848
0.111673
0.114126
0.116342
0.118333
0.120832
0.123216
0.130005
0.135899
0.162847
0.182661
0.290484
-0.0307509
0.0450045
0.0708298
0.0940929
0.103164
0.110012
0.113536
0.116229
0.118223
0.119855
0.121173
0.122144
0.122688
0.123305
0.123282
0.127156
0.129207
0.154977
0.170669
0.302883
0.0276544
0.0830159
0.104931
0.121375
0.126501
0.129763
0.131097
0.1319
0.132603
0.132959
0.133277
0.132972
0.132381
0.130991
0.12907
0.128542
0.126948
0.142579
0.149134
0.260077
)
;

boundaryField
{
    cavity
    {
        type            implicitExtrapolation;
    }
    lid
    {
        type            implicitExtrapolation;
    }
    frontAndBack
    {
        type            empty;
    }
}


// ************************************************************************* //
