/*--------------------------------*- C++ -*----------------------------------*\
| =========                 |                                                 |
| \\      /  F ield         | foam-extend: Open Source CFD                    |
|  \\    /   O peration     | Version:  3.0                                   |
|   \\  /    A nd           | Web:         http://www.extend-project.de       |
|    \\/     M anipulation  |                                                 |
\*---------------------------------------------------------------------------*/
FoamFile
{
    version     2.0;
    format      ascii;
    class       volSymmTensorField;
    location    "25";
    object      sigma;
}
// * * * * * * * * * * * * * * * * * * * * * * * * * * * * * * * * * * * * * //

dimensions      [0 0 0 0 0 0 0];

internalField   nonuniform List<symmTensor> 
224
(
(-0.150166 -0.0181357 -9.53877e-20 0.150167 6.82377e-20 -9.41623e-07)
(-0.123437 -0.0192542 -1.55576e-19 0.123439 1.83111e-19 -2.12814e-06)
(-0.0933106 -0.0169127 -1.18986e-21 0.0933136 1.49117e-19 -3.02281e-06)
(-0.0661867 -0.0139896 1.57297e-19 0.0661904 -6.14993e-19 -3.63939e-06)
(-0.0432117 -0.0112288 2.04093e-19 0.0432155 -2.39616e-19 -3.87611e-06)
(-0.0257474 -0.00923898 1.09915e-20 0.0257509 -5.42374e-19 -3.44722e-06)
(-0.0137593 -0.00791114 -8.00157e-20 0.0137611 8.73603e-22 -1.76899e-06)
(-0.139519 -0.0522299 -4.89469e-20 0.13952 1.47912e-19 -9.32644e-07)
(-0.108348 -0.0538838 -2.34411e-20 0.10835 2.63389e-19 -2.10854e-06)
(-0.0784681 -0.0466724 -3.19637e-19 0.0784711 -1.78521e-20 -2.99363e-06)
(-0.0527537 -0.0381263 -1.27804e-18 0.0527573 -1.74082e-19 -3.60029e-06)
(-0.0313878 -0.0301696 3.54788e-19 0.0313917 -3.17109e-19 -3.82751e-06)
(-0.0149885 -0.0243951 5.80192e-19 0.0149919 -1.62961e-18 -3.39539e-06)
(-0.00367609 -0.0205267 -5.4534e-20 0.00367783 -6.934e-19 -1.73627e-06)
(-0.120277 -0.0803779 1.46342e-20 0.120278 3.02559e-20 -8.87323e-07)
(-0.0822382 -0.0780863 1.01193e-19 0.0822402 1.03947e-19 -2.00688e-06)
(-0.0531479 -0.0655456 9.21245e-20 0.0531507 -1.68797e-19 -2.84806e-06)
(-0.0300745 -0.0520016 -6.26339e-19 0.030078 1.31139e-19 -3.42116e-06)
(-0.0116206 -0.0397416 -1.08452e-18 0.0116243 -1.06756e-18 -3.62979e-06)
(0.00282242 -0.0307225 -3.40876e-18 -0.00281921 -1.0896e-18 -3.21097e-06)
(0.0128817 -0.0246358 -3.50775e-19 -0.01288 6.20859e-19 -1.63544e-06)
(-0.0959143 -0.100366 5.29912e-20 0.0959151 -3.99868e-20 -8.07944e-07)
(-0.0519083 -0.08853 7.04707e-20 0.0519102 -5.0665e-20 -1.82788e-06)
(-0.0246323 -0.0701937 -7.20901e-20 0.0246349 -2.80004e-19 -2.59258e-06)
(-0.00512436 -0.0525542 -6.59995e-19 0.00512747 -1.4064e-19 -3.10986e-06)
(0.00963396 -0.0372174 -1.22941e-18 -0.00963067 -2.34123e-19 -3.29188e-06)
(0.0215253 -0.0257099 -2.23955e-18 -0.0215224 2.1103e-18 -2.90267e-06)
(0.0299227 -0.0178628 8.45574e-19 -0.0299212 4.67854e-19 -1.47182e-06)
(-0.0702673 -0.112003 5.11076e-20 0.070268 -2.76853e-20 -6.97087e-07)
(-0.0246795 -0.0860379 4.44206e-20 0.0246811 -4.2002e-20 -1.57787e-06)
(-0.000715081 -0.0617704 -1.72933e-19 0.000717318 -9.5297e-20 -2.23638e-06)
(0.0146586 -0.0410516 -6.73201e-19 -0.0146559 1.17027e-19 -2.67772e-06)
(0.025512 -0.023897 -8.38545e-19 -0.0255092 1.00845e-18 -2.82593e-06)
(0.0345886 -0.0107064 1.61754e-18 -0.0345861 1.43087e-18 -2.48132e-06)
(0.0411074 -0.0015987 6.48426e-19 -0.0411062 -9.81681e-19 -1.25066e-06)
(-0.046414 -0.116933 -1.44927e-20 0.0464145 4.75023e-20 -5.59665e-07)
(-0.00603592 -0.0751436 8.53412e-20 0.00603719 2.90995e-21 -1.26751e-06)
(0.0128556 -0.0454283 -8.58688e-20 -0.0128538 1.62125e-20 -1.79464e-06)
(0.0238426 -0.0226073 -8.06836e-20 -0.0238405 6.85987e-20 -2.1432e-06)
(0.0310435 -0.00465211 -8.53692e-19 -0.0310413 1.00702e-18 -2.25213e-06)
(0.0373196 0.00952069 2.41243e-18 -0.0373177 -1.08992e-19 -1.9655e-06)
(0.0419076 0.0194329 -1.74726e-18 -0.0419066 -1.25074e-19 -9.82165e-07)
(-0.0258482 -0.11787 8.79494e-20 0.0258486 8.87339e-21 -4.00522e-07)
(0.00208161 -0.0624211 2.77487e-19 -0.0020807 -8.61821e-20 -9.08235e-07)
(0.0142261 -0.0284934 -4.67704e-19 -0.0142248 -4.6014e-20 -1.28374e-06)
(0.020786 -0.00440972 -1.29516e-18 -0.0207845 2.84806e-19 -1.5262e-06)
(0.0248132 0.0137305 -9.16312e-19 -0.0248116 1.04298e-18 -1.59165e-06)
(0.0284572 0.0283811 1.25946e-18 -0.0284558 3.86791e-19 -1.37398e-06)
(0.0311618 0.0387389 5.50414e-19 -0.0311611 -5.45459e-20 -6.75597e-07)
(-0.00822807 -0.117509 3.51332e-20 0.00822829 5.31472e-21 -2.26396e-07)
(0.00176285 -0.0541577 -1.37332e-19 -0.00176234 -1.52587e-20 -5.1482e-07)
(0.00595699 -0.0179259 -2.37491e-19 -0.00595627 1.07979e-19 -7.24704e-07)
(0.00813447 0.00673842 -4.13263e-19 -0.00813362 3.56743e-19 -8.52189e-07)
(0.00941991 0.0248482 -4.32473e-19 -0.00941904 7.47514e-19 -8.72063e-07)
(0.01061 0.0396746 6.08518e-19 -0.0106093 4.26423e-19 -7.31763e-07)
(0.0115011 0.0502226 3.13634e-19 -0.0115008 -7.98537e-20 -3.44421e-07)
(0.00822901 -0.117509 2.84951e-20 -0.00822897 1.20169e-20 -4.34737e-08)
(-0.00176165 -0.0541577 -1.38397e-19 0.00176176 1.87814e-20 -1.01737e-07)
(-0.00595558 -0.0179259 2.12149e-20 0.00595572 2.73341e-19 -1.3817e-07)
(-0.00813286 0.00673838 -3.17136e-19 0.008133 3.83456e-19 -1.46082e-07)
(-0.00941813 0.0248481 -1.18885e-19 0.00941825 5.03818e-19 -1.19744e-07)
(-0.0106082 0.0396745 -5.35286e-20 0.0106082 2.8943e-19 -6.21208e-08)
(-0.0114995 0.0502224 1.8731e-19 0.0114995 -9.90636e-21 -1.26527e-10)
(0.0258491 -0.11787 4.9388e-20 -0.0258492 1.19581e-20 1.40664e-07)
(-0.00208046 -0.0624211 1.56938e-19 0.00208014 4.45526e-20 3.1436e-07)
(-0.0142247 -0.0284935 4.7229e-19 0.0142242 4.1634e-19 4.52237e-07)
(-0.0207844 -0.00440982 -1.16221e-18 0.0207839 3.64451e-19 5.63674e-07)
(-0.0248114 0.0137304 -1.84716e-19 0.0248107 3.91401e-19 6.34749e-07)
(-0.0284553 0.0283808 -4.19758e-19 0.0284547 9.29951e-20 6.07452e-07)
(-0.0311601 0.0387385 1.99984e-19 0.0311597 -1.67889e-20 3.42648e-07)
(0.0464148 -0.116933 1.19126e-19 -0.0464151 3.1242e-20 3.19535e-07)
(0.00603701 -0.0751435 1.83959e-19 -0.00603773 -1.06665e-20 7.18352e-07)
(-0.0128543 -0.0454283 5.4165e-19 0.0128532 1.40984e-19 1.02505e-06)
(-0.023841 -0.0226075 3.983e-19 0.0238397 3.37143e-19 1.25128e-06)
(-0.0310417 -0.00465236 3.78009e-19 0.0310403 8.48409e-19 1.36425e-06)
(-0.0373176 0.00952028 -2.04675e-18 0.0373163 7.5908e-19 1.25316e-06)
(-0.0419057 0.0194324 -2.56087e-19 0.0419051 -8.30584e-20 6.72222e-07)
(0.070268 -0.112003 3.75478e-21 -0.0702685 -5.7649e-20 4.85788e-07)
(0.0246805 -0.0860378 4.37109e-20 -0.0246816 -6.8487e-20 1.09414e-06)
(0.000716386 -0.0617704 7.86886e-20 -0.000717943 -1.0274e-19 1.55749e-06)
(-0.014657 -0.0410517 1.31304e-19 0.0146551 -7.55926e-20 1.88947e-06)
(-0.0255101 -0.0238973 4.31968e-19 0.0255081 -3.24622e-19 2.03963e-06)
(-0.0345865 -0.0107068 1.75507e-18 0.0345847 8.80116e-19 1.84895e-06)
(-0.0411054 -0.00159928 1.32649e-18 0.0411045 5.79609e-19 9.74797e-07)
(0.095915 -0.100366 -2.17601e-20 -0.0959157 -9.99533e-20 6.33684e-07)
(0.0519093 -0.0885299 -1.056e-20 -0.0519107 -9.51813e-20 1.4283e-06)
(0.0246335 -0.0701938 -5.00901e-20 -0.0246355 -2.35593e-19 2.03059e-06)
(0.00512591 -0.0525543 7.36439e-20 -0.00512836 -3.15152e-19 2.45553e-06)
(-0.00963211 -0.0372177 7.89018e-19 0.00962947 -1.51001e-18 2.63718e-06)
(-0.0215232 -0.0257103 3.90148e-18 0.0215208 1.21408e-19 2.37425e-06)
(-0.0299206 -0.0178634 -1.07004e-18 0.0299194 -4.89153e-19 1.24043e-06)
(0.120278 -0.0803778 -5.07114e-21 -0.120279 -9.13982e-20 7.57094e-07)
(0.0822391 -0.0780863 -5.06612e-20 -0.0822408 -7.75951e-20 1.7075e-06)
(0.053149 -0.0655457 -2.58661e-19 -0.0531514 -4.10021e-19 2.42555e-06)
(0.030076 -0.0520018 -1.14632e-19 -0.0300789 -7.32289e-19 2.92708e-06)
(0.0116224 -0.0397419 4.33868e-19 -0.0116255 -1.29174e-18 3.13306e-06)
(-0.00282036 -0.0307229 1.88969e-18 0.00281755 -8.52915e-19 2.80784e-06)
(-0.0128796 -0.0246365 -1.562e-18 0.0128781 3.09749e-19 1.45788e-06)
(0.13952 -0.0522298 -8.52604e-21 -0.139521 -2.29863e-20 8.51928e-07)
(0.108349 -0.0538838 -1.62945e-19 -0.108351 -7.18082e-20 1.92205e-06)
(0.0784692 -0.0466725 -8.29133e-19 -0.0784719 -1.77622e-20 2.72867e-06)
(0.0527551 -0.0381266 -9.49738e-19 -0.0527583 -3.23464e-19 3.28784e-06)
(0.0313895 -0.03017 6.8647e-19 -0.031393 -5.86494e-19 3.51048e-06)
(0.0149905 -0.0243956 1.59642e-18 -0.0149936 -1.35568e-18 3.13541e-06)
(0.00367821 -0.0205274 8.79756e-19 -0.00367983 9.96501e-19 1.62049e-06)
(0.150167 -0.0181355 -9.35079e-20 -0.150168 -2.36506e-20 9.14063e-07)
(0.123437 -0.0192543 -2.37968e-19 -0.123439 -9.88418e-20 2.06313e-06)
(0.0933117 -0.0169129 -8.75522e-20 -0.0933146 2.70066e-19 2.92758e-06)
(0.0661881 -0.01399 1.85044e-19 -0.0661916 3.32759e-19 3.52312e-06)
(0.0432133 -0.0112293 3.88609e-19 -0.0432171 2.16492e-20 3.75387e-06)
(0.0257494 -0.00923961 5.92379e-19 -0.0257527 -9.18355e-19 3.34315e-06)
(0.0137615 -0.00791197 -3.92745e-20 -0.0137632 -4.4217e-19 1.72089e-06)
(0.150167 0.018135 -9.53899e-20 -0.150168 6.8241e-20 9.41707e-07)
(0.123438 0.0192533 -1.55581e-19 -0.12344 1.83117e-19 2.12619e-06)
(0.0933119 0.0169113 -1.18718e-21 -0.0933149 1.49122e-19 3.01589e-06)
(0.0661885 0.0139876 1.57302e-19 -0.0661921 -6.14972e-19 3.62541e-06)
(0.0432139 0.0112259 2.04097e-19 -0.0432178 -2.39607e-19 3.85576e-06)
(0.0257502 0.00923499 1.10029e-20 -0.0257537 -5.4236e-19 3.42506e-06)
(0.0137626 0.00790578 -7.99799e-20 -0.0137644 8.77954e-22 1.75673e-06)
(0.13952 0.0522293 -4.89499e-20 -0.139521 1.47914e-19 9.33244e-07)
(0.10835 0.053883 -2.34479e-20 -0.108352 2.6339e-19 2.10806e-06)
(0.0784699 0.0466712 -3.19627e-19 -0.0784729 -1.78465e-20 2.98913e-06)
(0.0527562 0.0381246 -1.27804e-18 -0.0527598 -1.74049e-19 3.58952e-06)
(0.0313912 0.0301671 3.54782e-19 -0.031395 -3.17091e-19 3.81066e-06)
(0.0149928 0.0243916 5.80193e-19 -0.0149962 -1.62958e-18 3.3763e-06)
(0.00368146 0.020522 -5.4494e-20 -0.00368319 -6.93383e-19 1.72526e-06)
(0.120279 0.0803775 1.46316e-20 -0.12028 3.02549e-20 8.89508e-07)
(0.0822398 0.0780858 1.01188e-19 -0.0822418 1.03946e-19 2.01008e-06)
(0.0531501 0.0655448 9.21275e-20 -0.053153 -1.68792e-19 2.84923e-06)
(0.0300777 0.0520005 -6.26323e-19 -0.0300811 1.31145e-19 3.41787e-06)
(0.0116249 0.0397399 -1.08449e-18 -0.0116285 -1.06753e-18 3.62164e-06)
(-0.00281683 0.0307201 -3.40878e-18 0.00281363 -1.08948e-18 3.20021e-06)
(-0.0128747 0.0246327 -3.50775e-19 0.012873 6.209e-19 1.62895e-06)
(0.0959156 0.100366 5.29885e-20 -0.0959164 -3.99877e-20 8.11552e-07)
(0.0519101 0.0885298 7.04667e-20 -0.0519119 -5.06639e-20 1.83505e-06)
(0.0246348 0.0701934 -7.20896e-20 -0.0246374 -2.79994e-19 2.60019e-06)
(0.00512785 0.0525538 -6.59987e-19 -0.00513097 -1.40621e-19 3.11535e-06)
(-0.00962921 0.0372169 -1.2294e-18 0.00962592 -2.34091e-19 3.29386e-06)
(-0.021519 0.0257091 -2.23954e-18 0.0215161 2.11032e-18 2.90137e-06)
(-0.0299148 0.0178617 8.45645e-19 0.0299133 4.67825e-19 1.46988e-06)
(0.0702686 0.112003 5.11042e-20 -0.0702693 -2.76857e-20 7.0282e-07)
(0.0246813 0.0860381 4.44166e-20 -0.0246829 -4.20014e-20 1.59021e-06)
(0.000717574 0.0617707 -1.72935e-19 -0.000719826 -9.52889e-20 2.25222e-06)
(-0.0146551 0.041052 -6.73199e-19 0.0146524 1.17044e-19 2.69429e-06)
(-0.0255072 0.0238977 -8.38551e-19 0.0255044 1.00847e-18 2.84084e-06)
(-0.0345823 0.0107073 1.61764e-18 0.0345798 1.43082e-18 2.49236e-06)
(-0.0410995 0.0015999 6.4845e-19 0.0410983 -9.8165e-19 1.25524e-06)
(0.0464152 0.116934 -1.44952e-20 -0.0464158 4.75009e-20 5.66833e-07)
(0.00603755 0.0751441 8.53376e-20 -0.00603883 2.90861e-21 1.28392e-06)
(-0.0128534 0.0454291 -8.58718e-20 0.0128516 1.62189e-20 1.81717e-06)
(-0.0238395 0.0226086 -8.0683e-20 0.0238373 6.86142e-20 2.16898e-06)
(-0.0310393 0.00465388 -8.53713e-19 0.031037 1.00703e-18 2.27771e-06)
(-0.037314 -0.00951821 2.41249e-18 0.0373121 -1.09015e-19 1.98651e-06)
(-0.0419006 -0.0194296 -1.74731e-18 0.0418996 -1.25004e-19 9.91544e-07)
(0.0258492 0.11787 8.79501e-20 -0.0258497 8.87096e-21 4.09265e-07)
(-0.00208024 0.062422 2.77487e-19 0.00207931 -8.61848e-20 9.28451e-07)
(-0.0142242 0.0284947 -4.67711e-19 0.0142229 -4.60068e-20 1.31239e-06)
(-0.0207835 0.00441153 -1.29518e-18 0.020782 2.84823e-19 1.5603e-06)
(-0.0248098 -0.013728 -9.1633e-19 0.0248082 1.04299e-18 1.627e-06)
(-0.0284529 -0.0283775 1.25947e-18 0.0284515 3.86802e-19 1.40434e-06)
(-0.0311564 -0.0387341 5.50468e-19 0.0311557 -5.45267e-20 6.89978e-07)
(0.00822892 0.11751 3.51339e-20 -0.00822915 5.31268e-21 2.35553e-07)
(-0.00176182 0.0541587 -1.37334e-19 0.00176129 -1.52615e-20 5.36513e-07)
(-0.00595567 0.0179274 -2.37492e-19 0.00595491 1.07982e-19 7.5593e-07)
(-0.00813275 -0.00673635 -4.13264e-19 0.00813186 3.56753e-19 8.89961e-07)
(-0.00941769 -0.0248452 -4.3248e-19 0.00941678 7.47524e-19 9.11659e-07)
(-0.0106072 -0.0396705 6.08526e-19 0.0106065 4.26437e-19 7.6604e-07)
(-0.0114978 -0.0502171 3.13647e-19 0.0114975 -7.9821e-20 3.60528e-07)
(-0.00822849 0.11751 2.84954e-20 0.00822843 1.20146e-20 5.28804e-08)
(0.00176229 0.0541587 -1.38397e-19 -0.00176242 1.87768e-20 1.23826e-07)
(0.00595635 0.0179273 2.12191e-20 -0.00595652 2.73345e-19 1.70052e-07)
(0.00813378 -0.00673637 -3.1714e-19 -0.00813397 3.83464e-19 1.8474e-07)
(0.00941921 -0.0248452 -1.18883e-19 -0.00941937 5.03825e-19 1.60467e-07)
(0.0106094 -0.0396705 -5.35274e-20 -0.0106095 2.89445e-19 9.75772e-08)
(0.0115007 -0.050217 1.8731e-19 -0.0115007 -9.8707e-21 1.70783e-08)
(-0.0258489 0.117871 4.93893e-20 0.025849 1.19553e-20 -1.32269e-07)
(0.00208072 0.0624219 1.56942e-19 -0.00208043 4.45459e-20 -2.94486e-07)
(0.014225 0.0284946 4.72295e-19 -0.0142245 4.16344e-19 -4.23748e-07)
(0.0207846 0.00441149 -1.16223e-18 -0.0207841 3.64455e-19 -5.29469e-07)
(0.0248114 -0.013728 -1.84719e-19 -0.0248108 3.91399e-19 -5.99228e-07)
(0.0284551 -0.0283775 -4.19758e-19 -0.0284545 9.30068e-20 -5.77002e-07)
(0.0311594 -0.0387341 1.99979e-19 -0.031159 -1.67497e-20 -3.285e-07)
(-0.046415 0.116934 1.19129e-19 0.0464153 3.12395e-20 -3.12192e-07)
(-0.00603704 0.0751441 1.83964e-19 0.00603774 -1.06716e-20 -7.0148e-07)
(0.0128542 0.0454291 5.41655e-19 -0.0128532 1.40984e-19 -1.00142e-06)
(0.0238407 0.0226086 3.98303e-19 -0.0238395 3.37149e-19 -1.22373e-06)
(0.031041 0.00465393 3.7801e-19 -0.0310397 8.48414e-19 -1.33637e-06)
(0.0373164 -0.00951812 -2.04684e-18 -0.0373152 7.59051e-19 -1.22981e-06)
(0.0419036 -0.0194294 -2.56131e-19 -0.041903 -8.30408e-20 -6.61426e-07)
(-0.0702684 0.112003 3.75727e-21 0.0702689 -5.76522e-20 -4.80432e-07)
(-0.0246807 0.086038 4.37141e-20 0.0246818 -6.84925e-20 -1.08205e-06)
(-0.000716648 0.0617707 7.86876e-20 0.000718189 -1.02744e-19 -1.54147e-06)
(0.0146564 0.0410521 1.31296e-19 -0.0146546 -7.55939e-20 -1.87212e-06)
(0.0255091 0.0238979 4.31954e-19 -0.0255071 -3.24626e-19 -2.02365e-06)
(0.0345848 0.0107076 1.75505e-18 -0.034583 8.80114e-19 -1.83693e-06)
(0.0411026 0.00160036 1.32651e-18 -0.0411016 5.79671e-19 -9.69995e-07)
(-0.0959154 0.100366 -2.17588e-20 0.095916 -9.99582e-20 -6.29884e-07)
(-0.0519095 0.0885298 -1.05583e-20 0.0519109 -9.51889e-20 -1.42057e-06)
(-0.0246338 0.0701935 -5.00934e-20 0.0246358 -2.35602e-19 -2.0217e-06)
(-0.00512643 0.052554 7.36339e-20 0.00512887 -3.15162e-19 -2.44795e-06)
(0.00963112 0.0372172 7.8901e-19 -0.00962848 -1.51004e-18 -2.63247e-06)
(0.0215215 0.0257096 3.90155e-18 -0.0215191 1.21493e-19 -2.37276e-06)
(0.0299178 0.0178624 -1.07009e-18 -0.0299165 -4.89133e-19 -1.2407e-06)
(-0.120278 0.0803772 -5.06953e-21 0.120279 -9.14033e-20 -7.55243e-07)
(-0.0822391 0.0780857 -5.06598e-20 0.0822408 -7.76043e-20 -1.70449e-06)
(-0.0531491 0.065545 -2.58668e-19 0.0531515 -4.10035e-19 -2.42424e-06)
(-0.0300762 0.0520008 -1.14648e-19 0.0300792 -7.32305e-19 -2.92973e-06)
(-0.011623 0.0397405 4.33875e-19 0.0116262 -1.29179e-18 -3.14031e-06)
(0.00281919 0.0307208 1.88971e-18 -0.00281637 -8.52862e-19 -2.81775e-06)
(0.0128775 0.0246336 -1.56207e-18 -0.012876 3.09714e-19 -1.46419e-06)
(-0.13952 0.052229 -8.52391e-21 0.13952 -2.29894e-20 -8.51064e-07)
(-0.108349 0.053883 -1.62944e-19 0.108351 -7.18157e-20 -1.92194e-06)
(-0.0784689 0.0466714 -8.29145e-19 0.0784716 -1.77773e-20 -2.73225e-06)
(-0.0527548 0.038125 -9.49756e-19 0.0527581 -3.23498e-19 -3.29727e-06)
(-0.0313894 0.0301678 6.8648e-19 0.0313929 -5.86528e-19 -3.52561e-06)
(-0.0149907 0.0243925 1.59643e-18 0.0149938 -1.35569e-18 -3.15271e-06)
(-0.00367892 0.020523 8.79734e-19 0.00368055 9.96567e-19 -1.63032e-06)
(-0.150166 0.0181347 -9.35063e-20 0.150167 -2.3654e-20 -9.14162e-07)
(-0.123437 0.0192533 -2.37965e-19 0.123439 -9.88517e-20 -2.06509e-06)
(-0.0933109 0.0169116 -8.75548e-20 0.0933138 2.70059e-19 -2.93451e-06)
(-0.0661871 0.013988 1.85038e-19 0.0661906 3.32753e-19 -3.53716e-06)
(-0.0432122 0.0112265 3.88609e-19 0.043216 2.16362e-20 -3.77459e-06)
(-0.0257482 0.00923575 5.92374e-19 0.0257516 -9.18367e-19 -3.36597e-06)
(-0.0137603 0.00790673 -3.93114e-20 0.0137621 -4.42169e-19 -1.73383e-06)
)
;

boundaryField
{
    out
    {
        type            mySigma;
    }
    in
    {
        type            mySigma;
    }
    frontAndBack
    {
        type            empty;
    }
}


// ************************************************************************* //
