/*--------------------------------*- C++ -*----------------------------------*\
| =========                 |                                                 |
| \\      /  F ield         | foam-extend: Open Source CFD                    |
|  \\    /   O peration     | Version:  3.0                                   |
|   \\  /    A nd           | Web:         http://www.extend-project.de       |
|    \\/     M anipulation  |                                                 |
\*---------------------------------------------------------------------------*/
FoamFile
{
    version     2.0;
    format      ascii;
    class       volVectorField;
    location    "25";
    object      u;
}
// * * * * * * * * * * * * * * * * * * * * * * * * * * * * * * * * * * * * * //

dimensions      [0 0 0 0 0 0 0];

internalField   nonuniform List<vector> 
224
(
(0.382972 -0.135728 1.55404e-18)
(0.655514 -0.0827589 6.63057e-18)
(0.842332 -0.0518066 -4.59007e-18)
(0.906076 -0.0333594 -7.50789e-18)
(0.984571 -0.018537 -7.49018e-18)
(0.978613 -0.0111559 2.28156e-18)
(1.02389 0.00173366 -2.69801e-18)
(0.486858 -0.386535 4.00859e-19)
(0.71886 -0.235693 -9.14565e-19)
(0.881989 -0.147552 -1.38633e-17)
(0.931616 -0.0950232 3.73895e-17)
(0.998768 -0.0528175 -7.97897e-18)
(0.987162 -0.0318041 -1.81663e-17)
(1.02257 0.00489537 -2.13384e-17)
(0.678816 -0.578494 -6.7645e-18)
(0.835909 -0.352745 -4.55632e-18)
(0.955267 -0.220833 -1.72618e-17)
(0.978809 -0.142219 -5.47892e-18)
(1.025 -0.0790555 -2.30269e-17)
(1.00296 -0.0476083 6.8617e-17)
(1.02015 0.0073139 1.83215e-17)
(0.929621 -0.682382 -3.89425e-18)
(0.988842 -0.416093 -2.97305e-18)
(1.05101 -0.260493 -5.51982e-18)
(1.04047 -0.167762 -9.07134e-20)
(1.05928 -0.0932564 -1.52643e-18)
(1.02361 -0.056163 2.96202e-17)
(1.01698 0.00862109 -4.32076e-17)
(1.20109 -0.682383 -1.70892e-18)
(1.15438 -0.416094 -1.87246e-18)
(1.15464 -0.260495 -2.73325e-18)
(1.10721 -0.167764 -2.99833e-19)
(1.09638 -0.0932587 1.31286e-17)
(1.04595 -0.0561656 -4.15555e-17)
(1.01355 0.00861737 -3.69529e-18)
(1.4519 -0.578497 1.23132e-18)
(1.30731 -0.352748 -1.46291e-18)
(1.25039 -0.220837 -3.12607e-18)
(1.16887 -0.142224 -9.40316e-18)
(1.13066 -0.0790619 1.36967e-17)
(1.0666 -0.0476165 -3.9343e-17)
(1.01039 0.00730351 4.2606e-17)
(1.64386 -0.38654 -8.27293e-19)
(1.42436 -0.235699 -3.70013e-18)
(1.32367 -0.147559 3.3111e-18)
(1.21607 -0.0950314 9.3283e-18)
(1.1569 -0.0528282 9.11179e-18)
(1.0824 -0.0318168 -1.5888e-17)
(1.00797 0.00487881 -5.62124e-18)
(1.74774 -0.135734 -1.34604e-19)
(1.48771 -0.082766 -4.14523e-19)
(1.36333 -0.0518154 3.42739e-18)
(1.24161 -0.0333707 3.00114e-18)
(1.17109 -0.0185509 5.46601e-18)
(1.09095 -0.0111731 -6.86995e-18)
(1.00666 0.00171267 -1.71921e-18)
(1.74774 0.135735 9.4582e-19)
(1.48771 0.0827675 5.9673e-19)
(1.36333 0.0518164 4.37768e-18)
(1.24161 0.033371 -1.67963e-18)
(1.17109 0.0185505 2.84598e-18)
(1.09095 0.0111724 -4.73327e-18)
(1.00666 -0.00171382 4.28146e-19)
(1.64386 0.386541 2.22549e-18)
(1.42436 0.2357 2.59998e-18)
(1.32367 0.14756 7.41714e-18)
(1.21607 0.0950318 -1.13833e-17)
(1.1569 0.052828 3.94068e-18)
(1.0824 0.0318165 -4.63228e-18)
(1.00797 -0.00487886 5.98278e-18)
(1.4519 0.578499 4.66628e-18)
(1.30731 0.35275 3.2186e-18)
(1.25039 0.220838 8.06139e-18)
(1.16887 0.142225 5.61754e-18)
(1.13066 0.0790623 1.03613e-17)
(1.0666 0.0476168 -3.70697e-17)
(1.0104 -0.00730167 -5.66748e-18)
(1.20109 0.682386 1.46811e-18)
(1.15438 0.416096 1.10381e-18)
(1.15464 0.260496 -9.26937e-20)
(1.10721 0.167765 -1.12905e-18)
(1.09638 0.0932598 -6.20651e-18)
(1.04595 0.0561669 3.19531e-18)
(1.01356 -0.00861337 3.70223e-17)
(0.929624 0.682386 -7.80217e-19)
(0.988843 0.416096 7.50428e-19)
(1.05101 0.260495 -9.68925e-19)
(1.04047 0.167764 -9.60976e-20)
(1.05928 0.0932582 -2.20722e-17)
(1.02361 0.0561652 7.35941e-17)
(1.01698 -0.00861526 -8.31438e-18)
(0.678818 0.578498 -3.74853e-18)
(0.83591 0.352748 2.23075e-18)
(0.955268 0.220836 -4.81351e-19)
(0.978809 0.142221 1.15948e-17)
(1.025 0.0790581 -2.78172e-17)
(1.00296 0.0476114 6.12374e-17)
(1.02015 -0.00730702 -7.77615e-17)
(0.48686 0.386539 2.02131e-18)
(0.718861 0.235697 8.87633e-18)
(0.881989 0.147555 -1.1442e-17)
(0.931616 0.095026 -2.96227e-17)
(0.998767 0.0528208 -1.80769e-17)
(0.987162 0.0318079 1.88477e-17)
(1.02257 -0.00488844 3.34461e-17)
(0.382973 0.135733 -9.80402e-19)
(0.655515 0.0827627 -5.50521e-18)
(0.842332 0.0518102 7.28656e-19)
(0.906076 0.0333629 8.25776e-18)
(0.98457 0.0185408 -9.727e-19)
(0.978613 0.0111602 1.13291e-17)
(1.02388 -0.00172762 5.30371e-19)
(0.382974 -0.135738 -1.55443e-18)
(0.655515 -0.0827718 -6.63094e-18)
(0.842333 -0.0518233 4.58942e-18)
(0.906078 -0.0333804 7.50732e-18)
(0.984573 -0.0185632 7.48963e-18)
(0.978615 -0.0111882 -2.28205e-18)
(1.02389 0.00169413 2.69737e-18)
(0.486862 -0.386544 -4.01176e-19)
(0.718864 -0.235706 9.14184e-19)
(0.881993 -0.147568 1.38624e-17)
(0.931621 -0.0950429 -3.73892e-17)
(0.998774 -0.0528425 7.9784e-18)
(0.987171 -0.0318349 1.81653e-17)
(1.02258 0.00485599 2.13375e-17)
(0.678821 -0.578503 6.76418e-18)
(0.835915 -0.352756 4.55587e-18)
(0.955275 -0.220847 1.72611e-17)
(0.978818 -0.142237 5.4782e-18)
(1.02501 -0.0790781 2.30262e-17)
(1.00298 -0.0476367 -6.86167e-17)
(1.02017 0.00727687 -1.83213e-17)
(0.929628 -0.68239 3.89387e-18)
(0.98885 -0.416103 2.97259e-18)
(1.05102 -0.260506 5.51931e-18)
(1.04048 -0.167778 9.0248e-20)
(1.05929 -0.0932761 1.526e-18)
(1.02363 -0.0561875 -2.96199e-17)
(1.01701 0.00858821 4.32058e-17)
(1.2011 -0.68239 1.70856e-18)
(1.15439 -0.416102 1.872e-18)
(1.15466 -0.260505 2.73274e-18)
(1.10723 -0.167777 2.99328e-19)
(1.0964 -0.0932744 -1.3129e-17)
(1.04598 -0.0561856 4.1555e-17)
(1.01359 0.0085909 3.69445e-18)
(1.45191 -0.578502 -1.23157e-18)
(1.30732 -0.352754 1.46246e-18)
(1.2504 -0.220845 3.12556e-18)
(1.16889 -0.142233 9.4026e-18)
(1.13068 -0.0790734 -1.36966e-17)
(1.06663 -0.0476307 3.93415e-17)
(1.01043 0.00728433 -4.2606e-17)
(1.64387 -0.386543 8.26958e-19)
(1.42437 -0.235703 3.6997e-18)
(1.32368 -0.147563 -3.31165e-18)
(1.21609 -0.095037 -9.32864e-18)
(1.15692 -0.0528345 -9.1123e-18)
(1.08243 -0.0318254 1.58875e-17)
(1.00801 0.00486815 5.62063e-18)
(1.74775 -0.135736 1.34202e-19)
(1.48772 -0.0827675 4.14118e-19)
(1.36334 -0.0518171 -3.42794e-18)
(1.24163 -0.0333719 -3.00168e-18)
(1.17112 -0.0185524 -5.46645e-18)
(1.09098 -0.011175 6.86936e-18)
(1.0067 0.00170993 1.71863e-18)
(1.74775 0.135736 -9.46234e-19)
(1.48772 0.0827682 -5.97146e-19)
(1.36334 0.0518184 -4.37828e-18)
(1.24163 0.0333736 1.67915e-18)
(1.17112 0.0185545 -2.84643e-18)
(1.09098 0.0111765 4.73269e-18)
(1.0067 -0.00170856 -4.28744e-19)
(1.64387 0.386543 -2.22586e-18)
(1.42437 0.235704 -2.6004e-18)
(1.32368 0.147565 -7.41801e-18)
(1.21609 0.095039 1.13831e-17)
(1.15692 0.0528367 -3.94115e-18)
(1.08243 0.0318271 4.63155e-18)
(1.00801 -0.00486706 -5.98338e-18)
(1.45191 0.578503 -4.66666e-18)
(1.30732 0.352756 -3.21908e-18)
(1.2504 0.220847 -8.06193e-18)
(1.16889 0.142236 -5.61823e-18)
(1.13068 0.079076 -1.03617e-17)
(1.06663 0.0476329 3.70689e-17)
(1.01043 -0.00728363 5.66719e-18)
(1.2011 0.682391 -1.46856e-18)
(1.15439 0.416105 -1.10432e-18)
(1.15466 0.260508 9.21794e-20)
(1.10723 0.16778 1.12855e-18)
(1.0964 0.0932774 6.20622e-18)
(1.04598 0.0561883 -3.19541e-18)
(1.01359 -0.00859042 -3.70235e-17)
(0.929629 0.682393 7.79782e-19)
(0.988852 0.416106 -7.50949e-19)
(1.05102 0.260509 9.68388e-19)
(1.04048 0.167781 9.55286e-20)
(1.0593 0.0932796 2.2072e-17)
(1.02363 0.0561907 -7.35953e-17)
(1.01701 -0.0085875 8.31348e-18)
(0.678822 0.578506 3.74822e-18)
(0.835916 0.35276 -2.23127e-18)
(0.955276 0.220851 4.80799e-19)
(0.97882 0.142241 -1.15955e-17)
(1.02502 0.079082 2.78176e-17)
(1.00298 0.0476405 -6.12397e-17)
(1.02017 -0.00727533 7.77626e-17)
(0.486862 0.386548 -2.0217e-18)
(0.718864 0.23571 -8.87685e-18)
(0.881994 0.147572 1.14415e-17)
(0.931623 0.0950472 2.96227e-17)
(0.998776 0.0528466 1.80768e-17)
(0.987173 0.0318391 -1.88485e-17)
(1.02258 -0.00485307 -3.34473e-17)
(0.382974 0.135742 9.79992e-19)
(0.655515 0.0827759 5.50482e-18)
(0.842334 0.0518273 -7.29229e-19)
(0.906079 0.0333845 -8.2584e-18)
(0.984574 0.0185673 9.72337e-19)
(0.978617 0.0111926 -1.13298e-17)
(1.02389 -0.00168957 -5.31037e-19)
)
;

boundaryField
{
    out
    {
        type            fixedValue;
        value           uniform (1 0 0);
    }
    in
    {
        type            myVelocity;
    }
    frontAndBack
    {
        type            empty;
    }
}


// ************************************************************************* //
