/*--------------------------------*- C++ -*----------------------------------*\
| =========                 |                                                 |
| \\      /  F ield         | foam-extend: Open Source CFD                    |
|  \\    /   O peration     | Version:  3.0                                   |
|   \\  /    A nd           | Web:         http://www.extend-project.de       |
|    \\/     M anipulation  |                                                 |
\*---------------------------------------------------------------------------*/
FoamFile
{
    version     2.0;
    format      ascii;
    class       volVectorField;
    location    "18";
    object      u;
}
// * * * * * * * * * * * * * * * * * * * * * * * * * * * * * * * * * * * * * //

dimensions      [0 0 0 0 0 0 0];

internalField   nonuniform List<vector> 
672
(
(0.4137497636 -0.09220456506 3.13997446e-17)
(0.3715192732 -0.05781765 1.24860087e-17)
(0.7853193695 -0.04897231419 1.822302847e-17)
(0.6773739297 -0.02856428457 -3.959138048e-18)
(0.9402127601 -0.02628257567 3.726534042e-17)
(0.8211826364 -0.01556087356 3.309820216e-17)
(1.018481979 -0.01292024837 7.735352469e-17)
(0.8893933975 -0.008060256511 -1.61195852e-17)
(1.061381517 -0.004451445687 1.949550245e-17)
(0.9178837021 -0.002108497331 3.098553312e-17)
(1.082283436 0.001314757274 -1.277851228e-17)
(0.9240153613 0.005236349752 -6.557678036e-18)
(0.4557323497 -0.2755541232 2.379872373e-17)
(0.397655259 -0.1745763683 -6.839240774e-17)
(0.8076284205 -0.148380947 7.381633536e-17)
(0.6903874299 -0.08873632516 -1.392240541e-16)
(0.9521978898 -0.08200857746 -4.968120127e-17)
(0.8284400255 -0.05110448743 -2.401763159e-17)
(1.024521537 -0.04315274794 -2.1490219e-16)
(0.8935204842 -0.03015195576 6.879929676e-17)
(1.063989788 -0.01867398632 -3.395835057e-17)
(0.9194066533 -0.01424866771 4.654903011e-17)
(1.083394455 -0.002656355003 -1.040584021e-16)
(0.9216750795 0.004198000127 1.779719369e-16)
(0.537027256 -0.4450441711 -4.944439309e-17)
(0.4493648997 -0.2819215915 1.057255828e-16)
(0.8518866366 -0.2399251094 1.107807456e-17)
(0.7171866211 -0.1439034167 1.912407245e-16)
(0.9772371409 -0.1331888866 2.392005292e-17)
(0.8444372594 -0.08374058504 1.528516665e-16)
(1.038237147 -0.07091300612 1.078280104e-16)
(0.9035698289 -0.05078270155 1.37651167e-16)
(1.07014835 -0.0314825956 -8.695410597e-17)
(0.9253567341 -0.02650553135 4.18458101e-17)
(1.083695369 -0.005046838626 -3.310437903e-17)
(0.923872243 0.0009702584737 -4.187477848e-18)
(0.6543848818 -0.5921157935 -1.143084654e-16)
(0.5236148726 -0.3759546919 -8.109811231e-17)
(0.9151915737 -0.3199078135 -1.52860007e-16)
(0.7550304485 -0.1925297945 -4.788595488e-18)
(1.012304818 -0.1781413753 -3.033899714e-16)
(0.8663493848 -0.1124892716 1.028936198e-16)
(1.056968462 -0.09530634866 -3.431267522e-16)
(0.9166288875 -0.06845845677 1.694873166e-16)
(1.07923735 -0.04310134329 -1.672236465e-16)
(0.9312516646 -0.03573603287 2.969770298e-16)
(1.087762969 -0.009032934154 -2.400703687e-16)
(0.9209966429 0.0006347395509 3.767029872e-16)
(0.8012894664 -0.7094046693 3.249325935e-16)
(0.6166261571 -0.4500500707 3.79934082e-17)
(0.9948104682 -0.3830598137 1.724346869e-16)
(0.8029652197 -0.2305200632 3.321748974e-17)
(1.057041372 -0.2133978073 2.049266593e-16)
(0.8948175097 -0.1351119649 1.14804261e-16)
(1.081286939 -0.1143890286 7.044836266e-17)
(0.9346553888 -0.08337982656 2.223883101e-17)
(1.090030525 -0.05145707614 1.225930083e-16)
(0.9422011701 -0.04583012534 -2.895190509e-16)
(1.088347907 -0.009228678953 1.567722485e-16)
(0.924377166 -0.00333458181 -1.248645721e-16)
(0.9708217333 -0.79107852 -2.079298436e-16)
(0.7243446342 -0.5026776196 4.040022728e-17)
(1.086669638 -0.4277193102 -2.468699922e-16)
(0.8582191246 -0.257875389 1.675798706e-16)
(1.108303886 -0.238553565 -3.954806686e-16)
(0.9270770352 -0.1512975766 1.481459902e-16)
(1.108942913 -0.1279281472 -2.875241339e-16)
(0.9539330459 -0.09312113474 7.620177696e-17)
(1.103649437 -0.05797000241 -1.827228335e-16)
(0.9510301609 -0.05032959457 4.812719334e-16)
(1.094318285 -0.01224707505 -4.853598046e-16)
(0.9219959868 -0.003151610737 4.354359673e-16)
(1.15415114 -0.8329188248 1.629454279e-17)
(0.8402163296 -0.5289442639 6.24494814e-17)
(1.185772071 -0.4500537001 -2.550330379e-17)
(0.9177533956 -0.2713156054 -1.13312532e-16)
(1.163775247 -0.251004534 2.600020424e-16)
(0.9624597869 -0.1595926572 -2.93773217e-17)
(1.138924484 -0.134537344 1.424384437e-16)
(0.9767407671 -0.09955486001 -4.899110354e-17)
(1.116917762 -0.05994438585 1.087026453e-16)
(0.9651887029 -0.05649624678 -3.148883815e-16)
(1.09565484 -0.009792098044 2.873631039e-16)
(0.9253175175 -0.007505755557 -1.36379413e-16)
(1.342311219 -0.8330229294 3.561879108e-17)
(0.9600475407 -0.5296867584 -5.276602001e-17)
(1.288015 -0.4504380134 1.716046057e-16)
(0.9794426353 -0.2718736893 -5.668479097e-17)
(1.220995411 -0.251302809 1.647066555e-17)
(0.9987430045 -0.1599020279 -5.717719165e-17)
(1.169586062 -0.134677887 7.399053518e-17)
(0.9988853806 -0.09939401252 -8.2451504e-18)
(1.131067897 -0.06058589464 -6.695134038e-17)
(0.9763057169 -0.05532342376 2.959441361e-16)
(1.100266359 -0.01218281291 -2.725656055e-16)
(0.9244310242 -0.005984073451 1.989754625e-16)
(1.525699527 -0.7911343561 1.325329931e-17)
(1.075863786 -0.5029780694 -5.657362288e-18)
(1.386993128 -0.4276398047 -2.94030552e-16)
(1.03880439 -0.2581861027 1.664003251e-16)
(1.276271059 -0.2386559925 -2.441067676e-16)
(1.033974193 -0.1521568865 1.856766156e-16)
(1.199332868 -0.127836772 -1.628989574e-16)
(1.021705712 -0.09551670846 7.600886235e-17)
(1.144076021 -0.05642902095 3.894780788e-17)
(0.990733345 -0.0554645819 -2.309490875e-16)
(1.10124481 -0.007969170738 1.980290865e-16)
(0.928530147 -0.01062248519 -2.0811364e-16)
(1.69524003 -0.7096619622 6.319432227e-17)
(1.184003659 -0.4516723386 -2.189598955e-17)
(1.479314846 -0.3835941713 3.349278124e-16)
(1.094580148 -0.2318014199 -9.596902719e-17)
(1.328073481 -0.2139087279 2.186336172e-16)
(1.066949325 -0.1365087678 -2.138243646e-16)
(1.227095685 -0.1142669891 1.631231597e-16)
(1.042171207 -0.08566118764 -6.235834812e-17)
(1.156674745 -0.05022753563 -4.307266557e-18)
(1.001544169 -0.04952076661 -1.954314647e-18)
(1.105065333 -0.007666724506 2.910984404e-17)
(0.9281462495 -0.008612757097 -5.724631426e-18)
(1.842342269 -0.5923582597 -5.487200324e-18)
(1.276883334 -0.3772730855 -2.20480182e-17)
(1.558658709 -0.3202203066 -1.648339492e-16)
(1.142105867 -0.1937662331 -5.437820896e-17)
(1.372315283 -0.178741065 -4.289323858e-17)
(1.095175616 -0.1144381647 1.255900011e-17)
(1.250680789 -0.09549150438 -5.047519314e-17)
(1.0607057 -0.07256306537 -2.56368981e-18)
(1.166360624 -0.0412757823 1.949387444e-17)
(1.013898817 -0.04363795416 -1.350505005e-17)
(1.104419641 -0.004010193407 1.944388257e-17)
(0.932843828 -0.01127788529 -4.360541921e-17)
(1.959699008 -0.4454771212 -5.177913725e-17)
(1.351829279 -0.2841208789 -1.463834861e-18)
(1.622677611 -0.2404691464 1.26795675e-16)
(1.180789942 -0.1456932321 1.562920943e-17)
(1.408280185 -0.1338185131 1.015857242e-16)
(1.118149947 -0.08586705784 -8.779510897e-17)
(1.269857606 -0.07088332584 1.371981308e-16)
(1.075185395 -0.05461693953 -8.778279733e-17)
(1.174849963 -0.02965352762 3.681704259e-17)
(1.021837939 -0.03338405302 -5.612900629e-17)
(1.106797122 -0.001510581871 8.4762691e-17)
(0.933240583 -0.009146964271 -8.384844813e-17)
(2.041386953 -0.2760058338 1.828948256e-17)
(1.40342456 -0.176700218 -1.900472908e-17)
(1.666770061 -0.1490586597 -4.032277177e-17)
(1.20717392 -0.090832105 -4.262945829e-17)
(1.432836843 -0.08311714294 -1.794720042e-17)
(1.133998859 -0.05386805538 -1.579534016e-17)
(1.282681201 -0.04393997013 -9.938623039e-18)
(1.086188111 -0.03500397874 -2.543700838e-17)
(1.179357924 -0.01749251657 2.78820602e-17)
(1.030037176 -0.02307628678 -2.725369471e-17)
(1.105171603 0.001682484283 2.763649566e-17)
(0.9365934939 -0.009867264098 -2.968857899e-17)
(2.083339227 -0.09285119388 -1.467619199e-17)
(1.430249293 -0.06023966541 4.028258345e-18)
(1.689733908 -0.04947059832 3.828738954e-17)
(1.221009677 -0.03065849759 8.166562941e-18)
(1.445725927 -0.02702867065 4.433335622e-17)
(1.1423303 -0.01798881959 -2.36409541e-17)
(1.289302544 -0.01356207358 4.961203713e-17)
(1.091761555 -0.01212446166 -3.028664223e-17)
(1.181732504 -0.00404872705 2.135864112e-17)
(1.03360285 -0.009325533461 -2.811482339e-17)
(1.105107653 0.00319683355 3.396306054e-17)
(0.937905254 -0.006091654047 -4.015208567e-17)
(2.083460946 0.09521509785 6.002851383e-18)
(1.430361154 0.0590343596 -1.705792992e-17)
(1.689925238 0.05192695832 -1.294028826e-17)
(1.221061556 0.03023240921 -3.122498787e-17)
(1.445842535 0.02917733575 -5.661216023e-18)
(1.142596876 0.01767360158 -2.894370333e-17)
(1.289035256 0.01616717782 -1.65900255e-18)
(1.092662205 0.010224107 -2.428880281e-17)
(1.18064914 0.009052946506 1.550243493e-17)
(1.035300009 0.003135163963 -1.996824082e-17)
(1.10337164 0.006298952467 2.083958886e-17)
(0.9392632519 -0.006145892204 -2.277671446e-17)
(2.041733885 0.2783344272 6.875105201e-18)
(1.403688156 0.1755984761 1.870554235e-17)
(1.667265091 0.1515105367 1.923990373e-17)
(1.207257103 0.09046219133 2.363835559e-17)
(1.433103888 0.08522671479 5.299641214e-17)
(1.134606149 0.05367676612 -1.609477034e-17)
(1.281901177 0.04625284534 7.674659082e-17)
(1.088278181 0.03351212481 -3.817578535e-17)
(1.176627901 0.02157480872 2.640218814e-17)
(1.033919448 0.01790004735 -3.834534716e-17)
(1.101084251 0.00606208927 4.559807259e-17)
(0.9405548197 -0.0006666664671 -7.139704049e-17)
(1.960303773 0.4477442034 -2.015908959e-18)
(1.352269647 0.283229639 -3.603576104e-17)
(1.623547875 0.2429132815 -1.731082637e-17)
(1.180950836 0.145423899 -6.405017357e-17)
(1.408786213 0.1358830669 -1.573627789e-17)
(1.119143352 0.08593656814 -5.856283366e-17)
(1.268681754 0.0728818379 -2.750209474e-17)
(1.078548423 0.05394167664 -4.640379181e-17)
(1.170484688 0.0329886402 2.490077992e-17)
(1.028109767 0.02959232211 -4.306908816e-18)
(1.100155976 0.008459963209 4.907770352e-18)
(0.9395672698 -0.0002069502317 -5.459583071e-18)
(1.843194666 0.5945455428 8.627360265e-17)
(1.277381826 0.3766511032 2.756732405e-17)
(1.559807471 0.3226342816 8.953355993e-17)
(1.142270078 0.1936349164 -1.926920351e-17)
(1.373019776 0.1806850919 1.513956751e-16)
(1.096423904 0.1148664892 -5.368218767e-17)
(1.249340526 0.09673988249 1.507976498e-16)
(1.06500311 0.07315776902 -6.477480772e-17)
(1.161092764 0.04228960012 7.327595259e-17)
(1.02187124 0.04269548666 -1.348360866e-16)
(1.096417124 0.006889150127 1.14438438e-16)
(0.9402121437 0.005391377661 -1.62270464e-16)
(1.696381836 0.7117535303 -1.731503842e-16)
(1.184538593 0.451416065 -9.281293808e-18)
(1.480795714 0.3860199644 -8.768519403e-17)
(1.094737789 0.2318536707 1.606294366e-17)
(1.329039289 0.2158255277 -1.349079963e-16)
(1.068232898 0.1372687642 -3.571871564e-17)
(1.225849885 0.1150199334 -5.034361634e-17)
(1.046548443 0.08727341765 1.698176864e-17)
(1.151316115 0.04967140792 -8.256669863e-17)
(1.009700274 0.05083559615 1.855943461e-16)
(1.096729028 0.007689934798 -1.089643247e-16)
(0.9366261687 0.006397816197 9.667983794e-17)
(1.527106614 0.7931527875 1.219518039e-16)
(1.076329261 0.5030761855 -2.95276233e-17)
(1.388707442 0.430015671 1.121019974e-16)
(1.038938979 0.2584092623 -1.071505916e-16)
(1.277423947 0.240496 2.240071169e-16)
(1.035333722 0.1532662866 -7.243940362e-17)
(1.198142126 0.1281742098 1.499709775e-16)
(1.026352211 0.09824677993 -2.930694064e-17)
(1.13841207 0.05470659759 1.141325477e-16)
(0.9993891986 0.05899676184 -3.244348944e-16)
(1.092324182 0.006210302301 3.237424921e-16)
(0.9368531913 0.0108715205 -2.769146065e-16)
(1.344018923 0.8349661706 2.505719598e-17)
(0.9603703371 0.5301920252 -3.291685388e-17)
(1.289973797 0.4528272293 8.830699664e-17)
(0.9795224059 0.2723298874 1.002811287e-16)
(1.22236557 0.2531282446 -1.823003923e-16)
(1.000070515 0.161386581 3.597073573e-17)
(1.168803054 0.1345064658 -1.131595936e-16)
(1.003307652 0.1032573051 5.25241384e-17)
(1.126458255 0.05695271279 -1.043732774e-16)
(0.9840490354 0.06158320476 3.129523688e-16)
(1.093477348 0.006562509916 -2.91965752e-16)
(0.9307929339 0.0104317264 1.796986506e-16)
(1.156113112 0.8348283085 -8.809138821e-17)
(0.8403400234 0.5298146572 6.256147989e-17)
(1.187891075 0.4523693872 -3.147681883e-16)
(0.9177534118 0.2719890148 1.019619688e-16)
(1.165291208 0.2527406341 -1.256250179e-16)
(0.9635897883 0.1613400757 1.295857868e-16)
(1.138507591 0.1341033287 -1.596348708e-16)
(0.9803778587 0.1039741903 4.821748911e-17)
(1.11332969 0.05581591088 4.135872572e-17)
(0.9711924513 0.06377212455 -2.653731459e-16)
(1.090663671 0.00352574695 2.439911512e-16)
(0.9299391387 0.01415304718 -1.412948634e-16)
(0.9730284755 0.7929832316 -1.873740105e-17)
(0.7241924136 0.5038803057 3.035938028e-17)
(1.088943111 0.4300248038 4.489280438e-16)
(0.8581224196 0.258790432 -2.033738185e-16)
(1.10998793 0.2402721509 3.693812161e-16)
(0.9280423759 0.1534390545 -2.302075121e-16)
(1.109042628 0.1272764002 2.386817894e-16)
(0.956951292 0.09855416534 -8.591049814e-17)
(1.10131375 0.05305466236 -5.78265491e-17)
(0.9555631071 0.0594628273 3.298640587e-16)
(1.091440682 0.00475553103 -2.869460362e-16)
(0.9238594492 0.01133375859 3.099837082e-16)
(0.8037005969 0.7113211195 -9.486505855e-17)
(0.6161593506 0.451551259 2.632389939e-17)
(0.9971663076 0.3852474434 -6.129036144e-16)
(0.8026902578 0.2316810959 1.515360596e-16)
(1.058892125 0.2150080995 -4.430150771e-16)
(0.8953493987 0.1374455432 4.055633623e-16)
(1.082278362 0.1135759284 -3.475378045e-16)
(0.9361879476 0.08903122709 1.573132996e-16)
(1.090453208 0.04612878551 -2.412431108e-17)
(0.9433911004 0.05550577689 3.348098057e-17)
(1.09039879 0.0008659571943 -9.513918909e-17)
(0.9221482569 0.01310199143 2.953176774e-17)
(0.656889697 0.5941059373 -5.538396494e-17)
(0.5228466457 0.3776451261 4.499891752e-17)
(0.9175870474 0.3220794765 3.290374927e-16)
(0.7546240394 0.193861391 1.786051867e-16)
(1.014259357 0.1797947401 5.482891178e-17)
(0.8665188513 0.1148285821 -5.614306689e-18)
(1.058522255 0.0948712817 8.336991719e-17)
(0.9169514313 0.07373499424 2.677000536e-17)
(1.081057166 0.03877818582 -6.916927904e-17)
(0.9302646126 0.04472786479 -1.039107142e-17)
(1.091536988 0.001925335783 -1.595964422e-17)
(0.9168771742 0.009408909138 5.47959678e-17)
(0.5396560667 0.4470697742 2.112882417e-16)
(0.4482136219 0.2837872843 2.748015709e-19)
(0.8543109102 0.2419179869 -2.669906924e-16)
(0.7165458324 0.1454305212 -1.03981796e-16)
(0.9792390495 0.13478869 -2.323233176e-16)
(0.8442300362 0.08607856226 2.062318952e-16)
(1.040230651 0.07088845226 -3.85043663e-16)
(0.9029253273 0.05563661601 2.464493716e-16)
(1.073315401 0.02823168342 -1.05309729e-16)
(0.9223845988 0.03473181662 1.704276681e-16)
(1.089873258 -0.0006820213655 -2.636441331e-16)
(0.9166220969 0.00831721544 2.554112121e-16)
(0.458202875 0.2776838892 -1.145807896e-16)
(0.3963020861 0.1764915388 1.685738236e-17)
(0.8099009945 0.1503225584 1.030118624e-16)
(0.6896231596 0.0904109585 9.257598508e-17)
(0.9541124808 0.08364541271 9.42713292e-17)
(0.8279665355 0.05328000586 -2.356189745e-17)
(1.026769435 0.04374950772 7.148873691e-17)
(0.892071386 0.0339419997 2.824719824e-17)
(1.068235732 0.01723369174 -1.039817624e-16)
(0.9147137646 0.02038975611 4.667302165e-17)
(1.091578653 -0.0004136666373 -4.459284121e-17)
(0.9122476099 0.003987826425 2.946138047e-17)
(0.4162710944 0.09435785462 4.948693694e-17)
(0.3697895824 0.05977332295 2.41195247e-17)
(0.7876181563 0.05070448965 -1.191934464e-16)
(0.6763891307 0.03034047936 3.751140235e-17)
(0.9421110948 0.02784291143 -1.008722314e-16)
(0.8204779329 0.0175353358 6.005758314e-17)
(1.020715028 0.01411548815 -2.840183936e-17)
(0.8875259636 0.010823244 -5.808070365e-18)
(1.065583771 0.00485943267 1.63977686e-17)
(0.9125957811 0.006220479568 1.561252219e-17)
(1.090221029 -0.001644054215 -3.301387859e-17)
(0.9139062542 0.0009604637724 2.95951377e-17)
(0.4163157242 -0.0936795455 -3.125488453e-17)
(0.3696998559 -0.05968024795 -1.21736953e-17)
(0.7872895809 -0.05125841544 -1.84581662e-17)
(0.676052845 -0.03103471699 4.432637778e-18)
(0.9415713584 -0.02919435827 -3.718260407e-17)
(0.820027605 -0.01896211349 -3.254278056e-17)
(1.020208929 -0.01617779958 -7.695673934e-17)
(0.8870821991 -0.01282275238 1.649095992e-17)
(1.065560226 -0.007776206878 -1.937494915e-17)
(0.9118414316 -0.008479183155 -3.06442142e-17)
(1.091421264 -0.002551384554 1.253352442e-17)
(0.9119220012 -0.003067884393 6.730884419e-18)
(0.4579934858 -0.277025363 -2.404021198e-17)
(0.3964444736 -0.1761024214 6.797571735e-17)
(0.8103206681 -0.150602034 -7.40408633e-17)
(0.6901823719 -0.09081487707 1.388793211e-16)
(0.9549028603 -0.08473017021 4.877499986e-17)
(0.8288219053 -0.05455894726 2.416866225e-17)
(1.027622806 -0.04563964018 2.133316733e-16)
(0.8931731949 -0.03620051208 -6.777141643e-17)
(1.068629384 -0.01975936509 3.199705535e-17)
(0.9163756217 -0.0236273875 -4.426972556e-17)
(1.090845561 -0.002608834889 1.010703177e-16)
(0.9149990481 -0.007131762248 -1.739415692e-16)
(0.539548014 -0.4465080032 4.985607382e-17)
(0.4483392777 -0.2840065457 -1.050276496e-16)
(0.8542679091 -0.2427407872 -1.082749383e-17)
(0.7166311904 -0.1463716872 -1.902625788e-16)
(0.9791810978 -0.1363779308 -2.341935341e-17)
(0.8443220788 -0.08754904568 -1.519235196e-16)
(1.040252323 -0.0731661548 -1.074491845e-16)
(0.9030762219 -0.05721652439 -1.369262032e-16)
(1.073756469 -0.03165361988 8.664559828e-17)
(0.9223240606 -0.03590983027 -4.132562106e-17)
(1.091483814 -0.00466021775 3.262384809e-17)
(0.9156965745 -0.009485808619 4.2157053e-18)
(0.6565883727 -0.5935905176 1.137347568e-16)
(0.5229341162 -0.3770911154 8.075495298e-17)
(0.9179790268 -0.3221958673 1.517169266e-16)
(0.7552497396 -0.1940598268 4.827609868e-18)
(1.015169843 -0.1806978124 3.013033352e-16)
(0.8676117151 -0.1159222087 -1.018950317e-16)
(1.059737012 -0.09667326303 3.40279765e-16)
(0.91856213 -0.07594384445 -1.670486938e-16)
(1.082076819 -0.04110449072 1.636301076e-16)
(0.9327182641 -0.04839339347 -2.923664771e-16)
(1.091654205 -0.004027815548 2.344037336e-16)
(0.9202615383 -0.01372594757 -3.692014686e-16)
(0.8035381666 -0.7109807886 -3.243082681e-16)
(0.6166362196 -0.4519885205 -3.731047028e-17)
(0.9975768437 -0.3862067064 -1.715756201e-16)
(0.8033378646 -0.2327239838 -3.243585973e-17)
(1.0595259 -0.2166456207 -2.038500259e-16)
(0.89605593 -0.1388699373 -1.142611942e-16)
(1.083140297 -0.1158787486 -6.952948918e-17)
(0.9368087852 -0.0903445975 -2.214287948e-17)
(1.091897703 -0.0497276854 -1.222276955e-16)
(0.9436522649 -0.05610966793 2.889046646e-16)
(1.093166325 -0.006752203453 -1.559396516e-16)
(0.9219113477 -0.01347469616 1.23455732e-16)
(0.9727705331 -0.792684361 2.071244234e-16)
(0.7242351151 -0.5033433585 -4.050513266e-17)
(1.089315395 -0.4301278848 2.449532804e-16)
(0.8587868151 -0.2589457127 -1.669347086e-16)
(1.111006633 -0.2410934541 3.926962266e-16)
(0.9292811216 -0.1544595468 -1.465635137e-16)
(1.110682945 -0.1289686831 2.843554848e-16)
(0.9588269993 -0.1006792229 -7.347095604e-17)
(1.103146502 -0.05519391138 1.791909748e-16)
(0.9585295468 -0.06316289605 -4.768667848e-16)
(1.092424513 -0.006341581889 4.803722162e-16)
(0.9283401419 -0.01639353763 -4.29262746e-16)
(1.156049726 -0.8347479609 -1.55198489e-17)
(0.8412345322 -0.5303096888 -6.197770395e-17)
(1.188828143 -0.4532580857 2.69773853e-17)
(0.9190261238 -0.2729279393 1.135801336e-16)
(1.166671161 -0.254123605 -2.584033978e-16)
(0.9650029338 -0.1625985453 2.934362484e-17)
(1.140334677 -0.1359867465 -1.41463242e-16)
(0.9815484407 -0.1051987545 4.905184008e-17)
(1.116270746 -0.05881536545 -1.087537125e-16)
(0.9715298123 -0.06436791183 3.151162196e-16)
(1.095846846 -0.008846088466 -2.879128267e-16)
(0.9297074625 -0.01429304024 1.370338251e-16)
(1.343970949 -0.8348836346 -3.647075833e-17)
(0.9605018576 -0.5298175318 5.288878855e-17)
(1.290442074 -0.4530414721 -1.74014558e-16)
(0.9803530636 -0.2725693889 5.776056197e-17)
(1.223525084 -0.2539921744 -1.963997989e-17)
(1.001657231 -0.1624215653 5.924434498e-17)
(1.170678709 -0.1361876449 -7.69594067e-17)
(1.005893404 -0.105293431 1.047203552e-17)
(1.128518758 -0.05916049303 6.468807811e-17)
(0.9881529129 -0.06497467219 -2.935512878e-16)
(1.094733547 -0.008471762382 2.701517824e-16)
(0.936277622 -0.01516515975 -1.964002906e-16)
(1.527307248 -0.793291774 -1.256595058e-17)
(1.077619765 -0.5034433262 6.012345268e-18)
(1.390138482 -0.4306287518 2.95672855e-16)
(1.040775049 -0.2589862532 -1.663074043e-16)
(1.279443558 -0.2414185398 2.457806099e-16)
(1.037410998 -0.1540217973 -1.86063361e-16)
(1.200715136 -0.1295893957 1.637679516e-16)
(1.028165753 -0.09891439421 -7.568704783e-17)
(1.142264498 -0.05727940185 -3.989330281e-17)
(1.000303826 -0.05918270785 2.324724947e-16)
(1.098645408 -0.01082619753 -2.002428214e-16)
(0.9378789358 -0.01130180562 2.111784614e-16)
(1.696703641 -0.7118053568 -6.384678089e-17)
(1.184971567 -0.4512413432 2.204474948e-17)
(1.481570765 -0.3863680792 -3.372536532e-16)
(1.095906242 -0.2321786666 9.708102473e-17)
(1.330558925 -0.216740511 -2.217526889e-16)
(1.070240534 -0.1382156488 2.162613157e-16)
(1.228255308 -0.116572457 -1.663323261e-16)
(1.049695186 -0.08899074818 6.511483955e-17)
(1.15417722 -0.05145263595 1.701263627e-18)
(1.014484905 -0.05385919951 4.779552175e-18)
(1.099197272 -0.008702490019 -3.213673216e-17)
(0.9427012589 -0.0113137638 8.840877258e-18)
(1.843799556 -0.5947840273 5.865909292e-18)
(1.278967996 -0.3767370924 2.246147276e-17)
(1.561619572 -0.3228051453 1.660813541e-16)
(1.144499798 -0.1936846217 5.464714863e-17)
(1.375535126 -0.1809487823 4.416636312e-17)
(1.099007979 -0.1150254717 -1.29871e-17)
(1.252562466 -0.09740646146 5.114004907e-17)
(1.067485478 -0.07342746867 2.533999513e-18)
(1.165566839 -0.04395326373 -2.005565441e-17)
(1.023921079 -0.04285853207 1.415404741e-17)
(1.102902113 -0.0102587523 -2.027930668e-17)
(0.943402805 -0.005717192102 4.456837497e-17)
(1.961106419 -0.4477836636 5.138302642e-17)
(1.353226179 -0.2831446627 1.561157791e-18)
(1.624840561 -0.2432590878 -1.285438127e-16)
(1.182639524 -0.1457104544 -1.479671583e-17)
(1.410852877 -0.1366434282 -1.039389824e-16)
(1.121632749 -0.08668839117 9.00038294e-17)
(1.271734517 -0.0739125948 -1.397436775e-16)
(1.08201366 -0.05530623275 9.053295977e-17)
(1.174348915 -0.03369365125 -3.959613543e-17)
(1.032971079 -0.03222982531 5.976504481e-17)
(1.104215865 -0.00786081243 -8.883412453e-17)
(0.9463680382 -0.004738455242 8.879178243e-17)
(2.042823592 -0.2784901576 -1.819614381e-17)
(1.405439913 -0.1753187789 1.923251194e-17)
(1.66929169 -0.1511661884 4.102804799e-17)
(1.209702069 -0.08993419045 4.286399277e-17)
(1.435867871 -0.08473030758 1.842472153e-17)
(1.137649304 -0.05322029909 1.552818095e-17)
(1.285449341 -0.04586742111 9.915244797e-18)
(1.091787294 -0.03344821866 2.546281251e-17)
(1.181222808 -0.02160614197 -2.845142155e-17)
(1.037828993 -0.01821608978 2.747771646e-17)
(1.10720608 -0.007099522762 -2.800904162e-17)
(0.9458955961 0.0005446364663 2.986253377e-17)
(2.084780276 -0.09506069886 1.462050511e-17)
(1.431970006 -0.05878820239 -3.800665491e-18)
(1.691836783 -0.05201103922 -3.907332913e-17)
(1.223387801 -0.03020288712 -7.668402e-18)
(1.448485377 -0.0295105603 -4.504924913e-17)
(1.145711539 -0.01795019006 2.46245314e-17)
(1.29251768 -0.01651531855 -5.003968745e-17)
(1.096672799 -0.01094333874 3.115622375e-17)
(1.185006726 -0.008852450188 -2.169655929e-17)
(1.040402099 -0.004865536897 2.89686069e-17)
(1.108661342 -0.004754130232 -3.469599371e-17)
(0.9465689757 0.00243656045 4.111770157e-17)
(2.084909453 0.09298690971 -6.130412881e-18)
(1.432056883 0.06091243093 1.677127732e-17)
(1.691833735 0.05030509989 1.319114986e-17)
(1.223513832 0.03174826359 3.077901671e-17)
(1.448518014 0.02819342929 5.592984792e-18)
(1.145699556 0.0191632668 2.841275949e-17)
(1.292841293 0.01484937877 1.271309174e-18)
(1.096276572 0.01301557551 2.394138498e-17)
(1.185922209 0.005319139236 -1.562738165e-17)
(1.039503679 0.009791415907 1.964841678e-17)
(1.110115292 -0.00228492142 -2.061543783e-17)
(0.9456976011 0.00672897249 2.263478416e-17)
(2.043172393 0.2765454278 -6.62689406e-18)
(1.405640077 0.1774139556 -1.827717927e-17)
(1.6692339 0.1495320779 -1.90232842e-17)
(1.210060999 0.09150796188 -2.326881529e-17)
(1.435951437 0.08350120924 -5.21048442e-17)
(1.13766702 0.05442599561 1.598207036e-17)
(1.286408218 0.04443484173 -7.519046654e-17)
(1.090764367 0.03532015398 3.722370238e-17)
(1.18383997 0.01861183558 -2.44973034e-17)
(1.035509228 0.0226443195 3.622065994e-17)
(1.111138877 0.0008869991814 -4.276752423e-17)
(0.9440465181 0.008086844597 6.765474865e-17)
(1.961653641 0.4460990957 1.629376687e-18)
(1.353618985 0.2851943332 3.53596209e-17)
(1.624768173 0.2417470814 1.707667738e-17)
(1.183245066 0.1473026941 6.309182005e-17)
(1.410985712 0.1355286284 1.524944564e-17)
(1.121658788 0.08781019407 5.765145579e-17)
(1.273219692 0.07284902308 2.713202622e-17)
(1.080363124 0.05671117391 4.567148302e-17)
(1.178460699 0.03169309567 -2.456153079e-17)
(1.029209778 0.03555212304 3.74528617e-18)
(1.110534838 0.003385929905 -4.364127218e-18)
(0.9431715803 0.01189903798 5.343410628e-18)
(1.84445439 0.5934521923 -8.569255146e-17)
(1.279488927 0.3787083533 -2.720493258e-17)
(1.561445238 0.3214863907 -8.839643275e-17)
(1.145291187 0.1953444797 1.924557163e-17)
(1.375651278 0.1800621517 -1.493128171e-16)
(1.0990881 0.1161291399 5.272176348e-17)
(1.254430838 0.09693051432 -1.479844342e-16)
(1.065516706 0.0743422177 6.243266641e-17)
(1.170713206 0.0432786526 -6.979537035e-17)
(1.019482929 0.04497752072 1.304337073e-16)
(1.110581487 0.007774394317 -1.090453429e-16)
(0.9400718645 0.01159959941 1.551843108e-16)
(1.697399526 0.710919682 1.725514008e-16)
(1.185723493 0.4531573108 8.618686846e-18)
(1.481351266 0.3852891817 8.683220783e-17)
(1.09691629 0.2338857814 -1.682336085e-17)
(1.330670638 0.2160814169 1.338565651e-16)
(1.070390557 0.1392048667 3.519863669e-17)
(1.230325868 0.1167293842 4.944621727e-17)
(1.047486366 0.08916620308 -1.709522945e-17)
(1.15993702 0.05243948547 8.221899502e-17)
(1.009487747 0.05417437708 -1.850008111e-16)
(1.107854651 0.009148007797 1.081913953e-16)
(0.9391202268 0.01481926102 -9.534504296e-17)
(1.527924002 0.7928904604 -1.21127963e-16)
(1.078524571 0.5052579277 2.963864396e-17)
(1.389749796 0.4298132663 -1.101878212e-16)
(1.041904986 0.2607629027 1.065340829e-16)
(1.279440592 0.2410544386 -2.212492962e-16)
(1.037672933 0.1550007215 7.090324073e-17)
(1.20276331 0.1304614651 -1.468428702e-16)
(1.02616435 0.09857750676 2.666764738e-17)
(1.147968496 0.05981536601 -1.106762927e-16)
(0.9958464887 0.0582255475 3.201515224e-16)
(1.106881074 0.01353622807 -3.188828583e-16)
(0.9354136512 0.01340591313 2.709801622e-16)
(1.344431719 0.8349938733 -2.582127425e-17)
(0.9616550941 0.5316115226 3.247300035e-17)
(1.28995115 0.4525604069 -8.975992622e-17)
(0.9816404707 0.2744211155 -1.005325431e-16)
(1.223424119 0.2539376639 1.80742328e-16)
(1.002048131 0.1633194504 -3.591383253e-17)
(1.17250686 0.1377283908 1.121946969e-16)
(1.004128873 0.1042485621 -5.252322878e-17)
(1.133753764 0.06334548982 1.043631716e-16)
(0.9842055074 0.06224327574 -3.130649425e-16)
(1.102263117 0.01408350173 2.92363504e-16)
(0.9347939661 0.01505580012 -1.801193779e-16)
(1.156232706 0.8353529909 8.893784123e-17)
(0.8425585516 0.5320196453 -6.26595413e-17)
(1.188111831 0.4530564393 3.171620889e-16)
(0.9203719413 0.2748247587 -1.030145609e-16)
(1.166365681 0.2543511575 1.287747207e-16)
(0.9655637167 0.163539997 -1.316299432e-16)
(1.141716214 0.1381050729 1.625830129e-16)
(0.9804862855 0.1039342721 -5.043462986e-17)
(1.120314882 0.06417677676 -3.90857997e-17)
(0.9692502932 0.06094093895 2.629672954e-16)
(1.101151037 0.01618062858 -2.415364179e-16)
(0.9305198976 0.01332843766 1.386887879e-16)
(0.9726291487 0.7937432954 1.80863392e-17)
(0.7257712789 0.505088241 -3.070162596e-17)
(1.088427982 0.4303078869 -4.505325671e-16)
(0.860197071 0.2609272911 2.033141171e-16)
(1.110503879 0.2416428113 -3.710291985e-16)
(0.9299806424 0.1554431182 2.306304418e-16)
(1.111510082 0.1314914581 -2.395681589e-16)
(0.9583556894 0.09918582302 8.571610851e-17)
(1.105917338 0.06138449619 5.8629903e-17)
(0.957559417 0.05891402736 -3.31165306e-16)
(1.095833613 0.01532154641 2.888736174e-16)
(0.930828242 0.0141530853 -3.126003612e-16)
(0.8029797455 0.7124313394 9.552818962e-17)
(0.6183240491 0.453703447 -2.64549443e-17)
(0.9964434012 0.3866431365 6.152034385e-16)
(0.8047510585 0.2347140593 -1.526211342e-16)
(1.058802034 0.2174039521 4.461017647e-16)
(0.8969046144 0.1399742352 -4.079596139e-16)
(1.083370356 0.1185933619 3.507082e-16)
(0.9371494081 0.08913564123 -1.60061267e-16)
(1.093063741 0.05605287526 2.673495462e-17)
(0.9446609216 0.05230781797 -3.629755014e-17)
(1.093659365 0.01575939359 9.820275326e-17)
(0.9271345982 0.01175781633 -3.268849047e-17)
(0.6556124923 0.5953534815 5.50190501e-17)
(0.5247444475 0.3788756617 -4.539262712e-17)
(0.9166118938 0.323009252 -3.302558224e-16)
(0.7566169161 0.1960922462 -1.788559167e-16)
(1.014163902 0.1817443673 -5.605816051e-17)
(0.8685025574 0.1171631514 6.076031666e-18)
(1.059250361 0.09944262354 -8.401755037e-17)
(0.9194795228 0.07505694262 -2.665663133e-17)
(1.08161007 0.04724000043 6.966610955e-17)
(0.9352007935 0.0449795907 9.938013926e-18)
(1.089612594 0.01302483535 1.659993533e-17)
(0.9273246857 0.01210757393 -5.544872743e-17)
(0.5381404591 0.4484882544 -2.108781532e-16)
(0.4502125476 0.2858259248 -3.552353693e-19)
(0.8526804727 0.2437731883 2.687268697e-16)
(0.7179610771 0.1483816008 1.031729744e-16)
(0.9780013392 0.1375653941 2.346469566e-16)
(0.8453071133 0.08898580132 -2.084011507e-16)
(1.039267845 0.07573040428 3.875542256e-16)
(0.9046384828 0.05713760305 -2.491490949e-16)
(1.071929554 0.03678784461 1.080512604e-16)
(0.9263945482 0.03416926693 -1.740002688e-16)
(1.086984582 0.01179627076 2.676534559e-16)
(0.9248712104 0.009703379364 -2.602416513e-16)
(0.4561519854 0.2791496428 1.145013618e-16)
(0.3983372018 0.1779799663 -1.706209372e-17)
(0.8084459317 0.1519508464 -1.037055158e-16)