/*--------------------------------*- C++ -*----------------------------------*\
| =========                 |                                                 |
| \\      /  F ield         | foam-extend: Open Source CFD                    |
|  \\    /   O peration     | Version:  3.0                                   |
|   \\  /    A nd           | Web:         http://www.extend-project.de       |
|    \\/     M anipulation  |                                                 |
\*---------------------------------------------------------------------------*/
FoamFile
{
    version     2.0;
    format      ascii;
    class       volVectorField;
    location    "7";
    object      u;
}
// * * * * * * * * * * * * * * * * * * * * * * * * * * * * * * * * * * * * * //

dimensions      [0 0 0 0 0 0 0];

internalField   nonuniform List<vector> 
900
(
(0.243158 -0.0898538 -1.15692e-17)
(0.38247 -0.0662068 4.3509e-17)
(0.615159 -0.0536359 3.74287e-17)
(0.659803 -0.0392815 6.70836e-18)
(0.796034 -0.0335644 5.35833e-17)
(0.803618 -0.0258378 -9.52165e-18)
(0.895544 -0.0223025 -1.3248e-17)
(0.883686 -0.0182046 -5.59576e-17)
(0.954189 -0.0155896 -4.52369e-17)
(0.929462 -0.0134565 2.24329e-17)
(0.989568 -0.011027 -2.91763e-17)
(0.955356 -0.00959632 -6.86458e-17)
(1.00738 -0.00715387 2.70792e-17)
(0.9744 0.00140316 -2.6924e-17)
(0.999639 -0.0161788 1.21862e-17)
(0.28038 -0.265955 2.09806e-16)
(0.409574 -0.19273 2.67763e-17)
(0.636921 -0.154997 -1.94786e-16)
(0.675706 -0.112452 5.11986e-17)
(0.809432 -0.0944054 -1.81563e-16)
(0.813805 -0.0714122 5.43516e-17)
(0.904156 -0.0597318 9.24426e-17)
(0.890425 -0.0472481 1.47152e-16)
(0.959767 -0.0378878 6.16056e-17)
(0.933754 -0.0312241 7.0708e-17)
(0.99305 -0.02262 -2.37693e-17)
(0.957174 -0.0177128 1.73e-16)
(1.01059 -0.0131354 -1.10926e-16)
(0.970407 0.00503685 1.91845e-17)
(1.01121 -0.0207901 -6.26731e-17)
(0.353304 -0.430458 -2.04232e-16)
(0.462328 -0.311477 -1.1171e-17)
(0.678857 -0.250194 3.20916e-16)
(0.705972 -0.181401 4.28695e-17)
(0.834487 -0.15183 9.97905e-17)
(0.832457 -0.114646 -1.84162e-17)
(0.919517 -0.0954138 -5.91072e-17)
(0.902176 -0.0753705 -1.68652e-16)
(0.96906 -0.0598978 -7.5207e-17)
(0.940943 -0.0495861 -6.63097e-17)
(0.998405 -0.0355311 1.28531e-16)
(0.960535 -0.0279884 -1.47959e-16)
(1.01493 -0.0219638 3.39244e-17)
(0.966765 0.00682399 6.4699e-17)
(1.02331 -0.0336539 -8.95783e-17)
(0.458341 -0.576056 1.72869e-16)
(0.538417 -0.415898 -4.00968e-16)
(0.739612 -0.333801 -4.39164e-17)
(0.750103 -0.241757 -1.00267e-16)
(0.871254 -0.201883 -1.86934e-16)
(0.860158 -0.152171 7.10298e-17)
(0.942424 -0.126033 -7.69468e-17)
(0.919998 -0.0992496 -5.7006e-17)
(0.983034 -0.0779344 2.69486e-16)
(0.952037 -0.0643006 -2.11091e-16)
(1.00624 -0.0445936 -2.33979e-17)
(0.966336 -0.0356835 -6.74555e-17)
(1.01959 -0.0249123 3.77116e-17)
(0.967272 0.00327203 -1.86487e-17)
(1.02851 -0.0315699 9.80937e-17)
(0.591287 -0.696424 7.86744e-17)
(0.634902 -0.50319 4.98377e-17)
(0.816378 -0.403781 3.12057e-16)
(0.805803 -0.29259 -2.04152e-17)
(0.917454 -0.244133 2.8343e-16)
(0.894922 -0.184024 -2.50848e-17)
(0.971116 -0.152113 2.30321e-16)
(0.9425 -0.119866 1.09678e-16)
(1.00081 -0.0937598 -1.98737e-16)
(0.966559 -0.0778863 2.56761e-16)
(1.01687 -0.0538185 -5.46624e-17)
(0.973701 -0.0443574 1.05831e-16)
(1.02799 -0.0314757 -8.24106e-17)
(0.961059 0.00183134 -1.77469e-17)
(1.04352 -0.0377305 6.52187e-17)
(0.745956 -0.786274 -2.0531e-16)
(0.74693 -0.567511 -1.41433e-16)
(0.905657 -0.455273 -6.40161e-17)
(0.870772 -0.329808 -5.23329e-16)
(0.97147 -0.274861 2.03148e-16)
(0.935841 -0.207096 -4.9974e-16)
(1.0049 -0.170691 4.62045e-16)
(0.969243 -0.134369 -5.01369e-16)
(1.02162 -0.104182 4.93315e-16)
(0.983918 -0.0865199 -3.49489e-16)
(1.02807 -0.0574355 1.89564e-16)
(0.984254 -0.0497051 -6.64159e-17)
(1.03117 -0.0270597 2.41085e-17)
(0.9666 -0.00703868 2.38285e-16)
(1.04693 -0.0317945 -1.83334e-16)
(0.915792 -0.841801 7.02121e-16)
(0.87062 -0.608255 -1.04022e-16)
(1.00402 -0.488035 5.08907e-16)
(0.942459 -0.353856 1.77832e-16)
(1.03089 -0.294838 2.31772e-16)
(0.980803 -0.222287 1.2297e-19)
(1.0419 -0.183046 6.43628e-17)
(0.998593 -0.144214 -1.50605e-16)
(1.04457 -0.111613 2.87018e-16)
(1.00353 -0.0928274 -2.75003e-16)
(1.04168 -0.0616999 1.31564e-16)
(0.997287 -0.0525716 -2.06797e-16)
(1.0391 -0.0312086 1.2778e-16)
(0.971854 -0.00144095 4.06843e-17)
(1.05174 -0.0390223 -2.40938e-16)
(1.09298 -0.860544 -9.13096e-16)
(0.999175 -0.621347 -9.07074e-17)
(1.10632 -0.498569 -2.12892e-16)
(1.01713 -0.36148 -3.86852e-16)
(1.09286 -0.30093 -1.56128e-17)
(1.02797 -0.226816 -7.44191e-17)
(1.08082 -0.18633 5.75417e-17)
(1.02973 -0.146614 2.04075e-17)
(1.06895 -0.112803 -2.30252e-16)
(1.02426 -0.0934436 2.72804e-16)
(1.05586 -0.0612508 -2.70598e-16)
(1.00982 -0.0515932 4.33807e-16)
(1.04592 -0.0293819 -3.6599e-16)
(0.97597 -0.00189279 4.04756e-16)
(1.0531 -0.029642 -2.92239e-16)
(1.27004 -0.841816 6.15774e-16)
(1.12883 -0.608508 9.76846e-17)
(1.20933 -0.488529 4.22127e-16)
(1.09265 -0.35458 4.71813e-18)
(1.15544 -0.295244 1.90903e-16)
(1.07563 -0.222793 1.58252e-17)
(1.12007 -0.183012 -1.79067e-16)
(1.06105 -0.144291 1.21358e-16)
(1.09348 -0.111033 2.61923e-17)
(1.04492 -0.0922203 -1.59626e-17)
(1.07038 -0.0607013 8.24929e-17)
(1.02168 -0.0506024 -2.35316e-16)
(1.05448 -0.0300693 1.92397e-16)
(0.976496 0.000339014 -3.33513e-16)
(1.05615 -0.0286667 2.26872e-16)
(1.43887 -0.786391 -2.37199e-16)
(1.25167 -0.568074 -7.62986e-18)
(1.30684 -0.456362 -4.14133e-16)
(1.1641 -0.331288 2.1997e-16)
(1.21451 -0.275737 -3.51181e-16)
(1.12069 -0.208127 2.31022e-16)
(1.15696 -0.170638 -3.26822e-16)
(1.09048 -0.13457 2.76669e-16)
(1.11621 -0.103037 -2.43095e-16)
(1.06395 -0.0856068 8.3325e-17)
(1.08325 -0.0556889 -2.81517e-16)
(1.03197 -0.0463405 2.39411e-16)
(1.06129 -0.0266775 2.90873e-17)
(0.976415 0.000544124 -1.66141e-16)
(1.05572 -0.0196748 3.44389e-16)
(1.59233 -0.696928 7.3098e-17)
(1.36494 -0.503796 5.877e-17)
(1.39667 -0.405227 8.62731e-17)
(1.23048 -0.294411 5.31677e-17)
(1.26946 -0.245131 1.31167e-16)
(1.16288 -0.185211 -8.18748e-18)
(1.19169 -0.151735 1.43022e-16)
(1.11846 -0.119913 -8.57681e-17)
(1.13813 -0.0915671 1.13877e-16)
(1.08254 -0.0764508 5.9113e-17)
(1.09631 -0.0493448 2.18014e-16)
(1.04241 -0.0416682 -1.9485e-16)
(1.06883 -0.0227277 2.10178e-17)
(0.975666 -0.00130587 -3.15604e-17)
(1.05863 -0.0106965 -6.0245e-17)
(1.72338 -0.577175 -2.06754e-17)
(1.46082 -0.416764 1.54014e-17)
(1.4725 -0.335959 -1.82627e-16)
(1.28644 -0.244121 5.0375e-17)
(1.31547 -0.203374 -1.3703e-16)
(1.19819 -0.153832 -9.25767e-18)
(1.22031 -0.125854 4.97357e-18)
(1.14139 -0.0998024 3.15483e-17)
(1.1554 -0.0758042 -5.77274e-17)
(1.09704 -0.0639314 2.44961e-17)
(1.10527 -0.0404044 -1.13741e-16)
(1.0503 -0.0356756 7.13523e-17)
(1.07115 -0.0164582 -5.04463e-18)
(0.978958 -0.0052246 -3.21302e-17)
(1.05199 -0.000704873 7.00726e-17)
(1.82658 -0.432734 -5.41314e-17)
(1.53811 -0.312079 1.24291e-17)
(1.53351 -0.252557 8.77952e-17)
(1.33214 -0.183421 -1.10615e-17)
(1.35312 -0.152971 6.3447e-17)
(1.22746 -0.115696 1.1308e-17)
(1.24417 -0.0944161 -8.21628e-17)
(1.16092 -0.0750666 1.03372e-17)
(1.17037 -0.0564697 -3.14704e-17)
(1.1102 -0.0483517 1.01859e-17)
(1.11384 -0.0295003 -1.82838e-17)
(1.05864 -0.0285445 1.5389e-17)
(1.07493 -0.00947962 -6.7269e-18)
(0.980415 -0.0108708 2.0554e-18)
(1.05309 0.0105065 7.29269e-17)
(1.89707 -0.269639 5.33778e-17)
(1.59043 -0.193379 1.70889e-17)
(1.57451 -0.158116 -6.37594e-17)
(1.36296 -0.11456 3.46473e-18)
(1.37818 -0.0959417 -3.55241e-17)
(1.24707 -0.0725704 6.48081e-19)
(1.25973 -0.0590163 1.96494e-17)
(1.1737 -0.0471818 3.03607e-17)
(1.17936 -0.0347792 -3.80942e-18)
(1.1183 -0.0304877 2.17249e-17)
(1.11686 -0.017041 -5.95941e-18)
(1.06491 -0.018853 7.67952e-19)
(1.06871 -0.00165383 1.83101e-17)
(0.993251 -0.0124618 -1.25909e-17)
(1.04048 0.0183247 6.44024e-19)
(1.93219 -0.0954153 -2.76119e-17)
(1.61837 -0.0663495 7.85846e-18)
(1.5961 -0.0569052 1.01632e-17)
(1.38001 -0.040403 -3.62389e-19)
(1.39198 -0.0344205 1.23565e-17)
(1.25833 -0.0256496 -3.33157e-18)
(1.26869 -0.0204738 -1.4104e-17)
(1.18156 -0.0163894 -3.76617e-18)
(1.18516 -0.0109582 -1.01184e-17)
(1.12421 -0.0102869 -1.63953e-18)
(1.12035 -0.00364488 -5.13584e-18)
(1.07041 -0.0063871 1.78378e-18)
(1.06909 0.00412346 6.06721e-18)
(0.999795 -0.00683551 -2.86674e-18)
(1.03497 0.0193182 1.07458e-17)
(1.92997 0.0826169 1.56403e-17)
(1.61799 0.0636143 3.68816e-18)
(1.59511 0.0464338 -2.68364e-17)
(1.38024 0.0353109 -3.77572e-18)
(1.3917 0.0281409 -1.06363e-17)
(1.25875 0.0219631 -1.20569e-18)
(1.26852 0.0183909 3.07045e-19)
(1.18189 0.0145752 7.16767e-18)
(1.18462 0.0127408 -1.27297e-18)
(1.12431 0.00973639 -1.06822e-18)
(1.11872 0.00928932 -3.5367e-18)
(1.07175 0.00516143 -2.15241e-18)
(1.06294 0.0093081 3.86808e-18)
(1.0107 -0.0047335 -3.20473e-18)
(1.01764 0.0209753 4.65138e-18)
(1.89103 0.256352 -5.26034e-17)
(1.59172 0.190996 1.2961e-17)
(1.5735 0.147901 2.93427e-17)
(1.36557 0.110146 -9.81176e-19)
(1.37919 0.0901782 3.32414e-17)
(1.24993 0.0696925 -8.49756e-18)
(1.26102 0.0575305 -1.92017e-17)
(1.17661 0.0463385 -1.82239e-17)
(1.18029 0.0372031 -1.78336e-17)
(1.12165 0.0310399 -4.63503e-18)
(1.11634 0.0231428 -2.20188e-18)
(1.07232 0.0185133 -1.89072e-17)
(1.05947 0.0145389 1.11936e-17)
(1.0175 0.00102958 -5.08443e-18)
(1.01244 0.0187263 8.2606e-18)
(1.81654 0.418497 3.93911e-17)
(1.53861 0.309831 2.1039e-19)
(1.53062 0.242325 -1.08569e-16)
(1.33504 0.179684 -5.35491e-18)
(1.35358 0.147472 -4.30521e-17)
(1.23104 0.113512 4.64021e-18)
(1.24524 0.0929722 1.91867e-18)
(1.16445 0.0747066 4.15449e-17)
(1.17037 0.0583196 1.37068e-17)
(1.11367 0.0490852 1.53771e-17)
(1.10947 0.0336607 -3.21972e-17)
(1.06862 0.029403 4.18758e-17)
(1.05095 0.015478 -1.38357e-17)
(1.02417 0.00885238 -1.66964e-17)
(0.998244 0.0067179 1.04887e-17)
(1.71038 0.561773 -4.96063e-17)
(1.46266 0.415455 1.63913e-16)
(1.4695 0.326415 5.73391e-18)
(1.29103 0.242104 7.04085e-17)
(1.31678 0.199141 5.52726e-17)
(1.20337 0.153607 -5.55518e-18)
(1.22229 0.125794 8.57029e-18)
(1.14645 0.10184 3.35466e-17)
(1.15626 0.0791954 -1.20942e-16)
(1.10232 0.0681291 8.64399e-17)
(1.10169 0.0457637 7.76647e-18)
(1.06312 0.0428694 1.71434e-17)
(1.04775 0.0193542 -2.14825e-17)
(1.02157 0.0155432 2.85589e-18)
(1.00214 0.00754789 -6.12217e-17)
(1.57657 0.680081 -8.70653e-17)
(1.36585 0.502635 -3.05103e-17)
(1.39199 0.395688 -1.82861e-16)
(1.23479 0.293501 1.1868e-17)
(1.27015 0.241455 -1.68773e-16)
(1.1683 0.186321 3.37197e-17)
(1.19367 0.152204 -1.51498e-16)
(1.12388 0.123415 -3.78587e-17)
(1.1389 0.095155 7.83907e-17)
(1.08726 0.0825688 -1.21208e-16)
(1.09097 0.0535238 1.63441e-17)
(1.053 0.0545027 -5.30469e-17)
(1.03786 0.0158794 3.61512e-17)
(1.02225 0.0360246 -4.18299e-18)
(0.98918 -0.0146053 -3.19808e-17)
(1.42154 0.768348 2.03559e-16)
(1.25342 0.568147 8.08516e-17)
(1.30201 0.447762 6.92155e-17)
(1.16915 0.332393 3.60046e-16)
(1.21564 0.273431 -1.32552e-16)
(1.1269 0.21115 3.5134e-16)
(1.15984 0.172191 -3.22988e-16)
(1.09707 0.139852 3.6488e-16)
(1.11892 0.107524 -3.39142e-16)
(1.07059 0.0937469 2.48823e-16)
(1.08294 0.0613182 -1.29207e-16)
(1.04229 0.0615111 4.64505e-17)
(1.04489 0.022195 -6.45246e-18)
(1.00661 0.0357732 -1.82266e-16)
(0.996943 -0.0178944 1.53107e-16)
(1.25156 0.822546 -6.37603e-16)
(1.12944 0.60849 6.12593e-17)
(1.203 0.479867 -4.09736e-16)
(1.09659 0.356559 -1.84061e-16)
(1.15558 0.293307 -1.63468e-16)
(1.08114 0.226823 -2.31619e-17)
(1.12255 0.184794 -5.4204e-18)
(1.06726 0.150338 1.0682e-16)
(1.09618 0.115122 -2.1564e-16)
(1.05115 0.100114 2.20144e-16)
(1.06993 0.0643204 -9.1113e-17)
(1.0318 0.063385 1.83223e-16)
(1.03519 0.0195347 -1.03197e-16)
(1.01489 0.0350536 2.13485e-18)
(0.979943 -0.0259375 2.00309e-16)
(1.07433 0.840753 9.49479e-16)
(1.00008 0.622564 7.45337e-17)
(1.09979 0.491025 2.75557e-16)
(1.02082 0.365173 3.45536e-16)
(1.09297 0.300148 7.26363e-17)
(1.03343 0.23216 2.80138e-17)
(1.08391 0.188599 1.8884e-17)
(1.03668 0.15333 -8.73248e-17)
(1.07347 0.116566 3.12295e-16)
(1.0326 0.101368 -3.34133e-16)
(1.05905 0.0639409 3.28744e-16)
(1.02277 0.0638237 -4.80847e-16)
(1.03387 0.0177679 4.03402e-16)
(1.01011 0.0345498 -3.81034e-16)
(0.993678 -0.0281356 2.74733e-16)
(0.897374 0.821844 -6.9544e-16)
(0.870261 0.608948 -1.40492e-16)
(0.996248 0.48028 -4.91033e-16)
(0.944377 0.357532 -2.25186e-17)
(1.02969 0.293679 -2.19998e-16)
(0.984675 0.227421 -5.21716e-17)
(1.04406 0.184372 2.66657e-16)
(1.0042 0.150137 -1.96497e-16)
(1.04848 0.113405 -5.53961e-18)
(1.01073 0.0990252 2.61404e-18)
(1.04441 0.0606759 -1.15225e-16)
(1.0097 0.0630116 3.22513e-16)
(1.02634 0.0119163 -2.73721e-16)
(1.00868 0.03877 4.92304e-16)
(0.991725 -0.0337252 -3.43172e-16)
(0.728443 0.767062 3.03936e-16)
(0.746373 0.569158 -4.29132e-18)
(0.897545 0.448783 6.78366e-16)
(0.871494 0.334514 -3.90935e-16)
(0.969573 0.274587 5.7964e-16)
(0.938512 0.212902 -3.83782e-16)
(1.00676 0.1723 5.26683e-16)
(0.974174 0.140601 -4.49687e-16)
(1.02619 0.105698 3.90719e-16)
(0.991599 0.0929265 -1.47463e-16)
(1.0331 0.0556703 4.43801e-16)
(0.998759 0.0606747 -3.87878e-16)
(1.02417 0.00704059 -5.12966e-17)
(1.00312 0.0421943 2.54622e-16)
(1.00434 -0.0332487 -5.54758e-16)
(0.574791 0.6786 -5.64667e-17)
(0.63323 0.503874 -9.53161e-17)
(0.807433 0.397057 -1.60754e-16)
(0.804673 0.296223 -6.85517e-17)
(0.914395 0.242802 -2.92831e-16)
(0.895781 0.188369 5.57973e-17)
(0.972051 0.151875 -3.27667e-16)
(0.945644 0.123988 2.1795e-16)
(1.00466 0.0921819 -2.47048e-16)
(0.972233 0.0814446 -1.03516e-16)
(1.02119 0.0464889 -4.5844e-16)
(0.985737 0.0544062 3.95322e-16)
(1.02154 -0.000674147 -3.49274e-17)
(0.993484 0.0454093 3.23841e-18)
(1.01631 -0.0383204 1.76816e-16)
(0.443141 0.560513 -1.93594e-17)
(0.536267 0.417038 -3.45125e-17)
(0.730194 0.328394 4.2942e-16)
(0.74729 0.245448 -7.78995e-17)
(0.867038 0.201032 3.06322e-16)
(0.859 0.156305 6.59189e-17)
(0.942253 0.125885 -4.70058e-17)
(0.920984 0.103194 -6.50708e-17)
(0.986243 0.0765413 1.54635e-16)
(0.955273 0.0684168 -4.86746e-17)
(1.01149 0.0384667 3.29467e-16)
(0.973327 0.0473936 -2.11613e-16)
(1.02193 -0.00228806 3.62163e-18)
(0.980477 0.0406738 5.40225e-17)
(1.03029 -0.0281815 -2.06643e-16)
(0.339044 0.417916 2.41578e-16)
(0.459486 0.311416 1.29297e-17)
(0.669159 0.244785 -3.6384e-16)
(0.701953 0.183234 8.99323e-17)
(0.829771 0.14969 -2.5307e-16)
(0.830104 0.116501 -3.29976e-17)
(0.919033 0.0933706 3.16172e-16)
(0.901765 0.0765643 -3.24963e-17)
(0.972134 0.0560394 9.94404e-17)
(0.941899 0.0502134 -3.86314e-18)
(1.00418 0.026431 5.02729e-17)
(0.962018 0.0353324 -5.1889e-17)
(1.02316 -0.00813189 1.17489e-17)
(0.964814 0.0374569 -1.87361e-17)
(1.04609 -0.0304017 -2.42521e-16)
(0.267171 0.257048 -3.29531e-16)
(0.406321 0.192483 -6.76139e-17)
(0.626757 0.150791 2.33705e-16)
(0.670272 0.113353 -8.62494e-18)
(0.803605 0.0923056 1.33819e-16)
(0.809628 0.0721392 -1.76208e-17)
(0.902508 0.057642 -1.57878e-16)
(0.887976 0.0475353 -1.45812e-16)
(0.962084 0.0348294 -2.76348e-17)
(0.932553 0.0314579 -1.01503e-16)
(0.999587 0.0174641 -2.46644e-17)
(0.95516 0.0215217 3.596e-17)
(1.02591 -0.000627418 -8.76324e-17)
(0.956038 0.014983 6.86013e-17)
(1.0567 -0.0111467 8.64978e-17)
(0.230399 0.0849497 1.12693e-16)
(0.379249 0.0648669 -4.5484e-17)
(0.605327 0.0498787 -3.69767e-17)
(0.654422 0.0381019 -1.72834e-17)
(0.790727 0.0303859 -5.15106e-17)
(0.799751 0.0239982 8.65607e-18)
(0.894743 0.0185842 4.64051e-17)
(0.881703 0.0153024 4.62283e-17)
(0.957695 0.0103896 4.58972e-17)
(0.928773 0.00909893 3.11083e-17)
(0.997774 0.00333879 3.61765e-17)
(0.953868 0.00484348 -3.25113e-17)
(1.02604 -0.00528492 1.26489e-17)
(0.959319 0.00135906 2.33922e-17)
(1.05657 -0.00303039 -4.20724e-17)
(0.230543 -0.090942 1.17786e-17)
(0.379207 -0.0655883 -4.48069e-17)
(0.605138 -0.0531959 -4.01485e-17)
(0.654127 -0.0387552 -6.6081e-18)
(0.790389 -0.032711 -5.70682e-17)
(0.79935 -0.0249266 1.14625e-17)
(0.894398 -0.0208008 1.47663e-17)
(0.881337 -0.0168427 6.17535e-17)
(0.957495 -0.0132413 5.17142e-17)
(0.928552 -0.0118514 -2.42652e-17)
(0.997807 -0.00798236 2.97997e-17)
(0.95358 -0.00980248 8.33362e-17)
(1.0265 -0.00209658 -3.48698e-17)
(0.958097 -0.0200777 3.22794e-17)
(1.05793 0.0234256 -1.20563e-17)
(0.267294 -0.262885 -2.13031e-16)
(0.406492 -0.193019 -2.7048e-17)
(0.626956 -0.153855 2.04879e-16)
(0.670561 -0.113832 -5.51708e-17)
(0.804171 -0.0943945 1.92476e-16)
(0.810367 -0.0729068 -6.04811e-17)
(0.903627 -0.0596622 -9.94683e-17)
(0.889367 -0.0489582 -1.63691e-16)
(0.963916 -0.0374991 -6.90299e-17)
(0.934788 -0.0340519 -8.3096e-17)
(1.00212 -0.0215526 3.439e-17)
(0.958558 -0.0263793 -2.06622e-16)
(1.02815 -0.00433646 1.33039e-16)
(0.963241 -0.0358799 -2.99202e-17)
(1.05276 0.0316533 8.03642e-17)
(0.339423 -0.423476 2.05927e-16)
(0.459676 -0.312408 1.01955e-17)
(0.669069 -0.248188 -3.34482e-16)
(0.701767 -0.184296 -4.47771e-17)
(0.829707 -0.152351 -1.07749e-16)
(0.829997 -0.117943 2.32103e-17)
(0.919229 -0.0960907 6.24281e-17)
(0.901947 -0.078717 1.87411e-16)
(0.972823 -0.0595353 8.24975e-17)
(0.942625 -0.0534453 8.03301e-17)
(1.00581 -0.0318415 -1.4928e-16)
(0.963833 -0.0395249 1.73185e-16)
(1.02553 -0.00055772 -4.01914e-17)
(0.972616 -0.052052 -7.68144e-17)
(1.03393 0.0530138 1.04607e-16)
(0.443433 -0.565644 -1.76985e-16)
(0.536477 -0.417501 4.118e-16)
(0.730233 -0.331082 4.93489e-17)
(0.747433 -0.245959 1.04006e-16)
(0.867554 -0.202893 1.9862e-16)
(0.859744 -0.157024 -7.61292e-17)
(0.943676 -0.127597 7.57396e-17)
(0.922767 -0.104428 6.46378e-17)
(0.989012 -0.0788023 -3.03369e-16)
(0.95832 -0.070805 2.33649e-16)
(1.0159 -0.0425362 2.02863e-17)
(0.976523 -0.0516674 7.4074e-17)
(1.02873 -0.00496564 -4.35994e-17)
(0.981616 -0.0551304 2.694e-17)
(1.03287 0.0482449 -1.17393e-16)
(0.575183 -0.683237 -8.05714e-17)
(0.633727 -0.505074 -5.21529e-17)
(0.807496 -0.400266 -3.25131e-16)
(0.804854 -0.297672 2.1572e-17)
(0.914846 -0.245622 -3.0008e-16)
(0.89641 -0.190313 2.91973e-17)
(0.973292 -0.154914 -2.41637e-16)
(0.947144 -0.1267 -1.20485e-16)
(1.00705 -0.0957961 2.22628e-16)
(0.974994 -0.0848135 -2.85466e-16)
(1.02476 -0.0502844 6.38968e-17)
(0.991087 -0.0582599 -1.21235e-16)
(1.02365 -0.00033331 9.2718e-17)
(1.0116 -0.0627868 1.66726e-17)
(0.999289 0.0671426 -7.15078e-17)
(0.728718 -0.771013 2.05051e-16)
(0.746611 -0.569652 1.47695e-16)
(0.897265 -0.451124 6.18338e-17)
(0.87141 -0.335351 5.42622e-16)
(0.969661 -0.276554 -2.14358e-16)
(0.93877 -0.214159 5.28887e-16)
(1.00755 -0.174416 -4.89695e-16)
(0.975223 -0.142666 5.42613e-16)
(1.02837 -0.108769 -5.37702e-16)
(0.994179 -0.0962802 3.87831e-16)
(1.03827 -0.0615636 -2.09886e-16)
(1.00333 -0.0637409 7.70311e-17)
(1.0343 -0.0193901 -2.60507e-17)
(1.01365 -0.0468429 -2.63627e-16)
(0.992121 0.0565445 2.00895e-16)
(0.897491 -0.825314 -7.06371e-16)
(0.87099 -0.610083 1.06398e-16)
(0.996282 -0.482913 -5.18806e-16)
(0.944897 -0.358964 -1.799e-16)
(1.03039 -0.296082 -2.40698e-16)
(0.985822 -0.229201 5.91366e-19)
(1.04585 -0.186861 -7.10198e-17)
(1.00648 -0.152627 1.57158e-16)
(1.0519 -0.116512 -2.95857e-16)
(1.01414 -0.102664 2.85183e-16)
(1.05002 -0.0650376 -1.38076e-16)
(1.01274 -0.0687502 2.13222e-16)
(1.03445 -0.0144558 -1.23949e-16)
(1.01628 -0.0641204 -5.10933e-17)
(0.978155 0.0808281 2.73986e-16)
(1.0742 -0.843345 9.14437e-16)
(1.0004 -0.623062 9.25649e-17)
(1.09923 -0.493005 2.09631e-16)
(1.0208 -0.366301 3.97032e-16)
(1.09281 -0.302269 9.11498e-18)
(1.03357 -0.234059 8.43318e-17)
(1.08415 -0.191291 -6.65527e-17)
(1.03709 -0.156647 -1.27028e-17)
(1.07428 -0.120486 2.25753e-16)
(1.03329 -0.107083 -2.75425e-16)
(1.06108 -0.0693119 2.72029e-16)
(1.02386 -0.0738402 -4.42618e-16)
(1.03751 -0.0202378 3.79999e-16)
(1.02023 -0.0621352 -4.19282e-16)
(0.972175 0.0616988 3.07129e-16)
(1.25123 -0.824754 -6.17893e-16)
(1.13025 -0.609294 -9.62622e-17)
(1.20272 -0.481765 -4.2022e-16)
(1.09717 -0.357636 -7.11783e-18)
(1.15588 -0.295026 -1.8903e-16)
(1.08203 -0.227962 -1.39794e-17)
(1.12339 -0.186224 1.75985e-16)
(1.06883 -0.151778 -1.16397e-16)
(1.09779 -0.116465 -2.97697e-17)
(1.05384 -0.10276 2.44168e-17)
(1.07235 -0.0656089 -7.77379e-17)
(1.037 -0.0708405 2.32357e-16)
(1.03663 -0.0160006 -1.95232e-16)
(1.03188 -0.0640497 3.31688e-16)
(0.961271 0.0647232 -2.35139e-16)
(1.42076 -0.769762 2.36096e-16)
(1.25378 -0.568403 1.01713e-17)
(1.30126 -0.449166 4.01345e-16)
(1.16949 -0.333186 -2.08638e-16)
(1.21562 -0.275039 3.32104e-16)
(1.12772 -0.212405 -2.15823e-16)
(1.16045 -0.17403 3.0053e-16)
(1.09873 -0.141805 -2.55272e-16)
(1.12018 -0.109645 2.19744e-16)
(1.0736 -0.0967323 -7.67724e-17)
(1.08391 -0.0628864 2.50654e-16)
(1.05057 -0.0675765 -2.21618e-16)
(1.03799 -0.0175735 -2.02215e-17)
(1.0432 -0.059198 1.41475e-16)
(0.958217 0.0471369 -3.0281e-16)
(1.57576 -0.681163 -7.43338e-17)
(1.36661 -0.502986 -5.69489e-17)
(1.39136 -0.397 -8.08729e-17)
(1.23539 -0.294167 -5.33088e-17)
(1.27005 -0.242828 -1.18011e-16)
(1.16901 -0.187033 3.68402e-18)
(1.19376 -0.153459 -1.2845e-16)
(1.12512 -0.124296 7.23393e-17)
(1.13943 -0.0964682 -9.73408e-17)
(1.09008 -0.0840434 -5.89148e-17)
(1.09246 -0.0551393 -1.80331e-16)
(1.06122 -0.0576648 1.67007e-16)
(1.03652 -0.0165727 -1.70473e-17)
(1.05508 -0.0474987 3.48352e-17)
(0.947403 0.0304068 3.96137e-17)
(1.70901 -0.562435 2.11645e-17)
(1.46278 -0.415277 -1.3491e-17)
(1.46844 -0.32717 1.68203e-16)
(1.29146 -0.242093 -4.71615e-17)
(1.3167 -0.199883 1.24813e-16)
(1.20446 -0.153472 6.12487e-18)
(1.22298 -0.126303 1.31918e-18)
(1.14862 -0.101476 -2.33174e-17)
(1.15779 -0.0794536 4.47705e-17)
(1.10621 -0.0677873 -1.26728e-17)
(1.10352 -0.0459532 8.31376e-17)
(1.07186 -0.0445794 -5.21216e-17)
(1.04337 -0.0178142 2.7522e-18)
(1.05665 -0.0298414 2.18919e-17)
(0.956395 0.0102144 -5.31183e-17)
(1.81531 -0.418828 5.00576e-17)
(1.53922 -0.309743 -1.41842e-17)
(1.5298 -0.243241 -7.3684e-17)
(1.33571 -0.179886 6.05272e-18)
(1.35347 -0.148645 -5.25663e-17)
(1.23189 -0.113765 -7.99393e-18)
(1.24541 -0.0942381 5.72814e-17)
(1.16589 -0.0749116 -9.40663e-18)
(1.17089 -0.0597043 2.06226e-17)
(1.11645 -0.0490864 -9.2217e-18)
(1.1099 -0.0352202 1.12842e-17)
(1.07635 -0.0286816 -9.06395e-18)
(1.04475 -0.0181916 6.45352e-18)
(1.06028 -0.00715612 -6.49201e-18)
(0.94889 -0.0129474 -2.2912e-17)
(1.88936 -0.256598 -4.89468e-17)
(1.59125 -0.190471 -1.51302e-17)
(1.57199 -0.14826 5.43452e-17)
(1.36561 -0.109498 -2.26444e-18)
(1.37868 -0.0904586 2.89957e-17)
(1.25054 -0.0687015 1.21533e-18)
(1.26126 -0.0576171 -7.34864e-18)
(1.17814 -0.0448034 -1.68216e-17)
(1.18152 -0.0371669 5.69489e-18)
(1.12469 -0.0287478 -1.0452e-17)
(1.11935 -0.0236177 1.03648e-17)
(1.07773 -0.0145407 -9.51808e-18)
(1.06315 -0.0188026 -5.81187e-18)
(1.0381 0.00792883 2.89473e-18)
(0.969641 -0.0301215 -1.61776e-17)
(1.92855 -0.0826 2.53416e-17)
(1.61826 -0.0631986 -6.97588e-18)
(1.5942 -0.0470841 -8.14932e-18)
(1.38077 -0.035064 6.00231e-19)
(1.3916 -0.0290895 -1.0355e-17)
(1.25945 -0.0217295 2.44834e-18)
(1.26888 -0.0194988 8.58371e-18)
(1.18309 -0.0141146 5.4999e-19)
(1.18557 -0.0140123 5.61268e-18)
(1.12618 -0.00887352 -1.11382e-18)
(1.12072 -0.0111881 -5.44699e-19)
(1.07412 -0.003695 5.4239e-18)
(1.06485 -0.0141407 -8.71667e-18)
(1.02706 0.00848235 7.45685e-19)
(0.97592 -0.0338498 -3.46311e-18)
(1.93054 0.0953113 -1.59143e-17)
(1.61711 0.0668818 -2.41945e-18)
(1.59411 0.0565761 2.95351e-17)
(1.37934 0.041238 3.57695e-18)
(1.39092 0.0341395 1.41443e-17)
(1.25811 0.0267658 -9.16098e-19)
(1.26843 0.0201773 -2.13515e-18)
(1.18204 0.0178526 -1.34576e-17)
(1.18589 0.0104471 -5.58728e-18)
(1.12544 0.0121399 2.38851e-18)
(1.12294 0.00245047 2.6272e-18)
(1.07071 0.00923017 -1.30753e-17)
(1.07542 -0.00861804 4.02453e-18)
(1.00481 0.0162073 -2.03067e-18)
(1.00661 -0.0406696 -4.66205e-18)
(1.89575 0.269787 5.58321e-17)
(1.59023 0.193909 -1.26773e-17)
(1.5735 0.157563 -3.95952e-17)
(1.36307 0.114971 4.85144e-18)
(1.37791 0.0949793 -4.41944e-17)
(1.2472 0.0727022 1.46148e-17)
(1.25988 0.0575381 2.63283e-17)
(1.17398 0.0470797 3.49117e-17)
(1.18004 0.032651 2.53039e-17)
(1.11849 0.0301994 1.7186e-17)
(1.11927 0.0141422 -9.0211e-18)
(1.06205 0.0186234 5.28277e-17)
(1.07759 -0.00312236 -3.39531e-17)
(0.988786 0.0168978 1.54188e-17)
(1.01427 -0.0393544 -2.68836e-17)
(1.82523 0.432656 -4.10992e-17)
(1.53607 0.31221 8.60803e-19)
(1.53108 0.251906 1.22091e-16)
(1.33057 0.183933 7.20996e-18)
(1.35132 0.152332 5.09788e-17)
(1.22603 0.116405 -9.69259e-18)
(1.24294 0.0937873 -5.17803e-18)
(1.15973 0.0761072 -6.04819e-17)
(1.16992 0.0558214 -2.12409e-17)
(1.1091 0.0497569 -2.94547e-17)
(1.1158 0.0287265 5.36258e-17)
(1.05419 0.0296643 -6.70441e-17)
(1.0857 0.00838675 2.00268e-17)
(0.970916 0.0130233 2.86387e-17)
(1.03934 -0.0218003 -2.64812e-17)
(1.72235 0.577332 5.36893e-17)
(1.46014 0.417175 -1.74827e-16)
(1.47136 0.335398 -1.11951e-17)
(1.28603 0.244482 -7.41296e-17)
(1.31494 0.202382 -6.71841e-17)
(1.19775 0.15369 1.04856e-17)
(1.22027 0.124144 -7.81621e-18)
(1.141 0.0989711 -4.19478e-17)
(1.15597 0.0731236 1.54994e-16)
(1.09599 0.0622023 -1.10036e-16)
(1.10774 0.0371375 -4.6439e-18)
(1.04382 0.0330171 -2.43552e-17)
(1.08176 0.0133349 2.73724e-17)
(0.968007 0.0101047 -1.13392e-17)
(1.03213 -0.0267751 8.12425e-17)
(1.59141 0.696928 8.8943e-17)
(1.36239 0.503201 3.26984e-17)
(1.39402 0.403931 1.95966e-16)
(1.22822 0.294021 -1.29275e-17)
(1.26706 0.243529 1.85414e-16)
(1.16045 0.18451 -3.76218e-17)
(1.18953 0.14969 1.62514e-16)
(1.11593 0.118728 4.90482e-17)
(1.1367 0.0890001 -1.02955e-16)
(1.08016 0.0742479 1.50419e-16)
(1.09887 0.0474417 -2.62672e-17)
(1.03634 0.0344929 6.85489e-17)
(1.0873 0.0286306 -4.7544e-17)
(0.957924 -0.0189047 4.93482e-18)
(1.05536 0.00837903 3.75869e-17)
(1.43828 0.786496 -2.0336e-16)
(1.25057 0.568131 -8.71922e-17)
(1.30546 0.455695 -6.71156e-17)
(1.16297 0.331465 -3.79617e-16)
(1.21327 0.274823 1.43913e-16)
(1.11915 0.207916 -3.80696e-16)
(1.15569 0.169262 3.51479e-16)
(1.0884 0.133703 -4.06389e-16)
(1.11459 0.100694 3.84161e-16)
(1.06079 0.0830116 -2.87277e-16)
(1.08126 0.051869 1.50298e-16)
(1.0263 0.0386764 -5.7032e-17)
(1.06143 0.0241164 8.53255e-18)
(0.9759 -0.013273 2.07544e-16)
(1.04251 0.0103358 -1.69662e-16)
(1.26949 0.841997 6.41997e-16)
(1.1263 0.607155 -6.36651e-17)
(1.20688 0.48659 4.19686e-16)
(1.09031 0.35323 1.86166e-16)
(1.15308 0.292745 1.72566e-16)
(1.07305 0.22082 2.23673e-17)
(1.11776 0.179838 1.26956e-17)
(1.05803 0.141545 -1.13454e-16)
(1.09108 0.107041 2.25466e-16)
(1.04102 0.0887029 -2.30864e-16)
(1.06904 0.056926 9.83029e-17)
(1.01294 0.0451794 -1.90302e-16)
(1.06379 0.0318798 1.00146e-16)
(0.951091 -0.00869781 9.33096e-18)
(1.07435 0.0206082 -2.34751e-16)
(1.09281 0.860768 -9.50854e-16)
(0.997803 0.62083 -7.65083e-17)
(1.10471 0.497548 -2.72222e-16)
(1.01541 0.361103 -3.55788e-16)
(1.0909 0.299726 -6.59417e-17)
(1.02537 0.226168 -3.80171e-17)
(1.07821 0.185062 -9.15765e-18)
(1.02574 0.145898 7.93072e-17)
(1.06523 0.111622 -3.07225e-16)
(1.0177 0.0925774 3.36749e-16)
(1.05204 0.0610458 -3.30064e-16)
(0.996008 0.0478063 4.90268e-16)
(1.05132 0.0351114 -4.17222e-16)
(0.949089 -0.00644085 3.98003e-16)
(1.05305 0.0209438 -2.90572e-16)
(0.915549 0.842143 6.97465e-16)
(0.868537 0.606292 1.39075e-16)
(1.0021 0.485659 4.893e-16)
(0.940571 0.351853 2.4653e-17)
(1.02909 0.291991 2.18224e-16)
(0.978829 0.219854 5.01751e-17)
(1.04031 0.180098 -2.63327e-16)
(0.996325 0.141567 1.9115e-16)
(1.04309 0.108985 9.07844e-18)
(0.999898 0.0898632 -1.09715e-17)
(1.04156 0.0614647 1.10938e-16)
(0.986038 0.0450892 -3.19399e-16)
(1.05019 0.0416481 2.77401e-16)
(0.941173 -0.0145644 -4.89734e-16)
(1.06101 0.02767 3.52369e-16)
(0.746059 0.786663 -3.02769e-16)
(0.745627 0.566303 1.80285e-18)
(0.904181 0.453634 -6.65268e-16)
(0.86914 0.328495 3.79454e-16)
(0.969655 0.272791 -5.60348e-16)
(0.933649 0.205194 3.6823e-16)
(1.00281 0.168413 -5.00612e-16)
(0.966414 0.132015 4.28074e-16)
(1.0193 0.102164 -3.67089e-16)
(0.979812 0.083291 1.40182e-16)
(1.02718 0.0585351 -4.12856e-16)
(0.973868 0.038915 3.69566e-16)
(1.04097 0.0441116 4.22544e-17)
(0.940683 -0.0234381 -2.30284e-16)
(1.04476 0.0254633 5.12399e-16)
(0.591297 0.696828 5.77141e-17)
(0.633512 0.50078 9.34936e-17)
(0.815113 0.401004 1.55265e-16)
(0.804603 0.289985 6.88859e-17)
(0.916312 0.240808 2.7954e-16)
(0.893803 0.180917 -5.10227e-17)
(0.970197 0.148804 3.12528e-16)
(0.941438 0.116531 -2.04056e-16)
(1.00008 0.0910722 2.30066e-16)
(0.965071 0.073804 1.03445e-16)
(1.01726 0.0544414 4.19649e-16)
(0.968189 0.0321912 -3.66535e-16)
(1.03459 0.0478275 3.0641e-17)
(0.947874 -0.0342544 -7.76788e-18)
(1.03197 0.0338261 -1.55378e-16)
(0.458508 0.576491 1.8852e-17)
(0.53748 0.414079 3.25521e-17)
(0.738562 0.331493 -4.15083e-16)
(0.749036 0.23953 7.47733e-17)
(0.870118 0.198831 -2.94003e-16)
(0.859156 0.149065 -6.2706e-17)
(0.941624 0.122497 4.12596e-17)
(0.919564 0.0953345 5.67044e-17)
(0.982973 0.0743311 -1.40838e-16)
(0.952367 0.0589527 3.72111e-17)
(1.00768 0.0438564 -2.97235e-16)
(0.96493 0.0219768 1.91352e-16)
(1.02512 0.0402168 -1.52045e-18)
(0.961306 -0.034471 -4.43109e-17)
(1.01659 0.02073 1.89178e-16)
(0.353265 0.430924 -2.37593e-16)
(0.461613 0.308823 -1.12434e-17)
(0.678284 0.24704 3.49603e-16)
(0.705548 0.178225 -8.49156e-17)
(0.834137 0.147726 2.42107e-16)
(0.832376 0.110491 2.94708e-17)
(0.919545 0.0906658 -2.91169e-16)
(0.9028 0.0703328 3.12676e-17)
(0.969732 0.0549066 -8.8698e-17)
(0.943001 0.0433133 2.43267e-18)
(1.00033 0.033361 -4.37015e-17)
(0.964992 0.0142585 4.53629e-17)
(1.01714 0.0366198 -1.19185e-17)
(0.979722 -0.0391891 2.37781e-17)
(1.00027 0.0296195 1.90305e-16)
(0.280626 0.266404 3.25019e-16)
(0.409106 0.190378 6.55751e-17)
(0.636339 0.152091 -2.24258e-16)
(0.6751 0.109522 7.30802e-18)
(0.808731 0.0904792 -1.27315e-16)
(0.813278 0.0674017 1.55627e-17)
(0.90364 0.0548909 1.45112e-16)
(0.890473 0.0421422 1.31995e-16)
(0.959759 0.0319754 2.56222e-17)
(0.935255 0.0245993 8.99677e-17)
(0.99367 0.0164162 2.00478e-17)
(0.962273 0.00694022 -2.69449e-17)
(1.00874 0.0127211 7.50735e-17)
(0.987552 -0.0168405 -5.80572e-17)
(0.991284 0.00980247 -7.01132e-17)
(0.243203 0.090222 -1.10435e-16)
(0.382444 0.0636187 4.45479e-17)
(0.615264 0.0504 3.48587e-17)
(0.660041 0.0359615 1.69386e-17)
(0.796402 0.0291299 4.94066e-17)
(0.804195 0.0212689 -7.81301e-18)