/*--------------------------------*- C++ -*----------------------------------*\
| =========                 |                                                 |
| \\      /  F ield         | foam-extend: Open Source CFD                    |
|  \\    /   O peration     | Version:  3.0                                   |
|   \\  /    A nd           | Web:         http://www.extend-project.de       |
|    \\/     M anipulation  |                                                 |
\*---------------------------------------------------------------------------*/
FoamFile
{
    version     2.0;
    format      ascii;
    class       volScalarField;
    location    "36";
    object      Theta;
}
// * * * * * * * * * * * * * * * * * * * * * * * * * * * * * * * * * * * * * //

dimensions      [0 2 -2 0 0 0 0];

internalField   nonuniform List<scalar> 
3012
(
-2.50467
1.7899
4.05784
-0.354429
28.2177
10.5625
-21.9091
-4.86193
-2.64381
3.48377
-2.98029
3.46491
1.01639
-0.700972
2.50755
0.827833
-21.5519
-24.8419
18.8624
23.8122
1.08193
0.0384427
1.70626
0.948689
3.80963
-1.95721
4.91548
-1.62609
-1.51652
3.84972
-0.120457
2.34357
0.479135
2.83121
-0.865053
1.43719
1.673
7.8002
-5.99205
-0.541675
0.977878
3.11847
1.13809
-1.00838
0.997996
1.01353
-1.13721
3.12426
0.511785
1.30763
0.477034
1.16583
-4.1564
1.72782
1.35247
6.86476
-3.96515
-14.6258
1.26673
12.0829
-15.0211
13.5186
22.6807
-5.5259
0.949561
-1.70162
4.09548
1.40404
1.79866
0.980313
1.07818
0.208374
2.24099
1.06189
0.122989
-0.419991
-0.729134
2.72863
1.748
0.273128
0.911303
-1.47623
1.14396
3.51367
2.85304
0.741417
1.09658
-0.804158
-0.324934
3.9933
-1.69798
2.67454
2.98672
-1.66535
-0.0259137
4.03851
-6.00459
4.08537
-3.6445
6.171
4.101
2.07757
0.296444
-1.78113
3.38569
-0.955782
3.17584
-1.07082
2.14529
0.90457
-0.296993
1.08165
-1.03761
3.29712
1.13149
1.14497
2.45244
0.090869
2.3623
0.186361
-0.770361
-0.0966748
0.936001
2.60123
5.44231
-9.69562
7.08277
-8.19961
28.9245
-31.2394
3.67359
-4.89441
-3.75107
2.48842
11.6061
4.57105
-16.0686
12.5911
24.968
-7.56963
9.39352
-2.18987
-5.41448
5.12479
6.99408
9.34024
-4.56181
-3.1285
5.3413
-25.3839
-5.99576
22.4175
0.236583
-0.64428
1.75032
2.74197
2.45293
3.49325
-1.31228
-0.221886
2.51916
-0.399138
1.95434
0.107371
-1.75593
-8.12828
3.83527
10.3593
0.46514
3.0177
-1.08499
1.42802
9.78028
9.94283
-9.34779
-10.3614
-7.9911
11.5173
17.1155
-10.6656
-8.57385
4.00199
8.65261
-3.53981
3.43281
-1.59847
-1.12815
4.12698
-0.161978
2.64187
2.1273
-0.745312
2.32207
-0.212812
2.06367
0.00695376
2.11982
3.10129
-1.01849
0.0293932
0.874593
-0.453401
0.790654
2.09249
1.19695
4.5068
-2.11825
1.35309
1.40277
1.17732
1.17789
0.304908
1.13891
1.75831
-0.071577
0.996678
3.0823
1.35961
0.497641
-1.07566
0.184388
1.05707
0.889281
0.357062
0.157398
-0.259733
1.38408
1.94881
0.926473
1.91545
0.997244
-0.422977
0.988971
-0.120474
1.34626
0.159872
2.89507
2.27946
-0.413435
-1.09638
2.32887
-0.928718
3.15779
-0.104823
-0.27092
3.26279
2.52818
-0.817707
1.60298
-1.72908
0.608168
3.99265
-1.89647
4.15866
3.82315
-1.45365
5.92867
2.00046
-1.79319
1.2649
1.21291
2.17532
-0.0318488
-0.666691
0.707564
-0.0442082
0.631366
1.59163
2.147
-0.469849
-1.03889
2.7703
1.31689
4.16586
0.992891
-1.83459
1.54561
-1.20754
3.21301
0.377498
-5.37228
2.48631
0.320251
8.5135
0.896817
1.49319
0.186997
1.04625
19.3306
-17.8679
-22.2364
15.5172
-19.8035
26.4075
6.99219
-1.28786
-0.450982
-1.94927
2.77913
4.31117
3.01858
-0.697336
-1.70876
4.26906
2.01295
-1.31963
3.4173
-0.126859
-0.896553
-1.23769
1.5074
0.821697
5.58057
-1.37109
-3.90761
2.59974
3.3
3.68984
-1.10724
-0.78049
0.492949
1.38684
0.388756
1.40644
0.00382105
-0.865748
2.07998
3.05356
-4.32003
-0.434231
3.42209
8.89611
2.50067
0.380715
1.63381
-0.540755
2.02041
0.0556817
2.17219
-0.16866
1.19997
0.630141
1.38304
0.175639
-0.217875
3.5102
-1.26701
2.07442
1.1169
3.49786
1.24422
-1.13904
0.78637
1.88878
-0.200571
0.0477187
0.766876
0.234754
1.8368
1.19607
-0.635061
2.53743
2.81946
-0.371767
0.173345
3.28191
-1.17467
1.92189
0.113404
2.39084
-1.69889
0.826224
-2.97208
3.92297
6.29393
-0.239629
1.97634
2.06518
-0.268904
-0.171535
-0.404301
0.502683
0.898606
1.69791
-0.0871017
-1.46477
3.62769
2.11496
4.04144
-1.9388
-1.14528
5.18579
3.20963
-1.95496
-2.17693
2.76953
-1.11044
2.35602
-0.241293
3.22911
2.33772
-0.996623
-0.846021
1.98053
0.906781
-1.15397
1.40908
3.37791
-2.45129
-4.80612
10.0998
9.18335
1.68179
-3.05106
1.39084
6.37917
-12.4896
8.86553
-11.2769
9.64107
-0.936708
-0.529522
3.44908
2.85382
1.56843
-0.29373
0.69284
1.79637
-0.258043
2.49397
0.753897
0.998094
-1.54294
-0.11438
2.34177
3.82607
-2.09808
1.35951
3.85358
0.187067
-2.62139
2.62647
4.54384
-0.489958
-0.0963127
-0.20461
1.81507
-0.108864
5.99213
0.499671
-3.7262
1.44509
1.26024
1.28594
1.32582
0.68822
-33.4577
5.98382
-9.30056
31.0343
5.58061
2.29715
0.34303
-2.62851
1.213
1.11305
0.565992
0.509089
10.572
9.16759
-5.16421
-4.74308
2.74652
5.40721
-2.31669
-0.194375
1.8378
0.302483
0.190243
1.59205
-1.47522
-2.23594
4.93153
4.18382
0.974898
-1.53633
0.879951
3.60499
-22.281
11.8825
-12.6639
23.1393
1.82957
2.06076
-0.418619
-0.241195
0.803319
-0.707752
1.07372
2.62184
-0.644949
2.37299
1.89511
-1.12342
0.25008
3.32496
-1.03347
1.71814
-24.2638
-23.0857
19.3499
21.8051
0.0126105
2.90856
2.38028
-0.676988
5.7424
0.0627669
3.19302
-2.82227
-0.318063
2.47649
-0.364357
2.48931
-0.0420104
2.16853
-0.177461
1.94964
2.94968
0.554367
-1.11221
1.46897
24.3951
-23.4363
-5.48167
6.37986
4.34136
3.38024
-1.8375
-1.06128
4.46595
0.582143
1.74082
-2.24465
0.208956
2.39928
-2.77424
5.50884
0.956314
-1.13265
3.11011
1.3263
2.36503
2.76866
-0.784041
-0.446156
0.533723
1.84021
-2.31164
4.79893
0.0255728
2.19318
-0.966364
3.03951
0.148181
-1.05594
1.34555
2.55836
1.06633
-0.281084
0.0545427
2.09527
3.59097
2.51094
-0.384445
-1.49887
1.19642
-0.524852
0.340542
2.23438
0.25184
0.978373
1.03884
1.73157
-19.1977
30.1759
-32.8173
16.3882
0.683906
1.96993
-2.37903
5.15862
3.91598
2.20772
-1.69023
0.142871
-0.39849
5.7366
-2.1795
4.68883
-15.9192
20.5086
-10.4183
13.7425
5.7868
-19.9932
-0.613288
25.9018
-1.9832
2.12409
3.65672
-0.566958
-0.349878
3.33774
2.31014
-1.13669
-3.99878
3.75466
-1.68433
6.16129
1.44041
-0.820198
0.234177
2.96714
0.19394
1.55926
0.462976
1.14045
-3.01898
2.53836
3.93333
-1.57119
1.59748
2.84498
-0.837584
0.909351
1.11697
0.946535
0.492243
0.909198
2.72605
0.0434
1.58478
-1.1301
16.9377
-0.223278
7.19745
-10.1546
-2.7476
3.65221
-0.471281
5.56772
-2.78858
-3.95361
5.98359
7.82337
-5.49838
6.48659
-3.51664
11.0371
3.47458
-15.3664
12.3445
-5.314
13.0221
-1.96725
8.51891
-4.89237
-5.32063
5.72636
4.68171
-4.23001
1.29324
1.37687
0.131684
0.218151
-0.412554
5.30873
-2.63015
3.09744
-24.2367
-3.7569
24.0328
4.30518
-1.56034
3.60296
-0.38061
2.44751
5.55217
-2.73295
3.12417
-0.325021
0.703269
1.31234
1.02623
0.730653
4.46872
2.13508
-1.9841
0.306724
1.40731
0.105915
0.220511
0.517096
-17.5613
-20.3623
18.1607
20.5686
2.11744
4.09593
-1.60414
0.186167
3.6119
-1.14023
-0.808796
3.618
2.90374
0.617307
1.51911
-0.377291
3.44035
2.8629
-1.15428
-0.743602
1.81462
-1.13314
0.593051
3.60157
0.400676
2.21582
1.68357
-0.329254
-11.2307
14.8337
12.3793
-14.5152
0.459459
3.96864
1.11965
-2.72485
-2.87065
2.78364
5.22168
-0.152353
-2.27636
-4.02111
3.00197
4.94374
2.23339
-6.36473
9.09374
0.367698
0.0538823
-2.86012
4.41206
1.94306
0.710485
3.26265
7.47669
-3.99439
2.13265
-0.0659315
2.5289
-0.304117
2.70425
2.11039
-0.218082
-0.746124
-1.8889
1.58772
6.41227
1.85952
1.83904
-0.327476
-0.559216
2.0473
-2.41361
3.16713
5.79375
-0.219828
2.91039
0.0954392
1.67432
-0.949844
4.87109
0.450961
2.27009
-2.27438
3.78297
1.19171
-2.06487
0.767465
0.0764979
2.15702
-1.99306
4.24962
-0.429064
0.618611
2.63272
1.43317
1.47953
1.74263
2.74581
-0.357288
3.90178
-1.00951
-1.43248
3.34876
2.1998
-1.26839
2.61243
-0.723769
0.877555
4.62688
1.50787
-2.16399
-1.30186
3.20354
2.56522
-0.593156
3.14459
-1.2459
1.3576
0.336211
-1.10846
3.08037
3.28686
-0.752676
0.803045
1.53751
3.37698
-1.17227
-0.455465
0.153627
2.40414
2.13734
0.702959
1.25027
-14.2679
15.9062
-0.416146
3.15772
2.27779
-1.08087
-4.48691
5.32755
6.3093
-5.67852
3.57396
-10.3349
-2.7327
10.3657
2.77821
0.651992
-0.549583
1.32914
10.4605
2.76822
-3.35688
3.90366
2.51452
0.673745
2.50581
6.7484
-0.236018
9.24186
2.43523
-7.59886
-2.83169
3.49683
5.35051
-1.00647
0.865695
0.466812
0.835385
1.18555
1.11731
0.670342
0.991914
0.508139
-5.74944
0.927979
5.9196
-0.408013
2.47767
1.84732
-0.574767
0.324956
1.62287
-0.308521
0.034284
2.01486
-2.52209
0.168928
6.71918
8.7962
1.48321
-3.86353
1.57497
7.19352
-1.94463
3.11844
4.70734
-0.505507
-3.66911
6.80254
-0.618111
3.9726
3.11628
2.01526
0.0713509
-0.942663
-0.575084
2.93534
-0.66927
3.00553
1.51001
-3.87833
0.204077
5.71781
2.70533
-0.0994524
-0.856606
1.62661
1.07371
-1.19715
3.42142
0.871082
4.49763
-2.23314
0.85584
1.33789
-1.33077
0.801936
0.311766
2.38056
2.93695
-0.775606
-0.701302
2.84185
1.52476
0.641579
3.30938
-1.04411
0.0219699
-0.973445
2.59971
1.53178
0.383932
1.54878
2.23542
-0.283693
1.25425
-0.370691
1.06478
2.49625
-2.41094
3.97441
-1.86135
4.49914
2.98764
1.087
0.535142
-1.1641
-1.31667
3.39443
2.73576
-0.609111
2.03975
-0.820827
-0.242482
2.54482
-0.623791
2.77415
-0.0369917
1.90912
3.69302
-1.5966
-1.4556
3.77213
3.09746
-2.27425
-0.489899
4.89413
1.8694
-1.29489
0.195636
3.5203
3.24784
2.1083
0.0665589
-1.11589
-0.758586
2.90511
1.288
0.984198
3.75835
2.18794
-0.108627
-1.74096
10.5862
1.91785
-5.25219
2.2872
-0.655823
0.62732
-10.6877
10.5805
5.04918
0.62119
1.71288
-2.77279
1.09305
2.20689
0.58497
-0.487282
0.811153
-0.413289
2.31234
0.947244
1.42826
-0.886621
3.08592
0.64921
-4.33122
5.73959
4.02772
-2.57527
4.3106
-6.30981
-10.8486
8.92733
1.11978
2.11114
0.639191
-0.351385
1.088
-1.38444
1.24034
3.64635
0.426571
2.50982
1.54511
-0.471811
-1.16785
2.22666
3.50505
-0.0299829
-0.419639
2.8044
2.28355
-1.05435
-0.194294
2.25358
-0.103004
2.06857
18.37
-10.3161
-4.97262
10.5917
-1.17929
0.169422
3.48394
2.11706
2.6781
-0.248482
-0.431016
2.42514
3.80487
-1.53482
3.23093
-1.26173
3.1154
-0.606418
2.93614
-0.62486
2.63125
1.29785
-0.653095
0.654698
1.10796
3.34397
1.10702
-1.12197
4.18087
-1.70206
0.405195
2.24548
3.3453
-1.00353
2.56286
-0.302426
-0.0149093
1.13943
0.66252
1.81513
1.1739
3.96306
1.19741
-1.64164
3.54963
-1.38763
0.543097
1.59765
3.25606
-0.894742
4.30825
-1.95263
-3.60618
-2.94962
4.23029
4.91379
-0.578088
3.79187
2.82986
-1.54881
-0.150858
2.18933
1.63965
0.250859
-0.190452
2.26491
0.868852
1.16707
-0.528434
3.60055
-1.77954
5.54888
0.450483
2.17994
1.35629
-0.278266
3.00022
-0.774688
2.52715
-0.210299
5.52565
3.32513
-3.2662
-0.986051
4.30823
3.18558
-2.04736
-0.978337
-4.08135
11.3464
-13.0208
1.82392
3.43289
1.62068
0.546881
-1.17152
0.421807
0.506661
0.648184
0.599193
0.377278
0.295776
0.979618
1.21128
0.607345
0.294439
0.299711
0.666937
1.16076
-1.50596
1.10317
3.82895
-0.924183
0.351678
0.602176
1.9132
1.60251
-0.060965
-0.748938
0.867197
1.58597
0.336692
2.72537
-0.735769
-6.48396
3.07043
7.02289
-2.09805
2.73919
-3.31877
8.28767
-8.30663
1.92548
0.592016
1.13401
-0.109552
5.43231
0.0107278
3.52073
-2.6351
0.228338
1.64423
0.309777
1.32552
0.458507
3.01545
1.72941
-0.924213
0.803352
1.12389
0.686181
0.927168
2.96351
1.3992
0.821899
-0.983657
1.57029
0.527463
0.271818
0.984555
-0.582254
-2.37956
3.23925
5.14941
3.36483
-2.22377
3.5124
-2.06566
1.50867
0.747177
0.282386
1.06732
1.33219
5.45878
1.32049
-2.77522
1.83158
-0.696524
-0.00955724
2.63661
2.22492
-1.83198
0.692428
5.11463
-1.63555
-0.697782
4.18633
5.76783
-0.518028
2.3987
0.654421
1.47038
2.1943
-0.0371452
2.05692
-0.0714531
5.11395
-0.819617
4.33257
-1.2704
2.83894
4.91825
-4.23273
-6.70902
4.75877
-2.32404
2.7414
-0.353321
2.00264
-0.759337
0.141604
2.71249
3.08914
0.636258
1.73585
-0.867599
2.51861
0.533457
1.45314
-0.639895
2.17854
0.0844291
-0.176039
1.97108
-1.22803
2.05986
3.62962
0.282553
-17.3258
16.8019
15.9069
-17.8977
3.40226
-0.566907
-1.34427
2.94246
2.00251
-2.38976
-0.788836
3.47592
0.72691
0.904477
1.05451
0.667263
-0.55969
1.04356
-1.44596
2.1291
4.56363
-1.42033
-1.72431
4.55575
-0.0785807
2.7231
-0.651159
2.09938
5.38715
0.366289
2.22099
-2.67894
0.144744
1.64111
0.200089
1.32762
3.01008
-0.645552
-2.04624
1.77516
1.76305
-0.820125
2.70418
0.148737
-1.84402
4.17352
-0.469336
2.77579
0.241957
1.36854
0.121617
1.32489
-1.35432
4.78246
-2.02092
4.21594
1.57327
0.633996
1.22767
0.372271
0.170274
1.93082
2.52052
-0.580517
1.29076
1.85619
0.609901
0.0817078
-0.967475
1.02213
0.678551
2.89452
-0.768755
-1.60094
4.02551
3.09739
-0.116894
-0.120802
1.47926
1.596
0.0495453
1.19853
1.52008
0.342192
2.02627
-0.199124
0.317391
0.968789
-1.76904
0.569381
0.0562199
2.49962
2.74003
5.32546
-2.20991
0.48297
19.0181
-12.3556
11.2886
-6.16241
2.25263
0.852035
-0.377451
0.513136
10.4002
-19.701
26.5363
-4.37015
-5.08712
-1.00902
9.07754
4.88476
3.02095
-2.54966
-0.13227
5.0799
1.36373
0.290029
-1.00323
2.70513
1.04388
1.04237
-0.458812
2.6108
0.0175614
1.46713
1.9431
-0.264959
0.588655
0.447542
1.43495
1.25598
1.55812
0.84482
0.145826
0.884789
1.95381
0.113382
5.24472
-1.97462
1.62319
1.94781
-0.0583285
-0.265756
3.30819
-1.03523
-0.914523
3.38331
9.10624
21.2506
-14.876
-3.31276
-2.11865
3.59181
3.83523
-2.32491
-22.8037
11.045
20.4517
-15.0935
5.00865
2.55031
1.87894
7.30859
3.06522
-0.695241
2.76648
-0.80898
0.266256
-2.44094
2.7305
5.26339
1.76075
-1.26354
2.35556
-0.644998
1.70574
-0.761595
2.85555
0.558462
-1.13867
3.47768
0.402148
1.82333
0.119349
1.31158
0.441838
1.1984
-1.49651
4.36023
-1.88715
4.53235
0.0214038
0.493452
1.31848
1.07615
-1.90541
4.00862
-1.4709
4.6446
1.97357
-0.581274
2.5651
0.153075
1.99361
-1.89545
4.33386
0.304533
3.34942
3.77447
-1.14095
-1.51044
-0.395548
0.605286
2.48886
1.41174
0.908226
0.497408
-0.841761
2.28849
4.84474
1.96658
-2.92361
0.241326
3.17334
1.33692
-1.09242
0.720247
2.49986
-1.97197
3.38122
-0.793837
5.71432
-4.38691
0.0846926
1.24299
3.47483
0.606468
1.58691
-1.50738
1.55858
-0.651965
-2.25952
3.37809
0.196855
-0.225004
1.83128
2.30588
-22.909
-3.9024
20.1906
2.75143
2.63339
-0.476469
2.12942
-0.0702405
1.01301
0.658703
1.82005
-0.0512657
0.328391
0.0594653
1.44455
1.69371
0.9004
-0.442735
2.60588
1.14507
1.95367
0.316018
2.54785
-0.450919
0.388925
0.733688
1.28058
1.31442
-21.4964
15.985
-13.0397
21.9811
0.41479
0.325659
1.32377
1.09486
1.46023
-0.0976347
-0.186073
1.87419
1.44356
0.240881
1.71324
0.735456
0.206088
0.557454
1.309
0.816194
0.327501
2.01385
1.82873
0.163701
-0.182516
1.39564
2.12454
0.417808
-0.753168
2.35953
3.07443
-0.19649
0.477006
0.326529
0.848472
1.07861
1.07137
0.811655
2.896
-0.769864
-1.66248
-2.2592
6.28581
6.68662
-0.632607
-0.128739
2.25591
2.74313
0.990804
-2.14567
4.73436
1.17612
-1.31246
0.19246
2.01518
3.37193
-0.0799654
1.84496
0.237945
1.10912
-0.968269
3.15829
0.805747
1.5404
1.80749
-0.160595
0.787913
0.656571
-0.398234
2.91448
-1.12688
2.11184
1.77676
-0.00210321
-1.10548
2.99773
-0.475239
3.44453
-0.992585
2.80893
-2.28558
0.855761
1.61664
4.78383
-5.49481
-24.7399
5.97383
26.3292
0.128009
-0.146445
5.13529
4.82619
3.89061
-1.70764
-0.288164
2.14827
5.31445
2.38345
0.671493
-2.68775
3.16363
3.62915
-0.932929
-1.43793
-1.03237
2.84764
2.35396
5.67287
2.97652
-3.42456
5.08777
-1.49208
0.203357
2.59358
-2.16467
5.39294
-0.821402
-0.446225
2.75238
0.763435
1.8912
0.696894
1.29846
0.20212
-1.61334
1.40756
-0.575166
2.28703
-2.63944
1.73113
1.15872
6.04816
-0.6277
2.3015
0.780486
0.876165
3.39098
2.96632
-1.28614
-1.01175
-0.827141
3.10911
1.95039
0.405393
1.87387
-4.13654
-0.544072
5.45413
-1.49141
-0.536488
3.55099
2.88484
2.43622
-0.0952226
2.05996
-0.440406
2.25832
-0.710065
2.86109
-0.489407
-0.588061
1.73137
0.692245
2.92107
1.79056
-0.760176
0.211113
2.73939
3.66407
-1.5671
0.50996
1.53897
5.26246
-1.58336
-1.47876
4.87966
-0.310872
-0.368221
2.30791
2.44575
1.64459
-0.71197
2.85747
0.351058
-1.15036
1.80994
3.57585
0.481094
-1.01692
-2.1142
3.33209
4.51162
-1.01681
0.999724
3.25271
1.14786
1.85394
-1.07397
1.33057
-1.3403
-0.620595
-2.33154
4.4817
5.63898
1.88861
0.92938
-3.03294
5.9417
1.17555
-0.254658
2.37064
-0.218697
3.48968
-1.40133
3.56858
-1.60578
-0.165855
1.14505
2.11492
0.746396
4.1931
-2.13382
1.40966
0.443624
3.54652
-1.44562
1.93721
0.524924
-5.32104
-4.57632
7.01083
6.07399
4.35161
-2.13231
1.53334
0.595768
0.381681
-1.8683
3.21993
1.29084
-3.40299
7.61966
-4.55469
6.32385
-0.609725
3.73513
-1.62772
2.31226
2.35258
5.3975
-2.3964
0.431868
-1.74048
4.09105
1.31891
0.791788
-13.1206
7.70963
-8.95481
13.3164
2.48251
0.949204
0.955236
-0.446168
-0.25007
1.68834
2.2669
0.39669
0.439924
0.498769
1.32492
1.19552
0.908315
0.93502
1.79278
0.0278285
3.04286
-1.75666
2.14225
-1.12392
-0.0480464
2.16079
3.12967
-0.865112
-2.03927
4.12408
2.43316
0.0982313
-1.03742
3.13795
2.24859
-0.286507
1.01068
1.91512
-0.165609
0.735667
-0.587355
1.67093
3.35118
-2.1606
2.7608
-0.46946
4.88507
1.95365
2.62965
-0.644202
2.77707
-0.475202
0.17254
3.07488
1.66554
-0.577281
1.66199
1.01419
0.574311
3.5078
-0.896661
1.90238
0.520696
3.16511
2.4848
0.826712
-0.563969
1.49987
-0.1183
2.05309
-0.0224683
2.34353
0.483328
-0.718288
1.59238
2.79206
3.35833
-1.54883
0.607945
0.996629
2.13777
-0.055441
0.574599
1.33781
-0.425622
-0.783737
2.90313
2.56128
1.96632
0.257895
0.126042
1.84258
4.24492
-2.76022
3.69103
-3.19732
2.23159
3.10117
-0.00874052
-1.06932
6.29073
0.506693
3.1685
-1.34818
2.18906
-0.426843
-5.0521
6.49139
-2.24443
2.82838
-0.657178
4.65743
-0.754541
2.929
2.71718
-1.02878
3.66868
1.3034
0.628469
-1.77655
1.29074
3.13075
-1.30151
0.403433
-6.13796
3.25282
-1.91095
7.64117
2.84594
-1.79115
4.89885
-0.296876
5.67927
1.18409
1.59096
-2.76042
-3.9054
1.90687
1.38864
7.12262
1.74254
-0.00787366
5.10792
3.15886
0.207244
2.60877
1.38927
-1.00776
1.42317
-2.03472
3.72619
0.238144
-0.664166
1.09094
2.81795
1.02957
3.20124
-0.311263
2.59212
-0.971535
-1.35286
1.42573
3.61902
0.77249
0.386951
2.59131
-0.505632
1.83417
0.473402
1.94344
-0.0284325
1.83819
-3.09567
10.8516
4.93552
-8.36151
0.557312
1.93667
1.40003
0.0201794
0.488274
0.270381
1.48702
1.70387
0.327642
1.68925
2.56127
-0.505016
-0.140193
2.08249
2.17352
-0.0149003
1.89274
1.83951
-0.132567
-0.143407
1.40549
-0.562357
2.28633
0.347694
-0.315156
2.15777
2.30294
-0.22297
-3.29485
2.85463
0.271303
6.49892
5.86926
-1.34637
5.42913
-2.26892
3.46531
-0.627533
0.989234
-2.83403
1.61253
0.109542
-1.50391
3.47371
0.78139
0.270439
1.51891
0.859288
0.562386
1.42396
1.29118
0.396738
2.49734
1.31614
0.192684
-0.925969
-1.331
5.96931
-2.73311
4.80021
-0.0915055
2.17581
3.22907
-1.24336
0.0705455
0.153567
5.59784
-4.68128
2.77378
1.52115
6.51785
-2.31742
-2.86932
2.69936
0.686377
6.40274
-1.09365
1.58657
3.38811
-2.82351
-13.9386
24.3688
11.6237
-26.8204
-1.06389
4.15009
4.13799
7.48475
-0.970746
3.3192
3.45054
-1.19788
0.652105
4.64374
0.136993
-3.46128
-1.24555
3.23048
1.34137
0.446138
3.00881
-3.46397
5.04134
-1.77251
3.84858
-0.885972
-2.12502
2.19291
2.76785
-0.525094
2.23942
-1.14562
3.04814
1.62535
-0.972082
0.437308
2.57024
-0.622507
-0.983678
3.09028
0.903186
-5.86287
5.93387
-1.04939
1.29723
-0.366798
0.712732
2.2238
-0.224809
1.69183
-0.292192
1.51156
-0.716147
0.940118
0.405271
1.94239
0.0239264
-0.312737
2.32881
2.51974
-0.0394526
1.95169
2.15337
0.0472872
1.67751
2.61313
-0.545887
0.271292
4.82413
-2.4969
1.08567
1.18726
-5.53875
-10.2809
10.3378
5.73664
0.0112157
-1.69985
4.12499
2.35796
0.316581
3.72136
2.51579
-1.38941
-4.93051
5.09189
-4.54281
5.73209
2.0497
1.21613
-0.420559
1.05339
2.1647
-0.0997756
0.47955
1.60235
-1.49797
3.26593
-2.14786
2.64055
0.745452
15.2112
3.35285
-10.3321
-20.3705
5.72831
-4.53781
20.7397
-1.46771
-1.01069
2.68641
3.26483
5.0785
0.508556
2.26219
-1.70057
0.858737
-3.3435
6.53571
2.22149
8.23548
-0.826537
1.8868
-7.41553
3.6518
-4.41876
-3.29837
4.99439
-0.905499
1.84362
2.89293
0.0372259
0.821631
0.655658
0.18115
1.46259
0.0504756
2.54588
1.82621
-0.488045
4.13129
1.51174
0.351602
-2.42342
-0.32181
2.49026
-0.227293
2.54581
0.901501
-0.539174
1.24886
2.56116
2.39905
-1.42574
3.43789
-0.462663
3.48476
-1.55898
4.05593
-1.10125
0.318056
2.15914
1.50533
-0.302579
-27.8524
9.30159
-11.8733
26.1454
2.28547
-0.309938
2.25289
-0.22199
0.311363
3.52049
-1.7584
1.51284
2.70752
-0.523424
1.39675
0.774073
7.29587
3.44436
-3.32199
0.59744
0.870167
-0.177879
2.13692
1.1197
1.95472
0.202069
0.0565384
1.56671
1.96924
-0.930607
2.96675
0.019565
2.8382
-0.912731
2.15791
-0.253447
-9.66214
12.3114
15.287
-3.91215
-2.37501
4.04051
-0.898868
2.72539
5.2459
-1.95748
3.75173
-1.01675
5.4147
0.993275
-3.4846
1.55719
2.27077
-3.82213
-0.865397
5.43832
-6.58808
-25.0598
4.90254
21.9232
-2.08807
2.13628
4.17283
0.34141
-3.62421
-3.12796
4.41056
3.95951
-4.58709
-0.552599
3.41139
8.65314
1.60977
0.322426
1.40642
0.390438
-4.36675
4.30794
-4.16564
3.95757
-1.2443
2.61035
2.4072
-0.892419
0.67253
0.304432
1.45004
0.848437
0.431568
-1.94121
4.43462
2.02065
-1.1166
3.96988
3.2477
-1.55874
-2.91006
3.1517
-0.914849
4.96465
2.68349
3.58109
-0.502262
-1.4186
3.08041
3.64978
-0.86673
-1.25964
-0.135774
3.82251
-1.84931
1.96015
1.71096
0.0232268
0.823376
1.11078
0.0855088
-1.55553
3.92572
2.06608
-2.59204
1.32597
1.08602
4.55844
-1.27566
-0.865405
3.57415
3.85523
8.40856
0.318718
3.14652
-3.90469
2.33371
4.1812
-1.87468
0.269508
2.64294
1.86913
0.0304649
-0.688065
0.591724
1.03953
3.07429
-1.29953
-0.61819
2.2594
2.86165
-0.172087
-0.584452
2.63526
2.80895
-0.299026
2.0685
26.4848
4.43084
-19.6704
3.227
0.0303291
1.89734
-1.34477
3.07902
-2.86403
5.8038
-0.858495
0.608225
4.26164
1.50909
-1.82657
-0.755657
5.91874
-2.63612
3.75318
0.45413
1.29713
0.528835
1.45203
1.64506
0.147823
1.07959
0.665954
-1.69782
1.78583
-1.72512
2.08535
5.40998
-1.31545
4.77842
-1.26837
4.14497
-1.87204
-0.220173
2.53837
4.79347
1.34124
-4.05528
-0.989044
4.95256
-0.826502
-2.36501
3.21068
2.64894
6.41465
-1.49609
-4.19263
-1.88716
1.91014
3.85358
-0.0258813
7.00805
-5.07739
-1.77516
3.93587
0.185517
3.64466
-1.64236
1.6323
2.7213
-1.50347
-4.77706
5.96471
-2.59842
1.29463
6.14579
2.06416
12.6171
-17.1152
-12.1192
18.3019
-0.730354
11.2479
5.70807
-1.41038
2.46872
-0.322016
2.03826
-0.650075
2.76476
1.39166
-0.74285
0.527266
1.78181
4.25359
-3.62312
-1.35768
4.36834
4.97154
-0.985591
-0.733224
-0.433604
3.59816
-2.14271
1.76692
2.54363
5.3538
0.581063
-2.39184
5.89586
-0.368236
1.98492
-3.82829
-4.65569
3.14003
6.33941
-1.52339
3.52899
1.75533
0.533662
-1.58859
0.349444
2.59733
1.80247
-0.461601
-0.317446
1.97294
0.169498
2.48289
6.04763
1.11151
2.59374
-2.32669
17.1471
-24.057
21.8214
-19.5406
0.852738
-1.1387
3.50315
1.52429
1.73427
0.165218
2.3079
-0.127979
2.62988
1.40891
0.991761
-0.41913
-0.628955
2.94676
2.89863
-0.690694
1.88969
-1.52485
0.287988
3.66349
0.370949
1.22289
-1.29269
3.28767
-0.899303
0.564889
3.03902
1.58122
1.82746
0.547767
0.065159
1.82361
1.8522
-0.00120085
1.97932
0.0920478
2.49857
-0.0108573
-0.374608
2.14038
-1.18054
4.34427
3.42604
-1.90817
2.89685
2.12441
-1.14153
-2.26143
-24.7078
9.54603
-8.43705
25.3716
2.20162
-2.40138
4.50258
0.058437
0.530096
1.27114
-1.5888
3.63709
0.364947
-1.28071
3.37842
1.8285
1.67203
0.524103
-1.75107
3.97695
-0.490081
1.07333
2.60036
0.526519
-1.01151
3.01881
1.45253
0.526978
3.64424
-1.51643
0.806195
1.54666
1.37169
-0.223896
3.47961
-2.42714
-1.26309
0.457563
1.94767
3.47945
-1.80495
2.84506
-0.582447
4.17748
2.70931
-0.707925
3.15909
-1.00029
2.88325
-0.0301347
-0.756242
2.04102
0.513819
2.1439
-2.88756
5.64731
8.31726
1.68765
-5.82939
1.40531
5.87926
-3.15344
4.83406
-3.98915
-2.31529
-1.18948
4.91749
3.88956
-1.55558
3.64989
2.76906
-0.631603
4.67812
15.1096
-10.3659
-0.479352
5.24374
7.74366
-2.65143
-3.83146
-4.95911
4.8186
5.97643
-4.39743
0.0344233
0.110764
1.93427
1.85804
-0.453064
2.32815
1.44799
0.449488
0.260827
1.86901
4.11307
-1.83838
-2.53344
1.09545
5.17956
1.6551
-2.87885
-0.355949
3.06091
5.61375
-2.49908
2.62526
4.3185
-1.00828
2.18615
3.85966
-0.104174
-1.78624
4.71768
1.16849
1.21934
-2.33296
2.22565
-3.63341
3.23528
9.19198
-1.03156
0.729387
3.03298
1.23836
2.06346
2.32661
-0.337157
0.0980288
-0.818902
2.80026
1.24102
0.550977
3.88601
-2.31474
-2.88386
3.06966
-1.41947
-0.201841
1.91514
3.30865
1.96468
-0.213688
-0.30809
1.94849
0.418294
2.21709
-0.312018
1.61973
5.15742
1.19047
2.11144
-2.07471
2.00606
0.823752
-0.078434
1.04044
-0.459922
1.68125
2.44933
0.179266
-19.1827
-17.7139
14.4976
17.6207
0.756839
-0.345184
2.06168
0.909593
-1.72889
0.486961
1.70326
4.16973
-1.3376
2.97417
-0.754851
3.44184
-1.57377
3.05625
4.37596
-0.581795
4.53181
-2.66305
-2.75687
4.60292
5.90849
-0.505844
-2.25639
3.45445
6.00854
0.779456
2.33695
-2.22473
3.07047
-1.19269
3.63111
-0.707258
0.492793
1.34471
2.71126
-0.742002
1.43685
-0.428989
0.523199
2.44295
1.68904
2.4072
-0.294304
-0.444209
1.63908
0.296303
0.0667395
1.4342
1.98017
-4.56706
-0.526925
6.84268
0.274335
0.692597
1.0253
1.3881
1.11109
0.739776
0.0902948
0.456672
4.60064
-1.73595
-2.5414
5.45173
0.22375
0.7963
1.07716
0.43735
6.38443
0.171642
2.69273
-3.46481
-27.2697
1.98773
24.2683
-4.56004
-0.090903
2.38047
2.02768
-0.411861
4.44892
3.4988
-1.6886
-0.124629
2.50494
-0.518238
0.116608
1.86046
2.97275
0.465243
1.32875
-1.0386
0.888946
3.28397
0.677884
-1.56689
4.92451
0.0724671
-2.44728
2.39415
7.89898
1.95282
0.469087
-4.35309
4.09148
-1.57821
3.83506
-1.51935
2.77772
-4.04981
-0.677271
5.89451
2.51696
1.32703
-0.476784
0.846992
2.55238
0.158831
-1.0712
1.34073
1.0867
-1.82495
3.23029
0.50366
-2.65655
3.45576
3.4698
-2.07247
4.32897
-0.994078
3.40215
-1.78082
-1.77044
4.05396
1.93337
0.203864
4.17414
-2.06209
1.39174
0.710501
0.876637
2.04093
-0.460482
0.802335
5.27481
3.64022
-0.625333
-1.7287
-2.02833
0.431429
1.76088
4.33763
3.76931
-1.38258
-0.860594
3.05857
0.040105
-4.03025
7.02713
2.26985
0.621788
1.32966
2.66568
-0.69842
-3.74438
4.94283
4.20328
-4.37204
0.556053
0.767981
1.18884
0.641446
0.0330275
1.25697
1.77215
0.544561
-0.0375161
2.33006
-2.28831
4.52669
0.750509
1.09903
-0.771499
2.65668
-7.08358
5.20886
9.40526
-1.52266
6.49338
-5.37195
9.07068
-2.32318
2.98111
5.00562
-0.405755
-2.51233
6.14058
-0.116228
1.24752
-4.358
9.08262
-5.20795
2.30085
1.0374
2.67755
2.4492
-1.37358
-0.809553
-2.61839
6.68931
4.11932
-5.41284
4.80917
-3.16482
-1.30037
7.26933
-1.18027
-1.46369
3.53637
3.85806
4.47856
-1.97734
-1.34564
3.86804
3.25216
-1.93358
-1.30003
3.79755
0.708084
0.724139
1.29661
0.0466961
1.32924
1.01009
0.506028
0.250867
-0.0471178
2.17563
-1.41583
3.73872
-0.889494
3.12082
-0.684177
2.89513
-3.95689
-3.59352
4.77015
4.65191
2.28675
-0.0284896
-0.484029
1.67876
2.5438
0.554379
1.59808
-0.506828
2.27659
-0.376407
1.6767
0.226436
2.04951
-0.246913
2.28366
-0.497066
3.51197
-1.23411
3.06568
-1.5976
5.68445
-1.32685
4.70803
-2.91848
-6.33053
8.11231
-5.7086
6.37595
0.378023
1.87041
-2.68668
5.13908
)
;

boundaryField
{
    insideCircle
    {
        type            myTemperature;
        value           nonuniform List<scalar> 
24
(
5.00866
2.16558
1.24914
7.57022
-2.68581
-0.996264
6.89314
5.54727
0.360654
-0.542193
5.25467
4.81345
-1.09046
2.37925
2.97734
6.04888
3.3067
0.08122
5.56332
1.96364
1.72415
-0.0943477
5.22504
3.29178
)
;
    }
    outsideCircle
    {
        type            myTemperature;
        value           nonuniform List<scalar> 
124
(
2.45243
0.320329
1.63406
-0.295621
0.655043
1.59816
2.03752
1.74654
1.25652
0.290221
0.435022
2.43256
-0.0904242
1.89001
1.16939
1.20009
2.2527
1.0203
1.28553
-0.723868
-0.448317
0.69048
2.50287
1.51586
1.11693
-0.499113
2.53106
-0.732991
-0.135081
-0.269583
2.45044
1.76921
2.46058
0.798206
-0.439461
1.37183
0.882337
0.0486332
2.2109
1.11803
-0.467365
1.05221
2.49861
1.07511
0.23359
-0.375744
1.89079
2.61644
0.886777
-0.704412
2.75608
1.20897
1.92539
0.0964553
2.25146
-0.192288
0.488844
2.00093
2.01206
-0.243739
-1.91572
-1.59256
4.19496
0.329863
2.64048
0.585334
-0.241262
1.39531
-0.424089
2.17146
-0.0139187
2.55992
2.27797
-0.247771
0.630982
1.56829
1.8703
-0.046764
0.0686079
1.91124
-0.743402
0.824961
2.84755
1.34824
-0.0249533
2.56427
-0.402371
2.15466
-0.0878795
-0.162494
1.88087
2.33012
1.92769
2.58763
-0.321511
0.41723
2.46144
0.681906
0.0680926
1.03681
2.05163
-0.0771061
0.561357
1.44093
2.42062
-0.49252
1.34749
0.715684
0.173928
2.51832
1.90963
-0.341272
-0.273879
2.07292
-0.0190119
2.47319
2.24974
0.144173
2.39194
-0.412058
2.64974
1.0898
0.632373
-0.649958
)
;
    }
    topAndBottom
    {
        type            empty;
    }
}


// ************************************************************************* //
