/*--------------------------------*- C++ -*----------------------------------*\
| =========                 |                                                 |
| \\      /  F ield         | foam-extend: Open Source CFD                    |
|  \\    /   O peration     | Version:  3.0                                   |
|   \\  /    A nd           | Web:         http://www.extend-project.de       |
|    \\/     M anipulation  |                                                 |
\*---------------------------------------------------------------------------*/
FoamFile
{
    version     2.0;
    format      ascii;
    class       volSymmTensorField;
    location    "9";
    object      sigma;
}
// * * * * * * * * * * * * * * * * * * * * * * * * * * * * * * * * * * * * * //

dimensions      [0 0 0 0 0 0 0];

internalField   nonuniform List<symmTensor> 
2000
(
(0.0619723 -0.0536027 5.11294e-10 0.0124435 4.51624e-10 4.685e-27)
(0.0633483 -0.0552155 1.3644e-09 0.00264493 1.11575e-09 4.75297e-27)
(0.0632699 -0.0550837 2.0147e-09 -0.0043665 1.60171e-09 4.94569e-27)
(0.0620835 -0.054057 2.46712e-09 -0.00920808 1.93262e-09 4.94662e-27)
(0.0606066 -0.0522924 2.75302e-09 -0.0129422 2.13989e-09 4.90119e-27)
(0.0586121 -0.0503618 2.9081e-09 -0.0155083 2.25208e-09 4.83026e-27)
(0.0569648 -0.0478884 2.9654e-09 -0.0179176 2.29347e-09 4.66798e-27)
(0.0548121 -0.0457584 2.95385e-09 -0.0195042 2.28448e-09 4.44825e-27)
(0.053667 -0.0428411 2.9007e-09 -0.0219271 2.24375e-09 4.20691e-27)
(0.0508056 -0.0406745 2.84505e-09 -0.0228571 2.1989e-09 3.94747e-27)
(0.0667919 -0.0443565 7.8096e-10 0.000981352 6.88886e-10 4.68693e-27)
(0.0691299 -0.0448755 1.9108e-09 -0.00920186 1.5498e-09 5.12637e-27)
(0.0696035 -0.0441397 2.73915e-09 -0.0162804 2.17035e-09 5.41612e-27)
(0.0687666 -0.0428917 3.28816e-09 -0.0210564 2.58112e-09 5.65162e-27)
(0.0673727 -0.0410564 3.6149e-09 -0.0245411 2.82998e-09 5.78393e-27)
(0.0656124 -0.0391989 3.77635e-09 -0.0270507 2.95889e-09 5.72175e-27)
(0.0636968 -0.036881 3.82171e-09 -0.0289576 3.00268e-09 5.57528e-27)
(0.0616763 -0.0350698 3.79133e-09 -0.0304325 2.98959e-09 5.34385e-27)
(0.0593347 -0.0326693 3.7179e-09 -0.0313356 2.94249e-09 5.04837e-27)
(0.0562872 -0.0314423 3.63281e-09 -0.0313985 2.8867e-09 4.78309e-27)
(0.0692879 -0.0337647 1.22332e-09 -0.00860969 1.0815e-09 4.68073e-27)
(0.0720225 -0.0331516 2.70782e-09 -0.0185906 2.18755e-09 5.60942e-27)
(0.0726804 -0.0319828 3.73997e-09 -0.025329 2.96717e-09 6.46041e-27)
(0.0720259 -0.0307175 4.37921e-09 -0.029837 3.46008e-09 6.85021e-27)
(0.0707053 -0.0291646 4.72426e-09 -0.0329886 3.73972e-09 6.94816e-27)
(0.0690393 -0.0277452 4.86204e-09 -0.0352419 3.86685e-09 6.83914e-27)
(0.0670766 -0.0260612 4.86152e-09 -0.0367495 3.88949e-09 6.62307e-27)
(0.0649622 -0.0246425 4.77476e-09 -0.0377889 3.8444e-09 6.35042e-27)
(0.0622725 -0.0228354 4.6397e-09 -0.0379288 3.75897e-09 6.0672e-27)
(0.0587625 -0.0212007 4.48716e-09 -0.0370373 3.65965e-09 5.86372e-27)
(0.0683741 -0.0224758 1.95725e-09 -0.0151814 1.7406e-09 3.85469e-27)
(0.0714244 -0.0207004 3.87515e-09 -0.0248151 3.13555e-09 6.40233e-27)
(0.0722585 -0.0190752 5.11793e-09 -0.0311472 4.08931e-09 7.78707e-27)
(0.0717457 -0.017797 5.81718e-09 -0.0352808 4.65153e-09 8.37087e-27)
(0.0703946 -0.0165694 6.13606e-09 -0.0379554 4.93545e-09 8.48995e-27)
(0.0687176 -0.0155895 6.2025e-09 -0.0397825 5.02837e-09 8.31236e-27)
(0.0665118 -0.0145467 6.1101e-09 -0.0406706 4.99574e-09 8.02488e-27)
(0.0641503 -0.013696 5.92467e-09 -0.0410879 4.88512e-09 7.67648e-27)
(0.0611418 -0.0125374 5.69118e-09 -0.0405288 4.73012e-09 7.31892e-27)
(0.0574906 -0.0114179 5.44297e-09 -0.0391253 4.56049e-09 6.84578e-27)
(0.0647437 -0.0109929 3.17864e-09 -0.0194797 2.85223e-09 6.09383e-27)
(0.0675272 -0.00823265 5.58331e-09 -0.0281354 4.55213e-09 8.38477e-27)
(0.0682525 -0.00639245 7.00161e-09 -0.0337309 5.66913e-09 9.89031e-27)
(0.067753 -0.00521948 7.69142e-09 -0.0373294 6.25943e-09 1.04516e-26)
(0.0664435 -0.0044132 7.90888e-09 -0.0395576 6.49605e-09 1.04392e-26)
(0.0647889 -0.00389279 7.83436e-09 -0.0409754 6.50231e-09 1.01005e-26)
(0.0626041 -0.00343304 7.58986e-09 -0.0414832 6.36549e-09 9.70269e-27)
(0.0602021 -0.00300082 7.25572e-09 -0.0414942 6.1458e-09 9.20928e-27)
(0.0572217 -0.00228455 6.88364e-09 -0.0406156 5.88385e-09 8.78264e-27)
(0.0537413 -0.00142279 6.50902e-09 -0.0390577 5.61277e-09 7.96003e-27)
(0.0574945 -5.60697e-05 5.19394e-09 -0.0206186 4.71163e-09 5.73821e-27)
(0.0599872 0.00356796 8.06069e-09 -0.0281629 6.65905e-09 1.12752e-26)
(0.0605731 0.00561957 9.54217e-09 -0.0329146 7.87426e-09 1.2995e-26)
(0.060071 0.00667104 1.00945e-08 -0.0358994 8.40378e-09 1.32398e-26)
(0.0587682 0.00707323 1.0095e-08 -0.0376063 8.50453e-09 1.31852e-26)
(0.0571844 0.00714484 9.78396e-09 -0.0386203 8.34454e-09 1.24109e-26)
(0.0550536 0.00705053 9.31142e-09 -0.0387667 8.03554e-09 1.17574e-26)
(0.0527833 0.00699446 8.76958e-09 -0.0385272 7.65032e-09 1.10998e-26)
(0.0499867 0.00721013 8.21403e-09 -0.0374847 7.23544e-09 1.02686e-26)
(0.0469175 0.00761655 7.67949e-09 -0.03603 6.82576e-09 9.42039e-27)
(0.0475988 0.00982909 8.44659e-09 -0.0195257 7.75211e-09 1.49588e-26)
(0.0494426 0.0140328 1.15869e-08 -0.0255187 9.74109e-09 1.67273e-26)
(0.0497821 0.0161021 1.28965e-08 -0.0292629 1.08951e-08 1.73465e-26)
(0.049234 0.0169983 1.31051e-08 -0.0315601 1.12044e-08 1.6856e-26)
(0.0480446 0.0170288 1.27264e-08 -0.0328201 1.10321e-08 1.63211e-26)
(0.0465914 0.0167394 1.20565e-08 -0.0334872 1.05938e-08 1.51488e-26)
(0.0447037 0.0162017 1.12656e-08 -0.0334429 1.00237e-08 1.40925e-26)
(0.0426829 0.0158053 1.04501e-08 -0.0330802 9.40334e-09 1.3365e-26)
(0.0402562 0.0156278 9.66334e-09 -0.0320657 8.78153e-09 1.23564e-26)
(0.0376806 0.0157754 8.93478e-09 -0.0308035 8.19132e-09 1.11982e-26)
(0.0346123 0.0178369 1.35089e-08 -0.0157759 1.25405e-08 2.31759e-26)
(0.0359379 0.0224999 1.64582e-08 -0.0202272 1.41173e-08 2.31725e-26)
(0.0360688 0.0246155 1.71938e-08 -0.0229297 1.49109e-08 2.25965e-26)
(0.035538 0.0253797 1.67631e-08 -0.0245478 1.47507e-08 2.11406e-26)
(0.0344926 0.0251128 1.57974e-08 -0.0253624 1.41133e-08 2.01687e-26)
(0.0332712 0.0245233 1.46249e-08 -0.0257516 1.32529e-08 1.85026e-26)
(0.0316984 0.0236192 1.34166e-08 -0.0255823 1.23147e-08 1.70044e-26)
(0.0300706 0.022915 1.22596e-08 -0.0252271 1.13801e-08 1.56804e-26)
(0.0281208 0.0223771 1.11953e-08 -0.0243467 1.04931e-08 1.44499e-26)
(0.0261496 0.0222438 1.02416e-08 -0.0233947 9.67924e-09 1.29899e-26)
(0.0198569 0.0235399 2.09967e-08 -0.0105208 1.96956e-08 3.1006e-26)
(0.0205055 0.0284592 2.29125e-08 -0.0132102 2.00661e-08 3.02986e-26)
(0.0204411 0.0305568 2.24843e-08 -0.0148415 2.00278e-08 2.8804e-26)
(0.0199263 0.0312285 2.10381e-08 -0.0157599 1.9056e-08 2.64904e-26)
(0.0191206 0.0307671 1.92469e-08 -0.0162005 1.77149e-08 2.42898e-26)
(0.0181598 0.0299939 1.74204e-08 -0.016337 1.62668e-08 2.20479e-26)
(0.0170219 0.0288572 1.56983e-08 -0.0161433 1.48458e-08 2.00668e-26)
(0.0158142 0.0279791 1.41381e-08 -0.0158171 1.35173e-08 1.82665e-26)
(0.0144473 0.0272092 1.27572e-08 -0.015168 1.23097e-08 1.66339e-26)
(0.0130613 0.0269517 1.15543e-08 -0.0144883 1.12338e-08 1.4964e-26)
(0.00345073 0.0263453 3.13685e-08 -0.00384472 2.96887e-08 4.05585e-26)
(0.00357555 0.0314866 3.10107e-08 -0.00485553 2.76961e-08 3.88623e-26)
(0.00333841 0.0336522 2.86776e-08 -0.00540699 2.61945e-08 3.58497e-26)
(0.00290824 0.0343092 2.58001e-08 -0.00565924 2.40056e-08 3.24891e-26)
(0.00234607 0.0337794 2.29462e-08 -0.00572726 2.17043e-08 2.92143e-26)
(0.00172567 0.0329226 2.03291e-08 -0.00566437 1.95053e-08 2.61712e-26)
(0.00104095 0.031678 1.80142e-08 -0.00547458 1.74974e-08 2.33713e-26)
(0.000341936 0.0307086 1.60055e-08 -0.00525187 1.57084e-08 2.09156e-26)
(-0.000403065 0.0298147 1.42827e-08 -0.00488398 1.41379e-08 1.87965e-26)
(-0.00113347 0.0294758 1.28178e-08 -0.00455906 1.27736e-08 1.69575e-26)
(-0.0266345 -0.00766485 5.39112e-11 0.13931 2.729e-11 2.27165e-27)
(-0.0352157 -0.008012 1.64348e-10 0.135731 9.12216e-11 2.24788e-27)
(-0.0401156 -0.00804817 2.54553e-10 0.130653 1.42024e-10 2.18657e-27)
(-0.0424044 -0.00794497 3.26611e-10 0.124647 1.803e-10 2.10042e-27)
(-0.0430006 -0.00774553 3.82647e-10 0.118318 2.07701e-10 2.00988e-27)
(-0.0422706 -0.0075171 4.25037e-10 0.11173 2.26194e-10 1.91196e-27)
(-0.0404839 -0.00726772 4.5618e-10 0.105014 2.37701e-10 1.80828e-27)
(-0.0378516 -0.00704841 4.78344e-10 0.0981599 2.43911e-10 1.71531e-27)
(-0.0343479 -0.0068208 4.93581e-10 0.0910667 2.46192e-10 1.62558e-27)
(-0.0302512 -0.00670427 5.03706e-10 0.083879 2.45526e-10 1.54629e-27)
(-0.0236685 -0.0223052 5.47725e-11 0.135465 3.16981e-11 2.32748e-27)
(-0.0319814 -0.0234552 1.69603e-10 0.131729 1.04029e-10 2.30666e-27)
(-0.0367599 -0.023699 2.65031e-10 0.126606 1.6115e-10 2.23844e-27)
(-0.0390314 -0.0234141 3.41693e-10 0.120639 2.03856e-10 2.15112e-27)
(-0.0396727 -0.022839 4.01316e-10 0.114397 2.34113e-10 2.05747e-27)
(-0.0390199 -0.0221651 4.46236e-10 0.107921 2.5424e-10 1.94804e-27)
(-0.037353 -0.0214153 4.78947e-10 0.101354 2.66501e-10 1.84467e-27)
(-0.034834 -0.0207772 5.01857e-10 0.0946429 2.72933e-10 1.74539e-27)
(-0.0314871 -0.0200863 5.17149e-10 0.0877334 2.75304e-10 1.6532e-27)
(-0.0274751 -0.019766 5.26642e-10 0.0806602 2.75165e-10 1.56929e-27)
(-0.017845 -0.0360256 5.84868e-11 0.127959 3.9655e-11 2.45291e-27)
(-0.0256681 -0.0378622 1.85577e-10 0.123951 1.29476e-10 2.41477e-27)
(-0.0302428 -0.0382096 2.91441e-10 0.118778 1.99509e-10 2.34841e-27)
(-0.0324657 -0.0377538 3.76418e-10 0.112882 2.51252e-10 2.23407e-27)
(-0.0332003 -0.0368331 4.42082e-10 0.106819 2.87334e-10 2.13757e-27)
(-0.0326807 -0.0357329 4.90912e-10 0.100554 3.10748e-10 2.02361e-27)
(-0.0312611 -0.0345369 5.25699e-10 0.0942856 3.24397e-10 1.91664e-27)
(-0.0289643 -0.0334788 5.49211e-10 0.0878493 3.30885e-10 1.81394e-27)
(-0.0259453 -0.0323899 5.64012e-10 0.0813074 3.3244e-10 1.7165e-27)
(-0.0221177 -0.0318358 5.72229e-10 0.0744639 3.30864e-10 1.61882e-27)
(-0.00978689 -0.047632 6.59501e-11 0.117467 5.00416e-11 2.63754e-27)
(-0.0168043 -0.0501931 2.13861e-10 0.11295 1.62777e-10 2.56993e-27)
(-0.0209819 -0.0507815 3.36862e-10 0.107584 2.49583e-10 2.5024e-27)
(-0.0231303 -0.0502013 4.3502e-10 0.101772 3.12874e-10 2.3775e-27)
(-0.023961 -0.048999 5.09913e-10 0.0959179 3.56166e-10 2.26609e-27)
(-0.0236574 -0.0475182 5.64393e-10 0.0899686 3.83335e-10 2.13093e-27)
(-0.0225665 -0.0459192 6.01812e-10 0.08411 3.98111e-10 2.02586e-27)
(-0.0206193 -0.0444918 6.25568e-10 0.0781031 4.03854e-10 1.91908e-27)
(-0.0180667 -0.0430439 6.38863e-10 0.0721059 4.03449e-10 1.8079e-27)
(-0.0145386 -0.0423063 6.44258e-10 0.065631 3.99183e-10 1.69749e-27)
(0.0002666 -0.0570968 7.82778e-11 0.104292 6.40844e-11 2.9157e-27)
(-0.00575957 -0.0602056 2.57327e-10 0.0991482 2.06906e-10 2.77891e-27)
(-0.00949199 -0.0609213 4.05688e-10 0.0936051 3.15697e-10 2.68872e-27)
(-0.0115069 -0.0602407 5.22963e-10 0.0878695 3.94021e-10 2.57231e-27)
(-0.0124611 -0.0588229 6.10861e-10 0.0822942 4.46507e-10 2.44669e-27)
(-0.0123965 -0.057001 6.72879e-10 0.0767207 4.7814e-10 2.29621e-27)
(-0.0117466 -0.0550978 7.13248e-10 0.0713979 4.93707e-10 2.17607e-27)
(-0.010259 -0.0533002 7.36333e-10 0.0659466 4.97564e-10 2.05078e-27)
(-0.00834969 -0.0516181 7.46306e-10 0.0606665 4.93533e-10 1.92957e-27)
(-0.00527027 -0.0506627 7.46412e-10 0.0547239 4.84643e-10 1.80925e-27)
(0.0112735 -0.0636288 9.73902e-11 0.0895563 8.35508e-11 3.1213e-27)
(0.00651712 -0.067168 3.20782e-10 0.083536 2.65858e-10 3.05667e-27)
(0.00346224 -0.0680764 5.04935e-10 0.0776063 4.03522e-10 2.94207e-27)
(0.0016021 -0.0673326 6.48705e-10 0.0719393 5.01551e-10 2.81895e-27)
(0.000586862 -0.0657705 7.54123e-10 0.0665946 5.65957e-10 2.6868e-27)
(0.000340604 -0.0636861 8.25691e-10 0.0614637 6.03073e-10 2.53668e-27)
(0.000564328 -0.061533 8.6892e-10 0.056685 6.18952e-10 2.38571e-27)
(0.00146413 -0.0594601 8.89532e-10 0.0519143 6.19188e-10 2.24037e-27)
(0.00263302 -0.0575953 8.93085e-10 0.0474779 6.0888e-10 2.09771e-27)
(0.00509041 -0.0565446 8.83876e-10 0.0422431 5.9217e-10 1.95963e-27)
(0.0230764 -0.0674099 1.26455e-10 0.0734548 1.11231e-10 3.43053e-27)
(0.0196404 -0.0711029 4.11579e-10 0.0665413 3.45448e-10 3.32254e-27)
(0.0172131 -0.0720472 6.44966e-10 0.0603162 5.2114e-10 3.20578e-27)
(0.0155678 -0.0712686 8.24452e-10 0.0546972 6.45156e-10 3.07677e-27)
(0.0144795 -0.0696574 9.52804e-10 0.049626 7.25278e-10 2.97217e-27)
(0.0139569 -0.067401 1.03608e-09 0.0449358 7.69453e-10 2.81031e-27)
(0.0136819 -0.0651538 1.08153e-09 0.0407746 7.85133e-10 2.64293e-27)
(0.0139289 -0.0627996 1.09661e-09 0.0367619 7.79234e-10 2.47266e-27)
(0.0141935 -0.060926 1.08866e-09 0.0333298 7.58371e-10 2.30361e-27)
(0.0158048 -0.05964 1.06346e-09 0.029038 7.28298e-10 2.13561e-27)
(0.0344051 -0.068099 1.70642e-10 0.0573346 1.51607e-10 3.54441e-27)
(0.0324008 -0.0716956 5.40686e-10 0.0494236 4.54166e-10 3.57426e-27)
(0.0307694 -0.0726397 8.4063e-10 0.0427457 6.79975e-10 3.52358e-27)
(0.0292897 -0.0718443 1.06724e-09 0.0372265 8.38309e-10 3.41285e-27)
(0.028202 -0.0702295 1.22496e-09 0.0323574 9.39413e-10 3.30869e-27)
(0.0273146 -0.067906 1.32234e-09 0.028173 9.93271e-10 3.15166e-27)
(0.0267218 -0.0655757 1.36896e-09 0.0244435 1.00876e-09 2.96867e-27)
(0.026246 -0.0630794 1.37414e-09 0.0212268 9.93728e-10 2.7697e-27)
(0.0257725 -0.0611457 1.34682e-09 0.0186076 9.558e-10 2.56661e-27)
(0.0263101 -0.0599726 1.29429e-09 0.0154717 9.02352e-10 2.36879e-27)
(0.0453009 -0.0659175 2.38438e-10 0.041124 2.12044e-10 3.76523e-27)
(0.0445562 -0.0691078 7.24368e-10 0.0324186 6.04537e-10 3.84895e-27)
(0.0435095 -0.0698453 1.11285e-09 0.0255333 8.9614e-10 3.8129e-27)
(0.0422252 -0.0690477 1.40019e-09 0.0201122 1.09942e-09 3.78007e-27)
(0.0411034 -0.0674958 1.59461e-09 0.0155046 1.22848e-09 3.70234e-27)
(0.0399971 -0.0653251 1.70897e-09 0.0116943 1.29637e-09 3.55729e-27)
(0.0390547 -0.0631734 1.75619e-09 0.00841013 1.31369e-09 3.38049e-27)
(0.0380617 -0.060727 1.74717e-09 0.00575445 1.28824e-09 3.16387e-27)
(0.0366447 -0.0590642 1.69043e-09 0.00409502 1.22579e-09 2.90826e-27)
(0.0359229 -0.0573543 1.59093e-09 0.00225599 1.13089e-09 2.65015e-27)
(0.0544134 -0.0610072 3.43956e-10 0.0262635 3.04924e-10 4.30224e-27)
(0.054905 -0.0635448 9.86806e-10 0.0168141 8.154e-10 4.30809e-27)
(0.0545048 -0.0639874 1.4908e-09 0.00968249 1.19253e-09 4.37587e-27)
(0.0532636 -0.0631767 1.85391e-09 0.0045412 1.45333e-09 4.32704e-27)
(0.0519828 -0.0617235 2.09226e-09 0.000323409 1.6184e-09 4.24601e-27)
(0.0502859 -0.0597646 2.22677e-09 -0.00273419 1.7064e-09 4.11191e-27)
(0.0489616 -0.0577857 2.27659e-09 -0.00557672 1.73187e-09 3.93452e-27)
(0.0469648 -0.0553756 2.25518e-09 -0.00725447 1.70353e-09 3.70687e-27)
(0.0455705 -0.0536811 2.16643e-09 -0.00909418 1.62143e-09 3.42741e-27)
(0.0430381 -0.0517373 1.99387e-09 -0.00932995 1.46684e-09 3.0411e-27)
(-0.0251212 -0.00640411 5.10001e-10 0.0760846 2.45902e-10 1.47248e-27)
(-0.0207434 -0.00591922 5.13429e-10 0.0691345 2.46895e-10 1.39976e-27)
(-0.0169814 -0.00558398 5.13243e-10 0.0629117 2.4517e-10 1.33183e-27)
(-0.0133957 -0.00530972 5.09445e-10 0.0569806 2.4083e-10 1.256e-27)
(-0.0102921 -0.00508838 5.02168e-10 0.0516976 2.3407e-10 1.18376e-27)
(-0.00723877 -0.00494424 4.91702e-10 0.0465791 2.25201e-10 1.11183e-27)
(-0.00445802 -0.00482337 4.78482e-10 0.0419163 2.14635e-10 1.03707e-27)
(-0.00162911 -0.00476866 4.63052e-10 0.0373549 2.02838e-10 9.66959e-28)
(0.00103662 -0.00472012 4.46026e-10 0.0330965 1.90293e-10 8.98835e-28)
(0.00381406 -0.00472381 4.28044e-10 0.0289186 1.77466e-10 8.33717e-28)
(0.00647947 -0.0047289 4.09739e-10 0.0249451 1.64774e-10 7.72462e-28)
(0.00923542 -0.00477656 3.91704e-10 0.021067 1.52579e-10 7.15942e-28)
(0.011907 -0.00482384 3.74471e-10 0.0173503 1.4118e-10 6.64562e-28)
(0.0145903 -0.00490765 3.58504e-10 0.0137821 1.30816e-10 6.1891e-28)
(0.0171805 -0.00499008 3.44192e-10 0.0103941 1.21673e-10 5.79305e-28)
(0.0196566 -0.00509981 3.31848e-10 0.00726016 1.13893e-10 5.46399e-28)
(0.0219724 -0.00520406 3.21715e-10 0.00440474 1.07582e-10 5.19478e-28)
(0.023948 -0.00531657 3.13968e-10 0.00200358 1.02821e-10 4.99138e-28)
(0.0255713 -0.00540486 3.08718e-10 0.000109619 9.96754e-11 4.85694e-28)
(0.0264788 -0.00544405 3.05996e-10 -0.000972204 9.82036e-11 4.78806e-28)
(-0.0225411 -0.018857 5.32823e-10 0.0730687 2.75675e-10 1.4961e-27)
(-0.0184934 -0.0174706 5.36578e-10 0.0664379 2.75814e-10 1.42452e-27)
(-0.0150021 -0.0164774 5.36365e-10 0.0604728 2.73164e-10 1.35266e-27)
(-0.0116604 -0.015708 5.32067e-10 0.0547801 2.67549e-10 1.27892e-27)
(-0.00877537 -0.0150559 5.2379e-10 0.0497044 2.5913e-10 1.20301e-27)
(-0.00590211 -0.0146459 5.11876e-10 0.0447712 2.48302e-10 1.12786e-27)
(-0.00327515 -0.0142941 4.96858e-10 0.0402658 2.35601e-10 1.05218e-27)
(-0.000578598 -0.0141271 4.79403e-10 0.0358524 2.21621e-10 9.78166e-28)
(0.00197998 -0.0139917 4.60252e-10 0.0317233 2.06954e-10 9.06674e-28)
(0.00465121 -0.0139926 4.40157e-10 0.0276733 1.9214e-10 8.38379e-28)
(0.0072268 -0.0140164 4.19838e-10 0.0238178 1.77648e-10 7.74883e-28)
(0.00988823 -0.0141435 3.99949e-10 0.020061 1.63864e-10 7.16886e-28)
(0.0124721 -0.0142964 3.81059e-10 0.0164614 1.51095e-10 6.63761e-28)
(0.0150598 -0.0145275 3.63647e-10 0.013013 1.39576e-10 6.17088e-28)
(0.0175592 -0.0147835 3.48101e-10 0.00974539 1.2948e-10 5.76958e-28)
(0.0199345 -0.015096 3.34728e-10 0.00672826 1.20934e-10 5.43202e-28)
(0.0221548 -0.0154039 3.23757e-10 0.00399002 1.1403e-10 5.16037e-28)
(0.0240361 -0.0157302 3.15355e-10 0.00169091 1.0883e-10 4.95561e-28)
(0.0255783 -0.0159843 3.09631e-10 -0.00011311 1.05377e-10 4.81848e-28)
(0.0264343 -0.0160963 3.06633e-10 -0.00114543 1.03691e-10 4.74916e-28)
(-0.0175888 -0.030373 5.78782e-10 0.0672759 3.31451e-10 1.54432e-27)
(-0.0141885 -0.0281635 5.83369e-10 0.0612651 3.31997e-10 1.47313e-27)
(-0.0112048 -0.0266261 5.82686e-10 0.0557911 3.28285e-10 1.39978e-27)
(-0.00833979 -0.0254333 5.76709e-10 0.0505634 3.2037e-10 1.32301e-27)
(-0.00583752 -0.0244406 5.65658e-10 0.0458821 3.08678e-10 1.24217e-27)
(-0.0033204 -0.0238213 5.5009e-10 0.0413157 2.93916e-10 1.16118e-27)
(-0.000961565 -0.0232907 5.30826e-10 0.0371083 2.76938e-10 1.07854e-27)
(0.00147231 -0.0230464 5.08839e-10 0.0329946 2.58615e-10 9.97517e-28)
(0.00382617 -0.0228389 4.85146e-10 0.0291087 2.39749e-10 9.19548e-28)
(0.00628824 -0.0228472 4.60721e-10 0.0253195 2.21029e-10 8.46042e-28)
(0.00869117 -0.0228784 4.36437e-10 0.0216898 2.03011e-10 7.78349e-28)
(0.0111601 -0.0230809 4.13037e-10 0.0181727 1.86122e-10 7.16905e-28)
(0.013576 -0.0233104 3.91127e-10 0.0148011 1.70677e-10 6.61378e-28)
(0.0159775 -0.0236762 3.71182e-10 0.0115819 1.56898e-10 6.12841e-28)
(0.018293 -0.0240696 3.53562e-10 0.00854496 1.44935e-10 5.71372e-28)
(0.0204908 -0.024562 3.38533e-10 0.00574525 1.34888e-10 5.36745e-28)
(0.022517 -0.0250436 3.26285e-10 0.0032272 1.26819e-10 5.09061e-28)
(0.0242318 -0.0255555 3.16948e-10 0.00110843 1.20768e-10 4.88243e-28)
(0.0256201 -0.0259563 3.10606e-10 -0.000525994 1.16759e-10 4.74303e-28)
(0.0263731 -0.0261284 3.07287e-10 -0.00148575 1.14808e-10 4.67247e-28)
(-0.0106365 -0.0403306 6.50544e-10 0.0590845 3.99468e-10 1.61865e-27)
(-0.0081543 -0.037504 6.55741e-10 0.0539365 4.00123e-10 1.54978e-27)
(-0.00590241 -0.0355404 6.53474e-10 0.049152 3.94388e-10 1.47429e-27)
(-0.00368705 -0.0340909 6.43858e-10 0.0445468 3.82659e-10 1.39175e-27)
(-0.00174206 -0.0328569 6.27405e-10 0.0404058 3.65859e-10 1.2995e-27)
(0.000309525 -0.0321291 6.05177e-10 0.0363335 3.45259e-10 1.20586e-27)
(0.00228351 -0.0314794 5.78578e-10 0.0325451 3.22221e-10 1.11235e-27)
(0.0043829 -0.0311908 5.4913e-10 0.0288389 2.98005e-10 1.02077e-27)
(0.00645829 -0.0309436 5.1829e-10 0.0253133 2.73677e-10 9.33464e-28)
(0.00864341 -0.0309474 4.87331e-10 0.0218824 2.50069e-10 8.53572e-28)
(0.010802 -0.0310032 4.57294e-10 0.0185942 2.27796e-10 7.79642e-28)
(0.0130121 -0.0312457 4.28982e-10 0.0154125 2.07283e-10 7.13019e-28)
(0.0151848 -0.0315583 4.02985e-10 0.0123805 1.88811e-10 6.55164e-28)
(0.0173226 -0.0320178 3.79716e-10 0.00948559 1.72548e-10 6.04657e-28)
(0.0193849 -0.0325411 3.59453e-10 0.00678689 1.58586e-10 5.62288e-28)
(0.0213105 -0.0331714 3.42374e-10 0.00429727 1.46966e-10 5.26804e-28)
(0.0230774 -0.0338042 3.28585e-10 0.00209758 1.37701e-10 4.98368e-28)
(0.0245433 -0.0344577 3.18146e-10 0.000243791 1.30787e-10 4.77355e-28)
(0.0257181 -0.0349833 3.11087e-10 -0.00115052 1.2622e-10 4.6333e-28)
(0.0263364 -0.0352035 3.07399e-10 -0.00198549 1.23994e-10 4.56215e-28)
(-0.00221358 -0.0483325 7.51377e-10 0.0490196 4.83778e-10 1.73588e-27)
(-0.000878496 -0.0451278 7.56218e-10 0.0449521 4.83474e-10 1.65259e-27)
(0.000505771 -0.0429557 7.49987e-10 0.0410061 4.7362e-10 1.56996e-27)
(0.00192689 -0.0414253 7.332e-10 0.0371717 4.55364e-10 1.47081e-27)
(0.0032742 -0.0401086 7.07156e-10 0.0336779 4.30597e-10 1.36431e-27)
(0.00475895 -0.0393661 6.73988e-10 0.0302049 4.01525e-10 1.25509e-27)
(0.00633395 -0.0386865 6.36142e-10 0.0269252 3.70225e-10 1.14653e-27)
(0.00800789 -0.0383846 5.95959e-10 0.0237132 3.38415e-10 1.04056e-27)
(0.00976809 -0.0381245 5.55419e-10 0.0206372 3.07389e-10 9.41859e-28)
(0.011596 -0.0381262 5.16056e-10 0.0176463 2.78053e-10 8.54397e-28)
(0.0134578 -0.0381909 4.78969e-10 0.0147856 2.50991e-10 7.7566e-28)
(0.0153304 -0.0384668 4.44895e-10 0.0120209 2.2655e-10 7.05901e-28)
(0.0171917 -0.0388234 4.14288e-10 0.00940506 2.04902e-10 6.44994e-28)
(0.0190039 -0.0393577 3.87401e-10 0.00691708 1.8611e-10 5.92773e-28)
(0.0207349 -0.0399603 3.6435e-10 0.00462071 1.70166e-10 5.49071e-28)
(0.022352 -0.0406952 3.45168e-10 0.00251952 1.57022e-10 5.1285e-28)
(0.0237898 -0.0414262 3.29837e-10 0.000689306 1.46619e-10 4.84367e-28)
(0.0249785 -0.0421818 3.18318e-10 -0.000835685 1.38896e-10 4.63344e-28)
(0.025896 -0.0427873 3.10568e-10 -0.00195672 1.33806e-10 4.49316e-28)
(0.0263598 -0.0430332 3.06525e-10 -0.00262797 1.31318e-10 4.42213e-28)
(0.00699769 -0.0539853 8.85437e-10 0.0376843 5.88411e-10 1.86824e-27)
(0.00707358 -0.0507275 8.87325e-10 0.0347579 5.84595e-10 1.78009e-27)
(0.00751197 -0.0485567 8.72214e-10 0.0317002 5.66583e-10 1.67398e-27)
(0.00811435 -0.0471913 8.41948e-10 0.0286777 5.37307e-10 1.56154e-27)
(0.00884236 -0.04597 7.99838e-10 0.0258611 5.00467e-10 1.42982e-27)
(0.00977083 -0.0453332 7.5007e-10 0.0230767 4.59653e-10 1.29731e-27)
(0.0109131 -0.0447069 6.96622e-10 0.0203674 4.17756e-10 1.17051e-27)
(0.0121787 -0.044421 6.42713e-10 0.0177597 3.76844e-10 1.04666e-27)
(0.0135713 -0.0441785 5.90652e-10 0.0152056 3.38262e-10 9.43531e-28)
(0.0150315 -0.0441708 5.41944e-10 0.0127609 3.02798e-10 8.46829e-28)
(0.0165304 -0.0442559 4.97466e-10 0.0103966 2.70852e-10 7.64153e-28)
(0.018038 -0.0445425 4.57658e-10 0.00813721 2.42567e-10 6.91617e-28)
(0.0195327 -0.044944 4.22671e-10 0.00600045 2.1793e-10 6.289e-28)
(0.0209719 -0.0455232 3.92484e-10 0.00398191 1.96837e-10 5.75345e-28)
(0.0223373 -0.0461951 3.66984e-10 0.00214463 1.79141e-10 5.32635e-28)
(0.0235786 -0.0469951 3.46014e-10 0.000472071 1.64686e-10 4.95208e-28)
(0.0246671 -0.0478014 3.2941e-10 -0.000937509 1.53324e-10 4.67422e-28)
(0.025526 -0.048609 3.17022e-10 -0.0021108 1.44931e-10 4.4676e-28)
(0.0261687 -0.0492661 3.08726e-10 -0.0029156 1.39411e-10 4.33025e-28)
(0.0264612 -0.0495101 3.04403e-10 -0.00342375 1.36699e-10 4.2608e-28)
(0.0164255 -0.0572304 1.05753e-09 0.0257417 7.18079e-10 2.04007e-27)
(0.0151083 -0.0543738 1.05005e-09 0.0240875 7.05121e-10 1.93096e-27)
(0.0146449 -0.0524394 1.01609e-09 0.0218959 6.71564e-10 1.79538e-27)
(0.0144235 -0.05142 9.61803e-10 0.0197663 6.24397e-10 1.64134e-27)
(0.0146738 -0.0504086 8.94873e-10 0.0175854 5.70296e-10 1.47755e-27)
(0.0150809 -0.0499205 8.22516e-10 0.015513 5.14413e-10 1.31758e-27)
(0.0158609 -0.0494067 7.50114e-10 0.0133958 4.6013e-10 1.17233e-27)
(0.0166844 -0.0491518 6.81127e-10 0.0114157 4.09411e-10 1.04379e-27)
(0.0177094 -0.0489577 6.17491e-10 0.00944795 3.63244e-10 9.22e-28)
(0.018746 -0.048955 5.60105e-10 0.00757521 3.22002e-10 8.22765e-28)
(0.0198567 -0.0490742 5.09227e-10 0.0057662 2.857e-10 7.44496e-28)
(0.0209425 -0.0493817 4.64755e-10 0.00403505 2.54155e-10 6.69705e-28)
(0.0220303 -0.049828 4.26404e-10 0.00241154 2.27093e-10 6.0769e-28)
(0.0230636 -0.0504473 3.93814e-10 0.000888576 2.04207e-10 5.53733e-28)
(0.024021 -0.0511687 3.66616e-10 -0.000476225 1.85198e-10 5.09619e-28)
(0.0248905 -0.0520083 3.44463e-10 -0.00169463 1.69793e-10 4.75492e-28)
(0.0256024 -0.0528552 3.27054e-10 -0.00268681 1.57757e-10 4.48546e-28)
(0.026155 -0.0536778 3.1414e-10 -0.00348486 1.48902e-10 4.2846e-28)
(0.0265178 -0.0543561 3.05525e-10 -0.00399113 1.43089e-10 4.15272e-28)
(0.0266606 -0.0545972 3.01042e-10 -0.00429858 1.40219e-10 4.08717e-28)
(0.025105 -0.0579134 1.27208e-09 0.0139343 8.77892e-10 2.23384e-27)
(0.0226798 -0.0558733 1.23928e-09 0.0132283 8.43364e-10 2.08594e-27)
(0.021578 -0.0545574 1.16772e-09 0.0117248 7.81548e-10 1.89832e-27)
(0.0207048 -0.0540821 1.07481e-09 0.0104417 7.07487e-10 1.69465e-27)
(0.020566 -0.053483 9.74754e-10 0.00894851 6.31226e-10 1.48997e-27)
(0.0205136 -0.0531362 8.76735e-10 0.00765111 5.58406e-10 1.30068e-27)
(0.0208934 -0.0527842 7.85622e-10 0.00622588 4.91689e-10 1.14821e-27)
(0.0213178 -0.0525474 7.03475e-10 0.00492871 4.32038e-10 1.01325e-27)
(0.0219146 -0.0524303 6.30783e-10 0.00359922 3.79527e-10 8.95091e-28)
(0.0225493 -0.0524573 5.67253e-10 0.00233963 3.33809e-10 7.96555e-28)
(0.0232239 -0.0526362 5.12252e-10 0.00111204 2.94362e-10 7.13154e-28)
(0.0238992 -0.0529907 4.65042e-10 -6.0633e-05 2.60615e-10 6.40831e-28)
(0.0245595 -0.0534876 4.24896e-10 -0.00115641 2.32018e-10 5.79568e-28)
(0.0251868 -0.0541534 3.9115e-10 -0.00217346 2.08068e-10 5.29737e-28)
(0.0257477 -0.0549194 3.63224e-10 -0.00306646 1.88329e-10 4.88283e-28)
(0.0262242 -0.0557853 3.40629e-10 -0.0038394 1.72427e-10 4.55816e-28)
(0.0265908 -0.0566559 3.22963e-10 -0.00443171 1.60061e-10 4.28805e-28)
(0.02682 -0.0574692 3.09909e-10 -0.00487432 1.50992e-10 4.10066e-28)
(0.0269281 -0.0581344 3.01228e-10 -0.00510796 1.45047e-10 3.97667e-28)
(0.0269268 -0.0583347 2.96718e-10 -0.00523032 1.42101e-10 3.91307e-28)
(0.0328189 -0.0564787 1.52765e-09 0.00244493 1.07145e-09 2.44776e-27)
(0.0291564 -0.0558306 1.43129e-09 0.0029439 9.87542e-10 2.21456e-27)
(0.0278106 -0.0552648 1.29474e-09 0.00200167 8.79153e-10 1.93852e-27)
(0.0265443 -0.0552243 1.15204e-09 0.0015864 7.70743e-10 1.6903e-27)
(0.0262105 -0.0550228 1.01848e-09 0.000714341 6.71407e-10 1.4363e-27)
(0.0258212 -0.0548339 8.99388e-10 0.000143239 5.83675e-10 1.22647e-27)
(0.0258025 -0.0546779 7.95515e-10 -0.000592556 5.07469e-10 1.10704e-27)
(0.0258144 -0.0545523 7.05846e-10 -0.00122786 4.41818e-10 9.66496e-28)
(0.0259728 -0.0545537 6.28844e-10 -0.00191837 3.85536e-10 8.51272e-28)
(0.0261799 -0.0546752 5.62947e-10 -0.00259184 3.37469e-10 7.58548e-28)
(0.0264348 -0.0549523 5.06746e-10 -0.00325995 2.96582e-10 6.76199e-28)
(0.0266902 -0.0553929 4.59031e-10 -0.00391549 2.6198e-10 6.06754e-28)
(0.026942 -0.0559758 4.18781e-10 -0.00451772 2.32898e-10 5.48457e-28)
(0.0271624 -0.056708 3.85152e-10 -0.00507096 2.08698e-10 5.06267e-28)
(0.0273376 -0.0575306 3.57449e-10 -0.00552598 1.8885e-10 4.64668e-28)
(0.0274604 -0.0584264 3.35112e-10 -0.00588913 1.72922e-10 4.34976e-28)
(0.027488 -0.0593105 3.17694e-10 -0.00611864 1.60572e-10 4.10195e-28)
(0.0274608 -0.0601069 3.04849e-10 -0.00623752 1.51534e-10 3.92138e-28)
(0.0273426 -0.0607515 2.96323e-10 -0.00623242 1.45615e-10 3.80418e-28)
(0.027234 -0.0609242 2.91905e-10 -0.00618981 1.42677e-10 3.74608e-28)
(0.0387045 -0.05337 1.78553e-09 -0.00833267 1.28021e-09 2.61274e-27)
(0.0348834 -0.0540652 1.55988e-09 -0.00706405 1.09609e-09 2.22938e-27)
(0.0335061 -0.0549262 1.34634e-09 -0.00711445 9.30914e-10 1.83756e-27)
(0.0320112 -0.0550659 1.16481e-09 -0.00663376 7.9349e-10 1.57361e-27)
(0.0312575 -0.0552904 1.01322e-09 -0.00660985 6.79619e-10 1.34018e-27)
(0.0305746 -0.0551921 8.86513e-10 -0.00652315 5.84697e-10 1.20882e-27)
(0.0301408 -0.0552719 7.80064e-10 -0.00658301 5.05073e-10 1.0238e-27)
(0.0298245 -0.0553103 6.90204e-10 -0.00666695 4.37981e-10 9.02847e-28)
(0.0295849 -0.0555132 6.14096e-10 -0.00680687 3.81303e-10 7.97386e-28)
(0.0294228 -0.0557995 5.49538e-10 -0.00697744 3.33385e-10 7.22493e-28)
(0.0292752 -0.0562271 4.94798e-10 -0.00715381 2.92917e-10 6.35669e-28)
(0.0291552 -0.0567947 4.48503e-10 -0.00734194 2.58846e-10 5.74385e-28)
(0.0290222 -0.0574703 4.09554e-10 -0.00749352 2.3032e-10 5.22693e-28)
(0.0288881 -0.0582816 3.77069e-10 -0.00761892 2.06649e-10 4.81307e-28)
(0.0287214 -0.0591503 3.50339e-10 -0.00767714 1.87276e-10 4.40676e-28)
(0.0285207 -0.0600775 3.28801e-10 -0.00767111 1.71755e-10 4.15032e-28)
(0.0282809 -0.0609642 3.12012e-10 -0.007586 1.59735e-10 3.92744e-28)
(0.0280052 -0.0617407 2.99635e-10 -0.00743894 1.50947e-10 3.75433e-28)
(0.0277275 -0.0623524 2.91421e-10 -0.00725851 1.45194e-10 3.64635e-28)
(0.0275385 -0.0624824 2.87173e-10 -0.00711079 1.42339e-10 3.5942e-28)
(0.0442458 -0.0486326 2.0043e-09 -0.0196375 1.45968e-09 2.62585e-27)
(0.0415543 -0.0501355 1.62352e-09 -0.0171311 1.15411e-09 2.14206e-27)
(0.0389467 -0.0528165 1.36424e-09 -0.0149918 9.53425e-10 1.78376e-27)
(0.0374006 -0.0535419 1.1673e-09 -0.0139707 8.02645e-10 1.51823e-27)
(0.0358417 -0.0541728 1.00985e-09 -0.0128456 6.82717e-10 1.30611e-27)
(0.0348479 -0.0545067 8.80766e-10 -0.0122281 5.84768e-10 1.14299e-27)
(0.0339309 -0.0548264 7.73406e-10 -0.0116468 5.03616e-10 9.91273e-28)
(0.0332834 -0.0551654 6.83334e-10 -0.0112658 4.3581e-10 8.71072e-28)
(0.0326783 -0.055568 6.07364e-10 -0.0109281 3.78877e-10 7.70991e-28)
(0.0321893 -0.0560707 5.43112e-10 -0.0106685 3.30965e-10 6.88855e-28)
(0.031698 -0.0566622 4.88752e-10 -0.0104264 2.90643e-10 6.14493e-28)
(0.03124 -0.057383 4.42853e-10 -0.0102134 2.56785e-10 5.54125e-28)
(0.0307709 -0.0581759 4.04283e-10 -0.00998089 2.28498e-10 5.03929e-28)
(0.0302982 -0.0590808 3.72142e-10 -0.00974185 2.05065e-10 4.62317e-28)
(0.0298251 -0.0600062 3.45712e-10 -0.00946451 1.85911e-10 4.26927e-28)
(0.0293455 -0.0609636 3.24424e-10 -0.00915279 1.70581e-10 3.99915e-28)
(0.0288642 -0.0618521 3.07834e-10 -0.00882169 1.58718e-10 3.78561e-28)
(0.0284233 -0.0626132 2.95605e-10 -0.00846824 1.50051e-10 3.62606e-28)