/*--------------------------------*- C++ -*----------------------------------*\
| =========                 |                                                 |
| \\      /  F ield         | foam-extend: Open Source CFD                    |
|  \\    /   O peration     | Version:  3.0                                   |
|   \\  /    A nd           | Web:         http://www.extend-project.de       |
|    \\/     M anipulation  |                                                 |
\*---------------------------------------------------------------------------*/
FoamFile
{
    version     2.0;
    format      ascii;
    class       volVectorField;
    location    "9";
    object      u;
}
// * * * * * * * * * * * * * * * * * * * * * * * * * * * * * * * * * * * * * //

dimensions      [0 0 0 0 0 0 0];

internalField   nonuniform List<vector> 
2000
(
(1.18021 -0.974999 -7.81074e-09)
(1.12759 -0.832317 -5.23299e-09)
(1.17544 -0.71387 -3.41131e-09)
(1.12571 -0.634562 -1.94034e-09)
(1.19047 -0.562716 -8.34128e-10)
(1.12053 -0.516668 -3.54586e-11)
(1.21179 -0.467457 5.16144e-10)
(1.07682 -0.433803 8.62092e-10)
(1.21356 -0.379049 9.7212e-10)
(0.889581 -0.28671 1.43258e-09)
(1.23843 -0.891823 -1.06489e-08)
(1.22285 -0.777388 -6.08533e-09)
(1.23683 -0.675121 -3.55744e-09)
(1.18881 -0.591249 -1.64063e-09)
(1.20981 -0.525785 -2.98576e-10)
(1.15169 -0.480324 5.95244e-10)
(1.17784 -0.423723 1.14993e-09)
(1.09892 -0.423701 1.4472e-09)
(1.15073 -0.339835 1.51562e-09)
(1.01201 -0.376356 2.04683e-09)
(1.47102 -0.882289 -1.45549e-08)
(1.37562 -0.766887 -6.65701e-09)
(1.388 -0.637017 -3.26033e-09)
(1.30981 -0.577379 -8.46126e-10)
(1.34148 -0.48126 7.16501e-10)
(1.26408 -0.455119 1.66927e-09)
(1.30589 -0.361486 2.19467e-09)
(1.2197 -0.360184 2.42437e-09)
(1.27187 -0.250328 2.42655e-09)
(1.15093 -0.249867 2.89851e-09)
(1.51427 -0.777203 -1.98757e-08)
(1.45361 -0.685516 -6.48957e-09)
(1.43593 -0.581661 -2.14864e-09)
(1.36591 -0.522442 7.30549e-10)
(1.36288 -0.44606 2.41997e-09)
(1.30768 -0.421679 3.3287e-09)
(1.31283 -0.346285 3.73191e-09)
(1.2715 -0.351722 3.81399e-09)
(1.29633 -0.263151 3.67376e-09)
(1.24184 -0.275618 3.99525e-09)
(1.72789 -0.705089 -2.69961e-08)
(1.59439 -0.62251 -4.8062e-09)
(1.57186 -0.498971 3.10483e-10)
(1.47858 -0.458972 3.4527e-09)
(1.47857 -0.36456 5.04682e-09)
(1.41023 -0.351301 5.7167e-09)
(1.42092 -0.261323 5.83901e-09)
(1.37058 -0.268786 5.64657e-09)
(1.3963 -0.175291 5.26074e-09)
(1.33889 -0.192191 5.32746e-09)
(1.76206 -0.590153 -3.62738e-08)
(1.65122 -0.522512 -4.25839e-10)
(1.60855 -0.43422 4.80629e-09)
(1.52393 -0.393915 7.72923e-09)
(1.50166 -0.327146 8.82553e-09)
(1.45301 -0.311638 8.94968e-09)
(1.44183 -0.245513 8.5637e-09)
(1.42106 -0.250778 7.92919e-09)
(1.42676 -0.17634 7.17419e-09)
(1.40648 -0.19619 6.86962e-09)
(1.92797 -0.469645 -4.79578e-08)
(1.7586 -0.419485 8.19928e-09)
(1.71065 -0.323549 1.20875e-08)
(1.6089 -0.301475 1.39228e-08)
(1.58644 -0.228925 1.39054e-08)
(1.52895 -0.224444 1.3063e-08)
(1.51841 -0.156557 1.18828e-08)
(1.49199 -0.167515 1.0611e-08)
(1.49413 -0.0963752 9.35338e-09)
(1.47445 -0.121709 8.55991e-09)
(1.94974 -0.351157 -6.21483e-08)
(1.79094 -0.309252 2.26695e-08)
(1.73237 -0.255871 2.27188e-08)
(1.63591 -0.231389 2.21801e-08)
(1.60139 -0.192011 2.02444e-08)
(1.55608 -0.181316 1.79384e-08)
(1.53264 -0.14208 1.56544e-08)
(1.52375 -0.144856 1.3551e-08)
(1.51086 -0.0976735 1.16687e-08)
(1.5149 -0.115847 1.02885e-08)
(2.04421 -0.199637 -7.88774e-08)
(1.85146 -0.1819 4.39071e-08)
(1.78963 -0.130248 3.66705e-08)
(1.68309 -0.123853 3.21959e-08)
(1.64829 -0.0863662 2.74762e-08)
(1.59756 -0.0861928 2.3229e-08)
(1.57384 -0.0529133 1.95764e-08)
(1.56181 -0.0597998 1.64955e-08)
(1.54536 -0.024403 1.39097e-08)
(1.55134 -0.0411576 1.18917e-08)
(2.04643 -0.0799241 -9.83414e-08)
(1.85767 -0.0681061 7.10467e-08)
(1.79369 -0.0626339 5.28244e-08)
(1.68809 -0.0529509 4.2979e-08)
(1.65108 -0.0510544 3.48025e-08)
(1.60289 -0.0425801 2.83136e-08)
(1.57672 -0.0408621 2.31709e-08)
(1.56911 -0.0356637 1.90769e-08)
(1.54861 -0.0296963 1.5791e-08)
(1.56226 -0.031173 1.31628e-08)
(0.130857 -0.110808 -9.8538e-10)
(0.277861 -0.0785938 -1.32757e-09)
(0.419754 -0.0674906 -1.49349e-09)
(0.517681 -0.0588789 -1.55008e-09)
(0.609903 -0.0516515 -1.53396e-09)
(0.680453 -0.0486569 -1.47405e-09)
(0.749474 -0.0427773 -1.39093e-09)
(0.800528 -0.0427806 -1.29853e-09)
(0.860747 -0.0361053 -1.2059e-09)
(0.892341 -0.0430284 -1.11817e-09)
(0.148751 -0.207916 -8.478e-10)
(0.295633 -0.177755 -8.31835e-10)
(0.432974 -0.162553 -7.45951e-10)
(0.529549 -0.136982 -6.45939e-10)
(0.618734 -0.130024 -5.45189e-10)
(0.688477 -0.115541 -4.51733e-10)
(0.754835 -0.110605 -3.69693e-10)
(0.805889 -0.106496 -3.00796e-10)
(0.862509 -0.0948453 -2.45166e-10)
(0.896986 -0.115229 -2.06117e-10)
(0.202882 -0.419841 -9.7758e-10)
(0.333779 -0.328056 -9.91827e-10)
(0.465038 -0.290327 -8.99638e-10)
(0.554954 -0.248758 -7.83906e-10)
(0.638421 -0.227119 -6.63071e-10)
(0.70661 -0.206855 -5.48842e-10)
(0.76378 -0.190988 -4.47394e-10)
(0.819454 -0.186208 -3.61473e-10)
(0.86199 -0.163866 -2.91174e-10)
(0.910592 -0.195556 -2.47472e-10)
(0.252557 -0.496256 -1.17095e-09)
(0.385839 -0.414371 -1.18725e-09)
(0.504825 -0.375441 -1.05987e-09)
(0.590857 -0.316743 -9.06361e-10)
(0.666714 -0.299146 -7.49132e-10)
(0.731296 -0.263632 -6.02552e-10)
(0.7825 -0.254375 -4.73973e-10)
(0.835717 -0.239524 -3.66549e-10)
(0.87062 -0.220091 -2.7986e-10)
(0.924563 -0.257791 -2.38338e-10)
(0.359178 -0.680233 -1.45459e-09)
(0.459397 -0.545835 -1.45366e-09)
(0.568996 -0.482449 -1.2671e-09)
(0.640128 -0.412409 -1.05481e-09)
(0.707246 -0.378036 -8.43878e-10)
(0.766522 -0.338348 -6.51189e-10)
(0.802917 -0.318992 -4.84883e-10)
(0.862874 -0.301769 -3.48241e-10)
(0.873749 -0.279116 -2.39916e-10)
(0.952997 -0.320746 -2.04777e-10)
(0.433876 -0.721297 -1.85637e-09)
(0.542448 -0.606202 -1.80493e-09)
(0.635781 -0.546959 -1.52653e-09)
(0.700939 -0.45889 -1.2278e-09)
(0.759491 -0.435485 -9.41081e-10)
(0.809541 -0.374072 -6.85006e-10)
(0.842541 -0.371604 -4.67525e-10)
(0.889278 -0.33419 -2.91433e-10)
(0.898274 -0.328788 -1.54111e-10)
(0.973209 -0.364395 -1.30818e-10)
(0.588514 -0.866242 -2.41698e-09)
(0.644848 -0.71068 -2.25744e-09)
(0.729756 -0.623942 -1.84251e-09)
(0.769008 -0.532691 -1.4214e-09)
(0.82103 -0.486889 -1.03159e-09)
(0.85697 -0.425329 -6.91324e-10)
(0.876548 -0.406879 -4.0599e-10)
(0.926906 -0.366967 -1.76368e-10)
(0.908281 -0.361666 1.76666e-12)
(1.01902 -0.394039 7.82722e-12)
(0.677072 -0.863882 -3.19406e-09)
(0.750595 -0.733496 -2.82694e-09)
(0.819513 -0.657027 -2.21419e-09)
(0.853328 -0.546582 -1.62488e-09)
(0.901394 -0.51913 -1.10004e-09)
(0.923521 -0.427506 -6.52701e-10)
(0.952352 -0.440139 -2.80402e-10)
(0.968646 -0.362043 2.26418e-11)
(0.971842 -0.400269 2.64386e-10)
(1.03001 -0.400057 2.55455e-10)
(0.872691 -0.966185 -4.26876e-09)
(0.874392 -0.808526 -3.52348e-09)
(0.939235 -0.702435 -2.63e-09)
(0.933887 -0.604273 -1.81615e-09)
(0.983859 -0.543986 -1.12268e-09)
(0.972474 -0.469114 -5.48767e-10)
(0.999601 -0.437176 -7.36887e-11)
(0.998801 -0.373867 3.2809e-10)
(0.979001 -0.365932 6.8316e-10)
(1.08923 -0.374957 7.05948e-10)
(0.955954 -0.919624 -5.7547e-09)
(0.986372 -0.788621 -4.33901e-09)
(1.03378 -0.696396 -3.05186e-09)
(1.03037 -0.579509 -1.94642e-09)
(1.0791 -0.536947 -1.05548e-09)
(1.07138 -0.42309 -3.52578e-10)
(1.12627 -0.428315 2.15234e-10)
(1.11401 -0.2825 7.24932e-10)
(1.16577 -0.373782 1.31633e-09)
(1.16686 -0.174845 1.85035e-09)
(0.962881 -0.00432893 -1.07807e-09)
(0.895398 -0.00436003 -1.06463e-09)
(0.970576 -0.0114201 -1.03752e-09)
(0.916759 -0.00271982 -9.9952e-10)
(0.976878 -0.0117456 -9.52108e-10)
(0.93691 -0.00350553 -8.97551e-10)
(0.985766 -0.0110128 -8.38464e-10)
(0.955994 -0.00415023 -7.77501e-10)
(0.994468 -0.00933756 -7.17112e-10)
(0.973744 -0.00406725 -6.59389e-10)
(1.00162 -0.00702097 -6.0601e-10)
(0.987346 -0.00319674 -5.58237e-10)
(1.0067 -0.00401808 -5.16964e-10)
(0.994681 -0.00153831 -4.82783e-10)
(1.00828 -0.00028154 -4.56056e-10)
(0.993788 0.00126768 -4.36973e-10)
(1.00387 0.00439939 -4.25612e-10)
(0.980509 0.00602254 -4.21966e-10)
(0.988643 0.010881 -4.25923e-10)
(0.949375 0.0152236 -4.38025e-10)
(0.952747 -0.00196454 -2.08525e-10)
(0.890498 -0.00567942 -1.87124e-10)
(0.964219 -0.0215737 -1.56587e-10)
(0.914322 -0.00390274 -1.22841e-10)
(0.9723 -0.0207636 -8.79349e-11)
(0.937344 -0.00768486 -5.40967e-11)
(0.982957 -0.0186 -2.32699e-11)
(0.958422 -0.0102867 3.0944e-12)
(0.993396 -0.015776 2.41181e-11)
(0.976944 -0.0108683 3.94592e-11)
(1.00172 -0.0118028 4.92057e-11)
(0.990911 -0.00897984 5.37442e-11)
(1.00741 -0.006263 5.36369e-11)
(0.998303 -0.00413485 4.95205e-11)
(1.00952 0.0016621 4.2036e-11)
(0.997224 0.00412864 3.17844e-11)
(1.00586 0.0137152 1.93064e-11)
(0.984416 0.0171591 5.07867e-12)
(0.991836 0.031352 -1.04447e-11)
(0.955287 0.0425821 -2.77153e-11)
(0.928845 -0.012971 -2.9695e-10)
(0.8866 -0.0176211 -2.7397e-10)
(0.949349 -0.0472631 -2.30945e-10)
(0.91399 -0.0128751 -1.82743e-10)
(0.96305 -0.0458111 -1.33015e-10)
(0.938909 -0.0172428 -8.55711e-11)
(0.978033 -0.0409728 -4.33835e-11)
(0.960394 -0.019836 -8.33414e-12)
(0.991245 -0.0340608 1.87505e-11)
(0.979328 -0.0192912 3.78824e-11)
(1.00177 -0.0250182 4.9635e-11)
(0.993283 -0.0151587 5.48886e-11)
(1.00946 -0.0135171 5.4634e-11)
(1.00096 -0.00679032 4.9842e-11)
(1.01267 0.00118927 4.13881e-11)
(1.00149 0.00669726 3.00178e-11)
(1.0091 0.0213738 1.63391e-11)
(0.991056 0.0278722 8.33619e-13)
(0.996335 0.0499115 -1.60617e-11)
(0.964927 0.0688126 -3.50235e-11)
(0.904471 -0.0163706 -3.67781e-10)
(0.87731 -0.0257146 -3.35811e-10)
(0.936261 -0.0632804 -2.68544e-10)
(0.911355 -0.0230253 -1.9588e-10)
(0.95512 -0.0594322 -1.24305e-10)
(0.942814 -0.0306603 -5.98218e-11)
(0.974648 -0.0516582 -6.2102e-12)
(0.968869 -0.0345276 3.49746e-11)
(0.99136 -0.042821 6.3892e-11)
(0.989418 -0.0330631 8.17616e-11)
(1.00403 -0.0324408 9.0295e-11)
(1.00369 -0.0260383 9.12974e-11)
(1.0127 -0.0192344 8.64351e-11)
(1.01073 -0.0132723 7.71264e-11)
(1.01651 -0.00110959 6.45113e-11)
(1.01022 0.0061852 4.94654e-11)
(1.01403 0.0251252 3.26339e-11)
(1.00045 0.0356619 1.44751e-11)
(1.00363 0.0621457 -4.62212e-12)
(0.97859 0.0903618 -2.55054e-11)
(0.86661 -0.036369 -4.5419e-10)
(0.877881 -0.0438606 -4.02085e-10)
(0.913651 -0.0942115 -2.92815e-10)
(0.916661 -0.0388927 -1.8173e-10)
(0.941752 -0.0849208 -8.03704e-11)
(0.949545 -0.0452157 3.07295e-12)
(0.968986 -0.0723842 6.55514e-11)
(0.974238 -0.0463571 1.07781e-10)
(0.991329 -0.0595545 1.32551e-10)
(0.993555 -0.0414834 1.4338e-10)
(1.00781 -0.0449909 1.43688e-10)
(1.007 -0.0310517 1.36408e-10)
(1.01891 -0.0269718 1.23864e-10)
(1.01483 -0.0146846 1.07798e-10)
(1.02374 -0.00353139 8.94609e-11)
(1.01706 0.00887117 6.9711e-11)
(1.0213 0.0285802 4.91085e-11)
(1.0109 0.0437612 2.79964e-11)
(1.01236 0.0724541 6.64901e-12)
(0.99412 0.107732 -1.60267e-11)
(0.843727 -0.0517662 -5.48665e-10)
(0.87962 -0.0636682 -4.53e-10)
(0.907138 -0.121136 -2.74181e-10)
(0.925048 -0.0662155 -1.09178e-10)
(0.941809 -0.10813 2.45409e-11)
(0.960645 -0.0728245 1.20378e-10)
(0.973934 -0.0904455 1.80837e-10)
(0.987824 -0.0699352 2.12584e-10)
(0.998129 -0.0738704 2.23081e-10)
(1.00805 -0.0602058 2.18902e-10)
(1.01448 -0.0563531 2.05182e-10)
(1.0215 -0.045025 1.85643e-10)
(1.0246 -0.0354179 1.62843e-10)
(1.02802 -0.0240535 1.38463e-10)
(1.02856 -0.00844955 1.13555e-10)
(1.0281 0.00463608 8.87302e-11)
(1.02654 0.0281883 6.4308e-11)
(1.0216 0.0458826 4.0414e-11)
(1.01992 0.077041 1.71456e-11)
(1.00905 0.117789 -6.85136e-12)
(0.804991 -0.0902642 -6.31538e-10)
(0.89626 -0.0822994 -4.42932e-10)
(0.888314 -0.148128 -1.57733e-10)
(0.944513 -0.0855979 6.63287e-11)
(0.93996 -0.125331 2.1639e-10)
(0.978157 -0.0916488 3.00956e-10)
(0.979892 -0.105404 3.36946e-10)
(1.00024 -0.0847395 3.40668e-10)
(1.0072 -0.0868274 3.24731e-10)
(1.01644 -0.0699394 2.97847e-10)
(1.02458 -0.0666177 2.65632e-10)
(1.02718 -0.050403 2.31518e-10)
(1.03496 -0.0428 1.9749e-10)
(1.03336 -0.0255229 1.64618e-10)
(1.03875 -0.012532 1.33402e-10)
(1.03551 0.00683131 1.03998e-10)
(1.03638 0.027208 7.63563e-11)
(1.03238 0.0517169 5.03207e-11)
(1.03042 0.0782887 2.57802e-11)
(1.02476 0.126714 1.16966e-12)
(0.809698 -0.115823 -6.43122e-10)
(0.938267 -0.129016 -2.64032e-10)
(0.904089 -0.179633 1.4723e-10)
(0.971227 -0.143279 3.89912e-10)
(0.958479 -0.151305 5.01836e-10)
(0.995753 -0.132672 5.30234e-10)
(0.999442 -0.12593 5.11914e-10)
(1.01712 -0.111994 4.70425e-10)
(1.02344 -0.10398 4.19418e-10)
(1.03284 -0.0892435 3.66302e-10)
(1.03618 -0.0796448 3.14844e-10)
(1.04229 -0.064047 2.6678e-10)
(1.04266 -0.0510577 2.22738e-10)
(1.04662 -0.0348154 1.82763e-10)
(1.04378 -0.0168635 1.466e-10)
(1.04556 0.00165861 1.13857e-10)
(1.04103 0.0258801 8.40919e-11)
(1.04034 0.0502694 5.68636e-11)
(1.0365 0.0788796 3.18636e-11)
(1.03561 0.126355 7.41758e-12)
(0.77892 -0.187448 -3.63221e-10)
(0.990237 -0.139795 3.19236e-10)
(0.928669 -0.17579 7.38097e-10)
(1.01472 -0.159445 8.56417e-10)
(0.997352 -0.160468 8.35606e-10)
(1.02538 -0.148739 7.59306e-10)
(1.02675 -0.140308 6.66618e-10)
(1.03662 -0.12338 5.74367e-10)
(1.0424 -0.114933 4.89126e-10)
(1.04677 -0.0964503 4.12934e-10)
(1.05135 -0.0878838 3.45884e-10)
(1.05181 -0.06886 2.87281e-10)
(1.05496 -0.0579047 2.36161e-10)
(1.0527 -0.0373579 1.91513e-10)
(1.05451 -0.0220045 1.52377e-10)
(1.05104 0.00155961 1.17884e-10)
(1.05023 0.0226071 8.72642e-11)
(1.04813 0.0520555 5.9852e-11)
(1.04479 0.0763409 3.51825e-11)
(1.04643 0.127256 1.15829e-11)
(0.845282 -0.209466 8.66262e-10)
(1.05149 -0.285629 1.40632e-09)
(0.997843 -0.192367 1.39908e-09)
(1.04723 -0.22215 1.21942e-09)
(1.04724 -0.172152 1.02909e-09)
(1.05557 -0.175786 8.60553e-10)
(1.06078 -0.152982 7.17738e-10)
(1.06132 -0.142564 5.97972e-10)
(1.06312 -0.128546 4.97575e-10)
(1.06405 -0.111484 4.13168e-10)
(1.06338 -0.0984764 3.4191e-10)
(1.06516 -0.0791356 2.81459e-10)
(1.06241 -0.0634496 2.29898e-10)
(1.06422 -0.0434689 1.85649e-10)
(1.05886 -0.0234186 1.4741e-10)
(1.05977 -0.00152967 1.14102e-10)
(1.05362 0.0236874 8.48273e-11)
(1.05374 0.0504701 5.8841e-11)
(1.04964 0.0769003 3.56189e-11)
(1.05291 0.122259 1.35921e-11)
(1.28001 0.00331598 2.1007e-09)
(1.10894 -0.291687 1.27023e-09)
(1.15849 -0.222819 9.4918e-10)
(1.08661 -0.215633 7.67428e-10)
(1.10657 -0.199498 6.40265e-10)
(1.08134 -0.17282 5.41572e-10)
(1.088 -0.164497 4.61266e-10)
(1.07801 -0.141287 3.94258e-10)
(1.07855 -0.133528 3.3744e-10)
(1.07285 -0.112026 2.88679e-10)
(1.06968 -0.10269 2.46405e-10)
(1.06535 -0.0811862 2.0941e-10)
(1.06133 -0.0684286 1.7673e-10)
(1.05774 -0.0456455 1.47578e-10)
(1.05545 -0.028256 1.21295e-10)
(1.05272 -0.00304889 9.73156e-11)
(1.05144 0.0188694 7.51483e-11)
(1.05145 0.0490931 5.43599e-11)
(1.05005 0.0719197 3.46568e-11)
(1.05438 0.120341 1.46839e-11)
(1.30165 -0.151718 1.98393e-09)
(1.2102 -0.161057 1.36789e-09)
(1.17748 -0.16918 1.02969e-09)
(1.15076 -0.168384 8.14867e-10)
(1.12741 -0.163902 6.66225e-10)
(1.11445 -0.156161 5.55578e-10)
(1.10261 -0.146597 4.68894e-10)
(1.09418 -0.132959 3.98576e-10)
(1.08488 -0.122937 3.40125e-10)
(1.08094 -0.105318 2.90646e-10)
(1.07257 -0.0941845 2.48146e-10)
(1.07284 -0.0742121 2.11174e-10)
(1.06532 -0.0600064 1.78628e-10)
(1.06841 -0.0395505 1.49638e-10)
(1.06116 -0.0204431 1.23496e-10)
(1.0648 0.000567029 9.96062e-11)
(1.05958 0.025314 7.74565e-11)
(1.06324 0.0491169 5.65981e-11)
(1.06089 0.0751941 3.67311e-11)
(1.06665 0.115614 1.64895e-11)
(1.21817 -0.0901007 1.89435e-09)
(1.15521 -0.163379 1.41994e-09)
(1.18753 -0.163542 1.11341e-09)
(1.13874 -0.162258 8.90949e-10)
(1.15059 -0.163787 7.27141e-10)
(1.12019 -0.147863 6.02561e-10)
(1.12296 -0.144973 5.0484e-10)
(1.10594 -0.126624 4.26148e-10)
(1.10434 -0.120871 3.61401e-10)
(1.09462 -0.101347 3.07179e-10)
(1.08931 -0.0932382 2.61082e-10)
(1.08392 -0.0728579 2.21364e-10)
(1.07643 -0.0611612 1.86707e-10)
(1.07384 -0.0401499 1.56084e-10)
(1.06813 -0.0234618 1.28674e-10)
(1.06727 -0.00158722 1.03796e-10)
(1.06366 0.020444 8.08755e-11)
(1.06508 0.0457435 5.94151e-11)
(1.06247 0.0697896 3.90796e-11)
(1.06887 0.111914 1.84661e-11)
(1.25763 -0.149998 1.75879e-09)
(1.22 -0.128542 1.3833e-09)
(1.21181 -0.152872 1.12451e-09)
(1.1887 -0.12902 9.18324e-10)
(1.16951 -0.143516 7.56923e-10)
(1.15357 -0.126672 6.29594e-10)
(1.13691 -0.129866 5.27733e-10)
(1.12521 -0.113851 4.44959e-10)
(1.11138 -0.110446 3.76661e-10)
(1.10488 -0.0937094 3.19502e-10)
(1.09261 -0.0855596 2.71035e-10)
(1.09225 -0.0674232 2.29425e-10)
(1.08113 -0.0547927 1.93267e-10)
(1.08536 -0.0360811 1.61458e-10)
(1.07494 -0.0177901 1.33111e-10)
(1.08042 0.000955654 1.07499e-10)
(1.07372 0.0250486 8.40047e-11)
(1.07971 0.0455124 6.21023e-11)
(1.07708 0.0713013 4.14315e-11)
(1.08621 0.105981 2.05649e-11)
(1.21401 -0.109411 1.62657e-09)
(1.18919 -0.115776 1.31674e-09)
(1.19437 -0.13179 1.09909e-09)
(1.16721 -0.119208 9.15031e-10)
(1.16884 -0.130735 7.63934e-10)
(1.14614 -0.116512 6.40497e-10)
(1.14358 -0.120296 5.39363e-10)
(1.12869 -0.104135 4.55899e-10)
(1.12345 -0.102623 3.8638e-10)
(1.1144 -0.0847077 3.2789e-10)
(1.10661 -0.0790142 2.78169e-10)
(1.10201 -0.0602249 2.35455e-10)
(1.09152 -0.0498396 1.98361e-10)
(1.09116 -0.0312323 1.65776e-10)
(1.08204 -0.0155923 1.36801e-10)
(1.08383 0.0024025 1.10688e-10)
(1.07762 0.0240432 8.6806e-11)
(1.08117 0.042879 6.46142e-11)
(1.077 0.0681455 4.37408e-11)
(1.08614 0.0993065 2.27502e-11)
(1.23083 -0.132882 1.50368e-09)
(1.22468 -0.108902 1.24066e-09)
(1.20892 -0.13199 1.05534e-09)
(1.20062 -0.103806 8.92809e-10)
(1.18198 -0.120852 7.54732e-10)
(1.17198 -0.10181 6.38626e-10)
(1.15441 -0.109534 5.41322e-10)
(1.14475 -0.0933936 4.59653e-10)
(1.12926 -0.0944638 3.90797e-10)
(1.12356 -0.0785895 3.32373e-10)
(1.10882 -0.0742016 2.82426e-10)
(1.10992 -0.0575796 2.39364e-10)
(1.09544 -0.04823 2.01893e-10)
(1.10185 -0.0307844 1.68952e-10)
(1.08774 -0.0157824 1.39664e-10)
(1.09642 0.00142781 1.13296e-10)
(1.08672 0.0229006 8.92202e-11)
(1.09687 0.0399682 6.68993e-11)
(1.09236 0.0652621 4.59619e-11)
(1.10529 0.0922867 2.49808e-11)
(1.2135 -0.0949986 1.3904e-09)
(1.20823 -0.0930011 1.16339e-09)
(1.19534 -0.105632 1.00329e-09)
(1.18303 -0.0921175 8.59785e-10)
(1.17557 -0.103326 7.34906e-10)
(1.1615 -0.0910294 6.27498e-10)
(1.15432 -0.0965932 5.35713e-10)
(1.14379 -0.0831428 4.57432e-10)
(1.1357 -0.0829317 3.90591e-10)
(1.12939 -0.0687445 3.3332e-10)
(1.11958 -0.0626835 2.83996e-10)
(1.1172 -0.0484459 2.41242e-10)
(1.10481 -0.0372556 2.03897e-10)
(1.10743 -0.0230879 1.70987e-10)
(1.09542 -0.00773681 1.41688e-10)
(1.10126 0.0064755 1.153e-10)
(1.0916 0.0264474 9.12192e-11)
(1.09958 0.0405253 6.8925e-11)
(1.09295 0.0637255 4.80581e-11)
(1.10545 0.0854995 2.72147e-11)
(1.22087 -0.107616 1.28618e-09)
(1.22671 -0.0903701 1.0885e-09)
(1.20378 -0.108735 9.48434e-10)
(1.20398 -0.084848 8.21218e-10)
(1.18453 -0.0987687 7.08648e-10)
(1.18001 -0.0817567 6.10144e-10)
(1.16255 -0.0891124 5.24597e-10)
(1.15705 -0.0742959 4.50592e-10)
(1.14035 -0.0774233 3.86633e-10)
(1.13834 -0.0624448 3.31281e-10)
(1.12139 -0.0611103 2.83225e-10)
(1.12532 -0.0461324 2.41302e-10)
(1.10847 -0.0394078 2.04503e-10)
(1.11677 -0.0243803 1.71957e-10)
(1.10046 -0.0123075 1.42911e-10)
(1.11174 0.0024413 1.16714e-10)
(1.09913 0.0205192 9.2801e-11)
(1.11326 0.0346634 7.06763e-11)
(1.10587 0.0571386 5.00025e-11)
(1.1219 0.0777321 2.94117e-11)
(1.21099 -0.0739868 1.19057e-09)
(1.21607 -0.0740269 1.0176e-09)
(1.1943 -0.0824385 8.9381e-10)
(1.19189 -0.0722577 7.80456e-10)
(1.17801 -0.0802364 6.78958e-10)
(1.17056 -0.0717287 5.88966e-10)
(1.16054 -0.0749017 5.0978e-10)
(1.15309 -0.0663337 4.40432e-10)
(1.14369 -0.0643774 3.79834e-10)
(1.14015 -0.0550418 3.26885e-10)
(1.1285 -0.0479212 2.80539e-10)
(1.12963 -0.0384575 2.39832e-10)
(1.11538 -0.0266504 2.03903e-10)
(1.12146 -0.0174917 1.71987e-10)
(1.10731 -0.00170034 1.43413e-10)
(1.11751 0.00782671 1.17587e-10)
(1.10497 0.0265072 9.3987e-11)
(1.11812 0.0368311 7.21541e-11)
(1.10923 0.0556421 5.17777e-11)
(1.12473 0.0720535 3.15355e-11)
(1.21501 -0.081884 1.10322e-09)
(1.22447 -0.0704051 9.51511e-10)
(1.19907 -0.0856123 8.41182e-10)
(1.20387 -0.0660302 7.39645e-10)
(1.18312 -0.0787586 6.47935e-10)
(1.18351 -0.0631876 5.65795e-10)
(1.16571 -0.070376 4.92744e-10)
(1.16451 -0.0572039 4.28098e-10)
(1.14745 -0.0601997 3.71053e-10)
(1.14927 -0.0475707 3.20763e-10)
(1.13099 -0.0467701 2.76395e-10)
(1.13808 -0.0345575 2.37159e-10)
(1.11937 -0.0289577 2.02327e-10)
(1.13012 -0.0174427 1.71239e-10)
(1.11268 -0.00690034 1.43303e-10)
(1.12556 0.00400057 1.17987e-10)
(1.11198 0.019204 9.48169e-11)
(1.12715 0.0303898 7.33728e-11)
(1.11884 0.0478828 5.33758e-11)
(1.13558 0.0641886 3.35555e-11)
(1.20752 -0.0562072 1.0239e-09)
(1.21643 -0.0577378 8.90622e-10)
(1.19265 -0.0636443 7.916e-10)
(1.19582 -0.0566294 7.0017e-10)
(1.1782 -0.0618819 6.17044e-10)
(1.17639 -0.0563023 5.41995e-10)
(1.16369 -0.0570585 4.74669e-10)
(1.15982 -0.0523536 4.14558e-10)
(1.14901 -0.0487548 3.61056e-10)
(1.14823 -0.0433498 3.13506e-10)
(1.13501 -0.0362916 2.71242e-10)
(1.13971 -0.0299789 2.33618e-10)
(1.12351 -0.0195537 2.00024e-10)
(1.13332 -0.0131633 1.69893e-10)
(1.11738 0.00108716 1.42709e-10)
(1.13127 0.00727082 1.18001e-10)
(1.11767 0.0243946 9.5344e-11)
(1.13397 0.0303419 7.43581e-11)
(1.12477 0.0473093 5.47975e-11)
(1.14137 0.0565054 3.54477e-11)
(1.20981 -0.0591072 9.52383e-10)
(1.21963 -0.0509211 8.35145e-10)
(1.19477 -0.0643064 7.45707e-10)
(1.20249 -0.0480456 6.62947e-10)
(1.18048 -0.0610855 5.87306e-10)
(1.18543 -0.0458072 5.18575e-10)
(1.16654 -0.0545527 4.5647e-10)
(1.16924 -0.04142 4.00601e-10)
(1.15221 -0.0450562 3.50497e-10)
(1.15668 -0.0339227 3.05641e-10)
(1.13839 -0.0333486 2.65496e-10)
(1.14788 -0.0235647 2.29533e-10)
(1.12827 -0.0191327 1.9724e-10)
(1.14191 -0.0102859 1.68134e-10)
(1.12337 -0.00183291 1.41767e-10)
(1.13844 0.00616251 1.17726e-10)
(1.12367 0.0180465 9.56311e-11)
(1.1397 0.0263293 7.5144e-11)
(1.13052 0.038884 5.60514e-11)
(1.14704 0.050819 3.71951e-11)
(1.20422 -0.0408808 8.8851e-10)
(1.21259 -0.0445084 7.85185e-10)
(1.19081 -0.046905 7.03909e-10)
(1.19592 -0.0435612 6.28585e-10)
(1.17742 -0.0457878 5.59441e-10)
(1.17993 -0.0422247 4.96276e-10)
(1.16491 -0.0423016 4.38854e-10)
(1.16579 -0.0386726 3.86861e-10)
(1.15247 -0.0363525 3.39924e-10)
(1.15526 -0.0322507 2.97625e-10)
(1.13998 -0.0272947 2.59531e-10)
(1.14779 -0.0226066 2.25203e-10)
(1.1299 -0.0145833 1.94211e-10)
(1.14302 -0.00982219 1.66144e-10)
(1.12558 0.00129802 1.40614e-10)
(1.14244 0.00596308 1.1726e-10)
(1.1285 0.0192027 9.57461e-11)
(1.14632 0.0236476 7.57709e-11)
(1.13786 0.0366461 5.71525e-11)
(1.15419 0.042682 3.87881e-11)
(1.20511 -0.040734 8.32137e-10)
(1.21422 -0.0351092 7.40793e-10)
(1.19169 -0.0460061 6.66464e-10)
(1.2007 -0.0333869 5.97501e-10)
(1.17895 -0.0453799 5.33958e-10)
(1.18604 -0.0315836 4.75646e-10)
(1.16706 -0.0410882 4.22361e-10)
(1.17186 -0.0283719 3.73843e-10)
(1.15491 -0.0330205 3.29786e-10)
(1.16152 -0.0227031 2.89849e-10)
(1.14327 -0.0229136 2.53674e-10)
(1.15526 -0.0145964 2.20896e-10)
(1.13515 -0.0116884 1.91154e-10)
(1.15137 -0.00419531 1.64095e-10)
(1.13229 0.00115784 1.39384e-10)
(1.14923 0.00835153 1.16704e-10)
(1.13388 0.015317 9.57598e-11)
(1.15065 0.0227198 7.62833e-11)
(1.14101 0.0293318 5.81214e-11)
(1.15683 0.0387545 4.02236e-11)
(1.20145 -0.0259245 7.83147e-10)
(1.20729 -0.0325215 7.0199e-10)
(1.18921 -0.0304711 6.33541e-10)
(1.19394 -0.0312548 5.69979e-10)
(1.17663 -0.0305586 5.11222e-10)
(1.18158 -0.0287147 4.57093e-10)
(1.16535 -0.0290292 4.07409e-10)
(1.17085 -0.0251996 3.61946e-10)
(1.15481 -0.025587 3.2045e-10)
(1.16166 -0.020759 2.82636e-10)
(1.14396 -0.0195195 2.48205e-10)
(1.15445 -0.0144588 2.16851e-10)
(1.13533 -0.0105484 1.88265e-10)
(1.15053 -0.00579069 1.62146e-10)
(1.1325 0.000359802 1.38202e-10)
(1.15085 0.00530544 1.16155e-10)
(1.13693 0.0124109 9.57432e-11)
(1.15516 0.0183666 7.67287e-11)
(1.14745 0.0240422 5.89836e-11)
(1.16293 0.0320513 4.15048e-11)
(1.20127 -0.0270103 7.41463e-10)
(1.20939 -0.0238897 6.68789e-10)
(1.19035 -0.0305868 6.05251e-10)
(1.1984 -0.0230812 5.46219e-10)
(1.17925 -0.0309113 4.91499e-10)
(1.18525 -0.0214379 4.40922e-10)
(1.16814 -0.0288245 3.94317e-10)
(1.17267 -0.0186845 3.51489e-10)
(1.15647 -0.0237965 3.12216e-10)
(1.16442 -0.0142127 2.7626e-10)
(1.1461 -0.0168061 2.43366e-10)
(1.16044 -0.00805574 2.13274e-10)
(1.13973 -0.00839806 1.8572e-10)
(1.15794 -0.000492073 1.60442e-10)
(1.13889 0.00118361 1.37186e-10)
(1.15677 0.00846994 1.15705e-10)
(1.14242 0.0108924 9.57668e-11)
(1.15861 0.0180075 7.71573e-11)
(1.15021 0.0195962 5.97693e-11)
(1.1646 0.0273727 4.26414e-11)
(1.19895 -0.0126822 7.06968e-10)
(1.20321 -0.0197273 6.41115e-10)
(1.18807 -0.015321 5.81591e-10)
(1.19183 -0.019136 5.26293e-10)
(1.17644 -0.0163886 4.74927e-10)
(1.18175 -0.0170037 4.27317e-10)
(1.16607 -0.0163501 3.83296e-10)
(1.17369 -0.0143102 3.42687e-10)
(1.1569 -0.0143475 3.05297e-10)
(1.16605 -0.0111762 2.70918e-10)
(1.14729 -0.0106542 2.39334e-10)
(1.15981 -0.00693518 2.10321e-10)
(1.13964 -0.0056601 1.8365e-10)
(1.1567 -0.00166127 1.59094e-10)
(1.13796 0.000470292 1.36426e-10)
(1.15709 0.00452134 1.15427e-10)
(1.14305 0.00762669 9.58856e-11)
(1.161 0.0118686 7.76076e-11)
(1.15359 0.0146482 6.05004e-11)
(1.16814 0.0198392 4.36354e-11)
(1.19889 -0.0176957 6.81966e-10)
(1.2063 -0.0155762 6.21047e-10)
(1.18964 -0.0181161 5.64459e-10)
(1.19598 -0.0152828 5.1197e-10)
(1.17997 -0.0174575 4.63149e-10)
(1.18379 -0.0132223 4.17792e-10)
(1.16922 -0.0167856 3.75731e-10)
(1.17295 -0.0105243 3.36798e-10)
(1.15773 -0.0152447 3.00823e-10)
(1.16608 -0.00776974 2.67625e-10)
(1.14814 -0.0120636 2.37016e-10)
(1.16307 -0.00435572 2.088e-10)
(1.14252 -0.00689743 1.82777e-10)
(1.16149 -7.38806e-05 1.58744e-10)
(1.14246 -0.000637466 1.365e-10)
(1.16138 0.00519863 1.15844e-10)
(1.14735 0.00514235 9.65798e-11)
(1.16384 0.010864 7.85253e-11)
(1.15618 0.00976807 6.1594e-11)
(1.16988 0.0158891 4.48762e-11)
(1.19725 -0.00151834 6.0385e-10)
(1.20242 -0.00592966 5.51589e-10)
(1.18769 -0.00286568 5.02956e-10)
(1.19161 -0.0064224 4.58043e-10)
(1.17757 -0.00456144 4.16067e-10)
(1.18139 -0.00632566 3.76808e-10)
(1.16765 -0.00550376 3.40135e-10)
(1.17402 -0.00556078 3.05933e-10)
(1.15834 -0.00423165 2.74084e-10)
(1.16781 -0.00385146 2.4446e-10)
(1.14917 -0.0018964 2.16925e-10)
(1.16334 -0.00167896 1.91332e-10)
(1.1422 0.00029946 1.67527e-10)
(1.1612 0.000200237 1.45351e-10)
(1.14146 0.00257188 1.24638e-10)
(1.16116 0.00205456 1.05219e-10)
(1.1471 0.00499657 8.69218e-11)
(1.16429 0.00443703 6.95797e-11)
(1.15729 0.00740728 5.31091e-11)
(1.17106 0.00733842 3.65977e-11)
(1.19889 -0.00975844 2.19535e-09)
(1.20459 -0.00678744 1.98138e-09)
(1.18879 -0.00780978 1.78121e-09)
(1.19368 -0.00611531 1.59797e-09)
(1.17942 -0.00573567 1.4307e-09)
(1.18213 -0.00433341 1.27859e-09)
(1.16922 -0.0049068 1.14076e-09)
(1.17339 -0.00274362 1.01637e-09)
(1.15855 -0.00537505 9.04547e-10)
(1.16747 -0.00243196 8.0445e-10)
(1.1493 -0.00550951 7.15246e-10)
(1.1642 -0.00209758 6.36136e-10)
(1.14328 -0.00446088 5.66362e-10)
(1.16262 -0.000703736 5.0521e-10)
(1.14316 -0.00286908 4.52027e-10)
(1.16271 0.00126078 4.06215e-10)
(1.14873 -0.00114448 3.67244e-10)
(1.16557 0.00302836 3.3465e-10)
(1.1584 0.000360661 3.08103e-10)
(1.17189 0.00424326 2.86403e-10)
(1.5799 -0.0184845 1.18405e-08)
(1.57997 -0.00278654 1.15531e-08)
(1.56495 -0.0633081 1.10012e-08)
(1.55669 -0.0581508 1.02602e-08)
(1.52825 -0.140525 9.40505e-09)
(1.51084 -0.146626 8.50587e-09)
(1.4696 -0.26061 7.62531e-09)
(1.42406 -0.255961 6.81657e-09)
(1.37764 -0.377742 6.11194e-09)
(1.18804 -0.337832 5.18732e-09)
(1.43991 -0.0261815 1.08134e-08)
(1.43854 -0.0194474 1.06429e-08)
(1.43359 -0.0852757 1.02256e-08)
(1.41725 -0.0810181 9.6253e-09)
(1.40728 -0.165644 8.90286e-09)
(1.36386 -0.157512 8.11614e-09)
(1.35729 -0.271014 7.30987e-09)
(1.26465 -0.244231 6.49419e-09)
(1.30163 -0.362143 5.58559e-09)
(1.12581 -0.398794 4.11962e-09)
(1.4896 -0.00909248 9.78678e-09)
(1.4885 0.0145945 9.63615e-09)
(1.48309 -0.0278873 9.25103e-09)
(1.46799 -0.0108085 8.69176e-09)
(1.45808 -0.0724611 8.01293e-09)
(1.41364 -0.0587115 7.26236e-09)
(1.40973 -0.141176 6.46741e-09)
(1.30699 -0.132606 5.61472e-09)
(1.33649 -0.199935 4.63362e-09)
(1.16096 -0.312447 3.33952e-09)
(1.36604 -0.0194149 8.82268e-09)
(1.36455 -0.0070182 8.69694e-09)
(1.3702 -0.0580063 8.34806e-09)
(1.35322 -0.0465345 7.83181e-09)
(1.36839 -0.112556 7.19655e-09)
(1.31938 -0.101377 6.48215e-09)
(1.35702 -0.179869 5.70892e-09)
(1.25832 -0.18014 4.87129e-09)
(1.33226 -0.232161 3.95922e-09)
(1.20265 -0.338287 2.92734e-09)
(1.40893 -0.00228949 7.91982e-09)
(1.4056 0.0195391 7.81926e-09)
(1.40887 -0.0039454 7.5064e-09)
(1.3879 0.011301 7.03231e-09)
(1.39704 -0.0245592 6.44049e-09)
(1.34405 -0.0212317 5.76689e-09)
(1.36745 -0.0641606 5.03372e-09)
(1.27239 -0.0960632 4.25363e-09)
(1.30998 -0.120062 3.45646e-09)
(1.20736 -0.272101 2.62598e-09)
(1.31076 -0.0106276 7.07996e-09)
(1.30877 -0.000854366 7.0037e-09)
(1.31996 -0.0336689 6.72618e-09)
(1.30222 -0.025823 6.29401e-09)
(1.32977 -0.0650958 5.7474e-09)
(1.28512 -0.0657944 5.12148e-09)
(1.33231 -0.102853 4.44383e-09)
(1.2595 -0.131943 3.74135e-09)
(1.30904 -0.147352 3.05783e-09)
(1.2368 -0.262567 2.37226e-09)
(1.34476 0.00331336 6.30448e-09)
(1.33979 0.0171801 6.25065e-09)
(1.34797 0.0121233 6.00729e-09)
(1.32561 0.0168076 5.61692e-09)
(1.34301 0.00625283 5.11758e-09)
(1.29753 -0.00880577 4.54488e-09)
(1.32446 -0.0200753 3.93107e-09)
(1.2628 -0.0751234 3.30991e-09)
(1.28414 -0.0786622 2.72453e-09)
(1.23412 -0.211959 2.14607e-09)
(1.27013 -0.00272167 5.59399e-09)
(1.26933 0.00117414 5.56006e-09)
(1.2815 -0.0142873 5.34922e-09)
(1.26734 -0.0144071 5.00021e-09)
(1.29548 -0.0307505 4.54934e-09)
(1.26392 -0.0433979 4.03261e-09)
(1.301 -0.0550172 3.48452e-09)
(1.25874 -0.0939944 2.93997e-09)
(1.28136 -0.0993378 2.43612e-09)
(1.24652 -0.193788 1.94061e-09)
(1.29664 0.00813688 4.94811e-09)
(1.29182 0.0127692 4.9312e-09)
(1.30108 0.0206819 4.75084e-09)
(1.28251 0.0154033 4.44212e-09)
(1.29931 0.0204225 4.03957e-09)
(1.26875 -0.00518117 3.57871e-09)
(1.28791 -0.00149321 3.09399e-09)
(1.25629 -0.0569311 2.61823e-09)
(1.26211 -0.0551881 2.18186e-09)
(1.24055 -0.154526 1.75339e-09)
(1.24208 0.00235666 4.36543e-09)