/*--------------------------------*- C++ -*----------------------------------*\
| =========                 |                                                 |
| \\      /  F ield         | foam-extend: Open Source CFD                    |
|  \\    /   O peration     | Version:  3.0                                   |
|   \\  /    A nd           | Web:         http://www.extend-project.de       |
|    \\/     M anipulation  |                                                 |
\*---------------------------------------------------------------------------*/
FoamFile
{
    version     2.0;
    format      ascii;
    class       volSymmTensorField;
    location    "35";
    object      sigma;
}
// * * * * * * * * * * * * * * * * * * * * * * * * * * * * * * * * * * * * * //

dimensions      [0 0 0 0 0 0 0];

internalField   nonuniform List<symmTensor> 
576
(
(1.95498 -0.0690023 3.01923e-18 -1.95256 3.74139e-18 4.92473e-36)
(2.0286 0.154814 8.08439e-18 -2.02637 -3.31888e-17 -1.65152e-34)
(2.33966 0.226034 -3.09669e-19 -2.33601 -1.63729e-17 -1.96927e-35)
(2.12846 0.252726 -2.4038e-18 -2.12818 -3.84112e-18 1.65471e-35)
(1.93316 0.248029 8.73442e-18 -1.92878 -3.34111e-18 2.45118e-35)
(1.64867 0.23115 6.94054e-18 -1.64917 1.73874e-18 1.15735e-36)
(1.39278 0.211453 -1.08369e-17 -1.38838 -5.29293e-18 -7.00256e-36)
(1.10634 0.185354 -1.50905e-17 -1.1066 2.46035e-17 -1.87689e-34)
(0.86133 0.163859 -2.04793e-17 -0.857573 1.22332e-17 -1.20359e-34)
(0.590226 0.137519 -1.40383e-17 -0.589522 8.33095e-18 -2.35604e-35)
(0.359991 0.115737 1.65927e-18 -0.357248 -1.22329e-17 5.94167e-35)
(0.110358 0.0949676 -1.16433e-17 -0.108288 -1.12454e-17 -5.35755e-36)
(2.12121 -0.1661 -1.85145e-17 -2.1188 -1.18226e-17 -9.50064e-35)
(1.97169 0.457294 -4.48613e-17 -1.96947 2.46328e-17 4.03799e-34)
(2.22587 0.65956 -3.11688e-18 -2.22227 1.38026e-17 2.2157e-34)
(1.97733 0.730967 3.2937e-18 -1.97705 -1.5703e-17 -2.90542e-35)
(1.77701 0.715367 1.51495e-17 -1.77269 -1.52178e-17 -2.26126e-36)
(1.49576 0.664677 -1.14736e-17 -1.49626 1.11499e-17 0)
(1.24704 0.606516 -1.91062e-17 -1.24271 4.37428e-17 -4.36167e-34)
(0.973085 0.530156 4.42035e-17 -0.973343 8.04328e-18 1.93538e-34)
(0.73764 0.467127 2.65458e-17 -0.733943 1.82209e-17 4.3729e-34)
(0.479958 0.39029 1.43076e-17 -0.479273 1.2623e-18 -4.0762e-34)
(0.260366 0.32667 -3.1261e-17 -0.25767 2.11305e-19 -3.04492e-34)
(0.0194997 0.265593 -2.95144e-17 -0.0174665 2.95103e-17 4.18497e-34)
(2.42038 -0.147264 4.70273e-18 -2.41808 3.72212e-18 -7.85819e-35)
(1.86224 0.739404 1.84494e-17 -1.86012 1.37937e-17 -4.04128e-35)
(2.01146 1.04001 -2.61125e-17 -2.00799 -2.03786e-17 -2.76002e-34)
(1.69514 1.13175 -5.09305e-17 -1.69488 4.61921e-17 -4.90313e-34)
(1.48611 1.10075 -1.93916e-17 -1.48195 7.21905e-18 3.45334e-34)
(1.21155 1.01621 3.78681e-17 -1.21204 1.67151e-17 -1.98485e-34)
(0.976616 0.922147 8.57829e-17 -0.972445 -2.69798e-17 1.02224e-33)
(0.726263 0.80113 4.26269e-18 -0.726511 9.69428e-18 1.24461e-34)
(0.508952 0.700677 8.11515e-17 -0.505389 -9.59266e-18 1.43236e-33)
(0.276563 0.579643 2.98602e-17 -0.2759 2.24063e-18 1.02533e-33)
(0.0770547 0.479067 -1.59103e-17 -0.0744548 2.95346e-17 -9.91375e-34)
(-0.147124 0.381292 4.14366e-17 0.149085 3.95747e-17 1.11635e-33)
(2.79127 0.0433551 2.41929e-18 -2.78907 5.01689e-18 0)
(1.70839 0.990056 -1.04596e-18 -1.70637 -2.99736e-17 0)
(1.72084 1.34014 -3.62963e-17 -1.71755 5.87308e-17 3.20618e-34)
(1.31899 1.41593 8.41357e-17 -1.31874 -4.54177e-17 5.61141e-34)
(1.10008 1.36296 -4.2682e-17 -1.09613 1.71032e-17 -4.10243e-34)
(0.83598 1.24463 4.94976e-17 -0.836438 -3.53009e-17 7.78801e-34)
(0.620426 1.11865 -3.94066e-17 -0.616469 8.10461e-18 -1.0587e-33)
(0.402244 0.961473 1.06444e-16 -0.402482 -5.71998e-17 2.70303e-34)
(0.209836 0.829871 4.30631e-17 -0.206457 -7.09958e-17 -2.19905e-33)
(0.0116869 0.674158 1.79486e-17 -0.0110609 -3.09754e-17 -8.59129e-34)
(-0.160519 0.544033 4.68762e-17 0.162984 7.86938e-18 -2.91276e-34)
(-0.361622 0.415026 1.02284e-16 0.363481 -1.1547e-16 -1.86649e-34)
(3.15407 0.432894 -1.05421e-17 -3.15205 -7.26668e-20 0)
(1.52087 1.20158 -3.18728e-17 -1.51901 2.86088e-17 7.3649e-35)
(1.38612 1.54357 4.00484e-17 -1.38307 -1.98048e-17 -4.55144e-34)
(0.897445 1.56118 -4.34901e-17 -0.897218 1.70776e-17 -5.25359e-34)
(0.670746 1.47878 7.74909e-17 -0.667085 -5.74743e-17 -6.90753e-34)
(0.4213 1.32707 -8.78795e-17 -0.42173 -4.19758e-18 3.57744e-34)
(0.229368 1.1741 -1.65473e-17 -0.225703 -3.91627e-17 0)
(0.0486081 0.99104 -1.26912e-16 -0.0488316 -2.0934e-17 1.62383e-33)
(-0.114546 0.835906 -1.16753e-16 0.117676 2.39301e-17 2.76435e-33)
(-0.273306 0.656974 -7.00587e-17 0.273884 -8.22669e-18 9.62382e-35)
(-0.413938 0.506229 1.46847e-17 0.416221 -5.67804e-17 -1.65301e-33)
(-0.587636 0.352695 -1.25423e-16 0.589357 -1.86512e-18 1.86649e-34)
(3.42323 1.01469 3.78241e-18 -3.42139 1.25152e-17 0)
(1.31176 1.37037 2.82126e-17 -1.31007 -1.5764e-17 1.37757e-34)
(1.04235 1.64683 -1.57044e-17 -1.03958 -1.2817e-17 -5.49454e-35)
(0.483366 1.56503 -1.36516e-17 -0.483157 6.20732e-18 0)
(0.25441 1.44622 -5.88537e-17 -0.251097 2.55048e-17 2.40493e-34)
(0.0242147 1.2621 1.92203e-17 -0.0246026 -1.91897e-17 -1.97831e-34)
(-0.141369 1.08755 -1.25433e-16 0.144686 6.81337e-17 7.09426e-34)
(-0.283125 0.889318 1.53387e-16 0.282921 -7.05719e-18 -2.21636e-33)
(-0.415298 0.718676 1.73468e-17 0.418131 -2.67482e-17 -1.99765e-33)
(-0.533704 0.528375 -7.29267e-17 0.534226 5.5661e-17 1.53289e-33)
(-0.641684 0.366297 1.20521e-17 0.643749 2.06577e-17 0)
(-0.785894 0.195352 -1.9542e-17 0.787451 4.9284e-17 0)
(3.52069 1.74838 2.87021e-18 -3.51908 4.67998e-18 0)
(1.09276 1.4969 -1.51019e-17 -1.09128 5.03641e-17 -6.2428e-34)
(0.722522 1.65938 1.07545e-16 -0.720099 -3.8425e-17 2.10869e-33)
(0.12598 1.44486 -1.39426e-17 -0.125803 -2.59785e-17 0)
(-0.0965615 1.28458 4.14084e-17 0.0994681 -1.79331e-17 -7.69209e-35)
(-0.302652 1.06983 -5.45769e-17 0.302305 1.93765e-17 6.32749e-35)
(-0.440629 0.87904 1.3885e-16 0.443537 -1.21955e-17 6.17062e-34)
(-0.54525 0.675465 1.14622e-16 0.545066 -3.86026e-17 2.52589e-34)
(-0.647225 0.496779 -1.74839e-16 0.649707 3.39845e-17 -1.52931e-33)
(-0.728227 0.305822 4.45528e-17 0.72868 1.74282e-17 -5.50288e-34)
(-0.80551 0.140864 -1.24703e-17 0.807319 -2.21906e-17 0)
(-0.92031 -0.040758 -1.9327e-17 0.921672 3.79915e-17 0)
(3.38867 2.56528 4.94501e-18 -3.3873 5.4019e-18 0)
(0.873873 1.58527 6.11367e-17 -0.872621 -1.04102e-18 4.61216e-34)
(0.452871 1.60176 -4.20049e-17 -0.450824 -1.6637e-17 -1.79246e-33)
(-0.136319 1.23501 -6.68404e-17 0.136471 3.76502e-17 -1.96951e-35)
(-0.341544 1.03125 2.29576e-17 0.343996 -1.23392e-17 -1.81155e-35)
(-0.518625 0.788615 1.33259e-17 0.518332 -4.94844e-17 2.07814e-34)
(-0.628998 0.586433 2.34805e-17 0.631452 1.39364e-17 0)
(-0.701121 0.385287 -7.9656e-17 0.700964 -2.86561e-17 -5.26273e-34)
(-0.775702 0.204657 -1.64109e-16 0.777796 3.82846e-17 3.43367e-33)
(-0.825369 0.0212884 3.77475e-17 0.825749 2.21194e-17 5.71256e-34)
(-0.876317 -0.139927 -3.4147e-17 0.877842 1.09009e-17 7.16756e-34)
(-0.963551 -0.326572 8.87303e-17 0.964698 -7.50154e-18 -1.19017e-33)
(2.99898 3.37798 2.36996e-17 -2.9979 -1.44869e-18 7.06037e-35)
(0.662209 1.64208 -3.51726e-17 -0.661218 -7.82755e-18 -5.46436e-35)
(0.249225 1.50206 -6.66745e-17 -0.247597 4.49472e-17 -2.07921e-34)
(-0.281596 0.981204 1.60449e-16 0.28171 -4.90494e-17 9.9078e-34)
(-0.457612 0.735787 -1.56154e-16 0.459565 4.72725e-17 -3.98597e-34)
(-0.601035 0.469109 1.37405e-16 0.600796 -8.14926e-18 1.04719e-33)
(-0.684699 0.259546 7.18731e-17 0.686652 -9.80808e-17 -1.98209e-33)
(-0.730674 0.0657822 -2.02566e-16 0.730544 -1.01213e-17 2.5379e-33)
(-0.78195 -0.112638 -3.21907e-17 0.783616 4.54963e-17 -1.31823e-33)
(-0.808222 -0.283528 -1.91703e-18 0.80852 1.93853e-19 -4.87812e-37)
(-0.838668 -0.436913 7.71168e-18 0.839879 4.63654e-17 -3.15718e-34)
(-0.901332 -0.624494 8.49921e-17 0.902242 -1.91224e-17 1.19017e-33)
(2.35833 4.09318 7.27184e-18 -2.35754 1.47503e-17 0)
(0.461405 1.67522 2.76123e-17 -0.460679 -8.38453e-18 5.78964e-35)
(0.115083 1.39133 5.70433e-17 -0.113896 1.32807e-18 1.93894e-34)
(-0.307352 0.73343 -1.22713e-16 0.307435 2.91591e-17 -1.17911e-33)
(-0.442774 0.45222 1.22736e-16 0.444196 -1.25254e-17 6.2467e-34)
(-0.548461 0.166381 -4.15664e-17 0.548284 3.89185e-17 -3.88724e-34)
(-0.606771 -0.0475341 -8.94484e-17 0.608194 -8.39766e-18 -6.61362e-34)
(-0.633393 -0.232109 5.91288e-17 0.633294 -1.30752e-17 -6.19253e-34)
(-0.665855 -0.406334 6.38975e-17 0.667068 3.26621e-17 -8.79762e-34)
(-0.677074 -0.563571 5.71909e-17 0.677287 7.25444e-18 5.59853e-35)
(-0.693203 -0.707835 1.69547e-16 0.694083 -2.87379e-17 1.63867e-34)
(-0.734721 -0.894036 -8.4886e-17 0.73538 -3.20419e-18 -1.79658e-35)
(1.50805 4.62523 7.41762e-18 -1.50758 -2.04365e-18 0)
(0.271507 1.69225 -4.55171e-17 -0.271071 1.58841e-17 -5.32082e-35)
(0.0414959 1.29858 -5.25029e-17 -0.0407763 -2.31863e-18 -1.20862e-34)
(-0.230621 0.538072 6.8259e-17 0.230664 -1.02435e-17 -4.90548e-35)
(-0.316031 0.230627 -6.43648e-17 0.316893 2.01733e-17 2.91792e-35)
(-0.3808 -0.0685641 1.48738e-17 0.380684 -1.8718e-17 0)
(-0.415118 -0.284747 -4.2014e-17 0.41598 3.03779e-17 -3.8932e-34)
(-0.42836 -0.461269 2.65374e-17 0.428294 2.8955e-17 2.09027e-34)
(-0.446 -0.631358 -1.62826e-17 0.446735 8.11862e-18 -4.70616e-34)
(-0.449427 -0.777228 -1.32217e-18 0.44955 2.32196e-17 -8.2946e-34)
(-0.456643 -0.913702 -6.38015e-18 0.457174 -3.09772e-17 2.38062e-34)
(-0.480109 -1.09788 3.43704e-17 0.480504 -3.01798e-17 6.026e-34)
(0.518881 4.9089 1.51611e-18 -0.518713 -1.29639e-17 0)
(0.0895363 1.69915 3.58885e-18 -0.0893841 -1.14842e-17 -5.9644e-35)
(0.00898812 1.24614 -9.29183e-18 -0.0087403 2.08902e-17 -4.11756e-35)
(-0.0849675 0.430749 -1.27971e-17 0.0849773 8.82834e-19 9.33374e-36)
(-0.114159 0.109428 4.2189e-17 0.114452 -1.29742e-17 -3.66928e-36)
(-0.135983 -0.196621 -1.21172e-17 0.135934 1.71147e-18 1.18731e-35)
(-0.1473 -0.413736 8.25671e-18 0.147592 3.133e-18 -1.96887e-36)
(-0.151233 -0.585613 -1.88418e-17 0.151201 6.61211e-18 -2.07383e-34)
(-0.156788 -0.753206 2.58953e-17 0.157035 -2.64652e-18 -9.94242e-35)
(-0.157347 -0.892668 -1.29491e-17 0.157379 2.90028e-18 -1.93667e-34)
(-0.159324 -1.0247 -4.05575e-18 0.159498 2.95503e-19 -2.66129e-34)
(-0.166885 -1.20751 7.26905e-18 0.167011 -9.89883e-18 4.41022e-35)
(-0.518893 4.90889 2.79243e-18 0.518732 9.6338e-18 2.04134e-35)
(-0.0895578 1.69914 2.22315e-17 0.0894099 1.53953e-17 3.51482e-35)
(-0.00900724 1.24613 2.93966e-18 0.00876914 3.81659e-18 3.35185e-35)
(0.0849511 0.430743 -8.86712e-18 -0.0849806 1.01469e-19 -4.97082e-35)
(0.114142 0.109421 -1.14669e-17 -0.114429 -8.3166e-18 9.49945e-35)
(0.135962 -0.196627 1.07336e-17 -0.135944 2.81172e-18 1.7524e-35)
(0.147284 -0.413742 -7.74057e-18 -0.147572 -1.02043e-17 6.81186e-36)
(0.15122 -0.585617 -1.58478e-18 -0.151217 -2.27348e-17 1.45192e-34)
(0.156777 -0.753212 -9.69496e-18 -0.157025 -4.11831e-18 1.96248e-34)
(0.157347 -0.892666 -7.32595e-18 -0.157406 1.03297e-17 1.65185e-34)
(0.159312 -1.0247 -7.37914e-19 -0.159498 1.60973e-17 4.28997e-36)
(0.166891 -1.20751 -2.90205e-19 -0.167037 -2.61848e-18 -1.52504e-35)
(-1.50807 4.62525 1.38314e-17 1.50761 -3.33675e-18 -2.09498e-35)
(-0.271529 1.69225 -4.77802e-17 0.271098 -1.09417e-17 4.25006e-34)
(-0.0415175 1.29858 -4.79417e-17 0.0408084 4.28173e-18 5.19501e-35)
(0.230602 0.538074 -2.54105e-17 -0.230665 2.02275e-17 -2.58796e-34)
(0.316013 0.230623 2.61022e-17 -0.31687 2.25698e-18 9.44307e-35)
(0.380778 -0.0685661 9.51965e-18 -0.380693 -3.39933e-17 0)
(0.415102 -0.284755 -7.80228e-17 -0.415962 -2.86258e-17 1.18697e-34)
(0.428346 -0.461269 2.29105e-17 -0.428308 -6.18844e-18 -1.50882e-34)
(0.44599 -0.631365 6.78913e-17 -0.446727 -8.06792e-18 -6.71218e-34)
(0.449425 -0.777223 4.31625e-17 -0.449575 2.06786e-17 -8.95895e-35)
(0.456633 -0.91371 -2.53895e-17 -0.457177 -7.48092e-19 7.27809e-35)
(0.480116 -1.09788 -3.63421e-17 -0.480532 1.37305e-17 1.65015e-34)
(-2.35834 4.09317 -8.3109e-18 2.35756 -2.41023e-17 1.83466e-34)
(-0.46142 1.67521 7.9015e-17 0.4607 9.6743e-18 -7.52926e-34)
(-0.115099 1.39132 5.55358e-17 0.113921 2.90927e-18 9.59421e-35)
(0.30734 0.733425 -3.76732e-17 -0.307439 -6.18486e-18 4.45939e-34)
(0.442763 0.452208 -1.13034e-16 -0.44418 7.6044e-18 1.29317e-34)
(0.548448 0.166372 -2.12394e-17 -0.548298 -4.0526e-18 -2.85202e-34)
(0.606763 -0.0475505 1.06468e-16 -0.608183 1.2147e-17 1.10222e-34)
(0.633386 -0.232114 -2.93221e-17 -0.633313 -7.7115e-18 1.60394e-34)
(0.665852 -0.406348 4.39512e-17 -0.667066 -8.39565e-19 1.6515e-33)
(0.677073 -0.563564 4.98696e-17 -0.67731 -1.387e-17 9.83071e-34)
(0.693198 -0.707845 -6.09827e-18 -0.694089 -3.02536e-17 9.06916e-34)
(0.734724 -0.894027 8.54653e-17 -0.735401 2.72845e-17 -9.37369e-34)
(-2.99901 3.37799 2.83552e-18 2.99794 1.09799e-17 0)
(-0.662227 1.64208 -1.3244e-17 0.661243 -1.61659e-17 0)
(-0.249248 1.50205 -6.3787e-17 0.24763 -3.8896e-17 1.20717e-33)
(0.281578 0.981204 1.57876e-16 -0.281708 1.53341e-17 -1.24442e-34)
(0.457597 0.735777 7.72644e-18 -0.459547 2.57102e-17 5.2093e-34)
(0.601019 0.469103 -4.08392e-17 -0.600806 5.65003e-17 5.23556e-34)
(0.684691 0.259529 -1.52696e-16 -0.686645 -2.71301e-17 -1.91276e-33)
(0.730664 0.065778 3.43546e-17 -0.730558 3.38797e-17 1.246e-33)
(0.781949 -0.112653 -3.52648e-17 -0.78362 1.43509e-17 6.42221e-34)
(0.808216 -0.283521 8.11501e-18 -0.808538 -6.43672e-17 5.19393e-34)
(0.838668 -0.436924 1.86854e-18 -0.839894 -2.37269e-17 1.95781e-34)
(0.901339 -0.62449 8.1152e-17 -0.902268 -3.50173e-17 1.50435e-33)
(-3.38867 2.56527 3.57397e-18 3.38732 -1.01227e-17 0)
(-0.873878 1.58525 -5.90167e-18 0.872637 -3.10927e-17 5.81798e-34)
(-0.452886 1.60175 7.4618e-17 0.450847 6.16181e-17 -7.09583e-34)
(0.136309 1.23501 -1.45678e-16 -0.13647 -2.31994e-17 -5.42206e-34)
(0.341536 1.03123 1.54163e-16 -0.343987 2.71602e-17 -5.90379e-34)
(0.518619 0.788608 -5.24242e-17 -0.518346 1.07871e-17 -1.24467e-34)
(0.629 0.586416 3.56777e-17 -0.631455 3.54975e-17 0)
(0.701119 0.385284 -7.58454e-17 -0.700981 3.817e-17 1.01307e-33)
(0.775711 0.204643 -1.7719e-16 -0.777809 -1.07745e-17 -3.49946e-33)
(0.825365 0.0212968 -1.1335e-16 -0.825764 -1.58226e-17 -3.11566e-33)
(0.876324 -0.139935 3.43389e-17 -0.87786 4.94853e-17 1.59102e-33)
(0.963554 -0.326564 -1.71508e-16 -0.964716 -5.5411e-17 -1.50435e-33)
(-3.52073 1.74838 8.05711e-18 3.51913 -1.35738e-17 0)
(-1.09277 1.4969 3.65766e-17 1.0913 1.10731e-17 -3.00405e-34)
(-0.722547 1.65937 3.70863e-17 0.720128 2.22975e-18 -7.48563e-34)
(-0.126 1.44486 1.80012e-17 0.125811 3.18793e-17 0)
(0.0965499 1.28457 -7.21938e-17 -0.0994591 -2.61985e-17 1.69147e-34)
(0.302643 1.06982 9.44162e-17 -0.302317 1.47894e-17 -1.39143e-34)
(0.440631 0.879023 -7.24029e-17 -0.443546 -5.41973e-17 2.25615e-33)
(0.545247 0.675457 1.91169e-16 -0.545081 5.87333e-17 -2.89749e-33)
(0.647235 0.496766 6.52312e-17 -0.649726 3.38998e-17 1.20573e-33)
(0.728222 0.305825 -3.7626e-17 -0.728694 6.25307e-18 -2.37731e-34)
(0.80552 0.140858 2.27361e-18 -0.807343 -9.82229e-18 0)
(0.920318 -0.0407507 3.38097e-17 -0.921697 5.83124e-17 0)
(-3.42324 1.01468 -4.91104e-18 3.42141 -1.46287e-18 0)
(-1.31176 1.37036 -3.89912e-17 1.31009 -3.311e-17 4.51849e-35)
(-1.04236 1.64682 6.48927e-17 1.0396 1.92077e-17 7.31096e-34)
(-0.483377 1.56503 5.75684e-18 0.483165 -1.0858e-17 0)
(-0.254416 1.44621 6.8835e-17 0.251099 2.66663e-17 -3.22828e-34)
(-0.0242148 1.26209 -4.92552e-17 0.024592 -2.95314e-17 2.65559e-34)
(0.141379 1.08754 5.7342e-17 -0.144701 5.33449e-17 8.15231e-34)
(0.28313 0.889315 -2.97083e-17 -0.282936 2.17243e-17 5.17826e-33)
(0.415317 0.71867 -1.14348e-16 -0.418156 -8.65414e-17 -2.92516e-33)
(0.533702 0.528381 1.05623e-16 -0.534236 -4.32731e-18 2.40288e-33)
(0.641698 0.366299 -2.57636e-18 -0.643774 1.79983e-17 0)
(0.7859 0.195362 1.55038e-17 -0.787469 2.07136e-17 0)
(-3.15411 0.432867 7.80569e-18 3.15209 -1.29753e-18 0)
(-1.52089 1.20157 -8.55922e-18 1.51903 3.45967e-17 4.61854e-34)
(-1.38614 1.54355 -6.97424e-17 1.38309 -4.94052e-17 -6.51369e-34)
(-0.897463 1.56117 -5.64978e-18 0.897229 -5.93017e-18 1.00386e-33)
(-0.670753 1.47877 -1.21674e-17 0.667082 -2.97303e-17 5.62209e-34)
(-0.421299 1.32706 6.98282e-17 0.421717 5.87913e-17 -1.02601e-34)
(-0.229357 1.17409 -7.75894e-17 0.225679 2.07596e-17 0)
(-0.0485967 0.991033 -5.9981e-17 0.0488117 -9.00603e-18 -2.71062e-33)
(0.114567 0.835905 -6.20181e-17 -0.117708 -9.34441e-18 -2.64079e-34)
(0.273309 0.656977 1.29366e-17 -0.273899 -8.15569e-18 -7.90471e-35)
(0.413952 0.506238 1.61462e-18 -0.416249 8.46333e-19 9.81343e-34)
(0.587644 0.352707 7.60873e-17 -0.589379 3.72817e-17 1.21546e-33)
(-2.79126 0.0433352 -1.1233e-18 2.78908 1.17725e-17 7.97144e-35)
(-1.70839 0.990042 -1.113e-17 1.70639 -1.35241e-17 -6.1695e-35)
(-1.72086 1.34012 1.53896e-18 1.71757 -1.08119e-17 -8.24478e-34)
(-1.319 1.41592 8.52944e-17 1.31875 3.22442e-17 -7.08851e-34)
(-1.10009 1.36295 -8.02458e-17 1.09613 -2.25121e-17 1.11442e-34)
(-0.835974 1.24463 8.57597e-17 0.83643 -7.1709e-19 -6.94405e-34)
(-0.620413 1.11865 7.39273e-17 0.616448 7.47779e-17 2.95674e-34)
(-0.40223 0.961473 -4.5365e-17 0.402466 2.0191e-17 3.61501e-34)
(-0.209815 0.829881 5.19793e-17 0.206429 1.69265e-17 9.29015e-34)
(-0.0116837 0.674165 1.02845e-17 0.0110515 2.49124e-17 6.2284e-34)
(0.160531 0.54405 1.92347e-18 -0.163005 2.70211e-17 5.78047e-34)
(0.361629 0.415043 -2.79045e-17 -0.363497 -5.36343e-17 -1.21546e-33)
(-2.4204 -0.147301 -3.72037e-18 2.41809 -1.24635e-17 0)
(-1.86226 0.73938 9.6023e-18 1.86014 -8.1049e-18 3.2374e-34)
(-2.01147 1.03999 -7.46527e-19 2.00799 1.00291e-17 6.41864e-36)
(-1.69516 1.13173 -6.10739e-17 1.69489 -5.8743e-17 3.11649e-35)
(-1.48612 1.10074 7.23321e-17 1.48194 2.00219e-17 -2.04929e-34)
(-1.21155 1.0162 -7.16183e-17 1.21203 -4.00924e-17 5.93139e-34)
(-0.976609 0.922151 2.91867e-17 0.972421 -4.39728e-17 7.16383e-34)
(-0.726243 0.801132 1.25675e-16 0.726492 2.19566e-17 -1.4128e-33)
(-0.508938 0.700694 6.49833e-17 0.50536 -2.21241e-17 -2.0188e-33)
(-0.276553 0.57965 7.32656e-17 0.275885 -7.9704e-18 -1.56721e-33)
(-0.0770475 0.479089 9.1646e-17 0.0744342 2.62546e-17 -1.7307e-33)
(0.147128 0.381309 -8.20254e-17 -0.149101 -6.98176e-20 -2.6072e-34)
(-2.12121 -0.166119 -2.43655e-17 2.11882 5.70219e-18 0)
(-1.97169 0.457272 -2.76757e-17 1.9695 -1.49773e-17 -4.30542e-34)
(-2.22588 0.65954 6.46158e-18 2.22228 -2.43864e-17 -4.41451e-35)
(-1.97734 0.730949 2.15427e-17 1.97707 3.37388e-17 5.68092e-35)
(-1.77701 0.715365 -4.09671e-17 1.77269 -2.65197e-17 -8.28218e-35)
(-1.49575 0.664679 1.60224e-17 1.49625 1.39374e-17 0)
(-1.24704 0.606531 -4.17327e-17 1.2427 -1.4228e-17 6.8213e-35)
(-0.973069 0.530166 5.96944e-18 0.973331 -4.3237e-17 -5.53067e-35)
(-0.737631 0.467147 -2.92707e-17 0.733928 -2.88234e-17 -2.77994e-35)
(-0.479949 0.390299 -1.88964e-17 0.479261 -4.44077e-17 2.02187e-34)
(-0.260365 0.326693 -2.01841e-18 0.25766 -3.40667e-17 8.33877e-34)
(-0.0194939 0.265619 2.96624e-17 0.0174536 4.85138e-17 -4.80463e-34)
(-1.95499 -0.0690237 -5.1521e-19 1.95256 6.79272e-18 0)
(-2.02858 0.154764 6.36246e-18 2.02635 3.1559e-17 1.50504e-34)
(-2.33967 0.226015 -8.09899e-19 2.336 6.46309e-18 1.00469e-36)
(-2.12845 0.252686 1.2339e-17 2.12818 -1.55487e-17 1.73314e-36)
(-1.93317 0.248026 1.57828e-17 1.92876 1.83889e-17 2.22099e-35)
(-1.64866 0.231147 -8.29347e-18 1.64917 -3.79931e-18 1.18072e-35)
(-1.39278 0.211472 1.57233e-17 1.38837 4.50957e-18 -2.44464e-35)
(-1.10633 0.185365 -2.42212e-17 1.10659 -8.04297e-18 7.57254e-35)
(-0.861333 0.163884 -4.54242e-18 0.857564 2.50947e-18 -1.46132e-36)
(-0.590215 0.137529 -3.42514e-17 0.589516 -4.66106e-18 1.6638e-35)
(-0.359992 0.115765 -2.00101e-17 0.357241 -4.00022e-18 7.94671e-35)
(-0.110355 0.0949911 2.43404e-18 0.10828 -1.69567e-17 -3.04162e-35)
(-1.95499 0.0689958 3.01939e-18 1.95256 3.74193e-18 -4.9253e-36)
(-2.02858 -0.154796 8.08424e-18 2.02635 -3.31895e-17 1.65158e-34)
(-2.33967 -0.22604 -3.09733e-19 2.33601 -1.6373e-17 1.9693e-35)
(-2.12845 -0.252709 -2.40363e-18 2.12818 -3.84148e-18 -1.65472e-35)
(-1.93317 -0.248032 8.73419e-18 1.92876 -3.34119e-18 -2.45134e-35)
(-1.64866 -0.23114 6.94028e-18 1.64917 1.73872e-18 -1.15724e-36)
(-1.39279 -0.211454 -1.0837e-17 1.38838 -5.29296e-18 7.00149e-36)
(-1.10633 -0.185347 -1.50905e-17 1.1066 2.4604e-17 1.87692e-34)
(-0.861338 -0.163857 -2.04792e-17 0.85757 1.22336e-17 1.20363e-34)
(-0.590215 -0.137518 -1.40384e-17 0.589518 8.33149e-18 2.35642e-35)
(-0.359996 -0.115738 1.65922e-18 0.357246 -1.22329e-17 -5.94166e-35)
(-0.110357 -0.0949649 -1.16433e-17 0.108283 -1.12456e-17 5.35764e-36)
(-2.1212 0.166098 -1.8515e-17 2.1188 -1.18226e-17 9.5008e-35)
(-1.97168 -0.457301 -4.48617e-17 1.96949 2.4633e-17 -4.03813e-34)
(-2.22588 -0.659562 -3.11685e-18 2.22227 1.38028e-17 -2.21569e-34)
(-1.97733 -0.730968 3.2941e-18 1.97706 -1.57034e-17 2.90515e-35)
(-1.77702 -0.71537 1.51498e-17 1.77268 -1.52176e-17 2.26475e-36)
(-1.49575 -0.664671 -1.14736e-17 1.49626 1.11498e-17 0)
(-1.24705 -0.606515 -1.91057e-17 1.24271 4.37431e-17 4.36171e-34)
(-0.973073 -0.530148 4.42041e-17 0.973339 8.04388e-18 -1.9354e-34)
(-0.737644 -0.467123 2.6546e-17 0.73394 1.82212e-17 -4.3731e-34)
(-0.479948 -0.390287 1.43069e-17 0.479265 1.26271e-18 4.07615e-34)
(-0.260375 -0.32667 -3.12617e-17 0.257672 2.11323e-19 3.04509e-34)
(-0.0194991 -0.265595 -2.95143e-17 0.0174618 2.95106e-17 -4.18499e-34)
(-2.42039 0.147274 4.70323e-18 2.41808 3.72185e-18 7.8586e-35)
(-1.86225 -0.73941 1.84491e-17 1.86013 1.37946e-17 4.04137e-35)
(-2.01147 -1.04001 -2.61129e-17 2.00799 -2.03787e-17 2.76003e-34)
(-1.69514 -1.13175 -5.0931e-17 1.69489 4.61933e-17 4.90324e-34)
(-1.48613 -1.10075 -1.93918e-17 1.48195 7.21893e-18 -3.45339e-34)
(-1.21155 -1.0162 3.78682e-17 1.21204 1.67151e-17 1.98481e-34)
(-0.976627 -0.922143 8.5784e-17 0.972439 -2.69802e-17 -1.02225e-33)
(-0.726249 -0.801118 4.26304e-18 0.726509 9.69436e-18 -1.24465e-34)
(-0.508957 -0.700676 8.11519e-17 0.505382 -9.59305e-18 -1.43237e-33)
(-0.276552 -0.579639 2.98602e-17 0.275894 2.24033e-18 -1.02535e-33)
(-0.077063 -0.47907 -1.5911e-17 0.0744549 2.95345e-17 9.91387e-34)
(0.147121 -0.381285 4.14357e-17 -0.149086 3.95754e-17 -1.11637e-33)
(-2.79125 -0.0433454 2.41943e-18 2.78906 5.01673e-18 0)
(-1.70838 -0.990063 -1.04624e-18 1.70637 -2.99737e-17 0)
(-1.72085 -1.34014 -3.62956e-17 1.71755 5.87307e-17 -3.2062e-34)
(-1.31898 -1.41593 8.41361e-17 1.31874 -4.54175e-17 -5.61156e-34)
(-1.10009 -1.36296 -4.26827e-17 1.09613 1.71027e-17 4.10245e-34)
(-0.835975 -1.24462 4.94965e-17 0.836442 -3.53014e-17 -7.78789e-34)
(-0.620434 -1.11864 -3.94059e-17 0.616466 8.1042e-18 1.05869e-33)
(-0.402238 -0.961462 1.06446e-16 0.402485 -5.72003e-17 -2.70281e-34)
(-0.20984 -0.82987 4.30635e-17 0.206452 -7.09968e-17 2.19909e-33)
(-0.011683 -0.674154 1.79493e-17 0.0110612 -3.09766e-17 8.59166e-34)
(0.160512 -0.544038 4.68772e-17 -0.162982 7.86957e-18 2.91283e-34)
(0.361619 -0.415023 1.02283e-16 -0.36348 -1.15471e-16 1.86652e-34)
(-3.15408 -0.432884 -1.05418e-17 3.15206 -7.26245e-20 0)
(-1.52087 -1.20159 -3.18733e-17 1.51901 2.86095e-17 -7.36441e-35)
(-1.38613 -1.54357 4.0048e-17 1.38307 -1.9805e-17 4.55143e-34)
(-0.89744 -1.56118 -4.34898e-17 0.897219 1.7077e-17 5.25365e-34)
(-0.670755 -1.47878 7.74915e-17 0.667084 -5.74746e-17 6.90747e-34)
(-0.421298 -1.32706 -8.78804e-17 0.421735 -4.19746e-18 -3.57745e-34)
(-0.229376 -1.1741 -1.65478e-17 0.2257 -3.9163e-17 0)
(-0.0486034 -0.991028 -1.26913e-16 0.0488355 -2.09338e-17 -1.62381e-33)
(0.114543 -0.835906 -1.16753e-16 -0.117682 2.39298e-17 -2.76439e-33)
(0.27331 -0.656967 -7.00578e-17 -0.273884 -8.22677e-18 -9.62735e-35)
(0.413933 -0.506233 1.46845e-17 -0.416221 -5.67806e-17 1.65305e-33)
(0.587631 -0.35269 -1.25422e-16 -0.589354 -1.86509e-18 -1.86652e-34)
(-3.42323 -1.01468 3.78304e-18 3.42139 1.25156e-17 0)
(-1.31175 -1.37037 2.82123e-17 1.31006 -1.5764e-17 -1.37765e-34)
(-1.04236 -1.64683 -1.57047e-17 1.03959 -1.28169e-17 5.49537e-35)
(-0.483357 -1.56503 -1.36523e-17 0.483155 6.20753e-18 0)
(-0.25442 -1.44622 -5.88533e-17 0.251097 2.55049e-17 -2.40492e-34)
(-0.0242132 -1.26209 1.92198e-17 0.0246085 -1.91894e-17 1.9783e-34)
(0.141359 -1.08755 -1.25432e-16 -0.144686 6.81345e-17 -7.09405e-34)
(0.283124 -0.889312 1.53386e-16 -0.282913 -7.05554e-18 2.21632e-33)
(0.415294 -0.718677 1.73452e-17 -0.418134 -2.67491e-17 1.99767e-33)
(0.533702 -0.528371 -7.29272e-17 -0.53422 5.56614e-17 -1.53292e-33)
(0.641681 -0.366302 1.20525e-17 -0.64375 2.06579e-17 0)
(0.785889 -0.195349 -1.95425e-17 -0.787446 4.92848e-17 0)
(-3.5207 -1.74838 2.87056e-18 3.51909 4.68012e-18 0)
(-1.09275 -1.49691 -1.51017e-17 1.09127 5.03641e-17 6.24288e-34)
(-0.722529 -1.65939 1.07545e-16 0.720105 -3.84254e-17 -2.10867e-33)
(-0.125974 -1.44486 -1.39425e-17 0.125802 -2.59786e-17 0)
(0.096555 -1.28459 4.14083e-17 -0.099466 -1.79328e-17 7.69144e-35)
(0.302651 -1.06983 -5.45768e-17 -0.3023 1.93764e-17 -6.32696e-35)
(0.440621 -0.879045 1.3885e-16 -0.443536 -1.21947e-17 -6.17084e-34)
(0.545246 -0.67546 1.14623e-16 -0.545057 -3.86044e-17 -2.52571e-34)
(0.64722 -0.496781 -1.74839e-16 -0.649708 3.39834e-17 1.5293e-33)
(0.728222 -0.305817 4.45527e-17 -0.728673 1.74289e-17 5.5032e-34)
(0.805508 -0.140867 -1.247e-17 -0.80732 -2.21906e-17 0)
(0.920304 0.0407605 -1.93277e-17 -0.921666 3.79922e-17 0)
(-3.38867 -2.56527 4.94539e-18 3.38731 5.40224e-18 0)
(-0.873864 -1.58526 6.11363e-17 0.872617 -1.04188e-18 -4.61211e-34)
(-0.452876 -1.60176 -4.20044e-17 0.450829 -1.66378e-17 1.79246e-33)
(0.136326 -1.235 -6.68409e-17 -0.136472 3.76509e-17 1.97255e-35)
(0.341539 -1.03125 2.29581e-17 -0.343995 -1.23388e-17 1.81306e-35)
(0.518627 -0.788615 1.33255e-17 -0.518331 -4.9484e-17 -2.07817e-34)
(0.628994 -0.586439 2.34799e-17 -0.631453 1.39355e-17 0)
(0.701118 -0.385288 -7.96557e-17 -0.700959 -2.8657e-17 5.26276e-34)
(0.7757 -0.204661 -1.64109e-16 -0.777798 3.82852e-17 -3.43371e-33)
(0.825364 -0.0212893 3.77474e-17 -0.825743 2.21199e-17 -5.71248e-34)
(0.876317 0.139923 -3.41463e-17 -0.877843 1.09023e-17 -7.16758e-34)
(0.963544 0.326571 8.87294e-17 -0.964691 -7.50248e-18 1.19021e-33)
(-2.99899 -3.37798 2.36995e-17 2.99791 -1.44855e-18 -7.06041e-35)
(-0.662202 -1.64208 -3.51721e-17 0.661214 -7.82822e-18 5.46439e-35)
(-0.249228 -1.50206 -6.66752e-17 0.247601 4.49485e-17 2.07888e-34)
(0.281601 -0.981201 1.6045e-16 -0.281712 -4.90496e-17 -9.90808e-34)
(0.457612 -0.735794 -1.56154e-16 -0.459564 4.72728e-17 3.98595e-34)
(0.601036 -0.469111 1.37406e-16 -0.600794 -8.14922e-18 -1.0472e-33)
(0.684699 -0.259553 7.18726e-17 -0.686653 -9.80815e-17 1.98209e-33)
(0.730671 -0.0657848 -2.02567e-16 -0.730538 -1.01209e-17 -2.53789e-33)
(0.781951 0.112633 -3.21918e-17 -0.783618 4.54974e-17 1.31827e-33)
(0.808217 0.283526 -1.91765e-18 -0.808513 1.94272e-19 5.07783e-37)
(0.838669 0.43691 7.71012e-18 -0.839881 4.63664e-17 3.15763e-34)
(0.901327 0.624492 8.49933e-17 -0.902237 -1.91237e-17 -1.19021e-33)
(-2.35834 -4.09318 7.27171e-18 2.35755 1.47504e-17 0)
(-0.461405 -1.67521 2.7613e-17 0.460682 -8.38455e-18 -5.789e-35)
(-0.115087 -1.39133 5.7043e-17 0.113901 1.32758e-18 -1.93894e-34)
(0.307353 -0.733422 -1.22712e-16 -0.307435 2.91595e-17 1.17912e-33)
(0.442776 -0.452223 1.22735e-16 -0.444197 -1.2525e-17 -6.24685e-34)
(0.548462 -0.166379 -4.15662e-17 -0.548286 3.89173e-17 3.88751e-34)
(0.606774 0.0475297 -8.94475e-17 -0.608196 -8.39663e-18 6.61373e-34)
(0.633392 0.232107 5.91287e-17 -0.633295 -1.30737e-17 6.19234e-34)
(0.665857 0.40633 6.38974e-17 -0.667071 3.26624e-17 8.79735e-34)
(0.677071 0.563567 5.71914e-17 -0.677285 7.25574e-18 -5.60125e-35)
(0.693204 0.707832 1.69547e-16 -0.694085 -2.87394e-17 -1.63986e-34)
(0.734716 0.894031 -8.48862e-17 -0.735376 -3.20542e-18 1.80125e-35)
(-1.50806 -4.62523 7.41746e-18 1.50758 -2.04398e-18 0)
(-0.271507 -1.69225 -4.5517e-17 0.27107 1.58838e-17 5.32002e-35)
(-0.0414964 -1.29858 -5.25025e-17 0.0407775 -2.31835e-18 1.2086e-34)
(0.230622 -0.538068 6.82585e-17 -0.230665 -1.02432e-17 4.90551e-35)
(0.316035 -0.230631 -6.43643e-17 -0.316895 2.01731e-17 -2.91783e-35)
(0.380801 0.0685637 1.48736e-17 -0.380685 -1.8718e-17 0)
(0.415123 0.284742 -4.20142e-17 -0.415984 3.03781e-17 3.89313e-34)
(0.42836 0.461265 2.65383e-17 -0.428293 2.89551e-17 -2.09029e-34)
(0.446004 0.631355 -1.62821e-17 -0.446737 8.11839e-18 4.70617e-34)
(0.449426 0.777223 -1.32134e-18 -0.449548 2.32193e-17 8.29462e-34)
(0.456645 0.913701 -6.3786e-18 -0.457174 -3.09775e-17 -2.38039e-34)
(0.480107 1.09787 3.43697e-17 -0.480502 -3.018e-17 -6.02607e-34)
(-0.518889 -4.9089 1.51601e-18 0.518725 -1.29639e-17 0)
(-0.0895406 -1.69914 3.58848e-18 0.0893913 -1.14843e-17 5.96468e-35)
(-0.00898939 -1.24614 -9.2921e-18 0.00874624 2.08903e-17 4.11754e-35)
(0.0849634 -0.430743 -1.27969e-17 -0.0849747 8.83207e-19 -9.33343e-36)
(0.114163 -0.109428 4.21887e-17 -0.114451 -1.29741e-17 3.66746e-36)
(0.13598 0.196623 -1.21171e-17 -0.135936 1.71134e-18 -1.18725e-35)
(0.147305 0.413735 8.25651e-18 -0.147594 3.13305e-18 1.96815e-36)
(0.151231 0.585612 -1.88416e-17 -0.151204 6.61227e-18 2.07385e-34)
(0.156792 0.753205 2.58953e-17 -0.157037 -2.64657e-18 9.94252e-35)
(0.157346 0.892665 -1.29491e-17 -0.157381 2.90001e-18 1.93669e-34)
(0.159325 1.0247 -4.05567e-18 -0.1595 2.95579e-19 2.6613e-34)
(0.166884 1.20751 7.26924e-18 -0.167012 -9.89892e-18 -4.41025e-35)
(0.518887 -4.90888 2.79211e-18 -0.518731 9.63373e-18 -2.04134e-35)
(0.0895562 -1.69913 2.2232e-17 -0.0894113 1.53952e-17 -3.51438e-35)
(0.00900908 -1.24613 2.93993e-18 -0.0087702 3.81657e-18 -3.35181e-35)
(-0.0849508 -0.430742 -8.86676e-18 0.0849789 1.01678e-19 4.97076e-35)
(-0.114136 -0.109423 -1.14668e-17 0.114427 -8.31651e-18 -9.49954e-35)
(-0.13596 0.196626 1.07335e-17 0.135942 2.8117e-18 -1.75242e-35)
(-0.147277 0.413741 -7.74032e-18 0.147569 -1.02043e-17 -6.81148e-36)
(-0.151218 0.585615 -1.58522e-18 0.151216 -2.27347e-17 -1.45188e-34)
(-0.156773 0.75321 -9.69533e-18 0.157024 -4.11837e-18 -1.96242e-34)
(-0.157346 0.892664 -7.32651e-18 0.157406 1.03296e-17 -1.65181e-34)
(-0.15931 1.0247 -7.37972e-19 0.159499 1.60972e-17 -4.28946e-36)
(-0.166891 1.2075 -2.89999e-19 0.167038 -2.61849e-18 1.52506e-35)
(1.50807 -4.62525 1.38314e-17 -1.50759 -3.33709e-18 2.09508e-35)
(0.271527 -1.69225 -4.77802e-17 -0.271092 -1.09423e-17 -4.25016e-34)