/*--------------------------------*- C++ -*----------------------------------*\
| =========                 |                                                 |
| \\      /  F ield         | foam-extend: Open Source CFD                    |
|  \\    /   O peration     | Version:  3.0                                   |
|   \\  /    A nd           | Web:         http://www.extend-project.de       |
|    \\/     M anipulation  |                                                 |
\*---------------------------------------------------------------------------*/
FoamFile
{
    version     2.0;
    format      ascii;
    class       volScalarField;
    location    "24";
    object      p;
}
// * * * * * * * * * * * * * * * * * * * * * * * * * * * * * * * * * * * * * //

dimensions      [0 0 0 0 0 0 0];

internalField   nonuniform List<scalar> 
224
(
-0.257503
-0.200599
-0.197542
-0.179356
-0.183075
-0.179219
-0.175213
-0.247613
-0.192894
-0.189954
-0.172466
-0.176043
-0.172333
-0.168482
-0.228197
-0.177769
-0.17506
-0.158944
-0.16224
-0.158823
-0.155273
-0.200022
-0.15582
-0.153445
-0.139319
-0.142208
-0.139211
-0.1361
-0.16415
-0.127876
-0.125927
-0.114334
-0.116706
-0.114247
-0.111694
-0.12198
-0.0950245
-0.0935762
-0.0849612
-0.086723
-0.0848957
-0.0829982
-0.075112
-0.0585143
-0.0576228
-0.0523185
-0.0534036
-0.0522787
-0.0511104
-0.0253682
-0.0197626
-0.0194614
-0.0176698
-0.0180361
-0.017656
-0.0172613
0.025361
0.0197556
0.019454
0.0176623
0.0180284
0.0176483
0.0172537
0.0751049
0.0585073
0.0576155
0.052311
0.0533959
0.052271
0.0511028
0.121973
0.0950178
0.093569
0.0849539
0.0867154
0.084888
0.0829906
0.164143
0.127869
0.12592
0.114327
0.116698
0.11424
0.111686
0.200016
0.155814
0.153439
0.139312
0.142201
0.139204
0.136093
0.228192
0.177764
0.175055
0.158938
0.162234
0.158816
0.155266
0.247609
0.19289
0.189949
0.172461
0.176037
0.172328
0.168476
0.2575
0.200596
0.197538
0.179352
0.183071
0.179214
0.175208
0.257506
0.2006
0.197542
0.179355
0.183074
0.179216
0.17521
0.247605
0.192888
0.189948
0.172461
0.176037
0.172328
0.168477
0.2282
0.177771
0.175061
0.158944
0.162239
0.158821
0.155271
0.200014
0.155814
0.15344
0.139314
0.142203
0.139207
0.136096
0.164153
0.127878
0.125928
0.114335
0.116706
0.114247
0.111693
0.121973
0.0950192
0.0935715
0.0849576
0.0867197
0.084893
0.0829957
0.0751157
0.0585165
0.0576248
0.0523198
0.0534049
0.0522798
0.0511112
0.0253613
0.0197577
0.0194572
0.0176668
0.0180336
0.0176542
0.0172596
-0.0253571
-0.0197532
-0.0194519
-0.0176607
-0.0180269
-0.0176469
-0.0172526
-0.0751119
-0.0585123
-0.0576199
-0.0523142
-0.0533987
-0.0522731
-0.0511047
-0.121969
-0.0950157
-0.0935674
-0.0849529
-0.0867145
-0.0848874
-0.0829902
-0.164151
-0.127875
-0.125925
-0.114331
-0.116702
-0.114243
-0.111689
-0.200013
-0.155813
-0.153438
-0.139312
-0.142201
-0.139205
-0.136094
-0.228199
-0.17777
-0.17506
-0.158943
-0.162239
-0.158821
-0.155271
-0.247606
-0.192889
-0.189949
-0.172462
-0.176038
-0.17233
-0.168478
-0.257508
-0.200602
-0.197544
-0.179357
-0.183077
-0.179219
-0.175214
)
;

boundaryField
{
    out
    {
        type            implicitExtrapolation;
    }
    in
    {
        type            implicitExtrapolation;
    }
    frontAndBack
    {
        type            empty;
    }
}


// ************************************************************************* //
