/*--------------------------------*- C++ -*----------------------------------*\
| =========                 |                                                 |
| \\      /  F ield         | foam-extend: Open Source CFD                    |
|  \\    /   O peration     | Version:  3.0                                   |
|   \\  /    A nd           | Web:         http://www.extend-project.de       |
|    \\/     M anipulation  |                                                 |
\*---------------------------------------------------------------------------*/
FoamFile
{
    version     2.0;
    format      ascii;
    class       volVectorField;
    location    "24";
    object      u;
}
// * * * * * * * * * * * * * * * * * * * * * * * * * * * * * * * * * * * * * //

dimensions      [0 0 0 0 0 0 0];

internalField   nonuniform List<vector> 
224
(
(0.382932 -0.135714 1.55597e-18)
(0.655451 -0.0827532 6.62937e-18)
(0.842258 -0.0518071 -4.58676e-18)
(0.906012 -0.033364 -7.50184e-18)
(0.984514 -0.0185456 -7.486e-18)
(0.978581 -0.0111668 2.28167e-18)
(1.02387 0.00171442 -2.69521e-18)
(0.486806 -0.386488 4.02954e-19)
(0.718789 -0.235666 -9.12677e-19)
(0.881911 -0.147537 -1.38539e-17)
(0.931548 -0.0950136 3.73729e-17)
(0.998709 -0.0528129 -7.97685e-18)
(0.987127 -0.0317994 -1.81584e-17)
(1.02256 0.00489165 -2.1331e-17)
(0.678739 -0.578423 -6.76088e-18)
(0.835823 -0.3527 -4.55374e-18)
(0.955179 -0.220805 -1.72531e-17)
(0.978733 -0.142198 -5.47247e-18)
(1.02494 -0.0790401 -2.30102e-17)
(1.00292 -0.0475908 6.85943e-17)
(1.02012 0.00732333 1.83146e-17)
(0.929513 -0.682297 -3.89188e-18)
(0.988736 -0.416039 -2.97136e-18)
(1.05091 -0.260458 -5.51767e-18)
(1.04038 -0.167734 -8.93302e-20)
(1.0592 -0.093234 -1.52526e-18)
(1.02355 -0.0561372 2.96114e-17)
(1.01695 0.00863951 -4.31883e-17)
(1.20095 -0.682298 -1.70748e-18)
(1.15425 -0.416039 -1.87113e-18)
(1.15453 -0.260458 -2.73206e-18)
(1.10711 -0.167734 -2.98805e-19)
(1.09629 -0.0932341 1.31189e-17)
(1.04588 -0.0561371 -4.15369e-17)
(1.01351 0.00863957 -3.69457e-18)
(1.45172 -0.578424 1.23181e-18)
(1.30716 -0.352701 -1.46169e-18)
(1.25026 -0.220805 -3.12492e-18)
(1.16876 -0.142198 -9.39889e-18)
(1.13056 -0.0790398 1.36893e-17)
(1.06652 -0.0475909 -3.93295e-17)
(1.01034 0.00732416 4.25925e-17)
(1.64366 -0.386491 -8.26513e-19)
(1.4242 -0.235667 -3.69829e-18)
(1.32352 -0.147537 3.31061e-18)
(1.21595 -0.0950131 9.32442e-18)
(1.15679 -0.0528127 9.10933e-18)
(1.08231 -0.0317991 -1.58873e-17)
(1.00791 0.00489332 -5.61489e-18)
(1.74753 -0.135717 -1.34342e-19)
(1.48753 -0.082754 -4.14257e-19)
(1.36318 -0.0518067 3.42753e-18)
(1.24148 -0.0333635 3.00198e-18)
(1.17098 -0.0185449 5.46608e-18)
(1.09086 -0.0111664 -6.86969e-18)
(1.00659 0.00171798 -1.71902e-18)
(1.74753 0.135719 9.45658e-19)
(1.48753 0.0827577 5.972e-19)
(1.36318 0.0518102 4.377e-18)
(1.24148 0.0333659 -1.68049e-18)
(1.17098 0.0185461 2.84546e-18)
(1.09086 0.0111667 -4.73333e-18)
(1.00659 -0.00171879 4.27897e-19)
(1.64366 0.386494 2.22475e-18)
(1.4242 0.23567 2.59957e-18)
(1.32352 0.14754 7.4139e-18)
(1.21595 0.0950155 -1.13773e-17)
(1.15679 0.0528142 3.93987e-18)
(1.08231 0.0317997 -4.6351e-18)
(1.00791 -0.00489302 5.97907e-18)
(1.45173 0.578429 4.66424e-18)
(1.30716 0.352705 3.21723e-18)
(1.25026 0.220809 8.05695e-18)
(1.16876 0.1422 5.61478e-18)
(1.13056 0.0790418 1.03519e-17)
(1.06652 0.0475921 -3.70573e-17)
(1.01034 -0.00732202 -5.6636e-18)
(1.20095 0.682304 1.46637e-18)
(1.15425 0.416044 1.10236e-18)
(1.15453 0.260462 -9.42471e-20)
(1.10711 0.167737 -1.13035e-18)
(1.09629 0.0932366 -6.20722e-18)
(1.04589 0.056139 3.20341e-18)
(1.01352 -0.00863547 3.70078e-17)
(0.929518 0.682305 -7.81785e-19)
(0.988738 0.416045 7.48548e-19)
(1.05091 0.260462 -9.70349e-19)
(1.04038 0.167738 -9.77347e-20)
(1.0592 0.0932373 -2.20598e-17)
(1.02355 0.0561399 7.3571e-17)
(1.01695 -0.00863398 -8.31753e-18)
(0.678744 0.578432 -3.7497e-18)
(0.835826 0.352707 2.22762e-18)
(0.95518 0.22081 -4.83642e-19)
(0.978733 0.142202 1.15844e-17)
(1.02494 0.0790441 -2.78032e-17)
(1.00292 0.0475942 6.12112e-17)
(1.02013 -0.00731737 -7.77353e-17)
(0.486809 0.386499 2.01791e-18)
(0.718791 0.235674 8.86895e-18)
(0.881912 0.147543 -1.14405e-17)
(0.931548 0.0950186 -2.96106e-17)
(0.998707 0.0528175 -1.8069e-17)
(0.987127 0.0318034 1.88456e-17)
(1.02256 -0.00488639 3.34284e-17)
(0.382934 0.135725 -9.82766e-19)
(0.655452 0.0827616 -5.50506e-18)
(0.842258 0.0518141 7.26491e-19)
(0.906011 0.0333699 8.25132e-18)
(0.984513 0.0185507 -9.72409e-19)
(0.97858 0.0111712 1.13255e-17)
(1.02387 -0.00171081 5.27348e-19)
(0.382933 -0.135711 -1.55641e-18)
(0.655451 -0.0827494 -6.62977e-18)
(0.842258 -0.0518023 4.58608e-18)
(0.90601 -0.0333584 7.50115e-18)
(0.984512 -0.0185397 7.48542e-18)
(0.978579 -0.0111612 -2.28222e-18)
(1.02387 0.00172598 2.69447e-18)
(0.486805 -0.386485 -4.03313e-19)
(0.718788 -0.235662 9.12266e-19)
(0.881909 -0.147532 1.38528e-17)
(0.931546 -0.0950075 -3.73726e-17)
(0.998705 -0.0528069 7.97623e-18)
(0.987124 -0.0317937 1.81571e-17)
(1.02255 0.00490089 2.13298e-17)
(0.678739 -0.57842 6.76051e-18)
(0.835822 -0.352697 4.55324e-18)
(0.955177 -0.2208 1.72523e-17)
(0.978729 -0.142192 5.47172e-18)
(1.02493 -0.0790341 2.30094e-17)
(1.00292 -0.0475855 -6.85939e-17)
(1.02012 0.0073308 -1.83144e-17)
(0.929512 -0.682295 3.89145e-18)
(0.988733 -0.416036 2.97084e-18)
(1.05091 -0.260453 5.51704e-18)
(1.04038 -0.167728 8.8754e-20)
(1.0592 -0.0932285 1.52462e-18)
(1.02355 -0.0561321 -2.96107e-17)
(1.01694 0.00864554 4.31865e-17)
(1.20095 -0.682296 1.70706e-18)
(1.15424 -0.416037 1.87061e-18)
(1.15452 -0.260453 2.73146e-18)
(1.10711 -0.167729 2.98222e-19)
(1.09629 -0.0932289 -1.31195e-17)
(1.04588 -0.0561327 4.15367e-17)
(1.01351 0.00864515 3.69339e-18)
(1.45172 -0.578424 -1.23211e-18)
(1.30716 -0.352699 1.46119e-18)
(1.25025 -0.220802 3.12431e-18)
(1.16875 -0.142194 9.39822e-18)
(1.13056 -0.0790357 -1.36894e-17)
(1.06651 -0.0475869 3.9328e-17)
(1.01033 0.00732906 -4.25927e-17)
(1.64366 -0.38649 8.26123e-19)
(1.42419 -0.235666 3.6978e-18)
(1.32352 -0.147535 -3.31124e-18)
(1.21594 -0.0950106 -9.32488e-18)
(1.15678 -0.0528092 -9.10991e-18)
(1.0823 -0.0317963 1.58866e-17)
(1.0079 0.00489783 5.61449e-18)
(1.74753 -0.135717 1.33876e-19)
(1.48753 -0.082754 4.13778e-19)
(1.36317 -0.0518062 -3.42808e-18)
(1.24148 -0.0333619 -3.00246e-18)
(1.17098 -0.0185427 -5.46647e-18)
(1.09085 -0.0111642 6.86903e-18)
(1.00658 0.00172077 1.71827e-18)
(1.74753 0.135718 -9.46135e-19)
(1.48753 0.0827567 -5.97672e-19)
(1.36317 0.0518102 -4.37761e-18)
(1.24148 0.0333661 1.67992e-18)
(1.17098 0.0185475 -2.84592e-18)
(1.09085 0.0111675 4.73265e-18)
(1.00658 -0.00171809 -4.28567e-19)
(1.64366 0.386492 -2.22517e-18)
(1.42419 0.235669 -2.60003e-18)
(1.32352 0.147539 -7.41479e-18)
(1.21594 0.0950152 1.1377e-17)
(1.15678 0.052814 -3.94037e-18)
(1.0823 0.0317996 4.63409e-18)
(1.00789 -0.00489596 -5.97982e-18)
(1.45172 0.578427 -4.66469e-18)
(1.30716 0.352703 -3.21777e-18)
(1.25025 0.220807 -8.05754e-18)
(1.16876 0.142199 -5.61548e-18)
(1.13056 0.0790408 -1.03523e-17)
(1.06651 0.0475905 3.70561e-17)
(1.01033 -0.00732849 5.66322e-18)
(1.20095 0.682301 -1.4669e-18)
(1.15425 0.416042 -1.10296e-18)
(1.15452 0.26046 9.3615e-20)
(1.10711 0.167735 1.12973e-18)
(1.09629 0.0932343 6.20677e-18)
(1.04588 0.0561365 -3.20317e-18)
(1.0135 -0.0086459 -3.70088e-17)
(0.929515 0.682301 7.81268e-19)
(0.988736 0.416043 -7.49156e-19)
(1.05091 0.26046 9.69703e-19)
(1.04038 0.167735 9.70638e-20)
(1.0592 0.0932341 2.20594e-17)
(1.02355 0.0561361 -7.3572e-17)
(1.01694 -0.00864706 8.31625e-18)
(0.678741 0.578428 3.74931e-18)
(0.835824 0.352705 -2.22821e-18)
(0.955179 0.220808 4.82975e-19)
(0.978731 0.142199 -1.15853e-17)
(1.02493 0.0790398 2.78037e-17)
(1.00292 0.0475898 -6.12139e-17)
(1.02012 -0.00733219 7.77366e-17)
(0.486807 0.386495 -2.01837e-18)
(0.71879 0.235671 -8.86956e-18)
(0.881911 0.14754 1.144e-17)
(0.931547 0.0950146 2.96106e-17)
(0.998707 0.0528126 1.8069e-17)
(0.987126 0.0317982 -1.88467e-17)
(1.02255 -0.00490117 -3.34296e-17)
(0.382933 0.135721 9.82288e-19)
(0.655451 0.0827582 5.50461e-18)
(0.842258 0.05181 -7.27085e-19)
(0.906011 0.0333651 -8.25195e-18)
(0.984514 0.0185452 9.72116e-19)
(0.97858 0.0111657 -1.13264e-17)
(1.02387 -0.00172441 -5.28213e-19)
)
;

boundaryField
{
    out
    {
        type            fixedValue;
        value           uniform (1 0 0);
    }
    in
    {
        type            myVelocity;
    }
    frontAndBack
    {
        type            empty;
    }
}


// ************************************************************************* //
