/*--------------------------------*- C++ -*----------------------------------*\
| =========                 |                                                 |
| \\      /  F ield         | OpenFOAM: The Open Source CFD Toolbox           |
|  \\    /   O peration     | Version:  2.2.0                                 |
|   \\  /    A nd           | Web:      www.OpenFOAM.org                      |
|    \\/     M anipulation  |                                                 |
\*---------------------------------------------------------------------------*/
FoamFile
{
    version     2.0;
    format      ascii;
    class       volScalarField;
    location    "10";
    object      Theta;
}
// * * * * * * * * * * * * * * * * * * * * * * * * * * * * * * * * * * * * * //

dimensions      [0 2 -2 0 0 0 0];

internalField   nonuniform List<scalar> 
3012
(
0.919714
0.929886
0.905247
0.927607
2.63614
2.7017
2.61182
2.69201
0.783557
0.779712
0.775119
0.775838
1.01671
1.01509
1.02325
1.00819
-0.587868
-0.581216
-0.568538
-0.598329
0.931047
1.0558
1.06189
0.928377
1.34754
1.33082
1.32213
1.33488
1.36052
1.36334
1.37373
1.37751
1.05836
1.05247
1.0549
1.06736
0.934369
0.967254
0.974811
0.972853
1.18466
1.18204
1.17271
1.1649
1.08461
1.08287
1.06087
1.07811
1.08087
1.04199
1.03116
1.07107
1.80823
1.81808
1.79565
1.83152
-0.477152
-0.503588
-0.482598
-0.471212
2.88621
2.93223
2.90118
2.92172
1.32855
1.32404
1.33431
1.32791
1.10484
1.08419
1.08403
1.08458
1.10483
1.11542
1.09126
1.10903
1.10046
1.09882
1.10425
1.09988
1.0988
1.09839
1.10475
1.11091
1.10767
1.1108
1.11541
1.10062
1.26206
1.24753
1.2655
1.26345
1.26619
1.25301
1.2561
1.25559
0.559892
0.561857
0.547704
0.576583
1.29628
1.28721
1.29223
1.30116
1.27365
1.2713
1.27727
1.28092
1.08039
1.00895
1.06391
1.00955
1.16018
1.16514
1.16828
1.15685
1.13752
1.25996
1.14061
1.37258
0.896005
0.892815
0.73029
1.54367
-0.617486
-0.641625
-0.65772
-0.623205
0.111378
0.114547
0.116482
0.106612
3.18939
3.20643
3.16588
3.22117
2.42735
2.41535
2.42964
2.42729
2.24029
2.21119
2.21862
2.23931
1.31051
1.33953
1.32152
1.3161
0.198026
0.126521
0.148793
0.192695
1.20856
1.12079
1.17136
1.17259
1.15712
1.16329
1.16369
1.16865
1.13814
1.12619
1.11312
1.111
0.817461
0.796721
0.821003
0.790091
1.0502
1.04305
1.04109
1.05007
0.620966
0.615765
0.599978
0.585389
1.884
1.87984
1.89814
1.89826
0.0940786
0.154142
0.102676
0.134124
1.33604
1.34191
1.34155
1.3471
1.07094
1.07703
1.07013
1.07689
1.13329
1.13078
1.09002
1.09576
1.2197
1.2074
1.19836
1.21186
0.84
0.839277
0.831024
0.846541
1.33005
1.31778
1.32502
1.31555
0.991191
1.04144
1.17008
0.844749
0.700175
0.701061
0.694889
0.708821
1.04078
1.0313
1.04242
1.03992
0.768003
0.730484
0.671366
0.76008
0.790345
0.798358
0.799056
0.797878
0.826341
0.841346
0.842213
0.78221
0.78899
0.827671
0.79861
0.839605
0.98869
0.994368
0.990007
0.991338
1.21967
1.19948
1.19806
1.22853
1.27061
1.21762
1.26013
1.21986
1.18452
1.1954
1.18548
1.20377
1.3055
1.29679
1.30736
1.30373
1.6833
1.66235
1.66947
1.66833
0.753177
0.718693
0.727277
0.739017
0.812394
0.812401
0.786877
0.798965
0.983066
0.984608
0.98209
0.99178
1.33091
1.3308
1.32923
1.34174
1.06976
1.06651
1.0608
1.05268
1.74409
1.76622
1.7417
1.78346
1.01648
1.01361
1.0112
1.02018
-0.640999
-0.659959
-0.659909
-0.645258
2.41812
2.44281
2.47015
2.45122
1.45508
1.4493
1.46171
1.4572
1.2385
1.2442
1.24966
1.25862
1.23292
1.21494
1.23467
1.24436
-0.323013
-0.327287
-0.328906
-0.330544
0.846848
0.858018
0.845403
0.842139
1.32577
1.30706
1.31107
1.31734
0.959475
0.960385
0.961375
0.930104
1.21086
1.20515
1.2104
1.21399
2.07116
2.03454
2.07283
2.06773
1.08131
1.072
1.04591
1.08534
1.05424
1.06257
1.0631
1.06851
0.938587
0.943871
0.950293
0.946507
1.26756
1.2871
1.2845
1.28982
1.24817
1.27383
1.25086
1.2739
1.08671
1.03146
0.912249
1.18858
1.10457
1.07802
1.09755
1.11486
1.15807
1.14153
1.15143
1.15325
1.17677
1.17189
1.17533
1.16635
0.846264
0.846362
0.837604
0.844918
1.53676
1.54551
1.53328
1.53943
1.03416
1.0167
1.02214
1.01999
0.928413
0.934084
0.933388
0.938686
1.28818
1.28839
1.29282
1.298
1.59882
1.60509
1.59934
1.61568
0.81916
0.820404
0.81239
0.822913
1.0933
1.0764
1.07972
1.08934
0.878865
0.883282
0.8905
0.895775
1.15307
1.14188
1.14439
1.14888
2.61579
2.6106
2.63185
2.63313
1.49848
1.50858
1.50748
1.51399
-0.595183
-0.60913
-0.612951
-0.617416
1.26506
1.26248
1.2574
1.24742
1.27086
1.0061
0.97299
0.974441
1.23574
1.04821
1.04082
1.04487
1.28871
1.27078
1.26197
1.28968
0.872647
0.879462
0.874726
0.864381
1.24876
1.20791
1.24847
1.23956
0.835799
0.898266
0.847127
0.847133
1.32
1.23088
1.29754
1.32939
0.973697
0.962873
0.965853
0.840603
-1.39437
-1.3872
-1.32414
-1.37361
1.52969
1.50639
1.50961
1.52648
0.908113
0.921324
0.915847
0.921542
2.00852
2.03028
2.03448
2.03842
1.4537
1.43589
1.43263
1.40528
1.06986
1.07997
1.07327
1.09096
1.54586
1.55324
1.54555
1.5561
1.09672
1.09802
1.08934
1.10662
1.22573
1.31498
1.27002
1.31652
0.932259
0.925355
0.932942
0.923747
0.926584
0.939074
0.917909
0.945927
0.742648
0.74241
0.744009
0.735377
1.26251
1.27405
1.24147
1.27867
-0.688073
-0.686787
-0.628243
-0.642991
1.38845
1.18778
1.38449
1.20295
1.59555
1.58874
1.60013
1.59062
1.25363
1.22737
1.22591
1.23901
1.04996
1.08063
1.07077
1.05084
1.03974
1.02495
1.0166
1.03385
1.54116
1.54356
1.57961
1.57862
1.3351
1.3418
1.34434
1.33364
1.29329
1.29046
1.3002
1.28697
1.45913
1.47324
1.46132
1.46709
1.21314
1.19076
1.20476
1.21612
1.11446
1.12442
1.11709
1.11696
1.32489
1.31897
1.3279
1.33409
1.12929
1.12366
1.13953
1.14757
0.906892
0.886064
0.900393
0.90251
1.03541
1.03279
1.01462
1.02579
1.21032
1.21196
1.2186
1.20222
0.932275
0.928102
0.92654
0.936141
1.01016
1.01334
1.01212
1.02455
-0.960618
-0.731468
-0.788364
-0.933609
1.41752
1.43102
1.42335
1.4286
1.26707
1.27455
1.25875
1.27294
1.79778
1.79272
1.79259
1.8085
1.74762
1.74905
1.75926
1.7718
2.6489
2.58585
2.64752
2.58058
1.05026
1.06106
1.05635
1.05684
1.18208
1.18521
1.18452
1.17921
1.11953
1.1325
1.12492
1.12614
1.19112
1.12378
1.22115
1.18266
0.770975
0.807331
0.823405
0.794923
0.669319
0.668065
0.665515
0.659192
1.20861
1.20415
1.16276
1.22308
0.841612
0.882844
0.867194
0.892844
0.839861
0.8355
0.846392
0.84088
3.1203
3.15728
3.14203
3.12692
1.60815
1.61712
1.60822
1.6144
1.83194
1.8824
1.8191
1.86581
1.37719
1.35097
1.36718
1.35008
-0.268903
-0.289795
-0.260662
-0.276976
3.00052
3.01068
3.01108
2.9937
0.331203
0.316343
0.312419
0.30645
0.84016
0.805254
0.824179
0.818165
1.41615
1.41372
1.41981
1.42954
-0.954504
-0.93524
-0.994801
-0.940964
1.07604
1.07552
1.07283
1.08033
1.50088
1.49328
1.49761
1.48251
0.981463
0.955141
0.963689
0.893651
1.28989
1.2415
1.27808
1.24778
0.96969
0.977746
0.94152
0.904612
-0.745381
-0.557985
-0.694688
-0.571101
1.2903
1.29886
1.30001
1.28654
1.25073
1.27538
1.26485
1.27144
1.05273
1.06592
1.26392
1.01042
1.22431
1.23145
1.30169
1.28831
1.15195
1.20018
1.19579
1.35279
1.03808
1.07187
1.03915
1.07476
0.861683
0.898814
0.884844
0.922042
0.885291
0.886074
0.896371
0.873868
1.5414
1.53358
1.55253
1.52668
0.784951
0.798067
0.806295
0.797954
1.50133
1.53292
1.51919
1.55353
1.00741
1.00532
1.01145
0.984366
2.07949
2.08405
2.08636
2.06721
1.0785
1.07925
1.08663
1.08976
0.982533
0.96916
0.970213
0.973861
1.76807
1.7633
1.77274
1.75952
0.935227
0.938333
0.928494
0.941373
1.62446
1.61877
1.63172
1.6268
1.10065
1.10291
1.09007
1.10959
1.35767
1.33016
1.3441
1.33838
1.05777
1.04057
1.05645
1.04336
1.35748
1.34947
1.36376
1.36507
1.15081
1.13447
1.14597
1.08203
1.26372
1.75525
1.26899
0.532599
1.37602
1.36928
1.37606
1.36698
0.822106
0.829397
0.834755
0.836746
1.29519
1.30533
1.30601
1.30671
1.17567
1.19655
1.19854
1.21042
1.06861
1.05103
1.05171
1.05839
1.12042
1.13126
1.11654
1.13673
1.11787
1.11113
1.13918
1.12099
1.20917
1.23019
1.03308
1.21001
1.41553
1.40812
1.3993
1.41349
1.12217
1.1276
1.13813
1.13604
0.513097
0.526938
0.518336
0.524808
0.517353
0.509013
0.511739
0.512599
1.08408
1.08008
1.14014
1.12886
3.39137
3.43302
3.41718
3.43947
2.98585
3.00706
2.96261
3.00478
0.94962
0.935504
0.96611
0.895146
1.52864
1.54226
1.53346
1.52769
0.865477
0.870073
0.855031
0.873303
0.884827
0.875892
0.885736
0.891673
0.110603
0.11081
0.103655
0.122083
0.995847
0.96968
0.996899
0.968184
0.945536
0.943947
0.94828
0.952693
3.2865
3.257
3.2531
3.28929
1.66661
1.67539
1.65609
1.6771
1.34607
1.33909
1.35901
1.34421
1.67879
1.6704
1.67639
1.6849
1.25237
1.23835
1.24429
1.25082
1.25732
1.26142
1.24842
1.24575
0.980949
0.984153
1.00585
1.00691
1.11912
1.11232
1.12487
1.12108
1.2142
1.19686
1.20607
1.20008
1.19209
1.18153
1.18168
1.18696
0.679493
0.674084
0.680896
0.68107
1.18804
1.1995
1.1974
1.20317
1.2501
1.25902
1.24057
1.21323
0.847129
0.841173
0.849025
0.840297
1.01925
1.01381
1.02968
1.01909
1.0931
1.10467
1.09759
1.12483
1.29058
1.29489
1.29022
1.29702
0.941008
0.928711
0.933608
0.931855
1.12153
1.13435
1.12552
1.12247
0.94248
0.952484
0.945483
0.958584
1.18018
1.15505
1.16887
1.1851
1.32131
1.31709
1.31075
1.31425
1.43088
1.44477
1.43462
1.4537
1.19161
1.20187
1.199
1.20586
1.18631
1.20873
1.19547
1.20272
1.18582
1.17988
1.15384
1.16978
1.12303
1.10706
1.11381
1.11769
2.5283
2.52091
2.51052
2.51279
0.00688924
-0.0130859
0.00133424
-0.0216714
1.19246
1.19308
1.18054
1.19699
0.966762
0.966448
0.975771
0.938761
0.988837
0.991406
1.00736
0.994374
1.26771
1.24154
1.24405
1.25006
0.612462
0.643058
0.635054
0.599753
-0.675673
-0.691417
-0.689346
-0.704916
0.993566
0.984551
0.992219
0.972617
1.14728
1.18745
1.15621
1.22617
1.0666
1.00577
1.03852
1.0038
1.21387
1.21113
1.1963
1.19505
1.01375
1.01014
1.0142
1.00033
1.05945
1.07796
1.08412
1.06297
2.61966
2.62194
2.62722
2.61578
1.2241
1.22543
1.21687
1.2528
1.22538
1.2186
1.21943
1.21408
1.39011
1.39818
1.39274
1.37485
1.25369
1.26602
1.25059
1.27473
1.09422
1.06784
1.09221
1.10558
1.21523
1.21874
1.20546
1.21895
1.39981
1.38719
1.37646
1.37733
1.25642
1.27144
1.27054
1.28662
1.01264
1.04316
1.0493
1.05434
1.27234
1.27118
1.26983
1.26155
1.16446
1.15195
1.14317
1.16567
1.19436
1.18819
1.18263
1.18429
0.988482
0.978244
0.988853
0.98355
1.1272
1.13513
1.12292
1.13921
1.11077
1.10458
1.10844
1.10525
1.12411
1.12216
1.11858
1.09499
1.54782
1.54318
1.5368
1.55153
1.06787
1.07413
1.06658
1.05733
1.27645
1.27328
1.26248
1.26906
1.3547
1.38012
1.34789
1.31605
1.20957
1.21704
1.21564
1.20222
-0.984963
-0.964536
-0.96881
-0.961773
1.27375
1.2901
1.27067
1.27877
0.696422
0.702572
0.692318
0.688653
0.8762
0.900185
0.887991
0.892668
0.673526
0.668647
0.669641
0.661875
1.2451
1.2236
1.24477
1.23962
0.650517
0.651725
0.653464
0.656901
0.626933
0.625024
0.622378
0.630669
1.07668
1.0646
1.06151
1.06893
0.753714
0.766415
0.766174
0.768879
0.210151
0.196219
0.194541
0.222133
1.00585
0.976555
0.998162
0.999382
1.77495
1.75941
1.77968
1.77838
1.02337
1.10882
1.06297
1.07514
1.11906
1.14401
1.12766
1.14208
1.01469
0.968041
0.960037
1.0299
1.14048
1.15547
1.20805
1.03067
1.02009
0.919126
1.16343
1.02499
1.52301
1.52512
1.58039
1.51684
0.722864
0.734157
0.730483
0.717018
1.04496
1.03863
1.04682
1.04405
1.51002
1.52698
1.52233
1.57749
1.0167
1.01924
1.0196
1.02315
1.56026
1.55156
1.54725
1.55837
1.9697
1.94661
1.93981
1.96228
1.13815
1.08908
1.14456
1.0129
1.0572
1.0445
1.0561
1.04944
1.91105
1.92399
1.91996
1.8886
-0.594429
-0.572559
-0.598085
-0.607597
1.35976
1.35723
1.36672
1.36226
0.992988
1.01727
0.993213
1.01202
1.23734
1.24274
1.24367
1.22146
1.06981
1.09435
1.08156
1.02332
1.16659
1.16255
1.17166
1.17535
1.33134
1.3176
1.34127
1.32697
-0.290031
-0.31096
-0.30692
-0.244581
1.03942
1.04257
1.04519
1.05141
0.860724
0.858302
0.860089
0.861174
0.97259
0.989332
0.980128
1.00392
0.704308
0.710259
0.712201
0.718577
1.43183
1.42568
1.42268
1.42171
1.11813
1.12734
1.12947
1.10118
1.42118
1.4053
1.39941
1.4167
1.06544
1.07194
1.08082
1.0885
0.843624
0.844164
0.836889
0.843168
1.06813
1.06933
1.07017
1.05545
1.2144
1.20711
1.20885
1.19493
0.860998
0.866483
0.854456
0.868686
1.43293
1.42598
1.42263
1.43752
1.08148
1.06034
1.05284
1.06366
1.09202
1.09676
1.10732
1.1049
1.03147
1.04449
1.03104
1.02887
1.04062
1.05005
1.04034
1.04637
1.20877
1.20692
1.20229
1.20369
0.744715
0.71
0.740921
0.719564
0.856375
0.865433
0.853054
0.85811
0.661936
0.703087
0.753252
0.639592
0.676203
0.676913
0.678311
0.686535
1.42604
1.44514
1.44227
1.43771
2.53605
2.55538
2.55137
2.55128
1.05349
1.0502
1.04373
1.0311
2.59768
2.59646
2.57954
2.60937
2.08621
2.15658
2.11475
2.15882
1.38757
1.37642
1.38003
1.37439
1.02488
1.02735
0.997357
1.01809
1.05535
1.05072
1.05772
1.06896
0.901445
0.909516
0.915418
0.907054
0.987799
0.998339
1.00046
0.99565
1.02692
1.01201
1.00664
1.00561
1.18341
1.20473
1.20504
1.20374
0.938826
0.936275
0.934122
0.929785
1.3483
1.35303
1.35395
1.36047
2.82998
2.8159
2.80379
2.85164
0.904165
0.920975
0.913443
0.909609
-1.02769
-1.0269
-1.02042
-1.01128
3.32356
3.26504
3.33354
3.33083
1.2211
1.24699
1.2577
1.25051
1.48259
1.48613
1.45189
1.61029
0.718774
0.724998
0.727065
0.725813
1.19029
1.16483
1.17777
1.18927
1.23956
1.21898
1.21889
1.2313
0.75732
0.791793
0.727884
0.734755
1.54935
1.53983
1.5861
1.54419
0.794208
0.733574
0.748517
0.740914
1.5024
1.50824
1.49878
1.51506
1.26322
1.00859
1.00799
1.26361
1.30273
1.31128
1.32202
1.30708
1.3315
1.32433
1.32257
1.33192
1.20033
1.07249
1.20662
1.07425
0.887376
0.893214
0.888008
0.884589
1.05257
1.03808
1.05335
1.04046
1.12337
1.11778
1.10775
1.11937
0.956158
0.975436
0.977847
0.97086
0.729435
0.73086
0.73607
0.742845
1.07966
1.08108
1.0944
1.0789
0.810137
0.813622
0.811022
0.811216
1.21896
1.15008
1.15181
1.05388
-0.0916472
-0.0712838
-0.0785847
-0.0661154
1.12268
1.11786
1.10364
1.10459
0.918629
0.917086
0.929423
0.925019
0.941429
0.924836
0.940875
0.92228
1.10058
1.17432
1.17584
1.1054
1.10304
1.11817
1.16875
1.12464
1.0406
1.02316
1.01591
1.02754
0.902333
0.902129
0.961169
0.918048
1.13465
0.951134
1.02293
1.03585
1.06813
1.05416
1.07022
1.0632
1.04137
1.04469
1.07025
1.04776
0.753212
0.75933
0.747281
0.76359
1.01674
1.01137
1.06886
1.01104
1.03956
1.0522
1.01547
1.05935
1.24816
1.26652
1.25609
1.27482
0.737138
0.73932
0.7361
0.745874
1.16493
1.15754
1.16165
1.16257
3.56624
3.07589
3.57894
3.04893
1.20612
1.20808
1.21125
1.20364
1.20291
1.20616
1.21527
1.20674
1.04562
1.02728
1.02289
1.04513
0.67875
0.687225
0.705898
0.708517
1.2594
1.23308
1.21321
1.21767
0.617112
0.665198
0.723316
0.623477
1.09537
1.09009
1.07873
1.08374
1.03491
1.0387
1.03576
1.03952
1.25205
1.26859
1.25495
1.25068
1.4515
1.47442
1.47875
1.47198
1.13599
1.17442
1.18699
1.11657
3.22494
3.40354
3.40119
3.22402
1.1034
1.09521
1.10607
1.1027
1.46777
1.47225
1.46198
1.46866
1.30745
1.2955
1.29066
1.29937
3.21221
3.21405
3.21588
3.14479
1.01003
1.00982
1.00722
1.00804
1.56816
1.57983
1.58004
1.58112
1.12842
1.11038
1.07943
1.04851
1.16714
1.14804
1.1186
1.12724
0.716881
0.71824
0.717744
0.726161
1.44103
1.44035
1.44381
1.44912
0.939504
0.977279
1.00314
0.986683
1.12896
1.11505
1.12487
1.12175
1.24088
1.23509
1.23801
1.21984
1.03101
1.0605
1.04437
1.04604
1.13631
1.14035
1.13318
1.1469
1.10256
1.11539
1.11587
1.101
1.17747
1.18643
1.19308
1.13704
1.14475
1.13502
1.14656
1.19712
1.16647
1.15649
1.16527
1.16894
1.14257
1.12995
1.13979
1.1357
1.70784
1.6901
1.69493
1.69577
1.06846
1.05571
1.07064
1.0552
1.05636
1.07055
1.07672
1.05793
1.29759
1.33647
1.29027
1.26592
1.34749
1.34752
1.35121
1.35673
1.25339
1.24789
1.22901
1.24502
0.721547
0.719197
0.726622
0.718852
1.52842
1.52183
1.53734
1.52316
1.56403
1.55576
1.56337
1.56673
1.08256
1.08819
1.05015
1.08112
1.12853
1.11745
1.11129
1.09361
1.07939
1.07251
1.07434
1.06828
1.10728
1.10352
1.12331
1.09236
1.23898
1.24183
1.23502
1.23558
1.22871
1.2226
1.21917
1.23024
1.22542
1.23632
1.20867
1.23068
0.95294
0.945951
0.960041
0.959802
1.88946
1.86814
1.8564
1.84668
1.00952
1.0067
1.00592
1.00817
1.49287
1.49801
1.48986
1.48561
1.30573
1.30969
1.31481
1.30474
0.0867533
0.138116
0.100066
0.0880776
1.08394
1.06836
1.06811
1.07503
1.06553
1.06767
1.07665
1.07013
0.959862
0.952132
0.958984
0.964816
0.997741
0.973223
0.996828
1.00719
0.775991
0.776395
0.782036
0.780394
1.10658
1.09984
1.11465
1.1168
1.18171
1.18809
1.1845
1.17852
1.12786
1.12149
1.10427
1.12366
0.879629
0.878104
0.870791
0.886226
0.758755
0.75592
0.751747
0.754147
3.4771
3.18248
3.32543
3.32893
1.16197
1.18426
1.16396
1.18551
0.606948
1.65799
0.615497
1.66212
0.870881
1.39633
1.57863
1.58367
1.18673
1.15781
1.17608
1.22027
1.06192
1.06254
1.07679
1.1933
1.18778
1.07969
1.08102
1.1875
1.10736
1.10566
1.11165
1.11548
0.926606
0.920977
0.929988
0.917248
1.13061
1.18764
1.1474
1.19214
1.17039
1.17329
1.18003
1.16976
1.11865
1.17816
1.18218
1.1585
0.670495
0.669438
0.691868
0.687041
1.16936
1.18252
1.16986
1.17663
1.94965
1.94395
1.94082
1.93658
0.838911
0.832341
0.825596
0.834393
1.3276
1.30014
1.32914
1.3187
1.04745
1.04346
1.04691
1.03629
1.07492
1.07567
1.0633
1.06165
1.09887
1.09305
1.07957
1.09616
0.882958
0.89908
0.900508
0.882757
1.45613
1.46615
1.45779
1.45325
1.51855
1.50908
1.50934
1.51514
1.97236
1.96676
1.96828
1.99922
3.27657
3.32544
3.3189
3.23812
0.935929
0.933329
0.938852
0.924531
0.990232
0.982502
0.981862
0.981064
1.17929
1.08962
1.17834
1.09221
1.25058
1.23927
1.24609
1.25157
1.25163
1.23046
1.25236
1.23166
1.18973
1.0827
1.08523
1.19067
1.25204
1.09078
1.10431
1.25027
1.05192
1.00181
1.04554
1.02966
1.05702
1.11114
1.05799
1.09244
1.01931
1.03389
1.03704
1.05215
1.13083
1.13068
1.15333
1.15299
1.14923
1.16764
1.15007
1.1681
0.94928
0.961048
0.955433
0.95064
0.954785
0.95446
0.965934
0.961388
1.13894
1.13443
1.14509
1.1393
1.63949
1.61095
1.62794
1.6319
1.70133
1.70499
1.71262
1.70273
0.76126
0.751639
0.754818
0.763051
1.11117
1.1059
1.09243
1.10574
0.989781
1.01155
0.991205
0.987954
1.03677
1.00037
1.03432
1.02359
0.960095
0.956071
0.960378
0.960747
1.6448
1.63318
1.64402
1.65146
1.09829
1.09141
1.11761
1.11559
0.526705
0.523608
0.523186
0.536539
2.04562
2.03694
2.04563
2.04931
1.59364
1.58131
1.58321
1.58911
0.714245
0.706917
0.71961
0.713555
-1.77929
-1.7983
-1.81377
-1.79074
3.74116
3.72843
3.73705
3.70672
1.30483
1.29905
1.31123
1.31103
0.85701
0.861018
0.845751
0.849397
1.13275
1.1329
1.13894
1.12644
0.874133
0.841296
0.859749
0.856312
0.564315
0.560942
0.591358
0.561412
0.864713
0.860318
0.867758
0.864656
1.1415
1.13652
1.13184
1.13794
1.07599
1.08614
1.08187
1.08701
0.173891
0.188968
0.170845
0.171313
0.933954
1.15692
0.934181
1.15226
0.786253
0.780144
0.789237
0.795901
0.80071
0.801632
0.800301
0.805555
1.12812
1.1246
1.05933
1.21561
1.0766
1.04359
1.07895
1.04467
1.08557
1.08827
1.1711
1.09913
1.26348
1.24459
1.25388
1.24958
1.04445
1.0042
1.01153
0.994129
1.24817
1.24258
1.24792
1.24278
1.17138
1.18835
1.17258
1.18023
0.84808
0.83553
0.818702
0.822184
1.30873
0.973073
1.46837
1.4699
1.14045
1.10971
1.13626
1.10899
0.788784
0.793776
0.810189
0.790448
2.19554
2.13853
2.18863
2.15084
1.21183
1.21073
1.211
1.23818
0.961969
0.978031
0.987637
0.970517
1.4928
1.48484
1.48036
1.48994
1.68855
1.67819
1.69909
1.68192
0.714479
0.700432
0.721821
0.697584
0.45894
0.459749
0.453719
0.451658
1.15943
1.16132
1.16461
1.16337
0.903008
0.930289
0.841853
0.894936
1.07837
1.07878
1.09132
1.08436
1.13911
1.14324
1.1426
1.12823
1.18195
1.18679
1.15825
1.15577
1.07227
1.07006
1.06653
1.0876
1.10108
1.10503
1.10844
1.10323
1.33219
1.33776
1.33765
1.3336
1.0007
0.967439
0.988954
0.967933
-1.75895
-1.76952
-1.80258
-1.73468
1.11297
1.11196
1.09934
1.10626
0.967578
0.975195
0.973181
0.969434
1.15858
1.16655
1.1555
1.10916
2.19435
2.17833
2.17485
2.16908
1.12017
1.09552
1.09421
1.11087
1.08544
1.09869
1.11255
1.0919
0.969333
0.979786
0.976474
0.971295
0.978946
0.987967
0.975713
0.98938
3.90226
3.91144
3.90344
3.92729
1.0846
1.09531
1.09094
1.10075
1.56776
1.56597
1.55927
1.56937
0.930813
0.932177
0.924451
0.941226
0.998877
0.97815
0.987139
0.989224
-0.912219
-0.906943
-0.864421
-0.880807
1.30281
1.30483
1.31046
1.29558
0.859721
0.86214
0.867951
0.86813
1.9759
1.96276
1.99379
1.98749
0.960781
0.993249
0.990843
0.957115
0.187454
0.202156
0.19227
0.20037
0.825045
0.83045
0.825164
0.82153
0.907709
0.896548
0.906191
0.900469
1.26974
1.27325
1.28392
1.26216
1.2719
1.27459
1.28419
1.28299
1.31565
1.31018
1.30497
1.30886
1.21013
1.23023
1.21184
1.22981
1.23991
1.25037
1.24773
1.24197
1.10693
1.12108
1.12287
1.12043
1.05457
1.04111
1.04275
1.06716
1.19999
1.19625
1.20145
1.19448
1.21487
1.21771
1.2131
1.22263
1.2975
1.30833
1.31307
1.29489
2.11274
2.10517
2.10307
2.103
1.15472
1.14243
1.14194
1.14973
1.09947
1.08765
1.085
1.08864
1.08052
1.06987
1.07099
1.06855
1.26298
1.26654
1.27317
1.27323
1.23333
1.22197
1.24086
1.2259
3.70857
3.63983
3.72825
3.647
0.936602
0.939859
0.944582
0.932468
1.2517
1.24145
1.2547
1.20992
1.13993
1.15098
1.14901
1.14433
1.60831
1.62874
1.61745
1.60744
0.833891
1.01976
1.01771
0.831622
0.965982
0.955347
0.933746
0.935251
0.587584
0.58541
0.579267
0.587323
1.67193
1.65445
1.65914
1.66131
1.24573
1.23123
1.24161
1.24639
0.636221
0.62637
0.63419
0.631786
1.21993
1.20642
1.20615
1.21594
0.639086
0.638478
0.632969
0.633151
1.06739
1.06859
1.07639
1.06788
1.39779
1.39293
1.39871
1.40062
1.07457
1.0719
1.07741
1.07198
0.784108
0.775116
0.784236
0.777422
1.56769
1.57335
1.56974
1.55484
1.07761
1.03529
1.01826
1.08613
3.29823
3.30325
3.2907
3.29511
1.05464
1.05015
1.05654
1.04704
1.05146
1.05811
1.03669
1.06166
0.631443
0.631263
0.632172
0.628463
1.71842
1.72771
1.71342
1.72298
0.909374
0.913251
0.900177
0.916124
1.5238
1.53678
1.52547
1.52857
1.18485
1.17771
1.18544
1.17204
0.955995
0.985179
0.958829
0.958172
1.11815
1.10022
1.10713
1.11164
1.15605
1.10107
1.15867
1.10172
1.16187
1.10971
1.16202
1.16303
1.6513
1.63424
1.642
1.64752
-0.898904
-1.02162
-0.997045
-0.952158
1.24204
1.23861
1.24861
1.25147
1.05901
1.06519
1.05958
1.08678
1.2459
1.24736
1.26796
1.16628
1.14485
1.13861
1.13611
1.13879
1.1411
1.16804
1.15482
1.15735
1.16376
1.18487
1.17082
1.17097
1.17038
1.17429
1.18696
1.17177
1.0548
1.20613
1.06096
1.20683
1.12562
1.10338
1.09704
1.11906
1.13809
1.13925
1.13445
1.1372
1.17507
1.18357
1.18659
1.1786
0.704724
0.679693
0.704557
0.700259
1.45185
1.51495
1.50396
1.51772
1.1781
1.19468
1.19807
1.18022
1.1771
1.19221
1.18773
1.187
1.18911
1.19197
1.2059
1.19055
1.20894
1.2121
1.21358
1.22399
1.12121
1.14056
1.13148
1.14175
1.10683
1.16334
1.16896
1.18106
1.23221
1.23537
1.23806
1.22861
0.794701
0.788545
0.78929
0.791966
1.20625
1.20104
1.19167
1.22437
1.236
1.22535
1.22981
1.23389
1.21778
1.20238
1.20891
1.21539
1.06404
1.07131
1.06936
1.08074
1.49069
1.48304
1.50472
1.50344
1.60577
1.60095
1.58866
1.60753
1.26472
1.24533
1.27474
1.24977
1.49882
1.48994
1.4869
1.49769
1.21998
1.22275
1.22379
1.21636
2.27788
2.26121
2.25626
2.27321
1.7745
1.74889
1.77811
1.73158
0.581909
0.52979
0.534183
0.541156
1.13397
1.08233
1.12496
1.10773
1.0819
1.09288
1.07456
1.07888
1.17708
1.17706
1.17545
1.1771
1.45361
1.45069
1.45659
1.44246
1.5843
1.57451
1.59346
1.58736
0.974274
0.977372
0.975605
0.976865
1.20022
1.19753
1.19578
1.18409
1.25231
1.25286
1.24368
1.25135
3.22875
3.14577
3.23773
3.15368
1.02549
1.03478
1.0326
1.0282
1.16007
1.14331
1.14042
1.15719
1.07514
1.13879
1.16943
1.13063
0.642493
0.644192
0.654882
0.660236
0.942935
0.944232
0.937197
0.952015
1.06909
1.0718
1.07291
1.08164
1.12449
1.12088
1.11833
1.11627
1.41419
1.40993
1.39978
1.42058
1.04779
1.03013
1.07817
1.06529
1.1136
1.11714
1.10475
1.10699
-3.61015
-3.62776
-3.60474
-3.59858
0.940225
0.942804
0.949819
0.939934
1.24871
1.24786
1.24456
1.25475
1.20674
1.21587
1.20821
1.20506
1.35314
1.34771
1.36408
1.35155
1.14482
1.12945
1.14718
1.15002
1.81129
1.80646
1.80727
1.79683
1.74753
1.73741
1.73474
1.74438
1.2602
1.24567
1.24397
1.25428
1.03204
1.028
1.03621
1.02446
1.19104
1.18349
1.18346
1.1576
1.17246
1.15823
1.1692
1.15896
0.940129
0.947258
0.942604
0.956449
1.14564
1.14384
1.1441
1.15341
0.915324
0.902844
0.918594
0.915819
0.735887
0.716232
0.727791
0.724675
1.49568
1.48921
1.49325
1.48953
0.741629
0.750113
0.738678
0.735758
1.49274
1.48407
1.47673
1.49383
-3.42606
-3.35307
-3.41986
-3.36309
1.08064
1.08934
1.07859
1.08466
1.39551
1.38809
1.39618
1.38585
1.09695
1.09798
1.08274
1.08808
0.988265
0.981036
0.977192
0.981954
0.880378
0.880812
0.880687
0.888671
1.29151
1.28627
1.29191
1.27481
1.53389
1.51539
1.46968
1.51723
1.2818
1.2887
1.28769
1.27907
1.13349
1.13384
1.12057
1.12421
1.1063
1.08187
1.09254
1.08108
0.842493
0.832647
0.837563
0.833496
0.915011
0.909714
0.91287
0.906615
0.693061
0.705118
0.742182
0.711519
1.311
1.30192
1.29409
1.31288
1.27255
1.25819
1.27433
1.25551
1.2439
1.24191
1.25206
1.25184
0.88421
0.892087
0.883867
0.880202
1.54929
1.53749
1.53524
1.53619
1.2058
1.20373
1.19517
1.20592
1.20516
1.20845
1.20585
1.21237
1.19415
1.17405
1.17505
1.1819
1.03189
1.03749
1.04612
1.03013
0.586916
0.584776
0.574503
0.585357
0.942131
0.885966
0.911362
0.916466
0.939199
0.94112
0.954495
0.940636
1.3829
1.39301
1.37508
1.37745
1.00172
0.995112
0.992664
1.00306
1.60242
1.62613
1.62031
1.65298
2.34744
2.30287
2.3164
2.3312
1.24904
1.26759
1.24992
1.26396
0.755446
0.742088
0.740156
0.744973
2.2387
2.22842
2.23513
2.23131
0.688791
0.699486
0.704133
0.690677
0.957558
0.980158
0.971585
0.951634
1.83296
1.85352
1.84077
1.86164
1.31502
1.30616
1.31573
1.32297
1.2618
1.24667
1.24978
1.24905
1.12201
1.10107
1.10202
1.11066
0.898983
0.878002
0.874428
0.872695
0.914989
0.898866
0.902457
0.901869
1.26775
1.25887
1.26672
1.27746
1.27
1.27899
1.26206
1.26188
0.728551
0.725767
0.730142
0.71024
0.970149
0.970032
0.971962
0.962592
1.14701
1.12208
1.1181
1.13166
0.970625
0.961592
0.954494
0.95364
1.13256
1.12523
1.12609
1.13304
1.08461
1.0667
1.07434
1.06555
1.75048
1.74938
1.76298
1.75198
0.675531
0.710857
0.710984
0.684989
1.31455
1.30179
1.29606
1.31474
)
;

boundaryField
{
    insideCircle
    {
        type            myTemperature;
        value           nonuniform List<scalar> 
24
(
3.3236
3.29061
3.32232
3.32252
3.31993
3.32038
3.31538
3.32437
3.31512
3.31322
3.31146
3.31419
3.30956
3.31103
3.31014
3.35413
3.3204
3.32156
3.31884
3.32284
3.32813
3.32807
3.32641
3.35637
)
;
    }
    outsideCircle
    {
        type            myTemperature;
        value           nonuniform List<scalar> 
124
(
1.13756
1.13688
1.13752
1.13535
1.14011
1.14079
1.14227
1.13521
1.13814
1.14209
1.1406
1.14253
1.13873
1.14058
1.13932
1.1398
1.13908
1.13528
1.13582
1.14104
1.1377
1.13548
1.1371
1.1366
1.1346
1.13086
1.13644
1.14285
1.13348
1.13333
1.13538
1.1337
1.1349
1.135
1.13445
1.13465
1.1354
1.13887
1.13869
1.13487
1.13642
1.13672
1.13658
1.13643
1.13509
1.13454
1.13578
1.13586
1.13511
1.13454
1.13501
1.13563
1.13514
1.1345
1.13597
1.13521
1.13833
1.13116
1.13873
1.13041
1.13682
1.1322
1.13263
1.13215
1.13582
1.13584
1.13502
1.13506
1.13348
1.13518
1.1347
1.13403
1.13904
1.13736
1.13948
1.13908
1.13752
1.13761
1.13771
1.13841
1.13522
1.13556
1.13612
1.13697
1.1355
1.13797
1.13748
1.13594
1.1359
1.13557
1.13706
1.13534
1.13788
1.13692
1.13557
1.13743
1.13839
1.13942
1.13699
1.13679
1.1404
1.14025
1.13821
1.13865
1.1387
1.13922
1.13732
1.13626
1.13677
1.13572
1.13759
1.13509
1.13531
1.13711
1.13606
1.13584
1.1355
1.13546
1.13699
1.13565
1.13662
1.13519
1.13497
1.13518
)
;
    }
    topAndBottom
    {
        type            empty;
    }
}


// ************************************************************************* //
