/*--------------------------------*- C++ -*----------------------------------*\
| =========                 |                                                 |
| \\      /  F ield         | foam-extend: Open Source CFD                    |
|  \\    /   O peration     | Version:  3.0                                   |
|   \\  /    A nd           | Web:         http://www.extend-project.de       |
|    \\/     M anipulation  |                                                 |
\*---------------------------------------------------------------------------*/
FoamFile
{
    version     2.0;
    format      ascii;
    class       volSymmTensorField;
    location    "5";
    object      sigma;
}
// * * * * * * * * * * * * * * * * * * * * * * * * * * * * * * * * * * * * * //

dimensions      [0 0 0 0 0 0 0];

internalField   nonuniform List<symmTensor> 
168
(
(-0.146262 -0.0202395 -4.64994e-19 0.148417 1.93412e-19 -0.00215502)
(-0.110498 -0.0202982 3.43435e-19 0.115274 -1.78316e-19 -0.00477512)
(-0.0754307 -0.0164303 8.1167e-19 0.0819901 -7.16167e-19 -0.00655933)
(-0.0447282 -0.0120461 -3.90892e-19 0.052023 2.1126e-18 -0.00729484)
(-0.0213171 -0.00760688 1.09918e-19 0.0278002 4.53558e-19 -0.0064831)
(-0.0104449 -0.00450363 -2.42759e-19 0.0136216 -8.91044e-19 -0.00317669)
(-0.13238 -0.0581922 -1.32616e-19 0.134422 -4.80649e-19 -0.00204176)
(-0.0916742 -0.0565318 -8.64619e-20 0.0961976 -3.01421e-18 -0.00452341)
(-0.0578212 -0.0458326 1.8657e-18 0.064032 -2.16238e-18 -0.00621072)
(-0.0294817 -0.0343674 2.86454e-18 0.0363841 -2.88166e-18 -0.00690241)
(-0.00909956 -0.0235177 -2.05445e-18 0.015227 4.94956e-19 -0.00612739)
(0.000367432 -0.0176862 -3.15127e-19 0.0026302 1.92389e-18 -0.00299763)
(-0.108145 -0.087299 1.25159e-18 0.109971 -4.61608e-18 -0.00182627)
(-0.0606323 -0.0778991 -3.61189e-18 0.0646778 4.57747e-19 -0.0040456)
(-0.0292414 -0.0602876 -8.71745e-19 0.0347942 -6.0617e-19 -0.00555274)
(-0.00497114 -0.0429023 -3.46741e-19 0.0111391 1.07149e-18 -0.00616794)
(0.0105816 -0.0276321 6.83382e-18 -0.00511019 2.62226e-18 -0.00547145)
(0.0181696 -0.0197478 1.23294e-18 -0.0154951 -3.11106e-18 -0.00267451)
(-0.0792984 -0.105068 6.41374e-19 0.0808181 1.97509e-18 -0.00151967)
(-0.0281256 -0.0811898 2.44486e-18 0.0314914 4.10881e-18 -0.00336575)
(-0.000781933 -0.0568132 2.33294e-19 0.00539903 -1.51698e-19 -0.00461709)
(0.0183614 -0.0350196 3.78641e-19 -0.0132371 2.08339e-18 -0.00512425)
(0.0285971 -0.017739 -2.01634e-18 -0.0240579 -5.8065e-18 -0.00453924)
(0.0341814 -0.00852402 -1.02541e-18 -0.0319671 7.33177e-19 -0.00221423)
(-0.0514057 -0.112637 -3.13988e-18 0.0525428 1.88304e-18 -0.00113713)
(-0.00422734 -0.0703183 6.45455e-19 0.00674563 -2.16695e-18 -0.00251829)
(0.017207 -0.0398327 -1.34823e-18 -0.0137544 4.47045e-19 -0.00345259)
(0.0307807 -0.0151502 1.67443e-18 -0.0269528 -5.73278e-19 -0.00382795)
(0.0364346 0.00216934 -6.3157e-19 -0.0330495 1.0621e-18 -0.00338508)
(0.0401178 0.0121117 -1.18207e-18 -0.0384709 1.40329e-18 -0.00164692)
(-0.0278824 -0.113793 6.49819e-19 0.0285808 6.01782e-20 -0.000698376)
(0.00573912 -0.0543089 -6.53682e-19 -0.0041929 3.43416e-19 -0.00154622)
(0.0194819 -0.0191106 -6.80612e-19 -0.0173643 3.92691e-19 -0.00211761)
(0.0274914 0.00722032 -8.45022e-19 -0.0251481 -6.51861e-19 -0.00234327)
(0.0299791 0.0236144 -9.31197e-19 -0.0279137 5.54044e-20 -0.00206541)
(0.0319896 0.0339185 7.81193e-19 -0.0309901 -4.94439e-20 -0.0009995)
(-0.00884544 -0.11294 2.90207e-19 0.00906998 -1.48981e-20 -0.000224546)
(0.00337902 -0.0431042 -5.0693e-20 -0.00288202 -1.11068e-19 -0.000496997)
(0.0081088 -0.00531452 8.79499e-19 -0.00743167 -4.10242e-19 -0.000677133)
(0.0107216 0.0217402 -8.43766e-21 -0.00997999 -6.06177e-19 -0.000741648)
(0.011321 0.0373595 -2.06534e-19 -0.0106796 2.64516e-19 -0.000641366)
(0.0118415 0.0478151 3.20099e-19 -0.0115413 7.31817e-21 -0.000300245)
(0.00834549 -0.11301 2.6403e-19 -0.00860529 1.6597e-19 0.000259804)
(-0.00383654 -0.0431752 -1.87485e-19 0.00326078 8.60021e-22 0.000575756)
(-0.00860815 -0.00537067 3.4954e-19 0.00781344 -5.84538e-19 0.000794714)
(-0.0113204 0.0217158 6.03734e-19 0.0104275 -7.61356e-19 0.000892911)
(-0.0121169 0.0374294 1.88146e-19 0.0113089 -2.24179e-19 0.000808016)
(-0.0130527 0.0479616 -2.30011e-19 0.0126447 -3.83669e-20 0.000408019)
(0.0274107 -0.113965 6.19888e-19 -0.0281424 1.73723e-19 0.000731683)
(-0.00619278 -0.0544789 -1.59578e-18 0.00457215 -2.68175e-19 0.00162063)
(-0.0199959 -0.019231 -1.10339e-18 0.017767 -8.41673e-19 0.00222895)
(-0.0280946 0.00719406 -1.19387e-18 0.0256076 -1.54715e-18 0.00248699)
(-0.0307997 0.0238265 8.89135e-19 0.0285752 3.52599e-19 0.00222443)
(-0.0331454 0.0343413 9.96317e-19 0.0320429 1.13871e-19 0.00110251)
(0.0510152 -0.11288 -3.13891e-18 -0.0521817 -1.28095e-18 0.00116647)
(0.00385823 -0.070573 6.62021e-19 -0.00644193 2.48481e-18 0.0025837)
(-0.0176337 -0.0400582 -1.17189e-18 0.0140835 2.56905e-19 0.00355018)
(-0.0312679 -0.0152816 -3.40204e-19 0.0273139 1.17294e-19 0.00395403)
(-0.0371675 0.0022906 1.8317e-18 0.0336427 -3.85583e-18 0.00352485)
(-0.0412115 0.0125342 -1.49106e-18 0.0394743 -8.15993e-19 0.00173717)
(0.0789675 -0.105357 1.25483e-18 -0.0805111 -1.67531e-18 0.00154356)
(0.0277846 -0.0815532 4.18402e-18 -0.0312035 -2.2046e-18 0.00341884)
(0.000358856 -0.0572095 -9.46178e-19 -0.00505536 -3.11188e-19 0.0046965)
(-0.0188411 -0.035318 1.98483e-18 0.0136131 1.17306e-18 0.00522797)
(-0.0292717 -0.0178484 -6.37897e-18 0.0246151 2.92411e-18 0.00465663)
(-0.0351708 -0.00780216 -5.50497e-19 0.0328784 -5.97273e-19 0.00229232)
(0.107831 -0.0875477 2.24472e-18 -0.109674 4.36031e-18 0.0018433)
(0.0603008 -0.0782378 -3.10735e-18 -0.0643836 -5.51399e-20 0.00408277)
(0.0288487 -0.0607261 -2.29728e-19 -0.0344556 2.41548e-18 0.00560691)
(0.0045441 -0.0433587 -1.70836e-18 -0.0107818 -1.9441e-18 0.00623765)
(-0.0109455 -0.0280146 1.49542e-18 0.00539552 -1.13513e-19 0.00555002)
(-0.0190276 -0.0195954 2.13766e-18 0.0162995 2.57617e-18 0.00272811)
(0.132107 -0.0583949 7.31666e-20 -0.134158 2.32458e-20 0.00205135)
(0.091407 -0.0568405 7.55219e-19 -0.0959507 1.23593e-18 0.00454365)
(0.0575135 -0.0463011 1.68511e-18 -0.0637521 3.18686e-18 0.00623866)
(0.0290904 -0.0349566 -1.88658e-18 -0.0360274 2.21243e-18 0.00693699)
(0.00911247 -0.0243759 1.38172e-19 -0.0152782 1.38525e-18 0.00616573)
(-0.000798684 -0.0181252 -4.97696e-19 -0.00222844 -6.55027e-19 0.00302712)
(0.146006 -0.0204495 -4.13145e-19 -0.148163 -7.65688e-19 0.00215715)
(0.110272 -0.0206044 2.46968e-19 -0.115051 -6.27446e-19 0.00477837)
(0.0752292 -0.0168544 5.15025e-19 -0.0817901 -9.09739e-19 0.00656089)
(0.044428 -0.0129128 -8.05053e-19 -0.0517217 1.86135e-19 0.00729372)
(0.021579 -0.00867688 7.35005e-19 -0.0280586 3.72766e-19 0.00647953)
(0.0100201 -0.00686414 6.76541e-20 -0.0131978 -5.82358e-19 0.00317775)
(0.145998 0.0208818 -4.64008e-19 -0.148153 1.94738e-19 0.00215511)
(0.110135 0.0213918 3.45773e-19 -0.11491 -1.78729e-19 0.00477471)
(0.0749049 0.0182932 8.12716e-19 -0.0814619 -7.15792e-19 0.00655697)
(0.0441051 0.0145155 -3.99042e-19 -0.051395 2.10625e-18 0.00728983)
(0.0204403 0.0114122 9.7452e-20 -0.0269165 4.60698e-19 0.00647621)
(0.00925306 0.00982128 -2.4162e-19 -0.0124255 -8.98694e-19 0.00317243)
(0.132114 0.0588156 -1.3399e-19 -0.134159 -4.83271e-19 0.0020455)
(0.0911204 0.0575151 -9.52099e-20 -0.095653 -3.00325e-18 0.00453257)
(0.056766 0.0474188 1.86024e-18 -0.062992 -2.16372e-18 0.00622595)
(0.0279656 0.0364603 2.85146e-18 -0.0348885 -2.85022e-18 0.00692295)
(0.00636922 0.0265549 -2.0258e-18 -0.0125206 4.89397e-19 0.00615142)
(-0.0042892 0.0220408 -3.17784e-19 0.00127844 1.89402e-18 0.00301076)
(0.107821 0.0878452 1.25419e-18 -0.109653 -4.60524e-18 0.00183257)
(0.0598853 0.0785617 -3.5921e-18 -0.0639468 4.46832e-19 0.00406149)
(0.0277837 0.0612461 -8.62007e-19 -0.0333628 -6.02502e-19 0.00557912)
(0.00272911 0.0442241 -3.41433e-19 -0.00893146 1.04585e-18 0.00620235)
(-0.0145129 0.0292739 6.75961e-18 0.00900535 2.59172e-18 0.00550757)
(-0.0239589 0.0228764 1.21388e-18 0.0212685 -3.0492e-18 0.00269042)
(0.0789018 0.105525 6.29053e-19 -0.0804296 1.95892e-18 0.00152782)
(0.0272815 0.0815496 2.43646e-18 -0.0306677 4.08836e-18 0.00338623)
(-0.000827652 0.0571643 2.20104e-19 -0.0038237 -1.45373e-19 0.00465136)
(-0.0210343 0.035418 3.96059e-19 0.0158652 2.07149e-18 0.00516907)
(-0.0329652 0.0179446 -1.9536e-18 0.0283784 -5.6914e-18 0.00458677)
(-0.0413518 0.00947911 -1.03057e-18 0.0391142 7.07459e-19 0.00223761)
(0.0510079 0.112945 -3.12733e-18 -0.0521532 1.8802e-18 0.00114531)
(0.0034803 0.0703386 6.41467e-19 -0.00601911 -2.1427e-18 0.00253881)
(-0.0186368 0.0395902 -1.33274e-18 0.0151506 4.46317e-19 0.00348616)
(-0.0332556 0.0145819 1.65661e-18 0.029385 -5.56562e-19 0.00387069)
(-0.0403738 -0.00323038 -6.40292e-19 0.0369456 1.01711e-18 0.00342816)
(-0.0468763 -0.0135806 -1.11945e-18 0.0452088 1.37095e-18 0.00166747)
(0.0275135 0.113931 6.48333e-19 -0.028219 6.02854e-20 0.000705507)
(-0.00631444 0.0540578 -6.4833e-19 0.00475059 3.33151e-19 0.00156385)
(-0.0205407 0.0184341 -6.63971e-19 0.0183946 3.81977e-19 0.00214607)
(-0.0293279 -0.0085032 -8.27262e-19 0.0269489 -6.3756e-19 0.00237903)
(-0.0328296 -0.0256237 -9.12946e-19 0.0307283 6.17178e-20 0.00210129)
(-0.0369314 -0.037408 7.54523e-19 0.035914 -3.86508e-20 0.00101736)
(0.00860129 0.112989 2.88047e-19 -0.00883076 -1.23218e-20 0.000229469)
(-0.00367422 0.0427504 -5.43672e-20 0.00316528 -1.0827e-19 0.000508933)
(-0.00862628 0.00446875 8.64876e-19 0.00793021 -4.05914e-19 0.000696073)
(-0.0116023 -0.0233319 -1.11069e-20 0.0108369 -5.99953e-19 0.000765376)
(-0.0126869 -0.039796 -2.07293e-19 0.0120212 2.51928e-19 0.000665678)
(-0.0140678 -0.0523625 3.2171e-19 0.0137544 1.20258e-20 0.000313391)
(-0.00842112 0.113019 2.64159e-19 0.00867896 1.66217e-19 -0.000257844)
(0.00386803 0.0428085 -1.89422e-19 -0.00329651 8.69242e-22 -0.000571525)
(0.00870904 0.00455323 3.46235e-19 -0.00791973 -5.83472e-19 -0.000789314)
(0.0115126 -0.0232272 5.94454e-19 -0.0106246 -7.57491e-19 -0.000888048)
(0.0123791 -0.0397079 1.91287e-19 -0.0115738 -2.15888e-19 -0.00080532)
(0.0136331 -0.0523206 -2.34993e-19 -0.0132249 -3.7712e-20 -0.000408175)
(-0.0273528 0.114055 6.16472e-19 0.0280854 1.75132e-19 -0.000732579)
(0.00647642 0.0542503 -1.58336e-18 -0.00485266 -2.5851e-19 -0.00162376)
(0.0206187 0.018676 -1.09775e-18 -0.0183832 -8.32659e-19 -0.00223551)
(0.0292484 -0.00823923 -1.16946e-18 -0.0267514 -1.53408e-18 -0.00249699)
(0.0325686 -0.0253783 8.83781e-19 -0.0303333 3.31565e-19 -0.00223537)
(0.036374 -0.0374491 9.70578e-19 -0.0352658 1.12342e-19 -0.00110822)
(-0.0508634 0.113116 -3.1266e-18 0.0520336 -1.28161e-18 -0.00117018)
(-0.00333649 0.0705877 6.57871e-19 0.00593053 2.46715e-18 -0.00259404)
(0.0187221 0.0399303 -1.16213e-18 -0.0151526 2.52261e-19 -0.00356947)
(0.0332257 0.0149588 -3.50286e-19 -0.0292439 1.17923e-19 -0.0039818)
(0.0401503 -0.00274862 1.7993e-18 -0.0365938 -3.79438e-18 -0.00355652)
(0.0463858 -0.0136629 -1.43344e-18 -0.0446297 -7.9835e-19 -0.00175608)
(-0.0788365 0.105731 1.24313e-18 0.0803854 -1.66109e-18 -0.00154887)
(-0.0272195 0.0818134 4.16706e-18 0.0306528 -2.19485e-18 -0.00343328)
(0.000868517 0.0575511 -9.40519e-19 0.00385365 -2.96908e-19 -0.00472217)
(0.0210831 0.0358819 1.9657e-18 -0.0158204 1.1618e-18 -0.00526269)
(0.0327873 0.0187602 -6.28665e-18 -0.0280951 2.87756e-18 -0.00469222)
(0.0412505 0.00969503 -5.74921e-19 -0.0389407 -5.94371e-19 -0.00230977)
(-0.107821 0.0880773 2.24181e-18 0.10967 4.34721e-18 -0.0018493)
(-0.0598561 0.0788574 -3.08242e-18 0.0639552 -5.29303e-20 -0.00409907)
(-0.0277569 0.0616825 -2.32944e-19 0.0333933 2.40107e-18 -0.00563634)
(-0.00249342 0.0448642 -1.69158e-18 0.00877171 -1.92661e-18 -0.00627829)
(0.0144261 0.0303655 1.4618e-18 -0.00883287 -9.7499e-20 -0.00559327)
(0.0246663 0.0238467 2.1065e-18 -0.0219166 2.52606e-18 -0.00274974)
(-0.132199 0.0590184 7.3787e-20 0.134255 2.28986e-20 -0.00205651)
(-0.0911507 0.0577467 7.46833e-19 0.0957086 1.22873e-18 -0.00455788)
(-0.0567883 0.0477671 1.67515e-18 0.0630535 3.16667e-18 -0.00626517)
(-0.0277471 0.0372518 -1.87243e-18 0.0347219 2.19678e-18 -0.00697483)
(-0.00639659 0.0276945 1.37218e-19 0.0126045 1.36988e-18 -0.00620793)
(0.0049353 0.0242654 -4.89564e-19 -0.00188759 -6.42749e-19 -0.00304771)
(-0.146205 0.0210746 -4.10573e-19 0.148365 -7.65547e-19 -0.00216004)
(-0.110311 0.0216473 2.50232e-19 0.115098 -6.29704e-19 -0.00478674)
(-0.075062 0.0186671 5.19173e-19 0.0816394 -9.02861e-19 -0.00657737)
(-0.0441054 0.0154505 -7.97426e-19 0.0514237 1.81329e-19 -0.00731831)
(-0.0203476 0.0126063 7.1289e-19 0.0268555 3.77447e-19 -0.00650796)
(-0.00880248 0.0125019 7.53557e-20 0.0119935 -5.8167e-19 -0.00319104)
)
;

boundaryField
{
    out
    {
        type            mySigma;
    }
    in
    {
        type            mySigma;
    }
    frontAndBack
    {
        type            empty;
    }
}


// ************************************************************************* //
