/*--------------------------------*- C++ -*----------------------------------*\
| =========                 |                                                 |
| \\      /  F ield         | foam-extend: Open Source CFD                    |
|  \\    /   O peration     | Version:  3.0                                   |
|   \\  /    A nd           | Web:         http://www.extend-project.de       |
|    \\/     M anipulation  |                                                 |
\*---------------------------------------------------------------------------*/
FoamFile
{
    version     2.0;
    format      ascii;
    class       volSymmTensorField;
    location    "1";
    object      sigma;
}
// * * * * * * * * * * * * * * * * * * * * * * * * * * * * * * * * * * * * * //

dimensions      [0 0 0 0 0 0 0];

internalField   nonuniform List<symmTensor> 
400
(
(7.0875e-05 -0.000579853 0 -0.000200912 0 0.000130037)
(-0.000173262 -0.000394051 0 -2.27394e-05 0 0.000196001)
(-0.00022811 -1.44242e-05 0 1.181e-05 0 0.0002163)
(-0.000215626 0.000105986 0 -3.31325e-06 0 0.00021894)
(-0.000189109 0.000144231 0 -2.26049e-05 0 0.000211714)
(-0.000156016 0.000157337 0 -4.76938e-05 0 0.00020371)
(-0.000130397 0.000172951 0 -6.23789e-05 0 0.000192776)
(-0.000103956 0.000174272 0 -7.97178e-05 0 0.000183674)
(-8.89186e-05 0.000178158 0 -8.42967e-05 0 0.000173215)
(-7.07735e-05 0.000173109 0 -9.37839e-05 0 0.000164557)
(-6.26525e-05 0.000166121 0 -9.21356e-05 0 0.000154788)
(-4.40279e-05 0.000154553 0 -0.000102145 0 0.000146173)
(-3.61352e-05 0.000134714 0 -0.000100332 0 0.000136468)
(-5.87465e-06 0.000117305 0 -0.000121007 0 0.000126882)
(6.79609e-06 7.92093e-05 0 -0.000123053 0 0.000116256)
(6.08976e-05 6.05338e-05 0 -0.000164881 0 0.000103983)
(7.58674e-05 -1.02877e-05 0 -0.000166749 0 9.08819e-05)
(0.000168618 -1.39527e-05 0 -0.00024162 0 7.30026e-05)
(0.000145782 -0.0001728 0 -0.000201834 0 5.60519e-05)
(0.000264935 -0.000178295 0 -0.000296476 0 3.15412e-05)
(0.000394845 -0.000344372 0 -0.000612149 0 0.000217304)
(0.000173426 -0.00107004 0 -0.000498431 0 0.000325005)
(-5.51561e-05 -0.00132001 0 -0.000309304 0 0.00036446)
(-0.000199034 -0.00134642 0 -0.000176322 0 0.000375356)
(-0.000240065 -0.00133384 0 -0.000127173 0 0.000367238)
(-0.000239036 -0.0012566 0 -0.000116369 0 0.000355406)
(-0.000205671 -0.00118224 0 -0.000132377 0 0.000338048)
(-0.000170268 -0.00110221 0 -0.000152406 0 0.000322674)
(-0.00013702 -0.00104239 0 -0.000168149 0 0.00030517)
(-0.000106974 -0.00098597 0 -0.000183309 0 0.000290283)
(-8.67693e-05 -0.000953513 0 -0.000187124 0 0.000273894)
(-6.19278e-05 -0.000920233 0 -0.000197671 0 0.000259599)
(-4.74859e-05 -0.000912028 0 -0.00019621 0 0.000243696)
(-1.68818e-05 -0.000893294 0 -0.00021196 0 0.000228842)
(6.0572e-07 -0.000900412 0 -0.000212392 0 0.000211787)
(4.49977e-05 -0.000878201 0 -0.000238763 0 0.000193765)
(6.53786e-05 -0.000881664 0 -0.000237284 0 0.000171905)
(0.000112851 -0.000810049 0 -0.000257656 0 0.000144805)
(0.000100168 -0.00076229 0 -0.000209715 0 0.000109547)
(5.50784e-05 -0.000437725 0 -0.000114922 0 5.98435e-05)
(0.000464533 8.2942e-05 0 -0.000715955 0 0.000251421)
(0.000419796 -0.00128022 0 -0.000803215 0 0.000383419)
(0.000185415 -0.00207458 0 -0.000626717 0 0.000441302)
(-4.44179e-05 -0.00237733 0 -0.000418984 0 0.000463402)
(-0.00017461 -0.00248603 0 -0.000285682 0 0.000460293)
(-0.000242401 -0.00241619 0 -0.000206984 0 0.000449385)
(-0.000250165 -0.00231422 0 -0.000180074 0 0.000430239)
(-0.000242145 -0.00217699 0 -0.000169697 0 0.000411841)
(-0.000219235 -0.00206062 0 -0.000171104 0 0.000390339)
(-0.000199013 -0.00194376 0 -0.000172342 0 0.000371355)
(-0.000180547 -0.00185761 0 -0.000169966 0 0.000350512)
(-0.000163421 -0.00177168 0 -0.000168692 0 0.000332113)
(-0.000151428 -0.00171583 0 -0.000160449 0 0.000311877)
(-0.000132137 -0.00164941 0 -0.000161077 0 0.000293214)
(-0.00011945 -0.0016079 0 -0.000152383 0 0.000271832)
(-9.09668e-05 -0.00153263 0 -0.000158842 0 0.000249808)
(-7.53097e-05 -0.00146673 0 -0.000146952 0 0.000222262)
(-4.37003e-05 -0.00131146 0 -0.000144742 0 0.000188442)
(-4.3135e-05 -0.00111752 0 -9.80154e-05 0 0.00014115)
(-5.94577e-05 -0.000661337 0 -1.37001e-05 0 7.31578e-05)
(0.000445763 0.000258186 0 -0.000711347 0 0.000265583)
(0.000545857 -0.00127574 0 -0.000959102 0 0.000413246)
(0.000386002 -0.00236714 0 -0.000871367 0 0.000485365)
(0.000151874 -0.00291643 0 -0.000669858 0 0.000517984)
(-3.48464e-05 -0.00318409 0 -0.00048642 0 0.000521266)
(-0.000164391 -0.00318747 0 -0.00034908 0 0.000513471)
(-0.000227742 -0.00310831 0 -0.000267184 0 0.000494926)
(-0.000262186 -0.00295388 0 -0.000213482 0 0.000475667)
(-0.000267473 -0.00280692 0 -0.000184677 0 0.00045215)
(-0.00026939 -0.00264694 0 -0.000161333 0 0.000430723)
(-0.000264066 -0.0025183 0 -0.000142886 0 0.000406952)
(-0.000261344 -0.00238785 0 -0.000124346 0 0.00038569)
(-0.000258458 -0.00229069 0 -0.000103918 0 0.000362375)
(-0.000253502 -0.00218364 0 -8.73978e-05 0 0.0003409)
(-0.000249703 -0.00210062 0 -6.67055e-05 0 0.000316408)
(-0.000237044 -0.00198246 0 -5.43155e-05 0 0.000291359)
(-0.000226869 -0.00185811 0 -3.28394e-05 0 0.000259708)
(-0.0002059 -0.00163463 0 -1.47929e-05 0 0.000220692)
(-0.000184696 -0.00131965 0 2.01826e-05 0 0.000164513)
(-0.000154703 -0.000728941 0 7.20417e-05 0 8.26609e-05)
(0.000418316 0.000331966 0 -0.000691356 0 0.000273039)
(0.000566028 -0.00126435 0 -0.000994831 0 0.000428802)
(0.000478519 -0.00250718 0 -0.000989145 0 0.000510625)
(0.000292081 -0.00322787 0 -0.000843576 0 0.000551495)
(0.000102952 -0.00363441 0 -0.000663885 0 0.000560934)
(-5.26299e-05 -0.00372605 0 -0.000504456 0 0.000557086)
(-0.000156354 -0.00369337 0 -0.00038414 0 0.000540494)
(-0.000228866 -0.00354715 0 -0.000292993 0 0.000521859)
(-0.000267604 -0.00339047 0 -0.000230104 0 0.000497709)
(-0.000297352 -0.00320352 0 -0.000177771 0 0.000475123)
(-0.000313249 -0.00304501 0 -0.00013625 0 0.0004495)
(-0.000330177 -0.0028792 0 -9.62022e-05 0 0.000426379)
(-0.000342218 -0.00274949 0 -5.86249e-05 0 0.000400843)
(-0.000353499 -0.00260881 0 -2.39146e-05 0 0.000377414)
(-0.000361668 -0.00249422 0 1.10206e-05 0 0.000350647)
(-0.00036125 -0.00234159 0 3.77842e-05 0 0.000323465)
(-0.000356306 -0.00217506 0 6.74947e-05 0 0.000288811)
(-0.000332708 -0.00189457 0 8.68488e-05 0 0.00024586)
(-0.000290965 -0.00148377 0 0.000107889 0 0.000183075)
(-0.000205121 -0.000777971 0 0.000114119 0 9.10017e-05)
(0.000383188 0.000389225 0 -0.000663141 0 0.000279953)
(0.000539008 -0.001206 0 -0.000980975 0 0.000441967)
(0.000505661 -0.00250846 0 -0.00103628 0 0.000530619)
(0.000374907 -0.00333223 0 -0.00095247 0 0.000577563)
(0.000211972 -0.00384345 0 -0.000803949 0 0.000591977)
(5.85085e-05 -0.00402119 0 -0.000650268 0 0.00059176)
(-6.32718e-05 -0.00404721 0 -0.000514136 0 0.000577408)
(-0.000159698 -0.00393025 0 -0.000400265 0 0.000559963)
(-0.000225135 -0.00378346 0 -0.000310774 0 0.000535909)
(-0.000279657 -0.00358746 0 -0.000233195 0 0.000512852)
(-0.00031751 -0.00341274 0 -0.000168538 0 0.000486049)
(-0.000355221 -0.00322216 0 -0.000106383 0 0.000461605)
(-0.000385102 -0.00306819 0 -4.92367e-05 0 0.000434339)
(-0.000414994 -0.0029007 0 5.66377e-06 0 0.000409331)
(-0.000438441 -0.00276194 0 5.77729e-05 0 0.000380668)
(-0.000453127 -0.00258283 0 0.000101402 0 0.000351725)
(-0.000456282 -0.00238524 0 0.000141746 0 0.000314536)
(-0.000433891 -0.00206255 0 0.000165523 0 0.000268367)
(-0.000374912 -0.00158308 0 0.000174908 0 0.000200004)
(-0.000243037 -0.000790398 0 0.000143426 0 9.96111e-05)
(0.000367955 0.000427789 0 -0.000656408 0 0.000288453)
(0.00048945 -0.00118304 0 -0.000944951 0 0.000455501)
(0.000477933 -0.00251915 0 -0.00102706 0 0.000549124)
(0.000393913 -0.00340471 0 -0.000994396 0 0.000600483)
(0.000270964 -0.00398554 0 -0.000889617 0 0.000618653)
(0.000140782 -0.0042293 0 -0.000762247 0 0.000621465)
(2.29225e-05 -0.00430604 0 -0.00063209 0 0.000609167)
(-8.02518e-05 -0.00422079 0 -0.000512809 0 0.000593061)
(-0.000160912 -0.00408968 0 -0.000408426 0 0.000569338)
(-0.000233019 -0.00389302 0 -0.000313114 0 0.000546133)
(-0.000289994 -0.0037092 0 -0.000228364 0 0.000518357)
(-0.000347454 -0.00350026 0 -0.000145352 0 0.000492805)
(-0.000396767 -0.00332677 0 -6.70939e-05 0 0.000463861)
(-0.000447057 -0.00313613 0 9.68951e-06 0 0.000437368)
(-0.000489441 -0.00297738 0 8.26487e-05 0 0.000406792)
(-0.000521104 -0.00277544 0 0.000144902 0 0.000376202)
(-0.000535921 -0.00255529 0 0.000199303 0 0.000336617)
(-0.000513295 -0.00219793 0 0.000225676 0 0.000287619)
(-0.000441261 -0.00166649 0 0.000226811 0 0.00021445)
(-0.000269021 -0.00080279 0 0.000161662 0 0.000107359)
(0.000343231 0.000469372 0 -0.000640978 0 0.000297746)
(0.000426398 -0.0011672 0 -0.000897265 0 0.000470867)
(0.000423906 -0.00253126 0 -0.00099297 0 0.000569065)
(0.000374881 -0.00345468 0 -0.000998821 0 0.00062394)
(0.000291959 -0.00408081 0 -0.000936967 0 0.000645008)
(0.000192626 -0.00437196 0 -0.000842798 0 0.000650171)
(9.18741e-05 -0.00449003 0 -0.000731483 0 0.000639609)
(-4.98839e-06 -0.00443459 0 -0.0006197 0 0.000624688)
(-8.88938e-05 -0.00432164 0 -0.000512516 0 0.00060141)
(-0.000169227 -0.00412876 0 -0.000408923 0 0.000578149)
(-0.000238484 -0.00394009 0 -0.000311139 0 0.000549623)
(-0.000311105 -0.00371546 0 -0.00021192 0 0.000523025)
(-0.000377451 -0.00352395 0 -0.000115063 0 0.000492514)
(-0.00044793 -0.00330969 0 -1.65241e-05 0 0.000464454)
(-0.000510598 -0.00313115 0 7.86622e-05 0 0.000431936)
(-0.000563344 -0.00290663 0 0.000163764 0 0.00039958)
(-0.00059389 -0.00266799 0 0.000236301 0 0.00035759)
(-0.000578061 -0.00228389 0 0.000272139 0 0.000305922)
(-0.000497392 -0.0017172 0 0.000269128 0 0.000228264)
(-0.000291934 -0.000802135 0 0.000176659 0 0.000115275)
(0.000340462 0.000490669 0 -0.000651019 0 0.000310558)
(0.000372448 -0.00120043 0 -0.000862682 0 0.000490234)
(0.000357352 -0.00260161 0 -0.000949972 0 0.00059262)
(0.000325272 -0.00355786 0 -0.000975679 0 0.000650407)
(0.000275346 -0.00421562 0 -0.000948939 0 0.000673593)
(0.000208218 -0.00453939 0 -0.000888713 0 0.000680495)
(0.000132867 -0.00468617 0 -0.000804006 0 0.000671139)
(5.25535e-05 -0.00465328 0 -0.000709644 0 0.00065709)
(-2.36126e-05 -0.00455397 0 -0.000610361 0 0.000633973)
(-0.000102678 -0.00436424 0 -0.000507817 0 0.000610495)
(-0.000176432 -0.00416973 0 -0.000404519 0 0.00058095)
(-0.000258724 -0.0039296 0 -0.00029436 0 0.000553084)
(-0.000339021 -0.00371752 0 -0.00018157 0 0.000520591)
(-0.000429181 -0.00347694 0 -6.14298e-05 0 0.00049061)
(-0.000514501 -0.0032735 0 5.88828e-05 0 0.000455619)
(-0.000592465 -0.00302197 0 0.000171326 0 0.000421139)
(-0.000645341 -0.00276248 0 0.000268992 0 0.000376348)
(-0.000640345 -0.00235147 0 0.000318389 0 0.000321955)
(-0.000556532 -0.00175758 0 0.000316539 0 0.000239993)
(-0.000317484 -0.000800184 0 0.000195526 0 0.000121958)
(0.000317277 0.000525205 0 -0.000639602 0 0.000322325)
(0.00029628 -0.00125453 0 -0.000806324 0 0.000510044)
(0.000267366 -0.00271685 0 -0.000884582 0 0.000617216)
(0.000246907 -0.00371215 0 -0.000924832 0 0.000677925)
(0.000225707 -0.00439981 0 -0.000928762 0 0.000703055)
(0.00018951 -0.00474809 0 -0.000900906 0 0.000711396)
(0.000142739 -0.0049163 0 -0.000845832 0 0.000703093)
(8.48364e-05 -0.00489963 0 -0.000774602 0 0.000689765)
(2.44599e-05 -0.00481022 0 -0.000691344 0 0.000666884)
(-4.45915e-05 -0.00462073 0 -0.000598595 0 0.000643187)
(-0.000113969 -0.00441791 0 -0.00049883 0 0.000612799)
(-0.000197441 -0.00415802 0 -0.00038617 0 0.000583611)
(-0.000284318 -0.00391977 0 -0.000264876 0 0.000549194)
(-0.000388793 -0.00364385 0 -0.000128207 0 0.000517)
(-0.00049356 -0.00340623 0 1.42115e-05 0 0.000479349)
(-0.00059856 -0.00311649 0 0.000156311 0 0.00044225)
(-0.000677039 -0.00282987 0 0.000282666 0 0.000394373)
(-0.000692607 -0.00238892 0 0.00035563 0 0.000336977)
(-0.000610889 -0.00177657 0 0.000360123 0 0.000250766)
(-0.000344177 -0.000789611 0 0.000215946 0 0.000128231)
(0.000309514 0.000524725 0 -0.000647533 0 0.000338019)
(0.000226276 -0.00137547 0 -0.000760775 0 0.000534499)
(0.000169747 -0.0029198 0 -0.000816255 0 0.000646508)
(0.000148429 -0.00396608 0 -0.000858467 0 0.000710038)
(0.000147193 -0.00468623 0 -0.000883997 0 0.000736804)
(0.000137323 -0.00505695 0 -0.000883617 0 0.000746294)
(0.000119454 -0.00524169 0 -0.000858135 0 0.000738681)
(8.73212e-05 -0.00523732 0 -0.000813125 0 0.000725804)
(4.92109e-05 -0.00515413 0 -0.000752043 0 0.000702832)
(-2.32079e-06 -0.00496369 0 -0.000676347 0 0.000678668)
(-5.85267e-05 -0.00475034 0 -0.00058852 0 0.000647047)
(-0.000135101 -0.00446948 0 -0.000481076 0 0.000616176)
(-0.000220804 -0.00419912 0 -0.000358415 0 0.000579219)
(-0.000334936 -0.00388079 0 -0.000209288 0 0.000544224)
(-0.000457228 -0.00359397 0 -4.58045e-05 0 0.000503032)
(-0.000592996 -0.00325018 0 0.000130403 0 0.000462593)
(-0.00070538 -0.00291556 0 0.000294623 0 0.000410757)
(-0.000752341 -0.00242807 0 0.0004024 0 0.000349941)
(-0.000683598 -0.00178831 0 0.000424355 0 0.000259243)
(-0.000386464 -0.000771334 0 0.00025375 0 0.000132714)
(0.000260692 0.000536506 0 -0.000610036 0 0.000349344)
(0.000103448 -0.00154501 0 -0.000659477 0 0.000556029)
(2.39117e-05 -0.00321618 0 -0.000697686 0 0.000673775)
(4.66048e-06 -0.00434136 0 -0.000745193 0 0.000740533)
(2.39037e-05 -0.00511142 0 -0.000793085 0 0.000769182)
(3.96054e-05 -0.00551147 0 -0.000819518 0 0.000779913)
(5.06419e-05 -0.00571574 0 -0.000823811 0 0.00077317)
(4.58726e-05 -0.00572349 0 -0.000806757 0 0.000760885)
(3.36555e-05 -0.00564616 0 -0.000771814 0 0.000738158)
(5.72011e-06 -0.00545344 0 -0.000719506 0 0.000713786)
(-2.93685e-05 -0.00522749 0 -0.000652025 0 0.000681394)
(-8.81456e-05 -0.00492076 0 -0.000560907 0 0.000649053)
(-0.000160735 -0.00460986 0 -0.000449179 0 0.000609914)
(-0.000270785 -0.00423417 0 -0.000301186 0 0.00057197)
(-0.000398342 -0.00387797 0 -0.000128863 0 0.000527205)
(-0.000556986 -0.00345172 0 7.42624e-05 0 0.000482724)
(-0.00070009 -0.00304096 0 0.000273598 0 0.000426492)
(-0.000788837 -0.00247727 0 0.000427427 0 0.00036141)
(-0.000741393 -0.00179698 0 0.000475339 0 0.000266054)
(-0.000430183 -0.000744629 0 0.000294278 0 0.000135905)
(0.00021408 0.000475774 0 -0.000577924 0 0.000363844)
(-3.89759e-05 -0.00184748 0 -0.000542232 0 0.000581208)
(-0.000154519 -0.00369018 0 -0.000550272 0 0.000704791)
(-0.00017789 -0.00492249 0 -0.00059695 0 0.00077484)
(-0.00014169 -0.00575852 0 -0.000663674 0 0.000805364)
(-0.000102697 -0.00619717 0 -0.000714631 0 0.000817328)
(-6.34049e-05 -0.00642557 0 -0.000747957 0 0.000811362)
(-3.99771e-05 -0.00644894 0 -0.000759628 0 0.000799605)
(-2.30376e-05 -0.00638048 0 -0.000753949 0 0.000776986)
(-2.22318e-05 -0.00619013 0 -0.000730079 0 0.000752311)
(-2.80872e-05 -0.005956 0 -0.00069083 0 0.000718917)
(-5.93384e-05 -0.00562867 0 -0.000625546 0 0.000684885)
(-0.000106106 -0.00527731 0 -0.000536966 0 0.000643072)
(-0.000200188 -0.0048407 0 -0.000401471 0 0.000601659)
(-0.000320859 -0.00439564 0 -0.00023153 0 0.000552389)
(-0.000498217 -0.00385873 0 -4.76662e-06 0 0.000502984)
(-0.000674624 -0.00331892 0 0.000233512 0 0.000441112)
(-0.000822447 -0.00262292 0 0.000451496 0 0.000370951)
(-0.000818871 -0.00183794 0 0.000548708 0 0.000270163)
(-0.000505095 -0.000709309 0 0.000368681 0 0.000136414)
(8.16791e-05 0.000401927 0 -0.000449788 0 0.000368109)
(-0.000291327 -0.00229501 0 -0.000306597 0 0.000597924)
(-0.00042873 -0.00440446 0 -0.000299732 0 0.000728461)
(-0.00044097 -0.00580919 0 -0.000361388 0 0.000802359)
(-0.000378339 -0.00675458 0 -0.00045682 0 0.000835159)
(-0.000311739 -0.00725751 0 -0.000536932 0 0.000848672)
(-0.000243347 -0.00752656 0 -0.000600535 0 0.000843882)
(-0.000192204 -0.00757569 0 -0.00064087 0 0.000833074)
(-0.000146712 -0.00752395 0 -0.000664465 0 0.000811177)
(-0.000115981 -0.00734222 0 -0.00067087 0 0.000786851)
(-8.94128e-05 -0.00710494 0 -0.00066395 0 0.000753363)
(-8.43068e-05 -0.0067599 0 -0.000634148 0 0.000718455)
(-9.25735e-05 -0.00636572 0 -0.000582435 0 0.000675008)
(-0.000148175 -0.00585708 0 -0.000482548 0 0.000630722)
(-0.000236329 -0.00529773 0 -0.000341346 0 0.000577675)
(-0.000400424 -0.00460373 0 -0.00012268 0 0.000523104)
(-0.000584339 -0.0038673 0 0.000128788 0 0.000455552)
(-0.000783402 -0.00294676 0 0.000404329 0 0.000379074)
(-0.000830236 -0.00196546 0 0.000557672 0 0.000272564)
(-0.000562944 -0.000675458 0 0.000427897 0 0.000135047)
(-7.27179e-05 0.000142186 0 -0.000299756 0 0.000372474)
(-0.000614788 -0.00309568 0 -2.24743e-08 0 0.00061481)
(-0.000785488 -0.00558778 0 3.29853e-05 0 0.000752502)
(-0.000782046 -0.00722948 0 -4.84732e-05 0 0.00083052)
(-0.000684469 -0.00832227 0 -0.000181438 0 0.000865907)
(-0.000583974 -0.0089117 0 -0.000297248 0 0.000881222)
(-0.000482594 -0.00923545 0 -0.00039518 0 0.000877774)
(-0.000401621 -0.00932047 0 -0.000466419 0 0.00086804)
(-0.000325993 -0.00929533 0 -0.000520936 0 0.000846929)
(-0.000263064 -0.00913367 0 -0.000559968 0 0.000823033)
(-0.000199697 -0.00890829 0 -0.000589779 0 0.000789477)
(-0.000150779 -0.00856342 0 -0.000602974 0 0.000753753)
(-0.000107454 -0.0081454 0 -0.000601139 0 0.000708593)
(-0.000106819 -0.00758048 0 -0.000554538 0 0.000661358)
(-0.000136744 -0.00690516 0 -0.000467371 0 0.000604115)
(-0.000263342 -0.00602963 0 -0.0002806 0 0.000543943)
(-0.000432149 -0.00501138 0 -3.76131e-05 0 0.000469762)
(-0.000688042 -0.00373709 0 0.000301815 0 0.000386227)
(-0.000815306 -0.00234364 0 0.000542369 0 0.000272938)
(-0.000655691 -0.000691696 0 0.000524899 0 0.000130792)
(-0.000419646 -0.000225727 0 6.40712e-05 0 0.000355575)
(-0.00113763 -0.00434351 0 0.000523167 0 0.000614464)
(-0.00128992 -0.00744924 0 0.000528582 0 0.000761342)
(-0.00122256 -0.00947774 0 0.000378117 0 0.000844444)
(-0.00106372 -0.0108099 0 0.000180712 0 0.000883011)
(-0.000914635 -0.0115404 0 1.40153e-05 0 0.000900619)
(-0.000776476 -0.0119529 0 -0.000122493 0 0.00089897)
(-0.000667157 -0.0120959 0 -0.000223648 0 0.000890805)
(-0.000567032 -0.0121142 0 -0.000304076 0 0.000871108)
(-0.000479438 -0.0119876 0 -0.000369015 0 0.000848453)
(-0.000387671 -0.0117886 0 -0.000428261 0 0.000815933)
(-0.000300212 -0.0114597 0 -0.000480551 0 0.000780763)
(-0.000206864 -0.0110312 0 -0.000528784 0 0.000735648)
(-0.000135661 -0.0104194 0 -0.000551661 0 0.000687322)
(-8.15844e-05 -0.00961927 0 -0.000546499 0 0.000628083)
(-0.000110787 -0.00852173 0 -0.000453138 0 0.000563925)
(-0.000196236 -0.00711916 0 -0.000288711 0 0.000484947)
(-0.000424249 -0.00529916 0 2.97773e-05 0 0.000394472)
(-0.000593936 -0.00319603 0 0.000318423 0 0.000275513)
(-0.000619604 -0.0008093 0 0.000490825 0 0.000128779)
(-0.000807004 -0.00116988 0 0.00047385 0 0.000333154)
(-0.00177982 -0.00662188 0 0.00117158 0 0.000608234)
(-0.00189955 -0.0106108 0 0.00113418 0 0.000765376)
(-0.00173888 -0.0131491 0 0.000883957 0 0.000854919)
(-0.00148842 -0.0147877 0 0.000590483 0 0.00089794)
(-0.00127071 -0.0156922 0 0.000352039 0 0.000918675)
(-0.00108327 -0.0162133 0 0.000163938 0 0.000919331)
(-0.000939331 -0.0164258 0 2.63706e-05 0 0.00091296)
(-0.000813017 -0.0164985 0 -8.17157e-05 0 0.000894733)
(-0.000701544 -0.0164184 0 -0.000171738 0 0.000873282)
(-0.000584415 -0.0162645 0 -0.00025733 0 0.000841744)
(-0.000461093 -0.0159765 0 -0.000346026 0 0.000807119)
(-0.000318531 -0.0155771 0 -0.000443596 0 0.000762127)
(-0.000171454 -0.0149643 0 -0.000541504 0 0.000712958)
(-1.54456e-05 -0.0140934 0 -0.000636618 0 0.000652063)
(8.60081e-05 -0.0128067 0 -0.000670577 0 0.000584569)
(0.000139202 -0.0109818 0 -0.0006406 0 0.000501398)
(-1.17637e-05 -0.00844661 0 -0.000393391 0 0.000405155)
(-0.000210817 -0.00516808 0 -7.07459e-05 0 0.000281563)
(-0.000541383 -0.00136864 0 0.000410675 0 0.000130707)
(-0.001635 -0.00256924 0 0.00136227 0 0.000272728)
(-0.00262603 -0.0102284 0 0.00205027 0 0.000575759)
(-0.00256081 -0.015588 0 0.00181272 0 0.000748087)
(-0.00219695 -0.0189142 0 0.00135012 0 0.000846831)
(-0.00182365 -0.0210077 0 0.000927928 0 0.000895717)
(-0.00151935 -0.0221714 0 0.000598829 0 0.000920517)
(-0.00128608 -0.0228507 0 0.000362232 0 0.000923849)
(-0.00111346 -0.023166 0 0.000194013 0 0.000919448)
(-0.000973971 -0.0233165 0 7.12576e-05 0 0.000902713)
(-0.000855762 -0.0233034 0 -2.68556e-05 0 0.000882618)
(-0.000736144 -0.0232131 0 -0.000116243 0 0.000852387)
(-0.000607494 -0.0229875 0 -0.000211656 0 0.00081915)
(-0.000452392 -0.0226399 0 -0.000323223 0 0.000775615)
(-0.000267248 -0.0220566 0 -0.000460638 0 0.000727887)
(-4.29445e-05 -0.0211415 0 -0.000625452 0 0.000668396)
(0.000200077 -0.0196823 0 -0.000801787 0 0.00060171)
(0.000442905 -0.017386 0 -0.000962277 0 0.000519372)
(0.000565624 -0.0139343 0 -0.000988364 0 0.00042274)
(0.000530645 -0.00892162 0 -0.00083288 0 0.000302235)
(9.24857e-05 -0.00259814 0 -0.000250666 0 0.00015818)
(-0.0022632 -0.006057 0 0.00204525 0 0.000217946)
(-0.00332164 -0.0167749 0 0.00278149 0 0.000540154)
(-0.0030475 -0.023711 0 0.00231755 0 0.000729944)
(-0.00248766 -0.0278631 0 0.0016459 0 0.000841757)
(-0.00198171 -0.0303963 0 0.00108206 0 0.000899653)
(-0.00158696 -0.0318189 0 0.000657024 0 0.000929934)
(-0.00129933 -0.032653 0 0.000362944 0 0.000936391)
(-0.00109239 -0.033077 0 0.000158851 0 0.00093354)
(-0.000934965 -0.033308 0 1.74831e-05 0 0.000917482)
(-0.00080822 -0.0333675 0 -8.93442e-05 0 0.000897564)
(-0.000688719 -0.0333457 0 -0.00017865 0 0.000867369)
(-0.000561858 -0.0331911 0 -0.000272238 0 0.000834097)
(-0.000410124 -0.032917 0 -0.000380596 0 0.00079072)
(-0.000210549 -0.0323977 0 -0.000532638 0 0.000743187)
(4.79615e-05 -0.0315218 0 -0.000732258 0 0.000684296)
(0.000396198 -0.0300016 0 -0.00101438 0 0.000618182)
(0.000805343 -0.0274242 0 -0.00134273 0 0.000537385)
(0.00122021 -0.023162 0 -0.00166326 0 0.000443045)
(0.00140479 -0.0162388 0 -0.00173526 0 0.000330468)
(0.000876102 -0.00600652 0 -0.00107999 0 0.000203892)
(-0.003054 -0.0127507 0 0.00291428 0 0.000139718)
(-0.0030415 -0.0280205 0 0.00254722 0 0.000494278)
(-0.00261598 -0.0373067 0 0.00190772 0 0.000708259)
(-0.00199514 -0.0426568 0 0.00115851 0 0.000836626)
(-0.00151913 -0.0457945 0 0.000615661 0 0.000903472)
(-0.00113136 -0.0475912 0 0.000193429 0 0.000937927)
(-0.000855828 -0.0486461 0 -8.94292e-05 0 0.000945257)
(-0.000651664 -0.0492374 0 -0.000289581 0 0.000941245)
(-0.000499366 -0.0495848 0 -0.000423676 0 0.000923042)
(-0.000381564 -0.0497548 0 -0.000518837 0 0.000900401)
(-0.000277908 -0.0498205 0 -0.000589655 0 0.000867563)
(-0.000181438 -0.04976 0 -0.000650428 0 0.000831866)
(-7.40086e-05 -0.0495571 0 -0.000712707 0 0.000786716)
(5.7519e-05 -0.0491016 0 -0.000795943 0 0.000738424)
(0.000231076 -0.0482333 0 -0.000911091 0 0.000680015)
(0.000492945 -0.0466281 0 -0.00110961 0 0.000616666)
(0.000838257 -0.043744 0 -0.00137922 0 0.00054096)
(0.00136161 -0.0386424 0 -0.00181835 0 0.000456741)
(0.00177774 -0.0296596 0 -0.00214033 0 0.000362589)
(0.00180845 -0.013903 0 -0.00208644 0 0.000277994)
)
;

boundaryField
{
    cavity
    {
        type            mySigma;
    }
    lid
    {
        type            zeroGradient;
    }
    frontAndBack
    {
        type            empty;
    }
}


// ************************************************************************* //
