/*--------------------------------*- C++ -*----------------------------------*\
| =========                 |                                                 |
| \\      /  F ield         | foam-extend: Open Source CFD                    |
|  \\    /   O peration     | Version:  3.0                                   |
|   \\  /    A nd           | Web:         http://www.extend-project.de       |
|    \\/     M anipulation  |                                                 |
\*---------------------------------------------------------------------------*/
FoamFile
{
    version     2.0;
    format      ascii;
    class       volScalarField;
    location    "6";
    object      p;
}
// * * * * * * * * * * * * * * * * * * * * * * * * * * * * * * * * * * * * * //

dimensions      [0 0 0 0 0 0 0];

internalField   nonuniform List<scalar> 
1920
(
-0.227783
-0.204985
-0.192533
-0.177858
-0.170474
-0.160583
-0.15617
-0.14932
-0.146716
-0.14186
-0.140318
-0.136746
-0.13572
-0.132887
-0.131916
-0.129346
-0.127989
-0.125215
-0.123001
-0.119519
-0.226812
-0.204112
-0.191713
-0.177101
-0.169747
-0.159898
-0.155504
-0.148684
-0.14609
-0.141255
-0.139719
-0.136163
-0.135142
-0.13232
-0.131354
-0.128794
-0.127443
-0.124681
-0.122476
-0.119009
-0.224862
-0.202357
-0.190065
-0.175578
-0.168287
-0.158524
-0.154168
-0.147406
-0.144835
-0.140042
-0.138519
-0.134994
-0.133981
-0.131184
-0.130226
-0.127688
-0.126348
-0.12361
-0.121424
-0.117987
-0.221957
-0.199743
-0.18761
-0.17331
-0.166114
-0.156476
-0.152177
-0.145502
-0.142964
-0.138232
-0.13673
-0.13325
-0.13225
-0.129489
-0.128543
-0.126039
-0.124716
-0.122013
-0.119855
-0.116463
-0.218092
-0.196265
-0.184343
-0.170293
-0.163222
-0.153752
-0.149528
-0.14297
-0.140476
-0.135827
-0.134351
-0.130931
-0.129949
-0.127236
-0.126307
-0.123846
-0.122546
-0.11989
-0.11777
-0.114436
-0.213304
-0.191956
-0.180297
-0.166554
-0.159639
-0.150377
-0.146245
-0.139831
-0.137391
-0.132845
-0.131401
-0.128056
-0.127095
-0.124442
-0.123533
-0.121126
-0.119854
-0.117257
-0.115183
-0.111923
-0.207592
-0.186815
-0.175468
-0.162094
-0.155363
-0.14635
-0.142329
-0.136087
-0.133713
-0.129288
-0.127883
-0.124628
-0.123693
-0.121111
-0.120226
-0.117884
-0.116646
-0.114118
-0.1121
-0.108927
-0.201002
-0.180885
-0.169898
-0.156948
-0.150432
-0.141704
-0.137811
-0.131766
-0.129468
-0.125183
-0.123823
-0.120671
-0.119766
-0.117266
-0.116409
-0.114141
-0.112942
-0.110495
-0.10854
-0.105468
-0.193539
-0.174169
-0.16359
-0.151121
-0.144847
-0.136444
-0.132695
-0.126875
-0.124662
-0.120537
-0.119227
-0.116192
-0.115321
-0.112914
-0.112089
-0.109905
-0.108751
-0.106394
-0.104512
-0.101554
-0.18526
-0.166719
-0.156593
-0.144657
-0.138651
-0.130607
-0.127018
-0.121448
-0.119329
-0.11538
-0.114126
-0.111221
-0.110387
-0.108083
-0.107293
-0.105202
-0.104098
-0.101842
-0.10004
-0.0972086
-0.176174
-0.158543
-0.148913
-0.137563
-0.131852
-0.124202
-0.12079
-0.115493
-0.113478
-0.109723
-0.108531
-0.105769
-0.104976
-0.102784
-0.102033
-0.100045
-0.098995
-0.0968495
-0.0951364
-0.0924437
-0.166349
-0.1497
-0.140608
-0.129891
-0.124498
-0.117275
-0.114053
-0.109051
-0.107149
-0.103603
-0.102477
-0.0998688
-0.0991198
-0.0970505
-0.0963414
-0.094464
-0.0934722
-0.0914463
-0.0898287
-0.0872861
-0.155796
-0.140204
-0.131688
-0.121651
-0.1166
-0.109836
-0.106819
-0.102134
-0.100353
-0.0970325
-0.0959783
-0.0935356
-0.0928342
-0.0908963
-0.0902323
-0.0884742
-0.0875454
-0.085648
-0.084133
-0.0817517
-0.144591
-0.13012
-0.122217
-0.112902
-0.108214
-0.101937
-0.099136
-0.0947882
-0.0931352
-0.0900532
-0.0890748
-0.0868076
-0.0861566
-0.0843579
-0.0837416
-0.0821097
-0.0812476
-0.0794865
-0.0780805
-0.0758703
-0.132751
-0.119466
-0.11221
-0.103658
-0.0993542
-0.0935908
-0.0910198
-0.0870283
-0.0855109
-0.0826815
-0.0817834
-0.079702
-0.0791045
-0.0774533
-0.0768876
-0.0753894
-0.074598
-0.0729812
-0.0716903
-0.069661
-0.120359
-0.108314
-0.101736
-0.0939813
-0.0900796
-0.084854
-0.082523
-0.078904
-0.0775282
-0.0749627
-0.0741484
-0.0722611
-0.0717194
-0.0702221
-0.0697091
-0.0683506
-0.067633
-0.066167
-0.0649965
-0.0631566
-0.107435
-0.0966838
-0.090812
-0.0838907
-0.0804082
-0.075744
-0.0736636
-0.0704335
-0.0692056
-0.0669159
-0.0661893
-0.0645049
-0.0640215
-0.0626851
-0.0622274
-0.0610149
-0.0603744
-0.0590658
-0.058021
-0.0563786
-0.0940685
-0.0846544
-0.0795133
-0.0734529
-0.0704037
-0.0663197
-0.0644981
-0.0616698
-0.0605947
-0.0585897
-0.0579535
-0.0564785
-0.0560552
-0.0548849
-0.0544841
-0.0534222
-0.0528614
-0.0517154
-0.0508005
-0.0493623
-0.0802814
-0.0722475
-0.0678602
-0.0626884
-0.0600864
-0.0566014
-0.055047
-0.0526335
-0.0517163
-0.0500054
-0.0494627
-0.0482041
-0.0478431
-0.0468445
-0.0465026
-0.0455964
-0.0451179
-0.0441398
-0.043359
-0.0421315
-0.0661681
-0.0595466
-0.0559306
-0.0516679
-0.0495233
-0.0466509
-0.0453699
-0.0433805
-0.0426246
-0.0412143
-0.0407671
-0.0397295
-0.039432
-0.0386087
-0.0383269
-0.0375798
-0.0371854
-0.0363791
-0.0357354
-0.0347235
-0.0517537
-0.0465752
-0.0437474
-0.0404136
-0.0387366
-0.0364903
-0.0354887
-0.0339331
-0.0333422
-0.0322394
-0.0318899
-0.0310786
-0.0308462
-0.0302024
-0.0299821
-0.0293978
-0.0290894
-0.0284586
-0.0279551
-0.0271635
-0.0371357
-0.03342
-0.0313911
-0.028999
-0.0277957
-0.026184
-0.0254654
-0.0243491
-0.0239254
-0.0231339
-0.0228833
-0.0223009
-0.0221343
-0.0216721
-0.0215141
-0.0210946
-0.0208732
-0.0204203
-0.0200589
-0.0194906
-0.0223405
-0.0201059
-0.0188861
-0.0174474
-0.0167241
-0.015755
-0.0153233
-0.0146521
-0.0143977
-0.0139218
-0.0137716
-0.0134214
-0.0133215
-0.0130435
-0.0129487
-0.0126963
-0.0125632
-0.0122905
-0.0120729
-0.0117307
-0.00746803
-0.00672168
-0.0063147
-0.005834
-0.00559274
-0.00526919
-0.00512549
-0.00490133
-0.00481689
-0.00465782
-0.00460813
-0.00449094
-0.00445795
-0.00436477
-0.00433327
-0.00424849
-0.00420393
-0.0041123
-0.00403921
-0.00392425
0.00745496
0.00670741
0.00629838
0.00581732
0.00557452
0.00524986
0.00510427
0.00487945
0.00479305
0.00463381
0.00458231
0.00446531
0.00443093
0.00433833
0.00430609
0.00422235
0.00417788
0.00408777
0.00401575
0.00390272
0.0223274
0.0200915
0.0188697
0.0174306
0.0167058
0.0157355
0.015302
0.0146302
0.0143738
0.0138978
0.0137457
0.0133957
0.0132945
0.0130171
0.0129215
0.0126701
0.0125371
0.012266
0.0120494
0.0117091
0.0371229
0.0334059
0.031375
0.0289824
0.0277777
0.0261648
0.0254444
0.0243274
0.0239017
0.02311
0.0228577
0.0222755
0.0221074
0.0216458
0.0214871
0.0210686
0.0208473
0.020396
0.0200356
0.0194692
0.0517406
0.0465608
0.043731
0.0403968
0.0387183
0.0364709
0.0354675
0.0339111
0.0333184
0.0322154
0.0318642
0.031053
0.0308192
0.030176
0.0299551
0.0293717
0.0290634
0.0284342
0.0279317
0.0271419
0.0661558
0.0595329
0.0559148
0.0516516
0.0495055
0.0466319
0.045349
0.043359
0.0426012
0.0411907
0.0407418
0.0397044
0.0394056
0.0385828
0.0383004
0.0375543
0.0371599
0.0363551
0.0357124
0.0347025
0.0802685
0.0722333
0.067844
0.0626717
0.0600682
0.056582
0.0550259
0.0526117
0.0516927
0.0499816
0.0494373
0.0481788
0.0478165
0.0468184
0.0464759
0.0455707
0.0450922
0.0441157
0.0433358
0.0421102
0.0940567
0.0846412
0.0794979
0.073437
0.0703862
0.0663011
0.0644777
0.0616486
0.0605718
0.0585665
0.0579287
0.0564538
0.0560293
0.0548596
0.0544582
0.0533972
0.0528366
0.051692
0.0507781
0.0493418
0.107423
0.0966698
0.090796
0.0838742
0.0803902
0.0757249
0.0736428
0.070412
0.0691825
0.0668925
0.0661643
0.06448
0.0639955
0.0626596
0.0622013
0.0609897
0.0603494
0.0590422
0.0579984
0.0563577
0.120348
0.108301
0.101721
0.0939658
0.0900625
0.0848358
0.0825031
0.0788834
0.0775059
0.0749402
0.0741244
0.0722373
0.0716944
0.0701976
0.0696841
0.0683265
0.0676091
0.0661444
0.0649748
0.0631367
0.132739
0.119452
0.112194
0.103641
0.0993366
0.093572
0.0909994
0.0870074
0.0854883
0.0826587
0.0817592
0.0796779
0.0790794
0.0774286
0.0768624
0.075365
0.0745739
0.0729583
0.0716684
0.0696408
0.144581
0.130108
0.122203
0.112887
0.108198
0.101919
0.0991168
0.0947684
0.0931138
0.0900316
0.0890518
0.0867847
0.0861326
0.0843344
0.0837176
0.0820866
0.0812247
0.0794649
0.0780598
0.0758512
0.155784
0.140191
0.131673
0.121635
0.116583
0.109818
0.106799
0.102114
0.100331
0.0970105
0.0959551
0.0935124
0.0928101
0.0908726
0.0902082
0.0884508
0.0875223
0.0856261
0.084112
0.0817323
0.16634
0.149689
0.140595
0.129876
0.124482
0.117258
0.114035
0.109032
0.107129
0.103583
0.102455
0.0998472
0.0990971
0.0970283
0.0963187
0.0944421
0.0934505
0.0914257
0.089809
0.0872679
0.176163
0.15853
0.148899
0.137548
0.131835
0.124185
0.120771
0.115473
0.113458
0.109702
0.108509
0.105747
0.104953
0.102762
0.102011
0.100023
0.0989731
0.0968287
0.0951165
0.0924252
0.185252
0.166709
0.156581
0.144644
0.138636
0.130591
0.127001
0.12143
0.11931
0.115361
0.114106
0.111201
0.110366
0.108062
0.107272
0.105182
0.104077
0.101822
0.100022
0.0971914
0.193528
0.174157
0.163576
0.151107
0.144831
0.136427
0.132677
0.126857
0.124643
0.120517
0.119206
0.116172
0.1153
0.112893
0.112067
0.109884
0.10873
0.106375
0.104493
0.101537
0.200995
0.180877
0.169888
0.156936
0.150418
0.14169
0.137795
0.13175
0.129451
0.125166
0.123804
0.120653
0.119747
0.117247
0.11639
0.114122
0.112924
0.110477
0.108523
0.105452
0.207582
0.186804
0.175455
0.16208
0.155349
0.146335
0.142312
0.13607
0.133695
0.12927
0.127864
0.124609
0.123674
0.121092
0.120207
0.117865
0.116627
0.1141
0.112083
0.108911
0.213299
0.191949
0.180288
0.166544
0.159627
0.150364
0.146231
0.139816
0.137376
0.132829
0.131385
0.12804
0.127079
0.124426
0.123516
0.121109
0.119838
0.117241
0.115167
0.111908
0.218083
0.196255
0.184332
0.17028
0.163209
0.153738
0.149513
0.142954
0.14046
0.135811
0.134334
0.130915
0.129932
0.127219
0.12629
0.123829
0.122529
0.119874
0.117754
0.114422
0.221954
0.199738
0.187603
0.173302
0.166104
0.156466
0.152165
0.14549
0.142951
0.13822
0.136717
0.133236
0.132236
0.129475
0.128529
0.126025
0.124701
0.121999
0.119842
0.11645
0.224853
0.202347
0.190055
0.175567
0.168276
0.158512
0.154155
0.147393
0.144821
0.140028
0.138506
0.13498
0.133967
0.13117
0.130212
0.127674
0.126334
0.123597
0.121411
0.117975
0.22681
0.204108
0.191709
0.177094
0.16974
0.159891
0.155496
0.148675
0.146081
0.141246
0.13971
0.136153
0.135131
0.13231
0.131343
0.128784
0.127432
0.12467
0.122465
0.119
0.227776
0.204978
0.192526
0.177849
0.170464
0.160573
0.15616
0.14931
0.146705
0.14185
0.140307
0.136736
0.13571
0.132877
0.131906
0.129336
0.127978
0.125205
0.12299
0.11951
0.227786
0.204987
0.192534
0.177857
0.170471
0.160579
0.156166
0.149316
0.14671
0.141855
0.140312
0.136741
0.135714
0.132881
0.13191
0.12934
0.127982
0.125208
0.122994
0.119513
0.226801
0.204101
0.191702
0.177089
0.169735
0.159887
0.155493
0.148672
0.146078
0.141244
0.139708
0.136152
0.135131
0.13231
0.131343
0.128784
0.127432
0.12467
0.122465
0.119
0.224865
0.202358
0.190065
0.175576
0.168285
0.158521
0.154164
0.147402
0.14483
0.140037
0.138514
0.134988
0.133975
0.131178
0.13022
0.127682
0.126342
0.123604
0.121418
0.117982
0.221946
0.199732
0.187599
0.173298
0.166102
0.156465
0.152165
0.145491
0.142952
0.138221
0.136719
0.133239
0.132239
0.129479
0.128533
0.126028
0.124706
0.122003
0.119845
0.116454
0.218096
0.196267
0.184344
0.170292
0.16322
0.15375
0.149525
0.142966
0.140472
0.135823
0.134346
0.130927
0.129944
0.127232
0.126302
0.123841
0.122541
0.119885
0.117765
0.114432
0.213293
0.191945
0.180285
0.166542
0.159627
0.150365
0.146233
0.13982
0.137381
0.132834
0.13139
0.128046
0.127086
0.124433
0.123524
0.121117
0.119846
0.117249
0.115175
0.111915
0.207596
0.186818
0.17547
0.162094
0.155363
0.146349
0.142327
0.136084
0.13371
0.129285
0.12788
0.124625
0.12369
0.121108
0.120223
0.11788
0.116643
0.114115
0.112097
0.108924
0.20099
0.180874
0.169887
0.156937
0.150421
0.141693
0.1378
0.131756
0.129458
0.125174
0.123814
0.120662
0.119757
0.117258
0.116401
0.114133
0.112935
0.110488
0.108534
0.105462
0.193544
0.174172
0.163592
0.151122
0.144847
0.136443
0.132694
0.126874
0.124661
0.120535
0.119225
0.116191
0.115319
0.112912
0.112087
0.109903
0.108749
0.106393
0.104511
0.101553
0.185249
0.166708
0.156582
0.144646
0.13864
0.130597
0.127009
0.121439
0.119321
0.115372
0.114119
0.111214
0.11038
0.108076
0.107287
0.105197
0.104092
0.101837
0.100036
0.0972045
0.17618
0.158547
0.148916
0.137565
0.131853
0.124203
0.120791
0.115493
0.113479
0.109723
0.108531
0.105769
0.104976
0.102784
0.102033
0.100045
0.0989953
0.0968499
0.095137
0.0924444
0.166337
0.14969
0.140598
0.129881
0.124488
0.117266
0.114044
0.109043
0.107142
0.103596
0.102471
0.099863
0.0991144
0.0970456
0.096337
0.0944601
0.0934687
0.0914432
0.089826
0.0872837
0.155802
0.140208
0.131692
0.121654
0.116603
0.109838
0.106821
0.102136
0.100355
0.0970338
0.0959798
0.093537
0.0928358
0.0908979
0.0902341
0.088476
0.0875474
0.0856501
0.0841353
0.081754
0.14458
0.13011
0.122208
0.112893
0.108206
0.101929
0.0991287
0.0947816
0.0931292
0.0900477
0.0890699
0.0868032
0.0861527
0.0843546
0.0837388
0.0821073
0.0812457
0.0794851
0.0780794
0.0758695
0.132757
0.119471
0.112215
0.103661
0.0993577
0.0935938
0.0910228
0.087031
0.0855137
0.0826841
0.0817862
0.0797048
0.0791075
0.0774563
0.0768908
0.0753927
0.0746015
0.0729848
0.0716939
0.0696647
0.120348
0.108304
0.101726
0.093973
0.090072
0.0848471
0.0825168
0.0788985
0.0775233
0.0749584
0.0741448
0.0722581
0.0717169
0.0702201
0.0697077
0.0683497
0.0676326
0.0661669
0.0649968
0.0631571
0.107442
0.0966894
0.0908173
0.0838952
0.0804126
0.075748
0.0736676
0.0704373
0.0692096
0.0669197
0.0661933
0.0645089
0.0640257
0.0626894
0.0622319
0.0610194
0.0603792
0.0590706
0.0580259
0.0563835
0.0940573
0.0846447
0.0795046
0.0734453
0.0703969
0.0663137
0.0644929
0.0616653
0.060591
0.0585865
0.057951
0.0564766
0.0560539
0.0548842
0.0544839
0.0534225
0.0528621
0.0517166
0.050802
0.049364
0.0802881
0.0722535
0.067866
0.0626936
0.0600915
0.0566062
0.0550519
0.0526382
0.0517213
0.0500103
0.0494678
0.0482092
0.0478484
0.0468499
0.0465082
0.0456021
0.0451237
0.0441457
0.0433649
0.0421374
0.066157
0.0595371
0.0559224
0.0516608
0.0495171
0.0466456
0.0453654
0.0433769
0.0426218
0.0412121
0.0407656
0.0397287
0.0394318
0.0386091
0.0383278
0.0375812
0.0371872
0.0363813
0.0357379
0.0347262
0.0517605
0.0465813
0.0437535
0.0404193
0.0387423
0.0364957
0.0354943
0.0339386
0.0333479
0.0322451
0.0318959
0.0310846
0.0308524
0.0302086
0.0299886
0.0294044
0.0290961
0.0284654
0.027962
0.0271703
0.0371246
0.0334106
0.0313832
0.0289922
0.02779
0.0261793
0.0254616
0.0243462
0.0239232
0.0231325
0.0228826
0.0223009
0.0221348
0.0216732
0.0215158
0.0210968
0.0208758
0.0204234
0.0200622
0.0194942
0.0223472
0.0201121
0.0188923
0.0174533
0.0167301
0.0157608
0.0153293
0.0146581
0.014404
0.0139281
0.0137781
0.013428
0.0133284
0.0130505
0.0129559
0.0127036
0.0125706
0.012298
0.0120805
0.0117383
0.00745682
0.00671232
0.00630683
0.00582746
0.00558734
0.00526484
0.00512206
0.00489879
0.00481516
0.00465687
0.0046079
0.00449141
0.00445906
0.0043665
0.00433556
0.00425131
0.00420721
0.00411596
0.00404323
0.00392846
-0.00744843
-0.00670129
-0.00629215
-0.00581133
-0.00556835
-0.0052438
-0.00509798
-0.00487318
-0.00478652
-0.00462722
-0.00457545
-0.00445835
-0.00442372
-0.00433098
-0.00429852
-0.00421466
-0.00417002
-0.00407982
-0.0040077
-0.00389468
-0.0223387
-0.020101
-0.0188776
-0.0174371
-0.0167111
-0.0157398
-0.0153053
-0.0146326
-0.0143754
-0.0138985
-0.0137457
-0.013395
-0.0132931
-0.0130151
-0.012919
-0.012667
-0.0125335
-0.012262
-0.0120451
-0.0117045
-0.0371166
-0.0334
-0.031369
-0.0289766
-0.0277716
-0.0261588
-0.0254382
-0.0243212
-0.0238952
-0.0231035
-0.0228508
-0.0222685
-0.0221002
-0.0216385
-0.0214795
-0.0210609
-0.0208394
-0.020388
-0.0200274
-0.0194611
-0.0517521
-0.0465705
-0.0437391
-0.0404035
-0.0387238
-0.0364753
-0.0354709
-0.0339137
-0.0333202
-0.0322163
-0.0318644
-0.0310525
-0.0308181
-0.0301742
-0.0299526
-0.0293688
-0.0290599
-0.0284303
-0.0279274
-0.0271374
-0.0661497
-0.0595273
-0.0559092
-0.0516461
-0.0494998
-0.0466263
-0.0453432
-0.0433532
-0.0425952
-0.0411846
-0.0407354
-0.0396979
-0.0393988
-0.0385759
-0.0382932
-0.0375469
-0.0371524
-0.0363474
-0.0357046
-0.0346946
-0.0802801
-0.0722433
-0.0678524
-0.0626788
-0.0600741
-0.0565869
-0.0550299
-0.0526148
-0.051695
-0.0499831
-0.0494381
-0.0481789
-0.047816
-0.0468172
-0.0464741
-0.0455683
-0.0450894
-0.0441124
-0.0433322
-0.0421062
-0.094051
-0.0846361
-0.0794928
-0.0734321
-0.0703811
-0.0662961
-0.0644726
-0.0616436
-0.0605665
-0.0585612
-0.0579232
-0.0564482
-0.0560235
-0.0548536
-0.0544519
-0.0533909
-0.05283
-0.0516853
-0.0507712
-0.0493348
-0.107435
-0.0966801
-0.0908049
-0.0838818
-0.0803967
-0.0757305
-0.0736475
-0.0704159
-0.0691857
-0.066895
-0.0661662
-0.0644812
-0.0639961
-0.0626596
-0.0622008
-0.0609886
-0.0603478
-0.0590402
-0.0579959
-0.056355
-0.120343
-0.108297
-0.101716
-0.0939616
-0.0900583
-0.0848318
-0.0824989
-0.0788794
-0.0775018
-0.0749361
-0.0741201
-0.0722329
-0.0716899
-0.070193
-0.0696793
-0.0683216
-0.067604
-0.0661392
-0.0649695
-0.0631313
-0.132751
-0.119463
-0.112204
-0.10365
-0.0993438
-0.0935785
-0.0910052
-0.0870124
-0.0854928
-0.0826625
-0.0817625
-0.0796806
-0.0790815
-0.0774302
-0.0768635
-0.0753657
-0.0745741
-0.0729581
-0.0716678
-0.0696399
-0.144576
-0.130104
-0.122199
-0.112884
-0.108195
-0.101916
-0.0991138
-0.0947657
-0.0931111
-0.0900289
-0.0890491
-0.086782
-0.0861299
-0.0843316
-0.0837147
-0.0820836
-0.0812216
-0.0794617
-0.0780565
-0.0758479
-0.155796
-0.140202
-0.131683
-0.121644
-0.116591
-0.109825
-0.106806
-0.10212
-0.100337
-0.0970159
-0.09596
-0.0935169
-0.0928142
-0.0908762
-0.0902114
-0.0884536
-0.0875247
-0.0856281
-0.0841137
-0.0817336
-0.166335
-0.149686
-0.140592
-0.129874
-0.12448
-0.117257
-0.114033
-0.109031
-0.107127
-0.103582
-0.102455
-0.0998463
-0.0990964
-0.0970275
-0.096318
-0.0944413
-0.0934497
-0.0914249
-0.0898081
-0.0872668
-0.176176
-0.158541
-0.148909
-0.137557
-0.131844
-0.124193
-0.120779
-0.115481
-0.113465
-0.109709
-0.108516
-0.105753
-0.104959
-0.102767
-0.102016
-0.100028
-0.0989778
-0.0968331
-0.0951206
-0.092429
-0.185248
-0.166706
-0.156578
-0.144642
-0.138635
-0.130591
-0.127001
-0.12143
-0.119311
-0.115362
-0.114107
-0.111202
-0.110367
-0.108063
-0.107273
-0.105183
-0.104079
-0.101824
-0.100023
-0.0971927
-0.193541
-0.174169
-0.163587
-0.151117
-0.144841
-0.136436
-0.132686
-0.126866
-0.124652
-0.120526
-0.119215
-0.11618
-0.115308
-0.1129
-0.112075
-0.109891
-0.108738
-0.106381
-0.1045
-0.101543
-0.200991
-0.180874
-0.169886
-0.156936
-0.150418
-0.141691
-0.137796
-0.131752
-0.129453
-0.125168
-0.123807
-0.120655
-0.11975
-0.11725
-0.116393
-0.114125
-0.112927
-0.11048
-0.108526
-0.105455
-0.207594
-0.186816
-0.175467
-0.162091
-0.155359
-0.146345
-0.142323
-0.13608
-0.133705
-0.12928
-0.127874
-0.124619
-0.123683
-0.121101
-0.120216
-0.117874
-0.116637
-0.114109
-0.112091
-0.108919
-0.213296
-0.191947
-0.180287
-0.166544
-0.159628
-0.150366
-0.146233
-0.139819
-0.13738
-0.132833
-0.131388
-0.128044
-0.127083
-0.12443
-0.123521
-0.121114
-0.119843
-0.117246
-0.115173
-0.111914
-0.218096
-0.196267
-0.184344
-0.170292
-0.16322
-0.15375
-0.149524
-0.142965
-0.140471
-0.135822
-0.134345
-0.130925
-0.129943
-0.12723
-0.1263
-0.12384
-0.12254
-0.119884
-0.117764
-0.114432
-0.22195
-0.199737
-0.187603
-0.173303
-0.166106
-0.156469
-0.152168
-0.145494
-0.142956
-0.138224
-0.136722
-0.133242
-0.132242
-0.129481
-0.128535
-0.126031
-0.124708
-0.122006
-0.119848
-0.116456
-0.224865
-0.202359
-0.190067
-0.175579
-0.168287
-0.158523
-0.154167
-0.147405
-0.144833
-0.14004
-0.138517
-0.134991
-0.133978
-0.131181
-0.130223
-0.127686
-0.126345
-0.123608
-0.121422
-0.117985
-0.226808
-0.204108
-0.191709
-0.177096
-0.169742
-0.159894
-0.1555
-0.148679
-0.146085
-0.141251
-0.139715
-0.136159
-0.135137
-0.132316
-0.13135
-0.128791
-0.127439
-0.124677
-0.122472
-0.119006
-0.227787
-0.204989
-0.192537
-0.177861
-0.170475
-0.160585
-0.156171
-0.149322
-0.146716
-0.141861
-0.140319
-0.136747
-0.135721
-0.132888
-0.131917
-0.129347
-0.127989
-0.125216
-0.123001
-0.11952
)
;

boundaryField
{
    out
    {
        type            implicitExtrapolation;
    }
    in
    {
        type            implicitExtrapolation;
    }
    frontAndBack
    {
        type            empty;
    }
}


// ************************************************************************* //
