/*--------------------------------*- C++ -*----------------------------------*\
| =========                 |                                                 |
| \\      /  F ield         | foam-extend: Open Source CFD                    |
|  \\    /   O peration     | Version:  3.0                                   |
|   \\  /    A nd           | Web:         http://www.extend-project.de       |
|    \\/     M anipulation  |                                                 |
\*---------------------------------------------------------------------------*/
FoamFile
{
    version     2.0;
    format      ascii;
    class       volSymmTensorField;
    location    "5";
    object      sigma;
}
// * * * * * * * * * * * * * * * * * * * * * * * * * * * * * * * * * * * * * //

dimensions      [0 0 0 0 0 0 0];

internalField   nonuniform List<symmTensor> 
672
(
(-0.1692442404 -0.009635285939 -1.281408403e-19 0.1703325432 -2.743246547e-20 -0.001088302789)
(-0.1550946793 -0.01152694377 -2.950019196e-19 0.1578645035 -1.580366791e-20 -0.002769824223)
(-0.1353170626 -0.01147910555 -1.934112594e-19 0.1395300126 -3.402751165e-21 -0.004212950012)
(-0.1148724481 -0.01066292098 -7.958549124e-20 0.1203297637 1.17269033e-21 -0.005457315558)
(-0.09555181803 -0.009566027123 -3.142716132e-19 0.1020499124 -3.014872055e-20 -0.006498094372)
(-0.07791915604 -0.008403372656 -3.036306734e-19 0.08522839843 -1.486751085e-19 -0.00730924239)
(-0.06216464127 -0.007270717792 -4.776113288e-19 0.06998176476 -1.545454419e-19 -0.007817123486)
(-0.0483512804 -0.006220150735 -5.953547611e-19 0.05630477246 -4.336152707e-19 -0.007953492069)
(-0.03655507797 -0.005274447322 -6.181044765e-19 0.04413199556 -2.879806916e-19 -0.007576917585)
(-0.02693326275 -0.004460632881 -3.420047081e-19 0.03350737632 -9.098945439e-21 -0.006574113573)
(-0.0197075447 -0.003797222655 -1.067963256e-19 0.02445290008 1.349458617e-19 -0.004745355383)
(-0.01526527144 -0.003283850783 -6.074783106e-20 0.01718414288 -2.105156369e-19 -0.001918871439)
(-0.1665165415 -0.03000548376 -1.04763441e-19 0.1675591417 2.087178524e-21 -0.001042600165)
(-0.1503923483 -0.03483827412 -2.776412977e-19 0.1530463936 5.810737459e-20 -0.002654045358)
(-0.1300537933 -0.03434362154 -2.232877989e-19 0.1340916831 1.444810205e-19 -0.004037889778)
(-0.1096480045 -0.03179294702 -4.480368417e-20 0.1148789709 -5.78855626e-20 -0.005230966437)
(-0.09061887331 -0.02854216034 -3.012064666e-19 0.09684784952 1.767973109e-20 -0.00622897621)
(-0.07336759897 -0.02518747651 -2.958371007e-19 0.08037450749 -2.637544237e-19 -0.007006908529)
(-0.05800807286 -0.02199313889 -5.753178817e-19 0.06550160831 -3.973236429e-19 -0.007493535452)
(-0.04455829813 -0.01910581068 -9.257246327e-19 0.05218235332 -6.042038894e-19 -0.007624055189)
(-0.03307234117 -0.01659008213 -4.960845059e-19 0.0403342435 -7.742054709e-20 -0.007261902329)
(-0.02368373511 -0.01452855336 -9.693428566e-20 0.02998354558 -1.136767155e-19 -0.006299810467)
(-0.01659719385 -0.01297936555 -3.495658333e-19 0.02114303788 -1.450476726e-19 -0.004545844026)
(-0.01218928156 -0.01198667702 -1.833406415e-19 0.01402662072 -1.734464444e-19 -0.001837339161)
(-0.1610625761 -0.04964780453 -3.120560653e-20 0.1620421053 -5.606109365e-20 -0.0009795291142)
(-0.1412875845 -0.05630578354 -2.102651338e-19 0.1437810839 1.300692971e-19 -0.002493499468)
(-0.1199278755 -0.05496758747 -2.766570813e-19 0.1237210874 2.525672546e-19 -0.003793211967)
(-0.09961240578 -0.0505988837 -2.190464555e-19 0.1045254047 6.687457792e-20 -0.004912998962)
(-0.08113648675 -0.04524833855 -3.530710183e-19 0.08698508467 4.068335335e-20 -0.005848597916)
(-0.06459812261 -0.03981090438 -7.056309843e-19 0.07117488419 -1.87723554e-19 -0.006576761579)
(-0.04996915704 -0.03468026949 -1.040034122e-18 0.05699911937 -6.267395241e-20 -0.007029962324)
(-0.03718309087 -0.03007487867 -9.584989215e-19 0.04433178215 -8.544676749e-20 -0.007148691284)
(-0.02625348912 -0.0260906752 -3.241858717e-19 0.03305760106 9.655760195e-21 -0.006804111944)
(-0.01726885619 -0.0228554583 -5.091629296e-19 0.02316715114 -2.701096426e-19 -0.005898294944)
(-0.01040217331 -0.02046163354 -3.657685799e-19 0.01465372002 -2.534223153e-19 -0.00425154671)
(-0.006009218642 -0.01899842133 -8.355580979e-20 0.007725048307 -1.884707685e-19 -0.001715829665)
(-0.1531064523 -0.06812061625 5.437688712e-20 0.1540062587 -5.525380841e-20 -0.000899806455)
(-0.1285037519 -0.07490223068 -2.103021469e-20 0.1307944202 1.558105866e-19 -0.002290668293)
(-0.1058485502 -0.07211883112 -1.850343287e-19 0.1093322663 2.555372149e-19 -0.003483716083)
(-0.08572291537 -0.0658080907 -2.059631873e-19 0.09023283851 1.68935113e-19 -0.004509923142)
(-0.0680491127 -0.05844345163 -2.563225399e-19 0.07341422439 -6.197476698e-20 -0.005365111696)
(-0.05251755659 -0.05109164547 -4.672204295e-19 0.05854600161 8.849943439e-20 -0.006028445018)
(-0.03890931732 -0.04421613532 -6.52010737e-19 0.04534673041 3.556320362e-19 -0.006437413085)
(-0.02704390768 -0.03807180193 -1.334959582e-18 0.03358324884 3.401758675e-19 -0.006539341158)
(-0.01688047642 -0.03277005586 -7.185208448e-19 0.02309625859 1.124531985e-19 -0.006215782162)
(-0.008446091379 -0.02846664063 -9.015707792e-19 0.01382701037 6.386862817e-19 -0.005380918993)
(-0.001870153203 -0.02527708518 -7.379564215e-19 0.005741679001 2.356198626e-19 -0.003871525798)
(0.002521452948 -0.02333568685 -2.042504055e-19 -0.00096277751 2.778663556e-19 -0.001558675438)
(-0.1429595375 -0.08505979592 1.897922775e-21 0.1437649968 1.331829865e-19 -0.0008054593143)
(-0.1130255804 -0.08987944939 7.428725201e-20 0.1150759127 2.160815948e-19 -0.00205033228)
(-0.08905087913 -0.08492070712 -1.680752977e-19 0.09216743015 3.01245196e-19 -0.003116551028)
(-0.06927987631 -0.07652520877 -3.053974827e-19 0.07331098376 1.340657108e-19 -0.004031107447)
(-0.05264016713 -0.06726047516 -4.281658051e-19 0.05743008955 -3.515985239e-20 -0.004789922419)
(-0.03835928983 -0.05820844528 -3.330608386e-19 0.0437344061 2.196553131e-19 -0.005375116271)
(-0.02600224819 -0.04982868924 -1.797657472e-19 0.03173255084 2.9307362e-19 -0.005730302644)
(-0.01525902165 -0.04236854588 -1.039865012e-18 0.02107005419 4.575456781e-19 -0.005811032544)
(-0.006026164793 -0.03593471954 -4.162253782e-19 0.01153767389 4.737903713e-19 -0.005511509093)
(0.001742295398 -0.03068929093 4.026050807e-19 0.00301823522 4.150920611e-19 -0.004760530618)
(0.007968501453 -0.02675670807 -7.520421952e-19 -0.004553522523 4.594954158e-19 -0.00341497893)
(0.01236953331 -0.0243202894 -2.407585301e-19 -0.01100018123 2.141820796e-19 -0.00136935208)
(-0.1309918287 -0.1002005402 1.059832116e-20 0.1316902976 1.684392824e-19 -0.0006984688711)
(-0.09599495125 -0.1008381263 1.140228065e-19 0.09777263484 2.892947611e-19 -0.001777683592)
(-0.07096241468 -0.09294000885 7.080716645e-20 0.0736622325 2.112251731e-19 -0.002699817814)
(-0.05178397572 -0.0823247216 -3.386158657e-19 0.05527135708 1.233327107e-19 -0.003487381351)
(-0.03638895515 -0.07129809904 -2.110749061e-19 0.04052540655 -1.665233968e-19 -0.004136451399)
(-0.02354294395 -0.06078870228 -2.564126052e-19 0.02817544637 2.018746663e-19 -0.004632502425)
(-0.01259600969 -0.05117323598 4.505680102e-19 0.017522282 -1.217895253e-20 -0.004926272311)
(-0.003109004226 -0.04264462387 -4.211267498e-19 0.00809156443 3.00916134e-20 -0.004982560205)
(0.005084515519 -0.03528507426 -9.749057793e-19 -0.0003743300565 8.41904058e-20 -0.004710185463)
(0.01210531261 -0.02924026614 -1.903451583e-19 -0.00805088393 4.516355606e-19 -0.004054428677)
(0.01792429024 -0.02462871746 8.397628904e-19 -0.01502898256 -2.609981935e-20 -0.002895307674)
(0.0223127778 -0.02167122337 -3.939549506e-19 -0.02115892011 -1.196769561e-20 -0.001153857689)
(-0.1175987986 -0.1133846721 5.969953361e-20 0.1181800227 9.902965589e-20 -0.0005812240937)
(-0.07858865115 -0.1077551673 1.171865975e-19 0.08006745886 2.649305063e-19 -0.001478807716)
(-0.05304749947 -0.09622181405 2.575424808e-19 0.05529045895 4.36031841e-20 -0.002242959486)
(-0.03477134248 -0.08328832523 -1.620727275e-19 0.03766267571 -1.529097793e-19 -0.002891333235)
(-0.02080777792 -0.07065886812 -7.012387936e-19 0.02422798065 -1.474417474e-19 -0.003420202727)
(-0.009518694226 -0.05894785087 -4.457114369e-19 0.01333739418 1.098811496e-19 -0.003818699955)
(-6.765220771e-05 -0.04837375359 -1.029718167e-19 0.004113089308 -4.109423056e-20 -0.004045437101)
(0.00809611889 -0.03902970005 8.252922868e-20 -0.00402088862 1.754457023e-19 -0.00407523027)
(0.01519486306 -0.03095253063 -1.315141097e-19 -0.01136186362 4.2515741e-19 -0.003832999443)
(0.02141822086 -0.02424889072 -2.991912763e-20 -0.01813640765 2.700312202e-19 -0.003281813209)
(0.02678481918 -0.01902112045 -4.465074262e-19 -0.0244577766 -2.333903153e-19 -0.002327042577)
(0.03114631117 -0.0155149471 -6.249393169e-20 -0.03022793583 4.584017552e-19 -0.0009183753383)
(-0.103167233 -0.1245589654 3.335714224e-20 0.1036234633 1.085619765e-19 -0.0004562303717)
(-0.0618951293 -0.1109708911 1.474649669e-19 0.06305532787 1.666770503e-19 -0.001160198568)
(-0.03664979189 -0.09527215463 1.422399595e-19 0.03840588784 7.475301825e-21 -0.001756095948)
(-0.01964654776 -0.07998549242 8.688230173e-21 0.02190300989 -1.205436e-19 -0.002256462128)
(-0.007276656044 -0.06592811965 -6.250116098e-19 0.009934489447 1.762122872e-19 -0.002657833402)
(0.002391368187 -0.0532658111 -7.021753863e-19 0.0005617898402 2.027757507e-19 -0.002953158027)
(0.01032760019 -0.04199605007 -7.610511965e-19 -0.007218098384 4.6361872e-19 -0.003109501807)
(0.01716309666 -0.03207441295 -9.274122903e-20 -0.01405102718 4.136064035e-19 -0.003112069488)
(0.02316256095 -0.02347479045 -2.24433433e-19 -0.02025964602 4.297346083e-19 -0.002902914928)
(0.02857112815 -0.01624519267 -2.223746002e-19 -0.02610760642 7.002330921e-19 -0.002463521733)
(0.03344470877 -0.01046270096 5.27602115e-19 -0.03171873788 5.1423933e-19 -0.001725970895)
(0.03771107406 -0.006374197217 -1.765369984e-19 -0.03704141466 2.099201391e-19 -0.0006696594005)
(-0.08804630258 -0.1337614848 -4.719947807e-20 0.08837245952 1.428764106e-19 -0.0003261569469)
(-0.04680254857 -0.1111358249 1.575269146e-19 0.04763126626 9.862432593e-20 -0.0008287176908)
(-0.02284897935 -0.09098964427 1.860159508e-19 0.02409887591 -5.450472414e-20 -0.001249896553)
(-0.007529796386 -0.07340080509 -1.092043527e-19 0.00912679525 1.563682864e-19 -0.001596998865)
(0.003109921863 -0.05810211728 1.08737952e-19 -0.001243046928 2.143739335e-19 -0.001866874934)
(0.01114421052 -0.0447182364 -5.433681043e-19 -0.009087855134 3.63777796e-19 -0.002056355383)
(0.01760454098 -0.03298298538 -2.847633931e-19 -0.0154632334 4.029052117e-19 -0.002141307583)
(0.02315827228 -0.02268867343 -3.043821402e-19 -0.02104088321 5.769875827e-19 -0.002117389073)
(0.02809270291 -0.01373570114 4.127846781e-19 -0.02614835618 9.406558657e-19 -0.00194434673)
(0.03268903974 -0.006099665114 7.802106499e-19 -0.0310670701 3.538280243e-19 -0.001621969635)
(0.03703438119 0.000173104141 3.375295262e-19 -0.03592484519 -2.394716878e-19 -0.001109535994)
(0.04113597966 0.004858590806 3.479479986e-19 -0.04072041332 -7.584154537e-20 -0.0004155663354)
(-0.07252316992 -0.1410996742 -1.220321478e-19 0.07271687948 1.166298162e-19 -0.0001937095612)
(-0.03391155499 -0.109124073 -1.906409098e-20 0.03440285415 5.094142328e-20 -0.0004912991524)
(-0.01234941065 -0.08455400634 -2.499938782e-19 0.0130845292 1.33230397e-19 -0.0007351185492)
(0.0008608451673 -0.06481547721 -1.076618519e-19 6.638942512e-05 2.947454502e-19 -0.0009272345924)
(0.009658778653 -0.04847096361 4.468353503e-20 -0.00859390919 3.598976972e-19 -0.001064869463)
(0.01608558162 -0.03456526974 3.14385804e-19 -0.01493694246 2.835189978e-19 -0.001148639162)
(0.02115057834 -0.02255132858 -1.129719806e-19 -0.01998723807 1.842628375e-19 -0.001163340272)
(0.0255063861 -0.01204730577 1.50064469e-19 -0.0243916164 5.708814686e-19 -0.001114769698)
(0.02943981854 -0.00287464027 8.920296368e-19 -0.0284593835 3.379757128e-19 -0.0009804350436)
(0.03324245452 0.005072019625 9.112563364e-19 -0.0324647132 -4.613651917e-19 -0.0007777413177)
(0.0370199466 0.01178171545 -8.52925765e-20 -0.03652711936 -2.6805414e-19 -0.0004928272442)
(0.04084970798 0.01706820725 2.165066749e-19 -0.04068756943 -8.968345046e-20 -0.0001621385501)
(-0.05681016556 -0.1467231697 -7.841548322e-20 0.05687164465 4.381262781e-20 -6.147908389e-05)
(-0.02348183069 -0.1059233173 -6.683569753e-20 0.0236364873 4.1411966e-20 -0.000154656614)
(-0.005411625446 -0.0772842928 -1.189233595e-19 0.005633817518 1.573487876e-19 -0.0002221920716)
(0.005282169211 -0.05565580863 2.296372138e-20 -0.00502112235 2.211138526e-19 -0.0002610468606)
(0.01215019413 -0.03846674754 -9.399225019e-20 -0.01188133428 3.577443942e-19 -0.0002688598491)
(0.0170194938 -0.02420226785 3.704830585e-19 -0.01676964064 2.272090701e-19 -0.000249853156)
(0.02079075058 -0.01204524376 1.218208359e-19 -0.02059308299 1.951994578e-19 -0.0001976675945)
(0.02404848043 -0.001445876139 3.955766987e-19 -0.02392085835 2.657241988e-19 -0.0001276220795)
(0.02705489587 0.007850873182 4.585110115e-19 -0.02702028433 -1.030928462e-19 -3.461154156e-05)
(0.03008596155 0.0160319066 7.699492811e-20 -0.03013366504 -3.053513289e-19 4.770349196e-05)
(0.03325266879 0.02312170373 -1.285213458e-19 -0.03336013003 -4.690739388e-20 0.0001074612388)
(0.03668992194 0.02898745097 -7.667254312e-21 -0.03677290697 -3.276104297e-20 8.298502572e-05)
(-0.04104047758 -0.1507931099 8.638204362e-20 0.04097250176 -3.252860443e-20 6.797581962e-05)
(-0.01541866723 -0.1025135039 -4.831479131e-20 0.01524393924 -8.43777781e-21 0.0001747279852)
(-0.001835252811 -0.07048263427 -1.948789994e-19 0.00155636394 1.141853458e-19 0.0002788888714)
(0.00598398035 -0.04732678631 -2.340786e-19 -0.006372355881 2.2310165e-19 0.0003883755307)
(0.01085614304 -0.02949810899 -1.372075884e-19 -0.01136123791 3.438206309e-19 0.000505094874)
(0.0142267238 -0.01500017716 1.813107351e-19 -0.0148482757 2.094392731e-19 0.000621551895)
(0.01680804355 -0.002783851663 -2.48243233e-19 -0.01754360643 3.095734665e-19 0.0007355628841)
(0.01906701097 0.007845709577 5.521372696e-19 -0.01989022393 2.639278875e-19 0.0008232129633)
(0.02121911619 0.0172097899 3.538906131e-19 -0.02209214355 -1.402333135e-19 0.000873027366)
(0.02349896503 0.02556753125 -8.916517781e-20 -0.02433584267 -3.196620683e-19 0.0008368776448)
(0.02601009111 0.03297096814 -6.591552212e-19 -0.02668900074 -3.838628069e-20 0.0006789096311)
(0.02892115215 0.0393533102 1.623111887e-19 -0.02923631264 -2.106771305e-21 0.0003151604859)
(-0.02527540247 -0.1534547127 6.617475193e-20 0.02508294697 -2.581783441e-20 0.0001924555013)
(-0.009300017207 -0.09974918709 -4.114572242e-20 0.008808909801 -8.340440198e-21 0.0004911074053)
(-0.0009939974952 -0.06528207679 -1.692440745e-19 0.0002347744607 9.585562699e-20 0.0007592230345)
(0.003671685063 -0.04104967957 -1.290205733e-19 -0.004680936144 2.029726942e-19 0.001009251082)
(0.006503121089 -0.02278870636 -1.200216018e-22 -0.007745740057 2.900097232e-19 0.001242618969)
(0.008429139824 -0.008149667257 5.843004938e-20 -0.00987809022 2.530961888e-19 0.001448950397)
(0.009909237031 0.004086522715 3.769792798e-20 -0.01152723425 2.973028316e-19 0.001617997222)
(0.01125201249 0.01472169662 2.780798386e-19 -0.01297042907 1.561059389e-19 0.001718416573)
(0.01260698753 0.02412651151 -5.232140759e-20 -0.01433030654 -8.9536809e-20 0.001723319005)
(0.01414529095 0.032615666 -1.708687838e-19 -0.01571768466 -1.962287351e-19 0.001572393704)
(0.01595408805 0.04026002457 -5.250618123e-19 -0.01716223333 -4.910564766e-20 0.001208145275)
(0.01820832888 0.04706939344 -4.153962205e-20 -0.01873665561 -2.259657332e-20 0.0005283267338)
(-0.009520381902 -0.1548128942 6.196686456e-20 0.009210535776 -9.458807405e-21 0.0003098461261)
(-0.004441788976 -0.09825757068 -2.559361446e-20 0.003652585613 1.10910043e-20 0.0007892033623)
(-0.001919859229 -0.06251470143 -1.65305229e-19 0.0007091110396 8.051804036e-20 0.001210748189)
(-0.0005837148528 -0.03772147654 -2.14403866e-20 -0.001007334664 1.676946026e-19 0.001591049516)
(0.000181888905 -0.01923745983 -3.462117142e-20 -0.00211292296 2.519122386e-19 0.001931034055)
(0.0007011047426 -0.004526010592 4.455001262e-20 -0.002919042981 2.561946963e-19 0.002217938238)
(0.001138493173 0.007722177863 5.900474788e-20 -0.003572577555 2.711065513e-19 0.002434084383)
(0.00161727231 0.01836725386 -3.277012313e-20 -0.004159329579 1.650773748e-19 0.002542057269)
(0.002207804381 0.02780747256 -1.536029094e-19 -0.004708851746 -1.641540149e-20 0.002501047365)
(0.003001663861 0.03639033589 -2.991757829e-19 -0.005242770961 -1.169950112e-19 0.0022411071)
(0.004064287175 0.04419212883 -3.524110709e-19 -0.005750201103 -4.674954206e-20 0.001685913929)
(0.005541964799 0.05128876624 -1.101848045e-19 -0.006261019647 -3.28983527e-20 0.0007190548476)
(0.006252795389 -0.1549168083 5.987064036e-20 -0.006671356444 7.683362129e-21 0.0004185610543)
(7.9504933e-06 -0.09836481749 -2.978387455e-21 -0.001072781191 3.337359132e-20 0.001064830697)
(-0.003425212301 -0.06261541462 -1.426720894e-19 0.001798181503 6.450026403e-20 0.001627030798)
(-0.005476108247 -0.03781152516 6.208472662e-20 0.003350758853 1.354247824e-19 0.002125349395)
(-0.006782385728 -0.01931462353 9.95070332e-21 0.004222186875 2.223507384e-19 0.002560198852)
(-0.007655789085 -0.004586786875 3.877107956e-20 0.004738851228 2.405796817e-19 0.002916937857)
(-0.008241735548 0.007682216825 2.467815336e-20 0.005070535054 2.773303563e-19 0.003171200494)
(-0.008612919797 0.01835555831 -1.203614438e-19 0.005331935493 2.005604598e-19 0.003280984304)
(-0.00878330254 0.02783375485 -3.12563432e-19 0.005590041611 3.04620752e-20 0.003193260929)
(-0.008748825538 0.03647026559 -3.806881682e-19 0.005917509184 -6.731924947e-20 0.002831316354)
(-0.008466888184 0.04433655134 -2.367813708e-19 0.00636370012 -1.381540915e-20 0.002103188063)
(-0.007850101471 0.05155905149 -1.710228127e-19 0.006966840335 -5.331455082e-20 0.0008832611363)
(0.02207896997 -0.1537530074 6.99603564e-20 -0.02259610937 1.903088297e-20 0.0005171393976)
(0.004954913623 -0.1000582106 3.083991266e-20 -0.006269339737 4.484920407e-20 0.001314426114)
(-0.004250248028 -0.06557224532 -7.857685151e-20 0.00224751668 5.921798758e-20 0.002002731348)
(-0.009621294172 -0.04130860382 9.496154238e-20 0.007015963367 1.037393279e-19 0.002605330804)
(-0.01298599777 -0.02300983914 1.164151753e-19 0.009863892384 2.00347693e-19 0.003122105384)
(-0.01526267735 -0.008323068096 6.105502157e-20 0.01172559428 2.102510503e-19 0.003537083069)
(-0.0168930685 0.003973328641 1.415030333e-19 0.01307304361 3.004316051e-19 0.003820024887)
(-0.01813890644 0.01468984581 -3.627062797e-19 0.01421304021 2.327459609e-19 0.003925866229)
(-0.01909668695 0.0242038185 -3.8496886e-19 0.01530545174 3.850241265e-20 0.003791235209)
(-0.01985008265 0.0328470464 -2.882345478e-19 0.01651451061 -2.108103885e-20 0.003335572033)
(-0.02037768837 0.04067637478 -1.870645236e-19 0.01792292424 6.715204873e-20 0.002454764134)
(-0.0206702817 0.04783869543 -3.525871657e-19 0.01965129022 -8.879164588e-20 0.001018991476)
(0.03797364317 -0.1512479421 7.817593257e-20 -0.0385783559 1.553642456e-20 0.0006047127243)
(0.01123968268 -0.102988379 7.474008185e-20 -0.01277535068 2.57602195e-20 0.001535668006)
(-0.003218061372 -0.07092823624 9.240177998e-20 0.0008836964293 7.915025837e-20 0.002334364943)
(-0.01172355944 -0.04772250767 3.650071319e-21 0.008696971464 7.54930427e-20 0.003026587972)
(-0.01711397142 -0.02983325811 2.057669146e-19 0.01350229524 1.790872703e-19 0.003611676182)
(-0.02082774415 -0.01525971072 -4.191393469e-20 0.01675490052 1.879022877e-19 0.00407284363)
(-0.02356214103 -0.002949223605 -7.171712216e-21 0.01918731318 2.933785892e-19 0.004374827857)
(-0.025744106 0.007805644012 -4.320908018e-19 0.02127308691 2.122277375e-19 0.004471019082)
(-0.02754216428 0.01733613739 -1.780184692e-19 0.02325253461 9.602578561e-20 0.004289629673)
(-0.02911737238 0.0259267297 -4.307192066e-19 0.02536813988 1.120429643e-19 0.003749232505)
(-0.03046368066 0.03361225793 -2.843648514e-19 0.02772654744 9.858392414e-20 0.002737133214)
(-0.03165887891 0.04052155998 -3.252633188e-19 0.03053424923 -1.193958955e-19 0.001124629677)
(0.05390884622 -0.1472810375 -3.895031095e-20 -0.05458940934 -5.455077249e-20 0.0006805631247)
(0.01952569572 -0.1065115161 1.419973963e-19 -0.02125260582 -4.38497865e-20 0.001726910099)
(0.0006196330732 -0.07783488156 2.256867075e-19 -0.003239254477 5.502764101e-20 0.002619621404)
(-0.01073098881 -0.05614050253 1.558044213e-19 0.007344566165 7.19611649e-20 0.003386422648)
(-0.01809379323 -0.03887123471 2.251818983e-19 0.01406768798 1.041861413e-19 0.004026105249)
(-0.02329284268 -0.02450846772 8.202376003e-20 0.01877126068 -1.857916719e-20 0.004521581995)
(-0.02721727623 -0.01223145728 5.818814605e-19 0.02238384051 2.055788717e-19 0.004833435713)
(-0.03042117288 -0.001476235844 -4.840231706e-20 0.02550621939 4.162793868e-19 0.004914953486)
(-0.03312903721 0.008022939726 -1.90998981e-19 0.02844116637 1.983363714e-19 0.004687870839)
(-0.03556253642 0.01648167844 -7.813868641e-20 0.03148989449 2.259527185e-19 0.004072641926)
(-0.03772598124 0.02390936123 -5.519351123e-20 0.0347745465 3.038622074e-19 0.002951434741)
(-0.03977635681 0.03038632543 -3.614886158e-19 0.03857508953 -8.059108499e-20 0.001201267282)
(0.06979536155 -0.1417028488 -9.601750301e-20 -0.07053987922 -1.144501745e-19 0.000744517669)
(0.03020854958 -0.1097658732 1.270318265e-19 -0.03209621272 -1.379156474e-19 0.001887663143)
(0.007863180161 -0.08515092806 2.834702534e-19 -0.01072109781 2.039657611e-20 0.002857917645)
(-0.005964005833 -0.06533318128 1.524946923e-19 0.002279625613 8.935035906e-20 0.00368438022)
(-0.01522474184 -0.0488928072 2.747956686e-20 0.01085944471 4.938563257e-20 0.004365297135)
(-0.0219610295 -0.03487312354 1.580118433e-20 0.01707730504 -2.025566679e-19 0.004883724458)
(-0.0271744068 -0.02272414466 5.41817221e-19 0.02197747976 -9.213085126e-20 0.005196927045)
(-0.03149802396 -0.01205055294 2.856298374e-19 0.02623864133 3.439317292e-19 0.00525938263)
(-0.03519096807 -0.002663472078 -6.096366212e-20 0.03020278384 1.370981457e-20 0.004988184231)
(-0.03851230292 0.005569871293 4.804828712e-19 0.03420414817 -1.46375497e-19 0.004308154745)
(-0.0414670388 0.01262837248 4.182799177e-19 0.03836748787 4.737811521e-19 0.003099550931)
(-0.04426029024 0.0185106653 -9.109377415e-20 0.04301075701 1.193395733e-19 0.001249533233)
(0.08547323093 -0.1343611875 4.372909526e-20 -0.08626979149 -8.028841853e-20 0.0007965605579)
(0.04335537524 -0.1117749163 1.40894413e-19 -0.04537343573 -2.173518145e-19 0.002018060496)
(0.01868468966 -0.09157517473 4.396476393e-19 -0.02173442564 -3.845110821e-20 0.003049735973)
(0.002798247448 -0.07389529733 2.053187414e-19 -0.006719787632 9.383208669e-20 0.003921540184)
(-0.008264415221 -0.05848826351 8.263351921e-20 0.00363321969 -8.598537676e-21 0.004631195531)
(-0.0165808112 -0.04498058981 -2.441118221e-20 0.01141850248 -2.531170429e-19 0.005162308725)
(-0.0231782242 -0.03310422706 3.325591467e-19 0.0177085814 -4.927160825e-19 0.005469642806)
(-0.02871506542 -0.02264123133 4.067886653e-19 0.0232050854 9.498041485e-20 0.005509980025)
(-0.03346062892 -0.01348339198 -1.512774462e-20 0.02826315818 4.358300389e-19 0.005197470743)
(-0.03768435106 -0.005586121607 -1.812667275e-19 0.03322105945 -1.781968241e-19 0.004463291608)
(-0.04138444324 0.001000456385 5.476684888e-19 0.03819595787 -1.825171582e-19 0.003188485367)
(-0.04478730737 0.006183335562 -3.301746669e-19 0.04351392654 1.065925446e-19 0.001273380826)
(0.1007096429 -0.1251261322 1.06244279e-20 -0.1015467176 -1.510198341e-19 0.0008370747007)
(0.05868240212 -0.1115640056 1.280477911e-19 -0.06080150278 -2.565433209e-19 0.002119100664)
(0.03279730675 -0.09579832876 2.436111062e-19 -0.0359941479 -2.639210036e-19 0.003196841152)
(0.0152849003 -0.0804085519 2.355520647e-19 -0.01938552394 6.20731205e-20 0.004100623647)
(0.002539303732 -0.06623234373 -2.624722027e-19 -0.007366975341 5.579029184e-20 0.004827671609)
(-0.00737508065 -0.05344073561 -8.873621859e-20 0.002012623318 -7.672647016e-20 0.005362457333)
(-0.01542707336 -0.04203032651 -3.451096222e-19 0.009769109275 -5.397097437e-19 0.005657964082)
(-0.02224802488 -0.03195131929 3.239131166e-19 0.01657387044 -5.288817451e-19 0.005674154443)
(-0.02809470208 -0.02317271513 6.256804033e-19 0.02277100723 -1.382417814e-19 0.005323694849)
(-0.03321951291 -0.01573442408 6.468374036e-19 0.02867384813 3.603204269e-19 0.004545664786)
(-0.03760245074 -0.009713389138 -3.118838309e-19 0.03437831388 3.478302778e-19 0.003224136861)
(-0.04145000105 -0.005296831919 2.798330953e-19 0.04017484856 1.229038131e-19 0.001275152497)
(0.1152085885 -0.113916935 -3.82664269e-20 -0.1160751764 -2.26009842e-19 0.0008665879646)
(0.07557230753 -0.1082791481 1.046223861e-19 -0.07776456753 -2.551183852e-19 0.002192260008)
(0.04947558581 -0.09665747346 -1.14540882e-20 -0.05277737455 -3.768955575e-19 0.003301788746)
(0.03075385767 -0.08360683375 1.143265458e-19 -0.0349793202 -3.285197813e-19 0.004225462526)
(0.01646699746 -0.07084926297 3.832538109e-19 -0.02142705116 1.929286068e-19 0.004960053696)
(0.004974267573 -0.0590071589 1.464119051e-19 -0.01046540702 2.585570403e-19 0.005491139443)
(-0.004561711534 -0.04829872181 1.255046166e-19 -0.001208876869 7.861478974e-20 0.005770588403)
(-0.01269912032 -0.03881658516 4.644692542e-19 0.006936968755 -3.707488498e-19 0.005762151568)
(-0.01966161307 -0.03059500776 6.749315592e-19 0.01428334694 3.830869274e-20 0.005378266134)
(-0.02566101756 -0.02374369631 6.783512726e-19 0.02109420836 1.570674606e-19 0.004566809202)
(-0.0306520737 -0.01835691801 9.607447326e-19 0.02743555723 -4.229648285e-20 0.003216516465)
(-0.03478541971 -0.01470839804 2.00664207e-19 0.03352536594 4.735945132e-19 0.001260053769)
(0.1286248482 -0.1007230703 -8.781533671e-21 -0.1295106674 -1.646864477e-19 0.0008858191829)
(0.09312985147 -0.1012927699 1.52779855e-20 -0.09536930945 -2.831480721e-19 0.002239457978)
(0.06762640784 -0.09327434303 -1.236107204e-19 -0.07099418741 -4.334957482e-19 0.003367779576)
(0.04806721551 -0.08252402211 4.292992135e-20 -0.05236789968 -5.634611766e-19 0.004300684166)
(0.03240298532 -0.07135936116 6.692561007e-19 -0.03743752209 -3.783760058e-19 0.005034536766)
(0.01939966417 -0.06071772699 5.082436603e-19 -0.02495582429 2.214734483e-19 0.005556160118)
(0.008404746858 -0.05097534236 5.398160769e-19 -0.01422158287 8.405027849e-20 0.005816836011)
(-0.001032673312 -0.04232848188 5.312457539e-19 -0.004751763968 -1.830458004e-19 0.005784437279)
(-0.009087824259 -0.034858645 1.429606118e-18 0.003715741097 -3.832784736e-19 0.005372083162)
(-0.01591268796 -0.02872308345 1.022199438e-18 0.01137581701 1.924316798e-19 0.004536870942)
(-0.02143270167 -0.02402166509 -5.469756996e-19 0.01825946107 -3.610662592e-19 0.003173240602)
(-0.02570590159 -0.02109230496 1.967338658e-19 0.02447480553 -1.094965705e-20 0.00123109607)
(0.140588751 -0.08561995487 2.295200599e-20 -0.1414843547 2.054728553e-20 0.0008956037221)
(0.1102698165 -0.09028594641 -1.533615386e-19 -0.1125327052 -1.485519896e-19 0.002262888684)
(0.08590172777 -0.08516340984 -3.021117161e-19 -0.08930015472 -3.747676619e-19 0.003398426946)
(0.06581128861 -0.07661007265 1.265795844e-19 -0.07014273404 -4.160620564e-19 0.004331445431)
(0.04895491639 -0.06719520046 2.585310557e-19 -0.05401287687 -9.066208555e-19 0.005057960476)
(0.03456427251 -0.05800751 7.434438951e-19 -0.04013035049 -3.35328849e-19 0.005566077982)
(0.02220051988 -0.0495046307 2.234432881e-20 -0.02800745318 -4.115769843e-19 0.005806933301)
(0.01153930357 -0.0419394694 7.643169225e-19 -0.01729186748 -3.372178949e-19 0.005752563906)
(0.002462976245 -0.03541987711 4.725148192e-19 -0.007780435429 -7.175728921e-19 0.005317459184)
(-0.005110449585 -0.03012519285 -7.221031658e-19 0.0006426964879 -8.239721859e-19 0.004467753097)
(-0.01107950436 -0.02615259243 -7.389741936e-19 0.007975379391 -3.486174352e-19 0.003104124969)
(-0.01539081632 -0.02386447799 -1.292084526e-20 0.01419784131 -4.059826639e-19 0.001192975009)
(0.1507306307 -0.06877753069 2.181797999e-20 -0.1516273794 1.621669947e-19 0.0008967486783)
(0.1258271315 -0.07529750186 -1.582685593e-19 -0.1280918721 -1.851480426e-20 0.002264740555)
(0.1028409245 -0.07229695271 -9.854254999e-20 -0.1062382478 -1.328590463e-19 0.003397323248)
(0.0824484494 -0.06580117585 -4.544867668e-20 -0.08677129041 -3.769183033e-19 0.004322841011)
(0.0646050734 -0.05827228522 2.187675922e-20 -0.0696420944 -6.183280261e-19 0.005037021007)
(0.04900875516 -0.05077892696 1.750712643e-19 -0.05453797151 -8.341943962e-19 0.005529216349)
(0.03543542423 -0.04377977476 3.928391166e-20 -0.04118617268 -7.762236045e-19 0.005750748444)
(0.02368884396 -0.03753496835 4.028903545e-19 -0.02936646386 -3.716289696e-19 0.005677619906)
(0.01370908836 -0.03215574035 -6.105689291e-19 -0.01893518783 -4.832221733e-19 0.005226099474)
(0.005485098261 -0.02781587191 -9.955272546e-19 -0.00985576416 -5.216643829e-19 0.004370665899)
(-0.0008553529884 -0.0245994112 -2.626727024e-19 -0.002162826892 -5.644895582e-19 0.003018179881)
(-0.005135098644 -0.02283848099 9.812451429e-20 0.003985219302 1.828407849e-20 0.001149879342)
(0.1587104813 -0.05045823347 -5.729911872e-20 -0.1596006202 9.800547257e-20 0.0008901388557)
(0.1386771892 -0.05673379912 -2.902280426e-19 -0.1409244487 -1.095350414e-20 0.002247259416)
(0.1170263772 -0.05511935807 -3.200023277e-19 -0.120394449 -1.452991939e-19 0.003368071769)
(0.09648284798 -0.0505356397 -2.578844433e-19 -0.1007627234 -2.831025552e-19 0.004279875435)
(0.07787448116 -0.04500502263 7.456396647e-21 -0.08285264936 -2.805219985e-19 0.004978168194)
(0.06130846295 -0.03941685599 -1.933095246e-19 -0.06676187182 -5.433181165e-19 0.005453408869)
(0.04674947006 -0.03415609508 -1.211461652e-19 -0.05240679254 -5.211770268e-19 0.005657322475)
(0.03411481647 -0.02944339787 5.342489965e-19 -0.0396842471 -6.811373698e-19 0.005569430629)
(0.02339512772 -0.02537163142 -5.3380552e-19 -0.02850304762 -4.029586577e-19 0.005107919896)