/*--------------------------------*- C++ -*----------------------------------*\
| =========                 |                                                 |
| \\      /  F ield         | foam-extend: Open Source CFD                    |
|  \\    /   O peration     | Version:  3.0                                   |
|   \\  /    A nd           | Web:         http://www.extend-project.de       |
|    \\/     M anipulation  |                                                 |
\*---------------------------------------------------------------------------*/
FoamFile
{
    version     2.0;
    format      ascii;
    class       volScalarField;
    location    "0.8";
    object      p;
}
// * * * * * * * * * * * * * * * * * * * * * * * * * * * * * * * * * * * * * //

dimensions      [0 0 0 0 0 0 0];

internalField   nonuniform List<scalar> 
300
(
-1.1493e+08
1.5968e+08
-4.24038e+07
2.95045e+07
8.45778e+07
1.00397e+07
-8.92932e+06
3.11749e+06
-2.75506e+06
-751394
9.09615e+06
3.57026e+06
-1.10216e+06
-8.35758e+06
1.06848e+07
-4.03516e+06
4.63665e+06
-1.2372e+06
1.29915e+06
305760
6.44934e+06
-9.48304e+06
-6.03381e+06
9.33622e+06
-1.15586e+07
4.36077e+06
-5.60158e+06
1.48507e+06
-1.58335e+06
-427217
1.67105e+07
4.82222e+06
1.83534e+06
-2.09124e+06
3.06346e+06
-1.21978e+06
1.50459e+06
-402417
456247
123425
-1.67903e+07
-8.12489e+06
-5.48573e+06
1.57558e+06
-4.70569e+06
1.33119e+06
-2.17167e+06
486560
-643643
-207383
9.97001e+06
4.01399e+06
2.10951e+06
30295.9
1.24229e+06
-260212
554253
-107066
169519
52337.4
-1.0035e+07
-5.45778e+06
-3.66279e+06
-337876
-2.09717e+06
250619
-895773
115245
-270182
-106121
5.95827e+06
2.90388e+06
1.68668e+06
508331
668396
41481.3
246776
-4990.86
72275.1
28166
-5.81439e+06
-3.44311e+06
-2.27012e+06
-650993
-1.03879e+06
-61694.3
-404061
-1155.76
-121883
-58286.9
3.56024e+06
1.9467e+06
1.16991e+06
489395
404982
103918
130823
22124.7
36778.1
18269.7
-3.35413e+06
-2.10787e+06
-1.36165e+06
-547398
-552563
-116334
-198153
-27573.4
-59403.1
-33468
2.11685e+06
1.24725e+06
756212
363113
251252
92820.5
76065.5
23364.8
21030.8
12348.8
-1.93227e+06
-1.26674e+06
-802116
-381461
-305486
-98627.1
-103393
-26549.5
-30841.5
-19613.6
1.25214e+06
776690
470150
243952
154781
67243.8
45617.6
17928
12592.8
8156.3
-1.11249e+06
-751743
-467437
-245340
-171969
-69165.9
-56067.6
-19509.5
-16698
-11549.6
737423
474586
285631
155921
94137.7
44676.5
27471.5
12244
7613.36
5222.47
-640360
-442207
-270627
-151284
-97558.7
-44652.2
-31058.7
-12892.1
-9256.03
-6776.64
432699
286154
171026
96803.4
56589.8
28384.8
16470.2
7903.08
4589.69
3264.39
-368562
-258500
-156077
-91023.1
-55525.8
-27584
-17399.7
-8067.16
-5192.13
-3949.49
253037
170827
101409
58981
33701.3
17562.7
9812.37
4941.54
2750.4
2006.23
-212085
-150416
-89811.6
-53935.6
-31651.5
-16604.9
-9807.74
-4891.14
-2929.21
-2286.21
147383
101117
59682.6
35452.2
19919.3
10677.4
5809.95
3028.14
1638.13
1218.1
-121948
-87174.5
-51596
-31633.5
-18056.7
-9834.53
-5548.5
-2908.07
-1657.27
-1316.05
85269.2
59248.5
34835.9
21044
11683.6
6400.96
3417.97
1828.15
969.522
732.487
-69966.3
-50235.8
-29553.1
-18387.3
-10293.3
-5756.07
-3143.88
-1705.92
-938.478
-754.234
48613.6
33989.4
19973.7
12220
6744.61
3760.64
1984.6
1083.51
566.83
435.401
-39948.8
-28528.8
-16738.9
-10503.9
-5812.82
-3311.72
-1770.2
-984.316
-527.77
-429.299
26755.6
18224.4
10755.9
6554.23
3632.67
2044.22
1078.54
597.337
310.058
245.477
-22661.1
-15409.4
-9031.81
-5585.72
-3082.29
-1764.22
-933.189
-524.746
-274.349
-230.506
13549.9
7200.1
4253.94
2104.38
1168.88
558.476
299.254
143.679
74.6243
45.963
)
;

boundaryField
{
    frontAndBack
    {
        type            empty;
    }
    symm
    {
        type            symmetryPlane;
    }
    in
    {
        type            implicitExtrapolation;
    }
    out
    {
        type            implicitExtrapolation;
    }
}


// ************************************************************************* //
