/*--------------------------------*- C++ -*----------------------------------*\
| =========                 |                                                 |
| \\      /  F ield         | foam-extend: Open Source CFD                    |
|  \\    /   O peration     | Version:  3.0                                   |
|   \\  /    A nd           | Web:         http://www.extend-project.de       |
|    \\/     M anipulation  |                                                 |
\*---------------------------------------------------------------------------*/
FoamFile
{
    version     2.0;
    format      ascii;
    class       volVectorField;
    location    "0.8";
    object      u;
}
// * * * * * * * * * * * * * * * * * * * * * * * * * * * * * * * * * * * * * //

dimensions      [0 0 0 0 0 0 0];

internalField   nonuniform List<vector> 
300
(
(-3.28772e+08 1.90941e+08 -0.000850604)
(-1.64677e+07 -2.43929e+08 -0.00285812)
(4.66414e+07 5.44701e+07 -0.00951146)
(-8.39199e+07 -2.50979e+07 -0.0191715)
(3.05721e+06 -8.14301e+07 -0.0269024)
(-3.44175e+07 -5.98186e+06 -0.0211036)
(8.55018e+06 3.0907e+06 0.0180978)
(-1.05555e+07 -1.59072e+06 0.117297)
(3.5644e+06 946300 0.302789)
(-4.70698e+06 -57583.7 0.587281)
(1.12392e+07 -3.44223e+07 -0.0013031)
(2.09566e+06 1.52959e+07 -0.00310467)
(1.46913e+06 2.11359e+07 -0.00582479)
(-1.02021e+07 2.77597e+07 -0.00635774)
(-3.13382e+06 -2.76847e+07 0.000893791)
(2.75867e+06 7.85419e+06 0.0236518)
(-1.36265e+06 -9.13399e+06 0.0675207)
(1.96826e+06 2.63053e+06 0.12557)
(-940901 -2.45804e+06 0.164449)
(1.34474e+06 26908.1 0.239322)
(2.66725e+07 -8.95393e+06 -0.00116899)
(-5.23593e+07 -1.61832e+07 -0.00324817)
(-1.43306e+07 -7.13067e+06 -0.00648115)
(402379 -8.85021e+06 -0.0078893)
(3.27602e+06 8.3111e+06 -0.00102751)
(-6.00605e+06 -4.26507e+06 0.0243984)
(2.05295e+06 3.26677e+06 0.0779233)
(-3.11872e+06 -1.5808e+06 0.152183)
(1.23661e+06 1.07588e+06 0.188045)
(-1.87156e+06 -403913 0.261445)
(1.65672e+07 -2.35523e+07 -0.00102917)
(8.96346e+06 -3.33307e+06 -0.0032039)
(3.90023e+06 -1.64546e+06 -0.00664132)
(-3.34534e+06 8.18066e+06 -0.00858278)
(1.33988e+06 -8.83999e+06 -0.00241585)
(526568 3.39995e+06 0.0231498)
(223067 -3.44803e+06 0.079746)
(522621 1.17995e+06 0.161955)
(-121955 -1.06396e+06 0.206911)
(504317 55522 0.287019)
(-1.05379e+07 1.08349e+07 -0.000905571)
(-1.20613e+07 -3.92863e+06 -0.00308338)
(-6.66258e+06 -2.80145e+06 -0.0065935)
(-1.24372e+06 -3.28327e+06 -0.00886907)
(-225124 2.27861e+06 -0.0033387)
(-1.9015e+06 -1.98311e+06 0.0216716)
(350390 1.15998e+06 0.0789057)
(-1.01906e+06 -819223 0.164755)
(352170 468164 0.218868)
(-663066 -299929 0.307568)
(1.0476e+07 -1.11281e+07 -0.000806348)
(6.93525e+06 -2.23944e+06 -0.00294918)
(3.71383e+06 -1.88919e+06 -0.00647087)
(-382369 2.40885e+06 -0.00896149)
(1.47996e+06 -2.85187e+06 -0.00397517)
(43302.9 1.23413e+06 0.0202516)
(427716 -1.19291e+06 0.0770934)
(99100.4 453547 0.164593)
(67072.8 -402816 0.226772)
(176651 41123.7 0.323851)
(-6.87227e+06 5.29661e+06 -0.000723238)
(-5.66052e+06 -1.68444e+06 -0.00281235)
(-3.6525e+06 -1.4059e+06 -0.00630885)
(-1.24639e+06 -1.53375e+06 -0.00894462)
(-663063 474197 -0.00445809)
(-741950 -930202 0.0188133)
(-56773.8 344858 0.0745814)
(-350880 -396489 0.162457)
(72990.3 174460 0.231677)
(-225095 -168118 0.336505)
(6.59274e+06 -5.14891e+06 -0.000644451)
(4.6683e+06 -863073 -0.00266576)
(2.77563e+06 -841124 -0.00610614)
(433583 819815 -0.00884278)
(1.03103e+06 -856457 -0.00485474)
(67467.6 452133 0.0172686)
(315129 -375759 0.07136)
(27779.6 169614 0.158545)
(73906.8 -138016 0.233848)
(65371 23230.3 0.345718)
(-4.2912e+06 2.42384e+06 -0.000560021)
(-3.16154e+06 -984343 -0.00249947)
(-2.11276e+06 -911841 -0.00585351)
(-870915 -877356 -0.00866)
(-519962 -36524 -0.00519474)
(-334294 -468082 0.0155689)
(-106396 65041.8 0.0674004)
(-129635 -193123 0.152886)
(483.633 55003.1 0.233301)
(-74561.7 -84442.5 0.351443)
(4.09433e+06 -2.21599e+06 -0.000463407)
(2.93545e+06 -109616 -0.00230593)
(1.82943e+06 -141066 -0.00554485)
(508091 394354 -0.00840014)
(628099 -185961 -0.00549642)
(89876 196137 0.013694)
(189979 -93772.8 0.0627104)
(19499.1 70466.5 0.145523)
(49035.2 -40567.7 0.230018)
(27067.4 13109.6 0.35349)
(-2.64806e+06 998116 -0.000351749)
(-1.83644e+06 -710114 -0.00208039)
(-1.20515e+06 -675244 -0.00517969)
(-523287 -558410 -0.00807684)
(-324199 -157511 -0.00578832)
(-159845 -257027 0.0116287)
(-77828.8 -19807.6 0.0573523)
(-50786.1 -98602.7 0.136637)
(-11458 11371.9 0.22415)
(-24363 -40864.4 0.351578)
(2.48306e+06 -818825 -0.000225993)
(1.76617e+06 224029 -0.00181943)
(1.10208e+06 170432 -0.00476076)
(379128 264036 -0.00771745)
(355243 27356.1 -0.00613202)
(74934.8 108024 0.00932065)
(104365 -3856.25 0.0514365)
(15251.6 35429.6 0.126745)
(27743.2 -7508.61 0.216622)
(12400.3 8008.9 0.34593)
(-1.60566e+06 317871 -9.12838e-05)
(-1.05332e+06 -546480 -0.00151919)
(-656532 -503580 -0.00428664)
(-284804 -365787 -0.00735709)
(-177671 -155901 -0.00664809)
(-74582.3 -149734 0.00657569)
(-44347.4 -36896.5 0.0449527)
(-19771.1 -53045.7 0.116815)
(-8895.16 -2433.62 0.210648)
(-7714.24 -19840.4 0.341314)
(1.46429e+06 -196456 4.2607e-05)
(1.0163e+06 319957 -0.00117505)
(614766 251088 -0.00373867)
(235397 197888 -0.00700642)
(187933 78870.9 -0.00751319)
(48823.1 69751.8 0.00286268)
(53431 19238.1 0.03707)
(9930.58 20976.5 0.10706)
(14358.1 2221.71 0.212833)
(5959.69 5182.5 0.364662)
(-950195 19434.6 0.000161583)
(-582530 -413374 -0.000786102)
(-335101 -360114 -0.00306834)
(-141378 -237684 -0.00656992)
(-86468.4 -120654 -0.00880357)
(-31521.5 -89163.4 -0.00275584)
(-21145.4 -32460.2 0.0246481)
(-6724.97 -29490.7 0.0908943)
(-4760.02 -5295.16 0.219211)
(-2149.94 -9826.79 0.494364)
(837422 48057.7 0.000249551)
(555880 300066 -0.000367669)
(317663 227807 -0.00221159)
(128647 145649 -0.00573658)
(91876.2 75271.5 -0.00995124)
(26584.1 47113.6 -0.0104517)
(25221 20454.4 0.00236896)
(5295.21 13371.6 0.0415674)
(6853.78 4028.16 0.110143)
(2829.4 3405.12 0.0965649)
(-545519 -89647.4 0.000294053)
(-305511 -299354 3.18196e-05)
(-156381 -244633 -0.00117669)
(-62292.9 -151056 -0.00407228)
(-35952.8 -83159 -0.00902635)
(-10579.6 -52927.7 -0.0148673)
(-7996.81 -23298.2 -0.017159)
(-1283.36 -16552.9 -0.00691703)
(-1905.49 -4641.49 0.027846)
(-319.317 -4965.51 0.0231676)
(462973 119222 0.000294593)
(286166 237412 0.000334411)
(149994 172412 -0.000186474)
(61939.4 101577 -0.00179475)
(40178.3 56789.4 -0.00500523)
(11946.3 31258.1 -0.00965579)
(10525 15754 -0.0137959)
(2180.56 8567.93 -0.0124909)
(2932.2 3458.34 0.00237007)
(1247.69 2203.85 0.00482865)
(-302042 -111252 0.000267995)
(-148832 -206662 0.000493617)
(-63206 -158241 0.000431604)
(-22039.2 -93391.8 -0.000189141)
(-10810.2 -53188.9 -0.00172898)
(-1262.48 -30904.8 -0.00427669)
(-1598.97 -15040.6 -0.00702693)
(746.317 -9222.72 -0.00757847)
(-401.071 -3250.2 -0.00205267)
(221.459 -2541.5 0.000371211)
(246209 118817 0.000241278)
(136145 169859 0.000561291)
(62110.3 117644 0.000728733)
(24942.2 66920.3 0.000629312)
(14375.9 38123.4 5.12262e-05)
(3808.35 19912.2 -0.00111595)
(3418.25 10585.5 -0.00256073)
(457.43 5337.33 -0.00319903)
(1022.55 2426.99 -0.00144918)
(464.272 1382.07 -0.000252999)
(-160129 -97794.1 0.000237134)
(-64762.1 -136327 0.000614)
(-18452.5 -97873.4 0.000890968)
(-3494.91 -56026.4 0.00101039)
(139.773 -32119.9 0.000845493)
(2224.71 -17621.7 0.000329788)
(983.771 -9031.04 -0.000387111)
(1273.9 -5045.46 -0.000803392)
(230.6 -2028.22 -0.000338859)
(319.898 -1306.31 4.69065e-05)
(124914 94782.7 0.000268518)
(57492.2 113227 0.000704493)
(19731 74689.6 0.00106269)
(6638.89 41815.2 0.00125546)
(2736.69 23667.2 0.00115891)
(-28.2225 12103.4 0.000741242)
(338.291 6525.98 0.000167211)
(-316.12 3188.97 -0.00016564)
(179.389 1529.79 8.49906e-05)
(103.576 833.259 0.000473678)
(-80417.9 -74643.3 0.000340717)
(-22684.8 -86318.4 0.00085677)
(567.245 -58099.3 0.00131646)
(3730.7 -32564.4 0.00151285)
(3886.86 -18455.7 0.00120114)
(3010.28 -9761.66 0.000285183)
(1679.43 -5111.08 -0.000996112)
(1201.21 -2688.29 -0.00194643)
(406.038 -1168.95 -0.00161542)
(280.107 -668.442 0.000265817)
(59557.8 67788.1 0.000454106)
(19158.9 71480.9 0.00107573)
(1501.57 44813.3 0.00167464)
(-1161.01 24891.5 0.00182153)
(-1704.18 13806.2 0.000950757)
(-1436.43 7010.42 -0.00136973)
(-750.754 3759.45 -0.00501373)
(-551.738 1816.65 -0.00875041)
(-133.739 892.435 -0.00972081)
(-39.9977 481.27 -0.00418398)
(-37448.2 -52789.5 0.000604791)
(-3645.71 -52913.6 0.00135571)
(6903.19 -33284.8 0.00213195)
(5526.96 -18377.5 0.00217081)
(4371.3 -10141.3 0.000304316)
(2697.51 -5240.37 -0.00476865)
(1574.07 -2741.12 -0.0137633)
(940.683 -1386.21 -0.0255179)
(382.852 -630.957 -0.0346756)
(210.178 -337.848 -0.0299505)
(25733.3 45337 0.000783621)
(2247.01 43311.4 0.00168456)
(-4919.29 25690.4 0.00266816)
(-3665.22 14211 0.00254185)
(-2819.22 7637 -0.000753047)
(-1662.08 3876.05 -0.0100832)
(-949.419 2039.2 -0.0284008)
(-532.812 984.514 -0.0571762)
(-205.877 487.649 -0.0932626)
(-80.5063 266.371 -0.138905)
(-15113.1 -35936.8 0.00097565)
(3653.97 -32189.9 0.00204322)
(7660.45 -18777.3 0.00325014)
(5052.46 -10313.5 0.00291474)
(3629.82 -5445.48 -0.0020521)
(2053.53 -2780.42 -0.0163481)
(1210.53 -1419.53 -0.0457294)
(664.953 -701.621 -0.0963259)
(294.318 -326.799 -0.172552)
(145.435 -171.813 -0.26107)
(8613.04 28945.3 0.00116281)
(-4257.88 25769.9 0.00240268)
(-6304.22 14366.4 0.00382143)
(-3922.37 7999.81 0.00321012)
(-2654.34 4110.22 -0.0035329)
(-1440 2102.36 -0.0222204)
(-822.79 1067.84 -0.057306)
(-427.684 521.018 -0.103218)
(-185.6 258.538 -0.127091)
(-82.9411 147.37 -0.156487)
(-3376.37 -24228.3 0.001318)
(5766.16 -20923.9 0.00269901)
(6521.74 -11276.6 0.00429704)
(3951.19 -6501.02 0.00333838)
(2639.58 -3263.96 -0.00550059)
(1421.66 -1723.73 -0.0299925)
(828.33 -842.156 -0.0759344)
(435.765 -428.038 -0.132859)
(200.881 -201.236 -0.139977)
(100.229 -126.469 -0.156577)
(-834.939 17435.6 0.00167872)
(-2244.7 15510.8 0.00274662)
(-1641.22 7887.15 0.00115951)
(-1180.84 4758.8 -0.0084373)
(-641.424 2312.74 -0.0350422)
(-388.39 1270.12 -0.0884046)
(-188.374 615.59 -0.167699)
(-103.436 324.138 -0.231816)
(-38.1628 161.603 -0.134521)
(-15.5252 116.371 0.2099)
)
;

boundaryField
{
    frontAndBack
    {
        type            empty;
    }
    symm
    {
        type            symmetryPlane;
    }
    in
    {
        type            myVelocity;
    }
    out
    {
        type            fixedValue;
        value           uniform (1 0 0);
    }
}


// ************************************************************************* //
