/*--------------------------------*- C++ -*----------------------------------*\
| =========                 |                                                 |
| \\      /  F ield         | foam-extend: Open Source CFD                    |
|  \\    /   O peration     | Version:  3.0                                   |
|   \\  /    A nd           | Web:         http://www.extend-project.de       |
|    \\/     M anipulation  |                                                 |
\*---------------------------------------------------------------------------*/
FoamFile
{
    version     2.0;
    format      ascii;
    class       volScalarField;
    location    "12";
    object      p;
}
// * * * * * * * * * * * * * * * * * * * * * * * * * * * * * * * * * * * * * //

dimensions      [0 0 0 0 0 0 0];

internalField   nonuniform List<scalar> 
7680
(
-0.238107
-0.226131
-0.217299
-0.20796
-0.201238
-0.193851
-0.188699
-0.182799
-0.178843
-0.174102
-0.171077
-0.167252
-0.164961
-0.161872
-0.160163
-0.157669
-0.156421
-0.154409
-0.153525
-0.151901
-0.151299
-0.149982
-0.149588
-0.148509
-0.148258
-0.147352
-0.14718
-0.146386
-0.146234
-0.145492
-0.145296
-0.144547
-0.144244
-0.143424
-0.142947
-0.141989
-0.141263
-0.140097
-0.13904
-0.137587
-0.237861
-0.225898
-0.217076
-0.207746
-0.201031
-0.193652
-0.188505
-0.182611
-0.178659
-0.173922
-0.1709
-0.16708
-0.164791
-0.161706
-0.159997
-0.157506
-0.15626
-0.15425
-0.153367
-0.151744
-0.151142
-0.149827
-0.149433
-0.148355
-0.148104
-0.147199
-0.147027
-0.146234
-0.146081
-0.14534
-0.145145
-0.144396
-0.144094
-0.143274
-0.142797
-0.141841
-0.141115
-0.13995
-0.138894
-0.137442
-0.237341
-0.225404
-0.216601
-0.207292
-0.200592
-0.193229
-0.188093
-0.182212
-0.178269
-0.173543
-0.170528
-0.166716
-0.164432
-0.161354
-0.159649
-0.157164
-0.15592
-0.153915
-0.153034
-0.151415
-0.150814
-0.149502
-0.14911
-0.148034
-0.147783
-0.14688
-0.146709
-0.145918
-0.145766
-0.145026
-0.144832
-0.144084
-0.143783
-0.142965
-0.142489
-0.141535
-0.140811
-0.139648
-0.138594
-0.137146
-0.236586
-0.224687
-0.215913
-0.206633
-0.199955
-0.192615
-0.187495
-0.181633
-0.177703
-0.172992
-0.169986
-0.166186
-0.163909
-0.160841
-0.159142
-0.156664
-0.155424
-0.153425
-0.152547
-0.150933
-0.150334
-0.149026
-0.148635
-0.147563
-0.147313
-0.146412
-0.146242
-0.145453
-0.145301
-0.144564
-0.14437
-0.143625
-0.143324
-0.142509
-0.142034
-0.141083
-0.140361
-0.139202
-0.138151
-0.136707
-0.235559
-0.223711
-0.214975
-0.205736
-0.199087
-0.191779
-0.186682
-0.180845
-0.176932
-0.172242
-0.169249
-0.165466
-0.163199
-0.160144
-0.158453
-0.155986
-0.154752
-0.152761
-0.151887
-0.15028
-0.149684
-0.148382
-0.147992
-0.146925
-0.146676
-0.14578
-0.14561
-0.144825
-0.144674
-0.14394
-0.143747
-0.143005
-0.142706
-0.141894
-0.141422
-0.140474
-0.139756
-0.138601
-0.137555
-0.136117
-0.234298
-0.222515
-0.213825
-0.204636
-0.198022
-0.190753
-0.185683
-0.179878
-0.175986
-0.17132
-0.168344
-0.164581
-0.162326
-0.159287
-0.157605
-0.155151
-0.153924
-0.151944
-0.151074
-0.149476
-0.148883
-0.147588
-0.1472
-0.146138
-0.145891
-0.144999
-0.14483
-0.144049
-0.143899
-0.143169
-0.142976
-0.142238
-0.141941
-0.141133
-0.140663
-0.13972
-0.139006
-0.137858
-0.136817
-0.135386
-0.232767
-0.221061
-0.212428
-0.203299
-0.196729
-0.189508
-0.184471
-0.178704
-0.174837
-0.170202
-0.167245
-0.163507
-0.161267
-0.158249
-0.156577
-0.15414
-0.15292
-0.150953
-0.15009
-0.148502
-0.147913
-0.146626
-0.146242
-0.145187
-0.144941
-0.144055
-0.143888
-0.143112
-0.142962
-0.142237
-0.142046
-0.141313
-0.141017
-0.140215
-0.139748
-0.138812
-0.138102
-0.136961
-0.135927
-0.134506
-0.231007
-0.219389
-0.210822
-0.201762
-0.195241
-0.188075
-0.183076
-0.177353
-0.173515
-0.168915
-0.165981
-0.162271
-0.160048
-0.157052
-0.155393
-0.152974
-0.151763
-0.149811
-0.148954
-0.147378
-0.146794
-0.145517
-0.145135
-0.144088
-0.143844
-0.142965
-0.142798
-0.142028
-0.14188
-0.14116
-0.14097
-0.140243
-0.139949
-0.139153
-0.138689
-0.13776
-0.137055
-0.135923
-0.134896
-0.133486
-0.228979
-0.217464
-0.208972
-0.199992
-0.193528
-0.186425
-0.181471
-0.175797
-0.171994
-0.167434
-0.164525
-0.160848
-0.158645
-0.155675
-0.154031
-0.151634
-0.150434
-0.148499
-0.14765
-0.146088
-0.145509
-0.144243
-0.143864
-0.142827
-0.142585
-0.141714
-0.141549
-0.140785
-0.140639
-0.139925
-0.139737
-0.139016
-0.138725
-0.137936
-0.137476
-0.136555
-0.135856
-0.134734
-0.133716
-0.132318
-0.226726
-0.215324
-0.206916
-0.198024
-0.191624
-0.184591
-0.179685
-0.174068
-0.170301
-0.165787
-0.162907
-0.159266
-0.157084
-0.154143
-0.152515
-0.150141
-0.148953
-0.147037
-0.146196
-0.14465
-0.144076
-0.142823
-0.142448
-0.14142
-0.141181
-0.140318
-0.140155
-0.139399
-0.139253
-0.138547
-0.13836
-0.137646
-0.137358
-0.136576
-0.136122
-0.135209
-0.134517
-0.133406
-0.132398
-0.131013
-0.224211
-0.212935
-0.204621
-0.195827
-0.189499
-0.182544
-0.177693
-0.172138
-0.168413
-0.163949
-0.161101
-0.1575
-0.155343
-0.152435
-0.150825
-0.148478
-0.147303
-0.145409
-0.144577
-0.143048
-0.142481
-0.141241
-0.140871
-0.139855
-0.139618
-0.138765
-0.138604
-0.137856
-0.137712
-0.137014
-0.136829
-0.136123
-0.135838
-0.135065
-0.134615
-0.133713
-0.133029
-0.131929
-0.130933
-0.129563
-0.221475
-0.210337
-0.202124
-0.193438
-0.187187
-0.180317
-0.175524
-0.170037
-0.166358
-0.161948
-0.159135
-0.155578
-0.153447
-0.150575
-0.148985
-0.146665
-0.145505
-0.143634
-0.142812
-0.141301
-0.140741
-0.139517
-0.13915
-0.138147
-0.137913
-0.13707
-0.136911
-0.136172
-0.13603
-0.13534
-0.135158
-0.13446
-0.134179
-0.133415
-0.13297
-0.132079
-0.131403
-0.130317
-0.129332
-0.127979
-0.218482
-0.207495
-0.199393
-0.190825
-0.184658
-0.177881
-0.173153
-0.167741
-0.164111
-0.159761
-0.156986
-0.153478
-0.151375
-0.148542
-0.146973
-0.144686
-0.143541
-0.141695
-0.140885
-0.139395
-0.138842
-0.137634
-0.137273
-0.136283
-0.136053
-0.135222
-0.135064
-0.134336
-0.134196
-0.133515
-0.133335
-0.132647
-0.132369
-0.131616
-0.131178
-0.130298
-0.129631
-0.12856
-0.127588
-0.126253
-0.215275
-0.204449
-0.196466
-0.188024
-0.181948
-0.17527
-0.170612
-0.165278
-0.161702
-0.157416
-0.154681
-0.151225
-0.149153
-0.146361
-0.144816
-0.142561
-0.141434
-0.139615
-0.138816
-0.137347
-0.136803
-0.135613
-0.135257
-0.134281
-0.134054
-0.133235
-0.13308
-0.132362
-0.132224
-0.131553
-0.131376
-0.130698
-0.130424
-0.129681
-0.129249
-0.128383
-0.127725
-0.126669
-0.125712
-0.124397
-0.211817
-0.201166
-0.193311
-0.185004
-0.179026
-0.172456
-0.167873
-0.162625
-0.159107
-0.154889
-0.152199
-0.148797
-0.146759
-0.144012
-0.142492
-0.140274
-0.139164
-0.137375
-0.136589
-0.135144
-0.134609
-0.133438
-0.133088
-0.132128
-0.131905
-0.131099
-0.130946
-0.13024
-0.130104
-0.129444
-0.12927
-0.128602
-0.128333
-0.127603
-0.127177
-0.126324
-0.125678
-0.124639
-0.123697
-0.122402
-0.208153
-0.197686
-0.189967
-0.181804
-0.175929
-0.169472
-0.164969
-0.159812
-0.156354
-0.15221
-0.149565
-0.146223
-0.14422
-0.141521
-0.140026
-0.137847
-0.136756
-0.134997
-0.134225
-0.132805
-0.132279
-0.131128
-0.130784
-0.129841
-0.129621
-0.128829
-0.128679
-0.127985
-0.127851
-0.127202
-0.127031
-0.126375
-0.12611
-0.125392
-0.124974
-0.124136
-0.1235
-0.122479
-0.121553
-0.120281
-0.204246
-0.193975
-0.186401
-0.178392
-0.172627
-0.166292
-0.161873
-0.156813
-0.15342
-0.149354
-0.146759
-0.14348
-0.141514
-0.138866
-0.1374
-0.135261
-0.134191
-0.132465
-0.131708
-0.130315
-0.129798
-0.128669
-0.128332
-0.127406
-0.127191
-0.126414
-0.126267
-0.125586
-0.125454
-0.124818
-0.12465
-0.124006
-0.123747
-0.123042
-0.122632
-0.121809
-0.121185
-0.120183
-0.119275
-0.118026
-0.20014
-0.190076
-0.182654
-0.174806
-0.169157
-0.162949
-0.158619
-0.15366
-0.150336
-0.146351
-0.143809
-0.140595
-0.138669
-0.136073
-0.134637
-0.132541
-0.131492
-0.129801
-0.129059
-0.127694
-0.127187
-0.126081
-0.12575
-0.124843
-0.124632
-0.12387
-0.123726
-0.123058
-0.12293
-0.122306
-0.122141
-0.12151
-0.121256
-0.120565
-0.120163
-0.119357
-0.118745
-0.117763
-0.116873
-0.115649
-0.195799
-0.185954
-0.178693
-0.171015
-0.165489
-0.159416
-0.155179
-0.150329
-0.147077
-0.143178
-0.140691
-0.137547
-0.135663
-0.133124
-0.131718
-0.129668
-0.128643
-0.126988
-0.126262
-0.124927
-0.124432
-0.123349
-0.123026
-0.122139
-0.121932
-0.121187
-0.121046
-0.120393
-0.120267
-0.119657
-0.119496
-0.118879
-0.11863
-0.117954
-0.117561
-0.116772
-0.116173
-0.115213
-0.114341
-0.113144
-0.19127
-0.181652
-0.174559
-0.167059
-0.161661
-0.155728
-0.151589
-0.146851
-0.143674
-0.139865
-0.137436
-0.134364
-0.132524
-0.130043
-0.12867
-0.126667
-0.125665
-0.124049
-0.12334
-0.122035
-0.121551
-0.120494
-0.120177
-0.119311
-0.119109
-0.118381
-0.118243
-0.117605
-0.117482
-0.116885
-0.116728
-0.116125
-0.115881
-0.115221
-0.114837
-0.114066
-0.113481
-0.112543
-0.111691
-0.110521
-0.186514
-0.177136
-0.17022
-0.162906
-0.157642
-0.151857
-0.147821
-0.143201
-0.140103
-0.136389
-0.13402
-0.131025
-0.12923
-0.126812
-0.125473
-0.12352
-0.122543
-0.120967
-0.120275
-0.119003
-0.118532
-0.1175
-0.117192
-0.116347
-0.11615
-0.11544
-0.115306
-0.114684
-0.114564
-0.113983
-0.113829
-0.113241
-0.113004
-0.11236
-0.111985
-0.111233
-0.110663
-0.109747
-0.108917
-0.107776
-0.18158
-0.17245
-0.165717
-0.158596
-0.153471
-0.147839
-0.14391
-0.139412
-0.136396
-0.13278
-0.130474
-0.127558
-0.125811
-0.123456
-0.122152
-0.120251
-0.119299
-0.117765
-0.117091
-0.115853
-0.115394
-0.11439
-0.114089
-0.113266
-0.113075
-0.112383
-0.112252
-0.111647
-0.11153
-0.110964
-0.110814
-0.110241
-0.11001
-0.109383
-0.109018
-0.108286
-0.107731
-0.106839
-0.106031
-0.104919
-0.176431
-0.167559
-0.161017
-0.154099
-0.149119
-0.143647
-0.13983
-0.135459
-0.132528
-0.129016
-0.126775
-0.123942
-0.122244
-0.119956
-0.118689
-0.116842
-0.115918
-0.114427
-0.113773
-0.112569
-0.112123
-0.111148
-0.110856
-0.110057
-0.10987
-0.109199
-0.109072
-0.108483
-0.10837
-0.107819
-0.107674
-0.107118
-0.106893
-0.106284
-0.105929
-0.105218
-0.104678
-0.103812
-0.103026
-0.101946
-0.171113
-0.162509
-0.156164
-0.149454
-0.144625
-0.139317
-0.135615
-0.131376
-0.128533
-0.125126
-0.122953
-0.120205
-0.118558
-0.116339
-0.115111
-0.113319
-0.112422
-0.110976
-0.110341
-0.109174
-0.108741
-0.107795
-0.107512
-0.106736
-0.106555
-0.105904
-0.105781
-0.10521
-0.105099
-0.104566
-0.104424
-0.103885
-0.103666
-0.103075
-0.102731
-0.102041
-0.101518
-0.100677
-0.0999148
-0.0988673
-0.165591
-0.157265
-0.151125
-0.144631
-0.139958
-0.134822
-0.131239
-0.127137
-0.124386
-0.121089
-0.118986
-0.116327
-0.114733
-0.112586
-0.111397
-0.109663
-0.108796
-0.107397
-0.106782
-0.105653
-0.105234
-0.104318
-0.104044
-0.103294
-0.103119
-0.102489
-0.102369
-0.101817
-0.10171
-0.101194
-0.101057
-0.100535
-0.100324
-0.0997516
-0.0994185
-0.0987505
-0.0982438
-0.0974301
-0.0966924
-0.0956784
-0.159913
-0.151872
-0.145943
-0.139672
-0.135159
-0.130198
-0.126738
-0.122777
-0.12012
-0.116936
-0.114905
-0.112337
-0.110798
-0.108724
-0.107575
-0.105901
-0.105063
-0.103711
-0.103118
-0.102027
-0.101622
-0.100738
-0.100473
-0.0997485
-0.0995793
-0.0989705
-0.0988549
-0.0983211
-0.0982179
-0.097719
-0.0975869
-0.0970822
-0.0968781
-0.0963255
-0.0960036
-0.0953584
-0.0948688
-0.0940828
-0.0933701
-0.0923907
-0.154042
-0.146297
-0.140585
-0.134545
-0.130197
-0.125419
-0.122086
-0.11827
-0.115711
-0.112644
-0.110687
-0.108213
-0.106731
-0.104733
-0.103627
-0.102014
-0.101207
-0.0999054
-0.0993338
-0.0982829
-0.0978932
-0.0970414
-0.0967865
-0.0960883
-0.0959254
-0.095339
-0.0952277
-0.0947135
-0.0946142
-0.0941336
-0.0940064
-0.0935202
-0.0933236
-0.0927912
-0.092481
-0.0918594
-0.0913876
-0.0906303
-0.0899436
-0.0889999
-0.148028
-0.140585
-0.135096
-0.129291
-0.125113
-0.120522
-0.117319
-0.113651
-0.111192
-0.108245
-0.106364
-0.103987
-0.102562
-0.100642
-0.0995791
-0.0980288
-0.097253
-0.0960019
-0.0954525
-0.0944424
-0.0940677
-0.093249
-0.0930038
-0.0923326
-0.0921759
-0.0916122
-0.091505
-0.0910107
-0.090915
-0.090453
-0.0903305
-0.0898631
-0.0896739
-0.0891621
-0.0888638
-0.0882662
-0.0878126
-0.0870846
-0.0864245
-0.0855174
-0.141834
-0.134702
-0.129443
-0.123881
-0.119878
-0.115479
-0.11241
-0.108896
-0.10654
-0.103716
-0.101914
-0.0996361
-0.0982709
-0.0964315
-0.095413
-0.0939276
-0.0931843
-0.0919857
-0.0914592
-0.0904915
-0.0901325
-0.0893481
-0.0891133
-0.0884702
-0.0883201
-0.08778
-0.0876773
-0.0872037
-0.0871121
-0.0866694
-0.086552
-0.0861041
-0.0859229
-0.0854324
-0.0851465
-0.0845738
-0.0841391
-0.0834413
-0.0828086
-0.0819392
-0.13551
-0.128696
-0.123671
-0.118357
-0.114532
-0.110329
-0.107396
-0.104039
-0.101788
-0.0990893
-0.0973676
-0.0951912
-0.0938867
-0.092129
-0.0911557
-0.0897364
-0.089026
-0.0878806
-0.0873774
-0.0864526
-0.0861094
-0.0853597
-0.0851352
-0.0845206
-0.0843769
-0.0838606
-0.0837623
-0.0833096
-0.0832218
-0.0827986
-0.0826862
-0.0822581
-0.0820846
-0.0816158
-0.0813424
-0.0807949
-0.0803794
-0.0797125
-0.0791077
-0.0782768
-0.129018
-0.12253
-0.117746
-0.112687
-0.109046
-0.105044
-0.102252
-0.0990553
-0.0969119
-0.0943427
-0.0927035
-0.0906314
-0.0893895
-0.0877161
-0.0867894
-0.0854381
-0.0847618
-0.0836713
-0.0831922
-0.0823118
-0.0819851
-0.0812714
-0.0810576
-0.0804724
-0.0803357
-0.0798442
-0.0797506
-0.0793195
-0.079236
-0.078833
-0.078726
-0.0783183
-0.0781531
-0.0777066
-0.0774463
-0.0769249
-0.0765291
-0.0758939
-0.0753179
-0.0745264
-0.12241
-0.116255
-0.111716
-0.106915
-0.10346
-0.0996628
-0.0970138
-0.0939808
-0.0919469
-0.0895091
-0.0879536
-0.0859873
-0.0848088
-0.0832208
-0.0823414
-0.081059
-0.0804171
-0.0793821
-0.0789274
-0.0780918
-0.0777816
-0.0771042
-0.0769011
-0.0763457
-0.0762156
-0.075749
-0.07566
-0.0752508
-0.0751712
-0.0747886
-0.0746869
-0.0742998
-0.0741428
-0.0737189
-0.0734716
-0.0729766
-0.0726008
-0.0719978
-0.0714511
-0.0706998
-0.115649
-0.109834
-0.105545
-0.10101
-0.0977457
-0.0941582
-0.0916555
-0.08879
-0.0868684
-0.0845653
-0.0830957
-0.0812381
-0.0801246
-0.0786244
-0.0777935
-0.076582
-0.0759756
-0.0749979
-0.0745682
-0.0737788
-0.0734857
-0.0728457
-0.0726539
-0.0721291
-0.0720063
-0.0715655
-0.0714813
-0.0710947
-0.0710195
-0.070658
-0.0705618
-0.070196
-0.0700476
-0.069647
-0.0694133
-0.0689454
-0.0685902
-0.0680203
-0.0675035
-0.0667934
-0.108786
-0.103316
-0.0992819
-0.0950156
-0.0919447
-0.0885698
-0.0862154
-0.0835196
-0.0817118
-0.079545
-0.0781624
-0.0764147
-0.0753671
-0.0739556
-0.0731737
-0.0720338
-0.0714631
-0.0705431
-0.0701387
-0.0693958
-0.0691198
-0.0685176
-0.0683368
-0.0678429
-0.0677271
-0.0673122
-0.0672327
-0.0668687
-0.0667978
-0.0664574
-0.0663666
-0.0660222
-0.0658824
-0.0655052
-0.065285
-0.0648446
-0.0645101
-0.0639737
-0.0634873
-0.062819
-0.101784
-0.0966664
-0.0928918
-0.0889001
-0.0860269
-0.0828692
-0.0806662
-0.078144
-0.0764525
-0.0744252
-0.0731315
-0.0714963
-0.0705161
-0.0691954
-0.0684639
-0.0673974
-0.0668633
-0.0660025
-0.0656241
-0.0649291
-0.0646708
-0.0641073
-0.0639382
-0.0634761
-0.0633677
-0.0629794
-0.062905
-0.0625644
-0.062498
-0.0621794
-0.0620944
-0.0617721
-0.0616411
-0.0612881
-0.0610819
-0.0606696
-0.0603565
-0.0598543
-0.0593988
-0.0587732
-0.0946968
-0.0899348
-0.0864228
-0.0827087
-0.0800353
-0.0770972
-0.0750473
-0.0727004
-0.0711264
-0.0692399
-0.068036
-0.0665144
-0.0656021
-0.064373
-0.0636922
-0.0626995
-0.0622024
-0.0614012
-0.0610489
-0.0604019
-0.0601613
-0.0596367
-0.0594791
-0.0590488
-0.0589477
-0.0585861
-0.0585166
-0.0581994
-0.0581373
-0.0578406
-0.0577612
-0.0574609
-0.0573388
-0.0570099
-0.0568178
-0.0564339
-0.0561422
-0.0556746
-0.0552505
-0.054668
-0.0874841
-0.0830849
-0.0798404
-0.0764092
-0.0739393
-0.0712249
-0.0693311
-0.0671629
-0.0657087
-0.0639659
-0.0628536
-0.0614478
-0.0606049
-0.0594695
-0.0588404
-0.0579234
-0.057464
-0.0567239
-0.0563983
-0.0558005
-0.0555782
-0.0550935
-0.0549478
-0.0545503
-0.0544568
-0.0541227
-0.0540584
-0.0537653
-0.0537077
-0.0534336
-0.0533601
-0.0530826
-0.0529695
-0.0526656
-0.0524879
-0.0521329
-0.0518632
-0.0514309
-0.0510387
-0.0505001
-0.0802015
-0.0761681
-0.0731933
-0.0700474
-0.0677828
-0.065294
-0.0635575
-0.0615694
-0.0602359
-0.0586378
-0.0576178
-0.0563286
-0.0555556
-0.0545142
-0.0539372
-0.0530961
-0.0526747
-0.0519958
-0.0516969
-0.0511486
-0.0509444
-0.0504997
-0.0503658
-0.050001
-0.0499149
-0.0496083
-0.049549
-0.0492799
-0.0492268
-0.0489751
-0.0489074
-0.0486526
-0.0485486
-0.0482695
-0.0481062
-0.0477804
-0.0475327
-0.047136
-0.046776
-0.0462818
-0.072809
-0.0691474
-0.0664468
-0.0635907
-0.0615347
-0.0592753
-0.0576987
-0.0558938
-0.0546831
-0.0532322
-0.052306
-0.0511356
-0.0504337
-0.0494883
-0.0489643
-0.0482007
-0.047818
-0.0472015
-0.0469302
-0.0464323
-0.0462468
-0.045843
-0.0457213
-0.04539
-0.0453118
-0.0450333
-0.0449793
-0.0447349
-0.0446866
-0.0444579
-0.0443962
-0.0441647
-0.0440701
-0.0438165
-0.043668
-0.0433719
-0.0431467
-0.0427861
-0.0424589
-0.0420098
-0.0653626
-0.0620751
-0.0596502
-0.0570858
-0.0552397
-0.0532109
-0.0517952
-0.0501744
-0.0490871
-0.0477841
-0.0469523
-0.0459012
-0.0452706
-0.0444215
-0.0439507
-0.0432647
-0.0429208
-0.0423669
-0.0421229
-0.0416755
-0.0415086
-0.0411457
-0.041036
-0.0407382
-0.0406675
-0.0404171
-0.0403683
-0.0401484
-0.0401046
-0.0398989
-0.0398431
-0.0396348
-0.0395495
-0.0393213
-0.0391876
-0.0389213
-0.0387187
-0.0383944
-0.0381002
-0.0376964
-0.057822
-0.0549136
-0.0527683
-0.0504997
-0.0488664
-0.0470714
-0.0458189
-0.0443849
-0.0434229
-0.04227
-0.041534
-0.0406039
-0.040046
-0.0392946
-0.0388779
-0.038271
-0.0379665
-0.0374764
-0.0372604
-0.0368644
-0.0367166
-0.0363954
-0.0362982
-0.0360346
-0.0359719
-0.0357501
-0.0357067
-0.035512
-0.0354731
-0.0352908
-0.0352413
-0.0350567
-0.0349809
-0.0347788
-0.0346601
-0.0344241
-0.0342444
-0.0339571
-0.0336963
-0.0333384
-0.0502438
-0.047716
-0.0458514
-0.0438796
-0.0424598
-0.0408996
-0.0398107
-0.0385641
-0.0377277
-0.0367254
-0.0360854
-0.0352767
-0.0347914
-0.0341379
-0.0337754
-0.0332474
-0.0329824
-0.0325561
-0.0323678
-0.0320233
-0.0318944
-0.0316147
-0.0315298
-0.0313002
-0.0312452
-0.031052
-0.0310138
-0.0308441
-0.0308098
-0.0306509
-0.0306073
-0.0304464
-0.0303801
-0.0302038
-0.0301002
-0.0298945
-0.0297378
-0.0294874
-0.0292602
-0.0289486
-0.0425871
-0.0404444
-0.0388637
-0.0371921
-0.0359884
-0.0346657
-0.0337424
-0.0326855
-0.0319762
-0.0311264
-0.0305836
-0.0298978
-0.0294862
-0.0289321
-0.0286245
-0.0281768
-0.0279518
-0.0275902
-0.0274304
-0.027138
-0.0270285
-0.0267912
-0.0267189
-0.026524
-0.0264771
-0.0263131
-0.0262804
-0.0261362
-0.0261068
-0.0259717
-0.0259345
-0.0257977
-0.025741
-0.0255911
-0.0255028
-0.0253279
-0.0251945
-0.0249816
-0.0247883
-0.0245234
-0.0349096
-0.0331525
-0.0318561
-0.0304852
-0.0294979
-0.0284129
-0.0276555
-0.0267884
-0.0262064
-0.0255091
-0.0250635
-0.0245007
-0.0241626
-0.0237077
-0.023455
-0.0230873
-0.0229023
-0.0226052
-0.0224735
-0.0222333
-0.0221428
-0.0219477
-0.0218878
-0.0217274
-0.0216883
-0.0215532
-0.0215258
-0.0214069
-0.0213822
-0.0212708
-0.0212396
-0.0211267
-0.0210796
-0.020956
-0.0208829
-0.0207387
-0.0206287
-0.0204533
-0.020294
-0.0200759
-0.0271698
-0.0258019
-0.0247925
-0.0237251
-0.0229561
-0.0221112
-0.0215212
-0.0208458
-0.0203923
-0.0198491
-0.0195018
-0.0190633
-0.0187997
-0.0184452
-0.018248
-0.0179614
-0.0178169
-0.0175852
-0.0174823
-0.0172948
-0.0172239
-0.0170716
-0.0170245
-0.0168991
-0.0168682
-0.0167626
-0.0167407
-0.0166477
-0.0166278
-0.0165406
-0.0165157
-0.0164272
-0.0163899
-0.016293
-0.0162354
-0.0161223
-0.0160358
-0.0158983
-0.0157734
-0.0156024
-0.0194259
-0.0184469
-0.0177243
-0.0169601
-0.0164094
-0.0158043
-0.0153815
-0.0148977
-0.0145725
-0.0141831
-0.0139339
-0.0136194
-0.01343
-0.0131755
-0.0130337
-0.0128277
-0.0127236
-0.012557
-0.0124825
-0.0123475
-0.0122959
-0.012186
-0.0121514
-0.0120609
-0.0120379
-0.0119613
-0.0119448
-0.0118773
-0.0118622
-0.0117988
-0.0117801
-0.0117157
-0.0116881
-0.0116176
-0.0115754
-0.0114933
-0.0114303
-0.0113307
-0.01124
-0.0111163
-0.011636
-0.0110487
-0.0106149
-0.0101562
-0.00982524
-0.00946179
-0.00920747
-0.0089166
-0.00872078
-0.00848647
-0.00833618
-0.00814673
-0.00803231
-0.00787888
-0.00779291
-0.00766858
-0.00760518
-0.0075044
-0.00745877
-0.00737695
-0.00734503
-0.00727824
-0.00725649
-0.00720123
-0.00718642
-0.00713953
-0.00712858
-0.00708704
-0.00707693
-0.00703777
-0.00702542
-0.00698562
-0.00696783
-0.00692424
-0.00689757
-0.00684684
-0.00680756
-0.00674607
-0.00668998
-0.00661382
-0.00385896
-0.00366223
-0.00351636
-0.00336222
-0.00325044
-0.00312784
-0.00304147
-0.00294291
-0.00287597
-0.00279614
-0.00274434
-0.00267941
-0.00263953
-0.00258657
-0.00255614
-0.00251288
-0.00248993
-0.00245451
-0.00243743
-0.00240831
-0.00239578
-0.00237162
-0.00236245
-0.0023421
-0.00233523
-0.00231761
-0.002312
-0.00229609
-0.00229072
-0.00227551
-0.00226933
-0.00225377
-0.00224567
-0.00222869
-0.00221746
-0.00219787
-0.0021822
-0.00215875
-0.00213714
-0.00210845
0.00394777
0.00375198
0.00360838
0.00345642
0.00334791
0.0032284
0.0031459
0.0030511
0.0029884
0.0029128
0.00286547
0.00280504
0.00276983
0.00272153
0.00269595
0.00265745
0.00263954
0.00260898
0.00259713
0.00257299
0.00256583
0.00254682
0.00254313
0.0025281
0.00252678
0.0025147
0.00251473
0.0025046
0.002505
0.00249589
0.00249569
0.00248665
0.00248488
0.00247495
0.00247055
0.00245873
0.00245061
0.00243582
0.00242277
0.00240381
0.0117246
0.0111382
0.0107067
0.0102502
0.00992256
0.00956221
0.00931178
0.00902467
0.0088331
0.00860303
0.00845722
0.00827228
0.00816253
0.00801376
0.00793264
0.00781308
0.00775473
0.00765883
0.00761842
0.0075416
0.00751506
0.00745341
0.00743714
0.00738723
0.00737796
0.00733663
0.00733131
0.00729557
0.00729122
0.00725817
0.0072518
0.00721852
0.00720704
0.00717051
0.00715066
0.00710769
0.00707594
0.00702311
0.00697557
0.00690911
0.0195147
0.0185367
0.0178163
0.0170544
0.0165069
0.0159049
0.015486
0.0150059
0.014685
0.0142998
0.0140551
0.0137451
0.0135604
0.0133106
0.0131736
0.0129724
0.0128733
0.0127116
0.0126423
0.0125123
0.0124661
0.0123614
0.0123323
0.0122471
0.0122297
0.0121587
0.0121478
0.0120861
0.0120768
0.0120195
0.0120068
0.0119489
0.0119276
0.0118642
0.0118288
0.0117544
0.011699
0.0116079
0.0115258
0.0114118
0.0272579
0.025891
0.024884
0.0238188
0.0230532
0.0222114
0.0216253
0.0209537
0.0205045
0.0199655
0.0196227
0.0191887
0.0189298
0.01858
0.0183877
0.0181058
0.0179664
0.0177397
0.017642
0.0174595
0.0173941
0.0172469
0.0172053
0.0170853
0.01706
0.0169599
0.0169437
0.0168565
0.0168425
0.0167613
0.0167425
0.0166605
0.0166295
0.0165396
0.0164888
0.0163834
0.0163044
0.0161755
0.016059
0.0158976
0.0349981
0.0332421
0.031948
0.0305794
0.0295953
0.0285135
0.0277599
0.0268967
0.0263189
0.0256258
0.0251847
0.0246264
0.0242931
0.0238428
0.023595
0.0232321
0.0230522
0.02276
0.0226336
0.0223984
0.0223134
0.0221234
0.0220691
0.0219141
0.0218806
0.0217511
0.0217294
0.0216164
0.0215974
0.0214922
0.021467
0.0213606
0.0213199
0.0212033
0.021137
0.0210004
0.0208978
0.0207309
0.02058
0.0203713
0.0426745
0.040533
0.0389547
0.0372855
0.0360851
0.0347656
0.0338462
0.0327932
0.0320882
0.0312426
0.0307043
0.0300231
0.0296162
0.0290668
0.0287641
0.0283212
0.0281014
0.0277447
0.0275902
0.0273029
0.0271988
0.0269668
0.0269
0.0267106
0.0266693
0.0265109
0.026484
0.0263457
0.0263221
0.0261932
0.0261619
0.0260316
0.0259813
0.0258384
0.0257568
0.0255895
0.0254636
0.0252591
0.0250741
0.0248185
0.0503317
0.0478052
0.0459429
0.0439735
0.042557
0.041
0.039915
0.0386723
0.0378401
0.0368421
0.0362066
0.0354024
0.0349218
0.0342731
0.0339155
0.0333924
0.0331325
0.0327111
0.0325282
0.0321887
0.0320653
0.0317909
0.0317116
0.0314875
0.0314382
0.0312507
0.0312182
0.0310544
0.031026
0.0308732
0.0308357
0.0306813
0.0306213
0.030452
0.0303551
0.0301569
0.0300076
0.0297655
0.0295465
0.029244
0.0579083
0.0550013
0.0528586
0.0505924
0.0489625
0.0471709
0.0459223
0.0444922
0.0435344
0.0423859
0.0416544
0.040729
0.0401758
0.0394292
0.0390174
0.0384154
0.0381161
0.037631
0.0374203
0.0370295
0.0368872
0.0365714
0.0364798
0.0362217
0.0361647
0.0359487
0.0359111
0.0357223
0.0356892
0.0355132
0.0354697
0.0352917
0.0352222
0.035027
0.034915
0.0346865
0.0345141
0.0342349
0.0339822
0.0336333
0.0654497
0.0621636
0.0597412
0.0571793
0.0553365
0.053311
0.0518992
0.0502823
0.0491993
0.0479007
0.0470734
0.0460268
0.045401
0.0445566
0.0440908
0.0434097
0.0430709
0.0425221
0.0422835
0.0418413
0.04168
0.0413224
0.0412184
0.0409262
0.0408613
0.0406166
0.0405736
0.0403597
0.0403219
0.0401224
0.0400727
0.0398709
0.0397919
0.0395707
0.0394436
0.0391847
0.0389893
0.0386731
0.0383868
0.0379918
0.0728941
0.0692341
0.0665361
0.0636827
0.0616302
0.0593741
0.0578016
0.0560006
0.0547942
0.0533477
0.0524261
0.0512603
0.0505632
0.0496226
0.0491036
0.048345
0.0479675
0.0473561
0.0470902
0.0465976
0.0464177
0.0460194
0.0459033
0.0455777
0.0455052
0.0452326
0.0451845
0.0449462
0.0449038
0.0446813
0.0446258
0.0444008
0.0443125
0.0440658
0.043924
0.0436352
0.0434171
0.0430644
0.042745
0.0423044
0.0802875
0.0762557
0.0732835
0.0701402
0.0678791
0.0653937
0.0636611
0.061677
0.0603478
0.058754
0.0577386
0.056454
0.0556857
0.0546492
0.0540772
0.0532411
0.0528249
0.052151
0.0518577
0.0513146
0.0511161
0.0506769
0.0505487
0.0501896
0.0501094
0.0498087
0.0497554
0.0494923
0.0494453
0.0491998
0.0491383
0.04889
0.0487924
0.0485202
0.0483635
0.0480449
0.0478043
0.0474152
0.0470629
0.046577
0.0875676
0.0831703
0.0799286
0.0765002
0.0740338
0.071323
0.0694332
0.067269
0.0658192
0.0640808
0.0629731
0.061572
0.060734
0.0596034
0.0589793
0.0580674
0.0576133
0.0568783
0.0565582
0.0559659
0.0557492
0.0552702
0.0551302
0.0547385
0.0546509
0.0543228
0.0542645
0.0539775
0.0539261
0.0536582
0.0535909
0.05332
0.0532133
0.0529161
0.052745
0.0523972
0.0521344
0.0517096
0.0513249
0.0507943
0.0947814
0.0900213
0.086512
0.0828007
0.0801308
0.0771961
0.0751503
0.0728073
0.0712377
0.0693556
0.0681563
0.0666393
0.0657318
0.0645076
0.0638318
0.0628442
0.0623524
0.0615564
0.0612096
0.060568
0.0603332
0.0598142
0.0596624
0.059238
0.0591429
0.0587873
0.0587239
0.0584129
0.058357
0.0580667
0.0579935
0.0576998
0.0575841
0.057262
0.0570764
0.0566995
0.0564147
0.0559544
0.0555375
0.0549627
0.101866
0.0967502
0.0929786
0.0889899
0.0861203
0.0829662
0.0807673
0.0782492
0.0765621
0.0745393
0.0732502
0.0716198
0.0706444
0.0693287
0.0686022
0.0675408
0.0670121
0.0661566
0.0657838
0.0650942
0.0648418
0.064284
0.0641207
0.0636646
0.0635622
0.0631801
0.0631119
0.0627776
0.0627173
0.0624052
0.0623265
0.0620108
0.0618862
0.0615399
0.0613402
0.0609349
0.0606284
0.0601334
0.059685
0.0590667
0.108869
0.103401
0.0993699
0.0951065
0.0920392
0.0886679
0.0863174
0.0836257
0.0818223
0.0796599
0.0782819
0.0765389
0.0754961
0.0740895
0.0733128
0.072178
0.0716126
0.0706979
0.0702991
0.0695617
0.0692916
0.0686951
0.0685203
0.0680324
0.0679228
0.067514
0.0674408
0.0670832
0.0670185
0.0666846
0.0666003
0.0662625
0.066129
0.0657586
0.0655449
0.0651113
0.0647835
0.064254
0.0637743
0.0631131
0.115728
0.109916
0.10563
0.101098
0.0978377
0.0942539
0.0917553
0.088894
0.0869768
0.0846782
0.0832133
0.0813605
0.0802519
0.0787567
0.0779309
0.0767246
0.0761235
0.0751512
0.0747272
0.0739434
0.0736562
0.0730221
0.0728363
0.0723177
0.072201
0.0717665
0.0716886
0.0713085
0.0712396
0.0708847
0.0707949
0.0704358
0.0702939
0.0698999
0.0696727
0.0692115
0.0688628
0.0682996
0.0677894
0.067086
0.122491
0.116338
0.111802
0.107005
0.103553
0.0997597
0.0971147
0.0940857
0.0920562
0.0896228
0.0880719
0.0861104
0.0849367
0.0833537
0.0824794
0.0812022
0.0805657
0.0795361
0.079087
0.0782571
0.0779527
0.0772813
0.0770843
0.076535
0.0764113
0.0759511
0.0758684
0.0754657
0.0753927
0.0750167
0.0749215
0.0745411
0.0743906
0.0739733
0.0737326
0.0732441
0.0728748
0.0722783
0.0717379
0.0709929
0.129094
0.12261
0.117829
0.112773
0.109136
0.105138
0.10235
0.0991577
0.0970187
0.0944542
0.0928196
0.0907523
0.0895153
0.0878469
0.0869254
0.0855793
0.0849084
0.0838234
0.0833501
0.0824754
0.0821546
0.081447
0.0812393
0.0806605
0.08053
0.080045
0.0799578
0.0795335
0.0794564
0.0790602
0.0789598
0.0785588
0.0784002
0.0779604
0.0777065
0.0771916
0.0768021
0.0761732
0.0756034
0.0748178
0.135588
0.128777
0.123755
0.118445
0.114624
0.110424
0.107496
0.104142
0.101895
0.0992015
0.0974844
0.0953127
0.0940131
0.0922604
0.0912922
0.0898781
0.0891731
0.0880332
0.0875357
0.0866166
0.0862794
0.0855359
0.0853175
0.0847092
0.084572
0.0840623
0.0839705
0.0835245
0.0834434
0.083027
0.0829214
0.0825
0.0823332
0.081871
0.0816041
0.081063
0.0806537
0.0799928
0.079394
0.0785685
0.141908
0.134779
0.129524
0.123965
0.119966
0.115571
0.112506
0.108996
0.106645
0.103825
0.102028
0.099755
0.0983948
0.0965604
0.095547
0.094067
0.0933291
0.092136
0.0916153
0.0906534
0.0903004
0.0895222
0.0892936
0.0886571
0.0885133
0.08798
0.0878839
0.0874172
0.0873322
0.0868965
0.0867858
0.0863449
0.0861703
0.0856865
0.0854071
0.0848407
0.0844122
0.0837202
0.0830933
0.0822289
0.148104
0.140664
0.135178
0.129377
0.125203
0.120615
0.117416
0.113753
0.111298
0.108355
0.106479
0.104106
0.102686
0.100771
0.0997135
0.0981684
0.0973981
0.0961525
0.0956087
0.0946045
0.0942359
0.0934233
0.0931845
0.0925198
0.0923696
0.0918126
0.0917122
0.0912248
0.091136
0.090681
0.0905654
0.0901049
0.0899226
0.0894175
0.0891258
0.0885344
0.088087
0.0873645
0.0867099
0.0858074
0.154113
0.146371
0.140663
0.134626
0.130283
0.125509
0.12218
0.118368
0.115813
0.112751
0.110799
0.10833
0.106852
0.10486
0.103759
0.102151
0.101349
0.100053
0.0994873
0.0984424
0.0980587
0.0972132
0.0969646
0.096273
0.0961167
0.0955371
0.0954325
0.0949255
0.0948331
0.0943597
0.0942394
0.0937603
0.0935706
0.093045
0.0927414
0.092126
0.0916604
0.0909084
0.0902271
0.0892876
0.159986
0.151949
0.146022
0.139755
0.135246
0.130289
0.126833
0.122876
0.120223
0.117044
0.115017
0.112453
0.110919
0.10885
0.107707
0.106038
0.105205
0.103859
0.103271
0.102186
0.101788
0.10091
0.100651
0.0999331
0.0997706
0.0991687
0.09906
0.0985333
0.0984373
0.0979456
0.0978206
0.0973231
0.0971261
0.0965803
0.0962652
0.0956261
0.0951426
0.0943618
0.0936542
0.0926786
0.165658
0.157336
0.1512
0.14471
0.140041
0.134909
0.13133
0.127232
0.124486
0.121193
0.119094
0.11644
0.114851
0.112709
0.111525
0.109797
0.108935