/*--------------------------------*- C++ -*----------------------------------*\
| =========                 |                                                 |
| \\      /  F ield         | foam-extend: Open Source CFD                    |
|  \\    /   O peration     | Version:  3.0                                   |
|   \\  /    A nd           | Web:         http://www.extend-project.de       |
|    \\/     M anipulation  |                                                 |
\*---------------------------------------------------------------------------*/
FoamFile
{
    version     2.0;
    format      ascii;
    class       volVectorField;
    location    "12";
    object      u;
}
// * * * * * * * * * * * * * * * * * * * * * * * * * * * * * * * * * * * * * //

dimensions      [0 0 0 0 0 0 0];

internalField   nonuniform List<vector> 
7680
(
(0.0936408 -0.0342979 1.69264e-17)
(0.181873 -0.0289699 2.33417e-17)
(0.309 -0.0269001 -5.37228e-18)
(0.372961 -0.0233132 6.4935e-18)
(0.465809 -0.0216108 2.50632e-18)
(0.511985 -0.0191765 9.31377e-18)
(0.582842 -0.0178201 1.82325e-18)
(0.616131 -0.0160626 -5.06125e-18)
(0.6719 -0.0150222 -9.67405e-18)
(0.695957 -0.0136842 -8.46446e-18)
(0.740893 -0.0128942 -4.41593e-19)
(0.75823 -0.0118515 5.4238e-18)
(0.795179 -0.0112465 -9.00205e-18)
(0.8075 -0.0104329 -8.4695e-19)
(0.838446 -0.00995865 2.42604e-18)
(0.84692 -0.00932933 1.12901e-17)
(0.873286 -0.00894584 -1.2264e-17)
(0.878732 -0.00846519 1.84357e-17)
(0.901561 -0.00814601 -4.1232e-18)
(0.904559 -0.00778504 1.49425e-18)
(0.924629 -0.00751347 -5.13228e-18)
(0.925593 -0.00724895 2.20503e-18)
(0.943498 -0.00701405 -2.98753e-18)
(0.942724 -0.00682797 1.61118e-17)
(0.958924 -0.00662186 -1.5224e-17)
(0.956624 -0.00650074 1.12575e-17)
(0.971481 -0.00631707 -8.62953e-19)
(0.967802 -0.00625128 7.41096e-18)
(0.981607 -0.0060845 -6.40283e-18)
(0.976649 -0.00606766 7.87712e-19)
(0.989639 -0.00591157 3.34411e-19)
(0.983463 -0.00594395 -1.02567e-18)
(0.995842 -0.00577773 -2.20633e-18)
(0.988452 -0.00590484 1.15195e-19)
(1.00047 -0.00560245 3.32099e-18)
(0.991638 -0.00605404 -1.20157e-18)
(1.004 -0.00538889 4.66499e-18)
(0.992592 -0.00569492 -5.63303e-18)
(1.00721 -0.00730877 1.18357e-18)
(0.99116 -0.00319197 -6.38747e-18)
(0.0980523 -0.0999949 -3.0664e-17)
(0.185481 -0.0840732 -4.2168e-17)
(0.3124 -0.0778443 -1.05634e-17)
(0.375866 -0.0671496 1.76711e-18)
(0.468508 -0.0618421 -2.84335e-17)
(0.51435 -0.0545129 -4.08748e-19)
(0.585032 -0.0502179 -3.83967e-18)
(0.618082 -0.0448432 1.80812e-17)
(0.673713 -0.0415065 3.42152e-17)
(0.697588 -0.0373953 2.88705e-17)
(0.742415 -0.0347996 -2.05224e-19)
(0.75961 -0.0315876 9.73657e-19)
(0.796468 -0.0295313 1.40238e-17)
(0.808676 -0.0269876 3.92921e-18)
(0.839546 -0.0253223 -2.00146e-17)
(0.847931 -0.0232916 -1.84734e-17)
(0.874229 -0.0219099 2.56546e-17)
(0.879606 -0.0202844 -4.64359e-17)
(0.902374 -0.0191071 3.25616e-17)
(0.905318 -0.0178082 -3.12957e-17)
(0.925332 -0.0167769 2.13505e-17)
(0.926255 -0.0157445 -1.88447e-17)
(0.94411 -0.0148165 1.57246e-17)
(0.943304 -0.014004 -4.5599e-17)
(0.959459 -0.0131473 2.93735e-17)
(0.957133 -0.0125185 -2.35144e-17)
(0.971951 -0.0117086 7.77682e-19)
(0.968251 -0.0112354 -1.52616e-17)
(0.98202 -0.0104529 1.74721e-18)
(0.977045 -0.0101139 2.8172e-18)
(0.990002 -0.00934031 2.91426e-18)
(0.983812 -0.00912787 4.84448e-18)
(0.996156 -0.00831844 9.53591e-18)
(0.988762 -0.00831279 -1.32695e-17)
(1.00073 -0.00721549 5.90826e-18)
(0.991926 -0.00790746 -1.57695e-17)
(1.0042 -0.00579228 2.20939e-17)
(0.992861 -0.00739208 -5.29026e-18)
(1.0074 -0.00637419 -2.58618e-18)
(0.991317 -0.00428105 2.9481e-17)
(0.106619 -0.165275 4.58783e-17)
(0.192809 -0.139 3.04127e-17)
(0.319098 -0.128397 6.55336e-18)
(0.381653 -0.110652 2.69658e-17)
(0.473794 -0.101743 2.52797e-17)
(0.519003 -0.0895596 -1.46055e-17)
(0.589291 -0.0823822 -1.60712e-17)
(0.621872 -0.0734381 -9.00349e-18)
(0.677202 -0.067847 -6.47652e-17)
(0.700715 -0.0609755 -5.10705e-17)
(0.745309 -0.0566057 -4.37982e-19)
(0.76222 -0.0512096 -6.82237e-18)
(0.798893 -0.0477289 -1.08544e-17)
(0.810878 -0.0434439 -1.20101e-17)
(0.841594 -0.0406032 4.54855e-17)
(0.849804 -0.0371776 4.43093e-17)
(0.875975 -0.0347978 -3.26176e-17)
(0.881212 -0.0320475 8.1301e-17)
(0.903871 -0.0300008 -7.30158e-17)
(0.906702 -0.0277884 4.55748e-17)
(0.926622 -0.0259822 -2.72681e-17)
(0.927453 -0.024204 4.19577e-17)
(0.945223 -0.0225698 -3.83028e-17)
(0.944342 -0.0211467 7.20194e-17)
(0.960419 -0.0196319 -2.56098e-17)
(0.958031 -0.0185037 4.84251e-17)
(0.972774 -0.0170668 -8.14959e-18)
(0.969025 -0.0161875 2.64926e-17)
(0.98272 -0.0147947 3.72615e-19)
(0.977707 -0.0141297 -8.50983e-18)
(0.990588 -0.0127491 -7.16663e-18)
(0.984372 -0.0122851 4.0452e-18)
(0.996636 -0.0108464 -2.28665e-18)
(0.989232 -0.0107003 4.4337e-18)
(1.0011 -0.00882401 -2.63186e-18)
(0.992338 -0.00974691 -3.09309e-18)
(1.00442 -0.00619954 2.16948e-18)
(0.993244 -0.00907795 -8.86942e-18)
(1.00753 -0.0054458 7.67773e-18)
(0.991547 -0.00535937 -1.75103e-17)
(0.119574 -0.229845 -3.48294e-17)
(0.203573 -0.193199 -9.12089e-17)
(0.329081 -0.17845 1.1096e-16)
(0.390238 -0.153736 -1.5467e-16)
(0.481704 -0.141274 2.24265e-17)
(0.52596 -0.124285 3.0406e-17)
(0.595696 -0.114214 3.41258e-17)
(0.627574 -0.10172 2.88044e-17)
(0.682467 -0.0938701 1.68781e-17)
(0.705439 -0.084275 4.22674e-17)
(0.749688 -0.0781308 3.91042e-17)
(0.766174 -0.0706027 -9.50796e-18)
(0.802572 -0.0656961 -1.41193e-18)
(0.814216 -0.059711 3.21564e-17)
(0.844708 -0.0557001 -7.20237e-17)
(0.852641 -0.0508981 2.1762e-17)
(0.878623 -0.0475369 -3.11131e-17)
(0.883635 -0.043663 -6.59789e-17)
(0.906128 -0.0407715 8.99811e-17)
(0.908777 -0.037639 -6.61855e-17)
(0.928548 -0.0350842 3.1559e-17)
(0.929232 -0.0325524 -5.79089e-17)
(0.946865 -0.0302352 4.45523e-17)
(0.945865 -0.0281964 -4.80522e-17)
(0.961814 -0.0260414 -1.08668e-17)
(0.959332 -0.0244128 -3.70181e-17)
(0.973952 -0.0223608 -1.21467e-17)
(0.970129 -0.0210787 -7.85876e-18)
(0.983706 -0.0190816 -1.31438e-17)
(0.978635 -0.0180978 1.92591e-17)
(0.991401 -0.016111 2.86703e-17)
(0.98514 -0.0154047 -2.0827e-17)
(0.997286 -0.0133343 -1.81471e-17)
(0.989859 -0.0130567 8.09688e-17)
(1.00158 -0.0103991 -5.17612e-17)
(0.99287 -0.0115577 2.33551e-17)
(1.00467 -0.00658441 3.18507e-17)
(0.993734 -0.010736 -2.19556e-17)
(1.00761 -0.00450967 1.01374e-17)
(0.991845 -0.00642435 -7.19218e-18)
(0.1366 -0.293442 2.95329e-17)
(0.21799 -0.246667 2.89869e-17)
(0.342353 -0.227714 -2.28384e-16)
(0.401672 -0.196123 2.67162e-16)
(0.492177 -0.18016 -2.62405e-17)
(0.535159 -0.158438 -1.05805e-16)
(0.604123 -0.14556 -6.99435e-17)
(0.635069 -0.129582 -6.75994e-18)
(0.689366 -0.119536 3.21917e-18)
(0.711622 -0.107249 -1.58167e-17)
(0.755406 -0.099375 -5.52875e-17)
(0.77133 -0.0897187 -2.74679e-18)
(0.807352 -0.0834237 4.54329e-17)
(0.818553 -0.0757408 -5.02572e-17)
(0.848734 -0.0705847 7.36397e-17)
(0.856315 -0.064421 -7.4269e-17)
(0.882033 -0.0600881 6.61643e-17)
(0.886763 -0.0551149 -3.31692e-18)
(0.90903 -0.0513779 -1.57431e-17)
(0.91145 -0.0473521 6.94388e-18)
(0.931023 -0.0440441 3.76131e-17)
(0.931519 -0.0407834 8.10584e-17)
(0.948975 -0.0377794 -5.2143e-17)
(0.947822 -0.035145 2.29502e-17)
(0.963606 -0.0323489 4.41161e-17)
(0.961 -0.0302347 4.12405e-17)
(0.975464 -0.0275709 -1.48968e-17)
(0.97154 -0.0258948 5.35833e-18)
(0.984964 -0.0233016 5.27799e-17)
(0.979814 -0.0220017 -3.31739e-17)
(0.992425 -0.0194222 -1.11306e-18)
(0.986107 -0.0184715 1.75092e-17)
(0.99809 -0.0157869 -5.53174e-17)
(0.990638 -0.0153723 3.4104e-17)
(1.00215 -0.0119552 -1.39654e-17)
(0.99352 -0.0133377 -1.50988e-17)
(1.00495 -0.00696875 -1.83592e-17)
(0.994335 -0.012367 -2.41021e-17)
(1.00762 -0.00358652 1.609e-17)
(0.992215 -0.00746826 3.41969e-17)
(0.157856 -0.355778 -6.90273e-18)
(0.235764 -0.299033 8.13956e-17)
(0.358766 -0.276027 2.45799e-16)
(0.415796 -0.237708 -2.229e-16)
(0.50516 -0.218308 -3.47841e-18)
(0.546576 -0.191948 1.58578e-16)
(0.614617 -0.176277 1.12239e-16)
(0.644403 -0.156879 -9.67622e-18)
(0.697974 -0.144653 -4.0986e-17)
(0.719336 -0.129739 1.35562e-17)
(0.762548 -0.120153 1.61423e-16)
(0.777768 -0.108438 -4.63727e-17)
(0.813335 -0.100767 3.38081e-17)
(0.823972 -0.091442 -3.20135e-17)
(0.853782 -0.0851562 -5.0073e-17)
(0.860907 -0.0776647 -2.676e-17)
(0.886314 -0.0723834 9.54469e-17)
(0.890673 -0.0663276 -6.5136e-17)
(0.91267 -0.0617729 6.58543e-17)
(0.91479 -0.0568615 -1.17105e-17)
(0.934119 -0.0528282 -2.57235e-17)
(0.934373 -0.0488422 -1.04966e-16)
(0.951604 -0.0451764 3.41913e-17)
(0.950255 -0.0419486 3.17012e-17)
(0.965829 -0.038533 -9.05675e-17)
(0.963064 -0.0359351 1.22986e-17)
(0.977327 -0.0326769 -7.45547e-18)
(0.973276 -0.0306104 -1.78141e-17)
(0.986505 -0.027434 -3.89435e-17)
(0.981255 -0.0258242 -2.88998e-17)
(0.993672 -0.0226602 -4.12306e-17)
(0.987278 -0.0214737 2.48361e-17)
(0.999061 -0.0181799 -4.23946e-17)
(0.991569 -0.0176371 5.2936e-17)
(1.00283 -0.0134661 -1.14801e-16)
(0.994286 -0.0150755 5.26763e-17)
(1.00525 -0.00732947 3.80903e-17)
(0.99504 -0.0139587 -3.6039e-17)
(1.00758 -0.00266539 -2.39341e-17)
(0.99265 -0.008491 1.05592e-17)
(0.183059 -0.416602 4.25607e-17)
(0.257008 -0.350134 -1.69065e-16)
(0.37836 -0.323146 -1.14919e-16)
(0.432669 -0.278254 1.2008e-16)
(0.520631 -0.255512 4.04364e-17)
(0.560167 -0.224624 -3.97478e-17)
(0.627078 -0.206266 -1.30168e-16)
(0.655485 -0.18353 5.15128e-17)
(0.708177 -0.1692 6.10136e-17)
(0.728481 -0.151709 -8.1841e-17)
(0.771004 -0.140468 -1.47307e-16)
(0.785394 -0.126717 5.05005e-19)
(0.820405 -0.117718 3.85006e-17)
(0.830384 -0.106769 1.08559e-16)
(0.859733 -0.099388 3.9352e-18)
(0.866332 -0.0905922 -4.18068e-18)
(0.891349 -0.0843827 -6.75482e-17)
(0.895284 -0.0772728 -1.25293e-17)
(0.916944 -0.0719111 -6.50515e-17)
(0.918718 -0.0661423 -1.67049e-17)
(0.937752 -0.0613903 -1.65198e-17)
(0.937722 -0.0567045 4.14066e-17)
(0.954687 -0.0523832 3.05602e-17)
(0.953106 -0.0485843 -3.59209e-17)
(0.968433 -0.044556 4.87894e-17)
(0.96548 -0.0414934 -7.1169e-17)
(0.979507 -0.0376496 6.36085e-17)
(0.975306 -0.0352071 -7.1785e-17)
(0.988304 -0.0314596 1.36448e-16)
(0.982935 -0.0295487 -3.31086e-17)
(0.995122 -0.0258163 1.8471e-16)
(0.98864 -0.024397 -4.35101e-17)
(1.00018 -0.0205146 1.26148e-17)
(0.992646 -0.0198406 2.15846e-17)
(1.00361 -0.0149425 5.31992e-17)
(0.995165 -0.0167651 -2.69167e-17)
(1.00557 -0.00768359 2.50105e-18)
(0.995851 -0.0155062 -3.4909e-17)
(1.00747 -0.00176278 1.18384e-16)
(0.993155 -0.00948257 -1.85959e-17)
(0.21225 -0.47564 2.19276e-17)
(0.281493 -0.399757 -7.76421e-19)
(0.400944 -0.368901 1.55841e-16)
(0.452103 -0.31763 2.57382e-17)
(0.538478 -0.291627 -9.61314e-17)
(0.575853 -0.256349 -1.69501e-16)
(0.64148 -0.235348 1.33538e-16)
(0.668291 -0.209377 -1.25423e-16)
(0.71998 -0.192985 2.3467e-17)
(0.739052 -0.173008 -2.5539e-17)
(0.780786 -0.160146 1.83749e-16)
(0.794206 -0.144444 -1.91345e-16)
(0.828588 -0.134142 4.79114e-17)
(0.837792 -0.121637 -2.16807e-16)
(0.866627 -0.113186 2.63157e-17)
(0.8726 -0.103133 -3.81311e-17)
(0.897185 -0.0960236 1.08333e-16)
(0.900613 -0.0878899 -8.24062e-17)
(0.921899 -0.0817515 1.02329e-16)
(0.923261 -0.0751461 2.68361e-17)
(0.941961 -0.0697047 -3.82201e-17)
(0.941598 -0.0643338 1.44192e-18)
(0.958256 -0.0593837 -3.98824e-17)
(0.956404 -0.0550238 5.45263e-17)
(0.971443 -0.0504074 3.23967e-18)
(0.968271 -0.0468868 -2.91545e-17)
(0.982022 -0.0424796 1.04894e-17)
(0.977644 -0.0396661 6.92764e-17)
(0.990373 -0.0353666 -2.25068e-16)
(0.984865 -0.0331602 -2.35786e-17)
(0.996783 -0.0288749 -1.07112e-16)
(0.990195 -0.0272303 -3.49599e-18)
(1.00146 -0.0227716 7.92479e-17)
(0.993867 -0.0219749 -7.30748e-17)
(1.00448 -0.0163631 -6.51576e-18)
(0.996154 -0.0183999 4.00977e-17)
(1.00592 -0.00801357 4.98646e-17)
(0.996761 -0.0170039 -1.38081e-17)
(1.00731 -0.000871511 -1.08051e-17)
(0.993721 -0.0104453 -1.01625e-16)
(0.245192 -0.532649 2.08324e-17)
(0.309203 -0.447631 3.80655e-18)
(0.426512 -0.413065 -1.17434e-16)
(0.47412 -0.35564 -3.33393e-16)
(0.558675 -0.326509 4.56781e-17)
(0.593599 -0.286983 3.32354e-16)
(0.657758 -0.263461 -7.61492e-17)
(0.682768 -0.234357 1.54234e-16)
(0.73331 -0.215992 4.79289e-17)
(0.750999 -0.193596 -8.80806e-17)
(0.791832 -0.179182 -2.99566e-17)
(0.804165 -0.161572 1.81098e-16)
(0.837821 -0.150025 4.82396e-18)
(0.846161 -0.135997 1.77605e-16)
(0.874398 -0.12652 1.44156e-16)
(0.879679 -0.115244 -9.37933e-17)
(0.903757 -0.107266 8.48697e-17)
(0.906624 -0.098142 -5.69066e-17)
(0.927472 -0.0912486 5.98939e-17)
(0.928378 -0.0838373 -5.11676e-19)
(0.94669 -0.0777236 -2.61715e-17)
(0.945953 -0.0716947 4.71727e-17)
(0.96226 -0.0661312 -4.25048e-17)
(0.960104 -0.0612343 -3.45843e-17)
(0.974816 -0.056044 2.74904e-17)
(0.971397 -0.052087 -2.05057e-18)
(0.984837 -0.0471305 -5.63392e-17)
(0.98026 -0.0439648 1.89052e-16)
(0.992685 -0.0391288 -4.31397e-18)
(0.98702 -0.0366411 1.54712e-16)
(0.998636 -0.0318216 2.13318e-17)
(0.991929 -0.0299595 -4.53823e-17)
(1.00288 -0.0249477 1.53824e-17)
(0.995226 -0.0240283 -4.93545e-17)
(1.00545 -0.0177339 8.00691e-18)
(0.99725 -0.01997 -1.20923e-17)
(1.00629 -0.00833121 -3.93221e-17)
(0.99777 -0.0184414 -1.19644e-16)
(1.00709 -4.71962e-06 2.27404e-16)
(0.994352 -0.0113675 -8.77723e-17)
(0.281826 -0.587378 2.0358e-16)
(0.339973 -0.493647 8.40623e-18)
(0.454886 -0.45548 2.30684e-16)
(0.498536 -0.392135 5.14675e-16)
(0.581086 -0.359978 1.54794e-16)
(0.613291 -0.316384 -3.92895e-16)
(0.67583 -0.290414 2.07211e-17)
(0.698834 -0.258315 -2.55451e-16)
(0.748111 -0.238038 -1.24061e-16)
(0.764254 -0.213339 2.41739e-16)
(0.804094 -0.197423 2.39471e-18)
(0.815211 -0.178003 -1.2183e-16)
(0.848072 -0.165249 4.78872e-17)
(0.855442 -0.149778 -2.64937e-16)
(0.883027 -0.139308 -5.91322e-17)
(0.887525 -0.126866 2.47842e-17)
(0.911056 -0.118052 -9.41687e-17)
(0.913289 -0.10798 -4.03435e-17)
(0.933663 -0.100365 -4.09573e-17)
(0.934054 -0.0921792 1.5336e-17)
(0.951944 -0.0854244 5.35385e-17)
(0.950788 -0.0787618 -1.23233e-17)
(0.96671 -0.0726136 4.99822e-17)
(0.964213 -0.0671976 3.48872e-17)
(0.978563 -0.0614609 -1.08599e-16)
(0.974868 -0.0570794 1.88451e-16)
(0.987961 -0.0516002 -7.61539e-17)
(0.983162 -0.0480898 -3.45534e-17)
(0.995248 -0.0427424 -1.59127e-16)
(0.989407 -0.0399792 6.42373e-17)
(1.00068 -0.0346479 -8.68178e-17)
(0.993844 -0.0325751 1.23911e-16)
(1.00444 -0.0270298 -1.53015e-16)
(0.996719 -0.0259949 2.28515e-16)
(1.0065 -0.0190395 -1.76352e-16)
(0.998448 -0.0214728 1.14472e-16)
(1.00669 -0.00862403 -3.32938e-17)
(0.998871 -0.0198183 4.45314e-17)
(1.00682 0.000842531 -3.80721e-17)
(0.995041 -0.0122536 -1.43222e-16)
(0.321937 -0.639597 -5.40103e-16)
(0.373686 -0.537488 -2.60414e-16)
(0.485989 -0.495934 -1.59538e-16)
(0.525319 -0.426956 -6.33638e-16)
(0.60566 -0.391935 -1.7557e-16)
(0.634885 -0.344449 2.16403e-16)
(0.69564 -0.316167 -2.42395e-18)
(0.716452 -0.281195 3.54986e-16)
(0.764335 -0.25911 2.31391e-16)
(0.778791 -0.232195 -2.74495e-16)
(0.817535 -0.214856 -1.02285e-16)
(0.827325 -0.193688 -2.93346e-17)
(0.859306 -0.179793 2.65407e-17)
(0.86562 -0.162926 1.26251e-16)
(0.89248 -0.151517 7.1736e-17)
(0.89613 -0.137953 3.6183e-17)
(0.919048 -0.128345 7.25374e-17)
(0.920594 -0.117365 9.9568e-17)
(0.940437 -0.109059 1.39016e-16)
(0.940268 -0.100133 -1.25584e-16)
(0.957688 -0.0927635 -1.21995e-17)
(0.956075 -0.0854965 -4.74042e-17)
(0.971568 -0.0787869 -2.20011e-17)
(0.968698 -0.0728775 -8.14885e-18)
(0.98265 -0.0666154 -8.35987e-17)
(0.978651 -0.0618331 4.22591e-17)
(0.991364 -0.0558504 -1.53301e-16)
(0.986322 -0.0520169 2.37436e-16)
(0.998037 -0.0461771 -1.23791e-16)
(0.992002 -0.0431565 -5.03315e-17)
(1.00291 -0.0373343 1.88669e-17)
(0.995923 -0.0350631 -4.10478e-18)
(1.00614 -0.0290094 -4.80695e-17)
(0.998337 -0.0278628 3.85529e-17)
(1.00764 -0.0202807 -7.11983e-17)
(0.999743 -0.0228965 8.4978e-17)
(1.0071 -0.00889933 -4.85315e-18)
(1.00006 -0.0211215 -7.54534e-17)
(1.0065 0.00165936 1.92655e-16)
(0.995789 -0.0130905 -4.70699e-17)
(0.365398 -0.689081 4.43364e-16)
(0.410205 -0.579102 2.52087e-16)
(0.519669 -0.534281 1.44149e-16)
(0.554297 -0.459949 4.44544e-16)
(0.632255 -0.422189 4.27145e-17)
(0.658249 -0.371027 1.19906e-16)
(0.717078 -0.340532 -8.17884e-17)
(0.735508 -0.302853 -2.00397e-16)
(0.781888 -0.279039 -3.06028e-16)
(0.79451 -0.250043 2.56659e-16)
(0.832074 -0.231345 -5.17045e-18)
(0.840422 -0.208542 2.58067e-16)
(0.871457 -0.193554 -9.993e-17)
(0.87662 -0.175383 -1.35868e-17)
(0.902703 -0.163075 5.89609e-17)
(0.905426 -0.148458 1.61618e-19)
(0.92769 -0.138091 -1.13556e-16)
(0.928485 -0.126255 -5.95615e-17)
(0.947763 -0.117294 -1.03683e-16)
(0.946983 -0.107669 1.86317e-16)
(0.9639 -0.0997182 -2.86791e-17)
(0.96179 -0.0918788 7.87076e-18)
(0.976824 -0.0846392 6.35868e-17)
(0.973549 -0.0782612 1.2649e-16)
(0.987072 -0.0715038 -1.33428e-16)
(0.982745 -0.066338 1.73245e-16)
(0.995047 -0.0598821 -9.85476e-17)
(0.989739 -0.0557366 9.56965e-18)
(1.00105 -0.0494343 -6.56515e-17)
(0.994808 -0.0461634 1.52094e-16)
(1.00531 -0.039879 -7.70633e-17)
(0.998167 -0.0374155 -1.7077e-17)
(1.00796 -0.0308803 6.3424e-17)
(1.00008 -0.0296272 1.16936e-16)
(1.00886 -0.0214483 -2.03865e-16)
(1.00113 -0.0242405 8.98456e-17)
(1.00753 -0.00914926 -5.64569e-17)
(1.00134 -0.0223528 5.13716e-17)
(1.00613 0.00244899 -1.94502e-16)
(0.99659 -0.0138841 -5.66854e-17)
(0.411983 -0.735617 8.32271e-17)
(0.449352 -0.618165 -7.62306e-17)
(0.555776 -0.570335 -9.04545e-17)
(0.585391 -0.490981 -2.12827e-16)
(0.660784 -0.450672 -1.43395e-16)
(0.68332 -0.396038 -3.03027e-16)
(0.74008 -0.363483 1.35917e-16)
(0.755962 -0.323242 1.00841e-16)
(0.800725 -0.297817 1.0753e-16)
(0.811386 -0.266843 4.95502e-17)
(0.847678 -0.246878 -8.60361e-18)
(0.854482 -0.222515 -3.31424e-16)
(0.884497 -0.20651 2.48066e-17)
(0.88843 -0.187095 -1.65623e-16)
(0.913673 -0.17395 -5.69209e-17)
(0.915407 -0.158332 -1.97723e-16)
(0.936962 -0.147258 1.60146e-16)
(0.936957 -0.134611 -1.19748e-16)
(0.95562 -0.125035 1.207e-16)
(0.954188 -0.11475 -2.86783e-16)
(0.97056 -0.106252 5.45633e-17)
(0.967916 -0.0978723 -3.2929e-17)
(0.982454 -0.0901326 -7.58738e-17)
(0.978743 -0.0833136 4.32342e-18)
(0.991803 -0.076088 -6.00439e-17)
(0.987122 -0.0705639 1.86593e-16)
(0.998981 -0.0636588 -1.46757e-16)
(0.993389 -0.0592247 1.25311e-16)
(1.00427 -0.0524826 4.56711e-17)
(0.9978 -0.0489823 -7.99683e-17)
(1.00787 -0.0422591 8.10149e-17)
(1.00056 -0.0396192 1.2373e-17)
(1.0099 -0.0326292 -9.24825e-17)
(1.00193 -0.0312771 -2.42943e-17)
(1.01016 -0.022538 1.9386e-16)
(1.0026 -0.0254931 -1.75079e-16)
(1.00798 -0.00937679 1.39013e-16)
(1.00269 -0.023499 -1.50518e-16)
(1.00571 0.00320304 2.37268e-16)
(0.997443 -0.0146215 1.923e-17)
(0.461532 -0.779006 -2.00127e-16)
(0.490988 -0.65466 4.04506e-17)
(0.594183 -0.603954 3.94808e-17)
(0.618435 -0.51991 7.73278e-17)
(0.691109 -0.477195 3.19757e-16)
(0.709958 -0.41934 1.64263e-16)
(0.76452 -0.384843 -8.5795e-18)
(0.777687 -0.342231 1.09266e-16)
(0.820732 -0.315288 -8.43494e-17)
(0.829303 -0.282491 -5.67137e-17)
(0.864248 -0.261333 5.25727e-18)
(0.869408 -0.235536 2.59645e-16)
(0.898342 -0.218572 2.04216e-16)
(0.900964 -0.198013 2.43206e-16)
(0.92532 -0.184079 2.20492e-17)
(0.925998 -0.167538 3.51491e-16)
(0.946805 -0.155798 -2.90154e-16)
(0.945942 -0.1424 3.45742e-16)
(0.963959 -0.132249 -6.35809e-17)
(0.96183 -0.12135 2.27105e-16)
(0.977627 -0.112341 -3.08488e-17)
(0.974416 -0.10346 4.74762e-17)
(0.988429 -0.095254 -7.70232e-17)
(0.984257 -0.0880246 8.75011e-17)
(0.996826 -0.0803634 1.19693e-18)
(0.991769 -0.0745034 -1.89286e-16)
(1.00316 -0.0671824 1.83961e-16)
(0.997265 -0.0624746 -1.5837e-16)
(1.00769 -0.0553266 2.95183e-17)
(1.00098 -0.051606 -9.76334e-17)
(1.01059 -0.0444776 5.74031e-17)
(1.00309 -0.0416675 -1.4839e-16)
(1.01196 -0.0342558 1.368e-16)
(1.00389 -0.0328083 1.92662e-17)
(1.01153 -0.0235467 -1.03428e-16)
(1.00416 -0.0266542 2.05961e-16)
(1.00845 -0.00957882 -1.46652e-16)
(1.00412 -0.0245627 1.36727e-16)
(1.00524 0.00392246 -9.50185e-17)
(0.998343 -0.0153084 -1.73693e-16)
(0.513792 -0.819066 -2.11458e-16)
(0.534905 -0.68828 9.4264e-17)
(0.634683 -0.634995 -1.06046e-16)
(0.653309 -0.546621 -4.45745e-17)
(0.723107 -0.501715 -1.76697e-16)
(0.738077 -0.440868 -1.72632e-16)
(0.790319 -0.404599 -1.09865e-16)
(0.800626 -0.359778 -1.07924e-16)
(0.841859 -0.331449 -3.19037e-16)
(0.848227 -0.296948 2.38725e-16)
(0.881747 -0.274699 -1.49057e-16)
(0.885173 -0.247559 -9.5157e-17)
(0.912963 -0.22972 -5.01106e-16)
(0.914203 -0.208088 -2.19937e-16)
(0.937618 -0.193434 -1.52026e-16)
(0.937184 -0.17603 -6.91114e-17)
(0.957197 -0.163681 1.91405e-16)
(0.955435 -0.149584 -2.67627e-16)
(0.972764 -0.138904 1.7899e-16)
(0.969902 -0.127437 -2.72446e-16)
(0.985087 -0.117956 1.37217e-16)
(0.981277 -0.108609 -9.87749e-17)
(0.994734 -0.0999729 1.01083e-16)
(0.990072 -0.0923627 -5.12913e-17)
(1.00212 -0.0842983 3.67316e-17)
(0.996666 -0.0781287 4.51935e-17)
(1.00756 -0.0704207 -5.72385e-19)
(1.00134 -0.0654636 -2.4688e-17)
(1.01128 -0.0579363 1.16545e-16)
(1.00432 -0.0540176 -1.93026e-18)
(1.01345 -0.0465103 4.91951e-17)
(1.00575 -0.0435484 -3.87974e-17)
(1.01412 -0.0357436 8.30971e-17)
(1.00595 -0.0342111 -9.2566e-17)
(1.01296 -0.0244657 4.90652e-17)
(1.00579 -0.0277135 -7.21059e-17)
(1.00893 -0.00975391 -2.79744e-17)
(1.00562 -0.0255317 -4.40306e-17)
(1.00473 0.00460214 -5.00297e-17)
(0.999287 -0.0159333 3.6977e-17)
(0.568584 -0.855617 3.50082e-16)
(0.580944 -0.71903 -1.08951e-16)
(0.677155 -0.663308 2.45361e-17)
(0.689853 -0.570992 1.84495e-16)
(0.756642 -0.524054 3.4653e-17)
(0.767534 -0.460497 3.02431e-16)
(0.817344 -0.422589 5.10681e-17)
(0.824648 -0.375773 2.03641e-16)
(0.863981 -0.346163 2.48638e-16)
(0.868038 -0.310126 -9.44175e-17)
(0.900066 -0.286871 -2.01727e-17)
(0.901675 -0.258524 1.89673e-16)
(0.928268 -0.239875 4.44893e-16)
(0.928059 -0.217281 3.36043e-16)
(0.95049 -0.201959 1.3738e-16)
(0.948889 -0.183779 -7.13509e-17)
(0.968073 -0.170868 -2.80214e-16)
(0.965364 -0.156138 2.68661e-16)
(0.981976 -0.144972 -2.70546e-16)
(0.978342 -0.132988 8.44434e-17)
(0.992891 -0.123075 5.42326e-17)
(0.988452 -0.113306 -3.53547e-18)
(1.00133 -0.104275 3.49861e-17)
(0.996154 -0.0963199 -3.20901e-17)
(1.00766 -0.0878871 3.77511e-17)
(1.00179 -0.0814349 -1.50526e-16)
(1.01216 -0.0733751 1.23625e-16)
(1.00561 -0.0681874 -1.51061e-16)
(1.01504 -0.0603172 1.46342e-17)
(1.00781 -0.0562125 -7.66912e-17)
(1.01644 -0.0483634 8.56339e-17)
(1.00854 -0.0452569 -8.01502e-17)
(1.01638 -0.0370969 7.6277e-17)
(1.0081 -0.0354823 -2.76443e-16)
(1.01445 -0.0252973 2.62448e-16)
(1.00749 -0.0286709 -1.48466e-16)
(1.00942 -0.00990363 5.68047e-17)
(1.00719 -0.0264084 1.22847e-16)
(1.00419 0.00524022 -3.12495e-17)
(1.00027 -0.016501 1.17755e-16)
(0.625625 -0.888514 -3.14367e-16)
(0.628879 -0.746633 3.7327e-16)
(0.721359 -0.688806 -2.88334e-16)
(0.727911 -0.592924 -4.4681e-17)
(0.791564 -0.544191 -2.47225e-16)
(0.79822 -0.478173 -1.02367e-16)
(0.845498 -0.438811 3.25134e-17)
(0.84968 -0.390177 -1.58575e-17)
(0.887035 -0.359431 -4.39971e-16)
(0.888687 -0.321993 3.22243e-16)
(0.919161 -0.297843 -7.37643e-17)
(0.918875 -0.26839 -1.39963e-16)
(0.944221 -0.249024 -3.31023e-16)
(0.942501 -0.225547 -4.68422e-16)
(0.963907 -0.209634 -1.76736e-16)
(0.96109 -0.190743 9.60958e-17)
(0.979409 -0.177332 1.92573e-16)
(0.975715 -0.162028 -1.16405e-16)
(0.991577 -0.150427 5.91293e-17)
(0.987143 -0.137975 1.06708e-17)
(1.00103 -0.127674 2.58014e-17)
(0.995931 -0.117522 -1.03345e-16)
(1.0082 -0.108138 -1.86742e-17)
(1.00249 -0.0998685 -5.98236e-17)
(1.01343 -0.0911047 1.30895e-16)
(1.00712 -0.0843968 -4.89617e-17)
(1.01696 -0.0760191 7.60002e-17)
(1.01005 -0.0706253 1.28081e-17)
(1.01895 -0.0624431 1.88294e-16)
(1.01144 -0.0581748 -1.54134e-16)
(1.01954 -0.0500136 2.21096e-16)
(1.01143 -0.0467818 -1.86359e-16)
(1.01872 -0.0382978 1.94094e-16)
(1.01032 -0.0366131 2.43093e-17)
(1.016 -0.0260293 1.08994e-16)
(1.00925 -0.0295179 -3.04374e-16)
(1.00993 -0.0100226 2.25928e-16)
(1.0088 -0.0271829 -2.57766e-16)
(1.0036 0.00583525 -2.00002e-17)
(1.00129 -0.0170026 4.18235e-17)
(0.68472 -0.917603 2.96014e-16)
(0.678534 -0.771109 -1.48362e-16)
(0.767164 -0.711329 -5.48047e-17)
(0.76733 -0.61232 3.79017e-16)
(0.827733 -0.561962 3.25272e-16)
(0.829994 -0.493793 1.09099e-16)
(0.874646 -0.453122 -2.33854e-16)
(0.87559 -0.402904 5.77516e-17)
(0.910894 -0.371134 3.02211e-16)
(0.910054 -0.332476 -2.54476e-16)
(0.938916 -0.307522 9.10876e-17)
(0.936671 -0.277111 1.41713e-16)
(0.960725 -0.257098 2.72105e-16)
(0.957442 -0.232856 2.33329e-16)
(0.977786 -0.21641 3.33701e-16)
(0.97371 -0.196902 -9.31034e-17)
(0.991134 -0.183041 -1.05379e-16)
(0.986418 -0.167234 6.90871e-18)
(1.00151 -0.155245 6.05876e-17)
(0.996239 -0.142381 -8.01469e-17)
(1.00943 -0.131736 5.62902e-17)
(1.00366 -0.121248 -4.70521e-17)
(1.0153 -0.111548 1.57939e-16)
(1.00904 -0.103004 -2.23e-16)
(1.01939 -0.0939448 9.15654e-17)
(1.01264 -0.0870123 -1.68236e-16)
(1.02191 -0.078353 -5.091e-18)
(1.01465 -0.0727758 -7.9619e-17)
(1.023 -0.0643193 -2.74121e-17)
(1.0152 -0.0599026 -3.1326e-17)
(1.02275 -0.0514683 -1.42861e-16)
(1.01442 -0.0481206 1.28444e-16)
(1.02114 -0.0393534 -1.28743e-16)
(1.01263 -0.0376015 -1.43099e-16)
(1.01759 -0.0266681 1.01446e-16)
(1.01107 -0.0302543 1.66592e-16)
(1.01045 -0.0101162 -9.4654e-18)
(1.01047 -0.0278568 1.42658e-16)
(1.00299 0.00638259 -5.94207e-17)
(1.00235 -0.0174409 7.78013e-17)
(0.745569 -0.942773 -2.32379e-16)
(0.729668 -0.792225 -1.42251e-16)
(0.814323 -0.730846 3.78923e-18)
(0.807923 -0.629096 -9.7263e-17)
(0.864984 -0.577371 -6.37648e-16)
(0.862722 -0.507312 -6.94489e-17)
(0.904675 -0.465532 9.27802e-17)
(0.902287 -0.41392 1.68118e-17)
(0.935482 -0.381283 -2.26685e-16)
(0.932075 -0.34155 1.57227e-16)
(0.95928 -0.315912 1.02999e-16)
(0.955013 -0.284652 -3.70779e-16)
(0.977737 -0.26409 -6.77772e-17)
(0.972842 -0.239171 -1.12283e-16)
(0.992091 -0.222273 -1.94068e-16)
(0.986719 -0.202219 6.01168e-17)
(1.00322 -0.187976 2.30712e-16)
(0.997453 -0.171728 -1.01937e-16)
(1.01174 -0.159406 1.64472e-16)
(1.00562 -0.146182 -2.45049e-16)
(1.0181 -0.13524 1.46576e-16)
(1.01163 -0.124458 -5.80597e-17)
(1.02262 -0.114487 -2.07515e-17)
(1.01579 -0.105701 7.13699e-17)
(1.02554 -0.0963891 1.28149e-16)
(1.01832 -0.0892593 6.81008e-17)
(1.02701 -0.0803565 3.50301e-17)
(1.01937 -0.0746201 5.64925e-17)
(1.02716 -0.0659245 -6.9613e-19)
(1.01906 -0.061381 1.31746e-16)
(1.02605 -0.0527073 5.6127e-17)
(1.01749 -0.0492625 -6.05345e-17)
(1.02362 -0.0402462 5.17849e-17)
(1.01499 -0.0384399 2.21864e-16)
(1.01922 -0.0272002 -6.63989e-17)
(1.01293 -0.0308732 -2.81202e-16)
(1.01097 -0.0101762 2.29898e-16)
(1.01218 -0.0284224 -1.76237e-16)
(1.00234 0.00688414 2.0572e-17)
(1.00343 -0.0178099 -3.16593e-17)
(0.807955 -0.963902 4.33969e-16)
(0.782091 -0.810008 5.08072e-16)
(0.862673 -0.747195 -1.15432e-17)
(0.84954 -0.643186 9.4751e-17)
(0.903167 -0.590273 4.99709e-16)
(0.896268 -0.518656 1.80864e-17)
(0.935447 -0.475919 4.10049e-17)
(0.929642 -0.42316 8.39456e-17)
(0.96067 -0.389775 6.09282e-17)
(0.954632 -0.349158 -1.13352e-16)
(0.980135 -0.322933 -1.22514e-16)
(0.973799 -0.290978 2.59326e-16)
(0.995157 -0.269943 1.83528e-16)
(0.988613 -0.24447 3.18758e-17)
(1.00674 -0.227183 2.31464e-17)
(1.00004 -0.206682 -7.40549e-17)
(1.01559 -0.19211 -2.7722e-16)
(1.00875 -0.175497 4.70445e-17)
(1.02222 -0.16289 -1.60002e-18)
(1.01522 -0.149369 8.11931e-17)
(1.02697 -0.138174 1.73773e-18)
(1.01979 -0.127147 1.89243e-18)
(1.03012 -0.116946 6.23119e-17)
(1.0227 -0.10796 -6.31699e-17)
(1.03183 -0.0984315 -8.10971e-17)
(1.02413 -0.0911384 -1.51363e-16)
(1.03223 -0.0820293 9.08947e-17)
(1.02421 -0.0761595 -1.54512e-16)
(1.03142 -0.0672628 1.33539e-16)
(1.02301 -0.0626112 -2.40621e-16)
(1.02942 -0.0537376 -1.73579e-17)
(1.02063 -0.0502077 4.40823e-17)
(1.02617 -0.0409846 -1.59378e-16)
(1.0174 -0.0391279 -1.48925e-16)
(1.02089 -0.0276337 -1.19116e-16)
(1.01483 -0.0313751 1.28365e-16)
(1.0115 -0.0102106 -1.13628e-16)
(1.01393 -0.0288809 -8.07143e-18)
(1.00166 0.00733325 5.27631e-17)
(1.00453 -0.0181109 1.03269e-16)
(0.871572 -0.980913 -5.53025e-16)
(0.835547 -0.824276 -5.03594e-16)
(0.911983 -0.760393 -2.30013e-16)
(0.891977 -0.65452 1.48423e-16)
(0.942111 -0.600688 -3.71174e-16)
(0.93048 -0.527788 1.35715e-16)
(0.96684 -0.484306 -2.37334e-16)
(0.957548 -0.430599 -9.5336e-17)
(0.986372 -0.39663 7.4508e-17)
(0.977649 -0.355282 1.88235e-16)
(1.00142 -0.328596 1.21666e-16)
(0.99297 -0.296064 -6.61986e-17)
(1.01294 -0.27466 -1.12803e-16)
(1.00471 -0.248725 -2.32063e-16)
(1.02169 -0.231133 2.43598e-17)
(1.01363 -0.21026 1.44582e-16)
(1.02822 -0.19543 1.9142e-16)
(1.02028 -0.178516 -1.4043e-16)
(1.03291 -0.165685 4.384e-17)
(1.02502 -0.151918 -8.97164e-17)
(1.03603 -0.140523 -8.06636e-18)
(1.02811 -0.129295 4.43241e-17)
(1.03776 -0.118911 -1.89446e-16)
(1.02975 -0.10976 -2.00309e-17)
(1.03824 -0.10006 2.64309e-16)
(1.03006 -0.0926311 -5.36815e-17)
(1.03756 -0.0833571 2.1542e-17)
(1.02914 -0.0773775 7.69672e-17)
(1.03576 -0.0683188 -5.68499e-17)
(1.02704 -0.0635794 9.50214e-17)
(1.03286 -0.0545433 6.88609e-18)
(1.02383 -0.0509459 1.37264e-16)
(1.02875 -0.0415536 2.76737e-17)
(1.01986 -0.0396581 2.87036e-16)
(1.02259 -0.0279561 1.53694e-16)
(1.01677 -0.0317539 -3.85609e-17)
(1.01203 -0.0102101 8.88167e-17)
(1.01571 -0.0292266 7.8263e-17)
(1.00097 0.00773412 -1.68161e-16)
(1.00565 -0.0183403 6.70624e-17)
(0.93618 -0.993723 6.19339e-16)
(0.889843 -0.83506 4.3031e-16)
(0.962048 -0.770293 2.16529e-16)
(0.935079 -0.663061 1.92023e-17)
(0.981654 -0.608499 4.48748e-17)
(0.965224 -0.53466 -8.25022e-18)
(0.998708 -0.490591 2.09502e-16)
(0.98588 -0.436192 6.06234e-17)
(1.01246 -0.401764 -1.63583e-16)
(1.00101 -0.359884 -1.51895e-16)
(1.02302 -0.332838 8.58308e-17)
(1.01243 -0.299887 -1.49853e-16)
(1.03098 -0.278192 -6.05615e-17)
(1.02104 -0.251923 4.81146e-16)
(1.03686 -0.234092 -2.85857e-16)
(1.02743 -0.21295 2.29289e-17)
(1.04103 -0.197917 -6.0656e-17)
(1.03197 -0.180783 -2.25522e-17)
(1.04376 -0.167776 2.09045e-16)
(1.03495 -0.153829 -1.10023e-16)
(1.04521 -0.142277 5.93472e-17)
(1.03655 -0.130901 1.09873e-16)
(1.04552 -0.120374 2.64256e-17)
(1.0369 -0.111102 -7.69086e-17)
(1.04475 -0.101269 7.40665e-17)
(1.03608 -0.0937408 -1.67767e-16)
(1.04296 -0.0843393 4.05601e-17)
(1.03414 -0.0782783 1.05092e-16)
(1.04016 -0.0690955 -2.73312e-16)