/*--------------------------------*- C++ -*----------------------------------*\
| =========                 |                                                 |
| \\      /  F ield         | foam-extend: Open Source CFD                    |
|  \\    /   O peration     | Version:  3.0                                   |
|   \\  /    A nd           | Web:         http://www.extend-project.de       |
|    \\/     M anipulation  |                                                 |
\*---------------------------------------------------------------------------*/
FoamFile
{
    version     2.0;
    format      ascii;
    class       volScalarField;
    location    "34";
    object      p;
}
// * * * * * * * * * * * * * * * * * * * * * * * * * * * * * * * * * * * * * //

dimensions      [0 0 0 0 0 0 0];

internalField   nonuniform List<scalar> 
576
(
-7.24062
-7.30918
-5.66914
-5.77859
-4.85453
-5.02077
-4.49937
-4.66138
-4.43937
-4.55523
-4.59299
-4.63376
-7.11627
-7.18376
-5.57187
-5.67949
-4.77126
-4.9347
-4.42224
-4.5815
-4.36332
-4.47722
-4.51435
-4.55442
-6.87106
-6.93615
-5.37979
-5.48368
-4.60676
-4.76454
-4.26973
-4.42349
-4.21281
-4.32278
-4.3586
-4.39729
-6.50739
-6.56914
-5.09511
-5.19357
-4.36302
-4.51252
-4.04385
-4.18954
-3.98998
-4.09417
-4.1281
-4.16475
-6.03326
-6.09042
-4.72382
-4.81507
-4.04504
-4.18363
-3.74911
-3.88416
-3.69914
-3.79571
-3.82716
-3.86113
-5.45504
-5.50681
-4.27113
-4.3537
-3.65744
-3.7828
-3.3899
-3.51205
-3.34475
-3.4321
-3.46053
-3.49126
-4.78431
-4.82963
-3.74592
-3.81831
-3.20766
-3.3176
-2.973
-3.08012
-2.93338
-3.00998
-3.0349
-3.06184
-4.03092
-4.06919
-3.15608
-3.21713
-2.7026
-2.79528
-2.50491
-2.59522
-2.47156
-2.53613
-2.55713
-2.57985
-3.20933
-3.23973
-2.51277
-2.56135
-2.15169
-2.22548
-1.99427
-2.06618
-1.9677
-2.01912
-2.03581
-2.0539
-2.33209
-2.35425
-1.82595
-1.86131
-1.56359
-1.61726
-1.44922
-1.50152
-1.42993
-1.46733
-1.47946
-1.49262
-1.41565
-1.42905
-1.10837
-1.12983
-0.949095
-0.981696
-0.879649
-0.911419
-0.867933
-0.890651
-0.897991
-0.905975
-0.474307
-0.478847
-0.371366
-0.378629
-0.318012
-0.329025
-0.294754
-0.305484
-0.290855
-0.298531
-0.300967
-0.303663
0.474508
0.479026
0.371552
0.378679
0.318178
0.328991
0.294918
0.305455
0.290982
0.298515
0.30103
0.303688
1.41582
1.4292
1.10854
1.12986
0.949243
0.981647
0.879796
0.911377
0.868044
0.890625
0.89804
0.90599
2.33233
2.35445
1.82616
1.86139
1.56377
1.61726
1.44938
1.50152
1.43007
1.46734
1.47954
1.49266
3.20948
3.23986
2.51291
2.56137
2.15181
2.22543
1.99439
2.06614
1.96779
2.0191
2.03585
2.05391
4.0312
4.06943
3.15631
3.21725
2.70279
2.79533
2.50508
2.59526
2.47169
2.53618
2.55722
2.57991
4.78442
4.82974
3.74604
3.81833
3.20775
3.31757
2.97308
3.08011
2.93344
3.00998
3.03493
3.06186
5.45536
5.50709
4.27137
4.35387
3.65762
3.78289
3.39005
3.51214
3.34488
3.43218
3.46063
3.49134
6.03332
6.09049
4.72388
4.81509
4.04508
4.18363
3.74916
3.88418
3.69918
3.79574
3.82719
3.86116
6.50774
6.56944
5.09535
5.19377
4.36319
4.51267
4.044
4.18968
3.99012
4.09429
4.1282
4.16485
6.87107
6.93619
5.37981
5.48372
4.60676
4.76459
4.26974
4.42356
4.21284
4.32283
4.35863
4.39733
7.11663
7.1841
5.57208
5.67973
4.77142
4.93491
4.42236
4.5817
4.36344
4.47738
4.51445
4.55454
7.24057
7.30921
5.66912
5.77865
4.8545
5.02086
4.49936
4.66149
4.43941
4.55534
4.59305
4.63384
7.24053
7.30917
5.66909
5.77863
4.85448
5.02086
4.49935
4.66149
4.4394
4.55535
4.59305
4.63384
7.11666
7.18413
5.5721
5.67978
4.77142
4.93497
4.42236
4.58175
4.36344
4.47742
4.51447
4.55456
6.87099
6.93614
5.37975
5.48373
4.60672
4.76464
4.26971
4.42361
4.21283
4.32288
4.35865
4.39736
6.50777
6.56947
5.09536
5.19385
4.36319
4.51277
4.044
4.18978
3.99012
4.09437
4.12824
4.16491
6.03321
6.09041
4.7238
4.81512
4.04502
4.18372
3.7491
3.88427
3.69916
3.79582
3.82721
3.86121
5.4554
5.50712
4.27139
4.35398
3.65762
3.78305
3.39004
3.51229
3.34489
3.4323
3.46068
3.49143
4.78426
4.82963
3.74592
3.81836
3.20766
3.31769
2.973
3.08023
2.9334
3.01008
3.03496
3.06193
4.03127
4.06949
3.15635
3.2174
2.7028
2.79553
2.50507
2.59545
2.47171
2.53634
2.55729
2.58002
3.20928
3.23972
2.51276
2.5614
2.1517
2.22557
1.9943
2.06628
1.96774
2.01922
2.03589
2.05398
2.33242
2.35454
1.82621
1.86157
1.5638
1.6175
1.44939
1.50173
1.4301
1.46753
1.47963
1.49279
1.41559
1.42904
1.10837
1.12988
0.949114
0.981779
0.879684
0.911518
0.867988
0.890753
0.89807
0.906069
0.47463
0.479138
0.371622
0.378887
0.318226
0.329257
0.294944
0.305693
0.291034
0.29872
0.301141
0.303837
-0.474561
-0.479033
-0.371555
-0.378629
-0.318154
-0.328908
-0.294875
-0.305357
-0.290919
-0.298414
-0.300945
-0.303592
-1.41549
-1.4289
-1.10828
-1.1296
-0.949027
-0.981412
-0.879603
-0.911169
-0.867863
-0.890437
-0.897866
-0.905816
-2.33238
-2.35446
-1.82616
-1.86133
-1.56374
-1.61717
-1.44934
-1.50142
-1.43
-1.46724
-1.47945
-1.49256
-3.20914
-3.23956
-2.51265
-2.5611
-2.1516
-2.22519
-1.9942
-2.06592
-1.96761
-2.0189
-2.03568
-2.05373
-4.03125
-4.06943
-3.15631
-3.21718
-2.70276
-2.79522
-2.50503
-2.59515
-2.47162
-2.53607
-2.55712
-2.5798
-4.78407
-4.82943
-3.74577
-3.81805
-3.20754
-3.31731
-2.97289
-3.07988
-2.93326
-3.00977
-3.03475
-3.06168
-5.4554
-5.50708
-4.27137
-4.35379
-3.6576
-3.78278
-3.39001
-3.51202
-3.3448
-3.43206
-3.46053
-3.49123
-6.03296
-6.09017
-4.72361
-4.81481
-4.04488
-4.18337
-3.74899
-3.88396
-3.69903
-3.79554
-3.82702
-3.86099
-6.50778
-6.56944
-5.09535
-5.19371
-4.36317
-4.51257
-4.04397
-4.18958
-3.99006
-4.09418
-4.12813
-4.16476
-6.87069
-6.93586
-5.37954
-5.48344
-4.60656
-4.76434
-4.26959
-4.42334
-4.21271
-4.32264
-4.3585
-4.39718
-7.11667
-7.18411
-5.57208
-5.6797
-4.77139
-4.93483
-4.42233
-4.5816
-4.36338
-4.47726
-4.51437
-4.55443
-7.24016
-7.30883
-5.66886
-5.77835
-4.85432
-5.02055
-4.49924
-4.66123
-4.4393
-4.55513
-4.59292
-4.63369
)
;

boundaryField
{
    out
    {
        type            implicitExtrapolation;
    }
    in
    {
        type            implicitExtrapolation;
    }
    frontAndBack
    {
        type            empty;
    }
}


// ************************************************************************* //
