/*--------------------------------*- C++ -*----------------------------------*\
| =========                 |                                                 |
| \\      /  F ield         | foam-extend: Open Source CFD                    |
|  \\    /   O peration     | Version:  3.0                                   |
|   \\  /    A nd           | Web:         http://www.extend-project.de       |
|    \\/     M anipulation  |                                                 |
\*---------------------------------------------------------------------------*/
FoamFile
{
    version     2.0;
    format      ascii;
    class       volSymmTensorField;
    location    "49";
    object      sigma;
}
// * * * * * * * * * * * * * * * * * * * * * * * * * * * * * * * * * * * * * //

dimensions      [0 0 0 0 0 0 0];

internalField   nonuniform List<symmTensor> 
7680
(
(-0.180082 -0.00235234 -1.42825e-20 0.180082 3.16877e-21 4.2266e-07)
(-0.179355 -0.00286222 4.90237e-20 0.179354 1.33251e-19 1.22084e-06)
(-0.176607 -0.00322341 1.73417e-21 0.176605 -7.06672e-20 1.98321e-06)
(-0.172398 -0.00346988 -2.98176e-21 0.172395 6.99143e-20 2.70415e-06)
(-0.167355 -0.00363821 1.25829e-20 0.167352 -1.53165e-20 3.37914e-06)
(-0.161672 -0.00374589 -7.44612e-21 0.161668 2.45164e-20 4.00479e-06)
(-0.155715 -0.00381277 2.44972e-20 0.15571 -5.28219e-20 4.57825e-06)
(-0.149529 -0.00384804 9.22763e-21 0.149524 -2.1125e-20 5.09736e-06)
(-0.143336 -0.00386274 8.28672e-21 0.14333 -7.91319e-20 5.5603e-06)
(-0.137124 -0.00386208 1.71137e-20 0.137118 -1.05999e-20 5.96558e-06)
(-0.131031 -0.0038524 -3.4997e-20 0.131024 -9.99086e-20 6.31198e-06)
(-0.125025 -0.00383675 1.86876e-20 0.125018 4.23098e-20 6.59853e-06)
(-0.119193 -0.00381892 3.2677e-21 0.119186 -8.60516e-20 6.82464e-06)
(-0.113501 -0.00380073 -3.16599e-20 0.113494 4.67918e-20 6.99007e-06)
(-0.108003 -0.00378455 -2.56108e-20 0.107996 3.69541e-21 7.09511e-06)
(-0.102668 -0.00377152 5.91503e-21 0.102661 1.00348e-19 7.14067e-06)
(-0.0975321 -0.00376316 -9.76397e-21 0.097525 -8.48745e-20 7.12826e-06)
(-0.0925678 -0.00376024 -5.13442e-21 0.0925608 1.90287e-19 7.06032e-06)
(-0.087797 -0.00376377 2.32489e-20 0.08779 -1.00202e-19 6.93987e-06)
(-0.0832002 -0.00377434 -7.77236e-21 0.0831934 1.74008e-19 6.77093e-06)
(-0.0787888 -0.00379264 -3.00937e-20 0.0787823 -5.20567e-20 6.55802e-06)
(-0.0745509 -0.00381915 -3.18425e-20 0.0745446 1.46425e-19 6.30647e-06)
(-0.0704899 -0.00385444 -3.68452e-20 0.0704839 -1.91272e-20 6.02181e-06)
(-0.0666012 -0.00389887 -2.35432e-20 0.0665955 1.87777e-19 5.70987e-06)
(-0.0628821 -0.00395304 -4.03788e-21 0.0628767 -2.76746e-20 5.37623e-06)
(-0.0593353 -0.00401722 -6.15052e-20 0.0593303 1.51689e-19 5.0261e-06)
(-0.0559526 -0.00409207 7.13375e-21 0.0559479 8.31747e-20 4.66397e-06)
(-0.0527441 -0.00417788 -6.73119e-21 0.0527398 1.24295e-19 4.29341e-06)
(-0.0496965 -0.00427545 1.51028e-20 0.0496926 7.72602e-20 3.91714e-06)
(-0.0468277 -0.00438511 -4.42308e-20 0.0468242 4.24899e-20 3.53697e-06)
(-0.0441195 -0.00450835 -9.91142e-21 0.0441164 3.67329e-20 3.1543e-06)
(-0.0415966 -0.00464432 -3.03971e-20 0.0415938 -1.18344e-20 2.77026e-06)
(-0.03924 -0.00479914 1.84525e-20 0.0392376 1.52148e-20 2.38655e-06)
(-0.0370703 -0.00496299 -5.00103e-20 0.0370683 -1.75536e-20 2.00542e-06)
(-0.0350905 -0.00516302 4.9882e-21 0.0350889 7.55126e-21 1.63087e-06)
(-0.033277 -0.00535186 -7.28702e-20 0.0332758 1.55361e-20 1.2675e-06)
(-0.0317124 -0.00562246 3.73739e-21 0.0317115 -1.08411e-19 9.22657e-07)
(-0.0302603 -0.00585245 -2.21096e-21 0.0302597 3.54213e-20 6.03631e-07)
(-0.0291299 -0.00609868 -2.63511e-20 0.0291296 -7.67462e-20 3.21203e-07)
(-0.0280749 -0.00673885 1.40898e-20 0.0280748 -5.76018e-20 8.58421e-08)
(-0.179978 -0.00775597 2.15695e-20 0.179978 3.19119e-21 4.24336e-07)
(-0.179135 -0.00908302 -3.46434e-20 0.179134 6.29351e-20 1.22551e-06)
(-0.176301 -0.0099802 -3.1635e-20 0.176299 1.38786e-21 1.9907e-06)
(-0.172031 -0.0105474 4.27702e-20 0.172029 -2.05754e-20 2.71431e-06)
(-0.166944 -0.0108902 -1.25529e-20 0.166941 -3.23808e-20 3.39184e-06)
(-0.16123 -0.0110581 -3.96929e-21 0.161226 5.47172e-20 4.01998e-06)
(-0.155251 -0.0111077 -3.15999e-20 0.155246 5.34205e-20 4.59581e-06)
(-0.149051 -0.0110649 -1.71171e-20 0.149046 2.67497e-20 5.11727e-06)
(-0.142849 -0.0109607 -5.44288e-21 0.142843 1.38002e-19 5.58245e-06)
(-0.136632 -0.0108097 8.79235e-21 0.136626 1.19168e-19 5.98989e-06)
(-0.130537 -0.0106294 5.10915e-20 0.13053 -1.9594e-20 6.33837e-06)
(-0.124531 -0.0104279 5.15988e-21 0.124524 7.22587e-20 6.62684e-06)
(-0.118701 -0.0102156 2.24093e-20 0.118694 -7.41938e-20 6.85483e-06)
(-0.113011 -0.00999721 4.99943e-20 0.113004 6.3505e-20 7.02194e-06)
(-0.107517 -0.00977879 3.14436e-20 0.10751 -1.48031e-19 7.12869e-06)
(-0.102187 -0.00956333 -6.64013e-20 0.10218 -1.71216e-20 7.17577e-06)
(-0.0970546 -0.00935431 6.88925e-20 0.0970474 5.56801e-21 7.16499e-06)
(-0.0920943 -0.00915388 -1.88649e-20 0.0920872 -5.49445e-20 7.0985e-06)
(-0.0873272 -0.00896382 -1.29779e-20 0.0873203 9.89084e-20 6.97958e-06)
(-0.0827338 -0.008786 9.81045e-21 0.082727 -4.73237e-20 6.81201e-06)
(-0.0783254 -0.00862103 -6.28067e-20 0.0783188 1.70264e-20 6.60043e-06)
(-0.0740897 -0.00847078 3.2465e-20 0.0740833 -8.24921e-20 6.35001e-06)
(-0.0700304 -0.00833507 -3.94322e-21 0.0700244 4.99412e-20 6.06623e-06)
(-0.0661425 -0.0082159 4.54645e-21 0.0661367 -1.37006e-19 5.75494e-06)
(-0.0624235 -0.00811252 -9.08364e-20 0.0624181 1.14187e-21 5.4215e-06)
(-0.0588756 -0.00802723 7.69159e-20 0.0588706 -8.19729e-20 5.07137e-06)
(-0.0554911 -0.00795879 -3.95135e-20 0.0554864 9.18647e-21 4.70872e-06)
(-0.0522795 -0.00790996 -6.09714e-21 0.0522752 -4.47831e-20 4.33755e-06)
(-0.0492282 -0.00787914 -7.27022e-20 0.0492242 -5.47548e-20 3.96028e-06)
(-0.046354 -0.00786943 -4.44808e-20 0.0463504 2.20582e-20 3.57915e-06)
(-0.0436404 -0.00788007 -4.42685e-20 0.0436372 -1.7332e-20 3.19534e-06)
(-0.0411096 -0.00791147 -4.00966e-20 0.0411068 4.07853e-21 2.81025e-06)
(-0.038747 -0.00797181 2.83934e-20 0.0387445 -4.09246e-21 2.42546e-06)
(-0.036568 -0.0080422 2.11048e-20 0.0365659 -6.06389e-20 2.04318e-06)
(-0.0345814 -0.0081716 4.70197e-21 0.0345798 3.65652e-20 1.66725e-06)
(-0.0327622 -0.00826954 -1.23064e-19 0.0327609 -7.73625e-22 1.30182e-06)
(-0.031183 -0.00849902 -5.14615e-20 0.031182 7.08739e-21 9.53844e-07)
(-0.0297412 -0.00864189 2.86768e-20 0.0297406 3.17945e-20 6.2974e-07)
(-0.028583 -0.00886235 -1.17172e-19 0.0285826 -2.56152e-20 3.39542e-07)
(-0.0275317 -0.0094636 1.79515e-20 0.0275316 4.03586e-20 9.31029e-08)
(-0.179745 -0.0131619 2.80659e-20 0.179745 -3.29019e-20 4.24547e-07)
(-0.178677 -0.0152884 5.67587e-20 0.178676 6.48709e-20 1.22579e-06)
(-0.175679 -0.0167081 -1.57527e-20 0.175677 -1.97036e-19 1.99109e-06)
(-0.171293 -0.0175863 -2.93751e-20 0.17129 1.51481e-19 2.71496e-06)
(-0.166122 -0.0180962 7.45396e-20 0.166119 -1.16904e-19 3.39294e-06)
(-0.160351 -0.0183191 5.2866e-20 0.160347 -1.13199e-20 4.02171e-06)
(-0.154334 -0.0183475 2.34415e-20 0.154329 -1.02783e-19 4.59834e-06)
(-0.14811 -0.018224 6.53997e-20 0.148105 1.24396e-20 5.12067e-06)
(-0.141894 -0.0179992 8.53853e-20 0.141889 -8.10712e-21 5.58677e-06)
(-0.135673 -0.0176968 -8.61019e-20 0.135667 -9.44269e-21 5.99514e-06)
(-0.129578 -0.0173451 -5.44674e-20 0.129572 -1.51706e-19 6.34453e-06)
(-0.123578 -0.0169576 -2.71905e-20 0.123571 7.04744e-20 6.63395e-06)
(-0.117756 -0.0165508 3.961e-21 0.117749 -5.12254e-20 6.86287e-06)
(-0.112077 -0.0161324 -9.15231e-20 0.11207 5.09152e-20 7.03103e-06)
(-0.106596 -0.0157121 -9.4743e-20 0.106589 8.67646e-20 7.13889e-06)
(-0.101279 -0.0152947 1.18324e-19 0.101271 9.42604e-20 7.18731e-06)
(-0.0961603 -0.0148855 -3.21937e-20 0.0961531 7.08241e-20 7.17805e-06)
(-0.091214 -0.0144882 5.93328e-20 0.0912069 1.56153e-19 7.1134e-06)
(-0.0864608 -0.0141051 6.28269e-20 0.0864538 -1.45146e-19 6.99657e-06)
(-0.0818808 -0.0137396 -9.2591e-20 0.081874 1.2699e-19 6.83138e-06)
(-0.0774853 -0.013392 -5.04746e-20 0.0774787 -3.57448e-20 6.62236e-06)
(-0.0732617 -0.0130656 -1.94567e-20 0.0732553 1.29371e-19 6.3746e-06)
(-0.0692135 -0.0127596 -7.2928e-20 0.0692075 -1.35526e-20 6.09343e-06)
(-0.0653358 -0.0124775 -7.81595e-20 0.06533 6.61041e-20 5.78451e-06)
(-0.0616257 -0.0122174 4.05003e-20 0.0616202 1.87809e-19 5.45308e-06)
(-0.0580856 -0.0119832 -5.68052e-20 0.0580805 1.10776e-19 5.1044e-06)
(-0.0547073 -0.0117724 5.32508e-20 0.0547025 1.84553e-19 4.7426e-06)
(-0.0515007 -0.0115893 -6.29273e-20 0.0514963 4.9011e-20 4.3716e-06)
(-0.0484525 -0.0114312 8.09316e-20 0.0484485 1.48857e-19 3.99389e-06)
(-0.0455802 -0.0113019 4.48206e-21 0.0455766 1.87708e-21 3.61181e-06)
(-0.0428664 -0.0112009 -2.46243e-20 0.0428632 6.67781e-20 3.22665e-06)
(-0.0403343 -0.0111264 -1.55544e-20 0.0403315 8.96073e-20 2.84008e-06)
(-0.0379677 -0.0110923 -7.16165e-20 0.0379653 1.7161e-19 2.45369e-06)
(-0.035784 -0.0110684 1.02356e-20 0.035782 -2.86342e-19 2.06999e-06)
(-0.0337905 -0.0111221 5.88165e-20 0.0337889 2.0345e-19 1.69254e-06)
(-0.0319633 -0.0111395 -9.44867e-20 0.031962 -1.06895e-19 1.32565e-06)
(-0.0303771 -0.0113069 2.48173e-20 0.0303761 8.93348e-21 9.75653e-07)
(-0.0289271 -0.0113959 -5.06397e-20 0.0289264 1.09038e-19 6.48555e-07)
(-0.0277685 -0.0115629 -1.91671e-20 0.0277681 -4.90261e-20 3.53537e-07)
(-0.0267097 -0.0121297 -1.88812e-20 0.0267096 1.64759e-19 9.91355e-08)
(-0.179382 -0.0185706 7.30941e-20 0.179381 5.47201e-20 4.24951e-07)
(-0.177982 -0.0214668 -9.55369e-20 0.177981 1.83788e-20 1.22675e-06)
(-0.174744 -0.0233872 -1.12693e-20 0.174742 2.7526e-19 1.9926e-06)
(-0.170187 -0.0245606 1.32272e-19 0.170185 -2.54026e-19 2.71713e-06)
(-0.164896 -0.0252261 -1.22324e-19 0.164893 6.42e-20 3.39594e-06)
(-0.159042 -0.0254957 9.58915e-21 0.159038 6.99592e-20 4.02568e-06)
(-0.15297 -0.025497 -2.13165e-20 0.152966 7.23418e-20 4.60341e-06)
(-0.146713 -0.0252887 5.25391e-20 0.146708 -2.74482e-20 5.1269e-06)
(-0.14048 -0.0249407 1.50892e-20 0.140475 -1.07824e-19 5.59421e-06)
(-0.134253 -0.0244851 -7.02624e-20 0.134247 -5.62973e-20 6.00375e-06)
(-0.128162 -0.0239614 9.49174e-20 0.128156 5.08856e-20 6.35429e-06)
(-0.122173 -0.0233877 7.67215e-20 0.122166 1.28599e-20 6.6448e-06)
(-0.116366 -0.0227867 3.20663e-20 0.116359 -1.63661e-19 6.8748e-06)
(-0.110706 -0.022169 1.49883e-19 0.110699 1.20755e-19 7.04407e-06)
(-0.105246 -0.0215476 6.69131e-20 0.105239 -3.83422e-21 7.15314e-06)
(-0.0999514 -0.0209293 -1.16829e-19 0.0999442 3.23605e-19 7.20293e-06)
(-0.0948566 -0.0203212 1.73897e-19 0.0948494 -2.00107e-19 7.19527e-06)
(-0.0899342 -0.0197282 -2.27351e-19 0.0899271 2.19036e-19 7.13249e-06)
(-0.0852049 -0.0191535 -1.61463e-20 0.0851979 -1.31897e-19 7.01782e-06)
(-0.0806481 -0.0186014 1.0355e-19 0.0806413 1.30038e-19 6.85507e-06)
(-0.0762753 -0.0180724 -5.46082e-20 0.0762687 -1.3144e-19 6.64868e-06)
(-0.0720732 -0.0175711 5.69705e-20 0.0720668 1.18623e-21 6.40366e-06)
(-0.0680456 -0.0170958 -6.06392e-20 0.0680394 2.75054e-20 6.12516e-06)
(-0.0641867 -0.0166517 1.69462e-19 0.0641809 1.63007e-19 5.81872e-06)
(-0.0604943 -0.0162355 -1.48866e-20 0.0604888 -1.07833e-19 5.48938e-06)
(-0.0569701 -0.0158533 8.14136e-20 0.0569649 8.18459e-20 5.14227e-06)
(-0.053606 -0.0155004 -7.30866e-20 0.0536012 2.23933e-20 4.78143e-06)
(-0.0504116 -0.015184 -4.61172e-20 0.0504072 1.0493e-19 4.41068e-06)
(-0.0473738 -0.0148984 -9.55593e-20 0.0473697 -1.34726e-19 4.03259e-06)
(-0.0445098 -0.0146508 -1.31713e-19 0.0445062 1.0947e-19 3.64951e-06)
(-0.0418015 -0.0144381 6.37339e-20 0.0417983 -9.9907e-21 3.26293e-06)
(-0.0392743 -0.0142596 1.0934e-19 0.0392714 4.94113e-20 2.87454e-06)
(-0.0369065 -0.0141324 -3.65762e-19 0.036904 1.30111e-19 2.48618e-06)
(-0.0347272 -0.014014 6.85525e-21 0.0347251 -1.70471e-20 2.1003e-06)
(-0.0327208 -0.0140003 2.25332e-19 0.0327191 1.18407e-19 1.72062e-06)
(-0.0309051 -0.0139209 -3.42753e-19 0.0309038 4.66223e-20 1.35123e-06)
(-0.0292881 -0.0140523 1.87958e-19 0.0292871 8.71831e-20 9.98311e-07)
(-0.0278611 -0.014039 -2.38156e-20 0.0278604 9.54737e-20 6.67556e-07)
(-0.0266703 -0.0141774 -4.46817e-20 0.0266699 -9.56718e-20 3.67315e-07)
(-0.0256074 -0.0146757 -5.26639e-20 0.0256072 -1.69332e-19 1.05289e-07)
(-0.178886 -0.0239823 4.77225e-20 0.178886 -1.26096e-19 4.25493e-07)
(-0.177053 -0.0276075 2.20201e-19 0.177051 -2.2729e-19 1.22825e-06)
(-0.1735 -0.0299985 -1.14014e-19 0.173498 -3.05328e-19 1.99504e-06)
(-0.168721 -0.031445 -1.44269e-19 0.168718 -2.58567e-20 2.72058e-06)
(-0.163272 -0.03225 2.70204e-19 0.163269 3.23097e-20 3.40055e-06)
(-0.157312 -0.0325547 8.17653e-20 0.157308 -1.68198e-19 4.03157e-06)
(-0.15117 -0.0325208 -1.84702e-20 0.151165 -1.57207e-19 4.61067e-06)
(-0.144871 -0.0322222 -6.60111e-20 0.144866 9.10763e-20 5.1356e-06)
(-0.138617 -0.0317472 6.5903e-20 0.138611 5.63747e-20 5.60434e-06)
(-0.132385 -0.0311365 -9.5173e-21 0.132379 1.17738e-19 6.01529e-06)
(-0.126301 -0.0304397 1.02421e-20 0.126294 -1.95615e-19 6.36715e-06)
(-0.120326 -0.0296797 -2.00261e-19 0.12032 1.28644e-19 6.65895e-06)
(-0.114542 -0.028885 8.69513e-20 0.114535 -1.26698e-19 6.89019e-06)
(-0.108909 -0.0280689 1.31994e-20 0.108902 1.96038e-19 7.06071e-06)
(-0.103478 -0.027248 1.18808e-19 0.103471 -8.34798e-21 7.17109e-06)
(-0.0982156 -0.0264304 -3.33671e-20 0.0982084 1.8818e-19 7.22232e-06)
(-0.093154 -0.0256251 -7.16609e-20 0.0931468 -2.77658e-19 7.21628e-06)
(-0.0882652 -0.0248383 1.4844e-19 0.088258 1.06025e-19 7.15538e-06)
(-0.0835695 -0.0240738 -6.93821e-20 0.0835625 5.47909e-20 7.04284e-06)
(-0.0790458 -0.0233373 -5.9502e-20 0.0790389 -4.16316e-20 6.88249e-06)
(-0.0747053 -0.0226288 -2.03164e-19 0.0746986 2.16308e-19 6.6787e-06)
(-0.0705342 -0.0219545 1.15195e-19 0.0705277 1.85397e-19 6.4364e-06)
(-0.0665363 -0.0213118 6.67687e-20 0.0665301 1.02407e-19 6.1606e-06)
(-0.0627054 -0.0207076 -1.50324e-19 0.0626995 -1.79746e-19 5.85668e-06)
(-0.0590392 -0.0201373 -5.70916e-20 0.0590336 2.88497e-19 5.52953e-06)
(-0.055539 -0.0196087 1.15869e-19 0.0555338 -4.16152e-20 5.1841e-06)
(-0.0521969 -0.0191156 1.13459e-19 0.0521921 1.51795e-19 4.8243e-06)
(-0.0490223 -0.0186671 -1.88225e-19 0.0490179 5.90169e-20 4.4539e-06)
(-0.0460014 -0.0182558 6.73952e-20 0.0459974 3.12068e-19 4.0754e-06)
(-0.0431527 -0.0178906 1.24998e-19 0.043149 2.14695e-19 3.6912e-06)
(-0.0404554 -0.0175671 -1.22285e-19 0.0404521 2.79165e-19 3.30283e-06)
(-0.0379397 -0.0172854 2.34161e-19 0.0379368 -6.27789e-20 2.91217e-06)
(-0.0355742 -0.0170624 -1.0085e-19 0.0355717 1.83321e-19 2.52106e-06)
(-0.0334068 -0.0168555 -9.56687e-20 0.0334047 1.26295e-19 2.13221e-06)
(-0.0313868 -0.0167589 1.82534e-19 0.031385 2.98961e-19 1.74913e-06)
(-0.0295919 -0.0166121 -9.18497e-20 0.0295905 -7.18544e-20 1.37629e-06)
(-0.0279358 -0.016664 6.51959e-20 0.0279348 1.46305e-20 1.01925e-06)
(-0.0265372 -0.0166156 -2.1363e-19 0.0265366 6.8343e-20 6.84088e-07)
(-0.0252983 -0.0166805 -3.6494e-19 0.025298 -4.09926e-20 3.78167e-07)
(-0.0242191 -0.0171451 1.13573e-19 0.024219 1.20797e-19 1.09542e-07)
(-0.178257 -0.029397 2.67413e-20 0.178256 5.92034e-20 4.26266e-07)
(-0.175891 -0.0336995 -2.14639e-19 0.17589 3.12993e-19 1.23037e-06)
(-0.171953 -0.036523 1.74186e-19 0.171951 -6.73584e-20 1.99849e-06)
(-0.166902 -0.0382151 2.10269e-19 0.1669 3.5537e-19 2.72543e-06)
(-0.161262 -0.0391393 -2.03749e-19 0.161258 -1.93736e-20 3.4069e-06)
(-0.155172 -0.0394648 -6.27474e-20 0.155168 -8.75668e-20 4.03953e-06)
(-0.148945 -0.0393855 1.36575e-19 0.148941 1.10674e-19 4.62033e-06)
(-0.142597 -0.0389897 2.07225e-19 0.142591 -9.62023e-20 5.14699e-06)
(-0.136319 -0.0383834 4.51127e-20 0.136313 -1.12013e-19 5.61745e-06)
(-0.130082 -0.037615 -2.61016e-19 0.130076 1.38005e-19 6.03005e-06)
(-0.124007 -0.036744 8.37625e-20 0.124001 2.24266e-19 6.3835e-06)
(-0.118054 -0.0357976 1.11778e-19 0.118047 1.0726e-19 6.67678e-06)
(-0.112298 -0.03481 3.18807e-20 0.112291 5.86553e-21 6.90944e-06)
(-0.106699 -0.033797 3.02625e-19 0.106692 -2.17928e-19 7.08135e-06)
(-0.101307 -0.0327783 7.42569e-20 0.1013 3.68044e-20 7.19316e-06)
(-0.0960855 -0.0317636 -2.39308e-19 0.0960782 -1.05786e-19 7.24592e-06)
(-0.0910666 -0.0307635 8.74737e-21 0.0910593 2.04146e-19 7.2416e-06)
(-0.0862208 -0.0297854 5.18544e-20 0.0862136 1.8084e-19 7.18263e-06)
(-0.0815685 -0.0288337 -1.18245e-19 0.0815614 6.69034e-20 7.07229e-06)
(-0.0770872 -0.0279151 2.43514e-19 0.0770803 2.14816e-19 6.91437e-06)
(-0.0727885 -0.0270297 1.10111e-19 0.0727818 2.34484e-19 6.71324e-06)
(-0.0686575 -0.0261848 -7.61995e-20 0.068651 1.7891e-19 6.4737e-06)
(-0.0646985 -0.025377 -3.18199e-19 0.0646923 -1.7557e-19 6.20067e-06)
(-0.0609041 -0.0246148 3.2485e-19 0.0608982 2.42318e-19 5.89938e-06)
(-0.0572727 -0.0238922 1.00499e-19 0.0572672 9.08732e-20 5.57455e-06)
(-0.0538048 -0.0232192 -1.10107e-19 0.0537995 3.02132e-19 5.23097e-06)
(-0.0504926 -0.0225873 1.17829e-19 0.0504878 -1.1792e-19 4.87246e-06)
(-0.0473451 -0.0220085 1.36412e-19 0.0473406 1.34674e-19 4.50261e-06)
(-0.0443484 -0.0214722 5.49006e-20 0.0443443 -8.86972e-20 4.12394e-06)
(-0.0415212 -0.0209918 -6.59562e-20 0.0415175 -1.02774e-19 3.73878e-06)
(-0.0388409 -0.0205573 -1.17595e-19 0.0388375 -5.5997e-19 3.34876e-06)
(-0.0363415 -0.0201759 -2.14716e-20 0.0363385 2.17104e-20 2.95574e-06)
(-0.033982 -0.0198561 -1.70691e-20 0.0339794 -3.12983e-19 2.56169e-06)
(-0.0318289 -0.0195648 1.14099e-19 0.0318267 6.38331e-20 2.16937e-06)
(-0.0297968 -0.0193855 1.33459e-19 0.0297951 -3.01062e-19 1.78237e-06)
(-0.02802 -0.0191665 -6.23426e-19 0.0280186 -1.52429e-19 1.40522e-06)
(-0.0263312 -0.0191528 3.99102e-19 0.0263302 -1.69377e-19 1.04342e-06)
(-0.0249495 -0.0190398 -8.63565e-21 0.0249488 -4.94112e-20 7.03161e-07)
(-0.0236846 -0.0190593 1.05826e-20 0.0236842 -4.98738e-19 3.91329e-07)
(-0.0225762 -0.0194817 -2.43093e-19 0.0225761 1.02887e-19 1.15327e-07)
(-0.177491 -0.0348143 2.07948e-19 0.17749 -9.41406e-20 4.2722e-07)
(-0.174501 -0.0397323 1.26761e-19 0.174499 6.03656e-20 1.23307e-06)
(-0.170111 -0.0429425 -1.84698e-19 0.170109 -4.62525e-21 2.00289e-06)
(-0.164742 -0.0448471 3.66588e-21 0.16474 -2.96524e-19 2.73157e-06)
(-0.158878 -0.0458662 2.24587e-20 0.158874 1.42253e-19 3.41487e-06)
(-0.152637 -0.0461952 1.12905e-21 0.152633 4.56356e-19 4.04942e-06)
(-0.146312 -0.0460582 -6.71287e-20 0.146308 2.0596e-20 4.6322e-06)
(-0.139907 -0.045557 -2.26423e-19 0.139902 1.54247e-19 5.16086e-06)
(-0.133602 -0.044814 2.90145e-19 0.133596 -1.33159e-20 5.63327e-06)
(-0.127361 -0.0438849 2.30501e-19 0.127355 1.10092e-19 6.04775e-06)
(-0.1213 -0.0428384 -5.91121e-20 0.121294 -1.77398e-21 6.40297e-06)
(-0.115372 -0.0417057 -3.61904e-19 0.115366 1.7775e-19 6.69791e-06)
(-0.109652 -0.0405263 -1.90734e-19 0.109645 3.70627e-21 6.93214e-06)
(-0.104095 -0.0393181 -3.62277e-20 0.104088 3.29877e-19 7.10557e-06)
(-0.0987502 -0.0381039 3.36877e-19 0.0987429 -1.68918e-19 7.2189e-06)
(-0.0935781 -0.0368948 1.17524e-19 0.0935709 1.52659e-21 7.27326e-06)
(-0.088611 -0.0357029 1.07404e-19 0.0886037 6.83931e-21 7.27065e-06)
(-0.0838176 -0.0345366 8.26487e-20 0.0838104 -7.79976e-21 7.2136e-06)
(-0.0792179 -0.0334008 -2.18232e-20 0.0792108 -1.35483e-19 7.10539e-06)
(-0.0747884 -0.0323035 1.0866e-19 0.0747815 -2.09259e-19 6.94985e-06)
(-0.0705406 -0.0312444 -1.16124e-19 0.0705339 -4.52243e-21 6.75128e-06)
(-0.0664586 -0.030232 -6.32996e-20 0.0664521 -3.27646e-19 6.51445e-06)
(-0.062547 -0.0292621 1.83314e-21 0.0625408 2.01268e-19 6.24416e-06)
(-0.0587976 -0.0283449 5.05299e-20 0.0587917 -1.30244e-19 5.94552e-06)
(-0.055209 -0.0274727 1.6538e-19 0.0552034 -1.22298e-19 5.62309e-06)
(-0.0517807 -0.0266578 -3.07035e-20 0.0517754 -6.57773e-20 5.28153e-06)
(-0.0485058 -0.0258895 -9.43567e-20 0.0485009 -1.52661e-20 4.92444e-06)
(-0.045392 -0.0251825 -2.83914e-20 0.0453874 -3.2619e-19 4.55538e-06)
(-0.042426 -0.0245233 -2.13227e-19 0.0424218 6.35973e-19 4.17667e-06)
(-0.0396259 -0.023929 -2.65072e-19 0.0396221 -4.95279e-20 3.79068e-06)
(-0.0369687 -0.023385 -1.14428e-19 0.0369653 3.54065e-19 3.39892e-06)
(-0.0344898 -0.0229053 4.44493e-19 0.0344868 1.47014e-19 3.0034e-06)
(-0.0321433 -0.0224879 -3.9001e-20 0.0321407 -2.10212e-19 2.606e-06)
(-0.0300068 -0.0221184 -1.27981e-19 0.0300046 2.47281e-19 2.20975e-06)
(-0.0279701 -0.0218482 1.37942e-19 0.0279683 -1.78948e-19 1.81809e-06)
(-0.0262132 -0.021581 -2.90131e-20 0.0262117 -4.15399e-20 1.43595e-06)
(-0.0244886 -0.0214746 2.27481e-20 0.0244875 1.60671e-20 1.06848e-06)
(-0.0231343 -0.0213491 -5.21216e-19 0.0231336 -1.08244e-19 7.22407e-07)
(-0.0218096 -0.0212879 -2.31492e-19 0.0218092 -1.42321e-19 4.03774e-07)
(-0.0206993 -0.0216938 2.62289e-19 0.0206992 5.89015e-19 1.20455e-07)
(-0.176586 -0.0402336 9.75348e-20 0.176585 1.35659e-19 4.28415e-07)
(-0.172886 -0.0456956 -2.62897e-20 0.172884 -8.05343e-20 1.2364e-06)
(-0.167982 -0.0492397 -1.76921e-20 0.16798 1.01055e-19 2.0083e-06)
(-0.162254 -0.0513184 1.43381e-19 0.162251 7.2199e-19 2.73907e-06)
(-0.156135 -0.0524046 2.36043e-19 0.156132 5.80765e-20 3.42451e-06)
(-0.149725 -0.0527172 3.02025e-21 0.149721 -4.44684e-19 4.06128e-06)
(-0.14329 -0.0525086 1.02827e-20 0.143286 -7.59659e-20 4.64633e-06)
(-0.136821 -0.0518925 1.70421e-19 0.136816 -1.56654e-19 5.17724e-06)
(-0.130488 -0.0510069 -7.25779e-20 0.130482 -3.58611e-20 5.65186e-06)
(-0.124244 -0.0499136 -1.29192e-19 0.124238 -1.539e-19 6.06844e-06)
(-0.1182 -0.0486904 2.93844e-19 0.118194 -1.22372e-19 6.42564e-06)
(-0.112304 -0.0473714 2.42794e-19 0.112297 -2.59212e-19 6.72242e-06)
(-0.106625 -0.0460015 7.07316e-20 0.106618 9.97798e-20 6.95838e-06)
(-0.101118 -0.0446003 7.96123e-20 0.101111 -4.58057e-20 7.13345e-06)
(-0.0958277 -0.0431934 -1.40556e-19 0.0958205 -3.77542e-19 7.2484e-06)
(-0.090714 -0.041793 -1.12407e-19 0.0907067 6.66616e-20 7.30441e-06)
(-0.0858076 -0.0404128 1.23717e-19 0.0858003 -3.08271e-19 7.30358e-06)
(-0.0810754 -0.0390619 -2.50661e-20 0.0810682 3.42277e-20 7.24845e-06)
(-0.0765375 -0.037746 -1.94637e-19 0.0765303 -4.70237e-19 7.14238e-06)
(-0.0721686 -0.0364737 3.75539e-19 0.0721616 5.89105e-20 6.98918e-06)
(-0.0679807 -0.0352445 1.02508e-19 0.0679739 -8.45967e-20 6.79317e-06)
(-0.0639562 -0.0340683 7.2795e-20 0.0639497 5.06717e-20 6.55904e-06)
(-0.0601007 -0.0329398 -2.03339e-19 0.0600944 1.68414e-19 6.29153e-06)
(-0.0564042 -0.0318709 1.93729e-20 0.0563982 7.1174e-20 5.9956e-06)
(-0.0528665 -0.0308523 1.34858e-19 0.0528608 1.43465e-19 5.67571e-06)
(-0.0494855 -0.0298985 1.89293e-19 0.0494802 -3.13303e-19 5.3363e-06)
(-0.0462552 -0.0289964 -2.66934e-19 0.0462503 2.45024e-19 4.98091e-06)
(-0.043182 -0.0281641 9.41214e-19 0.0431774 -5.58517e-19 4.61286e-06)
(-0.0402535 -0.0273839 3.22553e-19 0.0402492 4.96212e-19 4.23444e-06)
(-0.0374863 -0.0266786 -2.40816e-19 0.0374825 -5.78996e-19 3.84786e-06)
(-0.0348579 -0.0260263 -2.63682e-19 0.0348544 4.98791e-19 3.45466e-06)
(-0.0324036 -0.0254517 -5.98386e-19 0.0324006 -5.15335e-20 3.05677e-06)
(-0.0300745 -0.0249369 8.249e-20 0.0300718 1.99559e-19 2.6562e-06)
(-0.0279547 -0.0244923 1.11002e-19 0.0279524 2.84902e-19 2.25596e-06)
(-0.0259191 -0.0241315 -3.34346e-19 0.0259172 1.55758e-19 1.8596e-06)
(-0.0241737 -0.023814 -4.17113e-19 0.0241723 1.91599e-20 1.47218e-06)
(-0.0224301 -0.0236244 3.69171e-19 0.022429 3.00346e-19 1.09878e-06)
(-0.0210802 -0.0234703 -2.06668e-19 0.0210795 2.89441e-19 7.46284e-07)
(-0.0197335 -0.0233563 6.42379e-19 0.0197331 -1.90088e-19 4.20193e-07)
(-0.0185834 -0.0237358 -5.15674e-19 0.0185833 1.10977e-19 1.27502e-07)
(-0.175539 -0.045654 1.21762e-19 0.175538 -9.92775e-20 4.29794e-07)
(-0.17105 -0.0515793 1.3701e-19 0.171049 -7.54923e-20 1.24029e-06)
(-0.165578 -0.0553979 2.38291e-19 0.165576 -7.24529e-20 2.01458e-06)
(-0.15945 -0.0576077 1.24534e-19 0.159448 -7.15191e-19 2.74775e-06)
(-0.153052 -0.0587294 -4.74397e-19 0.153049 -4.98066e-19 3.43562e-06)
(-0.146455 -0.0590032 -2.541e-20 0.146451 1.77381e-19 4.07487e-06)
(-0.1399 -0.0587073 2.81659e-20 0.139895 2.45237e-19 4.66239e-06)
(-0.133363 -0.0579657 -1.63124e-19 0.133357 3.12068e-20 5.19576e-06)
(-0.126999 -0.0569308 2.49073e-19 0.126993 3.39884e-19 5.67275e-06)
(-0.120754 -0.0556696 2.64426e-19 0.120748 -4.61169e-19 6.09159e-06)
(-0.11473 -0.0542681 -3.18513e-19 0.114724 3.18375e-19 6.45089e-06)
(-0.108871 -0.0527631 -6.33937e-20 0.108864 -2.78152e-19 6.74963e-06)
(-0.103241 -0.0512043 -8.23868e-21 0.103234 8.24359e-20 6.9874e-06)
(-0.0977905 -0.0496124 -2.7237e-19 0.0977833 -7.07736e-20 7.16418e-06)
(-0.0925632 -0.048016 3.24453e-19 0.092556 2.51491e-19 7.28078e-06)
(-0.0875162 -0.046428 1.88143e-19 0.0875088 -1.97483e-19 7.33845e-06)
(-0.0826789 -0.0448636 -9.7392e-20 0.0826716 4.43602e-19 7.33934e-06)
(-0.0780167 -0.0433324 8.04933e-20 0.0780094 -2.39901e-19 7.28605e-06)
(-0.0735491 -0.0418406 -2.53932e-19 0.0735419 2.55482e-19 7.18199e-06)
(-0.0692493 -0.0403977 3.17741e-19 0.0692423 -1.87508e-21 7.03099e-06)
(-0.0651296 -0.0390029 -3.20979e-20 0.0651228 -2.01006e-19 6.83735e-06)
(-0.0611709 -0.0376669 1.67433e-19 0.0611643 -6.26502e-20 6.60576e-06)
(-0.0573793 -0.036384 1.43249e-19 0.0573729 -1.51083e-19 6.34086e-06)
(-0.0537434 -0.0351672 -5.78217e-20 0.0537373 -2.97042e-20 6.04755e-06)
(-0.0502639 -0.0340059 -3.42219e-19 0.0502581 1.98138e-19 5.73013e-06)
(-0.0469369 -0.0329165 2.56659e-19 0.0469315 -5.4634e-19 5.39296e-06)
(-0.043758 -0.0318838 -5.88299e-19 0.043753 1.48277e-19 5.03933e-06)
(-0.0407311 -0.0309287 -1.12074e-19 0.0407265 1.87775e-19 4.67251e-06)
(-0.0378462 -0.0300302 2.40474e-19 0.037842 3.81277e-20 4.29455e-06)
(-0.0351167 -0.0292158 -9.59534e-20 0.0351128 -2.82102e-19 3.90767e-06)
(-0.0325232 -0.0284573 6.39474e-19 0.0325197 1.82275e-19 3.51318e-06)
(-0.0300965 -0.0277895 1.91251e-19 0.0300934 -2.7207e-19 3.11315e-06)
(-0.0277924 -0.0271788 -4.81675e-20 0.0277897 6.08701e-19 2.70938e-06)
(-0.0256888 -0.0266631 2.84963e-19 0.0256865 -7.61238e-19 2.30518e-06)
(-0.0236653 -0.0262108 -1.66615e-19 0.0236634 5.5403e-19 1.90388e-06)
(-0.0219262 -0.0258554 3.77694e-20 0.0219247 -1.85875e-19 1.5109e-06)
(-0.0201731 -0.0255731 2.46604e-19 0.020172 5.03332e-19 1.13102e-06)
(-0.0188271 -0.0254168 -9.59045e-19 0.0188263 -3.55699e-19 7.71432e-07)
(-0.0174465 -0.0252276 -3.74e-19 0.0174461 1.53423e-19 4.36857e-07)
(-0.016291 -0.0256035 4.80571e-19 0.0162909 3.78952e-19 1.34171e-07)
(-0.174346 -0.051074 -8.98265e-20 0.174345 6.69025e-19 4.31392e-07)
(-0.169 -0.057374 -1.53335e-19 0.168999 3.03779e-19 1.24473e-06)
(-0.16291 -0.0614015 -3.62267e-19 0.162908 9.10886e-20 2.02174e-06)
(-0.156349 -0.0636951 5.534e-21 0.156346 5.21886e-19 2.75759e-06)
(-0.149648 -0.064818 5.72333e-19 0.149644 6.70216e-19 3.44815e-06)
(-0.142849 -0.0650284 1.98457e-19 0.142845 2.55542e-19 4.09008e-06)
(-0.136165 -0.064628 -3.38083e-20 0.13616 -1.09665e-19 4.68028e-06)
(-0.129556 -0.0637493 2.54364e-19 0.12955 -3.05747e-19 5.21627e-06)
(-0.123161 -0.0625578 -4.0112e-19 0.123155 -2.9067e-19 5.69579e-06)
(-0.116918 -0.0611248 -1.81295e-19 0.116911 2.26057e-19 6.11702e-06)
(-0.110918 -0.0595434 3.42694e-19 0.110912 4.92053e-19 6.47855e-06)
(-0.105101 -0.0578528 -1.97478e-19 0.105094 4.32596e-19 6.77933e-06)
(-0.0995259 -0.0561068 2.12196e-19 0.0995189 2.93389e-19 7.019e-06)
(-0.0941394 -0.0543272 4.44472e-20 0.0941322 2.86226e-19 7.19754e-06)
(-0.0889829 -0.0525449 -4.48437e-19 0.0889756 5.88558e-20 7.31583e-06)
(-0.0840104 -0.0507735 1.57442e-19 0.0840031 -8.47652e-20 7.37514e-06)
(-0.0792507 -0.0490293 6.5691e-20 0.0792433 -2.13464e-21 7.37771e-06)
(-0.0746665 -0.0473226 -9.55494e-20 0.0746592 -2.80813e-19 7.32617e-06)
(-0.0702775 -0.0456599 -8.3801e-20 0.0702703 -2.36367e-19 7.22401e-06)
(-0.066055 -0.0440511 -1.94728e-19 0.0660479 3.93652e-19 7.07506e-06)
(-0.0620115 -0.0424956 4.33726e-20 0.0620046 1.16058e-20 6.88368e-06)
(-0.0581262 -0.0410048 -3.68746e-20 0.0581196 3.63712e-19 6.65448e-06)
(-0.0544063 -0.0395721 -5.74524e-20 0.0543999 -1.02461e-19 6.39213e-06)
(-0.0508382 -0.0382118 4.85891e-19 0.0508321 1.1942e-19 6.10136e-06)
(-0.0474241 -0.036912 -4.66767e-19 0.0474183 2.43569e-19 5.78646e-06)
(-0.0441579 -0.0356911 8.90566e-20 0.0441524 -1.09738e-19 5.45156e-06)
(-0.041037 -0.0345316 4.53868e-19 0.0410319 5.97206e-19 5.09991e-06)
(-0.0380626 -0.0334573 5.01363e-19 0.0380579 1.76291e-19 4.73451e-06)
(-0.0352271 -0.0324439 -1.54875e-19 0.0352228 4.21449e-19 4.35737e-06)
(-0.0325404 -0.0315236 -5.18145e-19 0.0325365 4.8422e-19 3.97046e-06)
(-0.0299868 -0.0306619 -2.26789e-19 0.0299833 7.69897e-20 3.57514e-06)
(-0.0275914 -0.0299035 4.70675e-20 0.0275883 -1.80246e-20 3.17327e-06)
(-0.0253169 -0.0291997 -3.14321e-19 0.0253141 -9.32944e-21 2.76678e-06)
(-0.0232302 -0.0286135 1.28478e-19 0.0232279 -2.14263e-19 2.35883e-06)
(-0.0212258 -0.028074 4.11398e-19 0.0212238 2.96734e-19 1.9529e-06)
(-0.019487 -0.0276764 -4.42567e-19 0.0194854 -3.5536e-19 1.55435e-06)
(-0.0177404 -0.0273121 6.97416e-19 0.0177393 3.96314e-20 1.16792e-06)
(-0.0163808 -0.0271397 -2.32336e-19 0.01638 -1.31277e-19 8.00657e-07)
(-0.0149951 -0.0268976 1.01059e-18 0.0149947 5.38788e-19 4.56822e-07)
(-0.0138005 -0.0272467 -6.04557e-19 0.0138004 -3.34945e-19 1.42335e-07)
(-0.173004 -0.0564917 6.36179e-20 0.173003 -4.34463e-19 4.33145e-07)
(-0.16674 -0.0630703 1.14569e-21 0.166739 -5.3076e-19 1.24963e-06)
(-0.15999 -0.0672361 2.15926e-19 0.159988 1.94339e-19 2.02962e-06)
(-0.152967 -0.0695622 1.17336e-19 0.152964 -3.8849e-20 2.76836e-06)
(-0.145943 -0.0706487 -7.62398e-19 0.14594 -1.13599e-19 3.46178e-06)
(-0.138931 -0.0707694 -2.17614e-20 0.138927 -8.40332e-19 4.10655e-06)
(-0.132112 -0.0702458 -2.74207e-19 0.132107 -3.79383e-20 4.69955e-06)
(-0.125428 -0.0692177 -1.27326e-19 0.125422 -2.67556e-19 5.23826e-06)
(-0.119003 -0.0678618 5.55647e-19 0.118997 6.0719e-19 5.72036e-06)
(-0.112763 -0.0662525 5.69094e-19 0.112757 -1.3293e-20 6.14403e-06)
(-0.106793 -0.0644898 -4.48115e-20 0.106786 -3.90933e-20 6.50781e-06)
(-0.101022 -0.062614 6.67925e-20 0.101016 -7.93379e-19 6.81066e-06)
(-0.0955091 -0.0606828 -2.03621e-19 0.095502 1.31463e-19 7.05221e-06)
(-0.0901936 -0.0587185 -4.65374e-20 0.0901864 -7.00648e-19 7.23249e-06)
(-0.0851152 -0.0567544 1.09909e-19 0.0851079 -9.40746e-20 7.35239e-06)
(-0.080225 -0.0548041 -7.60966e-21 0.0802176 -1.47475e-19 7.41326e-06)
(-0.0755504 -0.0528853 -1.33748e-19 0.075543 1.68591e-19 7.41737e-06)
(-0.0710522 -0.0510082 -1.14311e-19 0.0710448 -1.84979e-19 7.36742e-06)