/*--------------------------------*- C++ -*----------------------------------*\
| =========                 |                                                 |
| \\      /  F ield         | foam-extend: Open Source CFD                    |
|  \\    /   O peration     | Version:  3.0                                   |
|   \\  /    A nd           | Web:         http://www.extend-project.de       |
|    \\/     M anipulation  |                                                 |
\*---------------------------------------------------------------------------*/
FoamFile
{
    version     2.0;
    format      ascii;
    class       volScalarField;
    location    "50";
    object      p;
}
// * * * * * * * * * * * * * * * * * * * * * * * * * * * * * * * * * * * * * //

dimensions      [0 0 0 0 0 0 0];

internalField   nonuniform List<scalar> 
7680
(
-0.225869
-0.213692
-0.20458
-0.194961
-0.1879
-0.180164
-0.174625
-0.168319
-0.163937
-0.158742
-0.155257
-0.150941
-0.14816
-0.144549
-0.142326
-0.139286
-0.137506
-0.134931
-0.133502
-0.131309
-0.130155
-0.128274
-0.12733
-0.125703
-0.124915
-0.123491
-0.122809
-0.121543
-0.120922
-0.119773
-0.119168
-0.118098
-0.117469
-0.116439
-0.115743
-0.114717
-0.113913
-0.112857
-0.111906
-0.110796
-0.224959
-0.212853
-0.203793
-0.194226
-0.187202
-0.179506
-0.173994
-0.167718
-0.163356
-0.158182
-0.154712
-0.15041
-0.147638
-0.144035
-0.141817
-0.138778
-0.136998
-0.134421
-0.132987
-0.130786
-0.129623
-0.12773
-0.126774
-0.12513
-0.124327
-0.122884
-0.122184
-0.120897
-0.120256
-0.119087
-0.118463
-0.117374
-0.116727
-0.115682
-0.114973
-0.113938
-0.113128
-0.11207
-0.111123
-0.110022
-0.225293
-0.21317
-0.204099
-0.194524
-0.187495
-0.179795
-0.174283
-0.168007
-0.163648
-0.158479
-0.155012
-0.150719
-0.147954
-0.144361
-0.142151
-0.139127
-0.137356
-0.134795
-0.133373
-0.13119
-0.13004
-0.128166
-0.127224
-0.125601
-0.124812
-0.123389
-0.122704
-0.121437
-0.12081
-0.119657
-0.119046
-0.117969
-0.117331
-0.116293
-0.115588
-0.114551
-0.113737
-0.112666
-0.111703
-0.110578
-0.223909
-0.211884
-0.202885
-0.193383
-0.186409
-0.178766
-0.173295
-0.167063
-0.162736
-0.1576
-0.154159
-0.149889
-0.147144
-0.143568
-0.141371
-0.138356
-0.136594
-0.134035
-0.132617
-0.130429
-0.129278
-0.127393
-0.126446
-0.124806
-0.124007
-0.122563
-0.121865
-0.120573
-0.11993
-0.118752
-0.118124
-0.117023
-0.116369
-0.115311
-0.114593
-0.113543
-0.112722
-0.111648
-0.110685
-0.109568
-0.223761
-0.211745
-0.202754
-0.193264
-0.186298
-0.178668
-0.173207
-0.166989
-0.162672
-0.157552
-0.154121
-0.149869
-0.147132
-0.143576
-0.141388
-0.138395
-0.136642
-0.134107
-0.132698
-0.130536
-0.129396
-0.127539
-0.126604
-0.124993
-0.124207
-0.122793
-0.122109
-0.120847
-0.120218
-0.119068
-0.118455
-0.117379
-0.116739
-0.1157
-0.114993
-0.113953
-0.113137
-0.112061
-0.111094
-0.109951
-0.221911
-0.21002
-0.201121
-0.191725
-0.18483
-0.177274
-0.171868
-0.165709
-0.161437
-0.156363
-0.152968
-0.148751
-0.146044
-0.142514
-0.140351
-0.137374
-0.135642
-0.133115
-0.131721
-0.12956
-0.12843
-0.126566
-0.125636
-0.124012
-0.123227
-0.121793
-0.121104
-0.119818
-0.119183
-0.118006
-0.117383
-0.11628
-0.11563
-0.114569
-0.113853
-0.112799
-0.111979
-0.1109
-0.109931
-0.108794
-0.221277
-0.209421
-0.200549
-0.191185
-0.184313
-0.176786
-0.1714
-0.165268
-0.161012
-0.155964
-0.152583
-0.148393
-0.145697
-0.142193
-0.140039
-0.13709
-0.135365
-0.132868
-0.131481
-0.129351
-0.128228
-0.126398
-0.125475
-0.123886
-0.123109
-0.121712
-0.121034
-0.119786
-0.119162
-0.118023
-0.117413
-0.116346
-0.115711
-0.114679
-0.113979
-0.112946
-0.112137
-0.111063
-0.110097
-0.108931
-0.218972
-0.207265
-0.198505
-0.189256
-0.182471
-0.175035
-0.169719
-0.16366
-0.159461
-0.154473
-0.15114
-0.146997
-0.144343
-0.140876
-0.138758
-0.135837
-0.134143
-0.131664
-0.130305
-0.128185
-0.127085
-0.125256
-0.124352
-0.122757
-0.121996
-0.120586
-0.119918
-0.118651
-0.118034
-0.116872
-0.116266
-0.115175
-0.114542
-0.113489
-0.112789
-0.111742
-0.110934
-0.109857
-0.108892
-0.107738
-0.217852
-0.206205
-0.197491
-0.188293
-0.181545
-0.174154
-0.168867
-0.162848
-0.158672
-0.153719
-0.150403
-0.146294
-0.143652
-0.140218
-0.138108
-0.135219
-0.13353
-0.131084
-0.129726
-0.127641
-0.126542
-0.124749
-0.123846
-0.12229
-0.121529
-0.12016
-0.119496
-0.118271
-0.11766
-0.116542
-0.115944
-0.114895
-0.114273
-0.113258
-0.112572
-0.111554
-0.11076
-0.109696
-0.108739
-0.107564
-0.215103
-0.203629
-0.195046
-0.185983
-0.179338
-0.172054
-0.166851
-0.16092
-0.156815
-0.151935
-0.14868
-0.14463
-0.142043
-0.138657
-0.136596
-0.133746
-0.132102
-0.129686
-0.128371
-0.126307
-0.125246
-0.123467
-0.1226
-0.121049
-0.120322
-0.118952
-0.118317
-0.117086
-0.1165
-0.11537
-0.114795
-0.113733
-0.113129
-0.112101
-0.11143
-0.110404
-0.109621
-0.108558
-0.107609
-0.106452
-0.213497
-0.202109
-0.19359
-0.184598
-0.178003
-0.17078
-0.165615
-0.159736
-0.155659
-0.150824
-0.14759
-0.14358
-0.141005
-0.137657
-0.135602
-0.132787
-0.131144
-0.128762
-0.127443
-0.125414
-0.124347
-0.122605
-0.121729
-0.120217
-0.119481
-0.118153
-0.117511
-0.116323
-0.115734
-0.11465
-0.114075
-0.113057
-0.112459
-0.111473
-0.110812
-0.109821
-0.109051
-0.108011
-0.107076
-0.10592
-0.210317
-0.199125
-0.190755
-0.181917
-0.175441
-0.168342
-0.163275
-0.157498
-0.153506
-0.148756
-0.145595
-0.141658
-0.13915
-0.135863
-0.13387
-0.131107
-0.129523
-0.127185
-0.125922
-0.123929
-0.122917
-0.121203
-0.120381
-0.118891
-0.118208
-0.116895
-0.116305
-0.115128
-0.114588
-0.11351
-0.112981
-0.111967
-0.11141
-0.110427
-0.109801
-0.108815
-0.108073
-0.107042
-0.106128
-0.104995
-0.208229
-0.197149
-0.188861
-0.180113
-0.1737
-0.166676
-0.161657
-0.155943
-0.151984
-0.147289
-0.144151
-0.14026
-0.137765
-0.134519
-0.13253
-0.129804
-0.128216
-0.125913
-0.12464
-0.122681
-0.121654
-0.119974
-0.119135
-0.117681
-0.116979
-0.115704
-0.115096
-0.11396
-0.113406
-0.112371
-0.111834
-0.110864
-0.110305
-0.109365
-0.108744
-0.107797
-0.107068
-0.106071
-0.105179
-0.104071
-0.204633
-0.19377
-0.185648
-0.177073
-0.170794
-0.16391
-0.159002
-0.153405
-0.149543
-0.144946
-0.141894
-0.138089
-0.135673
-0.1325
-0.130587
-0.127925
-0.12641
-0.124163
-0.122962
-0.121053
-0.120098
-0.118462
-0.117695
-0.11628
-0.115651
-0.114412
-0.113877
-0.112773
-0.112292
-0.111286
-0.110819
-0.109877
-0.109384
-0.10847
-0.107907
-0.106984
-0.106303
-0.105329
-0.104473
-0.103393
-0.20207
-0.191342
-0.183321
-0.174855
-0.168651
-0.161857
-0.157006
-0.151483
-0.147661
-0.143126
-0.1401
-0.136347
-0.133944
-0.130816
-0.128904
-0.126282
-0.124758
-0.122546
-0.121328
-0.119451
-0.118473
-0.116868
-0.116073
-0.11469
-0.114032
-0.112825
-0.112263
-0.111194
-0.110689
-0.109722
-0.109237
-0.108336
-0.107834
-0.106963
-0.106403
-0.105523
-0.104856
-0.103925
-0.103098
-0.102063
-0.198073
-0.187583
-0.179744
-0.171468
-0.165412
-0.158774
-0.154046
-0.148654
-0.14494
-0.140517
-0.137588
-0.133933
-0.13162
-0.128579
-0.126753
-0.124208
-0.122769
-0.120627
-0.119494
-0.117681
-0.116788
-0.115243
-0.114536
-0.113208
-0.112639
-0.111487
-0.111015
-0.11
-0.109587
-0.108673
-0.10828
-0.107431
-0.107018
-0.106197
-0.105718
-0.104883
-0.104285
-0.10339
-0.102613
-0.101608
-0.195043
-0.184712
-0.176991
-0.168843
-0.162876
-0.156341
-0.151679
-0.146372
-0.142704
-0.138352
-0.135452
-0.131854
-0.129556
-0.126562
-0.124738
-0.122232
-0.120782
-0.118674
-0.11752
-0.115736
-0.114814
-0.113295
-0.112553
-0.111251
-0.110645
-0.109518
-0.109011
-0.108023
-0.107579
-0.106697
-0.106281
-0.105469
-0.105044
-0.104264
-0.103786
-0.102997
-0.102416
-0.101571
-0.10083
-0.0998824
-0.190662
-0.180587
-0.173065
-0.165122
-0.159316
-0.152951
-0.148426
-0.143262
-0.139713
-0.135484
-0.132692
-0.129203
-0.127005
-0.124109
-0.122381
-0.119965
-0.118609
-0.116583
-0.115523
-0.113815
-0.112988
-0.111542
-0.110896
-0.109664
-0.109156
-0.108099
-0.107692
-0.106774
-0.106433
-0.105622
-0.105311
-0.10457
-0.104248
-0.103538
-0.103157
-0.102431
-0.101933
-0.101136
-0.100454
-0.0995329
-0.187176
-0.177284
-0.169896
-0.162099
-0.156395
-0.150148
-0.145698
-0.14063
-0.137133
-0.132983
-0.130224
-0.126799
-0.124618
-0.121774
-0.120047
-0.117672
-0.116304
-0.114311
-0.113227
-0.111546
-0.110686
-0.109262
-0.108577
-0.107364
-0.106814
-0.105775
-0.105327
-0.10443
-0.104052
-0.103266
-0.102928
-0.102219
-0.101884
-0.101214
-0.100837
-0.100158
-0.0996834
-0.098941
-0.0983011
-0.0974405
-0.182428
-0.172811
-0.165636
-0.158059
-0.152529
-0.146465
-0.142161
-0.137248
-0.13388
-0.129864
-0.127221
-0.123916
-0.121843
-0.119107
-0.117484
-0.115207
-0.113941
-0.112039
-0.111056
-0.10946
-0.108699
-0.107356
-0.10677
-0.105636
-0.105185
-0.104223
-0.103874
-0.103055
-0.102778
-0.102071
-0.101836
-0.101208
-0.100976
-0.100386
-0.100108
-0.0995025
-0.0991146
-0.0984264
-0.0978489
-0.0970091
-0.1785
-0.169088
-0.162065
-0.154652
-0.149236
-0.143303
-0.139084
-0.134278
-0.13097
-0.127041
-0.124437
-0.121202
-0.119149
-0.116469
-0.114849
-0.112617
-0.11134
-0.109472
-0.108466
-0.106896
-0.106101
-0.104777
-0.10415
-0.103029
-0.102534
-0.101583
-0.10119
-0.100382
-0.100066
-0.0993747
-0.0991109
-0.0985075
-0.0982632
-0.0977098
-0.0974399
-0.0968831
-0.0965243
-0.0958942
-0.095364
-0.0945846
-0.173406
-0.164284
-0.157486
-0.150308
-0.145076
-0.139338
-0.135274
-0.130635
-0.127462
-0.123678
-0.121198
-0.118091
-0.116152
-0.113588
-0.112078
-0.109952
-0.10878
-0.10701
-0.106105
-0.104627
-0.103931
-0.102692
-0.10216
-0.101119
-0.100714
-0.0998398
-0.0995345
-0.0988004
-0.0985704
-0.097953
-0.0977745
-0.0972465
-0.0970889
-0.0966119
-0.0964294
-0.0959448
-0.095668
-0.0950933
-0.094625
-0.0938622
-0.169051
-0.160157
-0.153527
-0.146529
-0.141424
-0.135832
-0.131863
-0.127341
-0.124237
-0.120548
-0.118113
-0.115083
-0.113171
-0.110668
-0.109166
-0.107088
-0.10591
-0.104177
-0.103252
-0.1018
-0.101074
-0.0998511
-0.0992805
-0.0982487
-0.0978
-0.0969292
-0.0965776
-0.0958453
-0.0955718
-0.0949592
-0.0947466
-0.0942328
-0.094058
-0.093611
-0.0934352
-0.0929997
-0.0927562
-0.0922447
-0.09183
-0.0911281
-0.163629
-0.155039
-0.148647
-0.141897
-0.136986
-0.131599
-0.127793
-0.123447
-0.120485
-0.116949
-0.114642
-0.111748
-0.109954
-0.107574
-0.106185
-0.104218
-0.103147
-0.101516
-0.100692
-0.0993327
-0.0987011
-0.0975631
-0.0970787
-0.0961226
-0.0957509
-0.0949471
-0.0946631
-0.0939902
-0.0937763
-0.0932181
-0.0930606
-0.0926004
-0.0924819
-0.0920917
-0.0919787
-0.0916041
-0.0914303
-0.0909744
-0.0906238
-0.0899426
-0.158867
-0.150526
-0.144317
-0.137764
-0.132993
-0.127765
-0.124064
-0.119846
-0.116961
-0.11353
-0.111276
-0.108467
-0.106706
-0.104394
-0.10302
-0.101108
-0.100037
-0.0984463
-0.0976107
-0.0962801
-0.0956251
-0.0945046
-0.0939867
-0.0930376
-0.0926239
-0.0918177
-0.0914853
-0.0908034
-0.0905383
-0.08997
-0.0897651
-0.089302
-0.0891499
-0.0887754
-0.0886552
-0.0883249
-0.0881805
-0.0877964
-0.0875088
-0.0869003
-0.153138
-0.145115
-0.139154
-0.13286
-0.128291
-0.123277
-0.119747
-0.115712
-0.112974
-0.109702
-0.10758
-0.104912
-0.103273
-0.101088
-0.0998272
-0.0980303
-0.0970651
-0.0955796
-0.0948417
-0.0936051
-0.093038
-0.0919994
-0.0915573
-0.0906763
-0.0903235
-0.0895703
-0.089282
-0.0886379
-0.088401
-0.0878575
-0.087669
-0.0872243
-0.0870863
-0.0867343
-0.0866401
-0.0863488
-0.0862559
-0.0859306
-0.0857187
-0.0851557
-0.147988
-0.140234
-0.134473
-0.128391
-0.123974
-0.119132
-0.115717
-0.111822
-0.10917
-0.106012
-0.103952
-0.101377
-0.09978
-0.0976707
-0.0964352
-0.0946992
-0.0937449
-0.0923069
-0.0915673
-0.0903655
-0.0897853
-0.0887685
-0.0883017
-0.0874288
-0.0870392
-0.0862799
-0.085942
-0.0852784
-0.0849795
-0.0844072
-0.0841489
-0.0836754
-0.0834708
-0.0831068
-0.0829689
-0.0827046
-0.0826167
-0.082374
-0.0822338
-0.081787
-0.141975
-0.134551
-0.129047
-0.123234
-0.119025
-0.114407
-0.111166
-0.10746
-0.104959
-0.101965
-0.100039
-0.0976092
-0.0961334
-0.094155
-0.0930318
-0.0914141
-0.0905635
-0.0892321
-0.088587
-0.0874792
-0.0869817
-0.086044
-0.0856446
-0.084833
-0.084491
-0.0837716
-0.0834578
-0.08281
-0.0825101
-0.0819298
-0.0816482
-0.0811496
-0.0809101
-0.0805201
-0.0803571
-0.080094
-0.0800234
-0.0798411
-0.079791
-0.0794582
-0.13646
-0.129323
-0.124033
-0.118448
-0.114404
-0.10997
-0.106855
-0.103299
-0.100894
-0.0980231
-0.0961685
-0.093841
-0.0924172
-0.0905234
-0.0894363
-0.0878884
-0.087061
-0.0857863
-0.0851531
-0.0840893
-0.0835928
-0.0826856
-0.082275
-0.081478
-0.0811095
-0.0803859
-0.0800257
-0.0793523
-0.0789817
-0.0783549
-0.0779771
-0.0774181
-0.0770643
-0.0766193
-0.0763463
-0.0760694
-0.0759367
-0.0758341
-0.0758341
-0.07572
-0.130185
-0.123391
-0.118365
-0.113057
-0.109227
-0.105022
-0.102084
-0.0987222
-0.0964685
-0.0937661
-0.0920449
-0.0898657
-0.0885624
-0.0868014
-0.0858248
-0.0843969
-0.0836712
-0.0825044
-0.0819635
-0.0809947
-0.0805785
-0.0797507
-0.0794043
-0.0786667
-0.0783409
-0.0776511
-0.0773059
-0.0766347
-0.076246
-0.0755859
-0.0751552
-0.0745301
-0.074095
-0.0735672
-0.0732063
-0.0728688
-0.0726858
-0.0726162
-0.0726775
-0.0727948
-0.124328
-0.117838
-0.113042
-0.107976
-0.104322
-0.100313
-0.0975115
-0.0943101
-0.0921618
-0.089592
-0.0879521
-0.0858839
-0.0846431
-0.0829759
-0.0820474
-0.0806994
-0.0800106
-0.0789119
-0.0783987
-0.0774866
-0.0770893
-0.0763058
-0.0759674
-0.0752583
-0.0749244
-0.0742421
-0.0738644
-0.0731732
-0.0727172
-0.0720041
-0.0714614
-0.0707509
-0.0701562
-0.0695254
-0.0689718
-0.0685556
-0.0681929
-0.068155
-0.0681512
-0.0686047
-0.117817
-0.111679
-0.107153
-0.102372
-0.0989346
-0.0951599
-0.0925371
-0.0895331
-0.087536
-0.0851361
-0.083628
-0.081709
-0.0805861
-0.0790523
-0.0782315
-0.0770042
-0.076415
-0.0754257
-0.0750039
-0.0741897
-0.0738742
-0.0731747
-0.0729048
-0.0722615
-0.0719772
-0.0713353
-0.0709807
-0.0702956
-0.0698269
-0.069076
-0.0684763
-0.0676785
-0.0669806
-0.0662216
-0.0655334
-0.0649863
-0.064503
-0.0644208
-0.0643907
-0.0650819
-0.111642
-0.105827
-0.101543
-0.0970179
-0.0937674
-0.0901999
-0.0877231
-0.0848891
-0.0830066
-0.0807483
-0.0793308
-0.0775316
-0.0764815
-0.0750508
-0.07429
-0.0731531
-0.072615
-0.0717062
-0.0713294
-0.0705872
-0.0703115
-0.0696749
-0.069438
-0.0688454
-0.0685819
-0.0679724
-0.0676163
-0.0669357
-0.0664278
-0.0656418
-0.0649457
-0.0640639
-0.0631947
-0.0623066
-0.0613721
-0.0606917
-0.0599339
-0.0598199
-0.0596109
-0.0605446
-0.104921
-0.0994658
-0.0954573
-0.0912222
-0.0881909
-0.084861
-0.0825626
-0.0799275
-0.0781942
-0.0761059
-0.0748167
-0.073166
-0.0722295
-0.0709312
-0.070274
-0.0692573
-0.0688157
-0.0680178
-0.0677322
-0.0670923
-0.0669028
-0.0663594
-0.066202
-0.0656903
-0.0654958
-0.0649487
-0.0646439
-0.0639969
-0.0635114
-0.0627156
-0.0619985
-0.0610473
-0.0601001
-0.0590756
-0.0580115
-0.0571579
-0.0562912
-0.0560844
-0.0559883
-0.0569286
-0.0984556
-0.0933387
-0.0895842
-0.0856177
-0.0827835
-0.0796711
-0.0775275
-0.0750712
-0.0734609
-0.0715221
-0.0703322
-0.068809
-0.0679549
-0.066768
-0.0661816
-0.0652652
-0.0648879
-0.0641826
-0.0639588
-0.0634069
-0.063279
-0.0628201
-0.0627247
-0.0622928
-0.0621576
-0.061681
-0.0614244
-0.060829
-0.0603649
-0.0595861
-0.0588374
-0.0578471
-0.0567784
-0.055639
-0.0543242
-0.0532914
-0.0520503
-0.0517351
-0.0513591
-0.0526696
-0.0915505
-0.0868016
-0.0833263
-0.0796538
-0.0770395
-0.0741665
-0.0721997
-0.0699422
-0.0684773
-0.0667069
-0.0656401
-0.0642627
-0.063516
-0.0624585
-0.0619696
-0.0611711
-0.0608857
-0.060291
-0.0601573
-0.0597117
-0.059675
-0.05932
-0.0593185
-0.0589883
-0.0589496
-0.0585696
-0.0584089
-0.0578972
-0.0575195
-0.0567961
-0.0561074
-0.0551182
-0.0540544
-0.0528238
-0.0514147
-0.0501558
-0.0486553
-0.0480095
-0.0471843
-0.0488192
-0.0848224
-0.0804258
-0.0772155
-0.0738229
-0.0714148
-0.0687683
-0.0669641
-0.0648931
-0.0635585
-0.0619444
-0.0609841
-0.0597406
-0.0590839
-0.0581444
-0.0577352
-0.0570444
-0.056834
-0.0563419
-0.0562838
-0.0559401
-0.0559843
-0.0557343
-0.0558229
-0.0556032
-0.0556658
-0.0554015
-0.0553513
-0.0549555
-0.054689
-0.0540682
-0.05347
-0.0525437
-0.0515058
-0.0502531
-0.048718
-0.0472864
-0.0453299
-0.0443225
-0.0424246
-0.0442857
-0.0777626
-0.0737402
-0.0708112
-0.0677155
-0.0655266
-0.0631199
-0.0614894
-0.0596155
-0.0584211
-0.056972
-0.0561277
-0.0550253
-0.0544676
-0.0536522
-0.0533314
-0.0527537
-0.0526273
-0.0522425
-0.0522696
-0.052033
-0.0521693
-0.0520312
-0.0522246
-0.0521261
-0.0523113
-0.0521803
-0.0522743
-0.0520229
-0.0519212
-0.0514478
-0.0510273
-0.0502306
-0.0493671
-0.0481891
-0.0468133
-0.0453472
-0.0435928
-0.0423249
-0.04086
-0.0410209
-0.0707998
-0.0671428
-0.0644887
-0.0616829
-0.059708
-0.0575357
-0.0560745
-0.0543933
-0.0533351
-0.0520474
-0.0513152
-0.0503511
-0.0498888
-0.0491954
-0.0489599
-0.0484942
-0.0484492
-0.0481725
-0.0482834
-0.0481571
-0.0483866
-0.0483674
-0.0486711
-0.0487067
-0.0490273
-0.0490514
-0.0493134
-0.049241
-0.0493453
-0.049071
-0.048893
-0.0482981
-0.0477009
-0.0466857
-0.0455732
-0.0441485
-0.0426287
-0.041092
-0.0397859
-0.0384064
-0.0636157
-0.0603375
-0.0579655
-0.0554581
-0.0537005
-0.051767
-0.0504751
-0.0489879
-0.0480632
-0.0469355
-0.0463103
-0.0454806
-0.0451066
-0.0445292
-0.0443702
-0.0440088
-0.0440354
-0.043858
-0.0440429
-0.0440178
-0.044332
-0.0444239
-0.0448321
-0.0449973
-0.0454524
-0.0456334
-0.0460705
-0.0461896
-0.0465178
-0.0464707
-0.0465654
-0.0462196
-0.0459197
-0.0451271
-0.0442464
-0.042894
-0.0412714
-0.0394263
-0.037083
-0.0355483
-0.0564475
-0.0535464
-0.0514579
-0.049249
-0.0477121
-0.0460194
-0.0449022
-0.0436125
-0.0428284
-0.0418655
-0.0413559
-0.0406667
-0.0403908
-0.0399366
-0.0398647
-0.0396154
-0.0397244
-0.0396545
-0.0399239
-0.040009
-0.0404177
-0.0406306
-0.0411536
-0.0414603
-0.0420633
-0.042417
-0.0430508
-0.0433842
-0.0439751
-0.0441899
-0.0446293
-0.0445853
-0.0447174
-0.044225
-0.0438385
-0.0426662
-0.041497
-0.0394499
-0.037261
-0.0347046
-0.0491705
-0.0466512
-0.0448445
-0.0429341
-0.0416115
-0.0401556
-0.0392022
-0.0381022
-0.0374438
-0.0366345
-0.0362215
-0.0356581
-0.0354575
-0.0351087
-0.0350978
-0.0349403
-0.0351032
-0.0351185
-0.0354429
-0.0356144
-0.0360883
-0.0363981
-0.0370075
-0.0374326
-0.0381563
-0.0386628
-0.0394666
-0.0400003
-0.0408264
-0.0412993
-0.0420508
-0.0423222
-0.0428413
-0.0426919
-0.0427295
-0.0418329
-0.0410173
-0.0389348
-0.0367926
-0.0331218
-0.0418271
-0.0396952
-0.0381792
-0.0365746
-0.0354781
-0.034268
-0.0334933
-0.0325941
-0.0320791
-0.0314362
-0.0311406
-0.0307176
-0.0306153
-0.0303875
-0.0304619
-0.0304121
-0.0306529
-0.0307687
-0.0311696
-0.0314413
-0.0319982
-0.0324162
-0.0331251
-0.0336765
-0.0345304
-0.0351938
-0.0361766
-0.0369116
-0.0379879
-0.0387184
-0.0398155
-0.0404021
-0.0413803
-0.0415752
-0.0421782
-0.041551
-0.0413218
-0.0391262
-0.0372474
-0.0320831
-0.0344899
-0.0327413
-0.0315055
-0.0301983
-0.0293122
-0.0283357
-0.0277188
-0.0270042
-0.0266062
-0.0261095
-0.025899
-0.025592
-0.0255502
-0.0254151
-0.0255321
-0.0255581
-0.0258305
-0.0260117
-0.0264405
-0.0267746
-0.0273643
-0.0278503
-0.0286073
-0.0292431
-0.0301726
-0.0309495
-0.0320503
-0.032942
-0.0341951
-0.0351384
-0.0364861
-0.0373461
-0.0386544
-0.0391611
-0.0401498
-0.0397787
-0.0398865
-0.0376102
-0.0356961
-0.0293663
-0.0270023
-0.0256498
-0.0247106
-0.0237151
-0.0230592
-0.0223323
-0.0218968
-0.0213848
-0.0211318
-0.0208016
-0.0207085
-0.0205397
-0.0205943
-0.0205754
-0.0207728
-0.0208983
-0.0212394
-0.0215084
-0.0219987
-0.0224141
-0.0230637
-0.0236308
-0.0244535
-0.0251784
-0.0261901
-0.0270739
-0.0282879
-0.0293158
-0.030731
-0.0318502
-0.0334278
-0.0345059
-0.0361233
-0.0368684
-0.0382276
-0.0380319
-0.0384738
-0.0360894
-0.0341935
-0.0270097
-0.0196386
-0.0186691
-0.0180076
-0.0173072
-0.0168573
-0.01636
-0.0160758
-0.0157428
-0.0155978
-0.015406
-0.0153862
-0.015323
-0.0154226
-0.0154827
-0.0157028
-0.015886
-0.016233
-0.0165438
-0.0170291
-0.0174759
-0.0181159
-0.0187104
-0.0195262
-0.020282
-0.0212979
-0.0222251
-0.0234637
-0.0245576
-0.0260281
-0.0272456
-0.0289181
-0.0301312
-0.031885
-0.03279
-0.0343088
-0.0342466
-0.0348062
-0.0324073
-0.0304489
-0.0229386
-0.0120387
-0.0114723
-0.0111119
-0.0107277
-0.0105108
-0.0102656
-0.0101644
-0.0100346
-0.0100351
-0.0100086
-0.0101049
-0.0101765
-0.0103691
-0.0105389
-0.0108326
-0.0111047
-0.0115088
-0.0118909
-0.0124189
-0.0129224
-0.0135927
-0.0142324
-0.0150689
-0.0158621
-0.0168934
-0.0178546
-0.0191095
-0.0202397
-0.0217354
-0.0229972
-0.0247124
-0.0259815
-0.027801
-0.0287714
-0.0303736
-0.0303732
-0.031011
-0.0286553
-0.0267443
-0.0193172
-0.00468285
-0.00449755
-0.00441122
-0.0043189
-0.00430316
-0.00428317
-0.00432687
-0.00437017
-0.00447022
-0.00457441
-0.00473282
-0.00489992
-0.00512272
-0.00535807
-0.00565488
-0.0059667
-0.00635069
-0.0067502
-0.0072385
-0.00774016
-0.00835451
-0.00897618
-0.00974338
-0.0105052
-0.0114563
-0.0123763
-0.0135421
-0.0146253
-0.0160248
-0.0172394
-0.0188535
-0.0200837
-0.0218009
-0.0227547
-0.0242636
-0.0242998
-0.0248849
-0.0227021
-0.0208835
-0.0140085
0.00299685
0.00277377
0.00255566
0.00232892
0.00210975
0.00187652
0.00164902
0.00140278
0.00115775
0.000890409
0.000617641
0.000320017
8.20745e-06
-0.000329819
-0.000693283
-0.00108295
-0.00151241
-0.0019665
-0.00247877
-0.0030122
-0.00362754
-0.00425772
-0.00500062
-0.00574654
-0.00664527
-0.00752365
-0.00860638
-0.0096216
-0.0109056
-0.0120282
-0.0134954
-0.0146193
-0.016167
-0.0170283
-0.0183729
-0.0184012
-0.0189046
-0.0169683
-0.0153452
-0.00934789
0.0103101
0.00970958
0.00922183
0.00870729
0.00829202
0.0078382
0.00747189
0.00705807
0.006721
0.00632968
0.00600458
0.00562016
0.00529089
0.00489884
0.00454936
0.00413552
0.00374914
0.00329895
0.00285749
0.00235535
0.00183833
0.00126724
0.000651414
-6.26686e-06
-0.000746203
-0.00150541
-0.00239318
-0.00325759
-0.00430592
-0.00524995
-0.00644026
-0.00737403
-0.00861591
-0.00932014
-0.0103757
-0.010387
-0.0107385
-0.00916116
-0.00779904
-0.00302299
0.0180362
0.0170238
0.0162298
0.0153946
0.0147436
0.0140364
0.0134864
0.0128707
0.0123897
0.0118377
0.0114002
0.0108895
0.0104747
0.00998649
0.00957601
0.00909393
0.00867104
0.00818026
0.00772883
0.00721519
0.00671889
0.00616851
0.00561024
0.00501016
0.0043726
0.00371337
0.00298181
0.00226408
0.00143371
0.000681531
-0.000227405
-0.000941727
-0.00185503
-0.00236664
-0.0031048
-0.0030822
-0.00327616
-0.00210715
-0.00107193
0.00229779
0.025272
0.0238877
0.0228291
0.021711
0.0208689
0.0199458
0.0192623
0.0184839
0.0179168
0.0172463
0.0167639
0.0161728
0.01575
0.0152158
0.0148318
0.0143363
0.0139732
0.0135008
0.0131429
0.0126805
0.0123132
0.0118496
0.0114598
0.0109861
0.0105627
0.0100742
0.0096101
0.00911041
0.00860781
0.00811643
0.00759507
0.00716061
0.006673
0.00639436
0.0060496
0.00610688
0.00610377
0.00679631
0.00746163
0.00924363
0.0330106
0.0312128
0.0298473
0.0284083
0.0273308
0.026155
0.0252885
0.02431
0.0236001
0.0227715
0.0221786
0.0214648
0.0209589
0.0203335
0.0198918
0.0193346
0.0189395
0.0184353
0.0180737
0.0176115
0.017274
0.0168467
0.0165278
0.0161322
0.0158307
0.0154689
0.0151889
0.0148693
0.0146223
0.0143614
0.014168
0.0139913
0.0138819
0.0138211
0.0138321
0.0139128
0.0140689
0.0142731
0.0145401
0.0147212
0.0401345
0.0379719
0.0363476
0.0346315
0.0333676
0.0319807
0.0309849
0.0298476
0.0290559
0.0281124
0.0274789
0.0266883
0.0261795
0.025512
0.0251031
0.0245367
0.0242096
0.0237291
0.0234714
0.0230671
0.022872
0.02254
0.0224063
0.0221479
0.0220807
0.0219026
0.0219132
0.0218261
0.0219313
0.0219453
0.0221616
0.0222746
0.0226052
0.0227776
0.0231814
0.0232822
0.0236089
0.0233096
0.0231717
0.0217475
0.047851
0.0452752
0.0433448
0.0413089
0.0398106
0.0381727
0.0369953
0.03566
0.0347268
0.0336277
0.0328849
0.0319746
0.0313836
0.0306279
0.0301616
0.0295366
0.0291768
0.028667
0.0284033
0.0280007
0.0278304
0.027534
0.0274623
0.0272781
0.0273183
0.0272575
0.0274299
0.0275057
0.0278335
0.0280503
0.0285479
0.0288792
0.0295263
0.0298689
0.0305559
0.0306404
0.0310624
0.0302863
0.0297459
0.0268756
0.0548294
0.0518976
0.0497147
0.0474079
0.0457278
0.0438833
0.0425798
0.0410889
0.0400761
0.0388638
0.0380818
0.0370951
0.0365018
0.035703
0.0352692
0.0346324
0.0343391
0.0338482
0.0336853
0.0333328
0.0332991
0.0330857
0.0331889
0.033123
0.0333796
0.0334747
0.0339083
0.0341765
0.0348104
0.0352472
0.0360875
0.0366402
0.0376385
0.0381429
0.0391229
0.0391851
0.0397025
0.0384836
0.0375737
0.0334139
0.0624888
0.0591462
0.0566592
0.0540351
0.0521227
0.0500296
0.0485463
0.0468598
0.045707
0.0443414
0.043451
0.0423463
0.0416706
0.0407847
0.0402914
0.0395955
0.0392643
0.038741
0.0385621
0.0382037
0.0381777
0.0379855
0.038123
0.0381063
0.0384276
0.0386005
0.0391324
0.0395048
0.0402714
0.0408304
0.0418315
0.0425027
0.0436693
0.0442421
0.045349
0.0453381
0.0458407
0.0442373
0.0429811
0.0378216
0.0692889
0.0656008
0.0628681
0.0599803
0.0578903
0.0555952
0.053988
0.0521481
0.0509159
0.0494373
0.048506
0.0473227
0.0466408
0.0457067
0.0452392
0.0445228
0.0442478
0.0437298
0.0436362
0.0433076
0.0433951
0.0432561
0.0435343
0.043593
0.0440805
0.0443485
0.045069
0.0455509
0.0465219
0.0471938
0.0484021
0.0491684
0.0505205
0.0511324
0.0523599
0.0522655
0.0527494
0.0508281
0.0492886
0.0433945
0.076856
0.0727613
0.0697281
0.0665267
0.0642073
0.0616669
0.0598822
0.0578495
0.056479
0.0548492
0.0538101
0.05251
0.0517446
0.0507229
0.0501923
0.0494138
0.049093
0.0485354
0.0484116
0.0480634
0.0481346
0.0479935
0.0482678
0.0483386
0.0488325
0.0491219
0.0498556
0.0503609
0.0513455
0.0520319
0.0532441
0.054
0.0553313
0.0558862
0.0570466
0.056821
0.0571643
0.0550042
0.0532181
0.0469394
0.0834468
0.0790184
0.075747
0.0722896
0.0697968
0.0670589
0.0651518
0.0629675
0.0615164
0.0597724
0.0586883
0.0573053
0.0565262
0.0554482
0.0549318
0.0541197
0.053838
0.0532662
0.0532031
0.0528564
0.0530062
0.0528779
0.0532435
0.0533331
0.0539239
0.0542308
0.0550569
0.0555687
0.056628
0.0572974
0.0585499
0.0592519
0.0605708
0.061024
0.0621052
0.0617315
0.0619302
0.059607
0.0576489
0.0512843
0.0908862
0.0860576
0.0824903
0.0787245
0.0760061
0.073027
0.0709454
0.0685714
0.066984
0.0650911
0.0638998
0.0624008
0.0615371
0.0603703
0.0597867
0.0589084
0.0585724
0.0579524
0.0578441
0.0574625
0.0575712
0.0574159
0.0577391
0.0578021
0.0583416
0.058613
0.059369
0.059825
0.0607832
0.061364
0.0624712
0.0630422
0.0641626
0.0644455
0.0652811
0.0647327
0.0646829
0.0622819
0.0601951
0.054072
0.0972381
0.0920892
0.0882917
0.0842784
0.0813909
0.0782191
0.076016
0.073492
0.0718217
0.0698129
0.068571
0.0669837
0.0660967
0.0648639
0.0642798
0.0633531
0.0630354
0.0623794
0.0623029
0.0618922
0.06204
0.0618555
0.0622163
0.0622413
0.0628054
0.0630191
0.0637719
0.0641377
0.0650469
0.0654931
0.0664871
0.0668733
0.0678045
0.0678662
0.0684482
0.0677025
0.0674026
0.0649853
0.0628341
0.0572096
0.104515
0.0989738
0.0948867
0.0905713
0.0874629
0.084055
0.0816808
0.0789709
0.0771668
0.0750113
0.0736634
0.071961
0.0709887
0.0696661
0.0690115
0.0680146
0.0676359
0.066924
0.0667901
0.0663315
0.0664188
0.0661868
0.0664755
0.0664437
0.0669135
0.0670493
0.0676718
0.0679254
0.0686531
0.0689403
0.0696877
0.0698644
0.0704798
0.0703021
0.0705241
0.0695875
0.0689767
0.0666162
0.0644398
0.059543
0.1106
0.104754
0.100445
0.0958914
0.0926183
0.089023
0.0865283
0.0836701
0.0817806
0.0795075
0.0781027
0.0763067
0.0753005
0.0739025
0.0732322
0.0721725
0.0717908
0.0710228
0.0708924
0.0703776
0.070467
0.0701703
0.0704494
0.0703343
0.0707693
0.0707912
0.0713374
0.0714341
0.0720254
0.072103
0.0726372
0.0725527
0.0728725
0.0724112
0.072281
0.0711312
0.0702137
0.0679391
0.0657679
0.0617531
0.117679
0.111451
0.10686
0.102012
0.0985237
0.0946981
0.0920367
0.0889968
0.0869764
0.0845597
0.0830506
0.0811408
0.0800497
0.0785613
0.0778191
0.0766867
0.0762401
0.0754111
0.0752166
0.0746457
0.0746641
0.0743083
0.0745004
0.0743133
0.0746341
0.0745595
0.0749511
0.0749147
0.0752968
0.0751956
0.0754553
0.0751474
0.0751279
0.0744264
0.0739234
0.0726059
0.0713845
0.0692391
0.0670971
0.0640286
0.123472
0.116954
0.112151
0.107076
0.103427
0.0994205
0.0966397
0.093454
0.0913459
0.0888106
0.0872386
0.0852309
0.0840961
0.0825244
0.0817523
0.0805455
0.0800772
0.0791765
0.0789617
0.078315
0.0783067
0.0778628
0.0780119
0.0777153
0.0779646
0.0777493
0.0780271
0.0778098
0.078022
0.0776954
0.0777188
0.0771488
0.0768284
0.0758629
0.0750243
0.0735317
0.0720324
0.0700134
0.0678902
0.0657598
0.130319
0.123432
0.118355
0.112994
0.109137
0.104907
0.101964
0.0986021
0.0963667
0.0936911
0.0920174
0.0898978
0.0886797
0.0870182
0.0861749
0.0848946
0.0843612
0.0833978
0.0831181
0.0824131
0.0823333
0.0818285
0.0818915
0.0815235
0.0816634
0.0813576
0.0814933
0.0811588
0.081188
0.0807143
0.0805107
0.0797708
0.0791883
0.0780592
0.0769573
0.0753792
0.0736969
0.0718272
0.0697748
0.0683986
0.135797
0.128636
0.123358
0.11778
0.113769
0.109364
0.106304
0.1028
0.100475
0.0976813
0.0959398
0.0937198
0.0924497
0.0906998
0.0898151
0.0884529
0.0878832
0.0868387
0.0865218
0.0857308
0.0856061
0.0850041
0.085007
0.0845242
0.0845805
0.0841369
0.0841577
0.0836595
0.0835375
0.0828776
0.082487
0.0815538
0.0807622
0.0794691
0.0781717
0.0765305
0.0747395
0.073032
0.0710864
0.0702913
0.142379
0.134862
0.12932
0.123468
0.119256
0.114635
0.111419
0.107743
0.105296
0.102365
0.100526
0.0981964
0.0968458
0.0950076
0.0940543
0.0926196
0.091988
0.0908819
0.0905047
0.0896579
0.0894695
0.0888127
0.0887432
0.0882016
0.0881721
0.0876616
0.0875796
0.0870051
0.0867631
0.0860212
0.0855005
0.0844932
0.0835805
0.0822505
0.0808831
0.0792941
0.0775643
0.0760667
0.0744397
0.0739143
0.14752
0.139748
0.134015
0.127958
0.123598
0.118811
0.11548
0.111667
0.109129
0.106083
0.104172
0.101742
0.100334
0.0984051
0.0974024
0.0958826
0.0952053
0.094015
0.093591
0.0926569
0.0924159
0.0916649
0.0915329
0.0908877
0.0907824
0.0901585
0.0899868
0.0892924
0.0889505
0.0880927
0.0874735
0.0863743
0.0853876
0.0840218
0.0826404
0.0811138
0.0794722
0.0781717
0.0767563
0.0765748
0.153804
0.145692
0.139707
0.133386
0.128834
0.123839
0.120359
0.11638
0.113725
0.110547
0.108542
0.106006
0.104521
0.102506
0.101439
0.0998485
0.0991146
0.0978657
0.0973893
0.0964049
0.0961127
0.095317
0.0951327
0.0944468
0.0942876
0.093627
0.0934016
0.0926783
0.0922891
0.0914186
0.0907711
0.0896906
0.0887144
0.0874189
0.0861091
0.0847201
0.0832113
0.0821041
0.0808109