/*--------------------------------*- C++ -*----------------------------------*\
| =========                 |                                                 |
| \\      /  F ield         | foam-extend: Open Source CFD                    |
|  \\    /   O peration     | Version:  3.0                                   |
|   \\  /    A nd           | Web:         http://www.extend-project.de       |
|    \\/     M anipulation  |                                                 |
\*---------------------------------------------------------------------------*/
FoamFile
{
    version     2.0;
    format      ascii;
    class       volSymmTensorField;
    location    "50";
    object      sigma;
}
// * * * * * * * * * * * * * * * * * * * * * * * * * * * * * * * * * * * * * //

dimensions      [0 0 0 0 0 0 0];

internalField   nonuniform List<symmTensor> 
7680
(
(-0.181037 -0.0027162 -1.4505e-20 0.181124 1.90894e-21 -8.75636e-05)
(-0.180344 -0.0030371 4.95851e-20 0.180592 1.3205e-19 -0.000248568)
(-0.177664 -0.00323119 1.64575e-21 0.178065 -7.22677e-20 -0.000400292)
(-0.173552 -0.00332962 -2.84391e-21 0.174096 6.97465e-20 -0.000543775)
(-0.168626 -0.00336704 1.26502e-20 0.169306 -1.66771e-20 -0.000679867)
(-0.163075 -0.00335893 -7.43455e-21 0.163884 2.42907e-20 -0.000809208)
(-0.157263 -0.00332373 2.46627e-20 0.158195 -5.41927e-20 -0.000932314)
(-0.15123 -0.00326951 9.43997e-21 0.152279 -2.08714e-20 -0.00104956)
(-0.145197 -0.00320653 8.31757e-21 0.146358 -8.06808e-20 -0.00116121)
(-0.13915 -0.00313931 1.71452e-20 0.140417 -1.02726e-20 -0.00126747)
(-0.133224 -0.00307372 -3.5266e-20 0.134592 -1.00854e-19 -0.00136843)
(-0.127386 -0.00301238 1.86997e-20 0.12885 4.32978e-20 -0.00146413)
(-0.121723 -0.00295873 2.99854e-21 0.123278 -8.64251e-20 -0.00155456)
(-0.116198 -0.00291425 -3.17119e-20 0.117838 4.81876e-20 -0.00163961)
(-0.110865 -0.00288099 -2.51802e-20 0.112584 3.0212e-21 -0.00171917)
(-0.105691 -0.00285972 6.03654e-21 0.107484 1.02199e-19 -0.00179303)
(-0.100709 -0.00285159 -9.8882e-21 0.10257 -8.60059e-20 -0.00186094)
(-0.0958936 -0.00285695 -4.82531e-21 0.0978162 1.91691e-19 -0.0019226)
(-0.0912636 -0.00287632 2.30195e-20 0.0932412 -1.02123e-19 -0.00197763)
(-0.0867987 -0.00290979 -7.30861e-21 0.0888243 1.75189e-19 -0.00202562)
(-0.0825093 -0.00295746 -2.92689e-20 0.0845754 -5.31758e-20 -0.00206606)
(-0.0783821 -0.00301922 -3.12039e-20 0.0804806 1.47641e-19 -0.00209841)
(-0.0744198 -0.00309492 -3.59861e-20 0.0765418 -1.98698e-20 -0.00212202)
(-0.0706166 -0.00318431 -2.3314e-20 0.0727528 1.88322e-19 -0.0021362)
(-0.0669686 -0.00328717 -2.82036e-21 0.0691088 -2.71586e-20 -0.00214018)
(-0.0634779 -0.00340313 -6.09604e-20 0.065611 1.52138e-19 -0.00213311)
(-0.0601348 -0.00353205 7.7452e-21 0.0622489 8.29746e-20 -0.00211405)
(-0.0569491 -0.00367357 -7.19295e-21 0.0590311 1.23668e-19 -0.00208197)
(-0.0539057 -0.00382773 1.56941e-20 0.0559415 7.7655e-20 -0.00203577)
(-0.0510222 -0.00399415 -4.39237e-20 0.0529965 4.21374e-20 -0.00197421)
(-0.0482787 -0.00417387 -9.20674e-21 0.0501746 3.77015e-20 -0.00189599)
(-0.0456988 -0.0043648 -3.09665e-20 0.0474985 -1.17751e-20 -0.00179966)
(-0.0432627 -0.00457364 1.81095e-20 0.0449464 1.63766e-20 -0.00168368)
(-0.0409887 -0.00478765 -5.10595e-20 0.0425351 -1.795e-20 -0.00154637)
(-0.0388795 -0.00503686 6.06834e-21 0.0402655 7.20936e-21 -0.001386)
(-0.0369092 -0.00526925 -7.25538e-20 0.0381098 1.5507e-20 -0.00120063)
(-0.0351569 -0.00557469 4.4136e-21 0.0361453 -1.09102e-19 -0.000988324)
(-0.0334916 -0.00585876 -2.4884e-21 0.0342386 3.6552e-20 -0.000746941)
(-0.0321068 -0.00610235 -2.67373e-20 0.0325811 -7.80861e-20 -0.000474387)
(-0.0307809 -0.00671347 1.49551e-20 0.0309493 -5.54967e-20 -0.000168402)
(-0.180873 -0.00818179 2.14068e-20 0.180961 4.33347e-21 -8.7539e-05)
(-0.180073 -0.00930458 -3.49067e-20 0.180322 6.31677e-20 -0.000248434)
(-0.177317 -0.0100247 -3.16089e-20 0.177717 3.18479e-21 -0.000399993)
(-0.17315 -0.0104371 4.31013e-20 0.173694 -2.0653e-20 -0.000543246)
(-0.168187 -0.0106444 -1.28982e-20 0.168866 -3.10142e-20 -0.000679029)
(-0.162611 -0.0106935 -3.55107e-21 0.163419 5.43396e-20 -0.000807978)
(-0.156782 -0.0106392 -3.17005e-20 0.157713 5.40848e-20 -0.000930595)
(-0.15074 -0.010506 -1.68613e-20 0.151788 2.62529e-20 -0.00104725)
(-0.144704 -0.0103241 -5.53884e-21 0.145862 1.37155e-19 -0.0011582)
(-0.138657 -0.010107 8.82881e-21 0.13992 1.18578e-19 -0.00126364)
(-0.132734 -0.00987166 5.15788e-20 0.134098 -1.93759e-20 -0.00136366)
(-0.126902 -0.00962583 5.33617e-21 0.12836 7.25541e-20 -0.00145829)
(-0.121246 -0.00937931 2.27299e-20 0.122794 -7.48679e-20 -0.00154751)
(-0.115729 -0.0091365 5.03253e-20 0.11736 6.39985e-20 -0.00163125)
(-0.110404 -0.00890304 3.20632e-20 0.112114 -1.48567e-19 -0.00170934)
(-0.105239 -0.00868154 -6.63431e-20 0.107021 -1.64404e-20 -0.00178163)
(-0.100267 -0.00847498 6.8839e-20 0.102115 3.82789e-21 -0.00184785)
(-0.0954599 -0.00828508 -1.95373e-20 0.0973677 -5.48519e-20 -0.00190772)
(-0.0908384 -0.00811301 -1.28635e-20 0.0927992 9.74758e-20 -0.00196088)
(-0.0863811 -0.00796008 1.0683e-20 0.088388 -4.74071e-20 -0.00200693)
(-0.0820986 -0.00782617 -6.19409e-20 0.084144 1.65149e-20 -0.00204538)
(-0.0779773 -0.00771249 3.35563e-20 0.080053 -8.27493e-20 -0.00207574)
(-0.0740198 -0.00761799 -4.12879e-21 0.0761172 4.93067e-20 -0.00209738)
(-0.07022 -0.00754395 6.56014e-21 0.0723297 -1.37008e-19 -0.00210968)
(-0.0665743 -0.00748867 -9.0463e-20 0.0686862 1.30309e-22 -0.00211186)
(-0.0630842 -0.00745368 7.73254e-20 0.0651874 -8.35115e-20 -0.00210317)
(-0.0597405 -0.00743674 -4.00956e-20 0.0618232 6.97428e-21 -0.00208269)
(-0.0565522 -0.00743991 -5.50224e-21 0.0586017 -4.61593e-20 -0.00204951)
(-0.0535052 -0.00746059 -7.22231e-20 0.0555077 -5.6287e-20 -0.00200251)
(-0.0506158 -0.00750112 -4.37606e-20 0.0525564 2.09354e-20 -0.00194059)
(-0.0478658 -0.00756014 -4.31692e-20 0.0497283 -1.90331e-20 -0.00186245)
(-0.0452767 -0.00763656 -3.94286e-20 0.0470434 2.73167e-21 -0.00176675)
(-0.0428322 -0.00773941 2.74718e-20 0.0444842 -4.88007e-21 -0.00165198)
(-0.0405466 -0.00784616 1.98087e-20 0.0420631 -5.97697e-20 -0.00151655)
(-0.0384267 -0.00800914 5.54196e-21 0.0397855 3.57188e-20 -0.00135872)
(-0.0364475 -0.0081334 -1.22147e-19 0.0376242 -1.33607e-21 -0.00117664)
(-0.0346754 -0.00837659 -4.98279e-20 0.0356437 6.21492e-21 -0.000968379)
(-0.0330138 -0.00855326 2.75472e-20 0.0337456 3.07814e-20 -0.00073182)
(-0.031598 -0.0087431 -1.1573e-19 0.0320629 -2.6373e-20 -0.000464844)
(-0.0302707 -0.00928756 1.63113e-20 0.0304359 3.95133e-20 -0.000165122)
(-0.180572 -0.01364 2.74347e-20 0.18066 -3.43145e-20 -8.7419e-05)
(-0.179559 -0.0155509 5.76275e-20 0.179807 6.35939e-20 -0.000248063)
(-0.176648 -0.0167849 -1.58647e-20 0.177047 -1.98703e-19 -0.000399327)
(-0.172373 -0.0175021 -2.95167e-20 0.172916 1.5092e-19 -0.000542226)
(-0.167334 -0.0178725 7.45084e-20 0.168012 -1.17723e-19 -0.00067759)
(-0.161708 -0.0179739 5.23731e-20 0.162514 -1.15551e-20 -0.000806038)
(-0.155847 -0.017897 2.36152e-20 0.156775 -1.03756e-19 -0.000928068)
(-0.149787 -0.0176824 6.45184e-20 0.150831 1.26889e-20 -0.00104403)
(-0.143743 -0.0173799 8.53698e-20 0.144897 -9.3116e-21 -0.0011542)
(-0.137697 -0.0170119 -8.55187e-20 0.138955 -8.66267e-21 -0.00125873)
(-0.13178 -0.0166063 -5.40238e-20 0.133138 -1.52227e-19 -0.00135773)
(-0.125959 -0.0161758 -2.79111e-20 0.127411 7.14062e-20 -0.00145122)
(-0.120318 -0.0157364 3.86044e-21 0.121857 -5.18541e-20 -0.00153917)
(-0.114817 -0.0152956 -9.15583e-20 0.116438 5.17213e-20 -0.00162149)
(-0.109511 -0.0148623 -9.3923e-20 0.111209 8.46032e-20 -0.00169806)
(-0.104364 -0.0144412 1.17518e-19 0.106133 9.40194e-20 -0.00176868)
(-0.0994115 -0.0140368 -3.27024e-20 0.101245 6.81032e-20 -0.00183312)
(-0.0946238 -0.0136524 5.97953e-20 0.0965149 1.56356e-19 -0.00189109)
(-0.0900213 -0.0132897 6.22698e-20 0.0919636 -1.45262e-19 -0.00194226)
(-0.0855825 -0.0129512 -9.13991e-20 0.0875687 1.27688e-19 -0.00198622)
(-0.0813175 -0.0126366 -4.97568e-20 0.08334 -3.57674e-20 -0.00202255)
(-0.0772125 -0.0123484 -1.89213e-20 0.0792633 1.2992e-19 -0.00205073)
(-0.07327 -0.0120847 -7.19035e-20 0.0753403 -1.34754e-20 -0.00207021)
(-0.0694838 -0.0118482 -7.81593e-20 0.0715642 6.55075e-20 -0.00208038)
(-0.06585 -0.0116359 4.03788e-20 0.0679306 1.86906e-19 -0.00208056)
(-0.0623702 -0.0114509 -5.73477e-20 0.0644401 1.08586e-19 -0.00206999)
(-0.0590347 -0.0112894 5.38662e-20 0.0610825 1.83512e-19 -0.00204787)
(-0.0558528 -0.0111549 -6.27065e-20 0.0578661 4.73996e-20 -0.00201328)
(-0.0528099 -0.0110435 8.16121e-20 0.0547752 1.49838e-19 -0.00196526)
(-0.049923 -0.0109583 4.65671e-21 0.0518257 1.19445e-21 -0.00190272)
(-0.0471728 -0.0108979 -2.4301e-20 0.0489973 6.78895e-20 -0.00182448)
(-0.0445821 -0.010859 -1.47126e-20 0.0463113 8.56944e-20 -0.00172923)
(-0.0421329 -0.0108561 -6.95877e-20 0.0437485 1.71217e-19 -0.0016156)
(-0.0398418 -0.0108558 8.87548e-21 0.0413238 -2.84515e-19 -0.00148201)
(-0.0377133 -0.0109276 5.82738e-20 0.0390401 2.0324e-19 -0.00132686)
(-0.0357249 -0.0109556 -9.39664e-20 0.0368733 -1.07635e-19 -0.00114832)
(-0.0339429 -0.0111166 2.53437e-20 0.0348875 7.6491e-21 -0.000944541)
(-0.0322704 -0.0112192 -5.08442e-20 0.0329839 1.08038e-19 -0.000713445)
(-0.0308515 -0.0113326 -1.94056e-20 0.0313045 -5.0857e-20 -0.000452968)
(-0.0295136 -0.0118245 -1.72662e-20 0.0296744 1.66374e-19 -0.000160822)
(-0.180132 -0.0190973 7.28626e-20 0.180219 5.6326e-20 -8.72516e-05)
(-0.178801 -0.021765 -9.60785e-20 0.179048 2.01489e-20 -0.000247531)
(-0.175661 -0.0234917 -1.09047e-20 0.176059 2.76349e-19 -0.000398389)
(-0.171226 -0.0244986 1.32845e-19 0.171766 -2.51843e-19 -0.000540832)
(-0.166073 -0.0250211 -1.22549e-19 0.166749 6.53244e-20 -0.000675673)
(-0.160372 -0.0251671 9.89594e-21 0.161176 6.99287e-20 -0.000803525)
(-0.154464 -0.0250621 -2.12365e-20 0.155388 7.32391e-20 -0.000924871)
(-0.148377 -0.0247626 5.2649e-20 0.149417 -2.77293e-20 -0.00104006)
(-0.142322 -0.0243371 1.50266e-20 0.143471 -1.06941e-19 -0.00114934)
(-0.136276 -0.0238169 -6.9816e-20 0.137529 -5.55942e-20 -0.00125287)
(-0.13037 -0.0232404 9.55897e-20 0.13172 5.12045e-20 -0.00135075)
(-0.124565 -0.0226253 7.68265e-20 0.126008 1.34397e-20 -0.00144299)
(-0.118945 -0.0219936 3.20979e-20 0.120474 -1.62832e-19 -0.00152956)
(-0.113469 -0.0213556 1.49075e-19 0.115079 1.20104e-19 -0.00161036)
(-0.10819 -0.0207237 6.69612e-20 0.109875 -6.80117e-21 -0.00168527)
(-0.103072 -0.0201041 -1.16988e-19 0.104826 3.21026e-19 -0.00175409)
(-0.0981493 -0.0195035 1.73786e-19 0.0999659 -2.00193e-19 -0.00181659)
(-0.0933915 -0.0189261 -2.25887e-19 0.095264 2.18794e-19 -0.0018725)
(-0.0888187 -0.0183743 -1.5629e-20 0.0907402 -1.32624e-19 -0.00192147)
(-0.0844088 -0.017852 1.04398e-19 0.0863719 1.303e-19 -0.00196316)
(-0.080172 -0.0173583 -5.37187e-20 0.0821691 -1.31946e-19 -0.00199711)
(-0.0760936 -0.0168973 5.81478e-20 0.0781165 1.12682e-21 -0.0020229)
(-0.0721765 -0.0164659 -6.15671e-20 0.0742164 2.50504e-20 -0.00203995)
(-0.0684136 -0.0160685 1.70718e-19 0.0704613 1.61489e-19 -0.00204773)
(-0.0648014 -0.0157005 -1.6055e-20 0.066847 -1.09487e-19 -0.00204559)
(-0.0613407 -0.015367 8.14257e-20 0.0633736 8.04212e-20 -0.00203287)
(-0.0580225 -0.0150619 -7.30639e-20 0.0600312 1.85793e-20 -0.00200878)
(-0.0548553 -0.0147913 -4.34305e-20 0.0568279 1.02211e-19 -0.00197255)
(-0.0518248 -0.0145483 -9.39836e-20 0.053748 -1.37144e-19 -0.00192321)
(-0.0489478 -0.0143392 -1.30585e-19 0.0508076 1.06091e-19 -0.00185984)
(-0.0462044 -0.0141599 6.1741e-20 0.0479857 -1.43575e-20 -0.00178129)
(-0.0436196 -0.0140079 1.08056e-19 0.045306 4.71505e-20 -0.00168642)
(-0.0411697 -0.0139011 -3.59787e-19 0.0427436 1.25551e-19 -0.00157386)
(-0.0388837 -0.0137936 6.31281e-21 0.0403259 -1.89687e-20 -0.00144224)
(-0.0367426 -0.0137828 2.2349e-19 0.0380326 1.1414e-19 -0.00128996)
(-0.0347659 -0.0136987 -3.42885e-19 0.0358812 4.44562e-20 -0.00111536)
(-0.0329546 -0.013803 1.89721e-19 0.0338712 8.3638e-20 -0.000916617)
(-0.031302 -0.0137867 -2.53224e-20 0.0319938 9.26632e-20 -0.000691784)
(-0.029855 -0.013846 -4.04688e-20 0.0302939 -9.63518e-20 -0.000438844)
(-0.0285136 -0.014247 -5.42861e-20 0.0286692 -1.68963e-19 -0.000155618)
(-0.179554 -0.0245469 4.71502e-20 0.179641 -1.27542e-19 -8.70126e-05)
(-0.177803 -0.0279346 2.20672e-19 0.17805 -2.27978e-19 -0.000246815)
(-0.174361 -0.0301253 -1.14081e-19 0.174758 -3.05985e-19 -0.000397166)
(-0.169714 -0.031401 -1.44097e-19 0.170253 -2.74165e-20 -0.000539055)
(-0.164414 -0.0320603 2.69062e-19 0.165087 3.07475e-20 -0.000673288)
(-0.158614 -0.0322399 8.09007e-20 0.159414 -1.67406e-19 -0.000800462)
(-0.152642 -0.0320992 -1.84589e-20 0.153563 -1.57342e-19 -0.000921053)
(-0.146521 -0.0317093 -6.69541e-20 0.147556 9.10077e-20 -0.00103539)
(-0.140451 -0.0311575 6.65991e-20 0.141595 5.5476e-20 -0.00114373)
(-0.134406 -0.0304831 -9.16794e-21 0.135653 1.17011e-19 -0.00124621)
(-0.128513 -0.0297349 1.0746e-20 0.129856 -1.96558e-19 -0.00134292)
(-0.122731 -0.0289351 -2.00444e-19 0.124164 1.28376e-19 -0.00143386)
(-0.117139 -0.0281117 8.60883e-20 0.118658 -1.26995e-19 -0.001519)
(-0.111696 -0.0272775 1.00732e-20 0.113294 1.96139e-19 -0.00159824)
(-0.106453 -0.0264484 1.1796e-19 0.108125 -1.0636e-20 -0.00167144)
(-0.101374 -0.0256323 -3.20587e-20 0.103113 1.8707e-19 -0.0017384)
(-0.0964914 -0.0248373 -7.07267e-20 0.0982903 -2.76817e-19 -0.00179891)
(-0.0917738 -0.024069 1.48464e-19 0.0936265 1.04942e-19 -0.00185267)
(-0.0872413 -0.0233305 -6.91608e-20 0.0891407 5.2669e-20 -0.00189939)
(-0.0828708 -0.0226265 -5.79582e-20 0.0848095 -4.30597e-20 -0.00193869)
(-0.0786725 -0.0219563 -2.02184e-19 0.0806427 2.12674e-19 -0.00197018)
(-0.074631 -0.0213247 1.14864e-19 0.0766244 1.80524e-19 -0.00199341)
(-0.0707491 -0.0207282 6.61255e-20 0.072757 1.02625e-19 -0.0020079)
(-0.0670192 -0.0201723 -1.49736e-19 0.0690323 -1.8032e-19 -0.00201312)
(-0.0634379 -0.0196511 -5.69125e-20 0.0654463 2.86233e-19 -0.00200849)
(-0.0600055 -0.0191713 1.13128e-19 0.0619989 -4.46953e-20 -0.00199339)
(-0.056713 -0.018725 1.11906e-19 0.0586801 1.52323e-19 -0.00196714)
(-0.0535689 -0.0183203 -1.86471e-19 0.0554979 5.53967e-20 -0.00192899)
(-0.0505582 -0.0179482 6.76369e-20 0.0524364 3.11516e-19 -0.00187814)
(-0.0476989 -0.0176165 1.24034e-19 0.0495126 2.1005e-19 -0.00181368)
(-0.0449687 -0.0173198 -1.21301e-19 0.0467034 2.80818e-19 -0.00173465)
(-0.0423975 -0.0170563 2.3311e-19 0.0440374 -6.1587e-20 -0.00163995)
(-0.0399517 -0.0168436 -9.86501e-20 0.0414801 1.84692e-19 -0.00152841)
(-0.0376794 -0.0166359 -9.50867e-20 0.0390782 1.22491e-19 -0.0013987)
(-0.0355268 -0.0165279 1.81304e-19 0.0367762 2.97347e-19 -0.00124943)
(-0.0335717 -0.0163615 -9.1051e-20 0.0346507 -7.08704e-20 -0.00107899)
(-0.0317261 -0.0163685 6.47309e-20 0.0326118 1.65904e-20 -0.000885747)
(-0.0301004 -0.0162968 -2.11077e-19 0.0307683 7.03871e-20 -0.00066784)
(-0.0286144 -0.0162637 -3.60925e-19 0.0290377 -4.0063e-20 -0.000423365)
(-0.0272595 -0.0166152 1.15585e-19 0.0274096 1.25013e-19 -0.00015014)
(-0.178834 -0.0299928 2.66928e-20 0.178921 6.11309e-20 -8.67212e-05)
(-0.176569 -0.0340488 -2.14669e-19 0.176814 3.13646e-19 -0.000245939)
(-0.172754 -0.0366666 1.7384e-19 0.17315 -6.5099e-20 -0.000395678)
(-0.167847 -0.0381846 2.10512e-19 0.168384 3.56108e-19 -0.000536919)
(-0.162365 -0.0389615 -2.02585e-19 0.163035 -1.88198e-20 -0.000670451)
(-0.156444 -0.0391611 -6.15593e-20 0.157241 -8.76393e-20 -0.000796862)
(-0.150395 -0.0389749 1.36185e-19 0.151312 1.10851e-19 -0.000916614)
(-0.144231 -0.0384883 2.06776e-19 0.145261 -9.63365e-20 -0.00103003)
(-0.138144 -0.0378062 4.43492e-20 0.139281 -1.11198e-19 -0.00113734)
(-0.132101 -0.0369753 -2.60211e-19 0.13334 1.3627e-19 -0.0012387)
(-0.126224 -0.0360545 8.51258e-20 0.127558 2.22509e-19 -0.00133415)
(-0.120469 -0.0350702 1.12872e-19 0.121893 1.05563e-19 -0.00142372)
(-0.114913 -0.0340561 3.26068e-20 0.11642 5.77143e-21 -0.00150734)
(-0.109511 -0.0330274 2.99752e-19 0.111096 -2.1626e-19 -0.00158492)
(-0.104314 -0.0320032 7.22506e-20 0.105971 3.66684e-20 -0.0016563)
(-0.0992834 -0.0309929 -2.38015e-19 0.101005 -1.0335e-19 -0.0017213)
(-0.0944503 -0.0300062 9.51458e-21 0.09623 2.01346e-19 -0.00177967)
(-0.0897831 -0.02905 5.07202e-20 0.0916143 1.80774e-19 -0.00183116)
(-0.0853012 -0.0281277 -1.18001e-19 0.0871767 6.43783e-20 -0.00187544)
(-0.0809804 -0.0272452 2.42794e-19 0.0828925 2.15033e-19 -0.00191218)
(-0.0768308 -0.0264014 1.08804e-19 0.0787718 2.29243e-19 -0.00194097)
(-0.0728361 -0.0256025 -7.18305e-20 0.0747976 1.78773e-19 -0.00196143)
(-0.0689994 -0.0248437 -3.15604e-19 0.0709725 -1.75181e-19 -0.00197308)
(-0.0653121 -0.0241324 3.23491e-19 0.0672875 2.42346e-19 -0.00197545)
(-0.0617711 -0.0234607 9.74462e-20 0.0637391 8.7486e-20 -0.001968)
(-0.0583761 -0.0228375 -1.0716e-19 0.0603263 2.9889e-19 -0.00195021)
(-0.0551181 -0.0222524 1.15876e-19 0.0570396 -1.17393e-19 -0.00192142)
(-0.0520054 -0.0217164 1.3752e-19 0.0538864 1.32677e-19 -0.00188103)
(-0.0490227 -0.0212168 5.59407e-20 0.050851 -9.2071e-20 -0.00182828)
(-0.0461885 -0.0207659 -6.35983e-20 0.0479509 -1.03108e-19 -0.00176243)
(-0.0434785 -0.0203526 -1.14793e-19 0.045161 -5.5538e-19 -0.00168258)
(-0.0409268 -0.019982 -2.39504e-20 0.0425146 2.39564e-20 -0.00158783)
(-0.0384901 -0.0196631 -1.74291e-20 0.0399672 -3.11105e-19 -0.00147708)
(-0.0362355 -0.0193597 1.10162e-19 0.0375847 6.43263e-20 -0.00134922)
(-0.0340749 -0.019156 1.35414e-19 0.0352778 -2.97934e-19 -0.00120295)
(-0.0321413 -0.0189019 -6.20629e-19 0.0331782 -1.47433e-19 -0.00103691)
(-0.0302699 -0.0188264 4.01384e-19 0.0311195 -1.67054e-19 -0.000849554)
(-0.0286633 -0.0186704 -1.23888e-20 0.0293026 -4.47383e-20 -0.000639253)
(-0.0271617 -0.0185695 1.84469e-20 0.0275659 -4.94054e-19 -0.000404261)
(-0.0257861 -0.018854 -2.46248e-19 0.0259289 1.01796e-19 -0.000142763)
(-0.177974 -0.0354305 2.06804e-19 0.17806 -9.60515e-20 -8.63709e-05)
(-0.175101 -0.0400962 1.27729e-19 0.175346 5.74826e-20 -0.000244901)
(-0.17085 -0.0430972 -1.84378e-19 0.171244 -6.82989e-21 -0.000393935)
(-0.165637 -0.0448257 3.13561e-21 0.166172 -2.9986e-19 -0.000534442)
(-0.15994 -0.0456968 2.10085e-20 0.160608 1.39596e-19 -0.000667198)
(-0.153877 -0.0458997 9.25197e-22 0.15467 4.53279e-19 -0.00079278)
(-0.147739 -0.0456565 -6.68568e-20 0.14865 1.96828e-20 -0.00091164)
(-0.141525 -0.0450653 -2.26789e-19 0.142549 1.53381e-19 -0.00102408)
(-0.135418 -0.0442478 2.89377e-19 0.136548 -1.27734e-20 -0.00113034)
(-0.129378 -0.0432576 2.28928e-19 0.130608 1.08381e-19 -0.00123054)
(-0.123521 -0.0421631 -5.88059e-20 0.124846 -2.38313e-21 -0.00132473)
(-0.117799 -0.0409944 -3.60577e-19 0.119212 1.7578e-19 -0.0014129)
(-0.112285 -0.0397908 -1.8823e-19 0.11378 2.0004e-21 -0.00149501)
(-0.106933 -0.0385694 -3.85925e-20 0.108504 3.27708e-19 -0.00157092)
(-0.10179 -0.0373526 3.35029e-19 0.103431 -1.66509e-19 -0.0016405)
(-0.0968171 -0.0361508 1.16298e-19 0.0985206 1.99999e-21 -0.00170353)
(-0.0920437 -0.0349757 1.06426e-19 0.0938034 7.31035e-21 -0.00175978)
(-0.0874368 -0.0338349 8.29559e-20 0.0892458 -8.86588e-21 -0.00180898)
(-0.0830155 -0.0327323 -2.27643e-20 0.0848664 -1.31572e-19 -0.00185083)
(-0.0787543 -0.031675 1.07519e-19 0.0806393 -2.08325e-19 -0.00188498)
(-0.0746634 -0.0306614 -1.17715e-19 0.0765745 -3.09798e-21 -0.00191108)
(-0.0707252 -0.0296989 -6.00777e-20 0.0726539 -3.26476e-19 -0.00192871)
(-0.0669431 -0.0287817 2.94652e-21 0.0688806 1.99693e-19 -0.00193747)
(-0.0633074 -0.0279186 4.86244e-20 0.0652443 -1.32195e-19 -0.00193691)
(-0.0598156 -0.0271001 1.6015e-19 0.0617422 -1.19462e-19 -0.00192658)
(-0.0564661 -0.026337 -3.04286e-20 0.058372 -6.6514e-20 -0.00190595)
(-0.0532507 -0.0256166 -9.54093e-20 0.0551253 -1.01922e-20 -0.00187452)
(-0.0501766 -0.0249522 -3.27538e-20 0.0520083 -3.22275e-19 -0.00183171)
(-0.0472293 -0.0243282 -2.11196e-19 0.0490062 6.32431e-19 -0.00177693)
(-0.0444264 -0.0237606 -2.58484e-19 0.0461359 -5.10986e-20 -0.00170951)
(-0.0417435 -0.023233 -1.08843e-19 0.0433723 3.53188e-19 -0.00162872)
(-0.0392165 -0.0227579 4.41813e-19 0.0407503 1.44661e-19 -0.00153377)
(-0.0367968 -0.0223329 -3.94545e-20 0.0382205 -2.05094e-19 -0.00142377)
(-0.0345635 -0.0219412 -1.26607e-19 0.0358612 2.44025e-19 -0.00129774)
(-0.0324029 -0.021634 1.39092e-19 0.0335575 -1.73797e-19 -0.00115461)
(-0.0304945 -0.0213168 -2.86246e-20 0.0314876 -3.8946e-20 -0.000993183)
(-0.0285952 -0.0211331 2.34502e-20 0.0294074 1.81523e-20 -0.000812157)
(-0.02702 -0.0209428 -5.16857e-19 0.0276301 -1.03422e-19 -0.000610076)
(-0.0254729 -0.0207434 -2.32278e-19 0.0258583 -1.40801e-19 -0.000385379)
(-0.024099 -0.0209941 2.63941e-19 0.0242352 5.9026e-19 -0.000136199)
(-0.176969 -0.040861 9.67669e-20 0.177055 1.37618e-19 -8.59626e-05)
(-0.173406 -0.0460664 -2.71421e-20 0.17365 -7.79649e-20 -0.000243702)
(-0.168657 -0.0493994 -1.79792e-20 0.169049 1.02043e-19 -0.000391934)
(-0.163096 -0.0513015 1.43428e-19 0.163627 7.22787e-19 -0.000531617)
(-0.157156 -0.05224 2.36798e-19 0.157819 6.01542e-20 -0.000663515)
(-0.150932 -0.0524273 4.31328e-21 0.15172 -4.42271e-19 -0.000788192)
(-0.144691 -0.0521137 1.11016e-20 0.145597 -7.50276e-20 -0.000906087)
(-0.138421 -0.0514089 1.71045e-19 0.139438 -1.56599e-19 -0.0010175)
(-0.132292 -0.0504504 -7.36832e-20 0.133414 -3.55701e-20 -0.00112264)
(-0.126256 -0.0492978 -1.30383e-19 0.127478 -1.51643e-19 -0.00122162)
(-0.120423 -0.0480285 2.93627e-19 0.121738 -1.1977e-19 -0.00131448)
(-0.114739 -0.0466758 2.41568e-19 0.116141 -2.5588e-19 -0.00140122)
(-0.109275 -0.045284 7.19246e-20 0.110757 9.97173e-20 -0.00148174)
(-0.10398 -0.0438723 8.03209e-20 0.105536 -4.42557e-20 -0.00155593)
(-0.0989007 -0.0424658 -1.41224e-19 0.100524 -3.7463e-19 -0.00162363)
(-0.0939939 -0.0410761 -1.13081e-19 0.0956785 6.97311e-20 -0.00168461)
(-0.0892896 -0.0397164 1.22379e-19 0.0910282 -3.0784e-19 -0.00173865)
(-0.0847526 -0.038395 -2.46137e-20 0.0865381 3.88445e-20 -0.00178546)
(-0.0804018 -0.0371166 -1.93107e-19 0.0822265 -4.67279e-19 -0.00182475)
(-0.0762098 -0.0358888 3.71368e-19 0.0780659 6.46201e-20 -0.00185617)
(-0.0721873 -0.0347099 9.9433e-20 0.0740667 -8.32665e-20 -0.00187937)
(-0.068315 -0.0335883 7.31238e-20 0.070209 5.48899e-20 -0.00189399)
(-0.064597 -0.0325171 -2.01976e-19 0.0664966 1.65663e-19 -0.00189963)
(-0.0610219 -0.0315066 2.31597e-20 0.0629177 7.11261e-20 -0.00189589)
(-0.0575882 -0.0305456 1.31668e-19 0.0594705 1.44367e-19 -0.00188234)
(-0.0542926 -0.0296468 1.9153e-19 0.0561512 -3.08051e-19 -0.00185858)
(-0.0511283 -0.0287949 -2.63523e-19 0.0529524 2.48217e-19 -0.00182412)
(-0.0481005 -0.0280064 9.32053e-19 0.049879 -5.553e-19 -0.00177855)
(-0.0451961 -0.0272614 3.14825e-19 0.0469174 4.94888e-19 -0.00172131)
(-0.0424313 -0.0265811 -2.37259e-19 0.0440832 -5.75691e-19 -0.00165192)
(-0.0397822 -0.0259419 -2.57605e-19 0.0413519 4.94045e-19 -0.00156975)
(-0.0372849 -0.0253667 -5.92602e-19 0.0387592 -5.44075e-20 -0.00147424)
(-0.0348877 -0.0248367 8.16638e-20 0.0362523 1.95769e-19 -0.00136461)
(-0.032677 -0.0243606 1.06914e-19 0.0339172 2.81872e-19 -0.00124016)
(-0.030524 -0.0239512 -3.24333e-19 0.031624 1.53887e-19 -0.00109996)
(-0.0286344 -0.023569 -4.16508e-19 0.0295775 1.82796e-20 -0.000943132)
(-0.0267259 -0.0232872 3.74935e-19 0.0274945 2.95072e-19 -0.000768556)
(-0.0251624 -0.0230462 -2.0833e-19 0.0257375 2.86756e-19 -0.000575125)
(-0.0236081 -0.0227732 6.48457e-19 0.0239697 -1.88939e-19 -0.000361567)
(-0.022206 -0.0229718 -5.2003e-19 0.0223327 1.08997e-19 -0.000126681)
(-0.17582 -0.0462817 1.21323e-19 0.175905 -1.02423e-19 -8.55066e-05)
(-0.171489 -0.0519491 1.37564e-19 0.171731 -7.81937e-20 -0.000242358)
(-0.166186 -0.0555567 2.37317e-19 0.166576 -7.37771e-20 -0.000389703)
(-0.160239 -0.0575909 1.24103e-19 0.160767 -7.1679e-19 -0.000528486)
(-0.154029 -0.0585664 -4.75698e-19 0.154688 -4.98115e-19 -0.000659462)
(-0.147627 -0.0587165 -2.5927e-20 0.14841 1.74144e-19 -0.000783182)
(-0.141273 -0.0583173 2.72096e-20 0.142174 2.4384e-19 -0.000900077)
(-0.134943 -0.0574889 -1.63426e-19 0.135953 2.97597e-20 -0.00101043)
(-0.12879 -0.0563829 2.49989e-19 0.129905 3.40312e-19 -0.00111444)
(-0.122761 -0.0550644 2.64071e-19 0.123973 -4.61251e-19 -0.0012122)
(-0.116956 -0.0536189 -3.16884e-19 0.118259 3.1635e-19 -0.00130377)
(-0.111315 -0.0520824 -6.36151e-20 0.112705 -2.81352e-19 -0.00138908)
(-0.105907 -0.0505042 -7.61978e-21 0.107375 8.13095e-20 -0.00146807)
(-0.100677 -0.0489046 -2.71334e-19 0.102218 -7.50491e-20 -0.00154059)
(-0.0956692 -0.0473117 3.24939e-19 0.0972757 2.50968e-19 -0.00160647)
(-0.0908378 -0.045738 1.85802e-19 0.0925033 -1.99407e-19 -0.00166548)
(-0.0862118 -0.0441979 -9.72487e-20 0.0879292 4.4372e-19 -0.00171739)
(-0.081754 -0.0427006 8.24151e-20 0.0835159 -2.39666e-19 -0.00176189)
(-0.0774829 -0.041251 -2.52176e-19 0.0792816 2.57338e-19 -0.00179871)
(-0.0733695 -0.0398576 3.17568e-19 0.0751969 -4.89999e-21 -0.00182748)
(-0.0694245 -0.0385184 -3.63892e-20 0.0712724 -1.98697e-19 -0.0018479)
(-0.0656271 -0.0372426 1.66783e-19 0.0674866 -6.35566e-20 -0.00185957)
(-0.0619819 -0.0360225 1.38646e-19 0.063844 -1.50075e-19 -0.00186217)
(-0.0584757 -0.0348695 -5.50397e-20 0.060331 -3.20402e-20 -0.0018553)
(-0.0551082 -0.0337708 -3.40745e-19 0.0569469 1.95611e-19 -0.00183862)
(-0.0518742 -0.0327409 2.55985e-19 0.0536859 -5.39666e-19 -0.00181173)
(-0.0487682 -0.031762 -5.86233e-19 0.0505425 1.4569e-19 -0.0017743)
(-0.0457932 -0.0308533 -1.16068e-19 0.0475191 1.82011e-19 -0.00172593)
(-0.0429385 -0.0299913 2.38603e-19 0.0446047 3.57201e-20 -0.00166625)
(-0.040217 -0.0292017 -9.66765e-20 0.0418119 -2.81068e-19 -0.00159486)
(-0.0376085 -0.0284542 6.37467e-19 0.0391198 1.82078e-19 -0.00151133)
(-0.0351444 -0.027782 1.90696e-19 0.0365596 -2.71942e-19 -0.00141521)
(-0.032778 -0.0271499 -4.46948e-20 0.034084 6.0505e-19 -0.00130601)
(-0.0305901 -0.0265946 2.82139e-19 0.0317733 -7.54645e-19 -0.00118316)
(-0.028456 -0.026083 -1.63217e-19 0.0295021 5.53864e-19 -0.00104606)
(-0.0265812 -0.0256489 3.6489e-20 0.0274752 -1.87783e-19 -0.000894031)
(-0.0246725 -0.0252601 2.45571e-19 0.0253988 5.02619e-19 -0.000726287)
(-0.0231221 -0.0249953 -9.47774e-19 0.023664 -3.52527e-19 -0.000541979)
(-0.0215483 -0.0246298 -3.73174e-19 0.0218884 1.52598e-19 -0.000340091)
(-0.0201466 -0.0248073 4.83061e-19 0.0202659 3.79202e-19 -0.000119322)
(-0.174523 -0.0516911 -8.97818e-20 0.174608 6.68557e-19 -8.49863e-05)
(-0.169354 -0.0577346 -1.52579e-19 0.169595 3.04596e-19 -0.00024085)
(-0.16345 -0.0615533 -3.61927e-19 0.163837 9.22936e-20 -0.000387215)
(-0.157082 -0.0636738 6.38192e-21 0.157607 5.22498e-19 -0.000525016)
(-0.150579 -0.064653 5.73009e-19 0.151234 6.69669e-19 -0.000654993)
(-0.143984 -0.0647424 1.98836e-19 0.144762 2.57183e-19 -0.00077769)
(-0.13751 -0.0642411 -3.23852e-20 0.138403 -1.07468e-19 -0.000893522)
(-0.131114 -0.0632779 2.54752e-19 0.132117 -3.02158e-19 -0.00100276)
(-0.124938 -0.0620176 -4.01744e-19 0.126043 -2.88812e-19 -0.0011056)
(-0.118916 -0.0605293 -1.832e-19 0.120118 2.24632e-19 -0.00120212)
(-0.113142 -0.0589063 3.41529e-19 0.114435 4.89629e-19 -0.00129234)
(-0.107552 -0.0571864 -1.97212e-19 0.108928 4.32694e-19 -0.00137621)
(-0.102206 -0.0554236 2.12484e-19 0.10366 2.92931e-19 -0.00145363)
(-0.0970485 -0.0536391 4.51705e-20 0.098573 2.88523e-19 -0.00152446)
(-0.09212 -0.0518636 -4.45831e-19 0.0937085 5.91137e-20 -0.00158849)
(-0.0873724 -0.0501101 1.56656e-19 0.0890179 -8.0316e-20 -0.0016455)
(-0.0828334 -0.0483945 6.5811e-20 0.0845287 -3.4676e-21 -0.00169523)
(-0.0784637 -0.0467264 -9.48528e-20 0.080201 -2.73674e-19 -0.00173738)
(-0.0742813 -0.0451111 -8.28512e-20 0.076053 -2.3786e-19 -0.00177166)
(-0.0702553 -0.0435577 -1.9602e-19 0.072053 3.93809e-19 -0.00179771)
(-0.0663969 -0.0420639 4.42857e-20 0.0682121 7.29606e-21 -0.00181523)
(-0.0626829 -0.0406397 -3.68241e-20 0.0645067 3.63825e-19 -0.00182385)
(-0.0591191 -0.0392765 -5.91393e-20 0.0609423 -1.01652e-19 -0.00182324)
(-0.0556901 -0.0379866 4.83816e-19 0.0575032 1.21406e-19 -0.00181307)
(-0.052397 -0.0367559 -4.59671e-19 0.05419 2.41957e-19 -0.00179301)
(-0.049232 -0.0356004 9.28458e-20 0.0509947 -1.08618e-19 -0.00176276)
(-0.0461917 -0.0345 4.48537e-19 0.0479137 5.9122e-19 -0.00172203)
(-0.0432765 -0.0334764 4.94744e-19 0.044947 1.711e-19 -0.00167055)
(-0.040478 -0.0325024 -1.5574e-19 0.042086 4.15576e-19 -0.00160803)
(-0.0378058 -0.0316084 -5.09792e-19 0.03934 4.78951e-19 -0.00153424)
(-0.0352435 -0.0307572 -2.22907e-19 0.0366924 7.58089e-20 -0.00144889)
(-0.032817 -0.029992 4.58293e-20 0.0341688 -1.58873e-20 -0.00135174)
(-0.030487 -0.0292618 -3.10257e-19 0.0317295 -6.17253e-21 -0.00124246)
(-0.0283235 -0.0286291 1.25645e-19 0.0294443 -2.08202e-19 -0.00112081)
(-0.0262165 -0.0280206 4.11516e-19 0.0272028 2.94176e-19 -0.000986375)
(-0.0243518 -0.0275312 -4.43954e-19 0.0251907 -3.51134e-19 -0.000838845)
(-0.02246 -0.0270468 7.01354e-19 0.0231377 4.30321e-20 -0.000677715)
(-0.0209075 -0.0267446 -2.35857e-19 0.0214101 -1.31407e-19 -0.000502572)
(-0.019344 -0.0263076 1.01653e-18 0.0196569 5.33682e-19 -0.000312827)
(-0.0179166 -0.0264348 -6.09715e-19 0.0180247 -3.37145e-19 -0.000108132)
(-0.173075 -0.0570881 6.21964e-20 0.17316 -4.33875e-19 -8.44278e-05)
(-0.16701 -0.0634139 1.43169e-21 0.16725 -5.29825e-19 -0.000239212)
(-0.160461 -0.0673753 2.15009e-19 0.160846 1.92786e-19 -0.000384516)
(-0.153644 -0.0695324 1.16459e-19 0.154165 -4.20529e-20 -0.000521265)
(-0.146829 -0.0704791 -7.62346e-19 0.147479 -1.16329e-19 -0.000650191)
(-0.140029 -0.070482 -2.15089e-20 0.140801 -8.40723e-19 -0.000771824)
(-0.133426 -0.0698607 -2.74387e-19 0.134313 -3.7651e-20 -0.000886573)
(-0.126962 -0.0687507 -1.26644e-19 0.127957 -2.70053e-19 -0.000994694)
(-0.120763 -0.0673285 5.55166e-19 0.121859 6.03809e-19 -0.00109637)
(-0.114751 -0.0656664 5.66639e-19 0.115943 -1.64284e-20 -0.00119166)
(-0.109014 -0.0638642 -4.37652e-20 0.110294 -3.87436e-20 -0.0012806)
(-0.103478 -0.0619616 6.74352e-20 0.104841 -7.95634e-19 -0.00136309)
(-0.098202 -0.0600161 -2.00974e-19 0.099641 1.2858e-19 -0.00143904)
(-0.0931238 -0.0580499 -4.53605e-20 0.0946321 -7.04324e-19 -0.00150827)
(-0.0882825 -0.0560958 1.12448e-19 0.0898531 -9.43847e-20 -0.00157059)
(-0.0836269 -0.0541673 -8.25396e-21 0.0852526 -1.55063e-19 -0.00162574)