/*--------------------------------*- C++ -*----------------------------------*\
| =========                 |                                                 |
| \\      /  F ield         | foam-extend: Open Source CFD                    |
|  \\    /   O peration     | Version:  3.0                                   |
|   \\  /    A nd           | Web:         http://www.extend-project.de       |
|    \\/     M anipulation  |                                                 |
\*---------------------------------------------------------------------------*/
FoamFile
{
    version     2.0;
    format      ascii;
    class       volSymmTensorField;
    location    "8";
    object      sigma;
}
// * * * * * * * * * * * * * * * * * * * * * * * * * * * * * * * * * * * * * //

dimensions      [0 0 0 0 0 0 0];

internalField   nonuniform List<symmTensor> 
1920
(
(-0.175667 -0.00578219 4.87651e-20 0.175417 -1.15578e-20 0.000249655)
(-0.170618 -0.00682365 9.42775e-20 0.169949 1.47484e-20 0.000668782)
(-0.161152 -0.00717911 1.06593e-19 0.160113 1.00708e-20 0.00103976)
(-0.149843 -0.00716224 9.58873e-20 0.148473 3.86255e-20 0.00136969)
(-0.138001 -0.0069441 7.59616e-20 0.136338 6.34053e-20 0.0016627)
(-0.126275 -0.00662029 7.72031e-20 0.124354 5.20314e-20 0.00192042)
(-0.114997 -0.00624592 6.16857e-20 0.112854 9.31739e-20 0.00214315)
(-0.104315 -0.00585327 7.44138e-20 0.101986 7.80443e-20 0.00232959)
(-0.0942944 -0.00546134 6.98703e-20 0.0918166 1.17698e-19 0.00247777)
(-0.0849482 -0.00508185 6.25389e-20 0.0823637 1.32415e-19 0.00258447)
(-0.0762704 -0.00472151 3.7657e-20 0.0736242 1.44258e-19 0.00264617)
(-0.0682489 -0.00438513 2.018e-20 0.0655907 1.21305e-19 0.00265823)
(-0.0608674 -0.00407519 4.73324e-20 0.0582514 1.07537e-19 0.00261598)
(-0.0541215 -0.0037945 5.99427e-20 0.0516078 1.22081e-19 0.00251377)
(-0.0480058 -0.00354433 2.63872e-20 0.0456596 9.80283e-20 0.00234624)
(-0.0425372 -0.0033275 5.03773e-20 0.04043 1.60032e-20 0.0021072)
(-0.0377294 -0.00314531 6.06031e-20 0.0359382 -2.38555e-20 0.00179122)
(-0.0336284 -0.00300169 2.17774e-20 0.0322361 -3.34438e-20 0.0013923)
(-0.0302731 -0.00289852 1.88748e-20 0.0293673 -6.66752e-20 0.000905854)
(-0.0277472 -0.00283859 -4.92517e-21 0.02742 -3.73911e-20 0.000327249)
(-0.174895 -0.0173236 5.289e-20 0.174647 6.17003e-21 0.000248616)
(-0.169238 -0.0203812 9.58949e-20 0.168572 1.44451e-20 0.000665994)
(-0.159464 -0.0214118 1.08115e-19 0.158429 -7.68013e-22 0.00103542)
(-0.148017 -0.021343 1.25799e-19 0.146653 -5.71861e-21 0.00136396)
(-0.136135 -0.0206808 9.46863e-20 0.134479 4.89978e-20 0.00165574)
(-0.124426 -0.0197076 8.93282e-20 0.122513 6.13199e-20 0.00191237)
(-0.113197 -0.0185863 8.8677e-20 0.111063 9.45933e-20 0.00213415)
(-0.102582 -0.0174121 6.87974e-20 0.100262 1.89678e-19 0.00231979)
(-0.0926357 -0.0162411 7.58809e-20 0.0901684 2.31371e-19 0.00246735)
(-0.0833668 -0.0151078 6.14516e-20 0.0807932 2.12597e-19 0.00257359)
(-0.0747654 -0.0140321 4.71579e-20 0.0721303 2.01365e-19 0.00263503)
(-0.0668164 -0.013028 3.19487e-20 0.0641694 1.90756e-19 0.00264703)
(-0.0595024 -0.0121029 7.94088e-20 0.0568974 1.50493e-19 0.00260496)
(-0.0528174 -0.0112651 7.79092e-20 0.0503142 1.60506e-19 0.00250318)
(-0.0467553 -0.0105184 -2.60089e-21 0.0444189 2.07732e-19 0.00233636)
(-0.0413317 -0.00987096 -6.57962e-20 0.0392333 2.21541e-19 0.00209833)
(-0.03656 -0.00932682 -4.28112e-20 0.0347763 2.00743e-19 0.00178368)
(-0.0324847 -0.00889757 1.66299e-20 0.0310983 1.2454e-19 0.00138644)
(-0.0291445 -0.00858887 3.50899e-20 0.0282424 7.81584e-20 0.000902046)
(-0.0266224 -0.00840885 5.36039e-20 0.0262965 -3.71874e-20 0.000325874)
(-0.173356 -0.0287852 4.72148e-20 0.17311 1.05211e-20 0.000246486)
(-0.166508 -0.0336621 7.59462e-20 0.165848 9.22862e-21 0.000660284)
(-0.156133 -0.0352616 7.2485e-20 0.155107 5.68757e-21 0.00102655)
(-0.144418 -0.0350869 1.07443e-19 0.143066 -2.19929e-20 0.00135228)
(-0.13246 -0.033957 1.27614e-19 0.130818 -5.73927e-21 0.00164157)
(-0.120786 -0.0323288 1.00218e-19 0.118889 6.6602e-20 0.00189602)
(-0.109655 -0.0304656 1.54146e-19 0.107539 1.02782e-19 0.00211592)
(-0.0991715 -0.0285209 2.25957e-19 0.0968715 1.94803e-19 0.00229999)
(-0.0893734 -0.0265852 1.47624e-19 0.0869271 2.48333e-19 0.0024463)
(-0.0802574 -0.0247139 9.85702e-20 0.0777058 2.08225e-19 0.00255165)
(-0.0718067 -0.0229388 8.59073e-20 0.0691941 2.05027e-19 0.00261257)
(-0.0640012 -0.0212825 2.66754e-20 0.0613767 2.39144e-19 0.00262448)
(-0.0568204 -0.0197567 8.58828e-20 0.0542376 1.09867e-19 0.00258277)
(-0.0502556 -0.0183747 2.00086e-19 0.0477738 1.28701e-19 0.00248186)
(-0.0442994 -0.0171425 2.32836e-19 0.0419829 1.45756e-19 0.00231647)
(-0.0389649 -0.0160736 2.01578e-19 0.0368844 2.36114e-19 0.00208047)
(-0.0342647 -0.0151744 9.54136e-20 0.0324962 2.19962e-19 0.0017685)
(-0.0302406 -0.0144637 -3.32307e-21 0.0288659 6.24504e-20 0.00137465)
(-0.0269301 -0.013951 -7.58381e-20 0.0260358 -4.57381e-20 0.000894372)
(-0.024416 -0.0136496 -7.18112e-20 0.0240929 3.27532e-21 0.000323102)
(-0.171058 -0.0401145 4.18289e-20 0.170814 3.23001e-21 0.000243299)
(-0.16249 -0.0464911 5.9689e-20 0.161839 2.58905e-20 0.000651748)
(-0.151249 -0.0484875 4.82753e-20 0.150236 3.83108e-20 0.00101328)
(-0.139151 -0.0481194 6.2532e-20 0.137816 2.69977e-20 0.00133481)
(-0.127088 -0.0464838 1.34155e-19 0.125467 -3.55941e-20 0.00162037)
(-0.115468 -0.0441918 1.77566e-19 0.113597 -1.81082e-20 0.00187154)
(-0.104484 -0.041595 1.92359e-19 0.102395 5.37487e-21 0.00208862)
(-0.0941958 -0.038898 2.83297e-19 0.0919254 -2.23006e-20 0.00227033)
(-0.0846161 -0.036221 2.40116e-19 0.0822013 -2.66753e-21 0.00241476)
(-0.075725 -0.0336373 1.16697e-19 0.0732063 5.54377e-20 0.00251877)
(-0.0674959 -0.0311889 1.71055e-19 0.0649169 1.09477e-19 0.00257891)
(-0.0599011 -0.0289056 5.71841e-20 0.0573104 1.74163e-19 0.00259068)
(-0.0529161 -0.0268026 -1.06053e-20 0.0503666 9.05646e-20 0.00254951)
(-0.0465281 -0.0248975 1.61137e-19 0.0440782 4.59179e-20 0.00244991)
(-0.0407275 -0.0231981 2.05787e-19 0.0384408 1.02965e-20 0.00228665)
(-0.0355242 -0.0217226 3.1114e-19 0.0334705 -2.26152e-19 0.0020537)
(-0.0309294 -0.0204795 4.44579e-20 0.0291836 -1.32348e-19 0.00174575)
(-0.0269808 -0.0194943 -1.16525e-19 0.0256239 -2.00955e-19 0.00135696)
(-0.0237149 -0.01878 -4.61437e-20 0.0228321 -2.25854e-20 0.00088287)
(-0.0212134 -0.0183553 4.65135e-20 0.0208944 1.07193e-19 0.000318949)
(-0.168011 -0.0512595 2.48913e-20 0.167772 4.31802e-20 0.000239071)
(-0.157272 -0.058707 2.81791e-20 0.156632 9.40943e-20 0.000640421)
(-0.144942 -0.0608696 1.30224e-20 0.143946 1.01663e-19 0.000995673)
(-0.132368 -0.0601907 -3.71916e-20 0.131056 1.58057e-19 0.00131162)
(-0.120181 -0.0579987 9.24944e-22 0.118588 6.22133e-20 0.00159223)
(-0.10864 -0.0550314 8.74886e-20 0.106801 -8.83869e-21 0.00183905)
(-0.0978497 -0.0517126 1.66304e-19 0.0957973 -1.18619e-19 0.00205237)
(-0.0878169 -0.0482881 1.97913e-19 0.085586 -5.44233e-20 0.00223093)
(-0.0785214 -0.0449015 2.60178e-19 0.0761485 -5.65743e-20 0.00237287)
(-0.0699224 -0.0416404 1.74363e-19 0.0674473 1.4538e-19 0.00247509)
(-0.0619804 -0.0385541 2.53976e-19 0.0594462 9.01108e-20 0.0025342)
(-0.0546587 -0.035678 1.51336e-19 0.0521129 1.20936e-19 0.00254577)
(-0.0479273 -0.0330296 -2.59826e-20 0.0454219 1.63258e-19 0.00250533)
(-0.0417681 -0.0306299 3.75385e-20 0.0393606 2.6605e-19 0.00240746)
(-0.0361692 -0.028488 -8.44403e-21 0.0339222 1.94527e-20 0.00224704)
(-0.0311362 -0.026626 7.92531e-21 0.0291181 -1.53923e-19 0.00201813)
(-0.0266785 -0.0250543 2.02124e-19 0.024963 -9.78246e-20 0.00171551)
(-0.0228289 -0.0238041 -1.20349e-20 0.0214954 -2.89003e-20 0.00133347)
(-0.019622 -0.0228917 1.87686e-19 0.0187544 1.119e-19 0.000867585)
(-0.0171383 -0.0223411 -7.4517e-20 0.0168249 1.47241e-19 0.000313428)
(-0.164233 -0.0621701 -2.01703e-20 0.164 1.51837e-19 0.000233819)
(-0.150966 -0.0701669 -4.74725e-20 0.15034 2.53941e-19 0.000626351)
(-0.137378 -0.0722156 -8.26302e-21 0.136404 2.19463e-19 0.000973799)
(-0.124263 -0.0710842 1.85844e-20 0.12298 1.29607e-19 0.00128281)
(-0.111946 -0.0682747 -8.77411e-20 0.110389 1.35488e-19 0.00155726)
(-0.100513 -0.0646189 -6.88481e-20 0.0987143 8.15898e-20 0.00179867)
(-0.0899628 -0.060593 -1.51359e-20 0.0879555 6.23899e-20 0.00200731)
(-0.0802415 -0.0564716 1.97967e-19 0.0780596 8.74743e-20 0.00218198)
(-0.0712904 -0.0524148 3.38023e-19 0.0689696 -8.93373e-21 0.00232081)
(-0.063044 -0.0485191 2.78502e-19 0.0606232 1.20693e-19 0.0024208)
(-0.0554482 -0.0448386 1.71537e-19 0.0529695 8.4161e-20 0.00247863)
(-0.0484551 -0.0414117 2.22428e-19 0.0459652 1.58359e-19 0.00248995)
(-0.042029 -0.0382571 2.2975e-19 0.0395786 1.7926e-19 0.00245041)
(-0.0361454 -0.035398 1.01429e-19 0.0337907 3.67858e-19 0.0023547)
(-0.0307898 -0.0328441 -1.68691e-19 0.028592 -3.41581e-21 0.0021978)
(-0.0259624 -0.0306204 -9.34697e-20 0.0239884 4.05161e-20 0.00197391)
(-0.0216708 -0.0287387 4.65424e-20 0.0199929 -9.14429e-20 0.00167793)
(-0.0179418 -0.0272353 -1.27109e-20 0.0166376 -3.89978e-21 0.00130426)
(-0.014808 -0.0261292 2.8835e-19 0.0139594 -1.54927e-19 0.000848587)
(-0.0123484 -0.0254495 1.0589e-20 0.0120418 -2.37318e-20 0.000306566)
(-0.159743 -0.0727972 6.94609e-21 0.159515 1.42767e-19 0.000227566)
(-0.143706 -0.0807508 -6.74683e-20 0.143096 2.75176e-19 0.0006096)
(-0.128753 -0.0823677 -8.33629e-20 0.127805 1.2806e-19 0.000947756)
(-0.115064 -0.0806235 -2.6123e-20 0.113816 5.8093e-21 0.0012485)
(-0.102628 -0.0771284 -6.00072e-20 0.101112 1.44681e-19 0.00151562)
(-0.0913353 -0.0727701 -4.99864e-20 0.0895847 9.84027e-20 0.00175058)
(-0.0810713 -0.0680549 -6.74799e-21 0.0791176 1.04084e-19 0.00195366)
(-0.0717129 -0.0632727 7.17145e-20 0.0695892 -4.66626e-20 0.00212366)
(-0.0631595 -0.0585914 2.55648e-19 0.0609007 -1.24212e-19 0.0022588)
(-0.0553187 -0.0541109 4.23686e-19 0.0529626 -5.92034e-20 0.00235613)
(-0.0481201 -0.0498865 3.27988e-19 0.0457077 1.56848e-20 0.00241243)
(-0.0415038 -0.0459573 3.38831e-19 0.0390804 -2.27269e-20 0.00242346)
(-0.0354275 -0.0423419 4.41949e-19 0.0330425 -1.53757e-19 0.00238499)
(-0.0298599 -0.0390639 4.02176e-19 0.0275681 -6.75755e-20 0.00229184)
(-0.0247833 -0.0361332 -1.3138e-19 0.0226442 -3.79284e-19 0.00213914)
(-0.0201925 -0.0335765 -8.57276e-20 0.0182712 -3.1493e-19 0.00192123)
(-0.0160928 -0.0314068 1.17099e-20 0.0144596 -2.09356e-19 0.00163316)
(-0.0125043 -0.0296639 3.56115e-21 0.0112348 -6.05697e-19 0.00126947)
(-0.00945722 -0.0283692 -4.79929e-20 0.00863127 -2.91551e-19 0.000825951)
(-0.00702893 -0.0275573 2.35335e-19 0.00673054 -4.46587e-19 0.000298389)
(-0.154563 -0.0830939 6.8732e-20 0.154342 6.70862e-20 0.000220338)
(-0.135641 -0.0903642 3.96134e-20 0.135051 2.89885e-20 0.000590238)
(-0.119285 -0.0912072 -1.36047e-19 0.118367 -1.19855e-20 0.000917654)
(-0.105027 -0.0886785 -2.64631e-20 0.103819 8.10119e-21 0.00120885)
(-0.0924987 -0.0844256 6.15115e-20 0.0910312 3.62767e-21 0.00146749)
(-0.0813848 -0.0793513 -9.49412e-20 0.0796898 1.69278e-20 0.00169499)
(-0.071451 -0.0739678 -7.19944e-20 0.0695594 -6.45711e-20 0.00189163)
(-0.0625016 -0.0685653 -6.75542e-20 0.0604454 -1.20728e-19 0.00205625)
(-0.054392 -0.0633101 2.49799e-20 0.0522049 2.97993e-20 0.00218711)
(-0.0470013 -0.0582998 3.86138e-19 0.04472 -7.0536e-20 0.00228136)
(-0.0402422 -0.0535874 1.97863e-19 0.0379063 1.17302e-19 0.00233589)
(-0.0340421 -0.0492095 8.20501e-20 0.0316956 -4.09732e-20 0.00234659)
(-0.028352 -0.0451832 1.71335e-19 0.0260427 -1.66833e-19 0.00230935)
(-0.0231336 -0.0415311 3.32588e-19 0.0209145 -1.99525e-19 0.00221916)
(-0.0183658 -0.0382625 -3.53634e-19 0.0162945 -3.25056e-19 0.00207131)
(-0.0140375 -0.0354045 -2.45692e-19 0.0121772 -6.28882e-20 0.00186033)
(-0.0101518 -0.0329711 -2.88248e-19 0.00857042 -3.98795e-19 0.0015814)
(-0.00672152 -0.0310039 -5.05487e-19 0.00549229 -4.38468e-19 0.00122923)
(-0.00377446 -0.0295269 -2.46702e-19 0.00297469 1.56626e-19 0.000799777)
(-0.00138583 -0.0285796 1.28752e-19 0.0010969 -8.43765e-20 0.000288936)
(-0.148719 -0.0930154 4.25272e-20 0.148506 2.80884e-20 0.000212168)
(-0.126931 -0.0989411 5.91112e-20 0.126363 -7.79493e-20 0.000568351)
(-0.109208 -0.0986579 -8.99614e-20 0.108324 -6.72777e-20 0.000883624)
(-0.0944243 -0.0951692 -9.50001e-20 0.0932603 -3.67947e-20 0.00116402)
(-0.0818476 -0.0900861 1.99593e-20 0.0804345 -4.11178e-20 0.00141307)
(-0.0709569 -0.0842841 -2.22413e-20 0.0693247 -3.36217e-20 0.00163215)
(-0.061396 -0.0782561 -1.71667e-19 0.0595745 -2.53567e-20 0.0018215)
(-0.052896 -0.0722771 -7.67657e-20 0.050916 6.39561e-21 0.00198003)
(-0.045268 -0.0665026 -1.14214e-19 0.043162 2.26876e-19 0.00210605)
(-0.0383627 -0.0610213 1.36703e-19 0.0361659 2.51962e-19 0.00219682)
(-0.0320758 -0.05588 4.33624e-19 0.0298264 2.95875e-19 0.00224933)
(-0.0263223 -0.0511105 8.63928e-20 0.0240627 -2.91244e-20 0.00225965)
(-0.0210464 -0.0467264 -1.83429e-19 0.0188226 1.54595e-19 0.0022238)
(-0.0162026 -0.0427478 3.1321e-19 0.0140656 1.62359e-20 0.00213697)
(-0.0117668 -0.0391827 -2.45746e-19 0.00977215 1.37639e-19 0.00199461)
(-0.00772164 -0.0360574 -3.57608e-19 0.00593019 2.91389e-20 0.00179144)
(-0.00406803 -0.0333861 -7.82646e-19 0.00254518 1.01076e-19 0.00152285)
(-0.000811473 -0.0312113 -4.7573e-19 -0.000372258 5.84037e-19 0.00118373)
(0.0020229 -0.0295589 -1.73691e-19 -0.00279308 4.55493e-19 0.000770176)
(0.00436232 -0.0284732 -2.50306e-19 -0.00464056 2.8553e-19 0.000278244)
(-0.142239 -0.102519 -4.95102e-20 0.142036 9.60912e-20 0.00020309)
(-0.117741 -0.106445 -1.18065e-20 0.117197 -4.05424e-20 0.000544032)
(-0.0987612 -0.104688 -8.87796e-20 0.0979154 -8.19572e-20 0.000845813)
(-0.0835335 -0.100068 -1.27702e-19 0.0824193 -2.68891e-21 0.00111421)
(-0.0709716 -0.0940856 -4.99063e-20 0.069619 2.51558e-20 0.00135261)
(-0.060354 -0.0875475 -1.38505e-19 0.0587917 1.10952e-19 0.00156231)
(-0.0512069 -0.0809016 -2.02107e-19 0.0494633 9.5828e-20 0.00174357)
(-0.0431906 -0.0743924 -1.40196e-19 0.0412953 1.59708e-19 0.00189532)
(-0.0360738 -0.0681551 9.25608e-20 0.0340578 2.3309e-19 0.00201596)
(-0.0296797 -0.0622636 9.29758e-20 0.0275769 2.78354e-19 0.00210286)
(-0.0238881 -0.0567546 3.28554e-19 0.0217349 -4.1936e-20 0.00215315)
(-0.0186021 -0.0516521 3.99522e-19 0.0164391 -3.00328e-19 0.00216303)
(-0.0137594 -0.0469649 3.96682e-20 0.0116306 2.36981e-20 0.00212873)
(-0.00930782 -0.0427088 1.95009e-19 0.0072622 -1.37335e-21 0.00204563)
(-0.00522021 -0.0388898 6.04382e-20 0.00331085 -6.6821e-20 0.00190936)
(-0.00147347 -0.0355322 -2.46942e-20 -0.000241412 -3.92687e-20 0.00171489)
(0.0019339 -0.0326501 1.30117e-19 -0.00339167 1.12912e-19 0.00145778)
(0.00500359 -0.0302853 -2.86134e-19 -0.00613675 2.45185e-19 0.00113316)
(0.00771321 -0.028465 1.99744e-20 -0.00845048 5.4469e-20 0.000737275)
(0.00999272 -0.0272387 -4.31933e-19 -0.0102591 4.39663e-19 0.000266359)
(-0.135157 -0.111565 -6.46655e-20 0.134964 4.38005e-20 0.000193144)
(-0.108237 -0.112868 -1.14049e-19 0.10772 -2.83457e-20 0.000517386)
(-0.088183 -0.10931 -1.22152e-19 0.0873787 -4.05184e-20 0.000804385)
(-0.0726306 -0.103399 -9.85027e-20 0.0715709 -6.35557e-21 0.00105964)
(-0.0601636 -0.0964561 -1.3168e-19 0.0588772 2.02372e-19 0.00128635)
(-0.0498743 -0.0891776 4.54832e-20 0.0483885 1.21481e-19 0.00148579)
(-0.0411799 -0.081943 -1.08311e-19 0.0395218 -1.25565e-20 0.00165818)
(-0.0336757 -0.0749515 -9.38954e-20 0.0318732 4.22977e-20 0.0018025)
(-0.0270911 -0.0683089 1.83272e-19 0.0251739 -5.25275e-20 0.00191724)
(-0.0212249 -0.0620682 3.18439e-19 0.019225 -1.75265e-19 0.0019999)
(-0.0159419 -0.0562527 4.37741e-20 0.0138942 -3.27176e-19 0.00204773)
(-0.0111349 -0.0508759 1.3209e-19 0.00907774 -2.70179e-19 0.00205715)
(-0.00673564 -0.0459401 3.48341e-19 0.00471111 -7.77619e-20 0.00202454)
(-0.00268605 -0.0414554 4.39677e-19 0.000740534 -2.62459e-19 0.00194551)
(0.00104382 -0.0374252 3.24745e-20 -0.00285974 -2.63245e-19 0.00181592)
(0.00448244 -0.0338706 -2.08745e-19 -0.00611342 -1.77644e-19 0.00163098)
(0.00763352 -0.0308049 5.04601e-20 -0.00901998 -2.08118e-19 0.00138646)
(0.0105056 -0.028268 1.14121e-19 -0.0115833 1.34133e-19 0.00107773)
(0.013079 -0.0262884 4.51503e-19 -0.0137802 2.69038e-19 0.000701215)
(0.0152868 -0.0249199 2.13742e-19 -0.0155402 -1.80663e-19 0.000253334)
(-0.127505 -0.120116 8.72147e-21 0.127322 -4.09213e-20 0.000182372)
(-0.0985773 -0.118232 -5.86323e-20 0.0980888 -8.60734e-20 0.00048853)
(-0.0777001 -0.112579 -1.36028e-19 0.0769406 -5.72815e-20 0.00075952)
(-0.0619777 -0.105237 -3.82267e-20 0.0609771 1.75986e-20 0.00100053)
(-0.049702 -0.0972835 -2.88901e-20 0.0484874 1.62252e-19 0.0012146)
(-0.0398009 -0.0892662 2.77021e-20 0.038398 -1.03424e-19 0.00140292)
(-0.0315961 -0.0814746 -8.89816e-20 0.0300304 -1.01478e-19 0.00156569)
(-0.0246262 -0.074049 -9.37451e-20 0.0229242 -1.55983e-19 0.00170197)
(-0.018587 -0.0670578 -1.13738e-19 0.0167767 -2.00632e-19 0.00181032)
(-0.013256 -0.0605277 1.52604e-19 0.0113676 -2.48316e-19 0.00188837)
(-0.00848584 -0.0544653 5.20265e-20 0.00655228 -1.5599e-19 0.00193355)
(-0.00416019 -0.0488711 -7.0378e-20 0.00221774 -7.36243e-20 0.00194245)
(-0.000206282 -0.0437396 -1.04158e-19 -0.00170539 -1.88644e-19 0.00191167)
(0.00343916 -0.039074 1.83071e-20 -0.00527622 -8.361e-20 0.00183706)
(0.00680827 -0.0348741 4.00557e-19 -0.00852299 -4.57644e-20 0.00171471)
(0.00993432 -0.0311568 -9.87296e-20 -0.0114744 -1.12255e-19 0.00154009)
(0.012823 -0.0279344 -5.34797e-20 -0.0141322 9.57692e-21 0.0013092)
(0.015489 -0.0252437 9.28886e-20 -0.0165067 3.79091e-20 0.00101768)
(0.0179155 -0.0231136 1.20886e-19 -0.0185777 -2.25208e-19 0.00066215)
(0.0200389 -0.0216027 1.68664e-19 -0.0202781 -3.17063e-19 0.000239222)
(-0.119319 -0.128138 3.69801e-20 0.119148 -6.19844e-20 0.000170822)
(-0.0889092 -0.122585 7.54898e-20 0.0884517 -1.67712e-19 0.000457588)
(-0.0675208 -0.11459 -9.13635e-20 0.0668094 -7.60988e-20 0.000711411)
(-0.0518145 -0.105705 -4.98871e-20 0.0508774 3.38992e-20 0.000937154)
(-0.0398404 -0.0967038 1.86621e-19 0.0387028 -7.03793e-20 0.00113766)
(-0.0303912 -0.0879562 5.49535e-20 0.0290772 -1.76716e-19 0.00131405)
(-0.0227107 -0.0796414 -3.92751e-20 0.0212442 -1.18301e-19 0.00146651)
(-0.0162917 -0.0718296 -2.28403e-19 0.0146976 -7.71276e-20 0.00159416)
(-0.0108034 -0.0645446 -4.367e-19 0.00910775 1.03684e-20 0.00169565)
(-0.00600669 -0.0577821 -2.19174e-19 0.00423792 -4.2404e-20 0.00176877)
(-0.00174479 -0.0515291 -4.0878e-20 -6.63024e-05 -3.63842e-20 0.0018111)
(0.00210531 -0.0457711 -6.58482e-20 -0.00392476 2.34098e-20 0.00181945)
(0.00561982 -0.0404938 -1.91778e-19 -0.00741044 9.17554e-20 0.00179062)
(0.00886587 -0.035692 -3.99325e-19 -0.0105866 1.91841e-19 0.00172075)
(0.0118773 -0.0313618 -9.70422e-20 -0.0134834 -3.35792e-21 0.00160616)
(0.0146912 -0.0275145 -4.8788e-20 -0.0161338 2.92513e-20 0.0014426)
(0.0173149 -0.0241613 -2.09235e-20 -0.0185413 -8.51294e-20 0.00122634)
(0.0197688 -0.0213346 -1.04803e-19 -0.020722 -8.73071e-20 0.000953275)
(0.0220383 -0.0190637 -1.35975e-19 -0.0226586 -1.18833e-19 0.000620251)
(0.0240637 -0.0174115 2.81322e-20 -0.0242878 3.36464e-20 0.000224087)
(-0.110637 -0.135598 7.77949e-20 0.110479 -1.19428e-19 0.000158542)
(-0.079365 -0.126 3.56628e-20 0.0789403 -1.00784e-19 0.000424694)
(-0.0578278 -0.115475 2.1141e-20 0.0571675 -5.26747e-20 0.000660268)
(-0.0423496 -0.104965 -8.33312e-21 0.0414798 -8.51121e-20 0.000869778)
(-0.0307988 -0.0948972 1.19249e-19 0.0297429 -1.95195e-19 0.00105587)
(-0.0218679 -0.0854352 1.55951e-19 0.0206483 -2.03982e-19 0.00121957)
(-0.0147438 -0.0766335 7.3002e-20 0.0133828 -5.12794e-20 0.00136107)
(-0.00888722 -0.0684822 1.26212e-19 0.00740768 -7.82094e-21 0.00147954)
(-0.00394848 -0.0609548 -1.90596e-19 0.00237474 -7.72663e-20 0.00157374)
(0.000322383 -0.0540126 -3.7986e-19 -0.00196399 -1.70094e-19 0.00164161)
(0.00408814 -0.0476208 -2.95719e-19 -0.00576904 -1.26256e-20 0.0016809)
(0.00747594 -0.0417481 -1.20946e-19 -0.00916459 1.79881e-19 0.00168866)
(0.0105638 -0.0363704 -3.56511e-20 -0.0122258 3.19984e-19 0.00166192)
(0.0134215 -0.0314735 -5.02012e-20 -0.0150185 1.39709e-19 0.00159708)
(0.0160835 -0.0270488 -3.08195e-19 -0.0175742 1.41229e-19 0.00149073)
(0.01859 -0.0231019 -3.56091e-19 -0.019929 9.8031e-20 0.00133894)
(0.0209497 -0.0196422 -3.54385e-19 -0.0220879 1.57231e-19 0.00113823)
(0.0231872 -0.0166968 -1.52978e-19 -0.024072 2.49284e-19 0.000884789)
(0.0252906 -0.0142951 -1.959e-19 -0.0258663 -5.80215e-20 0.000575695)
(0.0272039 -0.0125042 -3.38692e-19 -0.0274119 2.28937e-19 0.000207992)
(-0.101499 -0.142469 3.50055e-20 0.101354 -5.32218e-20 0.000145587)
(-0.0700566 -0.128566 4.758e-20 0.0696666 -2.46328e-20 0.000389989)
(-0.0487717 -0.115392 8.49067e-20 0.0481654 -7.76325e-20 0.000606309)
(-0.0337531 -0.103214 -6.91303e-21 0.0329544 -1.61391e-19 0.000798693)
(-0.0227553 -0.0920801 -4.36025e-20 0.0217857 -1.95829e-19 0.000969569)
(-0.0144105 -0.0819286 4.85717e-21 0.0132906 -1.31069e-19 0.00111988)
(-0.0078728 -0.0726779 6.24732e-20 0.00662298 -1.5727e-20 0.00124982)
(-0.00258526 -0.0642319 1.40329e-19 0.00122665 -5.17318e-20 0.00135861)
(0.00181105 -0.0565095 1.43619e-19 -0.00325615 -2.0959e-19 0.00144511)
(0.00557083 -0.0494351 -2.68439e-19 -0.00707826 -1.78741e-19 0.00150743)
(0.00885899 -0.0429503 -2.4367e-19 -0.0104025 2.27577e-20 0.00154352)
(0.0118039 -0.0370061 2.56765e-20 -0.0133545 1.14104e-19 0.00155065)
(0.0144837 -0.0315681 2.17395e-19 -0.0160098 7.71246e-20 0.00152611)
(0.016969 -0.026612 1.58068e-19 -0.0184356 -4.20328e-20 0.00146658)
(0.0192946 -0.0221249 3.52764e-19 -0.0206635 1.11379e-19 0.00136893)
(0.0215022 -0.0181055 1.4819e-19 -0.0227317 5.85318e-20 0.00122955)
(0.0236015 -0.0145614 7.82837e-20 -0.0246467 -7.66458e-21 0.00104525)
(0.0256203 -0.0115138 -3.51186e-20 -0.0264328 -1.10543e-19 0.000812519)
(0.027549 -0.00899201 3.50533e-20 -0.0280777 -9.08027e-20 0.000528679)
(0.0293359 -0.00706676 5.66643e-20 -0.0295269 -7.81373e-20 0.000191008)
(-0.0919451 -0.148724 4.31758e-21 0.0918131 -1.48481e-20 0.000132013)
(-0.0610728 -0.130393 -2.12195e-21 0.0607192 2.42256e-20 0.000353624)
(-0.0404667 -0.114524 1.67696e-19 0.0399169 -1.11857e-19 0.00054977)
(-0.0261512 -0.100675 8.85717e-24 0.025427 -1.56569e-19 0.000724207)
(-0.0158405 -0.0884967 -1.30753e-19 0.0149613 -1.42632e-19 0.000879141)
(-0.00814973 -0.0776894 -1.342e-19 0.0071343 -3.81331e-20 0.00101543)
(-0.00222562 -0.0680296 6.35508e-20 0.00109238 -1.63592e-20 0.00113324)
(0.00249015 -0.059331 5.99046e-20 -0.00372203 -8.47694e-20 0.00123188)
(0.00635589 -0.0514561 1.58103e-19 -0.0076662 -2.30063e-19 0.00131031)
(0.00962437 -0.0442905 -1.90494e-19 -0.0109912 -9.2731e-20 0.00136682)
(0.0124585 -0.037752 -1.86196e-19 -0.013858 -1.57017e-19 0.00139955)
(0.0149846 -0.031773 -1.86461e-19 -0.0163906 -9.49963e-20 0.00140602)
(0.0172794 -0.0263083 1.35397e-19 -0.0186632 -5.61972e-20 0.00138378)
(0.0194124 -0.0213238 6.10383e-20 -0.0207423 -2.14986e-19 0.00132981)
(0.0214179 -0.0168013 1.23417e-19 -0.0226592 -3.10659e-21 0.00124128)
(0.023338 -0.012733 4.3489e-19 -0.0244529 -1.72364e-19 0.00111491)
(0.0251828 -0.00912421 1.74402e-19 -0.0261306 -2.01066e-19 0.000947796)
(0.0269823 -0.00598993 1.89642e-19 -0.027719 -2.27051e-19 0.000736775)
(0.0287286 -0.00335894 -2.16823e-19 -0.029208 -2.4356e-19 0.000479399)
(0.0303748 -0.00130556 1.08251e-19 -0.030548 -4.03224e-20 0.000173206)
(-0.0820167 -0.15434 3.37742e-20 0.0818988 -3.78141e-21 0.000117876)
(-0.0524771 -0.131598 1.10629e-19 0.0521614 -5.20534e-20 0.000315755)
(-0.0329867 -0.113067 8.17201e-20 0.0324958 -9.95333e-20 0.000490892)
(-0.0196219 -0.0975893 7.21133e-20 0.0189752 -1.02731e-19 0.000646641)
(-0.010133 -0.0844088 1.46527e-20 0.00934807 -1.47469e-19 0.000784972)
(-0.00316265 -0.0729887 -1.17152e-19 0.00225599 -8.70763e-20 0.000906656)
(0.00212327 -0.0629612 7.53938e-21 -0.00313511 -6.99008e-20 0.00101184)
(0.00626781 -0.0540494 -5.30022e-20 -0.00736771 -1.15568e-19 0.00109991)
(0.00961835 -0.0460588 -1.51337e-19 -0.0107883 -3.84064e-20 0.00116993)
(0.0124188 -0.0388364 2.27358e-20 -0.0136392 -2.84306e-20 0.00122039)
(0.0148258 -0.0322759 -1.56286e-19 -0.0160754 -2.45623e-19 0.00124961)
(0.0169607 -0.0262915 -4.94259e-19 -0.0182161 -4.66642e-20 0.0012554)
(0.0188965 -0.0208272 -2.66031e-19 -0.0201321 -3.10043e-20 0.00123554)
(0.0207001 -0.0158385 -3.90739e-19 -0.0218875 -1.5416e-20 0.00118737)
(0.0224043 -0.0113029 -1.64262e-19 -0.0235127 1.04871e-19 0.00110833)
(0.0240502 -0.00720518 -1.6098e-19 -0.0250457 -1.36535e-19 0.000995502)
(0.0256483 -0.0035487 -1.93301e-19 -0.0264946 1.08423e-19 0.000846299)
(0.0272288 -0.000341941 1.74809e-20 -0.0278867 2.20877e-20 0.000657884)
(0.0287859 0.00238692 -1.23037e-19 -0.029214 -4.01037e-20 0.000428073)
(0.0302773 0.00456031 -1.17808e-19 -0.030432 5.4671e-20 0.000154665)
(-0.0717565 -0.159297 8.78633e-20 0.0716532 -3.5772e-20 0.00010324)
(-0.0443063 -0.132303 1.19232e-19 0.0440298 -6.30985e-20 0.000276546)
(-0.0263637 -0.111224 9.98954e-20 0.0259338 -8.48317e-20 0.000429929)
(-0.0141931 -0.0942019 1.05284e-20 0.0136268 -7.34879e-20 0.000566328)
(-0.00565739 -0.0800851 6.83765e-20 0.00496992 -1.41594e-19 0.000687469)
(0.000529384 -0.0681042 -5.90531e-20 -0.00132341 -1.04477e-19 0.000794028)
(0.00515525 -0.057752 -5.90047e-21 -0.00604139 -5.53687e-20 0.000886135)
(0.00873153 -0.048663 -9.84581e-21 -0.00969479 -1.84859e-20 0.000963255)
(0.0115845 -0.0405878 -2.20164e-20 -0.012609 -3.79236e-20 0.00102458)
(0.0139423 -0.0333359 -2.35738e-20 -0.015011 -1.32541e-19 0.00106876)
(0.015951 -0.0267777 -6.52206e-20 -0.0170453 -1.19265e-19 0.00109435)
(0.0177236 -0.0208097 -1.89954e-19 -0.018823 3.37076e-20 0.00109943)
(0.0193281 -0.0153656 -9.21317e-20 -0.0204101 -6.27673e-20 0.00108204)
(0.0208265 -0.0103911 -3.4538e-19 -0.0218664 -2.89797e-20 0.00103986)
(0.0222495 -0.005859 -1.01457e-19 -0.0232202 -1.5224e-21 0.000970652)
(0.0236359 -0.00174732 -2.418e-19 -0.0245078 -7.3855e-21 0.000871849)
(0.0249959 0.00194271 -1.60365e-19 -0.0257371 1.38839e-19 0.000741188)
(0.026359 0.00520902 -2.6496e-20 -0.0269352 -4.31009e-20 0.000576182)
(0.0277207 0.00802412 -3.27848e-19 -0.0280956 8.59296e-20 0.000374917)
(0.029044 0.0103075 1.64013e-19 -0.0291795 1.41195e-20 0.000135462)
(-0.0612077 -0.163577 2.43974e-22 0.0611195 -4.48592e-21 8.81647e-05)
(-0.0365704 -0.132631 1.16498e-20 0.0363343 -1.5432e-20 0.000236163)
(-0.0205877 -0.109196 2.69566e-20 0.0202205 -1.77429e-20 0.000367142)
(-0.00984272 -0.0907567 9.30555e-20 0.0093591 -7.25617e-20 0.000483613)
(-0.00238369 -0.0757903 2.56231e-20 0.00179665 -1.34007e-19 0.000587049)
(0.00296084 -0.0633099 -8.2006e-20 -0.00363887 -8.63049e-20 0.000678029)
(0.00690759 -0.052677 -8.34913e-20 -0.00766426 -2.14719e-20 0.000756668)
(0.00992024 -0.0434437 2.87563e-20 -0.0107428 -5.88591e-21 0.00082251)
(0.012294 -0.0353091 1.23308e-19 -0.0131689 -1.08052e-19 0.000874863)
(0.0142349 -0.0280479 -2.22893e-20 -0.0151475 -1.61022e-19 0.000912589)
(0.0158744 -0.0215087 -8.90904e-20 -0.0168088 -1.14286e-19 0.000934439)
(0.017314 -0.0155715 -6.37475e-20 -0.0182528 -6.98432e-20 0.000938771)
(0.0186147 -0.0101604 -2.24026e-20 -0.0195386 -1.20973e-19 0.000923934)
(0.0198323 -0.00521214 -1.62271e-19 -0.0207202 -1.52047e-19 0.000887923)
(0.0209944 -0.000694943 -2.89722e-19 -0.0218232 -5.32888e-20 0.000828836)
(0.0221362 0.00341942 -2.21821e-19 -0.0228807 3.56979e-20 0.000744478)
(0.0232671 0.00713173 -2.04614e-19 -0.0239001 1.63133e-19 0.000632916)
(0.0244148 0.010446 1.14915e-19 -0.0249069 2.22078e-19 0.000492023)
(0.025576 0.0133355 1.1037e-19 -0.0258961 4.93506e-20 0.000320162)
(0.0267188 0.0157171 3.4745e-20 -0.0268345 -9.34754e-20 0.000115681)
(-0.050414 -0.167166 -1.78264e-20 0.0503413 1.31705e-21 7.27167e-05)
(-0.0292536 -0.132698 -3.02358e-20 0.0290588 -4.99852e-22 0.00019478)
(-0.0156082 -0.107174 -2.24685e-20 0.0153054 -1.25098e-20 0.000302802)
(-0.00649993 -0.087484 -1.81964e-20 0.00610108 -5.28441e-20 0.00039885)
(-0.000229849 -0.071775 -7.20285e-20 -0.000254293 -6.36462e-20 0.000484141)
(0.00421996 -0.0588643 -1.08072e-19 -0.00477912 -1.99148e-20 0.000559157)
(0.00747137 -0.0479959 -1.80014e-20 -0.00809537 -3.09593e-20 0.000623994)
(0.00992586 -0.038648 -4.59164e-20 -0.0106041 -6.09769e-20 0.000678277)
(0.0118387 -0.0304738 -1.09669e-20 -0.0125601 -1.08078e-19 0.000721437)
(0.0133874 -0.0232167 -5.54626e-20 -0.0141399 -9.57039e-20 0.000752539)
(0.0146853 -0.016706 -9.73828e-21 -0.0154558 -1.15386e-19 0.000770554)
(0.0158196 -0.0108069 -1.15205e-19 -0.0165937 -1.22817e-19 0.000774126)
(0.0168427 -0.00543503 -1.07074e-19 -0.0176046 -1.17772e-19 0.000761895)
(0.0178026 -0.000518926 -2.20839e-19 -0.0185349 -8.12465e-20 0.000732205)
(0.018723 0.00397696 -1.84303e-19 -0.0194065 2.14549e-20 0.00068349)
(0.0196345 0.00808665 -2.16206e-19 -0.0202485 3.84048e-20 0.000613935)
(0.0205454 0.0118127 -2.14302e-19 -0.0210674 1.50625e-19 0.000521945)
(0.0214801 0.0151646 9.75248e-20 -0.0218859 1.15875e-19 0.000405764)
(0.0224362 0.0181163 7.30517e-20 -0.0227002 -1.56828e-20 0.000264039)
(0.0233875 0.0205827 5.57126e-21 -0.0234829 1.8324e-20 9.54059e-05)
(-0.0394196 -0.170052 -2.52451e-20 0.0393627 2.43985e-21 5.69613e-05)
(-0.0223161 -0.132612 -4.78027e-20 0.0221635 1.90975e-21 0.000152575)
(-0.0113372 -0.105328 -4.9626e-20 0.0111001 -9.0285e-21 0.000237181)
(-0.00404946 -0.0845917 -5.92647e-20 0.00373706 -2.7521e-20 0.0003124)
(0.000934476 -0.0682652 -6.9625e-20 -0.00131366 -1.76403e-20 0.000379187)
(0.00444455 -0.0550007 -5.82394e-21 -0.00488247 -2.03662e-20 0.00043792)
(0.00698731 -0.0439429 3.32631e-21 -0.00747598 -4.41893e-20 0.000488678)
(0.00888923 -0.0345073 3.63265e-20 -0.0094204 -7.40614e-20 0.00053117)
(0.0103576 -0.026308 -3.70466e-21 -0.0109226 -1.18738e-19 0.000564954)
(0.0115365 -0.0190624 -5.39706e-20 -0.0121258 -1.12706e-19 0.000589298)
(0.0125176 -0.0125831 -4.34949e-20 -0.013121 -1.29776e-19 0.000603397)
(0.0133716 -0.00672297 -1.40219e-19 -0.0139778 -1.0561e-19 0.000606193)
(0.0141405 -0.00139051 -1.03179e-19 -0.0147372 -1.02477e-19 0.000596617)
(0.0148636 0.00349273 -2.35768e-19 -0.0154369 -1.00539e-19 0.000573374)
(0.0155596 0.00796552 -3.20524e-19 -0.0160949 5.62969e-20 0.000535235)
(0.0162538 0.0120667 -7.88586e-20 -0.0167345 1.31056e-19 0.000480778)
(0.0169528 0.0158005 -6.83838e-20 -0.0173615 1.03992e-19 0.000408751)