/*--------------------------------*- C++ -*----------------------------------*\
| =========                 |                                                 |
| \\      /  F ield         | foam-extend: Open Source CFD                    |
|  \\    /   O peration     | Version:  3.0                                   |
|   \\  /    A nd           | Web:         http://www.extend-project.de       |
|    \\/     M anipulation  |                                                 |
\*---------------------------------------------------------------------------*/
FoamFile
{
    version     2.0;
    format      ascii;
    class       volScalarField;
    location    "71";
    object      p;
}
// * * * * * * * * * * * * * * * * * * * * * * * * * * * * * * * * * * * * * //

dimensions      [0 0 0 0 0 0 0];

internalField   nonuniform List<scalar> 
2688
(
-0.2341767381
-0.2148975261
-0.2033715181
-0.190199811
-0.1829565116
-0.1736243153
-0.1691239362
-0.162374703
-0.1596975942
-0.1547595693
-0.1533024711
-0.149656737
-0.148986742
-0.1462517625
-0.1460273079
-0.1438950113
-0.1438182121
-0.1420143961
-0.1417987749
-0.1400551708
-0.1394009384
-0.1374326055
-0.1360048894
-0.1334885032
-0.2334353792
-0.2142182188
-0.2027293579
-0.189599959
-0.1823798751
-0.1730775433
-0.1685915107
-0.1618637971
-0.159195114
-0.1542727655
-0.1528201223
-0.1491858953
-0.1485177928
-0.1457913842
-0.145567373
-0.1434417032
-0.1433648761
-0.1415666353
-0.1413514987
-0.1396133164
-0.1389611228
-0.1369989577
-0.1355759859
-0.1330676537
-0.2319850467
-0.2128875774
-0.2014702514
-0.1884226998
-0.1812475637
-0.1720032916
-0.1675451117
-0.1608594451
-0.1582071803
-0.1533156326
-0.1518716802
-0.148260209
-0.147595732
-0.1448863738
-0.144663031
-0.1425505793
-0.142473331
-0.1406861507
-0.1404713548
-0.1387437556
-0.1380946377
-0.1361444785
-0.1347296232
-0.1322373608
-0.2297806954
-0.2108656174
-0.1995573864
-0.1866344881
-0.1795279077
-0.1703719785
-0.1659563898
-0.1593346451
-0.1567077141
-0.1518629727
-0.1504328109
-0.1468559403
-0.1461978149
-0.143514459
-0.1432932652
-0.1412011147
-0.1411246292
-0.1393545994
-0.1391418861
-0.1374307536
-0.136787874
-0.1348561433
-0.133454874
-0.1309860987
-0.2268762615
-0.2082005908
-0.1970354399
-0.1842761104
-0.1772593578
-0.1682193016
-0.1638593659
-0.1573213839
-0.1547273105
-0.1499437874
-0.1485311498
-0.1449993821
-0.1443488096
-0.1416991665
-0.141479805
-0.1394137941
-0.1393371616
-0.1375891035
-0.1373778992
-0.1356879191
-0.1350520232
-0.1331442747
-0.1317597743
-0.1293222293
-0.2232363019
-0.2048611804
-0.1938758212
-0.181321951
-0.1744182672
-0.1655238924
-0.1612342947
-0.1548017969
-0.1522496654
-0.1475434567
-0.1461537717
-0.1426792309
-0.1420393702
-0.1394327995
-0.1392172277
-0.1371849046
-0.1371097656
-0.1353902156
-0.1351826337
-0.1335200417
-0.1328945016
-0.1310173196
-0.1296550411
-0.1272561934
-0.2189144382
-0.2008954175
-0.1901228573
-0.1778122123
-0.1710421047
-0.1623199645
-0.158113134
-0.1518050802
-0.1493018643
-0.1446865527
-0.1433230575
-0.1399154452
-0.1392870453
-0.1367304869
-0.1365179856
-0.1345244777
-0.1344495944
-0.132762788
-0.1325580554
-0.1309271613
-0.1303127274
-0.1284714957
-0.1271348567
-0.124781945
-0.2138845076
-0.1962804251
-0.1857560985
-0.1737291387
-0.1671151807
-0.1585942215
-0.1544845712
-0.1483222195
-0.1458769964
-0.1413685059
-0.1400367934
-0.1367082719
-0.1360947482
-0.133597732
-0.1333905279
-0.1314435984
-0.1313708066
-0.129723455
-0.1295237051
-0.1279308283
-0.127330581
-0.1255318871
-0.1242256439
-0.1219261473
-0.2081997185
-0.1910639431
-0.1808194494
-0.1691123129
-0.1626740076
-0.154379493
-0.1503787072
-0.1443799443
-0.1419991207
-0.1376101049
-0.1363129776
-0.1330724214
-0.132474197
-0.1300429185
-0.129840064
-0.1279441762
-0.1278721075
-0.1262678732
-0.1260723377
-0.1245213427
-0.1239363329
-0.1221853401
-0.1209138443
-0.1186751671
-0.2018428901
-0.1852312378
-0.1753003008
-0.1639515059
-0.1577104549
-0.1496700759
-0.1457920651
-0.1399773627
-0.1376698163
-0.1334157458
-0.1321587805
-0.1290181305
-0.1284386923
-0.1260826005
-0.1258863932
-0.124049268
-0.1239797344
-0.1224252028
-0.1222357808
-0.1207326469
-0.1201653408
-0.1184680358
-0.1172348485
-0.1150641394
-0.1948668694
-0.1788298214
-0.1692422283
-0.158285832
-0.152260313
-0.1444977557
-0.1407533635
-0.1351393667
-0.132910934
-0.1288034568
-0.1275890913
-0.1245563917
-0.1239959642
-0.1217205592
-0.1215299885
-0.1197554924
-0.1196871572
-0.1181854236
-0.1180013939
-0.1165493087
-0.1160006555
-0.1143612303
-0.1131701274
-0.1110735298
-0.1872628559
-0.1718525452
-0.1626398896
-0.1521119822
-0.1463223265
-0.1388636444
-0.1352660489
-0.1298721252
-0.1277312916
-0.1237851463
-0.1226187678
-0.119705486
-0.1191674638
-0.1169818891
-0.1167991741
-0.115094805
-0.1150293481
-0.1135867684
-0.1134097971
-0.1120144092
-0.1114865364
-0.1099105347
-0.1087647139
-0.1067494734
-0.1790835712
-0.1643469118
-0.1555367898
-0.1454689186
-0.1399319746
-0.1327990105
-0.1293581292
-0.1241995317
-0.122151563
-0.1183773298
-0.1172610725
-0.1144744303
-0.1139589456
-0.1118680737
-0.1116922803
-0.1100614329
-0.1099977148
-0.1086170187
-0.1084466223
-0.1071107725
-0.1066047654
-0.1050959188
-0.1039989779
-0.1020703221
-0.1703277381
-0.1563125732
-0.147934054
-0.1383594297
-0.1330939737
-0.1263107844
-0.1230388447
-0.1181335341
-0.116186345
-0.1125977645
-0.1115366725
-0.1088874274
-0.1083976516
-0.1064101209
-0.1062432878
-0.1046931108
-0.1046326282
-0.1033199675
-0.1031576133
-0.1018869118
-0.1014046977
-0.09996862524
-0.09892356444
-0.09708847243
-0.1610483141
-0.147797348
-0.1398754846
-0.1308227434
-0.1258440084
-0.1194303472
-0.1163362612
-0.1116979607
-0.1098562391
-0.1064627648
-0.1054587078
-0.1029532593
-0.1024892961
-0.1006094003
-0.1004507462
-0.0989842631
-0.09892616753
-0.09768408854
-0.09752967652
-0.09632694312
-0.09587001929
-0.09451042829
-0.0935211402
-0.09178391013
-0.1512504949
-0.1388067353
-0.131367713
-0.1228667744
-0.1181917211
-0.112169318
-0.109264164
-0.1049091483
-0.1031800807
-0.099994208
-0.09905176049
-0.09669993118
-0.09626462742
-0.09450029411
-0.09435160124
-0.09297543275
-0.09292098868
-0.09175531382
-0.09161009284
-0.09048086942
-0.09005095517
-0.08877364113
-0.08784287707
-0.08621042287
-0.1409879004
-0.1293892483
-0.1224552542
-0.1145314754
-0.1101735508
-0.1045598444
-0.1018514552
-0.09779178934
-0.09617947037
-0.09320946482
-0.09233024498
-0.09013759307
-0.08973103969
-0.08808598298
-0.08794661758
-0.08666340662
-0.08661201171
-0.08552505426
-0.08538922169
-0.08433618011
-0.08393509249
-0.08274350079
-0.08187540665
-0.08035070388
-0.1302710352
-0.1195551782
-0.1131491931
-0.105828836
-0.1018029534
-0.09661705251
-0.09411518343
-0.09036520713
-0.08887596406
-0.08613285474
-0.08532086928
-0.08329607284
-0.08292071849
-0.08140193759
-0.08127336052
-0.08008894417
-0.08004154912
-0.0790384633
-0.07891290797
-0.07794107174
-0.0775700637
-0.0764697593
-0.07566647309
-0.0742570322
-0.1191545995
-0.1093541021
-0.1034951586
-0.09679997158
-0.09311763941
-0.08837446637
-0.08608580157
-0.08265580633
-0.08129311859
-0.07878392334
-0.07804053575
-0.07618828183
-0.07584419299
-0.0744547901
-0.07433646474
-0.0732530232
-0.07320914567
-0.0722918083
-0.0721767942
-0.07128827447
-0.07094916732
-0.06994273174
-0.06920838248
-0.0679155504
-0.1076532003
-0.09880001291
-0.09350761114
-0.08745988131
-0.08413376601
-0.0798495542
-0.07778238123
-0.07468455826
-0.07345379131
-0.07118788621
-0.07051646855
-0.06884411588
-0.06853330215
-0.06727916269
-0.06717219665
-0.06619454591
-0.06615476318
-0.06532730143
-0.06522320266
-0.0644219579
-0.06411520393
-0.06320737858
-0.06254298806
-0.06137535953
-0.09582297289
-0.08794385831
-0.08323362493
-0.07785120493
-0.0748907441
-0.07107772467
-0.06923751736
-0.06648028436
-0.06538428141
-0.06336738622
-0.06276904378
-0.06128038705
-0.06100288487
-0.05988648413
-0.05979040877
-0.05892022553
-0.05888409995
-0.05814784278
-0.05805485453
-0.05734220048
-0.05706944407
-0.05626160588
-0.05567113531
-0.05462835968
-0.08368144878
-0.07680227156
-0.07268999477
-0.06799093248
-0.06540638061
-0.06207770035
-0.06047116204
-0.05806438835
-0.05710747731
-0.05534717055
-0.05482460235
-0.05352556074
-0.05328293885
-0.05230894885
-0.05222455021
-0.05146553933
-0.0514333239
-0.05079125463
-0.05070925469
-0.05008786219
-0.04984864691
-0.04914429026
-0.04862728184
-0.0477183963
-0.07128642478
-0.06542775975
-0.06192545172
-0.05792346528
-0.05572207813
-0.05288713185
-0.05151847434
-0.04946862206
-0.04865299414
-0.04715366143
-0.04670772057
-0.0456011951
-0.0453934791
-0.04456377624
-0.04449068328
-0.04384408138
-0.0438154316
-0.04326845772
-0.04319766154
-0.04266829189
-0.04246423183
-0.04186392097
-0.04142435295
-0.04064803689
-0.05865727447
-0.05383862224
-0.05095817571
-0.04766686331
-0.0458563536
-0.04352503503
-0.04239928825
-0.04071377129
-0.04004266279
-0.03880998149
-0.03844267549
-0.03753307975
-0.03736142229
-0.03667945917
-0.03661822194
-0.03608671419
-0.03606173008
-0.0356119175
-0.0355519833
-0.03511634047
-0.03494640708
-0.03445239352
-0.03408841621
-0.03345172466
-0.04585351157
-0.04208895642
-0.03983860471
-0.03726736339
-0.03585271732
-0.03403147108
-0.03315154379
-0.03183480512
-0.03130974494
-0.03034674166
-0.0300586843
-0.02934803388
-0.02921248344
-0.02867958217
-0.02862998499
-0.0282144733
-0.0281929935
-0.02784106327
-0.02779234607
-0.02745114
-0.02731703116
-0.02693000666
-0.02664571227
-0.02614824054
-0.03289541503
-0.03019788798
-0.02858549363
-0.02674331619
-0.02572961032
-0.02442495532
-0.02379413971
-0.02285104149
-0.02247413562
-0.02178451482
-0.02157700943
-0.02106817543
-0.02096949155
-0.02058791206
-0.02055035364
-0.02025265286
-0.02023483369
-0.0199823041
-0.01994471654
-0.01969935568
-0.01960045727
-0.01932203952
-0.01911577288
-0.01876044347
-0.01984405837
-0.01822094313
-0.01725084451
-0.01614267592
-0.01553256289
-0.01474791189
-0.01436778252
-0.01380070169
-0.01357280814
-0.01315821616
-0.01303164553
-0.01272575578
-0.01266402952
-0.01243454985
-0.01240898783
-0.01222968342
-0.01221551203
-0.01206295258
-0.01203672973
-0.0118879806
-0.01182514762
-0.01165643965
-0.01153019965
-0.0113176954
-0.006719887179
-0.006177409437
-0.005853352599
-0.005483480012
-0.005279340941
-0.005017760693
-0.004889831447
-0.004701016746
-0.00462308409
-0.004485203299
-0.004440150709
-0.004338497254
-0.00431409242
-0.004237760046
-0.004224464641
-0.004164508007
-0.004154299953
-0.004102740379
-0.00408844314
-0.004037605585
-0.004012006939
-0.003954619008
-0.003910686692
-0.003841988066
0.006414861868
0.005876133051
0.005553770898
0.005184928314
0.004982813411
0.004720990532
0.00459650156
0.004406770875
0.004334566362
0.004195491046
0.004158878392
0.004056075287
0.004043031965
0.003966019987
0.003966945211
0.003907382876
0.003913589745
0.003863996875
0.003866568075
0.003819326157
0.003808638936
0.003754532899
0.003718730152
0.003643553773
0.01954009163
0.01792069916
0.0169523257
0.01584523053
0.01523719995
0.01445239187
0.0140757658
0.01350788089
0.01328576291
0.01287009802
0.01275197547
0.01244504082
0.01239461312
0.01216449653
0.01215297958
0.01197398182
0.01197588834
0.01182500341
0.01181511455
0.01166948614
0.0116208961
0.01145535133
0.01133689051
0.0111206643
0.03259304532
0.02989925
0.02828846377
0.02644723749
0.02543539768
0.02413036714
0.0235027554
0.02255855017
0.0221870373
0.02149595701
0.02129642885
0.02078607317
0.02069812096
0.02031531811
0.02029113506
0.01999299924
0.01999050102
0.01973866963
0.01971668825
0.01947317788
0.01938820758
0.01911169946
0.01891407161
0.01855512557
0.04555424969
0.0417933548
0.03954470524
0.03697454787
0.03556194448
0.03374058063
0.03286405079
0.03154654466
0.03102703187
0.03006294743
0.02978291985
0.02907110002
0.02894615124
0.02841224604
0.02837561034
0.02795959214
0.02795261421
0.0276008418
0.02756636598
0.02722598885
0.02710374434
0.02671805209
0.02643985195
0.0259436394
0.05836130937
0.05354632274
0.05066734696
0.04737687601
0.04556798958
0.04323613029
0.0421132061
0.04042634339
0.03976005672
0.03852557031
0.03816541865
0.03725378972
0.03709171395
0.03640774433
0.03635832668
0.03582515608
0.03581349181
0.03536248822
0.03531584463
0.03487947769
0.03472141161
0.03422737288
0.0338717126
0.03323652056
0.07099541688
0.06514032079
0.06163964832
0.05763873207
0.05543926722
0.05260421238
0.05123871199
0.04918808746
0.04837757153
0.04687709565
0.04643847308
0.04533059409
0.04513240206
0.04430128562
0.04423963009
0.04359173876
0.04357560932
0.04302749768
0.04296870878
0.04243848802
0.04224450626
0.0416449312
0.04121181389
0.04044347157
0.08339563356
0.07652000271
0.0724090204
0.06771066885
0.06512744108
0.06179804868
0.06019385926
0.0577855055
0.05683270294
0.05507026708
0.05455383741
0.05325231526
0.05301790095
0.0520412907
0.05196695928
0.05120546474
0.05118451787
0.05054025583
0.05046949692
0.04984649473
0.04961780289
0.04891386921
0.04840592993
0.04750406177
0.09554364312
0.08766798451
0.08295929107
0.07757791503
0.07461920249
0.07080607513
0.0689687006
0.06621069237
0.06511925167
0.06310118351
0.06250932108
0.06101923836
0.06075009
0.05963215943
0.05954603533
0.05867444623
0.05864919375
0.05791184879
0.05782948288
0.05711661872
0.05685365747
0.05604866077
0.05546679505
0.05443697032
0.1073812311
0.09853141496
0.09324010785
0.08719294893
0.08386783622
0.07958276241
0.07751743216
0.0744178491
0.07319043492
0.07092218291
0.07025585651
0.06858078222
0.06827683084
0.06701986329
0.06692139547
0.06594122772
0.06591115044
0.06508193934
0.06498799231
0.06418657753
0.06389045891
0.0629860429
0.06233291419
0.06117639818
0.1188902191
0.1090930488
0.1032355362
0.09654136573
0.09286058291
0.08811731356
0.08583112283
0.08240038236
0.08104167477
0.0785313554
0.0777936094
0.07594002932
0.07560321064
0.07421251444
0.07410291143
0.07301861724
0.0729844983
0.07206727081
0.07196235552
0.07107589372
0.07074726577
0.0697469779
0.06902354214
0.06774534558
0.1300165065
0.1193037881
0.1128986898
0.1055787654
0.1015535736
0.09636670403
0.09386619158
0.09011436043
0.08862774942
0.08588221515
0.08507434443
0.08304680634
0.08267711075
0.08115563958
0.08103424966
0.07984780886
0.07980896852
0.07880531441
0.07868935483
0.07771960564
0.07735972472
0.07626600373
0.07547564395
0.07407878012
0.1407415585
0.1291460928
0.1222134206
0.1142906378
0.1099340623
0.1043202933
0.1016140221
0.09755368433
0.09594478223
0.09297377587
0.0920994165
0.08990565525
0.08950540912
0.08785945869
0.08772778348
0.08644445562
0.08640194746
0.085316397
0.08519030384
0.08414135463
0.08375122967
0.08256810999
0.08171224573
0.0802018407
0.1510168415
0.1385759298
0.1311375906
0.1226369555
0.1179623159
0.1119388926
0.1090346662
0.1046777963
0.1029507209
0.09976247604
0.0988232783
0.09646883884
0.09603813108
0.09427137387
0.09412869439
0.09275099273
0.0927039874
0.09153858006
0.09140212925
0.09027623045
0.08985704996
0.08858762389
0.08766971722
0.08604966914
0.160822888
0.1475749576
0.139654316
0.1306025607
0.1256249885
0.1192113228
0.1161190218
0.1114801603
0.1096413321
0.1062470243
0.1052471108
0.1027407948
0.102282255
0.1004018029
0.1002498487
0.09878368601
0.0987334778
0.09749330029
0.09734773569
0.09614947899
0.09570276762
0.0943515323
0.09337379353
0.09164950944
0.1701181726
0.1561055078
0.1477274802
0.1381530431
0.1328877723
0.12610357
0.1228322058
0.1179251346
0.1159793999
0.1123886093
0.1113300233
0.1086783866
0.1081922595
0.1062025492
0.1060405946
0.1044890747
0.1044347295
0.1031223089
0.1029672593
0.1016993595
0.1012261505
0.09979674215
0.09876250087
0.09693878386
0.1788816959
0.1641479126
0.1553389247
0.1452720394
0.1397360912
0.1326032012
0.1291638004
0.1240047788
0.121959221
0.1181843394
0.1170715614
0.1142842691
0.1137733701
0.1116821391
0.1115120356
0.1098815517
0.1098245147
0.1084453469
0.1082823227
0.1069497537
0.1064520453
0.1049493059
0.103861519
0.101943818
0.1870803053
0.1716720929
0.1624597519
0.1519319282
0.146142282
0.1386826491
0.1350853594
0.1296898531
0.1275500431
0.1236019465
0.1224374552
0.1195220768
0.1189868784
0.1167993659
0.116620467
0.1149147666
0.114854082
0.1134112261
0.1132397734
0.1118457324
0.11132444
0.1097525591
0.1086144544
0.1066086759
0.1946909091
0.1786565681
0.1690700325
0.1581146283
0.1520899555
0.144327563
0.1405843705
0.1349700995
0.1327436261
0.1286356909
0.1274241804
0.1243910294
0.1238343938
0.1215587615
0.121372903
0.1195986779
0.1195358086
0.1180350184
0.1178567936
0.1164065288
0.1158640291
0.1142281325
0.1130433593
0.1109549089
0.2016899346
0.1850799291
0.1751491429
0.1638003374
0.1575591684
0.1495179462
0.1456400462
0.1398240109
0.1375171556
0.1332614815
0.1320059065
0.1288635525
0.128286258
0.1259285751
0.125735291
0.1238969819
0.1238310609
0.1222759814
0.122090554
0.1205877911
0.1200249729
0.1183298391
0.1171015906
0.1149375051
0.2080517409
0.1909184918
0.1806749864
0.1689688474
0.1625312488
0.1542369911
0.1502371352
0.1442382475
0.1418589443
0.1374696561
0.136174778
0.1329339658
0.1323387755
0.1299074244
0.1297083835
0.1278127952
0.1277451482
0.12614164
0.1259506688
0.1244008426
0.1238203591
0.1220714019
0.120803998
0.1185697201
0.2137633258
0.1961603951
0.1856360637
0.173609002
0.1669948346
0.1584731708
0.1543634929
0.1482001092
0.1457553202
0.1412456434
0.1399149218
0.1365851838
0.1359732555
0.133475142
0.1332701622
0.1313224618
0.1312524281
0.1296047616
0.1294079535
0.1278153416
0.1272181465
0.1254207138
0.12411736
0.1218209148
0.218796195
0.200779504
0.190007865
0.1776982134
0.1709286752
0.1622068722
0.158000698
0.1516926517
0.1491905046
0.1445750831
0.1432132123
0.1398055183
0.1391793815
0.1366229155
0.1364133531
0.1344202752
0.1343488854
0.1326628673
0.1324617261
0.1308318513
0.1302207528
0.1283805809
0.1270462437
0.1246934084
0.2231486264
0.2047741263
0.1937886073
0.1812345392
0.1743305756
0.1654356462
0.1611459147
0.1547127085
0.1521607937
0.1474538483
0.1460648023
0.1425895785
0.1419508268
0.1393437271
0.1391297732
0.1370972149
0.1370241188
0.1353046486
0.1350991132
0.1334367651
0.132812839
0.1309356993
0.129573585
0.127172934
0.2267891737
0.2081156143
0.1969513146
0.1841929579
0.1771766312
0.1681369713
0.1637774007
0.1572395265
0.1546460338
0.1498625159
0.1484508146
0.1449190748
0.1442699016
0.1416204366
0.1414030221
0.1393374777
0.1392632758
0.1375159317
0.137307189
0.1356178272
0.1349838637
0.1330758057
0.1316914256
0.1292497131
0.2297277806
0.2108127707
0.1995042138
0.1865810097
0.1794740798
0.1703177402
0.1659019152
0.1592797797
0.1566528473
0.1518078073
0.1503779184
0.1468008764
0.1461433384
0.1434599809
0.1432397336
0.1411478029
0.1410725423
0.1393028268
0.1390911421
0.1373799812
0.1367372554
0.134804206
0.1334007631
0.1309262638
0.2319301776
0.2128345823
0.2014180266
0.188371411
0.1811965401
0.1719527012
0.1674945671
0.1608090721
0.1581568487
0.1532653614
0.1518215636
0.1482101337
0.1475460362
0.1448367895
0.1446141584
0.142501969
0.1424257348
0.1406388418
0.140424928
0.1386971585
0.1380481395
0.1360962834
0.1346793392
0.1321802864
0.2334180146
0.2142003546
0.202710965
0.189581132
0.1823606026
0.1730579825
0.1685715826
0.1618437648
0.159174823
0.1542525651
0.1527997621
0.1491657983
0.1484976491
0.1457716412
0.1455477211
0.1434225201
0.1433458347
0.1415478484
0.1413324546
0.1395936888
0.1389401731
0.1369754525
0.1355487787
0.1330327196
0.234154572
0.2148770775
0.203351838
0.1901810313
0.1829378464
0.1736060697
0.1691054311
0.162356372
0.1596787499
0.1547407676
0.1532829765
0.1496371968
0.148966421
0.1462313299
0.1460061035
0.1438736108
0.143796036
0.1419917222
0.1417749779
0.1400300521
0.13937375
0.1374022347
0.1359702299
0.1334460687
0.234172886
0.2148942439
0.2033684955
0.1901971357
0.1829537906
0.1736218506
0.1691212629
0.1623723261
0.1596948828
0.1547572377
0.1532996977
0.1496544037
0.1489838985
0.1462493588
0.1460243638
0.1438923767
0.1438149326
0.1420109352
0.1417941765
0.1400492052
0.1393927387
0.137420681
0.1359884447
0.1334633477
0.2334343966
0.2142174258
0.2027284381
0.1895990685
0.1823786552
0.1730762871
0.1685897335
0.161861969
0.159192595
0.154270185
0.1528166764
0.1491823387
0.1485132161
0.1457865825
0.1455614291
0.143435306
0.1433571461
0.1415579022
0.1413408331
0.1396004863
0.1389451192
0.1369787991
0.1355502884
0.1330341555
0.2319828679
0.2128856823
0.2014685046
0.1884212418
0.181246146
0.1720022132
0.1675439952
0.1608587661
0.1582064274
0.1533154228
0.1518713758
0.1482605027
0.1475959298
0.1448871306
0.144663698
0.1425515995
0.1424741418
0.14068669
0.1404710714
0.1387418047
0.1380905478
0.1361362654
0.1347167595
0.1322155985
0.2297787198
0.2108639323
0.1995556747
0.1866328493
0.1795260069
0.1703700279
0.1659539754
0.1593321066
0.1567045351
0.1518595923
0.1504286134
0.1468514124
0.1461923035
0.1435084118
0.1432860881
0.1411930917
0.1411152565
0.1393437982
0.1391291259
0.1374154937
0.1367694935
0.1348336254
0.1334271556
0.1309513978
0.2268754742
0.2081999047
0.1970348634
0.1842757627
0.1772591239
0.1682194218
0.1638596003
0.1573221124
0.1547281764
0.1499452714
0.1485327984
0.1450017027
0.1443513197
0.1417022861
0.1414831177
0.1394174757
0.1393408957
0.1375925837
0.1373808231
0.1356893313
0.1350516716
0.1331403557
0.1317519345
0.129306921
0.2232335215
0.2048587752
0.193873454
0.181319683
0.174415786
0.1655213406
0.1612313276
0.1547986371
0.152245917
0.1475393883
0.1461489425
0.1426739032
0.1420331116
0.1394257926
0.1392091302
0.1371757322
0.1370992853
0.1353781587
0.1351687589
0.1335038194
0.1328756178
0.130995069
0.1296287366
0.1272245704
0.2189149126
0.2008958206
0.1901233152
0.1778128218
0.1710428612
0.1623210513
0.1581144265
0.1518068674
0.1493039167
0.1446892324
0.1433260507
0.1399191226
0.1392910641
0.1367351279
0.1365229563
0.1345298376
0.1344551288
0.1327681519
0.1325630383
0.130930954
0.1303151541
0.1284712746
0.1271316926
0.124773637
0.2138811174
0.1962774762
0.1857532366
0.1737263896
0.167112264
0.1585912116
0.1544812012
0.148318602
0.1458728603
0.1413639706
0.1400315864
0.1367024787
0.1360881344
0.1335902966
0.1333821358
0.1314341011
0.1313601808
0.1297113142
0.1295100634
0.1279151065
0.1273128742
0.1255115702
0.1242027153
0.121900128
0.2082012803
0.1910652741
0.1808207736
0.1691136963
0.1626755415
0.1543812964
0.1503807555
0.1443824343
0.1420019295
0.1376134899
0.13631673
0.1330768201
0.1324789854
0.1300483287
0.1298458519
0.1279504161
0.1278785937
0.1262743324
0.1260785725
0.1245266348
0.123940584
0.1221874668
0.1209136155
0.1186718831
0.2018391189
0.1852279483
0.1752971377
0.1639484568
0.1577072869
0.149666792
0.1457884891
0.1399735003
0.1376655299
0.1334110225
0.1321535173
0.1290122782
0.1284322049
0.1260753728
0.1258784753
0.1240404626
0.1239701884
0.1224145162
0.1222241573
0.1207194258
0.1201508975
0.1184515349
0.1172165877
0.1150442037
0.1948693025
0.1788318873
0.1692442272
0.1582877914
0.1522624077
0.1445000312
0.1407558845
0.1351422327
0.1329141146
0.1288071105
0.1275930938
0.1245609602
0.1240008974
0.1217261195
0.1215359357
0.1197620746
0.1196941155
0.118192815
0.118008948
0.1165567207
0.1160078212
0.1143674465
0.1131752444
0.1110776839
0.1872589576
0.1718491397
0.1626366416
0.1521088385
0.1463191175
0.1388602984
0.135262493
0.1298682575
0.1277271175
0.1237805269
0.1226137743
0.1196999585
0.1191615425
0.1169754291
0.1167923968
0.1150876117
0.1150220178
0.1135791906
0.1134022571
0.11200671
0.1114790967
0.1099029577
0.1087573392
0.1067421964
0.1790866359
0.1643495036
0.1555392654
0.1454712619
0.1399344324
0.1328015475
0.1293608933
0.1242025142
0.1221548234
0.1183809145
0.1172649397
0.114478729
0.1139635264
0.1118732515
0.1116978097
0.1100678428
0.1100046599
0.1086251898
0.1084555612
0.1071212449
0.106616367
0.1051092108
0.1040135087
0.1020862251
0.1703239788
0.1563092867
0.1479309492
0.1383564094
0.1330909492
0.126307603
0.1230355507
0.1181299089
0.1161825488
0.1125935177
0.1115322307
0.1088825004
0.1083925736
0.106404693
0.1062379077
0.1046878054
0.1046278027
0.1033159564
0.1031547362
0.101885863
0.1014057948
0.0999725652
0.09893056378
0.0970978125
0.1610517615
0.1478002526
0.1398782454
0.1308252963
0.1258466671
0.1194329868
0.1163391161
0.1117008951
0.1098594145
0.1064660782
0.1054622228
0.1029569904
0.1024931817
0.1006137051
0.1004552713
0.09898968497
0.09893212348
0.09769178315
0.09753854341
0.09633881563
0.0958842647
0.09452912048
0.09354357521
0.09181061727
0.1512471378
0.1388037997
0.1313649777
0.1228640949
0.1181891081
0.1121665299
0.1092613785
0.1049060126
0.1031769261
0.09999057798
0.09904811374
0.09669577494
0.09626051597
0.09449584025
0.09434742055
0.09297144855
0.09291780765
0.09175336448
0.09160987893
0.09048352587
0.09005699203
0.08878455972
0.08785917797
0.0862317553
0.1409914817
0.1293922558
0.1224581214
0.114534087
0.1101762885
0.104562486
0.1018543341
0.09779462144
0.09618254687
0.09321248124
0.0923334195
0.09014069319
0.08973417144
0.08808914147
0.0879497723
0.0866669874
0.08661582603
0.08553016749
0.08539526954
0.08434512657
0.08394659632
0.08276037842
0.08189730348
0.08038033877
0.1302683242
0.1195528075
0.1131470373
0.1058267008
0.1018009672
0.09661487796
0.09411314805
0.09036280787
0.08887372242
0.08613009684
0.08531828596
0.08329287573
0.08291773048
0.08139838671
0.08127016257
0.08008553541
0.08003888207
0.07903637136
0.07891235995
0.07794256126
0.07757484548
0.07647909306
0.07568188288
0.07428020213
0.1191580714
0.1093570094
0.1034979664
0.09680251195
0.09312036766
0.0883770602
0.08608871237
0.08265858749
0.08129623092
0.07878681705
0.07804365483
0.07619104114
0.07584698083
0.07445711007
0.07433862649
0.07325478402
0.07321073027
0.07229338827
0.07217857292
0.07129116861
0.07095367936
0.06995122352
0.06922143293
0.06793945147
0.1076513448
0.09879839037
0.0935062147
0.08745846636
0.08413259448
0.07984819169
0.07778131945
0.074683138
0.07345274454
0.07118630073
0.07051530324
0.06884222978
0.06853185038
0.06727685922
0.06717035948
0.06619186423
0.06615268468
0.0653245846
0.06522149564
0.06442031642
0.06411593608
0.06321054471
0.06255145318
0.06139312551
0.09582610017
0.08794647031
0.08323621592
0.07785355684
0.07489339053
0.07108024892
0.06924050724
0.06648313334
0.06538766114
0.0633704905
0.06277261883
0.06128345427
0.06100623895
0.05988904482
0.0597930024
0.05892176446
0.05888543967
0.05814796649
0.05805473473
0.05734121985
0.05706904765
0.05626292204
0.05567558275
0.05464464244
0.08368061073
0.07680153832
0.07268949411
0.06799037318
0.0654061665
0.06207730785
0.06047125352
0.05806416076
0.05710788546
0.05534707881
0.05482526684
0.05352550414
0.05328370499
0.05230876055
0.05222521222
0.05146504488
0.05143370045
0.05079030283
0.05070929397
0.05008669346
0.04984935287
0.04914563071
0.04863286962
0.04773246491
0.07128898201
0.06542988909
0.0619276697
0.05792551074
0.05572456085
0.05288955619
0.05152157257
0.04947165007
0.04865686099
0.04715733304
0.04671230157
0.04560535308
0.0453985097
0.04456808696
0.04449574328
0.04384811286
0.04382002905
0.04327173901
0.04320131537
0.0426706857
0.04246728975
0.04186762512
0.04143012562
0.04066314318
0.05865755811
0.05383886857
0.05095865272
0.04766724183
0.04585717612
0.04352570646
0.04240063353
0.04071487364
0.04004469264
0.03881162744
0.03844549287
0.0375353317
0.03736505947
0.03668235059
0.03662268635
0.03609031955
0.0360670679
0.03561636911
0.03555831724
0.03512203773
0.03495459836
0.0344613403
0.0341012852
0.03347013481
0.04585528588
0.04209042367
0.03984028832
0.03726897074
0.03585491939
0.03403371716
0.03315469851
0.03183802439
0.03131417013
0.03035116677
0.03006458054
0.02935380081
0.02921994361
0.02868677512
0.02863905855
0.02822322526
0.02820375901
0.02785159216
0.02780488657
0.02746384934
0.02733180564
0.02694615207
0.02666399318
0.02617058005
0.03289686089
0.03019914774
0.02858696848
0.02674465231
0.02573147082
0.02442669952
0.02379672676
0.02285348362
0.02247778115
0.0217879414
0.02158202721
0.0210728823
0.02097619668
0.02059426869
0.02055913754
0.02026121846
0.02024623609
0.01999385281
0.01995936872
0.01971485008
0.01961931466
0.01934269454
0.01913981159
0.01878585591
0.01984485456
0.01822157963
0.01725182559
0.01614369278
0.01553431648
0.01474982589
0.01437081527
0.01380395523
0.01357760782
0.0131632504
0.01303869336
0.01273303691
0.01267382578
0.01244463851
0.01242212391
0.01224334481
0.01223271611
0.01208113138
0.01205870828
0.01191157793
0.01185252768
0.01168574555
0.0115624582
0.01134880052
0.006722470557
0.006179658881
0.005855782151
0.005485728471
0.005282158313
0.005020492792
0.004893521019
0.00470465551
0.004628125231
0.004490185144
0.004447037913
0.004345311359
0.004323372347
0.00424702807
0.004236803864
0.004177079699
0.00417047876
0.004119585889
0.004109025529
0.004059342908
0.004036845304
0.003980339372
0.003937135592
0.003864818044
-0.006415212738
-0.005876478184
-0.005553661461
-0.005184671414
-0.004981725305
-0.004719640443
-0.004593902713
-0.004403824427
-0.004329855774
-0.004190362039
-0.004151373327
-0.004048067973
-0.00403195102
-0.003954278335
-0.003951381331
-0.003890858265
-0.003892595493
-0.003841688906
-0.003839625928
-0.003790994566
-0.003776374106
-0.003722184045
-0.003685088903
-0.003616307619
-0.01953645727
-0.01791753805
-0.01694904282
-0.01584217453
-0.0152335807
-0.01444884089
-0.01407122592
-0.01350332465
-0.01327973543
-0.01286401999
-0.01274387751
-0.01243687646
-0.01238381754
-0.01215357843
-0.01213879517
-0.01195952533
-0.01195769158
-0.01180640296
-0.01179293666
-0.01164711475
-0.01159631914
-0.0114319793
-0.01131498575
-0.01110477657
-0.03259467405
-0.02990069866
-0.028289382
-0.02644791152
-0.02543521932
-0.02412986423
-0.02350099759
-0.02255638732
-0.02218308806
-0.0214915193
-0.02128955037
-0.02077860908
-0.02068746318
-0.02030393705
-0.02027578059
-0.01997674643
-0.01996969842
-0.01971696759
-0.01969057198
-0.01944681028
-0.01935880871
-0.01908433525
-0.01888738277
-0.01853701713
-0.04554970497
-0.04178940681
-0.03954071764
-0.03697083561
-0.03555773166
-0.03373643786
-0.03285898541
-0.03154143265
-0.03102053539
-0.03005635328
-0.02977443011
-0.02906250791
-0.02893511409
-0.02840111649
-0.02836150414
-0.02794541059
-0.02793515447
-0.02758349829
-0.02754616375
-0.0272065955
-0.02708313912
-0.02669998302
-0.02642427203
-0.02593421146
-0.0583642946
-0.05354895358
-0.05066941541
-0.04737862824