/*--------------------------------*- C++ -*----------------------------------*\
| =========                 |                                                 |
| \\      /  F ield         | foam-extend: Open Source CFD                    |
|  \\    /   O peration     | Version:  3.0                                   |
|   \\  /    A nd           | Web:         http://www.extend-project.de       |
|    \\/     M anipulation  |                                                 |
\*---------------------------------------------------------------------------*/
FoamFile
{
    version     2.0;
    format      ascii;
    class       volVectorField;
    location    "71";
    object      u;
}
// * * * * * * * * * * * * * * * * * * * * * * * * * * * * * * * * * * * * * //

dimensions      [0 0 0 0 0 0 0];

internalField   nonuniform List<vector> 
2688
(
(0.2743488033 -0.05133954314 7.419576807e-17)
(0.1647493688 -0.04161842277 -1.040986413e-16)
(0.5689773689 -0.03629954955 1.897264578e-16)
(0.4214372971 -0.02770712282 -7.784409776e-17)
(0.7399619734 -0.02658958615 1.071655398e-16)
(0.5883702093 -0.01940468931 -2.919924676e-17)
(0.8465377972 -0.01987301554 8.419435907e-18)
(0.7008571878 -0.01425280265 5.958594913e-17)
(0.9171596768 -0.01499611017 -6.605913757e-17)
(0.7782086618 -0.01092446315 8.364388075e-17)
(0.9663926385 -0.01133502198 -2.779590527e-17)
(0.8318154693 -0.008673820631 4.507458963e-17)
(1.002082861 -0.008515205481 3.164644952e-17)
(0.8687576247 -0.007069885687 -9.185802164e-17)
(1.02864744 -0.006292931699 1.073140356e-16)
(0.8936020679 -0.0058501216 -1.131152426e-16)
(1.048644948 -0.004506889575 1.08222775e-16)
(0.909402051 -0.004835322151 -7.244135505e-17)
(1.06353476 -0.003061585572 1.785708253e-17)
(0.9183085047 -0.003874073255 1.965350618e-17)
(1.074037245 -0.001924004418 -3.303648813e-17)
(0.9219782978 -0.002804710883 1.408161316e-17)
(1.080284329 -0.001143566713 -3.964635705e-17)
(0.9218806677 -0.001531687591 1.215990362e-17)
(0.2859867229 -0.1548550467 -2.32925429e-16)
(0.1741686695 -0.1255928428 1.936530273e-18)
(0.5772110865 -0.1094684574 -3.903336508e-16)
(0.4277131738 -0.08361334153 4.671942784e-17)
(0.7459921596 -0.08011555165 -1.897897728e-16)
(0.5927642266 -0.05846616864 -3.139240481e-17)
(0.8510369038 -0.05974523432 -1.206914289e-17)
(0.7040753724 -0.04277471152 -1.51025845e-16)
(0.9205398012 -0.04489120869 7.914757161e-17)
(0.7806580461 -0.03255561739 -1.311779983e-16)
(0.9689237759 -0.0336764934 1.307244636e-18)
(0.833736374 -0.02556982569 -1.092614768e-16)
(1.00395056 -0.02497286077 2.676500667e-17)
(0.8702951537 -0.02052311544 1.678979833e-17)
(1.029983108 -0.01804903483 -4.012432776e-17)
(0.8948438723 -0.01662749633 7.972433177e-17)
(1.049546146 -0.01242828721 -7.400019191e-17)
(0.9103959719 -0.01334758136 1.480621136e-17)
(1.064082364 -0.007832512637 9.538665992e-17)
(0.919066537 -0.01024696446 -1.228332537e-16)
(1.074311787 -0.004159434329 1.190751107e-16)
(0.9224693636 -0.006890849862 -2.333303489e-17)
(1.080382807 -0.001488331678 5.880828867e-17)
(0.922023378 -0.00288120771 3.089851532e-17)
(0.3091195141 -0.2564009372 4.24357743e-16)
(0.1929392298 -0.207910163 1.10923382e-16)
(0.5935667429 -0.1811963875 4.911609572e-16)
(0.4402122503 -0.1383875163 -2.350084951e-17)
(0.7579615162 -0.1325548964 2.356812683e-16)
(0.6014991542 -0.09671084099 1.065495212e-16)
(0.8599594422 -0.09879155141 -6.371683866e-18)
(0.7104582323 -0.07067703118 2.293333249e-16)
(0.9272386544 -0.07415589025 -6.407660019e-17)
(0.785506673 -0.05369852067 2.118928599e-16)
(0.9739421067 -0.05553931075 2.757335771e-17)
(0.8375346924 -0.04207404575 1.302139913e-16)
(1.007662933 -0.04107454159 -3.054244611e-17)
(0.8733343895 -0.03366470964 -4.919613354e-17)
(1.032652415 -0.0295500785 6.415437061e-17)
(0.8972993153 -0.02717180472 -1.892284236e-16)
(1.051357466 -0.02017072695 2.125314843e-16)
(0.912368372 -0.02171957427 -1.697420968e-16)
(1.065166246 -0.01245934074 -2.452156552e-17)
(0.9206042905 -0.01660382644 5.161615328e-17)
(1.074765989 -0.006217684473 -5.724922903e-17)
(0.9235751692 -0.01112899368 -7.427288357e-17)
(1.080314292 -0.001544400884 -4.734572546e-17)
(0.922631803 -0.004580979555 -2.143953382e-17)
(0.3435024966 -0.3547350946 -4.612391953e-16)
(0.2208045867 -0.2876877239 -2.776647419e-16)
(0.617879863 -0.2507009656 -6.039486972e-16)
(0.4587692525 -0.1914990469 2.124818549e-17)
(0.7757560972 -0.1833981206 -3.327511902e-16)
(0.6144757142 -0.1338185941 -7.192826029e-17)
(0.8732245708 -0.1366657082 -7.669900731e-17)
(0.7199450432 -0.09777244497 -1.855460717e-16)
(0.9371937172 -0.1025535492 -7.688217369e-17)
(0.7927121232 -0.07424836543 -1.681278929e-16)
(0.9813898099 -0.07676266032 -9.179924848e-17)
(0.8431723002 -0.05812605186 -1.47789506e-16)
(1.013155635 -0.05671013703 1.137553002e-16)
(0.8778321511 -0.04644442267 -3.05209564e-17)
(1.036581227 -0.04072217482 7.253685082e-17)
(0.900911777 -0.03740167884 8.165048425e-17)
(1.054011068 -0.02770701787 -9.027791693e-17)
(0.9152317903 -0.02977766499 7.846555498e-17)
(1.06677861 -0.01702086258 6.861504354e-17)
(0.9227557486 -0.02259344947 -1.091935538e-16)
(1.075560286 -0.008405985991 1.352980628e-16)
(0.924943811 -0.0149124839 8.776670403e-17)
(1.0805397 -0.001969641231 -2.68464592e-17)
(0.9230346776 -0.005810425558 1.772045003e-16)
(0.3886577135 -0.448586894 4.948145709e-16)
(0.2574220099 -0.3637671133 2.503302233e-16)
(0.6497882392 -0.3169949015 7.154810649e-16)
(0.4831423902 -0.2421209011 -5.37247931e-17)
(0.7990937758 -0.2318662436 3.245499865e-16)
(0.631500452 -0.1691628893 1.3621103e-16)
(0.8906094518 -0.1727544326 3.267148873e-17)
(0.7323741052 -0.1235569273 1.9327038e-16)
(0.9502318327 -0.1296001578 1.518219128e-16)
(0.8021400299 -0.09378375299 1.852063804e-16)
(0.9911409197 -0.09696682397 -4.523922304e-17)
(0.8505425841 -0.07337200365 2.537713447e-16)
(1.020350978 -0.07158913092 -2.30733292e-16)
(0.8837121998 -0.05858090995 1.729038084e-16)
(1.041737045 -0.05134988586 -2.468390829e-16)
(0.9056419777 -0.04713875337 -6.852345441e-17)
(1.057497577 -0.0348626732 3.106915242e-17)
(0.9190036747 -0.03751485409 -6.744990536e-17)
(1.068867077 -0.0212957975 -2.630192996e-17)
(0.9256506529 -0.02848995836 3.128932154e-17)
(1.076462046 -0.01028647552 -1.35948796e-16)
(0.9269410936 -0.01889344951 -2.061157392e-17)
(1.080483527 -0.001945033098 -1.608927683e-16)
(0.9239507896 -0.007458188906 1.607644759e-17)
(0.4440545071 -0.5368104168 -3.812714374e-16)
(0.3023423832 -0.4353429843 -2.323102474e-16)
(0.6889565811 -0.379350117 -5.283839375e-16)
(0.5130557352 -0.2897714955 -3.685680682e-17)
(0.8277589057 -0.2774766265 -1.88089656e-16)
(0.6524134352 -0.2024539378 -2.638182211e-16)
(0.9119768649 -0.2067291379 6.831177639e-17)
(0.7476586427 -0.147864674 -2.664616178e-16)
(0.9662670233 -0.1550732974 -2.96832344e-16)
(0.8137458826 -0.1122193825 3.948050665e-17)
(1.003138685 -0.1160039338 -1.738917892e-17)
(0.8596208273 -0.08777293037 -1.32667427e-16)
(1.029203402 -0.08561352358 7.95780177e-17)
(0.8909517135 -0.07004520059 8.138500314e-18)
(1.04807673 -0.06137073353 9.638136864e-17)
(0.9114492735 -0.05630901004 1.305531351e-16)
(1.061791535 -0.04162601467 1.505563855e-16)
(0.9235917039 -0.04471650347 -6.186305573e-17)
(1.071491956 -0.02540562803 1.493238463e-16)
(0.9290736355 -0.03379482266 -9.801735827e-17)
(1.077770599 -0.01229908042 2.572059481e-16)
(0.9291038008 -0.02218725961 -1.020391075e-17)
(1.080839371 -0.002388664892 2.19720599e-16)
(0.9246529611 -0.008567336074 -2.962322524e-17)
(0.5089675059 -0.6182611019 -5.724136112e-17)
(0.3549734059 -0.5013721102 1.08844638e-16)
(0.7348204098 -0.4368856098 5.391599401e-16)
(0.5480829348 -0.3337054374 -6.27457368e-17)
(0.8612966894 -0.3195435785 6.635001851e-17)
(0.6768751682 -0.2331280557 2.935417573e-16)
(0.9369527093 -0.2380524322 5.396098753e-18)
(0.7655107518 -0.1702410021 -2.01406442e-17)
(0.9849897929 -0.1785483732 4.393336152e-16)
(0.8272794584 -0.1291709182 -2.076818023e-16)
(1.017131647 -0.1335394968 -1.305698204e-16)
(0.8701913372 -0.1010006955 3.404019982e-16)
(1.039518342 -0.09852624529 -2.914528816e-16)
(0.8993736523 -0.08057492162 2.841799296e-16)
(1.055459557 -0.07059203122 -4.019718454e-16)
(0.9182093663 -0.06476119608 1.777550896e-16)
(1.066786182 -0.0478295228 -3.762522739e-16)
(0.9289584648 -0.05144747116 1.727458981e-16)
(1.074514254 -0.02909392453 -1.873385302e-16)
(0.9331478139 -0.03896423277 1.040155299e-17)
(1.079164621 -0.01386221755 -1.687452324e-16)
(0.9318191144 -0.02575680936 -2.552569711e-16)
(1.080968845 -0.002226609007 1.766121398e-16)
(0.9256810491 -0.01010242362 -6.287134662e-16)
(0.5826024223 -0.6919510219 6.157526093e-16)
(0.4146948684 -0.5611545251 -4.069261701e-16)
(0.7868801477 -0.4889645182 7.235368211e-17)
(0.5878521648 -0.3735021907 -3.808190949e-16)
(0.8993953929 -0.357632627 2.510070152e-16)
(0.7046770339 -0.260929361 -4.254278969e-16)
(0.9653525115 -0.266421009 1.910594875e-16)
(0.7858290696 -0.190538246 -4.053711153e-17)
(1.006303913 -0.1998151863 -7.542595034e-17)
(0.8427075181 -0.1445636785 1.012054588e-16)
(1.033081839 -0.1494297126 2.218112204e-16)
(0.8822601553 -0.113024595 -3.097553993e-16)
(1.051291303 -0.110227747 1.768698286e-16)
(0.9089986603 -0.09014799908 -2.830643555e-16)
(1.063897043 -0.07894628459 4.268807882e-16)
(0.9259284967 -0.07242049027 -3.982514635e-16)
(1.072508694 -0.05345934355 5.270712054e-16)
(0.9350493952 -0.05746236118 -4.161250458e-16)
(1.078016107 -0.03250836751 4.002393832e-16)
(0.9376830405 -0.04338701571 -3.182696445e-16)
(1.080880677 -0.01553521337 5.759620523e-16)
(0.9347202591 -0.02848909897 -2.232174891e-16)
(1.081300719 -0.002594285423 1.847509859e-16)
(0.9267764141 -0.01103134899 1.30507822e-16)
(0.6640163948 -0.7569163949 -9.52175957e-16)
(0.4807049391 -0.613823043 4.29982956e-16)
(0.8444002215 -0.5348573095 -4.291887985e-16)
(0.6317806436 -0.408547459 4.528022159e-16)
(0.9414529299 -0.391190461 -7.947708285e-17)
(0.7353513366 -0.2853981346 7.61909086e-17)
(0.9966681353 -0.291410793 -1.865120047e-16)
(0.8082104476 -0.2083878114 3.267777189e-18)
(1.029773171 -0.2185451758 -1.854329047e-16)
(0.8596692706 -0.1580854277 2.20172423e-17)
(1.050614886 -0.1634214742 -4.281547784e-16)
(0.8955023711 -0.1235761181 5.581094024e-16)
(1.064207385 -0.1205301543 -4.632867488e-16)
(0.9195428103 -0.09855014483 5.742782984e-16)
(1.073134231 -0.08629862178 -5.15337211e-16)
(0.9343825354 -0.07917422067 5.961970209e-16)
(1.078760817 -0.05838889228 -5.585886462e-16)
(0.9417373182 -0.06286378706 5.281113358e-16)
(1.081842142 -0.03539375562 -2.407982862e-16)
(0.942691887 -0.04758160988 8.084182219e-17)
(1.082790614 -0.01665896294 -1.246866833e-16)
(0.9379144607 -0.03145554537 -3.050110407e-16)
(1.081784801 -0.00227838896 4.939222439e-16)
(0.9278179518 -0.01240537685 -1.012000914e-15)
(0.7522002597 -0.8123775778 1.016962444e-15)
(0.5522298056 -0.6588131122 -1.042602285e-15)
(0.9067423815 -0.5740467992 1.19828242e-15)
(0.6794092291 -0.4384920094 -8.344963785e-16)
(0.9870756164 -0.4198454663 4.71886934e-16)
(0.7686471704 -0.3063119028 -2.147092574e-16)
(1.030677245 -0.3127468097 3.268926673e-16)
(0.8325441535 -0.2236523714 1.040575856e-16)
(1.055298686 -0.2345343092 3.832949626e-16)
(0.8781474758 -0.1696585461 -3.150181003e-17)
(1.06971837 -0.1753622056 3.763244603e-16)
(0.9099596979 -0.1326152857 -3.503014405e-16)
(1.078308514 -0.1293152333 2.406530588e-16)
(0.9310775922 -0.1057499809 -5.537155887e-16)
(1.083237413 -0.09255759524 3.837953529e-16)
(0.9436441612 -0.0849484058 -7.783525545e-16)
(1.085601253 -0.06258083317 6.169590308e-16)
(0.9490704878 -0.06743777549 -7.989018489e-16)
(1.085997901 -0.03788133519 4.800465412e-16)
(0.9482006615 -0.05102632083 -4.224120241e-16)
(1.084773904 -0.01779109617 5.166312395e-16)
(0.9414939232 -0.03365370221 -2.121587514e-16)
(1.082108478 -0.002482817613 1.828454843e-16)
(0.9291677802 -0.01302015083 3.388896557e-16)
(0.8460324434 -0.8576000896 -5.390416398e-16)
(0.628312727 -0.69547992 6.546561574e-16)
(0.9730358779 -0.6059969568 -5.068695855e-16)
(0.7300400814 -0.4628928568 1.485973196e-16)
(1.035546305 -0.4432135466 -5.641475873e-17)
(0.8039990772 -0.3233509628 -2.003827392e-16)
(1.066764786 -0.3301529278 -2.23015729e-16)
(0.8583352019 -0.2360831985 -3.894595702e-16)
(1.082339749 -0.2475837457 -3.727896715e-16)
(0.8976896079 -0.1790754681 -1.60591969e-16)
(1.089913784 -0.1851129411 -4.066321395e-16)
(0.9252135188 -0.1399634794 5.051075867e-16)
(1.093177155 -0.1364959056 -4.9196518e-16)
(0.9432231539 -0.111602589 8.215843963e-16)
(1.093856015 -0.09767995053 -4.375558047e-16)
(0.9533880466 -0.08965859835 9.46099023e-16)
(1.092757256 -0.06600606385 -5.995100989e-16)
(0.9567992084 -0.07121931834 8.319825291e-16)
(1.090307843 -0.03986735765 -3.569339745e-16)
(0.954036269 -0.05398127354 1.819676133e-16)
(1.086796478 -0.01855556779 -6.777189347e-17)
(0.9452759244 -0.03573698044 -4.668310111e-16)
(1.082457443 -0.002298791935 4.360651938e-16)
(0.930423147 -0.01399508907 -8.278487674e-16)
(0.9443452937 -0.8920513006 4.170046246e-16)
(0.7080517109 -0.7234208325 -5.283230496e-16)
(1.042534587 -0.6303298829 5.302508389e-16)
(0.783136863 -0.4814814082 -2.830543773e-16)
(1.086404896 -0.4609944224 2.564522655e-16)
(0.8411172644 -0.3363251276 1.836269488e-16)
(1.104677702 -0.3433823557 1.950428002e-16)
(0.8854630128 -0.2455453986 5.138627875e-16)
(1.110797006 -0.2574886392 3.812946266e-16)
(0.9182911941 -0.1862435511 1.912920458e-16)
(1.111212985 -0.192500873 2.189490892e-16)
(0.9413352733 -0.1455583722 -3.014599562e-16)
(1.108898231 -0.141921726 3.625959557e-16)
(0.9560921912 -0.1160584877 -6.475880071e-16)
(1.105111958 -0.1015342202 3.302796131e-16)
(0.9637359907 -0.09323702079 -9.441594383e-16)
(1.100353206 -0.06857255351 4.146985361e-16)
(0.9650296566 -0.07406724841 -6.086865592e-16)
(1.094861378 -0.04137002626 2.320259714e-16)
(0.960296126 -0.05614833376 -3.9634378e-16)
(1.088853583 -0.01921228452 4.195352812e-16)
(0.9494407503 -0.03714520272 -1.408809058e-16)
(1.082633442 -0.002376549389 2.27777465e-16)
(0.9320302922 -0.01440486687 1.563762602e-16)
(1.045891476 -0.9152628131 -1.139220451e-16)
(0.7903959179 -0.7422470175 4.763711509e-17)
(1.114280166 -0.6467361948 1.915183141e-18)
(0.8379354982 -0.4940152737 -1.873557938e-16)
(1.138861934 -0.4730027713 -5.773253008e-17)
(0.8793781686 -0.3450820974 -6.615077418e-17)
(1.143731349 -0.3523345986 -2.411147614e-16)
(0.9133740238 -0.251936777 -4.056479448e-16)
(1.140057417 -0.2642065389 -2.50760246e-16)
(0.9394365133 -0.1910858455 -3.294088629e-17)
(1.133061254 -0.1975256327 -3.152291403e-16)
(0.9578372022 -0.1493352948 4.675166178e-16)
(1.124977054 -0.1456255314 -7.246987871e-16)
(0.9692293148 -0.1190635344 9.490590763e-16)
(1.11658389 -0.1041782273 -6.644120105e-16)
(0.9742762487 -0.09565170426 9.652456e-16)
(1.108062994 -0.07034272287 -4.184907538e-16)
(0.9733984543 -0.07600138853 5.087736686e-16)
(1.099458224 -0.04240527574 -2.481851027e-17)
(0.9666416676 -0.05765373956 6.681726263e-17)
(1.090912922 -0.0196344629 -2.321380691e-17)
(0.9536097604 -0.03821233248 -1.500765402e-16)
(1.082823643 -0.002303619989 1.570872737e-16)
(0.9334864899 -0.01497576193 -4.792679855e-16)
(1.1494046 -0.926976525 5.67455853e-17)
(0.8743476387 -0.751737048 -1.298738321e-17)
(1.187449315 -0.6549907529 -6.390179021e-17)
(0.8938344367 -0.5003140843 5.70256612e-17)
(1.192404348 -0.4790150569 1.181715079e-16)
(0.9184542815 -0.3494633769 -1.490500871e-16)
(1.183645556 -0.3567900216 2.84905305e-16)
(0.9419332456 -0.2551183891 8.677702436e-17)
(1.170019313 -0.2675252733 2.384051678e-16)
(0.9611270452 -0.1934847846 -1.650152826e-16)
(1.155490337 -0.1999841064 3.974534373e-16)
(0.9748144675 -0.1511998035 -4.473936974e-16)
(1.141535935 -0.1474136044 5.533064569e-16)
(0.9827860409 -0.120544564 -6.503133699e-16)
(1.12844145 -0.1054295968 5.248232088e-16)
(0.9851834991 -0.0968407942 -6.232654364e-16)
(1.116061176 -0.07115590632 2.387709257e-16)
(0.9820826637 -0.07694791484 -2.25040717e-16)
(1.104236917 -0.04286227677 -8.124351367e-17)
(0.9732662604 -0.0583723414 3.933895712e-17)
(1.0930213 -0.01980962827 4.806295795e-17)
(0.9580805773 -0.03870356324 -4.903864806e-18)
(1.082863214 -0.002243806916 8.981742066e-17)
(0.9353753739 -0.01524829904 2.079744992e-17)
(1.253573758 -0.9270122342 6.233250336e-18)
(0.9588278238 -0.751778017 -5.586235271e-17)
(1.261053142 -0.6550305678 -6.833928916e-17)
(0.9500579232 -0.5003527223 2.003712844e-16)
(1.246222211 -0.4790623373 -9.991754648e-17)
(0.9577107487 -0.3495004703 2.715766033e-16)
(1.223711979 -0.3568412915 -2.525179742e-16)
(0.9705693942 -0.2551523786 2.314094335e-16)
(1.200036375 -0.2675776262 -1.389668009e-16)
(0.9828186962 -0.193513418 1.834898847e-16)
(1.177899824 -0.2000344012 -4.37515801e-16)
(0.9917375524 -0.1512209176 3.60019921e-16)
(1.158023011 -0.1474574413 -3.456293861e-16)
(0.9962504205 -0.1205573434 3.696187423e-16)
(1.140201022 -0.1054609938 -4.845033385e-16)
(0.9959731058 -0.09684762404 4.36236215e-16)
(1.123967563 -0.07116860768 -2.520525686e-16)
(0.9906243275 -0.07695555064 1.170193411e-16)
(1.108971889 -0.0428516783 -2.063325311e-18)
(0.9796999477 -0.05839733206 -9.436274214e-17)
(1.095181968 -0.01975940749 -3.601424448e-17)
(0.9622710253 -0.03880321665 5.131292738e-17)
(1.083094324 -0.00208207511 -2.16853971e-16)
(0.936842708 -0.01553571584 2.562127543e-16)
(1.35709764 -0.9154007709 -1.332853303e-16)
(1.04277934 -0.7423411903 2.353488558e-16)
(1.334221656 -0.646791922 -1.712095109e-16)
(1.005951769 -0.4940452942 -1.919730286e-16)
(1.299760425 -0.4730026916 6.441023005e-17)
(0.9967810266 -0.3450675129 -3.977267336e-16)
(1.263622934 -0.3522959384 2.438215174e-16)
(0.9991241116 -0.2518909419 -5.089344894e-16)
(1.229998574 -0.2641381815 6.922317207e-17)
(1.004507974 -0.1910188712 -3.840229926e-16)
(1.200334906 -0.1974311417 5.193933824e-16)
(1.008718773 -0.1492574766 -3.823300379e-16)
(1.174595274 -0.1455036173 3.882044143e-16)
(1.009817614 -0.1189880429 -3.198403433e-16)
(1.152080096 -0.1040221869 4.044553055e-16)
(1.006896271 -0.09559559599 -1.250514319e-16)
(1.13199564 -0.07014301875 1.360167761e-16)
(0.999323865 -0.07598251222 1.163480362e-16)
(1.113789364 -0.04215552773 -8.937073597e-17)
(0.9863349369 -0.05770011174 2.429654567e-16)
(1.097321227 -0.0193039135 -9.02207604e-17)
(0.9667942725 -0.03844643641 6.045125067e-17)
(1.083071557 -0.001746912664 6.135152658e-17)
(0.9389752649 -0.01566097793 -2.342364588e-16)
(1.458667123 -0.8922578287 9.37243508e-17)
(1.125163336 -0.7235934676 -1.968875677e-16)
(1.405997086 -0.6304621046 1.375686076e-16)
(1.060786311 -0.4815857695 1.564605004e-16)
(1.352246113 -0.4610857985 -1.187782914e-17)
(1.035070883 -0.33638288 3.705928113e-16)
(1.302699163 -0.3434439993 -8.613862445e-17)
(1.027056278 -0.2455676359 5.02844716e-16)
(1.259272881 -0.2575243159 1.071293424e-17)
(1.025665115 -0.186237049 4.437900033e-16)
(1.222186093 -0.1925079894 -2.973163271e-16)
(1.025220689 -0.14553069 1.873846038e-16)
(1.190665006 -0.1418886637 -2.236785202e-16)
(1.022939222 -0.1160239909 1.842832667e-16)
(1.163535322 -0.1014366764 -4.046039825e-16)
(1.01739783 -0.09322422815 6.940441765e-18)
(1.13970018 -0.06837340397 -1.208562168e-16)
(1.00761013 -0.07412403415 -2.228443598e-16)
(1.118437133 -0.04102292627 1.216353796e-16)
(0.9925174754 -0.05636040486 -2.057785505e-16)
(1.099534367 -0.01862897096 2.568918577e-17)
(0.9707201121 -0.03772809836 1.403212192e-16)
(1.083482042 -0.00133136842 -2.830690456e-16)
(0.9401867086 -0.01571231884 5.704746994e-16)
(1.557011363 -0.857903116 -2.173408382e-16)
(1.204901554 -0.695703789 4.292547531e-16)
(1.475493374 -0.6061435272 -3.600580579e-16)
(1.113867692 -0.4629891462 4.056012455e-17)
(1.403091266 -0.4432579642 -2.640473471e-17)
(1.072170872 -0.3233580089 -4.137637859e-16)
(1.34060049 -0.3301244672 1.679059356e-16)
(1.054169003 -0.2360253904 -5.651180468e-16)
(1.287727523 -0.2474955164 1.310257896e-16)
(1.046260704 -0.1789710865 -5.815324396e-16)
(1.243497002 -0.1849661501 3.832729464e-16)
(1.041353092 -0.1398336095 -3.360342189e-16)
(1.206414861 -0.1362777441 3.298301172e-16)
(1.035844537 -0.1114807198 -3.471202119e-16)
(1.17483316 -0.0973573614 5.712243653e-16)
(1.027817137 -0.08960093953 -9.256177372e-17)
(1.147335406 -0.06552111772 2.268436514e-16)
(1.015956122 -0.07131145682 1.114264299e-16)
(1.122994778 -0.03913861445 -5.951739248e-17)
(0.9989590316 -0.05434934249 1.553701931e-16)
(1.101486398 -0.01746911476 -1.841015648e-16)
(0.9752378714 -0.03659000008 5.717516969e-17)
(1.083275943 -0.0007064009652 -1.460853303e-16)
(0.9425656424 -0.01553678805 -1.125342781e-16)
(1.650888513 -0.8127408349 2.848091106e-16)
(1.281062127 -0.6591051362 -3.848079354e-16)
(1.541845298 -0.5742604188 4.780062968e-16)
(1.164569181 -0.4386534829 -1.976818698e-16)
(1.451618761 -0.4199715403 9.011932347e-17)
(1.107581147 -0.3063847152 1.709799916e-16)
(1.376734066 -0.3128108913 -2.752799945e-17)
(1.080005474 -0.2236607203 4.033158253e-16)
(1.314798598 -0.2345465764 -1.849011958e-16)
(1.06583369 -0.1696199219 5.016300182e-16)
(1.263700185 -0.1753191777 -2.03116929e-16)
(1.056620719 -0.1325508408 6.108799013e-17)
(1.221261803 -0.1291927992 -3.1566192e-17)
(1.047984809 -0.1056980631 1.417906593e-16)
(1.185397309 -0.09229746291 -3.613909449e-16)
(1.037533692 -0.08498511808 6.120729913e-17)
(1.154416856 -0.06207336887 -1.46340276e-16)
(1.023622348 -0.06770277567 -1.857035983e-16)
(1.127255216 -0.03695088897 9.562299235e-17)
(1.004658306 -0.05174467198 -9.362513311e-17)
(1.103563698 -0.01621052017 1.099627445e-16)
(0.9787388179 -0.03510321586 1.072999724e-16)
(1.083876145 -0.0001061068534 -2.23108841e-17)
(0.943257667 -0.01527437232 1.94600979e-16)
(1.739122465 -0.7573649153 -4.020902121e-16)
(1.35258573 -0.6141627247 3.783312891e-16)
(1.604182001 -0.5350828018 -4.621562267e-16)
(1.212172122 -0.4087025778 3.031560255e-16)
(1.497216839 -0.3912718225 -1.803850666e-16)
(1.140844911 -0.2854235522 -4.531405998e-17)
(1.410718976 -0.2913874903 8.975674556e-17)
(1.104309438 -0.2083179682 -3.974759438e-16)
(1.340310326 -0.2184332379 2.3295414e-16)
(1.084294399 -0.1579467938 -3.785218218e-16)
(1.282806994 -0.1632182242 1.589300824e-16)
(1.071088342 -0.1234019436 -1.240879438e-16)
(1.235383975 -0.1202080128 1.387022876e-16)
(1.059583091 -0.09839854156 -2.184897179e-16)
(1.195521736 -0.08578936291 2.614162307e-16)
(1.046955246 -0.07915256428 -4.492316292e-17)
(1.161220806 -0.0575614238 8.638378221e-17)
(1.031286857 -0.06315586226 1.262921237e-16)
(1.131193582 -0.03403748481 -1.321230338e-16)
(1.010782797 -0.0484480744 1.210256467e-16)
(1.104977336 -0.01455215236 -2.139649149e-16)
(0.9833165513 -0.03307815624 4.876722255e-17)
(1.083178888 0.0005060643256 -1.378954696e-16)
(0.9459753044 -0.01449443687 -5.626362779e-17)
(1.820600032 -0.6924469548 2.765537836e-16)
(1.4187069 -0.5615449743 -2.566114729e-16)
(1.661786374 -0.4892412804 2.258949193e-16)
(1.256202781 -0.3737062817 -1.937856442e-16)
(1.53935769 -0.3577780142 1.438386406e-16)
(1.171606354 -0.2610068684 -7.030999338e-17)
(1.442104726 -0.2664741392 -2.957539082e-17)
(1.12676367 -0.1905253963 2.701491022e-16)
(1.363829391 -0.1997926268 -2.434871505e-16)
(1.101314336 -0.1444882276 2.753567618e-16)
(1.300358993 -0.1493282911 -6.235179672e-17)
(1.084372724 -0.1129205705 -2.618854095e-17)
(1.248271903 -0.1100139653 2.873726199e-17)
(1.07015335 -0.0900754263 6.956418858e-17)
(1.204666231 -0.07853313671 -5.531863931e-17)
(1.055421117 -0.07249813456 -4.743277354e-17)
(1.16731096 -0.0526689744 6.444077047e-17)
(1.037969603 -0.05791660342 -1.0143951e-16)
(1.134821811 -0.0310286193 1.060102369e-16)
(1.015728963 -0.0445786977 -7.014898411e-17)
(1.106790628 -0.01298794321 1.579958901e-16)
(0.9861845849 -0.03069820879 6.586848878e-17)
(1.084019945 0.0009976465169 6.953043549e-17)
(0.9459349156 -0.01380004149 1.490376418e-16)
(1.894299733 -0.6188259284 -1.318431758e-16)
(1.478427535 -0.501805799 2.842199426e-16)
(1.713836069 -0.4371717958 -1.67802564e-16)
(1.295937413 -0.3339069059 1.740961202e-16)
(1.577419108 -0.3196503961 -1.250953175e-16)
(1.19936165 -0.2331658301 1.124894535e-16)
(1.470464003 -0.2380280452 2.278734139e-17)
(1.147033385 -0.1701579153 -1.482347534e-16)
(1.385110974 -0.1784123161 2.510812972e-16)
(1.116703895 -0.12899952 -2.423797623e-16)
(1.316292004 -0.1332888229 1.418453529e-16)
(1.096435261 -0.1007811466 -5.260473712e-17)
(1.260042737 -0.09812802272 -2.787912227e-17)
(1.079846484 -0.08037673469 -3.803995619e-17)
(1.213088898 -0.06996401591 -1.796788343e-17)
(1.063364649 -0.06471352173 5.657370879e-17)
(1.172908328 -0.04681069309 -1.19891679e-16)
(1.044594395 -0.05177458947 8.280490323e-17)
(1.137867625 -0.02741905385 -9.846854767e-17)
(1.021331207 -0.03997708323 4.266754449e-17)
(1.107419506 -0.01126630402 -1.202886443e-16)
(0.9908006004 -0.02758659918 -5.562803494e-17)
(1.082557716 0.001087544199 -4.724272963e-17)
(0.9490735912 -0.0121280972 -1.381041524e-16)
(1.959292074 -0.5374066908 -1.823291738e-17)
(1.531195386 -0.4358033726 -2.169559613e-16)
(1.759805874 -0.3796657379 -8.234723921e-18)
(1.331091858 -0.2899984254 -6.973274551e-17)
(1.611062753 -0.2776209539 -2.91638874e-18)
(1.22393526 -0.2025210439 -7.487602825e-17)
(1.495532209 -0.2067535031 7.958018381e-18)
(1.164984719 -0.1478172032 3.546100729e-17)
(1.40390557 -0.1550011339 -1.720238423e-16)
(1.130324918 -0.1120916507 1.054757495e-16)
(1.330324222 -0.1158371057 -5.340875779e-17)
(1.107078804 -0.08760400715 -1.044584244e-17)
(1.270344326 -0.08532363363 9.829778071e-17)
(1.088319584 -0.06989768348 -3.939548299e-17)
(1.220386552 -0.06087700091 7.074338998e-17)
(1.070134371 -0.05629943014 -3.937464488e-17)
(1.177757429 -0.04075730321 7.031989234e-17)
(1.049876904 -0.04506118866 -2.412167476e-17)
(1.140789502 -0.02385313027 2.461806922e-17)
(1.02508741 -0.03483462964 3.82771589e-17)
(1.109082357 -0.009686062695 -1.130577865e-17)
(0.9926165688 -0.02416717792 1.685275434e-16)
(1.083881319 0.001236357757 -8.368727704e-17)
(0.948232745 -0.01096176155 2.334517106e-16)
(2.014762278 -0.4492314729 6.612425475e-17)
(1.576118061 -0.3642654927 2.581893288e-16)
(1.798958621 -0.3173185654 6.552799501e-18)
(1.360965311 -0.2423509155 1.092751473e-16)
(1.639678781 -0.2319835679 1.316756204e-17)
(1.244789539 -0.1692034279 7.825121876e-17)
(1.516843011 -0.1727210255 2.887790581e-18)
(1.180201385 -0.1234568925 -3.717922127e-17)
(1.419887836 -0.1294410589 1.623893918e-16)
(1.141865261 -0.09357824985 -1.074068728e-16)
(1.342281191 -0.09668602965 1.22306165e-16)
(1.116117083 -0.07309906402 -6.887649466e-17)
(1.279171238 -0.0711661134 -1.102914718e-18)
(1.095593718 -0.05829901965 -2.825643243e-17)
(1.226690987 -0.05072753149 -2.922944367e-17)
(1.076154642 -0.04695041267 3.035594017e-17)
(1.181897237 -0.03392973002 -4.828336329e-17)
(1.055061866 -0.0375923463 1.677971899e-17)
(1.14285978 -0.01987526185 -3.143817819e-17)
(1.029817499 -0.02905859105 -9.745970609e-18)
(1.108959684 -0.008227042964 -1.969479297e-17)
(0.9970448521 -0.01999421429 -9.109957921e-17)
(1.081654085 0.0005430438303 4.065648083e-17)
(0.951637783 -0.008480874446 -1.24082262e-16)
(2.060010292 -0.3553930605 -8.027297742e-17)
(1.612886578 -0.2881839374 -2.042101714e-16)
(1.830988211 -0.2510266742 -5.675147802e-17)
(1.385480339 -0.1917252134 -7.778052918e-17)
(1.663137164 -0.1835175818 -1.767725498e-17)
(1.261941928 -0.1338569462 -8.760438522e-17)
(1.534335469 -0.1366406815 2.759659259e-18)
(1.192747719 -0.09767315593 -1.242151674e-17)
(1.433015473 -0.1024140571 -6.770603406e-17)
(1.1514011 -0.07404721434 1.629074661e-17)
(1.352094197 -0.07651967921 -4.911896656e-17)
(1.123578838 -0.05785746211 4.92237235e-18)
(1.286385057 -0.05635455671 4.050257939e-17)
(1.101524447 -0.04615231434 -3.286065905e-17)
(1.231815128 -0.04021552494 6.597666901e-17)
(1.080830182 -0.03715445183 -4.004873221e-17)
(1.185351343 -0.0269648133 2.426381252e-17)
(1.058525301 -0.02968759958 1.243593661e-17)
(1.14511647 -0.01589154174 1.532547858e-18)
(1.031866593 -0.02282741219 4.561945001e-17)
(1.110712576 -0.006702577016 -2.948361857e-17)
(0.9973038571 -0.01561103722 1.093614788e-16)
(1.083660382 0.0003259086007 -7.881075971e-17)
(0.9502426426 -0.006779434588 1.293233636e-16)
(2.094469783 -0.2570843881 1.026963284e-16)
(1.64075992 -0.2084365471 1.628539203e-16)
(1.855282709 -0.1815308122 4.950674545e-17)
(1.403997051 -0.1386226795 8.799591975e-17)
(1.680876393 -0.1326643141 2.412040251e-17)
(1.274853504 -0.09673997835 6.291945944e-17)
(1.547534485 -0.09873726456 2.875300236e-17)
(1.202153811 -0.07055228381 -8.52106666e-18)
(1.442904431 -0.07396977647 7.889480582e-17)
(1.158519292 -0.05345456287 -4.560768518e-17)
(1.359486025 -0.05523726772 8.011630023e-17)
(1.129141934 -0.04174052314 -3.942115865e-17)
(1.291842153 -0.04065999092 1.01758956e-17)
(1.106004954 -0.03327382809 -3.599250453e-18)
(1.235718539 -0.02901456779 -1.527519188e-17)
(1.084585684 -0.02676536642 5.548284343e-18)
(1.187903435 -0.0194966689 -1.599043355e-17)
(1.061912773 -0.02135047573 -8.250070078e-18)
(1.146277129 -0.01162940261 -8.2573953e-18)
(1.035315232 -0.01632062103 -2.451621933e-17)
(1.110128632 -0.005239785729 1.152622117e-18)
(1.001108822 -0.01093212747 -6.100049244e-17)
(1.081138186 -0.00044455024 4.386507477e-17)
(0.9534120941 -0.004315707678 -9.629071611e-17)
(2.11770454 -0.1555316425 -9.713421136e-17)
(1.659683839 -0.1260875216 -1.099988751e-16)
(1.871763596 -0.1097734591 -8.175542959e-17)
(1.416640191 -0.08381292729 -6.046426236e-17)
(1.692968605 -0.08018552226 -3.433244024e-17)
(1.283718737 -0.05845616924 -5.529415901e-17)
(1.556566802 -0.0596500522 -1.261918061e-17)
(1.20865648 -0.04260659788 -2.859869909e-17)
(1.4496968 -0.04466574026 -2.229557769e-17)
(1.163477304 -0.03226316632 -1.052143692e-17)
(1.364575968 -0.03334053166 -1.777497165e-17)
(1.133026906 -0.02517832929 -8.413924119e-18)
(1.295596486 -0.02453921134 1.975981605e-17)
(1.109067452 -0.02005087098 -2.073246755e-17)
(1.23841164 -0.01753135711 3.132526349e-17)
(1.086895105 -0.0160834086 -1.243311368e-17)
(1.189811391 -0.01185604947 1.433319469e-17)
(1.063331863 -0.01271787369 6.654469643e-18)
(1.147812794 -0.007277747385 6.440491806e-18)
(1.03548948 -0.009472769548 2.105305997e-17)