/*--------------------------------*- C++ -*----------------------------------*\
| =========                 |                                                 |
| \\      /  F ield         | foam-extend: Open Source CFD                    |
|  \\    /   O peration     | Version:  3.0                                   |
|   \\  /    A nd           | Web:         http://www.extend-project.de       |
|    \\/     M anipulation  |                                                 |
\*---------------------------------------------------------------------------*/
FoamFile
{
    version     2.0;
    format      ascii;
    class       volSymmTensorField;
    location    "6";
    object      sigma;
}
// * * * * * * * * * * * * * * * * * * * * * * * * * * * * * * * * * * * * * //

dimensions      [0 0 0 0 0 0 0];

internalField   nonuniform List<symmTensor> 
224
(
(-0.149808 -0.0180113 -9.44422e-20 0.150364 7.33012e-20 -0.000555943)
(-0.122617 -0.0192351 -1.56453e-19 0.123892 1.90918e-19 -0.00127473)
(-0.0920674 -0.0169373 -5.65521e-21 0.0938516 1.56621e-19 -0.00178426)
(-0.0645807 -0.0140217 1.52938e-19 0.0666347 -5.91799e-19 -0.00205393)
(-0.0413249 -0.0112384 2.06489e-19 0.0433414 -2.22389e-19 -0.00201655)
(-0.0236644 -0.00919213 1.86309e-20 0.0252456 -5.21463e-19 -0.0015812)
(-0.0115626 -0.00780339 -3.83121e-20 0.0122196 4.01178e-21 -0.000656985)
(-0.13925 -0.0520661 -5.06463e-20 0.139773 1.55134e-19 -0.000522632)
(-0.107566 -0.0538532 -2.99828e-20 0.108765 2.76739e-19 -0.00119828)
(-0.0772422 -0.0466888 -3.19914e-19 0.0789191 3.2604e-21 -0.00167691)
(-0.0511525 -0.0381403 -1.27718e-18 0.053082 -1.40266e-19 -0.00192955)
(-0.0294911 -0.0301409 3.45894e-19 0.0313842 -2.83622e-19 -0.00189307)
(-0.0128769 -0.0242704 5.66571e-19 0.0143596 -1.56916e-18 -0.00148267)
(-0.00138438 -0.0203145 -1.41212e-20 0.00199904 -6.4976e-19 -0.000614653)
(-0.120134 -0.0802313 9.68871e-21 0.120603 4.07401e-20 -0.00046888)
(-0.0815254 -0.0780497 9.07201e-20 0.0826004 1.25746e-19 -0.00107497)
(-0.0519696 -0.0655336 8.02855e-20 0.0534735 -1.3715e-19 -0.00150386)
(-0.0285065 -0.0519614 -6.26419e-19 0.0302359 1.59922e-19 -0.00172937)
(-0.0097354 -0.0396259 -1.05644e-18 0.0114304 -1.01725e-18 -0.00169499)
(0.00495451 -0.0304619 -3.38424e-18 -0.00362905 -1.02843e-18 -0.00132546)
(0.0153032 -0.0242158 -3.54314e-19 -0.0147553 6.25831e-19 -0.000547861)
(-0.0958908 -0.1003 4.24424e-20 0.0962877 -2.67703e-20 -0.000396939)
(-0.0512885 -0.0884964 5.26048e-20 0.0521984 -2.65271e-20 -0.000909896)
(-0.0235432 -0.0701334 -9.39958e-20 0.0248155 -2.49121e-19 -0.00127226)
(-0.003642 -0.0524202 -6.7706e-19 0.00510365 -1.11614e-19 -0.00146165)
(0.01145 -0.0369588 -1.23669e-18 -0.0100196 -2.09815e-19 -0.00143045)
(0.0236204 -0.0252417 -2.21716e-18 -0.0225044 2.06741e-18 -0.00111598)
(0.0324215 -0.0171066 8.96805e-19 -0.0319622 4.67979e-19 -0.000459301)
(-0.0703204 -0.112063 3.51655e-20 0.07063 -1.52643e-20 -0.000309688)
(-0.0241679 -0.0860164 1.61338e-20 0.0248776 -1.96165e-20 -0.000709692)
(0.000235917 -0.0616509 -2.07998e-19 0.000755554 -6.85322e-20 -0.000991471)
(0.015983 -0.0407994 -7.0783e-19 -0.0148457 1.43041e-19 -0.0011373)
(0.0271692 -0.0234584 -8.89911e-19 -0.0260589 1.00993e-18 -0.00111034)
(0.0365408 -0.0099821 1.62079e-18 -0.0356778 1.40308e-18 -0.000863012)
(0.0435391 -0.000410217 6.39914e-19 -0.0431863 -9.1476e-19 -0.00035278)
(-0.0464806 -0.117128 -3.51567e-20 0.0466912 5.71716e-20 -0.000210604)
(-0.0056392 -0.0751403 4.71208e-20 0.00612157 2.09363e-20 -0.000482376)
(0.0136212 -0.0452536 -1.35373e-19 -0.0129484 3.87586e-20 -0.000672807)
(0.0249323 -0.0222399 -1.33879e-19 -0.0241627 9.30174e-20 -0.000769517)
(0.0324395 -0.00403475 -9.12474e-19 -0.0316917 1.00898e-18 -0.000747837)
(0.0390013 0.0104982 2.38729e-18 -0.0384242 -8.62445e-20 -0.00057711)
(0.0440803 0.0210713 -1.77435e-18 -0.0438475 -9.48437e-20 -0.000232816)
(-0.0258711 -0.118166 6.34991e-20 0.0259747 1.43661e-20 -0.00010362)
(0.00236279 -0.0624371 2.29903e-19 -0.00212578 -7.39743e-20 -0.000237006)
(0.0147703 -0.0282821 -5.25642e-19 -0.0144413 -2.84451e-20 -0.000329044)
(0.0215783 -0.00395898 -1.36082e-18 -0.0212052 2.98409e-19 -0.00037314)
(0.0258598 0.0144833 -9.77889e-19 -0.0255022 1.03338e-18 -0.000357692)
(0.0297544 0.0295523 1.20829e-18 -0.0294844 3.83976e-19 -0.000270023)
(0.0328821 0.0407481 5.74374e-19 -0.0327777 -4.08686e-20 -0.000104387)
(-0.00817738 -0.117849 7.05443e-21 0.00817033 6.80004e-21 7.04786e-06)
(0.00193138 -0.054189 -1.91793e-19 -0.00194811 -1.30328e-20 1.67254e-05)
(0.00626332 -0.0177047 -3.01372e-19 -0.0062895 1.08339e-19 2.61863e-05)
(0.00859646 0.00722224 -4.78028e-19 -0.00863248 3.54323e-19 3.60127e-05)
(0.0100657 0.0256635 -4.95234e-19 -0.0101101 7.38058e-19 4.44133e-05)
(0.0114538 0.0409378 5.54084e-19 -0.0114995 4.25652e-19 4.57763e-05)
(0.0126307 0.0524401 2.89253e-19 -0.0126579 -7.13284e-20 2.72158e-05)
(0.00834837 -0.117828 -3.51086e-22 -0.00846546 7.89983e-21 0.000117089)
(-0.00170115 -0.0541973 -1.93288e-19 0.00143224 1.04269e-20 0.000268918)
(-0.00588198 -0.0177208 -4.76941e-20 0.00550299 2.62638e-19 0.000378986)
(-0.00799793 0.00720313 -3.89376e-19 0.00755605 3.69349e-19 0.000441884)
(-0.00917728 0.0256459 -1.84918e-19 0.00873465 4.85499e-19 0.000442634)
(-0.0102274 0.0409168 -1.11348e-19 0.00986959 2.80001e-19 0.00035779)
(-0.0110128 0.0524427 1.6328e-19 0.010856 -1.3899e-20 0.000156764)
(0.0260041 -0.118122 2.1271e-20 -0.0262264 2.7899e-21 0.000222266)
(-0.00212249 -0.0624609 1.03975e-19 0.00161263 2.77418e-20 0.000509862)
(-0.0143606 -0.0283219 4.06389e-19 0.0136448 3.95407e-19 0.000715766)
(-0.020943 -0.0040031 -1.23394e-18 0.0201142 3.3949e-19 0.000828817)
(-0.0249371 0.014445 -2.49075e-19 0.0241156 3.67133e-19 0.000821574)
(-0.0284939 0.0295075 -4.63499e-19 0.02784 7.76455e-20 0.000653898)
(-0.0312725 0.0407604 1.95363e-19 0.0309933 -3.4373e-20 0.000279185)
(0.0465614 -0.117101 9.52844e-20 -0.04688 1.88656e-20 0.000318591)
(0.005899 -0.0751763 1.3731e-19 -0.00662943 -3.48459e-20 0.00073043)
(-0.0131663 -0.0452951 4.8438e-19 0.0121425 1.1181e-19 0.0010238)
(-0.0242423 -0.022276 3.36012e-19 0.0230601 3.03924e-19 0.00118224)
(-0.0314694 -0.00405815 3.20184e-19 0.0303024 8.10119e-19 0.00116702)
(-0.0376999 0.0104738 -2.1103e-18 0.0367768 7.09034e-19 0.000923068)
(-0.042494 0.0211062 -2.89987e-19 0.042104 -1.12356e-19 0.000389968)
(0.0703689 -0.112096 -1.46375e-20 -0.0707713 -7.08143e-20 0.000402455)
(0.0244548 -0.0860587 5.76262e-21 -0.0253772 -9.50635e-20 0.000922391)
(0.000263691 -0.061669 2.97758e-20 -0.00155533 -1.34565e-19 0.00129164)
(-0.0152473 -0.0407922 7.46726e-20 0.0137582 -1.10462e-19 0.00148911)
(-0.026168 -0.0234301 3.72209e-19 0.0247016 -3.58994e-19 0.00146634)
(-0.0352291 -0.00994425 1.67607e-18 0.0340735 8.2512e-19 0.00115556)
(-0.042005 -0.000340775 1.33402e-18 0.0415199 5.4534e-19 0.000485148)
(0.095951 -0.100411 -3.46918e-20 -0.0964217 -1.11812e-19 0.000470764)
(0.0516062 -0.0885365 -3.82533e-20 -0.0526849 -1.19462e-19 0.00107869)
(0.0240716 -0.0701113 -8.57845e-20 -0.0255812 -2.62644e-19 0.00150954)
(0.00439326 -0.0523506 3.22817e-20 -0.00613163 -3.43283e-19 0.00173837)
(-0.0104565 -0.0368616 7.3228e-19 0.00874758 -1.51406e-18 0.0017089)
(-0.0223533 -0.025127 3.86703e-18 0.02101 1.01395e-19 0.00134329)
(-0.0309742 -0.0170013 -1.00674e-18 0.0304127 -4.9671e-19 0.000561522)
(0.120252 -0.0804059 -1.43568e-20 -0.120773 -1.01863e-19 0.000521027)
(0.081872 -0.0780792 -6.88434e-20 -0.0830656 -9.82744e-20 0.00119368)
(0.0525037 -0.0654695 -2.78926e-19 -0.0541733 -4.28054e-19 0.00166967)
(0.0292371 -0.0518352 -1.31551e-19 -0.0311583 -7.46185e-19 0.00192121)
(0.0106794 -0.0394716 3.98633e-19 -0.0125656 -1.29754e-18 0.00188628)
(-0.00378454 -0.0302936 1.91468e-18 0.00230462 -8.61179e-19 0.00147992)
(-0.0139796 -0.02409 -1.5516e-18 0.013363 2.70513e-19 0.000616596)
(0.139451 -0.0522659 -1.43701e-20 -0.140002 -2.80724e-20 0.000551431)
(0.107934 -0.0538664 -1.68836e-19 -0.109197 -7.84774e-20 0.00126322)
(0.0777616 -0.0465951 -8.30718e-19 -0.079528 -2.99034e-20 0.00176638)
(0.0518372 -0.0379837 -9.59276e-19 -0.0538684 -3.32895e-19 0.00203125)
(0.0303601 -0.0299633 6.53058e-19 -0.0323525 -5.91268e-19 0.00199242)
(0.0139277 -0.0240958 1.58556e-18 -0.0154886 -1.34249e-18 0.00156088)
(0.00257068 -0.0201985 9.21138e-19 -0.00321927 9.4579e-19 0.000648595)
(0.150086 -0.0181934 -9.33919e-20 -0.150646 -2.20246e-20 0.000560894)
(0.122994 -0.0192322 -2.38489e-19 -0.124279 -9.13478e-20 0.00128487)
(0.0925623 -0.0168346 -9.35687e-20 -0.0943586 2.7036e-19 0.00179629)
(0.0652149 -0.0138678 1.77838e-19 -0.0672797 3.29409e-19 0.00206475)
(0.0421203 -0.0110758 3.79015e-19 -0.044144 2.68888e-20 0.00202379)
(0.0246109 -0.00905545 5.96209e-19 -0.0261945 -8.93797e-19 0.00158358)
(0.012626 -0.00772872 8.44156e-21 -0.0132826 -4.33469e-19 0.000656556)
(0.150107 0.0180547 -9.4352e-20 -0.150656 7.36606e-20 0.000549093)
(0.122989 0.019273 -1.56455e-19 -0.124247 1.91514e-19 0.0012579)
(0.0925439 0.0169819 -5.59961e-21 -0.0943023 1.57553e-19 0.0017584)
(0.0651852 0.0140807 1.52559e-19 -0.0672058 -5.89017e-19 0.00202059)
(0.042078 0.0113208 2.06124e-19 -0.0440574 -2.20842e-19 0.00197935)
(0.0245545 0.00930154 1.83321e-20 -0.0261018 -5.18708e-19 0.00154729)
(0.0125497 0.00796061 -3.79008e-20 -0.0131899 4.7403e-21 0.000640217)
(0.139513 0.0521392 -5.05733e-20 -0.140029 1.55392e-19 0.000516474)
(0.107924 0.0538937 -2.98323e-20 -0.109107 2.77236e-19 0.00118332)
(0.0777118 0.0467195 -3.18368e-19 -0.0793659 4.74703e-21 0.00165413)
(0.0517538 0.0381708 -1.27563e-18 -0.0536542 -1.38801e-19 0.00190041)
(0.0302392 0.0301828 3.45101e-19 -0.0321 -2.81174e-19 0.00186077)
(0.0137625 0.024322 5.64775e-19 -0.0152159 -1.56234e-18 0.00145336)
(0.00234989 0.020408 -1.34767e-20 -0.00295011 -6.46772e-19 0.000600219)
(0.120347 0.0803011 9.75955e-21 -0.120812 4.09676e-20 0.000464236)
(0.0818654 0.0780836 9.0839e-20 -0.0829292 1.2634e-19 0.00106386)
(0.0524375 0.0655537 8.11737e-20 -0.0539247 -1.35504e-19 0.00148725)
(0.0291163 0.0519758 -6.24059e-19 -0.0308248 1.61178e-19 0.00170848)
(0.010496 0.039645 -1.05091e-18 -0.0121681 -1.01162e-18 0.00167216)
(-0.00404678 0.0304817 -3.37961e-18 0.00274184 -1.02287e-18 0.00130494)
(-0.0143261 0.0242659 -3.57248e-19 0.0137883 6.24696e-19 0.000537826)
(0.0960686 0.100334 4.25955e-20 -0.0964629 -2.6545e-20 0.000394296)
(0.051616 0.0885155 5.29923e-20 -0.0525199 -2.58647e-20 0.000903861)
(0.0240098 0.0701478 -9.29235e-20 -0.0252736 -2.47524e-19 0.00126378)
(0.00425835 0.052434 -6.74803e-19 -0.00571002 -1.09705e-19 0.00145167)
(-0.010679 0.0369766 -1.23194e-18 0.0092588 -2.06174e-19 0.00142017)
(-0.0226925 0.025262 -2.21441e-18 0.0215853 2.06709e-18 0.0011072)
(-0.0314272 0.0171417 8.98624e-19 0.030972 4.66872e-19 0.000455179)
(0.0704957 0.112047 3.5452e-20 -0.0708049 -1.51134e-20 0.000309232)
(0.0244922 0.0860174 1.68428e-20 -0.0252014 -1.91886e-20 0.000709207)
(0.000226463 0.0616622 -2.06382e-19 -0.00121834 -6.76156e-20 0.000991875)
(-0.0153718 0.0408195 -7.05094e-19 0.0142326 1.44272e-19 0.00113923)
(-0.0264036 0.0234849 -8.83604e-19 0.0252898 1.01315e-18 0.00111376)
(-0.0356174 0.0100177 1.62174e-18 0.0347504 1.40684e-18 0.000867011)
(-0.0425488 0.000442902 6.4087e-19 0.0421937 -9.16531e-19 0.000355085)
(0.0466872 0.117074 -3.47482e-20 -0.0468994 5.7228e-20 0.000212199)
(0.00597024 0.0751262 4.80547e-20 -0.00645732 2.09734e-20 0.000487085)
(-0.0131654 0.0452599 -1.33195e-19 0.0124839 3.87655e-20 0.000681508)
(-0.0243373 0.0222603 -1.30316e-19 0.0235547 9.28218e-20 0.000782542)
(-0.0316949 0.00406101 -9.0621e-19 0.0309309 1.01225e-18 0.00076401)
(-0.0381057 -0.0104609 2.3888e-18 0.0375127 -8.48231e-20 0.000592985)
(-0.0431079 -0.0210546 -1.77625e-18 0.0428668 -9.3435e-20 0.00024108)
(0.0261249 0.118106 6.40154e-20 -0.0262318 1.43411e-20 0.000106825)
(-0.00201885 0.0624161 2.30898e-19 0.00177307 -7.44143e-20 0.000245776)
(-0.0143191 0.0282784 -5.24327e-19 0.0139749 -2.96038e-20 0.000344213)
(-0.0209999 0.00396467 -1.35833e-18 0.0206051 2.97743e-19 0.000394807)
(-0.0251363 -0.0144784 -9.74456e-19 0.0247525 1.03777e-18 0.000383792)
(-0.0288879 -0.0295445 1.21305e-18 0.0285927 3.89308e-19 0.000295152)
(-0.031921 -0.0407755 5.71264e-19 0.0318036 -4.05965e-20 0.000117311)
(0.00846797 0.117816 7.58525e-21 -0.00846505 6.72113e-21 -2.91998e-06)
(-0.00157419 0.0541705 -1.90693e-19 0.00157984 -1.3128e-20 -5.64421e-06)
(-0.00580943 0.0176877 -3.00776e-19 0.00581679 1.08513e-19 -7.36165e-06)
(-0.00802082 -0.00724403 -4.77875e-19 0.0080303 3.55036e-19 -9.48305e-06)
(-0.00934346 -0.025698 -4.94647e-19 0.00935621 7.40511e-19 -1.27453e-05)
(-0.010588 -0.040987 5.57726e-19 0.0106035 4.28296e-19 -1.54692e-05)
(-0.0116456 -0.0525304 2.9135e-19 0.0116573 -7.17395e-20 -1.16962e-05)
(-0.00805076 0.117839 6.30222e-23 0.00816362 7.83738e-21 -0.000112858)
(0.00206726 0.0541875 -1.92513e-19 -0.00180964 1.05006e-20 -0.000257614)
(0.00634918 0.0176927 -4.66087e-20 -0.00598933 2.62703e-19 -0.000359852)
(0.00859399 -0.00725252 -3.86465e-19 -0.00817902 3.69986e-19 -0.000414972)
(0.00993059 -0.0257197 -1.83334e-19 -0.00952006 4.8622e-19 -0.000410535)
(0.0111386 -0.0410243 -1.08576e-19 -0.0108115 2.80927e-19 -0.000327062)
(0.0120661 -0.0525868 1.63824e-19 -0.0119251 -1.36048e-20 -0.000141013)
(-0.0257307 0.118167 2.1559e-20 0.0259495 2.74671e-21 -0.000218776)
(0.00249181 0.0624612 1.04535e-19 -0.00199134 2.76602e-20 -0.000500472)
(0.0148499 0.0282913 4.07819e-19 -0.0141502 3.93988e-19 -0.000699747)
(0.02158 0.0039419 -1.23171e-18 -0.0207738 3.38462e-19 -0.00080612)
(0.0257495 -0.0145355 -2.46439e-19 -0.0249552 3.68376e-19 -0.000794357)
(0.0294902 -0.0296414 -4.56726e-19 -0.0288624 8.02253e-20 -0.00062774)
(0.0324249 -0.04092 1.97823e-19 -0.0321591 -3.45094e-20 -0.000265746)
(-0.0463267 0.117152 9.55053e-20 0.0466433 1.8818e-20 -0.000316563)
(-0.00553008 0.0751837 1.37894e-19 0.00625487 -3.48988e-20 -0.000724787)
(0.0136798 0.0452747 4.85843e-19 -0.0126659 1.10985e-19 -0.00101382)
(0.0249261 0.0222294 3.37269e-19 -0.0237584 3.01799e-19 -0.00116768)
(0.032348 0.00398817 3.25753e-19 -0.0311988 8.04804e-19 -0.00114919)
(0.0387907 -0.0105801 -2.10223e-18 -0.037885 7.06317e-19 -0.000905668)
(0.0437456 -0.0212272 -2.90139e-19 -0.0433647 -1.08121e-19 -0.000380927)
(-0.0701624 0.112123 -1.44156e-20 0.0705648 -7.09306e-20 -0.000402401)
(-0.024086 0.086069 6.41759e-21 0.0250078 -9.53521e-20 -0.000921779)
(0.000267506 0.0616698 3.13445e-20 0.00102224 -1.35462e-19 -0.00128975)
(0.0159648 0.0407846 7.66899e-20 -0.0144794 -1.12397e-19 -0.00148541)
(0.0270932 0.0234153 3.7622e-19 -0.0256321 -3.63255e-19 -0.00146104)
(0.0363845 0.00991622 1.67651e-18 -0.0352346 8.23283e-19 -0.00114988)
(0.0433205 0.000307368 1.33118e-18 -0.0428385 5.4298e-19 -0.000482019)
(-0.0957445 0.100401 -3.45428e-20 0.0962174 -1.12051e-19 -0.000472889)
(-0.0512348 0.0885477 -3.78246e-20 0.0523184 -1.20045e-19 -0.00108362)
(-0.0235355 0.070138 -8.48417e-20 0.025052 -2.64014e-19 -0.00151652)
(-0.00366901 0.0523923 3.36585e-20 0.00541559 -3.45639e-19 -0.00174658)
(0.0113893 0.0369168 7.35957e-19 -0.00967196 -1.51968e-18 -0.0017173)
(0.0235155 0.0251993 3.86903e-18 -0.0221651 9.87155e-20 -0.0013504)
(0.0322937 0.0170779 -1.00945e-18 -0.0317288 -4.9769e-19 -0.000564826)
(-0.120016 0.0803696 -1.42962e-20 0.120541 -1.02204e-19 -0.00052522)
(-0.0814951 0.0780928 -6.8813e-20 0.082699 -9.90665e-20 -0.00120384)
(-0.0519763 0.0655177 -2.78917e-19 0.0536613 -4.29918e-19 -0.001685)
(-0.0285345 0.0519168 -1.31792e-19 0.0304751 -7.49425e-19 -0.00194057)
(-0.00977977 0.039584 4.02169e-19 0.0116873 -1.30287e-18 -0.0019075)
(0.00489362 0.030448 1.91452e-18 -0.00339465 -8.64385e-19 -0.00149897)
(0.0152397 0.024262 -1.54977e-18 -0.0146138 2.74797e-19 -0.000625902)
(-0.139174 0.0522329 -1.44044e-20 0.139732 -2.85339e-20 -0.000557268)
(-0.107553 0.0538863 -1.69318e-19 0.10883 -7.93726e-20 -0.00127752)
(-0.077252 0.0466537 -8.31872e-19 0.0790402 -3.07169e-20 -0.00178825)
(-0.0511732 0.0380814 -9.59806e-19 0.0532325 -3.34307e-19 -0.00205931)
(-0.029518 0.0300993 6.5754e-19 0.0315416 -5.93688e-19 -0.00202359)
(-0.0129059 0.0242836 1.59016e-18 0.0144951 -1.34771e-18 -0.0015892)
(-0.00141045 0.020419 9.20369e-19 0.002073 9.4807e-19 -0.000662554)
(-0.149782 0.0181929 -9.34903e-20 0.15035 -2.2488e-20 -0.000567718)
(-0.122613 0.0192615 -2.38628e-19 0.123915 -9.22395e-20 -0.0013016)
(-0.0920717 0.0168907 -9.34704e-20 0.0938937 2.70071e-19 -0.00182191)
(-0.0645884 0.0139547 1.78405e-19 0.0666861 3.29583e-19 -0.00209773)
(-0.0413339 0.0111973 3.81243e-19 0.0433945 2.67229e-20 -0.00206055)
(-0.0236726 0.00922164 5.98218e-19 0.0252896 -8.97663e-19 -0.00161707)
(-0.0115687 0.00793999 7.26632e-21 0.0122418 -4.35779e-19 -0.0006731)
)
;

boundaryField
{
    out
    {
        type            mySigma;
    }
    in
    {
        type            mySigma;
    }
    frontAndBack
    {
        type            empty;
    }
}


// ************************************************************************* //
