/*--------------------------------*- C++ -*----------------------------------*\
| =========                 |                                                 |
| \\      /  F ield         | foam-extend: Open Source CFD                    |
|  \\    /   O peration     | Version:  3.0                                   |
|   \\  /    A nd           | Web:         http://www.extend-project.de       |
|    \\/     M anipulation  |                                                 |
\*---------------------------------------------------------------------------*/
FoamFile
{
    version     2.0;
    format      ascii;
    class       volVectorField;
    location    "5";
    object      u;
}
// * * * * * * * * * * * * * * * * * * * * * * * * * * * * * * * * * * * * * //

dimensions      [0 0 0 0 0 0 0];

internalField   nonuniform List<vector> 
900
(
(0.24645 -0.0930169 -8.43041e-18)
(0.417342 -0.0689598 4.19861e-17)
(0.637337 -0.0574848 2.41296e-17)
(0.702905 -0.0448401 6.50916e-18)
(0.825266 -0.040123 4.32885e-17)
(0.84718 -0.0342856 -5.20618e-18)
(0.924814 -0.032357 -1.08825e-17)
(0.924085 -0.0299908 -4.573e-17)
(0.978929 -0.0296405 -3.56614e-17)
(0.963774 -0.0289888 2.04267e-17)
(1.00608 -0.0296091 -2.73773e-17)
(0.980028 -0.0290537 -5.16021e-17)
(1.01355 -0.0295228 1.56027e-17)
(0.985086 -0.0256291 -2.20926e-17)
(0.992835 -0.0334961 1.02554e-17)
(0.285926 -0.281895 1.8309e-16)
(0.445871 -0.202619 3.60842e-17)
(0.660399 -0.163457 -1.58006e-16)
(0.720256 -0.122138 4.43019e-17)
(0.840022 -0.103154 -1.50413e-16)
(0.858893 -0.0818408 3.81712e-17)
(0.935118 -0.0708791 8.43963e-17)
(0.932586 -0.0595212 1.21543e-16)
(0.98678 -0.0521582 4.68227e-17)
(0.97037 -0.0459368 5.67935e-17)
(1.01285 -0.0401267 -7.43062e-18)
(0.985491 -0.0354172 1.36538e-16)
(1.02116 -0.0326517 -8.63703e-17)
(0.987649 -0.0186488 2.00721e-18)
(1.01023 -0.0413952 -4.75987e-17)
(0.363757 -0.458194 -1.8156e-16)
(0.50149 -0.328413 -2.43757e-17)
(0.704423 -0.263301 2.62607e-16)
(0.752562 -0.19522 4.4791e-17)
(0.866571 -0.16287 5.98623e-17)
(0.879156 -0.127175 -7.63084e-18)
(0.952042 -0.107825 -6.34391e-17)
(0.945914 -0.0884858 -1.41873e-16)
(0.998085 -0.0748335 -6.32143e-17)
(0.979564 -0.0644469 -5.22231e-17)
(1.02113 -0.0531622 1.0128e-16)
(0.992247 -0.0460877 -1.19518e-16)
(1.02939 -0.0407267 2.33726e-17)
(0.99014 -0.0170511 5.49123e-17)
(1.02648 -0.0526774 -6.92923e-17)
(0.475895 -0.614476 1.49269e-16)
(0.581492 -0.438836 -3.46647e-16)
(0.768024 -0.350769 -2.05748e-17)
(0.799451 -0.259035 -6.25891e-17)
(0.905287 -0.214735 -1.53271e-16)
(0.908897 -0.166357 7.59476e-17)
(0.976784 -0.139331 -7.94697e-17)
(0.965416 -0.112902 -3.0297e-17)
(1.01393 -0.0932422 2.04729e-16)
(0.992103 -0.0790777 -1.58742e-16)
(1.03075 -0.0622752 -4.18872e-17)
(0.999399 -0.0533786 -5.8187e-17)
(1.03564 -0.0437335 2.51893e-17)
(0.992005 -0.0181344 -9.78898e-18)
(1.03124 -0.0466754 7.92737e-17)
(0.617875 -0.743375 4.2998e-17)
(0.683209 -0.531587 3.14732e-17)
(0.848428 -0.42445 2.26072e-16)
(0.858529 -0.313143 -3.1291e-17)
(0.953685 -0.258839 2.11849e-16)
(0.945926 -0.199849 -1.40928e-17)
(1.00738 -0.166299 2.04071e-16)
(0.989701 -0.133996 9.65533e-17)
(1.03371 -0.10921 -1.54882e-16)
(1.00837 -0.0923218 2.08186e-16)
(1.04353 -0.0710577 -3.37512e-17)
(1.00918 -0.0618899 8.42045e-17)
(1.04588 -0.0499253 -6.74372e-17)
(0.987654 -0.0198793 -1.34541e-17)
(1.05133 -0.0526111 6.19071e-17)
(0.783026 -0.839878 -1.313e-16)
(0.800996 -0.599727 -8.83888e-17)
(0.941734 -0.478425 -3.81023e-17)
(0.927295 -0.35261 -4.09218e-16)
(1.01018 -0.290757 1.61584e-16)
(0.98942 -0.22399 -3.82282e-16)
(1.04332 -0.185415 3.6418e-16)
(1.01846 -0.1488 -3.73564e-16)
(1.0567 -0.11978 3.82814e-16)
(1.02749 -0.100666 -2.60008e-16)
(1.05686 -0.0745135 1.38064e-16)
(1.02115 -0.065962 -5.56414e-17)
(1.05001 -0.0440582 3.55698e-17)
(0.996292 -0.029928 1.91228e-16)
(1.0519 -0.0405425 -1.40179e-16)
(0.964158 -0.899143 5.49183e-16)
(0.931461 -0.643419 -1.0428e-16)
(1.04483 -0.513312 3.94983e-16)
(1.00332 -0.37853 1.46406e-16)
(1.07237 -0.311882 1.73928e-16)
(1.03713 -0.240134 -1.48204e-18)
(1.08244 -0.198291 3.8625e-17)
(1.04964 -0.158851 -1.23752e-16)
(1.08144 -0.127196 2.32737e-16)
(1.04835 -0.106543 -2.18952e-16)
(1.07196 -0.0782204 8.26817e-17)
(1.03563 -0.0683202 -1.54739e-16)
(1.05932 -0.0472715 1.11641e-16)
(1.00472 -0.0228957 4.83684e-17)
(1.05642 -0.0533042 -1.92238e-16)
(1.15318 -0.919374 -7.5381e-16)
(1.06661 -0.65748 -5.64749e-17)
(1.15174 -0.524485 -1.38698e-16)
(1.08232 -0.386748 -3.1408e-16)
(1.13715 -0.318245 -5.24107e-18)
(1.08718 -0.244789 -4.34497e-17)
(1.12373 -0.201432 4.42307e-17)
(1.08298 -0.16085 1.34659e-17)
(1.10829 -0.127749 -1.85457e-16)
(1.0712 -0.106084 2.06757e-16)
(1.08895 -0.0764633 -1.93829e-16)
(1.0506 -0.0651298 3.21677e-16)
(1.06917 -0.0439072 -2.70799e-16)
(1.01018 -0.0177811 2.94905e-16)
(1.05823 -0.0435398 -2.1867e-16)
(1.34156 -0.899074 4.75495e-16)
(1.20343 -0.644572 8.43856e-17)
(1.25991 -0.514564 3.20921e-16)
(1.16259 -0.379917 -3.47797e-18)
(1.2029 -0.312685 1.41545e-16)
(1.13799 -0.240755 7.8171e-18)
(1.16552 -0.198043 -1.726e-16)
(1.11655 -0.158357 1.06373e-16)
(1.13516 -0.125751 1.2052e-17)
(1.09364 -0.104586 -2.86621e-18)
(1.10557 -0.0756462 4.48891e-17)
(1.06412 -0.0638585 -1.66556e-16)
(1.07944 -0.0445284 1.34055e-16)
(1.00993 -0.0133297 -2.57371e-16)
(1.06376 -0.0448186 1.75897e-16)
(1.52126 -0.839919 -1.5029e-16)
(1.3325 -0.60211 -4.13385e-19)
(1.36189 -0.481018 -3.24624e-16)
(1.23827 -0.355382 1.95113e-16)
(1.2648 -0.29237 -2.67647e-16)
(1.18587 -0.225181 1.79084e-16)
(1.20474 -0.184821 -2.60279e-16)
(1.14795 -0.147721 2.20071e-16)
(1.16 -0.116659 -1.72356e-16)
(1.11403 -0.0968117 3.97574e-17)
(1.12024 -0.0691784 -2.18598e-16)
(1.07534 -0.0577875 1.84534e-16)
(1.08778 -0.0396743 2.89696e-17)
(1.00782 -0.00899148 -1.43276e-16)
(1.06851 -0.0367314 2.65229e-16)
(1.68388 -0.74409 3.82979e-17)
(1.4521 -0.534779 4.09469e-17)
(1.4565 -0.427876 3.91267e-17)
(1.3091 -0.316608 4.99703e-17)
(1.32291 -0.260598 9.50267e-17)
(1.23118 -0.201004 -1.68885e-18)
(1.2421 -0.164831 1.21177e-16)
(1.17829 -0.132043 -7.16824e-17)
(1.18447 -0.10395 8.77884e-17)
(1.13463 -0.0866295 6.88855e-17)
(1.1359 -0.0613664 1.79837e-16)
(1.0879 -0.0516148 -1.54777e-16)
(1.09801 -0.0342257 2.04539e-18)
(1.00719 -0.00785085 -2.02558e-17)
(1.07653 -0.0255009 -4.83142e-17)
(1.82286 -0.616308 -7.77986e-18)
(1.55271 -0.443077 1.31998e-17)
(1.5359 -0.355345 -1.38121e-16)
(1.36852 -0.263304 3.52713e-17)
(1.3714 -0.216879 -9.98665e-17)
(1.26896 -0.167628 -1.88649e-17)
(1.27281 -0.137294 2.04575e-17)
(1.203 -0.110483 1.77265e-17)
(1.20363 -0.0866116 -3.68439e-17)
(1.15034 -0.0730232 1.55094e-17)
(1.14657 -0.051083 -8.62477e-17)
(1.09631 -0.0445044 5.11412e-17)
(1.10218 -0.0271432 -5.34382e-18)
(1.00926 -0.0107344 -2.22185e-17)
(1.07242 -0.0121323 4.78391e-17)
(1.9314 -0.462092 -4.94725e-17)
(1.63441 -0.332894 8.64584e-18)
(1.60051 -0.268039 6.95385e-17)
(1.41763 -0.198889 -1.29113e-17)
(1.41167 -0.163959 4.97279e-17)
(1.30081 -0.126892 5.5743e-18)
(1.29892 -0.103576 -7.62593e-17)
(1.22453 -0.0836328 5.78885e-18)
(1.22065 -0.0647973 -2.87121e-17)
(1.1651 -0.0553802 1.89085e-18)
(1.15717 -0.0374348 -2.23586e-17)
(1.10624 -0.0349145 1.66141e-17)
(1.10823 -0.0176592 -6.80359e-18)
(1.01327 -0.0151773 8.09829e-18)
(1.07865 0.00461991 6.11162e-17)
(2.00555 -0.28832 4.80137e-17)
(1.68911 -0.207659 1.4897e-17)
(1.64357 -0.168873 -4.65125e-17)
(1.45055 -0.125564 -1.15436e-18)
(1.43847 -0.103883 -2.44656e-17)
(1.32221 -0.0806825 -1.00988e-18)
(1.31614 -0.0655759 1.76901e-17)
(1.23892 -0.0533989 2.58056e-17)
(1.23137 -0.0405148 -7.51052e-19)
(1.17461 -0.0354233 1.77957e-17)
(1.16219 -0.0221726 -2.14516e-18)
(1.11309 -0.0225908 -5.73926e-19)
(1.10376 -0.00662787 1.71459e-17)
(1.03008 -0.0142565 -9.39522e-18)
(1.06199 0.0170835 -1.08196e-18)
(2.04136 -0.102823 -1.88383e-17)
(1.71878 -0.0736251 5.94976e-18)
(1.66694 -0.0624279 4.57034e-18)
(1.46934 -0.046361 -2.01034e-18)
(1.45387 -0.038751 8.17894e-18)
(1.33506 -0.030089 -3.42291e-18)
(1.32659 -0.0238615 -8.82552e-18)
(1.24823 -0.0197111 -3.1359e-18)
(1.23863 -0.013593 -6.88765e-18)
(1.18195 -0.0127419 -2.21708e-18)
(1.16749 -0.0055847 -4.05229e-18)
(1.12022 -0.00759645 2.00575e-18)
(1.10717 0.00253935 5.25474e-18)
(1.03951 -0.00498998 -2.2808e-18)
(1.05697 0.0190163 6.51893e-18)
(2.03804 0.0865394 9.99267e-18)
(1.71798 0.0636821 2.2865e-18)
(1.66605 0.0464385 -1.6235e-17)
(1.46985 0.0346982 -4.37399e-18)
(1.45416 0.0276523 -4.82597e-18)
(1.33614 0.0214378 -2.55757e-18)
(1.32717 0.0183505 -1.09782e-18)
(1.24942 0.0143867 2.00798e-18)
(1.23903 0.0134224 -2.63328e-18)
(1.18308 0.0101277 -2.8497e-18)
(1.16733 0.010924 -3.43345e-18)
(1.12212 0.00701194 -4.14484e-18)
(1.10387 0.011587 3.65156e-18)
(1.05089 0.00026653 -1.81547e-18)
(1.03522 0.0248878 3.67031e-18)
(1.99521 0.271067 -4.34835e-17)
(1.69047 0.198422 4.64367e-18)
(1.64404 0.153686 2.273e-17)
(1.45484 0.115203 -4.75613e-18)
(1.44185 0.0939825 2.63127e-17)
(1.32753 0.0735459 -7.66568e-18)
(1.32009 0.0613337 -1.52241e-17)
(1.24472 0.0497398 -1.48692e-17)
(1.23536 0.0415417 -1.08948e-17)
(1.18142 0.0344275 -4.6499e-18)
(1.16632 0.0281542 -3.14148e-18)
(1.12414 0.0226252 -1.30932e-17)
(1.10295 0.0196679 7.61435e-18)
(1.06187 0.00713279 -2.53703e-18)
(1.02698 0.0239528 6.374e-18)
(1.91531 0.443287 3.76757e-17)
(1.63415 0.324259 4.1404e-18)
(1.59917 0.25364 -8.40983e-17)
(1.42256 0.190214 -6.75062e-18)
(1.41541 0.155429 -2.50998e-17)
(1.30785 0.1216 -1.72791e-19)
(1.3039 0.100398 8.28969e-18)
(1.23231 0.0814607 3.31237e-17)
(1.2252 0.0658437 1.15444e-17)
(1.17333 0.0549154 1.2511e-17)
(1.15945 0.0411511 -2.29151e-17)
(1.11976 0.0344633 3.38819e-17)
(1.09494 0.0223491 -1.05613e-17)
(1.07013 0.0143036 -1.47608e-17)
(1.01211 0.0120438 7.5754e-18)
(1.80151 0.595197 -5.0035e-17)
(1.55421 0.436431 1.36383e-16)
(1.53547 0.343163 -1.76882e-18)
(1.37606 0.258065 4.43225e-17)
(1.37717 0.211482 4.79937e-17)
(1.27869 0.166211 -1.79347e-17)
(1.27982 0.137391 1.49605e-17)
(1.21321 0.112731 1.31005e-17)
(1.20983 0.0911966 -9.00781e-17)
(1.16076 0.0783078 6.06647e-17)
(1.15003 0.0586463 1.63703e-17)
(1.11292 0.0531038 1.22462e-17)
(1.08948 0.0323325 -1.54541e-17)
(1.07035 0.0287474 -2.11827e-20)
(1.02018 0.0173392 -5.12954e-17)
(1.65909 0.720854 -4.92858e-17)
(1.45183 0.529219 -2.10433e-17)
(1.45407 0.417161 -1.31045e-16)
(1.31619 0.314271 2.00021e-17)
(1.3283 0.257739 -1.25998e-16)
(1.24148 0.203006 2.61139e-17)
(1.24976 0.167528 -1.31811e-16)
(1.18965 0.137969 -3.40592e-17)
(1.19176 0.110918 6.33954e-17)
(1.14558 0.0961839 -1.00951e-16)
(1.13916 0.0706053 7.88047e-18)
(1.10192 0.0675423 -4.43156e-17)
(1.07889 0.0340279 2.92752e-17)
(1.06764 0.0544618 -6.01707e-18)
(1.00387 -0.0114579 -3.3927e-17)
(1.49405 0.814446 1.2905e-16)
(1.33331 0.59948 4.85849e-17)
(1.35969 0.473471 4.20314e-17)
(1.24623 0.357469 2.81426e-16)
(1.27087 0.293423 -1.06074e-16)
(1.19707 0.231597 2.72774e-16)
(1.2135 0.191015 -2.57387e-16)
(1.16057 0.157751 2.81314e-16)
(1.16945 0.12673 -2.71669e-16)
(1.12715 0.110535 1.94704e-16)
(1.12885 0.0821323 -9.82133e-17)
(1.0908 0.0782419 4.56053e-17)
(1.08586 0.0460721 -1.86176e-17)
(1.0453 0.055091 -1.46837e-16)
(1.02111 -0.00660461 1.1951e-16)
(1.31376 0.872419 -4.95983e-16)
(1.20221 0.643255 6.97821e-17)
(1.25535 0.508793 -3.17096e-16)
(1.16851 0.385045 -1.49598e-16)
(1.20723 0.31644 -1.23545e-16)
(1.1478 0.250604 -1.38431e-17)
(1.17342 0.206968 2.84088e-18)
(1.12844 0.171746 9.34212e-17)
(1.1445 0.138235 -1.77514e-16)
(1.10633 0.12082 1.77737e-16)
(1.11416 0.0897854 -5.43261e-17)
(1.07863 0.083591 1.38246e-16)
(1.07484 0.0482392 -8.69619e-17)
(1.05107 0.0541153 -1.39279e-17)
(0.99265 -0.00976862 1.67345e-16)
(1.12576 0.892172 7.84417e-16)
(1.06564 0.659651 4.69361e-17)
(1.14661 0.522379 1.83002e-16)
(1.08727 0.396214 2.95479e-16)
(1.14067 0.325777 4.0961e-17)
(1.09613 0.258463 1.87426e-17)
(1.13155 0.213188 8.3132e-18)
(1.09509 0.177027 -5.87004e-17)
(1.11917 0.141774 2.46444e-16)
(1.0862 0.123756 -2.54961e-16)
(1.10148 0.0909062 2.38708e-16)
(1.06979 0.0848996 -3.63114e-16)
(1.07192 0.0475471 3.11309e-16)
(1.0508 0.0559376 -2.81932e-16)
(1.00589 -0.00692209 2.16027e-16)
(0.938384 0.873265 -5.46853e-16)
(0.928179 0.646866 -1.17371e-16)
(1.03706 0.512832 -3.80104e-16)
(1.00488 0.389989 -1.03265e-17)
(1.07292 0.320978 -1.66398e-16)
(1.04287 0.255519 -3.50612e-17)
(1.08779 0.210886 2.54794e-16)
(1.05899 0.175919 -1.7031e-16)
(1.09033 0.140799 5.91067e-18)
(1.06105 0.123737 -5.00979e-18)
(1.08262 0.0903875 -6.52582e-17)
(1.05314 0.0865339 2.34662e-16)
(1.05943 0.0452676 -1.97931e-16)
(1.04754 0.0663517 3.93541e-16)
(0.997751 -0.0102467 -2.73127e-16)
(0.759443 0.816422 2.0162e-16)
(0.797046 0.606757 -4.50109e-18)
(0.93253 0.481654 5.37311e-16)
(0.926151 0.367455 -3.36048e-16)
(1.00833 0.302869 4.4198e-16)
(0.992182 0.242092 -2.99707e-16)
(1.04659 0.200123 4.19304e-16)
(1.02541 0.168001 -3.58956e-16)
(1.06447 0.134734 2.81286e-16)
(1.03917 0.119852 -8.1712e-17)
(1.06804 0.0877314 3.46928e-16)
(1.04044 0.0872052 -3.08646e-16)
(1.05371 0.0435243 -4.9943e-17)
(1.04327 0.0779675 2.19784e-16)
(1.00543 -0.011942 -4.34554e-16)
(0.596687 0.72458 -2.40985e-17)
(0.676848 0.539711 -6.86896e-17)
(0.83665 0.428983 -7.85015e-17)
(0.853537 0.328421 -6.87676e-17)
(0.948596 0.271074 -2.19347e-16)
(0.944787 0.217645 3.66775e-17)
(1.00777 0.180092 -2.80088e-16)
(0.992931 0.152071 1.81887e-16)
(1.03898 0.121821 -1.93154e-16)
(1.0163 0.109425 -1.2739e-16)
(1.05215 0.0793619 -3.84521e-16)
(1.02456 0.0820416 3.23177e-16)
(1.04682 0.0368622 -3.79344e-18)
(1.03248 0.0859204 -5.69381e-18)
(1.01669 -0.0194619 1.44603e-16)
(0.457063 0.601479 -2.0609e-17)
(0.573682 0.450096 -2.49506e-17)
(0.754186 0.35856 3.33756e-16)
(0.79085 0.276049 -4.96877e-17)
(0.89692 0.228669 2.2975e-16)
(0.903549 0.185064 7.80552e-17)
(0.973917 0.154068 -6.30767e-17)
(0.964247 0.131707 -3.65012e-17)
(1.01638 0.106702 1.1275e-16)
(0.99531 0.0978505 -2.15118e-17)
(1.03756 0.0725773 2.65447e-16)
(1.00811 0.0779982 -1.63371e-16)
(1.04117 0.0367763 7.34435e-19)
(1.01476 0.0877756 3.24624e-17)
(1.03082 -0.00822142 -1.57843e-16)
(0.346284 0.452903 2.08941e-16)
(0.491444 0.340541 1.13479e-17)
(0.688521 0.272134 -2.98018e-16)
(0.74082 0.211182 7.98818e-17)
(0.855791 0.175798 -2.05789e-16)
(0.870678 0.143812 -2.21936e-17)
(0.947162 0.120692 2.83517e-16)
(0.941566 0.104658 -2.23244e-17)
(0.998989 0.0859125 8.49731e-17)
(0.97893 0.0801835 1.04929e-17)
(1.027 0.0607201 5.69331e-17)
(0.994329 0.0669464 -5.11451e-17)
(1.03844 0.0312213 1.13278e-17)
(0.994014 0.0848821 -3.39069e-17)
(1.04938 -0.0140943 -2.02863e-16)
(0.269366 0.285023 -2.91596e-16)
(0.434046 0.216921 -5.96415e-17)
(0.642324 0.174678 1.85105e-16)
(0.705239 0.137969 5.21304e-18)
(0.826194 0.116324 1.02932e-16)
(0.846628 0.0973953 -1.22889e-17)
(0.927242 0.0835182 -1.36252e-16)
(0.924336 0.0745245 -1.28669e-16)
(0.98547 0.0636303 -2.99681e-17)
(0.966254 0.0612282 -8.47868e-17)
(1.01885 0.0507867 -2.70511e-17)
(0.984828 0.0548965 3.03526e-17)
(1.03782 0.0387692 -7.81501e-17)
(0.981652 0.0600058 5.80654e-17)
(1.06049 0.0151123 7.43199e-17)
(0.22905 0.105349 8.63088e-17)
(0.40387 0.0839743 -4.65643e-17)
(0.618079 0.0696881 -2.4578e-17)
(0.686498 0.0587593 -1.47495e-17)
(0.810672 0.0517631 -4.39909e-17)
(0.833964 0.0466406 8.5484e-18)
(0.91674 0.042553 3.20275e-17)
(0.915179 0.0407585 4.48494e-17)
(0.978085 0.0378072 4.01962e-17)
(0.959346 0.0381549 3.10011e-17)
(1.01371 0.0352769 3.0487e-17)
(0.980278 0.0378607 -2.05475e-17)
(1.03451 0.0314216 8.25391e-18)
(0.982561 0.045344 2.47987e-17)
(1.05439 0.0248872 -2.73704e-17)
(0.227542 -0.0784395 9.02619e-18)
(0.402183 -0.0522152 -4.36085e-17)
(0.616109 -0.0378488 -2.65223e-17)
(0.684322 -0.0224344 -6.63733e-18)
(0.808309 -0.0143368 -4.72419e-17)
(0.831416 -0.00527048 6.98316e-18)
(0.914078 0.000851633 1.31327e-17)
(0.912382 0.00662239 5.29053e-17)
(0.975303 0.012214 4.33569e-17)
(0.956511 0.0159561 -2.38333e-17)
(1.01102 0.0217829 3.0551e-17)
(0.977385 0.0234666 6.72604e-17)
(1.03214 0.0309295 -2.28329e-17)
(0.977775 0.0260466 2.78397e-17)
(1.05444 0.0596015 -1.05504e-17)
(0.264248 -0.258453 -1.8752e-16)
(0.429102 -0.185386 -3.71242e-17)
(0.637292 -0.143011 1.69137e-16)
(0.700059 -0.101921 -4.88303e-17)
(0.821032 -0.0791547 1.63185e-16)
(0.841251 -0.0564031 -4.40236e-17)
(0.921805 -0.0405498 -9.43631e-17)
(0.918625 -0.0277822 -1.41728e-16)
(0.979571 -0.0143881 -5.56652e-17)
(0.960068 -0.00812074 -7.02259e-17)
(1.01208 0.00533549 1.62201e-17)
(0.978071 0.0051474 -1.74382e-16)
(1.02911 0.0245498 1.09491e-16)
(0.975382 0.00629863 -9.40881e-18)
(1.04348 0.0726252 6.61388e-17)
(0.338203 -0.426702 1.8422e-16)
(0.483434 -0.310526 2.41357e-17)
(0.679863 -0.241935 -2.77296e-16)
(0.731613 -0.176833 -4.8333e-17)
(0.846148 -0.140368 -6.64413e-17)
(0.860293 -0.104667 1.12002e-17)
(0.936178 -0.0796251 6.9305e-17)
(0.929538 -0.0598011 1.6429e-16)
(0.9861 -0.0386478 7.26039e-17)
(0.964655 -0.0287783 6.76593e-17)
(1.01158 -0.00698027 -1.25223e-16)
(0.977243 -0.00762197 1.48373e-16)
(1.02046 0.0260658 -2.97718e-17)
(0.974392 -0.0109234 -6.9752e-17)
(1.01724 0.0942032 8.50979e-17)
(0.445665 -0.57628 -1.5446e-16)
(0.562542 -0.42073 3.59619e-16)
(0.742516 -0.328863 2.5318e-17)
(0.77871 -0.242417 6.57039e-17)
(0.884522 -0.193769 1.67142e-16)
(0.89049 -0.146539 -8.40323e-17)
(0.960581 -0.113361 8.21204e-17)
(0.950094 -0.0872312 3.63602e-17)
(1.00202 -0.0594278 -2.40984e-16)
(0.979845 -0.046548 1.82651e-16)
(1.02178 -0.0182455 4.30025e-17)
(0.98971 -0.0193214 6.62538e-17)
(1.02394 0.0223308 -3.03632e-17)
(0.984492 -0.0179924 1.76464e-17)
(1.01519 0.0817062 -1.00252e-16)
(0.582455 -0.700213 -4.45327e-17)
(0.663488 -0.513035 -3.35732e-17)
(0.8223 -0.401886 -2.38879e-16)
(0.838521 -0.297826 3.28912e-17)
(0.932968 -0.239396 -2.28941e-16)
(0.928165 -0.182811 1.79744e-17)
(0.990438 -0.143489 -2.19348e-16)
(0.974278 -0.112305 -1.09322e-16)
(1.01952 -0.0796592 1.80686e-16)
(0.995168 -0.0633997 -2.40884e-16)
(1.02966 -0.0296317 4.12497e-17)
(1.00095 -0.0270361 -1.01464e-16)
(1.01824 0.0244427 7.84939e-17)
(1.01187 -0.0219506 1.27542e-17)
(0.965194 0.102401 -7.01397e-17)
(0.742515 -0.793633 1.30985e-16)
(0.780849 -0.58119 9.37184e-17)
(0.915223 -0.455571 3.55725e-17)
(0.908104 -0.33821 4.2927e-16)
(0.989412 -0.272398 -1.73292e-16)
(0.97194 -0.208687 4.12771e-16)
(1.02526 -0.164762 -3.9238e-16)
(1.00225 -0.129741 4.15885e-16)
(1.04041 -0.0941556 -4.28232e-16)
(1.01295 -0.0760803 2.98673e-16)
(1.04203 -0.0422831 -1.57065e-16)
(1.01134 -0.0351427 6.6679e-17)
(1.02955 0.00106649 -3.88529e-17)
(1.00509 0.00117926 -2.18737e-16)
(0.962957 0.074444 1.57212e-16)
(0.918914 -0.851948 -5.53683e-16)
(0.910819 -0.624472 1.0737e-16)
(1.01826 -0.4897 -4.0539e-16)
(0.98543 -0.363999 -1.48825e-16)
(1.05245 -0.293752 -1.82817e-16)
(1.02119 -0.225638 1.95736e-18)
(1.06503 -0.179127 -4.47279e-17)
(1.03458 -0.141776 1.31578e-16)
(1.0651 -0.104276 -2.44088e-16)
(1.03322 -0.0849517 2.31443e-16)
(1.05474 -0.0487775 -9.01452e-17)
(1.01909 -0.0418771 1.63147e-16)
(1.02975 0.00253865 -1.10924e-16)
(0.997311 -0.0159752 -5.92898e-17)
(0.949954 0.109985 2.24401e-16)
(1.10441 -0.872895 7.5551e-16)
(1.04606 -0.638867 5.75289e-17)
(1.12534 -0.500947 1.36181e-16)
(1.06526 -0.372423 3.22951e-16)
(1.1171 -0.30099 5.45356e-19)
(1.07091 -0.23169 5.10362e-17)
(1.10422 -0.184956 -5.12608e-17)
(1.06522 -0.147484 -7.86782e-18)
(1.0868 -0.110388 1.84149e-16)
(1.05004 -0.092107 -2.1168e-16)
(1.06301 -0.0564263 1.9722e-16)
(1.02529 -0.0520632 -3.32491e-16)
(1.02825 -0.0070238 2.85842e-16)
(0.994651 -0.0249899 -3.09266e-16)
(0.946043 0.0858415 2.3248e-16)
(1.29063 -0.8552 -4.77391e-16)
(1.18242 -0.625557 -8.29598e-17)
(1.23346 -0.490179 -3.18514e-16)
(1.14597 -0.364076 1.00041e-18)
(1.18276 -0.294247 -1.39646e-16)
(1.12173 -0.226127 -5.70419e-18)
(1.14487 -0.180581 1.67944e-16)
(1.09775 -0.143436 -1.01114e-16)
(1.11082 -0.107136 -1.67498e-17)
(1.06999 -0.0886786 1.12605e-17)
(1.07425 -0.0532247 -4.0518e-17)
(1.03646 -0.0496255 1.64879e-16)
(1.02726 -0.00255034 -1.37783e-16)
(1.00556 -0.0302167 2.5695e-16)
(0.934157 0.091328 -1.84217e-16)
(1.47001 -0.799691 1.49077e-16)
(1.31211 -0.583634 2.54053e-18)
(1.33627 -0.456891 3.11656e-16)
(1.22231 -0.338926 -1.8363e-16)
(1.24483 -0.274119 2.49262e-16)
(1.16961 -0.210592 -1.64305e-16)
(1.18319 -0.168881 2.32885e-16)
(1.12847 -0.134361 -1.9822e-16)
(1.13371 -0.10156 1.50394e-16)
(1.08962 -0.0846324 -3.65161e-17)
(1.08599 -0.0526253 1.86548e-16)
(1.04944 -0.0500589 -1.6492e-16)
(1.02873 -0.00637309 -2.05744e-17)
(1.01946 -0.0342962 1.20051e-16)
(0.924888 0.0741056 -2.28634e-16)
(1.63443 -0.708444 -3.96582e-17)
(1.43128 -0.516204 -3.88518e-17)
(1.43075 -0.403389 -3.54392e-17)
(1.29218 -0.298518 -4.90245e-17)
(1.30154 -0.241341 -8.14272e-17)
(1.21293 -0.184714 -2.633e-18)
(1.2176 -0.148378 -1.03369e-16)
(1.15541 -0.117211 5.64072e-17)
(1.15306 -0.0890822 -7.06723e-17)
(1.10529 -0.0731844 -6.33575e-17)
(1.09365 -0.0462262 -1.37381e-16)
(1.05777 -0.0428636 1.23867e-16)
(1.02559 -0.00703066 1.64729e-19)
(1.03004 -0.0292854 2.33118e-17)
(0.908281 0.0517053 2.61706e-17)
(1.77711 -0.585558 8.36722e-18)
(1.53282 -0.425178 -1.1526e-17)
(1.5114 -0.331239 1.23512e-16)
(1.35154 -0.24421 -3.30525e-17)
(1.35003 -0.197279 8.75951e-17)
(1.25015 -0.150158 1.26466e-17)
(1.24789 -0.120918 -1.09453e-17)
(1.17974 -0.0943883 -1.09171e-17)
(1.17207 -0.0722946 2.42893e-17)
(1.12182 -0.0575811 -5.76518e-18)
(1.10518 -0.0372534 5.25479e-17)
(1.06936 -0.0313445 -3.00645e-17)
(1.03231 -0.00782587 2.94384e-18)
(1.0337 -0.0146661 1.3095e-17)
(0.917078 0.0245421 -3.00692e-17)
(1.89149 -0.435882 4.42642e-17)
(1.61438 -0.315551 -1.05525e-17)
(1.57615 -0.244586 -5.40044e-17)
(1.39872 -0.179414 6.92844e-18)
(1.38843 -0.144864 -3.66893e-17)
(1.27898 -0.109441 -1.95967e-18)
(1.27116 -0.0888103 4.5608e-17)
(1.19753 -0.0683083 -5.38205e-18)
(1.18562 -0.0537212 1.64382e-17)
(1.13209 -0.0409578 -2.44502e-18)
(1.11155 -0.0288479 1.21938e-17)
(1.0731 -0.0194007 -8.19564e-18)
(1.03293 -0.0106402 3.85999e-18)
(1.03217 0.00453032 -7.28348e-18)
(0.904044 -0.00910525 -9.29937e-18)
(1.9729 -0.26628 -4.22739e-17)
(1.67002 -0.1913 -1.28135e-17)
(1.6205 -0.146217 3.66216e-17)
(1.43052 -0.105879 1.29659e-18)
(1.41456 -0.08509 1.72581e-17)
(1.29842 -0.0629766 2.89031e-18)
(1.28737 -0.051714 -2.57378e-18)
(1.20981 -0.0382617 -8.93718e-18)
(1.19616 -0.0317297 4.52017e-18)
(1.14001 -0.0221677 -3.94097e-18)
(1.12016 -0.0189723 8.67288e-18)
(1.07553 -0.00914555 -8.73083e-18)
(1.05112 -0.014431 -1.57662e-18)
(1.00247 0.0133983 -1.86087e-18)
(0.938142 -0.0335995 -1.52727e-17)
(2.01729 -0.0835567 1.62351e-17)
(1.70013 -0.0586225 -4.41446e-18)
(1.64462 -0.0415549 -2.63067e-18)
(1.44717 -0.0282978 2.55359e-18)
(1.42825 -0.0223145 -5.39185e-18)
(1.30789 -0.0148195 1.84e-18)
(1.29534 -0.0133804 3.44262e-18)
(1.21487 -0.00792718 -2.24683e-18)
(1.2004 -0.00931128 1.20974e-18)
(1.14132 -0.00397217 -2.72221e-18)
(1.12099 -0.00833551 -2.16768e-18)
(1.07118 -0.00148636 3.9562e-18)
(1.05002 -0.0127517 -7.3925e-18)
(0.987176 0.00543755 -1.71768e-18)
(0.947576 -0.0358367 -8.77557e-19)
(2.02314 0.103848 -1.05804e-17)
(1.70018 0.0771513 -6.92683e-19)
(1.64498 0.0657977 1.8576e-17)
(1.446 0.0512877 4.42386e-18)
(1.42753 0.0424431 8.72727e-18)
(1.30642 0.0349275 6.71492e-19)
(1.29472 0.0266171 -1.33619e-18)
(1.21351 0.0236242 -9.48702e-18)
(1.2004 0.0143506 -5.30859e-18)
(1.14017 0.0149458 5.90635e-18)
(1.12211 0.00306342 1.6952e-20)
(1.06856 0.00744324 -1.19103e-17)
(1.0572 -0.0107604 3.60661e-18)
(0.966402 0.00577019 -3.80576e-18)
(0.990889 -0.0469091 -3.37262e-18)
(1.98948 0.288241 4.79516e-17)
(1.67395 0.209879 -3.60821e-18)
(1.62462 0.170287 -3.39467e-17)
(1.42971 0.127988 9.20906e-18)
(1.41446 0.10443 -3.91682e-17)
(1.2953 0.0816959 1.35016e-17)
(1.286 0.063924 2.52526e-17)
(1.20516 0.0521594 3.51604e-17)
(1.19418 0.0357815 1.97988e-17)
(1.13268 0.0313696 1.82406e-17)
(1.1171 0.0137139 -6.07634e-18)
(1.05907 0.0152893 5.15112e-17)
(1.05626 -0.00597627 -3.14726e-17)
(0.945697 0.00419105 9.71744e-18)
(1.00723 -0.0437016 -2.54202e-17)
(1.91841 0.461038 -4.03277e-17)
(1.6184 0.333492 -3.8916e-18)
(1.58093 0.267833 9.8803e-17)
(1.39595 0.199638 1.02063e-17)
(1.387 0.162824 3.16222e-17)
(1.27329 0.126185 -3.66562e-18)
(1.26852 0.100326 -1.42814e-17)
(1.19062 0.0808358 -5.6001e-17)
(1.18391 0.0589296 -2.11797e-17)
(1.12388 0.0503557 -2.83775e-17)
(1.11371 0.0288409 4.76382e-17)
(1.05376 0.0272993 -6.32313e-17)
(1.06424 0.00688933 1.72257e-17)
(0.928331 0.00159778 2.98939e-17)
(1.03576 -0.02181 -2.34885e-17)
(1.81214 0.614889 5.52206e-17)
(1.54066 0.443377 -1.49459e-16)
(1.51996 0.354158 -2.98929e-18)
(1.35012 0.262378 -4.74763e-17)
(1.35003 0.213433 -6.20059e-17)
(1.24452 0.163624 2.59153e-17)
(1.24585 0.129959 -1.78444e-17)
(1.17247 0.102132 -1.96776e-17)
(1.17092 0.0741293 1.26734e-16)
(1.11295 0.0592551 -8.54465e-17)
(1.108 0.0329463 -1.77028e-17)
(1.0468 0.0246811 -2.07772e-17)
(1.06451 0.00582735 2.04456e-17)
(0.923653 -0.0140922 -8.25024e-18)
(1.02257 -0.0299381 7.2439e-17)
(1.67616 0.742818 5.07611e-17)
(1.43922 0.533283 2.30594e-17)
(1.43995 0.424717 1.43896e-16)
(1.28987 0.313397 -2.16784e-17)
(1.3007 0.254719 1.43272e-16)
(1.20576 0.194287 -3.01235e-17)
(1.21399 0.154768 1.47197e-16)
(1.14641 0.120591 4.6945e-17)
(1.15034 0.0886212 -8.9804e-17)
(1.09645 0.0691847 1.34271e-16)
(1.0978 0.0407415 -1.57014e-17)
(1.04131 0.0244666 6.18283e-17)
(1.07068 0.0167179 -4.12498e-17)
(0.922741 -0.0508089 7.31237e-18)
(1.05203 0.02195 4.0753e-17)
(1.51561 0.838853 -1.2878e-16)
(1.32355 0.601401 -5.4029e-17)
(1.34898 0.47813 -3.9553e-17)
(1.22244 0.351913 -3.01746e-16)
(1.24602 0.286016 1.17932e-16)
(1.16377 0.217476 -3.03628e-16)
(1.18015 0.173696 2.86316e-16)
(1.1196 0.134655 -3.24343e-16)
(1.12912 0.0993227 3.18163e-16)
(1.07885 0.076432 -2.34236e-16)
(1.08201 0.0434188 1.17853e-16)
(1.03207 0.0256878 -5.71323e-17)
(1.04369 0.00682506 2.21852e-17)
(0.955614 -0.0444799 1.7451e-16)
(1.02169 0.0146565 -1.35368e-16)
(1.33819 0.899175 5.00472e-16)
(1.19403 0.642041 -7.2942e-17)
(1.24699 0.509436 3.27478e-16)
(1.14683 0.373617 1.52052e-16)
(1.18443 0.30306 1.32506e-16)
(1.11639 0.229186 1.35176e-17)
(1.14158 0.182542 3.57416e-18)
(1.08889 0.14025 -1.01046e-16)
(1.10524 0.102847 1.89277e-16)
(1.05934 0.0787689 -1.90397e-16)
(1.06954 0.044421 6.19693e-17)
(1.02097 0.0294645 -1.46974e-16)
(1.04615 0.010466 8.64619e-17)
(0.938033 -0.036382 2.50096e-17)
(1.07177 0.0212485 -2.01922e-16)
(1.15145 0.920093 -7.86222e-16)
(1.06044 0.656444 -4.80628e-17)
(1.14174 0.520475 -1.80493e-16)
(1.06925 0.381157 -3.04464e-16)
(1.12119 0.309394 -3.62016e-17)
(1.06778 0.233791 -2.63506e-17)
(1.10174 0.187082 -9.72064e-19)
(1.05667 0.144091 5.30935e-17)
(1.07926 0.107374 -2.45045e-16)
(1.03624 0.0832164 2.60223e-16)
(1.05204 0.0497777 -2.42336e-16)
(1.00266 0.0341854 3.74476e-16)
(1.03374 0.0160513 -3.26634e-16)
(0.930521 -0.0342918 2.97065e-16)
(1.04823 0.0169794 -2.30274e-16)
(0.96373 0.901464 5.48639e-16)
(0.925375 0.640835 1.15952e-16)
(1.03565 0.507309 3.77692e-16)
(0.991591 0.370391 1.28115e-17)
(1.0584 0.300165 1.64396e-16)
(1.02056 0.225861 3.29492e-17)
(1.06412 0.180541 -2.5017e-16)
(1.0282 0.138167 1.64829e-16)
(1.05856 0.103101 -1.31384e-18)
(1.02102 0.0790447 -3.73647e-18)
(1.04463 0.0481395 6.09931e-17)
(0.997227 0.0303037 -2.3326e-16)
(1.0377 0.0198272 2.03138e-16)
(0.927585 -0.0487828 -3.93847e-16)
(1.06291 0.0233142 2.84496e-16)
(0.783648 0.842988 -2.00479e-16)
(0.797196 0.598789 2.37543e-18)
(0.934666 0.473649 -5.24175e-16)
(0.917648 0.345202 3.24424e-16)
(0.998143 0.279593 -4.23331e-16)
(0.9748 0.209694 2.84525e-16)
(1.02676 0.167614 -3.91571e-16)
(0.998942 0.127315 3.36559e-16)
(1.03549 0.0950663 -2.58749e-16)
(1.00233 0.0711453 7.81205e-17)
(1.03145 0.0435052 -3.13996e-16)
(0.986189 0.0222374 2.88416e-16)
(1.03078 0.0200055 4.12762e-17)
(0.926107 -0.0667013 -1.95979e-16)
(1.0503 0.0272057 3.96748e-16)
(0.618872 0.747933 2.54433e-17)
(0.679859 0.529544 6.6564e-17)
(0.842685 0.418192 7.4775e-17)
(0.85089 0.303882 6.78649e-17)
(0.944313 0.245634 2.05646e-16)
(0.934825 0.183422 -3.23247e-17)
(0.994823 0.146455 2.61915e-16)
(0.975318 0.110494 -1.66294e-16)
(1.01778 0.0828848 1.7564e-16)
(0.990082 0.0610756 1.21749e-16)
(1.02387 0.0388632 3.40664e-16)
(0.983195 0.015984 -2.91098e-16)
(1.0276 0.0237818 1.24476e-18)
(0.936079 -0.0804143 2.22037e-18)
(1.03328 0.0411659 -1.21919e-16)
(0.477271 0.619712 1.99816e-17)
(0.579524 0.438199 2.31883e-17)
(0.763732 0.345487 -3.19136e-16)
(0.793509 0.250311 4.74587e-17)
(0.897748 0.201704 -2.17389e-16)
(0.900172 0.149563 -7.17515e-17)
(0.966949 0.118619 5.3619e-17)
(0.954928 0.087882 2.95446e-17)
(1.00249 0.0646883 -9.95851e-17)
(0.980504 0.0448793 1.18321e-17)
(1.01803 0.0266514 -2.30281e-16)
(0.984297 0.00341517 1.41465e-16)
(1.02419 0.0149812 1.63562e-18)
(0.95772 -0.0854002 -2.33363e-17)
(1.0121 0.0264487 1.40386e-16)
(0.364703 0.464434 -2.03759e-16)
(0.50004 0.327095 -9.50168e-18)
(0.701629 0.257015 2.82382e-16)
(0.748777 0.185227 -7.39025e-17)
(0.861789 0.148256 1.92692e-16)
(0.873704 0.108668 1.84612e-17)
(0.945675 0.0849954 -2.52503e-16)
(0.93941 0.06133 2.17867e-17)
(0.990368 0.0435725 -7.24943e-17)
(0.972874 0.0280203 -1.01976e-17)
(1.01231 0.0146831 -4.66406e-17)
(0.986213 -0.00467647 4.2174e-17)
(1.01917 0.010662 -8.53676e-18)
(0.984717 -0.0844656 3.32451e-17)
(0.986611 0.0403319 1.47769e-16)
(0.286942 0.288504 2.85817e-16)
(0.445146 0.20211 5.74992e-17)
(0.658483 0.157748 -1.75222e-16)
(0.717582 0.112558 -5.43705e-18)
(0.836516 0.0887493 -9.57884e-17)
(0.855022 0.0634632 1.02168e-17)
(0.930596 0.0478314 1.20787e-16)
(0.928336 0.0323021 1.11434e-16)
(0.981721 0.0198576 2.60893e-17)
(0.966918 0.00918152 7.05273e-17)
(1.0075 -0.00220026 2.02757e-17)
(0.984952 -0.0132812 -2.07311e-17)
(1.0127 -0.014264 6.23549e-17)
(0.997563 -0.0511277 -4.58265e-17)
(0.973897 0.00420673 -5.73436e-17)
(0.246634 0.0998896 -8.36895e-17)
(0.417201 0.0682593 4.49911e-17)
(0.637071 0.0514116 2.25855e-17)
(0.702576 0.0347502 1.41271e-17)
(0.824899 0.0249734 4.11099e-17)
(0.846897 0.0150097 -7.03714e-18)
(0.924582 0.00797152 -2.6612e-17)
(0.924262 0.00127749 -3.94246e-17)
(0.979222 -0.00492347 -3.44362e-17)