/*--------------------------------*- C++ -*----------------------------------*\
| =========                 |                                                 |
| \\      /  F ield         | foam-extend: Open Source CFD                    |
|  \\    /   O peration     | Version:  3.0                                   |
|   \\  /    A nd           | Web:         http://www.extend-project.de       |
|    \\/     M anipulation  |                                                 |
\*---------------------------------------------------------------------------*/
FoamFile
{
    version     2.0;
    format      ascii;
    class       volSymmTensorField;
    location    "59";
    object      sigma;
}
// * * * * * * * * * * * * * * * * * * * * * * * * * * * * * * * * * * * * * //

dimensions      [0 0 0 0 0 0 0];

internalField   nonuniform List<symmTensor> 
7680
(
(-0.179968 -0.00330038 -1.66329e-20 0.179945 -8.67164e-21 2.27743e-05)
(-0.179254 -0.00370648 5.40244e-20 0.17919 1.24857e-19 6.43009e-05)
(-0.176517 -0.00398353 6.96692e-22 0.176414 -8.61007e-20 0.000103113)
(-0.172325 -0.00416143 -1.81724e-21 0.172185 6.68623e-20 0.000139521)
(-0.167302 -0.00427477 1.23681e-20 0.167128 -2.75252e-20 0.000173769)
(-0.161636 -0.00433825 -8.04726e-21 0.16143 2.51006e-20 0.000206045)
(-0.155703 -0.00437058 2.53033e-20 0.155466 -6.28846e-20 0.000236495)
(-0.149534 -0.00437899 9.39116e-21 0.149269 -1.77129e-20 0.000265228)
(-0.143365 -0.00437396 8.33905e-21 0.143073 -8.773e-20 0.000292325)
(-0.13717 -0.00435937 1.85776e-20 0.136852 -5.5411e-21 0.000317841)
(-0.1311 -0.00434119 -3.68241e-20 0.130758 -1.08017e-19 0.000341812)
(-0.12511 -0.00432165 1.89114e-20 0.124746 5.07069e-20 0.000364254)
(-0.119299 -0.00430424 2.25455e-21 0.118914 -9.31865e-20 0.000385169)
(-0.113622 -0.00429035 -3.31753e-20 0.113218 5.87687e-20 0.000404541)
(-0.108144 -0.00428205 -2.54238e-20 0.107721 -4.56814e-21 0.000422345)
(-0.102824 -0.00428036 5.48934e-21 0.102385 1.15246e-19 0.000438533)
(-0.097704 -0.00428649 -1.07871e-20 0.097251 -9.59498e-20 0.000453053)
(-0.0927529 -0.00430132 -3.05467e-21 0.092287 2.06694e-19 0.000465832)
(-0.0879963 -0.00432553 2.13154e-20 0.0875195 -1.12208e-19 0.000476787)
(-0.0834111 -0.00435995 -5.63842e-21 0.0829253 1.89176e-19 0.00048582)
(-0.0790116 -0.00440492 -3.014e-20 0.0785188 -6.09141e-20 0.000492826)
(-0.0747835 -0.00446126 -3.20516e-20 0.0742858 1.58731e-19 0.000497684)
(-0.0707316 -0.00452907 -3.38937e-20 0.0702314 -2.26246e-20 0.000500273)
(-0.0668508 -0.00460922 -2.61724e-20 0.0663503 1.9696e-19 0.000500453)
(-0.0631377 -0.00470166 3.516e-22 0.0626396 -2.48836e-20 0.000498087)
(-0.0595964 -0.00480729 -6.4116e-20 0.0591033 1.58356e-19 0.000493021)
(-0.0562162 -0.00492615 1.10067e-20 0.0557311 9.11482e-20 0.000485101)
(-0.0530103 -0.00505886 -9.1856e-21 0.0525361 1.28225e-19 0.000474154)
(-0.0499613 -0.00520643 1.79986e-20 0.0495013 8.93267e-20 0.000460007)
(-0.0470912 -0.00536761 -4.69304e-20 0.0466487 4.42269e-20 0.000442467)
(-0.0443779 -0.00554753 -6.94284e-21 0.0439566 4.9292e-20 0.00042134)
(-0.0418477 -0.00573783 -3.51802e-20 0.0414513 -1.08214e-20 0.000396417)
(-0.0394824 -0.00595591 2.2471e-20 0.0391149 2.4333e-20 0.000367491)
(-0.0372996 -0.0061763 -5.64158e-20 0.0369653 -1.42193e-20 0.000334338)
(-0.0353033 -0.00643814 9.78204e-21 0.0350066 1.01449e-20 0.000296742)
(-0.0334803 -0.00669599 -7.77903e-20 0.0332258 2.38507e-20 0.000254473)
(-0.0318761 -0.00699847 6.13975e-21 0.0316688 -1.1395e-19 0.000207306)
(-0.0304393 -0.00733149 -1.46286e-21 0.0302843 5.00679e-20 0.000155002)
(-0.0292389 -0.00759649 -2.97224e-20 0.0291415 -8.96378e-20 9.73349e-05)
(-0.0282348 -0.00803838 2.41559e-20 0.0282007 -3.76918e-20 3.40681e-05)
(-0.179794 -0.00870019 2.10087e-20 0.179771 1.53597e-20 2.27371e-05)
(-0.17897 -0.00992091 -3.70083e-20 0.178906 7.08559e-20 6.41893e-05)
(-0.176154 -0.0107327 -3.32049e-20 0.176051 1.72245e-20 0.000102931)
(-0.171905 -0.0112297 4.56101e-20 0.171765 -1.75691e-20 0.000139271)
(-0.166841 -0.0115172 -1.44667e-20 0.166668 -2.01659e-20 0.000173455)
(-0.161147 -0.01164 -1.65567e-22 0.160941 5.39928e-20 0.000205668)
(-0.155194 -0.011655 -3.36553e-20 0.154958 6.19625e-20 0.000236058)
(-0.149012 -0.0115848 -1.49604e-20 0.148747 2.48583e-20 0.000264732)
(-0.142835 -0.0114612 -6.05031e-21 0.142543 1.4233e-19 0.000291772)
(-0.136636 -0.011296 8.42247e-21 0.136318 1.18893e-19 0.000317231)
(-0.130563 -0.0111074 5.39431e-20 0.130222 -1.84853e-20 0.000341148)
(-0.124574 -0.010902 5.80716e-21 0.12421 7.31419e-20 0.000363537)
(-0.118764 -0.0106903 2.5343e-20 0.11838 -7.77122e-20 0.0003844)
(-0.113089 -0.0104762 5.16945e-20 0.112686 6.51173e-20 0.000403723)
(-0.107613 -0.0102658 3.34387e-20 0.107192 -1.54045e-19 0.000421479)
(-0.102296 -0.0100617 -6.60945e-20 0.101858 -1.54517e-20 0.000437623)
(-0.0971786 -0.00986728 7.10052e-20 0.0967265 1.04996e-22 0.000452102)
(-0.0922295 -0.00968466 -1.96746e-20 0.0917647 -5.43471e-20 0.000464841)
(-0.0874748 -0.00951527 -1.16457e-20 0.086999 9.51541e-20 0.000475761)
(-0.0828907 -0.00936135 1.15324e-20 0.0824059 -4.79111e-20 0.000484762)
(-0.0784917 -0.00922295 -6.39389e-20 0.078 1.40318e-20 0.000491739)
(-0.0742632 -0.00910257 3.80808e-20 0.0737666 -8.49874e-20 0.000496573)
(-0.0702103 -0.00899921 -8.15936e-21 0.0697111 4.64244e-20 0.000499142)
(-0.0663272 -0.0089158 1.28694e-20 0.0658279 -1.41577e-19 0.000499307)
(-0.0626113 -0.00885048 -9.52844e-20 0.0621143 -3.63823e-21 0.000496932)
(-0.0590656 -0.00880673 8.39633e-20 0.0585738 -8.875e-20 0.000491864)
(-0.0556805 -0.00878211 -4.25906e-20 0.0551965 2.55325e-21 0.00048395)
(-0.052468 -0.00878036 -1.53855e-21 0.051995 -5.16565e-20 0.000473017)
(-0.049412 -0.00879959 -7.30766e-20 0.0489531 -6.30919e-20 0.000458894)
(-0.0465329 -0.0088415 -4.26449e-20 0.0460915 1.65231e-20 0.000441387)
(-0.0438103 -0.00890956 -4.23182e-20 0.04339 -2.65044e-20 0.000420304)
(-0.0412691 -0.00899509 -4.00152e-20 0.0408736 7.46855e-22 0.000395436)
(-0.0388917 -0.00912023 3.16553e-20 0.0385251 -1.22666e-20 0.000366576)
(-0.0366973 -0.00924796 1.96678e-20 0.0363638 -6.14958e-20 0.000333502)
(-0.0346842 -0.00943909 1.02081e-20 0.0343882 3.05627e-20 0.000295999)
(-0.0328526 -0.00961439 -1.2638e-19 0.0325987 -1.64172e-21 0.000253836)
(-0.0312235 -0.00986845 -4.31485e-20 0.0310167 3.15346e-21 0.00020679)
(-0.029783 -0.0101354 2.06572e-20 0.0296284 2.90319e-20 0.000154623)
(-0.0285549 -0.0103659 -1.05879e-19 0.0284577 -2.64691e-20 9.71056e-05)
(-0.0275451 -0.0107762 4.70454e-21 0.0275111 3.47082e-20 3.39975e-05)
(-0.179489 -0.0140975 2.44081e-20 0.179467 -4.66098e-20 2.26672e-05)
(-0.178449 -0.0161155 6.35529e-20 0.178385 5.42602e-20 6.39975e-05)
(-0.175474 -0.0174489 -1.8196e-20 0.175371 -2.12543e-19 0.000102625)
(-0.171113 -0.0182557 -3.01704e-20 0.170974 1.4469e-19 0.000138857)
(-0.16597 -0.0187103 7.32563e-20 0.165797 -1.28544e-19 0.000172938)
(-0.160221 -0.0188873 4.96218e-20 0.160016 -1.22245e-20 0.000205052)
(-0.154232 -0.0188814 2.45969e-20 0.153997 -1.11956e-19 0.000235348)
(-0.148028 -0.0187302 6.21171e-20 0.147764 1.52855e-20 0.000263931)
(-0.141839 -0.0184861 8.75034e-20 0.141548 -1.58806e-20 0.000290884)
(-0.135634 -0.0181694 -8.76285e-20 0.135318 -5.3929e-21 0.00031626)
(-0.129563 -0.0178096 -5.45845e-20 0.129223 -1.59632e-19 0.000340097)
(-0.123579 -0.0174182 -3.10783e-20 0.123216 7.65346e-20 0.000362409)
(-0.117777 -0.0170121 4.28293e-21 0.117394 -5.86516e-20 0.0003832)
(-0.112112 -0.0165981 -9.57514e-20 0.11171 5.90954e-20 0.000402454)
(-0.106647 -0.0161859 -9.35836e-20 0.106227 7.93359e-20 0.000420144)
(-0.101342 -0.0157799 1.17452e-19 0.100906 1.03307e-19 0.000436226)
(-0.0962369 -0.0153853 -3.32339e-20 0.0957863 6.29163e-20 0.000450646)
(-0.0913 -0.0150058 6.18718e-20 0.0908367 1.65155e-19 0.00046333)
(-0.0865571 -0.0146433 6.05695e-20 0.0860829 -1.5165e-19 0.0004742)
(-0.0819841 -0.0143015 -9.0313e-20 0.0815009 1.34373e-19 0.000483155)
(-0.0775955 -0.0139803 -5.16318e-20 0.0771054 -3.9388e-20 0.000490093)
(-0.0733763 -0.0136836 -2.035e-20 0.0728814 1.33909e-19 0.000494894)
(-0.0693317 -0.0134095 -7.19069e-20 0.0688342 -1.19624e-20 0.000497437)
(-0.0654556 -0.0131629 -8.17586e-20 0.0649581 6.77791e-20 0.000497585)
(-0.0617454 -0.0129402 4.25625e-20 0.0612502 1.94902e-19 0.000495202)
(-0.0582041 -0.0127472 -6.11151e-20 0.057714 1.10064e-19 0.000490135)
(-0.0548217 -0.0125796 5.60113e-20 0.0543395 1.97473e-19 0.000482233)
(-0.0516106 -0.0124431 -6.65869e-20 0.0511393 4.66278e-20 0.000471323)
(-0.048554 -0.0123344 8.40075e-20 0.0480967 1.6585e-19 0.000457236)
(-0.045673 -0.0122563 1.90781e-21 0.0452332 -1.92355e-21 0.000439777)
(-0.0429459 -0.0122124 -2.05258e-20 0.0425271 8.46632e-20 0.000418758)
(-0.0403998 -0.0121926 -1.80476e-20 0.0400058 8.49552e-20 0.000393968)
(-0.0380133 -0.0122226 -6.64671e-20 0.0376481 1.85831e-19 0.000365204)
(-0.0358112 -0.0122609 6.55465e-21 0.035479 -2.87512e-19 0.000332243)
(-0.0337845 -0.0123727 6.34192e-20 0.0334896 2.12098e-19 0.000294872)
(-0.0319423 -0.0124787 -9.62553e-20 0.0316894 -1.0283e-19 0.000252861)
(-0.0302967 -0.0126659 2.64123e-20 0.0300907 9.74054e-21 0.000205987)
(-0.0288422 -0.0128875 -4.72648e-20 0.0286882 1.20812e-19 0.000154012)
(-0.0276001 -0.0130675 -2.40317e-20 0.0275034 -5.71546e-20 9.6711e-05)
(-0.0265776 -0.0134497 -5.29897e-21 0.0265437 1.84787e-19 3.38487e-05)
(-0.179055 -0.0194925 7.27678e-20 0.179033 6.93179e-20 2.25796e-05)
(-0.177691 -0.0222787 -9.89136e-20 0.177627 3.03877e-20 6.37439e-05)
(-0.174481 -0.0241125 -1.1783e-20 0.174379 2.90976e-19 0.000102215)
(-0.169955 -0.0252135 1.36723e-19 0.169817 -2.45007e-19 0.000138299)
(-0.164695 -0.025824 -1.21882e-19 0.164522 7.62324e-20 0.00017224)
(-0.158867 -0.0260471 1.503e-20 0.158663 7.14176e-20 0.000204222)
(-0.152825 -0.0260146 -2.20111e-20 0.15259 8.06402e-20 0.00023439)
(-0.146589 -0.0257783 5.60388e-20 0.146326 -2.90571e-20 0.000262852)
(-0.140383 -0.0254114 1.44591e-20 0.140094 -1.02891e-19 0.000289688)
(-0.134174 -0.0249415 -7.02837e-20 0.13386 -5.59588e-20 0.000314953)
(-0.128107 -0.02441 9.89576e-20 0.127768 5.34152e-20 0.000338684)
(-0.122133 -0.0238323 7.76621e-20 0.121772 1.49352e-20 0.000360896)
(-0.116346 -0.0232322 3.63977e-20 0.115964 -1.64201e-19 0.000381591)
(-0.110699 -0.0226189 1.5137e-19 0.110298 1.24334e-19 0.000400754)
(-0.105254 -0.0220057 6.97063e-20 0.104836 -8.75601e-21 0.000418359)
(-0.0999695 -0.0213988 -1.17384e-19 0.0995352 3.28536e-19 0.000434361)
(-0.0948867 -0.0208052 1.76072e-19 0.094438 -2.0641e-19 0.000448707)
(-0.0899716 -0.0202298 -2.27634e-19 0.0895103 2.2571e-19 0.000461324)
(-0.0852504 -0.0196754 -1.5628e-20 0.0847783 -1.39251e-19 0.000472132)
(-0.0806982 -0.0191469 1.07097e-19 0.0802172 1.37076e-19 0.000481033)
(-0.0763298 -0.0186439 -5.71834e-20 0.0758419 -1.38745e-19 0.000487925)
(-0.0721293 -0.0181719 6.65848e-20 0.0716366 6.77461e-21 0.000492689)
(-0.0681023 -0.017728 -6.62809e-20 0.0676071 1.95831e-20 0.000495204)
(-0.064242 -0.0173189 1.8243e-19 0.0637467 1.65233e-19 0.000495335)
(-0.0605462 -0.0169395 -2.08365e-20 0.0600533 -1.1562e-19 0.000492948)
(-0.0570172 -0.016598 9.35172e-20 0.0565293 8.13002e-20 0.000487889)
(-0.0536456 -0.0162875 -7.67412e-20 0.0531656 1.33221e-20 0.000480009)
(-0.0504429 -0.0160172 -3.77466e-20 0.0499738 1.02274e-19 0.000469137)
(-0.0473927 -0.0157803 -9.59281e-20 0.0469376 -1.44987e-19 0.000455102)
(-0.0445162 -0.0155833 -1.29371e-19 0.0440785 1.06671e-19 0.000437714)
(-0.0417901 -0.0154273 6.65567e-20 0.0413733 -2.17333e-20 0.000416783)
(-0.0392455 -0.0153028 1.04969e-19 0.0388534 4.92143e-20 0.000392102)
(-0.0368525 -0.0152391 -3.56254e-19 0.036489 1.1851e-19 0.000363467)
(-0.0346509 -0.0151843 -1.17159e-21 0.0343202 -1.68477e-20 0.000330658)
(-0.0326074 -0.0152242 2.37632e-19 0.032314 1.08133e-19 0.000293464)
(-0.0307668 -0.0152458 -3.54246e-19 0.0305152 4.77846e-20 0.000251653)
(-0.0290944 -0.0153831 2.05808e-19 0.0288894 7.87048e-20 0.000205005)
(-0.0276392 -0.0155337 -4.06111e-20 0.0274859 9.37833e-20 0.000153283)
(-0.0263722 -0.0156757 -2.3322e-20 0.0262759 -9.87842e-20 9.62617e-05)
(-0.0253375 -0.0160166 -7.2977e-20 0.0253038 -1.7696e-19 3.37011e-05)
(-0.17849 -0.0248856 4.39563e-20 0.178467 -1.42611e-19 2.24602e-05)
(-0.176699 -0.0283999 2.28092e-19 0.176636 -2.41979e-19 6.34122e-05)
(-0.173181 -0.0307043 -1.17447e-19 0.173079 -3.2053e-19 0.000101684)
(-0.168437 -0.0320781 -1.45751e-19 0.1683 -3.98818e-20 0.000137581)
(-0.163023 -0.0328285 2.65359e-19 0.162852 2.09172e-20 0.000171344)
(-0.157092 -0.0330865 7.66274e-20 0.156888 -1.73466e-19 0.000203156)
(-0.150981 -0.0330194 -1.8425e-20 0.150748 -1.64515e-19 0.000233163)
(-0.144705 -0.0326928 -7.16316e-20 0.144444 9.0402e-20 0.000261471)
(-0.13848 -0.0321994 7.01262e-20 0.138192 5.08872e-20 0.000288161)
(-0.132266 -0.0315743 -1.28813e-20 0.131953 1.17155e-19 0.000313286)
(-0.126206 -0.03087 1.19512e-20 0.125869 -2.02339e-19 0.000336883)
(-0.120247 -0.0301061 -2.06255e-19 0.119888 1.28568e-19 0.000358968)
(-0.114481 -0.0293124 8.90458e-20 0.114102 -1.34056e-19 0.000379543)
(-0.10886 -0.0285008 5.77766e-21 0.108461 1.96778e-19 0.000398593)
(-0.103444 -0.0276879 1.21483e-19 0.103028 -1.3993e-20 0.000416092)
(-0.0981897 -0.0268816 -3.49018e-20 0.0977577 1.88485e-19 0.000431996)
(-0.0931384 -0.0260906 -7.1588e-20 0.0926921 -2.8033e-19 0.00044625)
(-0.0882549 -0.0253213 1.51457e-19 0.0877961 1.04768e-19 0.000458784)
(-0.0835652 -0.0245768 -7.2105e-20 0.0830957 5.36545e-20 0.000469517)
(-0.0790436 -0.0238634 -5.55323e-20 0.0785653 -4.49281e-20 0.000478353)
(-0.0747049 -0.0231804 -2.06647e-19 0.0742197 2.17185e-19 0.000485189)
(-0.0705325 -0.0225349 1.15663e-19 0.0700426 1.79267e-19 0.000489908)
(-0.0665322 -0.0219229 6.32425e-20 0.0660398 1.07759e-19 0.000492391)
(-0.0626966 -0.021353 -1.52534e-19 0.0622041 -1.85712e-19 0.000492504)
(-0.0590237 -0.0208185 -5.89043e-20 0.0585336 2.97507e-19 0.000490112)
(-0.0555152 -0.0203297 1.1107e-19 0.0550301 -4.84212e-20 0.000485066)
(-0.0521619 -0.0198778 1.12925e-19 0.0516847 1.66519e-19 0.000477215)
(-0.0489751 -0.0194743 -1.91608e-19 0.0485087 5.21574e-20 0.00046639)
(-0.0459379 -0.0191104 6.97105e-20 0.0454855 3.29534e-19 0.000452421)
(-0.0430728 -0.0187949 1.22255e-19 0.0426377 2.06908e-19 0.00043512)
(-0.0403531 -0.0185266 -1.17552e-19 0.0399388 2.98156e-19 0.000414299)
(-0.0378161 -0.018299 2.32245e-19 0.0374263 -6.94188e-20 0.000389751)
(-0.0354204 -0.0181376 -9.49411e-20 0.0350592 2.01236e-19 0.000361275)
(-0.0332248 -0.0179976 -9.67017e-20 0.0328962 1.20383e-19 0.000328653)
(-0.0311664 -0.0179518 1.85697e-19 0.0308747 3.11602e-19 0.000291674)
(-0.0293313 -0.0179112 -9.09703e-20 0.0290812 -6.97445e-20 0.000250109)
(-0.0276313 -0.0179718 6.34129e-20 0.0274276 1.99349e-20 0.000203738)
(-0.0261758 -0.0180841 -2.05313e-19 0.0260235 8.17987e-20 0.000152325)
(-0.0248805 -0.018167 -3.73996e-19 0.0247849 -4.80436e-20 9.56492e-05)
(-0.0238286 -0.0184794 1.33614e-19 0.0237951 1.46499e-19 3.34763e-05)
(-0.177791 -0.0302766 2.53619e-20 0.177769 7.61128e-20 2.23233e-05)
(-0.175477 -0.034468 -2.17947e-19 0.175414 3.28888e-19 6.30195e-05)
(-0.171579 -0.0372055 1.73631e-19 0.171478 -5.12613e-20 0.000101051)
(-0.166569 -0.0388248 2.15361e-19 0.166432 3.70641e-19 0.000136722)
(-0.160966 -0.0396954 -1.99035e-19 0.160796 -6.56742e-21 0.00017027)
(-0.154908 -0.0399742 -5.57809e-20 0.154707 -8.14497e-20 0.000201879)
(-0.148715 -0.0398625 1.37982e-19 0.148484 1.18959e-19 0.000231693)
(-0.142391 -0.0394387 2.11498e-19 0.142132 -9.51419e-20 0.000259816)
(-0.136142 -0.0388146 4.37413e-20 0.135856 -1.0683e-19 0.00028633)
(-0.129925 -0.0380318 -2.61801e-19 0.129614 1.40315e-19 0.000311288)
(-0.123874 -0.0371537 8.78795e-20 0.123539 2.28606e-19 0.000334726)
(-0.117935 -0.0362035 1.11605e-19 0.117579 1.12787e-19 0.00035666)
(-0.112198 -0.0352171 3.6255e-20 0.111821 8.68736e-21 0.000377094)
(-0.10661 -0.0342084 3.03685e-19 0.106214 -2.08508e-19 0.00039601)
(-0.101231 -0.0331978 7.57887e-20 0.100818 3.46122e-20 0.000413385)
(-0.0960166 -0.0321942 -2.391e-19 0.0955874 -9.2684e-20 0.000429172)
(-0.0910062 -0.0312082 1.05853e-20 0.0905628 1.95229e-19 0.000443321)
(-0.0861637 -0.0302472 5.05459e-20 0.085708 1.96209e-19 0.000455758)
(-0.0815152 -0.029315 -1.17686e-19 0.0810488 5.50947e-20 0.000466405)
(-0.0770336 -0.0284192 2.46381e-19 0.0765584 2.31143e-19 0.000475166)
(-0.0727341 -0.0275586 1.07578e-19 0.0722522 2.22437e-19 0.000481941)
(-0.0685988 -0.0267418 -6.52995e-20 0.0681122 1.93196e-19 0.000486612)
(-0.0646344 -0.0259638 -3.21954e-19 0.0641453 -1.85163e-19 0.000489061)
(-0.0608319 -0.0252351 3.39579e-19 0.0603427 2.509e-19 0.000489156)
(-0.0571905 -0.0245472 9.50884e-20 0.0567037 8.29137e-20 0.000486764)
(-0.0537103 -0.0239131 -9.44011e-20 0.0532285 3.04962e-19 0.000481737)
(-0.0503832 -0.023321 1.14207e-19 0.0499093 -1.24295e-19 0.000473924)
(-0.0472193 -0.0227863 1.46838e-19 0.0467561 1.34228e-19 0.000463159)
(-0.044202 -0.0222959 5.42882e-20 0.0437528 -9.61663e-20 0.000449274)
(-0.0413543 -0.0218641 -6.39632e-20 0.0409222 -1.03125e-19 0.000432081)
(-0.0386465 -0.0214834 -1.12344e-19 0.0382351 -5.67979e-19 0.000411394)
(-0.036122 -0.021155 -2.83332e-20 0.035735 2.17697e-20 0.000387008)
(-0.0337277 -0.0208958 -4.61024e-21 0.033369 -3.22792e-19 0.000358725)
(-0.0315414 -0.0206701 9.94898e-20 0.031215 6.59191e-20 0.000326328)
(-0.0294711 -0.020543 1.5484e-19 0.0291815 -3.10088e-19 0.000289607)
(-0.0276419 -0.02043 -6.42839e-19 0.0273935 -1.49578e-19 0.000248336)
(-0.0259201 -0.020428 4.29843e-19 0.0257178 -1.78899e-19 0.000202296)
(-0.0244592 -0.0204816 -3.69894e-20 0.024308 -5.05539e-20 0.000151252)
(-0.0231461 -0.0205209 4.81064e-20 0.0230511 -5.00819e-19 9.4983e-05)
(-0.02207 -0.0207982 -2.73764e-19 0.0220367 9.10076e-20 3.32526e-05)
(-0.176958 -0.0356654 2.04891e-19 0.176936 -1.12518e-19 2.21553e-05)
(-0.174027 -0.0404729 1.35084e-19 0.173964 4.19062e-20 6.25504e-05)
(-0.169683 -0.0435981 -1.88568e-19 0.169583 -1.97253e-20 0.0001003)
(-0.164361 -0.0454303 2.30912e-21 0.164225 -3.17472e-19 0.000135705)
(-0.158537 -0.0463968 1.28198e-20 0.158368 1.30409e-19 0.000169002)
(-0.152332 -0.0466794 -4.34794e-21 0.152131 4.42678e-19 0.000200372)
(-0.146043 -0.0465111 -6.97023e-20 0.145813 1.44535e-20 0.000229959)
(-0.139663 -0.045982 -2.32484e-19 0.139405 1.4631e-19 0.000257866)
(-0.133388 -0.0452219 2.95617e-19 0.133104 -1.58917e-20 0.000284174)
(-0.127167 -0.0442787 2.27452e-19 0.126858 1.0163e-19 0.000308936)
(-0.12113 -0.0432255 -5.50518e-20 0.120798 -6.52962e-21 0.000332189)
(-0.115217 -0.0420889 -3.66753e-19 0.114863 1.66648e-19 0.000353948)
(-0.109514 -0.0409109 -1.85575e-19 0.10914 -2.47582e-21 0.000374215)
(-0.103967 -0.039707 -4.4628e-20 0.103574 3.16986e-19 0.000392976)
(-0.098634 -0.0385008 3.41656e-19 0.0982238 -1.70804e-19 0.000410205)
(-0.0934676 -0.0373025 1.13969e-19 0.0930417 -1.12386e-20 0.000425859)
(-0.0885072 -0.0361244 1.07988e-19 0.0880673 9.54583e-21 0.000439884)
(-0.0837151 -0.0349748 8.66844e-20 0.0832629 -2.1527e-20 0.000452209)
(-0.079117 -0.0338581 -2.66642e-20 0.0786543 -1.29532e-19 0.000462758)
(-0.0746846 -0.0327829 1.15809e-19 0.0742132 -2.22291e-19 0.000471433)
(-0.0704334 -0.0317477 -1.25023e-19 0.0699553 9.35146e-22 0.000478137)
(-0.0663442 -0.0307627 -5.76128e-20 0.0658614 -3.38125e-19 0.000482752)
(-0.0624242 -0.0298216 -7.57834e-21 0.061939 2.04649e-19 0.000485164)
(-0.0586632 -0.0289368 5.08349e-20 0.0581779 -1.38816e-19 0.000485239)
(-0.0550612 -0.0280982 1.56616e-19 0.0545783 -1.16802e-19 0.000482848)
(-0.0516169 -0.0273208 -3.39193e-20 0.051139 -7.02678e-20 0.000477842)
(-0.0483233 -0.0265909 -9.7369e-20 0.0478532 -8.25664e-21 0.000470075)
(-0.0451891 -0.0259266 -3.39461e-20 0.0447297 -3.27513e-19 0.00045938)
(-0.0421985 -0.0253116 -2.08841e-19 0.0417529 6.44653e-19 0.00044559)
(-0.0393739 -0.0247648 -2.6859e-19 0.0389453 -5.24693e-20 0.000428522)
(-0.0366846 -0.0242724 -1.06314e-19 0.0362766 3.64731e-19 0.000407989)
(-0.0341772 -0.0238456 4.39952e-19 0.0337934 1.40996e-19 0.000383791)
(-0.0317904 -0.0234863 -3.09916e-20 0.0314347 -1.9518e-19 0.00035573)
(-0.0296167 -0.0231827 -1.29683e-19 0.0292931 2.40808e-19 0.000323591)
(-0.0275388 -0.022964 1.41359e-19 0.0272516 -1.65938e-19 0.000287167)
(-0.0257193 -0.0227983 -2.64872e-20 0.025473 -4.21551e-20 0.000246233)
(-0.0239717 -0.0227128 1.70202e-20 0.0237711 2.14512e-20 0.000200573)
(-0.0225136 -0.0227361 -5.06114e-19 0.0223637 -9.69545e-20 0.000149953)
(-0.0211668 -0.0227128 -2.50361e-19 0.0210727 -1.51023e-19 9.41563e-05)
(-0.0200759 -0.0229652 2.92026e-19 0.0200429 6.14013e-19 3.29529e-05)
(-0.175987 -0.0410517 9.40451e-20 0.175965 1.52611e-19 2.19701e-05)
(-0.172354 -0.046404 -2.87017e-20 0.172292 -6.22008e-20 6.20216e-05)
(-0.167503 -0.0498647 -1.90411e-20 0.167403 1.16017e-19 9.94491e-05)
(-0.161825 -0.0518718 1.48651e-19 0.161691 7.41768e-19 0.00013455)
(-0.155751 -0.0529069 2.44325e-19 0.155584 7.27484e-20 0.00016756)
(-0.149379 -0.0531736 1.04089e-20 0.149181 -4.31464e-19 0.000198658)
(-0.142982 -0.0529348 1.45715e-20 0.142754 -6.62805e-20 0.000227986)
(-0.136541 -0.0522913 1.74604e-19 0.136285 -1.49837e-19 0.000255648)
(-0.130238 -0.0513894 -7.54494e-20 0.129956 -2.98519e-20 0.000281723)
(-0.124015 -0.0502822 -1.33129e-19 0.123709 -1.45802e-19 0.000306263)
(-0.117994 -0.0490527 2.95407e-19 0.117665 -1.14633e-19 0.000329305)
(-0.112112 -0.04773 2.38838e-19 0.111761 -2.45026e-19 0.000350864)
(-0.106451 -0.0463617 7.39234e-20 0.10608 1.05842e-19 0.000370945)
(-0.100952 -0.0449646 8.03467e-20 0.100563 -2.69765e-20 0.00038953)
(-0.0956728 -0.0435655 -1.39824e-19 0.0952662 -3.77584e-19 0.000406596)
(-0.0905631 -0.0421757 -1.12019e-19 0.090141 8.96664e-20 0.000422098)
(-0.0856617 -0.0408089 1.25026e-19 0.0852257 -3.17829e-19 0.000435985)
(-0.0809288 -0.0394742 -2.76476e-20 0.0804806 6.03717e-20 0.000448187)
(-0.0763903 -0.0381767 -1.91141e-19 0.0759317 -4.84812e-19 0.000458626)
(-0.0720159 -0.0369258 3.73828e-19 0.0715487 8.43858e-20 0.000467208)
(-0.067822 -0.0357198 1.04985e-19 0.0673481 -9.85043e-20 0.000473834)
(-0.0637873 -0.0345699 7.90873e-20 0.0633089 7.16413e-20 0.000478391)
(-0.0599203 -0.0334692 -2.02186e-19 0.0594396 1.57554e-19 0.000480762)
(-0.0562088 -0.0324315 3.32394e-20 0.055728 8.38459e-20 0.00048082)
(-0.0526543 -0.0314451 1.33771e-19 0.0521759 1.3703e-19 0.000478433)
(-0.0492534 -0.0305275 2.04161e-19 0.0487799 -3.07272e-19 0.000473456)
(-0.0460007 -0.0296621 -2.66644e-19 0.0455349 2.40893e-19 0.000465743)
(-0.0429028 -0.028871 9.50851e-19 0.0424476 -5.58347e-19 0.000455131)
(-0.0399455 -0.028133 3.19945e-19 0.039504 4.92573e-19 0.000441454)
(-0.0371494 -0.0274738 -2.36036e-19 0.0367249 -5.77801e-19 0.00042453)
(-0.0344843 -0.0268706 -2.58802e-19 0.0340801 4.90443e-19 0.000404176)
(-0.0319977 -0.0263477 -6.02563e-19 0.0316175 -5.15303e-20 0.000380194)
(-0.0296237 -0.0258886 9.57987e-20 0.0292713 1.87788e-19 0.000352386)
(-0.0274632 -0.0255072 9.39363e-20 0.0271427 2.87371e-19 0.000320543)
(-0.0253849 -0.0252 -3.04765e-19 0.0251005 1.44727e-19 0.000284458)
(-0.0235699 -0.0249748 -4.43443e-19 0.023326 1.99422e-20 0.000243908)
(-0.0218107 -0.0248167 4.12307e-19 0.021612 2.90734e-19 0.00019868)
(-0.0203415 -0.0247956 -2.44828e-19 0.0201929 2.84547e-19 0.000148543)
(-0.0189822 -0.0247263 6.94179e-19 0.018889 -1.91638e-19 9.32783e-05)
(-0.0178573 -0.0249485 -5.58788e-19 0.0178247 9.93347e-20 3.26549e-05)
(-0.174877 -0.0464342 1.19769e-19 0.174855 -1.17124e-19 2.17546e-05)
(-0.170463 -0.0522518 1.44387e-19 0.170402 -9.33305e-20 6.14181e-05)
(-0.165049 -0.0559889 2.34376e-19 0.164951 -8.63748e-20 9.84824e-05)
(-0.158977 -0.0581284 1.23852e-19 0.158844 -7.37979e-19 0.000133242)
(-0.152627 -0.0592007 -4.87668e-19 0.152461 -5.10821e-19 0.000165928)
(-0.146071 -0.0594295 -3.01517e-20 0.145874 1.56992e-19 0.00019672)
(-0.139555 -0.0591047 2.25221e-20 0.139329 2.38094e-19 0.000225757)
(-0.133047 -0.0583362 -1.67621e-19 0.132794 1.53897e-20 0.000253142)
(-0.126714 -0.0572859 2.56806e-19 0.126435 3.37115e-19 0.000278954)
(-0.120491 -0.0560112 2.64619e-19 0.120188 -4.76748e-19 0.000303245)
(-0.114491 -0.0546038 -3.10011e-19 0.114165 3.13592e-19 0.00032605)
(-0.108645 -0.0530953 -6.53383e-20 0.108297 -3.00745e-19 0.000347386)
(-0.103031 -0.051538 -6.67385e-22 0.102664 7.74797e-20 0.000367256)
(-0.0975887 -0.0499502 -2.79483e-19 0.097203 -9.82363e-20 0.000385645)
(-0.0923711 -0.0483615 3.3163e-19 0.0919686 2.5118e-19 0.000402527)
(-0.0873265 -0.0467837 1.8268e-19 0.0869086 -2.25025e-19 0.00041786)
(-0.0824926 -0.0452322 -9.61466e-20 0.082061 4.49793e-19 0.000431593)
(-0.0778276 -0.0437167 8.57304e-20 0.0773839 -2.64697e-19 0.000443656)
(-0.0733572 -0.0422426 -2.61443e-19 0.0729033 2.63175e-19 0.000453973)
(-0.0690495 -0.0408202 3.2964e-19 0.0685871 -2.20263e-20 0.00046245)
(-0.0649212 -0.0394476 -4.88245e-20 0.0644522 -1.9682e-19 0.000468991)
(-0.0609493 -0.038137 1.78291e-19 0.0604758 -7.35306e-20 0.000473482)
(-0.0571432 -0.0368806 1.24935e-19 0.0566674 -1.53094e-19 0.00047581)
(-0.0534889 -0.0356937 -5.31099e-20 0.053013 -3.15247e-20 0.000475847)
(-0.0499892 -0.0345631 -3.55204e-19 0.0495157 1.90179e-19 0.000473465)
(-0.0466385 -0.0335084 2.53157e-19 0.04617 -5.39661e-19 0.00046852)
(-0.0434336 -0.0325107 -5.90615e-19 0.0429727 1.39472e-19 0.000460869)
(-0.040378 -0.0315952 -1.21687e-19 0.0399277 1.94193e-19 0.000450349)
(-0.0374605 -0.0307368 2.47821e-19 0.0370237 3.46722e-20 0.000436798)
(-0.034698 -0.0299672 -1.07671e-19 0.034278 -2.74587e-19 0.000420034)
(-0.0320638 -0.029255 6.52262e-19 0.0316639 1.83174e-19 0.000399879)
(-0.029601 -0.0286382 1.8044e-19 0.0292248 -2.6753e-19 0.000376136)
(-0.0272474 -0.0280797 -3.37664e-20 0.0268988 6.12678e-19 0.00034861)
(-0.0251008 -0.0276254 2.77154e-19 0.0247837 -7.59896e-19 0.000317095)
(-0.0230295 -0.027226 -1.59818e-19 0.0227481 5.61301e-19 0.000281386)
(-0.0212189 -0.026953 4.06762e-20 0.0209776 -1.87669e-19 0.000241263)
(-0.0194492 -0.0267109 2.35721e-19 0.0192527 5.08418e-19 0.000196515)
(-0.017975 -0.0266634 -9.36203e-19 0.0178281 -3.48509e-19 0.000146914)
(-0.0165912 -0.0265326 -4.02328e-19 0.016499 1.45074e-19 9.22448e-05)
(-0.0154524 -0.0267361 5.21266e-19 0.0154201 3.97545e-19 3.22831e-05)
(-0.173623 -0.051812 -9.4533e-20 0.173602 6.83003e-19 2.15223e-05)
(-0.16836 -0.0580067 -1.53152e-19 0.168299 3.19748e-19 6.07565e-05)
(-0.162333 -0.0619552 -3.65414e-19 0.162236 1.04618e-19 9.74183e-05)
(-0.155834 -0.0641802 1.15535e-20 0.155702 5.41555e-19 0.000131799)
(-0.149183 -0.0652556 5.81803e-19 0.149019 6.86261e-19 0.000164128)
(-0.142428 -0.0654222 2.05597e-19 0.142234 2.72908e-19 0.000194581)
(-0.135785 -0.0649943 -2.79872e-20 0.135562 -9.69257e-20 0.000223296)
(-0.129207 -0.0640895 2.56583e-19 0.128957 -2.92997e-19 0.000250376)
(-0.122844 -0.0628836 -4.06112e-19 0.122568 -2.80964e-19 0.000275897)
(-0.116622 -0.0614374 -1.88242e-19 0.116322 2.36344e-19 0.000299913)
(-0.110646 -0.0598508 3.38949e-19 0.110324 5.01895e-19 0.000322458)
(-0.104842 -0.0581567 -2.04429e-19 0.104498 4.51329e-19 0.000343548)
(-0.0992829 -0.0564124 2.12081e-19 0.0989197 3.02627e-19 0.000363186)
(-0.0939033 -0.0546367 4.40702e-20 0.0935219 3.13947e-19 0.000381359)
(-0.0887552 -0.0528619 -4.47414e-19 0.0883571 5.95987e-20 0.00039804)
(-0.0837836 -0.0511003 1.58354e-19 0.0833705 -5.23015e-20 0.000413189)
(-0.0790255 -0.0493686 6.94846e-20 0.0785987 -1.27459e-20 0.000426754)
(-0.0744366 -0.0476768 -1.00282e-19 0.0739979 -2.47136e-19 0.000438666)
(-0.0700427 -0.0460311 -7.36246e-20 0.0695938 -2.53062e-19 0.00044885)
(-0.0658097 -0.0444419 -2.02182e-19 0.0653525 4.22029e-19 0.000457215)
(-0.0617551 -0.0429075 5.73009e-20 0.0612914 -4.14025e-21 0.000463664)
(-0.0578538 -0.0414408 -3.92349e-20 0.0573857 3.85512e-19 0.000468086)
(-0.0541164 -0.0400333 -4.49249e-20 0.0536461 -1.13313e-19 0.000470369)
(-0.0505266 -0.0387015 4.91346e-19 0.0500562 1.34092e-19 0.000470387)
(-0.047089 -0.0374308 -4.55722e-19 0.046621 2.36709e-19 0.000468014)
(-0.0437954 -0.0362428 1.00772e-19 0.0433323 -1.03964e-19 0.000463108)
(-0.0406449 -0.0351164 4.57509e-19 0.0401893 5.89731e-19 0.000455527)
(-0.0376377 -0.0340799 5.11457e-19 0.0371926 1.78962e-19 0.000445113)
(-0.0347659 -0.0331041 -1.55454e-19 0.0343342 4.13505e-19 0.000431703)
(-0.032042 -0.0322268 -5.10182e-19 0.0316269 4.86246e-19 0.000415121)
(-0.029444 -0.0314079 -2.24885e-19 0.0290488 6.52325e-20 0.000395188)
(-0.0270085 -0.0306989 4.44175e-20 0.0266367 -1.43197e-20 0.000371711)
(-0.0246809 -0.0300433 -3.03669e-19 0.0243364 -2.19136e-20 0.000344499)
(-0.0225487 -0.0295152 1.1584e-19 0.0222354 -2.10018e-19 0.000313348)
(-0.0204923 -0.0290278 4.36931e-19 0.0202143 2.85637e-19 0.000278055)
(-0.0186817 -0.0287008 -4.6982e-19 0.0184433 -3.51959e-19 0.000238405)
(-0.0169152 -0.028385 7.4378e-19 0.016721 3.49582e-20 0.000194188)
(-0.0154242 -0.0282987 -2.75868e-19 0.015279 -1.3398e-19 0.000145178)
(-0.0140347 -0.0281222 1.07112e-18 0.0139435 5.39614e-19 9.11625e-05)
(-0.012861 -0.0282944 -6.58458e-19 0.012829 -3.41475e-19 3.19134e-05)
(-0.172223 -0.0571832 6.15502e-20 0.172202 -4.49333e-19 2.12606e-05)
(-0.16605 -0.0636598 6.72179e-21 0.16599 -5.43501e-19 6.00223e-05)
(-0.159368 -0.0677493 2.13437e-19 0.159272 1.80818e-19 9.62419e-05)
(-0.152412 -0.0700091 1.16523e-19 0.152281 -5.85841e-20 0.000130206)
(-0.145442 -0.0710503 -7.75726e-19 0.145279 -1.30147e-19 0.000162142)
(-0.138476 -0.0711286 -2.58294e-20 0.138284 -8.61504e-19 0.000192223)
(-0.131699 -0.0705791 -2.80363e-19 0.131479 -4.86002e-20 0.000220585)
(-0.125048 -0.0695258 -1.28844e-19 0.124801 -2.86691e-19 0.00024733)
(-0.118655 -0.0681565 5.65597e-19 0.118383 5.99627e-19 0.000272533)
(-0.112437 -0.0665346 5.70989e-19 0.112141 -3.13969e-20 0.000296246)
(-0.10649 -0.0647672 -3.00755e-20 0.106172 -4.50841e-20 0.000318506)
(-0.100733 -0.062888 6.68484e-20 0.100394 -8.19395e-19 0.000339326)
(-0.0952346 -0.0609587 -1.90599e-19 0.0948759 1.25035e-19 0.000358711)
(-0.089925 -0.0589981 -5.50738e-20 0.0895484 -7.35443e-19 0.000376647)
(-0.0848538 -0.0570413 1.19922e-19 0.0844607 -9.41212e-20 0.000393109)
(-0.079963 -0.0551003 -1.66621e-20 0.0795549 -1.83963e-19 0.000408055)
(-0.0752884 -0.0531934 -1.32265e-19 0.0748669 1.75044e-19 0.000421436)