/*--------------------------------*- C++ -*----------------------------------*\
| =========                 |                                                 |
| \\      /  F ield         | foam-extend: Open Source CFD                    |
|  \\    /   O peration     | Version:  3.0                                   |
|   \\  /    A nd           | Web:         http://www.extend-project.de       |
|    \\/     M anipulation  |                                                 |
\*---------------------------------------------------------------------------*/
FoamFile
{
    version     2.0;
    format      ascii;
    class       volSymmTensorField;
    location    "0.5";
    object      sigma;
}
// * * * * * * * * * * * * * * * * * * * * * * * * * * * * * * * * * * * * * //

dimensions      [0 0 0 0 0 0 0];

internalField   nonuniform List<symmTensor> 
300
(
(-329.148 653.926 0.00011456 283.949 2.39188e-05 -6.55835e-05)
(765.078 -93.9635 2.31346e-05 -635.522 -0.000258758 2.76902e-05)
(-417.907 210.098 -0.0012223 227.83 -0.00165454 0.00106149)
(-404.372 86.3318 -0.00485143 -11.8288 -0.00514429 0.00410657)
(118.661 -1.91451 -0.0119859 -446.958 -0.0114834 0.0101894)
(-10.9607 13.2317 -0.0221191 28.4227 -0.0198862 0.0189066)
(175.043 1.80199 -0.0306282 -31.6015 -0.0258872 0.0260685)
(33.9432 13.8308 -0.0257476 11.3453 -0.0188352 0.0208119)
(67.6839 1.04577 0.0135036 -7.98097 0.0195011 -0.0162238)
(22.8597 10.2287 0.11587 0.854521 0.112115 -0.110125)
(161.769 -169.172 0.000145712 -63.1819 7.09444e-05 -9.31085e-05)
(48.8326 -236.8 0.000255428 -109.637 -2.14453e-05 -0.000162506)
(-162.312 173.967 -0.000481305 24.4117 -0.00103077 0.000463902)
(-265.56 228.163 -0.0034749 87.5627 -0.00421896 0.00305245)
(133.118 -54.645 -0.0110194 -83.1106 -0.0115694 0.00981631)
(0.947259 125.217 -0.0254418 17.45 -0.0250378 0.0232615)
(69.3385 9.2579 -0.0462473 -24.2534 -0.0439397 0.04349)
(18.0907 53.3599 -0.0633558 4.62607 -0.058581 0.0612465)
(23.2809 7.72563 -0.0435171 -6.19884 -0.0371931 0.0432959)
(5.85826 14.9262 0.0986012 -1.45822 0.0984515 -0.0943761)
(56.3888 -77.1788 0.000153104 -0.448674 9.70628e-05 -0.00010029)
(162.11 -105.492 0.000361629 -152.664 0.000125878 -0.000249457)
(76.0573 124.6 -3.08425e-05 -115.089 -0.000559634 7.99746e-05)
(-65.3457 193.826 -0.00222826 -59.4799 -0.00307344 0.00192815)
(8.13192 16.7874 -0.00839971 55.3382 -0.00932452 0.00731273)
(-1.16286 32.1117 -0.021131 6.50327 -0.0215047 0.0188939)
(31.8133 17.5483 -0.0409715 25.9538 -0.0398315 0.0377898)
(12.4573 10.1314 -0.059735 4.55706 -0.0562916 0.0568745)
(16.3659 8.93575 -0.045204 7.96841 -0.0400548 0.0443195)
(8.00868 1.47151 0.0966514 1.86157 0.0947127 -0.0925488)
(31.5555 16.4598 0.000147581 16.9755 0.00010689 -9.70904e-05)
(9.35511 70.5693 0.000386022 -1.48089 0.000184622 -0.000265462)
(0.583368 116.068 0.000140997 -16.3682 -0.000361306 -4.6493e-05)
(-48.5212 104.903 -0.00168215 -5.81032 -0.00256803 0.00149056)
(19.416 20.8941 -0.00717392 -10.1848 -0.00827851 0.00625362)
(-19.3796 45.1377 -0.0190166 23.1182 -0.0197169 0.0169292)
(10.1827 12.3656 -0.0381874 3.17135 -0.0373529 0.0349836)
(-3.76769 20.329 -0.0572301 11.6405 -0.0537089 0.0540125)
(4.3964 5.64692 -0.044321 1.592 -0.038571 0.0427744)
(-1.09789 6.02196 0.0965519 2.6519 0.0945867 -0.0927822)
(2.74418 -10.9234 0.000137949 55.0244 0.000110118 -9.07545e-05)
(23.7618 36.647 0.000380142 12.3589 0.000206309 -0.000255236)
(21.8791 70.099 0.000200874 -2.92193 -0.000284066 -6.61451e-05)
(-8.37239 83.0029 -0.00143823 -15.4027 -0.00237212 0.00136181)
(3.2752 16.9663 -0.00659479 22.7626 -0.00788044 0.00588934)
(-2.81371 17.9638 -0.018023 6.19509 -0.0190448 0.0162122)
(6.29643 8.61427 -0.0369484 15.3907 -0.0364035 0.0339294)
(2.25118 5.57647 -0.0562761 4.74098 -0.052615 0.052886)
(3.90151 4.03803 -0.0442282 5.98258 -0.0376972 0.0420086)
(2.53035 1.10901 0.096293 1.6953 0.0947435 -0.0930069)
(-2.04497 5.72476 0.00012786 27.2168 0.000110939 -8.44105e-05)
(-23.4606 43.3315 0.000366335 41.1996 0.000215068 -0.000239383)
(-18.0523 53.4605 0.000224687 27.1041 -0.000251049 -5.23807e-05)
(-23.5144 48.8369 -0.00130077 11.4416 -0.00229538 0.00134448)
(-0.159008 18.7065 -0.00625279 5.3012 -0.00774243 0.00579206)
(-14.7856 17.0765 -0.0174473 15.8091 -0.0188365 0.0159876)
(-0.518156 7.00576 -0.0362957 5.39707 -0.0361249 0.0335781)
(-5.6177 6.82891 -0.0559549 8.31784 -0.0522743 0.0524957)
(-0.0582041 2.65922 -0.0446027 2.40017 -0.0373855 0.0417178)
(-1.63515 1.95464 0.095812 2.26749 0.0948326 -0.0931046)
(-3.17687 -12.2154 0.000118554 35.1687 0.000111094 -7.91484e-05)
(-2.66367 16.7653 0.000352853 32.5855 0.000221766 -0.000226074)
(-0.334905 26.5436 0.000242116 23.3367 -0.000225632 -3.62818e-05)
(-6.22105 33.7246 -0.00119067 8.56027 -0.00224383 0.00135267)
(2.61107 9.77646 -0.00597956 12.3659 -0.00766885 0.00577437)
(-2.00246 8.94439 -0.016998 6.22254 -0.0187588 0.0159262)
(1.90056 4.01213 -0.0358233 7.83556 -0.0360629 0.0334715)
(0.256426 2.76112 -0.0558355 3.45522 -0.0522301 0.052372)
(1.0842 1.67319 -0.0451481 3.35098 -0.037374 0.0416207)
(0.865538 0.642309 0.095208 1.10579 0.0948812 -0.0931387)
(-6.43365 -1.81224 0.000110169 18.8256 0.00011109 -7.50822e-05)
(-22.0552 12.648 0.000341682 35.3809 0.000230641 -0.000217709)
(-18.8669 16.9648 0.000262415 28.4681 -0.000191627 -2.95498e-05)
(-17.4269 17.668 -0.00108087 16.7248 -0.00217429 0.00135172)
(-4.86777 8.53775 -0.00571542 8.47322 -0.00756941 0.00575954)
(-9.07049 5.33224 -0.0165699 9.9389 -0.0186589 0.0158938)
(-2.29065 2.86036 -0.0353814 4.40482 -0.0360109 0.0334257)
(-3.67319 1.75887 -0.0557473 4.74262 -0.0522704 0.0523259)
(-0.841996 0.940023 -0.0457173 1.80788 -0.0375175 0.0415887)
(-1.02383 0.415692 0.0945493 1.27031 0.0949273 -0.0931481)
(-0.981774 -10.7121 0.00010242 18.1634 0.000110814 -7.19049e-05)
(-3.79805 1.72615 0.000332446 23.2878 0.000242731 -0.000214327)
(-2.82512 6.07866 0.0002876 19.2054 -0.000142115 -3.67015e-05)
(-4.7854 11.2428 -0.000962218 11.4679 -0.00206579 0.00132501)
(1.099 4.13008 -0.00543761 8.05096 -0.00739895 0.00570903)
(-1.12743 3.58055 -0.0161202 4.93091 -0.0184601 0.015823)
(0.718571 1.6951 -0.0349038 4.27269 -0.0358646 0.0333484)
(-0.0208202 1.16954 -0.0556046 2.28186 -0.0522859 0.0522633)
(0.369153 0.668023 -0.0462211 1.82536 -0.0377356 0.0415569)
(0.345518 0.325293 0.0938834 0.653788 0.0949901 -0.0931513)
(-4.09671 -3.89888 9.49091e-05 10.0241 0.000109841 -6.91488e-05)
(-13.0194 -0.801371 0.000324098 21.046 0.000257501 -0.000215058)
(-12.2104 1.46854 0.000318241 18.4399 -7.38131e-05 -6.04001e-05)
(-10.9904 3.32042 -0.000827645 12.4132 -0.00190404 0.00125849)
(-4.49337 1.98209 -0.00512611 6.71134 -0.00712347 0.00558763)
(-5.00621 0.534005 -0.0156084 5.69084 -0.0181014 0.0156497)
(-1.90312 0.517412 -0.0343217 2.88772 -0.0355354 0.0331476)
(-1.98148 -0.0227396 -0.0553088 2.44442 -0.0521743 0.0520825)
(-0.691672 0.105183 -0.0465528 1.09061 -0.0379448 0.0414489)
(-0.48161 -0.0435323 0.0932614 0.560952 0.0950836 -0.0931667)
(1.2659 -7.47097 8.72479e-05 7.90571 0.000107582 -6.62843e-05)
(-0.843326 -3.04018 0.000315386 12.4273 0.00027338 -0.00021845)
(-0.899109 -0.713127 0.000355164 10.9545 1.49037e-05 -0.000102759)
(-2.39029 2.44989 -0.000666125 7.93769 -0.00167434 0.00113522)
(0.454986 1.13822 -0.0047478 5.02424 -0.00670196 0.00534762)
(-0.493057 1.05586 -0.0149651 3.27586 -0.0175018 0.0152799)
(0.300433 0.557905 -0.033512 2.43329 -0.0348914 0.0326746)
(-0.0248732 0.386781 -0.0546708 1.42858 -0.051757 0.051592)
(0.139254 0.230983 -0.0464955 1.01884 -0.0379697 0.0410895)
(0.174506 0.176126 0.0927864 0.361108 0.0952557 -0.0932496)
(-1.67248 -3.36183 7.90856e-05 4.44341 0.000103365 -6.27566e-05)
(-5.90682 -4.22219 0.000304738 10.3007 0.000287682 -0.000222265)
(-6.03669 -3.16843 0.000398739 9.50599 0.00012337 -0.000164142)
(-5.56138 -1.60982 -0.000462416 6.8313 -0.00136068 0.000936199)
(-2.70854 -0.774085 -0.00425034 3.93634 -0.00607824 0.00492421)
(-2.40884 -0.99878 -0.0140765 2.85243 -0.01654 0.0145742)
(-1.10958 -0.42934 -0.0322694 1.57385 -0.0337186 0.0316899)
(-0.930609 -0.502872 -0.0533515 1.13582 -0.050699 0.0504373)
(-0.399371 -0.194193 -0.0455871 0.557215 -0.0373901 0.0400656)
(-0.170732 -0.093026 0.0927658 0.18411 0.0957361 -0.0936087)
(2.09803 -4.3807 7.01358e-05 2.79211 9.65216e-05 -5.80365e-05)
(1.05077 -3.10329 0.000289991 5.53532 0.000296338 -0.00022318)
(0.58116 -1.86811 0.000446532 5.212 0.000245902 -0.00024027)
(-0.640793 -0.233345 -0.000202271 4.337 -0.000951283 0.000647636)
(0.360672 -0.0286084 -0.00356496 2.83564 -0.0051833 0.00424272)
(-0.102708 0.0928303 -0.0127814 1.92729 -0.0150495 0.0133508)
(0.163078 0.0653622 -0.0303247 1.37326 -0.0317268 0.0298789)
(0.0011198 0.0473499 -0.0509229 0.85539 -0.0485228 0.0481303)
(0.0499516 0.0410747 -0.0430719 0.582269 -0.0354004 0.0376253)
(0.0934214 0.129591 0.0941697 0.202584 0.0974713 -0.0949994)
(-0.345189 -2.19348 6.02453e-05 1.60546 8.65683e-05 -5.17335e-05)
(-1.91647 -3.79786 0.000268348 4.19065 0.000293978 -0.000216895)
(-2.20271 -3.41291 0.000490004 3.99101 0.000367786 -0.000318658)
(-2.15006 -2.37222 0.000115214 2.94056 -0.000452914 0.000275455)
(-1.15277 -1.36881 -0.00262313 1.78231 -0.0039542 0.00324293)
(-0.915086 -1.13835 -0.0108774 1.16536 -0.0128297 0.0114099)
(-0.468477 -0.609057 -0.0274133 0.682867 -0.0286292 0.0269485)
(-0.352331 -0.500787 -0.047316 0.440293 -0.045025 0.0444807)
(-0.178741 -0.23495 -0.0388411 0.234496 -0.0315338 0.0334292)
(-0.0467479 -0.0237933 0.0992115 0.0379535 0.10317 -0.0994843)
(1.94978 -2.19134 4.95253e-05 0.657487 7.349e-05 -4.37851e-05)
(1.5653 -1.95044 0.000237024 2.08799 0.000275033 -0.00019914)
(1.05233 -1.37005 0.000512106 2.17997 0.000462375 -0.000376874)
(0.185521 -0.657782 0.000457026 2.0656 8.49918e-05 -0.000133764)
(0.369705 -0.29657 -0.0014024 1.45539 -0.00238565 0.00193175)
(0.0906072 -0.165849 -0.00811952 1.03217 -0.00965836 0.00856484)
(0.12959 -0.0954239 -0.0231851 0.738482 -0.02412 0.0226343)
(0.0294092 -0.0734371 -0.0436098 0.481798 -0.0412394 0.0405574)
(0.0203868 -0.0386029 -0.0386015 0.331552 -0.0308525 0.032565)
(0.0244319 0.1191 0.102895 0.141938 0.109917 -0.104083)
(0.155929 -1.21197 3.85049e-05 0.394696 5.8072e-05 -3.46651e-05)
(-0.141832 -2.48658 0.000194904 1.26953 0.000236422 -0.000167851)
(-0.337147 -2.39653 0.000489889 1.21045 0.000494825 -0.000387124)
(-0.454911 -1.77909 0.000734314 0.877389 0.000544558 -0.000476066)
(-0.243001 -1.09946 -3.62758e-05 0.543552 -0.000650585 0.000484491)
(-0.179777 -0.820472 -0.00430577 0.304779 -0.0053825 0.00473338)
(-0.0927823 -0.475334 -0.016315 0.186106 -0.0170625 0.0159529)
(-0.0656277 -0.360756 -0.0392622 0.099437 -0.0373183 0.0366698)
(-0.0438145 -0.218249 -0.0627356 0.0596729 -0.0551113 0.0570292)
(-0.0166994 -0.0956267 -0.0234393 0.00431105 -0.0178354 0.0210542)
(1.42829 -0.907908 2.81792e-05 -0.0385731 4.20465e-05 -2.54545e-05)
(1.34069 -0.926845 0.0001448 0.654657 0.000181298 -0.000125758)
(0.941519 -0.713869 0.000407728 0.829504 0.000440307 -0.000331781)
(0.405247 -0.470099 0.000812578 0.903137 0.000752972 -0.000611499)
(0.327797 -0.245412 0.00100237 0.697519 0.000702944 -0.00061749)
(0.14807 -0.163788 -0.000104082 0.516289 -0.00073255 0.000607876)
(0.114938 -0.099392 -0.00442056 0.374932 -0.00511647 0.00467456)
(0.0511246 -0.0739574 -0.0134627 0.249334 -0.0132794 0.0127202)
(0.0297263 -0.0558051 -0.0234388 0.168203 -0.0210636 0.0211529)
(0.0104156 -0.0186188 -0.0118558 0.0837266 -0.00982886 0.0105336)
(0.247652 -0.586908 1.97564e-05 -0.0232798 2.76923e-05 -1.75685e-05)
(0.428798 -1.35324 9.42338e-05 0.106712 0.000120787 -8.09609e-05)
(0.34035 -1.35695 0.00027975 0.0644044 0.000315508 -0.000225245)
(0.186213 -1.02655 0.000627999 0.0159346 0.00062597 -0.000480542)
(0.136494 -0.660377 0.00103858 -0.0048636 0.000911773 -0.000745076)
(0.0993037 -0.464133 0.00106894 -0.0445718 0.000746291 -0.000641741)
(0.0642127 -0.273499 -0.000119915 -0.0263763 -0.000552972 0.000499582)
(0.0455522 -0.184358 -0.00320586 -0.0329636 -0.00335669 0.00315241)
(0.0229862 -0.101106 -0.00679738 -0.0195626 -0.00612112 0.00602373)
(0.0111685 -0.0423908 -0.003622 -0.0216924 -0.00297005 0.00311059)
(0.897584 -0.270884 1.40594e-05 -0.158951 1.6744e-05 -1.21111e-05)
(0.905566 -0.319078 5.14915e-05 0.171915 6.83651e-05 -4.25553e-05)
(0.649172 -0.283246 0.000151841 0.309838 0.000183312 -0.000112731)
(0.355683 -0.240175 0.00036641 0.38372 0.000387685 -0.000258535)
(0.243778 -0.1426 0.000681037 0.324787 0.000640272 -0.000462962)
(0.133586 -0.106907 0.000915747 0.24898 0.000762136 -0.000582954)
(0.0908897 -0.0686439 0.000694688 0.184018 0.00044753 -0.000338302)
(0.0497049 -0.0485098 -0.000305095 0.124939 -0.00048501 0.000482055)
(0.0296503 -0.0312423 -0.00159858 0.0834126 -0.00147755 0.00143836)
(0.0102222 -0.0122461 -0.000904594 0.043565 -0.00072812 0.000756846)
(0.19358 -0.250941 1.10489e-05 -0.115789 9.40747e-06 -9.35328e-06)
(0.470763 -0.622874 1.84351e-05 -0.230689 2.84353e-05 -1.35996e-05)
(0.446025 -0.637824 4.20241e-05 -0.271036 7.29978e-05 -1.37342e-05)
(0.314393 -0.48207 0.000121288 -0.229299 0.000162834 -3.5946e-05)
(0.216702 -0.317127 0.000273104 -0.167197 0.000293251 -9.39471e-05)
(0.151812 -0.213885 0.000436105 -0.133826 0.000396847 -0.000149939)
(0.0949433 -0.128192 0.00045266 -0.0835961 0.000346733 -0.000107695)
(0.0632191 -0.0810268 0.000170718 -0.0611834 5.89906e-05 0.000108655)
(0.0343388 -0.0431116 -0.000265387 -0.0355127 -0.000279533 0.000357633)
(0.0141892 -0.0155011 -0.000171432 -0.021789 -0.000136769 0.000159875)
(0.495266 -0.0158454 1.02011e-05 -0.107714 4.86977e-06 -9.0497e-06)
(0.51941 -0.0447847 -7.60543e-06 0.0564003 -1.79047e-06 7.11983e-06)
(0.378934 -0.0737584 -5.65437e-05 0.135553 -1.88538e-05 7.52787e-05)
(0.237862 -0.0969916 -0.00010929 0.172214 -3.64761e-05 0.000186377)
(0.157338 -0.0686828 -0.000131049 0.154377 -4.33399e-05 0.000313971)
(0.0959771 -0.0591074 -0.000114197 0.119438 -4.79282e-05 0.00043541)
(0.063505 -0.0414909 -9.23162e-05 0.0885818 -7.53741e-05 0.000536285)
(0.038255 -0.0308081 -0.000110336 0.0606134 -0.000133166 0.000581227)
(0.0230777 -0.0200785 -0.000137133 0.040274 -0.000153067 0.000471282)
(0.00858703 -0.00933781 -2.82949e-05 0.0217935 -2.45961e-05 0.00010677)
(0.11281 -0.10145 1.10037e-05 -0.100329 2.12265e-06 -1.09007e-05)
(0.341954 -0.231522 -2.99965e-05 -0.244273 -2.7116e-05 2.13519e-05)
(0.343978 -0.23327 -0.000158955 -0.27704 -0.000107966 0.000164357)
(0.252281 -0.172688 -0.000367394 -0.223831 -0.000246465 0.000442999)
(0.174577 -0.113615 -0.000607929 -0.162216 -0.000426401 0.00083482)
(0.11886 -0.0733894 -0.00081633 -0.118128 -0.000619809 0.00127196)
(0.0742933 -0.044439 -0.000926156 -0.0750807 -0.000776919 0.00164823)
(0.0474511 -0.026648 -0.000870365 -0.0507385 -0.000807407 0.00179934)
(0.0258995 -0.0137561 -0.000589478 -0.0294247 -0.00059461 0.00147074)
(0.00979145 -0.00331722 -0.00011348 -0.0153507 -0.000126851 0.000443904)
(0.233847 0.036376 1.3186e-05 -0.0403783 4.00772e-07 -1.47478e-05)
(0.255785 0.0353028 -5.05227e-05 0.048638 -5.13137e-05 2.92991e-05)
(0.192219 0.00206681 -0.000277832 0.0814379 -0.000209814 0.000259108)
(0.135604 -0.0296372 -0.00070134 0.0890143 -0.000513539 0.00076835)
(0.0907432 -0.0292483 -0.00127649 0.0785777 -0.000958001 0.00157529)
(0.0598907 -0.0304518 -0.00188091 0.0591347 -0.00149241 0.00257257)
(0.0394237 -0.0242643 -0.00233386 0.0430229 -0.00200208 0.00353726)
(0.0250459 -0.0196706 -0.0024105 0.0290231 -0.002265 0.00415897)
(0.0152967 -0.013537 -0.00185571 0.0189069 -0.00192045 0.00392546)
(0.00639147 -0.00665789 -0.000534127 0.0102526 -0.000644089 0.00183505)
(0.0431855 -0.0734298 1.67136e-05 -0.0618071 -7.18936e-07 -2.05134e-05)
(0.1976 -0.0661331 -6.85636e-05 -0.164572 -7.60133e-05 2.92899e-05)
(0.207898 -0.0449271 -0.000417363 -0.188432 -0.000333817 0.000355091)
(0.153748 -0.02726 -0.00114687 -0.149287 -0.00087714 0.00117446)
(0.106577 -0.0156266 -0.0022576 -0.108691 -0.00174668 0.00262648)
(0.0699503 -0.00939463 -0.00356507 -0.0756928 -0.0028778 0.00457724)
(0.042707 -0.00718472 -0.0047153 -0.0483747 -0.00408043 0.00653127)
(0.0254417 -0.00570571 -0.00526372 -0.0312667 -0.00500329 0.00785565)
(0.0132208 -0.00416974 -0.00465142 -0.0181304 -0.0049382 0.00814275)
(0.00406778 -0.000287874 -0.00199447 -0.00864956 -0.00248581 0.00632334)
(0.079537 -0.0327606 2.16182e-05 -0.00103147 -1.40527e-06 -2.79832e-05)
(0.10407 0.011989 -8.13856e-05 0.0562145 -0.000100682 1.88991e-05)
(0.0843488 0.0134871 -0.000569648 0.0609684 -0.000480137 0.000436438)
(0.0690667 -0.00274745 -0.00170979 0.0542632 -0.00135729 0.00163085)
(0.0481249 -0.00874613 -0.00363814 0.0443095 -0.00288416 0.00401115)
(0.0336033 -0.0139693 -0.00611889 0.032077 -0.00498437 0.00751566)
(0.021234 -0.0152511 -0.00842957 0.0229941 -0.00725176 0.0109434)
(0.0132906 -0.0162713 -0.00964363 0.0154015 -0.00908511 0.01186)
(0.00776727 -0.0144047 -0.00919529 0.0098372 -0.00986181 0.0090527)
(0.00246035 -0.0089852 -0.00628434 0.00575586 -0.00782549 0.0109298)
(-0.0112696 -0.165719 2.77239e-05 -0.0261534 -1.75557e-06 -3.65559e-05)
(0.089976 -0.0540956 -8.56246e-05 -0.0798448 -0.000123441 -2.7159e-06)
(0.102315 0.0145818 -0.000714286 -0.0984091 -0.000638202 0.000481147)
(0.0758184 0.0286809 -0.00234637 -0.0768155 -0.00193901 0.00205051)
(0.0522319 0.0270045 -0.00541367 -0.0559908 -0.00441137 0.00558922)
(0.0320275 0.0188671 -0.00973337 -0.0364422 -0.00801548 0.0115268)
(0.0174971 0.00859258 -0.0137505 -0.0217669 -0.011656 0.017831)
(0.00935473 -8.20248e-05 -0.0144448 -0.0131043 -0.0130337 0.015942)
(0.00659288 -0.00467667 -0.0100779 -0.0088006 -0.0108132 -0.0152783)
(0.000443226 -0.00744146 -0.00927431 -0.00367133 -0.0125586 -0.114176)
(-0.00655707 -0.243075 3.43636e-05 0.00543017 -2.00385e-06 -4.51364e-05)
(0.0353384 -0.0988654 -7.99624e-05 0.0531237 -0.000142744 -3.21734e-05)
(0.0349585 -0.0127231 -0.000825272 0.0465582 -0.000789482 0.000476728)
(0.0357384 0.010039 -0.00295323 0.0368641 -0.00255695 0.00231295)
(0.0268922 0.015457 -0.0073949 0.0280352 -0.00624368 0.0069271)
(0.0195246 0.0130854 -0.0144361 0.0210334 -0.0121734 0.0160039)
(0.0108815 0.00651705 -0.0215629 0.0168321 -0.0182766 0.0295463)
(0.00916796 0.000121721 -0.0192932 0.00955451 -0.0161019 0.0403465)
(0.0222911 0.00839074 0.0147608 -0.00990501 0.0153756 0.0209645)
(0.068456 0.0578075 0.119001 -0.063743 0.11556 -0.103531)
(-0.0539832 -0.480295 4.02678e-05 0.00172272 -2.64043e-06 -5.23752e-05)
(0.0337408 -0.20614 -6.79775e-05 -0.016917 -0.000159423 -6.13412e-05)
(0.045957 -0.0207061 -0.000888708 -0.0327379 -0.000918373 0.000441231)
(0.0342745 0.0428113 -0.00340102 -0.0250823 -0.00310397 0.00237948)
(0.0241646 0.0655161 -0.00910919 -0.0184575 -0.00802908 0.00745988)
(0.0139513 0.0687994 -0.0194813 -0.00826454 -0.0170879 0.0179088)
(0.00382126 0.0591378 -0.0338556 0.00187004 -0.0299296 0.0345827)
(-0.00437052 0.0401914 -0.0439592 0.010135 -0.0392148 0.0508545)
(0.00057024 0.0304514 -0.0217322 0.00436444 -0.0180541 0.0369375)
(0.0547755 0.0873828 0.108092 -0.0559949 0.10626 -0.0956705)
(-0.0555378 -0.764121 4.38333e-05 -0.0156068 -4.34499e-06 -5.72676e-05)
(0.0357134 -0.384952 -5.85201e-05 0.0248229 -0.000177679 -8.1703e-05)
(0.0375009 -0.111669 -0.000924057 0.0252186 -0.00103012 0.000420379)
(0.0368698 0.0142608 -0.0036574 0.0210711 -0.00351995 0.00244173)
(0.0290602 0.0808197 -0.0100193 0.0151402 -0.00920938 0.00782777)
(0.0221666 0.126397 -0.0219035 0.0121608 -0.0198658 0.0190018)
(0.0115958 0.15187 -0.0392176 0.0135486 -0.0355647 0.0370039)
(0.000416777 0.151928 -0.054047 0.0177819 -0.0490443 0.0551746)
(-0.00390931 0.127059 -0.03676 0.0148666 -0.0314183 0.0428571)
(0.038788 0.137983 0.09956 -0.0375004 0.100231 -0.0921963)
(-0.0844937 -1.33352 4.39898e-05 0.0238206 -4.89529e-06 -5.96081e-05)
(0.0595863 -0.6302 -5.96249e-05 -0.00227301 -0.000188942 -9.10645e-05)
(0.0708307 -0.179419 -0.000974222 -0.00450915 -0.00111607 0.00042951)
(0.0537179 0.0399542 -0.003909 -0.00400306 -0.0038646 0.00258994)
(0.0383343 0.17617 -0.0107776 -0.0024456 -0.010188 0.00841284)
(0.0261334 0.293914 -0.0235294 -0.000570855 -0.0219727 0.0204755)
(0.0129123 0.408551 -0.0417158 0.00336539 -0.0389601 0.0396062)
(-0.00457409 0.505263 -0.0564229 0.0116216 -0.052592 0.0580922)
(-0.0206736 0.536462 -0.0373743 0.0229733 -0.0320363 0.0437487)
(-0.00485106 0.420653 0.0974665 0.00555457 0.104157 -0.0931043)
)
;

boundaryField
{
    frontAndBack
    {
        type            empty;
    }
    symm
    {
        type            symmetryPlane;
    }
    in
    {
        type            mySigma;
    }
    out
    {
        type            mySigma;
    }
}


// ************************************************************************* //
