/*--------------------------------*- C++ -*----------------------------------*\
| =========                 |                                                 |
| \\      /  F ield         | foam-extend: Open Source CFD                    |
|  \\    /   O peration     | Version:  3.0                                   |
|   \\  /    A nd           | Web:         http://www.extend-project.de       |
|    \\/     M anipulation  |                                                 |
\*---------------------------------------------------------------------------*/
FoamFile
{
    version     2.0;
    format      ascii;
    class       volVectorField;
    location    "0.5";
    object      u;
}
// * * * * * * * * * * * * * * * * * * * * * * * * * * * * * * * * * * * * * //

dimensions      [0 0 0 0 0 0 0];

internalField   nonuniform List<vector> 
300
(
(88330.4 -51300.6 -0.000803639)
(4430.84 65536.8 -0.0012184)
(-12531.1 -14626.8 -0.000983217)
(22545.2 6741.75 0.00165985)
(-819.836 21876.6 0.00979904)
(9248.06 1607.15 0.0280782)
(-2295.53 -830.71 0.0624429)
(2837.17 427.359 0.118893)
(-956.06 -254.106 0.200699)
(1265.73 15.8137 0.323333)
(-3018.7 9247.66 -0.000560695)
(-561.585 -4108.84 -0.000268537)
(-393.541 -5677.13 0.00102918)
(2741.65 -7456.81 0.00492141)
(842.599 7437.88 0.0132824)
(-740.109 -2110.06 0.0273828)
(367.092 2453.74 0.0455372)
(-527.699 -706.701 0.0584756)
(253.853 660.261 0.0437868)
(-360.144 -7.12316 0.075534)
(-7163.46 2404.92 -0.000597934)
(14066.6 4347.25 -0.00038719)
(3850.48 1915.22 0.000786953)
(-106.75 2377.39 0.00462754)
(-878.861 -2232.76 0.0134245)
(1614.63 1145.83 0.0292718)
(-550.45 -877.524 0.0513729)
(838.817 424.759 0.0695415)
(-331.207 -288.898 0.0528731)
(503.746 108.65 0.0888832)
(-4449.41 6327.39 -0.000598266)
(-2406.54 894.964 -0.000425166)
(-1046.79 442.371 0.000685379)
(899.594 -2197.47 0.00447583)
(-359.05 2374.89 0.0134237)
(-140.483 -913.329 0.0300072)
(-58.9477 926.285 0.0539075)
(-139.419 -316.943 0.0749997)
(33.7241 285.842 0.0612851)
(-134.488 -14.8458 0.104271)
(2832.4 -2910.29 -0.000585763)
(3241.46 1055.49 -0.000435456)
(1790.86 752.481 0.000631266)
(335.347 882.037 0.00436647)
(61.5553 -612.107 0.0133358)
(511.884 532.76 0.0302231)
(-93.1159 -311.59 0.0550287)
(274.739 220.093 0.0779564)
(-93.6458 -125.732 0.0678082)
(179.102 80.6263 0.118552)
(-2813.25 2989.97 -0.000568494)
(-1861.9 601.568 -0.000435149)
(-996.763 507.718 0.000591385)
(103.67 -647.059 0.00425334)
(-396.626 766.156 0.0131471)
(-10.6522 -331.523 0.0300722)
(-113.919 320.457 0.0552928)
(-25.6525 -121.837 0.0795056)
(-17.0579 108.218 0.0729957)
(-46.47 -11.0127 0.131202)
(1847.53 -1422.6 -0.000549356)
(1521.93 452.667 -0.000432838)
(982.299 377.689 0.000547016)
(335.97 412.079 0.00410664)
(179.166 -127.373 0.0128341)
(200.354 249.894 0.0295893)
(16.2588 -92.6456 0.0548737)
(95.2467 106.498 0.0799971)
(-18.6337 -46.8681 0.0771306)
(61.4621 45.1816 0.142281)
(-1770.19 1383.67 -0.000528576)
(-1253.04 231.964 -0.000432052)
(-744.727 226.082 0.000489326)
(-115.501 -220.212 0.00391129)
(-276.004 230.084 0.0123831)
(-17.1333 -121.471 0.0287833)
(-83.6615 100.922 0.053832)
(-6.47635 -45.5917 0.0795458)
(-18.8696 37.0625 0.0802986)
(-16.5588 -6.2348 0.151814)
(1153.98 -650.882 -0.000505303)
(850.516 264.613 -0.000434293)
(568.653 245.01 0.000413328)
(235.044 235.747 0.00365835)
(140.71 9.81983 0.0117863)
(90.8292 125.74 0.0276606)
(29.5951 -17.494 0.0522021)
(35.83 51.8474 0.0782086)
(0.872568 -14.7938 0.0825217)
(21.0466 22.6799 0.159778)
(-1099.1 595.662 -0.000478342)
(-787.591 29.5794 -0.000440489)
(-490.526 37.9684 0.000314379)
(-135.505 -105.922 0.00333873)
(-167.747 49.952 0.0110359)
(-23.1425 -52.71 0.0262302)
(-50.0273 25.1613 0.0500296)
(-4.22683 -18.9687 0.0760669)
(-12.1569 10.8779 0.0838566)
(-6.24227 -3.53405 0.166157)
(712.399 -267.913 -0.000446385)
(494.452 190.933 -0.000451153)
(324.794 181.461 0.00018686)
(141.619 150.057 0.00293866)
(88.1106 42.3184 0.0101159)
(43.9606 69.0373 0.0244977)
(21.9288 5.29569 0.0473861)
(14.6695 26.4543 0.0732976)
(4.10952 -3.07121 0.0845368)
(7.58873 10.9616 0.171078)
(-666.302 220.187 -0.000408033)
(-473.508 -60.0768 -0.000465458)
(-295.118 -45.7417 2.51611e-05)
(-100.858 -70.9159 0.0024369)
(-94.4399 -7.35511 0.00898869)
(-19.123 -29.0367 0.0224392)
(-27.0204 1.01074 0.0443491)
(-3.06746 -9.54714 0.0702328)
(-6.41606 2.00833 0.0852569)
(-2.27716 -2.16895 0.175362)
(432.234 -85.2544 -0.000361916)
(284 146.936 -0.000479429)
(177.38 135.336 -0.000171855)
(77.5288 98.3007 0.0018069)
(48.7387 41.8869 0.00757954)
(21.051 40.2202 0.0199403)
(12.934 9.89804 0.0408776)
(6.34764 14.2379 0.0672586)
(3.43336 0.657305 0.0875459)
(3.14024 5.31291 0.182529)
(-392.632 52.8391 -0.00030719)
(-272.077 -85.8952 -0.000483983)
(-164.197 -67.4304 -0.000391465)
(-62.2463 -53.1487 0.00103311)
(-49.4924 -21.1896 0.00577338)
(-12.1106 -18.7426 0.0167024)
(-13.3446 -5.17536 0.0364845)
(-1.64291 -5.63315 0.0640559)
(-2.83351 -0.581619 0.0929165)
(-0.54054 -1.40527 0.203404)
(256.07 -5.2047 -0.000244542)
(157.475 111.121 -0.000464804)
(91.0085 96.7755 -0.000594108)
(38.9838 63.8764 0.000156002)
(24.2299 32.4216 0.00347937)
(9.47453 23.964 0.0122041)
(6.6887 8.73232 0.0297547)
(2.82896 7.96187 0.0577664)
(2.30063 1.46448 0.0966629)
(1.64439 2.63337 0.24823)
(-224.206 -13.0027 -0.000177469)
(-148.382 -80.6104 -0.000407482)
(-84.3737 -61.1959 -0.000708347)
(-33.5682 -39.1215 -0.000651274)
(-23.6858 -20.2184 0.000876337)
(-6.13805 -12.6469 0.00604833)
(-5.76232 -5.47916 0.0180239)
(-0.396492 -3.5422 0.0392203)
(-0.789288 -1.02558 0.0653246)
(0.258052 -0.915325 0.0403591)
(147.341 23.9512 -0.000112706)
(83.0339 80.4251 -0.000310106)
(42.9875 65.7286 -0.000662872)
(17.7325 40.589 -0.00105576)
(10.656 22.343 -0.00107667)
(3.84235 14.2206 0.000182876)
(3.15317 6.26123 0.00417613)
(1.35641 4.45881 0.0123518)
(1.55884 1.26579 0.0243842)
(1.10318 1.33582 0.0128203)
(-123.557 -32.2673 -5.81764e-05)
(-75.8921 -63.8376 -0.000195861)
(-39.3169 -46.3341 -0.000479036)
(-15.6438 -27.2939 -0.000901149)
(-9.79845 -15.2574 -0.00133115)
(-2.21189 -8.3985 -0.00139993)
(-1.82957 -4.23219 -0.000426137)
(0.413597 -2.2966 0.00241362)
(0.22103 -0.920619 0.00733788)
(0.663963 -0.591813 0.00413394)
(81.9915 29.5951 -1.82533e-05)
(40.9424 55.4604 -0.000100624)
(17.9562 42.4994 -0.000294049)
(6.9192 25.0859 -0.000606227)
(3.90055 14.2884 -0.000989174)
(1.33743 8.30104 -0.00127873)
(1.42717 4.03961 -0.00114239)
(0.798364 2.47822 -0.000146427)
(1.11195 0.875778 0.00182154)
(0.942558 0.682839 0.00118739)
(-65.2722 -32.303 8.64469e-06)
(-35.5306 -45.7372 -3.81278e-05)
(-15.685 -31.6369 -0.000177936)
(-5.69509 -17.9932 -0.000409676)
(-2.86434 -10.2442 -0.000699479)
(-0.0244963 -5.3519 -0.000952679)
(0.0791737 -2.84459 -0.000991494)
(0.875356 -1.43404 -0.000596938)
(0.725496 -0.651283 0.000247303)
(0.875311 -0.371334 0.00029942)
(44.0319 25.8201 2.71443e-05)
(18.3678 36.5098 -5.21667e-06)
(5.9354 26.2671 -0.000140851)
(1.94145 15.0397 -0.000376794)
(0.959404 8.62627 -0.000675497)
(0.400961 4.73125 -0.000948908)
(0.732601 2.42435 -0.0010562)
(0.655595 1.35412 -0.000846809)
(0.936997 0.54406 -0.00031942)
(0.914411 0.350618 2.87272e-05)
(-32.7058 -26.0455 4.18953e-05)
(-14.3231 -30.5541 5.40924e-06)
(-4.26744 -20.1079 -0.000174419)
(-0.762216 -11.2552 -0.000516079)
(0.265847 -6.36155 -0.000988564)
(1.00654 -3.2554 -0.00148404)
(0.904545 -1.75529 -0.0018131)
(1.08118 -0.858528 -0.00174496)
(0.949659 -0.412856 -0.00114774)
(0.972871 -0.224366 -0.000250517)
(22.9599 19.485 5.64551e-05)
(7.07334 23.038 -8.31473e-07)
(0.821961 15.5737 -0.000271659)
(0.00473689 8.73315 -0.000835002)
(-0.047826 4.95435 -0.0017075)
(0.187965 2.61841 -0.00277668)
(0.540952 1.36766 -0.00375419)
(0.669957 0.716953 -0.00416674)
(0.885115 0.307108 -0.00344292)
(0.925277 0.176913 -0.00129216)
(-15.3486 -19.2164 7.32965e-05)
(-3.94929 -19.3705 -2.11599e-05)
(0.673162 -12.0887 -0.000429711)
(1.35773 -6.70895 -0.00134667)
(1.46589 -3.71034 -0.00291768)
(1.38426 -1.88726 -0.00510908)
(1.19014 -1.01597 -0.00756394)
(1.13452 -0.494072 -0.00945739)
(1.02637 -0.250013 -0.00934662)
(1.01436 -0.131218 -0.0053552)
(12.0518 13.7069 9.39601e-05)
(1.94572 14.0931 -5.39724e-05)
(-0.89988 8.91666 -0.000645186)
(-0.473796 4.92751 -0.00205301)
(-0.176213 2.72447 -0.00467044)
(0.270603 1.40798 -0.00871715)
(0.561922 0.727042 -0.0139515)
(0.725648 0.359615 -0.0193045)
(0.87979 0.142482 -0.0223509)
(0.944505 0.0785414 -0.0194557)
(-6.77986 -14.2236 0.000118778)
(0.633039 -11.9218 -9.71706e-05)
(2.4496 -6.97608 -0.000908343)
(2.07032 -3.8315 -0.00292202)
(1.78709 -2.03973 -0.00689386)
(1.455 -1.03603 -0.0135151)
(1.24058 -0.552881 -0.0230084)
(1.10834 -0.274115 -0.0345591)
(1.02615 -0.163182 -0.0452769)
(1.02508 -0.0845382 -0.056678)
(7.02508 9.96035 0.000146107)
(-0.140695 8.8113 -0.000147982)
(-1.17118 5.1113 -0.00120167)
(-0.346799 2.79832 -0.00388051)
(0.0411527 1.48835 -0.00933076)
(0.464579 0.780493 -0.0187296)
(0.68029 0.406758 -0.0327723)
(0.797798 0.209083 -0.0512923)
(0.909429 0.0993718 -0.0716341)
(0.953845 0.00948741 -0.0609358)
(-3.10792 -12.2485 0.000171666)
(2.37238 -7.70294 -0.000205964)
(2.87369 -4.07907 -0.00151055)
(2.20498 -2.16263 -0.00485814)
(1.80336 -1.06399 -0.0116975)
(1.4775 -0.531599 -0.0232226)
(1.29432 -0.266572 -0.0386525)
(1.17883 -0.149408 -0.0513463)
(1.09896 -0.104452 -0.0403133)
(1.02721 -0.108254 -0.032023)
(4.68904 9.35195 0.000194333)
(-1.33402 6.89394 -0.000256761)
(-1.1478 3.52993 -0.00179216)
(-0.118688 1.91784 -0.00577291)
(0.345655 0.978077 -0.0139739)
(0.722206 0.563604 -0.0277949)
(0.920915 0.322865 -0.0458761)
(1.02253 0.198208 -0.0584941)
(1.10067 0.116693 -0.035361)
(1.00427 -0.00123551 -0.0283385)
(-1.71438 -14.3192 4.81064e-07)
(-0.28653 -6.38358 -0.00108688)
(0.888714 -2.94267 -0.0037456)
(1.181 -1.39373 -0.00944302)
(1.25454 -0.649358 -0.0194274)
(1.34027 -0.334157 -0.0329116)
(1.38083 -0.196138 -0.042738)
(1.48486 -0.202729 -0.0264775)
(1.46099 -0.328534 0.070165)
(1.36903 -0.395633 0.225803)
)
;

boundaryField
{
    frontAndBack
    {
        type            empty;
    }
    symm
    {
        type            symmetryPlane;
    }
    in
    {
        type            myVelocity;
    }
    out
    {
        type            fixedValue;
        value           uniform (1 0 0);
    }
}


// ************************************************************************* //
