/*--------------------------------*- C++ -*----------------------------------*\
| =========                 |                                                 |
| \\      /  F ield         | foam-extend: Open Source CFD                    |
|  \\    /   O peration     | Version:  3.0                                   |
|   \\  /    A nd           | Web:         http://www.extend-project.de       |
|    \\/     M anipulation  |                                                 |
\*---------------------------------------------------------------------------*/
FoamFile
{
    version     2.0;
    format      ascii;
    class       volScalarField;
    location    "13";
    object      p;
}
// * * * * * * * * * * * * * * * * * * * * * * * * * * * * * * * * * * * * * //

dimensions      [0 0 0 0 0 0 0];

internalField   nonuniform List<scalar> 
576
(
-6.58262
-6.60164
-5.20196
-5.14258
-4.50941
-4.37918
-4.24498
-3.96447
-4.22912
-3.87206
-4.2372
-4.13455
-6.46759
-6.48722
-5.11133
-5.05424
-4.43173
-4.30392
-4.17238
-3.89665
-4.15699
-3.80617
-4.16506
-4.06422
-6.24689
-6.26503
-4.93671
-4.88048
-4.27955
-4.1561
-4.02863
-3.76246
-4.01373
-3.67483
-4.02141
-3.92403
-5.91453
-5.93243
-4.67441
-4.6219
-4.05291
-3.93606
-3.81564
-3.56358
-3.80166
-3.48075
-3.80899
-3.7168
-5.48547
-5.50116
-4.33492
-4.28552
-3.758
-3.64953
-3.53773
-3.304
-3.5247
-3.2271
-3.53144
-3.44594
-4.95831
-4.97322
-3.91902
-3.87466
-3.39783
-3.29992
-3.1989
-2.98768
-3.18723
-2.91822
-3.19337
-3.11608
-4.35025
-4.36251
-3.43771
-3.3986
-2.98028
-2.89434
-2.8057
-2.62042
-2.7954
-2.55951
-2.80077
-2.733
-3.66433
-3.67523
-2.89626
-2.86352
-2.5111
-2.43882
-2.36416
-2.20814
-2.35554
-2.15689
-2.36011
-2.30305
-2.91842
-2.92668
-2.30633
-2.28019
-1.99953
-1.94194
-1.88247
-1.75826
-1.87552
-1.7175
-1.87917
-1.8338
-2.12064
-2.1268
-1.67611
-1.65723
-1.45332
-1.41151
-1.36833
-1.27815
-1.36327
-1.24862
-1.36599
-1.33309
-1.28784
-1.2914
-1.01784
-1.00635
-0.882579
-0.857195
-0.830949
-0.776312
-0.82779
-0.758459
-0.829499
-0.809625
-0.432279
-0.433307
-0.34175
-0.337939
-0.296497
-0.288048
-0.27921
-0.261104
-0.278073
-0.255263
-0.278777
-0.272271
0.430273
0.431875
0.339933
0.336061
0.29452
0.285903
0.277231
0.258501
0.276351
0.252264
0.276683
0.269718
1.28566
1.28985
1.01595
1.00442
0.880596
0.855016
0.828985
0.773718
0.826073
0.7555
0.827422
0.807103
2.11897
2.12567
1.67451
1.65552
1.45157
1.40946
1.36654
1.27568
1.36164
1.2458
1.36399
1.33067
2.91606
2.92516
2.30447
2.27832
1.99775
1.93979
1.88072
1.75582
1.87392
1.71479
1.87723
1.83147
3.66326
3.67457
2.89499
2.86212
2.50973
2.43693
2.36272
2.20592
2.35413
2.15444
2.35834
2.30094
4.34779
4.36112
3.43599
3.39695
2.97879
2.89237
2.8043
2.61828
2.79405
2.55724
2.7991
2.73103
4.95794
4.97304
3.9182
3.87365
3.39688
3.29832
3.19789
2.98583
3.18617
2.91627
3.19197
3.1144
5.48325
5.49988
4.33337
4.28407
3.75685
3.64783
3.53677
3.30231
3.52377
3.22542
3.53022
3.44448
5.91475
5.9326
4.6744
4.62119
4.05255
3.93493
3.81513
3.56228
3.80108
3.47937
3.80807
3.71562
6.24505
6.26381
4.93546
4.87923
4.2789
4.1547
4.02821
3.7613
4.01335
3.6738
4.02076
3.92319
6.46849
6.48785
5.11207
5.05379
4.43204
4.30339
4.17237
3.89597
4.15695
3.80536
4.16465
4.06364
6.58126
6.60088
5.20121
5.14188
4.50936
4.37844
4.24515
3.96397
4.22943
3.87182
4.23729
4.13455
6.58142
6.60097
5.20136
5.14199
4.50951
4.37858
4.24528
3.96416
4.22954
3.87203
4.23743
4.13473
6.46897
6.48811
5.11251
5.05412
4.43251
4.3038
4.17279
3.89652
4.15728
3.806
4.16507
4.06416
6.24584
6.26424
4.93619
4.87978
4.27967
4.15539
4.02889
3.76221
4.0139
3.67484
4.02145
3.92405
5.91585
5.93319
4.67542
4.62194
4.05361
3.93587
3.81607
3.56353
3.80184
3.48081
3.80902
3.71681
5.48463
5.50062
4.33465
4.28502
3.75819
3.64902
3.53795
3.30388
3.52473
3.22722
3.53142
3.44597
4.95958
4.97394
3.91971
3.87478
3.39848
3.29973
3.1993
2.9877
3.18731
2.91842
3.1934
3.11618
4.34967
4.36215
3.43771
3.39825
2.98061
2.89398
2.80591
2.6204
2.79536
2.55968
2.80074
2.73306
3.66533
3.67573
2.8969
2.86357
2.51175
2.43871
2.36452
2.20827
2.35558
2.15715
2.36016
2.30318
2.91829
2.92642
2.30652
2.2799
1.99992
1.94172
1.88267
1.75836
1.8755
1.71771
1.8792
1.8339
2.12131
2.12703
1.67668
1.65722
1.45387
1.41151
1.3686
1.27835
1.36333
1.24887
1.36608
1.33323
1.28805
1.29127
1.01817
1.00619
0.882956
0.857152
0.83113
0.776481
0.827835
0.758672
0.82959
0.809761
0.432707
0.43338
0.342201
0.337921
0.296911
0.288108
0.27942
0.26131
0.278167
0.255483
0.278901
0.27243
-0.429948
-0.431849
-0.339542
-0.336076
-0.294153
-0.28582
-0.277028
-0.2583
-0.276232
-0.252058
-0.276544
-0.269548
-1.28541
-1.28981
-1.0156
-1.00441
-0.88027
-0.854926
-0.828796
-0.77354
-0.825941
-0.755318
-0.827277
-0.806931
-2.11861
-2.12549
-1.67408
-1.65542
-1.45118
-1.40929
-1.36627
-1.27546
-1.36144
-1.2456
-1.3638
-1.33047
-2.91596
-2.92509
-2.30418
-2.2783
-1.99745
-1.93969
-1.88051
-1.75567
-1.87374
-1.71466
-1.87705
-1.8313
-3.66292
-3.67422
-2.89455
-2.86193
-2.50929
-2.43671
-2.36236
-2.20568
-2.35379
-2.15424
-2.35804
-2.3007
-4.34764
-4.36099
-3.43569
-3.39694
-2.97848
-2.89228
-2.80406
-2.61818
-2.7938
-2.55718
-2.79885
-2.7309
-4.9578
-4.97258
-3.91792
-3.87338
-3.39647
-3.29811
-3.19748
-2.98563
-3.18571
-2.91611
-3.19153
-3.11415
-5.48277
-5.49959
-4.33288
-4.28413
-3.75648
-3.64784
-3.53653
-3.30237
-3.52354
-3.22553
-3.53002
-3.44445
-5.91494
-5.93216
-4.67452
-4.62099
-4.05232
-3.9349
-3.81479
-3.56225
-3.80062
-3.47933
-3.80771
-3.71538
-6.24421
-6.26328
-4.93459
-4.87926
-4.27837
-4.15477
-4.02795
-3.76156
-4.01314
-3.6741
-4.02075
-3.92322
-6.46907
-6.48778
-5.11251
-5.05387
-4.43184
-4.30365
-4.172
-3.89607
-4.15645
-3.80538
-4.16422
-4.06344
-6.58013
-6.59989
-5.20012
-5.14177
-4.5087
-4.37833
-4.24485
-3.96422
-4.22905
-3.87222
-4.23713
-4.13468
)
;

boundaryField
{
    out
    {
        type            implicitExtrapolation;
    }
    in
    {
        type            implicitExtrapolation;
    }
    frontAndBack
    {
        type            empty;
    }
}


// ************************************************************************* //
