/*--------------------------------*- C++ -*----------------------------------*\
| =========                 |                                                 |
| \\      /  F ield         | foam-extend: Open Source CFD                    |
|  \\    /   O peration     | Version:  3.0                                   |
|   \\  /    A nd           | Web:         http://www.extend-project.de       |
|    \\/     M anipulation  |                                                 |
\*---------------------------------------------------------------------------*/
FoamFile
{
    version     2.0;
    format      ascii;
    class       volSymmTensorField;
    location    "5";
    object      sigma;
}
// * * * * * * * * * * * * * * * * * * * * * * * * * * * * * * * * * * * * * //

dimensions      [0 0 0 0 0 0 0];

internalField   nonuniform List<symmTensor> 
7680
(
(-0.173327 -0.00240166 -4.1523e-21 0.173313 1.81352e-20 1.46981e-05)
(-0.173488 -0.002875 5.07374e-21 0.173445 8.32842e-20 4.31732e-05)
(-0.171447 -0.00319099 4.53086e-21 0.171377 2.48658e-21 7.09173e-05)
(-0.167867 -0.00339638 1.65957e-21 0.167769 -2.16633e-21 9.75354e-05)
(-0.163296 -0.00351952 -8.49298e-22 0.163173 1.47553e-20 0.000122664)
(-0.158069 -0.00358351 -2.70745e-21 0.157923 2.88508e-20 0.000145996)
(-0.152452 -0.00360415 6.87832e-21 0.152285 1.53462e-20 0.000167228)
(-0.146611 -0.00359322 -2.01635e-21 0.146425 -1.63175e-20 0.000186117)
(-0.140681 -0.00355963 4.32527e-21 0.140479 1.70896e-20 0.000202417)
(-0.134742 -0.00350977 6.69014e-21 0.134526 -1.07992e-20 0.000215949)
(-0.128864 -0.00344875 -1.72059e-21 0.128637 -9.58927e-21 0.000226519)
(-0.123085 -0.00338016 7.53992e-21 0.122851 -1.00466e-21 0.000234003)
(-0.11744 -0.00330696 1.2158e-20 0.117202 -3.58263e-20 0.000238256)
(-0.111946 -0.00323128 -8.95287e-21 0.111706 -2.53686e-21 0.000239202)
(-0.106619 -0.00315481 -2.32499e-20 0.106383 6.88972e-21 0.000236736)
(-0.101467 -0.00307889 -2.25078e-21 0.101236 3.6114e-21 0.000230832)
(-0.0964966 -0.00300447 -2.94708e-21 0.0962752 -8.10011e-21 0.000221427)
(-0.0917087 -0.00293246 -1.31359e-20 0.0915001 4.05302e-20 0.000208554)
(-0.0871061 -0.00286338 8.17473e-21 0.0869139 1.39371e-20 0.000192203)
(-0.0826883 -0.00279787 -8.92727e-21 0.0825158 3.9215e-20 0.000172486)
(-0.0784553 -0.00273623 -3.36015e-20 0.0783058 4.60425e-21 0.000149471)
(-0.0744067 -0.00267894 -2.62951e-20 0.0742833 2.04785e-20 0.000123382)
(-0.0705414 -0.00262614 -3.03713e-20 0.070447 1.44758e-20 9.43993e-05)
(-0.0668603 -0.00257825 -1.44534e-20 0.0667974 4.71014e-20 6.28914e-05)
(-0.0633619 -0.00253533 -2.60294e-20 0.0633327 -1.51527e-20 2.9194e-05)
(-0.0600488 -0.00249776 -4.11931e-20 0.060055 3.01327e-20 -6.13613e-06)
(-0.05692 -0.00246556 -1.66537e-20 0.0569626 4.44445e-20 -4.25637e-05)
(-0.0539802 -0.00243914 8.18795e-22 0.0540595 4.3093e-20 -7.92989e-05)
(-0.051229 -0.00241849 -1.48804e-20 0.0513445 2.34547e-20 -0.000115556)
(-0.0486738 -0.00240405 -3.14682e-20 0.048824 1.00491e-20 -0.000150263)
(-0.0463152 -0.00239582 -2.11309e-20 0.0464975 -6.0299e-21 -0.000182326)
(-0.0441633 -0.00239431 -9.26427e-21 0.0443736 -1.18679e-20 -0.00021033)
(-0.04222 -0.00239951 6.73649e-21 0.0424528 -1.94579e-20 -0.000232806)
(-0.0404985 -0.00241204 -5.58913e-21 0.0407465 7.44402e-21 -0.00024793)
(-0.0390021 -0.00243184 -2.41222e-20 0.0392559 3.54241e-21 -0.000253769)
(-0.0377477 -0.00245999 -3.84203e-20 0.0379957 1.35622e-20 -0.000248009)
(-0.0367388 -0.00249444 -2.11069e-20 0.0369669 -3.54347e-20 -0.000228155)
(-0.036003 -0.00254574 7.27618e-21 0.0361943 1.69661e-21 -0.000191305)
(-0.0355167 -0.00257747 -1.5009e-20 0.035651 -1.22015e-20 -0.000134288)
(-0.0354059 -0.00268693 -5.94373e-21 0.0354594 -4.02913e-20 -5.35105e-05)
(-0.173232 -0.00739239 1.93816e-20 0.173217 -1.02687e-20 1.46254e-05)
(-0.173274 -0.00876252 4.16793e-22 0.173231 5.52409e-20 4.29675e-05)
(-0.171148 -0.00966579 -2.56968e-20 0.171078 -4.53636e-20 7.05864e-05)
(-0.167506 -0.0102416 7.73406e-21 0.167409 2.26827e-20 9.70881e-05)
(-0.162892 -0.010574 2.38716e-20 0.16277 -3.52491e-20 0.000122108)
(-0.157635 -0.0107308 -2.04128e-21 0.15749 2.27448e-20 0.000145337)
(-0.151998 -0.0107588 -1.3112e-20 0.151832 8.95794e-21 0.000166472)
(-0.146145 -0.0106927 -9.12569e-21 0.145959 8.03758e-21 0.00018527)
(-0.140208 -0.0105586 4.40133e-21 0.140006 1.0224e-19 0.000201485)
(-0.134266 -0.0103757 6.74397e-21 0.134051 5.3567e-20 0.000214937)
(-0.128388 -0.0101585 7.81586e-21 0.128163 -1.61983e-20 0.000225433)
(-0.122612 -0.00991805 -7.08242e-21 0.122379 3.97721e-21 0.00023285)
(-0.116972 -0.00966275 2.89916e-21 0.116735 4.81988e-21 0.000237041)
(-0.111484 -0.00939892 1.33748e-20 0.111246 -9.01765e-21 0.000237933)
(-0.106165 -0.00913153 -7.48379e-21 0.105929 -2.91936e-20 0.000235419)
(-0.10102 -0.00886444 -1.74381e-20 0.10079 -4.72634e-20 0.000229476)
(-0.0960569 -0.00860048 1.80326e-20 0.0958368 5.39088e-20 0.000220038)
(-0.0912768 -0.00834219 1.81352e-20 0.0910696 -3.1568e-20 0.000207142)
(-0.086682 -0.00809111 -6.32148e-21 0.0864912 7.77595e-20 0.000190776)
(-0.0822718 -0.00784905 -2.09817e-20 0.0821008 -1.15183e-20 0.000171052)
(-0.0780462 -0.00761679 -4.56063e-20 0.0778982 2.27513e-20 0.000148042)
(-0.0740047 -0.00739573 -1.00029e-20 0.0738827 -1.26153e-20 0.000121965)
(-0.0701461 -0.0071862 1.42273e-21 0.0700531 3.4445e-20 9.30043e-05)
(-0.0664712 -0.00698941 -4.49046e-20 0.0664096 -4.59776e-20 6.15271e-05)
(-0.0629784 -0.00680544 -4.89594e-20 0.0629505 2.18146e-20 2.78698e-05)
(-0.0596704 -0.00663543 2.29593e-20 0.0596778 8.67258e-22 -7.4115e-06)
(-0.0565459 -0.00647932 -5.08622e-21 0.0565897 4.87295e-20 -4.37821e-05)
(-0.0536099 -0.00633828 -1.77073e-20 0.0536903 1.87059e-21 -8.04512e-05)
(-0.0508618 -0.0062122 -3.83801e-20 0.0509784 1.27103e-20 -0.000116636)
(-0.0483089 -0.00610237 -3.24354e-20 0.0484601 2.2034e-20 -0.000151261)
(-0.0459518 -0.00600864 -3.98e-20 0.046135 1.90667e-20 -0.000183236)
(-0.0438006 -0.00593247 -3.78239e-20 0.0440118 1.52691e-20 -0.000211146)
(-0.0418571 -0.00587375 2.77209e-20 0.0420907 -9.06081e-21 -0.000233524)
(-0.0401346 -0.00583416 2.61556e-20 0.0403832 -4.89524e-20 -0.000248545)
(-0.0386362 -0.00581349 -1.76188e-20 0.0388905 1.22809e-20 -0.000254281)
(-0.0373787 -0.00581446 -7.05099e-20 0.0376271 -1.68912e-21 -0.000248416)
(-0.036366 -0.00583284 -5.37009e-20 0.0365944 -6.69248e-21 -0.000228462)
(-0.035624 -0.00588963 1.5863e-20 0.0358155 1.80203e-20 -0.000191515)
(-0.0351344 -0.00591883 -7.04196e-20 0.0352688 -4.91426e-21 -0.000134412)
(-0.0350106 -0.00608358 1.82362e-20 0.0350642 1.69919e-20 -5.35533e-05)
(-0.17304 -0.0123884 3.24302e-20 0.173025 8.04988e-21 1.44884e-05)
(-0.172846 -0.0146363 -5.9817e-21 0.172804 5.51344e-20 4.25609e-05)
(-0.170552 -0.0161133 -4.27062e-21 0.170483 -4.53713e-20 6.99288e-05)
(-0.166789 -0.0170494 9.61462e-21 0.166693 5.52707e-20 9.61989e-05)
(-0.16209 -0.0175837 7.22695e-21 0.161969 -5.04922e-20 0.000121007)
(-0.156774 -0.017828 3.23136e-20 0.15663 -2.13052e-21 0.000144043)
(-0.151098 -0.0178596 5.10926e-21 0.150933 -2.30468e-20 0.000165006)
(-0.145221 -0.0177357 6.39362e-20 0.145037 -6.94894e-21 0.00018365)
(-0.139271 -0.0174996 4.51306e-20 0.139071 3.24362e-20 0.000199732)
(-0.133325 -0.0171824 -6.46573e-20 0.133112 -3.04401e-20 0.000213068)
(-0.12745 -0.0168088 -3.33015e-20 0.127226 -4.21193e-20 0.000223466)
(-0.12168 -0.0163963 2.28501e-20 0.12145 1.57194e-21 0.000230801)
(-0.116051 -0.0159591 6.61061e-21 0.115816 -6.36823e-21 0.000234926)
(-0.110575 -0.0155075 -3.39231e-20 0.11034 -7.23387e-21 0.000235766)
(-0.105271 -0.0150498 -6.11348e-20 0.105038 8.76461e-20 0.000233214)
(-0.100142 -0.0145923 5.78328e-20 0.0999145 4.17818e-20 0.000227246)
(-0.0951955 -0.0141396 1.33516e-20 0.0949777 1.06861e-19 0.000217798)
(-0.0904323 -0.0136958 2.37772e-21 0.0902274 5.82382e-20 0.000204903)
(-0.0858544 -0.0132636 4.65503e-20 0.0856659 -5.10516e-20 0.000188554)
(-0.0814609 -0.0128458 -5.90414e-20 0.081292 3.36757e-20 0.000168861)
(-0.0772515 -0.0124438 -3.01602e-20 0.0771056 -8.40217e-21 0.000145896)
(-0.0732255 -0.0120597 -2.14132e-20 0.0731056 3.08191e-20 0.000119879)
(-0.0693817 -0.0116942 -5.31911e-20 0.0692907 -5.62228e-21 9.09943e-05)
(-0.0657206 -0.0113492 -3.20837e-20 0.065661 3.31849e-20 5.96075e-05)
(-0.0622408 -0.0110249 1.47682e-20 0.0622147 9.42191e-20 2.60555e-05)
(-0.0589445 -0.010723 -1.59477e-20 0.0589536 8.23128e-20 -9.10755e-06)
(-0.0558308 -0.0104435 -3.68864e-21 0.0558761 8.81783e-20 -4.53468e-05)
(-0.0529041 -0.0101882 -2.93564e-20 0.052986 3.50936e-20 -8.18748e-05)
(-0.0501641 -0.00995709 1.11167e-20 0.050282 2.99013e-20 -0.000117908)
(-0.0476179 -0.0097521 -1.83692e-20 0.0477702 -4.65941e-21 -0.000152378)
(-0.045266 -0.00957304 -1.89109e-20 0.0454502 -1.03014e-20 -0.000184192)
(-0.0431185 -0.00942228 -4.33993e-20 0.0433304 9.95864e-20 -0.000211942)
(-0.0411771 -0.00929958 -7.54325e-20 0.0414112 5.64713e-20 -0.000234162)
(-0.0394548 -0.00920771 1.83915e-20 0.0397038 -1.55899e-19 -0.000249031)
(-0.0379549 -0.0091463 2.26269e-20 0.0382095 6.90443e-20 -0.000254626)
(-0.0366939 -0.0091197 -5.9094e-20 0.0369425 -2.63096e-20 -0.000248635)
(-0.0356761 -0.00912154 -1.22668e-20 0.0359047 5.94549e-21 -0.000228575)
(-0.0349249 -0.00918302 5.6767e-23 0.0351164 6.12912e-20 -0.000191548)
(-0.0344306 -0.00920933 -2.28311e-20 0.034565 3.95052e-21 -0.000134396)
(-0.0342861 -0.00942782 -2.09198e-20 0.0343396 3.44123e-20 -5.35283e-05)
(-0.172749 -0.0173925 5.06893e-20 0.172734 -5.31842e-21 1.43316e-05)
(-0.172206 -0.0204873 -6.28895e-21 0.172164 -4.37825e-20 4.21139e-05)
(-0.169663 -0.0225153 -3.90029e-20 0.169594 1.32363e-19 6.92088e-05)
(-0.165721 -0.0237952 4.01568e-20 0.165625 -2.12787e-19 9.52249e-05)
(-0.160895 -0.0245194 -1.56034e-20 0.160775 2.65533e-20 0.000119798)
(-0.155492 -0.0248425 1.64805e-20 0.15535 4.74272e-20 0.00014262)
(-0.14976 -0.0248715 -1.52423e-20 0.149596 1.4514e-20 0.00016339)
(-0.143847 -0.0246856 3.04215e-20 0.143665 -4.56759e-21 0.000181862)
(-0.137879 -0.0243446 1.63164e-20 0.137681 -7.35232e-20 0.000197791)
(-0.131927 -0.0238916 -3.07959e-20 0.131716 -6.41038e-20 0.000210997)
(-0.126055 -0.0233606 2.21172e-20 0.125834 1.00206e-20 0.000221284)
(-0.120297 -0.022776 1.71209e-20 0.120068 -1.01491e-20 0.000228527)
(-0.114683 -0.0221572 1.27361e-20 0.114451 -8.90913e-20 0.000232579)
(-0.109228 -0.0215187 8.19296e-20 0.108994 7.74485e-20 0.000233364)
(-0.103946 -0.0208716 2.8809e-20 0.103715 9.55301e-20 0.000230774)
(-0.098841 -0.0202248 -2.32936e-20 0.0986163 2.0582e-19 0.000224786)
(-0.0939201 -0.0195846 7.07699e-20 0.0937048 -8.88189e-20 0.000215335)
(-0.0891827 -0.0189568 -1.21919e-19 0.0889802 9.87119e-20 0.000202455)
(-0.0846306 -0.0183449 -2.05755e-20 0.0844445 -4.2397e-20 0.000186137)
(-0.0802625 -0.0177528 2.05782e-20 0.080096 4.37336e-20 0.000166495)
(-0.076078 -0.0171824 -4.74241e-20 0.0759344 -4.82593e-20 0.000143598)
(-0.0720759 -0.0166367 -3.94928e-21 0.0719582 1.19486e-21 0.000117669)
(-0.0682549 -0.0161166 -1.20861e-21 0.0681661 6.84257e-20 8.88881e-05)
(-0.0646153 -0.0156246 3.95526e-20 0.0645577 9.30153e-20 5.7624e-05)
(-0.0611556 -0.015161 1.69748e-20 0.0611314 -4.03064e-21 2.42105e-05)
(-0.0578779 -0.0147283 3.5174e-20 0.0578887 4.96891e-20 -1.07979e-05)
(-0.054781 -0.0143263 -3.37921e-20 0.0548278 9.73038e-20 -4.68702e-05)
(-0.0518692 -0.0139577 -7.34068e-20 0.0519525 8.76621e-20 -8.32193e-05)
(-0.0491423 -0.0136221 -6.85412e-20 0.0492614 5.67196e-21 -0.000119067)
(-0.0466071 -0.0133225 -8.04542e-20 0.0467604 1.06781e-19 -0.000153344)
(-0.0442641 -0.0130585 7.10302e-20 0.0444491 8.8211e-20 -0.000184968)
(-0.0421231 -0.0128333 7.02046e-20 0.0423356 6.26721e-20 -0.000212529)
(-0.0401859 -0.0126467 -2.49078e-19 0.0404205 1.35188e-19 -0.000234568)
(-0.0384652 -0.0125024 -5.88261e-21 0.0387145 1.66012e-20 -0.000249272)
(-0.0369644 -0.0124 1.31854e-19 0.0372191 1.16591e-19 -0.000254721)
(-0.0356994 -0.0123453 -1.42955e-19 0.035948 5.25764e-20 -0.000248611)
(-0.0346755 -0.0123299 3.2818e-20 0.034904 9.22142e-20 -0.000228466)
(-0.0339119 -0.0123949 1.83996e-20 0.0341033 8.64677e-20 -0.000191398)
(-0.0334116 -0.0124177 -9.93813e-20 0.0335458 -2.86646e-20 -0.000134257)
(-0.0332389 -0.0126874 -4.98557e-21 0.0332924 -9.22186e-20 -5.34618e-05)
(-0.172357 -0.0224079 3.35964e-20 0.172343 -4.50627e-20 1.41684e-05)
(-0.171356 -0.0263066 1.00646e-19 0.171314 -1.33835e-19 4.16385e-05)
(-0.168485 -0.0288546 -5.61615e-20 0.168416 -1.58419e-19 6.84375e-05)
(-0.164306 -0.030455 -6.32638e-20 0.164212 2.67108e-20 9.41762e-05)
(-0.159315 -0.0313524 1.56163e-19 0.159197 5.20885e-20 0.000118493)
(-0.153799 -0.031742 5.8274e-20 0.153658 -1.7649e-19 0.000141079)
(-0.147991 -0.0317599 -1.41771e-20 0.147829 -9.089e-20 0.000161635)
(-0.142033 -0.0315061 5.20901e-21 0.141853 1.69491e-20 0.000179916)
(-0.136041 -0.0310564 4.78831e-21 0.135845 4.31296e-20 0.000195678)
(-0.130082 -0.0304654 -2.48892e-20 0.129874 6.3276e-20 0.000208738)
(-0.124216 -0.0297759 1.16722e-20 0.123997 -6.38412e-20 0.000218903)
(-0.118473 -0.029019 -5.64229e-20 0.118247 2.96823e-20 0.000226046)
(-0.112881 -0.0282192 6.55405e-20 0.112651 -5.09516e-20 0.00023002)
(-0.107452 -0.0273947 1.12091e-19 0.107221 4.11192e-20 0.000230748)
(-0.1022 -0.0265597 6.8008e-20 0.101972 6.69642e-20 0.000228123)
(-0.0971282 -0.0257252 -7.02847e-20 0.0969061 8.35205e-20 0.00022212)
(-0.0922412 -0.0248995 -4.38753e-20 0.0920285 -1.40286e-19 0.000212676)
(-0.0875383 -0.0240895 5.88267e-20 0.0873385 6.10523e-20 0.000199824)
(-0.0830209 -0.0232999 -3.23007e-20 0.0828374 8.3816e-20 0.000183556)
(-0.078687 -0.0225355 -5.11099e-20 0.078523 1.1495e-20 0.000163984)
(-0.0745358 -0.0217988 -9.6388e-20 0.0743946 1.76854e-19 0.000141181)
(-0.0705659 -0.0210935 5.93223e-20 0.0704505 1.94006e-19 0.000115365)
(-0.0667757 -0.0204206 4.11055e-20 0.0666889 2.98822e-20 8.67198e-05)
(-0.0631651 -0.0197834 -7.20189e-20 0.0631095 -4.13341e-20 5.56107e-05)
(-0.0597325 -0.0191822 -3.60692e-20 0.0597102 1.51764e-19 2.23715e-05)
(-0.0564798 -0.0186201 1.03038e-19 0.0564923 6.041e-20 -1.24466e-05)
(-0.0534058 -0.018097 8.26268e-20 0.0534541 2.79636e-20 -4.83134e-05)
(-0.0505145 -0.0176161 -1.02785e-19 0.050599 1.03273e-19 -8.44469e-05)
(-0.0478056 -0.0171772 3.08548e-20 0.0479257 1.0026e-19 -0.00012007)
(-0.0452855 -0.0167837 5.66346e-20 0.0454397 1.75036e-19 -0.000154122)
(-0.0429551 -0.0164353 -5.99953e-20 0.0431406 5.74883e-20 -0.000185519)
(-0.0408235 -0.0161361 8.44107e-20 0.0410363 -5.1424e-20 -0.000212864)
(-0.0388927 -0.0158857 -7.84507e-20 0.0391274 4.47882e-20 -0.0002347)
(-0.037175 -0.0156889 -6.52323e-20 0.0374242 1.20733e-19 -0.000249222)
(-0.0356738 -0.015545 9.6098e-20 0.0359283 1.46158e-19 -0.000254519)
(-0.0344044 -0.0154615 -4.82544e-20 0.0346527 -5.05236e-20 -0.000248297)
(-0.0333734 -0.015428 3.16455e-20 0.0336015 -3.83419e-20 -0.000228089)
(-0.0325944 -0.015495 -1.03506e-19 0.0327855 -4.89581e-21 -0.000191019)
(-0.0320869 -0.0155136 -2.59302e-19 0.0322209 -4.19945e-20 -0.000133951)
(-0.0318787 -0.0158315 2.11771e-20 0.031932 -5.50301e-20 -5.33214e-05)
(-0.171861 -0.0274373 2.03399e-20 0.171847 -2.46369e-20 1.39856e-05)
(-0.170296 -0.0320855 -8.61479e-20 0.170255 1.80405e-19 4.11181e-05)
(-0.167023 -0.0351137 1.00054e-19 0.166955 -1.19152e-19 6.75966e-05)
(-0.162555 -0.0370055 1.01235e-19 0.162462 1.41529e-19 9.30342e-05)
(-0.157361 -0.0380548 -1.30685e-19 0.157244 -4.99043e-21 0.00011707)
(-0.151705 -0.0384958 -5.98198e-20 0.151566 5.1758e-21 0.000139399)
(-0.145806 -0.0384918 9.79908e-20 0.145646 6.93451e-20 0.00015972)
(-0.139792 -0.0381627 1.19801e-19 0.139614 -1.08921e-22 0.000177791)
(-0.133772 -0.0375994 6.30377e-20 0.133578 -6.37851e-20 0.000193368)
(-0.127805 -0.0368675 -1.31983e-19 0.127599 1.4959e-19 0.000206269)
(-0.121947 -0.0360182 -2.54775e-20 0.121731 1.63988e-19 0.0002163)
(-0.116222 -0.0350888 -9.87118e-22 0.115999 1.43388e-19 0.000223334)
(-0.110658 -0.0341086 -1.19456e-20 0.110431 2.66411e-21 0.000227224)
(-0.105263 -0.0330995 2.052e-19 0.105035 -1.00776e-19 0.000227893)
(-0.100049 -0.0320784 1.05817e-19 0.0998235 3.40024e-20 0.000225233)
(-0.0950172 -0.0310584 -1.2439e-19 0.094798 -7.74945e-20 0.000219222)
(-0.0901727 -0.0300495 -1.76478e-20 0.0899629 1.69976e-19 0.000209792)
(-0.085513 -0.0290599 6.70112e-20 0.085316 1.05294e-19 0.000196981)
(-0.0810389 -0.0280952 -4.92695e-20 0.0808581 9.28158e-20 0.000180779)
(-0.0767476 -0.0271611 1.08328e-19 0.0765863 9.14184e-20 0.000161299)
(-0.0726381 -0.0262606 9.24457e-20 0.0724995 2.18937e-19 0.000138611)
(-0.0687083 -0.0253981 -1.29187e-19 0.0685953 7.49537e-20 0.000112936)
(-0.0649566 -0.0245748 -1.72236e-19 0.0648721 -9.38736e-20 8.44559e-05)
(-0.0613823 -0.0237946 1.55027e-19 0.0613288 8.96191e-20 5.35345e-05)
(-0.0579839 -0.0230579 1.08182e-19 0.0579634 1.09858e-19 2.05032e-05)
(-0.0547626 -0.0223684 -1.12983e-19 0.0547767 1.94603e-19 -1.40881e-05)
(-0.0517174 -0.0217259 7.7591e-20 0.0517672 -6.41119e-20 -4.97136e-05)
(-0.048852 -0.0211343 2.67752e-20 0.0489375 1.17418e-19 -8.55936e-05)
(-0.0461658 -0.0205932 3.74375e-21 0.0462868 3.50409e-20 -0.000120958)
(-0.0436652 -0.0201069 -4.92982e-20 0.0438199 -3.64606e-20 -0.000154747)
(-0.0413508 -0.0196749 -9.06013e-20 0.0415367 -3.19008e-19 -0.000185889)
(-0.0392314 -0.0193022 4.99911e-20 0.0394444 -3.07674e-20 -0.000212988)
(-0.0373092 -0.0189882 1.45759e-20 0.0375438 -1.59118e-19 -0.000234599)
(-0.0355958 -0.0187388 1.14251e-19 0.0358447 8.25872e-21 -0.000248925)
(-0.0340948 -0.018553 2.92127e-20 0.0343489 -1.8973e-19 -0.000254066)
(-0.0328208 -0.0184399 -3.19919e-19 0.0330685 -1.7053e-19 -0.000247739)
(-0.0317817 -0.0183873 9.49159e-20 0.0320092 -1.00149e-19 -0.00022749)
(-0.0309847 -0.0184543 6.84776e-20 0.0311752 -1.36703e-19 -0.000190459)
(-0.0304688 -0.0184677 -1.94329e-19 0.0306024 -2.70821e-19 -0.000133524)
(-0.0302183 -0.0188296 -4.47578e-20 0.0302714 4.33525e-20 -5.31397e-05)
(-0.171258 -0.0324831 1.45473e-19 0.171244 1.06105e-20 1.37967e-05)
(-0.16903 -0.0378154 2.10272e-20 0.168989 1.49875e-19 4.05684e-05)
(-0.165284 -0.0412762 -1.34493e-19 0.165217 5.89787e-20 6.6703e-05)
(-0.160476 -0.0434243 4.08342e-20 0.160384 1.19597e-20 9.18162e-05)
(-0.155045 -0.0446 7.41925e-20 0.154929 1.68487e-19 0.00011555)
(-0.149226 -0.0450739 -3.79984e-21 0.149088 2.88982e-19 0.000137599)
(-0.143219 -0.045035 -4.5755e-20 0.143062 1.70917e-20 0.000157667)
(-0.137141 -0.0446217 -8.50723e-20 0.136966 4.4352e-20 0.00017551)
(-0.131088 -0.043939 1.57392e-19 0.130898 -7.98228e-20 0.000190887)
(-0.125114 -0.0430628 1.49807e-19 0.12491 9.80468e-20 0.000203614)
(-0.119265 -0.0420522 3.66558e-21 0.119051 5.87407e-21 0.000213501)
(-0.113563 -0.0409501 -1.78532e-19 0.113343 1.14599e-19 0.000220418)
(-0.108032 -0.0397904 -1.58916e-19 0.107808 4.84549e-20 0.000224219)
(-0.102677 -0.0385982 7.80953e-20 0.102452 1.6125e-19 0.000224828)
(-0.0975085 -0.0373932 1.82509e-19 0.0972864 -1.46045e-19 0.000222137)
(-0.0925256 -0.0361904 6.40147e-20 0.0923095 -4.90435e-20 0.000216122)
(-0.0877318 -0.0350011 8.33887e-20 0.0875251 -1.05086e-20 0.000206719)
(-0.0831236 -0.0338349 1.85517e-20 0.0829296 4.32128e-21 0.000193961)
(-0.0787011 -0.0326982 8.76683e-21 0.0785232 -1.5904e-19 0.000177842)
(-0.0744607 -0.0315976 7.46441e-20 0.0743022 -1.02494e-19 0.000158474)
(-0.070401 -0.0305365 -4.56474e-21 0.070265 -1.61547e-20 0.000135927)
(-0.0665192 -0.0295197 -1.01066e-19 0.0664087 -1.52838e-19 0.00011042)
(-0.0628134 -0.028549 -3.28355e-20 0.0627313 1.17741e-19 8.21353e-05)
(-0.0592826 -0.0276286 7.2461e-20 0.0592312 1.83665e-20 5.14335e-05)
(-0.055925 -0.0267589 1.88793e-19 0.0559063 -1.27985e-19 1.86455e-05)
(-0.0527415 -0.0259443 -2.0257e-20 0.0527572 4.00088e-20 -1.56836e-05)
(-0.0497309 -0.0251845 -2.47405e-21 0.0497819 -1.24924e-19 -5.10297e-05)
(-0.0468964 -0.024484 9.06097e-20 0.0469831 -1.66545e-19 -8.66199e-05)
(-0.0442378 -0.0238424 -1.39606e-19 0.0443595 3.1418e-19 -0.000121687)
(-0.0417607 -0.0232646 -2.61776e-19 0.0419158 3.09203e-20 -0.00015518)
(-0.0394658 -0.02275 -1.58175e-19 0.0396518 1.28909e-19 -0.000186032)
(-0.0373615 -0.0223043 1.90533e-19 0.0375744 1.13354e-19 -0.000212859)
(-0.03545 -0.0219271 -2.5292e-20 0.0356842 -2.03878e-19 -0.000234222)
(-0.0337423 -0.0216248 -1.16332e-19 0.0339907 1.72253e-19 -0.000248338)
(-0.0322423 -0.0213967 7.05149e-21 0.0324956 -1.87152e-19 -0.000253317)
(-0.0309635 -0.021253 -3.16401e-21 0.0312103 -6.79597e-20 -0.000246892)
(-0.0299155 -0.02118 -5.05076e-20 0.0301421 -4.3276e-20 -0.000226623)
(-0.0290979 -0.0212448 -2.79303e-19 0.0292876 -1.52935e-19 -0.00018967)
(-0.0285726 -0.021252 -1.32292e-19 0.0287055 -9.64437e-20 -0.000132931)
(-0.0282731 -0.0216533 7.76512e-20 0.028326 1.93746e-19 -5.28851e-05)
(-0.170544 -0.0375471 1.07703e-19 0.17053 -1.6793e-20 1.35888e-05)
(-0.16756 -0.0434878 5.75402e-20 0.167521 -1.57088e-19 3.99742e-05)
(-0.163276 -0.0473261 8.47042e-21 0.16321 3.3471e-20 6.57404e-05)
(-0.158082 -0.0496899 8.56751e-20 0.157992 3.23163e-19 9.05057e-05)
(-0.152381 -0.0509625 6.67093e-20 0.152267 -6.13436e-20 0.000113914)
(-0.146377 -0.0514482 -4.30427e-20 0.146241 -2.8147e-19 0.000135663)
(-0.14025 -0.0513593 -1.68856e-20 0.140095 -6.02463e-20 0.000155456)
(-0.134099 -0.0508515 3.72272e-20 0.133926 -1.52234e-20 0.000173053)
(-0.128011 -0.0500429 4.15238e-20 0.127823 2.14062e-20 0.000188213)
(-0.122027 -0.0490185 1.8713e-20 0.121827 -1.24357e-19 0.000200754)
(-0.116191 -0.0478447 1.03388e-19 0.11598 -1.46373e-19 0.000210484)
(-0.110517 -0.0465697 1.49779e-19 0.110299 -2.13625e-19 0.000217277)
(-0.105024 -0.0452315 -2.21006e-20 0.104803 4.24872e-20 0.000220985)
(-0.0997162 -0.0438582 -1.51049e-22 0.0994946 -1.68224e-20 0.000221532)
(-0.0946003 -0.0424718 -1.28894e-20 0.0943815 -2.5569e-19 0.000218811)
(-0.0896738 -0.0410891 -2.92635e-20 0.089461 3.53581e-21 0.000212798)
(-0.0849386 -0.0397228 9.78279e-20 0.0847352 -1.33607e-19 0.000203429)
(-0.08039 -0.0383836 -1.07393e-20 0.0801993 -5.99326e-20 0.000190738)
(-0.0760273 -0.0370786 -1.00168e-19 0.0758525 -2.68422e-19 0.000174719)
(-0.0718458 -0.0358152 2.56213e-19 0.0716903 -9.43186e-20 0.000155482)
(-0.0678436 -0.034597 1.34547e-19 0.0677105 -7.47874e-20 0.000133099)
(-0.0640173 -0.0334296 1.34136e-21 0.0639095 -6.55139e-20 0.000107787)
(-0.0603647 -0.0323147 -6.92805e-20 0.060285 1.06654e-19 7.97257e-05)
(-0.0568842 -0.0312573 -1.05869e-19 0.056835 3.63638e-20 4.92758e-05)
(-0.0535739 -0.0302577 1.47049e-19 0.0535572 -1.27554e-20 1.67641e-05)
(-0.0504341 -0.0293207 1.94418e-20 0.0504514 -1.93434e-19 -1.72667e-05)
(-0.0474638 -0.0284461 -1.99729e-19 0.0475161 -2.73127e-20 -5.22981e-05)
(-0.0446654 -0.0276389 5.37548e-19 0.044753 -2.38504e-19 -8.75611e-05)
(-0.0420388 -0.0268985 3.07225e-19 0.0421611 1.74478e-19 -0.000122296)
(-0.0395892 -0.0262307 -1.63833e-19 0.0397446 -2.54661e-19 -0.000155458)
(-0.0373172 -0.0256346 -2.02676e-19 0.0375032 2.61827e-19 -0.00018599)
(-0.0352308 -0.0251168 -3.32265e-19 0.0354433 6.67969e-20 -0.000212517)
(-0.0333321 -0.0246766 5.29489e-20 0.0335657 1.2272e-19 -0.000233612)
(-0.0316317 -0.0243215 1.27535e-19 0.0318792 2.07897e-19 -0.000247503)
(-0.0301333 -0.0240505 -3.60836e-19 0.0303857 9.33245e-20 -0.000252316)
(-0.0288495 -0.0238752 -2.03973e-19 0.0290953 3.55351e-20 -0.0002458)
(-0.027792 -0.0237804 -1.23677e-20 0.0280175 2.39253e-19 -0.000225535)
(-0.0269516 -0.0238404 -7.16427e-20 0.0271403 1.70389e-19 -0.0001887)
(-0.0264159 -0.0238401 7.8451e-20 0.0265481 -9.16332e-20 -0.000132217)
(-0.0260616 -0.0242754 -1.10086e-19 0.0261142 8.98096e-20 -5.25891e-05)
(-0.169713 -0.0426309 5.87996e-20 0.169699 8.78208e-20 1.33749e-05)
(-0.165891 -0.0490946 5.93183e-20 0.165852 7.38144e-20 3.93512e-05)
(-0.161009 -0.0532483 1.48217e-19 0.160944 -3.56745e-20 6.47258e-05)
(-0.155387 -0.0557821 9.14809e-20 0.155298 -2.97586e-19 8.91202e-05)
(-0.149387 -0.0571185 -1.44197e-19 0.149274 -2.86665e-19 0.000112181)
(-0.143179 -0.0575919 -3.08935e-22 0.143045 1.9088e-19 0.000133609)
(-0.136919 -0.0574362 7.7782e-20 0.136766 1.39582e-19 0.000153109)
(-0.130689 -0.0568224 -3.90957e-20 0.130519 4.11478e-20 0.000170443)
(-0.124562 -0.0558804 5.5804e-20 0.124377 7.3976e-20 0.000185372)
(-0.118571 -0.0547033 1.04669e-19 0.118373 -2.38938e-19 0.000197713)
(-0.112749 -0.0533644 -1.52654e-19 0.112542 1.81657e-19 0.000207278)
(-0.107106 -0.0519163 -9.53299e-21 0.106893 -1.05437e-20 0.000213938)
(-0.101658 -0.0504008 2.58319e-20 0.101441 5.1809e-20 0.000217549)
(-0.0964037 -0.0488486 -1.42877e-19 0.0961857 9.65181e-20 0.000218033)
(-0.0913477 -0.0472837 1.13398e-19 0.0911324 1.07884e-19 0.000215285)
(-0.086485 -0.0457246 1.44354e-19 0.0862758 -4.70788e-20 0.00020928)
(-0.0818162 -0.0441851 -4.8281e-20 0.0816163 1.79131e-19 0.000199956)
(-0.0773351 -0.042677 -3.22021e-20 0.0771477 -1.14305e-19 0.000187346)
(-0.0730398 -0.0412078 -1.78057e-19 0.0728684 5.07795e-20 0.000171443)
(-0.0689248 -0.0397857 1.16324e-19 0.0687725 8.64012e-20 0.000152358)
(-0.0649877 -0.0384145 8.6883e-20 0.0648575 -1.34901e-19 0.000130162)
(-0.0612241 -0.0371005 5.34462e-20 0.061119 8.83208e-21 0.000105072)
(-0.0576317 -0.0358454 1.59077e-19 0.0575544 -8.22857e-20 7.72647e-05)
(-0.0542081 -0.0346545 -9.47343e-20 0.054161 7.51739e-20 4.70982e-05)
(-0.0509513 -0.0335284 -1.42488e-19 0.0509364 1.3438e-19 1.48976e-05)
(-0.047861 -0.0324722 1.04553e-19 0.0478798 -3.29816e-19 -1.88003e-05)
(-0.0449362 -0.0314856 -2.63682e-19 0.0449897 1.19486e-19 -5.34797e-05)
(-0.0421788 -0.0305741 1.91173e-20 0.0422672 2.33283e-19 -8.83798e-05)
(-0.0395887 -0.0297372 1.09422e-19 0.0397115 3.74246e-20 -0.000122746)
(-0.0371704 -0.028981 -4.53592e-20 0.0373259 -1.01092e-19 -0.000155544)
(-0.0349247 -0.0283048 3.02309e-19 0.0351105 5.54932e-20 -0.000185723)
(-0.0328589 -0.0277157 6.06411e-20 0.0330708 -6.56148e-20 -0.000211922)
(-0.0309752 -0.027213 -8.93115e-20 0.0312079 3.00346e-19 -0.000232727)
(-0.0292834 -0.026805 1.69505e-19 0.0295297 -3.78131e-19 -0.000246379)
(-0.0277875 -0.0264905 -1.575e-19 0.0280386 2.02908e-19 -0.000251022)
(-0.0264989 -0.0262825 7.54581e-20 0.0267433 3.6739e-20 -0.000244423)
(-0.0254313 -0.0261643 1.0104e-19 0.0256554 1.82417e-19 -0.000224183)
(-0.024566 -0.0262167 -5.8582e-19 0.0247535 -1.70488e-19 -0.000187505)
(-0.0240192 -0.0262075 -2.20769e-19 0.0241505 3.58693e-20 -0.00013134)
(-0.0236046 -0.0266708 1.37095e-19 0.0236568 1.43806e-19 -5.22216e-05)
(-0.16876 -0.0477351 -6.14666e-20 0.168747 4.48056e-19 1.31426e-05)
(-0.164025 -0.0546278 -1.30406e-19 0.163986 1.81313e-19 3.86848e-05)
(-0.158493 -0.0590286 -1.99479e-19 0.158429 3.2507e-20 6.36439e-05)
(-0.152406 -0.0616819 -2.50473e-20 0.152318 2.64473e-19 8.76445e-05)
(-0.146081 -0.0630455 2.21461e-19 0.145971 3.68618e-19 0.000110336)
(-0.139652 -0.0634804 9.93259e-20 0.13952 8.1789e-20 0.000131422)
(-0.133249 -0.0632394 -7.88914e-20 0.133099 -1.07586e-19 0.000150609)
(-0.126935 -0.0625069 8.60026e-20 0.126768 -2.85062e-19 0.000167663)
(-0.120768 -0.0614233 -1.16992e-19 0.120586 -1.71716e-19 0.000182344)
(-0.114769 -0.0600889 1.34784e-20 0.114575 2.0862e-19 0.000194473)
(-0.108965 -0.0585827 1.66512e-19 0.108761 3.48564e-19 0.000203861)
(-0.103359 -0.0569614 -8.9235e-20 0.103149 1.92565e-19 0.000210382)
(-0.0979612 -0.0552699 6.08711e-20 0.0977473 1.25918e-19 0.00021389)
(-0.0927663 -0.0535411 1.23764e-20 0.092552 6.27518e-20 0.00021431)
(-0.0877769 -0.0518011 -2.4626e-19 0.0875654 -8.53449e-21 0.000211537)
(-0.0829854 -0.0500694 9.71034e-20 0.0827798 -1.46807e-19 0.000205546)
(-0.0783904 -0.0483611 4.99028e-20 0.0781941 3.71687e-20 0.000196275)
(-0.0739841 -0.0466884 -4.12827e-20 0.0738003 -2.99806e-19 0.000183758)
(-0.0697638 -0.0450597 -2.03946e-20 0.0695958 -6.11409e-20 0.000167987)
(-0.0657226 -0.0434834 -4.29061e-20 0.0655735 1.68939e-19 0.000149075)
(-0.0618576 -0.041964 1.0896e-20 0.0617305 9.01078e-20 0.000127089)
(-0.0581636 -0.0405078 -3.77202e-20 0.0580613 1.51779e-19 0.000102246)
(-0.0546379 -0.0391167 6.69348e-20 0.0545632 -7.96292e-20 7.47209e-05)
(-0.0512774 -0.0377965 2.05766e-19 0.0512325 1.81615e-20 4.48693e-05)
(-0.04808 -0.0365476 -3.18131e-19 0.048067 1.15299e-19 1.30121e-05)
(-0.0450448 -0.0353756 -7.00351e-20 0.0450652 -4.35302e-20 -2.03175e-05)
(-0.0421707 -0.0342801 2.89093e-19 0.0422253 3.25583e-19 -5.46102e-05)
(-0.039459 -0.0332672 3.12117e-19 0.0395481 1.97507e-19 -8.91109e-05)
(-0.0369095 -0.0323361 -3.07858e-20 0.0370326 2.652e-19 -0.000123074)
(-0.0345262 -0.0314935 -3.75845e-19 0.0346817 3.26529e-19 -0.000155473)
(-0.0323101 -0.0307387 -1.33894e-19 0.0324953 3.79141e-20 -0.00018527)
(-0.0302675 -0.0300793 7.58279e-20 0.0304786 -2.77648e-20 -0.000211115)
(-0.0284008 -0.0295145 -1.85183e-19 0.0286324 -6.11331e-20 -0.000231609)
(-0.0267192 -0.0290535 7.69098e-20 0.0269642 -1.88321e-19 -0.000245009)
(-0.0252267 -0.028695 1.46096e-19 0.0254762 1.87765e-19 -0.000249477)
(-0.0239334 -0.0284529 -1.78273e-19 0.0241762 -2.15421e-19 -0.000242803)
(-0.0228554 -0.0283097 1.36222e-19 0.023078 -5.90929e-20 -0.000222611)
(-0.0219636 -0.0283513 -4.30224e-20 0.0221498 -1.90476e-20 -0.000186131)
(-0.021405 -0.0283318 2.14003e-19 0.0215353 2.98046e-19 -0.000130342)
(-0.0209253 -0.0288164 -1.07673e-19 0.0209771 -2.85537e-20 -5.18128e-05)
(-0.167681 -0.0528599 8.92141e-20 0.167668 -3.538e-19 1.29046e-05)
(-0.161967 -0.0600797 -1.4129e-21 0.161929 -3.94705e-19 3.79902e-05)
(-0.155739 -0.0646536 1.1889e-19 0.155676 9.99134e-20 6.25112e-05)
(-0.149155 -0.0673719 9.84029e-20 0.149069 1.11158e-19 8.60956e-05)
(-0.142484 -0.0687234 -3.58168e-19 0.142376 5.99152e-20 0.000108397)
(-0.135821 -0.0690913 -2.8818e-20 0.135692 -4.09783e-19 0.00012912)
(-0.129267 -0.0687449 -8.81676e-20 0.129119 -8.8741e-20 0.000147977)
(-0.122865 -0.0678801 -8.46986e-20 0.1227 -1.42535e-20 0.000164733)
(-0.116656 -0.0666461 2.72137e-19 0.116477 3.75476e-19 0.000179153)
(-0.110652 -0.0651493 3.40865e-19 0.110461 8.94971e-20 0.000191058)
(-0.104869 -0.0634736 -2.45194e-20 0.104669 -8.82647e-20 0.00020026)
(-0.0993042 -0.0616788 -3.02996e-20 0.0990976 -2.67345e-19 0.000206634)
(-0.0939617 -0.0598128 -1.29854e-19 0.0937517 1.63977e-19 0.000210037)
(-0.0888329 -0.0579102 -8.04438e-20 0.0886225 -1.59997e-19 0.000210393)
(-0.0839169 -0.0559986 -1.98705e-20 0.0837093 -5.5266e-20 0.000207597)