/*--------------------------------*- C++ -*----------------------------------*\
| =========                 |                                                 |
| \\      /  F ield         | foam-extend: Open Source CFD                    |
|  \\    /   O peration     | Version:  3.0                                   |
|   \\  /    A nd           | Web:         http://www.extend-project.de       |
|    \\/     M anipulation  |                                                 |
\*---------------------------------------------------------------------------*/
FoamFile
{
    version     2.0;
    format      ascii;
    class       volVectorField;
    location    "5";
    object      u;
}
// * * * * * * * * * * * * * * * * * * * * * * * * * * * * * * * * * * * * * //

dimensions      [0 0 0 0 0 0 0];

internalField   nonuniform List<vector> 
7680
(
(0.0863777 -0.0344213 5.09968e-18)
(0.192184 -0.0291493 1.34547e-17)
(0.306043 -0.0264498 4.01492e-19)
(0.383334 -0.0231434 1.10244e-19)
(0.46627 -0.0209204 2.55864e-18)
(0.522578 -0.0186284 7.44285e-18)
(0.585378 -0.0169292 1.38344e-18)
(0.627027 -0.0152192 -1.1334e-18)
(0.675784 -0.013918 -2.56213e-18)
(0.707051 -0.0125839 -2.41598e-18)
(0.745699 -0.0115718 1.18495e-18)
(0.769405 -0.0105065 1.21918e-18)
(0.800603 -0.00970113 -1.67235e-18)
(0.818651 -0.00884671 -5.29679e-18)
(0.844242 -0.00818578 2.21924e-18)
(0.857952 -0.00749772 2.63867e-18)
(0.879247 -0.00693891 -4.19986e-18)
(0.889555 -0.00637863 4.6027e-18)
(0.907506 -0.0058954 3.67527e-18)
(0.915081 -0.00543167 -4.18273e-18)
(0.930396 -0.00500637 1.13527e-19)
(0.935726 -0.00461588 -1.71885e-18)
(0.948935 -0.00423458 1.5016e-18)
(0.952378 -0.0039008 4.45483e-18)
(0.963884 -0.00355139 -6.61471e-18)
(0.965702 -0.00326268 2.84703e-18)
(0.975818 -0.00293492 2.96129e-18)
(0.976204 -0.00268271 1.57644e-18)
(0.985172 -0.00236862 -2.66232e-18)
(0.984265 -0.00214627 7.73813e-20)
(0.992279 -0.0018399 1.72022e-18)
(0.990174 -0.00164198 -1.28836e-18)
(0.997388 -0.00133856 -4.62202e-19)
(0.994147 -0.0011607 -1.4124e-18)
(1.00069 -0.000851024 1.70434e-18)
(0.996339 -0.000716717 -4.20135e-19)
(1.00235 -0.000242011 2.79053e-18)
(0.99665 -0.000842605 -1.90139e-18)
(1.00333 0.00229373 -5.37511e-19)
(0.992747 -0.00510786 -1.8015e-18)
(0.0908353 -0.101104 -1.40365e-17)
(0.195799 -0.0852226 -2.38741e-17)
(0.309396 -0.0775245 -1.43707e-17)
(0.386253 -0.0679285 1.33481e-17)
(0.468934 -0.0613417 -1.97722e-17)
(0.524941 -0.0546188 -5.56561e-18)
(0.587542 -0.0495459 -5.70092e-18)
(0.628977 -0.0444694 9.07605e-18)
(0.677574 -0.0405789 1.92106e-17)
(0.708676 -0.0366527 1.3599e-17)
(0.747194 -0.0336115 -3.09947e-18)
(0.770766 -0.0305205 2.22543e-19)
(0.801855 -0.0280903 9.53268e-18)
(0.819795 -0.0256132 1.2638e-18)
(0.845292 -0.0236283 -7.8041e-18)
(0.858918 -0.0216156 -7.95031e-18)
(0.880129 -0.0199578 1.53958e-17)
(0.89037 -0.0183059 -1.92694e-17)
(0.908246 -0.0168889 1.02558e-17)
(0.915769 -0.0155207 -1.19322e-17)
(0.931015 -0.0142814 8.43318e-18)
(0.936304 -0.0131366 -3.86848e-18)
(0.94945 -0.0120286 3.91033e-18)
(0.95286 -0.0110608 -2.05985e-17)
(0.964311 -0.0100488 1.70789e-17)
(0.9661 -0.00922347 -7.4786e-18)
(0.976169 -0.00827949 -7.72326e-19)
(0.976528 -0.00757059 -7.24806e-18)
(0.985456 -0.00667184 8.56864e-19)
(0.984523 -0.00605862 1.28533e-18)
(0.992501 -0.00518633 6.13727e-19)
(0.990371 -0.00465112 4.86934e-18)
(0.99755 -0.00378949 6.29318e-18)
(0.994287 -0.0033185 -1.06308e-17)
(1.00079 -0.00244454 2.62634e-18)
(0.996426 -0.00208461 -9.39002e-18)
(1.00239 -0.000880582 1.21301e-17)
(0.996728 -0.00194321 -2.78612e-18)
(1.00317 0.0040176 -1.03515e-18)
(0.993063 -0.00815903 1.59661e-17)
(0.0995136 -0.167313 2.53329e-17)
(0.203281 -0.141279 9.06223e-18)
(0.316143 -0.128271 2.44394e-17)
(0.392156 -0.112378 -7.45406e-18)
(0.474224 -0.101433 2.02201e-17)
(0.529635 -0.0903043 -2.75184e-18)
(0.591771 -0.0819278 -3.37116e-18)
(0.632758 -0.0735455 -1.7041e-18)
(0.681013 -0.0671145 -4.37397e-17)
(0.711769 -0.0606166 -3.01815e-17)
(0.750024 -0.055578 6.01256e-18)
(0.773327 -0.0504459 -2.09236e-18)
(0.804204 -0.0464132 -1.11071e-17)
(0.821933 -0.0423056 -4.01732e-18)
(0.847256 -0.0390045 2.46694e-17)
(0.860713 -0.0356791 3.17244e-17)
(0.88178 -0.0329154 -2.16556e-17)
(0.891885 -0.0301927 4.29718e-17)
(0.90964 -0.0278289 -3.81176e-17)
(0.917051 -0.0255751 1.83146e-17)
(0.932194 -0.0235109 -1.21525e-17)
(0.93739 -0.0216259 1.43484e-17)
(0.950446 -0.0197854 -1.56696e-17)
(0.953776 -0.0181941 3.48564e-17)
(0.965145 -0.016518 -1.17509e-17)
(0.966866 -0.0151631 2.05033e-17)
(0.976857 -0.013604 -2.34587e-18)
(0.977159 -0.0124412 1.3308e-17)
(0.986012 -0.010961 -8.06523e-19)
(0.985029 -0.00995551 -4.24243e-18)
(0.992934 -0.00852292 -2.95631e-18)
(0.990761 -0.00764717 1.07084e-18)
(0.997868 -0.0062362 3.14712e-18)
(0.994568 -0.00546965 3.93096e-18)
(1.001 -0.00404295 -1.44909e-18)
(0.996605 -0.00345552 -8.15682e-19)
(1.00247 -0.00153417 3.89271e-18)
(0.996883 -0.00305036 -3.46649e-18)
(1.00289 0.00571365 2.30865e-18)
(0.99358 -0.011191 -8.17078e-18)
(0.112675 -0.232848 -2.05412e-17)
(0.214214 -0.196447 -6.23334e-17)
(0.326081 -0.178441 4.78957e-17)
(0.400866 -0.156369 -7.6369e-17)
(0.482114 -0.141128 1.34372e-17)
(0.536676 -0.125645 6.43384e-18)
(0.598183 -0.11395 1.17528e-17)
(0.638522 -0.102271 1.67134e-17)
(0.686283 -0.0932969 5.33228e-18)
(0.716532 -0.0842571 2.40929e-17)
(0.754396 -0.0772285 1.34702e-17)
(0.777296 -0.0701065 -4.72147e-18)
(0.807861 -0.0644797 -9.45299e-19)
(0.825266 -0.058779 2.00205e-17)
(0.850335 -0.0541775 -3.8253e-17)
(0.863528 -0.049553 1.54373e-17)
(0.884381 -0.0457087 -2.85334e-17)
(0.894269 -0.0419162 -3.00844e-17)
(0.911838 -0.0386333 4.64104e-17)
(0.919071 -0.0354932 -2.94615e-17)
(0.934048 -0.0326276 1.51408e-17)
(0.939096 -0.030003 -1.8522e-17)
(0.952002 -0.0274477 2.13036e-17)
(0.955208 -0.0252337 -2.08495e-17)
(0.966441 -0.0229066 -5.19652e-18)
(0.968057 -0.0210236 -1.7563e-17)
(0.977923 -0.0188594 -8.36161e-18)
(0.978133 -0.0172466 -1.39902e-18)
(0.98687 -0.0151921 -3.92371e-18)
(0.985808 -0.0138016 1.56314e-17)
(0.993603 -0.0118129 2.09277e-17)
(0.99136 -0.0106054 -1.87551e-17)
(0.998359 -0.00864562 -8.03769e-18)
(0.994998 -0.00759094 4.8923e-17)
(1.00132 -0.00560941 -2.5531e-17)
(0.996877 -0.00479979 8.38518e-18)
(1.0026 -0.00216168 1.94339e-17)
(0.997109 -0.00413102 -1.34955e-17)
(1.00251 0.00740603 4.20899e-18)
(0.994292 -0.0141819 -2.02915e-18)
(0.129919 -0.297359 1.79154e-17)
(0.228909 -0.250978 2.33021e-17)
(0.339422 -0.227887 -1.36946e-16)
(0.412549 -0.199694 1.64978e-16)
(0.492625 -0.180216 -1.40226e-17)
(0.546012 -0.160442 -6.7445e-17)
(0.606623 -0.145525 -3.30216e-17)
(0.646087 -0.130614 -1.70006e-18)
(0.693171 -0.119161 4.1108e-18)
(0.722749 -0.10761 3.7237e-18)
(0.760086 -0.0986337 -2.13695e-17)
(0.782461 -0.0895232 2.33773e-18)
(0.812602 -0.0823353 2.74112e-17)
(0.829589 -0.0750445 -3.18956e-17)
(0.854307 -0.069162 2.82939e-17)
(0.867164 -0.0632554 -4.52543e-17)
(0.887724 -0.0583352 4.51508e-17)
(0.897337 -0.0534962 -3.85502e-18)
(0.914658 -0.0492922 -3.22508e-18)
(0.921662 -0.0452868 3.04527e-19)
(0.936426 -0.0416187 2.98468e-17)
(0.941283 -0.0382717 4.00315e-17)
(0.954001 -0.0350031 -3.12776e-17)
(0.957046 -0.0321818 6.79735e-18)
(0.96811 -0.0292073 2.67786e-17)
(0.96959 -0.0268099 2.46394e-17)
(0.979298 -0.0240456 -1.66488e-17)
(0.979393 -0.0219929 2.92074e-18)
(0.987979 -0.019371 2.40666e-17)
(0.986818 -0.0176003 -2.15802e-17)
(0.994464 -0.0150654 -1.00512e-17)
(0.992136 -0.0135264 7.2975e-18)
(0.998989 -0.0110317 -3.51701e-17)
(0.995554 -0.00968765 2.02277e-17)
(1.00172 -0.00716815 -1.19179e-17)
(0.99723 -0.00613513 -1.0365e-17)
(1.00276 -0.00279891 -1.20003e-17)
(0.997405 -0.0052093 -1.86314e-17)
(1.00202 0.00905577 6.32085e-18)
(0.995202 -0.0171307 2.36595e-17)
(0.15148 -0.360626 -3.41881e-18)
(0.246992 -0.304308 6.72938e-17)
(0.355825 -0.276317 1.39438e-16)
(0.426922 -0.242138 -1.29485e-16)
(0.505613 -0.218508 -6.24369e-18)
(0.557588 -0.194532 1.23246e-16)
(0.617138 -0.176418 6.37279e-17)
(0.655526 -0.158335 -1.10017e-18)
(0.70179 -0.144432 -3.8129e-17)
(0.73053 -0.130432 6.73454e-18)
(0.767221 -0.119537 8.50237e-17)
(0.788933 -0.108504 -1.30217e-17)
(0.818559 -0.0997779 2.06772e-17)
(0.835014 -0.0909492 -1.78103e-18)
(0.859313 -0.0838103 -3.83649e-17)
(0.871737 -0.0766515 -1.39107e-17)
(0.891947 -0.0706863 5.32305e-17)
(0.901207 -0.0648174 -2.96957e-17)
(0.918228 -0.0597242 2.28904e-17)
(0.924941 -0.0548658 1.2642e-18)
(0.939442 -0.0504226 -2.44951e-17)
(0.944056 -0.0463634 -6.16522e-17)
(0.956537 -0.0424042 2.52074e-17)
(0.959379 -0.0389825 2.25875e-17)
(0.970225 -0.0353796 -5.34857e-17)
(0.971532 -0.0324718 5.81147e-18)
(0.981038 -0.0291238 2.51406e-18)
(0.980985 -0.026635 -1.47158e-17)
(0.98938 -0.0234591 -7.13383e-18)
(0.98809 -0.0213149 -2.00896e-17)
(0.995555 -0.0182432 -1.11755e-17)
(0.993115 -0.0163831 1.41757e-17)
(0.999789 -0.0133585 -2.05099e-17)
(0.996256 -0.0117372 2.47128e-17)
(1.00225 -0.00868174 -6.6816e-17)
(0.997676 -0.00743565 2.54952e-17)
(1.00297 -0.00340693 2.75494e-17)
(0.997771 -0.00625452 -2.53643e-17)
(1.00142 0.0106857 -1.4892e-17)
(0.996301 -0.0200114 1.76745e-17)
(0.177031 -0.422321 3.46462e-17)
(0.268632 -0.356408 -1.24528e-16)
(0.375479 -0.323609 -3.87616e-17)
(0.444149 -0.283596 8.80415e-17)
(0.521135 -0.25592 2.57339e-17)
(0.571397 -0.227837 -4.79295e-17)
(0.629643 -0.206635 -7.49836e-17)
(0.666747 -0.185454 2.29594e-17)
(0.712014 -0.169176 4.42109e-17)
(0.739764 -0.152771 -5.37754e-17)
(0.775676 -0.140011 -8.90672e-17)
(0.796611 -0.127076 -2.35689e-17)
(0.82561 -0.116857 2.79557e-17)
(0.841445 -0.106507 5.91754e-17)
(0.865229 -0.0981445 -1.36417e-17)
(0.877153 -0.0897577 2.1072e-19)
(0.896932 -0.0827657 -4.64946e-17)
(0.90578 -0.0758936 -1.33144e-17)
(0.922434 -0.0699218 -3.96553e-17)
(0.928806 -0.0642337 -1.29611e-17)
(0.942987 -0.0590245 -1.67969e-17)
(0.947315 -0.0542726 1.73511e-17)
(0.959515 -0.0496321 2.28936e-17)
(0.962116 -0.0456284 -1.54863e-17)
(0.972708 -0.0414062 1.62548e-17)
(0.973812 -0.0380065 -4.48798e-17)
(0.983082 -0.0340837 3.02298e-17)
(0.982856 -0.0311755 -4.6433e-17)
(0.991027 -0.0274561 5.64074e-17)
(0.989589 -0.0249502 -1.65694e-17)
(0.996836 -0.0213553 1.0307e-16)
(0.994268 -0.0191799 -1.84509e-17)
(1.00073 -0.015643 1.50223e-18)
(0.997083 -0.0137448 1.76583e-17)
(1.00286 -0.0101747 3.20116e-17)
(0.998202 -0.00871316 -9.3894e-18)
(1.00321 -0.0040174 -2.90119e-18)
(0.998206 -0.00728471 -1.06299e-17)
(1.00071 0.0122609 6.23916e-17)
(0.99759 -0.0228251 -6.68548e-18)
(0.206635 -0.482241 3.41119e-18)
(0.29356 -0.406952 -2.02133e-17)
(0.398091 -0.369472 6.47424e-17)
(0.463955 -0.323775 -1.08916e-17)
(0.539017 -0.292163 -8.75246e-17)
(0.587319 -0.260104 -8.71838e-17)
(0.644091 -0.23588 7.37762e-17)
(0.679712 -0.211701 -5.17212e-17)
(0.723845 -0.193106 2.14594e-17)
(0.750444 -0.174385 -2.82223e-17)
(0.785467 -0.159809 9.95202e-17)
(0.805492 -0.145054 -9.73675e-17)
(0.83378 -0.133378 1.52867e-17)
(0.848886 -0.121571 -1.00388e-16)
(0.87209 -0.112018 1.81108e-17)
(0.883422 -0.102446 -1.00293e-17)
(0.902717 -0.0944623 6.16054e-17)
(0.911081 -0.0866166 -4.29508e-17)
(0.927322 -0.0798006 6.10789e-17)
(0.933295 -0.0733065 2.42071e-17)
(0.947115 -0.0673619 -3.08926e-17)
(0.951112 -0.0619372 3.29008e-18)
(0.962989 -0.0566419 -2.63552e-17)
(0.965311 -0.0520709 2.89509e-17)
(0.975607 -0.0472536 1.69872e-17)
(0.976474 -0.043371 -3.56221e-17)
(0.985469 -0.0388959 2.90407e-17)
(0.98504 -0.0355739 4.73552e-17)
(0.99295 -0.0313307 -1.21155e-16)
(0.991337 -0.0284691 -2.61767e-17)
(0.998332 -0.0243669 -4.76274e-17)
(0.995612 -0.0218855 -5.19693e-18)
(1.00182 -0.0178477 6.2576e-17)
(0.998047 -0.0156862 -5.81895e-17)
(1.00357 -0.011609 2.07612e-18)
(0.998813 -0.0099467 2.59257e-17)
(1.0035 -0.0045946 3.18262e-17)
(0.998706 -0.00827666 -4.15705e-18)
(0.999907 0.013801 -6.98815e-18)
(0.999057 -0.0255466 -4.32955e-17)
(0.240043 -0.540064 7.0349e-17)
(0.321786 -0.455761 4.5333e-17)
(0.423721 -0.413803 -4.36542e-17)
(0.486429 -0.362649 -1.79904e-16)
(0.55928 -0.327248 5.00758e-17)
(0.605357 -0.291338 1.99686e-16)
(0.660436 -0.264216 -3.57405e-17)
(0.694383 -0.237128 5.46538e-17)
(0.737218 -0.216305 1.54279e-17)
(0.762523 -0.195327 -3.74955e-17)
(0.796528 -0.179003 3.40382e-18)
(0.815535 -0.162465 1.10324e-16)
(0.843007 -0.149389 3.04461e-18)
(0.857301 -0.136156 8.75769e-17)
(0.879835 -0.125457 8.4349e-17)
(0.89051 -0.114733 -5.97296e-17)
(0.909245 -0.105789 3.89612e-17)
(0.91707 -0.0970015 -3.85454e-17)
(0.932833 -0.0893637 3.53791e-17)
(0.938358 -0.0820906 1.3972e-17)
(0.951763 -0.0754295 -1.34313e-17)
(0.955385 -0.0693542 3.0425e-17)
(0.966892 -0.0634211 -2.49751e-17)
(0.968898 -0.0583033 -2.18228e-17)
(0.97886 -0.0529058 2.27531e-17)
(0.97946 -0.0485612 -6.31756e-18)
(0.988145 -0.0435471 -2.06253e-17)
(0.987488 -0.0398319 9.93936e-17)
(0.995106 -0.0350784 -1.70017e-18)
(0.993297 -0.0318789 8.95531e-17)
(1.00001 -0.0272851 4.99718e-18)
(0.99712 -0.0245097 -3.20579e-17)
(1.00305 -0.0199905 6.61728e-18)
(0.99913 -0.0175708 -3.09832e-17)
(1.00437 -0.0130102 1.2958e-18)
(0.999502 -0.0111457 -1.8436e-18)
(1.00381 -0.00516842 -4.25357e-17)
(0.999271 -0.0092419 -6.19032e-17)
(0.999 0.0152739 1.21294e-16)
(1.0007 -0.0281762 -4.31427e-17)
(0.277198 -0.59561 7.30919e-17)
(0.353117 -0.502629 -4.61628e-17)
(0.452149 -0.456314 1.24926e-16)
(0.511327 -0.399883 2.97682e-16)
(0.581749 -0.36083 1.0038e-16)
(0.625358 -0.321238 -2.4903e-16)
(0.678577 -0.291316 -1.03587e-18)
(0.71066 -0.261455 -1.29577e-16)
(0.752068 -0.238485 -4.98616e-17)
(0.775929 -0.215362 1.44186e-16)
(0.808815 -0.197355 -1.26898e-17)
(0.826685 -0.17913 -7.50851e-17)
(0.85326 -0.164704 2.91186e-17)
(0.866642 -0.150122 -1.45331e-16)
(0.888444 -0.138317 -3.57345e-17)
(0.898379 -0.126496 2.87274e-17)
(0.916502 -0.11663 -5.41612e-17)
(0.923722 -0.106942 -1.71223e-17)
(0.938963 -0.0985196 -1.81829e-17)
(0.943989 -0.0905005 3.84756e-19)
(0.956938 -0.0831564 3.28234e-17)
(0.960144 -0.0764587 -7.96965e-18)
(0.971246 -0.0699178 3.19225e-17)
(0.972903 -0.0642755 -3.01064e-18)
(0.982495 -0.0583261 -5.3919e-17)
(0.982798 -0.0535347 1.04294e-16)
(0.991139 -0.0480089 -2.6024e-17)
(0.990228 -0.0439103 -3.42765e-17)
(0.997518 -0.0386719 -8.15251e-17)
(0.995491 -0.0351419 2.2636e-17)
(1.00189 -0.0300788 -2.13798e-17)
(0.998807 -0.0270182 5.34799e-17)
(1.00443 -0.0220359 -7.623e-17)
(1.00034 -0.0193706 1.18016e-16)
(1.00527 -0.014341 -8.41653e-17)
(1.00027 -0.0122899 4.99661e-17)
(1.00418 -0.00570446 -6.02676e-18)
(0.999898 -0.0101626 2.63276e-17)
(0.997999 0.0166985 -1.38965e-17)
(1.00252 -0.030692 -6.7401e-17)
(0.317876 -0.648573 -3.58117e-16)
(0.387461 -0.54733 -1.55446e-16)
(0.483326 -0.496927 -7.39125e-17)
(0.538667 -0.435504 -3.71575e-16)
(0.606408 -0.392983 -1.14013e-16)
(0.647314 -0.349861 1.39624e-16)
(0.69848 -0.317283 -1.1644e-18)
(0.728524 -0.284754 2.15017e-16)
(0.768356 -0.259743 1.38124e-16)
(0.790639 -0.234551 -1.73444e-16)
(0.822289 -0.214942 -8.23153e-17)
(0.838914 -0.195083 -4.69396e-18)
(0.864499 -0.179376 1.46943e-17)
(0.876889 -0.163485 7.38416e-17)
(0.897879 -0.150632 4.51836e-17)
(0.907012 -0.137754 3.69145e-17)
(0.924456 -0.12701 2.16883e-17)
(0.931019 -0.116458 8.04296e-17)
(0.945679 -0.107285 7.67832e-17)
(0.95016 -0.0985511 -5.55352e-17)
(0.962604 -0.0905517 -1.74724e-17)
(0.965354 -0.0832571 -2.73619e-17)
(0.976006 -0.0761327 4.65007e-18)
(0.977278 -0.0699886 -4.98424e-18)
(0.986463 -0.063508 -4.74277e-17)
(0.986439 -0.0582926 9.05667e-18)
(0.994403 -0.0522729 -7.08853e-17)
(0.993213 -0.0478138 1.16154e-16)
(1.00015 -0.0421073 -7.66643e-17)
(0.99788 -0.038268 -5.17269e-17)
(1.00393 -0.0327536 9.51504e-18)
(1.00065 -0.0294245 -2.87455e-18)
(1.00593 -0.0240001 -1.98316e-17)
(1.00166 -0.0210994 2.76023e-17)
(1.00625 -0.0156258 -5.3607e-17)
(1.00111 -0.0133903 6.1643e-17)
(1.00457 -0.00623156 -1.13441e-17)
(1.00058 -0.0110471 -3.48647e-17)
(0.996905 0.0180436 8.88861e-17)
(1.0045 -0.0330922 -2.87037e-17)
(0.361959 -0.698793 2.94077e-16)
(0.424645 -0.589708 1.49176e-16)
(0.517078 -0.535353 6.78879e-17)
(0.568226 -0.469159 2.2023e-16)
(0.633079 -0.423334 -1.73744e-17)
(0.671053 -0.376886 8.6351e-17)
(0.720007 -0.341778 -3.95084e-17)
(0.74784 -0.306745 -1.25895e-16)
(0.785974 -0.279792 -1.75083e-16)
(0.806546 -0.252663 1.44174e-16)
(0.836867 -0.231533 1.44774e-17)
(0.852144 -0.21015 1.36852e-16)
(0.876664 -0.193221 -7.90446e-17)
(0.887974 -0.176112 -2.15088e-17)
(0.908093 -0.162258 4.63482e-17)
(0.91635 -0.14839 -2.44258e-17)
(0.933066 -0.136812 -5.12145e-17)
(0.938911 -0.125445 -6.52156e-17)
(0.95295 -0.115561 -4.8003e-17)
(0.956838 -0.106154 9.08554e-17)
(0.968741 -0.0975362 -1.90009e-17)
(0.970997 -0.0896798 -1.29267e-17)
(0.981167 -0.082005 4.99656e-17)
(0.982025 -0.0753878 6.16305e-17)
(0.99077 -0.0684076 -6.86121e-17)
(0.990395 -0.0627894 1.0084e-16)
(0.997951 -0.0563069 -5.50634e-17)
(0.99646 -0.0515017 3.90411e-18)
(1.00301 -0.0453573 -1.97378e-17)
(1.00048 -0.041219 8.69064e-17)
(1.00616 -0.0352813 -3.82481e-17)
(1.00265 -0.0316933 -2.28805e-17)
(1.00756 -0.0258513 5.43782e-17)
(1.00309 -0.0227272 5.9078e-17)
(1.00731 -0.0168306 -1.09305e-16)
(1.00202 -0.0144252 2.55358e-17)
(1.00499 -0.0067175 -1.82036e-18)
(1.00133 -0.0118798 1.32281e-17)
(0.995726 0.019328 -1.11366e-16)
(1.00663 -0.0353585 -1.21192e-17)
(0.409203 -0.745991 1.38397e-16)
(0.464528 -0.629544 -1.41245e-17)
(0.553273 -0.57156 -2.67404e-17)
(0.599967 -0.500913 -6.94774e-17)
(0.661713 -0.452 -6.05919e-17)
(0.69655 -0.402404 -2.0497e-16)
(0.743123 -0.364929 1.02456e-16)
(0.768589 -0.327516 5.69595e-17)
(0.804896 -0.298745 6.54083e-17)
(0.823633 -0.26977 5.44701e-17)
(0.85252 -0.247214 1.01022e-17)
(0.86635 -0.224373 -1.88714e-16)
(0.889722 -0.206303 4.61568e-17)
(0.899876 -0.188026 -7.7158e-17)
(0.919055 -0.173239 -4.04135e-17)
(0.926377 -0.158428 -1.04271e-16)
(0.942307 -0.146068 6.73096e-17)
(0.947387 -0.133931 -3.45876e-17)
(0.960755 -0.123378 4.41557e-17)
(0.96401 -0.113333 -1.40107e-16)
(0.975327 -0.104132 1.77926e-17)
(0.977053 -0.0957431 -3.22615e-18)
(0.986703 -0.0875488 -5.00969e-17)
(0.987113 -0.0804836 2.72419e-18)
(0.995386 -0.0730304 -2.11534e-17)
(0.99463 -0.0670336 1.01744e-16)
(1.00175 -0.0601109 -6.9747e-17)
(0.999932 -0.054984 5.62089e-17)
(1.00606 -0.048422 3.17159e-17)
(1.00326 -0.0440081 -4.69242e-17)
(1.00853 -0.0376672 4.48786e-17)
(1.00478 -0.0338407 8.05679e-18)
(1.0093 -0.0276034 -6.46338e-17)
(1.00463 -0.0242705 5.881e-18)
(1.00845 -0.0179769 1.10121e-16)
(1.003 -0.0154083 -8.43467e-17)
(1.00545 -0.00718858 5.36991e-17)
(1.00212 -0.0126691 -6.97678e-17)
(0.994465 0.0205222 1.25802e-16)
(1.00891 -0.0374884 5.92185e-18)
(0.459463 -0.790024 -2.14386e-16)
(0.506922 -0.666702 1.37427e-17)
(0.591764 -0.605238 1.39834e-18)
(0.633678 -0.530417 -1.16756e-17)
(0.692128 -0.478603 2.12429e-16)
(0.723619 -0.426096 5.51759e-17)
(0.76767 -0.386401 3.39251e-18)
(0.790614 -0.346795 6.32298e-17)
(0.824984 -0.316321 -6.49901e-17)
(0.84177 -0.28565 -5.71706e-17)
(0.86914 -0.261758 -3.05143e-18)
(0.881435 -0.237582 1.16195e-16)
(0.903592 -0.218441 9.85688e-17)
(0.912516 -0.199097 1.03814e-16)
(0.930701 -0.183433 8.15259e-18)
(0.937025 -0.167754 1.98446e-16)
(0.952124 -0.154661 -1.36562e-16)
(0.956386 -0.141811 1.78885e-16)
(0.969045 -0.130635 1.46799e-17)
(0.971623 -0.12 9.88059e-17)
(0.982322 -0.110255 -6.05179e-18)
(0.983485 -0.101374 1.07373e-17)
(0.992584 -0.0926966 -5.23325e-17)
(0.992521 -0.0852176 5.41282e-17)
(1.00029 -0.0773256 -3.46792e-18)
(0.999136 -0.0709766 -1.02624e-16)
(1.00579 -0.0636478 1.00192e-16)
(1.00363 -0.0582181 -6.87946e-17)
(1.00932 -0.0512723 7.01262e-18)
(1.00622 -0.0465964 -4.68043e-17)
(1.01107 -0.0398849 1.88416e-17)
(1.00706 -0.0358309 -7.65307e-17)
(1.01116 -0.0292285 7.54592e-17)
(1.00626 -0.0256984 1.99249e-17)
(1.00966 -0.0190353 -5.1899e-17)
(1.00404 -0.0163161 1.15356e-16)
(1.00594 -0.00761638 -7.25228e-17)
(1.00297 -0.013399 6.8766e-17)
(0.993126 0.0216437 -5.27033e-17)
(1.01132 -0.0394655 -9.96057e-17)
(0.512462 -0.830652 -1.30213e-16)
(0.551668 -0.700996 4.48253e-17)
(0.632367 -0.636423 -3.26391e-17)
(0.669281 -0.557759 -9.39891e-19)
(0.724248 -0.503291 -6.17277e-17)
(0.752221 -0.44807 -7.28235e-17)
(0.793603 -0.40634 -6.64228e-17)
(0.813891 -0.364682 -8.20735e-17)
(0.846214 -0.332645 -1.82569e-16)
(0.860941 -0.300383 1.29766e-16)
(0.886705 -0.275265 -6.00496e-17)
(0.897374 -0.249833 -2.5176e-17)
(0.918245 -0.229709 -2.78116e-16)
(0.925869 -0.20936 -9.05967e-17)
(0.943002 -0.192892 -7.0504e-17)
(0.948275 -0.1764 -1.04238e-17)
(0.962494 -0.162635 7.9296e-17)
(0.965895 -0.14912 -1.17098e-16)
(0.977804 -0.137369 7.02304e-17)
(0.97967 -0.126185 -1.27868e-16)
(0.989715 -0.115938 6.88825e-17)
(0.990282 -0.106598 -3.05651e-17)
(0.998799 -0.0974738 5.51059e-17)
(0.998233 -0.0896086 -1.66515e-17)
(1.00548 -0.0813096 1.2266e-17)
(1.00389 -0.0746342 1.52716e-17)
(1.01005 -0.0669265 -1.99424e-19)
(1.00753 -0.0612196 -2.81372e-17)
(1.01276 -0.0539139 5.44399e-17)
(1.00934 -0.0490008 1.60338e-17)
(1.01374 -0.0419416 6.97969e-18)
(1.00946 -0.0376825 -1.13496e-17)
(1.01312 -0.0307388 3.88835e-17)
(1.00799 -0.0270299 -5.36129e-17)
(1.01094 -0.0200237 1.28308e-17)
(1.00513 -0.0171651 -1.67081e-17)
(1.00646 -0.00802348 -4.01489e-17)
(1.00386 -0.0140799 -8.06844e-18)
(0.991718 0.0226663 -4.29279e-17)
(1.01386 -0.0412887 1.4705e-17)
(0.56804 -0.867743 2.23132e-16)
(0.598542 -0.732294 -5.39121e-17)
(0.67493 -0.664774 -1.04447e-17)
(0.706563 -0.582609 8.28051e-17)
(0.757886 -0.525692 -3.18121e-17)
(0.782159 -0.468024 1.6644e-16)
(0.820749 -0.42442 5.50177e-17)
(0.838249 -0.380921 1.18515e-16)
(0.868428 -0.347445 1.27451e-16)
(0.880998 -0.313758 -3.49871e-17)
(0.905084 -0.287513 -5.05071e-17)
(0.914055 -0.260959 8.45488e-17)
(0.933581 -0.239932 2.30792e-16)
(0.939847 -0.218685 1.63765e-16)
(0.95588 -0.201477 4.90595e-17)
(0.96005 -0.184256 -9.10599e-17)
(0.973351 -0.169873 -1.45794e-16)
(0.975848 -0.155759 1.2593e-16)
(0.986971 -0.143481 -1.62134e-16)
(0.98809 -0.131801 2.44813e-17)
(0.99745 -0.121096 4.49788e-17)
(0.997394 -0.111342 -4.26444e-18)
(1.0053 -0.10181 1.10543e-17)
(1.00421 -0.0935967 -4.26578e-18)
(1.0109 -0.0849272 1.12632e-17)
(1.00887 -0.0779562 -6.09725e-17)
(1.01452 -0.0699058 5.93847e-17)
(1.01162 -0.0639446 -6.21172e-17)
(1.01636 -0.0563154 1.90727e-18)
(1.01261 -0.0511819 -2.2004e-17)
(1.01654 -0.0438109 5.50811e-17)
(1.01198 -0.03936 -2.47246e-17)
(1.01518 -0.0321094 2.11725e-17)
(1.00979 -0.0282336 -1.44608e-16)
(1.01227 -0.0209172 1.40229e-16)
(1.00628 -0.0179305 -1.00257e-16)
(1.007 -0.00838585 2.46262e-17)
(1.0048 -0.0146944 6.37477e-17)
(0.990243 0.0236053 -8.93151e-18)
(1.01652 -0.0429418 5.95319e-17)
(0.625888 -0.901107 -1.4792e-16)
(0.647386 -0.760462 2.621e-16)
(0.719254 -0.690407 -1.82077e-16)
(0.74542 -0.60507 7.71805e-19)
(0.792944 -0.545979 -8.5069e-17)
(0.813375 -0.486077 -3.68269e-17)
(0.849057 -0.440806 4.41801e-17)
(0.863656 -0.395618 -6.93213e-18)
(0.891603 -0.360861 -2.32206e-16)
(0.901925 -0.325865 1.79952e-16)
(0.924259 -0.298614 -6.99151e-18)
(0.931456 -0.271027 -4.56229e-17)
(0.949579 -0.249194 -1.55047e-16)
(0.954426 -0.22712 -2.73551e-16)
(0.96931 -0.209252 -7.68894e-17)
(0.972331 -0.191363 7.76035e-17)
(0.984673 -0.176428 9.54006e-17)
(0.986229 -0.161768 -4.45825e-17)
(0.996534 -0.149017 2.99494e-19)
(0.996875 -0.136885 4.49679e-17)
(1.00552 -0.125768 1.65536e-18)
(1.00482 -0.115638 -5.55355e-17)
(1.01209 -0.105738 -3.00701e-17)
(1.01045 -0.0972074 -3.7301e-17)
(1.01656 -0.0882041 6.29842e-17)
(1.01407 -0.0809643 -3.65664e-17)
(1.01918 -0.072603 2.40346e-17)
(1.01588 -0.0664136 2.13847e-17)
(1.02011 -0.0584888 8.78723e-17)
(1.01602 -0.0531603 -8.24329e-17)
(1.01946 -0.0455034 9.70938e-17)
(1.0146 -0.0408842 -8.9336e-17)
(1.01732 -0.0333527 8.86832e-17)
(1.01168 -0.0293305 3.76443e-17)
(1.01367 -0.0217314 5.06735e-17)
(1.00748 -0.0186309 -1.51182e-16)
(1.00756 -0.00872239 1.16172e-16)
(1.00577 -0.0152552 -1.28326e-16)
(0.988713 0.0244383 -3.03768e-17)
(1.01928 -0.0444269 4.5118e-17)
(0.685829 -0.930623 1.38885e-16)
(0.697938 -0.785364 -1.46799e-16)
(0.765151 -0.712945 -6.64086e-17)
(0.785635 -0.624841 2.41881e-16)
(0.829225 -0.563796 1.67102e-16)
(0.845669 -0.501953 2.08731e-17)
(0.878336 -0.455187 -1.78153e-16)
(0.889931 -0.408537 1.77397e-17)
(0.915564 -0.372633 1.60443e-16)
(0.923561 -0.336506 -1.43848e-16)
(0.944082 -0.308357 5.20742e-17)
(0.949449 -0.279879 4.43598e-17)
(0.96612 -0.257327 1.14928e-16)
(0.969502 -0.23454 1.1637e-16)
(0.9832 -0.216083 1.93512e-16)
(0.985033 -0.197615 -4.31879e-17)
(0.996382 -0.182187 -3.79107e-17)
(0.996964 -0.167051 -5.88537e-18)
(1.00642 -0.153881 5.38714e-17)
(1.00596 -0.141355 -5.81014e-17)
(1.01386 -0.129872 2.05309e-17)
(1.01249 -0.119413 -1.31186e-17)
(1.0191 -0.109188 7.36971e-17)
(1.0169 -0.100382 -1.13795e-16)
(1.02241 -0.0910826 4.94299e-17)
(1.01944 -0.0836087 -6.907e-17)
(1.024 -0.0749737 -2.19449e-17)
(1.02029 -0.068583 -1.81099e-17)
(1.02399 -0.0604002 -1.22041e-17)
(1.01955 -0.0548971 -8.45451e-18)
(1.02249 -0.0469918 -7.32395e-17)
(1.01732 -0.0422201 7.91017e-17)
(1.01953 -0.0344448 -6.96694e-17)
(1.01363 -0.0302893 -7.16119e-17)
(1.01512 -0.0224441 6.4956e-17)
(1.00872 -0.0192407 1.0161e-16)
(1.00814 -0.00901285 1.66223e-17)
(1.00678 -0.0157438 6.24501e-17)
(0.987125 0.0251783 -3.46435e-17)
(1.02213 -0.0457271 2.17843e-17)
(0.747538 -0.956148 -4.93817e-17)
(0.750044 -0.806924 -6.76979e-17)
(0.812446 -0.732584 6.58592e-17)
(0.827083 -0.642037 -5.35544e-17)
(0.866625 -0.579335 -3.64898e-16)
(0.878967 -0.515777 -5.87982e-17)
(0.908535 -0.467739 9.65402e-17)
(0.917033 -0.419793 2.14705e-17)
(0.940286 -0.382912 -1.16326e-16)
(0.945884 -0.34578 7.07569e-17)
(0.96454 -0.316863 7.49844e-17)
(0.968014 -0.287592 -2.13956e-16)
(0.98319 -0.264424 3.32688e-18)
(0.985057 -0.241003 -1.32134e-17)
(0.99753 -0.222041 -1.09523e-16)
(0.998136 -0.20306 2.97107e-17)
(1.00846 -0.18721 1.12377e-16)
(1.00804 -0.171656 -3.20257e-17)
(1.01663 -0.158125 7.80642e-17)
(1.01533 -0.145252 -1.3599e-16)
(1.02248 -0.133455 7.78946e-17)
(1.0204 -0.122706 -1.875e-17)
(1.02634 -0.112201 -1.16409e-17)
(1.02356 -0.10315 4.60922e-17)
(1.02845 -0.0935959 6.07489e-17)
(1.02499 -0.0859155 3.9507e-17)
(1.02897 -0.077043 8.23711e-18)
(1.02483 -0.0704769 1.75582e-17)
(1.028 -0.0620683 -6.01761e-18)
(1.02319 -0.0564152 7.40532e-17)
(1.0256 -0.0482913 1.42328e-17)
(1.02012 -0.0433906 -4.93046e-17)
(1.02182 -0.0354001 1.28096e-17)
(1.01564 -0.0311327 1.28306e-16)
(1.01661 -0.0230706 -7.63542e-17)
(1.01 -0.0197805 -1.57545e-16)
(1.00875 -0.00927363 1.19549e-16)
(1.00782 -0.0161751 -7.79986e-17)
(0.985498 0.0258066 3.90898e-18)
(1.02507 -0.0468483 -3.95316e-18)
(0.810814 -0.977587 2.07259e-16)
(0.803411 -0.825003 2.9548e-16)
(0.860884 -0.748929 -4.06413e-17)
(0.869539 -0.65639 2.95422e-17)
(0.904925 -0.592262 2.8436e-16)
(0.913063 -0.527302 1.73275e-18)
(0.939446 -0.478175 1.30629e-17)
(0.944776 -0.429172 4.75169e-17)
(0.965584 -0.391455 3.23172e-17)
(0.968729 -0.353505 -4.60954e-17)
(0.985469 -0.323933 -8.5028e-17)
(0.98701 -0.294019 1.58773e-16)
(1.00065 -0.270326 1.04836e-16)
(1.00097 -0.246391 -3.85546e-17)
(1.01219 -0.227 -2.00376e-18)
(1.01155 -0.2076 -4.36241e-17)
(1.02082 -0.191392 -1.63928e-16)
(1.01937 -0.175493 1.86853e-17)
(1.02707 -0.161656 1.14238e-18)
(1.02492 -0.148499 5.21026e-17)
(1.03129 -0.136435 -3.80535e-18)
(1.0285 -0.125449 3.60875e-18)
(1.03375 -0.114706 1.84744e-17)
(1.03036 -0.105456 -1.46451e-17)
(1.03463 -0.0956864 -5.47923e-17)
(1.03066 -0.0878368 -6.37476e-17)
(1.03405 -0.0787648 4.68441e-17)
(1.02949 -0.0720536 -6.15485e-17)
(1.03209 -0.0634568 8.04911e-17)
(1.02692 -0.0576779 -1.35841e-16)
(1.02879 -0.0493731 1.82034e-18)
(1.02299 -0.0443622 4.50988e-17)
(1.02416 -0.0361944 -8.0561e-17)
(1.01769 -0.0318303 -7.20699e-17)
(1.01813 -0.0235898 -6.17262e-17)
(1.0113 -0.0202245 6.62985e-17)
(1.00936 -0.00948674 -5.57213e-17)
(1.00888 -0.0165293 -2.89885e-17)
(0.983826 0.0263349 4.39432e-17)
(1.02808 -0.0477726 4.7244e-17)
(0.875332 -0.994836 -2.62666e-16)
(0.857885 -0.839588 -2.7895e-16)
(0.910346 -0.762233 -1.10373e-16)
(0.912873 -0.668027 1.20262e-16)
(0.94403 -0.602786 -1.61065e-16)
(0.947875 -0.536661 9.31396e-17)
(0.97102 -0.486678 -1.42041e-16)
(0.97311 -0.436795 -6.22572e-17)
(0.991433 -0.39842 5.1734e-17)
(0.992068 -0.359788 1.22037e-16)
(1.00686 -0.329698 9.17994e-17)
(1.00642 -0.299245 -1.84871e-17)
(1.0185 -0.275137 -7.93771e-17)
(1.01724 -0.250769 -1.0674e-16)
(1.02718 -0.231039 -1.18439e-17)
(1.02525 -0.21129 1.14051e-16)
(1.03346 -0.194798 9.09361e-17)
(1.03096 -0.178614 -7.31574e-17)
(1.03774 -0.164534 9.61919e-18)
(1.03472 -0.151141 -3.12396e-17)
(1.04029 -0.138865 -1.19396e-17)
(1.03678 -0.127682 4.03965e-17)
(1.04132 -0.11675 -1.28417e-16)
(1.03733 -0.107335 -2.28249e-17)
(1.04095 -0.0973928 1.66621e-16)
(1.03646 -0.0894028 -4.51516e-17)
(1.03925 -0.0801706 5.01636e-18)
(1.03424 -0.0733398 3.5974e-17)
(1.03629 -0.0645909 -5.13297e-17)
(1.03073 -0.0587097 3.1058e-17)
(1.03205 -0.0502575 -1.47454e-18)
(1.02592 -0.0451586 6.5113e-17)
(1.02655 -0.0368457 7.17608e-18)
(1.0198 -0.0324054 1.44937e-16)
(1.0197 -0.0240183 9.59072e-17)
(1.01264 -0.0205942 -1.82564e-17)
(1.01 -0.00966785 4.854e-17)
(1.00997 -0.0168234 4.92998e-17)
(0.982129 0.026747 -9.86395e-17)
(1.03114 -0.0485098 5.00758e-17)
(0.940855 -1.00783 3.1617e-16)
(0.913154 -0.850533 1.88274e-16)
(0.960493 -0.77211 1.26538e-16)
(0.95684 -0.676715 8.56703e-19)
(0.98369 -0.610604 -4.40293e-17)
(0.983188 -0.543637 -1.88899e-18)
(1.00303 -0.49299 1.21825e-16)
(1.00184 -0.442472 1.65147e-17)
(1.01763 -0.403587 -1.102e-16)
(1.01573 -0.364463 -9.0062e-17)
(1.02853 -0.333975 6.02853e-17)
(1.0261 -0.303136 -1.25235e-16)
(1.03659 -0.278708 -5.1284e-17)
(1.03373 -0.254033 2.73862e-16)
(1.04237 -0.23404 -1.4619e-16)
(1.03914 -0.214041 1.4461e-18)
(1.04626 -0.19733 -1.79721e-17)
(1.0427 -0.18094 -9.71532e-18)
(1.04855 -0.166673 1.29327e-16)
(1.04465 -0.153109 -6.96998e-17)
(1.04942 -0.14067 3.64689e-17)
(1.04517 -0.129345 8.27126e-17)
(1.04899 -0.118268 -1.29945e-17)
(1.04438 -0.108733 -3.46466e-17)
(1.04734 -0.0986595 4.51414e-17)
(1.04233 -0.090568 -8.90793e-17)
(1.04452 -0.0812141 3.03323e-17)
(1.03906 -0.0742965 8.00373e-17)
(1.04053 -0.0654328 -1.52525e-16)
(1.03459 -0.0594763 7.58912e-17)