/*--------------------------------*- C++ -*----------------------------------*\
| =========                 |                                                 |
| \\      /  F ield         | foam-extend: Open Source CFD                    |
|  \\    /   O peration     | Version:  3.0                                   |
|   \\  /    A nd           | Web:         http://www.extend-project.de       |
|    \\/     M anipulation  |                                                 |
\*---------------------------------------------------------------------------*/
FoamFile
{
    version     2.0;
    format      ascii;
    class       volScalarField;
    location    "8";
    object      p;
}
// * * * * * * * * * * * * * * * * * * * * * * * * * * * * * * * * * * * * * //

dimensions      [0 0 0 0 0 0 0];

internalField   nonuniform List<scalar> 
900
(
-0.243177
-0.213517
-0.201516
-0.18475
-0.180038
-0.170124
-0.169044
-0.163196
-0.163736
-0.160317
-0.160992
-0.158772
-0.158135
-0.155879
-0.152216
-0.240555
-0.211235
-0.199376
-0.182804
-0.178148
-0.168346
-0.167276
-0.161485
-0.16201
-0.158607
-0.15926
-0.157027
-0.156396
-0.154138
-0.150624
-0.235448
-0.206777
-0.195184
-0.178982
-0.174434
-0.164852
-0.163809
-0.158144
-0.158659
-0.15532
-0.155958
-0.153754
-0.153153
-0.150941
-0.147596
-0.227645
-0.199962
-0.188776
-0.173138
-0.168756
-0.15951
-0.158513
-0.153048
-0.153556
-0.150333
-0.150965
-0.14884
-0.148293
-0.146186
-0.143025
-0.217482
-0.19108
-0.180418
-0.165511
-0.161345
-0.152539
-0.151607
-0.14641
-0.146915
-0.143856
-0.144482
-0.142464
-0.141965
-0.139957
-0.136981
-0.204829
-0.18002
-0.170012
-0.156013
-0.152115
-0.143857
-0.143005
-0.138144
-0.138651
-0.135807
-0.136435
-0.134575
-0.134149
-0.132297
-0.129517
-0.190045
-0.167088
-0.157839
-0.144898
-0.141311
-0.133692
-0.132935
-0.12847
-0.128982
-0.126396
-0.127033
-0.125375
-0.125042
-0.123401
-0.120818
-0.173088
-0.152253
-0.14387
-0.132138
-0.128906
-0.122016
-0.121362
-0.117345
-0.117856
-0.115555
-0.116189
-0.114736
-0.114486
-0.113033
-0.110701
-0.154319
-0.135821
-0.128393
-0.117992
-0.115149
-0.109058
-0.108517
-0.104989
-0.105493
-0.1035
-0.104124
-0.102895
-0.10273
-0.101497
-0.0994111
-0.133787
-0.11784
-0.111451
-0.1025
-0.100076
-0.094853
-0.0944251
-0.0914216
-0.0919057
-0.0902339
-0.0908279
-0.0898176
-0.0897291
-0.0887093
-0.0869365
-0.111842
-0.0986072
-0.0933225
-0.0859119
-0.0839311
-0.0796268
-0.0793141
-0.0768599
-0.0773129
-0.0759675
-0.0765163
-0.0757174
-0.0756978
-0.0748874
-0.0734684
-0.0886227
-0.0782483
-0.0741251
-0.0683362
-0.0668173
-0.0634765
-0.0632771
-0.0613948
-0.0618041
-0.0607934
-0.0612832
-0.0606996
-0.0607465
-0.0601621
-0.0591091
-0.0644496
-0.0570393
-0.0541187
-0.0500075
-0.0489641
-0.0466168
-0.0465293
-0.0452315
-0.0455873
-0.0449108
-0.0453273
-0.044945
-0.0450452
-0.0446569
-0.044003
-0.0395486
-0.0351791
-0.033489
-0.031097
-0.0305365
-0.0292052
-0.0292263
-0.0285254
-0.0288201
-0.0284873
-0.0288252
-0.0286592
-0.0288164
-0.0286516
-0.0283846
-0.0141966
-0.0129093
-0.0124652
-0.0118131
-0.011739
-0.0114328
-0.0115596
-0.0114584
-0.0116871
-0.0116987
-0.0119549
-0.0120094
-0.0122251
-0.0122943
-0.0124004
0.0113029
0.00950489
0.0087046
0.00761688
0.0072085
0.00649078
0.00626356
0.00576596
0.00561021
0.00525354
0.00509098
0.00481918
0.00457379
0.00429923
0.0038691
0.0367285
0.031867
0.0298325
0.0270201
0.0261362
0.0244067
0.0240849
0.022999
0.0229213
0.0222286
0.0221646
0.021682
0.0214142
0.0209396
0.0202071
0.0617131
0.0538572
0.0506192
0.046123
0.0447788
0.0420635
0.0416554
0.0399969
0.0400022
0.0389795
0.0390176
0.0383188
0.0380368
0.0373509
0.0363865
0.0860998
0.0753325
0.070926
0.0647955
0.0630081
0.05934
0.0588549
0.0566491
0.0567455
0.0554181
0.0555704
0.054692
0.0544102
0.0535734
0.0523141
0.109473
0.0959319
0.0904144
0.0827292
0.0805242
0.0759531
0.0754023
0.0726815
0.0728738
0.0712598
0.0715245
0.0704601
0.070162
0.0691155
0.0676032
0.131751
0.115573
0.109002
0.0998426
0.0972454
0.0918219
0.0912167
0.0880168
0.0883143
0.0864476
0.0868439
0.085641
0.0853661
0.0841822
0.0824157
0.152483
0.133869
0.126326
0.115805
0.112849
0.106643
0.105995
0.102363
0.102773
0.100696
0.101243
0.0999587
0.099755
0.0985254
0.0965135
0.171668
0.150804
0.142364
0.130589
0.127305
0.120379
0.119697
0.115668
0.116187
0.113913
0.114601
0.11322
0.113072
0.111735
0.109552
0.188843
0.16598
0.156745
0.143856
0.140283
0.13272
0.132011
0.127636
0.128258
0.125819
0.126644
0.125204
0.125123
0.123743
0.121359
0.204086
0.17945
0.169512
0.155636
0.151809
0.143681
0.14295
0.138263
0.138975
0.136379
0.13732
0.135802
0.135776
0.13433
0.131836
0.216943
0.190825
0.180299
0.165599
0.16156
0.152961
0.152211
0.147264
0.14805
0.145318
0.146351
0.144759
0.144776
0.143269
0.140719
0.227568
0.200226
0.189215
0.173836
0.169623
0.160634
0.15987
0.154704
0.155549
0.152699
0.153807
0.152146
0.152204
0.150659
0.148068
0.235534
0.207286
0.195919
0.180037
0.175697
0.166421
0.165645
0.160317
0.161205
0.158259
0.159417
0.157684
0.157763
0.156147
0.153578
0.241069
0.212193
0.20058
0.184351
0.179925
0.170452
0.169672
0.164232
0.165154
0.162146
0.163346
0.161574
0.161683
0.160046
0.157493
0.243788
0.21462
0.202894
0.186506
0.182042
0.172479
0.1717
0.166212
0.167154
0.164122
0.16535
0.163572
0.163717
0.162098
0.159565
0.243986
0.214811
0.203087
0.186698
0.182241
0.172681
0.17191
0.166428
0.167379
0.164356
0.165591
0.163819
0.163959
0.162329
0.159772
0.241337
0.212493
0.200905
0.184704
0.1803
0.170851
0.170093
0.164678
0.165622
0.162639
0.163863
0.162118
0.162245
0.160625
0.158044
0.236187
0.207957
0.196618
0.180763
0.176454
0.167208
0.166467
0.161171
0.162097
0.159189
0.160387
0.158702
0.158808
0.157236
0.154572
0.228288
0.200998
0.190036
0.174708
0.17054
0.161599
0.160876
0.155752
0.156637
0.153821
0.154961
0.153317
0.153387
0.151808
0.149195
0.218019
0.191939
0.181463
0.166811
0.162823
0.154271
0.153569
0.148662
0.149491
0.146792
0.147867
0.146305
0.146366
0.144896
0.142325
0.205218
0.180649
0.170779
0.156971
0.153205
0.145137
0.144456
0.139812
0.140561
0.137988
0.138954
0.137443
0.137447
0.136018
0.133545
0.190289
0.167476
0.158308
0.145481
0.141973
0.134464
0.133806
0.129461
0.130108
0.12766
0.128476
0.126971
0.126858
0.125377
0.123051
0.173154
0.152364
0.144006
0.132309
0.129098
0.122237
0.121606
0.117613
0.11815
0.115865
0.11653
0.115089
0.114887
0.113476
0.111251
0.154226
0.135668
0.128205
0.117755
0.114875
0.108729
0.108134
0.104531
0.104951
0.102846
0.103346
0.101956
0.101655
0.100264
0.0982483
0.133519
0.117413
0.110933
0.101856
0.0993415
0.0939888
0.09344
0.0902796
0.0905885
0.0887098
0.0890587
0.0877795
0.087403
0.0860993
0.0842226
0.11143
0.0979433
0.092514
0.0849044
0.0827843
0.0782827
0.077791
0.0751122
0.0753163
0.0736967
0.0739065
0.0727728
0.0723419
0.0711566
0.0694126
0.088065
0.0773593
0.0730473
0.0669984
0.0653009
0.0617084
0.0612854
0.0591283
0.0592343
0.0579057
0.0579839
0.0570207
0.056543
0.0554792
0.0538971
0.0637912
0.055982
0.0528342
0.0484126
0.0471579
0.0445163
0.0441705
0.0425642
0.0425788
0.0415682
0.0415298
0.0407784
0.0402855
0.0394223
0.0379805
0.0387974
0.0339815
0.0320385
0.0293
0.0285059
0.0268487
0.0265871
0.0255503
0.0254744
0.0247861
0.0246266
0.0240717
0.0235536
0.0228532
0.0216044
0.0134075
0.0116421
0.0109271
0.00990559
0.00958253
0.00893164
0.00875851
0.00830469
0.00813888
0.00777766
0.00749421
0.00712821
0.0065819
0.00602702
0.00502203
-0.012118
-0.0108059
-0.0102801
-0.00956888
-0.00941394
-0.00904985
-0.00913027
-0.00899865
-0.00924963
-0.00928551
-0.00967694
-0.00984628
-0.010367
-0.0107135
-0.0113806
-0.0375124
-0.0331267
-0.0313619
-0.0289181
-0.0282842
-0.0269026
-0.0268871
-0.0261656
-0.0264968
-0.0262026
-0.0266952
-0.0266656
-0.027146
-0.027282
-0.0275565
-0.0624524
-0.0550393
-0.0520515
-0.0478998
-0.0467902
-0.0444051
-0.0442899
-0.0429886
-0.043393
-0.0427817
-0.0433682
-0.0431631
-0.0435909
-0.0435445
-0.0433227
-0.0867427
-0.0763674
-0.0721834
-0.0663586
-0.0647815
-0.061409
-0.0611899
-0.0593097
-0.0597731
-0.0588278
-0.0594832
-0.0590553
-0.0594058
-0.0590839
-0.0584881
-0.110011
-0.0967916
-0.0914564
-0.0840228
-0.0819914
-0.0776665
-0.0773391
-0.0748976
-0.0754078
-0.0741422
-0.0748647
-0.0742556
-0.0745669
-0.0741018
-0.0731008
-0.13214
-0.116203
-0.109768
-0.100795
-0.0983273
-0.0930866
-0.092648
-0.0896564
-0.0901931
-0.0885909
-0.0893387
-0.0884925
-0.0887006
-0.0879897
-0.0866214
-0.152728
-0.134258
-0.126796
-0.116387
-0.113507
-0.107407
-0.106854
-0.103337
-0.103878
-0.10193
-0.102658
-0.101519
-0.101554
-0.100481
-0.0987937
-0.171737
-0.150918
-0.142504
-0.130762
-0.127499
-0.120601
-0.11994
-0.115934
-0.116476
-0.114214
-0.11493
-0.113558
-0.113456
-0.112165
-0.110084
-0.188754
-0.165832
-0.156563
-0.143625
-0.140017
-0.1324
-0.131639
-0.127189
-0.127725
-0.125169
-0.125861
-0.124246
-0.124003
-0.122438
-0.120106
-0.203823
-0.17903
-0.169003
-0.155003
-0.151089
-0.142836
-0.141987
-0.13715
-0.137689
-0.134892
-0.135578
-0.133789
-0.133438
-0.131681
-0.129014
-0.216536
-0.190168
-0.1795
-0.164605
-0.160431
-0.151642
-0.15072
-0.145558
-0.146103
-0.143111
-0.143804
-0.141888
-0.141464
-0.139565
-0.13659
-0.227018
-0.199345
-0.188149
-0.172513
-0.168127
-0.158896
-0.157916
-0.152492
-0.153045
-0.149902
-0.150604
-0.148589
-0.148101
-0.146066
-0.142836
-0.234882
-0.206236
-0.194645
-0.178456
-0.17391
-0.164347
-0.163323
-0.157701
-0.158263
-0.15501
-0.155729
-0.153665
-0.153153
-0.15108
-0.147623
-0.240323
-0.211002
-0.199138
-0.182566
-0.177911
-0.168118
-0.167063
-0.161302
-0.161864
-0.158526
-0.159241
-0.157117
-0.156554
-0.154404
-0.150788
-0.243003
-0.213357
-0.201362
-0.184605
-0.179895
-0.169989
-0.168914
-0.163077
-0.163629
-0.160231
-0.160923
-0.158729
-0.158107
-0.155853
-0.152183
)
;

boundaryField
{
    out
    {
        type            implicitExtrapolation;
    }
    in
    {
        type            implicitExtrapolation;
    }
    frontAndBack
    {
        type            empty;
    }
}


// ************************************************************************* //
