/*--------------------------------*- C++ -*----------------------------------*\
| =========                 |                                                 |
| \\      /  F ield         | foam-extend: Open Source CFD                    |
|  \\    /   O peration     | Version:  3.0                                   |
|   \\  /    A nd           | Web:         http://www.extend-project.de       |
|    \\/     M anipulation  |                                                 |
\*---------------------------------------------------------------------------*/
FoamFile
{
    version     2.0;
    format      ascii;
    class       volScalarField;
    location    "23";
    object      p;
}
// * * * * * * * * * * * * * * * * * * * * * * * * * * * * * * * * * * * * * //

dimensions      [0 0 0 0 0 0 0];

internalField   nonuniform List<scalar> 
120
(
-0.285273
-0.212498
-0.222084
-0.212229
-0.212383
-0.265907
-0.198065
-0.206992
-0.197798
-0.197938
-0.228286
-0.170055
-0.177728
-0.169844
-0.169967
-0.175246
-0.130539
-0.136422
-0.130364
-0.130455
-0.11013
-0.0820488
-0.0857536
-0.0819555
-0.082016
-0.037646
-0.0280499
-0.0293116
-0.0280103
-0.0280287
0.0375368
0.0279393
0.0291942
0.0278875
0.0279052
0.110024
0.0819418
0.0856403
0.0818371
0.0818971
0.175147
0.130439
0.136317
0.130254
0.130345
0.228196
0.169964
0.177633
0.169746
0.169869
0.265828
0.197986
0.206911
0.197715
0.197854
0.285207
0.212432
0.222017
0.212162
0.212315
0.285283
0.21248
0.22206
0.212195
0.212344
0.265779
0.197966
0.2069
0.197718
0.197861
0.228297
0.170038
0.177705
0.169811
0.169931
0.175118
0.13044
0.13633
0.130284
0.130379
0.11014
0.0820313
0.0857301
0.0819211
0.0819778
0.0375173
0.0279492
0.0292173
0.0279275
0.0279495
-0.0375282
-0.0279589
-0.0292203
-0.0279255
-0.027947
-0.110154
-0.0820443
-0.0857368
-0.0819232
-0.0819794
-0.175139
-0.13046
-0.136344
-0.130294
-0.130388
-0.228326
-0.170067
-0.17773
-0.169833
-0.169952
-0.26582
-0.198006
-0.206937
-0.197754
-0.197896
-0.285335
-0.212533
-0.222112
-0.212245
-0.212395
)
;

boundaryField
{
    out
    {
        type            implicitExtrapolation;
    }
    in
    {
        type            implicitExtrapolation;
    }
    frontAndBack
    {
        type            empty;
    }
}


// ************************************************************************* //
