/*--------------------------------*- C++ -*----------------------------------*\
| =========                 |                                                 |
| \\      /  F ield         | OpenFOAM: The Open Source CFD Toolbox           |
|  \\    /   O peration     | Version:  2.2.0                                 |
|   \\  /    A nd           | Web:      www.OpenFOAM.org                      |
|    \\/     M anipulation  |                                                 |
\*---------------------------------------------------------------------------*/
FoamFile
{
    version     2.0;
    format      ascii;
    class       volScalarField;
    location    "20";
    object      Theta;
}
// * * * * * * * * * * * * * * * * * * * * * * * * * * * * * * * * * * * * * //

dimensions      [0 2 -2 0 0 0 0];

internalField   nonuniform List<scalar> 
7920
(
2.76715
3.00288
3.10875
3.42985
3.44286
4.09571
3.60866
5.30502
2.73812
2.94499
3.05664
3.29656
3.39656
3.76827
3.68526
4.42338
2.7005
2.89558
3.00434
3.21245
3.33966
3.61592
3.65291
4.12075
2.65158
2.83467
2.9318
3.11166
3.24696
3.4444
3.56457
3.81514
2.60205
2.78496
2.87018
3.04054
3.17469
3.34119
3.48777
3.65248
2.56705
2.75364
2.82979
2.99741
3.12918
3.28246
3.44208
3.56884
2.56705
2.75364
2.82979
2.99741
3.12918
3.28246
3.44208
3.56884
2.60205
2.78496
2.87018
3.04054
3.17469
3.34119
3.48777
3.65247
2.65158
2.83467
2.9318
3.11165
3.24696
3.44439
3.56457
3.81513
2.7005
2.89558
3.00434
3.21245
3.33966
3.61592
3.65291
4.12077
2.73811
2.94499
3.05664
3.29656
3.39656
3.76826
3.68524
4.42335
2.76715
3.00288
3.10875
3.42986
3.44286
4.09575
3.60862
5.30513
2.23102
2.36552
2.3155
2.41937
2.38913
2.52344
2.43131
2.72594
2.2455
2.36499
2.3317
2.41076
2.4219
2.47705
2.52593
2.5537
2.26303
2.35767
2.33058
2.38752
2.39601
2.4209
2.45503
2.4324
2.29154
2.36047
2.35032
2.39108
2.4106
2.42024
2.47522
2.42548
2.32437
2.36028
2.36472
2.38524
2.40518
2.40109
2.44381
2.38268
2.34843
2.36286
2.37964
2.38874
2.41261
2.40437
2.44643
2.38745
2.34843
2.36286
2.37964
2.38874
2.41261
2.40437
2.44643
2.38746
2.32437
2.36028
2.36472
2.38524
2.40518
2.40109
2.44381
2.38269
2.29154
2.36047
2.35032
2.39108
2.4106
2.42025
2.47522
2.42549
2.26303
2.35767
2.33058
2.38752
2.39601
2.42091
2.45503
2.4324
2.2455
2.36499
2.3317
2.41076
2.4219
2.47706
2.52594
2.55372
2.23102
2.36552
2.31549
2.41937
2.38912
2.52342
2.43133
2.72587
2.20895
2.19905
2.24311
2.26216
2.30214
2.34029
2.3915
2.44028
2.20627
2.20318
2.24392
2.25874
2.31025
2.31843
2.42269
2.36484
2.20601
2.20363
2.23374
2.24536
2.28245
2.28562
2.35526
2.30592
2.20597
2.21429
2.23554
2.25221
2.28491
2.2928
2.36044
2.32697
2.209
2.22307
2.23398
2.25209
2.27488
2.28376
2.3336
2.31073
2.21143
2.23118
2.23637
2.25726
2.27639
2.28862
2.33376
2.32149
2.21143
2.23118
2.23637
2.25726
2.27639
2.28862
2.33376
2.32149
2.209
2.22307
2.23398
2.25209
2.27488
2.28376
2.3336
2.31072
2.20597
2.21429
2.23553
2.25221
2.28491
2.2928
2.36044
2.32697
2.20601
2.20363
2.23374
2.24536
2.28245
2.28562
2.35526
2.30593
2.20627
2.20318
2.24392
2.25874
2.31025
2.31843
2.42269
2.36483
2.20895
2.19905
2.24312
2.26217
2.30214
2.34031
2.39148
2.44035
2.06553
2.09887
2.08663
2.10296
2.10878
2.11203
2.14229
2.11699
2.06771
2.10069
2.09055
2.10418
2.11668
2.10893
2.16115
2.09824
2.07305
2.09881
2.08812
2.09711
2.10255
2.09341
2.12209
2.07188
2.07909
2.10261
2.09382
2.10255
2.1082
2.10305
2.12925
2.09498
2.08696
2.10468
2.09691
2.10256
2.10526
2.10025
2.11609
2.09034
2.09204
2.10743
2.10083
2.10566
2.10816
2.10473
2.11819
2.09963
2.09204
2.10743
2.10083
2.10566
2.10816
2.10474
2.11819
2.09963
2.08696
2.10468
2.09691
2.10256
2.10526
2.10025
2.11609
2.09034
2.07909
2.10261
2.09382
2.10256
2.1082
2.10305
2.12925
2.09498
2.07305
2.09881
2.08812
2.09711
2.10255
2.09342
2.12209
2.07188
2.06771
2.10069
2.09055
2.10418
2.11668
2.10893
2.16115
2.09824
2.06553
2.09887
2.08663
2.10296
2.10878
2.11203
2.14229
2.11698
2.05426
2.05065
2.05888
2.06121
2.07102
2.07115
2.09434
2.07768
2.05347
2.05221
2.05965
2.06189
2.0739
2.0696
2.10198
2.06867
2.05406
2.05208
2.05709
2.05842
2.06573
2.06165
2.08082
2.05583
2.05446
2.05508
2.05851
2.06151
2.06781
2.06682
2.08381
2.06863
2.05606
2.05715
2.05874
2.06181
2.06564
2.0655
2.07666
2.06677
2.05708
2.05919
2.0599
2.06359
2.06674
2.06789
2.07756
2.07186
2.05708
2.05919
2.0599
2.06359
2.06674
2.06789
2.07756
2.07186
2.05606
2.05715
2.05874
2.06181
2.06564
2.0655
2.07666
2.06677
2.05446
2.05508
2.05851
2.06151
2.06781
2.06681
2.08381
2.06863
2.05407
2.05208
2.05709
2.05842
2.06573
2.06165
2.08082
2.05583
2.05346
2.05221
2.05965
2.06189
2.0739
2.0696
2.10198
2.06867
2.05426
2.05065
2.05888
2.06122
2.07102
2.07115
2.09433
2.0777
2.01545
2.02348
2.02083
2.02424
2.02637
2.02586
2.03552
2.02532
2.01576
2.024
2.02164
2.02467
2.02807
2.02556
2.03946
2.02211
2.01696
2.0236
2.02093
2.02301
2.02447
2.02196
2.02955
2.01632
2.0181
2.02464
2.02217
2.02448
2.02582
2.02465
2.03127
2.02285
2.01973
2.02524
2.02276
2.02456
2.02507
2.02413
2.02807
2.02214
2.02072
2.02598
2.0236
2.02537
2.02576
2.02533
2.02862
2.02466
2.02072
2.02598
2.0236
2.02537
2.02575
2.02533
2.02862
2.02466
2.01973
2.02524
2.02276
2.02456
2.02507
2.02413
2.02807
2.02214
2.0181
2.02464
2.02217
2.02448
2.02582
2.02465
2.03127
2.02285
2.01696
2.0236
2.02093
2.02301
2.02447
2.02196
2.02954
2.01633
2.01576
2.024
2.02164
2.02467
2.02807
2.02556
2.03946
2.02211
2.01545
2.02348
2.02083
2.02424
2.02636
2.02586
2.03551
2.02532
2.01129
2.01074
2.012
2.01257
2.01435
2.01408
2.01902
2.01446
2.01112
2.01107
2.01219
2.01277
2.01499
2.01391
2.02065
2.01299
2.01131
2.01103
2.01168
2.01204
2.01327
2.01226
2.0161
2.01038
2.01143
2.01164
2.01203
2.01272
2.01377
2.01346
2.0168
2.01334
2.01182
2.01206
2.01212
2.01279
2.01335
2.01322
2.01532
2.01305
2.01207
2.01247
2.01239
2.01317
2.01361
2.01375
2.01554
2.01419
2.01207
2.01247
2.01239
2.01317
2.01361
2.01375
2.01554
2.01419
2.01182
2.01206
2.01212
2.01279
2.01335
2.01322
2.01532
2.01305
2.01143
2.01164
2.01203
2.01272
2.01377
2.01346
2.0168
2.01334
2.01131
2.01103
2.01168
2.01204
2.01327
2.01226
2.0161
2.01038
2.01112
2.01107
2.01219
2.01277
2.01499
2.01391
2.02065
2.01299
2.01129
2.01074
2.012
2.01257
2.01435
2.01408
2.01902
2.01447
2.00262
2.00441
2.00379
2.00452
2.0049
2.00484
2.0067
2.00474
2.00266
2.00452
2.00392
2.00461
2.0052
2.0048
2.00741
2.00418
2.00287
2.00445
2.00379
2.0043
2.00453
2.00413
2.00556
2.00311
2.00306
2.00466
2.004
2.00458
2.00478
2.00463
2.00587
2.00436
2.00334
2.00478
2.0041
2.0046
2.00464
2.00455
2.00528
2.00424
2.0035
2.00493
2.00425
2.00475
2.00476
2.00477
2.00539
2.00472
2.0035
2.00493
2.00425
2.00475
2.00476
2.00477
2.00539
2.00472
2.00334
2.00478
2.0041
2.0046
2.00464
2.00455
2.00528
2.00424
2.00306
2.00466
2.004
2.00458
2.00478
2.00463
2.00587
2.00436
2.00287
2.00445
2.00379
2.0043
2.00453
2.00413
2.00556
2.00311
2.00266
2.00452
2.00392
2.00461
2.0052
2.0048
2.00741
2.00418
2.00262
2.00441
2.00379
2.00452
2.0049
2.00484
2.0067
2.00474
2.00214
2.00162
2.00207
2.00202
2.00236
2.00228
2.00306
2.00233
2.00212
2.00167
2.0021
2.00205
2.00246
2.00226
2.00332
2.00211
2.00217
2.00166
2.00203
2.00194
2.0022
2.00201
2.00261
2.00171
2.0022
2.00175
2.00209
2.00204
2.00228
2.00219
2.00272
2.00217
2.00227
2.00182
2.00211
2.00206
2.00222
2.00216
2.0025
2.00213
2.00232
2.00188
2.00216
2.00211
2.00226
2.00224
2.00253
2.00231
2.00232
2.00188
2.00216
2.00211
2.00226
2.00224
2.00253
2.00231
2.00227
2.00182
2.00211
2.00206
2.00222
2.00216
2.0025
2.00213
2.0022
2.00175
2.00209
2.00204
2.00228
2.00219
2.00272
2.00217
2.00217
2.00166
2.00203
2.00194
2.0022
2.00201
2.00261
2.00171
2.00212
2.00167
2.0021
2.00205
2.00246
2.00226
2.00332
2.00211
2.00214
2.00162
2.00207
2.00202
2.00236
2.00228
2.00306
2.00233
1.99929
2.00058
1.99979
2.00027
2.00005
2.00015
2.00024
2.00007
1.99927
2.00059
1.99979
2.00028
2.00008
2.00015
2.0003
2.00004
1.99926
2.0006
1.99977
2.00026
2.00001
2.0001
2.00014
1.99995
1.99925
2.00063
1.99977
2.00028
2.00003
2.00014
2.00016
2.00005
1.99924
2.00065
1.99976
2.00029
2.00001
2.00013
2.00011
2.00005
1.99923
2.00067
1.99976
2.0003
2.00001
2.00015
2.00012
2.00008
1.99923
2.00067
1.99976
2.0003
2.00001
2.00015
2.00012
2.00008
1.99924
2.00065
1.99976
2.00029
2.00001
2.00013
2.00011
2.00005
1.99925
2.00063
1.99977
2.00028
2.00003
2.00014
2.00016
2.00005
1.99926
2.0006
1.99977
2.00026
2.00001
2.0001
2.00014
1.99995
1.99927
2.00059
1.99979
2.00028
2.00008
2.00015
2.0003
2.00004
1.99929
2.00058
1.99979
2.00027
2.00005
2.00015
2.00024
2.00007
2.00148
1.99892
2.00059
1.99956
2.00009
1.99985
1.99979
2.00005
2.00153
1.99888
2.00061
1.99954
2.00006
1.99985
1.99969
2.00008
2.00158
1.99886
2.00067
1.99957
2.00017
1.99994
1.99994
2.00023
2.00165
1.9988
2.00069
1.99953
2.00016
1.99987
1.99991
2.00006
2.00171
1.99875
2.00073
1.99952
2.0002
1.99989
2
2.00008
2.00175
1.99871
2.00074
1.99949
2.0002
1.99986
1.99999
2.00002
2.00175
1.99871
2.00074
1.99949
2.0002
1.99986
1.99999
2.00002
2.00171
1.99875
2.00073
1.99952
2.0002
1.99989
2
2.00008
2.00165
1.9988
2.00069
1.99953
2.00016
1.99987
1.99991
2.00006
2.00158
1.99886
2.00067
1.99957
2.00017
1.99994
1.99994
2.00023
2.00153
1.99888
2.00061
1.99954
2.00006
1.99985
1.99969
2.00008
2.00148
1.99892
2.00059
1.99956
2.00009
1.99985
1.99979
2.00005
1.99395
1.99865
1.99501
1.99685
1.99509
1.99563
1.99406
1.99484
1.99386
1.99864
1.9949
1.99685
1.99493
1.99572
1.9937
1.99536
1.99362
1.99873
1.99491
1.99703
1.99527
1.99609
1.99469
1.99594
1.99336
1.9987
1.99471
1.99691
1.99511
1.99584
1.99453
1.99532
1.99303
1.9987
1.99456
1.99692
1.99514
1.99589
1.99484
1.9954
1.99282
1.99867
1.99441
1.99686
1.99505
1.99578
1.99478
1.99515
1.99282
1.99867
1.99441
1.99686
1.99505
1.99578
1.99478
1.99515
1.99303
1.9987
1.99456
1.99692
1.99514
1.99589
1.99484
1.9954
1.99336
1.9987
1.99471
1.99691
1.99511
1.99584
1.99453
1.99532
1.99362
1.99873
1.99491
1.99703
1.99527
1.99609
1.99469
1.99594
1.99386
1.99864
1.9949
1.99685
1.99493
1.99572
1.9937
1.99536
1.99395
1.99865
1.99501
1.99685
1.99509
1.99562
1.99406
1.99484
2.00259
1.99081
1.99887
1.99334
1.99595
1.99477
1.9932
1.99626
2.00291
1.99048
1.99882
1.99313
1.99547
1.99473
1.99192
1.9968
2.00297
1.9904
1.99927
1.99355
1.99664
1.9958
1.99487
1.99858
2.00326
1.98982
1.99925
1.99303
1.99639
1.99499
1.99438
1.99665
2.00339
1.98937
1.99942
1.99292
1.99678
1.99514
1.9954
1.99689
2.00354
1.98896
1.99942
1.99263
1.99669
1.99479
1.99528
1.99615
2.00354
1.98896
1.99942
1.99263
1.99669
1.99479
1.99528
1.99615
2.00339
1.98937
1.99942
1.99292
1.99678
1.99514
1.9954
1.99689
2.00326
1.98982
1.99925
1.99303
1.99639
1.99499
1.99438
1.99665
2.00297
1.9904
1.99927
1.99355
1.99664
1.9958
1.99487
1.99858
2.00291
1.99048
1.99882
1.99313
1.99547
1.99473
1.99192
1.9968
2.00259
1.99081
1.99887
1.99334
1.99595
1.99477
1.9932
1.99626
1.96156
1.9701
1.95589
1.95662
1.94567
1.94205
1.92876
1.92658
1.96093
1.96953
1.95478
1.95647
1.94333
1.94382
1.92276
1.93498
1.95959
1.96991
1.95557
1.95858
1.94743
1.9487
1.93393
1.94376
1.95777
1.96867
1.95391
1.95707
1.9459
1.94631
1.93209
1.93815
1.9554
1.96792
1.95295
1.95704
1.94676
1.94724
1.936
1.93985
1.95374
1.96704
1.95171
1.95614
1.94592
1.94602
1.93552
1.93738
1.95374
1.96704
1.95171
1.95614
1.94592
1.94602
1.93552
1.93738
1.9554
1.96792
1.95295
1.95704
1.94676
1.94724
1.936
1.93985
1.95777
1.96867
1.95391
1.95707
1.9459
1.94631
1.93209
1.93815
1.95959
1.96991
1.95557
1.95858
1.94743
1.9487
1.93393
1.94376
1.96093
1.96953
1.95478
1.95647
1.94333
1.94382
1.92276
1.93498
1.96156
1.9701
1.95589
1.95662
1.94567
1.94205
1.92876
1.92657
1.97756
1.96961
1.96883
1.96285
1.95839
1.95388
1.94444
1.94403
1.9775
1.96889
1.96806
1.96265
1.95628
1.95537
1.93871
1.95112
1.9767
1.96911
1.96915
1.96469
1.96041
1.96015
1.94943
1.95966
1.97586
1.9677
1.96814
1.9633
1.9593
1.958
1.94786
1.9544
1.97448
1.96676
1.9678
1.96331
1.96047
1.95905
1.9518
1.95616
1.97357
1.96577
1.96705
1.96248
1.95993
1.95799
1.95147
1.95389
1.97357
1.96577
1.96705
1.96248
1.95993
1.95799
1.95147
1.95389
1.97448
1.96676
1.9678
1.96331
1.96047
1.95905
1.9518
1.95616
1.97586
1.9677
1.96814
1.9633
1.9593
1.958
1.94786
1.9544
1.9767
1.96911
1.96915
1.96469
1.96041
1.96015
1.94943
1.95966
1.9775
1.96889
1.96806
1.96265
1.95628
1.95537
1.93871
1.95112
1.97756
1.96961
1.96883
1.96285
1.95839
1.95388
1.94444
1.94403
2.81477
3.06047
3.17963
3.51278
3.54094
4.20185
3.737
5.41095
2.80629
3.02532
3.16097
3.4158
3.54923
3.92454
3.90963
4.59584
2.7928
2.99326
3.1268
3.34314
3.49599
3.76576
3.84269
4.24695
2.78117
2.96491
3.09634
3.28508
3.44936
3.647
3.80218
4.01306
2.77142
2.94362
3.06974
3.24264
3.40181
3.5665
3.72796
3.86302
2.76514
2.93154
3.05498
3.22053
3.37698
3.52808
3.69497
3.8006
2.76302
2.92868
3.0519
3.21656
3.37339
3.52239
3.69272
3.79179
2.76341
2.93198
3.05492
3.22216
3.37891
3.53188
3.69815
3.80366
2.76898
2.94828
3.07741
3.25931
3.42523
3.60625
3.78283
3.94493
2.77249
2.96312
3.08912
3.28893
3.43877
3.66973
3.77097
4.06767
2.78149
2.99274
3.12579
3.3654
3.51105
3.84205
3.90308
4.44485
2.77702
3.00674
3.11484
3.4176
3.45012
4.0303
3.64628
5.06344
2.17851
2.34569
2.27075
2.39481
2.34685
2.50598
2.37694
2.74912
2.17454
2.33579
2.26536
2.36924
2.34897
2.43357
2.41758
2.5353
2.16682
2.32734
2.25445
2.35145
2.33362
2.3971
2.39338
2.45822
2.161
2.32009
2.2471
2.3385
2.32639
2.37054
2.39439
2.40209
2.15678
2.31427
2.23964
2.32715
2.31463
2.34797
2.37586
2.35484
2.15573
2.31252
2.23828
2.32453
2.31317
2.343
2.3756
2.344
2.15844
2.31341
2.24001
2.32541
2.31357
2.34371
2.37331
2.34484
2.16491
2.31959
2.24902
2.33686
2.32589
2.36491
2.3887
2.38532
2.17507
2.32625
2.25837
2.3474
2.33332
2.38398
2.39019
2.42579
2.18791
2.34126
2.27847
2.37775
2.36156
2.44609
2.42334
2.55649
2.20306
2.34747
2.28627
2.38633
2.35639
2.46172
2.38859
2.59491
2.21826
2.36925
2.3119
2.43889
2.38838
2.59068
2.40486
2.93946
2.19784
2.17715
2.23184
2.25088
2.2898
2.34913
2.36802
2.50114
2.19519
2.17018
2.22479
2.23429
2.27932
2.30809
2.35996
2.39126
2.19168
2.16495
2.21799
2.22493
2.26733
2.29266
2.33716
2.36859
2.18908
2.16042
2.21318
2.21749
2.2604
2.28004
2.33097
2.34896
2.18723
2.15707
2.20897
2.21135
2.25294
2.26918
2.31843
2.32963
2.18646
2.15645
2.20803
2.21019
2.25174
2.26742
2.31755
2.32732
2.18751
2.1575
2.20835
2.21055
2.25082
2.26705
2.31393
2.32659
2.18924
2.16241
2.21282
2.21801
2.25815
2.28011
2.32382
2.35088
2.19364
2.16702
2.21617
2.22267
2.25923
2.28598
2.31817
2.36148
2.1966
2.17873
2.22735
2.24287
2.27951
2.3247
2.34824
2.43892
2.20325
2.18259
2.22841
2.24345
2.27101
2.31976
2.31676
2.42407
2.20559
2.20058
2.24535
2.27935
2.3044
2.40041
2.36912
2.62874
2.04693
2.08831
2.07066
2.09295
2.09292
2.10943
2.11917
2.14174
2.04586
2.08534
2.0675
2.08614
2.08758
2.09305
2.11194
2.0989
2.04426
2.08337
2.06454
2.08282
2.08198
2.08844
2.09975
2.09472
2.04324
2.08188
2.06289
2.08067
2.07965
2.08538
2.09749
2.09158
2.04275
2.08086
2.06155
2.07884
2.07704
2.08231
2.09241
2.08651
2.04293
2.08105
2.06192
2.07932
2.07761
2.08339
2.09337
2.08892
2.04433
2.08175
2.06276
2.07996
2.07771
2.08399
2.09181
2.08999
2.04604
2.08433
2.06591
2.08435
2.08249
2.0919
2.09824
2.10482
2.04968
2.08601
2.0679
2.08579
2.08217
2.09299
2.09282
2.1066
2.05222
2.09186
2.07493
2.09677
2.09459
2.11433
2.11215
2.14925
2.05773
2.09215
2.07532
2.09424
2.0877
2.10574
2.08998
2.12891
2.06048
2.10141
2.08664
2.11396
2.11007
2.1489
2.12924
2.23337
2.04909
2.04303
2.05329
2.05583
2.06456
2.07087
2.0838
2.09265
2.04846
2.0415
2.05149
2.05231
2.06128
2.06262
2.07859
2.07124
2.0477
2.0405
2.04996
2.05064
2.05825
2.06044
2.07181
2.06983
2.04722
2.03979
2.04915
2.04962
2.05698
2.05913
2.07028
2.06903
2.047
2.03936
2.04851
2.0488
2.05566
2.05781
2.06759
2.06708
2.04701
2.03959
2.04869
2.04915
2.05596
2.05853
2.06803
2.06872
2.04757
2.0401
2.04903
2.04954
2.05595
2.05885
2.0671
2.06932
2.04809
2.04161
2.05046
2.05183
2.05831
2.06287
2.07037
2.07686
2.04958
2.04266
2.05118
2.05249
2.05787
2.06304
2.06722
2.07693
2.05018
2.04594
2.05446
2.05817
2.06423
2.07387
2.07753
2.09844
2.05242
2.04631
2.05419
2.05666
2.06028
2.06866
2.0657
2.08612
2.05278
2.05154
2.05967
2.06697
2.07226
2.09076
2.08787
2.13948
2.01071
2.02025
2.01667
2.02122
2.02217
2.02469
2.02953
2.03082
2.01047
2.0196
2.01592
2.01973
2.02079
2.02118
2.02732
2.02172
2.01017
2.01917
2.01524
2.019
2.01936
2.02024
2.024
2.0212
2.01
2.01892
2.01494
2.01866
2.01889
2.01987
2.02342
2.02131
2.00998
2.01877
2.01472
2.01837
2.01836
2.01941
2.02222
2.02068
2.01008
2.01892
2.01489
2.01863
2.01861
2.01991
2.02253
2.02175
2.01049
2.01918
2.01517
2.01888
2.0187
2.02018
2.02219
2.02224
2.01088
2.01986
2.01595
2.01999
2.0199
2.02216
2.02381
2.02594
2.01181
2.02029
2.01642
2.02029
2.01976
2.02225
2.02235
2.02599
2.0123
2.02175
2.0181
2.02295
2.02286
2.02735
2.02733
2.03615
2.01369
2.02178
2.01812
2.02215
2.02102
2.02476
2.02167
2.03003
2.01419
2.0241
2.02092
2.02697
2.02687
2.03511
2.03246
2.05474
2.01001
2.00891
2.01057
2.01116
2.0127
2.01365
2.01648
2.01712
2.00988
2.00862
2.01023
2.0105
2.01207
2.01209
2.01546
2.01307
2.00974
2.00842
2.00992
2.01016
2.01141
2.01164
2.01391
2.01281
2.00966
2.00832
2.00978
2.01001
2.0112
2.0115
2.01364
2.01292
2.00964
2.00826
2.00968
2.00988
2.01095
2.0113
2.01309
2.01266
2.00966
2.00834
2.00975
2.01001
2.01106
2.01153
2.01323
2.01317
2.0098
2.00848
2.00986
2.01013
2.0111
2.01166
2.01307
2.0134
2.00992
2.00882
2.01018
2.01064
2.01162
2.01254
2.01378
2.01506
2.01026
2.00905
2.01035
2.01078
2.01154
2.01257
2.01311
2.01506
2.01038
2.00975
2.01105
2.01198
2.01291
2.01485
2.01534
2.01961
2.01089
2.00982
2.01099
2.01162
2.01204
2.01365
2.01275
2.01679
2.01094
2.01093
2.01217
2.0138
2.01466
2.01829
2.01769
2.02792
2.00171
2.00372
2.00297
2.00387
2.00407
2.00452
2.00553
2.00564
2.00167
2.00361
2.00284
2.00361
2.00382
2.00391
2.00514
2.00402
2.00162
2.00353
2.00271
2.00347
2.00355
2.00372
2.00449
2.0039
2.00159
2.0035
2.00267
2.00342
2.00347
2.00368
2.00439
2.00398
2.0016
2.00348
2.00263
2.00338
2.00338
2.0036
2.00417
2.00389
2.00162
2.00351
2.00267
2.00344
2.00343
2.00371
2.00423
2.00412
2.0017
2.00357
2.00273
2.00349
2.00346
2.00378
2.00418
2.00424
2.00178
2.00371
2.00288
2.00371
2.00369
2.00415
2.00448
2.00495
2.00195
2.0038
2.00297
2.00377
2.00367
2.00418
2.00422
2.00497
2.00204
2.00407
2.00328
2.00427
2.00425
2.00512
2.00515
2.00685
2.0023
2.00408
2.00329
2.00412
2.00391
2.00464
2.0041
2.0057
2.00238
2.00452
2.00381
2.00502
2.00501
2.00656
2.00615
2.01029
2.00191
2.00132
2.00181
2.00177
2.00207
2.00218
2.00264
2.00268
2.00188
2.00128
2.00176
2.00168
2.00198
2.00195
2.00249
2.00208
2.00186
2.00125
2.00171
2.00162
2.00187
2.00187
2.00224
2.00203
2.00185
2.00124
2.00169
2.0016
2.00184
2.00186
2.0022
2.00206
2.00185
2.00123
2.00168
2.00159
2.00181
2.00183
2.00212
2.00203
2.00185
2.00125
2.00169
2.00161
2.00183
2.00187
2.00214
2.00212
2.00188
2.00127
2.00171
2.00163
2.00184
2.00189
2.00212
2.00216
2.0019
2.00133
2.00176
2.00171
2.00192
2.00203
2.00223
2.00243
2.00196
2.00136
2.00179
2.00174
2.00191
2.00204
2.00213
2.00244
2.00198
2.00147
2.00191
2.00192
2.00213
2.0024
2.00248
2.00314
2.00207
2.00148
2.0019
2.00187
2.002
2.00221
2.00208
2.00271
2.00208
2.00166
2.00209
2.00221
2.00241
2.00293
2.00286
2.00444
1.99929
2.00049
1.99976
2.00021
2.00001
2.00013
2.00015
2.00016
1.99929
2.00048
1.99975
2.00019
1.99999
2.00009
2.00013
2.00004
1.99929
2.00047
1.99975
2.00018
1.99997
2.00008
2.00007
2.00003
1.9993
2.00047
1.99975
2.00018
1.99997
2.00008
2.00007
2.00004
1.9993
2.00047
1.99975
2.00018
1.99996
2.00007
2.00005
2.00004
1.9993
2.00047
1.99975
2.00018
1.99997
2.00008
2.00006
2.00006
1.99931
2.00048
1.99975
2.00019
1.99997
2.00009
2.00005
2.00007
1.9993
2.00049
1.99976
2.0002
1.99998
2.00012
2.00008
2.00012
1.99931
2.0005
1.99976
2.00021
1.99998
2.00012
2.00005
2.00013
1.9993
2.00053
1.99978
2.00025
2.00002
2.00019
2.00013
2.00028
1.9993
2.00054
1.99977
2.00024
1.99999
2.00015
2.00003
2.00018
1.99929
2.00058
1.9998
2.00031
2.00007
2.0003
2.0002
2.00054
2.00137
1.99907
2.00057
1.99963
2.00012
1.99983
1.99988
1.99984
2.00136
1.99909
2.00057
1.99966
2.00014
1.9999
1.99992
2.00001
2.00135
1.9991
2.00058
1.99967
2.00017
1.99992
1.99999
2.00003
2.00134
1.99911
2.00058
1.99968
2.00017
1.99992
2
2.00002
2.00133
1.99912
2.00058
1.99968
2.00018
1.99993
2.00002
2.00003
2.00133
1.99911
2.00058
1.99968
2.00017
1.99992
2.00002
2.00001
2.00133
1.9991
2.00058
1.99967
2.00018
1.99992
2.00003
2
2.00135
1.99908
2.00057
1.99965
2.00016
1.99987
1.99999
1.99992
2.00136
1.99906
2.00058
1.99964
2.00017
1.99988
2.00004
1.99992
2.0014
1.99901
2.00057
1.99958
2.00011
1.99977
1.99994
1.99969
2.00141
1.99899
2.00059
1.9996
2.00018
1.99984
2.00009
1.99985
2.00146
1.99892
2.00056
1.99949
2.00006
1.99961
1.99986
1.99932
1.99477
1.99886
1.99562
1.99715
1.99563
1.99581
1.99472
1.99442
1.99483
1.99892
1.99573
1.99733
1.9958
1.99623
1.99499
1.99552
1.99489
1.99896
1.99582
1.99741
1.99597
1.99634
1.99536
1.99558
1.99495
1.99898
1.99588
1.99745
1.99604
1.9964
1.99545
1.99559
1.99497
1.99899
1.99591
1.99749
1.9961
1.99645
1.99558
1.99566
1.99497
1.99897
1.9959
1.99746
1.99608
1.9964
1.99556
1.99555
1.99491
1.99895
1.99586
1.99744
1.99607
1.99637
1.99559
1.9955
1.99483
1.9989
1.99576
1.99733
1.99593
1.99617
1.99541
1.99512
1.99467
1.99887
1.99567
1.99729
1.99592
1.99614
1.99553
1.9951
1.99455
1.99875
1.99546
1.99702
1.99557
1.9956
1.995
1.99404
1.9943
1.99877
1.99539
1.99709
1.99571
1.99584
1.99552
1.99463
1.99418
1.99856
1.99505
1.99658
1.99507
1.99472
1.99437
1.99194
2.00269
1.99221
1.99928
1.9942
1.99668
1.99475
1.99464
1.99404
2.00269
1.9924
1.99942
1.99457
1.99696
1.99563
1.99508
1.9963
2.0027
1.99255
1.99956
1.99478
1.99732
1.99589
1.99595
1.9965
2.00267
1.99264
1.99959
1.99487
1.99741
1.99597
1.99603
1.99647
2.00264
1.9927
1.99963
1.99496
1.99754
1.99612
1.99636
1.9967
2.00262
1.99266
1.99959
1.99489
1.99748
1.99598
1.99626
1.99642
2.00257
1.99256
1.99956
1.99482
1.99749
1.99593
1.9964
1.99632
2.00261
1.99231
1.99942
1.9945
1.9972
1.99538
1.99597
1.99526
2.0025
1.99212
1.9994
1.99441
1.99733
1.99539
1.99651
1.9953
2.00267
1.9916
1.9991
1.99364
1.99656
1.99395
1.99518
1.99237
2.00246
1.99151
1.99925
1.99388
1.99723
1.99475
1.99702
1.99419
2.00274
1.99072
1.99871
1.99253
1.99577
1.99194
1.99415
1.98745
1.96689
1.97322
1.96049
1.95947
1.95012
1.94278
1.93507
1.91963
1.96734
1.9741
1.96152
1.96169
1.9517
1.94835
1.93674
1.93481
1.96791
1.97467
1.96246
1.96277
1.95337
1.95005
1.94019
1.93701
1.96833
1.9751
1.96308
1.96354
1.95422
1.95134
1.94109
1.93887
1.96856
1.97539
1.96354
1.96412
1.95506
1.95238
1.94268
1.94067
1.96855
1.97533
1.96348
1.96403
1.95497
1.95218
1.94254
1.9402
1.96816
1.97514
1.96325
1.96387
1.95497
1.95203
1.94304
1.93993
1.96757
1.97441
1.96228
1.96257
1.95353
1.94966
1.94109
1.93545
1.96649
1.97395
1.96167
1.96214
1.95359
1.94924
1.94263
1.93467
1.96551
1.97227
1.95944
1.9588
1.94982
1.94265
1.93684
1.92132
1.96396
1.97216
1.95932
1.95943
1.95183
1.94477
1.94344
1.92619
1.96284
1.96945
1.95584
1.95342
1.94532
1.93131
1.93264
1.89279
1.9811
1.97309
1.9721
1.96529
1.96177
1.95361
1.9498
1.93568
1.9814
1.9739
1.97291
1.96724
1.96298
1.95851
1.95082
1.94904
1.98181
1.97447
1.97373
1.9683
1.96451
1.96022
1.95398
1.95146
1.98207
1.97492
1.97422
1.96901
1.96522
1.96142
1.95465
1.95325
1.98221
1.97522
1.97462
1.9696
1.96602
1.96248
1.95617
1.95516
1.9822
1.97516
1.97458
1.96953
1.96596
1.96233
1.95605
1.9548
1.9819
1.97494
1.97441
1.96938
1.966
1.96224
1.95657
1.95463
1.98157
1.97418
1.97362
1.96816
1.96473
1.96004
1.95482
1.95045
1.98073
1.97364
1.97318
1.96773
1.96489
1.95967
1.95638
1.94971
1.98026
1.97193
1.97137
1.96463
1.96156
1.95358
1.95118
1.9373
1.979
1.97173
1.97142
1.96522
1.96361
1.95562
1.95763
1.94184
1.97857
1.96907
1.96861
1.95977
1.95795
1.94352
1.94808
1.91174
2.81521
3.06033
3.17953
3.51118
3.54076
4.19557
3.73962
5.38834
2.80833
3.02846
3.16589
3.42122
3.55954
3.93137
3.93328
4.59887
2.79575
2.99645
3.13099
3.34697
3.50233
3.76792
3.85364
4.23929
2.78575
2.97085
3.10434
3.29444
3.46247
3.65947
3.82409
4.02555
2.7775
2.95119
3.07939
3.25396
3.41621
3.58137
3.74877
3.87885
2.77344
2.94235
3.06887
3.23768
3.39816
3.55285
3.72515
3.83326
2.77344
2.94235
3.06887
3.23768
3.39816
3.55285
3.72515
3.83326
2.7775
2.95119
3.07939
3.25396
3.41621
3.58137
3.74877
3.87886
2.78575
2.97085
3.10434
3.29444
3.46247
3.65946
3.82409
4.02554
2.79575
2.99645
3.131
3.34698
3.50234
3.76794
3.85365
4.23934
2.80833
3.02846
3.16588
3.42121
3.55953
3.93134
3.93327
4.59881
2.81521
3.06033
3.17956
3.5112
3.54077
4.19565
3.73956
5.38857
2.17807
2.34595
2.27076
2.39599
2.34703
2.50986
2.37576
2.76149
2.17271
2.33496
2.26322
2.36797
2.34552
2.43276
2.40986
2.53796
2.16394
2.3266
2.25233
2.35102
2.33195
2.39844
2.39123
2.46513
2.15652
2.31828
2.24299
2.3359
2.322
2.36787
2.38831
2.40113
2.15058
2.3119
2.2344
2.324
2.30993
2.34487
2.37114
2.35339
2.14739
2.30873
2.23046
2.31874
2.3052
2.33537
2.36678
2.33486
2.14739
2.30873
2.23046
2.31874
2.3052
2.33538
2.36678
2.33486
2.15058
2.3119
2.2344
2.324
2.30993
2.34487
2.37114
2.35339
2.15652
2.31828
2.24299
2.3359
2.322
2.36787
2.38831
2.40113
2.16394
2.3266
2.25233
2.35102
2.33195
2.39844
2.39123
2.46512
2.17271
2.33496
2.26322
2.36797
2.34552
2.43277
2.40987
2.53798
2.17807
2.34595
2.27075
2.39598
2.34702
2.50982
2.37577
2.76137
2.1977
2.17737
2.23206
2.25204
2.29005
2.35281
2.36698
2.51202
2.19524
2.16954
2.22444
2.23431
2.2781
2.30965
2.35587
2.39709
2.19137
2.16428
2.21818
2.22577
2.26809
2.29631
2.33822
2.37821
2.18866
2.15875
2.21275
2.21707
2.26008
2.2815
2.33036
2.35393
2.18624
2.15475
2.2084
2.21076
2.25325
2.27101
2.32011
2.33537
2.18505
2.15271
2.20644
2.20786
2.25053
2.26648
2.31734
2.32811
2.18505
2.15271
2.20644
2.20786
2.25053
2.26648
2.31734
2.32811
2.18624
2.15475
2.20841
2.21076
2.25326
2.27101
2.32011
2.33537
2.18866
2.15875
2.21275
2.21707
2.26008
2.2815
2.33036
2.35393
2.19137
2.16428
2.21818
2.22577
2.2681
2.29632
2.33822
2.37823
2.19523
2.16954
2.22444
2.23431
2.2781
2.30964
2.35586
2.39707
2.1977
2.17737
2.23207
2.25206
2.29005
2.35285
2.36695
2.51214
2.04662
2.08861
2.0708
2.0941
2.09321
2.11308
2.11816
2.15313
2.04525
2.08477
2.06643
2.08556
2.08525
2.09332
2.10564
2.10299
2.04298
2.08304
2.06387
2.08322
2.0817
2.09102
2.09912
2.10314
2.04142
2.08072
2.06114
2.07953
2.07761
2.08496
2.0941
2.09366
2.04
2.0793
2.05935
2.07745
2.07523
2.08185
2.09073
2.08855
2.03932
2.0785
2.05844
2.07631
2.07405
2.08012
2.0895
2.08579
2.03932
2.0785
2.05844
2.07631
2.07405
2.08011
2.0895
2.08579
2.04
2.0793
2.05935
2.07745
2.07523
2.08185
2.09072
2.08855
2.04142
2.08072
2.06114
2.07953
2.07761
2.08496
2.0941
2.09366
2.04298
2.08304
2.06387
2.08322
2.0817
2.09102
2.09911
2.10314
2.04525
2.08478
2.06642
2.08555
2.08524
2.09332
2.10564
2.10299
2.04662
2.08861
2.0708
2.09409
2.0932
2.11308
2.11815
2.15311
2.04895
2.0432
2.05343
2.05658
2.06478
2.07324
2.08317
2.09999
2.04836
2.04108
2.05101
2.05203
2.05999
2.063
2.07482
2.07418
2.04731
2.04018
2.04984
2.05099
2.05835
2.06233
2.07174
2.07557
2.04671
2.0389
2.04849
2.04905
2.0561
2.05923
2.06861
2.07088
2.04611
2.03816
2.04771
2.04809
2.05503
2.05794
2.0671
2.06898
2.04585
2.03772
2.04729
2.04751
2.05443
2.05709
2.0664
2.06769
2.04585
2.03772
2.04729
2.04751
2.05443
2.05709
2.0664
2.06768
2.04611
2.03816
2.04771
2.04809
2.05503
2.05794
2.0671
2.06898
2.04671
2.0389
2.04849
2.04905
2.0561
2.05923
2.06861
2.07088
2.04731
2.04018
2.04984
2.05099
2.05835
2.06234
2.07174
2.07557
2.04836
2.04108
2.05101
2.05203
2.05999
2.063
2.07482
2.07418
2.04895
2.0432
2.05343
2.05658
2.06478
2.07326
2.08316
2.10002
2.01059
2.02036
2.01673
2.02166
2.0223
2.0261
2.02915
2.03524
2.0103
2.01937
2.01555
2.01951
2.01992
2.0213
2.02489
2.02333
2.00975
2.01903
2.01504
2.01917
2.01932
2.02126
2.02382
2.02451
2.00944
2.01846
2.01437
2.01825
2.0182
2.01976
2.0222
2.02216
2.00911
2.01816
2.01402
2.01787
2.01777
2.01928
2.02164
2.02149
2.00898
2.01797
2.01381
2.01761
2.01748
2.01888
2.02128
2.02085
2.00898
2.01797
2.01381
2.01761
2.01748
2.01888
2.02128
2.02085
2.00911
2.01816
2.01402
2.01787
2.01777
2.01928
2.02164
2.02149
2.00944
2.01846
2.01437
2.01825
2.0182
2.01976
2.0222
2.02216
2.00975
2.01903
2.01504
2.01917
2.01932
2.02126
2.02382
2.02451
2.0103
2.01937
2.01555
2.01951
2.01992
2.02129
2.02489
2.02333
2.01059
2.02036
2.01673
2.02166
2.02229
2.0261
2.02915
2.03524
2.00996
2.00896
2.01062
2.01138
2.01277
2.01435
2.0163
2.01934
2.00985
2.00849
2.01008
2.0104
2.01166
2.01217
2.01427
2.01391
2.00961
2.00833
2.00987
2.01025
2.01142
2.01218
2.01385
2.01449
2.0095
2.00805
2.00957
2.00982
2.01091
2.01148
2.01309
2.01339
2.00936
2.00791
2.00942
2.00965
2.01073
2.01128
2.01286
2.01312
2.00931
2.00782
2.00933
2.00953
2.01059
2.01109
2.0127
2.01282
2.00931
2.00782
2.00933
2.00953
2.01059
2.01109
2.0127
2.01282
2.00936
2.00791
2.00942
2.00965
2.01073
2.01128
2.01286
2.01312
2.0095
2.00805
2.00957
2.00982
2.01091
2.01148
2.01309
2.01339
2.00961
2.00833
2.00987
2.01025
2.01142
2.01218
2.01385
2.0145
2.00985
2.00849
2.01008
2.0104
2.01166
2.01217
2.01427
2.01391
2.00996
2.00896
2.01062
2.01138
2.01277
2.01436
2.0163
2.01934
2.00168
2.00375
2.00299
2.00397
2.0041
2.00485
2.00545
2.00666
2.00163
2.00356
2.00276
2.00356
2.00363
2.00393
2.00459
2.0044
2.00153
2.0035
2.00267
2.00351
2.00354
2.00395
2.00445
2.00466
2.00148
2.00338
2.00254
2.00333
2.00332
2.00365
2.00412
2.00417
2.00141
2.00333
2.00248
2.00326
2.00325
2.00357
2.00403
2.00407
2.00139
2.00329
2.00244
2.00321
2.00319
2.00349
2.00396
2.00394
2.00139
2.00329
2.00244
2.00321
2.00319
2.00349
2.00396
2.00394
2.00141
2.00333
2.00248
2.00326
2.00325
2.00357
2.00403
2.00407
2.00148
2.00338
2.00254
2.00333
2.00332
2.00365
2.00412
2.00417
2.00153
2.0035
2.00267
2.00351
2.00354
2.00395
2.00445
2.00466
2.00163
2.00356
2.00276
2.00356
2.00363
2.00393
2.00459
2.0044
2.00168
2.00375
2.00299
2.00397
2.0041
2.00485
2.00545
2.00666
2.0019
2.00133
2.00182
2.00181
2.00209
2.0023
2.00261
2.00309
2.00188
2.00126
2.00173
2.00166
2.0019
2.00196
2.00227
2.00223
2.00184
2.00124
2.0017
2.00164
2.00187
2.00196
2.00223
2.00233
2.00182
2.00119
2.00165
2.00157
2.00179
2.00185
2.0021
2.00214
2.00179
2.00117
2.00163
2.00154
2.00176
2.00182
2.00207
2.0021
2.00179
2.00116
2.00161
2.00152
2.00174
2.00179
2.00204