/*--------------------------------*- C++ -*----------------------------------*\
| =========                 |                                                 |
| \\      /  F ield         | foam-extend: Open Source CFD                    |
|  \\    /   O peration     | Version:  3.0                                   |
|   \\  /    A nd           | Web:         http://www.extend-project.de       |
|    \\/     M anipulation  |                                                 |
\*---------------------------------------------------------------------------*/
FoamFile
{
    version     2.0;
    format      ascii;
    class       volScalarField;
    location    "0.8";
    object      p;
}
// * * * * * * * * * * * * * * * * * * * * * * * * * * * * * * * * * * * * * //

dimensions      [0 0 0 0 0 0 0];

internalField   nonuniform List<scalar> 
400
(
0.92449
0.922065
0.92411
0.926029
0.932226
0.938136
0.947148
0.955936
0.966517
0.976871
0.987933
0.99843
1.00896
1.0181
1.02704
1.03335
1.03951
1.04168
1.04382
1.04121
0.934477
0.93177
0.935452
0.937647
0.944009
0.949188
0.95721
0.964559
0.973559
0.982159
0.991446
1.00016
1.00904
1.01666
1.02445
1.02984
1.03587
1.03801
1.04123
1.03823
0.910584
0.906304
0.910905
0.913722
0.922472
0.929735
0.940758
0.951041
0.963217
0.975184
0.987667
0.999839
1.01188
1.02266
1.03343
1.04118
1.04959
1.05255
1.05671
1.05214
0.910719
0.904827
0.910235
0.913309
0.923638
0.931946
0.944567
0.956163
0.969768
0.983131
0.996951
1.01055
1.02399
1.03616
1.04852
1.05739
1.06737
1.0706
1.07555
1.06926
0.87635
0.868466
0.875617
0.879836
0.893498
0.904762
0.921309
0.936924
0.95464
0.9726
0.990615
1.00895
1.02668
1.04324
1.05986
1.07216
1.08595
1.09064
1.0977
1.08921
0.87134
0.861403
0.870004
0.875176
0.891298
0.904696
0.923665
0.941769
0.961647
0.982171
1.00222
1.02313
1.04303
1.06214
1.08126
1.09579
1.11225
1.1179
1.12656
1.11553
0.833909
0.821575
0.833036
0.840128
0.860407
0.877447
0.900628
0.923107
0.947111
0.972389
0.996672
1.02249
1.04697
1.07089
1.09513
1.11392
1.13572
1.14371
1.15617
1.14203
0.823677
0.809285
0.823399
0.832628
0.855971
0.876076
0.901681
0.927193
0.953067
0.981212
1.00713
1.03577
1.06206
1.08894
1.11562
1.13753
1.1627
1.17287
1.18836
1.17105
0.784432
0.768118
0.787207
0.799889
0.828245
0.852682
0.882319
0.912061
0.941445
0.973747
1.00324
1.03615
1.06656
1.0981
1.12999
1.15701
1.18891
1.20327
1.22543
1.20488
0.770118
0.753362
0.77676
0.793289
0.824609
0.852582
0.883774
0.916337
0.946553
0.981233
1.01124
1.04641
1.07734
1.11146
1.1445
1.17509
1.20993
1.2285
1.25566
1.23322
0.728423
0.713056
0.7439
0.766048
0.802465
0.835159
0.869503
0.905709
0.938294
0.976105
1.00845
1.04683
1.08051
1.11865
1.15556
1.19185
1.23315
1.25888
1.29585
1.27389
0.713316
0.703639
0.739069
0.766731
0.80438
0.84019
0.874344
0.91239
0.944379
0.983496
1.01498
1.05447
1.08686
1.12643
1.16185
1.20114
1.24239
1.27447
1.31625
1.30009
0.670576
0.671547
0.714713
0.749791
0.790814
0.830861
0.866484
0.907116
0.940028
0.981075
1.01341
1.05487
1.08809
1.13053
1.16707
1.21169
1.25614
1.29837
1.34996
1.34722
0.657653
0.676691
0.72123
0.7624
0.80153
0.843314
0.876798
0.917872
0.948964
0.9901
1.02053
1.06184
1.09224
1.13454
1.16667
1.21253
1.25154
1.30094
1.35147
1.37229
0.615982
0.659609
0.709802
0.759038
0.798939
0.843589
0.87669
0.918976
0.94966
0.99154
1.02156
1.06363
1.09312
1.13684
1.16718
1.21701
1.25446
1.31606
1.37233
1.42954
0.608687
0.682085
0.729653
0.78364
0.819243
0.863649
0.893399
0.934753
0.963032
1.00402
1.03176
1.07271
1.09884
1.14097
1.16541
1.21409
1.24179
1.30889
1.35502
1.4564
0.576038
0.681243
0.733702
0.794463
0.828981
0.874229
0.90219
0.943322
0.970273
1.01098
1.03752
1.0782
1.10241
1.14446
1.16536
1.2159
1.23875
1.31795
1.3657
1.52566
0.593353
0.720083
0.769234
0.829779
0.859171
0.901795
0.926114
0.965242
0.989826
1.02903
1.05352
1.09254
1.11385
1.15339
1.16898
1.21586
1.22868
1.30721
1.33816
1.54137
0.603756
0.743425
0.795107
0.856562
0.88283
0.923574
0.945111
0.982732
1.0055
1.04364
1.0666
1.10455
1.12368
1.16174
1.17338
1.21894
1.22537
1.30937
1.33452
1.5951
0.711511
0.807011
0.852353
0.903346
0.923561
0.95935
0.97761
1.0126
1.03344
1.06973
1.09118
1.12721
1.14456
1.1797
1.18827
1.22783
1.22791
1.29818
1.30435
1.53216
)
;

boundaryField
{
    cavity
    {
        type            implicitExtrapolation;
    }
    lid
    {
        type            implicitExtrapolation;
    }
    frontAndBack
    {
        type            empty;
    }
}


// ************************************************************************* //
