/*--------------------------------*- C++ -*----------------------------------*\
| =========                 |                                                 |
| \\      /  F ield         | foam-extend: Open Source CFD                    |
|  \\    /   O peration     | Version:  3.0                                   |
|   \\  /    A nd           | Web:         http://www.extend-project.de       |
|    \\/     M anipulation  |                                                 |
\*---------------------------------------------------------------------------*/
FoamFile
{
    version     2.0;
    format      ascii;
    class       volVectorField;
    location    "0.8";
    object      s;
}
// * * * * * * * * * * * * * * * * * * * * * * * * * * * * * * * * * * * * * //

dimensions      [0 0 0 0 0 0 0];

internalField   nonuniform List<vector> 
400
(
(-0.00088958 -0.000195553 3.80285e-318)
(-0.000911594 0.000401763 6.65976e-318)
(-0.00119918 0.000828901 7.30887e-318)
(-0.00172741 0.00105658 6.79501e-318)
(-0.0023482 0.00103676 5.77562e-318)
(-0.002973 0.00086186 4.7502e-318)
(-0.00352643 0.000573927 3.69637e-318)
(-0.00396447 0.000222792 2.89398e-318)
(-0.00426196 -0.000167152 2.13422e-318)
(-0.00440274 -0.000576721 1.61162e-318)
(-0.00437989 -0.000993388 1.0822e-318)
(-0.00418865 -0.00140856 7.37462e-319)
(-0.00382774 -0.00180955 3.4672e-319)
(-0.00330272 -0.00218246 1.21476e-319)
(-0.00262256 -0.00250436 -1.49944e-319)
(-0.00181983 -0.00274141 -2.44562e-319)
(-0.000930379 -0.00284667 -3.73257e-319)
(-5.67513e-05 -0.00274204 -3.47674e-319)
(0.000717462 -0.00229629 -2.72121e-319)
(0.00110308 -0.00121005 -2.97215e-319)
(-0.00128344 0.000175744 3.52666e-318)
(-0.00170139 0.00112969 7.56577e-318)
(-0.00242465 0.00187219 9.24666e-318)
(-0.00326037 0.002304 9.57438e-318)
(-0.00418143 0.0023756 8.86958e-318)
(-0.00507843 0.00216215 7.84103e-318)
(-0.005879 0.00172968 6.51804e-318)
(-0.00651712 0.0011471 5.34556e-318)
(-0.0069505 0.000466133 4.13986e-318)
(-0.00714874 -0.000271384 3.19654e-318)
(-0.00709633 -0.0010326 2.2423e-318)
(-0.00678788 -0.00178652 1.53105e-318)
(-0.00622848 -0.00250057 7.77817e-319)
(-0.005439 -0.00313299 2.42354e-319)
(-0.00445319 -0.00363173 -3.48163e-319)
(-0.00333516 -0.00392678 -7.23515e-319)
(-0.00216099 -0.00393413 -1.15117e-318)
(-0.0010581 -0.00354804 -1.3372e-318)
(-9.26835e-05 -0.00265678 -1.45432e-318)
(0.000569365 -0.00111227 -1.04473e-318)
(-0.00137664 0.000986053 3.4517e-318)
(-0.00197009 0.0027303 7.51764e-318)
(-0.00291804 0.00390928 9.38861e-318)
(-0.00391988 0.00451936 9.86565e-318)
(-0.00497156 0.00457617 9.38286e-318)
(-0.00595357 0.00419193 8.48284e-318)
(-0.00680993 0.00347169 7.27311e-318)
(-0.00748071 0.00251703 6.08589e-318)
(-0.00793145 0.00140797 4.84851e-318)
(-0.00813581 0.000208448 3.76661e-318)
(-0.00808045 -0.00103007 2.68384e-318)
(-0.00776119 -0.00225855 1.7573e-318)
(-0.00718197 -0.00342401 8.09304e-319)
(-0.00636239 -0.00445672 -4.68868e-321)
(-0.0053313 -0.00526882 -8.51735e-319)
(-0.00414913 -0.00574119 -1.55324e-318)
(-0.0028779 -0.00574021 -2.22389e-318)
(-0.00164576 -0.0051011 -2.5975e-318)
(-0.000471562 -0.00371666 -2.52551e-318)
(0.000409424 -0.001453 -1.45655e-318)
(-0.0014247 0.0016878 2.41826e-318)
(-0.002053 0.00427957 5.79495e-318)
(-0.00308672 0.00586648 7.72309e-318)
(-0.00411348 0.00659975 8.52486e-318)
(-0.0051582 0.00658141 8.45538e-318)
(-0.00609178 0.00599575 7.85496e-318)
(-0.00688312 0.0049942 6.92118e-318)
(-0.00748748 0.00371002 5.85821e-318)
(-0.00788727 0.00224314 4.73266e-318)
(-0.00806744 0.000669986 3.63742e-318)
(-0.00802065 -0.000951456 2.56155e-318)
(-0.00774445 -0.00256417 1.55028e-318)
(-0.00723771 -0.00410755 5.71115e-319)
(-0.00651097 -0.00549371 -3.2885e-319)
(-0.00557561 -0.00661093 -1.15926e-318)
(-0.00447461 -0.00729841 -1.83198e-318)
(-0.00323783 -0.0073766 -2.29991e-318)
(-0.00199058 -0.00661357 -2.3939e-318)
(-0.000695649 -0.00486649 -2.00966e-318)
(0.000297473 -0.00192767 -9.37445e-319)
(-0.00142805 0.00262109 2.59512e-318)
(-0.00197894 0.0062694 5.74648e-318)
(-0.00301613 0.00830228 7.39952e-318)
(-0.00396366 0.00911311 7.98412e-318)
(-0.00489865 0.00893498 7.86176e-318)
(-0.00568056 0.0080648 7.28606e-318)
(-0.00631393 0.00671747 6.42708e-318)
(-0.00677612 0.00506476 5.42991e-318)
(-0.00707245 0.00322412 4.36227e-318)
(-0.00720467 0.00127647 3.28921e-318)
(-0.00717292 -0.000723407 2.21835e-318)
(-0.00697703 -0.00272298 1.17833e-318)
(-0.00660698 -0.00466456 1.59163e-319)
(-0.00605841 -0.00645294 -8.09709e-319)
(-0.00531513 -0.00795733 -1.71989e-318)
(-0.00439367 -0.00897326 -2.5063e-318)
(-0.00327709 -0.00926009 -3.09557e-318)
(-0.00209604 -0.00847904 -3.33629e-318)
(-0.000744146 -0.00639584 -2.94832e-318)
(0.000243209 -0.00262136 -1.5421e-318)
(-0.00139198 0.00368529 1.98768e-318)
(-0.00177469 0.00849678 4.70291e-318)
(-0.00271564 0.0109458 6.30147e-318)
(-0.0034474 0.0117535 7.00882e-318)
(-0.00413237 0.0113243 7.02613e-318)
(-0.00462263 0.0101031 6.57761e-318)
(-0.00497561 0.00837744 5.82915e-318)
(-0.00519651 0.00635938 4.91188e-318)
(-0.00532005 0.00417608 3.90568e-318)
(-0.0053675 0.00190372 2.86738e-318)
(-0.0053486 -0.000419788 1.82076e-318)
(-0.00526589 -0.00275834 7.87689e-319)
(-0.00509966 -0.00507254 -2.20897e-319)
(-0.00482815 -0.00727159 -1.17546e-318)
(-0.00440077 -0.00921736 -2.03778e-318)
(-0.00380095 -0.0106627 -2.73094e-318)
(-0.00294498 -0.0112966 -3.14876e-318)
(-0.0019673 -0.0106303 -3.12849e-318)
(-0.000653528 -0.00827726 -2.51744e-318)
(0.000229354 -0.00353055 -1.12729e-318)
(-0.00135325 0.00494665 2.22888e-318)
(-0.00144757 0.0109913 4.86825e-318)
(-0.00216751 0.0137746 6.24367e-318)
(-0.00250489 0.0144643 6.72311e-318)
(-0.00276713 0.0136829 6.62225e-318)
(-0.00280082 0.0120493 6.1244e-318)
(-0.00273511 0.00992533 5.37427e-318)
(-0.00260669 0.00755842 4.47497e-318)
(-0.00248217 0.0050762 3.49459e-318)
(-0.00240406 0.00253906 2.47792e-318)
(-0.00239122 -4.20993e-05 1.44919e-318)
(-0.00245056 -0.00266044 4.25736e-319)
(-0.00255333 -0.0053062 -5.78734e-319)
(-0.00266119 -0.00790813 -1.53983e-318)
(-0.0026866 -0.0103324 -2.42095e-318)
(-0.00257699 -0.0122983 -3.1584e-318)
(-0.00216029 -0.01342 -3.65136e-318)
(-0.0015747 -0.013023 -3.75739e-318)
(-0.000426668 -0.0105024 -3.19403e-318)
(0.000212808 -0.00467652 -1.60789e-318)
(-0.00131591 0.00631778 1.84804e-318)
(-0.000996841 0.0135394 4.26316e-318)
(-0.00132815 0.0165001 5.63209e-318)
(-0.00106105 0.0169313 6.19265e-318)
(-0.000708273 0.0157096 6.14602e-318)
(-0.000113929 0.0136352 5.69001e-318)
(0.000505875 0.0111335 4.97198e-318)
(0.00108657 0.00847496 4.09927e-318)
(0.00152976 0.00577501 3.14388e-318)
(0.00177536 0.00306862 2.14996e-318)
(0.00179541 0.000330476 1.14356e-318)
(0.00157794 -0.00247022 1.41565e-319)
(0.00115678 -0.00536387 -8.38148e-319)
(0.000581639 -0.00831219 -1.76838e-318)
(-2.62333e-05 -0.0112015 -2.60274e-318)
(-0.00058317 -0.0137355 -3.2642e-318)
(-0.000810329 -0.0154627 -3.63849e-318)
(-0.000849633 -0.0155072 -3.55826e-318)
(-4.28176e-05 -0.0129839 -2.8477e-318)
(0.000198174 -0.00605751 -1.28829e-318)
(-0.00132512 0.0077496 2.06155e-318)
(-0.000403258 0.015931 4.4714e-318)
(-0.000146304 0.018852 5.69376e-318)
(0.000957949 0.0188808 6.0824e-318)
(0.00211274 0.0171691 5.93504e-318)
(0.00348565 0.0146738 5.42423e-318)
(0.0047679 0.0118618 4.68571e-318)
(0.00587716 0.00900623 3.81263e-318)
(0.00669078 0.00619846 2.86817e-318)
(0.00713652 0.00344017 1.89209e-318)
(0.0071808 0.000666696 9.07164e-319)
(0.00680531 -0.00219475 -7.12838e-320)
(0.00604369 -0.00521862 -1.02833e-318)
(0.00494852 -0.0084112 -1.94016e-318)
(0.00366327 -0.0116936 -2.76586e-318)
(0.00228898 -0.0147814 -3.44194e-318)
(0.00121558 -0.0171784 -3.8655e-318)
(0.000284072 -0.0178326 -3.89718e-318)
(0.000522709 -0.0155234 -3.26335e-318)
(0.000117049 -0.00763298 -1.62052e-318)
(-0.00134419 0.00912602 1.81632e-318)
(0.000384516 0.0178861 4.11286e-318)
(0.00145887 0.0205338 5.35478e-318)
(0.0036028 0.0200524 5.80352e-318)
(0.00570269 0.0178666 5.67748e-318)
(0.00794665 0.0150286 5.17484e-318)
(0.00994429 0.0120196 4.44103e-318)
(0.0116122 0.0090915 3.57695e-318)
(0.0128148 0.00630347 2.64775e-318)
(0.0134779 0.00362058 1.69323e-318)
(0.0135655 0.00094145 7.35684e-319)
(0.0130535 -0.00184659 -2.11346e-319)
(0.0119687 -0.00485953 -1.13257e-318)
(0.0103559 -0.00815404 -2.00405e-318)
(0.00836291 -0.0116955 -2.78204e-318)
(0.00608776 -0.0152445 -3.39685e-318)
(0.00401315 -0.0182877 -3.7388e-318)
(0.00194912 -0.0196738 -3.64698e-318)
(0.00134974 -0.0178127 -2.93404e-318)
(2.09634e-05 -0.00929999 -1.35469e-318)
(-0.00135043 0.0102907 1.98757e-318)
(0.00143739 0.0190848 4.30269e-318)
(0.00354293 0.0212796 5.4409e-318)
(0.00686197 0.0202508 5.75722e-318)
(0.00997057 0.0176884 5.55063e-318)
(0.0130942 0.0146415 5.00123e-318)
(0.0157896 0.011584 4.24823e-318)
(0.0179893 0.00872406 3.38437e-318)
(0.0195615 0.00608607 2.46977e-318)
(0.0204384 0.00360067 1.54019e-318)
(0.0205874 0.00113753 6.14746e-319)
(0.0199793 -0.00144765 -2.94631e-319)
(0.0186285 -0.00430389 -1.17597e-318)
(0.0165635 -0.00753652 -2.00866e-318)
(0.0139135 -0.0111569 -2.75519e-318)
(0.0107534 -0.0150015 -3.35777e-318)
(0.00761118 -0.0185591 -3.72292e-318)
(0.00424805 -0.0207106 -3.72297e-318)
(0.00253237 -0.019461 -3.10698e-318)
(-7.87152e-05 -0.0108752 -1.54814e-318)
(-0.00116496 0.0110426 1.83137e-318)
(0.00281544 0.0192724 4.08819e-318)
(0.00612337 0.0209464 5.23815e-318)
(0.0106125 0.0194334 5.58289e-318)
(0.0146917 0.0166679 5.37026e-318)
(0.0186056 0.0135843 4.81235e-318)
(0.0219075 0.0106398 4.05715e-318)
(0.0245558 0.00798236 3.20403e-318)
(0.026439 0.00560693 2.31191e-318)
(0.0275043 0.00341636 1.41524e-318)
(0.0277272 0.00126393 5.30651e-319)
(0.0270762 -0.00101427 -3.32027e-319)
(0.0255492 -0.003586 -1.1622e-318)
(0.0231537 -0.00659698 -1.94e-318)
(0.0199769 -0.0100953 -2.62922e-318)
(0.0160626 -0.0140158 -3.1692e-318)
(0.0119053 -0.0178522 -3.46573e-318)
(0.00724582 -0.0206785 -3.37848e-318)
(0.00417149 -0.0200703 -2.73298e-318)
(6.11849e-05 -0.0120862 -1.29373e-318)
(-0.000714289 0.0110728 1.9674e-318)
(0.00448328 0.0182305 4.23626e-318)
(0.00906002 0.0194946 5.28542e-318)
(0.0145791 0.0176609 5.5068e-318)
(0.0194904 0.0149158 5.21991e-318)
(0.024018 0.0119777 4.62343e-318)
(0.0277719 0.00929701 3.85965e-318)
(0.0307373 0.00695431 3.01982e-318)
(0.0328407 0.00492511 2.15834e-318)
(0.0340485 0.00309469 1.30371e-318)
(0.0343499 0.00131319 4.69308e-319)
(0.0337133 -0.000588216 -3.37704e-319)
(0.0321198 -0.00278069 -1.10943e-318)
(0.0295559 -0.00543608 -1.82881e-318)
(0.0260464 -0.00862331 -2.46426e-318)
(0.0216095 -0.0123829 -2.96482e-318)
(0.0166073 -0.0161932 -3.25077e-318)
(0.0108273 -0.019472 -3.22045e-318)
(0.00624934 -0.0193133 -2.66787e-318)
(0.000537215 -0.0125293 -1.33857e-318)
(0.000211281 0.0103072 1.87882e-318)
(0.00628344 0.0161119 4.08897e-318)
(0.0120913 0.0171321 5.10163e-318)
(0.0183347 0.0151857 5.30159e-318)
(0.0238585 0.0126721 4.98451e-318)
(0.0287554 0.0100396 4.37563e-318)
(0.0327633 0.00774 3.62099e-318)
(0.0358824 0.00578804 2.81031e-318)
(0.0380924 0.00415073 1.99261e-318)
(0.0393802 0.00270677 1.19245e-318)
(0.0397532 0.00131647 4.19066e-319)
(0.0391821 -0.00018047 -3.21854e-319)
(0.0376336 -0.00194299 -1.02491e-318)
(0.0350776 -0.00415278 -1.67451e-318)
(0.0314622 -0.00688184 -2.24032e-318)
(0.0268039 -0.0102677 -2.66975e-318)
(0.0212226 -0.0137532 -2.88401e-318)
(0.0147142 -0.0171918 -2.77344e-318)
(0.00861343 -0.0172083 -2.20438e-318)
(0.00168581 -0.012017 -1.03701e-318)
(0.0013241 0.00843931 1.99615e-318)
(0.00784304 0.0130162 4.15047e-318)
(0.0147025 0.0140403 5.01457e-318)
(0.0213267 0.0122292 5.07612e-318)
(0.0271977 0.0101256 4.69015e-318)
(0.0321895 0.00792509 4.06278e-318)
(0.0362276 0.00608228 3.32749e-318)
(0.0393189 0.004559 2.56025e-318)
(0.0415081 0.00332298 1.80191e-318)
(0.0428012 0.00225758 1.07064e-318)
(0.0432274 0.00124389 3.71602e-319)
(0.0427602 0.000141765 -2.93248e-319)
(0.0413583 -0.0011833 -9.19861e-319)
(0.0389794 -0.00290557 -1.49482e-318)
(0.0354919 -0.00508625 -1.99148e-318)
(0.0309308 -0.00793148 -2.36323e-318)
(0.0250857 -0.0108431 -2.54137e-318)
(0.0183106 -0.0140855 -2.44939e-318)
(0.0108259 -0.0138928 -1.9416e-318)
(0.00318926 -0.0101621 -9.18488e-319)
(0.00260537 0.00625245 1.95623e-318)
(0.00880484 0.00977717 3.94653e-318)
(0.0164202 0.0107675 4.68271e-318)
(0.0229851 0.00922596 4.67489e-318)
(0.0288771 0.00760472 4.25908e-318)
(0.033658 0.00590314 3.6456e-318)
(0.0374842 0.00454216 2.95615e-318)
(0.0403589 0.00344598 2.25581e-318)
(0.042395 0.00258749 1.57697e-318)
(0.0436116 0.00186359 9.31467e-319)
(0.0440612 0.00118409 3.20589e-319)
(0.0437179 0.000435929 -2.56395e-319)
(0.0425432 -0.000481994 -7.97269e-319)
(0.0404853 -0.00172271 -1.29012e-318)
(0.0373475 -0.00332943 -1.7095e-318)
(0.0331984 -0.00554216 -2.01022e-318)
(0.0274593 -0.00776188 -2.12299e-318)
(0.0209979 -0.0105714 -1.96194e-318)
(0.012461 -0.0101138 -1.4366e-318)
(0.00521208 -0.00770343 -5.58403e-319)
(0.00313764 0.00339917 2.00156e-318)
(0.00875587 0.0064301 3.75207e-318)
(0.0166841 0.00737696 4.26963e-318)
(0.0228523 0.00628782 4.12855e-318)
(0.0284114 0.00518486 3.68644e-318)
(0.032681 0.00401655 3.10997e-318)
(0.0360486 0.00312172 2.49487e-318)
(0.0385228 0.00241774 1.88814e-318)
(0.0402766 0.00188617 1.31125e-318)
(0.0413334 0.00144532 7.70268e-319)
(0.0417685 0.00103766 2.62621e-319)
(0.0415502 0.000580023 -2.14261e-319)
(0.0406589 7.87144e-06 -6.59578e-319)
(0.039028 -0.000798135 -1.06479e-318)
(0.0364347 -0.00186445 -1.40755e-318)
(0.0329556 -0.00340642 -1.6501e-318)
(0.0276925 -0.00490547 -1.73169e-318)
(0.0219645 -0.00698391 -1.58963e-318)
(0.0128859 -0.00618607 -1.12476e-318)
(0.00648291 -0.00417409 -3.64433e-319)
(0.00292534 0.00176374 1.90686e-318)
(0.00745396 0.0040198 3.24392e-318)
(0.0149562 0.00459596 3.54572e-318)
(0.0201993 0.00389647 3.34362e-318)
(0.0249276 0.00324735 2.92949e-318)
(0.0283471 0.00256975 2.43696e-318)
(0.0310034 0.00208068 1.93394e-318)
(0.0329098 0.0017021 1.4519e-318)
(0.0342656 0.0014295 1.00187e-318)
(0.0350882 0.0012025 5.84826e-319)
(0.0354635 0.000998446 1.9688e-319)
(0.0353547 0.000758719 -1.665e-319)
(0.0347665 0.000458496 -5.05548e-319)
(0.0336283 9.36479e-06 -8.1423e-319)
(0.031735 -0.000589998 -1.0753e-318)
(0.0291635 -0.00151664 -1.25531e-318)
(0.0248502 -0.0023834 -1.30015e-318)
(0.0204332 -0.00378356 -1.14209e-318)
(0.0117739 -0.00305845 -7.17601e-319)
(0.00760133 -0.00193915 -8.17679e-320)
(0.00209462 0.000375006 1.4272e-318)
(0.00550844 0.00196509 2.32887e-318)
(0.0115987 0.0021579 2.46287e-318)
(0.0154277 0.00194642 2.25624e-318)
(0.0187934 0.00169175 1.94296e-318)
(0.0210463 0.00143568 1.5963e-318)
(0.0227523 0.0012558 1.25574e-318)
(0.0239378 0.00111515 9.36027e-319)
(0.0247912 0.00101982 6.42033e-319)
(0.0253027 0.000935857 3.72476e-319)
(0.0255761 0.00086282 1.22746e-319)
(0.0255389 0.000768737 -1.10671e-319)
(0.0252628 0.000650145 -3.28939e-319)
(0.0246216 0.000462655 -5.2909e-319)
(0.02355 0.000206223 -7.00457e-319)
(0.0219864 -0.000187982 -8.2257e-319)
(0.0190769 -0.000567777 -8.59259e-319)
(0.0161201 -0.00109964 -7.73697e-319)
(0.00913949 -0.000593571 -5.0535e-319)
(0.00630043 0.00109903 -4.61062e-320)
(-0.00082858 0.000305166 1.25965e-318)
(0.00207184 0.00133727 1.39186e-318)
(0.00539258 0.00110859 1.25052e-318)
(0.00709528 0.00105051 1.04454e-318)
(0.00850638 0.00101113 8.48938e-319)
(0.0093181 0.00097771 6.70655e-319)
(0.00992014 0.000971145 5.1326e-319)
(0.0103379 0.000948011 3.75184e-319)
(0.0106236 0.000942596 2.53214e-319)
(0.0108281 0.000920377 1.44499e-319)
(0.0109226 0.00091328 4.50489e-320)
(0.0109666 0.000885366 -4.77169e-320)
(0.0108908 0.000875383 -1.35458e-319)
(0.0107838 0.000828586 -2.17918e-319)
(0.0104395 0.000808008 -2.91192e-319)
(0.0100994 0.000709104 -3.46513e-319)
(0.00887031 0.000684043 -3.65455e-319)
(0.00811698 0.000417729 -3.19725e-319)
(0.00397859 0.00068179 -1.77641e-319)
(0.00448165 0.000528087 7.40456e-320)
)
;

boundaryField
{
    cavity
    {
        type            myHeatFlux;
        ThetaWall       uniform 0;
        value           nonuniform List<vector> 
60
(
(0.001 0 0)
(0.001 0 0)
(0.001 0 0)
(0.001 0 0)
(0.001 0 0)
(0.001 0 0)
(0.001 0 0)
(0.001 0 0)
(0.001 0 0)
(0.001 0 0)
(0.001 0 0)
(0.001 0 0)
(0.001 0 0)
(0.001 0 0)
(0.001 0 0)
(0.001 0 0)
(0.001 0 0)
(0.001 0 0)
(0.001 0 0)
(0.001 0 0)
(0 -0.001 0)
(0 -0.001 0)
(0 -0.001 0)
(0 -0.001 0)
(0 -0.001 0)
(0 -0.001 0)
(0 -0.001 0)
(0 -0.001 0)
(0 -0.001 0)
(0 -0.001 0)
(0 -0.001 0)
(0 -0.001 0)
(0 -0.001 0)
(0 -0.001 0)
(0 -0.001 0)
(0 -0.001 0)
(0 -0.001 0)
(0 -0.001 0)
(0 -0.001 0)
(0 -0.001 0)
(-0.001 0 0)
(-0.001 0 0)
(-0.001 0 0)
(-0.001 0 0)
(-0.001 0 0)
(-0.001 0 0)
(-0.001 0 0)
(-0.001 0 0)
(-0.001 0 0)
(-0.001 0 0)
(-0.001 0 0)
(-0.001 0 0)
(-0.001 0 0)
(-0.001 0 0)
(-0.001 0 0)
(-0.001 0 0)
(-0.001 0 0)
(-0.001 0 0)
(-0.001 0 0)
(-0.001 0 0)
)
;
    }
    lid
    {
        type            myHeatFlux;
        ThetaWall       uniform 0;
        value           nonuniform List<vector> 
20
(
(0.000135815 0.0009 0)
(0.000135815 0.0009 0)
(0.000135815 0.0009 0)
(0.000135815 0.0009 0)
(0.000135815 0.0009 0)
(0.000135815 0.0009 0)
(0.000135815 0.0009 0)
(0.000135815 0.0009 0)
(0.000135815 0.0009 0)
(0.000135815 0.0009 0)
(0.000135815 0.0009 0)
(0.000135815 0.0009 0)
(0.000135815 0.0009 0)
(0.000135815 0.0009 0)
(0.000135815 0.0009 0)
(0.000135815 0.0009 0)
(0.000135815 0.0009 0)
(0.000135815 0.0009 0)
(0.000135815 0.0009 0)
(0.000135815 0.0009 0)
)
;
    }
    frontAndBack
    {
        type            empty;
    }
}


// ************************************************************************* //
