/*--------------------------------*- C++ -*----------------------------------*\
| =========                 |                                                 |
| \\      /  F ield         | foam-extend: Open Source CFD                    |
|  \\    /   O peration     | Version:  3.0                                   |
|   \\  /    A nd           | Web:         http://www.extend-project.de       |
|    \\/     M anipulation  |                                                 |
\*---------------------------------------------------------------------------*/
FoamFile
{
    version     2.0;
    format      ascii;
    class       volScalarField;
    location    "0.8";
    object      Theta;
}
// * * * * * * * * * * * * * * * * * * * * * * * * * * * * * * * * * * * * * //

dimensions      [0 0 0 0 0 0 0];

internalField   nonuniform List<scalar> 
400
(
0.086291
0.0854959
0.0846692
0.0844654
0.0847832
0.0856646
0.0869954
0.0886841
0.0906224
0.0927056
0.0948317
0.0968964
0.0987935
0.100402
0.101607
0.102241
0.102224
0.101263
0.0995444
0.0963702
0.0914923
0.0899233
0.0895581
0.0894493
0.0897133
0.0902415
0.0910096
0.0919717
0.0930749
0.0942578
0.0954581
0.0966032
0.0976296
0.0984615
0.0990435
0.0992993
0.0992095
0.0986489
0.0977412
0.0958403
0.0912605
0.088859
0.088294
0.0881454
0.0885737
0.0893098
0.0903112
0.0914897
0.0927919
0.0941582
0.0955401
0.0968795
0.0981259
0.0992092
0.100071
0.100602
0.100758
0.100262
0.0992768
0.0965797
0.0903446
0.0871366
0.0864822
0.0863748
0.0870486
0.0880624
0.0893575
0.0908064
0.0923557
0.0939508
0.0955593
0.0971393
0.0986577
0.10005
0.101261
0.102142
0.102634
0.102281
0.101322
0.097825
0.0877233
0.0834571
0.0828227
0.0828835
0.0840107
0.0855207
0.0873406
0.0892879
0.0913101
0.0933563
0.0954161
0.0974665
0.0994974
0.101447
0.103262
0.104728
0.105772
0.105647
0.104752
0.100065
0.083551
0.0781915
0.0777925
0.0782243
0.0800517
0.0822628
0.0847859
0.087373
0.0899834
0.0925794
0.0951841
0.0978065
0.100472
0.103134
0.105753
0.108038
0.109919
0.110246
0.109649
0.103637
0.0776298
0.0710217
0.0712324
0.0723181
0.075176
0.0783366
0.0817671
0.0851428
0.0884554
0.0916907
0.0949231
0.0982079
0.101625
0.105157
0.108802
0.112183
0.115274
0.116365
0.116468
0.108841
0.0697301
0.0620849
0.0633919
0.0655017
0.0697392
0.0740798
0.0785796
0.082838
0.0869051
0.0908058
0.0946822
0.0986528
0.102871
0.107368
0.112214
0.116955
0.121667
0.123943
0.125312
0.116097
0.0599465
0.0514369
0.054575
0.0581481
0.0641351
0.0698521
0.075529
0.0807018
0.0855123
0.0900405
0.0945108
0.0991193
0.104109
0.109583
0.115725
0.122031
0.12878
0.132752
0.136262
0.125492
0.0482549
0.0397377
0.0454645
0.0509748
0.0589773
0.066166
0.0730173
0.0790411
0.0844992
0.0895409
0.0944802
0.0995971
0.105231
0.111581
0.118973
0.126918
0.135984
0.142203
0.148782
0.137281
0.0350342
0.0275721
0.036797
0.04468
0.0548376
0.0634697
0.0713754
0.0780949
0.0840301
0.0894089
0.0946306
0.100057
0.106117
0.113122
0.121552
0.131039
0.142494
0.151473
0.16221
0.151249
0.0206527
0.0165412
0.0296775
0.0402416
0.0523889
0.0622687
0.0709658
0.0781373
0.084316
0.0898105
0.0950883
0.100578
0.106776
0.114112
0.123189
0.133902
0.147412
0.159497
0.174873
0.167363
0.00568281
0.00745301
0.0248544
0.0382665
0.0520425
0.0628478
0.0719739
0.0792962
0.0854504
0.0908214
0.0959157
0.101206
0.107217
0.114494
0.123698
0.135154
0.150061
0.165428
0.185696
0.185252
-0.00861752
0.00281244
0.0235242
0.0396639
0.05433
0.0656042
0.0747107
0.0818554
0.0877135
0.0927333
0.0974237
0.10227
0.107781
0.114599
0.123334
0.134908
0.150106
0.16857
0.192368
0.204414
-0.0223391
0.00167535
0.0254338
0.0442011
0.0590991
0.0703787
0.079023
0.0856699
0.0909802
0.0954471
0.0995452
0.103738
0.108473
0.114461
0.122159
0.13323
0.14763
0.169019
0.195434
0.225065
-0.0313446
0.00773539
0.0322716
0.0529223
0.0670847
0.0778033
0.0855472
0.0914091
0.0959685
0.0997342
0.103111
0.106509
0.110278
0.115151
0.121353
0.131272
0.143635
0.167012
0.192787
0.244694
-0.0388091
0.0158793
0.0419091
0.0642117
0.077175
0.0868755
0.0933655
0.0981914
0.101833
0.104777
0.107335
0.109831
0.112492
0.11602
0.120381
0.128644
0.13825
0.16332
0.188165
0.266154
-0.0309353
0.0342314
0.0589512
0.0806109
0.091429
0.099415
0.104355
0.107958
0.110599
0.112673
0.114401
0.115976
0.117535
0.11962
0.122064
0.128042
0.134276
0.158138
0.177827
0.276387
-0.0190724
0.0532016
0.0778659
0.0983907
0.106768
0.112661
0.115843
0.118077
0.119639
0.120785
0.121645
0.122261
0.122683
0.123236
0.123654
0.127033
0.129714
0.152035
0.167181
0.288774
0.0347875
0.0881396
0.108976
0.123231
0.128067
0.130957
0.132289
0.133031
0.13356
0.133732
0.133821
0.133459
0.132987
0.131972
0.130838
0.13069
0.13031
0.143968
0.151387
0.253044
)
;

boundaryField
{
    cavity
    {
        type            implicitExtrapolation;
    }
    lid
    {
        type            implicitExtrapolation;
    }
    frontAndBack
    {
        type            empty;
    }
}


// ************************************************************************* //
