/*--------------------------------*- C++ -*----------------------------------*\
| =========                 |                                                 |
| \\      /  F ield         | foam-extend: Open Source CFD                    |
|  \\    /   O peration     | Version:  3.0                                   |
|   \\  /    A nd           | Web:         http://www.extend-project.de       |
|    \\/     M anipulation  |                                                 |
\*---------------------------------------------------------------------------*/
FoamFile
{
    version     2.0;
    format      ascii;
    class       volSymmTensorField;
    location    "16";
    object      sigma;
}
// * * * * * * * * * * * * * * * * * * * * * * * * * * * * * * * * * * * * * //

dimensions      [0 0 0 0 0 0 0];

internalField   nonuniform List<symmTensor> 
576
(
(1.94551 -0.0602207 2.78776e-18 -1.85107 2.98848e-18 4.2472e-36)
(2.00556 0.146631 7.83308e-18 -1.90609 -3.038e-17 -1.5251e-34)
(2.29238 0.219559 3.39775e-19 -2.22715 -1.50675e-17 -1.72511e-35)
(2.08701 0.239068 -1.54309e-18 -1.99568 -4.96067e-18 1.48592e-35)
(1.88594 0.23826 8.63107e-18 -1.84142 -2.71069e-18 2.32001e-35)
(1.64487 0.220542 6.59367e-18 -1.5466 3.67838e-19 3.36135e-36)
(1.34537 0.20074 -9.98035e-18 -1.32239 -4.3324e-18 -1.16262e-35)
(1.15821 0.180162 -1.42941e-17 -1.04255 2.2521e-17 -1.74661e-34)
(0.816707 0.152468 -2.04556e-17 -0.807998 1.22162e-17 -1.17253e-34)
(0.681969 0.137185 -1.35693e-17 -0.566286 6.47843e-18 -1.59534e-35)
(0.359364 0.106644 7.06152e-19 -0.32204 -1.1399e-17 5.60303e-35)
(0.189445 0.0945223 -1.16739e-17 -0.118605 -1.14732e-17 -5.79307e-36)
(2.09989 -0.143582 -1.71418e-17 -2.00673 -1.07118e-17 -8.85684e-35)
(1.95273 0.433274 -4.27114e-17 -1.85487 2.31794e-17 3.71517e-34)
(2.18103 0.640286 -4.50422e-18 -2.11665 1.22675e-17 2.12888e-34)
(1.94456 0.691913 1.39784e-18 -1.85484 -1.35097e-17 -1.97267e-35)
(1.73607 0.687323 1.43435e-17 -1.69225 -1.48585e-17 -1.12235e-35)
(1.49917 0.634724 -1.08525e-17 -1.40251 1.23082e-17 0)
(1.20747 0.576172 -1.95805e-17 -1.18491 4.10102e-17 -4.17408e-34)
(1.02881 0.51592 4.19277e-17 -0.915111 7.95006e-18 1.84371e-34)
(0.70206 0.43515 2.60331e-17 -0.693547 1.74537e-17 3.9769e-34)
(0.572562 0.390186 1.54854e-17 -0.458915 3.6499e-19 -4.17183e-34)
(0.267578 0.30155 -2.9442e-17 -0.230956 1.13428e-18 -2.77239e-34)
(0.100414 0.265387 -2.95043e-17 -0.0308533 2.78628e-17 4.06564e-34)
(2.37725 -0.118192 3.85364e-18 -2.28762 4.40756e-18 -7.38739e-35)
(1.85069 0.702252 1.83266e-17 -1.75634 1.11656e-17 -4.0204e-35)
(1.97085 1.0091 -2.30116e-17 -1.90892 -1.75837e-17 -2.58701e-34)
(1.67852 1.07257 -4.70552e-17 -1.5919 4.16883e-17 -4.2073e-34)
(1.45668 1.05804 -2.00631e-17 -1.41446 7.72442e-18 2.59972e-34)
(1.22805 0.971422 3.61658e-17 -1.13483 1.40965e-17 -1.43197e-34)
(0.95148 0.876663 8.3265e-17 -0.929711 -2.47124e-17 9.9197e-34)
(0.788843 0.780753 5.59959e-18 -0.679107 9.07731e-18 1.00059e-34)
(0.490003 0.653309 7.81976e-17 -0.481824 -8.98289e-18 1.39959e-33)
(0.370524 0.581142 3.05964e-17 -0.260788 2.89914e-18 9.43183e-34)
(0.0986181 0.442762 -1.58602e-17 -0.063281 3.00425e-17 -8.95967e-34)
(-0.0630599 0.383182 4.31924e-17 0.130212 3.63995e-17 1.09245e-33)
(2.72071 0.0683177 2.4107e-18 -2.63557 3.63848e-18 0)
(1.70672 0.943293 -7.8439e-19 -1.61724 -2.63195e-17 0)
(1.68623 1.29947 -3.68218e-17 -1.62743 5.40196e-17 3.06616e-34)
(1.32327 1.34437 8.1574e-17 -1.24121 -4.26186e-17 4.96579e-34)
(1.08576 1.31084 -3.97058e-17 -1.04574 1.49935e-17 -4.1357e-34)
(0.869345 1.19183 4.7963e-17 -0.781011 -3.32432e-17 7.62657e-34)
(0.614043 1.06471 -3.92056e-17 -0.593442 7.4147e-18 -1.00808e-33)
(0.473284 0.939301 1.00956e-16 -0.369359 -5.42481e-17 2.62034e-34)
(0.212488 0.774947 4.20767e-17 -0.204756 -6.84873e-17 -2.13171e-33)
(0.106697 0.679282 1.67029e-17 -0.00279276 -2.56497e-17 -7.20321e-34)
(-0.120574 0.503789 4.53216e-17 0.154024 3.88507e-18 -3.68943e-34)
(-0.27408 0.421618 1.01456e-16 0.337655 -1.06848e-16 -1.32994e-34)
(3.05446 0.441397 -9.5317e-18 -2.97574 3.03744e-19 0)
(1.52961 1.14977 -3.17366e-17 -1.44672 2.66405e-17 7.66762e-35)
(1.3582 1.49529 4.04209e-17 -1.30379 -1.88695e-17 -4.11931e-34)
(0.924178 1.48651 -4.42887e-17 -0.848123 1.82018e-17 -4.88346e-34)
(0.6728 1.42362 7.61413e-17 -0.635721 -5.45154e-17 -6.5475e-34)
(0.472339 1.27421 -8.45533e-17 -0.390497 -3.01943e-18 3.29715e-34)
(0.243275 1.11964 -1.52987e-17 -0.224196 -3.72195e-17 0)
(0.127823 0.972169 -1.22038e-16 -0.0315022 -2.06068e-17 1.55083e-33)
(-0.0886788 0.782599 -1.1446e-16 0.095814 2.27147e-17 2.66244e-33)
(-0.178368 0.668058 -7.36404e-17 0.274677 -9.20932e-18 6.16763e-35)
(-0.354738 0.470556 1.66242e-17 0.385722 -5.50977e-17 -1.51874e-33)
(-0.49749 0.367075 -1.31225e-16 0.556409 -1.86241e-18 1.32994e-34)
(3.29917 0.994709 3.55485e-18 -3.22782 1.1608e-17 0)
(1.33026 1.31809 2.76439e-17 -1.25524 -1.49293e-17 1.31852e-34)
(1.02139 1.59334 -1.44533e-17 -0.972178 -1.172e-17 -7.4336e-35)
(0.530445 1.49656 -1.12344e-17 -0.461667 4.12368e-18 0)
(0.271739 1.39436 -5.87367e-17 -0.238228 2.39046e-17 2.43838e-34)
(0.0906021 1.21721 2.09473e-17 -0.0166293 -1.91155e-17 -2.00582e-34)
(-0.108855 1.04046 -1.23139e-16 0.126095 6.46005e-17 7.0507e-34)
(-0.198062 0.878769 1.50226e-16 0.285112 -9.84253e-18 -2.13973e-33)
(-0.368346 0.676139 1.872e-17 0.374778 -2.22682e-17 -1.93032e-33)
(-0.440988 0.547616 -6.89183e-17 0.528032 5.09729e-17 1.38641e-33)
(-0.565817 0.343596 9.04434e-18 0.593809 2.12165e-17 0)
(-0.695331 0.220408 -1.54504e-17 0.748577 4.51163e-17 0)
(3.38062 1.69002 3.13619e-18 -3.31819 4.54969e-18 0)
(1.11847 1.44809 -1.56558e-17 -1.05271 4.78084e-17 -5.90595e-34)
(0.708018 1.60277 1.03675e-16 -0.664834 -3.80609e-17 1.97064e-33)
(0.188097 1.39053 -1.48186e-17 -0.127801 -2.28944e-17 0)
(-0.0673017 1.24147 4.18512e-17 0.096711 -1.76886e-17 -8.01789e-35)
(-0.226025 1.03964 -5.41526e-17 0.290883 2.0115e-17 6.59557e-35)
(-0.393985 0.84605 1.34643e-16 0.409097 -1.31867e-17 5.59751e-34)
(-0.458432 0.677405 1.11904e-16 0.534747 -3.35279e-17 2.44328e-34)
(-0.584637 0.472735 -1.70164e-16 0.590262 3.39448e-17 -1.54166e-33)
(-0.640668 0.33494 4.38087e-17 0.71696 1.52895e-17 -3.98499e-34)
(-0.718697 0.138157 -1.32454e-17 0.743221 -2.04595e-17 0)
(-0.832679 -0.00276471 -1.82409e-17 0.87934 3.59218e-17 0)
(3.24553 2.46296 4.32574e-18 -3.19286 5.48931e-18 0)
(0.903273 1.54294 5.91917e-17 -0.847857 -1.79469e-18 4.34005e-34)
(0.443746 1.54391 -4.14502e-17 -0.407406 -1.31189e-17 -1.6765e-33)
(-0.0671163 1.20031 -6.25792e-17 0.117885 3.44261e-17 -5.37698e-36)
(-0.305506 1.00071 1.9862e-17 0.330257 -1.19836e-17 -4.46927e-36)
(-0.439147 0.777671 1.51584e-17 0.493748 -4.69444e-17 1.96762e-34)
(-0.574992 0.572042 2.1526e-17 0.587697 1.18827e-17 0)
(-0.618066 0.402333 -7.79724e-17 0.682319 -2.65839e-17 -4.48912e-34)
(-0.70557 0.204164 -1.60288e-16 0.710288 3.48006e-17 3.17348e-33)
(-0.746529 0.0611266 3.72044e-17 0.810759 2.1851e-17 5.6082e-34)
(-0.786675 -0.118192 -3.53986e-17 0.807315 9.30958e-18 6.39665e-34)
(-0.88304 -0.274523 9.17799e-17 0.92232 -6.83662e-18 -1.10082e-33)
(2.86691 3.2309 2.26228e-17 -2.825 -1.43949e-18 6.61656e-35)
(0.691135 1.60762 -3.27695e-17 -0.647021 -6.76023e-18 -5.12085e-35)
(0.244216 1.44419 -6.54168e-17 -0.215258 4.13585e-17 -2.10256e-34)
(-0.214446 0.968293 1.55847e-16 0.254849 -4.63664e-17 9.09562e-34)
(-0.420778 0.719395 -1.51256e-16 0.440481 4.5578e-17 -3.9234e-34)
(-0.527105 0.478981 1.32221e-16 0.57055 -8.80194e-18 9.7892e-34)
(-0.631206 0.265375 7.12202e-17 0.641304 -9.21711e-17 -1.88592e-33)
(-0.657487 0.0985702 -1.95888e-16 0.708594 -9.19458e-18 2.41769e-33)
(-0.713706 -0.0879359 -3.01433e-17 0.71745 4.25371e-17 -1.23311e-33)
(-0.741852 -0.233176 -2.59996e-18 0.792919 4.37505e-19 -2.16282e-35)
(-0.755542 -0.389557 9.47286e-18 0.771949 4.36648e-17 -2.48528e-34)
(-0.832477 -0.558655 8.13918e-17 0.863702 -1.80182e-17 1.10082e-33)
(2.25166 3.90651 6.89945e-18 -2.22127 1.37656e-17 0)
(0.485597 1.64855 2.60556e-17 -0.453566 -7.92312e-18 5.64937e-35)
(0.112685 1.33418 5.6173e-17 -0.0916964 1.14537e-18 1.78846e-34)
(-0.251493 0.740928 -1.20134e-16 0.280806 2.80765e-17 -1.08542e-33)
(-0.411247 0.449169 1.19672e-16 0.425519 -1.22579e-17 5.94121e-34)
(-0.488472 0.195472 -4.12612e-17 0.51999 3.75262e-17 -3.47215e-34)
(-0.56171 -0.0229884 -8.62697e-17 0.569007 -8.3981e-18 -6.24534e-34)
(-0.576051 -0.185096 5.77991e-17 0.613122 -1.25872e-17 -5.93618e-34)
(-0.608919 -0.358518 6.30604e-17 0.611615 3.13717e-17 -8.34593e-34)
(-0.626719 -0.504061 5.52166e-17 0.663744 6.55142e-18 4.08199e-35)
(-0.625826 -0.637243 1.68868e-16 0.637713 -2.67307e-17 1.21078e-34)
(-0.681863 -0.816182 -8.43417e-17 0.704496 -2.46776e-18 7.99046e-36)
(1.43871 4.40871 7.03891e-18 -1.42022 -1.90983e-18 0)
(0.28753 1.67168 -4.43022e-17 -0.268062 1.50388e-17 -5.26778e-35)
(0.0405735 1.24223 -5.1035e-17 -0.0278354 -1.82299e-18 -1.1137e-34)
(-0.193728 0.561284 6.61797e-17 0.211497 -9.71428e-18 -4.32763e-35)
(-0.294877 0.237888 -6.27872e-17 0.30351 1.90477e-17 2.27591e-35)
(-0.34174 -0.0247732 1.47839e-17 0.360815 -1.73975e-17 0)
(-0.38514 -0.245866 -4.15494e-17 0.389532 2.89746e-17 -3.76738e-34)
(-0.391808 -0.403508 2.57111e-17 0.414218 2.80816e-17 1.9868e-34)
(-0.408315 -0.565927 -1.62784e-17 0.409929 8.30941e-18 -4.57855e-34)
(-0.417972 -0.710947 -1.98372e-18 0.440329 2.26029e-17 -8.10094e-34)
(-0.412777 -0.825514 -7.68497e-18 0.419947 -2.99425e-17 2.39143e-34)
(-0.446818 -1.01113 3.43216e-17 0.460477 -2.95582e-17 5.9003e-34)
(0.494717 4.67658 1.35699e-18 -0.488616 -1.20367e-17 0)
(0.094922 1.68193 3.93568e-18 -0.0884261 -1.04004e-17 -5.4925e-35)
(0.00861983 1.19032 -8.78038e-18 -0.00442947 1.91561e-17 -3.79068e-35)
(-0.0722699 0.462475 -1.20144e-17 0.078146 9.51531e-19 8.72677e-36)
(-0.106847 0.122281 4.09431e-17 0.109657 -1.2199e-17 -7.05546e-37)
(-0.122562 -0.144901 -1.18465e-17 0.128839 1.40459e-18 1.0846e-35)
(-0.136887 -0.36711 8.98518e-18 0.138281 3.17729e-18 -1.04869e-36)
(-0.138769 -0.52209 -1.86636e-17 0.146118 6.09608e-18 -1.97804e-34)
(-0.143675 -0.678279 2.57334e-17 0.144164 -2.49887e-18 -9.92957e-35)
(-0.146695 -0.822794 -1.29157e-17 0.153993 2.49802e-18 -1.87514e-34)
(-0.144141 -0.927059 -3.74691e-18 0.146458 4.06574e-19 -2.59471e-34)
(-0.155519 -1.11605 6.93759e-18 0.159961 -9.58189e-18 4.27033e-35)
(-0.494996 4.67656 2.54723e-18 0.488764 8.89167e-18 1.8838e-35)
(-0.0955215 1.68187 2.18455e-17 0.089022 1.43441e-17 3.08099e-35)
(-0.00902283 1.19028 2.9878e-18 0.00466522 4.04484e-18 3.26026e-35)
(0.0717138 0.462418 -8.61478e-18 -0.0777834 3.46814e-20 -4.72634e-35)
(0.106473 0.122238 -1.06452e-17 -0.109494 -7.97376e-18 9.11089e-35)
(0.122148 -0.144945 1.01759e-17 -0.128753 2.55871e-18 1.64292e-35)
(0.136604 -0.367144 -7.65381e-18 -0.13821 -9.87464e-18 7.75257e-36)
(0.138478 -0.522119 -1.68453e-18 -0.1463 -2.17189e-17 1.36351e-34)
(0.143483 -0.678315 -9.71604e-18 -0.144116 -4.11941e-18 1.90153e-34)
(0.146557 -0.822799 -7.60274e-18 -0.154431 9.8591e-18 1.55868e-34)
(0.144022 -0.927088 -8.11925e-19 -0.146588 1.56848e-17 5.73315e-36)
(0.155525 -1.11605 -5.13745e-19 -0.160367 -2.4504e-18 -1.41936e-35)
(-1.43904 4.40891 1.35168e-17 1.42046 -3.15262e-18 -2.01878e-35)
(-0.288089 1.67154 -4.70442e-17 0.268632 -1.02833e-17 3.97174e-34)
(-0.0409479 1.24215 -4.61144e-17 0.0280579 3.77272e-18 4.90272e-35)
(0.193213 0.561124 -2.48364e-17 -0.211169 1.94336e-17 -2.47043e-34)
(0.294543 0.237764 2.52372e-17 -0.303373 2.46928e-18 9.00767e-35)
(0.341362 -0.0249036 9.30051e-18 -0.360762 -3.24399e-17 0)
(0.384887 -0.245968 -7.56686e-17 -0.389483 -2.70792e-17 1.1424e-34)
(0.391549 -0.403591 2.21725e-17 -0.414423 -6.2802e-18 -1.42826e-34)
(0.408155 -0.566031 6.61539e-17 -0.409913 -7.36877e-18 -6.39501e-34)
(0.417854 -0.710963 4.22534e-17 -0.440772 1.95331e-17 -8.06744e-35)
(0.412691 -0.825598 -2.42541e-17 -0.420108 -8.12113e-19 6.64398e-35)
(0.446844 -1.01114 -3.58692e-17 -0.460896 1.3279e-17 1.57984e-34)
(-2.25206 3.90661 -8.53363e-18 2.22153 -2.25966e-17 1.70818e-34)
(-0.486127 1.64828 7.62927e-17 0.454104 9.40272e-18 -7.00044e-34)
(-0.113047 1.33402 5.33258e-17 0.0918936 2.58341e-18 8.85986e-35)
(0.25103 0.740671 -3.65795e-17 -0.280533 -6.38689e-18 4.0244e-34)
(0.410965 0.448978 -1.09342e-16 -0.425424 6.76719e-18 1.40345e-34)
(0.488149 0.195277 -2.08743e-17 -0.519996 -3.68802e-18 -2.94565e-34)
(0.56151 -0.0231432 1.04169e-16 -0.569001 1.18662e-17 1.01396e-34)
(0.575847 -0.185212 -2.90658e-17 -0.613368 -7.78057e-18 1.73905e-34)
(0.608814 -0.35867 4.3873e-17 -0.611661 -6.97428e-19 1.57422e-33)
(0.626637 -0.504076 4.83138e-17 -0.664198 -1.36643e-17 9.82814e-34)
(0.625797 -0.637356 -5.8615e-18 -0.637932 -3.02141e-17 8.78252e-34)
(0.681917 -0.81618 8.31711e-17 -0.704933 2.62354e-17 -9.29074e-34)
(-2.86749 3.23114 2.06349e-18 2.82549 9.72208e-18 0)
(-0.691566 1.6073 -1.10359e-17 0.647483 -1.48129e-17 0)
(-0.244502 1.44401 -6.34855e-17 0.215418 -3.68968e-17 1.11674e-33)
(0.214101 0.967973 1.53489e-16 -0.254673 1.58123e-17 -1.3555e-34)
(0.420598 0.719163 5.8136e-18 -0.440454 2.40095e-17 4.98546e-34)
(0.526877 0.478744 -3.76226e-17 -0.57064 5.32301e-17 4.84245e-34)
(0.631089 0.265184 -1.48458e-16 -0.64136 -2.53399e-17 -1.84936e-33)
(0.657357 0.0984392 3.45353e-17 -0.708891 3.35607e-17 1.19064e-33)
(0.713678 -0.0881134 -3.42414e-17 -0.717572 1.39106e-17 6.26182e-34)
(0.741819 -0.233182 1.01269e-17 -0.793385 -6.1087e-17 4.34142e-34)
(0.755585 -0.389677 -5.19012e-19 -0.772237 -2.26699e-17 2.40394e-34)
(0.832579 -0.55864 8.5393e-17 -0.864168 -3.39954e-17 1.43584e-33)
(-3.24612 2.46301 4.16448e-18 3.19339 -9.471e-18 0)
(-0.903637 1.54251 -7.75924e-18 0.848272 -2.96337e-17 5.45816e-34)
(-0.444012 1.54367 7.38069e-17 0.407518 5.78535e-17 -6.53768e-34)
(0.0668561 1.19995 -1.40136e-16 -0.117788 -2.26828e-17 -4.70948e-34)
(0.305391 1.00046 1.50636e-16 -0.330292 2.77639e-17 -5.43938e-34)
(0.438995 0.777433 -5.15689e-17 -0.493917 9.2768e-18 -1.10068e-34)
(0.574952 0.571849 3.5247e-17 -0.58782 3.45602e-17 0)
(0.618005 0.402227 -7.48252e-17 -0.682662 3.57343e-17 9.25626e-34)
(0.705623 0.204002 -1.72452e-16 -0.710497 -1.03051e-17 -3.33874e-33)
(0.746549 0.0611563 -1.12933e-16 -0.811233 -1.27093e-17 -2.99065e-33)
(0.786795 -0.118276 3.43256e-17 -0.807676 4.72691e-17 1.48633e-33)
(0.883185 -0.274462 -1.72823e-16 -0.922805 -5.22464e-17 -1.43584e-33)
(-3.38151 1.69005 7.18818e-18 3.31894 -1.29645e-17 0)
(-1.11876 1.44766 3.61592e-17 1.05304 1.03578e-17 -2.91836e-34)
(-0.708198 1.60255 3.51487e-17 0.664907 2.72723e-18 -7.02927e-34)
(-0.188215 1.39019 1.61373e-17 0.127784 2.9037e-17 0)
(0.0672936 1.24125 -7.07321e-17 -0.0968188 -2.48089e-17 1.51523e-34)
(0.225988 1.03944 9.10699e-17 -0.291134 1.35975e-17 -1.24644e-34)
(0.394046 0.845877 -7.19856e-17 -0.409295 -5.09792e-17 2.12714e-33)
(0.458451 0.677338 1.83759e-16 -0.535128 5.55333e-17 -2.70229e-33)
(0.584777 0.472608 6.7496e-17 -0.590549 3.19936e-17 1.13834e-33)
(0.640742 0.335008 -3.82081e-17 -0.717438 4.89207e-18 -1.91254e-34)
(0.718882 0.138127 4.01186e-18 -0.743637 -7.987e-18 0)
(0.832866 -0.00264887 3.08928e-17 -0.87984 5.5212e-17 0)
(-3.29988 0.994474 -4.02634e-18 3.22855 -1.3398e-18 0)
(-1.33041 1.31757 -3.84659e-17 1.25548 -3.14725e-17 3.95285e-35)
(-1.02152 1.59308 6.32447e-17 0.972185 1.93725e-17 6.87791e-34)
(-0.530503 1.49623 6.52621e-18 0.46161 -9.1643e-18 0)
(-0.271704 1.39416 6.72557e-17 0.238064 2.54832e-17 -3.0379e-34)
(-0.0905954 1.21706 -4.65626e-17 0.0163429 -2.77414e-17 2.49898e-34)
(0.108962 1.04034 5.52087e-17 -0.12633 5.11638e-17 8.05449e-34)
(0.198113 0.878774 -2.25639e-17 -0.285496 1.95211e-17 4.89051e-33)
(0.368536 0.676091 -1.1189e-16 -0.375107 -8.31591e-17 -2.67178e-33)
(0.44109 0.547756 1.02186e-16 -0.528485 -3.32306e-18 2.17921e-33)
(0.566045 0.34366 -1.7291e-18 -0.59425 1.80236e-17 0)
(0.695543 0.220608 1.33083e-17 -0.749067 1.99326e-17 0)
(-3.05543 0.440995 7.02517e-18 2.97657 -1.02421e-18 0)
(-1.52979 1.14926 -6.92039e-18 1.44692 3.18005e-17 4.28853e-34)
(-1.35831 1.4951 -6.56262e-17 1.30377 -4.62615e-17 -6.18671e-34)
(-0.924152 1.48624 -7.35994e-18 0.847974 -8.23096e-18 8.90009e-34)
(-0.672711 1.42348 -1.12509e-17 0.635529 -2.61522e-17 5.09925e-34)
(-0.472262 1.27416 6.5802e-17 0.390172 5.45829e-17 -1.15538e-34)
(-0.243098 1.11959 -7.38979e-17 0.223905 1.93771e-17 0)
(-0.127721 0.972246 -5.83298e-17 0.0311284 -6.59571e-18 -2.61162e-33)
(0.0889248 0.782635 -6.47164e-17 -0.0961852 -9.3265e-18 -1.38526e-34)
(0.178507 0.668257 1.41743e-17 -0.275105 -8.45517e-18 -6.37824e-35)
(0.354989 0.470706 -2.15152e-18 -0.386161 2.50912e-18 1.01245e-33)
(0.497704 0.367348 7.87906e-17 -0.556862 3.46051e-17 1.1136e-33)
(-2.72134 0.0676734 -1.11325e-18 2.63629 1.0661e-17 7.59862e-35)
(-1.70669 0.942796 -9.73091e-18 1.61729 -1.22883e-17 -5.88096e-35)
(-1.68624 1.29927 -3.12118e-18 1.62742 -1.11466e-17 -7.43929e-34)
(-1.32322 1.34416 8.5147e-17 1.24106 3.20913e-17 -6.32368e-34)
(-1.08562 1.31079 -7.91775e-17 1.04554 -2.42454e-17 1.45642e-34)
(-0.869258 1.19185 8.34476e-17 0.780736 1.60138e-18 -6.61624e-34)
(-0.613871 1.06475 7.4943e-17 0.593182 6.98798e-17 2.61491e-34)
(-0.473187 0.939462 -4.40721e-17 0.369038 1.84882e-17 3.73916e-34)
(-0.212257 0.775078 4.90296e-17 0.204432 1.53314e-17 8.60297e-34)
(-0.106583 0.679564 1.04995e-17 0.00243465 2.36406e-17 5.98654e-34)
(0.120804 0.504046 -1.99537e-18 -0.154411 2.26523e-17 4.41158e-34)
(0.274272 0.421993 -2.48716e-17 -0.338052 -4.90736e-17 -1.1136e-33)
(-2.37799 -0.119091 -3.45017e-18 2.2882 -1.13636e-17 0)
(-1.85071 0.701699 9.03283e-18 1.75632 -7.49515e-18 2.97098e-34)
(-1.97094 1.00896 2.74377e-18 1.90886 9.36383e-18 5.68841e-36)
(-1.67845 1.0724 -5.98557e-17 1.59171 -5.44799e-17 5.4145e-35)
(-1.45657 1.05801 7.00753e-17 1.41426 1.98223e-17 -2.23008e-34)
(-1.228 0.971541 -6.72588e-17 1.13456 -3.84336e-17 5.41443e-34)
(-0.951292 0.876764 2.53723e-17 0.929461 -3.98133e-17 6.97372e-34)
(-0.788762 0.780979 1.2008e-16 0.678839 2.02708e-17 -1.36235e-33)
(-0.489789 0.653542 6.514e-17 0.481534 -2.15733e-17 -1.94314e-33)
(-0.370409 0.58148 6.80512e-17 0.260493 -7.12375e-18 -1.52072e-33)
(-0.0984253 0.443103 9.66159e-17 0.0629588 2.42034e-17 -1.4966e-33)
(0.0632064 0.383604 -7.97469e-17 -0.130517 -6.04022e-19 -3.34288e-34)
(-2.10025 -0.144665 -2.27457e-17 2.00726 4.9539e-18 0)
(-1.9526 0.43291 -2.63181e-17 1.85483 -1.38727e-17 -3.96761e-34)
(-2.181 0.640113 3.90208e-18 2.11671 -2.26406e-17 -3.84873e-35)
(-1.94454 0.691854 2.12701e-17 1.85471 3.01545e-17 5.54553e-35)
(-1.73595 0.687374 -3.93658e-17 1.69215 -2.52446e-17 -7.73948e-35)
(-1.49913 0.634896 1.44599e-17 1.40237 1.26404e-17 0)
(-1.20735 0.576342 -3.99224e-17 1.18475 -1.49278e-17 8.76492e-35)
(-1.02876 0.516192 6.88454e-18 0.914938 -4.06505e-17 -5.66694e-35)
(-0.701906 0.435433 -2.82477e-17 0.69336 -2.78178e-17 -1.0912e-35)
(-0.572526 0.390565 -1.87841e-17 0.458723 -4.22774e-17 2.10223e-34)
(-0.267464 0.301953 -3.25063e-18 0.230745 -3.02207e-17 7.52921e-34)
(-0.100339 0.265899 2.97234e-17 0.0306496 4.62184e-17 -4.66632e-34)
(-1.94569 -0.0614063 -4.89408e-19 1.85109 7.02872e-18 0)
(-2.00541 0.146227 6.22516e-18 1.90593 2.86285e-17 1.37318e-34)
(-2.29248 0.219379 -2.44243e-19 2.22709 5.52672e-18 3.05746e-36)
(-2.08694 0.23903 1.14982e-17 1.99556 -1.30286e-17 -3.31506e-38)
(-1.88589 0.238323 1.51913e-17 1.84135 1.70774e-17 1.88288e-35)
(-1.64491 0.220755 -7.60745e-18 1.54649 -2.47894e-18 1.10317e-35)
(-1.34532 0.200947 1.47897e-17 1.32234 4.11703e-18 -2.253e-35)
(-1.15822 0.180466 -2.43844e-17 1.04246 -7.21396e-18 7.54871e-35)
(-0.816641 0.152811 -4.67708e-18 0.807952 1.98778e-18 4.12001e-36)
(-0.681973 0.137585 -3.33298e-17 0.56623 -4.34404e-18 1.49764e-35)
(-0.35932 0.107102 -2.00304e-17 0.321977 -4.45728e-18 7.96067e-35)
(-0.189426 0.0950293 2.72589e-18 0.11855 -1.57755e-17 -2.93961e-35)
(-1.94554 0.0602757 2.78711e-18 1.85095 2.99056e-18 -4.24706e-36)
(-2.0054 -0.146648 7.83231e-18 1.90592 -3.0382e-17 1.52534e-34)
(-2.29247 -0.219486 3.41758e-19 2.2271 -1.50686e-17 1.72465e-35)
(-2.08696 -0.239118 -1.54253e-18 1.99558 -4.96156e-18 -1.48568e-35)
(-1.88592 -0.23822 8.63024e-18 1.84138 -2.71198e-18 -2.32014e-35)
(-1.64494 -0.220574 6.59253e-18 1.54655 3.67573e-19 -3.36168e-36)
(-1.34535 -0.200758 -9.98058e-18 1.32238 -4.33342e-18 1.16216e-35)
(-1.15824 -0.180164 -1.42941e-17 1.04252 2.25206e-17 1.74659e-34)
(-0.816693 -0.152475 -2.04554e-17 0.808008 1.22168e-17 1.1725e-34)
(-0.681991 -0.137203 -1.35688e-17 0.566289 6.47846e-18 1.59519e-35)
(-0.359376 -0.106634 7.06142e-19 0.322047 -1.13986e-17 -5.60293e-35)
(-0.189462 -0.0945439 -1.16736e-17 0.118613 -1.1473e-17 5.79145e-36)
(-2.09982 0.143624 -1.71423e-17 2.00686 -1.07114e-17 8.85671e-35)
(-1.95259 -0.433345 -4.27139e-17 1.8548 2.31778e-17 -3.71573e-34)
(-2.18098 -0.640228 -4.5048e-18 2.11674 1.22698e-17 -2.12885e-34)
(-1.9446 -0.691971 1.39849e-18 1.85479 -1.3509e-17 1.9702e-35)
(-1.73601 -0.687295 1.43442e-17 1.69226 -1.48577e-17 1.12454e-35)
(-1.49922 -0.63475 -1.0853e-17 1.40253 1.23085e-17 0)
(-1.20744 -0.57618 -1.95804e-17 1.18487 4.10113e-17 4.17401e-34)
(-1.02883 -0.515918 4.1928e-17 0.915114 7.95103e-18 -1.84366e-34)
(-0.702054 -0.435135 2.60327e-17 0.693523 1.74546e-17 -3.9769e-34)
(-0.572577 -0.390203 1.54848e-17 0.458897 3.65147e-19 4.17186e-34)
(-0.267623 -0.301525 -2.94414e-17 0.230948 1.13513e-18 2.77238e-34)
(-0.100444 -0.265439 -2.95046e-17 0.0308333 2.78629e-17 -4.06555e-34)
(-2.37732 0.118215 3.85457e-18 2.28759 4.40651e-18 7.38837e-35)
(-1.85067 -0.702159 1.83265e-17 1.75626 1.11671e-17 4.02266e-35)
(-1.97091 -1.00909 -2.301e-17 1.9089 -1.75855e-17 2.58703e-34)
(-1.67852 -1.07257 -4.70539e-17 1.59182 4.16867e-17 4.20667e-34)
(-1.45665 -1.05797 -2.00631e-17 1.41442 7.72485e-18 -2.59929e-34)
(-1.22813 -0.97146 3.61659e-17 1.1348 1.40946e-17 1.43144e-34)
(-0.951423 -0.876654 8.32651e-17 0.929645 -2.47128e-17 -9.91968e-34)
(-0.788863 -0.780757 5.6002e-18 0.679114 9.07799e-18 -1.00058e-34)
(-0.490013 -0.653315 7.8198e-17 0.481782 -8.98392e-18 -1.39961e-33)
(-0.370485 -0.581156 3.05954e-17 0.260771 2.89891e-18 -9.43176e-34)
(-0.0986668 -0.44275 -1.58604e-17 0.0632727 3.00419e-17 8.95958e-34)
(0.0630446 -0.383193 4.31921e-17 -0.130225 3.6399e-17 -1.09246e-33)
(-2.72051 -0.0683297 2.41035e-18 2.63553 3.63676e-18 0)
(-1.70661 -0.943284 -7.87427e-19 1.61718 -2.63193e-17 0)
(-1.68618 -1.29942 -3.68221e-17 1.62746 5.4019e-17 -3.06689e-34)
(-1.32328 -1.3444 8.15736e-17 1.24117 -4.26169e-17 -4.96489e-34)
(-1.08571 -1.31081 -3.97059e-17 1.04573 1.49928e-17 4.13612e-34)
(-0.869395 -1.19185 4.79625e-17 0.78102 -3.32425e-17 -7.62664e-34)
(-0.614022 -1.06471 -3.92026e-17 0.593406 7.41562e-18 1.00807e-33)
(-0.473297 -0.939311 1.00956e-16 0.369387 -5.42485e-17 -2.62017e-34)
(-0.212524 -0.774945 4.20769e-17 0.204734 -6.84888e-17 2.13176e-33)
(-0.106671 -0.679291 1.67039e-17 0.00280016 -2.56502e-17 7.20341e-34)
(0.120512 -0.503794 4.53219e-17 -0.154019 3.88399e-18 3.68972e-34)
(0.27407 -0.421648 1.01456e-16 -0.337671 -1.06847e-16 1.32998e-34)
(-3.05452 -0.441408 -9.53033e-18 2.97575 3.03634e-19 0)
(-1.52965 -1.14977 -3.17398e-17 1.44673 2.6642e-17 -7.66853e-35)
(-1.35822 -1.49526 4.04208e-17 1.3038 -1.88695e-17 4.11962e-34)
(-0.924167 -1.48655 -4.42888e-17 0.848058 1.82047e-17 4.88291e-34)
(-0.672776 -1.42357 7.61416e-17 0.635731 -5.45168e-17 6.54737e-34)
(-0.472373 -1.27425 -8.45547e-17 0.390468 -3.01756e-18 -3.297e-34)
(-0.243241 -1.11962 -1.52986e-17 0.224141 -3.722e-17 0)
(-0.127816 -0.972173 -1.22037e-16 0.0315236 -2.06066e-17 -1.55081e-33)
(0.0886507 -0.782605 -1.14462e-16 -0.0958675 2.27146e-17 -2.6625e-33)
(0.178421 -0.668044 -7.36399e-17 -0.274671 -9.20889e-18 -6.17656e-35)
(0.354683 -0.470565 1.66247e-17 -0.38573 -5.50973e-17 1.51879e-33)
(0.497484 -0.36708 -1.31225e-16 -0.556417 -1.86191e-18 -1.32998e-34)
(-3.29897 -0.994652 3.55572e-18 3.22775 1.16082e-17 0)
(-1.33019 -1.31809 2.76421e-17 1.25521 -1.493e-17 -1.31847e-34)
(-1.02138 -1.59326 -1.44541e-17 0.972198 -1.17221e-17 7.43894e-35)
(-0.530444 -1.49659 -1.12338e-17 0.461634 4.123e-18 0)
(-0.271724 -1.39431 -5.87357e-17 0.238247 2.3905e-17 -2.43856e-34)
(-0.090647 -1.21723 2.09471e-17 0.0166125 -1.91168e-17 2.00597e-34)
(0.108854 -1.04044 -1.23138e-16 -0.126112 6.46009e-17 -7.05096e-34)
(0.198059 -0.878775 1.50225e-16 -0.285086 -9.84337e-18 2.13973e-33)
(0.368292 -0.676158 1.87199e-17 -0.374811 -2.22676e-17 1.93034e-33)
(0.441022 -0.547604 -6.89184e-17 -0.528003 5.09728e-17 -1.38642e-33)
(0.565764 -0.343626 9.04363e-18 -0.593819 2.12168e-17 0)
(0.695327 -0.220418 -1.545e-17 -0.748582 4.51165e-17 0)
(-3.38067 -1.69003 3.13689e-18 3.31823 4.54987e-18 0)
(-1.11844 -1.44817 -1.56568e-17 1.05267 4.78085e-17 5.906e-34)
(-0.708003 -1.60273 1.03675e-16 0.66489 -3.80623e-17 -1.97062e-33)
(-0.188058 -1.39058 -1.48196e-17 0.127724 -2.28936e-17 0)
(0.0673388 -1.24144 4.18511e-17 -0.0966765 -1.76888e-17 8.01817e-35)
(0.226024 -1.03967 -5.41536e-17 -0.290921 2.01155e-17 -6.59581e-35)
(0.393997 -0.846032 1.34641e-16 -0.409117 -1.31866e-17 -5.59715e-34)
(0.458459 -0.677401 1.11903e-16 -0.534731 -3.35292e-17 -2.44279e-34)
(0.584597 -0.472752 -1.70163e-16 -0.590307 3.39451e-17 1.54162e-33)
(0.640705 -0.334913 4.38097e-17 -0.716931 1.52893e-17 3.98493e-34)
(0.718659 -0.138182 -1.32455e-17 -0.743242 -2.04589e-17 0)
(0.832672 0.00276665 -1.82415e-17 -0.87934 3.5922e-17 0)
(-3.24541 -2.46285 4.32715e-18 3.19281 5.48996e-18 0)
(-0.90322 -1.54298 5.91901e-17 0.847799 -1.79467e-18 -4.34015e-34)
(-0.443764 -1.54384 -4.14472e-17 0.407464 -1.31199e-17 1.67655e-33)
(0.0671236 -1.20034 -6.25787e-17 -0.117947 3.44256e-17 5.39222e-36)
(0.305514 -1.00067 1.98631e-17 -0.330208 -1.19837e-17 4.49525e-36)
(0.439135 -0.777692 1.51584e-17 -0.493783 -4.69439e-17 -1.96763e-34)
(0.574978 -0.572033 2.15241e-17 -0.5877 1.18818e-17 0)
(0.618088 -0.40233 -7.7972e-17 -0.6823 -2.65833e-17 4.48864e-34)
(0.705529 -0.204194 -1.60288e-16 -0.710332 3.48001e-17 -3.17349e-33)
(0.746553 -0.0611092 3.72043e-17 -0.810718 2.18514e-17 -5.60814e-34)
(0.786652 0.11816 -3.53977e-17 -0.807342 9.31139e-18 -6.3965e-34)
(0.883029 0.27452 9.17792e-17 -0.92231 -6.83761e-18 1.10084e-33)
(-2.86692 -3.23091 2.2623e-17 2.82506 -1.43945e-18 -6.61689e-35)
(-0.69105 -1.60769 -3.27684e-17 0.646917 -6.76245e-18 5.12111e-35)
(-0.244198 -1.44415 -6.54192e-17 0.215327 4.13598e-17 2.10194e-34)
(0.214482 -0.968322 1.55847e-16 -0.25493 -4.6366e-17 -9.09557e-34)
(0.420804 -0.719366 -1.51257e-16 -0.440434 4.55784e-17 3.92299e-34)
(0.527125 -0.478995 1.32221e-16 -0.570591 -8.8017e-18 -9.789e-34)
(0.631195 -0.265372 7.12209e-17 -0.641305 -9.2171e-17 1.88589e-33)
(0.65752 -0.0985575 -1.95889e-16 -0.708574 -9.1942e-18 -2.41766e-33)
(0.713677 0.08791 -3.01438e-17 -0.717492 4.25376e-17 1.23313e-33)
(0.741866 0.233195 -2.60124e-18 -0.792874 4.38487e-19 2.16696e-35)
(0.755531 0.389537 9.47201e-18 -0.771975 4.36654e-17 2.48553e-34)
(0.832467 0.558656 8.13923e-17 -0.863691 -1.8019e-17 -1.10084e-33)
(-2.25164 -3.90637 6.89946e-18 2.22126 1.37653e-17 0)
(-0.485545 -1.64857 2.60563e-17 0.453465 -7.92194e-18 -5.6484e-35)
(-0.112705 -1.33413 5.61724e-17 0.0917668 1.14504e-18 -1.78843e-34)
(0.251503 -0.740944 -1.20134e-16 -0.280876 2.80762e-17 1.08539e-33)
(0.411243 -0.449146 1.19672e-16 -0.425467 -1.22572e-17 -5.9413e-34)
(0.48849 -0.19548 -4.12614e-17 -0.520025 3.75255e-17 3.47234e-34)
(0.561689 0.0229801 -8.62678e-17 -0.569009 -8.39741e-18 6.24539e-34)
(0.57608 0.185107 5.7799e-17 -0.6131 -1.25858e-17 5.93608e-34)
(0.6089 0.358492 6.30604e-17 -0.611659 3.13721e-17 8.3457e-34)
(0.626726 0.504069 5.52169e-17 -0.663701 6.55252e-18 -4.08416e-35)
(0.625825 0.637226 1.68868e-16 -0.63774 -2.67322e-17 -1.21181e-34)
(0.681849 0.816172 -8.4342e-17 -0.704479 -2.46889e-18 -7.94846e-36)
(-1.43871 -4.40871 7.03914e-18 1.42029 -1.91007e-18 0)
(-0.287436 -1.67171 -4.43023e-17 0.267944 1.50367e-17 5.26728e-35)
(-0.0405618 -1.24221 -5.10338e-17 0.0279017 -1.82244e-18 1.11364e-34)
(0.193767 -0.5613 6.61793e-17 -0.211572 -9.71354e-18 4.32778e-35)
(0.294883 -0.237877 -6.27871e-17 -0.303468 1.90469e-17 -2.27627e-35)
(0.341775 0.0247751 1.47844e-17 -0.360848 -1.73971e-17 0)
(0.385127 0.245851 -4.15501e-17 -0.389539 2.89742e-17 3.76721e-34)
(0.391836 0.40352 2.57119e-17 -0.414194 2.80814e-17 -1.98677e-34)
(0.408308 0.565907 -1.62781e-17 -0.409969 8.30936e-18 4.57853e-34)
(0.417976 0.710949 -1.98285e-18 -0.44029 2.26027e-17 8.10092e-34)
(0.412782 0.825508 -7.68367e-18 -0.419969 -2.99423e-17 -2.39118e-34)
(0.446809 1.01113 3.43212e-17 -0.460463 -2.95584e-17 -5.90036e-34)
(-0.494765 -4.67648 1.35683e-18 0.488665 -1.20367e-17 0)
(-0.0948752 -1.68192 3.93576e-18 0.0883267 -1.04001e-17 5.49245e-35)
(-0.00864043 -1.19028 -8.78153e-18 0.00449428 1.91559e-17 3.79053e-35)
(0.0722937 -0.462473 -1.20138e-17 -0.0782118 9.51703e-19 -8.72559e-36)
(0.106837 -0.122274 4.09426e-17 -0.10962 -1.21988e-17 7.07937e-37)
(0.122592 0.144914 -1.18464e-17 -0.128864 1.40431e-18 -1.08462e-35)
(0.136876 0.367095 8.98532e-18 -0.138294 3.17739e-18 1.04961e-36)
(0.138791 0.522102 -1.86636e-17 -0.146095 6.09641e-18 1.97801e-34)
(0.143674 0.678267 2.57335e-17 -0.1442 -2.4988e-18 9.9296e-35)
(0.146697 0.822789 -1.29156e-17 -0.153962 2.49775e-18 1.87514e-34)
(0.144146 0.927056 -3.74685e-18 -0.146475 4.06796e-19 2.5947e-34)
(0.155511 1.11603 6.93793e-18 -0.159948 -9.58196e-18 -4.27034e-35)
(0.494987 -4.67655 2.54706e-18 -0.488703 8.89135e-18 -1.88374e-35)
(0.0955941 -1.68186 2.18463e-17 -0.0891114 1.43439e-17 -3.08041e-35)
(0.00902895 -1.19026 2.9888e-18 -0.00461032 4.04502e-18 -3.2602e-35)
(-0.0716695 -0.462411 -8.61463e-18 0.0777226 3.47971e-20 4.72621e-35)
(-0.106469 -0.12224 -1.06447e-17 0.109519 -7.97371e-18 -9.11067e-35)
(-0.122113 0.144963 1.01757e-17 0.128738 2.55855e-18 -1.64283e-35)
(-0.136605 0.367129 -7.65339e-18 0.138192 -9.87458e-18 -7.75437e-36)
(-0.138459 0.522128 -1.68482e-18 0.146323 -2.17186e-17 -1.36349e-34)
(-0.143482 0.678309 -9.71631e-18 0.144088 -4.11965e-18 -1.9015e-34)
(-0.146554 0.822791 -7.60318e-18 0.154453 9.85911e-18 -1.55867e-34)
(-0.144019 0.927092 -8.11867e-19 0.146578 1.56849e-17 -5.73322e-36)
(-0.155529 1.11604 -5.13588e-19 0.160377 -2.45027e-18 1.41931e-35)
(1.43897 -4.40884 1.35174e-17 -1.42038 -3.15303e-18 2.01898e-35)