/*--------------------------------*- C++ -*----------------------------------*\
| =========                 |                                                 |
| \\      /  F ield         | foam-extend: Open Source CFD                    |
|  \\    /   O peration     | Version:  3.0                                   |
|   \\  /    A nd           | Web:         http://www.extend-project.de       |
|    \\/     M anipulation  |                                                 |
\*---------------------------------------------------------------------------*/
FoamFile
{
    version     2.0;
    format      ascii;
    class       volVectorField;
    location    "14";
    object      s;
}
// * * * * * * * * * * * * * * * * * * * * * * * * * * * * * * * * * * * * * //

dimensions      [0 1 -1 0 0 0 0];

internalField   nonuniform List<vector> 
3012
(
(-2.21814 0.132017 0)
(-1.82124 -0.223142 0)
(-2.57482 0.174848 0)
(-1.72528 0.152312 0)
(-3.12124 0.390448 0)
(-2.15342 0.230038 0)
(-3.02754 -0.280627 0)
(-2.8479 0.112603 0)
(-1.99737 0.246336 0)
(-2.19592 -0.378688 0)
(-1.88276 -0.0623192 0)
(-2.22432 0.469636 0)
(-1.26323 -0.114578 0)
(-1.98748 0.0841147 0)
(-2.24157 0.0754925 0)
(-1.2093 0.136723 0)
(-3.10628 0.340797 0)
(-2.17161 0.282542 0)
(-2.95366 -0.312148 0)
(-2.85799 0.109624 0)
(-1.26293 0.440664 0)
(-1.65745 -0.215327 0)
(-1.87111 -0.342007 0)
(-1.21116 0.310222 0)
(-2.6641 0.0461103 0)
(-1.95848 -0.119358 0)
(-1.92486 0.287228 0)
(-2.25147 0.05851 0)
(-1.86097 0.34045 0)
(-2.05884 0.427366 0)
(-1.35932 -0.14879 0)
(-1.53221 -0.420311 0)
(-1.29661 -0.126405 0)
(-2.07756 0.386426 0)
(-1.87534 0.315932 0)
(-1.44916 -0.392688 0)
(-2.07904 -0.16308 0)
(-2.71087 0.0645947 0)
(-2.26758 0.0614167 0)
(-2.03426 0.276924 0)
(-1.1534 -0.099174 0)
(-2.15223 0.0695731 0)
(-1.09974 0.130352 0)
(-1.91947 0.0789131 0)
(-1.27923 -0.0843569 0)
(-1.41464 -0.351604 0)
(-1.91403 0.283051 0)
(-2.12984 0.341427 0)
(-1.25635 -0.349403 0)
(-2.00583 0.338198 0)
(-1.81705 0.294181 0)
(-1.13483 -0.110779 0)
(-2.20544 0.13084 0)
(-1.75429 -0.209119 0)
(-1.66314 0.153816 0)
(-2.55085 0.165638 0)
(-2.70738 -0.305447 0)
(-2.24567 0.451011 0)
(-3.05159 0.262869 0)
(-2.86684 0.0959192 0)
(-2.71224 -0.335295 0)
(-2.22624 0.384145 0)
(-3.01635 0.285654 0)
(-2.89268 0.0684237 0)
(-1.29096 -0.0659451 0)
(-2.00404 0.0396692 0)
(-2.26973 0.0143791 0)
(-1.25284 0.1841 0)
(-2.11788 -0.139268 0)
(-1.1758 0.291941 0)
(-1.18368 0.100873 0)
(-1.87956 -0.0775874 0)
(-1.77699 0.481416 0)
(-1.55274 -0.472993 0)
(-1.35596 -0.230316 0)
(-1.63349 0.383585 0)
(-1.6829 0.366859 0)
(-1.83692 0.440171 0)
(-1.40075 -0.451748 0)
(-1.23269 -0.213686 0)
(-1.38056 -0.060986 0)
(-2.05217 0.0337693 0)
(-1.34698 0.207154 0)
(-2.33827 0.0042211 0)
(-2.0978 -0.0317792 0)
(-1.08287 0.211097 0)
(-1.11571 0.0102027 0)
(-1.87052 -0.000165102 0)
(-1.20306 -0.162031 0)
(-1.97993 0.39867 0)
(-1.79765 0.33616 0)
(-1.34956 -0.409487 0)
(-2.24993 -0.373355 0)
(-2.00064 0.234624 0)
(-1.92001 -0.0583317 0)
(-2.22675 0.474106 0)
(-2.19086 0.0310082 0)
(-2.29508 0.393143 0)
(-2.14012 -0.00905655 0)
(-2.66629 -0.17401 0)
(-2.09316 -0.15552 0)
(-1.15625 0.300448 0)
(-1.16238 0.116531 0)
(-1.85996 -0.091219 0)
(-1.73856 0.487256 0)
(-1.34565 -0.238455 0)
(-1.54396 -0.477925 0)
(-1.60141 0.389763 0)
(-1.79034 -0.385439 0)
(-1.23753 0.334739 0)
(-1.58719 -0.242593 0)
(-1.30446 0.45752 0)
(-1.94429 0.229719 0)
(-2.17241 0.267449 0)
(-1.3369 -0.290519 0)
(-1.22908 -0.0262159 0)
(-1.505 -0.479648 0)
(-1.32085 -0.270471 0)
(-1.508 0.517755 0)
(-1.4001 0.41259 0)
(-1.7413 -0.172971 0)
(-1.07181 0.218152 0)
(-1.07814 0.336178 0)
(-1.94051 -0.254914 0)
(-2.47428 -0.182219 0)
(-2.30888 0.0186251 0)
(-2.78292 0.166105 0)
(-2.28545 0.341575 0)
(-3.03189 0.070624 0)
(-2.64775 0.702893 0)
(-2.98689 0.0714798 0)
(-2.41869 -0.299974 0)
(-2.55031 -0.18036 0)
(-2.29485 0.0158111 0)
(-2.3929 0.3851 0)
(-2.8229 0.135164 0)
(-3.03427 0.100611 0)
(-3.04092 0.104645 0)
(-2.57275 0.717055 0)
(-2.47667 -0.352478 0)
(-2.65599 0.0830382 0)
(-1.85005 0.255318 0)
(-2.24772 0.0750378 0)
(-1.90507 -0.148185 0)
(-2.99715 0.209483 0)
(-2.38619 0.509622 0)
(-2.53577 -0.297663 0)
(-2.91551 0.012491 0)
(-2.9337 0.228092 0)
(-2.3544 0.514446 0)
(-2.45738 -0.219614 0)
(-2.83055 -0.0186293 0)
(-1.05345 -0.0652284 0)
(-1.80874 0.247086 0)
(-1.14976 -0.291073 0)
(-2.00434 0.277132 0)
(-1.29748 -0.365727 0)
(-2.01864 0.358354 0)
(-1.82735 0.307319 0)
(-1.16713 -0.120842 0)
(-1.73409 -0.409676 0)
(-1.53611 -0.25304 0)
(-1.35168 0.47711 0)
(-1.27407 0.357231 0)
(-2.28129 0.0612153 0)
(-2.35468 -0.162876 0)
(-2.7882 0.0424895 0)
(-2.34158 0.332127 0)
(-1.30986 -0.144307 0)
(-2.05288 0.407859 0)
(-1.85625 0.331616 0)
(-1.47107 -0.410769 0)
(-2.865 0.315176 0)
(-2.77898 -0.0637251 0)
(-2.46597 -0.18409 0)
(-2.23072 0.372576 0)
(-2.40203 -0.066787 0)
(-2.83313 0.294147 0)
(-2.30239 0.354148 0)
(-2.70448 -0.139577 0)
(-2.27153 0.0661831 0)
(-2.38114 -0.196883 0)
(-2.80042 0.0657415 0)
(-2.34543 0.333195 0)
(-1.60526 0.47749 0)
(-1.83172 -0.189205 0)
(-1.51389 0.282916 0)
(-2.1119 -0.364058 0)
(-1.56637 0.316208 0)
(-2.03966 -0.407136 0)
(-1.67982 0.49683 0)
(-1.77022 -0.205685 0)
(-1.77199 -0.398651 0)
(-1.56855 -0.246889 0)
(-1.34195 0.474541 0)
(-1.2679 0.35082 0)
(-1.63459 -0.417634 0)
(-2.12329 0.428251 0)
(-1.91076 0.328305 0)
(-1.45084 -0.130046 0)
(-1.28083 -0.039935 0)
(-1.98962 0.0239775 0)
(-1.24768 0.201935 0)
(-2.25182 -0.00687855 0)
(-1.29114 -0.135865 0)
(-2.25606 0.0982534 0)
(-1.99939 0.100434 0)
(-1.23064 0.121585 0)
(-1.08538 -0.234985 0)
(-1.99531 0.216012 0)
(-1.0101 -0.0163966 0)
(-1.79803 0.196461 0)
(-1.08998 0.233494 0)
(-1.74155 -0.173284 0)
(-1.94914 -0.258832 0)
(-1.09852 0.364549 0)
(-2.33452 -0.0255382 0)
(-1.35641 0.230744 0)
(-1.38112 -0.0311773 0)
(-2.04639 0.0132475 0)
(-1.53683 -0.492498 0)
(-1.40447 0.409872 0)
(-1.34936 -0.282317 0)
(-1.51304 0.517243 0)
(-1.36341 -0.161132 0)
(-1.83167 0.345332 0)
(-1.53947 -0.428698 0)
(-2.02056 0.4344 0)
(-1.13924 0.228321 0)
(-1.74813 -0.1639 0)
(-1.15697 0.365806 0)
(-1.9603 -0.256009 0)
(-1.3913 -0.264369 0)
(-1.53816 0.501711 0)
(-1.42838 0.393336 0)
(-1.58204 -0.474247 0)
(-2.09026 0.443426 0)
(-1.65969 -0.427813 0)
(-1.46699 -0.143461 0)
(-1.88589 0.337477 0)
(-1.26746 0.435218 0)
(-1.68787 -0.205465 0)
(-1.90611 -0.33028 0)
(-1.21847 0.298507 0)
(-1.24387 0.326715 0)
(-1.84082 -0.36748 0)
(-1.30674 0.456514 0)
(-1.62932 -0.229003 0)
(-1.64814 0.482521 0)
(-1.83869 -0.185825 0)
(-1.54964 0.284408 0)
(-2.12298 -0.368777 0)
(-1.5808 0.30128 0)
(-1.69301 0.491638 0)
(-2.08676 -0.396242 0)
(-1.80743 -0.196997 0)
(-2.52883 -0.271636 0)
(-1.98982 0.122256 0)
(-2.10087 -0.0355915 0)
(-2.1554 0.464338 0)
(-1.13451 -0.178439 0)
(-1.72927 0.342669 0)
(-1.2739 -0.410445 0)
(-1.89237 0.398317 0)
(-1.07682 -0.0848372 0)
(-2.07019 0.0663489 0)
(-1.02593 0.126022 0)
(-1.8554 0.0750213 0)
(-1.74511 0.48687 0)
(-1.62658 0.285088 0)
(-1.83794 -0.182937 0)
(-2.13033 -0.387691 0)
(-1.19052 -0.100866 0)
(-2.16863 0.0718713 0)
(-1.13594 0.131586 0)
(-1.93212 0.0809941 0)
(-1.25834 -0.0880949 0)
(-1.98578 0.0636273 0)
(-2.24215 0.0489674 0)
(-1.21021 0.158222 0)
(-2.24299 0.0934056 0)
(-1.87444 -0.206608 0)
(-1.80196 0.193713 0)
(-2.63032 0.116158 0)
(-1.03993 -0.0504511 0)
(-2.00627 0.259999 0)
(-1.80836 0.232154 0)
(-1.12987 -0.273694 0)
(-2.74538 -0.155167 0)
(-2.25792 0.020641 0)
(-2.67783 0.437994 0)
(-2.84061 0.0569645 0)
(-2.87143 -0.186444 0)
(-2.8407 0.439015 0)
(-2.24097 0.055428 0)
(-2.86611 0.056435 0)
(-1.24562 -0.0859522 0)
(-1.90586 0.281188 0)
(-1.37602 -0.349669 0)
(-2.11939 0.335211 0)
(-1.79482 0.497125 0)
(-1.66752 0.293696 0)
(-1.83474 -0.178006 0)
(-2.12971 -0.392728 0)
(-1.32591 -0.30552 0)
(-1.92047 0.249449 0)
(-2.14114 0.292011 0)
(-1.21216 -0.0460822 0)
(-2.23668 0.0911706 0)
(-1.88087 -0.176794 0)
(-1.81075 0.214621 0)
(-2.62459 0.114817 0)
(-2.53083 -0.250088 0)
(-1.95355 0.103794 0)
(-2.10778 -0.0455296 0)
(-2.09148 0.440676 0)
(-1.86701 -0.445239 0)
(-1.63272 0.508641 0)
(-1.51728 0.359889 0)
(-1.63058 -0.237502 0)
(-1.1171 -0.0194357 0)
(-2.11116 -0.00564918 0)
(-1.88276 0.0200751 0)
(-1.07952 0.188326 0)
(-1.36913 0.269026 0)
(-1.81096 -0.186505 0)
(-1.43127 0.446606 0)
(-2.0678 -0.327737 0)
(-2.18771 -0.00841571 0)
(-2.16171 0.39081 0)
(-2.03494 0.0108384 0)
(-2.64431 -0.189541 0)
(-2.12199 -0.0570681 0)
(-1.14545 0.0224019 0)
(-1.11756 0.226999 0)
(-1.88793 -0.0186386 0)
(-1.84483 0.453763 0)
(-1.68964 0.373015 0)
(-1.44878 -0.453513 0)
(-1.27166 -0.212444 0)
(-1.87149 0.43351 0)
(-1.71184 0.363015 0)
(-1.37977 -0.442357 0)
(-1.21659 -0.202534 0)
(-1.25409 -0.239467 0)
(-1.74331 0.466056 0)
(-1.60476 0.384864 0)
(-1.43639 -0.473583 0)
(-1.09588 0.0747356 0)
(-2.06055 -0.0996493 0)
(-1.07532 0.259755 0)
(-1.83741 -0.0532965 0)
(-1.07612 -0.212207 0)
(-2.00356 0.198788 0)
(-1.00028 0.00854164 0)
(-1.80556 0.180411 0)
(-1.03705 -0.100342 0)
(-1.76449 0.271968 0)
(-1.94584 0.304282 0)
(-1.13917 -0.319282 0)
(-1.28095 -0.232832 0)
(-1.75364 0.467366 0)
(-1.46652 -0.468553 0)
(-1.61435 0.382643 0)
(-1.12215 0.0776183 0)
(-2.0736 -0.108543 0)
(-1.84752 -0.0587189 0)
(-1.10427 0.263839 0)
(-1.8426 0.335511 0)
(-1.87256 -0.439847 0)
(-1.63414 -0.159227 0)
(-2.03176 0.483498 0)
(-1.9004 0.327719 0)
(-1.86801 -0.436576 0)
(-2.10718 0.471449 0)
(-1.63559 -0.141201 0)
(-2.1667 -0.278749 0)
(-1.44593 0.415511 0)
(-1.89192 -0.15284 0)
(-1.39566 0.213918 0)
(-1.62552 -0.219874 0)
(-1.62216 0.36102 0)
(-1.75946 0.512157 0)
(-1.8679 -0.452707 0)
(-1.30043 -0.0703232 0)
(-1.93948 0.26958 0)
(-2.16349 0.327001 0)
(-1.4332 -0.343614 0)
(-1.84668 0.495959 0)
(-1.91781 -0.150322 0)
(-1.71801 0.262872 0)
(-2.24116 -0.362903 0)
(-1.89297 0.480872 0)
(-1.9553 -0.129074 0)
(-1.76041 0.23155 0)
(-2.29576 -0.345225 0)
(-1.6521 -0.234212 0)
(-1.43644 0.478393 0)
(-1.35445 0.335592 0)
(-1.87758 -0.398724 0)
(-1.51482 0.340107 0)
(-1.49368 0.0826221 0)
(-2.04175 -0.0643795 0)
(-2.35277 -0.151063 0)
(-1.29239 -0.186846 0)
(-1.9811 0.141988 0)
(-1.21657 0.0727324 0)
(-2.22811 0.152949 0)
(-2.2941 -0.289741 0)
(-2.27965 0.105017 0)
(-2.67161 0.280079 0)
(-2.06359 0.165837 0)
(-1.52761 0.322585 0)
(-2.07877 -0.0381157 0)
(-1.51822 0.0497433 0)
(-2.39869 -0.110696 0)
(-2.53918 0.46913 0)
(-2.85749 0.132845 0)
(-2.33919 -0.102724 0)
(-2.80284 -0.111025 0)
(-1.40323 -0.247942 0)
(-1.55334 0.394473 0)
(-1.60583 -0.48313 0)
(-1.68252 0.503808 0)
(-1.2001 -0.40063 0)
(-1.71401 0.348941 0)
(-1.06961 -0.174735 0)
(-1.86955 0.398766 0)
(-1.82642 0.0886143 0)
(-2.03464 0.0848817 0)
(-0.970217 0.0937089 0)
(-1.02083 -0.112715 0)
(-1.84027 -0.127441 0)
(-1.1857 0.168825 0)
(-1.19394 0.34159 0)
(-2.07414 -0.209337 0)
(-2.04922 -0.103848 0)
(-1.74663 0.417532 0)
(-2.40405 -0.249806 0)
(-1.66939 0.140032 0)
(-2.07669 -0.0841867 0)
(-1.73912 0.405732 0)
(-2.43626 -0.218469 0)
(-1.67185 0.117364 0)
(-1.50081 -0.476417 0)
(-1.30236 -0.26289 0)
(-1.54656 0.505408 0)
(-1.4353 0.409913 0)
(-2.51006 -0.202164 0)
(-1.85656 0.405224 0)
(-2.12337 -0.0625317 0)
(-1.77781 0.0871671 0)
(-1.0817 0.323747 0)
(-1.0713 0.189075 0)
(-1.75401 -0.155137 0)
(-1.95735 -0.23268 0)
(-2.22787 0.93244 0)
(-3.11754 -0.896501 0)
(-3.70707 0.0102379 0)
(-3.06593 0.44978 0)
(-2.15262 -0.26909 0)
(-1.3995 0.409341 0)
(-1.35678 0.212963 0)
(-1.88323 -0.150655 0)
(-1.95606 0.293162 0)
(-1.02937 -0.0822768 0)
(-1.1276 -0.299732 0)
(-1.77034 0.261868 0)
(-2.19719 0.229143 0)
(-2.72295 0.288995 0)
(-2.30882 0.0340669 0)
(-2.5055 -0.254579 0)
(-1.77776 0.385989 0)
(-2.49065 -0.187309 0)
(-2.11502 -0.0640256 0)
(-1.71757 0.0795103 0)
(-1.48261 0.491743 0)
(-1.64551 -0.239103 0)
(-1.39193 0.346895 0)
(-1.87442 -0.414786 0)
(-1.58988 -0.231697 0)
(-1.60616 0.369708 0)
(-1.74259 0.512364 0)
(-1.82318 -0.463985 0)
(-1.34124 -0.0784365 0)
(-2.0283 0.0516985 0)
(-1.3003 0.182083 0)
(-2.30197 0.0296199 0)
(-2.21688 0.58962 0)
(-3.01101 -0.439788 0)
(-3.35251 0.243604 0)
(-2.92884 0.262351 0)
(-1.83102 -0.45208 0)
(-1.64781 0.512465 0)
(-1.52833 0.368767 0)
(-1.59948 -0.238792 0)
(-1.34194 0.25233 0)
(-1.8202 -0.181278 0)
(-1.39747 0.429806 0)
(-2.07515 -0.313211 0)
(-1.52098 -0.0306126 0)
(-2.32243 0.337562 0)
(-1.67578 -0.352501 0)
(-2.05745 0.254773 0)
(-1.23527 -0.149052 0)
(-2.00175 0.391362 0)
(-1.81553 0.327301 0)
(-1.3839 -0.400862 0)
(-2.20665 0.109599 0)
(-2.80831 0.430437 0)
(-2.77561 -0.177674 0)
(-2.83146 0.0494069 0)
(-1.17982 0.307919 0)
(-1.85439 -0.33231 0)
(-1.22614 0.433859 0)
(-1.64569 -0.211747 0)
(-2.32633 0.359627 0)
(-1.55522 -0.0394905 0)
(-1.7239 -0.367032 0)
(-2.06005 0.265101 0)
(-1.31922 0.375824 0)
(-1.66862 -0.450183 0)
(-1.47635 -0.273884 0)
(-1.41075 0.490758 0)
(-1.33411 0.372789 0)
(-1.70125 -0.443293 0)
(-1.50286 -0.266393 0)
(-1.4259 0.492225 0)
(-2.29425 0.211895 0)
(-1.32246 0.0405597 0)
(-2.03272 0.182099 0)
(-1.41734 -0.246319 0)
(-3.30032 0.0615925 0)
(-3.03055 0.766897 0)
(-2.27404 -0.258554 0)
(-2.92687 -0.0151208 0)
(-1.78993 0.513552 0)
(-1.75602 -0.468191 0)
(-1.64447 0.381218 0)
(-1.53095 -0.224715 0)
(-2.22447 0.332764 0)
(-1.36931 -0.0548018 0)
(-1.50922 -0.34573 0)
(-1.98583 0.267823 0)
(-1.34911 0.0322441 0)
(-1.45248 -0.259052 0)
(-2.04208 0.193993 0)
(-2.30504 0.231488 0)
(-1.07665 -0.067128 0)
(-1.81544 0.252684 0)
(-2.01141 0.284795 0)
(-1.17683 -0.29525 0)
(-1.83383 0.507262 0)
(-1.76631 -0.465169 0)
(-1.5408 -0.21545 0)
(-1.68152 0.374378 0)
(-1.31998 0.165091 0)
(-1.34663 0.367795 0)
(-1.91209 -0.127885 0)
(-2.17808 -0.227864 0)
(-1.34348 0.147111 0)
(-1.36682 0.358804 0)
(-1.93554 -0.113621 0)
(-2.20853 -0.209581 0)
(-1.39716 0.0462534 0)
(-2.06447 0.188772 0)
(-1.50234 -0.254694 0)
(-2.33632 0.229309 0)
(-1.56991 -0.481389 0)
(-1.55767 0.394994 0)
(-1.36912 -0.245228 0)
(-1.68686 0.498355 0)
(-2.23386 0.336569 0)
(-1.54793 -0.353021 0)
(-1.40341 -0.0583686 0)
(-1.99323 0.267555 0)
(-1.27296 -0.161098 0)
(-1.97604 0.127064 0)
(-1.20289 0.0933279 0)
(-2.22245 0.132893 0)
(-1.83844 -0.118004 0)
(-1.16339 0.151113 0)
(-1.16528 0.3235 0)
(-2.0683 -0.192456 0)
(-1.98833 -0.335005 0)
(-3.80824 -0.0632406 0)
(-3.60586 0.748334 0)
(-2.77405 -0.169803 0)
(-1.41631 0.0708601 0)
(-1.51369 -0.236018 0)
(-2.0888 0.170988 0)
(-2.37168 0.204697 0)
(-2.21971 0.387291 0)
(-1.66164 -0.395444 0)
(-1.98249 0.293874 0)
(-1.48862 -0.0909071 0)
(-1.83006 -0.0979771 0)
(-2.17272 0.484767 0)
(-1.95441 0.280687 0)
(-2.12412 -0.407227 0)
(-3.13116 -0.0374208 0)
(-2.89778 0.630976 0)
(-2.28398 -0.166563 0)
(-2.90316 0.037042 0)
(-2.2811 0.094652 0)
(-2.55098 -0.151765 0)
(-2.84806 0.0135998 0)
(-2.6033 0.389556 0)
(-2.0357 0.279428 0)
(-1.81358 -0.392217 0)
(-2.29312 0.395848 0)
(-1.61898 -0.0616834 0)
(-1.3104 -0.106559 0)
(-2.11234 0.374209 0)
(-1.45992 -0.377644 0)
(-1.90245 0.305336 0)
(-2.20718 0.179481 0)
(-2.04449 -0.321358 0)
(-1.85278 0.0767404 0)
(-2.5451 0.308973 0)
(-1.12733 -0.251284 0)
(-1.82252 0.215659 0)
(-1.04098 -0.0271963 0)
(-2.0249 0.240604 0)
(-1.20095 -0.383641 0)
(-1.73196 0.341726 0)
(-1.89528 0.391854 0)
(-1.07284 -0.158084 0)
(-2.19614 0.183311 0)
(-2.08648 -0.33744 0)
(-2.53555 0.329374 0)
(-1.87665 0.0695474 0)
(-1.14184 -0.240589 0)
(-2.04306 0.225773 0)
(-1.83829 0.202937 0)
(-1.05741 -0.0125874 0)
(-1.83246 0.10246 0)
(-0.983212 0.0784865 0)
(-2.04073 0.101999 0)
(-1.03839 -0.134996 0)
(-2.22223 0.379717 0)
(-1.4614 -0.0770088 0)
(-1.62773 -0.377512 0)
(-1.98508 0.291635 0)
(-2.61104 0.36064 0)
(-2.79753 -0.0887155 0)
(-2.23486 0.148166 0)
(-2.40893 -0.13717 0)
(-2.01833 0.290833 0)
(-1.76752 -0.396907 0)
(-1.57781 -0.0738153 0)
(-2.26842 0.401741 0)
(-2.16051 0.376718 0)
(-2.25072 0.0353484 0)
(-2.11893 -0.0699522 0)
(-2.73217 -0.0455121 0)
(-2.17692 0.526911 0)
(-2.66926 -0.321811 0)
(-3.07454 0.299988 0)
(-2.83665 0.106931 0)
(-2.7307 0.255966 0)
(-2.18054 0.261727 0)
(-2.45069 -0.231547 0)
(-2.30493 0.0351381 0)
(-2.32107 0.357928 0)
(-2.33428 0.000861595 0)
(-2.8073 0.199049 0)
(-2.55993 -0.176585 0)
(-2.09369 -0.0903262 0)
(-2.11079 0.34675 0)
(-2.71583 -0.0146477 0)
(-2.25282 0.0421946 0)
(-1.11525 -0.148171 0)
(-1.7687 0.328181 0)
(-1.24546 -0.381594 0)
(-1.94336 0.377949 0)
(-1.13603 -0.161106 0)
(-1.94078 0.387819 0)
(-1.76714 0.333879 0)
(-1.27185 -0.39794 0)
(-3.22148 -0.774009 0)
(-2.10421 0.961002 0)
(-3.70101 0.0513969 0)
(-2.93434 0.522528 0)
(-1.89832 0.320653 0)
(-2.10693 0.407551 0)
(-1.39811 -0.129033 0)
(-1.56889 -0.409567 0)
(-2.37318 0.307078 0)
(-2.09394 0.232304 0)
(-1.67667 -0.328736 0)
(-1.53291 -0.0015499 0)
(-1.13279 0.334014 0)
(-1.12647 0.181888 0)
(-1.79027 -0.142214 0)
(-2.006 -0.221602 0)
(-2.00127 -0.243069 0)
(-1.15854 0.355249 0)
(-1.78275 -0.154943 0)
(-1.14481 0.206098 0)
(-1.60014 0.501569 0)
(-1.54967 -0.481398 0)
(-1.48418 0.399774 0)
(-1.35037 -0.252541 0)
(-3.75357 0.179522 0)
(-2.01301 -0.394281 0)
(-3.49262 1.01172 0)
(-2.79877 -0.170859 0)
(-1.23982 -0.359853 0)
(-1.97935 0.355312 0)
(-1.79597 0.309984 0)
(-1.11583 -0.124942 0)
(-1.58387 0.509166 0)
(-1.46906 0.400462 0)
(-1.38624 -0.259008 0)
(-1.58268 -0.482267 0)
(-1.96274 0.231357 0)
(-0.995832 -0.0354375 0)
(-1.0767 -0.245322 0)
(-1.76795 0.20834 0)
(-1.58229 0.50004 0)
(-1.51872 -0.480049 0)
(-1.46936 0.403075 0)
(-1.31714 -0.252712 0)
(-1.1015 0.320878 0)
(-1.77767 -0.144615 0)
(-1.09828 0.175494 0)
(-1.98686 -0.219805 0)
(-1.28004 0.327337 0)
(-1.86438 -0.376325 0)
(-1.34831 0.463352 0)
(-1.64682 -0.229967 0)
(-2.25746 0.0594093 0)
(-2.361 -0.114986 0)
(-2.79649 0.00555963 0)
(-2.38164 0.400648 0)
(-1.58741 0.0810887 0)
(-2.46573 0.224001 0)
(-1.69961 -0.262109 0)
(-2.15458 0.171461 0)
(-2.26545 0.104437 0)
(-1.99033 -0.219975 0)
(-2.6598 0.159438 0)
(-1.8875 0.197186 0)
(-1.99969 -0.0546882 0)
(-1.9764 0.195367 0)
(-2.36982 -0.341567 0)
(-2.17995 0.474488 0)
(-2.07047 -0.208237 0)
(-2.27822 0.0850366 0)
(-2.6924 0.135759 0)
(-1.97381 0.226035 0)
(-2.12788 -0.195298 0)
(-2.28287 0.0727485 0)
(-2.72251 0.0927691 0)
(-2.06611 0.252519 0)
(-1.92552 0.0664806 0)
(-2.15867 -0.346864 0)
(-2.54783 0.334372 0)
(-2.20319 0.165762 0)
(-1.78531 0.491908 0)
(-1.6396 0.385741 0)
(-1.60265 -0.480312 0)
(-1.39984 -0.234351 0)
(-2.24559 -0.263938 0)
(-1.52662 0.412381 0)
(-1.47127 0.187974 0)
(-1.94838 -0.134941 0)
(-2.05036 -0.0394106 0)
(-2.01132 0.15862 0)
(-2.44942 -0.314462 0)
(-2.2081 0.467694 0)
(-1.8554 0.509893 0)
(-1.7028 0.346685 0)
(-1.67413 -0.199604 0)
(-1.92996 -0.447128 0)
(-1.97702 -0.137476 0)
(-1.73696 0.456985 0)
(-2.30856 -0.310406 0)
(-1.64272 0.209398 0)
(-2.14113 -0.159148 0)
(-1.21488 0.119595 0)
(-1.21349 0.31514 0)
(-1.89461 -0.0894326 0)
(-2.47815 0.255207 0)
(-1.62382 0.0644668 0)
(-1.754 -0.286967 0)
(-2.16441 0.187689 0)
(-2.36699 0.28857 0)
(-1.62758 -0.31618 0)
(-2.08845 0.224003 0)
(-1.49511 0.00710155 0)
(-1.47771 0.156761 0)
(-1.52435 0.396839 0)
(-1.98972 -0.116584 0)
(-2.29692 -0.234621 0)
(-1.73874 0.288206 0)
(-1.02646 -0.113909 0)
(-1.91291 0.323936 0)
(-1.13231 -0.327664 0)
(-1.04861 -0.19847 0)
(-0.975895 0.0287499 0)
(-1.98669 0.17508 0)
(-1.79043 0.162792 0)
(-1.91894 -0.454683 0)
(-1.75083 0.351454 0)
(-1.66357 -0.193671 0)
(-1.91748 0.51372 0)
(-1.73387 0.46759 0)
(-1.94232 -0.151064 0)
(-2.26284 -0.333343 0)
(-1.63252 0.232636 0)
(-1.35794 -0.00986859 0)
(-2.27628 0.285926 0)
(-1.48046 -0.304005 0)
(-2.02249 0.233763 0)
(-1.9647 0.234611 0)
(-2.19862 0.278432 0)
(-1.38664 -0.295406 0)
(-1.27278 -0.0241493 0)
(-2.28074 0.0945032 0)
(-2.01698 0.0968843 0)
(-1.33147 -0.135207 0)
(-1.2726 0.128464 0)
(-1.6943 0.340255 0)
(-1.96741 -0.446874 0)
(-1.84533 0.511401 0)
(-1.70423 -0.201654 0)
(-1.28178 0.238868 0)
(-1.32298 0.408218 0)
(-2.05547 -0.286038 0)
(-1.81152 -0.169698 0)
(-1.48655 0.393526 0)
(-1.20945 -0.244281 0)
(-1.59859 0.46879 0)
(-1.39908 -0.470392 0)
(-2.71637 0.338171 0)
(-2.33501 -0.0168102 0)
(-2.17783 0.255725 0)
(-2.59802 -0.193063 0)
(-1.53624 -0.246088 0)
(-1.63399 0.508362 0)
(-1.75403 -0.463034 0)
(-1.51382 0.377719 0)
(-2.18643 0.216366 0)
(-2.70963 -0.146732 0)
(-2.67677 0.366473 0)
(-2.36475 -0.0794669 0)
(-2.65979 0.330328 0)
(-2.12427 0.18376 0)
(-2.28256 0.0694321 0)
(-2.44597 -0.269336 0)
(-1.95187 -0.148281 0)
(-1.0306 0.117305 0)
(-1.75229 -0.0956568 0)
(-1.01723 0.270072 0)
(-2.4933 0.317887 0)
(-2.29612 0.0377872 0)
(-2.56615 -0.23485 0)
(-2.84261 0.076482 0)
(-2.74382 0.365951 0)
(-2.2177 0.264262 0)
(-2.38065 -0.0806553 0)
(-2.72537 -0.149628 0)
(-2.18135 0.230787 0)
(-2.65991 0.385046 0)
(-2.72654 -0.123958 0)
(-2.35617 -0.0836893 0)
(-2.10367 0.247694 0)
(-1.91611 -0.379503 0)
(-2.38977 0.378207 0)
(-1.71235 -0.0237882 0)
(-1.61448 0.376489 0)
(-1.21297 -0.233618 0)
(-1.75425 0.449803 0)
(-1.38441 -0.463077 0)
(-1.04526 0.233652 0)
(-1.82554 -0.0281041 0)
(-2.04375 -0.0654026 0)
(-1.07241 0.0472478 0)
(-2.28911 0.0932198 0)
(-2.22896 -0.214797 0)
(-2.72745 0.183279 0)
(-2.0918 0.264874 0)
(-1.99471 -0.326697 0)
(-1.34155 0.431724 0)
(-1.75832 -0.196357 0)
(-1.28825 0.274944 0)
(-1.55754 0.506025 0)
(-1.56217 -0.247069 0)
(-1.451 0.372131 0)
(-1.78086 -0.445261 0)
(-2.30923 0.0726077 0)
(-2.33272 -0.225009 0)
(-2.15154 0.263824 0)
(-2.75016 0.206277 0)
(-1.43845 0.0895059 0)
(-2.02818 -0.068255 0)
(-1.45421 0.339092 0)
(-2.33059 -0.151488 0)
(-2.01182 -0.115598 0)
(-1.66608 0.413867 0)
(-2.3431 -0.258473 0)
(-1.59586 0.158154 0)
(-1.81468 0.352949 0)
(-1.99865 0.492654 0)
(-1.59121 -0.181388 0)
(-1.82218 -0.457462 0)
(-2.03452 -0.311559 0)
(-1.34879 0.420691 0)
(-1.29823 0.255564 0)
(-1.79154 -0.18472 0)
(-1.56283 -0.243895 0)
(-1.78455 -0.451269 0)
(-1.49044 0.375405 0)
(-1.60354 0.511183 0)
(-1.90519 0.43336 0)
(-2.07531 -0.0786247 0)
(-1.80438 0.131079 0)
(-2.46057 -0.25092 0)
(-1.72881 0.49908 0)
(-1.42163 -0.24098 0)
(-1.59245 0.388339 0)
(-1.62644 -0.479725 0)
(-1.14384 -0.0369386 0)
(-1.90943 0.0346087 0)
(-2.1441 0.0127464 0)
(-1.10283 0.180552 0)
(-2.35328 0.0776215 0)
(-2.06765 0.0852534 0)
(-1.35349 0.153387 0)
(-1.40851 -0.128004 0)
(-1.98 -0.127139 0)
(-1.66205 0.430367 0)
(-1.58719 0.186666 0)
(-2.30224 -0.276383 0)
(-1.72995 0.504194 0)
(-1.46119 -0.238816 0)
(-1.59346 0.386461 0)
(-1.67178 -0.477009 0)
(-1.24395 -0.314256 0)
(-1.13383 -0.0720056 0)
(-2.05755 0.300138 0)
(-1.85466 0.262504 0)
(-1.57918 0.328562 0)
(-1.74197 -0.208827 0)
(-2.00827 -0.415689 0)
(-1.6966 0.504314 0)
(-1.12314 -0.0867719 0)
(-1.23841 -0.324276 0)
(-2.02589 0.322716 0)
(-1.83068 0.281268 0)
(-1.22207 0.337179 0)
(-1.86571 -0.115197 0)
(-1.21492 0.154418 0)
(-2.1077 -0.195448 0)
(-2.13603 0.227213 0)
(-1.94699 -0.358936 0)
(-1.74705 0.00943863 0)
(-2.43609 0.355397 0)
(-2.24469 -0.277201 0)
(-1.5522 0.435983 0)
(-1.4906 0.2096 0)
(-1.94136 -0.139889 0)
(-1.44929 -0.163151 0)
(-1.64298 -0.436489 0)
(-2.03051 0.451232 0)
(-1.83983 0.346182 0)
(-1.5694 0.470185 0)
(-1.85027 -0.17983 0)
(-1.48768 0.27248 0)
(-2.13139 -0.342715 0)
(-1.64477 0.379284 0)
(-1.79025 0.451824 0)
(-1.20524 -0.224217 0)
(-1.37398 -0.455192 0)
(-1.93765 -0.447215 0)
(-1.78522 0.339524 0)
(-1.67993 -0.179731 0)
(-1.95909 0.504341 0)
(-1.55445 0.384197 0)
(-2.01096 -0.100809 0)
(-1.51003 0.135899 0)
(-2.3264 -0.215833 0)
(-1.26177 0.354076 0)
(-1.87078 -0.125234 0)
(-1.24613 0.169015 0)
(-2.11825 -0.214349 0)
(-1.91827 0.42693 0)
(-1.39353 -0.438863 0)
(-1.23209 -0.193061 0)
(-1.74882 0.355802 0)
(-1.84315 -0.0147584 0)
(-2.0637 -0.0490783 0)
(-1.04676 0.214136 0)
(-1.07684 0.0210041 0)
(-2.29227 -0.0493257 0)
(-1.32612 0.244659 0)
(-1.34531 -0.00321837 0)
(-2.01507 -0.00430322 0)
(-2.55588 -0.22896 0)
(-2.26223 0.051861 0)
(-2.13335 0.163092 0)
(-2.582 0.398104 0)
(-2.6373 -0.166187 0)
(-2.20038 0.264468 0)
(-2.32929 -0.0109388 0)
(-2.69027 0.361584 0)
(-2.32694 -0.102296 0)
(-1.39906 0.0354858 0)
(-1.3977 0.288307 0)
(-2.03446 -0.0387206 0)
(-1.24857 -0.276051 0)
(-2.11278 0.254878 0)
(-1.14954 -0.0280149 0)
(-1.89587 0.224166 0)
(-1.39234 0.387726 0)
(-1.44568 -0.273157 0)
(-1.64001 -0.470147 0)
(-1.49661 0.502562 0)
(-1.32039 -0.350252 0)
(-1.84996 0.29384 0)
(-2.04657 0.344274 0)
(-1.1918 -0.10219 0)
(-2.28802 0.0813932 0)
(-2.72818 0.166251 0)
(-2.22156 -0.203029 0)
(-2.09218 0.266956 0)
(-2.48699 -0.192591 0)
(-2.36997 0.351829 0)
(-2.28897 0.0411078 0)
(-2.80831 0.120688 0)
(-1.36768 -0.367043 0)
(-2.06367 0.360279 0)
(-1.23039 -0.111497 0)
(-1.86328 0.302986 0)
(-1.19134 0.393411 0)
(-1.7498 -0.170827 0)
(-1.16489 0.250702 0)
(-1.96946 -0.270943 0)
(-1.71664 -0.184969 0)
(-1.20226 0.404545 0)
(-1.9323 -0.292213 0)
(-1.169 0.268086 0)
(-1.42774 0.391086 0)
(-1.62761 -0.481259 0)
(-1.53878 0.504539 0)
(-1.43213 -0.273113 0)
(-1.33381 0.00443388 0)
(-2.2704 0.26292 0)
(-1.44691 -0.28386 0)
(-2.0177 0.21828 0)
(-1.70087 0.360151 0)
(-1.85799 0.425044 0)
(-1.17582 -0.202489 0)
(-1.33062 -0.435677 0)
(-2.46612 0.438364 0)
(-2.8001 -0.141705 0)
(-2.3529 -0.125095 0)
(-2.86787 0.177875 0)
(-1.7336 0.34518 0)
(-1.16417 -0.19006 0)
(-1.89837 0.404839 0)
(-1.31063 -0.427355 0)
(-1.84789 -0.397607 0)
(-1.31409 0.341429 0)
(-1.62921 -0.239533 0)
(-1.392 0.477775 0)
(-1.81757 0.48434 0)
(-1.66712 0.378193 0)
(-1.61435 -0.471352 0)
(-1.41248 -0.22306 0)
(-1.78002 -0.37689 0)
(-1.20473 0.334509 0)
(-1.26607 0.454084 0)
(-1.57963 -0.241663 0)
(-2.08209 0.0134602 0)
(-1.04431 0.170606 0)
(-1.86176 0.0342985 0)
(-1.08556 -0.0346519 0)
(-1.04616 0.148822 0)
(-2.0937 0.0511676 0)
(-1.09486 -0.0634593 0)
(-1.87261 0.0637349 0)
(-2.16056 -0.146067 0)
(-1.90975 -0.078331 0)
(-1.23927 0.104847 0)
(-1.23639 0.305751 0)
(-1.70962 -0.417454 0)
(-1.51562 -0.261826 0)
(-1.33474 0.480448 0)
(-1.25755 0.3637 0)
(-1.86409 0.108425 0)
(-1.09175 -0.135508 0)
(-1.03063 0.0853078 0)
(-2.07975 0.108767 0)
(-1.09588 -0.112888 0)
(-2.0939 0.0851396 0)
(-1.0403 0.106707 0)
(-1.87446 0.089625 0)
(-2.36125 0.108213 0)
(-2.07541 0.105589 0)
(-1.3641 0.137161 0)
(-1.42886 -0.151619 0)
(-1.73931 -0.44499 0)
(-1.52519 -0.166867 0)
(-2.03063 0.4788 0)
(-1.84 0.354631 0)
(-2.1157 0.18895 0)
(-1.9636 0.0199603 0)
(-2.29131 -0.341979 0)
(-2.39083 0.433643 0)
(-1.39601 0.314289 0)
(-1.96427 -0.384271 0)
(-1.4778 0.473248 0)
(-1.72189 -0.219418 0)
(-1.6776 0.361952 0)
(-1.82992 0.424959 0)
(-1.30983 -0.441459 0)
(-1.15809 -0.211689 0)
(-1.84297 0.0321902 0)
(-2.059 0.0115574 0)
(-1.06035 -0.0246889 0)
(-1.01989 0.174432 0)
(-2.15271 0.182399 0)
(-2.45409 0.42164 0)
(-1.97168 0.0436453 0)
(-2.28915 -0.34213 0)
(-1.39984 0.301853 0)
(-2.01064 -0.369421 0)
(-1.47798 0.469741 0)
(-1.7595 -0.209277 0)
(-1.78376 -0.435861 0)
(-1.57086 -0.255495 0)
(-1.46907 0.495551 0)
(-1.37509 0.36468 0)
(-2.54558 -0.171012 0)
(-1.89777 0.39652 0)
(-2.1484 -0.038592 0)
(-1.82366 0.0628928 0)
(-2.17791 0.415455 0)
(-1.67386 -0.405907 0)
(-1.9523 0.312854 0)
(-1.48893 -0.10747 0)
(-2.618 0.356816 0)
(-2.76291 -0.0971814 0)
(-2.20528 0.163123 0)
(-2.39424 -0.127676 0)
(-2.10788 0.206656 0)
(-1.18889 -0.228111 0)
(-1.10433 0.0120679 0)
(-1.88999 0.186633 0)
(-1.40079 0.061201 0)
(-2.31202 -0.119139 0)
(-1.40332 0.306867 0)
(-2.01988 -0.0508359 0)
(-1.13289 0.0690817 0)
(-1.92362 0.13889 0)
(-1.2044 -0.171929 0)
(-2.15338 0.147073 0)
(-1.75587 -0.451797 0)
(-1.53949 -0.176096 0)
(-2.00177 0.478586 0)
(-1.8169 0.35292 0)
(-1.16001 0.0917171 0)
(-1.94525 0.120285 0)
(-1.22715 -0.151825 0)
(-2.18207 0.12386 0)
(-2.08273 -0.0244919 0)
(-1.50017 0.295651 0)
(-1.50031 0.020975 0)
(-2.39778 -0.0868041 0)
(-2.12401 0.464071 0)
(-1.6043 -0.131412 0)
(-1.913 0.328682 0)
(-1.82705 -0.429263 0)
(-1.38879 -0.385003 0)
(-1.2454 -0.127974 0)
(-2.04659 0.370592 0)
(-1.85062 0.310108 0)
(-1.98693 0.118003 0)
(-2.5984 0.324057 0)
(-2.23891 -0.310687 0)
(-2.23924 0.134884 0)
(-2.5716 -0.230627 0)
(-2.13164 0.125993 0)
(-2.51061 0.409648 0)
(-2.22527 0.0515236 0)
(-2.18319 0.0944164 0)
(-1.15983 0.115161 0)
(-1.21965 -0.124259 0)
(-1.94493 0.0986367 0)
(-2.57939 0.34802 0)
(-2.0666 0.101197 0)
(-2.36577 -0.325916 0)
(-2.22745 0.113146 0)
(-1.20599 -0.244868 0)
(-1.64201 0.468814 0)
(-1.52206 0.39254 0)
(-1.38788 -0.469178 0)
(-1.07593 -0.104615 0)
(-1.96949 0.324187 0)
(-1.18702 -0.330685 0)
(-1.78543 0.286009 0)
(-1.08575 -0.119884 0)
(-1.96698 0.341234 0)
(-1.78492 0.300208 0)
(-1.20278 -0.349583 0)
(-2.04578 0.180461 0)
(-1.10589 -0.2036 0)
(-1.0304 0.0254149 0)
(-1.83934 0.166456 0)
(-2.06076 0.160193 0)
(-1.02873 0.0426939 0)
(-1.85047 0.149829 0)
(-1.09922 -0.185273 0)
(-1.11569 -0.191989 0)
(-1.7201 0.352979 0)
(-1.25493 -0.42344 0)
(-1.88157 0.408826 0)
(-2.05509 -0.292378 0)
(-2.23713 0.167085 0)
(-2.5922 0.289341 0)
(-1.87305 0.118399 0)
(-1.97714 -0.126913 0)
(-1.03365 0.0956809 0)
(-1.77231 -0.078177 0)
(-1.01891 0.259897 0)
(-1.00005 0.129368 0)
(-2.06891 0.063868 0)
(-1.04967 -0.0807223 0)
(-1.85486 0.0727618 0)
(-1.49051 0.496509 0)
(-1.60525 -0.242685 0)
(-1.39673 0.358154 0)
(-1.82711 -0.422996 0)
(-1.97153 0.449584 0)
(-2.0685 -0.0799649 0)
(-1.84515 0.144709 0)
(-2.461 -0.279374 0)
(-2.23754 0.0363495 0)
(-2.19651 -0.0875693 0)
(-2.33089 0.344468 0)
(-2.73936 -0.14087 0)
(-1.8261 0.0546946 0)
(-2.03634 0.0397756 0)
(-1.02839 -0.0364203 0)
(-0.98233 0.161198 0)
(-1.82387 0.410733 0)
(-1.11705 -0.215964 0)
(-1.25924 -0.443238 0)
(-1.6715 0.354459 0)
(-2.61404 -0.219045 0)
(-2.1465 0.129446 0)
(-2.52249 0.402951 0)
(-2.23923 0.0171989 0)
(-2.68235 0.256016 0)
(-2.2624 -0.264457 0)
(-2.2778 0.0996548 0)
(-2.05462 0.195014 0)
(-2.19819 0.377575 0)
(-1.96825 0.295255 0)
(-1.58199 -0.374713 0)
(-1.42069 -0.0829452 0)
(-1.38607 0.458162 0)
(-1.70647 -0.217777 0)
(-1.31804 0.30852 0)
(-1.93798 -0.365194 0)
(-2.0782 0.255495 0)
(-1.11072 -0.0339684 0)
(-1.20725 -0.27366 0)
(-1.86767 0.226927 0)
(-2.10048 0.180733 0)
(-1.08198 0.0235667 0)
(-1.15883 -0.214343 0)
(-1.8833 0.166202 0)
(-1.43096 0.472258 0)
(-1.69591 -0.224036 0)
(-1.35383 0.321378 0)
(-1.92997 -0.382265 0)
(-1.74341 -0.198428 0)
(-1.30749 0.429639 0)
(-1.97451 -0.324912 0)
(-1.25781 0.278089 0)
(-2.23958 0.113042 0)
(-2.81793 -0.0234119 0)
(-2.49595 -0.153253 0)
(-2.60398 0.384914 0)
(-2.04452 0.497159 0)
(-1.82699 -0.130749 0)
(-1.85975 0.290807 0)
(-2.12621 -0.407704 0)
(-2.08489 0.500951 0)
(-1.80723 -0.126541 0)
(-1.88836 0.297095 0)
(-2.10398 -0.414796 0)
(-1.79507 0.323551 0)
(-1.17032 -0.148014 0)
(-1.97594 0.378571 0)
(-1.3073 -0.389896 0)
(-1.65526 -0.0894857 0)