/*--------------------------------*- C++ -*----------------------------------*\
| =========                 |                                                 |
| \\      /  F ield         | foam-extend: Open Source CFD                    |
|  \\    /   O peration     | Version:  3.0                                   |
|   \\  /    A nd           | Web:         http://www.extend-project.de       |
|    \\/     M anipulation  |                                                 |
\*---------------------------------------------------------------------------*/
FoamFile
{
    version     2.0;
    format      ascii;
    class       volScalarField;
    location    "43";
    object      p;
}
// * * * * * * * * * * * * * * * * * * * * * * * * * * * * * * * * * * * * * //

dimensions      [0 0 0 0 0 0 0];

internalField   nonuniform List<scalar> 
672
(
-0.2338194698
-0.1984984422
-0.1874358931
-0.1689007754
-0.1664553698
-0.1558203598
-0.1569989686
-0.1505556576
-0.1523929786
-0.1478028221
-0.1476543199
-0.1426518493
-0.2308926512
-0.1960130076
-0.185087915
-0.1667841928
-0.1643682101
-0.1538660799
-0.1550286441
-0.1486658069
-0.1504792452
-0.1459452557
-0.145798944
-0.1408533978
-0.2250319801
-0.1910383049
-0.1803911988
-0.1625526515
-0.1601986047
-0.1499631419
-0.1510965234
-0.1448950466
-0.1466617128
-0.1422431615
-0.1420978439
-0.137280359
-0.2163727283
-0.1836865239
-0.1734480997
-0.1562958189
-0.1540312918
-0.1441899569
-0.1452786544
-0.1393161303
-0.1410141785
-0.1367648259
-0.1366255404
-0.1319887224
-0.2049613144
-0.1739998627
-0.1643020542
-0.1480555295
-0.145910885
-0.1365895798
-0.1376208709
-0.1319737532
-0.1335811052
-0.1295568323
-0.1294219668
-0.1250303231
-0.1910044797
-0.162150754
-0.1531124455
-0.1379722535
-0.1359727767
-0.1272866699
-0.1282467402
-0.1229848049
-0.1244816359
-0.1207311799
-0.1206046569
-0.116508281
-0.174613367
-0.1482368753
-0.1399747478
-0.1261354989
-0.1243078975
-0.1163690101
-0.117246601
-0.1124380008
-0.1138055773
-0.1103780848
-0.1102606633
-0.1065147282
-0.1560593895
-0.1324849384
-0.1251000193
-0.1127313166
-0.1110972444
-0.1040023285
-0.1047856795
-0.1004887478
-0.1017091963
-0.09864618023
-0.09853840154
-0.0951876169
-0.1355093138
-0.1150405133
-0.1086284224
-0.09789059251
-0.09647169785
-0.09031360206
-0.09099340008
-0.08726484314
-0.0883237499
-0.08566524716
-0.08557056087
-0.08265747848
-0.1132890537
-0.09617587466
-0.09081466294
-0.081837502
-0.08065084127
-0.07550270473
-0.0760702576
-0.07295356339
-0.07383693423
-0.07161475388
-0.07153198085
-0.069095526
-0.08960936126
-0.07607463319
-0.07183414201
-0.06473592884
-0.06379686702
-0.05972802266
-0.06017584041
-0.05771398056
-0.05841091171
-0.05665459651
-0.05658709968
-0.05465305753
-0.06483747071
-0.05504349815
-0.05197476356
-0.0468387971
-0.04615896871
-0.04321512131
-0.0435383689
-0.04175749324
-0.04225962069
-0.04098920104
-0.04093601258
-0.03953644892
-0.03921458916
-0.03329250728
-0.03143627745
-0.02833298678
-0.02792086303
-0.02614434529
-0.02633788708
-0.02526499535
-0.02556554455
-0.02479865676
-0.02476273682
-0.02390625503
-0.0131336894
-0.01114978587
-0.01052729648
-0.009489291443
-0.009350209984
-0.00875722309
-0.008819769863
-0.008462838021
-0.008558438825
-0.008302591838
-0.008281723326
-0.007989228901
0.0131483349
0.01116099382
0.01053986986
0.009493501115
0.009358010224
0.008754458191
0.00882471219
0.008456501184
0.008566817096
0.00830706546
0.008308625518
0.00804296284
0.03922987929
0.03330450947
0.03144965951
0.02833855979
0.02793006793
0.02614375065
0.02634504365
0.02526171163
0.02557701107
0.02480675456
0.02479328743
0.02396337421
0.06485378729
0.05505686537
0.05198953883
0.04684688433
0.0461706302
0.04321861995
0.04354917204
0.0417598975
0.04227547443
0.04100318903
0.04097017819
0.03959465981
0.08962741553
0.076090158
0.07185109564
0.06474773311
0.06381228266
0.05973742589
0.06019238993
0.05772459704
0.05843431779
0.05667779275
0.05662920544
0.05471734379
0.1133088205
0.09619371459
0.09083400115
0.08185365703
0.08067061974
0.07551923365
0.07609356746
0.0729741503
0.07386909029
0.07164882329
0.07158271121
0.06916528607
0.1355313847
0.1150612623
0.1086506586
0.09791182424
0.09649648094
0.09033820598
0.0910241503
0.08729652135
0.08836497794
0.08571087476
0.08562910714
0.08273066209
0.156083227
0.1325082079
0.1251248472
0.1127575292
0.111127021
0.1040351957
0.1048243695
0.1005320095
0.101760932
0.09870453795
0.09860766749
0.09526819355
0.1746393459
0.1482629507
0.1400023291
0.1261667852
0.1243426269
0.1164100455
0.1172927517
0.1124924723
0.1138663853
0.1104479288
0.1103374856
0.106598112
0.1910315098
0.1621786578
0.1531418414
0.1380076983
0.1360114371
0.1273348322
0.1282991724
0.1230492058
0.1245502604
0.1208110937
0.1206879731
0.1165935935
0.2049895387
0.1740295469
0.1643331405
0.1480945746
0.1459530322
0.1366437643
0.1376788766
0.1320464824
0.1336568141
0.1296453095
0.1295115783
0.1251187052
0.2164005957
0.1837165179
0.1734793443
0.15633683
0.154074913
0.1442479847
0.1453392808
0.1393941654
0.1410925684
0.1368575101
0.1367151987
0.1320723152
0.2250594151
0.1910682635
0.1804222684
0.162594514
0.160242873
0.1500230604
0.1511585391
0.1449756778
0.1467415541
0.1423375334
0.1421871399
0.137360918
0.2309178587
0.196041175
0.1851169221
0.1668248526
0.1644106701
0.1539250664
0.1550886886
0.1487451956
0.1505561262
0.1460365355
0.1458827239
0.1409252034
0.233842119
0.1985241837
0.1874624024
0.1689387373
0.1664948411
0.1558759012
0.1570548838
0.150630254
0.1524636638
0.1478868529
0.1477284787
0.1427117727
0.2338550335
0.1985342612
0.1874706448
0.16894531
0.1664998237
0.1558800273
0.1570575504
0.1506323094
0.1524649424
0.1478864985
0.147728918
0.1427062555
0.2308970556
0.196023229
0.1851003017
0.1668088392
0.1643951255
0.1539084365
0.1550718509
0.148726252
0.1505358466
0.1460146798
0.1458576161
0.1409031158
0.225064807
0.1910707347
0.1804224616
0.1625918636
0.160237618
0.1500148775
0.151147257
0.1449610356
0.1467237272
0.1423151214
0.1421622458
0.1373277483
0.2163720174
0.1836909466
0.1734545505
0.1563118582
0.1540492077
0.1442197095
0.1453090684
0.1393596839
0.1410547836
0.1368152873
0.1366678801
0.132024517
0.2049882016
0.1740251409
0.1643261112
0.1480835858
0.1459386135
0.1366244936
0.1376551101
0.1320168902
0.13362186
0.129603348
0.1294639854
0.1250617833
0.1909957581
0.1621461844
0.1531096008
0.137974854
0.1359766285
0.1272966059
0.1282571687
0.1230016652
0.1244972323
0.1207515532
0.1206213206
0.1165220645
0.1746323975
0.1482527622
0.1399892882
0.1261488468
0.1243206871
0.1163816467
0.1172588732
0.1124507322
0.1138177005
0.1103903802
0.1102718617
0.1065233637
0.1560413558
0.1324699611
0.1250863522
0.1127183409
0.1110847592
0.1039892523
0.1047729646
0.1004745893
0.1016959987
0.09863174297
0.09852590828
0.0951768899
0.1355201363
0.1150466214
0.1086330315
0.09788863279
0.09646890288
0.09030305795
0.09098275894
0.08724595023
0.08830602399
0.08564197872
0.08554967988
0.08264244065
0.1132622434
0.09615111815
0.0907907844
0.08180991354
0.08062294141
0.07546805356
0.07603568121
0.07291034079
0.07379647613
0.0715676456
0.07149177165
0.0690612602
0.08961325954
0.07607250861
0.07183038456
0.06472110894
0.06378099093
0.05969804607
0.06014609502
0.05766867104
0.0583686013
0.05660196246
0.05654044491
0.05461994465
0.06480415926
0.05501151422
0.05194331845
0.04680044041
0.04611964851
0.04316460535
0.0434875713
0.04169293048
0.04219884639
0.0409180157
0.04087491449
0.03948405932
0.03921421947
0.03328531465
0.03142736827
0.02831028105
0.02789696369
0.02610250298
0.02629649376
0.02520363246
0.02550837756
0.02472831663
0.02470072405
0.02386263567
0.0130974438
0.01111454707
0.01049244306
0.009446122821
0.009305778982
0.008699670749
0.008761789423
0.008388894605
0.008488831983
0.008221007321
0.008211867916
0.007929567099
-0.01314947609
-0.01116910012
-0.0105497094
-0.009517586829
-0.009383347836
-0.00879830846
-0.008868178235
-0.008520495443
-0.008626613702
-0.00838027357
-0.008373378059
-0.008088623281
-0.03926491497
-0.03333839659
-0.03148309619
-0.02837965842
-0.02797232162
-0.02619816876
-0.02639982987
-0.02533130828
-0.02564237364
-0.02488315642
-0.02485827135
-0.02401831322
-0.06485204887
-0.05506155706
-0.05199590041
-0.04686559818
-0.04619052603
-0.04325428638
-0.04358466385
-0.04181267597
-0.04232492511
-0.04106380745
-0.04102390084
-0.03963240445
-0.08965734381
-0.07611836308
-0.07187858496
-0.06478032631
-0.06384557046
-0.0597792561
-0.060234474
-0.05777720536
-0.05848382952
-0.05673506553
-0.05667799645
-0.05475850277
-0.1133011171
-0.09619133953
-0.0908331548
-0.0818613357
-0.08067924106
-0.0755382228
-0.07611253751
-0.0730042354
-0.07389709165
-0.07168398689
-0.07161346497
-0.06918607837
-0.135553316
-0.1150805745
-0.1086688392
-0.09793117121
-0.09651576778
-0.09036053592
-0.09104650468
-0.0873229811
-0.08839016055
-0.0857390667
-0.08565370968
-0.08275192786
-0.1560676572
-0.1324965034
-0.1251144955
-0.11275069
-0.1111207936
-0.1040323347
-0.1048216714
-0.1005325082
-0.101761064
-0.09870683069
-0.09860915265
-0.09526807718
-0.1746519682
-0.148271897
-0.1400096704
-0.1261707242
-0.1243455761
-0.1164097464
-0.1172920073
-0.1124886357
-0.1138629436
-0.1104423236
-0.1103333506
-0.1065952943
-0.1910077397
-0.1621571858
-0.1531215848
-0.1379856775
-0.1359897437
-0.1273091605
-0.1282739849
-0.1230188828
-0.1245217028
-0.1207794095
-0.1206598595
-0.1165731357
-0.2049933849
-0.1740286756
-0.1643302792
-0.1480839198
-0.1459405584
-0.1366220372
-0.1376562414
-0.1320139193
-0.1336260794
-0.1296074937
-0.1294797082
-0.1250922485
-0.216369926
-0.1836867509
-0.1734507518
-0.1563019098
-0.1540401493
-0.1442029185
-0.1452950059
-0.1393375693
-0.1410394885
-0.1367966582
-0.1366613895
-0.1320336965
-0.2250567643
-0.191060049
-0.1804118888
-0.1625729383
-0.1602190011
-0.1499852863
-0.1511197007
-0.1449215469
-0.1466906023
-0.1422755182
-0.1421347513
-0.137317108
-0.2308829502
-0.196006238
-0.1850831841
-0.1667818807
-0.164367785
-0.1538678407
-0.1550324359
-0.1486720039
-0.1504873828
-0.145956955
-0.1458119404
-0.1408739057
-0.2338365501
-0.198512598
-0.187448617
-0.1689121572
-0.1664658028
-0.1558307465
-0.1570086838
-0.1505661234
-0.1524034449
-0.1478134705
-0.1476664658
-0.1426596196
)
;

boundaryField
{
    out
    {
        type            implicitExtrapolation;
    }
    in
    {
        type            implicitExtrapolation;
    }
    frontAndBack
    {
        type            empty;
    }
}


// ************************************************************************* //
