/*--------------------------------*- C++ -*----------------------------------*\
| =========                 |                                                 |
| \\      /  F ield         | OpenFOAM: The Open Source CFD Toolbox           |
|  \\    /   O peration     | Version:  2.2.0                                 |
|   \\  /    A nd           | Web:      www.OpenFOAM.org                      |
|    \\/     M anipulation  |                                                 |
\*---------------------------------------------------------------------------*/
FoamFile
{
    version     2.0;
    format      ascii;
    class       volScalarField;
    location    "20";
    object      Theta;
}
// * * * * * * * * * * * * * * * * * * * * * * * * * * * * * * * * * * * * * //

dimensions      [0 2 -2 0 0 0 0];

internalField   nonuniform List<scalar> 
728
(
1.10049
1.13326
1.13694
1.14646
5.25053
5.25657
5.36841
5.3155
1.41045
1.42186
1.41848
1.40812
1.43855
1.40736
1.42065
1.40821
0.742513
0.750863
0.728972
0.816575
0.938089
0.937353
0.950444
0.938844
-2.81991
-2.82492
-2.88991
-2.79603
1.46339
1.4774
1.47436
1.41105
2.31721
2.30409
2.30941
2.33999
0.905704
0.810135
0.786524
0.726803
1.02585
1.0568
1.04639
1.02367
1.63443
1.58841
1.59145
1.51726
1.80913
1.80542
1.83046
1.81496
2.45211
2.38063
2.48646
2.45536
1.08827
1.12335
1.1158
1.08064
0.794333
0.794501
0.803782
0.814051
0.95505
0.97975
0.957846
0.974586
-2.28215
-2.32817
-2.3074
-2.38817
1.12202
1.43754
1.36296
1.34637
1.28535
1.31427
1.2951
1.30637
1.44657
1.44873
1.47808
1.45073
1.58767
1.62976
0.573347
1.61626
3.43136
3.42515
3.39223
3.37887
-0.16679
-0.147727
-0.202075
-0.179417
0.974713
0.962234
0.976542
0.977202
1.20654
1.18834
1.26874
1.25814
1.23486
1.23469
1.25901
1.20705
0.978153
0.996376
1.16831
0.947354
0.670886
0.65819
0.728879
0.674547
1.19568
1.12133
1.07663
1.12304
1.06294
1.06512
1.05847
1.04432
0.864069
0.885755
0.891374
0.919394
1.3205
1.39701
1.30964
1.33481
1.06487
1.06424
1.05338
0.958656
0.70459
0.681921
0.728768
0.730863
-0.709985
-0.762362
-0.762661
-0.719191
0.990272
1.0073
0.992017
1.0104
1.43264
1.37737
1.4369
1.46571
1.14756
1.18019
1.11739
1.09327
1.56697
1.55851
1.52656
1.56782
3.83653
3.69492
3.72269
3.71003
0.171148
0.122995
0.178135
0.167066
1.00001
0.986827
0.97377
1.05454
1.24272
1.24939
1.26022
1.25727
0.921532
1.17112
1.17556
1.28022
0.186709
0.167318
0.165435
0.18188
-0.613624
-0.726739
-0.586336
-0.574048
1.2723
1.24461
1.30116
1.27492
1.40519
1.38422
1.40202
1.41012
0.96075
1.25402
1.30576
1.29825
0.935483
0.953745
0.967117
0.982509
0.988977
1.00625
0.992815
0.994604
1.57043
1.03902
0.538427
1.04073
0.685321
0.735978
0.699444
0.657769
-0.149941
-0.0898311
-0.155868
-0.167691
1.29544
1.29177
1.2683
1.27292
0.852877
0.837232
0.830471
0.823851
1.23808
1.21635
1.23959
1.18325
1.37276
1.35809
1.26019
1.33264
1.01152
1.00388
1.00363
0.980672
3.40276
3.43705
3.38695
3.50282
-1.08052
-0.978142
-1.38862
-1.00858
0.495275
0.428704
0.617857
0.480004
-0.527897
-0.653238
-0.407033
-0.658992
1.34965
1.35338
1.10344
1.36094
0.831287
0.84605
0.839269
0.835169
1.36306
1.36396
1.36973
1.36004
2.17331
2.13111
2.0769
2.11345
1.11197
1.01281
1.14419
1.16487
1.11936
1.09271
0.980807
1.0714
1.33634
1.33168
1.36231
1.34851
1.43753
1.45916
1.45374
1.41779
0.911982
0.927085
0.888767
0.899536
1.14609
1.07111
1.07496
1.16145
0.561048
0.558055
0.865231
1.3522
1.03828
1.2661
1.46443
1.28107
-0.887274
-0.896435
-0.894368
-0.893821
1.26627
1.28172
1.28329
1.28571
3.36942
3.33182
3.37957
3.33433
0.926463
0.932584
0.932751
0.930051
0.872363
0.83288
0.853362
0.88289
0.604942
0.571422
0.573007
0.583733
1.88527
0.36972
1.35832
1.30736
1.20755
1.20651
1.21455
1.19325
1.17667
1.14154
1.16143
1.13843
0.966857
0.993015
0.968109
0.975941
0.576565
0.571895
0.588895
0.58675
1.26663
1.27935
1.27708
1.26322
1.1021
1.0397
1.05157
1.04037
1.37314
1.30239
1.3126
1.23528
0.947552
0.999561
0.987675
0.989023
1.3112
1.09651
1.10848
1.08458
1.45695
1.43739
1.42434
1.44613
0.791129
0.772173
0.77963
0.787844
1.14239
1.16334
1.18328
1.18366
1.0838
1.07058
1.08076
1.17285
0.888195
0.842238
0.825248
0.833039
1.22572
1.12126
1.0435
1.05332
0.96421
0.968347
1.09337
0.979774
2.2148
2.18043
2.17631
2.15491
2.95398
3.24609
4.00835
3.21772
3.38125
3.55887
3.37437
3.55081
0.636659
0.657741
0.653451
0.641115
0.831259
0.84368
0.815803
0.824243
0.417347
0.386752
0.397342
0.417422
1.18586
1.37111
1.34683
1.31756
0.872241
0.907566
0.937065
0.937485
0.793866
0.722706
0.733074
0.742905
1.0192
1.01782
1.01476
1.0213
0.881823
0.790358
0.810051
0.78223
1.06864
1.12918
1.14144
1.02394
1.59966
1.57196
1.59449
1.59122
1.27009
1.25917
1.27701
1.27341
1.16718
1.17733
0.634671
1.57322
1.17702
1.11789
1.10103
1.11663
1.10557
1.1005
1.09896
1.04374
1.88209
1.90882
1.91739
1.91443
1.32001
1.28734
1.2434
1.30719
1.59297
1.55778
1.5715
1.58492
0.835362
0.928555
0.722584
1.40175
1.04992
1.05714
1.11154
1.0813
1.21621
1.13433
1.16462
1.16403
0.853891
0.881437
0.947356
0.866856
0.0745623
0.100905
0.108296
0.0905236
1.3532
1.35372
1.35628
1.36067
1.05614
1.15919
1.0524
1.16314
3.40445
3.35302
3.58799
3.39457
1.4854
1.45283
1.4749
1.47941
2.28887
2.30233
2.35609
2.29264
1.17637
1.02562
1.1864
1.15115
1.6406
1.7384
1.49845
1.67572
1.43161
1.37619
1.42242
1.41175
0.975281
0.973805
1.00862
1.1997
0.928802
0.968483
0.960561
0.982709
1.25126
1.27552
1.27021
1.2788
1.29499
1.3207
1.31176
1.34314
1.02335
1.02208
1.0267
1.0516
1.2931
1.30468
1.31344
1.30851
0.908671
0.909047
0.909807
0.895459
1.24414
0.960688
0.912275
0.987746
2.45271
2.43212
2.53743
2.43365
-2.23201
-1.94648
-1.921
-1.97615
1.32455
1.23212
1.28839
0.999902
0.688591
0.78461
1.10991
0.669759
0.769678
0.76828
0.759833
0.757642
1.79716
1.79354
1.78011
1.82996
2.90058
1.19179
1.15248
-0.660464
1.10679
1.23107
1.19377
1.2513
3.84731
4.15769
3.90827
3.90865
1.82711
1.83874
1.81694
1.83504
0.902754
1.03842
1.0176
1.12224
1.09407
1.12995
1.09005
1.09225
1.17273
1.15028
1.14355
1.13468
1.00475
1.01561
1.06286
1.12825
1.85763
1.8508
1.8629
1.84316
0.434726
0.402579
0.431583
0.410617
0.874164
0.81151
0.879113
0.935723
1.57336
1.5244
1.59825
1.57629
-0.964414
-0.971052
-1.05798
-1.01837
2.0149
2.06505
2.0454
1.99551
1.21041
1.20422
1.19127
1.1894
-3.31201
-3.2692
-3.45222
-3.35043
1.09565
1.04617
1.04486
0.952636
2.41746
2.38289
2.40561
2.34835
-0.553006
-0.561894
-0.609238
-0.556647
0.879409
1.033
0.872894
0.910917
0.805057
0.818266
0.766552
0.790184
0.970913
1.03714
1.05795
1.10947
1.1015
1.02643
1.55778
0.481918
1.28839
1.31979
1.26654
1.26251
1.14409
1.04497
1.12978
1.15263
0.394856
0.414759
0.435507
0.440652
1.80757
1.8478
1.8442
1.86158
1.3192
1.31534
1.2323
1.30821
0.486041
0.478018
0.494894
0.49354
1.39336
1.44329
1.43548
1.42395
2.22752
2.24102
2.25327
2.20892
1.44179
1.37471
1.44694
1.45108
1.14535
1.09042
1.10962
1.08881
1.00827
0.993205
0.977965
1.00994
1.15865
1.16202
1.1647
1.16059
1.07121
1.0455
1.05051
1.05641
)
;

boundaryField
{
    insideCircle
    {
        type            myTemperature;
        value           nonuniform List<scalar> 
12
(
3.43135
3.43555
3.43754
3.4314
3.48267
3.4826
3.46448
3.47837
3.4733
3.46942
3.46169
3.46707
)
;
    }
    outsideCircle
    {
        type            myTemperature;
        value           nonuniform List<scalar> 
60
(
1.10049
1.0977
1.09989
1.09999
1.09339
1.09241
1.11356
1.09389
1.11089
1.10561
1.10431
1.10309
1.11276
1.10845
1.10773
1.11045
1.11385
1.11197
1.11191
1.1108
1.11256
1.11178
1.10828
1.10209
1.09992
1.12173
1.10908
1.10877
1.10304
1.10416
1.10351
1.1032
1.10423
1.10547
1.11241
1.09787
1.11152
1.1098
1.10792
1.10884
1.11577
1.10991
1.11123
1.10761
1.10474
1.10665
1.10407
1.10689
1.10897
1.1071
1.10597
1.10433
1.09207
1.10995
1.11034
1.13117
1.11539
1.10892
1.11091
1.11116
)
;
    }
    topAndBottom
    {
        type            empty;
    }
}


// ************************************************************************* //
