/*--------------------------------*- C++ -*----------------------------------*\
| =========                 |                                                 |
| \\      /  F ield         | foam-extend: Open Source CFD                    |
|  \\    /   O peration     | Version:  3.0                                   |
|   \\  /    A nd           | Web:         http://www.extend-project.de       |
|    \\/     M anipulation  |                                                 |
\*---------------------------------------------------------------------------*/
FoamFile
{
    version     2.0;
    format      ascii;
    class       volScalarField;
    location    "55";
    object      p;
}
// * * * * * * * * * * * * * * * * * * * * * * * * * * * * * * * * * * * * * //

dimensions      [0 0 0 0 0 0 0];

internalField   nonuniform List<scalar> 
2688
(
-0.2282235681
-0.2090397685
-0.19752134
-0.1843457149
-0.1770506604
-0.1676598274
-0.1630658455
-0.1562267681
-0.1534273036
-0.1483815683
-0.1467842556
-0.1430210517
-0.1422021638
-0.1393454315
-0.1389709125
-0.1367167419
-0.1364946168
-0.134572117
-0.134220304
-0.1323637676
-0.1315852748
-0.129511413
-0.1279720738
-0.1253576145
-0.2274525819
-0.2083293755
-0.196845734
-0.1837114371
-0.1764376934
-0.1670757372
-0.1624941452
-0.1556755728
-0.1528823757
-0.147851273
-0.1462560279
-0.1425032897
-0.1416837274
-0.1388345471
-0.1384578135
-0.136209316
-0.1359845755
-0.1340668264
-0.1337131272
-0.131861252
-0.1310826816
-0.1290141992
-0.1274779897
-0.1248707257
-0.2259613837
-0.2069597831
-0.1955486286
-0.1824973174
-0.1752691021
-0.1659657948
-0.1614125331
-0.154636135
-0.1518598612
-0.1468593158
-0.1452733783
-0.1415428705
-0.1407276724
-0.1378947901
-0.1375195306
-0.1352833395
-0.1350589795
-0.1331513324
-0.1327986878
-0.1309564855
-0.1301814489
-0.1281241633
-0.1265960522
-0.1240043101
-0.2237614778
-0.2049410122
-0.1936374865
-0.180709927
-0.1735488186
-0.1643331703
-0.1598210149
-0.1531080089
-0.1503554863
-0.145401292
-0.143827417
-0.1401311204
-0.13932042
-0.1365132218
-0.1361381861
-0.1339220486
-0.1336965459
-0.1318058665
-0.1314535397
-0.1296276714
-0.1288574401
-0.1268184833
-0.1253031037
-0.1227347952
-0.2208562061
-0.202276297
-0.1911167468
-0.1783538588
-0.1712835411
-0.1621847291
-0.157729433
-0.1511009621
-0.148382786
-0.1434903618
-0.1419357608
-0.1382849137
-0.1374837205
-0.1347103984
-0.1343392461
-0.1321492526
-0.1319255997
-0.1300567641
-0.1297077062
-0.1279027579
-0.1271408368
-0.1251255691
-0.1236275404
-0.1210902887
-0.2172565158
-0.1989754791
-0.1879943367
-0.1754361006
-0.1684776979
-0.1595242426
-0.1551382762
-0.1486152591
-0.1459380542
-0.1411230831
-0.1395904137
-0.1359970594
-0.1352054858
-0.1324756132
-0.1321071116
-0.1299512745
-0.1297279934
-0.1278882038
-0.1275417787
-0.1257648168
-0.1250126082
-0.1230285421
-0.1215526581
-0.1190547506
-0.2129736898
-0.1950490924
-0.1842815638
-0.1719675977
-0.1651441254
-0.1563642367
-0.1520629535
-0.1456657762
-0.1430399089
-0.1383171631
-0.1368135054
-0.1332882881
-0.1325112678
-0.1298324743
-0.1294702396
-0.1273541271
-0.1271341951
-0.1253278823
-0.1249870645
-0.1232423602
-0.1225034464
-0.120555703
-0.1191067157
-0.1166548435
-0.2080195691
-0.1905078432
-0.1799872179
-0.1679562245
-0.1612880672
-0.1527094
-0.1485047993
-0.142253803
-0.1396856096
-0.1350704234
-0.1335982773
-0.1301530723
-0.1293906431
-0.1267724593
-0.1264152201
-0.1243468722
-0.1241287623
-0.1223631865
-0.1220272188
-0.1203219134
-0.1195973938
-0.117693646
-0.1162757648
-0.1138786284
-0.2024129378
-0.1853690574
-0.1751289913
-0.1634188043
-0.1569280217
-0.1485774863
-0.1444843349
-0.1383989225
-0.1358984221
-0.1314047865
-0.1299710384
-0.1266158384
-0.1258728376
-0.1233223254
-0.122973657
-0.1209581276
-0.1207448089
-0.1190239287
-0.1186958385
-0.1170338005
-0.1163275709
-0.1144727488
-0.113091836
-0.1107563004
-0.1961667745
-0.1796445676
-0.1697167798
-0.1583643216
-0.152070294
-0.1439743016
-0.1400039648
-0.1341036053
-0.1316767471
-0.1273193955
-0.1259263217
-0.1226725976
-0.1219489355
-0.119475348
-0.1191338822
-0.117178982
-0.1169687823
-0.1152995735
-0.1149782975
-0.1133661949
-0.1126786886
-0.1108797577
-0.1095387273
-0.1072733295
-0.1893067157
-0.1733578908
-0.1637740831
-0.1528149474
-0.14673851
-0.1389223637
-0.1350888477
-0.1293917597
-0.1270481101
-0.1228401405
-0.1214943846
-0.1183514416
-0.1176518557
-0.1152617072
-0.1149310063
-0.1130413088
-0.1128372065
-0.1112231023
-0.110911594
-0.1093525325
-0.1086872693
-0.1069479121
-0.1056515331
-0.1034615994
-0.1818471496
-0.1665222295
-0.1573121371
-0.1467809769
-0.1409402509
-0.1334287519
-0.1297426298
-0.1242671189
-0.1220121427
-0.1179674388
-0.1166709923
-0.1136496747
-0.1129739094
-0.1106759786
-0.1103545588
-0.1085374888
-0.1083376814
-0.1067852862
-0.1064822904
-0.1049824878
-0.1043396617
-0.1026663058
-0.1014173301
-0.09931154761
-0.1738197979
-0.1591666023
-0.1503595916
-0.1402893379
-0.134703683
-0.1275202413
-0.1239945946
-0.1187575098
-0.1166002194
-0.1127308852
-0.1114900973
-0.1085989953
-0.1079516832
-0.1057519796
-0.1054434372
-0.1037032108
-0.103510799
-0.1020232602
-0.1017318494
-0.100294093
-0.09967717704
-0.09807302525
-0.09687579214
-0.09485867224
-0.1652407339
-0.1513058151
-0.1429292448
-0.1333518179
-0.1280378552
-0.121205316
-0.1178497774
-0.1128679855
-0.1108132726
-0.1071321094
-0.1059486368
-0.103197765
-0.1025784612
-0.1004851241
-0.1001878644
-0.09853143455
-0.09834454321
-0.09692817925
-0.09664706567
-0.09527751864
-0.09468674249
-0.09315832532
-0.09201565059
-0.09009530161
-0.1561469051
-0.142973621
-0.13505417
-0.125999448
-0.1209748281
-0.1145144426
-0.1113410123
-0.1066298177
-0.1046860363
-0.1012040499
-0.1000838811
-0.09748107201
-0.09689426819
-0.09491281997
-0.09463047423
-0.09306179584
-0.09288370814
-0.09154160994
-0.09127415782
-0.08997573783
-0.08941491356
-0.08796558114
-0.08688203343
-0.08506211414
-0.1465563283
-0.1341866463
-0.1267489357
-0.1182456787
-0.1135253026
-0.1074576425
-0.1044748819
-0.1000494625
-0.0982208574
-0.09494955723
-0.09389397647
-0.09144822876
-0.0908932737
-0.08903104371
-0.08876189935
-0.08728730506
-0.08711608036
-0.08585418132
-0.08559909894
-0.08437791338
-0.08384732835
-0.08248384052
-0.08146222674
-0.07975046184
-0.1365102516
-0.1249825503
-0.1180502503
-0.1101249309
-0.1057245251
-0.100068439
-0.09728711756
-0.09316106552
-0.09145522419
-0.08840440616
-0.08741895447
-0.08513726956
-0.08461843349
-0.08288040449
-0.08262803657
-0.08125116995
-0.0810901561
-0.07991141651
-0.07967222264
-0.0785311803
-0.07803488292
-0.07676048292
-0.0758055996
-0.07420434402
-0.1260288716
-0.1153799768
-0.1089746466
-0.1016524804
-0.09758503242
-0.09235853778
-0.08978603636
-0.08597262414
-0.08439309129
-0.08157279405
-0.08065836385
-0.07854856
-0.07806497699
-0.07645748911
-0.07622004242
-0.07494637545
-0.07479348493
-0.07370308928
-0.07347828519
-0.07242291492
-0.07196085521
-0.07078205598
-0.06989617689
-0.06841374488
-0.1151567569
-0.1054196122
-0.09956162954
-0.0928653702
-0.08914448897
-0.08436381072
-0.08200952933
-0.07852047968
-0.0770739674
-0.07449266175
-0.07365424919
-0.07172240153
-0.07127801187
-0.06980540419
-0.06958624562
-0.06841895197
-0.06827735941
-0.06727784919
-0.06707075724
-0.06610344149
-0.06567948426
-0.06459870173
-0.06378657402
-0.0624237022
-0.1039164849
-0.09512228632
-0.08982986672
-0.08378085162
-0.08041744765
-0.0760978105
-0.07396786485
-0.07081436745
-0.06950369074
-0.06716980633
-0.06640791924
-0.06466054468
-0.06425429222
-0.0629217777
-0.06271892176
-0.06166239544
-0.06152980937
-0.06062522636
-0.06043391429
-0.05955894736
-0.05917220369
-0.058195002
-0.05745765314
-0.05622420229
-0.09235493852
-0.08453080427
-0.07982078766
-0.07443778075
-0.07144317526
-0.06759798688
-0.06570028137
-0.06289204795
-0.06172294273
-0.05964351753
-0.058962516
-0.05740467344
-0.05704007063
-0.05585125321
-0.05566773171
-0.05472455551
-0.05460379753
-0.05379607043
-0.05362342053
-0.05284233561
-0.05249621905
-0.05162374368
-0.05096573846
-0.04986056726
-0.08049723057
-0.07366831084
-0.06955533266
-0.06485551354
-0.06223840859
-0.05887990606
-0.0572192318
-0.05476523293
-0.05373977903
-0.05192154102
-0.05132158695
-0.04995843301
-0.04963431105
-0.04859323922
-0.04842704548
-0.04760049485
-0.04748918256
-0.0467811091
-0.04662480097
-0.04594038503
-0.04563300642
-0.04486934598
-0.04428991617
-0.04332403269
-0.06839154029
-0.06257881037
-0.05907596942
-0.05507388825
-0.0528431725
-0.04998178321
-0.04856443927
-0.04647225467
-0.0455951237
-0.04404358809
-0.04352833199
-0.04236384496
-0.0420832272
-0.04119273359
-0.04104652116
-0.04033859676
-0.04023919697
-0.03963218858
-0.03949474569
-0.03890793481
-0.03864245962
-0.03798791515
-0.03749175236
-0.03666265097
-0.05606561245
-0.05128783958
-0.04840600346
-0.04511445906
-0.04327652648
-0.04092134945
-0.03975076511
-0.03802704841
-0.03729959786
-0.03601973806
-0.03558905656
-0.03462702914
-0.03438875089
-0.03365178522
-0.03352371857
-0.03293675248
-0.03284708634
-0.0323430215
-0.03222214651
-0.03173462954
-0.03150860182
-0.03096575377
-0.03055027128
-0.0298670886
-0.04356792575
-0.03983969769
-0.03758806409
-0.03501721793
-0.03357840732
-0.03173675957
-0.03081753664
-0.02946763739
-0.02889339972
-0.02788913634
-0.02754591136
-0.02678919696
-0.02659575608
-0.0260143756
-0.0259067365
-0.02544221943
-0.02536448491
-0.02496449495
-0.02486255085
-0.02447524811
-0.02429187998
-0.02386133486
-0.02353169264
-0.02299294574
-0.0309288743
-0.02826232215
-0.02664785324
-0.02480595852
-0.02377028745
-0.02244802262
-0.0217822096
-0.02081039897
-0.02039003105
-0.01966455454
-0.01940843891
-0.01885948249
-0.01870982914
-0.01828597563
-0.01819728661
-0.01785684575
-0.01778940018
-0.01749496176
-0.01741031244
-0.01712473192
-0.01698221879
-0.01666585808
-0.01641948857
-0.01602901947
-0.01819628525
-0.01659944331
-0.01562732191
-0.01452002833
-0.01389119695
-0.01309242631
-0.01268285341
-0.01209217582
-0.01182800554
-0.01138358302
-0.01121663205
-0.01087711768
-0.01077317495
-0.0105080983
-0.01044022713
-0.01022481921
-0.0101695182
-0.009981470249
-0.00991603375
-0.009733142752
-0.009633711426
-0.009432793076
-0.009272683571
-0.009030885045
-0.005403131096
-0.004881325707
-0.004554521579
-0.004185431315
-0.003965042733
-0.00369230873
-0.003539640019
-0.003331945516
-0.003223952088
-0.003061972643
-0.002983660731
-0.002854683954
-0.002795582533
-0.002690232823
-0.002642152208
-0.002552746516
-0.002508656426
-0.002428198843
-0.002381509349
-0.002302986403
-0.002247257883
-0.00216398133
-0.002092714148
-0.002000749702
0.007404289819
0.006849664797
0.006530050184
0.006159869531
0.00597081245
0.005716663494
0.005611425628
0.005435449589
0.005386200682
0.005265171281
0.005253679549
0.005171655004
0.005184644977
0.005129899066
0.005156847521
0.005119980074
0.005151555747
0.005124252257
0.005151226169
0.005125294167
0.005137473574
0.005103112223
0.005088266287
0.005030259533
0.02019060831
0.01856111025
0.0175961346
0.01648777655
0.01589009339
0.01510985463
0.01474742062
0.01418835807
0.01398254343
0.01357892799
0.01347831051
0.01318556201
0.01315311458
0.01293838555
0.01294481399
0.01278156309
0.01280103321
0.0126655674
0.01267272834
0.01254171366
0.01250911292
0.01235695461
0.01225290254
0.01204874975
0.03291182518
0.03021270791
0.02860536934
0.026762365
0.02575777764
0.02445388957
0.02383512089
0.0228946675
0.02253253086
0.02184749593
0.02165754092
0.02115486347
0.02107644472
0.02070229581
0.02068749349
0.0203983404
0.02040503282
0.02016197011
0.02014909497
0.01991376708
0.01983746402
0.01956819464
0.01937847317
0.01902564691
0.04553048316
0.041770176
0.03952554221
0.0369536637
0.03554539262
0.03372196603
0.03284892394
0.03153008249
0.03101293332
0.03004870752
0.02977022879
0.029059289
0.02893538178
0.02840305434
0.0283672745
0.02795313434
0.02794712158
0.02759718334
0.0275641337
0.02722534902
0.02710479341
0.02672031288
0.02644380729
0.02594882872
0.05800551454
0.05319584899
0.05032098781
0.04702832789
0.04522081438
0.04288356009
0.04175898273
0.04006582974
0.03939524984
0.03815473901
0.03778852248
0.03687138332
0.03670224926
0.03601323292
0.03595645765
0.03541850074
0.03539975877
0.03494403758
0.03489116454
0.03445008288
0.03428660501
0.03378781981
0.03342743888
0.03278788552
0.07029782962
0.06445400183
0.06095792001
0.05695484961
0.05475366324
0.05190994777
0.05053720869
0.04847511852
0.04765302268
0.04614022896
0.04568720822
0.04456691057
0.04435283903
0.04350950805
0.04343164437
0.0427718237
0.04274010791
0.04218040891
0.04210753105
0.04156622336
0.04135986611
0.04074984459
0.04030608343
0.03952833771
0.08236975775
0.07551003081
0.07140378837
0.06670287189
0.06411513429
0.06077388391
0.05915758471
0.05673298295
0.05576229669
0.05398184739
0.05344382449
0.05212368342
0.05186575326
0.05087048965
0.05077221937
0.04999230979
0.0499482064
0.04928597818
0.0491939051
0.04855367889
0.04830584891
0.04758566753
0.04706080448
0.04614409045
0.09418119137
0.08632732976
0.08162374847
0.0762398131
0.07327336069
0.06944509069
0.06758986312
0.06481041412
0.06369362328
0.06165123105
0.06102923985
0.05951361954
0.05921191657
0.0580681749
0.05794904609
0.05705194912
0.05699484683
0.05623277865
0.05612112172
0.05538484652
0.05509577816
0.05426905485
0.05366449046
0.05261485642
0.1056981294
0.09687461148
0.09158861956
0.08553856025
0.08220312187
0.07789988162
0.07581215029
0.07268656921
0.07142792447
0.06912989983
0.06842675206
0.06672019214
0.06637660734
0.06508763559
0.06494901421
0.06393708215
0.06386815091
0.06300803858
0.06287807622
0.06204726397
0.06171865661
0.06078677584
0.06010486956
0.05892307779
0.1168802328
0.1071150993
0.1012631571
0.09456605218
0.09087161962
0.0861069215
0.08379250668
0.080330631
0.0789331476
0.07638682007
0.0756036272
0.07371173458
0.07332613866
0.07189639087
0.07173745425
0.07061443431
0.07053265857
0.0695779211
0.06942892152
0.06850701994
0.06813885723
0.06710574037
0.06634765564
0.06503943338
0.1276972342
0.1170208938
0.1106216279
0.1032985131
0.09925731508
0.09404620327
0.09151328532
0.08772603455
0.08619524695
0.08340855604
0.08254911373
0.08047762146
0.08005269884
0.07848627998
0.0783090638
0.07707791335
0.07698505103
0.07593794009
0.07577173924
0.07476073113
0.07435537837
0.0732231656
0.07239237221
0.07095997223
0.1381095154
0.1265559047
0.1196291883
0.1117031278
0.1073271721
0.1016859612
0.09894146469
0.09484069878
0.09318010359
0.09016187298
0.08922734625
0.08698299824
0.08651839606
0.08482066363
0.08462397703
0.08328920265
0.08318385135
0.08204846309
0.0818640454
0.08076802418
0.08032540481
0.07909869028
0.07819664596
0.07664639846
0.148090393
0.1356955018
0.1282634466
0.1197593804
0.1150632551
0.1090098214
0.1060635886
0.1016623219
0.09987867418
0.09663840374
0.0956335288
0.09322321596
0.09272238174
0.09089829159
0.09068481842
0.08925000565
0.08913449207
0.08791357803
0.08771328485
0.0865347178
0.08605762736
0.08473909824
0.08376957085
0.08210417847
0.157602085
0.1444052791
0.1364908977
0.1274355546
0.1224331189
0.1159863446
0.1128463079
0.1081582414
0.1062554673
0.1028033256
0.101729298
0.09916077156
0.09862312404
0.09667882042
0.09644700935
0.09491732014
0.09478987837
0.09348812879
0.09327072408
0.09201429589
0.09150276248
0.09009764225
0.08906272377
0.08728913027
0.1666211236
0.1526635669
0.1442922017
0.1347141449
0.1294221734
0.1226025705
0.1192801133
0.1143202227
0.1123062118
0.1086531748
0.1075156088
0.1047968736
0.104226577
0.102167855
0.1019210029
0.1003006591
0.1001641536
0.09878482005
0.09855310317
0.09722170967
0.09667885016
0.09519025898
0.0940938084
0.09221540647
0.1751128221
0.1604387646
0.1516362529
0.1415655041
0.1359995216
0.1288282706
0.1253322288
0.1201158487
0.1179949043
0.1141523154
0.1129524179
0.1100920834
0.1094883291
0.1073219824
0.1070581874
0.1053528779
0.1052051885
0.1037534347
0.1035059475
0.1021047394
0.1015306583
0.0999642732
0.09880892215
0.09683283526
0.1830563625
0.167711679
0.1585062992
0.147974721
0.1421534833
0.1346535028
0.1309966532
0.1255405614
0.1233215977
0.119301806
0.1180459849
0.1150531135
0.1144207151
0.1121533597
0.1118764772
0.110091068
0.1099355523
0.1084151485
0.1081551131
0.1066874366
0.106085557
0.1044449963
0.103234749
0.1011654297
0.190421526
0.1744547343
0.1648747969
0.1539152883
0.1478557835
0.1400502547
0.1362422284
0.130563167
0.1282508168
0.1240661563
0.1227556203
0.1196395182
0.1189774513
0.116616381
0.1163241782
0.114464745
0.1142989446
0.1127154012
0.11244114
0.1109125022
0.1102829855
0.1085742759
0.1073122559
0.1051568155
0.1971893987
0.1806505717
0.1707269597
0.1593743189
0.1530970485
0.1450110336
0.1410658255
0.135182188
0.1327862547
0.1284503223
0.127092164
0.1238628781
0.1231765158
0.120729138
0.1204259534
0.1184980122
0.118325718
0.1166833577
0.1163984789
0.1148127398
0.1141593191
0.1123866824
0.1110771031
0.1088412001
0.2033356768
0.1862769236
0.1760400401
0.1643295918
0.1578527935
0.1495111575
0.1454390859
0.139368786
0.1368941932
0.1324201249
0.1310155594
0.1276829292
0.1269710588
0.1244450157
0.1241283193
0.1221381906
0.1219566347
0.120261193
0.11996382
0.1183267639
0.1176496776
0.1158194659
0.114465971
0.1121566566
0.2088424737
0.1913175037
0.1808004691
0.1687695441
0.162115199
0.1535448514
0.1493609276
0.1431237575
0.1405810372
0.1359835257
0.1345401969
0.131115156
0.1303835961
0.1277870358
0.1274615517
0.1254153879
0.1252287135
0.1234850797
0.1231791485
0.1214951824
0.1207984474
0.1189155309
0.1175225563
0.1151467175
0.2136928613
0.1957566496
0.184991556
0.1726774271
0.1658648031
0.1570919631
0.1528070908
0.1464218985
0.1438162402
0.1391090412
0.1376281949
0.1341209625
0.1333683615
0.130709131
0.130372085
0.1282763099
0.1280814788
0.1262954817
0.1259789361
0.1242540345
0.1235379818
0.1216090536
0.120180817
0.1177455994
0.2178690197
0.1995783085
0.188600115
0.1760422059
0.1690944706
0.1601475654
0.1557775449
0.1492652728
0.1466077518
0.14180647
0.1402961439
0.1367184118
0.1359508959
0.1332378022
0.1328941814
0.1307555376
0.130556936
0.1287340001
0.1284110036
0.1266500716
0.1259189102
0.1239493816
0.1224904636
0.1200037009
0.2213628121
0.2027746793
0.1916167483
0.1788537846
0.1717910142
0.1626972846
0.1582535112
0.1516337119
0.1489297767
0.1440486221
0.1425101423
0.138872379
0.1380885376
0.1353295124
0.1349763822
0.1328012638
0.1325956423
0.1307415325
0.1304098576
0.1286189008
0.1278730082
0.1258698787
0.1243850502
0.121854626
0.2241555088
0.2053290858
0.1940277867
0.1811008115
0.1739470422
0.1647360719
0.1602348844
0.1535293698
0.1507904302
0.1458457019
0.1442873185
0.1406018098
0.1398079162
0.1370123081
0.1366547762
0.1344504371
0.1342422996
0.132362911
0.1320268409
0.1302111529
0.1294548376
0.1274237795
0.1259176528
0.1233514377
0.2262490483
0.2072427317
0.1958322707
0.1827809587
0.1755568549
0.1662565761
0.1617097781
0.1549385898
0.1521703657
0.1471765885
0.1455997861
0.1418771564
0.1410718597
0.1382476092
0.1378827104
0.1356554237
0.1354414096
0.1335422917
0.1331994286
0.1313647904
0.1305982665
0.1285463205
0.1270237242
0.1244310222
0.2276228814
0.2084975112
0.1970152146
0.1838817242
0.1766118529
0.167252615
0.1626768149
0.1558623221
0.1530763299
0.1480502441
0.1464632838
0.1427162097
0.1419057497
0.1390625925
0.1386954006
0.1364528287
0.1362374513
0.1343249207
0.1339796602
0.1321317271
0.1313596242
0.1292925822
0.1277587639
0.1251468833
0.2282900923
0.2091045907
0.1975850789
0.1844095297
0.1771149253
0.1677250302
0.1631323643
0.1562949
0.1534971589
0.1484534944
0.1468581238
0.1430973375
0.1422805799
0.1394264551
0.1390541572
0.136802454
0.1365824055
0.1346617711
0.1343115781
0.132455783
0.1316777329
0.1296022829
0.128060584
0.1254392172
0.2282275469
0.2090437502
0.1975248338
0.1843499703
0.1770553794
0.167665527
0.1630725922
0.1562347432
0.1534366345
0.1483922861
0.1467965581
0.1430348824
0.1422178321
0.1393626608
0.1389901205
0.1367372142
0.1365168913
0.1345948513
0.1342442268
0.1323867397
0.1316079966
0.1295305094
0.1279878275
0.1253642413
0.2274602428
0.208336813
0.1968530999
0.1837189885
0.176445599
0.167084148
0.1625033421
0.1556855511
0.1528934295
0.1478632496
0.1462692943
0.1425175622
0.1416994852
0.1388512575
0.1384760446
0.1362280726
0.1360044879
0.1340862746
0.1337328741
0.1318790587
0.1310992016
0.1290264833
0.1274857588
0.1248704118
0.2259619305
0.2069609595
0.1955502587
0.1824996821
0.1752720627
0.1659696328
0.1614172555
0.1546419677
0.1518668323
0.146867555
0.1452829872
0.1415538817
0.1407403255
0.1379088833
0.1375354319
0.135300344
0.1350775523
0.1331700181
0.1328181521
0.1309744541
0.1301987329
0.1281373544
0.1266055601
0.1240047999
0.2237699021
0.2049490252
0.1936455121
0.180717996
0.1735572708
0.1643419727
0.159830608
0.1531182051
0.1503667791
0.1454133123
0.1438407641
0.1401452363
0.1393360544
0.1365295224
0.1361560234
0.1339400714
0.1337156816
0.1318241315
0.1314719698
0.129643784
0.128872168
0.1268289267
0.1253092535
0.12273355
0.2208545702
0.2022753735
0.1911163637
0.1783541717
0.1712843776
0.1621863139
0.157731687
0.1511041056
0.1483867651
0.1434953534
0.1419417722
0.1382920512
0.1374920996
0.134719926
0.1343501352
0.1321609622
0.1319384133
0.1300694975
0.1297208361
0.1279144957
0.1271518017
0.125133182
0.1236321301
0.1210876877
0.2172654453
0.1989838035
0.1880026294
0.1754442734
0.168486249
0.1595329831
0.1551477756
0.1486251662
0.1459490182
0.1411345597
0.1396031784
0.1360103539
0.1352202401
0.1324907712
0.1321237136
0.1299678102
0.1297455366
0.1279047432
0.1275584677
0.1257794
0.1250261016
0.1230386223
0.1215595594
0.1190558478
0.2129697528
0.1950459707
0.1842789661
0.1719656331
0.1651425444
0.1563632317
0.1520623381
0.1456657715
0.1430403522
0.138318279
0.1368151712
0.1332907039
0.1325143739
0.1298363393
0.1294748469
0.1273592059
0.1271397525
0.1253331759
0.1249922682
0.1232463835
0.1225065928
0.1205565478
0.1191054024
0.1166491485
0.208028641
0.1905161405
0.1799953952
0.1679641266
0.1612962951
0.1527176528
0.1485137403
0.1422629564
0.1396957377
0.1350808565
0.1336099137
0.1301650332
0.1294039693
0.1267860041
0.1264301029
0.124361559
0.1241443718
0.1223777823
0.1220420049
0.1203347927
0.1196095668
0.1177030916
0.1162833483
0.1138827185
0.2024067035
0.1853637288
0.1751241197
0.1634144801
0.1569238882
0.1485737163
0.1444806281
0.1383955022
0.135895008
0.1314016483
0.1299679127
0.126613032
0.1258701033
0.1233199321
0.1229713377
0.1209559359
0.120742443
0.1190210901
0.1186923776
0.1170290977
0.1163216619
0.114464776
0.1130817661
0.1107440982
0.1961756222
0.1796525022
0.1697244896
0.1583716108
0.1520778187
0.1439816847
0.1400119294
0.1341115902
0.1316855895
0.1273283512
0.1259363686
0.1226828156
0.1219604287
0.1194869956
0.119146828
0.1171918113
0.1169825912
0.1153126078
0.1149917231
0.1133779897
0.1126900664
0.1108885473
0.1095458606
0.1072780706
0.1892983307
0.1733504748
0.1637670255
0.1528083275
0.1467318569
0.1389158324
0.1350820304
0.1293848749
0.1270407684
0.1228326459
0.121486345
0.1183432744
0.117643144
0.1152529619
0.1149217294
0.1130319867
0.1128272388
0.1112128305
0.1109005385
0.1093407982
0.10867463
0.1069341096
0.1056364602
0.1034463048
0.1818554301
0.1665294911
0.1573190643
0.1467873485
0.1409467397
0.1334349311
0.1297492498
0.1242735651
0.1220192916
0.1179745137
0.1166790108
0.1136577425
0.1129831528
0.1106854197
0.1103653235
0.1085484952
0.1083499473
0.1067976312
0.1064957302
0.1049957623
0.1043537656
0.102679712
0.1014307734
0.09932402839
0.1738095475
0.1591573463
0.1503505763
0.1402806292
0.1346947102
0.1275111341
0.1239848579
0.1187473404
0.1165891415
0.1127192112
0.1114773337
0.1085856471
0.1079371953
0.1057371154
0.1054274986
0.1036872268
0.1034938824
0.1020067305
0.1017148317
0.1002781754
0.09966160996
0.09805914751
0.09686299848
0.09484756921
0.1652481398
0.1513121305
0.1429351197
0.1333570139
0.1280430321
0.1212100146
0.1178547472
0.112872578
0.1108183704
0.1071369235
0.1059541857
0.1032032063
0.1025848968
0.1004917698
0.1001957731
0.09853997952
0.09835459476
0.09693943175
0.0966602739
0.09529283982
0.09470474485
0.09317904506
0.0920393818
0.09012000217
0.1561351945
0.1429628867
0.1350435528
0.1259889943
0.1209638985
0.1145031285
0.1113287651
0.1066167855
0.1046716941
0.1011886714
0.1000669111
0.09746303096
0.09687450305
0.09489224907
0.09460823662
0.09303935722
0.09285992794
0.09151872406
0.09125092633
0.08995533781
0.08939609271
0.08795167641
0.08687194359
0.08505638525
0.1465625987
0.1341917906
0.1267535456
0.1182495036
0.1135289676
0.1074606661
0.1044779904
0.1000519811
0.09822364871
0.09495181449
0.0938966859
0.09145056811
0.09089627782
0.0890340431
0.08876582039
0.0872918246
0.08712186764
0.08586156127
0.08560856433
0.0843907333
0.08386381517
0.08250551893
0.08148933092
0.07978138767
0.1364975792
0.1249707928
0.1180384962
0.1101131985
0.1057121525
0.1000554631
0.09727298424
0.09314584267
0.09143839023
0.08838613425
0.08739868658
0.08511542418
0.08459432295
0.08285488612
0.08260015432
0.08122243989
0.0810592726
0.07988088506
0.07964061136
0.07850232918
0.07800743777
0.07673912522
0.07578932396
0.07419634969
0.126033802
0.1153837835
0.108977848
0.1016548156
0.09758707881
0.09235979741
0.08978720001
0.08597299161
0.08439349214
0.08157238511
0.08065808629
0.07854754488
0.07806418038
0.07645618898
0.07621903119
0.07494527606
0.07479278225
0.07370306295
0.07347929132
0.07242625003
0.07196701806
0.07079310637
0.06991308545
0.06843805544
0.1151436821
0.1054073516
0.09954928245
0.09285291976
0.08913130574
0.08434986388
0.08199431764
0.07850396427
0.07705569927
0.07447265734
0.07363203414
0.07169817502
0.07125116186
0.06977648805
0.06955435405
0.06838518705
0.06824043894
0.06723971328
0.06703006557
0.06606339013
0.06563911582
0.06456280226
0.06375486378
0.06240443136
0.103919936
0.09512465579
0.08983159127
0.08378166179
0.08041786724
0.07609733183
0.07396713959
0.07081267479
0.069501831
0.06716688929
0.06640486045
0.06465637809
0.06424994122
0.0629163329
0.06271312583
0.06165552451
0.06152229781
0.0606167486
0.06042489682
0.0595497737
0.05916390017
0.05818906651
0.05745622426
0.05623268684
0.09234204369
0.08451859072
0.07980843142
0.07442522487
0.07142988067
0.06758384767
0.06568491217
0.06287528958
0.06170449917
0.05962321818
0.05894008296
0.05738001981
0.05701282327
0.05582153325
0.05563490615
0.05468905773
0.05456466225
0.05375423153
0.05357794341
0.05279504998
0.05244679416
0.05157599789
0.05092009937
0.04982913867
0.0804991336
0.07366921397
0.06955558629
0.06485484383
0.06223728324
0.05887781788
0.05721679605
0.05476172197
0.0537359801
0.05191652895
0.05131629725
0.04995180512
0.04962733264
0.04858480041
0.04841800704
0.04758976267
0.04747737251
0.04676727537
0.04660964956
0.04592335791
0.04561561102
0.04485206923
0.04427558652
0.04331896757
0.0683793909
0.06256718587
0.05906418216
0.05506184003
0.05283046645
0.04996823815
0.04854984299
0.04645632878
0.04557780195
0.04402451303
0.0435075378
0.0423409568
0.04205828987
0.04116543713
0.04101676887
0.04030620348
0.04020383151
0.03959394537
0.03945333067
0.03886410151
0.03859631673
0.03794199331
0.03744641223
0.0366286038
0.05606597153
0.0512873171
0.04840486091
0.04511242423
0.04327400872
0.04091785587
0.03974687616
0.03802205176
0.03729428201
0.03601317432
0.03558224451
0.03461885922
0.03438037291
0.03364196883
0.03351361404
0.0329250701
0.03283484724
0.03232905469
0.03220755534
0.03171866155
0.03149284904
0.03095017442
0.03053727889
0.02985964283
0.04355703299
0.03982915865
0.0375773736
0.03500623865
0.03356692226
0.03172451759
0.03080453829
0.02945349582
0.02887833053
0.02787261331
0.02752836063
0.02676998638
0.0265754755
0.02599234742
0.02588358743
0.02541730029
0.02533832167
0.02493670281
0.02483360738
0.02444549155
0.02426160709
0.02383199882
0.02350299598
0.0229685978
0.03092776526
0.02826048092
0.02664544928
0.02480272914
0.02376657765
0.02244336956
0.02177715162
0.02080426424
0.02038360488
0.01965694112
0.01940070927
0.01885052759
0.01870099384
0.01827597671
0.01818763325
0.01784615601
0.01777918735
0.01748402113
0.01740012872
0.01711474909
0.01697367517
0.01665868117
0.01641455413
0.01602444413
0.01818707413
0.01659040844
0.01561816785
0.01451058329
0.01388144128
0.0130820472
0.01267207674
0.01208052017
0.0118159788
0.01137051034
0.01120334358
0.01086274742
0.01075887729
0.01049284462
0.01042540276
0.01020929581
0.01015474703
0.009966481239
0.009902243097
0.009720149931
0.009622513533
0.00942303714
0.009264768777
0.009020489144
0.005400697929
0.004878332809
0.004551041896
0.004181220872
0.003960370452
0.003686757792
0.003533686362
0.003324981781
0.003216727767
0.003053657425
0.002975347806
0.002845299833
0.002786597985
0.002680323501
0.002633098464
0.002542991174
0.002500112516
0.002419290213
0.002374052403
0.002295779864
0.002241213817
0.002157866174
0.002085577923
0.001987904675
-0.007411503436
-0.006856877776
-0.006537342057
-0.006167439898
-0.005978488561
-0.005724809928
-0.005619608439
-0.005444230115
-0.005394814629
-0.005274422174
-0.005262397275
-0.00518092173
-0.005192844627
-0.005138425869
-0.005163704188
-0.005126903446
-0.005156341335
-0.005128877469
-0.005153455175
-0.00512722587
-0.005137387303
-0.005104213877
-0.005089754172
-0.005040839423
-0.02019415924
-0.01856503464
-0.01760046126
-0.01649272084
-0.01589547868
-0.01511603634
-0.01475401662
-0.01419588827
-0.01399035141
-0.01358774478
-0.01348711958
-0.01319535758
-0.01316245832
-0.01294860513
-0.01295408407
-0.0127916354
-0.01280985003
-0.01267526178
-0.01268124334
-0.0125513844
-0.01251873031
-0.01236936345
-0.01226889211
-0.01207291258
-0.03291684723
-0.03021789487
-0.02861059866
-0.02676785581
-0.02576318967
-0.02445962759
-0.02384058532
-0.02290048202
-0.02253774737
-0.02185301771
-0.02166197875
-0.0211594704
-0.0210793335
-0.02070516555
-0.02068800962
-0.02039878442
-0.02040279445
-0.02015996627
-0.02014462609
-0.01991041636
-0.01983301352
-0.01956760551
-0.01938061339
-0.01903910022
-0.04553489081
-0.04177476682
-0.03953045054
-0.03695906619
-0.03555122186
-0.0337285013
-0.03285591204
-0.03153793235
-0.03102114831
-0.0300578774
-0.02977953237
-0.02906956471
-0.02894541909
-0.02841404856
-0.02837764643
-0.02796459642
-0.02795784833
-0.02760945558
-0.02757603924
-0.02723961243
-0.02712009697
-0.02673986167
-0.02646787335