/*--------------------------------*- C++ -*----------------------------------*\
| =========                 |                                                 |
| \\      /  F ield         | foam-extend: Open Source CFD                    |
|  \\    /   O peration     | Version:  3.0                                   |
|   \\  /    A nd           | Web:         http://www.extend-project.de       |
|    \\/     M anipulation  |                                                 |
\*---------------------------------------------------------------------------*/
FoamFile
{
    version     2.0;
    format      ascii;
    class       volVectorField;
    location    "3.8";
    object      s;
}
// * * * * * * * * * * * * * * * * * * * * * * * * * * * * * * * * * * * * * //

dimensions      [0 0 0 0 0 0 0];

internalField   nonuniform List<vector> 
400
(
(-0.00319577 0.00292494 3.75301e-318)
(-0.00495304 0.00439508 6.4333e-318)
(-0.00892953 0.004785 7.24242e-318)
(-0.0113944 0.00425104 7.28262e-318)
(-0.0143487 0.0035931 7.00947e-318)
(-0.016385 0.0028275 6.62186e-318)
(-0.018287 0.00199915 6.16051e-318)
(-0.019565 0.00119677 5.71677e-318)
(-0.0205074 0.000343965 5.22959e-318)
(-0.0209636 -0.000506356 4.78916e-318)
(-0.0209694 -0.0014173 4.30699e-318)
(-0.020536 -0.00233723 3.8771e-318)
(-0.0195151 -0.00333598 3.41089e-318)
(-0.0180819 -0.00430097 2.996e-318)
(-0.015889 -0.00533183 2.56245e-318)
(-0.0134471 -0.00624793 2.16206e-318)
(-0.0100212 -0.00703638 1.76998e-318)
(-0.00701052 -0.00760703 1.35756e-318)
(-0.00265527 -0.0070098 9.32939e-319)
(-0.000716108 -0.00469787 3.69008e-319)
(-0.00310056 0.00249366 3.85806e-318)
(-0.00655514 0.00556116 7.74024e-318)
(-0.0116681 0.00701 9.53613e-318)
(-0.0156501 0.00709476 1.02556e-317)
(-0.0200432 0.0064211 1.03428e-317)
(-0.0233323 0.00530893 1.01458e-317)
(-0.0263545 0.00392384 9.7094e-318)
(-0.028431 0.00246086 9.21252e-318)
(-0.0299388 0.00089586 8.5869e-318)
(-0.0306239 -0.000674695 7.97206e-318)
(-0.0305678 -0.00231889 7.26835e-318)
(-0.0297566 -0.00395765 6.60566e-318)
(-0.0280417 -0.00564607 5.87898e-318)
(-0.025664 -0.00723381 5.2087e-318)
(-0.0222387 -0.00871568 4.49673e-318)
(-0.0184611 -0.0098082 3.83339e-318)
(-0.0136253 -0.0103212 3.13861e-318)
(-0.00923981 -0.00985272 2.42598e-318)
(-0.00413809 -0.00772375 1.62399e-318)
(-0.000764876 -0.00354169 6.31337e-319)
(-0.00283201 0.00648913 2.8546e-318)
(-0.00629664 0.0129323 6.41139e-318)
(-0.0114451 0.0154131 8.46447e-318)
(-0.0155724 0.0155633 9.58849e-318)
(-0.0200579 0.0141541 1.005e-317)
(-0.0234432 0.0119939 1.01278e-317)
(-0.0265795 0.00924641 9.89117e-318)
(-0.0287427 0.00630088 9.50517e-318)
(-0.0303573 0.00311482 8.94944e-318)
(-0.0311216 -0.000138543 8.34925e-318)
(-0.0311295 -0.00354234 7.649e-318)
(-0.0303657 -0.00695164 6.95875e-318)
(-0.0286413 -0.010424 6.21242e-318)
(-0.026248 -0.013664 5.50957e-318)
(-0.0227236 -0.0166566 4.78738e-318)
(-0.0188286 -0.0187883 4.12346e-318)
(-0.0138287 -0.0198778 3.45856e-318)
(-0.00919881 -0.0188856 2.81013e-318)
(-0.0039813 -0.0151997 2.0526e-318)
(-0.000464857 -0.0071944 1.00686e-318)
(-0.00266237 0.00755908 1.51865e-318)
(-0.0054509 0.0158496 4.15103e-318)
(-0.00995217 0.0190899 6.0659e-318)
(-0.0132891 0.0194648 7.38274e-318)
(-0.017134 0.0177295 8.15421e-318)
(-0.0198706 0.015055 8.54453e-318)
(-0.0225366 0.0116337 8.6018e-318)
(-0.0243215 0.00796322 8.45035e-318)
(-0.0257396 0.00401011 8.1035e-318)
(-0.0264553 -3.88326e-05 7.65612e-318)
(-0.0265805 -0.00427557 7.09832e-318)
(-0.026105 -0.00855226 6.50822e-318)
(-0.0247865 -0.0129272 5.86389e-318)
(-0.0229634 -0.0170438 5.23102e-318)
(-0.0200217 -0.0208604 4.57867e-318)
(-0.0168352 -0.0235279 3.95295e-318)
(-0.0123902 -0.0248602 3.3074e-318)
(-0.00838839 -0.0232387 2.63965e-318)
(-0.00350634 -0.0183438 1.84552e-318)
(-0.000371758 -0.00797023 7.98519e-319)
(-0.00273167 0.00993585 8.31562e-319)
(-0.0046577 0.0203833 2.75815e-318)
(-0.0087245 0.0242642 4.39406e-318)
(-0.0111877 0.024595 5.66497e-318)
(-0.0143955 0.0223681 6.51577e-318)
(-0.0164273 0.0190187 7.0253e-318)
(-0.0186094 0.0148054 7.22686e-318)
(-0.0200078 0.0102836 7.20851e-318)
(-0.0212513 0.00543024 6.99476e-318)
(-0.0219598 0.000426554 6.66167e-318)
(-0.0222616 -0.00482777 6.21384e-318)
(-0.0221584 -0.0101916 5.71354e-318)
(-0.0213271 -0.0157284 5.15284e-318)
(-0.0201859 -0.0210318 4.58083e-318)
(-0.0178847 -0.0260425 3.98027e-318)
(-0.0155101 -0.0296953 3.38157e-318)
(-0.0115338 -0.0317592 2.75618e-318)
(-0.00821261 -0.0300403 2.10134e-318)
(-0.00320968 -0.0241768 1.3611e-318)
(-0.000655857 -0.0108012 5.00859e-319)
(-0.00286925 0.0114714 2.55738e-319)
(-0.00385306 0.0230905 1.55434e-318)
(-0.00732414 0.0272594 2.9025e-318)
(-0.00871499 0.0273495 4.07497e-318)
(-0.0111066 0.0247553 4.95082e-318)
(-0.0122699 0.0209608 5.54401e-318)
(-0.0138238 0.01635 5.86517e-318)
(-0.014727 0.0114305 5.9711e-318)
(-0.0157144 0.00620911 5.88986e-318)
(-0.0163814 0.000800291 5.6777e-318)
(-0.0168694 -0.00490326 5.35494e-318)
(-0.0172026 -0.0108253 4.96707e-318)
(-0.0169762 -0.0170394 4.52305e-318)
(-0.0166901 -0.0231702 4.05592e-318)
(-0.0152372 -0.0291324 3.56122e-318)
(-0.013933 -0.033752 3.05561e-318)
(-0.0106346 -0.0366826 2.51625e-318)
(-0.00824963 -0.035244 1.93669e-318)
(-0.00313348 -0.0288043 1.27507e-318)
(-0.0012053 -0.0129897 4.91798e-319)
(-0.00287972 0.0132999 1.93036e-319)
(-0.00286557 0.025791 1.17904e-318)
(-0.00571618 0.0301503 2.26047e-318)
(-0.00609152 0.0298204 3.24395e-318)
(-0.00773876 0.0269203 4.01614e-318)
(-0.00812546 0.0227051 4.56081e-318)
(-0.00912241 0.0178137 4.88394e-318)
(-0.00958734 0.012588 5.01956e-318)
(-0.0103413 0.00711798 4.99241e-318)
(-0.0109622 0.00140358 4.84257e-318)
(-0.011603 -0.00464337 4.59194e-318)
(-0.0123201 -0.0110508 4.27389e-318)
(-0.0126343 -0.0178792 3.90009e-318)
(-0.0131517 -0.0248637 3.49245e-318)
(-0.0124909 -0.0318356 3.05094e-318)
(-0.0122763 -0.0376932 2.58134e-318)
(-0.00961197 -0.0417763 2.07191e-318)
(-0.00830556 -0.0412628 1.51198e-318)
(-0.00295166 -0.034613 8.92698e-319)
(-0.00191927 -0.0165476 2.42853e-319)
(-0.00254111 0.0144209 7.44952e-320)
(-0.00170322 0.0271261 8.10179e-319)
(-0.00361573 0.0315245 1.69561e-318)
(-0.00306122 0.030726 2.53738e-318)
(-0.0038732 0.0276811 3.22822e-318)
(-0.00353165 0.0232203 3.7412e-318)
(-0.00393083 0.0183158 4.06775e-318)
(-0.00395289 0.0130619 4.23153e-318)
(-0.0044199 0.00766797 4.25183e-318)
(-0.00494167 0.00198161 4.16055e-318)
(-0.00566704 -0.00405172 3.98037e-318)
(-0.00669143 -0.0106032 3.73888e-318)
(-0.00749866 -0.017709 3.45176e-318)
(-0.0087617 -0.025293 3.13655e-318)
(-0.00893242 -0.0330678 2.79609e-318)
(-0.00981103 -0.0401539 2.43323e-318)
(-0.00798333 -0.0454544 2.03156e-318)
(-0.00780637 -0.0461946 1.57393e-318)
(-0.00262264 -0.0396242 1.03395e-318)
(-0.00236236 -0.0196481 3.80213e-319)
(-0.00194147 0.014987 2.15576e-319)
(-0.000435687 0.0276054 8.78325e-319)
(-0.00123008 0.0320355 1.60018e-318)
(0.000110339 0.0308381 2.27645e-318)
(0.000134296 0.0278117 2.83792e-318)
(0.00110527 0.0232286 3.25767e-318)
(0.00128783 0.0184661 3.53253e-318)
(0.001688 0.0133135 3.67433e-318)
(0.00154748 0.00814366 3.6991e-318)
(0.00119658 0.00263036 3.63042e-318)
(0.000496884 -0.00321925 3.48734e-318)
(-0.000687967 -0.00974379 3.29127e-318)
(-0.0018448 -0.0169236 3.05713e-318)
(-0.00370052 -0.0249472 2.79674e-318)
(-0.00461965 -0.0333347 2.51449e-318)
(-0.00655428 -0.0416456 2.20686e-318)
(-0.00565029 -0.0481252 1.86207e-318)
(-0.00677912 -0.0505286 1.45068e-318)
(-0.00201179 -0.0443136 9.46566e-319)
(-0.00279708 -0.0231208 3.19058e-319)
(-0.0010539 0.0148669 2.12419e-319)
(0.000792989 0.0269855 7.94556e-319)
(0.00137721 0.0313355 1.41802e-318)
(0.00331109 0.0298605 1.99886e-318)
(0.00425099 0.0269784 2.48329e-318)
(0.00575916 0.0224352 2.85135e-318)
(0.00656147 0.0179694 3.09581e-318)
(0.00737872 0.0130847 3.22687e-318)
(0.00763196 0.00831304 3.25841e-318)
(0.00753634 0.00316708 3.21075e-318)
(0.00698549 -0.00228304 3.10277e-318)
(0.00581052 -0.00853877 2.95352e-318)
(0.0044553 -0.0155249 2.77887e-318)
(0.0022297 -0.0237163 2.59123e-318)
(0.00062807 -0.032452 2.3961e-318)
(-0.00215265 -0.0417966 2.19254e-318)
(-0.00240841 -0.0493855 1.96241e-318)
(-0.00466986 -0.0535296 1.66921e-318)
(-0.00110535 -0.0480577 1.2472e-318)
(-0.00255864 -0.0260087 5.69663e-319)
(-0.000146232 0.0140168 3.34611e-319)
(0.00187141 0.0255103 9.15988e-319)
(0.00384791 0.0297084 1.45596e-318)
(0.00623737 0.0281439 1.93316e-318)
(0.00808306 0.0254965 2.32355e-318)
(0.0100585 0.0211326 2.61377e-318)
(0.011479 0.0170554 2.80461e-318)
(0.0127106 0.0125407 2.90322e-318)
(0.0134056 0.00825816 2.92269e-318)
(0.013649 0.00359028 2.87885e-318)
(0.0133739 -0.00132707 2.78797e-318)
(0.0123871 -0.00713716 2.66614e-318)
(0.0110226 -0.0136959 2.52754e-318)
(0.00864701 -0.0217721 2.38222e-318)
(0.00651174 -0.0304946 2.23727e-318)
(0.00298744 -0.0405517 2.08759e-318)
(0.00150828 -0.0488643 1.91906e-318)
(-0.00211604 -0.0547272 1.68525e-318)
(8.38558e-06 -0.0499983 1.3056e-318)
(-0.00263628 -0.0280935 6.25383e-319)
(0.000666698 0.0127849 3.08648e-319)
(0.00266162 0.023346 8.65519e-319)
(0.00601442 0.0272923 1.36991e-318)
(0.00872965 0.0257559 1.80295e-318)
(0.0114869 0.023388 2.14373e-318)
(0.0138514 0.0193235 2.39318e-318)
(0.0158849 0.0156957 2.55149e-318)
(0.0175043 0.0116379 2.63025e-318)
(0.0186678 0.00790721 2.64157e-318)
(0.0193089 0.00380594 2.60106e-318)
(0.0194181 -0.000483432 2.52447e-318)
(0.0188034 -0.00569779 2.42753e-318)
(0.0176307 -0.0116493 2.32395e-318)
(0.0154326 -0.0193376 2.22498e-318)
(0.0129612 -0.0277774 2.13791e-318)
(0.0091371 -0.0381831 2.06215e-318)
(0.00632553 -0.047094 1.97724e-318)
(0.00185137 -0.0545503 1.8394e-318)
(0.00157316 -0.0512519 1.53283e-318)
(-0.00152623 -0.0301723 8.36651e-319)
(0.00142885 0.0112557 3.3966e-319)
(0.00327021 0.0208261 9.15677e-319)
(0.00776465 0.0242969 1.38619e-318)
(0.0106789 0.0229178 1.76339e-318)
(0.014216 0.0208012 2.04333e-318)
(0.0168813 0.0171394 2.23674e-318)
(0.0194461 0.0139797 2.35357e-318)
(0.0213987 0.0104362 2.40358e-318)
(0.0230018 0.00727564 2.40027e-318)
(0.0240522 0.00378572 2.35642e-318)
(0.0246064 0.000172569 2.2862e-318)
(0.0244782 -0.0043342 2.2026e-318)
(0.0236724 -0.00951248 2.11831e-318)
(0.0218585 -0.0165168 2.0428e-318)
(0.0193005 -0.0242683 1.98193e-318)
(0.0153144 -0.0344655 1.93139e-318)
(0.0113584 -0.0432617 1.87359e-318)
(0.00568998 -0.0517321 1.76111e-318)
(0.00323315 -0.0491755 1.47533e-318)
(-0.00149356 -0.0296985 8.10678e-319)
(0.00159631 0.0093414 3.04162e-319)
(0.00345391 0.0178393 8.89872e-319)
(0.00881775 0.0209435 1.34222e-318)
(0.0119634 0.019752 1.68616e-318)
(0.0161781 0.0179294 1.92274e-318)
(0.0190732 0.0147242 2.07773e-318)
(0.0220657 0.012051 2.16228e-318)
(0.0242627 0.00904535 2.19036e-318)
(0.0262323 0.0064472 2.17436e-318)
(0.0276625 0.00356915 2.12624e-318)
(0.028681 0.000625083 2.05988e-318)
(0.0291443 -0.00313479 1.98687e-318)
(0.0288744 -0.007481 1.91814e-318)
(0.0277779 -0.0136189 1.8632e-318)
(0.0254441 -0.0205003 1.82677e-318)
(0.0219646 -0.0301081 1.80637e-318)
(0.017024 -0.0386942 1.77958e-318)
(0.0112578 -0.0480303 1.70602e-318)
(0.00557195 -0.0473059 1.45604e-318)
(0.000904007 -0.0308615 8.26809e-319)
(0.00213845 0.00804771 2.71677e-319)
(0.0034774 0.0151003 8.80257e-319)
(0.00941207 0.0174129 1.30523e-318)
(0.0125057 0.0164195 1.59957e-318)
(0.0171143 0.0148057 1.78748e-318)
(0.0200518 0.0121304 1.8995e-318)
(0.0232646 0.00992709 1.95454e-318)
(0.0255545 0.00747897 1.96353e-318)
(0.0277454 0.00540618 1.93844e-318)
(0.0294405 0.00311761 1.88896e-318)
(0.030854 0.000799205 1.82665e-318)
(0.0318562 -0.0022066 1.76147e-318)
(0.0321811 -0.00568957 1.70257e-318)
(0.0318389 -0.0107765 1.65671e-318)
(0.0300029 -0.0165018 1.62629e-318)
(0.0270571 -0.02491 1.60451e-318)
(0.0217056 -0.0324114 1.56834e-318)
(0.0152899 -0.0413527 1.47522e-318)
(0.00760147 -0.0407174 1.21524e-318)
(0.000771324 -0.0265497 6.43343e-319)
(0.00140117 0.00575296 4.1714e-319)
(0.00315767 0.0120047 1.00367e-318)
(0.00928499 0.0138946 1.34261e-318)
(0.0125872 0.0131052 1.55215e-318)
(0.0174409 0.0117751 1.67176e-318)
(0.0203413 0.00960952 1.73424e-318)
(0.023592 0.00788078 1.75423e-318)
(0.0258246 0.00595934 1.74071e-318)
(0.0280718 0.00437586 1.70255e-318)
(0.0299125 0.00261903 1.64741e-318)
(0.0316183 0.000867283 1.58394e-318)
(0.0331387 -0.00144198 1.52072e-318)
(0.0340896 -0.00410191 1.46667e-318)
(0.0347265 -0.00812133 1.42576e-318)
(0.0336489 -0.0126506 1.39987e-318)
(0.0320206 -0.0196994 1.38226e-318)
(0.0265751 -0.0261466 1.34791e-318)
(0.0214211 -0.0349048 1.26061e-318)
(0.0104475 -0.0359636 1.02151e-318)
(0.00530607 -0.0271215 5.15908e-319)
(0.00164457 0.00526974 2.95372e-319)
(0.00229267 0.00932046 8.41226e-319)
(0.0082997 0.0103603 1.13278e-318)
(0.0111366 0.0097052 1.29456e-318)
(0.0157115 0.00864978 1.38517e-318)
(0.0182498 0.00708921 1.4298e-318)
(0.0211949 0.00581839 1.44291e-318)
(0.02315 0.00442943 1.4298e-318)
(0.0252132 0.00326455 1.39832e-318)
(0.0269549 0.00198006 1.35336e-318)
(0.0287318 0.000685889 1.30308e-318)
(0.0304425 -0.00100313 1.25335e-318)
(0.0318419 -0.0029535 1.2115e-318)
(0.0330559 -0.00588336 1.18023e-318)
(0.0328383 -0.00919579 1.15846e-318)
(0.0320446 -0.0143873 1.13699e-318)
(0.027505 -0.0191314 1.09091e-318)
(0.022468 -0.0256517 9.82301e-319)
(0.0115814 -0.0257752 7.40708e-319)
(0.00397622 -0.0176399 3.03164e-319)
(0.000249019 0.00304784 8.24447e-319)
(0.0018829 0.00684006 1.15349e-318)
(0.00762941 0.00733804 1.23526e-318)
(0.0104311 0.0068996 1.24458e-318)
(0.0147545 0.00609261 1.24372e-318)
(0.0168223 0.00498579 1.2295e-318)
(0.0193633 0.00414025 1.20518e-318)
(0.0208887 0.00318612 1.16806e-318)
(0.0226256 0.00242584 1.12183e-318)
(0.0241611 0.00154401 1.06879e-318)
(0.0258392 0.000699308 1.01385e-318)
(0.0277057 -0.000453654 9.61966e-319)
(0.0293824 -0.00170774 9.17529e-319)
(0.0313538 -0.00369776 8.84071e-319)
(0.0319063 -0.0058114 8.59931e-319)
(0.0328141 -0.00950094 8.38963e-319)
(0.0290304 -0.0126797 7.99487e-319)
(0.0269763 -0.0184497 7.1347e-319)
(0.0137133 -0.0195877 5.23448e-319)
(0.0115985 -0.0190033 1.87182e-319)
(2.52454e-05 0.00314051 1.87839e-319)
(6.90302e-05 0.00381867 4.57999e-319)
(0.00426092 0.0039878 5.72345e-319)
(0.005906 0.00372165 6.25186e-319)
(0.00871683 0.0033762 6.60432e-319)
(0.00999381 0.002928 6.79098e-319)
(0.0115424 0.00248829 6.86707e-319)
(0.0124757 0.00201236 6.82068e-319)
(0.0135561 0.00154285 6.69405e-319)
(0.0145171 0.00102251 6.50255e-319)
(0.0157033 0.000456294 6.28862e-319)
(0.0169326 -0.000239837 6.08728e-319)
(0.0183487 -0.00105274 5.92108e-319)
(0.0197274 -0.00213954 5.80735e-319)
(0.0207301 -0.00339374 5.72943e-319)
(0.0213904 -0.00509504 5.61827e-319)
(0.0198481 -0.00681733 5.31323e-319)
(0.0177541 -0.00861186 4.57021e-319)
(0.0100683 -0.00859103 3.11375e-319)
(0.00500212 -0.00338068 7.45051e-320)
(-0.000599369 0.00142103 9.99984e-319)
(0.000635222 0.00281728 7.92832e-319)
(0.00399621 0.00238074 6.46979e-319)
(0.00478982 0.00226775 5.40513e-319)
(0.00690035 0.00198901 4.89036e-319)
(0.00720158 0.0016685 4.49615e-319)
(0.00818836 0.00154613 4.18597e-319)
(0.00844043 0.00131252 3.87506e-319)
(0.00903673 0.00124233 3.5674e-319)
(0.00954868 0.00104606 3.25426e-319)
(0.0102157 0.000983011 2.95219e-319)
(0.01121 0.00073652 2.67077e-319)
(0.0120844 0.000652337 2.43317e-319)
(0.0136913 0.000216383 2.24627e-319)
(0.0143957 9.62572e-05 2.1151e-319)
(0.016523 -0.000876982 2.03362e-319)
(0.0152968 -0.000982144 1.91984e-319)
(0.0174879 -0.00355042 1.68896e-319)
(0.00904981 -0.0033014 1.09544e-319)
(0.013822 -0.00989271 -2.07014e-321)
)
;

boundaryField
{
    cavity
    {
        type            myHeatFlux;
        ThetaWall       uniform 0;
        value           nonuniform List<vector> 
60
(
(0.001 0 0)
(0.001 0 0)
(0.001 0 0)
(0.001 0 0)
(0.001 0 0)
(0.001 0 0)
(0.001 0 0)
(0.001 0 0)
(0.001 0 0)
(0.001 0 0)
(0.001 0 0)
(0.001 0 0)
(0.001 0 0)
(0.001 0 0)
(0.001 0 0)
(0.001 0 0)
(0.001 0 0)
(0.001 0 0)
(0.001 0 0)
(0.001 0 0)
(0 -0.001 0)
(0 -0.001 0)
(0 -0.001 0)
(0 -0.001 0)
(0 -0.001 0)
(0 -0.001 0)
(0 -0.001 0)
(0 -0.001 0)
(0 -0.001 0)
(0 -0.001 0)
(0 -0.001 0)
(0 -0.001 0)
(0 -0.001 0)
(0 -0.001 0)
(0 -0.001 0)
(0 -0.001 0)
(0 -0.001 0)
(0 -0.001 0)
(0 -0.001 0)
(0 -0.001 0)
(-0.001 0 0)
(-0.001 0 0)
(-0.001 0 0)
(-0.001 0 0)
(-0.001 0 0)
(-0.001 0 0)
(-0.001 0 0)
(-0.001 0 0)
(-0.001 0 0)
(-0.001 0 0)
(-0.001 0 0)
(-0.001 0 0)
(-0.001 0 0)
(-0.001 0 0)
(-0.001 0 0)
(-0.001 0 0)
(-0.001 0 0)
(-0.001 0 0)
(-0.001 0 0)
(-0.001 0 0)
)
;
    }
    lid
    {
        type            myHeatFlux;
        ThetaWall       uniform 0;
        value           nonuniform List<vector> 
20
(
(0.000135815 0.0009 0)
(0.000135815 0.0009 0)
(0.000135815 0.0009 0)
(0.000135815 0.0009 0)
(0.000135815 0.0009 0)
(0.000135815 0.0009 0)
(0.000135815 0.0009 0)
(0.000135815 0.0009 0)
(0.000135815 0.0009 0)
(0.000135815 0.0009 0)
(0.000135815 0.0009 0)
(0.000135815 0.0009 0)
(0.000135815 0.0009 0)
(0.000135815 0.0009 0)
(0.000135815 0.0009 0)
(0.000135815 0.0009 0)
(0.000135815 0.0009 0)
(0.000135815 0.0009 0)
(0.000135815 0.0009 0)
(0.000135815 0.0009 0)
)
;
    }
    frontAndBack
    {
        type            empty;
    }
}


// ************************************************************************* //
