/*--------------------------------*- C++ -*----------------------------------*\
| =========                 |                                                 |
| \\      /  F ield         | foam-extend: Open Source CFD                    |
|  \\    /   O peration     | Version:  3.0                                   |
|   \\  /    A nd           | Web:         http://www.extend-project.de       |
|    \\/     M anipulation  |                                                 |
\*---------------------------------------------------------------------------*/
FoamFile
{
    version     2.0;
    format      ascii;
    class       volSymmTensorField;
    location    "3.8";
    object      sigma;
}
// * * * * * * * * * * * * * * * * * * * * * * * * * * * * * * * * * * * * * //

dimensions      [0 0 0 0 0 0 0];

internalField   nonuniform List<symmTensor> 
400
(
(0.076667 -0.0320982 6.12987e-317 -0.100394 8.40376e-317 0.0237273)
(0.153234 -0.047867 6.79236e-317 -0.10181 9.85725e-317 -0.0514242)
(0.189599 -0.063998 6.80372e-317 -0.0991062 9.61903e-317 -0.0904933)
(0.199165 -0.0780913 6.66235e-317 -0.0922946 8.87918e-317 -0.106871)
(0.190714 -0.0907453 6.2608e-317 -0.0820119 7.78999e-317 -0.108702)
(0.171509 -0.103808 5.85137e-317 -0.0705832 6.90373e-317 -0.100926)
(0.142955 -0.114513 5.37704e-317 -0.0568258 5.88102e-317 -0.0861293)
(0.108828 -0.124478 4.92701e-317 -0.0423804 5.18808e-317 -0.0664475)
(0.0699514 -0.131294 4.48742e-317 -0.0267321 4.3737e-317 -0.0432192)
(0.0281336 -0.135628 4.08265e-317 -0.0104312 3.89042e-317 -0.0177024)
(-0.0154422 -0.136401 3.71288e-317 0.0065211 3.26632e-317 0.00892113)
(-0.0590513 -0.133819 3.38163e-317 0.0236249 2.95251e-317 0.0354264)
(-0.101677 -0.128363 3.09398e-317 0.0411689 2.47748e-317 0.0605085)
(-0.13988 -0.119719 2.83549e-317 0.0574409 2.28912e-317 0.0824395)
(-0.173436 -0.110019 2.6304e-317 0.073821 1.92849e-317 0.0996146)
(-0.195708 -0.0977868 2.40949e-317 0.0865177 1.81954e-317 0.10919)
(-0.206593 -0.0857537 2.26625e-317 0.0981086 1.55366e-317 0.108485)
(-0.19607 -0.0719362 1.99052e-317 0.103932 1.46567e-317 0.0921378)
(-0.15754 -0.0552944 1.79504e-317 0.105065 1.26353e-317 0.0524751)
(-0.0776222 -0.0383051 1.20299e-317 0.10101 1.0452e-317 -0.0233875)
(0.0609615 -0.0128883 1.31275e-317 -0.142103 4.02968e-317 0.0811419)
(0.131619 -0.0163067 2.32972e-317 -0.153022 6.66084e-317 0.0214024)
(0.162434 -0.0222249 3.02882e-317 -0.149126 7.3182e-317 -0.0133088)
(0.170812 -0.0276375 3.47358e-317 -0.139226 7.15532e-317 -0.0315856)
(0.16229 -0.0337566 3.69272e-317 -0.122969 6.4976e-317 -0.0393203)
(0.14415 -0.0405747 3.77271e-317 -0.104158 5.84886e-317 -0.0399926)
(0.119163 -0.0463864 3.73803e-317 -0.0831575 5.05071e-317 -0.0360054)
(0.0898151 -0.0516786 3.63727e-317 -0.0610156 4.45544e-317 -0.0287995)
(0.0577039 -0.0548972 3.48946e-317 -0.0381905 3.77682e-317 -0.0195134)
(0.0234139 -0.0560798 3.31895e-317 -0.0144881 3.33193e-317 -0.00892581)
(-0.0118174 -0.0551686 3.14013e-317 0.00963962 2.80503e-317 0.00217777)
(-0.047546 -0.0516489 2.96547e-317 0.0344265 2.50542e-317 0.0131195)
(-0.0826963 -0.0472439 2.80742e-317 0.0596489 2.11346e-317 0.0230474)
(-0.115414 -0.0409797 2.66818e-317 0.0843523 1.93603e-317 0.0310619)
(-0.144662 -0.0358595 2.56887e-317 0.10878 1.66048e-317 0.0358815)
(-0.165518 -0.0307328 2.48762e-317 0.129594 1.58493e-317 0.0359236)
(-0.17644 -0.0277632 2.48168e-317 0.1477 1.43151e-317 0.0287393)
(-0.167274 -0.0268547 2.46323e-317 0.156374 1.46959e-317 0.0108996)
(-0.134957 -0.0248404 2.55204e-317 0.158112 1.54792e-317 -0.0231555)
(-0.061161 -0.0260495 2.48539e-317 0.142628 1.9175e-317 -0.0814666)
(0.0566668 -0.0145215 -3.65488e-318 -0.162047 1.86933e-317 0.10538)
(0.124499 -0.00180491 5.07951e-318 -0.176712 4.35063e-317 0.0522127)
(0.15132 0.0067661 1.30154e-317 -0.17083 5.27575e-317 0.0195099)
(0.159048 0.0101311 1.9177e-317 -0.159524 5.42779e-317 0.000476409)
(0.149379 0.011766 2.33009e-317 -0.139615 5.12648e-317 -0.00976432)
(0.132124 0.00941756 2.59709e-317 -0.117979 4.7107e-317 -0.0141447)
(0.10925 0.0080003 2.73321e-317 -0.0944465 4.17377e-317 -0.0148031)
(0.0828705 0.00549645 2.78581e-317 -0.069902 3.70912e-317 -0.0129685)
(0.0551797 0.00518644 2.77512e-317 -0.04554 3.20834e-317 -0.00963969)
(0.0250746 0.00611812 2.72724e-317 -0.0196599 2.82208e-317 -0.00541474)
(-0.0053067 0.00879845 2.65849e-317 0.00623107 2.41359e-317 -0.000924369)
(-0.0374442 0.0135548 2.58302e-317 0.0340655 2.12108e-317 0.0033787)
(-0.0695597 0.0177931 2.51308e-317 0.0627355 1.80049e-317 0.0068242)
(-0.101037 0.0231906 2.45193e-317 0.0922371 1.58458e-317 0.00879956)
(-0.130862 0.024311 2.4137e-317 0.122639 1.33095e-317 0.00822323)
(-0.153046 0.024096 2.37765e-317 0.149159 1.16492e-317 0.00388774)
(-0.168046 0.0163015 2.37277e-317 0.17439 9.69896e-318 -0.00634414)
(-0.160066 0.00418266 2.32804e-317 0.185265 8.66513e-318 -0.0251982)
(-0.13222 -0.0138092 2.29611e-317 0.189371 8.81784e-318 -0.0571511)
(-0.057965 -0.0368435 2.19704e-317 0.166149 1.2963e-317 -0.108185)
(0.0534673 -0.00584023 -2.03804e-317 -0.181752 3.25846e-319 0.128285)
(0.112747 0.0174655 -1.21222e-317 -0.184807 2.3889e-317 0.0720597)
(0.13307 0.0356963 -2.98653e-318 -0.170213 3.45004e-317 0.0371429)
(0.135498 0.0415632 4.66251e-318 -0.151661 3.83913e-317 0.016163)
(0.124624 0.0458623 1.07509e-317 -0.128638 3.80199e-317 0.00401457)
(0.107871 0.0431182 1.51613e-317 -0.105455 3.60768e-317 -0.0024159)
(0.0890593 0.0419458 1.82002e-317 -0.0837651 3.27543e-317 -0.00529422)
(0.067798 0.0393473 2.01341e-317 -0.0618904 2.95811e-317 -0.00590759)
(0.0475687 0.0396021 2.12367e-317 -0.0423639 2.59536e-317 -0.00520474)
(0.0249055 0.0419138 2.17414e-317 -0.021117 2.29978e-317 -0.00378846)
(0.00305617 0.0463323 2.18348e-317 -0.000854957 1.98461e-317 -0.00220121)
(-0.0220191 0.0540164 2.166e-317 0.0228989 1.74924e-317 -0.000879829)
(-0.04722 0.0607155 2.13198e-317 0.0476184 1.49974e-317 -0.000398373)
(-0.074989 0.0695769 2.08592e-317 0.0763552 1.33218e-317 -0.00136613)
(-0.102418 0.0716859 2.03045e-317 0.107225 1.15567e-317 -0.00480708)
(-0.126665 0.0724975 1.95761e-317 0.138656 1.06761e-317 -0.011991)
(-0.145575 0.0592619 1.86187e-317 0.170684 9.95254e-318 -0.0251089)
(-0.144785 0.0399073 1.72283e-317 0.191868 1.03561e-317 -0.0470838)
(-0.124606 0.00399397 1.52916e-317 0.207214 1.14332e-317 -0.0826077)
(-0.0562341 -0.0402916 1.29952e-317 0.194166 1.3101e-317 -0.137932)
(0.0575681 0.0141027 -1.29342e-317 -0.215569 -1.9253e-318 0.158001)
(0.111225 0.0407073 -8.59983e-318 -0.202389 1.34475e-317 0.0911641)
(0.126537 0.0622263 -2.58982e-318 -0.177001 2.20451e-317 0.0504649)
(0.123123 0.0662927 3.08203e-318 -0.149269 2.62029e-317 0.0261461)
(0.111391 0.0697777 7.83183e-318 -0.123228 2.72504e-317 0.0118372)
(0.0943807 0.0643768 1.15789e-317 -0.0981825 2.67043e-317 0.00380186)
(0.0791903 0.0618526 1.43229e-317 -0.0787193 2.49988e-317 -0.000471018)
(0.0615822 0.0577419 1.62688e-317 -0.0591642 2.29815e-317 -0.00241796)
(0.047425 0.0577848 1.75627e-317 -0.0443355 2.05951e-317 -0.00308945)
(0.0300309 0.060376 1.83857e-317 -0.0269363 1.83885e-317 -0.00309463)
(0.0146136 0.0663118 1.88814e-317 -0.0115854 1.61046e-317 -0.00302821)
(-0.0059448 0.0763431 1.91767e-317 0.00923972 1.41746e-317 -0.00329491)
(-0.0267355 0.0861957 1.93804e-317 0.031287 1.22749e-317 -0.00455147)
(-0.0534608 0.0992719 1.95527e-317 0.0608698 1.08064e-317 -0.00740908)
(-0.0813159 0.104728 1.97836e-317 0.0944198 9.46363e-318 -0.0131039)
(-0.110523 0.109858 2.00093e-317 0.133615 8.67468e-318 -0.023092)
(-0.136508 0.0959601 2.03503e-317 0.176671 8.27878e-318 -0.0401625)
(-0.145808 0.0761132 2.05346e-317 0.213851 8.81205e-318 -0.0680431)
(-0.134175 0.0291356 2.07525e-317 0.24739 1.05941e-317 -0.113215)
(-0.0665561 -0.0266567 2.06524e-317 0.251495 1.50031e-317 -0.184939)
(0.0585715 0.0542769 -1.40907e-317 -0.246879 -4.85208e-318 0.188307)
(0.101153 0.0740081 -1.07493e-317 -0.209444 6.68628e-318 0.108291)
(0.110179 0.0899624 -5.55509e-318 -0.170794 1.3611e-317 0.060615)
(0.0992482 0.0852741 -4.46981e-319 -0.131871 1.75595e-317 0.0326226)
(0.0873161 0.0823639 4.1741e-318 -0.103658 1.9202e-317 0.0163421)
(0.0705986 0.0707128 7.90774e-318 -0.0777271 1.9503e-317 0.00712858)
(0.0603186 0.0637014 1.08129e-317 -0.0623885 1.87698e-317 0.00206996)
(0.0479557 0.0565428 1.29487e-317 -0.0474119 1.76061e-317 -0.000543768)
(0.0416122 0.0549023 1.44614e-317 -0.0397883 1.60391e-317 -0.0018239)
(0.0317571 0.057736 1.54858e-317 -0.0292647 1.44674e-317 -0.0024924)
(0.0253062 0.0652873 1.61487e-317 -0.0221797 1.27749e-317 -0.00312642)
(0.0121132 0.0792615 1.65546e-317 -0.00788004 1.12696e-317 -0.00423312)
(-0.000626711 0.0943313 1.67813e-317 0.00710267 9.78687e-318 -0.00647596)
(-0.0234143 0.115357 1.68812e-317 0.0340702 8.62269e-318 -0.0106559)
(-0.0473218 0.128741 1.68702e-317 0.0655054 7.64295e-318 -0.0181837)
(-0.080285 0.144499 1.6758e-317 0.111295 7.20406e-318 -0.0310102)
(-0.110124 0.137066 1.64724e-317 0.162803 7.29246e-318 -0.0526786)
(-0.13298 0.124986 1.60285e-317 0.221349 8.36603e-318 -0.0883689)
(-0.131037 0.0747173 1.52425e-317 0.27806 1.04422e-317 -0.147022)
(-0.073048 0.0134866 1.41576e-317 0.314738 1.33351e-317 -0.24169)
(0.0614896 0.113618 -2.4749e-318 -0.276156 -5.11867e-319 0.214667)
(0.0924084 0.115315 -1.99462e-318 -0.213291 4.35825e-318 0.120883)
(0.0972791 0.116222 2.0151e-319 -0.16419 8.58841e-318 0.0669113)
(0.079133 0.0985085 2.99171e-318 -0.115181 1.15584e-317 0.0360484)
(0.0686752 0.0852001 5.71489e-318 -0.0871396 1.32079e-317 0.0184644)
(0.0522965 0.0660114 8.17714e-318 -0.0609225 1.38871e-317 0.00862604)
(0.0472392 0.0529975 1.01941e-317 -0.0504554 1.37803e-317 0.00321617)
(0.039432 0.0418104 1.17984e-317 -0.0397724 1.32127e-317 0.000340492)
(0.0402946 0.0375228 1.3013e-317 -0.0390835 1.22759e-317 -0.00121112)
(0.0369153 0.0389606 1.39203e-317 -0.0347351 1.11987e-317 -0.0021802)
(0.0384988 0.0471924 1.45996e-317 -0.035288 9.99089e-318 -0.00321079)
(0.0316904 0.0629333 1.51364e-317 -0.026885 8.82546e-318 -0.00480542)
(0.0261073 0.0829449 1.56177e-317 -0.0183473 7.6819e-318 -0.00776)
(0.00650169 0.110463 1.61107e-317 0.00644144 6.72906e-318 -0.0129431)
(-0.0144018 0.134061 1.67162e-317 0.0365185 5.97893e-318 -0.0221168)
(-0.0522995 0.162648 1.74441e-317 0.0899384 5.66919e-318 -0.0376389)
(-0.0876596 0.169661 1.84419e-317 0.151797 5.94822e-318 -0.0641373)
(-0.127089 0.175997 1.9549e-317 0.235594 7.24548e-318 -0.108505)
(-0.13691 0.138592 2.08972e-317 0.320342 1.01015e-317 -0.183432)
(-0.0887503 0.0947606 2.19232e-317 0.397812 1.58387e-317 -0.309062)
(0.0563625 0.184781 -2.24365e-318 -0.280094 1.46154e-319 0.223731)
(0.0730088 0.160448 -1.63391e-318 -0.196443 3.09166e-318 0.123435)
(0.074477 0.13891 3.61844e-319 -0.14161 5.74739e-318 0.0671328)
(0.0507748 0.105317 2.75978e-318 -0.086458 7.89096e-318 0.0356832)
(0.0424585 0.0784212 5.23116e-318 -0.0606574 9.28024e-318 0.0181989)
(0.0275161 0.0510183 7.40124e-318 -0.0361155 1.00235e-317 0.00859932)
(0.0273905 0.0305856 9.22033e-318 -0.0308383 1.0182e-317 0.00344778)
(0.0247474 0.0153102 1.06482e-317 -0.0254837 9.93811e-318 0.000736338)
(0.0323554 0.00763023 1.17344e-317 -0.0316627 9.3602e-318 -0.000692684)
(0.0362034 0.00796073 1.25372e-317 -0.0345615 8.59814e-318 -0.00164188)
(0.0460482 0.0166782 1.31249e-317 -0.0433571 7.68006e-318 -0.00269109)
(0.0472109 0.0351143 1.35633e-317 -0.0427722 6.72589e-318 -0.00443871)
(0.0507302 0.0609108 1.39102e-317 -0.0430769 5.74899e-318 -0.00765322)
(0.0372421 0.0971448 1.42182e-317 -0.0238367 4.87914e-318 -0.0134055)
(0.0240593 0.133963 1.45233e-317 -0.000465484 4.17362e-318 -0.0235938)
(-0.0149877 0.179795 1.48801e-317 0.0561184 3.8576e-318 -0.0411307)
(-0.0485112 0.20807 1.52741e-317 0.119966 4.15229e-318 -0.0714552)
(-0.103065 0.23995 1.57836e-317 0.226364 5.54972e-318 -0.123298)
(-0.119718 0.226471 1.626e-317 0.332314 8.54302e-318 -0.212596)
(-0.0912404 0.207384 1.65162e-317 0.456382 1.3693e-317 -0.365141)
(0.0487859 0.25562 6.24599e-318 -0.259644 4.03388e-318 0.210858)
(0.0521832 0.202693 5.27987e-318 -0.165405 3.16862e-318 0.113221)
(0.0520173 0.154753 5.39836e-318 -0.112144 4.03189e-318 0.060127)
(0.0252011 0.106124 6.26689e-318 -0.0564169 5.25255e-318 0.0312158)
(0.0202267 0.0644591 7.35933e-318 -0.0357852 6.30557e-318 0.0155585)
(0.0072636 0.0294984 8.54208e-318 -0.0144268 7.02309e-318 0.00716322)
(0.0118987 0.00119953 9.59701e-318 -0.0147025 7.35124e-318 0.0028038)
(0.0138007 -0.0186266 1.04993e-317 -0.0143979 7.34538e-318 0.000597173)
(0.0273476 -0.0304691 1.12173e-317 -0.0268388 7.04217e-318 -0.000508799)
(0.0374437 -0.0331364 1.17805e-317 -0.0362013 6.52866e-318 -0.00124248)
(0.0546496 -0.0254072 1.22246e-317 -0.0524789 5.84288e-318 -0.00217075)
(0.0630489 -0.00775519 1.2601e-317 -0.0592041 5.06533e-318 -0.00384474)
(0.0749535 0.0221059 1.29738e-317 -0.0678578 4.23044e-318 -0.00709573)
(0.0675239 0.0625877 1.34028e-317 -0.0545374 3.431e-318 -0.0129865)
(0.0613351 0.112706 1.39956e-317 -0.0377146 2.74407e-318 -0.0236205)
(0.0216274 0.173069 1.48006e-317 0.0204845 2.3586e-318 -0.0421119)
(-0.0119053 0.228947 1.60251e-317 0.0865515 2.53598e-318 -0.0746462)
(-0.0817778 0.292355 1.75851e-317 0.213019 3.80646e-318 -0.131242)
(-0.109749 0.320919 1.97462e-317 0.340859 7.09216e-318 -0.23111)
(-0.100765 0.352296 2.18577e-317 0.508149 1.43772e-317 -0.407384)
(0.0321125 0.315083 4.67086e-318 -0.202082 4.21789e-318 0.169969)
(0.0241013 0.234935 4.59566e-318 -0.112978 3.09306e-318 0.0888765)
(0.0219402 0.161374 5.30294e-318 -0.0677872 3.11401e-318 0.0458471)
(-0.00419281 0.0999175 6.33553e-318 -0.0187758 3.71836e-318 0.0229686)
(-0.0067437 0.0440997 7.51629e-318 -0.00420704 4.43921e-318 0.0109507)
(-0.0163773 0.00284881 8.56826e-318 0.0116727 5.03764e-318 0.00470453)
(-0.00865608 -0.0332307 9.46292e-318 0.00698624 5.39296e-318 0.00166984)
(-0.00225202 -0.0569856 1.01586e-317 0.00197978 5.48718e-318 0.000272242)
(0.0151688 -0.0731772 1.06802e-317 -0.014905 5.32481e-318 -0.000263775)
(0.0310086 -0.0784039 1.10547e-317 -0.0304085 4.95124e-318 -0.000600134)
(0.0535913 -0.0719677 1.13176e-317 -0.0524342 4.39444e-318 -0.0011571)
(0.0693611 -0.0544563 1.15045e-317 -0.0668443 3.70539e-318 -0.00251682)
(0.0889475 -0.0206221 1.16505e-317 -0.0835637 2.91486e-318 -0.00538385)
(0.0899104 0.0255652 1.17905e-317 -0.0790087 2.08757e-318 -0.0109017)
(0.0935974 0.0900267 1.19617e-317 -0.0725611 1.29531e-318 -0.0210362)
(0.059247 0.167889 1.22245e-317 -0.0201736 7.04854e-319 -0.0390734)
(0.0348466 0.254913 1.26173e-317 0.0363597 5.87498e-319 -0.0712063)
(-0.0420255 0.353524 1.32766e-317 0.170149 1.51521e-318 -0.128123)
(-0.0695362 0.429591 1.42292e-317 0.299573 4.40869e-318 -0.230037)
(-0.0858836 0.508591 1.54231e-317 0.497693 1.08185e-317 -0.411809)
(0.013243 0.349188 9.57548e-318 -0.119493 6.23674e-318 0.10625)
(-0.00426299 0.251748 8.75455e-318 -0.0485117 3.1043e-318 0.0527747)
(-0.00775752 0.157634 8.50643e-318 -0.0179622 2.20378e-318 0.0257197)
(-0.0304705 0.0880389 8.76266e-318 0.0186374 2.29975e-318 0.0118331)
(-0.0302684 0.0204073 9.13423e-318 0.0253733 2.83031e-318 0.00489505)
(-0.0359013 -0.0256323 9.57166e-318 0.0344124 3.40529e-318 0.00148893)
(-0.0254492 -0.0684737 9.93829e-318 0.0253504 3.83369e-318 9.87775e-05)
(-0.0149998 -0.0960618 1.02348e-317 0.0153196 4.04014e-318 -0.000319783)
(0.00557806 -0.116564 1.04425e-317 -0.00536573 4.00612e-318 -0.000212332)
(0.0261979 -0.125614 1.05764e-317 -0.0261342 3.7558e-318 -6.36807e-05)
(0.0533852 -0.121797 1.06503e-317 -0.05319 3.31325e-318 -0.000195202)
(0.0756819 -0.10789 1.06869e-317 -0.0745945 2.71623e-318 -0.00108746)
(0.102422 -0.0729989 1.07182e-317 -0.0990253 1.99169e-318 -0.00339696)
(0.111839 -0.0276517 1.07727e-317 -0.103726 1.18542e-318 -0.00811264)
(0.124819 0.0477094 1.09289e-317 -0.107738 3.53133e-319 -0.0170814)
(0.0972378 0.133983 1.12197e-317 -0.0639918 -3.78805e-319 -0.033246)
(0.0789468 0.252224 1.18616e-317 -0.01647 -7.71943e-319 -0.0624767)
(-0.00357954 0.380536 1.28322e-317 0.11849 -3.17002e-319 -0.11491)
(-0.0412398 0.51524 1.45835e-317 0.252076 2.11345e-318 -0.210836)
(-0.0836006 0.659688 1.68686e-317 0.471629 8.97296e-318 -0.388029)
(-0.0107155 0.357085 6.44727e-318 -0.0139306 5.44679e-318 0.0246461)
(-0.0341071 0.248724 6.99755e-318 0.0250833 2.68883e-318 0.00902379)
(-0.0421459 0.14182 7.92167e-318 0.0397812 1.49115e-318 0.00236466)
(-0.057648 0.0684598 8.69905e-318 0.0582398 1.36678e-318 -0.000591756)
(-0.0565734 -0.00748863 9.35944e-318 0.0582181 1.79493e-318 -0.00164465)
(-0.0566687 -0.0563498 9.76151e-318 0.0585507 2.34658e-318 -0.00188197)
(-0.0451153 -0.104618 1.00044e-317 0.0466098 2.79939e-318 -0.00149451)
(-0.0308386 -0.134988 1.01099e-317 0.0317192 3.05375e-318 -0.000880607)
(-0.0095144 -0.159228 1.01236e-317 0.0095841 3.08279e-318 -6.96986e-05)
(0.0145283 -0.171362 1.00673e-317 -0.0151366 2.89931e-318 0.000608301)
(0.042925 -0.170169 9.95427e-318 -0.043945 2.52271e-318 0.00101994)
(0.0703719 -0.159163 9.79204e-318 -0.0710857 1.97962e-318 0.000713833)
(0.100705 -0.123831 9.58168e-318 -0.0999473 1.28783e-318 -0.000758056)
(0.119372 -0.0779982 9.31896e-318 -0.115062 4.73522e-319 -0.0043106)
(0.140566 0.00734797 9.0023e-318 -0.129238 -4.25954e-319 -0.0113281)
(0.126376 0.105082 8.64266e-318 -0.102036 -1.32109e-318 -0.0243409)
(0.121329 0.253671 8.24657e-318 -0.073349 -2.01381e-318 -0.0479803)
(0.0482985 0.415096 7.95532e-318 0.0425595 -2.06889e-318 -0.0908579)
(0.0198004 0.604626 7.87254e-318 0.150012 -5.2989e-319 -0.169813)
(-0.0437488 0.800948 8.57504e-318 0.359174 4.29702e-318 -0.315425)
(-0.0350371 0.331869 9.15598e-318 0.0979726 5.78203e-318 -0.0629355)
(-0.0627945 0.227268 9.49658e-318 0.0993524 1.67085e-318 -0.0365579)
(-0.0732622 0.116916 1.00628e-317 0.0944193 2.22799e-319 -0.0211572)
(-0.0807098 0.0432258 1.04247e-317 0.0934372 1.43383e-319 -0.0127274)
(-0.0782683 -0.036631 1.05238e-317 0.0861454 7.16618e-319 -0.00787709)
(-0.0725528 -0.0870701 1.04688e-317 0.0776112 1.40666e-318 -0.0050584)
(-0.0599239 -0.138148 1.03031e-317 0.0629419 1.96567e-318 -0.003018)
(-0.0421659 -0.170277 1.00942e-317 0.0436303 2.30281e-318 -0.00146441)
(-0.0204814 -0.196902 9.85766e-318 0.020516 2.40297e-318 -3.46065e-05)
(0.00602527 -0.211891 9.60397e-318 -0.0071622 2.28748e-318 0.00113693)
(0.0351951 -0.21381 9.32697e-318 -0.0372375 1.98177e-318 0.00204242)
(0.0666971 -0.207666 9.01822e-318 -0.0690449 1.51236e-318 0.00234783)
(0.100703 -0.175259 8.66936e-318 -0.102429 8.9583e-319 0.00172538)
(0.128282 -0.135428 8.26193e-318 -0.127797 1.51006e-319 -0.000485582)
(0.158371 -0.0472051 7.81265e-318 -0.153099 -6.98204e-319 -0.00527208)
(0.158567 0.0478271 7.29232e-318 -0.144262 -1.59845e-318 -0.0143047)
(0.164617 0.217651 6.82368e-318 -0.1339 -2.40986e-318 -0.0307163)
(0.0998593 0.391104 6.37907e-318 -0.0395613 -2.85308e-318 -0.0602981)
(0.0631331 0.633717 6.34901e-318 0.0525371 -2.07636e-318 -0.11567)
(-0.033921 0.882469 7.20411e-318 0.258541 1.62138e-318 -0.22462)
(-0.0567125 0.279019 6.6921e-318 0.202531 4.76471e-318 -0.145819)
(-0.0883019 0.183299 8.35008e-318 0.166114 7.72936e-319 -0.0778122)
(-0.105973 0.0788408 1.00551e-317 0.147505 -5.98071e-319 -0.0415325)
(-0.102564 0.00985772 1.06993e-317 0.125373 -4.62391e-319 -0.022809)
(-0.0992579 -0.0694561 1.08616e-317 0.11214 2.45995e-319 -0.0128822)
(-0.0863178 -0.118988 1.06316e-317 0.0938499 1.0007e-318 -0.00753211)
(-0.0731072 -0.170638 1.02728e-317 0.0772752 1.57379e-318 -0.00416795)
(-0.0523911 -0.202967 9.86562e-318 0.0542665 1.90803e-318 -0.00187538)
(-0.0323305 -0.230613 9.45923e-318 0.0322699 2.00908e-318 6.06494e-05)
(-0.00536958 -0.247377 9.05773e-318 0.00372648 1.9086e-318 0.00164309)
(0.0207428 -0.251877 8.64699e-318 -0.0237623 1.63386e-318 0.00301953)
(0.0534913 -0.249824 8.20041e-318 -0.0573929 1.20925e-318 0.00390166)
(0.085393 -0.221026 7.6841e-318 -0.0895672 6.49266e-319 0.00417417)
(0.120037 -0.186071 7.05119e-318 -0.123362 -3.67782e-320 0.00332559)
(0.152569 -0.0972701 6.24802e-318 -0.15354 -8.32367e-319 0.000971328)
(0.171393 -0.00117433 5.21953e-318 -0.167621 -1.70933e-318 -0.00377171)
(0.188354 0.185864 3.87357e-318 -0.17648 -2.56091e-318 -0.0118737)
(0.152816 0.380412 2.30274e-318 -0.127271 -3.21794e-318 -0.0255447)
(0.132385 0.667932 4.11102e-319 -0.0833028 -3.15735e-318 -0.0490818)
(0.0339684 0.961153 -6.34701e-319 0.0574461 -1.82737e-318 -0.0914145)
(-0.0817774 0.209978 1.07492e-317 0.297079 3.70959e-318 -0.215302)
(-0.108177 0.127768 1.1591e-317 0.217637 -1.63142e-318 -0.10946)
(-0.127917 0.0351486 1.2367e-317 0.184027 -2.51756e-318 -0.0561099)
(-0.115132 -0.0310288 1.21936e-317 0.144772 -1.69204e-318 -0.0296407)
(-0.110716 -0.105134 1.1588e-317 0.126848 -5.46753e-319 -0.016132)
(-0.091541 -0.152583 1.08503e-317 0.100649 4.49066e-319 -0.00910759)
(-0.0780025 -0.201004 1.01216e-317 0.0829083 1.1306e-318 -0.0049058)
(-0.0550645 -0.231417 9.47626e-318 0.0572253 1.51865e-318 -0.00216079)
(-0.0369307 -0.257693 8.90695e-318 0.0368467 1.65871e-318 8.39758e-05)
(-0.0105358 -0.27453 8.39245e-318 0.00859293 1.60455e-318 0.00194284)
(0.0124662 -0.281036 7.89644e-318 -0.0161142 1.39423e-318 0.00364795)
(0.0451426 -0.282846 7.37931e-318 -0.0501376 1.0574e-318 0.00499504)
(0.0757901 -0.260303 6.79833e-318 -0.0817738 6.0987e-319 0.00598362)
(0.116211 -0.234221 6.1005e-318 -0.12254 6.38382e-320 0.00632887)
(0.153984 -0.153912 5.2503e-318 -0.160057 -5.70013e-319 0.00607297)
(0.190219 -0.0718479 4.17674e-318 -0.195491 -1.27465e-318 0.00527165)
(0.221076 0.113708 2.89062e-318 -0.226008 -1.98549e-318 0.0049317)
(0.20623 0.291719 1.354e-318 -0.213281 -2.65696e-318 0.00705043)
(0.184731 0.602659 -3.08682e-319 -0.199983 -3.00558e-318 0.015252)
(0.0399818 0.902369 -1.31105e-318 -0.0684063 -2.84323e-318 0.0284245)
(-0.0914406 0.107346 1.28405e-317 0.34715 5.20073e-318 -0.25571)
(-0.125809 0.051208 1.3407e-317 0.251861 -6.75348e-319 -0.126052)
(-0.147546 -0.0188171 1.37344e-317 0.210267 -1.67728e-318 -0.0627203)
(-0.123851 -0.0747346 1.28468e-317 0.156149 -8.10564e-319 -0.0322983)
(-0.115274 -0.138873 1.17364e-317 0.132507 1.91292e-319 -0.0172333)
(-0.0893106 -0.181338 1.06135e-317 0.0988912 9.7952e-319 -0.00958063)
(-0.0751178 -0.223942 9.64458e-318 0.0802262 1.45173e-318 -0.00510835)
(-0.0512341 -0.250863 8.84381e-318 0.0534674 1.66602e-318 -0.0022333)
(-0.036539 -0.274133 8.17896e-318 0.0364245 1.68014e-318 0.000114452)
(-0.0129802 -0.289853 7.60437e-318 0.0108946 1.54509e-318 0.00208554)
(0.00367003 -0.297359 7.06725e-318 -0.00765476 1.29675e-318 0.00398474)
(0.0327928 -0.301881 6.51526e-318 -0.0384248 9.57677e-319 0.00563202)
(0.0558467 -0.285623 5.89214e-318 -0.063012 5.41032e-319 0.00716528)
(0.09735 -0.266984 5.12922e-318 -0.105753 5.64421e-320 0.00840253)
(0.129065 -0.197542 4.14935e-318 -0.138879 -4.8249e-319 0.00981428)
(0.18152 -0.125157 2.87894e-318 -0.193589 -1.06123e-318 0.0120693)
(0.21265 0.0533774 1.17055e-318 -0.23076 -1.61594e-318 0.0181093)
(0.24343 0.233668 -8.88389e-319 -0.277332 -2.1289e-318 0.0339024)
(0.236107 0.562658 -3.59408e-318 -0.310603 -2.57092e-318 0.074496)
(0.139578 0.903107 -5.84126e-318 -0.311486 -3.59426e-318 0.171908)
(-0.112872 0.0327029 1.9302e-317 0.38191 1.08362e-318 -0.269038)
(-0.117988 -0.0280132 1.72925e-317 0.243563 -4.88185e-318 -0.125575)
(-0.141485 -0.082869 1.51223e-317 0.202081 -4.43789e-318 -0.0605953)
(-0.110495 -0.135511 1.29744e-317 0.141145 -2.4525e-318 -0.03065)
(-0.101666 -0.187967 1.10811e-317 0.117861 -9.2244e-319 -0.0161955)
(-0.0728285 -0.223194 9.6341e-318 0.0818204 1.31664e-319 -0.00899188)
(-0.0596637 -0.256961 8.51558e-318 0.0644718 7.44616e-319 -0.00480812)
(-0.0366286 -0.277898 7.67453e-318 0.0387565 1.0664e-318 -0.00212789)
(-0.0254866 -0.296139 7.01121e-318 0.0253951 1.18692e-318 9.14588e-05)
(-0.00559496 -0.309019 6.45917e-318 0.00360753 1.17431e-318 0.00198743)
(0.00568879 -0.316395 5.95502e-318 -0.00956658 1.06832e-318 0.00387779)
(0.0302904 -0.322611 5.44356e-318 -0.0359053 8.96166e-319 0.00561495)
(0.0479167 -0.313399 4.87315e-318 -0.0553061 6.73283e-319 0.00738943)
(0.0880003 -0.30369 4.18576e-318 -0.097117 4.0919e-319 0.00911666)
(0.118598 -0.252128 3.33478e-318 -0.130041 1.1448e-319 0.011443)
(0.180508 -0.201076 2.26434e-318 -0.195947 -2.05808e-319 0.0154384)
(0.223402 -0.0520597 9.60948e-319 -0.248483 -5.3241e-319 0.0250809)
(0.274768 0.0818844 -5.58131e-319 -0.323974 -9.02045e-319 0.0492059)
(0.284948 0.382662 -2.26644e-318 -0.395331 -1.43696e-318 0.110382)
(0.120822 0.640218 -3.76321e-318 -0.37076 -2.74873e-318 0.249938)
(-0.0976493 -0.104825 2.43204e-317 0.329161 1.13882e-317 -0.231512)
(-0.124207 -0.118847 2.03512e-317 0.229736 3.62981e-318 -0.105529)
(-0.128662 -0.131922 1.59938e-317 0.178599 1.9743e-318 -0.049937)
(-0.0920261 -0.170302 1.26496e-317 0.117061 2.14134e-318 -0.0250351)
(-0.0759916 -0.201437 1.01592e-317 0.0892186 2.35425e-318 -0.0132271)
(-0.0443693 -0.228379 8.46805e-318 0.051782 2.41895e-318 -0.0074127)
(-0.0325245 -0.25002 7.27362e-318 0.0365349 2.32471e-318 -0.00401044)
(-0.011862 -0.26493 6.43213e-318 0.013679 2.12318e-318 -0.00181705)
(-0.00580914 -0.276748 5.8023e-318 0.00575661 1.85349e-318 5.25263e-05)
(0.00883841 -0.285289 5.29948e-318 -0.0105118 1.54152e-318 0.00167336)
(0.012471 -0.291083 4.85464e-318 -0.0158194 1.20368e-318 0.00334836)
(0.0300118 -0.294979 4.41304e-318 -0.0349447 8.49225e-319 0.00493289)
(0.0368658 -0.291114 3.92085e-318 -0.0435173 4.87821e-319 0.00665156)
(0.0702628 -0.283524 3.31905e-318 -0.0786896 1.26308e-319 0.00842684)
(0.0864283 -0.250448 2.54055e-318 -0.097379 -2.16218e-319 0.0109506)
(0.152589 -0.21019 1.53254e-318 -0.167831 -5.2033e-319 0.0152422)
(0.177607 -0.0999715 1.80719e-319 -0.20306 -7.38757e-319 0.0254528)
(0.278811 0.0194019 -1.38525e-318 -0.33002 -8.43914e-319 0.0512092)
(0.27635 0.279066 -3.38932e-318 -0.398281 -1.01007e-318 0.121932)
(0.259031 0.598377 -5.25143e-318 -0.580349 -1.99856e-318 0.321318)
(-0.0875732 -0.143794 2.06805e-317 0.251146 -4.95108e-318 -0.163573)
(-0.0436485 -0.207793 1.58503e-317 0.113814 -6.97052e-318 -0.0701656)
(-0.0597968 -0.230072 1.10433e-317 0.0924455 -5.11917e-318 -0.0326487)
(-0.0281246 -0.258941 8.27343e-318 0.044512 -2.97884e-318 -0.0163874)
(-0.0192315 -0.283553 6.40043e-318 0.027971 -1.71085e-318 -0.00873945)
(0.00336125 -0.297344 5.26285e-318 0.00164222 -8.91868e-319 -0.00500346)
(0.0110543 -0.310663 4.49259e-318 -0.0082949 -3.87229e-319 -0.00275944)
(0.0250693 -0.317709 3.97092e-318 -0.023771 -5.53749e-320 -0.00129827)
(0.0281859 -0.324342 3.58405e-318 -0.0281894 1.69805e-319 3.45757e-06)
(0.0371895 -0.329962 3.27438e-318 -0.038333 3.29631e-319 0.00114352)
(0.0380553 -0.334203 2.9955e-318 -0.0404195 4.49219e-319 0.00236419)
(0.0486893 -0.340374 2.71363e-318 -0.0522251 5.44688e-319 0.00353584)
(0.0517424 -0.340946 2.39826e-318 -0.0565972 6.25052e-319 0.00485479)
(0.074166 -0.344384 2.01894e-318 -0.0804062 6.95536e-319 0.00624018)
(0.0856444 -0.329015 1.55471e-318 -0.0938686 7.54196e-319 0.00822418)
(0.134252 -0.316918 9.92113e-319 -0.145737 7.91093e-319 0.0114847)
(0.16264 -0.249503 3.61162e-319 -0.181767 7.74226e-319 0.0191269)
(0.237376 -0.198877 -2.80041e-319 -0.275917 6.52285e-319 0.0385408)
(0.282668 -0.016985 -7.67482e-319 -0.376903 2.67255e-319 0.094235)
(0.155742 0.0746942 -1.28742e-318 -0.408439 -7.55693e-319 0.252697)
(0.00764094 -0.310031 1.913e-317 0.0391377 2.50863e-317 -0.0467786)
(-0.0294734 -0.279094 1.4144e-317 0.0532081 1.48055e-317 -0.0237346)
(0.00276975 -0.217672 8.55158e-318 0.00860974 1.03399e-317 -0.0113795)
(0.0281522 -0.231448 5.79844e-318 -0.0223052 7.65914e-318 -0.00584699)
(0.0399564 -0.215157 4.07156e-318 -0.0367585 6.17062e-318 -0.00319783)
(0.0598533 -0.224799 3.16141e-318 -0.0579462 5.03746e-318 -0.00190704)
(0.0615384 -0.220027 2.5882e-318 -0.0604537 4.15027e-318 -0.00108463)
(0.0705882 -0.223809 2.23252e-318 -0.0700447 3.37231e-318 -0.000543596)
(0.0675025 -0.221855 1.98464e-318 -0.0674774 2.67507e-318 -2.50951e-05)
(0.071271 -0.220309 1.80086e-318 -0.0716989 2.03051e-318 0.000427936)
(0.0653594 -0.219358 1.64801e-318 -0.066297 1.43186e-318 0.000937596)
(0.0690711 -0.21162 1.50308e-318 -0.0704958 8.74783e-319 0.00142476)
(0.0614841 -0.210969 1.34369e-318 -0.0634794 3.64793e-319 0.0019953)
(0.0729389 -0.19376 1.14311e-318 -0.0755243 -8.84427e-320 0.00258532)
(0.0652492 -0.192734 8.67525e-319 -0.0686746 -4.61917e-319 0.00342547)
(0.103531 -0.15958 4.89421e-319 -0.108234 -7.28198e-319 0.00470321)
(0.0961655 -0.158539 -6.27908e-320 -0.103789 -8.55974e-319 0.00762325)
(0.204519 -0.100119 -6.76554e-319 -0.219555 -7.93484e-319 0.0150356)
(0.175228 -0.0964583 -1.45952e-318 -0.214972 -7.1434e-319 0.0397435)
(0.319857 0.10663 -2.15134e-318 -0.471854 -9.06067e-319 0.151996)
)
;

boundaryField
{
    cavity
    {
        type            mySigma;
    }
    lid
    {
        type            fixedValue;
        value           uniform (0.1 -0.3 0 -0.1 0 0);
    }
    frontAndBack
    {
        type            empty;
    }
}


// ************************************************************************* //
