/*--------------------------------*- C++ -*----------------------------------*\
| =========                 |                                                 |
| \\      /  F ield         | foam-extend: Open Source CFD                    |
|  \\    /   O peration     | Version:  3.0                                   |
|   \\  /    A nd           | Web:         http://www.extend-project.de       |
|    \\/     M anipulation  |                                                 |
\*---------------------------------------------------------------------------*/
FoamFile
{
    version     2.0;
    format      ascii;
    class       volVectorField;
    location    "3.8";
    object      u;
}
// * * * * * * * * * * * * * * * * * * * * * * * * * * * * * * * * * * * * * //

dimensions      [0 0 0 0 0 0 0];

internalField   nonuniform List<vector> 
400
(
(-0.105795 0.310213 9.13879e-316)
(-0.299 0.290147 8.23254e-316)
(-0.455853 0.304337 7.0357e-316)
(-0.639124 0.302784 6.5393e-316)
(-0.768417 0.279034 5.30133e-316)
(-0.910886 0.261403 5.10475e-316)
(-1.00967 0.224895 3.91771e-316)
(-1.10236 0.183153 3.90083e-316)
(-1.15713 0.140839 2.80298e-316)
(-1.19673 0.0834435 2.90239e-316)
(-1.19782 0.0366815 1.89258e-316)
(-1.17931 -0.0244891 2.07479e-316)
(-1.12505 -0.0734232 1.14085e-316)
(-1.04196 -0.123737 1.37417e-316)
(-0.940781 -0.169363 5.17173e-317)
(-0.789914 -0.193142 7.40762e-317)
(-0.659592 -0.220667 8.41972e-319)
(-0.453878 -0.219161 9.48437e-318)
(-0.306263 -0.196095 -4.11453e-317)
(-0.0937549 -0.207526 -6.7209e-317)
(-0.0439404 0.339962 3.94806e-316)
(-0.206731 0.281234 4.24185e-316)
(-0.318235 0.252925 4.02237e-316)
(-0.441316 0.21334 4.03662e-316)
(-0.538606 0.169382 3.62063e-316)
(-0.62535 0.138059 3.52663e-316)
(-0.69278 0.0915947 3.02079e-316)
(-0.745599 0.0605552 2.88983e-316)
(-0.77869 0.0144492 2.35953e-316)
(-0.799073 -0.0175596 2.23088e-316)
(-0.796523 -0.0674645 1.71294e-316)
(-0.783593 -0.098532 1.60643e-316)
(-0.746097 -0.156817 1.11725e-316)
(-0.695908 -0.184179 1.03308e-316)
(-0.62681 -0.250731 5.77689e-317)
(-0.534197 -0.273658 4.83424e-317)
(-0.441623 -0.336097 6.16413e-318)
(-0.303711 -0.361765 -1.4465e-317)
(-0.20836 -0.392859 -5.57729e-317)
(-0.0284199 -0.436505 -1.1242e-316)
(-0.0180459 0.664451 3.81216e-316)
(-0.221332 0.684762 3.90189e-316)
(-0.321242 0.639093 3.65035e-316)
(-0.469771 0.617969 3.50925e-316)
(-0.57988 0.539184 3.1042e-316)
(-0.679279 0.478126 2.92962e-316)
(-0.764274 0.390507 2.47964e-316)
(-0.827533 0.299136 2.31673e-316)
(-0.872017 0.208348 1.86986e-316)
(-0.904694 0.0999169 1.72602e-316)
(-0.902759 0.00348482 1.29471e-316)
(-0.902248 -0.107254 1.16587e-316)
(-0.852817 -0.212063 7.46079e-317)
(-0.808641 -0.306774 6.16051e-317)
(-0.717561 -0.416563 1.98067e-317)
(-0.61262 -0.472794 3.14985e-318)
(-0.501807 -0.569146 -3.84928e-317)
(-0.317971 -0.569012 -6.40336e-317)
(-0.239598 -0.609469 -1.02948e-316)
(0.0150305 -0.558345 -1.35714e-316)
(-0.0438511 0.680879 4.28434e-317)
(-0.186528 0.723086 1.28339e-316)
(-0.295348 0.617203 1.61442e-316)
(-0.372254 0.595972 1.90606e-316)
(-0.467089 0.48029 1.92594e-316)
(-0.502494 0.413091 1.94365e-316)
(-0.566445 0.312852 1.79644e-316)
(-0.584566 0.221771 1.69057e-316)
(-0.615311 0.129628 1.46761e-316)
(-0.628607 0.0281189 1.31572e-316)
(-0.626839 -0.0716748 1.07022e-316)
(-0.637264 -0.173843 9.12717e-317)
(-0.60185 -0.297036 6.7533e-317)
(-0.600507 -0.386115 5.37159e-317)
(-0.530002 -0.54176 3.32701e-317)
(-0.49456 -0.592578 2.40837e-317)
(-0.396786 -0.768957 1.03794e-317)
(-0.29139 -0.743694 1.09227e-317)
(-0.202874 -0.874294 9.907e-318)
(-0.00577073 -0.753063 3.19035e-317)
(-0.0998279 0.956568 2.05436e-316)
(-0.212343 1.01098 2.16445e-316)
(-0.38838 0.875143 2.12446e-316)
(-0.441829 0.837615 2.04821e-316)
(-0.577498 0.701723 1.90392e-316)
(-0.605388 0.600352 1.7752e-316)
(-0.694013 0.489532 1.58083e-316)
(-0.719874 0.354771 1.43127e-316)
(-0.762777 0.258296 1.21549e-316)
(-0.796021 0.107696 1.05441e-316)
(-0.794135 0.00810365 8.27372e-317)
(-0.833109 -0.146175 6.55211e-317)
(-0.782974 -0.267088 4.14371e-317)
(-0.813903 -0.407234 2.18905e-317)
(-0.709772 -0.564836 -5.04931e-318)
(-0.702118 -0.655517 -3.03005e-317)
(-0.547099 -0.849559 -6.26632e-317)
(-0.451548 -0.832679 -9.9662e-317)
(-0.279485 -0.999312 -1.41013e-316)
(-0.0593027 -0.836366 -1.95851e-316)
(-0.173427 1.07867 -1.62838e-317)
(-0.179492 1.09642 4.89461e-317)
(-0.408649 0.914561 8.1747e-317)
(-0.364694 0.843077 1.08255e-316)
(-0.506962 0.693688 1.1726e-316)
(-0.461655 0.565899 1.21086e-316)
(-0.541923 0.462372 1.15766e-316)
(-0.518969 0.311623 1.08208e-316)
(-0.555563 0.228525 9.56223e-317)
(-0.565091 0.0681999 8.3141e-317)
(-0.565968 -0.0245888 6.76899e-317)
(-0.61094 -0.190089 5.3833e-317)
(-0.571216 -0.324051 3.82719e-317)
(-0.646447 -0.483548 2.56039e-317)
(-0.548993 -0.689361 1.2485e-317)
(-0.633236 -0.805565 4.52527e-318)
(-0.456578 -1.09543 -2.60127e-318)
(-0.499427 -1.08954 3.64507e-319)
(-0.237683 -1.37948 4.36297e-318)
(-0.164266 -1.18209 2.6038e-317)
(-0.278659 1.37293 1.90279e-316)
(-0.176492 1.28915 1.73591e-316)
(-0.510546 1.09142 1.62248e-316)
(-0.399692 0.949577 1.47749e-316)
(-0.588287 0.811453 1.36003e-316)
(-0.519319 0.635259 1.23438e-316)
(-0.619014 0.55206 1.10441e-316)
(-0.60172 0.364873 9.76795e-317)
(-0.645522 0.308699 8.33735e-317)
(-0.681487 0.115524 6.95715e-317)
(-0.682017 0.059301 5.39657e-317)
(-0.771406 -0.143533 3.87211e-317)
(-0.720802 -0.228844 2.131e-317)
(-0.858512 -0.438525 3.29954e-318)
(-0.727292 -0.588563 -1.77181e-317)
(-0.891257 -0.77452 -4.22701e-317)
(-0.631682 -1.02429 -7.06977e-317)
(-0.763626 -1.10742 -1.09649e-316)
(-0.326236 -1.41941 -1.51872e-316)
(-0.320926 -1.3271 -2.1572e-316)
(-0.347107 1.59862 6.80642e-318)
(-0.103652 1.36302 4.76064e-317)
(-0.489581 1.17052 6.84623e-317)
(-0.282245 0.932137 8.546e-317)
(-0.474241 0.830424 9.05347e-317)
(-0.342434 0.60019 9.13681e-317)
(-0.431556 0.556134 8.64809e-317)
(-0.369226 0.340817 7.90924e-317)
(-0.406208 0.319364 6.90296e-317)
(-0.409819 0.108931 5.80417e-317)
(-0.414218 0.0781314 4.58114e-317)
(-0.488708 -0.146652 3.36797e-317)
(-0.451522 -0.224488 2.11859e-317)
(-0.608183 -0.477316 9.79643e-318)
(-0.486946 -0.65252 -1.00817e-318)
(-0.735806 -0.916725 -8.6419e-318)
(-0.446845 -1.24319 -1.47788e-317)
(-0.773061 -1.44039 -1.29514e-317)
(-0.194664 -1.88731 -1.02308e-317)
(-0.491069 -1.91723 6.30836e-318)
(-0.405678 1.85682 2.03585e-316)
(-0.0566098 1.43931 1.67581e-316)
(-0.503865 1.28053 1.47554e-316)
(-0.248849 0.927688 1.2667e-316)
(-0.460776 0.872309 1.12852e-316)
(-0.323427 0.584094 9.91696e-317)
(-0.414502 0.57777 8.71712e-317)
(-0.369333 0.334053 7.52864e-317)
(-0.404574 0.350921 6.32828e-317)
(-0.441031 0.12264 5.12045e-317)
(-0.445557 0.143982 3.85392e-317)
(-0.570043 -0.10395 2.5532e-317)
(-0.532318 -0.10135 1.15727e-317)
(-0.761776 -0.402761 -3.67116e-318)
(-0.623863 -0.457096 -2.07504e-317)
(-0.973446 -0.825734 -4.21396e-317)
(-0.612184 -0.999373 -6.66079e-317)
(-1.06151 -1.39496 -1.03588e-316)
(-0.285206 -1.74681 -1.43681e-316)
(-0.681651 -2.08153 -2.11848e-316)
(-0.36457 2.0704 3.34891e-317)
(0.030755 1.46026 6.1551e-317)
(-0.371615 1.3643 7.34464e-317)
(-0.090919 0.883663 8.32237e-317)
(-0.264602 0.903159 8.33829e-317)
(-0.102444 0.548756 8.06152e-317)
(-0.16527 0.600037 7.39723e-317)
(-0.0870814 0.327621 6.56265e-317)
(-0.108584 0.39085 5.58382e-317)
(-0.101433 0.149193 4.54222e-317)
(-0.109288 0.209778 3.4531e-317)
(-0.182219 -0.0582118 2.36538e-317)
(-0.166159 -0.0270598 1.28823e-317)
(-0.349944 -0.382925 2.86084e-318)
(-0.247374 -0.433089 -6.24739e-318)
(-0.598342 -0.927085 -1.27464e-317)
(-0.260551 -1.14844 -1.73219e-317)
(-0.846671 -1.77139 -1.44577e-317)
(-0.0170443 -2.26831 -9.98453e-318)
(-0.772916 -2.89455 7.42846e-318)
(-0.307396 2.18042 2.09329e-316)
(0.0898361 1.44187 1.65708e-316)
(-0.259444 1.39554 1.4182e-316)
(-0.0074904 0.818994 1.18317e-316)
(-0.146103 0.881031 1.02917e-316)
(-0.0182236 0.484492 8.83976e-317)
(-0.0553257 0.562228 7.61826e-317)
(-0.0102134 0.278355 6.44481e-317)
(-0.0180124 0.366517 5.31709e-317)
(-0.0458238 0.125217 4.20381e-317)
(-0.0546183 0.225807 3.08928e-317)
(-0.172144 -0.0454114 1.96593e-317)
(-0.172044 0.0643106 8.12797e-318)
(-0.42018 -0.322004 -4.23235e-318)
(-0.340318 -0.218409 -1.75052e-317)
(-0.781374 -0.817056 -3.43262e-317)
(-0.439149 -0.772598 -5.29538e-317)
(-1.11859 -1.64566 -8.3528e-317)
(-0.181327 -1.84614 -1.15497e-316)
(-0.927625 -2.86707 -1.7663e-316)
(-0.130349 2.26748 4.67456e-317)
(0.126053 1.41043 7.4654e-317)
(-0.0343526 1.44763 8.20737e-317)
(0.14965 0.773049 8.78426e-317)
(0.107466 0.907055 8.39043e-317)
(0.222115 0.459909 7.79409e-317)
(0.233962 0.588017 6.92006e-317)
(0.3009 0.289432 5.95965e-317)
(0.314163 0.420484 4.94363e-317)
(0.339557 0.180563 3.91602e-317)
(0.329866 0.324372 2.89671e-317)
(0.302279 0.0490101 1.90794e-317)
(0.27466 0.20114 9.68233e-318)
(0.158609 -0.227286 1.18709e-318)
(0.169083 -0.0981578 -5.92834e-318)
(-0.114543 -0.832375 -1.01575e-317)
(0.09833 -0.829398 -1.13886e-317)
(-0.4961 -1.99699 -3.55989e-318)
(0.239191 -2.42103 8.25472e-318)
(-0.735943 -3.88157 4.06955e-317)
(0.0293807 2.18776 1.97601e-316)
(0.185785 1.35424 1.6115e-316)
(0.175073 1.37403 1.37904e-316)
(0.255259 0.691668 1.14965e-316)
(0.299026 0.817632 9.87103e-317)
(0.34753 0.372971 8.36288e-317)
(0.410224 0.495526 7.08698e-317)
(0.435744 0.21033 5.89466e-317)
(0.472925 0.33785 4.78509e-317)
(0.467291 0.116883 3.7244e-317)
(0.456506 0.266421 2.70517e-317)
(0.395678 0.0109068 1.71637e-317)
(0.336611 0.198989 7.54243e-318)
(0.170056 -0.221452 -2.21211e-318)
(0.109467 0.0252256 -1.1903e-317)
(-0.254929 -0.75202 -2.36984e-317)
(-0.141702 -0.449029 -3.56093e-317)
(-0.816235 -1.77926 -5.64449e-317)
(-0.108012 -1.67306 -7.61564e-317)
(-0.948637 -3.33494 -1.16359e-316)
(0.222045 2.09088 5.33137e-317)
(0.13302 1.28562 9.48233e-317)
(0.39971 1.38325 9.75415e-317)
(0.39082 0.663949 9.88433e-317)
(0.562793 0.82443 8.97683e-317)
(0.591513 0.362539 7.98855e-317)
(0.708313 0.510494 6.8535e-317)
(0.75078 0.233686 5.73218e-317)
(0.809332 0.391189 4.64042e-317)
(0.858446 0.191562 3.59572e-317)
(0.850902 0.381239 2.60619e-317)
(0.901144 0.14653 1.67982e-317)
(0.820688 0.385748 8.36681e-318)
(0.856988 -0.0402384 1.09528e-318)
(0.714594 0.252401 -4.37118e-318)
(0.690838 -0.622433 -6.37682e-318)
(0.574827 -0.358706 -4.36039e-318)
(0.3559 -2.00891 9.59198e-318)
(0.499577 -2.27565 2.94469e-317)
(-0.18399 -4.68905 8.43743e-317)
(0.512372 1.9165 1.76336e-316)
(0.230638 1.21271 1.56116e-316)
(0.66077 1.17713 1.33921e-316)
(0.50299 0.562558 1.11513e-316)
(0.772164 0.663844 9.45747e-317)
(0.726839 0.259684 7.9081e-317)
(0.901544 0.375382 6.61271e-317)
(0.905186 0.135114 5.43218e-317)
(0.990262 0.261661 4.36354e-317)
(1.01478 0.0926623 3.36764e-317)
(1.00775 0.246113 2.44248e-317)
(1.03393 0.0477443 1.57591e-317)
(0.918731 0.251576 7.7263e-318)
(0.910118 -0.121868 1.28472e-319)
(0.668853 0.174277 -6.772e-318)
(0.539413 -0.628571 -1.44718e-317)
(0.243238 -0.180927 -2.14114e-317)
(-0.179785 -1.72592 -3.41263e-317)
(-0.100837 -1.29356 -4.54191e-317)
(-0.849367 -3.16764 -6.78305e-317)
(0.432444 1.55532 1.32746e-316)
(0.148488 1.17109 1.6175e-316)
(0.828196 1.17443 1.42383e-316)
(0.699334 0.573573 1.26483e-316)
(1.08637 0.652991 1.06459e-316)
(1.04679 0.261179 8.90501e-317)
(1.25952 0.374765 7.32638e-317)
(1.27691 0.164216 5.92095e-317)
(1.37413 0.307511 4.65858e-317)
(1.44589 0.176119 3.50751e-317)
(1.44679 0.364974 2.45699e-317)
(1.58427 0.21044 1.49755e-317)
(1.47031 0.474481 6.43178e-318)
(1.69702 0.141964 -7.9715e-319)
(1.40529 0.521578 -5.98732e-318)
(1.76123 -0.310155 -7.34553e-318)
(1.19512 0.170626 -4.31295e-318)
(1.70317 -1.74088 1.26192e-317)
(0.757186 -1.74299 3.56006e-317)
(1.10443 -5.27388 1.01601e-316)
(1.096 1.50857 1.53054e-316)
(0.251434 0.94209 1.24075e-316)
(1.01134 0.805461 1.05413e-316)
(0.686588 0.385623 8.54788e-317)
(1.0962 0.427581 7.28167e-317)
(0.999957 0.140386 6.09437e-317)
(1.238 0.220015 5.14097e-317)
(1.22713 0.0593346 4.26352e-317)
(1.33886 0.153072 3.47006e-317)
(1.38206 0.0519265 2.73228e-317)
(1.38611 0.166458 2.05292e-317)
(1.47986 0.0489799 1.42999e-317)
(1.34952 0.199906 8.75241e-318)
(1.487 -0.0510696 3.79739e-318)
(1.13441 0.166775 -4.12817e-319)
(1.27146 -0.454462 -5.01698e-318)
(0.607048 -0.104015 -9.61235e-318)
(0.524022 -1.41954 -1.98847e-317)
(-0.0931068 -0.90435 -3.21069e-317)
(-1.00659 -2.03897 -6.006e-317)
(0.269113 0.703861 4.72999e-316)
(0.45918 1.20598 3.52888e-316)
(1.44198 0.875181 2.6555e-316)
(1.38526 0.503634 2.01195e-316)
(1.97052 0.438777 1.57006e-316)
(1.88833 0.160786 1.23335e-316)
(2.17087 0.220801 9.74553e-317)
(2.15894 0.0934318 7.59767e-317)
(2.27769 0.202393 5.77111e-317)
(2.37308 0.142052 4.1505e-317)
(2.39047 0.297767 2.69319e-317)
(2.63107 0.231914 1.36068e-317)
(2.52905 0.46518 1.5722e-318)
(2.98183 0.27913 -8.93103e-318)
(2.61826 0.652837 -1.71182e-317)
(3.42182 0.0300806 -2.0991e-317)
(2.38624 0.643297 -1.94936e-317)
(3.85658 -1.26694 -2.6627e-318)
(1.18362 -0.721405 2.15966e-317)
(3.67057 -5.78096 8.66934e-317)
(1.7674 1.0286 -8.26708e-317)
(0.262745 0.256072 -8.23659e-317)
(0.805806 0.255063 -5.13674e-317)
(0.487584 0.0727357 -3.41651e-317)
(0.696287 0.125085 -1.97059e-317)
(0.634944 0.0180552 -1.08647e-317)
(0.778485 0.0568837 -4.39419e-318)
(0.768293 -0.00377615 -1.36263e-320)
(0.844724 0.0296763 3.2181e-318)
(0.855921 -0.0073553 5.67005e-318)
(0.867996 0.0263837 7.7382e-318)
(0.898215 -0.015157 9.72769e-318)
(0.824738 0.0181398 1.17805e-317)
(0.871995 -0.0716741 1.38983e-317)
(0.646217 -0.0490742 1.58016e-317)
(0.69063 -0.270407 1.60882e-317)
(0.262248 -0.296812 1.35154e-317)
(0.0595252 -0.677505 5.73131e-319)
(-0.0220077 -0.761808 -2.04033e-317)
(-2.3297 0.635245 -7.68165e-317)
(-0.43914 -0.417664 1.31869e-315)
(1.47479 1.68406 7.95299e-316)
(3.19523 0.708614 5.62707e-316)
(3.26034 0.533881 4.02415e-316)
(4.32259 0.333316 3.09832e-316)
(4.10395 0.101566 2.41209e-316)
(4.5364 0.133749 1.90008e-316)
(4.45183 0.0487183 1.47489e-316)
(4.61682 0.1439 1.11037e-316)
(4.77683 0.122596 7.84559e-317)
(4.83848 0.263713 4.87637e-317)
(5.33149 0.249391 2.1268e-317)
(5.29607 0.465346 -4.04995e-318)
(6.26427 0.372603 -2.68778e-317)
(5.89794 0.732103 -4.5871e-317)
(7.59563 0.247479 -5.83878e-317)
(5.92064 0.966477 -6.15233e-317)
(8.94192 -1.05312 -4.41678e-317)
(2.75938 0.634226 -1.44001e-317)
(8.83286 -6.72823 5.67605e-317)
)
;

boundaryField
{
    cavity
    {
        type            myImplicitVelocity;
    }
    lid
    {
        type            fixedValue;
        value           uniform (1 0 0);
    }
    frontAndBack
    {
        type            empty;
    }
}


// ************************************************************************* //
