/*--------------------------------*- C++ -*----------------------------------*\
| =========                 |                                                 |
| \\      /  F ield         | foam-extend: Open Source CFD                    |
|  \\    /   O peration     | Version:  3.0                                   |
|   \\  /    A nd           | Web:         http://www.extend-project.de       |
|    \\/     M anipulation  |                                                 |
\*---------------------------------------------------------------------------*/
FoamFile
{
    version     2.0;
    format      ascii;
    class       volScalarField;
    location    "1";
    object      p;
}
// * * * * * * * * * * * * * * * * * * * * * * * * * * * * * * * * * * * * * //

dimensions      [0 0 0 0 0 0 0];

internalField   nonuniform List<scalar> 
2000
(
-0.250413
-0.31505
-0.280134
-0.246734
-0.229995
-0.230052
-0.231316
-0.226951
-0.245426
-0.191124
-0.221606
-0.282547
-0.249437
-0.215653
-0.206997
-0.207363
-0.221219
-0.227554
-0.256065
-0.198826
-0.202509
-0.258341
-0.225842
-0.200031
-0.18447
-0.193831
-0.198865
-0.224625
-0.264468
-0.211243
-0.175131
-0.224746
-0.196515
-0.171477
-0.162206
-0.166726
-0.18591
-0.211774
-0.278101
-0.229896
-0.152272
-0.195994
-0.171392
-0.152634
-0.144855
-0.159063
-0.180884
-0.230609
-0.312122
-0.308423
-0.121099
-0.157065
-0.136133
-0.122604
-0.11575
-0.131388
-0.156765
-0.214329
-0.310027
-0.354493
-0.101845
-0.130083
-0.115341
-0.105698
-0.10634
-0.125305
-0.15944
-0.22218
-0.320936
-0.406771
-0.0638733
-0.0852025
-0.0739876
-0.0704735
-0.0713183
-0.0937085
-0.125591
-0.186862
-0.262372
-0.365596
-0.0499084
-0.0621669
-0.0576146
-0.0565993
-0.0639876
-0.083731
-0.116658
-0.15947
-0.185047
-0.241375
-0.00613576
-0.011831
-0.0112787
-0.0162918
-0.0256312
-0.0491408
-0.0831713
-0.132875
-0.180774
-0.273732
-36.7668
-12.5979
14.4055
21.5635
18.3702
12.508
7.41348
3.97211
1.90491
0.753904
-82.4464
-39.6158
2.14791
18.5141
19.0699
14.041
8.69986
4.80918
2.38844
1.01517
-27.4689
-17.3428
-2.61911
4.22218
5.37396
4.20826
2.62921
1.40553
0.609618
0.125227
-9.93762
-7.812
-2.5437
0.334061
1.14474
1.00847
0.579215
0.21921
-0.0296177
-0.192074
-3.51907
-3.3583
-1.53166
-0.380552
0.0227927
0.0610214
-0.0509438
-0.148685
-0.222066
-0.28429
-1.29148
-1.46886
-0.871543
-0.431282
-0.259146
-0.216172
-0.250716
-0.277914
-0.291965
-0.315671
-0.546453
-0.747948
-0.547837
-0.366143
-0.295769
-0.268479
-0.288535
-0.290623
-0.293043
-0.299653
-0.351941
-0.487331
-0.412342
-0.32796
-0.298178
-0.290281
-0.288969
-0.296365
-0.280287
-0.293932
-0.290822
-0.384712
-0.342293
-0.289707
-0.272859
-0.266289
-0.275693
-0.270011
-0.259544
-0.254086
-0.265523
-0.349743
-0.311195
-0.267868
-0.252261
-0.251742
-0.249247
-0.244398
-0.224934
-0.200346
0.175675
-0.0617883
-0.251288
-0.342575
-0.386763
-0.45251
-0.391112
-0.359053
-0.292925
-0.206612
-0.175132
-0.104647
-0.0943478
-0.0571818
-0.0522721
-0.0357379
-0.030162
-0.0211708
-0.0134311
-0.0052593
0.362214
0.0381818
-0.207876
-0.333019
-0.384075
-0.44998
-0.387471
-0.348938
-0.283824
-0.197668
-0.167271
-0.100737
-0.0906187
-0.0566322
-0.0515042
-0.0364236
-0.0305754
-0.022034
-0.0138845
-0.0058285
-0.0700332
-0.159075
-0.289404
-0.357733
-0.391423
-0.451592
-0.387641
-0.353843
-0.285603
-0.201883
-0.16861
-0.102373
-0.0909074
-0.0567812
-0.0512864
-0.036119
-0.0302977
-0.0216775
-0.0137431
-0.00559206
-0.246376
-0.256696
-0.344485
-0.393227
-0.41035
-0.456469
-0.389651
-0.350085
-0.281295
-0.200132
-0.1643
-0.102857
-0.0888289
-0.0579008
-0.0509384
-0.0370249
-0.030514
-0.0221076
-0.0138623
-0.00561085
-0.285126
-0.260204
-0.330248
-0.371279
-0.395186
-0.438986
-0.37446
-0.333684
-0.263173
-0.186261
-0.150053
-0.0944113
-0.0809122
-0.053621
-0.0471937
-0.0348075
-0.0287792
-0.0208638
-0.0132137
-0.00512573
-0.310445
-0.285259
-0.34063
-0.369599
-0.392388
-0.4261
-0.378653
-0.336932
-0.272882
-0.19817
-0.156561
-0.103241
-0.083765
-0.0579478
-0.0485315
-0.0366026
-0.0294434
-0.0213894
-0.0134074
-0.00502935
-0.290243
-0.256329
-0.321339
-0.356272
-0.390053
-0.408185
-0.358432
-0.300646
-0.236552
-0.16477
-0.128234
-0.0846159
-0.0694534
-0.0498271
-0.0424666
-0.032974
-0.0267927
-0.0195563
-0.0124095
-0.00443733
-0.283252
-0.257697
-0.28958
-0.315635
-0.350091
-0.371055
-0.355721
-0.306447
-0.256324
-0.186058
-0.143835
-0.0987085
-0.0765014
-0.0558298
-0.0450951
-0.0350583
-0.0276925
-0.020061
-0.0126058
-0.00433678
-0.255758
-0.23363
-0.289669
-0.332215
-0.370841
-0.369632
-0.33734
-0.268374
-0.21332
-0.147439
-0.112016
-0.0772475
-0.0612167
-0.0464071
-0.0385144
-0.0306849
-0.0245683
-0.0178352
-0.0113396
-0.00373581
-0.205003
-0.190354
-0.224192
-0.271069
-0.305506
-0.329655
-0.328
-0.280547
-0.233605
-0.170596
-0.127693
-0.0899667
-0.0677019
-0.050975
-0.040523
-0.0319191
-0.0250124
-0.0179789
-0.0113406
-0.00365155
-0.10268
-0.135654
-0.210008
-0.281988
-0.330395
-0.324776
-0.304402
-0.243168
-0.191618
-0.13612
-0.100096
-0.0711637
-0.0545349
-0.0420002
-0.0341028
-0.0271588
-0.0215136
-0.0154605
-0.00985445
-0.0031151
-0.118928
-0.0671356
-0.202058
-0.283149
-0.313704
-0.297588
-0.26542
-0.206157
-0.161728
-0.115041
-0.0865243
-0.0632065
-0.0494821
-0.0389184
-0.0317142
-0.0253416
-0.0199856
-0.0142948
-0.00910407
-0.00283431
-0.141006
0.0954682
-0.130991
-0.234075
-0.287827
-0.254063
-0.220558
-0.164413
-0.124867
-0.0893152
-0.0671107
-0.0505153
-0.0403667
-0.0324476
-0.0268487
-0.0215924
-0.0171556
-0.0122485
-0.00786587
-0.00238911
-0.325888
0.399787
0.0836836
-0.109343
-0.192937
-0.189064
-0.167345
-0.126963
-0.0997517
-0.0731596
-0.0573613
-0.0444839
-0.0363441
-0.0296292
-0.0245639
-0.0197712
-0.0156505
-0.011126
-0.00714017
-0.00212997
-0.885178
0.904175
0.486455
0.149008
-0.0439715
-0.093272
-0.10221
-0.0864049
-0.0704334
-0.055489
-0.0445551
-0.0360293
-0.0299862
-0.0248119
-0.0207728
-0.0167679
-0.0133455
-0.00946704
-0.00611902
-0.00177931
-2.39102
1.44929
1.16838
0.590925
0.224157
0.059653
-0.0154167
-0.0379201
-0.0447126
-0.0410168
-0.0365726
-0.0310754
-0.026574
-0.0222804
-0.018693
-0.0151066
-0.0119979
-0.00848675
-0.00548464
-0.00156771
-6.05586
1.34516
1.97982
1.22469
0.635469
0.300544
0.123372
0.0355591
-0.00333197
-0.0189747
-0.0233799
-0.0229842
-0.0210334
-0.0182457
-0.0156336
-0.0127492
-0.0102154
-0.00723032
-0.00470533
-0.00131259
-13.9578
-1.56248
2.24239
1.83009
1.15037
0.642187
0.322471
0.14509
0.0536639
0.0107436
-0.00797061
-0.0146346
-0.016139
-0.0151636
-0.0134623
-0.0111827
-0.00903451
-0.00641029
-0.0041811
-0.00114477
-28.8921
-12.7358
-0.35731
1.42195
1.39911
0.947182
0.544004
0.278821
0.129648
0.0519699
0.0144301
-0.00230046
-0.00904684
-0.0108084
-0.0106073
-0.00921194
-0.00763783
-0.00546923
-0.00359934
-0.000956998
-51.9479
-43.8461
-11.7961
-2.83843
0.0949438
0.642452
0.52373
0.317847
0.166865
0.0772942
0.0296769
0.00643554
-0.00397838
-0.00778539
-0.00864191
-0.0078788
-0.00667905
-0.00482052
-0.00318511
-0.000823667
-73.8808
-115.503
-45.0232
-17.6101
-6.04454
-1.86724
-0.499593
-0.10232
-0.0069025
0.00498823
-0.000484694
-0.00603341
-0.00894244
-0.0095101
-0.00897196
-0.00765286
-0.00626967
-0.00444489
-0.00290752
-0.000749022
-52.3004
-253.266
-122.673
-55.4274
-23.722
-10.0125
-4.23478
-1.81969
-0.801717
-0.365445
-0.174163
-0.0878578
-0.0475137
-0.0276315
-0.0173468
-0.0114176
-0.00786129
-0.00508019
-0.00314047
-0.000896252
134.684
-459.726
-270.874
-132.659
-62.7482
-29.117
-13.3925
-6.17168
-2.86915
-1.35057
-0.645201
-0.313604
-0.155776
-0.0794746
-0.0420523
-0.0230963
-0.0133019
-0.00760349
-0.00431734
-0.00150514
757.221
-632.428
-481.736
-250.501
-127.197
-62.1331
-29.5559
-13.9085
-6.54821
-3.10301
-1.48352
-0.716191
-0.349517
-0.172741
-0.0868656
-0.044557
-0.0235314
-0.0125024
-0.00674442
-0.00279037
2300.51
-411.811
-607.537
-335.626
-184.241
-93.5552
-44.931
-20.9891
-9.73527
-4.53835
-2.13823
-1.01965
-0.492116
-0.240359
-0.119046
-0.0598784
-0.0308276
-0.0160879
-0.00874547
-0.00415716
5595.41
960.961
-181.24
-135.889
-106.577
-59.7217
-27.6337
-11.43
-4.42929
-1.66549
-0.62792
-0.245576
-0.102975
-0.0473919
-0.0242265
-0.0135817
-0.00839699
-0.00550902
-0.00431801
-0.0030121
12870.7
4670.43
1692.06
819.943
342.645
151.335
73.3409
37.6783
19.6829
10.2131
5.21992
2.6256
1.30205
0.637977
0.309186
0.148181
0.0697261
0.0315905
0.0121674
0.00271179
32637.1
13443
6332.02
3134.28
1450.93
666.478
309.904
146.414
70.0651
33.8017
16.3733
7.94115
3.8498
1.86364
0.900021
0.433048
0.206516
0.0959563
0.039828
0.00922711
84001.2
40461.6
17858.8
8807.45
4299.34
2088.29
1011.11
488.565
235.788
113.727
54.8432
26.4481
12.7556
6.15177
2.96589
1.42821
0.6846
0.322514
0.140573
0.0394534
45561.3
19623.7
9143.78
4341.53
2067.4
991.394
477.921
230.876
111.514
53.8004
25.9255
12.4825
6.0071
2.88996
1.38953
0.667107
0.318535
0.149263
0.064533
0.0197202
-0.44497
-0.9578
-0.59185
-0.240688
0.145249
0.35113
0.422201
0.342256
0.211301
0.0127262
-0.700327
-2.64255
-1.78035
-0.849492
0.145099
0.749848
0.989359
0.876113
0.632344
0.240819
-1.45005
-7.65186
-6.04337
-3.95419
-1.47756
0.344484
1.34813
1.57636
1.32009
0.661011
-2.9941
-20.3097
-17.5465
-13.0878
-7.27218
-2.41154
0.778673
2.20868
2.3274
1.27872
-5.89314
-50.5395
-46.3548
-37.3293
-24.4072
-12.4867
-3.68328
1.32425
3.12893
1.9829
-10.8376
-119.198
-114.216
-96.829
-69.6408
-42.1717
-19.9788
-5.52588
1.63652
1.86465
-18.0012
-267.566
-264.957
-232.977
-178.991
-119.333
-67.4168
-30.2307
-8.58601
-1.96786
-25.0415
-572.101
-580.691
-524.101
-423.872
-301.924
-188.571
-100.907
-44.1117
-17.4213
-21.4705
-1161.51
-1199.17
-1100.42
-929.305
-696.654
-466.638
-276.389
-142.242
-62.9872
24.8856
-2222.4
-2313.7
-2134.67
-1874.78
-1467.62
-1039.8
-662.448
-375.386
-175.735
198.804
-3948.13
-4095.79
-3733.9
-3409.29
-2779.24
-2072.79
-1405.14
-855.991
-415.042
707.376
-6312.82
-6393.44
-5554.48
-5310.24
-4528.34
-3574.27
-2583.5
-1683.03
-834.898
2047.99
-8388.22
-7880.82
-5775.07
-6033.95
-5563.28
-4820.36
-3824.99
-2709.4
-1355.29
5468.29
-6541.9
-3974.78
1224.23
-575.009
-1926.01
-3030.13
-3378.49
-2938.06
-1420.35
14375.8
10120.3
18092.6
29674.4
23682.8
16309.2
8882.53
3417.99
486.743
558.388
38796.8
71542.3
91978.5
113317
95180.8
70184
45105.3
25491.5
12894.6
7373.95
108689
258880
311174
339863
283787
207216
134087
78060.7
41630.1
21964.3
306634
792036
961496
993481
826891
596747
381567
219529
115151
56992.7
827970
2.21204e+06
2.81912e+06
2.89136e+06
2.4431e+06
1.7854e+06
1.15644e+06
675036
359303
175783
545366
1.09939e+06
1.47735e+06
1.50083e+06
1.26293e+06
918126
591462
344064
183412
92120.4
0.193965
0.202538
0.211603
0.223638
0.225084
0.226568
0.245849
0.283324
0.322839
0.2572
0.1838
0.174555
0.192866
0.205255
0.199553
0.202025
0.212321
0.248986
0.285446
0.223672
0.157
0.13575
0.164778
0.171216
0.181939
0.17945
0.197933
0.225332
0.258911
0.202759
0.0946426
0.0803451
0.111736
0.138002
0.145716
0.153656
0.16829
0.195603
0.224859
0.175319
0.0447854
0.0308652
0.0761103
0.104726
0.124728
0.130605
0.147299
0.16973
0.195756
0.152391
-0.0718478
-0.0563576
-0.00672982
0.045919
0.0803264
0.0940491
0.114242
0.133363
0.156425
0.121097
-0.170283
-0.111812
-0.0711904
0.011831
0.0562956
0.0763591
0.0938011
0.111193
0.128947
0.101666
-0.278025
-0.203819
-0.172717
-0.0532846
0.00931748
0.0339534
0.055255
0.0684833
0.0835653
0.0635228
-0.278644
-0.25466
-0.207215
-0.0611881
-0.00041339
0.0261535
0.040882
0.0518002
0.060378
0.0494769
-0.098139
-0.0570425
-0.0846573
-0.0615797
-0.0328738
-0.0159158
-0.00264636
0.0036219
0.00919383
0.00530944
-0.700864
-1.77432
-3.72368
-7.00373
-11.8231
-17.2607
-19.8608
-12.0635
14.7801
37.6499
-1.11188
-2.44438
-4.97731
-9.0793
-14.7442
-20.2006
-20.0441
-3.75345
38.4679
81.3639
0.0636286
-0.239061
-0.852161
-1.78233
-3.00668
-3.86871
-2.66245
3.88334
18.6849
29.5386
0.143821
0.0733108
-0.169869
-0.461207
-0.742171
-0.634875
0.422061
3.2818
8.44658
10.5777
0.297464
0.312162
0.255592
0.187123
0.11864
0.240939
0.773213
1.97897
3.7562
3.80184
0.34023
0.362158
0.371667
0.370598
0.358851
0.429283
0.648501
1.13183
1.73146
1.49514
0.312173
0.324231
0.335659
0.349652
0.344629
0.386201
0.475496
0.683216
0.903902
0.684934
0.29933
0.290213
0.310112
0.308298
0.316616
0.333085
0.373504
0.474035
0.569016
0.428553
0.265068
0.265413
0.272226
0.277537
0.269719
0.280412
0.303797
0.366439
0.422506
0.325239
0.233614
0.234416
0.240043
0.243538
0.246903
0.24977
0.269422
0.3187
0.365098
0.2777
0.0383891
0.0446596
0.0441759
0.0515032
0.0510343
0.0661241
0.0668474
0.102867
0.11048
0.180174
0.210164
0.296132
0.361811
0.394226
0.456367
0.392184
0.350141
0.261339
0.0741008
-0.234296
0.0390652
0.0450112
0.044686
0.0514223
0.0512506
0.0648244
0.0658751
0.0987184
0.106292
0.172113
0.201235
0.287319
0.352557
0.392559
0.458229
0.399224
0.362269
0.266103
0.050973
-0.28377
0.0394684
0.0450139
0.0447187
0.0512077
0.0511406
0.0646049
0.0661004
0.0989853
0.107969
0.173482
0.205568
0.289287
0.357727
0.392812
0.4589
0.40213
0.373061
0.311656
0.193778
0.0901471
0.0399656
0.0449092
0.0449798
0.0508365
0.0515907
0.0635936
0.0667062
0.0963092
0.10797
0.16865
0.203352
0.284502
0.353627
0.394898
0.465118
0.425383
0.418866
0.38653
0.314829
0.280939
0.0391324
0.0432857
0.0433547
0.0482971
0.0489532
0.0591861
0.0620232
0.0878731
0.0991741
0.153994
0.189124
0.265884
0.336498
0.378418
0.445385
0.406457
0.391314
0.365114
0.312793
0.347933
0.0392479
0.0427359
0.0433821
0.0479532
0.0500078
0.059565
0.0656354
0.0899491
0.107409
0.159886
0.200475
0.274882
0.338738
0.380867
0.429362
0.397992
0.379775
0.359212
0.31595
0.358264
0.0370475
0.0396615
0.0402722
0.0437351
0.0453665
0.0523471
0.0567477
0.0748304
0.0882395
0.131008
0.166646
0.238035
0.301784
0.359523
0.409426
0.391922
0.359694
0.328405
0.269749
0.314287
0.0363208
0.0384001
0.0396458
0.0431243
0.0463066
0.0537249
0.0618367
0.0809904
0.101711
0.14605
0.187537
0.257419
0.307177
0.35617
0.371144
0.349762
0.315088
0.290556
0.262691
0.292177
0.0330166
0.0343597
0.0355219
0.0380933
0.0406467
0.0458909
0.0515868
0.0649334
0.0797619
0.113795
0.148634
0.214137
0.268826
0.337378
0.369023
0.369252
0.329624
0.288868
0.241468
0.260151
0.0313749
0.0323484
0.0340026
0.036734
0.0404817
0.0465413
0.05517
0.0705468
0.0918948
0.128986
0.171467
0.234139
0.280759
0.327732
0.328591
0.30323
0.268016
0.224888
0.222222
0.234886
0.0279021
0.0282488
0.0296545
0.0316248
0.034655
0.039197
0.0456283
0.0568856
0.0727932
0.101078
0.136692
0.191694
0.242705
0.3032
0.322924
0.329189
0.2868
0.233833
0.213882
0.186757
0.0261702
0.0261162
0.0275959
0.0292866
0.0323678
0.0363862
0.0423223
0.0516109
0.0646819
0.0872986
0.11535
0.161429
0.205252
0.263977
0.296694
0.317763
0.30567
0.269647
0.234014
0.213885
0.0233105
0.0228014
0.024092
0.0252328
0.0278022
0.0308445
0.0354156
0.0421189
0.0517095
0.0675933
0.0893515
0.124395
0.16384
0.221073
0.259687
0.31037
0.304228
0.300859
0.253138
0.215759
0.0216874
0.0208537
0.0221408
0.0230176
0.0255303
0.0281797
0.0323536
0.0378786
0.0455159
0.0577519
0.0733695
0.100262
0.129536
0.176301
0.21539
0.263793
0.287429
0.295144
0.262553
0.217701
0.0194728
0.0182897
0.0194
0.0198409
0.021942
0.0239326
0.0272517
0.0313494
0.0371048
0.0454347
0.0573068
0.0752492
0.0994592
0.135072
0.1714
0.222761
0.245227
0.270654
0.202829
0.116452
0.0181387
0.0167014
0.017759
0.0179596
0.0199431
0.0216281
0.0246787
0.0281621
0.0329602
0.0396003
0.048036
0.0614815
0.0771966
0.103245
0.128328
0.163522
0.178007
0.163184
0.0244054
-0.247923
0.0165511
0.0148568
0.0157627
0.0156268
0.0172734
0.0184741
0.0209165
0.0235683
0.0272571
0.0319226
0.0381902
0.046143
0.0572765
0.0697868
0.0828735
0.0872996
0.0550879
-0.066423
-0.446725
-1.2135
0.0155045
0.0136216
0.0144622
0.0141283
0.0156297
0.0165538
0.0187172
0.0208472
0.0237965
0.0270826
0.0305693
0.0338014
0.0342686
0.0287701
0.00391408
-0.0621538
-0.235135
-0.646595
-1.6294
-3.64467
0.0143808
0.012313
0.0130362
0.0124511
0.0136655
0.0141501
0.0156706
0.0168084
0.0180595
0.0182942
0.0161605
0.00782433
-0.0133877
-0.0652676
-0.178295
-0.428039
-0.957936
-2.09189
-4.50916
-9.51931
0.0135278
0.011305
0.0119406
0.0111468
0.0120936
0.0120684
0.012725
0.0121495
0.0101244
0.00365897
-0.0120661
-0.0481086
-0.126431
-0.293141
-0.639071
-1.34878
-2.78419
-5.6685
-11.4447
-23.4741
0.0126577
0.0102591
0.0107316
0.00959947
0.00997829
0.00887108
0.00743972
0.00273747
-0.0076283
-0.0310054
-0.0813113
-0.187935
-0.409718
-0.866576
-1.79122
-3.64279
-7.28606
-14.365
-27.932
-56.2965
0.0118602
0.00924259
0.00942856
0.0076993
0.00693333
0.00350058
-0.00263963
-0.0170219
-0.0472405
-0.111525
-0.245774
-0.524261
-1.09584
-2.2583
-4.59105
-9.20696
-18.1732
-35.248
-67.0422
-133.603
0.0109132
0.00795927
0.0075003
0.00446436
0.00105049
-0.00779472
-0.0250603
-0.0623486
-0.139786
-0.301273
-0.635271
-1.32262
-2.72688
-5.57187
-11.268
-22.5063
-44.2467
-85.3109
-160.607
-318.157
0.00961566
0.00609665
0.00416956
-0.00182095
-0.0113219
-0.0327139
-0.0758759
-0.166661
-0.354512
-0.743623
-1.54577
-3.19306
-6.55695
-13.3772
-27.0651
-54.1592
-106.771
-206.389
-388.779
-769.637
0.00716437
0.00264058
-0.00275232
-0.0155987
-0.0393161
-0.0900418
-0.19384
-0.409921
-0.856535
-1.77936
-3.6805
-7.58546
-15.5729
-31.8198
-64.6034
-130.001
-258.298
-504.138
-959.599
-1907.98
0.0020163
-0.00439657
-0.0180744
-0.0471783
-0.104508
-0.224728
-0.472237
-0.985474
-2.04612
-4.23652
-8.75105
-18.0356
-37.0748
-75.9671
-154.98
-314.205
-631.098
-1249.92
-2422.65
-4858.39
-0.0104106
-0.0205892
-0.0544039
-0.122923
-0.261396
-0.549365
-1.14397
-2.37517
-4.92026
-10.1775
-21.0223
-43.3592
-89.2792
-183.46
-376.023
-767.958
-1559.93
-3140.86
-6226.19
-12629.4
-0.0404048
-0.0586512
-0.141247
-0.306328
-0.642652
-1.33953
-2.78035
-5.7628
-11.9307
-24.6781
-50.998
-105.281
-217.099
-447.118
-919.59
-1888.42
-3870.37
-7907.42
-16038.6
-32965.8
-0.115328
-0.153176
-0.354994
-0.758815
-1.58459
-3.29253
-6.82591
-14.1402
-29.2734
-60.5686
-125.239
-258.769
-534.226
-1101.95
-2271.13
-4678.07
-9635.49
-19869.2
-41110.8
-85644.1
-0.214173
-0.0727333
-0.171414
-0.370374
-0.776181
-1.61639
-3.35344
-6.94799
-14.3789
-29.7276
-61.3923
-126.631
-260.851
-536.641
-1102.79
-2264.87
-4653.93
-9594.22
-19955.8
-43620
0.206678
0.168185
0.122155
0.0253494
-0.0958855
-0.290278
-0.45207
-0.563309
-0.436915
0.00703429
0.155431
0.0530018
-0.0740083
-0.313376
-0.625414
-1.08946
-1.5613
-1.92164
-1.77831
0.0629993
0.0794692
-0.0888064
-0.409938
-0.938268
-1.73715
-2.87129
-4.1418
-5.22606
-5.26238
0.104903
-0.0793935
-0.488078
-1.23274
-2.45608
-4.35508
-7.04541
-10.2492
-13.2271
-14.1115
0.0683787
-0.506477
-1.40944
-3.08297
-5.88627
-10.2948
-16.591
-24.3369
-32.0183
-35.5946
-0.25267
-1.486
-3.52091
-7.22885
-13.5515
-23.549
-37.9265
-56.001
-74.755
-85.6285
-1.4012
-3.72983
-8.22015
-16.4106
-30.5047
-52.8162
-84.9554
-125.76
-169.33
-197.89
-4.66879
-8.72799
-18.5631
-36.5494
-67.5562
-116.576
-186.893
-276.195
-372.811
-440.518
-12.6122
-19.7549
-41.3216
-80.7046
-148.452
-254.84
-405.747
-595.313
-799.625
-945.873
-29.6599
-44.1786
-91.7883
-178.158
-325.814
-554.834
-873.497
-1264.24
-1674.97
-1960.16
-62.4541
-98.9348
-205.445
-396.564
-719.971
-1212.44
-1878.4
-2662.52
-3442.84
-3927
-123.022
-224.805
-468.12
-898.923
-1617.72
-2686.5
-4077.85
-5620.04
-7009.11
-7648
-258.029
-525.13
-1097.3
-2096.84
-3736.93
-6109.89
-9061.33
-12077.1
-14369.4
-14690.3
-716.503
-1275.57
-2669.56
-5077.86
-8961.61
-14429.1
-20912.7
-26928.7
-30401.7
-28669.3
-2679.23
-3240.28
-6766.71
-12815
-22416.3
-35616.8
-50626.4
-63288.9
-68125.8
-59419
-10837.1
-8577.42
-17804.5
-33578.2
-58292.4
-91666.8
-128456
-157243
-163594
-135353
-40708.4
-23360
-48091.6
-90348.9
-155841
-243099
-337224
-407069
-414493
-334019
-132901
-64045.4
-130810
-244915
-419850
-649831
-892620
-1.063e+06
-1.05937e+06
-827426
-347436
-175083
-356351
-666912
-1.13906e+06
-1.75326e+06
-2.39048e+06
-2.81669e+06
-2.75742e+06
-2.08048e+06
-800109
-94663.7
-191826
-359937
-620199
-967166
-1.33931e+06
-1.60571e+06
-1.62013e+06
-1.35841e+06
-437225
)
;

boundaryField
{
    down
    {
        type            symmetryPlane;
    }
    right
    {
        type            fixedValue;
        value           uniform 0;
    }
    up
    {
        type            symmetryPlane;
    }
    left
    {
        type            zeroGradient;
    }
    cylinder
    {
        type            implicitExtrapolation;
    }
    defaultFaces
    {
        type            empty;
    }
}


// ************************************************************************* //
