/*--------------------------------*- C++ -*----------------------------------*\
| =========                 |                                                 |
| \\      /  F ield         | foam-extend: Open Source CFD                    |
|  \\    /   O peration     | Version:  3.0                                   |
|   \\  /    A nd           | Web:         http://www.extend-project.de       |
|    \\/     M anipulation  |                                                 |
\*---------------------------------------------------------------------------*/
FoamFile
{
    version     2.0;
    format      ascii;
    class       volSymmTensorField;
    location    "20";
    object      sigma;
}
// * * * * * * * * * * * * * * * * * * * * * * * * * * * * * * * * * * * * * //

dimensions      [0 0 0 0 0 0 0];

internalField   nonuniform List<symmTensor> 
480
(
(-0.164075 -0.0122607 2.36431e-20 0.164091 -3.78947e-21 -1.56252e-05)
(-0.146742 -0.0138284 1.06081e-19 0.146781 -3.3959e-20 -3.8104e-05)
(-0.124285 -0.0131859 1.04833e-19 0.124341 1.75033e-19 -5.58519e-05)
(-0.102185 -0.011836 -7.19883e-20 0.102255 1.21142e-19 -6.91753e-05)
(-0.0821241 -0.0103354 1.18634e-19 0.082202 -2.05089e-19 -7.79255e-05)
(-0.0645082 -0.00891339 4.03203e-19 0.0645896 -8.78982e-20 -8.13494e-05)
(-0.0494058 -0.00765579 3.90463e-19 0.0494844 -1.85489e-19 -7.85672e-05)
(-0.0369725 -0.00663471 4.73372e-20 0.0370408 -4.48605e-20 -6.82153e-05)
(-0.0273171 -0.0058707 4.87521e-19 0.0273661 -7.29976e-19 -4.9014e-05)
(-0.0210094 -0.0054093 5.36027e-20 0.0210288 -1.8382e-19 -1.93958e-05)
(-0.15978 -0.0361651 1.34495e-21 0.159795 -1.32429e-20 -1.50069e-05)
(-0.139993 -0.0403271 1.58751e-19 0.140029 -1.14884e-19 -3.65876e-05)
(-0.117072 -0.0382609 3.48638e-19 0.117126 -1.86292e-19 -5.36098e-05)
(-0.0952456 -0.0342266 -2.59714e-20 0.095312 -1.63413e-19 -6.63771e-05)
(-0.0757113 -0.0297975 -2.13597e-19 0.075786 -1.9898e-19 -7.47416e-05)
(-0.0586624 -0.0256205 2.22354e-19 0.0587404 -1.86181e-20 -7.79994e-05)
(-0.0440825 -0.0219371 3.35943e-19 0.0441578 -2.28127e-19 -7.52979e-05)
(-0.0320608 -0.0189532 7.72764e-20 0.0321261 -1.80925e-19 -6.53423e-05)
(-0.0226882 -0.0167328 -5.34088e-19 0.0227351 -5.18988e-19 -4.69158e-05)
(-0.0164996 -0.0154514 1.47548e-19 0.0165182 2.91817e-19 -1.85458e-05)
(-0.151503 -0.0586117 -5.21542e-20 0.151517 -4.59845e-20 -1.41203e-05)
(-0.127262 -0.0637366 -4.14537e-21 0.127297 -2.46656e-19 -3.44317e-05)
(-0.10355 -0.0598011 2.00557e-20 0.103601 -2.15002e-19 -5.0461e-05)
(-0.0822792 -0.0530909 -1.4554e-19 0.0823416 -2.24617e-20 -6.24888e-05)
(-0.06376 -0.0459126 -1.894e-19 0.0638303 3.54663e-19 -7.03713e-05)
(-0.0477932 -0.0392015 3.67992e-19 0.0478666 1.38721e-19 -7.34405e-05)
(-0.0342072 -0.0333041 9.27529e-20 0.0342781 -3.756e-20 -7.08917e-05)
(-0.0229682 -0.0285199 -1.77129e-19 0.0230297 -1.3065e-19 -6.15064e-05)
(-0.0141343 -0.0249461 -1.37506e-19 0.0141785 6.13513e-19 -4.41479e-05)
(-0.00816941 -0.0228684 6.45171e-19 0.00818685 -4.75441e-19 -1.744e-05)
(-0.139803 -0.0788018 -1.61298e-19 0.139816 -1.26711e-20 -1.3019e-05)
(-0.109961 -0.0824663 -4.18655e-19 0.109993 2.29784e-19 -3.1755e-05)
(-0.0853805 -0.0760085 2.50425e-20 0.0854271 3.30765e-19 -4.6549e-05)
(-0.0649679 -0.0666467 2.34173e-19 0.0650256 2.92531e-19 -5.76583e-05)
(-0.0478834 -0.0569962 8.35583e-20 0.0479484 4.12528e-19 -6.49452e-05)
(-0.033421 -0.0480895 1.38166e-19 0.0334888 -1.06523e-19 -6.77895e-05)
(-0.0212094 -0.0403011 2.62498e-19 0.0212748 -8.57991e-20 -6.54423e-05)
(-0.0110559 -0.0339644 3.62252e-19 0.0111127 -1.22623e-20 -5.6776e-05)
(-0.0029751 -0.0291948 1.92221e-19 0.00301585 -6.25943e-19 -4.07455e-05)
(0.0026657 -0.0263576 -8.79717e-19 -0.00264962 9.03283e-20 -1.60865e-05)
(-0.125423 -0.0961665 3.1666e-20 0.125435 -1.5761e-20 -1.17163e-05)
(-0.0899409 -0.0955521 -3.35518e-19 0.0899695 5.58471e-19 -2.85895e-05)
(-0.0647423 -0.0858323 -2.56183e-19 0.0647843 5.98993e-19 -4.1923e-05)
(-0.0455155 -0.073872 -2.33652e-20 0.0455674 4.09951e-19 -5.19461e-05)
(-0.0301938 -0.0620961 4.14705e-19 0.0302523 -1.28714e-19 -5.85304e-05)
(-0.0175353 -0.0514096 3.43314e-20 0.0175964 -5.47491e-19 -6.11122e-05)
(-0.00695877 -0.0421251 4.87308e-19 0.00701778 -8.99875e-19 -5.90099e-05)
(0.001897 -0.0345399 -2.65895e-19 -0.0018458 -7.60556e-19 -5.12015e-05)
(0.00906498 -0.0287694 -1.743e-19 -0.00902823 -7.20127e-19 -3.67447e-05)
(0.014287 -0.025222 5.22145e-19 -0.0142725 3.27503e-19 -1.45007e-05)
(-0.109197 -0.110411 6.90241e-20 0.109207 1.67878e-19 -1.02302e-05)
(-0.069228 -0.102771 3.48387e-19 0.069253 3.83769e-19 -2.49768e-05)
(-0.0440108 -0.089105 3.20314e-19 0.0440474 3.08294e-19 -3.66414e-05)
(-0.0263194 -0.0746431 1.99531e-19 0.0263648 -6.21001e-20 -4.54216e-05)
(-0.012986 -0.0611245 -6.28883e-20 0.0130372 -7.51139e-19 -5.12012e-05)
(-0.00229551 -0.0491043 -5.55411e-19 0.00234899 -1.106e-18 -5.34821e-05)
(0.00651741 -0.0387439 -1.13588e-18 -0.00646574 -5.52899e-19 -5.16605e-05)
(0.0139632 -0.0302352 9.47579e-20 -0.0139184 -4.79553e-19 -4.48353e-05)
(0.0201193 -0.0236751 -1.1176e-18 -0.0200871 -2.81774e-19 -3.21789e-05)
(0.0248349 -0.0194782 5.10888e-19 -0.0248222 -3.88735e-19 -1.26935e-05)
(-0.0919439 -0.121517 -3.79049e-20 0.0919525 2.33013e-19 -8.58001e-06)
(-0.0497322 -0.104645 5.93971e-19 0.0497532 4.99374e-20 -2.09641e-05)
(-0.0254085 -0.0865447 8.22254e-19 0.0254393 -2.80588e-19 -3.07725e-05)
(-0.00961563 -0.0697368 6.42055e-19 0.00965379 -7.59978e-19 -3.81673e-05)
(0.00160433 -0.0548601 -4.01326e-19 -0.00156128 -9.06231e-19 -4.3047e-05)
(0.0102934 -0.0419345 -1.02007e-18 -0.0102484 -5.60619e-19 -4.49883e-05)
(0.0173402 -0.0308967 -1.25027e-18 -0.0172968 2.28219e-19 -4.3476e-05)
(0.0233597 -0.0217751 -6.94323e-19 -0.023322 -3.68393e-19 -3.77445e-05)
(0.0284633 -0.0146324 -1.59997e-18 -0.0284362 3.23991e-19 -2.70942e-05)
(0.0325936 -0.00985754 2.42995e-19 -0.0325829 -1.21991e-19 -1.06824e-05)
(-0.0743736 -0.129714 9.54564e-20 0.0743804 -1.46514e-20 -6.78921e-06)
(-0.0329769 -0.102334 2.71123e-19 0.0329935 -2.07059e-19 -1.66065e-05)
(-0.0106835 -0.0796254 1.94341e-19 0.0107078 -3.97017e-19 -2.4394e-05)
(0.00284984 -0.0606971 -1.13362e-19 -0.00281956 -4.97524e-19 -3.0276e-05)
(0.0119183 -0.0448187 -6.61469e-19 -0.0118841 -2.38937e-19 -3.4168e-05)
(0.0186803 -0.0313572 -6.55683e-19 -0.0186446 4.88024e-20 -3.57307e-05)
(0.0240622 -0.019978 -5.30558e-19 -0.0240277 1.57958e-19 -3.45477e-05)
(0.028718 -0.0105094 -5.74763e-19 -0.028688 1.77013e-19 -3.00034e-05)
(0.032778 -0.00296881 -3.41446e-19 -0.0327565 -7.11668e-20 -2.15393e-05)
(0.0362536 0.00230313 -1.10807e-18 -0.0362452 1.41315e-19 -8.4845e-06)
(-0.0570088 -0.135403 -3.11306e-20 0.0570137 -6.49972e-20 -4.88257e-06)
(-0.0198919 -0.0974329 -2.57978e-19 0.0199039 -1.5132e-19 -1.19635e-05)
(-0.000861002 -0.0703337 -4.8139e-19 0.000878594 -1.03654e-19 -1.7592e-05)
(0.0100733 -0.0495862 -4.09531e-19 -0.0100514 4.6219e-20 -2.18515e-05)
(0.0170161 -0.0330126 -2.82887e-20 -0.0169914 3.24946e-20 -2.46778e-05)
(0.0219982 -0.019297 -4.03821e-19 -0.0219724 3.26585e-20 -2.58237e-05)
(0.0258841 -0.0078221 -3.40774e-19 -0.0258591 6.69261e-20 -2.49814e-05)
(0.0292915 0.00179364 -3.23147e-19 -0.0292698 1.9486e-19 -2.16996e-05)
(0.0323511 0.00958239 -5.74476e-20 -0.0323355 -8.08801e-20 -1.55744e-05)
(0.0351138 0.0152623 -5.72483e-19 -0.0351076 3.18398e-19 -6.12235e-06)
(-0.0401441 -0.139074 -5.04876e-20 0.040147 -4.7229e-20 -2.88782e-06)
(-0.0106999 -0.0917095 -1.39476e-19 0.010707 -1.62476e-19 -7.10151e-06)
(0.00389111 -0.0608507 -6.86746e-19 -0.00388065 -2.91058e-20 -1.04614e-05)
(0.0119308 -0.038659 -6.29876e-19 -0.0119178 1.46507e-19 -1.3009e-05)
(0.0168096 -0.0216368 -4.31613e-19 -0.0167949 2.0063e-19 -1.47028e-05)
(0.0201889 -0.00784847 -5.95516e-20 -0.0201736 1.37952e-19 -1.53956e-05)
(0.0227729 0.00357884 -3.45872e-19 -0.022758 1.42607e-19 -1.48971e-05)
(0.0250682 0.0132171 -1.29097e-20 -0.0250552 3.35271e-19 -1.29335e-05)
(0.0271868 0.0211449 5.52838e-19 -0.0271776 3.35831e-20 -9.26786e-06)
(0.0291901 0.0271369 -1.10509e-19 -0.0291865 -1.45738e-20 -3.62137e-06)
(-0.0238408 -0.141206 -5.81984e-20 0.0238417 -3.09638e-20 -8.34607e-07)
(-0.00491284 -0.0868166 -1.02226e-19 0.00491493 -1.07817e-19 -2.09204e-06)
(0.0042657 -0.0532069 -3.66248e-19 -0.00426259 -1.22962e-20 -3.10624e-06)
(0.00918048 -0.0300106 -2.70559e-19 -0.00917661 1.18508e-19 -3.87546e-06)
(0.0120642 -0.0127274 -2.78409e-19 -0.0120598 1.22627e-19 -4.38411e-06)
(0.0140048 0.00104751 -4.4643e-19 -0.0140002 9.94239e-20 -4.59098e-06)
(0.0154629 0.0123805 -4.13467e-19 -0.0154585 1.85142e-19 -4.43148e-06)
(0.0167711 0.0219877 -1.12459e-19 -0.0167673 2.99271e-19 -3.8209e-06)
(0.0180066 0.0299841 4.06354e-19 -0.0180039 5.44857e-20 -2.70123e-06)
(0.0192167 0.0361873 -3.743e-20 -0.0192157 -1.91317e-20 -1.01309e-06)
(-0.00796156 -0.142175 -7.89177e-20 0.00796031 -1.60824e-20 1.24533e-06)
(-0.00143832 -0.0840274 -1.44555e-19 0.00143534 -7.3873e-20 2.98784e-06)
(0.00168639 -0.0489626 -2.88903e-19 -0.00169075 -1.25231e-20 4.36152e-06)
(0.00332931 -0.0252495 -3.82907e-19 -0.00333473 1.12403e-19 5.41128e-06)
(0.00426952 -0.00784699 -3.74118e-19 -0.00427565 1.06052e-19 6.12441e-06)
(0.00488587 0.00590224 -3.51069e-19 -0.0048923 8.73163e-20 6.43091e-06)
(0.0053397 0.0171689 -1.67232e-19 -0.00534596 1.6458e-19 6.26345e-06)
(0.00574764 0.0267468 -1.11949e-19 -0.00575315 2.61457e-19 5.50782e-06)
(0.00614054 0.0347712 2.87061e-19 -0.00614457 9.77548e-20 4.03371e-06)
(0.00653699 0.0410809 1.55624e-19 -0.00653866 -2.36414e-20 1.66714e-06)
(0.00776463 -0.142186 -7.63874e-20 -0.00776795 -4.86142e-21 3.31829e-06)
(0.0012198 -0.0840329 -2.1084e-19 -0.00122786 -6.21805e-20 8.05631e-06)
(-0.00193441 -0.048964 -1.78431e-19 0.00192258 -2.33985e-20 1.18219e-05)
(-0.0036148 -0.0252479 -3.20821e-19 0.0036001 1.08871e-19 1.47026e-05)
(-0.00459981 -0.00784281 -4.27179e-19 0.00458316 1.03867e-19 1.66552e-05)
(-0.00526748 0.00590846 -3.07352e-19 0.00524999 6.33713e-20 1.74953e-05)
(-0.00577533 0.0171773 -2.69536e-20 0.00575832 1.14591e-19 1.70189e-05)
(-0.00623728 0.0267571 -1.62538e-19 0.00622237 2.15259e-19 1.49063e-05)
(-0.00667341 0.0347848 6.54889e-20 0.00666258 8.36319e-20 1.08317e-05)
(-0.00709758 0.0410947 1.71174e-19 0.0070932 -2.60905e-20 4.37738e-06)
(0.0236544 -0.141236 -9.07636e-20 -0.0236598 9.70207e-21 5.34964e-06)
(0.00469926 -0.0868315 -2.51028e-19 -0.00471228 -5.42125e-20 1.30283e-05)
(-0.00451263 -0.0532109 -2.88788e-20 0.00449348 -4.26067e-20 1.91497e-05)
(-0.00946777 -0.0300063 -5.14525e-20 0.00944393 1.04575e-19 2.38426e-05)
(-0.0123987 -0.0127161 -5.30761e-19 0.0123717 9.65828e-20 2.70316e-05)
(-0.0143926 0.00106449 -3.32681e-19 0.0143642 4.8858e-20 2.84163e-05)
(-0.0159069 0.0124034 -2.47978e-19 0.0158792 3.90262e-20 2.76545e-05)
(-0.0172709 0.0220159 1.89309e-19 0.0172467 1.67821e-19 2.4217e-05)
(-0.0185529 0.0300214 -4.10825e-19 0.0185353 7.23268e-20 1.75792e-05)
(-0.0197909 0.0362251 7.66541e-20 0.0197838 -1.43747e-20 7.07287e-06)
(0.0399759 -0.139116 -3.80472e-20 -0.0399832 4.36722e-20 7.30345e-06)
(0.010495 -0.0917305 -2.81604e-19 -0.0105128 -1.62777e-20 1.78161e-05)
(-0.00413606 -0.0608567 -3.90893e-19 0.00410985 -9.27568e-20 2.62151e-05)
(-0.0122211 -0.0386534 -2.86883e-19 0.0121885 1.1081e-20 3.26685e-05)
(-0.0171514 -0.0216215 -3.94376e-19 0.0171143 6.57012e-20 3.70675e-05)
(-0.0205874 -0.00782529 -1.08952e-19 0.0205484 5.59941e-20 3.89972e-05)
(-0.0232312 0.00361025 -1.82707e-19 0.0231932 5.31059e-20 3.79769e-05)
(-0.0255856 0.0132558 -5.76363e-20 0.0255523 6.77562e-20 3.32696e-05)
(-0.0277565 0.0211961 -1.77315e-19 0.0277324 -6.21525e-20 2.41515e-05)
(-0.029788 0.0271891 3.51313e-19 0.0297783 1.14796e-20 9.70283e-06)
(0.0568618 -0.135446 -4.49736e-20 -0.0568709 5.38652e-20 9.1444e-06)
(0.0196972 -0.0974553 -4.48989e-19 -0.0197195 -5.31128e-20 2.23322e-05)
(0.0006186 -0.0703407 -1.36919e-19 -0.000651488 -1.11683e-19 3.28881e-05)
(-0.0103669 -0.0495813 1.14136e-19 0.0103259 -2.23022e-20 4.10165e-05)
(-0.0173661 -0.0329977 1.49151e-19 0.0173195 2.06212e-19 4.65752e-05)
(-0.0224089 -0.0192739 -2.86082e-19 0.0223599 1.64803e-19 4.90378e-05)
(-0.0263589 -0.00779043 -2.96266e-19 0.0263111 -9.47305e-20 4.77892e-05)
(-0.0298294 0.00183288 5.58486e-21 0.0297875 -1.19934e-19 4.18896e-05)
(-0.032948 0.00963435 1.74797e-20 0.0329176 1.78952e-20 3.04209e-05)
(-0.0357394 0.0153155 -6.8875e-19 0.0357272 8.15547e-20 1.22161e-05)
(0.074245 -0.129748 4.81688e-20 -0.0742558 -3.40135e-20 1.08372e-05)
(0.0327914 -0.102353 2.22245e-19 -0.0328179 9.68123e-20 2.64897e-05)
(0.0104438 -0.0796325 1.64888e-19 -0.0104828 1.12747e-19 3.9039e-05)
(-0.00314581 -0.0606948 4.07818e-20 0.00309709 9.53227e-20 4.87225e-05)
(-0.012275 -0.0448083 4.38454e-20 0.0122197 1.70534e-19 5.53651e-05)
(-0.0191014 -0.0313403 -5.68134e-19 0.019043 2.2203e-19 5.83351e-05)
(-0.0245513 -0.0199543 -8.01342e-19 0.0244944 -3.14702e-19 5.68899e-05)
(-0.0292737 -0.0104797 -4.47549e-19 0.0292238 1.91123e-19 4.98968e-05)
(-0.0333988 -0.00292944 -1.43612e-18 0.0333626 -6.12892e-19 3.62537e-05)
(-0.0369039 0.00234376 9.08824e-19 0.0368894 2.14799e-20 1.45574e-05)
(0.0918262 -0.121535 -1.07532e-19 -0.0918385 -2.98386e-19 1.23488e-05)
(0.0495529 -0.104657 4.92386e-19 -0.0495831 -1.34524e-19 3.02064e-05)
(0.0251713 -0.086551 5.39046e-19 -0.0252158 5.57565e-20 4.45446e-05)
(0.0093191 -0.0697383 3.69427e-19 -0.00937473 3.63811e-19 5.56299e-05)
(-0.00196431 -0.0548573 -4.97353e-19 0.00190105 3.28812e-19 6.32558e-05)
(-0.01072 -0.0419282 -8.70784e-19 0.0106533 5.1009e-19 6.6694e-05)
(-0.0178374 -0.0308869 -1.50142e-18 0.0177723 -4.62362e-21 6.50844e-05)
(-0.023926 -0.0217624 -1.84858e-19 0.0238689 -7.65285e-20 5.71174e-05)
(-0.0290986 -0.0146155 -1.18024e-18 0.0290571 2.62101e-19 4.15211e-05)
(-0.0332592 -0.00983954 -4.23963e-19 0.0332426 -6.45791e-19 1.66746e-05)
(0.10908 -0.110409 -3.35915e-20 -0.109093 -1.94834e-19 1.36479e-05)
(0.0690504 -0.102774 2.40492e-20 -0.0690838 -4.26901e-19 3.34048e-05)
(0.0437754 -0.0891098 -6.16369e-20 -0.0438247 -5.0319e-19 4.92887e-05)
(0.0260246 -0.0746484 -1.30352e-19 -0.0260862 -1.84932e-19 6.15902e-05)
(0.0126274 -0.0611301 -5.72651e-19 -0.0126975 2.87722e-19 7.00743e-05)
(0.00186974 -0.04911 -4.66383e-19 -0.00194367 4.44713e-19 7.39275e-05)
(-0.00701433 -0.0387501 1.56834e-19 0.00694214 7.71913e-19 7.21852e-05)
(-0.01453 -0.0302422 -3.85728e-19 0.0144666 4.47754e-19 6.33821e-05)
(-0.0207558 -0.0236845 -4.26003e-19 0.0207097 1.05952e-18 4.60964e-05)
(-0.0255029 -0.019487 -5.04819e-19 0.0254844 -6.38705e-19 1.85148e-05)
(0.125297 -0.0961489 -1.32782e-20 -0.125311 2.54309e-20 1.47074e-05)
(0.0897605 -0.0955475 -5.14731e-19 -0.0897965 -3.09284e-19 3.60168e-05)
(0.0645082 -0.0858354 -8.31974e-19 -0.0645614 -6.37224e-19 5.31684e-05)
(0.0452246 -0.0738802 -5.77028e-19 -0.0452911 -5.37624e-19 6.64716e-05)
(0.029841 -0.0621085 7.80334e-20 -0.0299167 1.61496e-19 7.56666e-05)
(0.0171168 -0.0514254 4.81641e-19 -0.0171966 3.47368e-19 7.98682e-05)
(0.00647044 -0.0421451 5.77422e-19 -0.00654847 4.54895e-19 7.80246e-05)
(-0.00245407 -0.034564 4.04546e-19 0.00238554 3.59724e-19 6.85395e-05)
(-0.00968958 -0.028802 4.56392e-19 0.00963972 1.19653e-18 4.98663e-05)
(-0.014944 -0.0252548 -9.75229e-19 0.014924 1.06962e-19 2.00317e-05)
(0.13966 -0.0787755 -1.47894e-19 -0.139676 3.67714e-20 1.55036e-05)
(0.109775 -0.082457 -5.33597e-19 -0.109813 1.0044e-19 3.79832e-05)
(0.085147 -0.0760099 -5.91057e-19 -0.0852031 -1.37363e-19 5.60942e-05)
(0.0646823 -0.0666559 1.52813e-19 -0.0647525 -2.27965e-19 7.01591e-05)
(0.0475397 -0.0570119 7.67808e-19 -0.0476196 -6.35403e-21 7.98978e-05)
(0.0330142 -0.0481106 3.3676e-19 -0.0330986 2.68163e-19 8.43693e-05)
(0.0207358 -0.0403286 2.81428e-19 -0.0208182 1.20543e-21 8.24538e-05)
(0.010516 -0.0339984 6.513e-19 -0.0105885 2.32323e-19 7.24544e-05)
(0.00237242 -0.0292412 3.52907e-19 -0.00242515 4.62702e-19 5.27289e-05)
(-0.00330165 -0.0264055 2.7365e-19 0.00328047 6.9705e-19 2.11823e-05)
(0.151342 -0.0585871 -2.52812e-20 -0.151358 1.16047e-19 1.60184e-05)
(0.127068 -0.063727 -1.57635e-19 -0.127108 4.5116e-19 3.92586e-05)
(0.103317 -0.0598014 -3.0484e-19 -0.103375 4.94518e-19 5.79969e-05)
(0.0819991 -0.0530986 1.16898e-19 -0.0820717 2.57338e-19 7.25631e-05)
(0.0634262 -0.0459269 2.60885e-19 -0.0635089 -2.24846e-19 8.26621e-05)
(0.0473997 -0.0392214 4.54843e-19 -0.0474871 -2.40189e-19 8.7315e-05)
(0.0337506 -0.0333309 2.42965e-19 -0.0338359 -2.10153e-19 8.53559e-05)
(0.0224484 -0.0285538 1.09413e-18 -0.0225234 -3.04535e-19 7.50204e-05)
(0.0135576 -0.0249934 9.14427e-19 -0.0136122 8.81441e-20 5.46042e-05)
(0.00755889 -0.0229185 -7.68718e-20 -0.00758082 2.13816e-19 2.19338e-05)
(0.159603 -0.0361524 2.17594e-20 -0.159619 8.26757e-20 1.62386e-05)
(0.139792 -0.0403216 1.57757e-20 -0.139832 2.41402e-19 3.98099e-05)
(0.116839 -0.0382607 7.5235e-20 -0.116898 4.84434e-19 5.88262e-05)
(0.0949701 -0.0342306 2.81121e-19 -0.0950437 2.8766e-19 7.36185e-05)
(0.0753859 -0.0298059 1.09079e-19 -0.0754698 1.1236e-19 8.38824e-05)
(0.0582804 -0.0256328 -1.38852e-19 -0.058369 -1.24546e-19 8.86204e-05)
(0.0436406 -0.0219549 2.19729e-19 -0.0437273 2.10245e-20 8.6644e-05)
(0.0315586 -0.0189771 6.39494e-19 -0.0316348 -3.40766e-19 7.61578e-05)
(0.0221345 -0.016768 5.41224e-19 -0.0221899 -3.90215e-19 5.54312e-05)
(0.0159121 -0.0154908 7.28667e-20 -0.0159343 9.08726e-20 2.22603e-05)
(0.16389 -0.0122672 2.96731e-20 -0.163907 3.02559e-20 1.61579e-05)
(0.146539 -0.0138304 5.60119e-20 -0.146578 4.6623e-20 3.96205e-05)
(0.124052 -0.0131858 2.42983e-20 -0.12411 2.30634e-19 5.85563e-05)
(0.101912 -0.0118352 3.12819e-20 -0.101986 1.03126e-20 7.3291e-05)
(0.0818036 -0.0103348 1.59712e-19 -0.0818871 -9.41797e-20 8.35177e-05)
(0.0641329 -0.00891389 2.77956e-19 -0.0642212 1.30312e-19 8.82399e-05)
(0.0489726 -0.00765876 3.93382e-19 -0.0490589 2.20922e-19 8.62712e-05)
(0.036481 -0.00664129 4.34459e-19 -0.0365569 -1.24517e-19 7.58236e-05)
(0.0267775 -0.0058839 6.0836e-19 -0.0268327 -2.71719e-19 5.51774e-05)
(0.0204364 -0.00542804 7.29452e-20 -0.0204585 1.59535e-19 2.21485e-05)
(0.163908 0.0121222 2.3716e-20 -0.163924 -3.71271e-21 1.57757e-05)
(0.146549 0.01374 1.06286e-19 -0.146588 -3.37777e-20 3.86888e-05)
(0.124058 0.0131265 1.05052e-19 -0.124116 1.75329e-19 5.71842e-05)
(0.101917 0.0117961 -7.18205e-20 -0.101988 1.21632e-19 7.1576e-05)
(0.0818059 0.0103106 1.19146e-19 -0.0818875 -2.05017e-19 8.15613e-05)
(0.0641335 0.00890271 4.04234e-19 -0.0642196 -8.79877e-20 8.6165e-05)
(0.0489711 0.00766169 3.91257e-19 -0.0490553 -1.86759e-19 8.42281e-05)
(0.0364768 0.00666251 4.7881e-20 -0.0365508 -4.48137e-20 7.40081e-05)
(0.0267691 0.00593279 4.88831e-19 -0.026823 -7.33373e-19 5.38347e-05)
(0.0204168 0.00555756 5.30922e-20 -0.0204384 -1.85805e-19 2.15945e-05)
(0.159654 0.0360162 1.39863e-21 -0.159669 -1.32038e-20 1.50986e-05)
(0.139823 0.0402362 1.59005e-19 -0.13986 -1.14824e-19 3.70305e-05)
(0.116859 0.0382043 3.49004e-19 -0.116913 -1.86778e-19 5.47327e-05)
(0.0949826 0.0341932 -2.60251e-20 -0.0950511 -1.64001e-19 6.8502e-05)
(0.0753928 0.0297824 -2.13659e-19 -0.0754709 -1.98534e-19 7.80457e-05)
(0.058282 0.0256215 2.22965e-19 -0.0583644 -1.83118e-20 8.24303e-05)
(0.0436362 0.0219568 3.36958e-19 -0.0437167 -2.28631e-19 8.05485e-05)
(0.031546 0.0189961 7.69588e-20 -0.0316167 -1.83081e-19 7.07415e-05)
(0.0221098 0.0168129 -5.35059e-19 -0.0221613 -5.1886e-19 5.14256e-05)
(0.0158546 0.0156109 1.48265e-19 -0.0158752 2.92618e-19 2.0608e-05)
(0.151424 0.0584677 -5.21365e-20 -0.151438 -4.60305e-20 1.41389e-05)
(0.127118 0.0636512 -4.04111e-21 -0.127153 -2.46734e-19 3.46765e-05)
(0.103349 0.0597507 2.01109e-20 -0.1034 -2.14936e-19 5.1248e-05)
(0.0820193 0.0530644 -1.45739e-19 -0.0820834 -2.22448e-20 6.41274e-05)
(0.0634374 0.0459048 -1.89511e-19 -0.0635104 3.55986e-19 7.30386e-05)
(0.0474024 0.0392098 3.68695e-19 -0.0474795 1.38691e-19 7.71083e-05)
(0.0337434 0.0333308 9.29917e-20 -0.0338187 -3.77395e-20 7.53047e-05)
(0.0224281 0.0285683 -1.7787e-19 -0.0224942 -1.31342e-19 6.60885e-05)
(0.0135179 0.0250303 -1.37603e-19 -0.0135659 6.16946e-19 4.79981e-05)
(0.00746687 0.0230201 6.47002e-19 -0.00748607 -4.80542e-19 1.92084e-05)
(0.139768 0.0786801 -1.61371e-19 -0.139781 -1.26666e-20 1.29158e-05)
(0.109841 0.0823949 -4.18891e-19 -0.109872 2.30387e-19 3.16738e-05)
(0.0851894 0.0759674 2.5138e-20 -0.0852362 3.31135e-19 4.68007e-05)
(0.0647092 0.0666263 2.34566e-19 -0.0647678 2.92326e-19 5.8542e-05)
(0.0475547 0.0569918 8.39826e-20 -0.0476213 4.12422e-19 6.66443e-05)
(0.0330179 0.0480986 1.38615e-19 -0.0330882 -1.06797e-19 7.03119e-05)
(0.0207264 0.0403255 2.62884e-19 -0.020795 -8.59995e-20 6.86098e-05)
(0.0104893 0.0340064 3.62958e-19 -0.0105494 -1.31778e-20 6.01514e-05)
(0.00231987 0.0292666 1.92571e-19 -0.0023635 -6.30076e-19 4.36292e-05)
(-0.00342282 0.0264805 -8.81085e-19 0.00340539 9.33642e-20 1.74283e-05)
(0.125423 0.0960831 3.1666e-20 -0.125434 -1.58157e-20 1.14537e-05)
(0.0898385 0.0955025 -3.35624e-19 -0.0898666 5.587e-19 2.80832e-05)
(0.0645588 0.0858031 -2.56189e-19 -0.0646002 5.99227e-19 4.14816e-05)
(0.045257 0.0738564 -2.30734e-20 -0.0453088 4.10035e-19 5.18619e-05)
(0.0298593 0.0620908 4.15818e-19 -0.0299183 -1.29916e-19 5.89979e-05)
(0.0171215 0.0514129 3.47118e-20 -0.0171837 -5.48301e-19 6.21871e-05)
(0.00645958 0.042138 4.87657e-19 -0.00652019 -9.01035e-19 6.06104e-05)
(-0.00248565 0.0345638 -2.66739e-19 0.00243259 -7.62047e-19 5.30624e-05)
(-0.00975198 0.0288126 -1.77083e-19 0.00971356 -7.15795e-19 3.84176e-05)
(-0.015087 0.0252967 5.21452e-19 0.0150717 3.28414e-19 1.53081e-05)
(0.109217 0.110377 6.89912e-20 -0.109226 1.67974e-19 9.78227e-06)
(0.0691358 0.102749 3.48753e-19 -0.0691598 3.83475e-19 2.39782e-05)
(0.0438314 0.0890892 3.20969e-19 -0.0438668 3.07582e-19 3.54015e-05)
(0.0260608 0.0746312 2.00571e-19 -0.0261051 -6.33524e-20 4.42282e-05)
(0.0126482 0.0611153 -6.24757e-20 -0.0126985 -7.52129e-19 5.02638e-05)
(0.00187565 0.0490968 -5.5611e-19 -0.00192856 -1.10688e-18 5.2912e-05)
(-0.00702574 0.0387385 -1.13971e-18 0.00697426 -5.49547e-19 5.14852e-05)
(-0.0145643 0.0302324 9.39975e-20 0.0145193 -4.79989e-19 4.49832e-05)
(-0.0208243 0.023678 -1.12175e-18 0.0207918 -2.76894e-19 3.24852e-05)
(-0.0256588 0.019491 5.10334e-19 0.0256459 -3.87657e-19 1.28989e-05)
(0.0919647 0.121538 -3.79348e-20 -0.0919727 2.33102e-19 7.93511e-06)
(0.0496406 0.104652 5.94321e-19 -0.0496601 4.97689e-20 1.94425e-05)
(0.0252296 0.0865429 8.22814e-19 -0.0252583 -2.81189e-19 2.86857e-05)
(0.00935746 0.0697282 6.42944e-19 -0.00939326 -7.61333e-19 3.58009e-05)
(-0.00194181 0.0548456 -4.01614e-19 0.00190118 -9.06934e-19 4.06282e-05)
(-0.0107129 0.0419143 -1.02187e-18 0.0106702 -5.60456e-19 4.26878e-05)
(-0.0178483 0.0308703 -1.25218e-18 0.0178068 2.29313e-19 4.1436e-05)
(-0.0239606 0.0217422 -6.95598e-19 0.0239245 -3.67724e-19 3.60955e-05)
(-0.0291686 0.0145905 -1.6027e-18 0.0291426 3.27291e-19 2.59676e-05)
(-0.0334181 0.00980332 2.41267e-19 0.0334079 -1.20627e-19 1.02565e-05)
(0.074376 0.129784 9.55892e-20 -0.074382 -1.46751e-20 5.94931e-06)
(0.0328761 0.102369 2.71222e-19 -0.0328906 -2.06937e-19 1.45679e-05)
(0.0105011 0.0796369 1.93828e-19 -0.0105226 -3.9676e-19 2.14722e-05)
(-0.00310724 0.0606921 -1.14462e-19 0.00308049 -4.97661e-19 2.67558e-05)
(-0.0122517 0.0447997 -6.62441e-19 0.0122214 -2.39443e-19 3.02956e-05)
(-0.0190929 0.0313258 -6.56262e-19 0.0190612 4.82172e-20 3.17356e-05)
(-0.0245604 0.0199327 -5.30378e-19 0.0245297 1.57351e-19 3.06842e-05)
(-0.0293061 0.010449 -5.74951e-19 0.0292795 1.76429e-19 2.65995e-05)
(-0.0334656 0.00288566 -3.3617e-19 0.0334466 -7.35353e-20 1.90148e-05)
(-0.0370553 -0.00242011 -1.10943e-18 0.0370478 1.41839e-19 7.44363e-06)
(0.0569769 0.135513 -3.10626e-20 -0.0569807 -6.49962e-20 3.8641e-06)
(0.0197736 0.0974898 -2.58067e-19 -0.0197831 -1.51107e-19 9.45178e-06)
(0.000671805 0.0703571 -4.8222e-19 -0.000685712 -1.03339e-19 1.39065e-05)
(-0.0103301 0.0495856 -4.10612e-19 0.0103128 4.57512e-20 1.72779e-05)
(-0.0173428 0.0329922 -2.78888e-20 0.0173233 3.12371e-20 1.94806e-05)
(-0.0223991 0.0192589 -4.0347e-19 0.0223788 3.21429e-20 2.02865e-05)
(-0.0263651 0.00776429 -3.40669e-19 0.0263456 6.64715e-20 1.94604e-05)
(-0.0298568 -0.00187345 -3.21963e-19 0.0298401 1.93379e-19 1.67017e-05)
(-0.0330066 -0.00969576 -5.39861e-20 0.0329949 -8.24913e-20 1.17806e-05)
(-0.0358729 -0.015429 -5.71212e-19 0.0358684 3.17204e-19 4.52298e-06)
(0.0400677 0.139208 -5.03523e-20 -0.0400694 -4.72968e-20 1.71991e-06)
(0.0105585 0.091781 -1.39096e-19 -0.0105627 -1.62501e-19 4.19418e-06)
(-0.0040901 0.0608835 -6.87065e-19 0.00408396 -2.8998e-20 6.13835e-06)
(-0.012188 0.0386641 -6.3051e-19 0.0121804 1.46259e-19 7.55736e-06)
(-0.0171291 0.021619 -4.32688e-19 0.0171207 2.0028e-19 8.40321e-06)
(-0.0205763 0.00781012 -5.93726e-20 0.0205677 1.37355e-19 8.57695e-06)
(-0.0232334 -0.00364019 -3.46486e-19 0.0232254 1.42078e-19 8.00044e-06)
(-0.0256056 -0.0133048 -1.22634e-20 0.025599 3.32569e-19 6.61412e-06)
(-0.0278026 -0.0212726 5.58149e-19 0.0277981 3.09557e-20 4.4231e-06)
(-0.0298943 -0.0273343 -1.08619e-19 0.0298927 -1.47121e-20 1.56033e-06)
(0.0237173 0.141346 -5.80879e-20 -0.0237169 -3.10472e-20 -4.42529e-07)
(0.00474606 0.0868941 -1.01941e-19 -0.00474495 -1.07925e-19 -1.10436e-06)
(-0.00447655 0.0532458 -3.65971e-19 0.00447823 -1.24655e-20 -1.68251e-06)
(-0.00944004 0.0300221 -2.70264e-19 0.00944226 1.1818e-19 -2.21668e-06)
(-0.0123785 0.0127162 -2.78299e-19 0.0123812 1.22628e-19 -2.71856e-06)
(-0.0143804 -0.00107952 -4.47354e-19 0.0143835 9.97209e-20 -3.1599e-06)
(-0.0159044 -0.012436 -4.13936e-19 0.0159079 1.84749e-19 -3.46485e-06)
(-0.0172816 -0.0220712 -1.12941e-19 0.0172851 2.97617e-19 -3.45795e-06)
(-0.0185826 -0.0301093 4.07912e-19 0.0185855 5.29285e-20 -2.90647e-06)
(-0.0198622 -0.036394 -3.66867e-20 0.0198636 -1.94186e-20 -1.38321e-06)
(0.0077952 0.142305 -7.88674e-20 -0.00779262 -1.61326e-20 -2.58356e-06)
(0.00124724 0.0841026 -1.44487e-19 -0.00124089 -7.39628e-20 -6.34598e-06)
(-0.00191023 0.0490042 -2.88816e-19 0.00191964 -1.25698e-20 -9.41059e-06)
(-0.00359397 0.0252673 -3.83239e-19 0.00360583 1.12336e-19 -1.18607e-05)
(-0.00458256 0.00784503 -3.74509e-19 0.00459624 1.05824e-19 -1.3674e-05)
(-0.00525452 -0.00592303 -3.50936e-19 0.00526922 8.68219e-20 -1.46992e-05)
(-0.00576792 -0.0172113 -1.66193e-19 0.00578263 1.64062e-19 -1.47133e-05)
(-0.00623742 -0.0268159 -1.11604e-19 0.00625073 2.60449e-19 -1.33166e-05)
(-0.00668425 -0.0348794 2.88432e-19 0.00669431 9.63045e-20 -1.00618e-05)
(-0.00712848 -0.0412773 1.57646e-19 0.00713272 -2.32007e-20 -4.24741e-06)
(-0.00796435 0.142295 -7.6383e-20 0.00796902 -4.87747e-21 -4.66477e-06)
(-0.00143154 0.084099 -2.10922e-19 0.00144297 -6.22951e-20 -1.14366e-05)
(0.00169742 0.0490047 -1.78269e-19 -0.00168051 -2.34302e-20 -1.69067e-05)
(0.00334216 0.0252706 -3.2095e-19 -0.00332096 1.08975e-19 -2.12004e-05)
(0.00428294 0.00785042 -4.27863e-19 -0.00425868 1.03643e-19 -2.42642e-05)
(0.00489898 -0.00591613 -3.07581e-19 -0.00487315 6.27246e-20 -2.58308e-05)
(0.00535194 -0.0172028 -2.64641e-20 -0.0053264 1.1441e-19 -2.55392e-05)
(0.0057584 -0.0268062 -1.62653e-19 -0.00573562 2.15317e-19 -2.27812e-05)
(0.0061497 -0.0348672 6.43374e-20 -0.00613278 8.264e-20 -1.69114e-05)
(0.00654905 -0.0412661 1.71687e-19 -0.00654207 -2.54954e-20 -6.98001e-06)
(-0.0238756 0.141318 -9.08356e-20 0.0238823 9.70529e-21 -6.65086e-06)
(-0.0049265 0.0868845 -2.51243e-19 0.00494279 -5.43681e-20 -1.62894e-05)
(0.00426324 0.0532475 -2.87054e-20 -0.00423919 -4.26923e-20 -2.4043e-05)
(0.00918478 0.0300312 -5.12868e-20 -0.0091547 1.04913e-19 -3.00762e-05)
(0.0120731 0.012731 -5.31777e-19 -0.0120388 9.66024e-20 -3.43081e-05)
(0.0140174 -0.00106066 -3.33157e-19 -0.0139811 4.85739e-20 -3.63639e-05)
(0.0154794 -0.0124129 -2.48644e-19 -0.0154436 3.85693e-20 -3.57565e-05)
(0.0167923 -0.0220447 1.90245e-19 -0.0167606 1.69133e-19 -3.16884e-05)
(0.0180353 -0.0300761 -4.14432e-19 -0.018012 7.26134e-20 -2.33368e-05)
(0.0192712 -0.0363636 7.69544e-20 -0.0192617 -1.46579e-20 -9.533e-06)
(-0.0402071 0.13917 -3.81252e-20 0.0402156 4.37155e-20 -8.50882e-06)
(-0.0107324 0.0917685 -2.81955e-19 0.0107532 -1.63677e-20 -2.08244e-05)
(0.00387579 0.0608862 -3.91465e-19 -0.00384508 -9.30041e-20 -3.07022e-05)
(0.0119266 0.0386768 -2.87311e-19 -0.0118882 1.10617e-20 -3.83434e-05)
(0.0168137 0.0216394 -3.9473e-19 -0.01677 6.5529e-20 -4.36427e-05)
(0.0202004 0.0078359 -1.08531e-19 -0.0201543 5.61102e-20 -4.6129e-05)
(0.0227926 -0.00360877 -1.82848e-19 -0.0227474 5.35492e-20 -4.52024e-05)
(0.0250984 -0.013269 -5.83316e-20 -0.0250585 6.88324e-20 -3.98979e-05)
(0.0272332 -0.0212276 -1.78206e-19 -0.0272039 -6.28221e-20 -2.92377e-05)
(0.0292834 -0.0272933 3.54483e-19 -0.0292715 1.32318e-20 -1.18675e-05)
(-0.0570946 0.135476 -4.50915e-20 0.0571048 5.38987e-20 -1.02102e-05)
(-0.0199401 0.0974785 -4.49674e-19 0.0199651 -5.34778e-20 -2.49723e-05)
(-0.000887631 0.0703608 -1.37074e-19 0.000924415 -1.12037e-19 -3.67836e-05)
(0.0100612 0.049599 1.14673e-19 -0.0100153 -2.23302e-20 -4.58776e-05)
(0.0170153 0.0330129 1.50085e-19 -0.0169631 2.06727e-19 -5.21297e-05)
(0.0220079 0.0192847 -2.86178e-19 -0.0219529 1.65271e-19 -5.49829e-05)
(0.0259057 0.00779542 -2.96467e-19 -0.025852 -9.44268e-20 -5.37403e-05)
(0.0293287 -0.00183819 5.85922e-21 -0.0292814 -1.19124e-19 -4.72924e-05)
(0.0324118 -0.00965153 1.91636e-20 -0.0323772 2.08769e-20 -3.45314e-05)
(0.0352393 -0.0153891 -6.92989e-19 -0.0352254 7.95054e-20 -1.39512e-05)
(-0.0744752 0.12976 4.82141e-20 0.0744869 -3.39479e-20 -1.17295e-05)
(-0.0330368 0.102363 2.22242e-19 0.0330655 9.67276e-20 -2.86717e-05)
(-0.010719 0.0796415 1.64884e-19 0.0107612 1.12511e-19 -4.21984e-05)
(0.00283112 0.060703 4.07439e-20 -0.00277854 9.50273e-20 -5.25715e-05)
(0.011913 0.0448154 4.44198e-20 -0.0118533 1.71046e-19 -5.96504e-05)
(0.0186878 0.0313445 -5.68685e-19 -0.018625 2.22462e-19 -6.28054e-05)
(0.0240845 0.0199549 -8.02233e-19 -0.0240232 -3.14625e-19 -6.12574e-05)
(0.0287597 0.0104738 -4.49147e-19 -0.0287059 1.92352e-19 -5.37778e-05)
(0.0328487 0.00291656 -1.44273e-18 -0.0328095 -6.17314e-19 -3.9153e-05)
(0.0364025 -0.00239275 9.10465e-19 -0.0363867 2.25038e-20 -1.57597e-05)
(-0.0920534 0.121533 -1.07723e-19 0.0920665 -2.98574e-19 -1.30463e-05)