/*--------------------------------*- C++ -*----------------------------------*\
| =========                 |                                                 |
| \\      /  F ield         | foam-extend: Open Source CFD                    |
|  \\    /   O peration     | Version:  3.0                                   |
|   \\  /    A nd           | Web:         http://www.extend-project.de       |
|    \\/     M anipulation  |                                                 |
\*---------------------------------------------------------------------------*/
FoamFile
{
    version     2.0;
    format      ascii;
    class       volScalarField;
    location    "49";
    object      p;
}
// * * * * * * * * * * * * * * * * * * * * * * * * * * * * * * * * * * * * * //

dimensions      [0 0 0 0 0 0 0];

internalField   nonuniform List<scalar> 
7680
(
-0.234756
-0.222755
-0.213872
-0.204485
-0.197698
-0.19024
-0.185012
-0.179022
-0.174983
-0.170137
-0.167019
-0.163079
-0.160687
-0.157473
-0.155656
-0.153029
-0.151666
-0.149514
-0.148509
-0.14674
-0.14601
-0.144544
-0.144018
-0.142786
-0.142397
-0.141337
-0.141024
-0.140074
-0.139777
-0.138881
-0.138538
-0.137638
-0.137188
-0.136225
-0.135603
-0.134517
-0.133657
-0.132389
-0.131225
-0.129727
-0.234489
-0.222502
-0.213629
-0.204253
-0.197473
-0.190024
-0.184802
-0.17882
-0.174784
-0.169944
-0.16683
-0.162895
-0.160505
-0.157295
-0.155479
-0.152855
-0.151494
-0.149345
-0.14834
-0.146573
-0.145844
-0.14438
-0.143853
-0.142624
-0.142234
-0.141175
-0.140862
-0.139914
-0.139616
-0.138721
-0.138377
-0.137477
-0.137025
-0.136061
-0.135437
-0.134348
-0.133485
-0.132212
-0.131047
-0.129543
-0.234004
-0.222041
-0.213187
-0.203829
-0.197064
-0.18963
-0.184418
-0.178448
-0.174421
-0.169591
-0.166483
-0.162556
-0.160171
-0.156968
-0.155156
-0.152537
-0.151179
-0.149034
-0.148033
-0.146269
-0.145542
-0.14408
-0.143556
-0.142328
-0.14194
-0.140883
-0.140571
-0.139624
-0.139327
-0.138433
-0.13809
-0.13719
-0.13674
-0.135774
-0.13515
-0.134058
-0.133192
-0.131913
-0.130739
-0.129228
-0.233233
-0.22131
-0.212485
-0.203159
-0.196416
-0.189007
-0.183812
-0.177862
-0.173848
-0.169034
-0.165936
-0.162022
-0.159645
-0.156452
-0.154646
-0.152037
-0.150683
-0.148545
-0.147546
-0.145788
-0.145063
-0.143607
-0.143084
-0.141861
-0.141474
-0.140421
-0.14011
-0.139167
-0.138871
-0.137981
-0.13764
-0.136743
-0.136295
-0.135331
-0.134709
-0.133618
-0.132754
-0.131472
-0.130296
-0.128776
-0.232249
-0.220376
-0.211588
-0.202301
-0.195586
-0.188208
-0.183035
-0.17711
-0.173113
-0.168319
-0.165235
-0.161337
-0.15897
-0.155791
-0.153993
-0.151393
-0.150046
-0.147917
-0.146923
-0.145172
-0.144451
-0.143001
-0.142481
-0.141262
-0.140879
-0.139829
-0.139521
-0.138582
-0.13829
-0.137402
-0.137065
-0.136172
-0.135728
-0.134769
-0.134153
-0.133064
-0.132206
-0.130925
-0.129753
-0.128221
-0.230979
-0.219171
-0.210432
-0.201195
-0.194517
-0.18718
-0.182036
-0.176143
-0.172168
-0.1674
-0.164333
-0.160456
-0.158102
-0.154941
-0.153152
-0.150568
-0.149227
-0.14711
-0.146121
-0.14438
-0.143663
-0.142221
-0.141704
-0.140493
-0.140111
-0.139069
-0.138763
-0.13783
-0.13754
-0.136659
-0.136325
-0.135438
-0.134999
-0.134046
-0.133436
-0.132353
-0.1315
-0.130221
-0.129047
-0.127505
-0.229499
-0.217767
-0.209083
-0.199906
-0.19327
-0.18598
-0.180869
-0.175013
-0.171064
-0.166326
-0.163279
-0.159427
-0.157089
-0.153947
-0.15217
-0.149602
-0.14827
-0.146166
-0.145185
-0.143455
-0.142743
-0.14131
-0.140797
-0.139593
-0.139216
-0.13818
-0.137877
-0.13695
-0.136665
-0.135789
-0.135462
-0.134581
-0.134149
-0.133202
-0.132602
-0.131525
-0.130683
-0.129406
-0.128241
-0.126679
-0.227736
-0.216094
-0.207477
-0.19837
-0.191786
-0.184552
-0.17948
-0.17367
-0.169751
-0.16505
-0.162026
-0.158204
-0.155883
-0.152766
-0.151002
-0.148454
-0.147133
-0.145045
-0.144071
-0.142355
-0.141648
-0.140227
-0.139717
-0.138524
-0.138149
-0.137122
-0.136822
-0.135904
-0.135621
-0.134754
-0.13443
-0.133558
-0.133132
-0.132194
-0.1316
-0.130532
-0.129696
-0.128426
-0.12726
-0.125696
-0.225767
-0.214226
-0.205683
-0.196655
-0.190128
-0.182956
-0.177928
-0.172168
-0.168283
-0.163622
-0.160624
-0.156835
-0.154535
-0.151444
-0.149696
-0.14717
-0.14586
-0.143791
-0.142825
-0.141124
-0.140423
-0.139014
-0.13851
-0.137327
-0.136956
-0.135938
-0.135642
-0.134731
-0.134453
-0.133594
-0.133276
-0.132411
-0.131992
-0.131062
-0.130478
-0.129417
-0.128592
-0.127325
-0.126168
-0.12459
-0.223517
-0.212091
-0.203634
-0.194696
-0.188234
-0.181134
-0.176156
-0.170454
-0.166607
-0.161994
-0.159025
-0.155274
-0.152997
-0.149937
-0.148206
-0.145706
-0.144409
-0.14236
-0.141404
-0.13972
-0.139026
-0.137632
-0.137132
-0.135961
-0.135594
-0.134587
-0.134294
-0.133393
-0.133118
-0.132268
-0.131953
-0.131098
-0.130684
-0.129764
-0.129185
-0.128135
-0.127315
-0.126058
-0.124905
-0.123337
-0.221069
-0.209768
-0.201403
-0.192563
-0.186171
-0.179148
-0.174225
-0.168585
-0.164781
-0.160218
-0.157282
-0.153572
-0.15132
-0.148293
-0.146582
-0.144108
-0.142826
-0.140799
-0.139854
-0.138188
-0.137503
-0.136123
-0.13563
-0.134471
-0.134109
-0.133112
-0.132823
-0.131931
-0.13166
-0.130819
-0.130509
-0.129662
-0.129254
-0.128342
-0.127771
-0.126729
-0.125919
-0.124669
-0.123528
-0.121964
-0.218342
-0.207181
-0.198919
-0.190189
-0.183876
-0.17694
-0.172078
-0.166508
-0.16275
-0.158244
-0.155344
-0.15168
-0.149455
-0.146467
-0.144776
-0.142333
-0.141066
-0.139065
-0.138131
-0.136486
-0.135809
-0.134447
-0.133959
-0.132815
-0.132457
-0.131472
-0.131186
-0.130306
-0.130037
-0.129206
-0.128898
-0.128061
-0.127657
-0.126755
-0.126189
-0.125158
-0.124355
-0.12312
-0.121988
-0.120449
-0.215424
-0.204411
-0.19626
-0.187646
-0.181418
-0.174574
-0.169777
-0.164281
-0.160574
-0.156127
-0.153267
-0.149651
-0.147457
-0.144508
-0.14284
-0.14043
-0.13918
-0.137205
-0.136284
-0.134661
-0.133993
-0.132648
-0.132167
-0.131038
-0.130685
-0.129712
-0.12943
-0.12856
-0.128295
-0.127474
-0.127169
-0.126342
-0.125941
-0.125049
-0.124489
-0.123469
-0.122675
-0.121454
-0.120339
-0.118824
-0.212232
-0.201383
-0.193353
-0.184867
-0.178731
-0.17199
-0.167263
-0.161849
-0.158197
-0.153817
-0.150998
-0.147437
-0.145274
-0.142369
-0.140726
-0.138352
-0.13712
-0.135175
-0.134267
-0.132668
-0.13201
-0.130685
-0.130211
-0.129098
-0.128749
-0.127791
-0.127512
-0.126655
-0.126391
-0.125582
-0.125279
-0.124463
-0.124065
-0.123185
-0.122628
-0.121623
-0.120837
-0.119637
-0.118539
-0.11706
-0.208857
-0.19818
-0.190278
-0.181926
-0.175888
-0.169253
-0.164602
-0.159274
-0.15568
-0.151369
-0.148596
-0.145091
-0.142963
-0.140104
-0.138487
-0.13615
-0.134939
-0.133024
-0.132131
-0.130557
-0.129909
-0.128605
-0.128138
-0.127042
-0.126699
-0.125755
-0.12548
-0.124635
-0.124374
-0.123575
-0.123276
-0.12247
-0.122076
-0.121207
-0.120657
-0.119666
-0.11889
-0.117712
-0.116635
-0.115194
-0.205214
-0.194724
-0.186959
-0.178754
-0.172821
-0.166303
-0.161733
-0.156498
-0.152967
-0.148731
-0.146006
-0.142563
-0.140472
-0.137663
-0.136074
-0.133778
-0.132587
-0.130707
-0.129829
-0.128282
-0.127645
-0.126364
-0.125904
-0.124828
-0.124489
-0.123562
-0.12329
-0.122459
-0.122201
-0.121415
-0.121118
-0.120325
-0.119934
-0.119079
-0.118534
-0.117561
-0.116796
-0.115644
-0.114589
-0.113193
-0.201395
-0.1911
-0.18348
-0.175427
-0.169605
-0.163208
-0.158723
-0.153585
-0.15012
-0.145963
-0.143289
-0.139909
-0.137857
-0.1351
-0.133541
-0.131288
-0.13012
-0.128273
-0.127412
-0.125894
-0.125269
-0.124011
-0.12356
-0.122503
-0.12217
-0.121259
-0.120991
-0.120174
-0.11992
-0.119147
-0.118854
-0.118073
-0.117686
-0.116846
-0.116308
-0.115353
-0.114602
-0.113476
-0.112445
-0.111093
-0.197316
-0.18723
-0.179765
-0.171876
-0.166171
-0.159904
-0.15551
-0.150477
-0.147082
-0.143009
-0.140389
-0.137078
-0.135068
-0.132367
-0.13084
-0.128632
-0.127487
-0.125679
-0.124834
-0.123347
-0.122734
-0.121502
-0.121059
-0.120024
-0.119697
-0.118804
-0.118541
-0.11774
-0.117489
-0.116731
-0.116441
-0.115676
-0.115294
-0.114471
-0.11394
-0.113006
-0.112269
-0.111172
-0.110167
-0.10886
-0.193072
-0.183203
-0.175898
-0.168178
-0.162596
-0.156463
-0.152164
-0.147239
-0.143917
-0.139932
-0.137368
-0.134128
-0.132162
-0.129519
-0.128024
-0.125864
-0.124744
-0.122974
-0.122148
-0.120692
-0.120093
-0.118886
-0.118454
-0.11744
-0.11712
-0.116245
-0.115987
-0.115203
-0.114956
-0.114214
-0.113929
-0.113179
-0.112804
-0.111998
-0.111477
-0.110564
-0.109843
-0.108775
-0.107797
-0.106531
-0.188574
-0.178936
-0.171801
-0.164262
-0.15881
-0.152821
-0.148622
-0.143812
-0.140567
-0.136675
-0.134171
-0.131007
-0.129086
-0.126505
-0.125045
-0.122935
-0.121841
-0.120113
-0.119306
-0.117884
-0.117298
-0.116121
-0.115697
-0.114707
-0.114394
-0.11354
-0.113287
-0.112522
-0.11228
-0.111555
-0.111275
-0.110544
-0.110176
-0.109389
-0.10888
-0.107991
-0.107287
-0.106249
-0.105297
-0.104072
-0.183922
-0.17452
-0.167562
-0.160208
-0.154891
-0.149049
-0.144954
-0.140262
-0.137098
-0.133302
-0.13086
-0.127774
-0.1259
-0.123383
-0.121959
-0.119901
-0.118834
-0.117148
-0.116362
-0.114975
-0.114404
-0.113255
-0.112842
-0.111876
-0.111571
-0.110738
-0.110491
-0.109744
-0.109508
-0.108801
-0.108529
-0.107815
-0.107456
-0.106691
-0.106195
-0.105329
-0.104644
-0.103635
-0.10271
-0.10152
-0.179025
-0.169875
-0.163102
-0.155945
-0.150769
-0.145083
-0.141097
-0.136531
-0.133451
-0.129756
-0.127379
-0.124375
-0.122552
-0.120101
-0.118716
-0.116713
-0.115674
-0.114034
-0.113267
-0.111918
-0.111362
-0.110244
-0.109842
-0.108902
-0.108605
-0.107795
-0.107555
-0.106828
-0.106599
-0.105912
-0.105647
-0.104954
-0.104606
-0.103863
-0.103381
-0.102542
-0.101877
-0.100897
-0.0999993
-0.0988422
-0.173984
-0.165091
-0.158509
-0.151553
-0.146524
-0.140998
-0.137124
-0.132686
-0.129692
-0.126102
-0.123792
-0.120872
-0.1191
-0.116719
-0.115372
-0.113426
-0.112417
-0.110822
-0.110078
-0.108766
-0.108226
-0.107139
-0.106749
-0.105836
-0.105547
-0.10476
-0.104528
-0.103822
-0.1036
-0.102933
-0.102677
-0.102006
-0.101669
-0.100949
-0.100484
-0.0996701
-0.0990268
-0.0980756
-0.0972044
-0.0960768
-0.168709
-0.160087
-0.153705
-0.14696
-0.142083
-0.136725
-0.132969
-0.128666
-0.125763
-0.122282
-0.120042
-0.117211
-0.115493
-0.113184
-0.111878
-0.109991
-0.109012
-0.107467
-0.106745
-0.105474
-0.10495
-0.103896
-0.103518
-0.102633
-0.102354
-0.101592
-0.101367
-0.100684
-0.10047
-0.0998247
-0.0995784
-0.0989294
-0.0986059
-0.0979104
-0.097463
-0.0966769
-0.0960567
-0.0951349
-0.0942909
-0.0931903
-0.163302
-0.154955
-0.148778
-0.142249
-0.137529
-0.132342
-0.128706
-0.124541
-0.121732
-0.118362
-0.116194
-0.113454
-0.11179
-0.109556
-0.108292
-0.106465
-0.105518
-0.104022
-0.103323
-0.102093
-0.101586
-0.100567
-0.100201
-0.0993449
-0.0990751
-0.0983377
-0.0981208
-0.0974609
-0.0972552
-0.0966325
-0.0963962
-0.0957704
-0.0954602
-0.09479
-0.0943605
-0.0936026
-0.0930053
-0.0921136
-0.0912963
-0.0902226
-0.157671
-0.149613
-0.143649
-0.137346
-0.132789
-0.127781
-0.124271
-0.12025
-0.117537
-0.114284
-0.112191
-0.109546
-0.10794
-0.105782
-0.104562
-0.102799
-0.101884
-0.10044
-0.0997657
-0.0985782
-0.0980889
-0.0971055
-0.0967528
-0.0959268
-0.0956668
-0.094956
-0.0947475
-0.0941119
-0.0939149
-0.0933157
-0.0930901
-0.0924885
-0.0921927
-0.0915486
-0.0911386
-0.0904095
-0.0898373
-0.0889758
-0.0881875
-0.0871391
-0.15192
-0.144156
-0.138409
-0.132336
-0.127945
-0.12312
-0.119738
-0.115863
-0.11325
-0.110115
-0.108098
-0.105549
-0.104002
-0.101923
-0.100748
-0.099049
-0.0981682
-0.0967764
-0.0961271
-0.094983
-0.094512
-0.0935646
-0.0932252
-0.0924298
-0.09218
-0.0914958
-0.0912959
-0.0906846
-0.0904962
-0.0899206
-0.0897053
-0.0891281
-0.0888459
-0.0882284
-0.0878367
-0.0871373
-0.0865887
-0.0857596
-0.0849991
-0.083981
-0.145958
-0.138499
-0.132978
-0.127144
-0.122926
-0.118291
-0.115041
-0.111319
-0.108808
-0.105797
-0.103859
-0.101411
-0.0999245
-0.0979277
-0.0967984
-0.0951664
-0.0943202
-0.0929835
-0.0923598
-0.0912611
-0.0908087
-0.0898992
-0.0895735
-0.0888101
-0.0885707
-0.0879144
-0.0877233
-0.0871374
-0.086958
-0.0864067
-0.0862021
-0.0856498
-0.0853819
-0.0847912
-0.084419
-0.0837492
-0.0832263
-0.0824292
-0.0817004
-0.0807114
-0.139888
-0.13274
-0.127448
-0.121856
-0.117813
-0.113371
-0.110257
-0.106689
-0.104283
-0.101397
-0.09954
-0.0971933
-0.0957689
-0.093855
-0.092773
-0.0912088
-0.090398
-0.089117
-0.0885195
-0.0874666
-0.0870334
-0.0861619
-0.0858502
-0.085119
-0.0848901
-0.0842617
-0.0840793
-0.0835187
-0.0833477
-0.0828207
-0.0826259
-0.0820983
-0.0818431
-0.0812791
-0.080924
-0.0802844
-0.0797843
-0.0790222
-0.0783225
-0.0773735
-0.13362
-0.126792
-0.121739
-0.116398
-0.112536
-0.108293
-0.105319
-0.101912
-0.0996132
-0.0968566
-0.0950832
-0.0928421
-0.0914815
-0.0896538
-0.0886203
-0.0871267
-0.0863523
-0.0851291
-0.0845585
-0.0835533
-0.0831397
-0.0823079
-0.0820104
-0.0813127
-0.0810945
-0.0804951
-0.0803216
-0.0797871
-0.0796248
-0.0791225
-0.0789378
-0.078435
-0.078193
-0.0776554
-0.0773185
-0.0767085
-0.0762334
-0.0755052
-0.0748399
-0.0739274
-0.127258
-0.120755
-0.115942
-0.110855
-0.107177
-0.103136
-0.100304
-0.0970585
-0.0948698
-0.0922443
-0.0905555
-0.088421
-0.0871255
-0.0853847
-0.0844006
-0.0829781
-0.0822409
-0.081076
-0.0805328
-0.0795756
-0.079182
-0.07839
-0.0781071
-0.0774429
-0.0772355
-0.076665
-0.0765002
-0.0759917
-0.0758374
-0.0753596
-0.0751838
-0.0747056
-0.0744748
-0.0739634
-0.0736416
-0.0730613
-0.0726072
-0.0719154
-0.0712797
-0.0704187
-0.12071
-0.114543
-0.109977
-0.105153
-0.101665
-0.0978324
-0.0951456
-0.0920678
-0.0899918
-0.0875018
-0.0859
-0.0838757
-0.0826468
-0.0809961
-0.0800627
-0.0787138
-0.0780145
-0.07691
-0.0763949
-0.0754875
-0.0751143
-0.0743636
-0.0740954
-0.073466
-0.0732695
-0.0727291
-0.072573
-0.0720912
-0.0719452
-0.0714925
-0.0713259
-0.0708725
-0.0706535
-0.0701682
-0.0698627
-0.0693117
-0.0688813
-0.0682248
-0.067625
-0.0668091
-0.114082
-0.108253
-0.103939
-0.0993791
-0.0960825
-0.0924604
-0.0899211
-0.0870123
-0.0850503
-0.082697
-0.0811833
-0.0792701
-0.0781089
-0.0765488
-0.0756668
-0.074392
-0.0737314
-0.0726876
-0.0722011
-0.0713435
-0.0709912
-0.0702818
-0.0700287
-0.069434
-0.0692486
-0.068738
-0.0685906
-0.0681355
-0.0679973
-0.0675694
-0.0674113
-0.0669824
-0.0667739
-0.0663144
-0.066023
-0.0655009
-0.0650904
-0.0644703
-0.0638999
-0.0631408
-0.107283
-0.101802
-0.0977454
-0.0934582
-0.0903583
-0.0869526
-0.0845648
-0.0818298
-0.0799849
-0.0777723
-0.0763489
-0.0745501
-0.0734582
-0.0719914
-0.0711621
-0.0699636
-0.0693425
-0.0683613
-0.0679039
-0.067098
-0.0667667
-0.0661001
-0.0658622
-0.0653035
-0.0651292
-0.0646496
-0.064511
-0.0640834
-0.0639533
-0.0635511
-0.0634018
-0.0629984
-0.0628012
-0.0623684
-0.0620927
-0.0616007
-0.0612136
-0.0606305
-0.0600968
-0.0593904
-0.100418
-0.0952878
-0.0914906
-0.0874777
-0.0845762
-0.0813883
-0.0791535
-0.0765934
-0.0748667
-0.0727955
-0.0714634
-0.0697797
-0.0687578
-0.0673849
-0.0666089
-0.0654872
-0.064906
-0.0639877
-0.0635598
-0.0628056
-0.0624958
-0.061872
-0.0616496
-0.0611267
-0.0609639
-0.060515
-0.0603854
-0.0599852
-0.0598632
-0.0594866
-0.0593462
-0.0589681
-0.0587821
-0.0583761
-0.0581158
-0.0576541
-0.0572888
-0.0567433
-0.0562414
-0.0555892
-0.0933966
-0.088626
-0.0850947
-0.0813631
-0.0786648
-0.0757003
-0.0736219
-0.0712413
-0.0696355
-0.0677096
-0.0664707
-0.0649051
-0.0639548
-0.0626782
-0.0619565
-0.0609137
-0.0603732
-0.0595196
-0.0591217
-0.0584207
-0.0581326
-0.057553
-0.0573462
-0.0568605
-0.0567091
-0.0562922
-0.0561716
-0.0557999
-0.0556861
-0.0553363
-0.0552052
-0.0548538
-0.0546799
-0.0543025
-0.0540591
-0.0536302
-0.0532896
-0.0527844
-0.0523192
-0.0517214
-0.0863239
-0.0819146
-0.0786508
-0.0752016
-0.0727078
-0.0699677
-0.0680468
-0.0658464
-0.0643623
-0.0625822
-0.0614373
-0.0599903
-0.0591121
-0.0579323
-0.0572655
-0.0563016
-0.0558024
-0.0550135
-0.054646
-0.0539982
-0.0537322
-0.0531967
-0.0530059
-0.0525571
-0.0524174
-0.0520323
-0.0519211
-0.0515777
-0.0514727
-0.0511496
-0.0510284
-0.050704
-0.0505432
-0.0501951
-0.0499704
-0.0495755
-0.0492625
-0.0487992
-0.0483749
-0.0478298
-0.0791103
-0.0750703
-0.0720797
-0.0689195
-0.0666344
-0.0641238
-0.0623637
-0.0603476
-0.0589877
-0.0573568
-0.0563077
-0.054982
-0.0541773
-0.0530964
-0.0524854
-0.0516026
-0.0511451
-0.0504226
-0.0500859
-0.0494928
-0.0492492
-0.0487589
-0.0485842
-0.0481735
-0.0480456
-0.0476934
-0.0475915
-0.0472777
-0.0471815
-0.0468864
-0.0467754
-0.0464793
-0.046332
-0.0460148
-0.0458091
-0.0454501
-0.0451638
-0.044744
-0.0443562
-0.0438643
-0.0718603
-0.0681906
-0.0654741
-0.0626035
-0.0605279
-0.0582474
-0.0566487
-0.0548174
-0.0535823
-0.0521008
-0.051148
-0.0499438
-0.0492131
-0.0482313
-0.0476766
-0.0468747
-0.0464595
-0.0458033
-0.0454978
-0.0449591
-0.0447382
-0.0442931
-0.0441347
-0.043762
-0.0436462
-0.0433266
-0.0432347
-0.04295
-0.0428634
-0.0425961
-0.0424962
-0.0422284
-0.0420962
-0.04181
-0.0416257
-0.0413028
-0.0410473
-0.0406697
-0.0403247
-0.0398765
-0.0644853
-0.0611931
-0.058756
-0.0561807
-0.0543185
-0.0522726
-0.0508382
-0.0491954
-0.0480872
-0.0467582
-0.0459033
-0.0448231
-0.0441675
-0.043287
-0.0427893
-0.0420701
-0.0416976
-0.0411093
-0.0408353
-0.0403525
-0.0401543
-0.0397555
-0.0396136
-0.0392799
-0.0391762
-0.0388903
-0.038808
-0.0385538
-0.0384764
-0.038238
-0.038149
-0.0379108
-0.0377932
-0.0375393
-0.0373755
-0.0370898
-0.0368622
-0.0365285
-0.0362198
-0.0358238
-0.057089
-0.0541745
-0.0520171
-0.0497372
-0.0480887
-0.0462775
-0.0450078
-0.0435534
-0.0425725
-0.041396
-0.0406394
-0.0396832
-0.039103
-0.0383235
-0.0378832
-0.0372467
-0.0369172
-0.0363965
-0.0361543
-0.035727
-0.0355521
-0.0351993
-0.0350741
-0.0347791
-0.0346879
-0.0344353
-0.0343633
-0.034139
-0.0340716
-0.0338617
-0.0337846
-0.0335753
-0.0334736
-0.0332512
-0.0331099
-0.0328599
-0.0326634
-0.03237
-0.0321022
-0.0317453
-0.0495842
-0.0470538
-0.0451806
-0.0432012
-0.0417698
-0.0401974
-0.0390949
-0.0378322
-0.0369805
-0.0359591
-0.0353021
-0.0344721
-0.0339683
-0.0332918
-0.0329095
-0.0323571
-0.0320711
-0.0316195
-0.0314092
-0.0310388
-0.030887
-0.0305813
-0.0304729
-0.0302175
-0.0301386
-0.0299203
-0.0298582
-0.0296648
-0.0296069
-0.0294264
-0.0293604
-0.0291812
-0.0290944
-0.0289045
-0.0287836
-0.0285707
-0.0284018
-0.0281513
-0.0279191
-0.0276128
-0.0420733
-0.0399265
-0.0383373
-0.0366579
-0.0354435
-0.0341094
-0.0331741
-0.0321028
-0.0313803
-0.0305138
-0.0299565
-0.0292523
-0.0288252
-0.0282513
-0.0279272
-0.0274587
-0.0272164
-0.0268334
-0.0266554
-0.0263414
-0.0262131
-0.0259542
-0.0258627
-0.0256465
-0.0255804
-0.0253958
-0.0253441
-0.025181
-0.0251333
-0.0249815
-0.0249274
-0.0247772
-0.0247062
-0.0245474
-0.0244485
-0.0242702
-0.0241313
-0.0239199
-0.0237268
-0.0234616
-0.0344707
-0.032713
-0.0314116
-0.0300366
-0.0290422
-0.0279499
-0.0271839
-0.0263069
-0.0257152
-0.0250058
-0.0245495
-0.0239731
-0.0236233
-0.0231537
-0.0228884
-0.0225051
-0.0223068
-0.0219937
-0.0218481
-0.0215916
-0.0214868
-0.0212755
-0.0212009
-0.0210248
-0.0209711
-0.0208212
-0.0207794
-0.0206474
-0.0206091
-0.0204869
-0.0204437
-0.0203233
-0.0202667
-0.0201401
-0.0200608
-0.0199188
-0.0198067
-0.0196375
-0.0194801
-0.019266
-0.0268774
-0.0255074
-0.0244932
-0.0234214
-0.0226464
-0.021795
-0.0211981
-0.0205145
-0.0200534
-0.0195005
-0.0191451
-0.0186959
-0.0184236
-0.0180577
-0.0178512
-0.0175527
-0.0173986
-0.0171548
-0.0170418
-0.0168423
-0.0167612
-0.0165971
-0.0165397
-0.0164032
-0.0163621
-0.0162463
-0.0162149
-0.0161132
-0.0160849
-0.0159912
-0.0159596
-0.0158679
-0.0158264
-0.0157302
-0.0156719
-0.0155638
-0.0154804
-0.0153504
-0.0152315
-0.0150628
-0.0192096
-0.018232
-0.0175081
-0.0167433
-0.01619
-0.0155825
-0.0151564
-0.0146686
-0.0143395
-0.0139451
-0.0136914
-0.0133711
-0.0131768
-0.012916
-0.0127688
-0.0125563
-0.0124465
-0.0122732
-0.0121929
-0.0120513
-0.0119938
-0.0118777
-0.0118372
-0.011741
-0.0117124
-0.0116313
-0.0116098
-0.0115392
-0.0115201
-0.0114558
-0.0114346
-0.0113724
-0.0113446
-0.0112799
-0.0112403
-0.0111679
-0.0111107
-0.0110229
-0.0109403
-0.0108249
-0.0115665
-0.0109791
-0.0105442
-0.0100846
-0.00975219
-0.00938708
-0.00913113
-0.00883804
-0.00864045
-0.00840354
-0.00825136
-0.00805908
-0.00794268
-0.00778631
-0.00769833
-0.0075711
-0.00750572
-0.00740221
-0.00735467
-0.00727043
-0.00723676
-0.00716804
-0.00714479
-0.00708834
-0.00707245
-0.0070254
-0.00701406
-0.0069738
-0.00696437
-0.00692845
-0.00691833
-0.00688432
-0.00687085
-0.00683612
-0.00681637
-0.00677761
-0.0067481
-0.00670015
-0.00665615
-0.00658963
-0.00386621
-0.00367283
-0.0035294
-0.00337804
-0.00326836
-0.00314813
-0.00306367
-0.00296724
-0.00290211
-0.00282433
-0.00277432
-0.00271143
-0.00267339
-0.00262257
-0.00259409
-0.00255314
-0.0025323
-0.00249947
-0.00248473
-0.0024586
-0.00244864
-0.00242803
-0.00242178
-0.00240571
-0.0024022
-0.00238986
-0.00238828
-0.00237898
-0.00237855
-0.0023717
-0.0023717
-0.00236671
-0.00236638
-0.00236256
-0.00236105
-0.00235729
-0.00235356
-0.00234777
-0.00234048
-0.00232911
0.003794
0.00359626
0.00345008
0.00329558
0.00318396
0.00306121
0.00297515
0.00287647
0.0028098
0.00272974
0.00267804
0.00261262
0.00257259
0.0025188
0.00248796
0.00244345
0.00241981
0.00238269
0.00236464
0.00233334
0.00231949
0.00229263
0.00228174
0.00225807
0.00224897
0.00222728
0.00221882
0.00219792
0.00218896
0.00216763
0.002157
0.00213401
0.00212054
0.00209468
0.00207705
0.00204727
0.00202387
0.00198946
0.00195816
0.00191896
0.0114937
0.0109021
0.0104645
0.0100018
0.00966749
0.00929991
0.00904239
0.00874708
0.00854797
0.00830882
0.00815496
0.00796018
0.00784181
0.00768252
0.00759219
0.00746144
0.00739327
0.00728552
0.00723469
0.00714534
0.0071078
0.0070329
0.00700505
0.0069411
0.00691965
0.00686339
0.00684525
0.00679357
0.00677569
0.00672554
0.0067049
0.00665321
0.00662668
0.00657033
0.00653452
0.00647025
0.00642111
0.00634518
0.00627738
0.0061838
0.0191382
0.0181563
0.0174297
0.0166618
0.0161066
0.0154966
0.0150689
0.0145789
0.0142483
0.0138516
0.0135963
0.0132735
0.0130772
0.0128135
0.012664
0.012448
0.0123355
0.012158
0.0120744
0.0119278
0.0118666
0.0117443
0.0116994
0.0115959
0.0115619
0.0114718
0.0114437
0.011362
0.0113349
0.0112566
0.0112255
0.011146
0.0111058
0.0110198
0.010965
0.0108671
0.010791
0.0106747
0.0105687
0.0104243
0.0268045
0.0254304
0.0244137
0.0233389
0.0225621
0.0217083
0.02111
0.0204242
0.0199617
0.0194067
0.0190496
0.0185981
0.0183238
0.0179551
0.0177464
0.0174446
0.0172877
0.0170399
0.0169237
0.0167194
0.0166345
0.0164645
0.0164027
0.0162591
0.0162129
0.0160884
0.0160507
0.0159383
0.0159023
0.0157954
0.0157541
0.015646
0.0155925
0.015476
0.0154025
0.0152702
0.0151678
0.0150106
0.014868
0.0146724
0.0344005
0.0326386
0.0313347
0.0299567
0.0289605
0.0278658
0.0270983
0.0262191
0.025626
0.0249145
0.0244566
0.0238778
0.0235262
0.0230538
0.0227863
0.0223997
0.0221988
0.0218817
0.0217331
0.0214718
0.0213635
0.0211465
0.0210678
0.0208849
0.0208262
0.0206681
0.0206205
0.0204783
0.020433
0.0202982
0.0202464
0.0201104
0.0200431
0.0198968
0.0198041
0.0196379
0.0195085
0.019311
0.019131
0.018886
0.0420005
0.0398499
0.0382584
0.0365763
0.0353603
0.034024
0.0330873
0.0320141
0.0312903
0.0304217
0.0298631
0.0291566
0.0287277
0.0281512
0.027825
0.0273534
0.0271086
0.0267218
0.0265409
0.0262224
0.0260906
0.0258263
0.0257308
0.0255083
0.0254374
0.0252452
0.025188
0.0250155
0.0249611
0.0247979
0.0247357
0.0245711
0.0244901
0.0243133
0.0242012
0.0240003
0.0238434
0.0236048
0.0233865
0.0230925
0.0495154
0.0469812
0.0451056
0.0431234
0.0416904
0.0401158
0.0390119
0.0377473
0.0368942
0.0358709
0.0352125
0.0343802
0.0338748
0.0331957
0.0328114
0.032256
0.0319676
0.0315122
0.0312992
0.0309244
0.0307695
0.0304586
0.0303465
0.030085
0.0300019
0.0297764
0.0297094
0.0295073
0.0294438
0.0292527
0.0291801
0.0289876
0.0288927
0.028686
0.0285547
0.0283199
0.0281362
0.0278576
0.0276033
0.0272615
0.0570166
0.0540988
0.0519393
0.0496571
0.0480072
0.0461941
0.0449232
0.0434671
0.042485
0.0413068
0.0405489
0.0395907
0.0390089
0.0382271
0.0377849
0.0371456
0.0368138
0.0362897
0.0360448
0.0356136
0.0354355
0.035078
0.0349493
0.0346487
0.0345535
0.0342944
0.0342178
0.0339857
0.0339131
0.033694
0.0336108
0.0333902
0.0332812
0.0330444
0.0328933
0.0326243
0.0324131
0.0320946
0.0318026
0.0314156
0.0644183
0.0611226
0.0586834
0.0561056
0.0542419
0.0521941
0.0507585
0.049114
0.0480046
0.0466739
0.0458178
0.0447357
0.0440786
0.0431958
0.0426963
0.0419744
0.0415998
0.0410082
0.0407317
0.0402451
0.0400442
0.0396409
0.0394958
0.0391568
0.0390496
0.0387576
0.0386714
0.0384101
0.0383285
0.0380819
0.0379883
0.0377402
0.0376176
0.0373513
0.0371813
0.036879
0.0366416
0.0362841
0.0359572
0.0355235
0.0717886
0.0681161
0.065398
0.0625253
0.0604486
0.0581665
0.0565669
0.0547342
0.0534981
0.0520152
0.0510613
0.0498554
0.0491234
0.0481397
0.0475833
0.046779
0.0463617
0.0457027
0.0453948
0.0448527
0.0446291
0.04418
0.0440186
0.0436413
0.0435221
0.0431972
0.0431015
0.0428108
0.0427202
0.042446
0.042342
0.0420663
0.0419298
0.0416342
0.0414448
0.0411096
0.0408454
0.0404498
0.0400868
0.0396098
0.0790452
0.0750023
0.0720099
0.0688476
0.0665612
0.0640491
0.062288
0.0602705
0.0589096
0.0572773
0.0562271
0.0548998
0.0540939
0.0530111
0.0523986
0.0515135
0.0510542
0.050329
0.0499902
0.0493938
0.0491478
0.0486538
0.0484763
0.0480614
0.0479305
0.0475734
0.0474683
0.0471489
0.0470495
0.0467484
0.0466343
0.0463318
0.0461821
0.0458578
0.0456501
0.0452826
0.0449933
0.0445598
0.0441631
0.0436403
0.0862532
0.0818416
0.0785766
0.0751259
0.0726312
0.06989
0.0679684
0.065767
0.0642822
0.062501
0.0613552
0.0599069
0.0590277
0.0578463
0.0571782
0.0562124
0.0557115
0.0549202
0.0545508
0.0539002
0.053632
0.0530932
0.0528998
0.0524474
0.0523048
0.0519155
0.0518011
0.0514531
0.0513449
0.0510169
0.0508927
0.0505634
0.0504003
0.0500476
0.0498214
0.0494222
0.0491071
0.0486369
0.0482054
0.0476392
0.0933337
0.0885607
0.0850281
0.0812948
0.0785956
0.0756298
0.0735507
0.071169
0.0695625
0.0676355
0.0663958
0.064829
0.0638777
0.0625997
0.0618768
0.0608321
0.0602903
0.0594345
0.0590349
0.0583313
0.0580413
0.0574587
0.0572497
0.0567605
0.0566065
0.0561858
0.0560624
0.0556865
0.0555697
0.0552156
0.0550817
0.0547263
0.0545505
0.05417
0.0539264
0.0534958
0.0531566
0.0526495
0.052185
0.0515737
0.100348
0.0952168
0.0914187
0.0874048
0.0845029
0.0813142
0.079079
0.0765182
0.0747911
0.0727193
0.0713866
0.069702
0.0686794
0.0673054
0.0665284
0.0654053
0.0648229
0.0639029
0.0634735
0.0627172
0.0624056
0.0617794
0.0615549
0.0610293
0.0608639
0.0604119
0.0602794
0.0598757
0.0597505
0.0593703
0.0592267
0.0588454
0.0586569
0.0582489
0.0579875
0.0575262
0.0571623
0.0566191
0.0561208
0.0554657
0.107222
0.10174
0.0976821
0.0933938
0.0902934
0.0868867
0.0844986
0.0817628
0.0799176
0.0777042
0.0762803
0.0744807
0.0733882
0.0719204
0.0710902
0.0698905
0.0692683
0.0682857
0.067827
0.0670193
0.0666865
0.0660179
0.0657782
0.065217
0.0650406
0.0645581
0.0644169
0.0639861
0.0638527
0.0634472
0.0632943
0.0628877
0.062687
0.0622521
0.0619738
0.0614822
0.0610947
0.0605156
0.0599847
0.0592851
0.114014
0.108184
0.103869
0.0993094
0.0960127
0.0923903
0.0898509
0.0869419
0.0849799
0.0826263
0.0811124
0.0791988
0.0780372
0.0764765
0.0755939
0.0743183
0.0736569
0.0726121
0.0721245
0.0712658
0.0709121
0.0702013
0.0699466
0.0693501
0.0691628
0.0686501
0.0685001
0.0680424
0.0679009
0.0674702
0.067308
0.0668763
0.0666634
0.0662019
0.0659066
0.0653849
0.0649736
0.0643589
0.0637952
0.0630519
0.120652
0.114483
0.109918
0.105093
0.101604
0.0977716
0.0950846
0.0920065
0.0899304
0.0874401
0.0858382
0.0838135
0.0825844
0.0809331
0.0799993
0.0786497
0.0779499
0.0768446
0.0763288
0.0754204
0.0750464
0.0742945
0.0740252
0.0733944
0.0731963
0.0726542
0.0724959
0.072012
0.0718627
0.0714075
0.0712363
0.0707802
0.0705555
0.0700679
0.0697563
0.0692051
0.0687708
0.068121
0.0675252
0.0667385
0.127191
0.120688
0.115875
0.110789
0.107111
0.103071
0.100238
0.0969933
0.0948047
0.0921795
0.0904908
0.0883564
0.0870608
0.0853201
0.0843358
0.0829131
0.0821756
0.0810104
0.0804669
0.0795093
0.0791152
0.0783227
0.078039
0.0773742
0.0771656
0.0765944
0.0764277
0.0759179
0.0757607
0.0752812
0.0751012
0.0746208
0.0743844
0.0738709
0.0735429
0.0729624
0.072505
0.0718205
0.0711926
0.0703632
0.133565
0.126737
0.121683
0.116342
0.11248
0.108238
0.105263
0.101856
0.0995581
0.0968016
0.0950285
0.0927874
0.091427
0.0895993
0.0885658
0.0870721
0.0862977
0.0850745
0.0845038
0.0834986
0.0830849
0.082253
0.0819553
0.0812575
0.0810387
0.0804392
0.0802644
0.0797295
0.0795648
0.0790617
0.0788731
0.0783691
0.0781213
0.0775826
0.0772386
0.0766295
0.0761496
0.075431
0.0747719
0.0739005
0.139823
0.132675
0.127385
0.121794
0.117751
0.11331
0.110196
0.106629
0.104224
0.101338
0.0994817
0.0971356
0.0957116
0.0937983
0.0927165
0.0911529
0.0903424
0.0890619
0.0884646
0.0874124
0.0869794
0.0861087
0.0857972
0.0850669
0.084838
0.0842106
0.0840278
0.083468
0.0832958
0.0827694
0.0825721
0.0820448
0.0817856
0.0812219
0.0808621
0.0802246
0.0797224
0.07897
0.0782799
0.0773673
0.145905
0.138447
0.132926
0.127092
0.122875
0.11824
0.114991
0.11127
0.108759
0.105748
0.103812
0.101364
0.099878
0.0978817
0.096753
0.0951216
0.0942759
0.09294
0.0923169
0.0912192
0.0907676
0.0898593
0.0895344
0.0887726
0.088534
0.0878795
0.087689
0.0871051
0.0869257
0.0863766
0.086171
0.085621
0.0853508
0.0847628
0.0843875
0.0837223
0.0831983
0.0824131
0.0816929
0.0807401
0.151857
0.144094
0.138349
0.132277
0.127887
0.123063
0.119682
0.115808
0.113196
0.110062
0.108047
0.105499
0.103952
0.101875
0.1007
0.0990022
0.0981222
0.0967318
0.0960835
0.094941
0.0944711
0.0935258
0.0931879
0.0923951
0.0921469
0.0914658
0.0912677
0.0906601
0.0904735
0.0899021
0.0896883
0.0891158
0.0888346
0.0882225
0.0878319
0.0871393
0.0865938
0.0857762
0.0850263
0.084034
0.157621
0.149564
0.143601
0.137299
0.132742
0.127736
0.124227
0.120206
0.117495
0.114242
0.11215
0.109506
0.107901
0.105745
0.104526
0.102764
0.10185
0.100407
0.0997345
0.098549
0.0980614
0.0970804
0.0967298
0.0959071
0.0956497
0.094943
0.0947375
0.094107
0.0939135
0.0933205
0.0930986
0.0925044
0.0922126
0.0915771
0.0911715
0.0904524
0.0898859
0.0890369
0.088258
0.0872277
0.16324
0.154896
0.14872
0.142193
0.137475
0.13229
0.128655
0.124492
0.121683
0.118315
0.116148
0.11341