/*--------------------------------*- C++ -*----------------------------------*\
| =========                 |                                                 |
| \\      /  F ield         | foam-extend: Open Source CFD                    |
|  \\    /   O peration     | Version:  3.0                                   |
|   \\  /    A nd           | Web:         http://www.extend-project.de       |
|    \\/     M anipulation  |                                                 |
\*---------------------------------------------------------------------------*/
FoamFile
{
    version     2.0;
    format      ascii;
    class       volVectorField;
    location    "49";
    object      u;
}
// * * * * * * * * * * * * * * * * * * * * * * * * * * * * * * * * * * * * * //

dimensions      [0 0 0 0 0 0 0];

internalField   nonuniform List<vector> 
7680
(
(0.125992 -0.0363059 4.57456e-17)
(0.150059 -0.0318393 5.46016e-17)
(0.340233 -0.0301023 -5.09611e-17)
(0.344289 -0.0262224 4.47802e-17)
(0.493264 -0.0254856 -2.98112e-17)
(0.48748 -0.022446 2.65248e-17)
(0.606417 -0.0221709 -1.48003e-17)
(0.5952 -0.0198328 -6.7739e-18)
(0.692389 -0.0197538 -2.3467e-17)
(0.677708 -0.0179951 -1.17644e-17)
(0.759087 -0.0180013 -2.77068e-17)
(0.741928 -0.0166993 3.3472e-17)
(0.811678 -0.0167494 -4.35992e-17)
(0.792604 -0.0158012 3.80587e-17)
(0.853686 -0.0158746 -1.96405e-17)
(0.833039 -0.0152022 5.04648e-17)
(0.887592 -0.0152842 -4.07963e-17)
(0.865566 -0.0148297 6.90063e-17)
(0.915184 -0.014911 -4.85335e-17)
(0.891871 -0.0146296 5.85046e-17)
(0.937773 -0.0147065 -5.4968e-17)
(0.913192 -0.0145613 5.93561e-17)
(0.956335 -0.0146357 -4.92002e-17)
(0.930451 -0.0145948 6.74523e-17)
(0.971602 -0.0146731 -4.90976e-17)
(0.944344 -0.0147108 4.9855e-17)
(0.984134 -0.0148028 -2.56916e-17)
(0.955395 -0.0149038 3.49699e-17)
(0.994364 -0.0150296 -2.50917e-17)
(0.964004 -0.0151771 1.92316e-17)
(1.00261 -0.0154271 -1.43902e-17)
(0.970516 -0.0154689 1.27899e-17)
(1.00896 -0.0162948 -8.0572e-18)
(0.975462 -0.0153564 5.29058e-18)
(1.01295 -0.0185001 1.19239e-17)
(0.980046 -0.0133722 -7.92811e-18)
(1.01333 -0.0236709 2.56019e-17)
(0.985985 -0.0086455 -2.15504e-17)
(1.00983 -0.0224763 2.72329e-17)
(0.992962 -0.0345078 -1.98089e-17)
(0.130394 -0.101395 -4.67001e-17)
(0.153821 -0.0874622 -7.31487e-17)
(0.343889 -0.0817562 6.35243e-17)
(0.347378 -0.0697252 -5.12755e-17)
(0.496394 -0.0669485 5.44843e-18)
(0.490139 -0.0571987 -4.89744e-20)
(0.609155 -0.0557227 1.83362e-17)
(0.59755 -0.0480801 3.47943e-17)
(0.694825 -0.0471579 4.87143e-17)
(0.679823 -0.0412575 5.27163e-17)
(0.761288 -0.0405859 2.13921e-17)
(0.743858 -0.0360384 -7.47975e-18)
(0.813689 -0.0355036 2.37899e-17)
(0.794382 -0.0319888 -1.47779e-17)
(0.855534 -0.0315371 -2.56675e-17)
(0.834685 -0.0288213 -4.96854e-17)
(0.889294 -0.0284124 4.91632e-17)
(0.867093 -0.0263305 -1.07369e-16)
(0.916749 -0.025929 8.52717e-17)
(0.893286 -0.0243621 -9.95049e-17)
(0.939201 -0.0239388 6.97706e-17)
(0.914494 -0.0228001 -8.28539e-17)
(0.957614 -0.0223339 5.20229e-17)
(0.931631 -0.0215613 -9.58619e-17)
(0.972709 -0.021037 4.23493e-17)
(0.945382 -0.0205913 -5.35431e-17)
(0.985029 -0.0199909 -3.48476e-18)
(0.956266 -0.0198527 -2.69688e-17)
(0.994988 -0.0191513 -1.30592e-17)
(0.964686 -0.0192786 3.66234e-18)
(1.00288 -0.0185396 -1.15918e-17)
(0.971032 -0.0185876 9.05417e-18)
(1.00882 -0.0185587 -4.6303e-18)
(0.975915 -0.0167366 -5.61406e-18)
(1.01255 -0.0208911 -8.74197e-18)
(0.980349 -0.0110684 -1.04219e-17)
(1.01371 -0.0290248 1.26521e-17)
(0.984921 -0.000812106 -3.51821e-18)
(1.01291 -0.0327661 -1.12019e-17)
(0.989617 -0.0264804 2.89079e-17)
(0.139017 -0.166092 3.9731e-17)
(0.161212 -0.142227 6.31304e-17)
(0.35064 -0.132619 -1.19304e-16)
(0.353086 -0.112272 1.11666e-16)
(0.501695 -0.107539 -3.91243e-17)
(0.494616 -0.0911778 -1.87694e-18)
(0.613352 -0.0885886 -7.2602e-17)
(0.60112 -0.075787 -8.55132e-18)
(0.698177 -0.0740876 -1.03163e-16)
(0.682709 -0.0641967 -6.75728e-17)
(0.763989 -0.0628845 -4.22341e-17)
(0.746217 -0.0552502 7.51301e-18)
(0.815887 -0.0541331 -1.68061e-17)
(0.796334 -0.0482247 4.72934e-18)
(0.857346 -0.0472065 6.74798e-17)
(0.836321 -0.042637 6.96351e-17)
(0.890812 -0.0416471 -4.9346e-17)
(0.868485 -0.0381427 1.45116e-16)
(0.918045 -0.0371236 -1.30323e-16)
(0.894489 -0.034486 1.24939e-16)
(0.940334 -0.0333942 -8.45576e-17)
(0.915552 -0.0314729 1.29663e-16)
(0.958636 -0.0302785 -9.17515e-17)
(0.932583 -0.0289555 1.51381e-16)
(0.97367 -0.027639 -5.56042e-17)
(0.946265 -0.0268235 1.08592e-16)
(0.98598 -0.0253724 -1.70955e-17)
(0.957113 -0.025 6.28842e-17)
(0.995977 -0.0234285 1.01604e-17)
(0.965523 -0.0234104 8.84649e-18)
(1.00395 -0.0219241 1.92299e-18)
(0.971867 -0.0218066 1.53206e-17)
(1.00995 -0.0214821 3.29688e-18)
(0.976742 -0.0193109 5.49414e-18)
(1.01351 -0.0235699 1.0411e-17)
(0.981274 -0.0142215 -1.14799e-17)
(1.01378 -0.0293245 1.90634e-17)
(0.986316 -0.00752749 -2.19658e-17)
(1.01122 -0.0264033 3.11766e-17)
(0.992012 -0.0353177 -2.9615e-17)
(0.151892 -0.230064 4.54955e-19)
(0.172164 -0.196848 -1.06791e-16)
(0.360963 -0.183325 2.82912e-16)
(0.361773 -0.154952 -2.44718e-16)
(0.510148 -0.148206 1.01816e-16)
(0.501727 -0.125256 1.82696e-17)
(0.62038 -0.121481 1.0483e-16)
(0.607075 -0.103474 2.04074e-17)
(0.704104 -0.100942 6.24757e-17)
(0.687782 -0.0869892 5.1976e-17)
(0.769054 -0.0850077 1.0605e-16)
(0.750597 -0.0741948 -4.79581e-17)
(0.820264 -0.0724994 2.24137e-17)
(0.800154 -0.0640831 -1.35076e-17)
(0.861161 -0.0625434 -7.9259e-17)
(0.839679 -0.0559841 -2.86195e-17)
(0.894156 -0.0545026 9.43018e-18)
(0.871456 -0.0494217 -1.56213e-16)
(0.920988 -0.0479142 1.70481e-16)
(0.897132 -0.0440424 -1.62853e-16)
(0.942929 -0.0424398 9.4616e-17)
(0.917911 -0.0395805 -1.48086e-16)
(0.960924 -0.0378292 8.18984e-17)
(0.934691 -0.0358383 -1.06022e-16)
(0.975683 -0.0338949 -1.9797e-17)
(0.948146 -0.0326721 -6.44737e-17)
(0.987742 -0.0304911 -4.99423e-17)
(0.958782 -0.0299699 -1.15812e-17)
(0.997512 -0.0275121 -7.30144e-17)
(0.966982 -0.0275684 3.39921e-17)
(1.00529 -0.0250117 -2.89653e-17)
(0.973056 -0.0249334 4.33176e-18)
(1.01122 -0.0237276 -6.82864e-17)
(0.977396 -0.0203947 1.13784e-16)
(1.01513 -0.0260487 -9.52373e-17)
(0.980676 -0.0108903 4.38573e-17)
(1.01672 -0.0349962 1.75521e-17)
(0.983602 0.00164103 -3.28078e-17)
(1.01587 -0.0363553 1.96194e-17)
(0.988938 -0.0291137 -4.5836e-17)
(0.168879 -0.293087 -4.41584e-17)
(0.186662 -0.25023 1.27048e-17)
(0.37432 -0.232922 -4.473e-16)
(0.373021 -0.196455 3.45471e-16)
(0.520745 -0.187811 -1.30758e-16)
(0.510644 -0.158412 -7.3096e-17)
(0.628879 -0.153556 -1.66497e-16)
(0.614276 -0.130514 2.73321e-17)
(0.710993 -0.127227 -4.51943e-17)
(0.693683 -0.109378 -2.667e-17)
(0.774695 -0.106772 -1.24168e-16)
(0.755491 -0.0929428 3.07749e-17)
(0.82493 -0.090679 4.43168e-17)
(0.804254 -0.0799201 -2.14342e-17)
(0.865056 -0.0778279 1.22282e-16)
(0.843146 -0.0694511 -6.53718e-17)
(0.897437 -0.0674046 7.32193e-17)
(0.874412 -0.0609259 3.81287e-17)
(0.923772 -0.0588194 -5.34041e-17)
(0.899668 -0.0538921 6.50069e-17)
(0.945309 -0.0516408 8.58538e-22)
(0.920099 -0.0480072 1.56742e-16)
(0.962972 -0.0455469 -8.30059e-17)
(0.936584 -0.04301 8.09412e-17)
(0.977455 -0.0402909 5.0265e-17)
(0.94978 -0.0387045 8.09252e-17)
(0.98928 -0.0356834 1.68932e-17)
(0.960179 -0.0349451 2.74406e-17)
(0.998853 -0.0316118 1.12237e-16)
(0.968143 -0.0315735 -2.92e-17)
(1.00651 -0.0282029 5.15056e-17)
(0.973931 -0.028133 1.6372e-17)
(1.01258 -0.026313 -2.30567e-17)
(0.977725 -0.0232656 2.42676e-17)
(1.01742 -0.0278536 2.06108e-17)
(0.979665 -0.0151137 -3.54602e-17)
(1.02137 -0.0332828 1.60799e-17)
(0.980024 -0.007199 -4.03699e-17)
(1.02336 -0.0269622 4.94017e-17)
(0.983561 -0.0400264 4.13623e-17)
(0.189998 -0.354842 1.16027e-16)
(0.204636 -0.30292 1.45799e-16)
(0.391152 -0.281819 5.01087e-16)
(0.387176 -0.237595 -2.50597e-16)
(0.534395 -0.226999 1.13323e-16)
(0.522108 -0.191244 1.09255e-16)
(0.640099 -0.185239 2.20979e-16)
(0.623759 -0.157178 -7.55415e-17)
(0.720332 -0.153084 1.32844e-17)
(0.701654 -0.131321 3.06451e-19)
(0.782561 -0.128067 2.71516e-16)
(0.762273 -0.111178 -1.39846e-16)
(0.831624 -0.108353 9.46929e-17)
(0.810081 -0.0951842 -1.43554e-16)
(0.870802 -0.0925829 -3.17101e-17)
(0.848194 -0.0822993 -1.0516e-16)
(0.902401 -0.0797682 1.48554e-16)
(0.878817 -0.071785 -1.5642e-16)
(0.928083 -0.0691919 1.42176e-16)
(0.903537 -0.0630952 -8.72575e-17)
(0.94907 -0.0603298 1.88547e-17)
(0.923518 -0.0558186 -1.63992e-16)
(0.96627 -0.0527916 3.65625e-17)
(0.939624 -0.0496454 2.23205e-17)
(0.980368 -0.0462788 -1.52258e-16)
(0.952506 -0.0443444 3.25971e-17)
(0.991892 -0.0405532 -1.05783e-16)
(0.962648 -0.0397364 1.65016e-17)
(1.00126 -0.035436 -1.70881e-16)
(0.970384 -0.0356037 2.23221e-17)
(1.00884 -0.0309523 -1.65752e-16)
(0.975845 -0.0313519 8.4298e-17)
(1.01507 -0.0278949 -1.39199e-16)
(0.978834 -0.0252792 1.1227e-16)
(1.02057 -0.0286158 -1.90757e-16)
(0.978958 -0.0147163 8.75451e-17)
(1.02576 -0.0353314 7.89414e-18)
(0.977109 -0.00267741 -5.86855e-17)
(1.02804 -0.0330451 -4.39582e-18)
(0.981804 -0.0343544 -8.44072e-17)
(0.215066 -0.415116 -1.39271e-16)
(0.225998 -0.354 -2.94759e-16)
(0.410898 -0.329292 -3.97328e-16)
(0.403783 -0.277331 6.68002e-17)
(0.550116 -0.264927 -9.59707e-17)
(0.535318 -0.222997 3.99186e-17)
(0.65276 -0.215961 -2.56135e-16)
(0.634469 -0.183078 1.55819e-16)
(0.730641 -0.178261 1.8997e-17)
(0.710467 -0.152766 -8.19928e-17)
(0.791043 -0.148913 -2.37495e-16)
(0.76961 -0.129132 7.1181e-17)
(0.838669 -0.125762 1.24189e-17)
(0.816249 -0.110346 1.86186e-16)
(0.876701 -0.107217 4.50664e-17)
(0.853421 -0.0951879 5.47052e-18)
(0.907373 -0.0921179 -4.03568e-17)
(0.883273 -0.0827924 -2.74603e-18)
(0.932292 -0.0796288 -6.77108e-17)
(0.907353 -0.0725202 -7.77731e-18)
(0.952641 -0.0691361 -2.43221e-17)
(0.926791 -0.0638883 7.15219e-17)
(0.969294 -0.0601816 2.67638e-17)
(0.942425 -0.0565311 -2.07727e-17)
(0.982912 -0.0524132 8.11002e-17)
(0.954882 -0.0501767 -5.41117e-17)
(0.993995 -0.0455531 1.16961e-16)
(0.964624 -0.0446274 -5.27943e-17)
(1.00294 -0.0394013 2.30531e-16)
(0.971971 -0.0396915 -3.9486e-17)
(1.01015 -0.0339759 2.79533e-16)
(0.977031 -0.0348958 -6.81374e-17)
(1.01623 -0.0299745 8.22331e-17)
(0.979471 -0.0288972 -1.34703e-17)
(1.02235 -0.0291441 1.24621e-16)
(0.978325 -0.0198822 -7.74876e-17)
(1.02989 -0.0320334 8.385e-17)
(0.973437 -0.0115985 -8.35049e-17)
(1.03596 -0.0232777 1.98891e-16)
(0.974414 -0.045487 -1.45964e-17)
(0.244065 -0.473597 2.75595e-16)
(0.250682 -0.403865 1.91969e-16)
(0.433942 -0.375553 4.58156e-16)
(0.423154 -0.316237 1.89761e-16)
(0.568725 -0.301977 5.06193e-17)
(0.550934 -0.254032 -2.55478e-16)
(0.667977 -0.245903 2.53047e-16)
(0.647317 -0.208273 -2.54103e-16)
(0.743234 -0.202689 4.95951e-17)
(0.721201 -0.173493 -2.502e-17)
(0.801582 -0.169024 2.94546e-16)
(0.778685 -0.146353 -2.97161e-16)
(0.847577 -0.142448 1.37424e-16)
(0.823994 -0.124758 -3.66881e-16)
(0.884292 -0.12114 5.83293e-17)
(0.860084 -0.107316 -1.119e-16)
(0.913883 -0.103778 1.33122e-16)
(0.889047 -0.0930387 -1.33116e-16)
(0.937905 -0.0894008 1.32426e-16)
(0.912389 -0.0811985 1.33565e-17)
(0.957502 -0.0773085 -2.71561e-17)
(0.931212 -0.0712461 2.97069e-18)
(0.973528 -0.0669763 -6.87989e-17)
(0.946334 -0.0627668 1.02725e-16)
(0.986628 -0.0579978 -9.39662e-17)
(0.958369 -0.0554512 3.64519e-17)
(0.997304 -0.0500423 -1.26049e-16)
(0.967773 -0.0490695 1.30473e-16)
(1.00596 -0.0428414 -4.04023e-16)
(0.974843 -0.0434043 6.1038e-17)
(1.01301 -0.0362989 -2.81108e-16)
(0.979598 -0.0380006 9.05935e-17)
(1.01908 -0.0309129 -5.58277e-17)
(0.981437 -0.0316496 1.27618e-17)
(1.0255 -0.0283144 -1.11629e-16)
(0.978936 -0.0224914 8.79271e-17)
(1.03379 -0.0300221 -3.40912e-19)
(0.972093 -0.0128683 -4.84883e-17)
(1.04012 -0.023138 1.77539e-17)
(0.973383 -0.0424473 -2.66392e-16)
(0.276789 -0.530089 -3.09322e-16)
(0.278547 -0.451761 -2.51411e-16)
(0.459744 -0.42008 -4.42798e-16)
(0.444842 -0.353516 -6.01792e-16)
(0.589305 -0.337567 -1.34646e-16)
(0.568216 -0.283829 4.26617e-16)
(0.684586 -0.274736 -2.06239e-16)
(0.661356 -0.232579 3.10037e-16)
(0.756787 -0.226318 3.75634e-17)
(0.732777 -0.193617 -1.20726e-16)
(0.812756 -0.188587 -1.07584e-16)
(0.78834 -0.1632 2.16458e-16)
(0.856875 -0.158784 -3.81602e-17)
(0.832121 -0.138982 2.41279e-16)
(0.892088 -0.13487 1.90671e-16)
(0.866976 -0.119406 -1.31424e-16)
(0.920455 -0.115364 1.75672e-16)
(0.894925 -0.103366 -1.22796e-16)
(0.943463 -0.099195 1.30262e-16)
(0.917421 -0.0900477 -7.51478e-17)
(0.962202 -0.085579 -4.94738e-19)
(0.935523 -0.0788381 2.46575e-17)
(0.977486 -0.0739293 -4.74996e-17)
(0.950019 -0.0692757 -3.13741e-17)
(0.989926 -0.0637927 2.72194e-17)
(0.961497 -0.0610214 4.91188e-17)
(0.999991 -0.0548025 -6.53978e-17)
(0.970394 -0.0538386 2.79786e-16)
(1.00806 -0.0466572 2.66707e-17)
(0.977005 -0.0475441 1.97942e-16)
(1.01453 -0.0391876 8.78871e-17)
(0.981366 -0.0418219 -5.80071e-17)
(1.02009 -0.032625 8.97691e-17)
(0.982873 -0.0358556 -1.00929e-16)
(1.02625 -0.0278814 1.09526e-16)
(0.979808 -0.0283938 -9.15088e-17)
(1.03515 -0.0256515 9.18398e-17)
(0.971155 -0.021469 -2.01489e-16)
(1.04345 -0.0142333 3.5787e-16)
(0.969347 -0.051544 -8.57857e-17)
(0.313172 -0.584296 5.99887e-16)
(0.309517 -0.497955 3.23787e-16)
(0.488607 -0.462922 5.60136e-16)
(0.469098 -0.389533 8.97636e-16)
(0.612555 -0.371856 3.36837e-16)
(0.587718 -0.312544 -4.1977e-16)
(0.703544 -0.302434 1.05542e-16)
(0.677353 -0.255882 -3.66345e-16)
(0.772424 -0.248907 -1.62784e-16)
(0.746097 -0.212781 3.2999e-16)
(0.825795 -0.207177 5.90582e-17)
(0.79956 -0.179115 -1.04229e-16)
(0.867852 -0.1742 1.23612e-16)
(0.84166 -0.152296 -3.18516e-16)
(0.901402 -0.147727 -5.21493e-17)
(0.875149 -0.130603 4.6378e-17)
(0.928407 -0.12612 -1.57539e-16)
(0.901976 -0.112818 1.8199e-17)
(0.950283 -0.108197 -1.04464e-16)
(0.92354 -0.0980423 1.08254e-16)
(0.968073 -0.0930918 1.78208e-17)
(0.940862 -0.085601 5.55983e-17)
(0.982555 -0.0801537 5.99478e-18)
(0.954703 -0.0749849 1.20459e-16)
(0.994318 -0.0688779 -2.10157e-16)
(0.96563 -0.0658171 2.64441e-16)
(1.00382 -0.058847 -2.01015e-16)
(0.974069 -0.0578324 1.52581e-17)
(1.01141 -0.0496996 -3.24901e-16)
(0.980299 -0.050842 1.56444e-16)
(1.01747 -0.0411641 -2.75005e-16)
(0.984339 -0.0446262 2.5352e-16)
(1.02259 -0.0332288 -3.32609e-16)
(0.985559 -0.0387303 3.75612e-16)
(1.0282 -0.0263869 -3.52144e-16)
(0.982133 -0.0322881 2.26865e-16)
(1.03654 -0.0216067 -1.51949e-16)
(0.972739 -0.0259187 4.69919e-17)
(1.04432 -0.00990827 -4.49863e-17)
(0.970584 -0.0516405 -3.29336e-16)
(0.352995 -0.636039 -9.82332e-16)
(0.343414 -0.541842 -5.9706e-16)
(0.520025 -0.503733 -5.17255e-16)
(0.495498 -0.423707 -1.05941e-15)
(0.637643 -0.40449 -4.13854e-16)
(0.608778 -0.339865 2.07563e-16)
(0.723814 -0.328875 -1.11799e-16)
(0.69448 -0.278169 4.67453e-16)
(0.788986 -0.270575 2.36641e-16)
(0.760235 -0.231233 -3.68443e-16)
(0.839467 -0.225115 -1.66621e-16)
(0.811363 -0.194561 -1.37362e-16)
(0.879241 -0.189177 -3.61649e-17)
(0.851604 -0.165336 5.60339e-17)
(0.910957 -0.160313 1.13826e-16)
(0.883587 -0.141687 -1.09237e-16)
(0.936465 -0.136743 2.37291e-16)
(0.909175 -0.122288 -8.96582e-17)
(0.957095 -0.117181 3.07021e-16)
(0.929704 -0.106165 -3.24942e-16)
(0.973828 -0.100685 7.66561e-17)
(0.946149 -0.092584 -1.42537e-16)
(0.987394 -0.08655 -1.44781e-17)
(0.959231 -0.0809972 -1.70323e-17)
(0.998343 -0.0742294 -1.09325e-16)
(0.969496 -0.071004 1.28e-16)
(1.00709 -0.0632722 -2.11663e-16)
(0.977352 -0.0623332 3.70426e-16)
(1.01398 -0.0532778 -1.30613e-16)
(0.983085 -0.0548211 6.60642e-18)
(1.01933 -0.0438786 7.02992e-17)
(0.986764 -0.0483639 -1.62496e-17)
(1.02365 -0.0347517 2.79658e-17)
(0.98788 -0.0428671 -3.16423e-17)
(1.02823 -0.0256817 6.08451e-17)
(0.984654 -0.0379573 -2.80761e-17)
(1.03545 -0.0171991 1.64917e-16)
(0.97505 -0.0334993 -1.78159e-16)
(1.04294 -0.0022962 3.40952e-16)
(0.971524 -0.0581328 -2.06368e-17)
(0.396143 -0.685044 8.94977e-16)
(0.380137 -0.583579 6.09371e-16)
(0.554217 -0.54243 4.82196e-16)
(0.524225 -0.456225 9.32853e-16)
(0.665141 -0.435438 2.66334e-16)
(0.631836 -0.365778 2.67718e-16)
(0.746196 -0.353863 -3.84125e-17)
(0.713357 -0.299188 -1.93639e-16)
(0.807408 -0.290945 -3.48304e-16)
(0.775921 -0.248511 4.20578e-16)
(0.854792 -0.241871 3.79425e-17)
(0.824546 -0.208901 4.70628e-16)
(0.892109 -0.203064 -1.17166e-17)
(0.862782 -0.177324 1.43211e-16)
(0.921845 -0.171885 4.98524e-17)
(0.893138 -0.151759 1.87497e-16)
(0.945728 -0.146413 -2.77134e-16)
(0.917387 -0.13078 1.64294e-16)
(0.965007 -0.125261 -2.77948e-16)
(0.936801 -0.113333 4.11933e-16)
(0.9806 -0.107412 -1.29203e-16)
(0.952307 -0.0986297 1.38299e-16)
(0.993193 -0.0921053 9.89919e-18)
(0.964592 -0.0860771 2.01765e-16)
(1.0033 -0.0787464 -1.95056e-16)
(0.974172 -0.0752404 1.82722e-16)
(1.01131 -0.0668424 -1.49643e-16)
(0.981438 -0.0658247 -1.80248e-17)
(1.01751 -0.0559472 -1.54858e-16)
(0.986666 -0.0576687 1.73042e-16)
(1.02217 -0.0456169 -1.86281e-16)
(0.989958 -0.0507716 3.80882e-17)
(1.02566 -0.0353182 -5.32931e-17)
(0.990973 -0.0453991 2.2482e-16)
(1.02894 -0.0243842 -3.70854e-16)
(0.988197 -0.0416307 2.24932e-16)
(1.03426 -0.0132853 -2.1619e-16)
(0.979298 -0.0382661 1.03756e-16)
(1.0399 0.00280674 -2.47329e-16)
(0.976066 -0.0596103 -2.07169e-16)
(0.442382 -0.731151 -3.77541e-16)
(0.41949 -0.622701 -3.86266e-16)
(0.590714 -0.578818 -4.76007e-16)
(0.55489 -0.486701 -6.41395e-16)
(0.694307 -0.464549 -4.62602e-16)
(0.656313 -0.390147 -4.63568e-16)
(0.769779 -0.377451 6.39133e-18)
(0.733279 -0.319067 1.14638e-16)
(0.826691 -0.310275 1.33292e-17)
(0.792376 -0.264968 -3.55588e-17)
(0.870723 -0.257871 -1.53367e-16)
(0.838292 -0.222676 -5.68559e-16)
(0.905389 -0.216422 -1.31239e-16)
(0.87437 -0.188953 -4.19283e-16)
(0.932993 -0.183109 -4.63042e-17)
(0.902975 -0.161644 -4.89433e-16)
(0.955132 -0.155887 4.02708e-16)
(0.925784 -0.139227 -4.71487e-16)
(0.972959 -0.133275 3.96127e-16)
(0.943996 -0.120582 -6.19078e-16)
(0.987319 -0.11419 2.28771e-16)
(0.958485 -0.10487 -2.09855e-16)
(0.998843 -0.0978225 -1.45422e-17)
(0.969896 -0.0914624 -2.91931e-17)
(1.008 -0.0835409 -6.64026e-17)
(0.978719 -0.0799023 2.79929e-16)
(1.01515 -0.0708207 -1.87937e-16)
(0.985331 -0.0698839 2.40906e-16)
(1.02054 -0.0591776 7.58846e-17)
(0.990014 -0.0612532 -5.69323e-17)
(1.02438 -0.0480831 1.70313e-16)
(0.99293 -0.054076 -2.83016e-17)
(1.02689 -0.0367581 2.72582e-17)
(0.993942 -0.0488622 -1.43053e-16)
(1.02867 -0.0240072 3.87886e-16)
(0.991856 -0.0460361 -3.65091e-16)
(1.03174 -0.0100448 3.69178e-16)
(0.984024 -0.0437509 -3.09282e-16)
(1.03532 0.00822498 4.03355e-16)
(0.981223 -0.06348 2.10295e-17)
(0.491558 -0.774114 2.57586e-16)
(0.461337 -0.659269 3.41722e-16)
(0.62965 -0.612713 3.92885e-16)
(0.587596 -0.515172 5.32937e-16)
(0.725585 -0.491635 6.12537e-16)
(0.682535 -0.412821 4.58152e-16)
(0.795206 -0.399308 6.75878e-17)
(0.754719 -0.337449 2.25779e-16)
(0.847592 -0.328083 9.82521e-18)
(0.810167 -0.280068 7.12061e-17)
(0.888082 -0.27251 1.53597e-16)
(0.85322 -0.235199 5.66415e-16)
(0.919938 -0.228544 4.08252e-16)
(0.887006 -0.199411 5.69425e-16)
(0.945276 -0.1932 4.95543e-17)
(0.913748 -0.170419 6.71738e-16)
(0.965557 -0.164307 -5.24938e-16)
(0.935023 -0.146611 7.08572e-16)
(0.981833 -0.140297 -3.15806e-16)
(0.951954 -0.126799 5.26097e-16)
(0.994879 -0.120023 -1.63e-16)
(0.965359 -0.110094 1.80613e-16)
(1.00527 -0.102624 -1.08681e-16)
(0.97584 -0.0958277 8.33821e-17)
(1.01344 -0.0874305 2.40149e-17)
(0.983854 -0.083514 -3.21221e-16)
(1.01968 -0.073886 2.49662e-16)
(0.989756 -0.0728279 -3.28456e-16)
(1.02422 -0.0614756 5.72344e-17)
(0.993821 -0.0636162 -2.15432e-16)
(1.02719 -0.049626 6.40299e-17)
(0.996269 -0.0560102 -2.2672e-16)
(1.02863 -0.0374329 1.27338e-16)
(0.997207 -0.0507449 1.82542e-17)
(1.02875 -0.02341 -1.8809e-16)
(0.995918 -0.0485395 3.00478e-16)
(1.02923 -0.00764904 -2.74866e-16)
(0.989715 -0.0469321 2.14567e-16)
(1.02993 0.0116523 -1.6166e-16)
(0.988366 -0.0644457 -2.37604e-16)
(0.543424 -0.813797 -7.13363e-16)
(0.505478 -0.692952 -1.36452e-16)
(0.670604 -0.64405 -5.39518e-16)
(0.622003 -0.541421 -3.89568e-16)
(0.758331 -0.516716 -6.03236e-16)
(0.710012 -0.433814 -4.00771e-16)
(0.821698 -0.419632 -3.23746e-16)
(0.777092 -0.354573 -1.47061e-16)
(0.869264 -0.344736 -6.02145e-16)
(0.828655 -0.294243 2.46667e-16)
(0.905995 -0.286293 -4.35716e-16)
(0.868671 -0.247063 -3.49181e-16)
(0.934877 -0.240049 -8.08066e-16)
(0.900035 -0.209424 -5.61505e-16)
(0.957823 -0.202866 -2.23929e-16)
(0.924814 -0.17893 -4.07757e-16)
(0.976145 -0.172464 4.50968e-16)
(0.944473 -0.153884 -6.90357e-16)
(0.99079 -0.147196 5.01094e-16)
(0.960058 -0.133041 -6.47839e-16)
(1.00245 -0.125858 3.60625e-16)
(0.972323 -0.115467 -3.1488e-16)
(1.01165 -0.107547 2.2467e-16)
(0.981828 -0.100464 -1.16621e-16)
(1.01875 -0.0915601 1.07054e-16)
(0.989 -0.0875227 9.98299e-17)
(1.02404 -0.0773134 4.99108e-17)
(0.994173 -0.0763024 3.27926e-17)
(1.02768 -0.0642602 2.39284e-16)
(0.997625 -0.0666399 -2.85825e-17)
(1.02975 -0.0517737 2.20323e-16)
(0.999625 -0.0586769 -1.20811e-16)
(1.03012 -0.0388224 2.6034e-16)
(1.00049 -0.053231 -2.238e-16)
(1.02863 -0.0236692 2.51809e-16)
(0.999945 -0.0511568 -2.77045e-16)
(1.02652 -0.00629205 1.89458e-16)
(0.995359 -0.049697 -2.31708e-16)
(1.02424 0.0141772 1.11795e-16)
(0.995785 -0.065803 -4.90622e-17)
(0.59779 -0.849982 8.88991e-16)
(0.551731 -0.723729 1.57322e-16)
(0.71362 -0.672567 4.14616e-16)
(0.658129 -0.565364 5.8067e-16)
(0.792858 -0.539482 4.18269e-16)
(0.738954 -0.452866 6.2899e-16)
(0.84974 -0.43799 1.98377e-16)
(0.800735 -0.370007 3.51616e-16)
(0.892293 -0.359682 5.03222e-16)
(0.848253 -0.306909 -5.80744e-17)
(0.925101 -0.298567 2.36603e-16)
(0.885097 -0.257555 4.83307e-16)
(0.950869 -0.250202 7.65101e-16)
(0.913921 -0.218174 6.91082e-16)
(0.971303 -0.211305 2.55099e-16)
(0.936634 -0.186257 2.12306e-16)
(0.987562 -0.179493 -4.70381e-16)
(0.954589 -0.160034 5.94097e-16)
(1.00048 -0.153045 -4.77719e-16)
(0.968747 -0.138201 3.10808e-16)
(1.01068 -0.130701 -2.17126e-17)
(0.979801 -0.119781 4.33634e-17)
(1.01861 -0.111519 6.74183e-17)
(0.988262 -0.104044 -1.41904e-16)
(1.02459 -0.0947657 1.1367e-16)
(0.99452 -0.0904541 -3.73513e-16)
(1.02886 -0.0798322 2.19639e-16)
(0.998884 -0.0786553 -3.85844e-16)
(1.03153 -0.0661545 5.8631e-17)
(1.00163 -0.0684787 -2.51898e-16)
(1.03262 -0.0530923 9.84104e-17)
(1.00307 -0.0600802 -2.15558e-16)
(1.03187 -0.0395943 1.03895e-16)
(1.00374 -0.0543276 -3.74364e-16)
(1.02878 -0.0238706 2.66738e-16)
(1.00386 -0.0521418 -1.16789e-16)
(1.02416 -0.00584149 -2.09333e-17)
(1.00102 -0.0505961 2.3917e-16)
(1.01873 0.0150204 -1.46543e-16)
(1.00375 -0.0653778 2.34847e-16)
(0.654395 -0.88256 -9.37136e-16)
(0.59991 -0.751393 1.20662e-16)
(0.758332 -0.698311 -7.71796e-16)
(0.695693 -0.586929 -3.2453e-16)
(0.828624 -0.560097 -7.82942e-16)
(0.768962 -0.470115 -2.99114e-16)
(0.878686 -0.454696 -2.49511e-16)
(0.825176 -0.384078 -5.76739e-17)
(0.91598 -0.373369 -8.17234e-16)
(0.868456 -0.318555 3.88971e-16)
(0.944686 -0.309893 -3.88271e-16)
(0.901986 -0.2673 -3.92509e-16)
(0.967208 -0.259652 -6.61796e-16)
(0.928166 -0.226397 -8.19587e-16)
(0.98503 -0.219241 -2.88171e-16)
(0.948736 -0.193243 -1.79008e-16)
(0.999153 -0.186187 4.09381e-16)
(0.964929 -0.166 -4.67673e-16)
(1.01029 -0.158702 3.33246e-16)
(0.977618 -0.143317 -2.92072e-16)
(1.01898 -0.135481 2.18659e-16)
(0.987431 -0.124179 -2.72749e-16)
(1.02561 -0.115546 1.01977e-16)
(0.99483 -0.107829 -1.02077e-16)
(1.03045 -0.0981366 2.49515e-16)
(1.00017 -0.0937108 -1.72607e-17)
(1.03368 -0.0826209 2.06579e-16)
(1.00373 -0.0814488 3.28665e-17)
(1.03538 -0.0684133 3.85368e-16)
(1.00579 -0.0708533 -2.05684e-16)
(1.03552 -0.0548533 4.71526e-16)
(1.00668 -0.0620433 -2.95766e-16)
(1.03373 -0.0408818 4.37137e-16)
(1.00708 -0.0558172 -1.12187e-16)
(1.0292 -0.0247259 3.43647e-16)
(1.00757 -0.0530289 -5.45246e-16)
(1.02234 -0.00630435 4.8448e-16)
(1.00612 -0.0508387 -5.24662e-16)
(1.01393 0.0148519 2.04351e-16)
(1.01125 -0.0647411 -1.93507e-16)
(0.713022 -0.911348 9.67645e-16)
(0.649776 -0.775855 2.20961e-16)
(0.804693 -0.720965 3.68019e-16)
(0.734621 -0.605938 7.22506e-16)
(0.865811 -0.578158 8.05225e-16)
(0.80013 -0.485225 3.61818e-16)
(0.90887 -0.469244 -2.6918e-17)
(0.850622 -0.396302 1.78504e-16)
(0.94075 -0.385198 5.88575e-16)
(0.889534 -0.328572 -2.68795e-16)
(0.96522 -0.319593 3.30199e-16)
(0.919638 -0.275583 4.03973e-16)
(0.98438 -0.267662 5.65235e-16)
(0.943074 -0.233288 5.47042e-16)
(0.999487 -0.225885 4.68582e-16)
(0.96141 -0.198998 8.1963e-17)
(1.01138 -0.191707 -2.23285e-16)
(0.975759 -0.170812 2.00311e-16)
(1.02065 -0.16328 -4.7669e-17)
(0.986902 -0.147334 2.30043e-17)
(1.02776 -0.139256 6.19629e-17)
(0.9954 -0.127514 -9.82748e-17)
(1.033 -0.118626 2.57124e-16)
(1.00166 -0.110567 -4.15165e-16)
(1.03662 -0.100605 1.89064e-16)
(1.006 -0.0959185 -4.28312e-16)
(1.03875 -0.0845461 7.5622e-17)
(1.00868 -0.083177 -3.23555e-16)
(1.03942 -0.0698533 -1.9454e-17)
(1.00996 -0.0721416 -1.98629e-16)
(1.03855 -0.0558778 -2.03388e-16)
(1.01019 -0.0629036 2.78054e-17)
(1.03571 -0.0416286 -1.91617e-16)
(1.01018 -0.0561727 -2.13118e-16)
(1.02991 -0.0254861 3.44345e-17)
(1.01084 -0.05269 2.46991e-16)
(1.02119 -0.00738161 -1.53131e-16)
(1.01057 -0.0498187 3.35701e-16)
(1.01006 0.0135861 -2.44478e-16)
(1.01821 -0.0631524 3.27929e-16)
(0.773399 -0.936263 -9.82919e-16)
(0.701171 -0.797021 -5.50204e-16)
(0.8524 -0.740672 -4.96786e-16)
(0.774704 -0.622445 -3.21551e-16)
(0.903988 -0.593948 -1.23669e-15)
(0.832157 -0.49843 -1.73425e-16)
(0.939775 -0.482041 -2.15358e-16)
(0.876712 -0.407074 -1.89972e-17)
(0.966045 -0.395681 -5.23289e-16)
(0.911104 -0.337487 2.04279e-16)
(0.986139 -0.328265 -9.71971e-17)
(0.937673 -0.283039 -6.22336e-16)
(1.00184 -0.274894 -2.704e-16)
(0.958288 -0.239576 -4.52337e-16)
(1.01416 -0.231952 -2.26724e-16)
(0.974339 -0.204335 -1.65396e-16)
(1.02377 -0.196817 4.41837e-16)
(0.986808 -0.175364 -3.80201e-16)
(1.03115 -0.167591 3.94606e-16)
(0.996387 -0.151229 -4.84035e-16)
(1.03665 -0.142888 3.05419e-16)
(1.00356 -0.130852 -1.77592e-16)
(1.04052 -0.121674 6.34036e-17)
(1.00869 -0.113426 7.50322e-17)
(1.04292 -0.103142 2.32807e-16)
(1.01205 -0.0983564 1.3209e-16)
(1.04396 -0.0866269 1.44422e-16)
(1.01388 -0.0852363 1.35593e-16)
(1.04362 -0.0715212 1.41086e-16)
(1.0144 -0.073839 1.80096e-16)
(1.04179 -0.0571809 2.38841e-16)
(1.01397 -0.0641917 -5.48607e-17)
(1.038 -0.0426873 2.36805e-16)
(1.01342 -0.0568403 1.93909e-16)
(1.03112 -0.0266098 1.29173e-16)
(1.01387 -0.0523422 -4.58011e-16)
(1.02091 -0.00892662 4.64121e-16)
(1.01418 -0.0484463 -4.24968e-16)
(1.00743 0.0118309 2.41178e-16)
(1.02414 -0.0615092 -3.13324e-16)
(0.835284 -0.95716 1.2077e-15)
(0.753797 -0.814752 1.02923e-15)
(0.901314 -0.757079 4.15393e-16)
(0.815769 -0.636198 3.56685e-16)
(0.943201 -0.607 1.00884e-15)
(0.865021 -0.509341 1.42499e-16)
(0.971588 -0.492532 2.86745e-16)
(0.90353 -0.415881 1.62804e-16)
(0.992139 -0.404193 2.53784e-16)
(0.933308 -0.344684 -1.27354e-16)
(1.00776 -0.335227 1.50416e-17)
(0.956256 -0.288971 4.71465e-16)
(1.0199 -0.280624 3.3307e-16)
(0.973971 -0.244491 3.23989e-16)
(1.02935 -0.236688 4.15271e-17)
(0.98766 -0.208419 6.95231e-17)
(1.03661 -0.200733 -3.90901e-16)
(0.998179 -0.178757 1.68456e-16)
(1.04201 -0.17082 -5.90517e-17)
(1.00612 -0.154037 1.29073e-16)
(1.04583 -0.145532 2.94348e-17)
(1.0119 -0.133155 -6.58095e-17)
(1.04824 -0.123809 1.6404e-16)
(1.01582 -0.115283 -2.4845e-16)
(1.04936 -0.10483 -2.99099e-18)
(1.01812 -0.0998128 -3.85893e-16)
(1.04924 -0.0879167 1.4717e-16)
(1.01901 -0.0863231 -3.77798e-16)
(1.04784 -0.0724578 1.24067e-16)
(1.01869 -0.0745742 -4.10749e-16)
(1.04501 -0.0578328 -8.97995e-17)
(1.01752 -0.0645471 -7.48241e-17)
(1.04029 -0.0432352 -2.5114e-16)
(1.01632 -0.0566384 -2.26754e-16)
(1.03257 -0.027484 -2.33246e-16)
(1.01633 -0.0512324 2.18728e-16)
(1.02136 -0.0105814 -2.90986e-16)
(1.01688 -0.0465239 2.08823e-16)
(1.00601 0.00978029 -1.72865e-16)
(1.02895 -0.0596474 4.33403e-16)
(0.898401 -0.973985 -1.33853e-15)
(0.807532 -0.829054 -1.01834e-15)
(0.951201 -0.770406 -6.80319e-16)
(0.857685 -0.647359 -4.29111e-18)
(0.983135 -0.617689 -8.98337e-16)
(0.89852 -0.518272 1.19415e-16)
(1.00392 -0.501197 -5.20336e-16)
(0.930824 -0.423165 -1.30047e-16)
(1.01861 -0.411289 -7.12722e-17)
(0.955874 -0.35071 1.89653e-16)
(1.02965 -0.341092 4.91918e-17)
(0.975125 -0.294007 -2.70925e-16)
(1.03817 -0.285509 -1.42663e-16)
(0.989891 -0.248733 -5.71264e-16)
(1.04471 -0.240778 1.4735e-16)
(1.00119 -0.212012 -8.28397e-17)
(1.04959 -0.204167 4.05011e-16)
(1.00974 -0.181812 -3.52464e-16)
(1.05302 -0.173704 2.11456e-16)
(1.01605 -0.156639 -2.54116e-16)
(1.05516 -0.147947 9.24998e-17)
(1.02045 -0.135371 -1.96815e-17)
(1.05614 -0.125816 -1.61101e-16)
(1.0232 -0.117163 2.44311e-17)
(1.056 -0.106477 3.15385e-16)
(1.02448 -0.101392 3.14748e-17)
(1.05476 -0.0892395 9.2604e-17)
(1.02446 -0.0876269 1.65425e-16)
(1.05234 -0.073486 4.93242e-17)
(1.02335 -0.0756039 1.87754e-16)
(1.04856 -0.058612 1.12466e-16)
(1.02144 -0.0652387 2.40697e-16)
(1.04298 -0.043906 1.15271e-16)
(1.01947 -0.0567513 3.75218e-16)
(1.03454 -0.0284115 2.57693e-16)
(1.01866 -0.0503473 -1.07908e-16)
(1.02263 -0.0121469 2.42085e-16)
(1.01884 -0.0447584 -1.05669e-16)
(1.00577 0.00796909 2.3051e-17)
(1.03262 -0.058128 -2.48735e-16)
(0.962487 -0.986632 1.32568e-15)
(0.862019 -0.839753 9.45977e-16)
(1.00183 -0.780286 5.5805e-16)
(0.900186 -0.655624 1.70118e-16)
(1.02371 -0.62551 4.44731e-16)
(0.932521 -0.524799 6.20825e-19)
(1.03683 -0.507454 4.43549e-16)
(0.95856 -0.428405 8.4438e-17)
(1.04559 -0.416338 -5.89447e-17)
(0.978829 -0.354964 -1.6333e-16)
(1.05199 -0.345195 1.50812e-16)
(0.994329 -0.297486 -2.86931e-17)
(1.05683 -0.288861 -4.89925e-17)
(1.00609 -0.251587 7.51656e-16)
(1.0604 -0.243523 -4.05759e-16)
(1.01494 -0.214354 1.7117e-16)
(1.06283 -0.206413 -1.6579e-16)
(1.02147 -0.183728 4.04099e-17)
(1.06421 -0.17553 1.95288e-16)
(1.02608 -0.158192 -1.01957e-16)
(1.06462 -0.149414 9.27009e-17)
(1.02904 -0.136608 5.48262e-17)
(1.06408 -0.126972 1.12122e-16)
(1.03053 -0.118117 -2.19161e-16)
(1.06262 -0.107356 1.35385e-16)
(1.03071 -0.102086 -3.20045e-16)
(1.06019 -0.0898678 3.63889e-17)
(1.02972 -0.0880738 1.44387e-17)
(1.05669 -0.0738884 -3.73203e-16)
(1.02774 -0.0758058 6.21095e-17)
(1.05194 -0.0588343 -2.08126e-16)
(1.02503 -0.0651588 -1.46803e-16)