/*--------------------------------*- C++ -*----------------------------------*\
| =========                 |                                                 |
| \\      /  F ield         | foam-extend: Open Source CFD                    |
|  \\    /   O peration     | Version:  3.0                                   |
|   \\  /    A nd           | Web:         http://www.extend-project.de       |
|    \\/     M anipulation  |                                                 |
\*---------------------------------------------------------------------------*/
FoamFile
{
    version     2.0;
    format      ascii;
    class       volVectorField;
    location    "1.7";
    object      u;
}
// * * * * * * * * * * * * * * * * * * * * * * * * * * * * * * * * * * * * * //

dimensions      [0 0 0 0 0 0 0];

internalField   nonuniform List<vector> 
300
(
(1.69527e+19 -9.84565e+18 -43.3862)
(8.4914e+17 1.25779e+19 -0.113619)
(-2.40501e+18 -2.80868e+18 9.10592)
(4.32723e+18 1.29414e+18 4.92761)
(-1.57641e+17 4.19885e+18 -3.88773)
(1.7747e+18 3.08448e+17 0.42695)
(-4.40879e+17 -1.59368e+17 -0.90313)
(5.44282e+17 8.20236e+16 -1.08735)
(-1.83794e+17 -4.87948e+16 0.0197479)
(2.4271e+17 2.96932e+15 2.05713)
(-5.79536e+17 1.77494e+18 -0.6369)
(-1.0806e+17 -7.88716e+17 3.16258)
(-7.57538e+16 -1.08985e+18 3.86625)
(5.26061e+17 -1.43139e+18 0.912051)
(1.61592e+17 1.42753e+18 0.872431)
(-1.42248e+17 -4.04992e+17 -2.5057)
(7.02635e+16 4.70983e+17 -0.00235716)
(-1.01491e+17 -1.3564e+17 0.50706)
(4.85165e+16 1.26746e+17 0.851665)
(-6.934e+16 -1.38744e+15 1.79414)
(-1.37534e+18 4.61699e+17 -1.13623)
(2.69984e+18 8.34467e+17 -3.07287)
(7.38941e+17 3.67685e+17 -3.22393)
(-2.0748e+16 4.5635e+17 -2.67696)
(-1.68924e+17 -4.28552e+17 -2.83884)
(3.09695e+17 2.19923e+17 -1.23865)
(-1.05858e+17 -1.68447e+17 -1.23668)
(1.60813e+17 8.1512e+16 1.5501)
(-6.37641e+16 -5.54762e+16 1.00344)
(9.6505e+16 2.08273e+16 1.57316)
(-8.54266e+17 1.21445e+18 -3.912)
(-4.6219e+17 1.71866e+17 6.49637)
(-2.01111e+17 8.48464e+16 0.095013)
(1.72499e+17 -4.21826e+17 2.90144)
(-6.90892e+16 4.55824e+17 3.16025)
(-2.71518e+16 -1.75315e+17 0.67631)
(-1.15021e+16 1.77793e+17 -0.66497)
(-2.69483e+16 -6.08429e+16 0.354109)
(6.28852e+15 5.48618e+16 0.809643)
(-2.60045e+16 -2.86291e+15 2.13034)
(5.43377e+17 -5.58687e+17 0.110972)
(6.21927e+17 2.02575e+17 -7.38054)
(3.43548e+17 1.44454e+17 -0.00955343)
(6.41313e+16 1.69298e+17 2.07086)
(1.16083e+16 -1.17494e+17 -0.99335)
(9.80485e+16 1.02257e+17 -0.361349)
(-1.80674e+16 -5.98132e+16 -0.300666)
(5.25468e+16 4.22423e+16 0.27331)
(-1.81592e+16 -2.41403e+16 1.12883)
(3.41903e+16 1.54655e+16 2.05204)
(-5.40181e+17 5.7381e+17 0.00128138)
(-3.57608e+17 1.15474e+17 7.22485)
(-1.91499e+17 9.74137e+16 0.0220852)
(1.97164e+16 -1.24209e+17 -1.20647)
(-7.63123e+16 1.47053e+17 0.0534106)
(-2.23281e+15 -6.36363e+16 -0.0790758)
(-2.20546e+16 6.1511e+16 -0.478531)
(-5.10994e+15 -2.33866e+16 0.197961)
(-3.45848e+15 2.07707e+16 1.16366)
(-9.10878e+15 -2.12049e+15 2.00168)
(3.5436e+17 -2.73113e+17 0.0186188)
(2.91878e+17 8.68563e+16 -1.22079)
(1.88337e+17 7.24935e+16 1.73327)
(6.42686e+16 7.9086e+16 0.0068414)
(3.41901e+16 -2.44514e+16 -0.466262)
(3.82579e+16 4.79648e+16 -0.820268)
(2.92752e+15 -1.77822e+16 -0.243847)
(1.80928e+16 2.04445e+16 0.183902)
(-3.76361e+15 -8.99585e+15 0.988007)
(1.16068e+16 8.66883e+15 2.02912)
(-3.39947e+17 2.65497e+17 0.0182152)
(-2.40715e+17 4.45033e+16 0.13702)
(-1.43122e+17 4.33716e+16 -2.71634)
(-2.23571e+16 -4.22728e+16 -0.0225975)
(-5.31637e+16 4.41622e+16 -0.155097)
(-3.47883e+15 -2.33137e+16 -0.425854)
(-1.62492e+16 1.93756e+16 -0.498595)
(-1.43237e+15 -8.74597e+15 0.0819336)
(-3.81087e+15 7.11663e+15 1.24139)
(-3.37073e+15 -1.19784e+15 2.04229)
(2.21271e+17 -1.24982e+17 0.0256061)
(1.63021e+17 5.07565e+16 -1.52002)
(1.08942e+17 4.7018e+16 0.28138)
(4.49078e+16 4.52398e+16 -0.0328911)
(2.68113e+16 1.88332e+15 -0.538613)
(1.72375e+16 2.41361e+16 -0.390086)
(5.48621e+15 -3.35381e+15 -0.505632)
(6.68452e+15 9.95814e+15 -0.0188226)
(-2.48856e+13 -2.83617e+15 1.07945)
(3.84474e+15 4.35417e+15 2.03945)
(-2.11119e+17 1.14265e+17 0.0229115)
(-1.51363e+17 5.65223e+15 2.17938)
(-9.43324e+16 7.27392e+15 0.0427684)
(-2.61991e+16 -2.03344e+16 0.0199819)
(-3.23871e+16 9.58888e+15 0.509283)
(-4.6343e+15 -1.01136e+16 -0.570961)
(-9.79601e+15 4.83528e+15 -0.499431)
(-1.00539e+15 -3.63353e+15 -0.0198661)
(-2.52839e+15 2.09182e+15 1.07241)
(-1.39565e+15 -6.75986e+14 2.02187)
(1.36544e+17 -5.14666e+16 0.0109586)
(9.4694e+16 3.66162e+16 -0.882662)
(6.2142e+16 3.48182e+16 0.0627431)
(2.69828e+16 2.87937e+16 -0.0128217)
(1.6717e+16 8.12185e+15 -0.14583)
(8.24229e+15 1.32533e+16 -0.360106)
(4.0132e+15 1.02135e+15 -0.438785)
(2.61878e+15 5.08433e+15 -0.0871664)
(5.90875e+14 -5.86382e+14 1.01019)
(1.25631e+15 2.10712e+15 1.98402)
(-1.28036e+17 4.22218e+16 0.600581)
(-9.10702e+16 -1.15518e+16 0.615496)
(-5.68275e+16 -8.7881e+15 -0.163249)
(-1.95493e+16 -1.36147e+16 0.0258537)
(-1.83176e+16 -1.41059e+15 0.107186)
(-3.86387e+15 -5.57011e+15 -0.369816)
(-5.38139e+15 1.9884e+14 -0.567758)
(-7.86373e+14 -1.82689e+15 -0.149714)
(-1.43049e+15 3.8717e+14 0.91293)
(-6.39344e+14 -4.12974e+14 1.89415)
(8.27937e+16 -1.63906e+16 -0.197647)
(5.43135e+16 2.81786e+16 -0.498447)
(3.38534e+16 2.59665e+16 0.188594)
(1.46856e+16 1.88614e+16 0.00104848)
(9.16143e+15 8.03884e+15 -0.103616)
(3.8458e+15 7.72087e+15 -0.321952)
(2.28677e+15 1.90252e+15 -0.461676)
(1.01953e+15 2.73524e+15 -0.236549)
(4.58728e+14 1.25485e+14 0.806706)
(3.97839e+14 1.02304e+15 1.73741)
(-7.55042e+16 1.013e+16 0.0902292)
(-5.24041e+16 -1.64982e+16 0.348802)
(-3.16997e+16 -1.2947e+16 0.165677)
(-1.21379e+16 -1.02038e+16 0.105544)
(-9.6905e+15 -4.06688e+15 -0.105492)
(-2.51745e+15 -3.59667e+15 -0.212356)
(-2.75505e+15 -9.91993e+14 -0.458066)
(-5.12004e+14 -1.08163e+15 -0.281669)
(-7.40299e+14 -1.1456e+14 0.731424)
(-3.0724e+14 -2.67231e+14 1.54434)
(4.89957e+16 -1.00213e+15 0.056106)
(3.00375e+16 2.13151e+16 0.015906)
(1.72792e+16 1.85689e+16 0.0304864)
(7.29003e+15 1.22559e+16 0.0557674)
(4.45869e+15 6.22139e+15 -0.0605147)
(1.62542e+15 4.59761e+15 -0.230801)
(1.09039e+15 1.67377e+15 -0.444008)
(3.4682e+14 1.52066e+15 -0.34434)
(2.45502e+14 2.73043e+14 0.745572)
(1.10925e+14 5.06709e+14 2.3576)
(-4.31807e+16 -2.47806e+15 0.0463922)
(-2.86633e+16 -1.54725e+16 0.0135266)
(-1.63799e+16 -1.17466e+16 0.041747)
(-6.6335e+15 -7.51021e+15 0.0623994)
(-4.73744e+15 -3.88129e+15 -0.0174185)
(-1.37072e+15 -2.42936e+15 -0.181081)
(-1.30044e+15 -1.05471e+15 -0.440198)
(-2.72988e+14 -6.89489e+14 -0.539707)
(-3.53353e+14 -2.07702e+14 0.067684)
(-1.45843e+14 -1.75577e+14 0.274697)
(2.81291e+16 4.62252e+15 0.0390283)
(1.57533e+16 1.54359e+16 0.087604)
(8.06365e+15 1.26142e+16 0.0468911)
(3.21211e+15 7.78904e+15 0.110469)
(1.85391e+15 4.288e+15 0.022282)
(5.45576e+14 2.72915e+15 -0.0585003)
(4.12397e+14 1.20135e+15 -0.384662)
(6.62257e+13 8.53533e+14 -0.635735)
(9.83081e+13 2.39335e+14 -0.19388)
(1.65172e+13 2.56042e+14 0.0250398)
(-2.38727e+16 -6.14761e+15 -0.0499052)
(-1.47557e+16 -1.22419e+16 -0.103581)
(-7.73423e+15 -8.89023e+15 -0.0322186)
(-3.19378e+15 -5.23769e+15 0.0616575)
(-2.0717e+15 -2.92828e+15 0.096107)
(-6.15947e+14 -1.61179e+15 0.0616001)
(-5.4266e+14 -8.12339e+14 -0.0747425)
(-1.12388e+14 -4.41796e+14 -0.29201)
(-1.51144e+14 -1.78325e+14 -0.139855)
(-6.4285e+13 -1.13638e+14 -0.02459)
(1.55744e+16 5.73651e+15 0.104683)
(7.67442e+15 1.06563e+16 -0.014919)
(3.25919e+15 8.15951e+15 -0.0405789)
(1.13648e+15 4.81564e+15 0.0484394)
(5.57467e+14 2.74262e+15 0.126383)
(6.51498e+13 1.59357e+15 0.0939439)
(8.25004e+13 7.75548e+14 0.0462873)
(-3.8432e+13 4.75559e+14 -0.0704332)
(2.07318e+13 1.67592e+14 -0.0476655)
(-1.1368e+13 1.3105e+14 -0.0196966)
(-1.26955e+16 -6.12677e+15 -0.00652977)
(-7.02009e+15 -8.75861e+15 -0.10641)
(-3.2026e+15 -6.06618e+15 -0.00328945)
(-1.28607e+15 -3.45067e+15 -0.0160092)
(-7.41225e+14 -1.96579e+15 0.071882)
(-1.96322e+14 -1.02675e+15 0.0722196)
(-1.76207e+14 -5.45826e+14 0.061888)
(-2.35355e+13 -2.75213e+14 0.00311889)
(-5.26751e+13 -1.25145e+14 -0.00746831)
(-2.38882e+13 -7.12648e+13 -0.00397309)
(8.25688e+15 5.04247e+15 -0.00423788)
(3.33942e+15 7.02949e+15 0.00349179)
(9.5153e+14 5.04673e+15 -0.0109693)
(1.80264e+14 2.88894e+15 -0.0110844)
(-7.15502e+12 1.65623e+15 0.0343388)
(-1.14663e+14 9.08643e+14 0.0197497)
(-5.06754e+13 4.65675e+14 0.0357483)
(-6.56355e+13 2.60163e+14 0.0168992)
(-1.18392e+13 1.04583e+14 0.00483988)
(-1.64437e+13 6.73582e+13 -0.00152367)
(-6.44109e+15 -4.88761e+15 -0.00397146)
(-2.96447e+15 -5.83846e+15 -0.0768187)
(-1.01736e+15 -3.85129e+15 -0.0189965)
(-3.42274e+14 -2.15615e+15 -0.00758891)
(-1.41062e+14 -1.22037e+15 -0.00798065)
(1.50713e+12 -6.24098e+14 0.0204396)
(-1.7392e+13 -3.36504e+14 0.0162647)
(1.63518e+13 -1.64435e+14 0.0174184)
(-9.1985e+12 -7.88819e+13 0.0133609)
(-5.28923e+12 -4.29659e+13 0.00180349)
(4.14676e+15 3.84862e+15 -0.00438439)
(1.16973e+15 4.45085e+15 -0.0104178)
(-2.921e+13 2.99581e+15 -0.0118813)
(-1.92316e+14 1.67915e+15 -0.00620128)
(-2.00368e+14 9.51649e+14 0.00473491)
(-1.55169e+14 5.03349e+14 0.0201106)
(-8.65458e+13 2.63547e+14 0.0333822)
(-6.18879e+13 1.38618e+14 0.0372366)
(-2.08856e+13 6.02756e+13 0.0305275)
(-1.43918e+13 3.44676e+13 0.0125173)
(-3.07118e+15 -3.49591e+15 -0.00552378)
(-9.8788e+14 -3.68591e+15 -0.00349538)
(-7.73817e+13 -2.31076e+15 0.00939268)
(5.99217e+13 -1.2835e+15 -0.000315326)
(8.79282e+13 -7.11899e+14 0.0182158)
(7.4121e+13 -3.61483e+14 0.0413301)
(3.87637e+13 -1.93851e+14 0.0618304)
(2.85006e+13 -9.36731e+13 0.0719431)
(6.94709e+12 -4.60177e+13 0.0612532)
(2.11406e+12 -2.48156e+13 0.0423819)
(1.93122e+15 2.72164e+15 -0.00751985)
(1.8795e+14 2.72835e+15 -0.0115922)
(-3.55932e+14 1.71628e+15 -0.00973869)
(-2.84936e+14 9.4761e+14 0.0132668)
(-2.25343e+14 5.22927e+14 0.0336054)
(-1.39038e+14 2.70216e+14 0.0819171)
(-8.1112e+13 1.41343e+14 0.104864)
(-4.84548e+13 7.14778e+13 0.102085)
(-1.96916e+13 3.25324e+13 0.0750939)
(-1.07865e+13 1.74207e+13 0.0681234)
(-1.32725e+15 -2.33871e+15 -0.00998723)
(-1.15896e+14 -2.23347e+15 -0.0312702)
(2.53695e+14 -1.32473e+15 -0.00792748)
(1.89055e+14 -7.32775e+14 0.0162406)
(1.45433e+14 -3.93786e+14 0.0747745)
(8.57631e+13 -1.99857e+14 0.13152)
(4.90112e+13 -1.05145e+14 0.151948)
(2.75236e+13 -5.07634e+13 0.0836952)
(1.06645e+13 -2.51468e+13 -0.0943439)
(4.20138e+12 -1.37333e+13 -0.414704)
(7.79709e+14 1.85275e+15 -0.0252056)
(-1.88604e+14 1.65983e+15 -0.0150071)
(-3.95036e+14 9.68234e+14 0.000290943)
(-2.60471e+14 5.31814e+14 0.0395523)
(-1.87097e+14 2.80803e+14 0.116424)
(-1.05817e+14 1.43382e+14 0.204409)
(-6.23552e+13 7.32042e+13 0.20463)
(-3.42331e+13 3.61818e+13 -0.00933035)
(-1.51263e+13 1.68491e+13 -0.554936)
(-7.45336e+12 8.85294e+12 -1.49241)
(-4.44929e+14 -1.49434e+15 -0.0138752)
(2.19346e+14 -1.32913e+15 -0.0139686)
(3.25055e+14 -7.40842e+14 -0.00409098)
(2.02313e+14 -4.12495e+14 0.0673359)
(1.36949e+14 -2.11912e+14 0.17905)
(7.43387e+13 -1.08381e+14 0.292543)
(4.25087e+13 -5.50437e+13 0.285076)
(2.21246e+13 -2.68577e+13 0.040789)
(9.63217e+12 -1.3335e+13 -0.379863)
(4.32769e+12 -7.60669e+12 -0.950952)
(1.74288e+14 1.24984e+15 -0.0187364)
(-2.98055e+14 1.07939e+15 -0.0222105)
(-3.36564e+14 5.81658e+14 0.00541746)
(-2.03752e+14 3.35316e+14 0.0928628)
(-1.36027e+14 1.68357e+14 0.243725)
(-7.31901e+13 8.89254e+13 0.356806)
(-4.25882e+13 4.34525e+13 0.22538)
(-2.23582e+13 2.20859e+13 -0.329296)
(-1.02627e+13 1.03748e+13 -0.740662)
(-5.11767e+12 6.5105e+12 -1.29686)
(4.10268e+13 -9.02305e+14 -0.0198871)
(1.14502e+14 -8.00513e+14 0.0166405)
(8.41285e+13 -4.06796e+14 0.15202)
(6.07651e+13 -2.45363e+14 0.403805)
(3.31192e+13 -1.19216e+14 0.668711)
(2.01662e+13 -6.54706e+13 0.579207)
(9.89267e+12 -3.17402e+13 -0.500506)
(5.52777e+12 -1.6745e+13 -2.94758)
(2.14566e+12 -8.41228e+12 -4.79089)
(9.3047e+11 -6.09856e+12 -1.491)
)
;

boundaryField
{
    frontAndBack
    {
        type            empty;
    }
    symm
    {
        type            symmetryPlane;
    }
    in
    {
        type            myVelocity;
    }
    out
    {
        type            fixedValue;
        value           uniform (1 0 0);
    }
}


// ************************************************************************* //
