/*--------------------------------*- C++ -*----------------------------------*\
| =========                 |                                                 |
| \\      /  F ield         | foam-extend: Open Source CFD                    |
|  \\    /   O peration     | Version:  3.0                                   |
|   \\  /    A nd           | Web:         http://www.extend-project.de       |
|    \\/     M anipulation  |                                                 |
\*---------------------------------------------------------------------------*/
FoamFile
{
    version     2.0;
    format      ascii;
    class       volVectorField;
    location    "15";
    object      s;
}
// * * * * * * * * * * * * * * * * * * * * * * * * * * * * * * * * * * * * * //

dimensions      [0 1 -1 0 0 0 0];

internalField   nonuniform List<vector> 
3012
(
(-2.22345 0.130277 0)
(-1.82611 -0.227836 0)
(-2.57966 0.172519 0)
(-1.72923 0.147176 0)
(-3.12373 0.383667 0)
(-2.16003 0.227996 0)
(-3.03055 -0.286481 0)
(-2.85407 0.110128 0)
(-2.00116 0.243665 0)
(-2.20143 -0.382505 0)
(-1.88749 -0.0655144 0)
(-2.22732 0.465975 0)
(-1.26773 -0.11827 0)
(-1.99258 0.0826102 0)
(-2.24631 0.0733768 0)
(-1.2127 0.132374 0)
(-3.10865 0.334585 0)
(-2.17819 0.280114 0)
(-2.95665 -0.317239 0)
(-2.86413 0.106777 0)
(-1.26518 0.436956 0)
(-1.6622 -0.216667 0)
(-1.87578 -0.344193 0)
(-1.2142 0.308092 0)
(-2.66868 0.0431203 0)
(-1.96273 -0.123627 0)
(-1.92841 0.282469 0)
(-2.25642 0.056192 0)
(-1.86525 0.338591 0)
(-2.06246 0.4247 0)
(-1.36336 -0.152502 0)
(-1.53756 -0.42434 0)
(-1.30057 -0.130292 0)
(-2.08128 0.383848 0)
(-1.87972 0.314135 0)
(-1.45441 -0.396675 0)
(-2.08349 -0.168001 0)
(-2.71591 0.0617236 0)
(-2.27295 0.0591271 0)
(-2.03801 0.271445 0)
(-1.15763 -0.102696 0)
(-2.15686 0.0676418 0)
(-1.10282 0.126146 0)
(-1.92449 0.077533 0)
(-1.28313 -0.0884698 0)
(-1.41981 -0.355649 0)
(-1.91855 0.281409 0)
(-2.13377 0.339023 0)
(-1.26133 -0.353388 0)
(-2.00979 0.336053 0)
(-1.82165 0.292848 0)
(-1.13853 -0.114889 0)
(-2.21055 0.128991 0)
(-1.75908 -0.213614 0)
(-1.66701 0.148811 0)
(-2.55536 0.163149 0)
(-2.71159 -0.30923 0)
(-2.25216 0.449479 0)
(-3.05545 0.257848 0)
(-2.87353 0.0936209 0)
(-2.71388 -0.339131 0)
(-2.2327 0.380048 0)
(-3.01716 0.280768 0)
(-2.8992 0.0639271 0)
(-1.29527 -0.0695902 0)
(-2.00912 0.0380149 0)
(-2.27448 0.0120899 0)
(-1.25605 0.179649 0)
(-2.12266 -0.141441 0)
(-1.17854 0.287803 0)
(-1.18758 0.0980018 0)
(-1.88462 -0.0791325 0)
(-1.77981 0.478217 0)
(-1.55801 -0.476652 0)
(-1.35965 -0.232832 0)
(-1.63687 0.381245 0)
(-1.68675 0.364619 0)
(-1.84021 0.43719 0)
(-1.4057 -0.455592 0)
(-1.23609 -0.216955 0)
(-1.38478 -0.0647452 0)
(-2.05733 0.032 0)
(-1.35015 0.202599 0)
(-2.34312 0.00181469 0)
(-2.10235 -0.0335107 0)
(-1.08563 0.207115 0)
(-1.11966 0.00718734 0)
(-1.87543 -0.00134811 0)
(-1.20668 -0.165918 0)
(-1.98384 0.396147 0)
(-1.80223 0.334422 0)
(-1.35454 -0.413532 0)
(-2.25528 -0.377192 0)
(-2.00446 0.232027 0)
(-1.92468 -0.0614639 0)
(-2.22982 0.470463 0)
(-2.19662 0.0277536 0)
(-2.29776 0.387701 0)
(-2.14347 -0.0133108 0)
(-2.67208 -0.177837 0)
(-2.09801 -0.15769 0)
(-1.15887 0.296383 0)
(-1.16618 0.113752 0)
(-1.86508 -0.0927623 0)
(-1.74136 0.484086 0)
(-1.34927 -0.240912 0)
(-1.54924 -0.481615 0)
(-1.60473 0.387448 0)
(-1.79485 -0.387873 0)
(-1.24046 0.332622 0)
(-1.59173 -0.244041 0)
(-1.3067 0.453935 0)
(-1.94896 0.228149 0)
(-2.17657 0.265129 0)
(-1.34183 -0.294627 0)
(-1.23284 -0.0305694 0)
(-1.5099 -0.483333 0)
(-1.32466 -0.272172 0)
(-1.51033 0.5151 0)
(-1.40271 0.410587 0)
(-1.74661 -0.17452 0)
(-1.07521 0.21632 0)
(-1.08037 0.33243 0)
(-1.94557 -0.257106 0)
(-2.47918 -0.186821 0)
(-2.31349 0.0160717 0)
(-2.78688 0.162766 0)
(-2.2899 0.336971 0)
(-3.0377 0.0659023 0)
(-2.65362 0.698299 0)
(-2.9898 0.0691193 0)
(-2.42259 -0.301235 0)
(-2.55504 -0.185752 0)
(-2.29998 0.0138322 0)
(-2.39713 0.379519 0)
(-2.82738 0.132474 0)
(-3.04089 0.0952324 0)
(-3.04322 0.101636 0)
(-2.57918 0.711776 0)
(-2.47995 -0.354333 0)
(-2.66081 0.0802347 0)
(-1.85367 0.250416 0)
(-2.25284 0.0728285 0)
(-1.90952 -0.152623 0)
(-2.99961 0.205551 0)
(-2.3933 0.505994 0)
(-2.5391 -0.300373 0)
(-2.92279 0.00840526 0)
(-2.93583 0.225001 0)
(-2.35943 0.509621 0)
(-2.46037 -0.221595 0)
(-2.83597 -0.0239194 0)
(-1.05703 -0.0693468 0)
(-1.81324 0.246003 0)
(-1.15446 -0.294826 0)
(-2.0084 0.275302 0)
(-1.30255 -0.36974 0)
(-2.02267 0.356174 0)
(-1.832 0.305923 0)
(-1.17088 -0.124912 0)
(-1.73849 -0.412282 0)
(-1.54043 -0.25451 0)
(-1.35395 0.473603 0)
(-1.27695 0.35509 0)
(-2.287 0.0591339 0)
(-2.35888 -0.168235 0)
(-2.79338 0.0397677 0)
(-2.34537 0.325957 0)
(-1.31372 -0.148083 0)
(-2.05659 0.405181 0)
(-1.86062 0.329737 0)
(-1.47625 -0.414757 0)
(-2.86788 0.311612 0)
(-2.78384 -0.0684942 0)
(-2.46968 -0.18648 0)
(-2.235 0.368072 0)
(-2.40611 -0.0685578 0)
(-2.83625 0.290958 0)
(-2.30862 0.348647 0)
(-2.71056 -0.145076 0)
(-2.27691 0.0640031 0)
(-2.38511 -0.202246 0)
(-2.80543 0.0628113 0)
(-2.349 0.327404 0)
(-1.60792 0.473454 0)
(-1.83674 -0.191238 0)
(-1.51734 0.280163 0)
(-2.11718 -0.367006 0)
(-1.56986 0.313541 0)
(-2.04485 -0.410348 0)
(-1.68259 0.492885 0)
(-1.77504 -0.207901 0)
(-1.77653 -0.401176 0)
(-1.57303 -0.248367 0)
(-1.34418 0.471039 0)
(-1.27077 0.348723 0)
(-1.64001 -0.421675 0)
(-2.12683 0.425481 0)
(-1.91497 0.326361 0)
(-1.45508 -0.133782 0)
(-1.28509 -0.0435559 0)
(-1.9947 0.022348 0)
(-1.25088 0.197445 0)
(-2.25657 -0.00914597 0)
(-1.29567 -0.139643 0)
(-2.2607 0.0961422 0)
(-2.00442 0.0989197 0)
(-1.23403 0.117166 0)
(-1.08967 -0.238517 0)
(-1.9994 0.214113 0)
(-1.01354 -0.0203933 0)
(-1.80243 0.19519 0)
(-1.09332 0.231535 0)
(-1.74692 -0.174546 0)
(-1.95428 -0.260731 0)
(-1.10073 0.360808 0)
(-2.33936 -0.0278629 0)
(-1.35949 0.22616 0)
(-1.38526 -0.0348578 0)
(-2.05152 0.0115586 0)
(-1.5416 -0.496335 0)
(-1.40724 0.407774 0)
(-1.35319 -0.284196 0)
(-1.51544 0.514346 0)
(-1.36739 -0.164585 0)
(-1.83589 0.343378 0)
(-1.54478 -0.432538 0)
(-2.02411 0.431649 0)
(-1.14267 0.226126 0)
(-1.75327 -0.165275 0)
(-1.15933 0.361872 0)
(-1.9652 -0.258056 0)
(-1.39514 -0.266089 0)
(-1.54058 0.498515 0)
(-1.43117 0.391068 0)
(-1.5868 -0.477701 0)
(-2.09369 0.440516 0)
(-1.66498 -0.431783 0)
(-1.4711 -0.146996 0)
(-1.89001 0.335452 0)
(-1.26974 0.431475 0)
(-1.69269 -0.206817 0)
(-1.91084 -0.332492 0)
(-1.22156 0.296332 0)
(-1.24688 0.324587 0)
(-1.84548 -0.369801 0)
(-1.30903 0.452899 0)
(-1.634 -0.230387 0)
(-1.65079 0.478415 0)
(-1.84371 -0.187938 0)
(-1.55307 0.281594 0)
(-2.12824 -0.371814 0)
(-1.58423 0.298575 0)
(-1.69567 0.487632 0)
(-2.09194 -0.399422 0)
(-1.81229 -0.199231 0)
(-2.53455 -0.27565 0)
(-1.99304 0.11909 0)
(-2.10635 -0.0389835 0)
(-2.15778 0.460057 0)
(-1.13796 -0.182253 0)
(-1.73371 0.341105 0)
(-1.27872 -0.414428 0)
(-1.89606 0.395991 0)
(-1.08085 -0.0881262 0)
(-2.07463 0.0646124 0)
(-1.02885 0.122042 0)
(-1.86029 0.0737905 0)
(-1.74774 0.482844 0)
(-1.62999 0.282291 0)
(-1.84284 -0.185278 0)
(-2.13564 -0.390918 0)
(-1.19485 -0.104358 0)
(-2.1731 0.0699438 0)
(-1.1391 0.127378 0)
(-1.93699 0.0796306 0)
(-1.26273 -0.091764 0)
(-1.99085 0.0621154 0)
(-2.24687 0.0468585 0)
(-1.21346 0.153803 0)
(-2.24827 0.0910809 0)
(-1.87886 -0.211284 0)
(-1.80552 0.1886 0)
(-2.63511 0.113167 0)
(-1.04347 -0.054572 0)
(-2.01036 0.258207 0)
(-1.8128 0.231047 0)
(-1.13445 -0.27738 0)
(-2.74893 -0.160704 0)
(-2.26327 0.0184065 0)
(-2.68088 0.431894 0)
(-2.84533 0.0541406 0)
(-2.87574 -0.192506 0)
(-2.84457 0.432299 0)
(-2.24694 0.0540197 0)
(-2.87151 0.0544624 0)
(-1.24944 -0.0900666 0)
(-1.91044 0.279516 0)
(-1.38108 -0.353698 0)
(-2.12337 0.332757 0)
(-1.79738 0.493129 0)
(-1.6709 0.290934 0)
(-1.83964 -0.180414 0)
(-2.13501 -0.395955 0)
(-1.33089 -0.309509 0)
(-1.92511 0.247944 0)
(-2.14527 0.289773 0)
(-1.21594 -0.050315 0)
(-2.24185 0.0890082 0)
(-1.88538 -0.181295 0)
(-1.81448 0.209642 0)
(-2.62936 0.112053 0)
(-2.53662 -0.253733 0)
(-1.95698 0.100041 0)
(-2.11321 -0.0487797 0)
(-2.09397 0.435821 0)
(-1.87202 -0.44843 0)
(-1.63522 0.505012 0)
(-1.52042 0.357457 0)
(-1.63506 -0.23951 0)
(-1.1211 -0.0226122 0)
(-2.11578 -0.00742686 0)
(-1.88775 0.0188379 0)
(-1.08236 0.184265 0)
(-1.37252 0.266379 0)
(-1.81596 -0.188208 0)
(-1.43382 0.442538 0)
(-2.07281 -0.330323 0)
(-2.19375 -0.0116911 0)
(-2.16424 0.385326 0)
(-2.03835 0.00654838 0)
(-2.65045 -0.193242 0)
(-2.12667 -0.0590533 0)
(-1.14943 0.0192601 0)
(-1.12034 0.222893 0)
(-1.89294 -0.0200557 0)
(-1.84816 0.450827 0)
(-1.69353 0.370858 0)
(-1.45389 -0.457218 0)
(-1.27518 -0.21557 0)
(-1.87502 0.430756 0)
(-1.71597 0.360988 0)
(-1.38475 -0.446252 0)
(-1.22006 -0.205986 0)
(-1.25744 -0.242228 0)
(-1.7463 0.463009 0)
(-1.60824 0.382596 0)
(-1.44148 -0.477265 0)
(-1.09969 0.0719148 0)
(-2.06523 -0.101554 0)
(-1.07793 0.255822 0)
(-1.8424 -0.0546232 0)
(-1.08039 -0.215768 0)
(-2.00774 0.19706 0)
(-1.00361 0.00464831 0)
(-1.8101 0.179156 0)
(-1.04062 -0.104474 0)
(-1.76902 0.270981 0)
(-1.94985 0.302464 0)
(-1.1439 -0.323113 0)
(-1.28433 -0.235498 0)
(-1.75655 0.464264 0)
(-1.47162 -0.472185 0)
(-1.61777 0.380346 0)
(-1.12596 0.0747511 0)
(-2.07821 -0.110538 0)
(-1.85245 -0.0601305 0)
(-1.10688 0.259817 0)
(-1.84624 0.333131 0)
(-1.878 -0.443594 0)
(-1.6386 -0.162266 0)
(-2.03466 0.480143 0)
(-1.90429 0.325475 0)
(-1.87339 -0.440429 0)
(-2.11031 0.468196 0)
(-1.64004 -0.144518 0)
(-2.17188 -0.281361 0)
(-1.4486 0.411327 0)
(-1.8971 -0.154662 0)
(-1.39922 0.211062 0)
(-1.62998 -0.222118 0)
(-1.6255 0.358614 0)
(-1.7622 0.50867 0)
(-1.87317 -0.456134 0)
(-1.30433 -0.0745572 0)
(-1.94406 0.267963 0)
(-2.16749 0.324644 0)
(-1.43834 -0.347747 0)
(-1.84938 0.491843 0)
(-1.92291 -0.152921 0)
(-1.72155 0.260042 0)
(-2.24649 -0.366226 0)
(-1.89557 0.476734 0)
(-1.96035 -0.131738 0)
(-1.76381 0.228614 0)
(-2.30119 -0.34867 0)
(-1.6567 -0.235827 0)
(-1.43881 0.474661 0)
(-1.35752 0.333234 0)
(-1.88232 -0.401406 0)
(-1.51791 0.335621 0)
(-1.49771 0.0792462 0)
(-2.04683 -0.0662366 0)
(-2.35768 -0.153566 0)
(-1.29707 -0.190735 0)
(-1.98605 0.140428 0)
(-1.22011 0.0683516 0)
(-2.23266 0.150765 0)
(-2.29941 -0.295726 0)
(-2.28432 0.102657 0)
(-2.67531 0.276814 0)
(-2.06831 0.159519 0)
(-1.53072 0.318083 0)
(-2.08395 -0.0400101 0)
(-1.52231 0.0463233 0)
(-2.4036 -0.113213 0)
(-2.54639 0.464235 0)
(-2.86106 0.129957 0)
(-2.34363 -0.104569 0)
(-2.81004 -0.115953 0)
(-1.40705 -0.250111 0)
(-1.55647 0.392132 0)
(-1.61091 -0.486878 0)
(-1.68514 0.500546 0)
(-1.20494 -0.404851 0)
(-1.71879 0.347772 0)
(-1.07314 -0.178788 0)
(-1.87345 0.396769 0)
(-1.83148 0.0874315 0)
(-2.0393 0.0832415 0)
(-0.973092 0.0898154 0)
(-1.02475 -0.116 0)
(-1.84544 -0.128922 0)
(-1.18934 0.166234 0)
(-1.19643 0.337565 0)
(-2.0791 -0.211472 0)
(-2.05457 -0.106185 0)
(-1.74936 0.412773 0)
(-2.40963 -0.252683 0)
(-1.67304 0.136386 0)
(-2.08212 -0.0864675 0)
(-1.74206 0.400957 0)
(-2.4418 -0.221431 0)
(-1.67561 0.113663 0)
(-1.50611 -0.480039 0)
(-1.30586 -0.264686 0)
(-1.54892 0.502426 0)
(-1.43804 0.407701 0)
(-2.51564 -0.205298 0)
(-1.85942 0.400214 0)
(-2.12897 -0.0650451 0)
(-1.78151 0.0832835 0)
(-1.08399 0.319967 0)
(-1.07473 0.186961 0)
(-1.75918 -0.156856 0)
(-1.96226 -0.235035 0)
(-2.23526 0.928172 0)
(-3.11972 -0.899067 0)
(-3.70827 0.00641785 0)
(-3.0735 0.445273 0)
(-2.15777 -0.271563 0)
(-1.40219 0.40522 0)
(-1.36041 0.210181 0)
(-1.88839 -0.152346 0)
(-1.95998 0.29142 0)
(-1.03296 -0.0863642 0)
(-1.13231 -0.303431 0)
(-1.77471 0.260915 0)
(-2.20252 0.222908 0)
(-2.72635 0.285573 0)
(-2.31309 0.0317376 0)
(-2.5112 -0.260758 0)
(-1.7808 0.380988 0)
(-2.49623 -0.190086 0)
(-2.12052 -0.0662626 0)
(-1.72152 0.0755785 0)
(-1.4851 0.488067 0)
(-1.65016 -0.240852 0)
(-1.39505 0.344562 0)
(-1.87932 -0.41768 0)
(-1.59427 -0.233979 0)
(-1.60944 0.367217 0)
(-1.74526 0.508757 0)
(-1.82834 -0.467413 0)
(-1.34556 -0.0821894 0)
(-2.03338 0.0500337 0)
(-1.30354 0.177564 0)
(-2.30671 0.0273215 0)
(-2.22385 0.587026 0)
(-3.01389 -0.444378 0)
(-3.3547 0.237716 0)
(-2.93566 0.259437 0)
(-1.83609 -0.455389 0)
(-1.65048 0.508951 0)
(-1.53157 0.366399 0)
(-1.60394 -0.240848 0)
(-1.34539 0.249664 0)
(-1.82528 -0.183023 0)
(-1.40007 0.425724 0)
(-2.08024 -0.315808 0)
(-1.52513 -0.0350763 0)
(-2.32641 0.33479 0)
(-1.68087 -0.357017 0)
(-2.06205 0.252859 0)
(-1.23899 -0.152872 0)
(-2.00539 0.388731 0)
(-1.81986 0.325467 0)
(-1.38896 -0.404799 0)
(-2.21227 0.107486 0)
(-2.81164 0.424346 0)
(-2.77936 -0.182986 0)
(-2.83664 0.0466162 0)
(-1.18283 0.305734 0)
(-1.85893 -0.334326 0)
(-1.22835 0.430089 0)
(-1.65036 -0.21295 0)
(-2.33027 0.356806 0)
(-1.55947 -0.0439199 0)
(-1.72909 -0.371532 0)
(-2.06462 0.263167 0)
(-1.32202 0.373608 0)
(-1.67292 -0.453099 0)
(-1.48041 -0.275486 0)
(-1.41302 0.487279 0)
(-1.3369 0.370545 0)
(-1.70572 -0.446222 0)
(-1.50704 -0.268019 0)
(-1.42815 0.488718 0)
(-2.29875 0.209548 0)
(-1.32616 0.0360565 0)
(-2.03769 0.180441 0)
(-1.42213 -0.25048 0)
(-3.30683 0.055451 0)
(-3.03713 0.760676 0)
(-2.27858 -0.259701 0)
(-2.93065 -0.0172779 0)
(-1.79264 0.510204 0)
(-1.76133 -0.471757 0)
(-1.64777 0.378878 0)
(-1.53526 -0.227082 0)
(-2.22852 0.330301 0)
(-1.37335 -0.0590811 0)
(-1.51444 -0.349976 0)
(-1.99046 0.266117 0)
(-1.3528 0.027726 0)
(-1.45726 -0.263224 0)
(-2.04696 0.192314 0)
(-2.30941 0.229127 0)
(-1.08027 -0.0712167 0)
(-1.81989 0.251574 0)
(-2.01541 0.282933 0)
(-1.18159 -0.298996 0)
(-1.83662 0.503881 0)
(-1.77164 -0.468756 0)
(-1.5451 -0.217946 0)
(-1.68494 0.372009 0)
(-1.32372 0.162191 0)
(-1.34937 0.363566 0)
(-1.91727 -0.129639 0)
(-2.18312 -0.230342 0)
(-1.34732 0.144093 0)
(-1.36964 0.354515 0)
(-1.94069 -0.115393 0)
(-2.21356 -0.212054 0)
(-1.40088 0.041672 0)
(-2.06936 0.187061 0)
(-1.50717 -0.25898 0)
(-2.34069 0.226943 0)
(-1.5751 -0.48515 0)
(-1.5608 0.392668 0)
(-1.37284 -0.247454 0)
(-1.6895 0.495154 0)
(-2.2378 0.333943 0)
(-1.55308 -0.357282 0)
(-1.40743 -0.0626589 0)
(-1.99778 0.265731 0)
(-1.27759 -0.164886 0)
(-1.98094 0.125597 0)
(-1.20639 0.0889872 0)
(-2.22696 0.130806 0)
(-1.84363 -0.119539 0)
(-1.16709 0.148539 0)
(-1.16778 0.319491 0)
(-2.07324 -0.194614 0)
(-1.99532 -0.335656 0)
(-3.81329 -0.0724612 0)
(-3.61064 0.738083 0)
(-2.77978 -0.171303 0)
(-1.41991 0.0661614 0)
(-1.51837 -0.240342 0)
(-2.09373 0.169339 0)
(-2.37608 0.202401 0)
(-2.22342 0.384418 0)
(-1.66686 -0.399705 0)
(-1.98685 0.291878 0)
(-1.49278 -0.0949851 0)
(-1.83478 -0.10121 0)
(-2.17588 0.4812 0)
(-1.95827 0.278182 0)
(-2.12953 -0.411177 0)
(-3.13742 -0.0444516 0)
(-2.90417 0.62351 0)
(-2.28888 -0.167122 0)
(-2.90702 0.035347 0)
(-2.28794 0.0922115 0)
(-2.55441 -0.157643 0)
(-2.85419 0.0105778 0)
(-2.60628 0.382518 0)
(-2.04001 0.277272 0)
(-1.81884 -0.396695 0)
(-2.2968 0.392709 0)
(-1.62338 -0.0658429 0)
(-1.31434 -0.110575 0)
(-2.11616 0.371631 0)
(-1.46514 -0.381759 0)
(-1.90689 0.303549 0)
(-2.21179 0.177381 0)
(-2.04961 -0.326424 0)
(-1.85721 0.071478 0)
(-2.54889 0.305964 0)
(-1.13186 -0.25494 0)
(-1.82703 0.214464 0)
(-1.04447 -0.0312856 0)
(-2.02908 0.238754 0)
(-1.20592 -0.38778 0)
(-1.73669 0.340768 0)
(-1.89922 0.390118 0)
(-1.07651 -0.16217 0)
(-2.20058 0.181177 0)
(-2.09179 -0.342496 0)
(-2.53929 0.326344 0)
(-1.88127 0.0645689 0)
(-1.14634 -0.244248 0)
(-2.04722 0.223879 0)
(-1.84281 0.201668 0)
(-1.06087 -0.0166444 0)
(-1.83745 0.101114 0)
(-0.986159 0.0745597 0)
(-2.04534 0.10017 0)
(-1.04238 -0.138378 0)
(-2.226 0.377039 0)
(-1.46559 -0.0811256 0)
(-1.633 -0.381778 0)
(-1.98949 0.289785 0)
(-2.61323 0.354823 0)
(-2.80395 -0.0927566 0)
(-2.24136 0.144601 0)
(-2.41183 -0.141743 0)
(-2.02263 0.288684 0)
(-1.77278 -0.401255 0)
(-1.5822 -0.0779044 0)
(-2.27206 0.39861 0)
(-2.16326 0.371885 0)
(-2.25594 0.0325325 0)
(-2.12239 -0.0740827 0)
(-2.73718 -0.0489059 0)
(-2.18146 0.524204 0)
(-2.67188 -0.324484 0)
(-3.0764 0.296467 0)
(-2.84203 0.103495 0)
(-2.73418 0.252599 0)
(-2.18511 0.256811 0)
(-2.45599 -0.236533 0)
(-2.3092 0.0324491 0)
(-2.32566 0.3528 0)
(-2.33879 -0.00111649 0)
(-2.81108 0.196188 0)
(-2.565 -0.181793 0)
(-2.09777 -0.0946361 0)
(-2.11423 0.341743 0)
(-2.72071 -0.0176749 0)
(-2.25795 0.039726 0)
(-1.11885 -0.152335 0)
(-1.77356 0.326862 0)
(-1.25037 -0.385797 0)
(-1.94752 0.375808 0)
(-1.13961 -0.16513 0)
(-1.94474 0.385614 0)
(-1.77182 0.332453 0)
(-1.27677 -0.402053 0)
(-3.22329 -0.776395 0)
(-2.11001 0.958012 0)
(-3.70202 0.0481887 0)
(-2.94046 0.519199 0)
(-1.90254 0.318676 0)
(-2.11052 0.404741 0)
(-1.40221 -0.132787 0)
(-1.57417 -0.413635 0)
(-2.37727 0.304497 0)
(-2.09869 0.23052 0)
(-1.68172 -0.333283 0)
(-1.53698 -0.00627067 0)
(-1.13516 0.33013 0)
(-1.13001 0.179571 0)
(-1.79554 -0.143626 0)
(-2.01103 -0.223639 0)
(-2.00629 -0.245254 0)
(-1.16089 0.351361 0)
(-1.78798 -0.156458 0)
(-1.14827 0.203816 0)
(-1.60263 0.498355 0)
(-1.55479 -0.48524 0)
(-1.48707 0.397424 0)
(-1.35398 -0.25443 0)
(-3.7586 0.173505 0)
(-2.0183 -0.394483 0)
(-3.49738 1.00531 0)
(-2.80324 -0.171949 0)
(-1.2448 -0.363882 0)
(-1.98336 0.353299 0)
(-1.80063 0.308787 0)
(-1.11952 -0.129071 0)
(-1.58628 0.506141 0)
(-1.47191 0.398316 0)
(-1.39013 -0.260841 0)
(-1.58766 -0.486013 0)
(-1.96678 0.229569 0)
(-0.999189 -0.0394143 0)
(-1.08111 -0.248786 0)
(-1.77217 0.207163 0)
(-1.58457 0.496878 0)
(-1.52401 -0.483726 0)
(-1.47207 0.400709 0)
(-1.32056 -0.254464 0)
(-1.10383 0.316974 0)
(-1.78275 -0.146274 0)
(-1.10185 0.173204 0)
(-1.99166 -0.222073 0)
(-1.28308 0.32508 0)
(-1.86905 -0.378832 0)
(-1.35063 0.459625 0)
(-1.65148 -0.231488 0)
(-2.26238 0.0564605 0)
(-2.36393 -0.119064 0)
(-2.80117 0.00203431 0)
(-2.38392 0.395967 0)
(-1.59131 0.0761583 0)
(-2.47005 0.221463 0)
(-1.70446 -0.266687 0)
(-2.15951 0.169603 0)
(-2.2707 0.10245 0)
(-1.99516 -0.224703 0)
(-2.66437 0.156833 0)
(-1.89149 0.191965 0)
(-2.00451 -0.0579361 0)
(-1.97977 0.192689 0)
(-2.37512 -0.345552 0)
(-2.18256 0.470684 0)
(-2.0753 -0.213227 0)
(-2.28365 0.0828512 0)
(-2.69727 0.132865 0)
(-1.97794 0.22065 0)
(-2.13249 -0.20047 0)
(-2.28831 0.0706034 0)
(-2.7274 0.089872 0)
(-2.07021 0.246793 0)
(-1.93012 0.0613446 0)
(-2.16403 -0.352018 0)
(-2.55149 0.331152 0)
(-2.20761 0.16338 0)
(-1.78823 0.488716 0)
(-1.64307 0.383446 0)
(-1.60791 -0.484154 0)
(-1.40373 -0.236986 0)
(-2.25071 -0.26655 0)
(-1.52935 0.407997 0)
(-1.47489 0.184873 0)
(-1.95348 -0.136801 0)
(-2.05546 -0.0428532 0)
(-2.01491 0.155912 0)
(-2.45493 -0.318408 0)
(-2.2108 0.463864 0)
(-1.85815 0.506234 0)
(-1.70622 0.344105 0)
(-1.6786 -0.202106 0)
(-1.93522 -0.450629 0)
(-1.9823 -0.139839 0)
(-1.73963 0.452636 0)
(-2.31402 -0.313501 0)
(-1.64627 0.206293 0)
(-2.14614 -0.161318 0)
(-1.21872 0.116757 0)
(-1.21617 0.311051 0)
(-1.89986 -0.090967 0)
(-2.48241 0.252669 0)
(-1.62786 0.059419 0)
(-1.75901 -0.291626 0)
(-2.16934 0.185888 0)
(-2.37122 0.285954 0)
(-1.63255 -0.320742 0)
(-2.09327 0.222181 0)
(-1.49911 0.00241065 0)
(-1.4814 0.153539 0)
(-1.52714 0.392438 0)
(-1.99495 -0.118543 0)
(-2.30214 -0.237324 0)
(-1.74321 0.287293 0)
(-1.03009 -0.118044 0)
(-1.91681 0.3222 0)
(-1.13709 -0.331475 0)
(-1.0528 -0.201925 0)
(-0.978998 0.0250255 0)
(-1.99087 0.173227 0)
(-1.79481 0.161469 0)
(-1.92438 -0.45832 0)
(-1.75431 0.349049 0)
(-1.6681 -0.196433 0)
(-1.92027 0.510304 0)
(-1.73652 0.463314 0)
(-1.9475 -0.153494 0)
(-2.26821 -0.336638 0)
(-1.63594 0.229624 0)
(-1.36182 -0.0142935 0)
(-2.28058 0.283522 0)
(-1.48548 -0.308251 0)
(-2.02731 0.232085 0)
(-1.96952 0.233056 0)
(-2.20292 0.276161 0)
(-1.39165 -0.299471 0)
(-1.27663 -0.0284553 0)
(-2.28536 0.0922385 0)
(-2.02197 0.0952372 0)
(-1.33598 -0.139041 0)
(-1.27602 0.124016 0)
(-1.69779 0.337742 0)
(-1.97272 -0.450419 0)
(-1.84816 0.507823 0)
(-1.70876 -0.204178 0)
(-1.28529 0.236341 0)
(-1.32556 0.40421 0)
(-2.06053 -0.288396 0)
(-1.81666 -0.171254 0)
(-1.48946 0.391123 0)
(-1.21237 -0.246369 0)
(-1.60104 0.465584 0)
(-1.40425 -0.473802 0)
(-2.71965 0.334517 0)
(-2.33914 -0.0195472 0)
(-2.18161 0.251344 0)
(-2.6027 -0.197734 0)
(-1.54055 -0.248089 0)
(-1.63666 0.504844 0)
(-1.75905 -0.466456 0)
(-1.517 0.375313 0)
(-2.19182 0.212902 0)
(-2.71551 -0.15066 0)
(-2.68013 0.362366 0)
(-2.36882 -0.082448 0)
(-2.66349 0.326986 0)
(-2.1289 0.179075 0)
(-2.28712 0.0669133 0)
(-2.45135 -0.274164 0)
(-1.95624 -0.150279 0)
(-1.03417 0.114802 0)
(-1.75695 -0.0971195 0)
(-1.01956 0.266286 0)
(-2.49732 0.31031 0)
(-2.30252 0.0358282 0)
(-2.57061 -0.241601 0)
(-2.8482 0.0738654 0)
(-2.74669 0.361838 0)
(-2.22393 0.25941 0)
(-2.38428 -0.083418 0)
(-2.7317 -0.154809 0)
(-2.18658 0.227867 0)
(-2.66301 0.381219 0)
(-2.73218 -0.12779 0)
(-2.35968 -0.0864337 0)
(-2.10799 0.245555 0)
(-1.92164 -0.384071 0)
(-2.39335 0.375193 0)
(-1.717 -0.0283073 0)
(-1.61806 0.374243 0)
(-1.21621 -0.236546 0)
(-1.75735 0.446839 0)
(-1.38933 -0.46664 0)
(-1.04789 0.229726 0)
(-1.83033 -0.0293495 0)
(-2.04821 -0.0671926 0)
(-1.07622 0.0443486 0)
(-2.29401 0.0912827 0)
(-2.23416 -0.219232 0)
(-2.73187 0.180401 0)
(-2.09659 0.260502 0)
(-1.99965 -0.329172 0)
(-1.34406 0.427793 0)
(-1.7633 -0.19797 0)
(-1.29161 0.272533 0)
(-1.56005 0.502522 0)
(-1.56658 -0.248855 0)
(-1.45405 0.369806 0)
(-1.78581 -0.448385 0)
(-2.31428 0.070524 0)
(-2.33753 -0.229822 0)
(-2.15575 0.258669 0)
(-2.75428 0.203419 0)
(-1.44241 0.0862641 0)
(-2.03346 -0.0700079 0)
(-1.45716 0.334739 0)
(-2.33568 -0.153888 0)
(-2.01712 -0.117772 0)
(-1.66894 0.409345 0)
(-2.3486 -0.261403 0)
(-1.59956 0.154777 0)
(-1.81843 0.350631 0)
(-2.00168 0.489305 0)
(-1.59562 -0.184579 0)
(-1.82754 -0.461353 0)
(-2.03954 -0.314136 0)
(-1.35134 0.416702 0)
(-1.30163 0.253071 0)
(-1.79659 -0.186422 0)
(-1.56727 -0.245827 0)
(-1.7896 -0.454553 0)
(-1.49348 0.373134 0)
(-1.60602 0.507792 0)
(-1.90771 0.428481 0)
(-2.08073 -0.0813221 0)
(-1.8078 0.127315 0)
(-2.46626 -0.254198 0)
(-1.73161 0.495703 0)
(-1.42548 -0.243326 0)
(-1.59576 0.385921 0)
(-1.63149 -0.483424 0)
(-1.14793 -0.040156 0)
(-1.91447 0.0333436 0)
(-2.14877 0.0109375 0)
(-1.10573 0.176493 0)
(-2.35801 0.0752644 0)
(-2.07272 0.0835315 0)
(-1.3568 0.148745 0)
(-1.41287 -0.132005 0)
(-1.98521 -0.129337 0)
(-1.66476 0.425889 0)
(-1.59076 0.183407 0)
(-2.3076 -0.279312 0)
(-1.73262 0.500808 0)
(-1.46522 -0.24109 0)
(-1.59666 0.384077 0)
(-1.67689 -0.480693 0)
(-1.24885 -0.318162 0)
(-1.13754 -0.0761577 0)
(-2.06161 0.298021 0)
(-1.85925 0.261148 0)
(-1.58249 0.325959 0)
(-1.74668 -0.211028 0)
(-2.01348 -0.418874 0)
(-1.69917 0.500489 0)
(-1.1269 -0.0908731 0)
(-1.24342 -0.328156 0)
(-2.0299 0.320813 0)
(-1.83525 0.280125 0)
(-1.22463 0.333054 0)
(-1.87086 -0.116636 0)
(-1.21865 0.151674 0)
(-2.11263 -0.197517 0)
(-2.14046 0.225066 0)
(-1.95233 -0.363628 0)
(-1.75155 0.004816 0)
(-2.4398 0.352319 0)
(-2.25009 -0.279886 0)
(-1.55492 0.431686 0)
(-1.4942 0.206533 0)
(-1.94662 -0.141784 0)
(-1.4535 -0.166542 0)
(-1.64845 -0.440385 0)
(-2.03375 0.448372 0)
(-1.84376 0.344159 0)
(-1.57201 0.466151 0)
(-1.85538 -0.181774 0)
(-1.4911 0.269751 0)
(-2.13669 -0.345547 0)
(-1.64853 0.377191 0)
(-1.79347 0.449029 0)
(-1.20857 -0.227338 0)
(-1.3789 -0.458826 0)
(-1.94313 -0.450942 0)
(-1.78878 0.337161 0)
(-1.68443 -0.18263 0)
(-1.96194 0.501016 0)
(-1.55734 0.37973 0)
(-2.01621 -0.102818 0)
(-1.5138 0.13258 0)
(-2.33169 -0.21862 0)
(-1.26438 0.349964 0)
(-1.87594 -0.126747 0)
(-1.24981 0.166316 0)
(-2.12322 -0.216546 0)
(-1.92189 0.424122 0)
(-1.39857 -0.442916 0)
(-1.23568 -0.196717 0)
(-1.75307 0.35377 0)
(-1.848 -0.0160412 0)
(-2.06819 -0.0509225 0)
(-1.04941 0.210134 0)
(-1.08067 0.0179808 0)
(-2.29703 -0.0517975 0)
(-1.32925 0.240241 0)
(-1.34948 -0.00667238 0)
(-2.02013 -0.00610863 0)
(-2.56123 -0.233007 0)
(-2.26626 0.0492908 0)
(-2.13823 0.159611 0)
(-2.58529 0.394406 0)
(-2.64321 -0.169749 0)
(-2.20623 0.261696 0)
(-2.33317 -0.0133687 0)
(-2.69347 0.357814 0)
(-2.33184 -0.104846 0)
(-1.40307 0.0321011 0)
(-1.40071 0.283884 0)
(-2.03963 -0.0405985 0)
(-1.2534 -0.279986 0)
(-2.11701 0.252786 0)
(-1.1532 -0.032295 0)
(-1.90053 0.222769 0)
(-1.39513 0.385524 0)
(-1.44973 -0.274915 0)
(-1.64461 -0.473432 0)
(-1.49893 0.499276 0)
(-1.32541 -0.35413 0)
(-1.85447 0.292282 0)
(-2.05045 0.341914 0)
(-1.19556 -0.106165 0)
(-2.29305 0.0793088 0)
(-2.73257 0.163464 0)
(-2.22667 -0.20788 0)
(-2.09669 0.261879 0)
(-2.49124 -0.197744 0)
(-2.37392 0.346567 0)
(-2.29404 0.0390119 0)
(-2.81297 0.117712 0)
(-1.37279 -0.37113 0)
(-2.0677 0.357822 0)
(-1.23422 -0.115581 0)
(-1.86793 0.301325 0)
(-1.19358 0.389612 0)
(-1.755 -0.171985 0)
(-1.1681 0.248573 0)
(-1.97448 -0.272789 0)
(-1.72158 -0.186287 0)
(-1.20456 0.400694 0)
(-1.93708 -0.294286 0)
(-1.1722 0.265889 0)
(-1.43066 0.388789 0)
(-1.63223 -0.484936 0)
(-1.5413 0.501183 0)
(-1.43607 -0.275081 0)
(-1.33765 1.77101e-06 0)
(-2.27475 0.260563 0)
(-1.45188 -0.288063 0)
(-2.02255 0.216627 0)
(-1.70498 0.358317 0)
(-1.86145 0.422522 0)
(-1.17925 -0.20606 0)
(-1.33554 -0.439572 0)
(-2.47093 0.431019 0)
(-2.80518 -0.149019 0)
(-2.35668 -0.126502 0)
(-2.87077 0.175398 0)
(-1.73811 0.343233 0)
(-1.16753 -0.193898 0)
(-1.90221 0.402149 0)
(-1.31535 -0.431473 0)
(-1.85271 -0.400226 0)
(-1.31709 0.339224 0)
(-1.63391 -0.241083 0)
(-1.39433 0.474163 0)
(-1.82054 0.481062 0)
(-1.67066 0.37585 0)
(-1.61946 -0.47513 0)
(-1.41629 -0.225736 0)
(-1.78445 -0.379204 0)
(-1.20763 0.332401 0)
(-1.26826 0.450482 0)
(-1.58413 -0.243055 0)
(-2.08661 0.0116628 0)
(-1.04711 0.166649 0)
(-1.8667 0.0330366 0)
(-1.0895 -0.037793 0)
(-1.04903 0.144826 0)
(-2.09831 0.0497063 0)
(-1.09889 -0.0667317 0)
(-1.87763 0.0627836 0)
(-2.16545 -0.14816 0)
(-1.91489 -0.079803 0)
(-1.24311 0.101872 0)
(-1.23907 0.301543 0)
(-1.71398 -0.42004 0)
(-1.5199 -0.263306 0)
(-1.33691 0.47698 0)
(-1.26032 0.361606 0)
(-1.86909 0.107241 0)
(-1.09592 -0.138994 0)
(-1.03368 0.081262 0)
(-2.08436 0.107112 0)
(-1.09998 -0.116322 0)
(-2.09861 0.0833134 0)
(-1.04331 0.102662 0)
(-1.87956 0.08828 0)
(-2.36593 0.105849 0)
(-2.08046 0.103853 0)
(-1.36749 0.132559 0)
(-1.43333 -0.155644 0)
(-1.74474 -0.448868 0)
(-1.52949 -0.170142 0)
(-2.03371 0.47584 0)
(-1.84381 0.352581 0)
(-2.11972 0.186276 0)
(-1.9685 0.0164604 0)
(-2.2969 -0.345969 0)
(-2.39404 0.429998 0)
(-1.39919 0.311783 0)
(-1.9692 -0.387022 0)
(-1.48024 0.469359 0)
(-1.72665 -0.221177 0)
(-1.68161 0.359931 0)
(-1.83329 0.42224 0)
(-1.31455 -0.445268 0)
(-1.1614 -0.215161 0)
(-1.84775 0.0311172 0)
(-2.06336 0.00996367 0)
(-1.06425 -0.0277771 0)
(-1.02264 0.170473 0)
(-2.15674 0.179997 0)
(-2.45735 0.418247 0)
(-1.9764 0.0396175 0)
(-2.29453 -0.346572 0)
(-1.4031 0.299309 0)
(-2.01566 -0.372089 0)
(-1.48047 0.465802 0)
(-1.76438 -0.210989 0)
(-1.78848 -0.438824 0)
(-1.57531 -0.257207 0)
(-1.47146 0.491983 0)
(-1.37806 0.362419 0)
(-2.55107 -0.174204 0)
(-1.90055 0.391507 0)
(-2.15398 -0.041084 0)
(-1.8272 0.0589937 0)
(-2.18155 0.412738 0)
(-1.67925 -0.41006 0)
(-1.95659 0.310968 0)
(-1.49318 -0.111329 0)
(-2.62105 0.351581 0)
(-2.76895 -0.100803 0)
(-2.21111 0.16019 0)
(-2.39777 -0.131742 0)
(-2.11214 0.204753 0)
(-1.19352 -0.231863 0)
(-1.10782 0.00788254 0)
(-1.89465 0.185362 0)
(-1.4048 0.0578486 0)
(-2.31692 -0.121355 0)
(-1.40625 0.302418 0)
(-2.02499 -0.0524874 0)
(-1.13628 0.0648701 0)
(-1.92846 0.137546 0)
(-1.20892 -0.175629 0)
(-2.15784 0.14513 0)
(-1.7611 -0.455652 0)
(-1.5437 -0.179212 0)
(-2.0049 0.475205 0)
(-1.82072 0.350567 0)
(-1.16339 0.087434 0)
(-1.95022 0.11893 0)
(-1.23171 -0.15554 0)
(-2.18665 0.121936 0)
(-2.088 -0.0262511 0)
(-1.50331 0.291158 0)
(-1.50447 0.0174427 0)
(-2.40283 -0.0891248 0)
(-2.12747 0.460812 0)
(-1.60877 -0.134815 0)
(-1.9171 0.326416 0)
(-1.83247 -0.433307 0)
(-1.39394 -0.38902 0)
(-1.24921 -0.131922 0)
(-2.05043 0.368086 0)
(-1.8551 0.308403 0)
(-1.99085 0.112772 0)
(-2.60206 0.320984 0)
(-2.24384 -0.315922 0)
(-2.2437 0.132434 0)
(-2.57733 -0.234584 0)
(-2.13695 0.122685 0)
(-2.51371 0.405761 0)
(-2.22909 0.0487589 0)
(-2.18772 0.0923455 0)
(-1.16319 0.110915 0)
(-1.22413 -0.127866 0)
(-1.94985 0.0971672 0)
(-2.58272 0.344381 0)
(-2.07205 0.0957463 0)
(-2.37175 -0.331363 0)
(-2.23169 0.110466 0)
(-1.20906 -0.247253 0)
(-1.64466 0.465755 0)
(-1.52516 0.390242 0)
(-1.39299 -0.472609 0)
(-1.0796 -0.108768 0)
(-1.97345 0.322294 0)
(-1.19191 -0.334578 0)
(-1.78995 0.284935 0)
(-1.0894 -0.124069 0)
(-1.97106 0.339315 0)
(-1.7896 0.299121 0)
(-1.20769 -0.353596 0)
(-2.05004 0.17853 0)
(-1.11023 -0.207186 0)
(-1.03367 0.0214481 0)
(-1.84393 0.165084 0)
(-2.06512 0.158326 0)
(-1.03197 0.0386646 0)
(-1.85517 0.14849 0)
(-1.10349 -0.188869 0)
(-1.11909 -0.195913 0)
(-1.72461 0.351273 0)
(-1.25965 -0.427555 0)
(-1.88531 0.406347 0)
(-2.06016 -0.297386 0)
(-2.24194 0.164983 0)
(-2.59618 0.286333 0)
(-1.87743 0.113159 0)
(-1.98155 -0.128897 0)
(-1.03727 0.0930673 0)
(-1.77704 -0.0796236 0)
(-1.02134 0.256094 0)
(-1.00291 0.125403 0)
(-2.07343 0.0623744 0)
(-1.05365 -0.083993 0)
(-1.85987 0.0717379 0)
(-1.49292 0.492958 0)
(-1.60977 -0.244281 0)
(-1.39976 0.355888 0)
(-1.83195 -0.42579 0)
(-1.97391 0.445038 0)
(-2.07387 -0.082878 0)
(-1.84835 0.141272 0)
(-2.46673 -0.283008 0)
(-2.24418 0.0326145 0)
(-2.19935 -0.0929319 0)
(-2.33283 0.337717 0)
(-2.74589 -0.144939 0)
(-1.83089 0.0539315 0)
(-2.04067 0.0384702 0)
(-1.03227 -0.0395246 0)
(-0.985023 0.157294 0)
(-1.82745 0.407962 0)
(-1.12017 -0.219616 0)
(-1.26369 -0.447169 0)
(-1.67573 0.352395 0)
(-2.6196 -0.22315 0)
(-2.15162 0.126083 0)
(-2.52554 0.398993 0)
(-2.2429 0.0143557 0)
(-2.68632 0.252842 0)
(-2.26754 -0.269452 0)
(-2.28249 0.0972963 0)
(-2.05916 0.189932 0)
(-2.20192 0.374966 0)
(-1.97264 0.293453 0)
(-1.5873 -0.378922 0)
(-1.42483 -0.0870633 0)
(-1.3885 0.454286 0)
(-1.71121 -0.219405 0)
(-1.32123 0.306106 0)
(-1.94275 -0.367776 0)
(-2.0824 0.253531 0)
(-1.11435 -0.0381746 0)
(-1.21202 -0.277502 0)
(-1.87229 0.225672 0)
(-2.10487 0.178699 0)
(-1.08535 0.0194297 0)
(-1.16328 -0.218114 0)
(-1.88807 0.164786 0)
(-1.4334 0.46849 0)
(-1.70073 -0.225682 0)
(-1.35699 0.319011 0)
(-1.93493 -0.384911 0)
(-1.74844 -0.199935 0)
(-1.30995 0.425709 0)
(-1.97949 -0.327272 0)
(-1.26113 0.275669 0)
(-2.24518 0.10992 0)
(-2.82328 -0.0270035 0)
(-2.49916 -0.15769 0)
(-2.60652 0.379526 0)
(-2.04745 0.493343 0)
(-1.83171 -0.133579 0)
(-1.86342 0.288114 0)
(-2.13157 -0.411345 0)
(-2.08786 0.497396 0)
(-1.81193 -0.129535 0)
(-1.89205 0.294519 0)
(-2.10952 -0.418554 0)
(-1.79949 0.321882 0)
(-1.17391 -0.151946 0)
(-1.97964 0.376093 0)
(-1.31221 -0.39386 0)