/*--------------------------------*- C++ -*----------------------------------*\
| =========                 |                                                 |
| \\      /  F ield         | OpenFOAM: The Open Source CFD Toolbox           |
|  \\    /   O peration     | Version:  2.2.0                                 |
|   \\  /    A nd           | Web:      www.OpenFOAM.org                      |
|    \\/     M anipulation  |                                                 |
\*---------------------------------------------------------------------------*/
FoamFile
{
    version     2.0;
    format      ascii;
    class       volVectorField;
    location    "50";
    object      s;
}
// * * * * * * * * * * * * * * * * * * * * * * * * * * * * * * * * * * * * * //

dimensions      [0 1 -1 0 0 0 0];

internalField   nonuniform List<vector> 
51200
(
(-0.627263 -0.568484 -0.0192181)
(-0.607844 -0.55081 -0.0573167)
(-0.587211 -0.532037 -0.0966279)
(-0.565094 -0.511895 -0.136868)
(-0.541833 -0.490776 -0.177736)
(-0.516839 -0.46801 -0.218759)
(-0.490964 -0.444725 -0.259581)
(-0.46281 -0.419093 -0.299361)
(-0.434188 -0.394119 -0.337862)
(-0.402028 -0.364988 -0.373301)
(-0.369316 -0.339463 -0.405997)
(-0.329349 -0.304784 -0.431281)
(-0.676111 -0.501339 -0.0193889)
(-0.655105 -0.485541 -0.0578513)
(-0.632723 -0.468705 -0.097571)
(-0.608832 -0.450704 -0.138285)
(-0.58355 -0.431732 -0.179693)
(-0.556644 -0.411461 -0.221388)
(-0.528372 -0.390527 -0.262988)
(-0.498293 -0.367973 -0.303871)
(-0.46668 -0.345637 -0.34367)
(-0.433031 -0.320864 -0.381354)
(-0.396382 -0.298711 -0.416866)
(-0.357796 -0.272152 -0.44837)
(-0.714536 -0.428209 -0.0196556)
(-0.691988 -0.414539 -0.0586858)
(-0.66794 -0.399954 -0.0990428)
(-0.642293 -0.384389 -0.140481)
(-0.615124 -0.367956 -0.182717)
(-0.586235 -0.350493 -0.225384)
(-0.555867 -0.332401 -0.268128)
(-0.523558 -0.313196 -0.31043)
(-0.489767 -0.294048 -0.351963)
(-0.453615 -0.273659 -0.391975)
(-0.415314 -0.255097 -0.430467)
(-0.374084 -0.235562 -0.466305)
(-0.745418 -0.352519 -0.0199213)
(-0.72154 -0.341134 -0.0595167)
(-0.696063 -0.328982 -0.100506)
(-0.668948 -0.316046 -0.142658)
(-0.640197 -0.302379 -0.1857)
(-0.609763 -0.287945 -0.229301)
(-0.577701 -0.272966 -0.273107)
(-0.543922 -0.257296 -0.316698)
(-0.508488 -0.24164 -0.359703)
(-0.471307 -0.225509 -0.40163)
(-0.432078 -0.21092 -0.442271)
(-0.391203 -0.196714 -0.481151)
(-0.767712 -0.274677 -0.0201688)
(-0.74273 -0.265696 -0.0602899)
(-0.71608 -0.256111 -0.101866)
(-0.687741 -0.245921 -0.144676)
(-0.657706 -0.235153 -0.188457)
(-0.625968 -0.223822 -0.232898)
(-0.592581 -0.212051 -0.277657)
(-0.557518 -0.199852 -0.322353)
(-0.520931 -0.187615 -0.366622)
(-0.482734 -0.175318 -0.410056)
(-0.44316 -0.164062 -0.452415)
(-0.402244 -0.153886 -0.493372)
(-0.784553 -0.196532 -0.020351)
(-0.758728 -0.19008 -0.060859)
(-0.731187 -0.183198 -0.102866)
(-0.701929 -0.175893 -0.146158)
(-0.670939 -0.168182 -0.190479)
(-0.638259 -0.160095 -0.235529)
(-0.603919 -0.151706 -0.280971)
(-0.568009 -0.143076 -0.326449)
(-0.530635 -0.134446 -0.37159)
(-0.491962 -0.125912 -0.416047)
(-0.452214 -0.118185 -0.459512)
(-0.411822 -0.11147 -0.501787)
(-0.794868 -0.117913 -0.0204806)
(-0.768484 -0.114005 -0.0612634)
(-0.740355 -0.109837 -0.103576)
(-0.710489 -0.105416 -0.14721)
(-0.678875 -0.100749 -0.191911)
(-0.645573 -0.0958604 -0.237387)
(-0.610623 -0.0907891 -0.283306)
(-0.574159 -0.0855885 -0.329322)
(-0.536317 -0.0803804 -0.375062)
(-0.497337 -0.0752763 -0.420198)
(-0.457582 -0.0706248 -0.464403)
(-0.417557 -0.0666952 -0.507506)
(-0.800231 -0.0393217 -0.0205421)
(-0.773563 -0.0380291 -0.0614555)
(-0.745138 -0.0366519 -0.103913)
(-0.714966 -0.0351924 -0.147709)
(-0.68304 -0.0336542 -0.19259)
(-0.649429 -0.032046 -0.238268)
(-0.614178 -0.0303815 -0.284412)
(-0.577447 -0.0286807 -0.330681)
(-0.539375 -0.0269855 -0.3767)
(-0.500266 -0.0253355 -0.42215)
(-0.460499 -0.0238527 -0.46669)
(-0.420688 -0.0226216 -0.510165)
(-0.800231 0.0393217 -0.0205421)
(-0.773563 0.0380291 -0.0614555)
(-0.745138 0.0366519 -0.103913)
(-0.714966 0.0351924 -0.147709)
(-0.68304 0.0336542 -0.19259)
(-0.64943 0.0320459 -0.238268)
(-0.614178 0.0303814 -0.284412)
(-0.577447 0.0286806 -0.330681)
(-0.539375 0.0269854 -0.3767)
(-0.500266 0.0253354 -0.42215)
(-0.460499 0.0238527 -0.46669)
(-0.420688 0.0226215 -0.510165)
(-0.794868 0.117913 -0.0204806)
(-0.768484 0.114005 -0.0612634)
(-0.740355 0.109837 -0.103576)
(-0.710489 0.105416 -0.14721)
(-0.678875 0.100749 -0.191911)
(-0.645573 0.0958604 -0.237387)
(-0.610623 0.0907891 -0.283306)
(-0.574159 0.0855884 -0.329322)
(-0.536317 0.0803803 -0.375062)
(-0.497337 0.0752762 -0.420198)
(-0.457582 0.0706247 -0.464403)
(-0.417557 0.0666951 -0.507506)
(-0.784553 0.196532 -0.020351)
(-0.758728 0.19008 -0.060859)
(-0.731187 0.183198 -0.102866)
(-0.701929 0.175893 -0.146158)
(-0.670939 0.168182 -0.190479)
(-0.638259 0.160095 -0.235529)
(-0.603919 0.151706 -0.280971)
(-0.568009 0.143076 -0.326449)
(-0.530635 0.134446 -0.37159)
(-0.491962 0.125911 -0.416047)
(-0.452214 0.118184 -0.459512)
(-0.411822 0.11147 -0.501787)
(-0.767712 0.274677 -0.0201688)
(-0.74273 0.265696 -0.0602899)
(-0.71608 0.256111 -0.101866)
(-0.687741 0.245921 -0.144676)
(-0.657706 0.235153 -0.188457)
(-0.625968 0.223822 -0.232898)
(-0.592582 0.212051 -0.277657)
(-0.557518 0.199851 -0.322353)
(-0.520931 0.187615 -0.366622)
(-0.482734 0.175318 -0.410056)
(-0.44316 0.164062 -0.452415)
(-0.402244 0.153886 -0.493372)
(-0.745418 0.352519 -0.0199213)
(-0.72154 0.341134 -0.0595167)
(-0.696063 0.328982 -0.100506)
(-0.668948 0.316046 -0.142658)
(-0.640197 0.302379 -0.1857)
(-0.609763 0.287945 -0.2293)
(-0.577701 0.272966 -0.273107)
(-0.543922 0.257296 -0.316698)
(-0.508488 0.24164 -0.359702)
(-0.471307 0.225508 -0.40163)
(-0.432078 0.21092 -0.442271)
(-0.391203 0.196714 -0.481151)
(-0.714536 0.428209 -0.0196556)
(-0.691988 0.414539 -0.0586858)
(-0.66794 0.399954 -0.0990427)
(-0.642293 0.384389 -0.140481)
(-0.615124 0.367956 -0.182717)
(-0.586235 0.350493 -0.225384)
(-0.555867 0.332401 -0.268128)
(-0.523558 0.313196 -0.31043)
(-0.489767 0.294048 -0.351963)
(-0.453615 0.273659 -0.391974)
(-0.415314 0.255097 -0.430466)
(-0.374084 0.235562 -0.466305)
(-0.676111 0.501339 -0.0193889)
(-0.655105 0.485541 -0.0578513)
(-0.632723 0.468705 -0.097571)
(-0.608832 0.450704 -0.138285)
(-0.58355 0.431732 -0.179693)
(-0.556643 0.411461 -0.221388)
(-0.528372 0.390527 -0.262988)
(-0.498293 0.367973 -0.303871)
(-0.46668 0.345636 -0.34367)
(-0.433031 0.320864 -0.381354)
(-0.396382 0.298711 -0.416866)
(-0.357796 0.272152 -0.44837)
(-0.627263 0.568484 -0.0192181)
(-0.607843 0.550809 -0.0573167)
(-0.587211 0.532037 -0.0966279)
(-0.565093 0.511895 -0.136868)
(-0.541832 0.490776 -0.177736)
(-0.516839 0.46801 -0.218759)
(-0.490964 0.444725 -0.259581)
(-0.46281 0.419093 -0.299361)
(-0.434188 0.394119 -0.337862)
(-0.402028 0.364987 -0.373301)
(-0.369316 0.339463 -0.405997)
(-0.329349 0.304784 -0.431281)
(-0.174936 -0.158607 -0.00783726)
(-0.176731 -0.160349 -0.0243819)
(-0.178265 -0.161871 -0.0426133)
(-0.179394 -0.163039 -0.0626257)
(-0.180094 -0.163855 -0.0844436)
(-0.180127 -0.164082 -0.108116)
(-0.179546 -0.163856 -0.133457)
(-0.177918 -0.162684 -0.160464)
(-0.175468 -0.16109 -0.188374)
(-0.171368 -0.157966 -0.217191)
(-0.166043 -0.154879 -0.244524)
(-0.157692 -0.149132 -0.270453)
(-0.187906 -0.139493 -0.0079657)
(-0.189765 -0.14115 -0.0247872)
(-0.191316 -0.142613 -0.0433372)
(-0.192435 -0.143792 -0.0637164)
(-0.193042 -0.144658 -0.0859808)
(-0.192957 -0.145064 -0.11018)
(-0.192103 -0.145061 -0.136228)
(-0.190219 -0.144367 -0.164089)
(-0.187216 -0.143283 -0.193334)
(-0.182756 -0.141215 -0.223832)
(-0.176522 -0.139163 -0.254358)
(-0.168346 -0.135789 -0.284803)
(-0.197438 -0.118534 -0.00816061)
(-0.199348 -0.120088 -0.0254016)
(-0.200918 -0.121486 -0.0444301)
(-0.202021 -0.12266 -0.0653605)
(-0.202564 -0.12358 -0.0882758)
(-0.202359 -0.124143 -0.113249)
(-0.201329 -0.124379 -0.140262)
(-0.199179 -0.124103 -0.169319)
(-0.195886 -0.123533 -0.200172)
(-0.190987 -0.122313 -0.23277)
(-0.18449 -0.12114 -0.266388)
(-0.175794 -0.119346 -0.301093)
(-0.204576 -0.0969683 -0.00838213)
(-0.206567 -0.0983553 -0.026099)
(-0.208196 -0.0996221 -0.045668)
(-0.209346 -0.100723 -0.0672167)
(-0.209902 -0.101626 -0.0908534)
(-0.209711 -0.10227 -0.116671)
(-0.208639 -0.102661 -0.144711)
(-0.206492 -0.102703 -0.175003)
(-0.203127 -0.102536 -0.20746)
(-0.19832 -0.101975 -0.242034)
(-0.191874 -0.101546 -0.27843)
(-0.183657 -0.100851 -0.316614)
(-0.209069 -0.0749995 -0.00857621)
(-0.211147 -0.0761507 -0.0267101)
(-0.212849 -0.0772132 -0.046752)
(-0.214061 -0.078155 -0.0688409)
(-0.214661 -0.0789491 -0.0931032)
(-0.214502 -0.0795569 -0.119651)
(-0.213445 -0.0799743 -0.148564)
(-0.211313 -0.0801536 -0.179904)
(-0.207976 -0.0801748 -0.213669)
(-0.203229 -0.0799687 -0.249868)
(-0.196973 -0.0798599 -0.288401)
(-0.189064 -0.0797378 -0.329339)
(-0.212166 -0.0533019 -0.00873914)
(-0.214323 -0.0541731 -0.0272226)
(-0.216096 -0.0549853 -0.0476601)
(-0.217377 -0.0557181 -0.0701997)
(-0.218032 -0.0563515 -0.0949809)
(-0.217933 -0.0568635 -0.122131)
(-0.216923 -0.0572488 -0.151757)
(-0.214866 -0.0574859 -0.183944)
(-0.211594 -0.0576278 -0.218751)
(-0.207009 -0.0576487 -0.256225)
(-0.20095 -0.0577834 -0.296404)
(-0.193477 -0.0579817 -0.339416)
(-0.213752 -0.0318048 -0.00884774)
(-0.21597 -0.0323398 -0.0275644)
(-0.217801 -0.0328401 -0.0482658)
(-0.219138 -0.0332941 -0.071106)
(-0.219844 -0.0336891 -0.0962328)
(-0.219797 -0.0340141 -0.123784)
(-0.218834 -0.0342636 -0.153882)
(-0.21684 -0.0344305 -0.186631)
(-0.213641 -0.0345402 -0.222122)
(-0.209178 -0.0345932 -0.260436)
(-0.203306 -0.0347123 -0.301675)
(-0.196157 -0.0349117 -0.346037)
(-0.21455 -0.0105757 -0.00890512)
(-0.216801 -0.0107612 -0.0277449)
(-0.218662 -0.010936 -0.0485853)
(-0.220029 -0.0110964 -0.0715838)
(-0.220762 -0.0112382 -0.096892)
(-0.220745 -0.0113583 -0.124653)
(-0.219809 -0.0114548 -0.154997)
(-0.217853 -0.0115263 -0.188038)
(-0.214693 -0.0115816 -0.223882)
(-0.210303 -0.0116215 -0.262625)
(-0.204525 -0.0116902 -0.304405)
(-0.197553 -0.0117895 -0.349447)
(-0.21455 0.0105757 -0.00890512)
(-0.216801 0.0107612 -0.0277449)
(-0.218662 0.010936 -0.0485853)
(-0.220029 0.0110963 -0.0715838)
(-0.220762 0.0112382 -0.096892)
(-0.220745 0.0113582 -0.124653)
(-0.219809 0.0114548 -0.154997)
(-0.217853 0.0115262 -0.188038)
(-0.214693 0.0115816 -0.223882)
(-0.210303 0.0116214 -0.262625)
(-0.204525 0.0116902 -0.304405)
(-0.197553 0.0117895 -0.349447)
(-0.213752 0.0318048 -0.00884775)
(-0.21597 0.0323398 -0.0275644)
(-0.217801 0.0328401 -0.0482658)
(-0.219138 0.033294 -0.071106)
(-0.219844 0.0336891 -0.0962328)
(-0.219797 0.0340141 -0.123784)
(-0.218834 0.0342636 -0.153882)
(-0.21684 0.0344305 -0.186631)
(-0.213641 0.0345401 -0.222122)
(-0.209178 0.0345932 -0.260436)
(-0.203306 0.0347122 -0.301676)
(-0.196157 0.0349117 -0.346037)
(-0.212166 0.0533019 -0.00873914)
(-0.214323 0.054173 -0.0272226)
(-0.216096 0.0549853 -0.0476602)
(-0.217377 0.0557181 -0.0701998)
(-0.218032 0.0563515 -0.0949809)
(-0.217933 0.0568635 -0.122131)
(-0.216923 0.0572487 -0.151757)
(-0.214866 0.0574859 -0.183944)
(-0.211594 0.0576278 -0.218751)
(-0.207009 0.0576487 -0.256225)
(-0.20095 0.0577834 -0.296404)
(-0.193477 0.0579817 -0.339416)
(-0.209069 0.0749994 -0.00857622)
(-0.211147 0.0761506 -0.0267101)
(-0.212849 0.0772132 -0.046752)
(-0.214061 0.0781549 -0.068841)
(-0.214661 0.078949 -0.0931033)
(-0.214501 0.0795569 -0.119651)
(-0.213445 0.0799743 -0.148564)
(-0.211313 0.0801536 -0.179904)
(-0.207975 0.0801748 -0.213669)
(-0.203229 0.0799687 -0.249869)
(-0.196973 0.0798598 -0.288401)
(-0.189064 0.0797378 -0.329339)
(-0.204575 0.0969683 -0.00838213)
(-0.206567 0.0983553 -0.026099)
(-0.208196 0.0996221 -0.0456681)
(-0.209346 0.100723 -0.0672168)
(-0.209902 0.101626 -0.0908535)
(-0.209711 0.10227 -0.116671)
(-0.208639 0.102661 -0.144712)
(-0.206492 0.102703 -0.175003)
(-0.203127 0.102536 -0.20746)
(-0.19832 0.101975 -0.242034)
(-0.191874 0.101546 -0.27843)
(-0.183657 0.100851 -0.316614)
(-0.197438 0.118534 -0.00816061)
(-0.199348 0.120088 -0.0254016)
(-0.200918 0.121486 -0.0444301)
(-0.202021 0.12266 -0.0653605)
(-0.202564 0.12358 -0.0882759)
(-0.202358 0.124143 -0.113249)
(-0.201329 0.124379 -0.140262)
(-0.199179 0.124103 -0.169319)
(-0.195886 0.123533 -0.200172)
(-0.190987 0.122313 -0.23277)
(-0.184489 0.121139 -0.266388)
(-0.175794 0.119346 -0.301093)
(-0.187906 0.139493 -0.00796571)
(-0.189765 0.14115 -0.0247872)
(-0.191316 0.142613 -0.0433372)
(-0.192435 0.143792 -0.0637164)
(-0.193042 0.144658 -0.0859809)
(-0.192957 0.145064 -0.11018)
(-0.192103 0.145061 -0.136228)
(-0.190219 0.144367 -0.164089)
(-0.187215 0.143283 -0.193334)
(-0.182756 0.141215 -0.223832)
(-0.176522 0.139163 -0.254358)
(-0.168346 0.135789 -0.284804)
(-0.174936 0.158607 -0.00783726)
(-0.176731 0.160349 -0.0243819)
(-0.178265 0.161871 -0.0426133)
(-0.179394 0.163038 -0.0626257)
(-0.180094 0.163855 -0.0844436)
(-0.180127 0.164082 -0.108116)
(-0.179546 0.163856 -0.133458)
(-0.177918 0.162684 -0.160464)
(-0.175468 0.16109 -0.188374)
(-0.171368 0.157966 -0.217191)
(-0.166043 0.154879 -0.244524)
(-0.157692 0.149132 -0.270453)
(-0.143019 -0.12967 -0.00293953)
(-0.144699 -0.131287 -0.00917398)
(-0.146393 -0.13293 -0.01609)
(-0.148044 -0.134547 -0.0237467)
(-0.149628 -0.13613 -0.0321898)
(-0.151035 -0.137575 -0.0414704)
(-0.152243 -0.138915 -0.0515824)
(-0.153037 -0.139918 -0.0625491)
(-0.153398 -0.140764 -0.0741997)
(-0.152908 -0.140946 -0.0864849)
(-0.151413 -0.141091 -0.0987293)
(-0.147919 -0.14011 -0.110617)
(-0.153541 -0.113996 -0.00303032)
(-0.155274 -0.115539 -0.00945974)
(-0.157003 -0.11711 -0.0165977)
(-0.15868 -0.11868 -0.0245091)
(-0.160247 -0.120227 -0.0332527)
(-0.161623 -0.121698 -0.0428891)
(-0.162709 -0.123083 -0.0534479)
(-0.163375 -0.124282 -0.0649696)
(-0.163426 -0.125361 -0.0773929)
(-0.162687 -0.126144 -0.0907164)
(-0.160664 -0.126972 -0.104652)
(-0.157255 -0.127638 -0.119172)
(-0.161574 -0.0970284 -0.00317324)
(-0.163357 -0.098487 -0.00990922)
(-0.165128 -0.099985 -0.0173944)
(-0.166834 -0.101502 -0.0257024)
(-0.168419 -0.103023 -0.0349055)
(-0.169785 -0.104512 -0.0450805)
(-0.170849 -0.105968 -0.0562865)
(-0.171437 -0.107332 -0.068597)
(-0.171432 -0.108664 -0.0820212)
(-0.170535 -0.109891 -0.0966323)
(-0.168566 -0.111255 -0.112321)
(-0.165077 -0.112798 -0.129231)
(-0.167742 -0.0795381 -0.00333539)
(-0.169607 -0.0808485 -0.0104189)
(-0.171461 -0.0822042 -0.0182965)
(-0.173256 -0.0835932 -0.0270503)
(-0.174927 -0.085004 -0.0367655)
(-0.176393 -0.0864186 -0.0475323)
(-0.17755 -0.0878337 -0.0594372)
(-0.178274 -0.0892264 -0.0725745)
(-0.178398 -0.0906424 -0.087017)
(-0.177755 -0.0920614 -0.102866)
(-0.176085 -0.0936995 -0.120164)
(-0.173208 -0.0955839 -0.139071)
(-0.171984 -0.0617253 -0.00348388)
(-0.173942 -0.062825 -0.0108856)
(-0.175893 -0.0639689 -0.0191221)
(-0.177791 -0.06515 -0.0282827)
(-0.179571 -0.0663604 -0.0384625)
(-0.181156 -0.0675904 -0.0497636)
(-0.182445 -0.0688379 -0.0622911)
(-0.183319 -0.0700956 -0.0761585)
(-0.183637 -0.0713942 -0.091477)
(-0.183225 -0.0727445 -0.10838)
(-0.181914 -0.07429 -0.12699)
(-0.179496 -0.0761137 -0.147517)
(-0.175044 -0.0439986 -0.00360743)
(-0.17709 -0.0448334 -0.0112738)
(-0.179135 -0.0457058 -0.0198085)
(-0.181136 -0.0466122 -0.0293065)
(-0.183027 -0.0475477 -0.0398706)
(-0.184739 -0.0485081 -0.0516115)
(-0.186168 -0.0494931 -0.0646486)
(-0.187215 -0.0505021 -0.0791087)
(-0.187726 -0.0515609 -0.0951318)
(-0.187586 -0.0526814 -0.11287)
(-0.186597 -0.0539832 -0.13251)
(-0.184666 -0.0555133 -0.154283)
(-0.176788 -0.0263198 -0.00369269)
(-0.178902 -0.0268361 -0.0115417)
(-0.181021 -0.0273767 -0.0202823)
(-0.183103 -0.0279397 -0.030013)
(-0.185082 -0.0285224 -0.0408419)
(-0.186893 -0.0291232 -0.0528855)
(-0.188431 -0.0297415 -0.0662722)
(-0.189608 -0.0303794 -0.0811381)
(-0.190272 -0.0310504 -0.0976403)
(-0.190325 -0.0317679 -0.115946)
(-0.189585 -0.0325975 -0.136277)
(-0.187995 -0.0335846 -0.158886)
(-0.177678 -0.00876313 -0.00373703)
(-0.179829 -0.00894158 -0.0116811)
(-0.181987 -0.00912888 -0.0205285)
(-0.184113 -0.00932464 -0.0303801)
(-0.186138 -0.00952802 -0.0413464)
(-0.188003 -0.00973873 -0.0535468)
(-0.189599 -0.00995687 -0.0671143)
(-0.190847 -0.0101834 -0.0821895)
(-0.191592 -0.0104236 -0.0989382)
(-0.191752 -0.0106817 -0.117534)
(-0.191139 -0.0109829 -0.138218)
(-0.189732 -0.0113389 -0.161252)
(-0.177678 0.00876312 -0.00373703)
(-0.179829 0.00894157 -0.0116811)
(-0.181987 0.00912888 -0.0205285)
(-0.184113 0.00932463 -0.0303801)
(-0.186138 0.009528 -0.0413464)
(-0.188003 0.00973871 -0.0535468)
(-0.189599 0.00995684 -0.0671143)
(-0.190847 0.0101833 -0.0821895)
(-0.191592 0.0104236 -0.0989382)
(-0.191752 0.0106817 -0.117534)
(-0.191139 0.0109829 -0.138218)
(-0.189732 0.0113389 -0.161252)
(-0.176788 0.0263198 -0.00369269)
(-0.178902 0.0268361 -0.0115417)
(-0.181021 0.0273767 -0.0202823)
(-0.183103 0.0279397 -0.030013)
(-0.185082 0.0285224 -0.0408419)
(-0.186893 0.0291232 -0.0528855)
(-0.188431 0.0297415 -0.0662722)
(-0.189608 0.0303794 -0.0811381)
(-0.190272 0.0310503 -0.0976404)
(-0.190325 0.0317678 -0.115946)
(-0.189585 0.0325974 -0.136277)
(-0.187995 0.0335845 -0.158886)
(-0.175044 0.0439986 -0.00360743)
(-0.17709 0.0448334 -0.0112738)
(-0.179135 0.0457058 -0.0198085)
(-0.181136 0.0466122 -0.0293065)
(-0.183027 0.0475477 -0.0398706)
(-0.184739 0.0485081 -0.0516115)
(-0.186168 0.0494931 -0.0646486)
(-0.187215 0.0505021 -0.0791087)
(-0.187726 0.0515609 -0.0951318)
(-0.187586 0.0526814 -0.11287)
(-0.186597 0.0539832 -0.13251)
(-0.184666 0.0555133 -0.154283)
(-0.171984 0.0617253 -0.00348388)
(-0.173942 0.062825 -0.0108856)
(-0.175893 0.0639689 -0.0191221)
(-0.177791 0.06515 -0.0282827)
(-0.179571 0.0663604 -0.0384626)
(-0.181156 0.0675904 -0.0497636)
(-0.182445 0.0688379 -0.0622911)
(-0.183319 0.0700956 -0.0761586)
(-0.183637 0.0713941 -0.091477)
(-0.183225 0.0727445 -0.10838)
(-0.181914 0.07429 -0.12699)
(-0.179496 0.0761136 -0.147517)
(-0.167741 0.0795381 -0.0033354)
(-0.169607 0.0808485 -0.0104189)
(-0.171461 0.0822041 -0.0182966)
(-0.173256 0.0835932 -0.0270504)
(-0.174927 0.085004 -0.0367655)
(-0.176393 0.0864185 -0.0475323)
(-0.17755 0.0878337 -0.0594373)
(-0.178273 0.0892264 -0.0725746)
(-0.178398 0.0906424 -0.087017)
(-0.177755 0.0920613 -0.102866)
(-0.176085 0.0936994 -0.120164)
(-0.173208 0.0955838 -0.139071)
(-0.161574 0.0970284 -0.00317324)
(-0.163357 0.0984869 -0.00990923)
(-0.165128 0.099985 -0.0173944)
(-0.166834 0.101502 -0.0257024)
(-0.168419 0.103023 -0.0349055)
(-0.169785 0.104512 -0.0450805)
(-0.170849 0.105968 -0.0562866)
(-0.171437 0.107332 -0.0685971)
(-0.171432 0.108664 -0.0820213)
(-0.170535 0.109891 -0.0966324)
(-0.168566 0.111255 -0.112321)
(-0.165077 0.112798 -0.129231)
(-0.153541 0.113996 -0.00303032)
(-0.155274 0.115539 -0.00945974)
(-0.157003 0.11711 -0.0165977)
(-0.158679 0.11868 -0.0245091)
(-0.160247 0.120227 -0.0332527)
(-0.161623 0.121698 -0.0428891)
(-0.162709 0.123083 -0.053448)
(-0.163375 0.124282 -0.0649696)
(-0.163425 0.125361 -0.077393)
(-0.162687 0.126144 -0.0907165)
(-0.160664 0.126972 -0.104652)
(-0.157255 0.127638 -0.119173)
(-0.143019 0.129669 -0.00293953)
(-0.144699 0.131287 -0.00917398)
(-0.146393 0.13293 -0.01609)
(-0.148044 0.134546 -0.0237467)
(-0.149628 0.13613 -0.0321898)
(-0.151035 0.137575 -0.0414704)
(-0.152243 0.138915 -0.0515824)
(-0.153037 0.139918 -0.0625491)
(-0.153398 0.140764 -0.0741998)
(-0.152908 0.140946 -0.086485)
(-0.151413 0.141091 -0.0987293)
(-0.147918 0.14011 -0.110617)
(-0.0675007 -0.0612105 -0.00205382)
(-0.0683031 -0.0620042 -0.00640479)
(-0.0691339 -0.062832 -0.0112282)
(-0.0699787 -0.0636817 -0.0165666)
(-0.0708255 -0.0645486 -0.0224576)
(-0.0716453 -0.0654059 -0.0289386)
(-0.0724153 -0.0662534 -0.0360212)
(-0.0730774 -0.067032 -0.0437182)
(-0.0735827 -0.0677681 -0.0519491)
(-0.073809 -0.0683339 -0.0606447)
(-0.0736003 -0.0688614 -0.0694222)
(-0.0725995 -0.0690974 -0.0778913)
(-0.0724087 -0.0537869 -0.00211488)
(-0.0732199 -0.0545681 -0.00659709)
(-0.0740515 -0.0553856 -0.0115701)
(-0.0748917 -0.0562349 -0.0170808)
(-0.0757172 -0.0571074 -0.0231754)
(-0.076506 -0.0579944 -0.0298997)
(-0.0772113 -0.0588839 -0.0372884)
(-0.0777953 -0.0597629 -0.0453718)
(-0.0781617 -0.0606254 -0.0541411)
(-0.0782483 -0.061463 -0.0635803)
(-0.0778347 -0.0623216 -0.0735661)
(-0.0768296 -0.0632751 -0.0839932)
(-0.0761356 -0.045758 -0.00221349)
(-0.0769631 -0.046517 -0.00690731)
(-0.0778092 -0.0473178 -0.0121201)
(-0.0786583 -0.0481577 -0.0179055)
(-0.07949 -0.0490333 -0.0243188)
(-0.0802725 -0.0499391 -0.0314188)
(-0.0809718 -0.0508728 -0.0392599)
(-0.0815246 -0.0518279 -0.0479009)
(-0.0818794 -0.0528129 -0.0573785)
(-0.0819119 -0.0538345 -0.0677464)
(-0.0815497 -0.0549392 -0.0789942)
(-0.0805647 -0.0562196 -0.0911924)
(-0.0789679 -0.0374841 -0.00232593)
(-0.0798364 -0.0381814 -0.0072608)
(-0.0807255 -0.0389217 -0.012746)
(-0.0816216 -0.039705 -0.0188413)
(-0.0825022 -0.0405297 -0.0256111)
(-0.0833419 -0.0413951 -0.0331247)
(-0.0841006 -0.0423015 -0.041455)
(-0.0847343 -0.0432498 -0.0506797)
(-0.0851764 -0.0442536 -0.0608766)
(-0.0853546 -0.0453217 -0.072133)
(-0.0851693 -0.0465178 -0.0845325)
(-0.0845092 -0.0478793 -0.0981989)
(-0.0809043 -0.0290735 -0.00242987)
(-0.0818239 -0.0296686 -0.00758751)
(-0.0827684 -0.0303035 -0.0133241)
(-0.0837243 -0.0309787 -0.0197046)
(-0.0846707 -0.0316943 -0.0268006)
(-0.0855827 -0.032451 -0.0346904)
(-0.0864247 -0.0332507 -0.0434597)
(-0.0871525 -0.0340964 -0.0532024)
(-0.0877134 -0.0350004 -0.0640215)
(-0.0880327 -0.035974 -0.0760348)
(-0.0880459 -0.0370663 -0.089376)
(-0.087638 -0.0383136 -0.104227)
(-0.0822821 -0.0207113 -0.00251697)
(-0.0832528 -0.021168 -0.0078612)
(-0.084253 -0.0216569 -0.0138081)
(-0.0852707 -0.022179 -0.0204267)
(-0.086285 -0.022735 -0.0277941)
(-0.0872746 -0.0233264 -0.0359951)
(-0.0882027 -0.0239557 -0.0451255)
(-0.089035 -0.0246261 -0.0552901)
(-0.0897134 -0.02535 -0.0666112)
(-0.0901881 -0.0261339 -0.079225)
(-0.0903802 -0.0270256 -0.0933061)
(-0.0902289 -0.0280379 -0.109065)
(-0.083057 -0.012384 -0.00257722)
(-0.0840684 -0.012669 -0.00805056)
(-0.085113 -0.0129744 -0.0141429)
(-0.0861797 -0.0133013 -0.0209262)
(-0.0872478 -0.0136499 -0.028481)
(-0.088298 -0.0140217 -0.0368967)
(-0.0892937 -0.0144183 -0.0462753)
(-0.0902049 -0.0148421 -0.056729)
(-0.0909744 -0.0153004 -0.0683919)
(-0.091561 -0.0157991 -0.0814133)
(-0.09189 -0.0163654 -0.0959911)
(-0.0919193 -0.0170128 -0.112359)
(-0.0834485 -0.00412206 -0.00260873)
(-0.0844818 -0.00422056 -0.00814954)
(-0.0855503 -0.00432632 -0.0143179)
(-0.0866436 -0.0044397 -0.0211871)
(-0.0877408 -0.00456093 -0.0288396)
(-0.088824 -0.00469055 -0.037367)
(-0.0898561 -0.00482923 -0.0468745)
(-0.0908105 -0.00497791 -0.0574778)
(-0.0916284 -0.00513948 -0.0693173)
(-0.0922763 -0.00531554 -0.0825479)
(-0.0926763 -0.00551711 -0.0973802)
(-0.0928028 -0.00574666 -0.114058)
(-0.0834485 0.00412205 -0.00260873)
(-0.0844819 0.00422056 -0.00814954)
(-0.0855503 0.00432631 -0.0143179)
(-0.0866436 0.00443969 -0.0211871)
(-0.0877408 0.00456092 -0.0288396)
(-0.088824 0.00469053 -0.037367)
(-0.0898561 0.00482921 -0.0468745)
(-0.0908105 0.00497789 -0.0574778)
(-0.0916284 0.00513945 -0.0693173)
(-0.0922764 0.00531552 -0.0825479)
(-0.0926764 0.0055171 -0.0973802)
(-0.0928028 0.00574665 -0.114058)
(-0.083057 0.012384 -0.00257723)
(-0.0840684 0.012669 -0.00805056)
(-0.085113 0.0129744 -0.0141429)
(-0.0861797 0.0133012 -0.0209262)
(-0.0872478 0.0136499 -0.028481)
(-0.088298 0.0140217 -0.0368967)
(-0.0892937 0.0144183 -0.0462753)
(-0.0902049 0.0148421 -0.056729)
(-0.0909744 0.0153004 -0.068392)
(-0.091561 0.015799 -0.0814133)
(-0.09189 0.0163654 -0.0959911)
(-0.0919193 0.0170128 -0.112359)
(-0.0822821 0.0207113 -0.00251697)
(-0.0832528 0.021168 -0.00786121)
(-0.084253 0.0216569 -0.0138081)
(-0.0852707 0.022179 -0.0204267)
(-0.086285 0.022735 -0.0277941)
(-0.0872746 0.0233264 -0.0359952)
(-0.0882027 0.0239557 -0.0451255)
(-0.089035 0.0246261 -0.0552901)
(-0.0897134 0.02535 -0.0666112)
(-0.0901881 0.0261339 -0.0792251)
(-0.0903802 0.0270256 -0.0933061)
(-0.0902289 0.0280379 -0.109065)
(-0.0809043 0.0290735 -0.00242987)
(-0.0818239 0.0296686 -0.00758752)
(-0.0827684 0.0303035 -0.0133241)
(-0.0837243 0.0309787 -0.0197047)
(-0.0846707 0.0316943 -0.0268006)
(-0.0855827 0.032451 -0.0346904)
(-0.0864247 0.0332507 -0.0434597)
(-0.0871525 0.0340963 -0.0532025)
(-0.0877134 0.0350004 -0.0640215)
(-0.0880327 0.035974 -0.0760349)
(-0.0880459 0.0370662 -0.0893761)
(-0.087638 0.0383136 -0.104227)
(-0.0789679 0.0374841 -0.00232594)
(-0.0798364 0.0381814 -0.00726081)
(-0.0807256 0.0389217 -0.0127461)
(-0.0816216 0.039705 -0.0188413)
(-0.0825022 0.0405297 -0.0256111)
(-0.0833419 0.0413951 -0.0331248)
(-0.0841006 0.0423015 -0.0414551)
(-0.0847343 0.0432498 -0.0506798)
(-0.0851764 0.0442536 -0.0608766)
(-0.0853546 0.0453217 -0.0721331)
(-0.0851693 0.0465178 -0.0845325)
(-0.0845092 0.0478793 -0.098199)
(-0.0761356 0.045758 -0.00221349)
(-0.0769631 0.0465169 -0.00690731)
(-0.0778092 0.0473178 -0.0121202)
(-0.0786583 0.0481577 -0.0179055)
(-0.07949 0.0490333 -0.0243189)
(-0.0802725 0.0499391 -0.0314189)
(-0.0809718 0.0508727 -0.03926)
(-0.0815246 0.0518279 -0.047901)
(-0.0818794 0.0528129 -0.0573786)
(-0.0819119 0.0538344 -0.0677465)
(-0.0815497 0.0549392 -0.0789943)
(-0.0805647 0.0562196 -0.0911925)
(-0.0724087 0.0537869 -0.00211489)
(-0.0732199 0.0545681 -0.0065971)
(-0.0740515 0.0553856 -0.0115701)
(-0.0748917 0.0562349 -0.0170808)
(-0.0757172 0.0571074 -0.0231755)
(-0.076506 0.0579944 -0.0298998)
(-0.0772113 0.0588839 -0.0372885)
(-0.0777953 0.0597629 -0.0453719)
(-0.0781618 0.0606254 -0.0541412)
(-0.0782483 0.061463 -0.0635804)
(-0.0778347 0.0623217 -0.0735662)
(-0.0768296 0.0632751 -0.0839933)
(-0.0675007 0.0612105 -0.00205382)
(-0.0683031 0.0620042 -0.00640479)
(-0.0691339 0.062832 -0.0112282)
(-0.0699787 0.0636817 -0.0165666)
(-0.0708255 0.0645485 -0.0224576)
(-0.0716453 0.0654059 -0.0289386)
(-0.0724153 0.0662533 -0.0360212)
(-0.0730774 0.067032 -0.0437182)
(-0.0735827 0.0677681 -0.0519492)
(-0.0738091 0.0683339 -0.0606448)
(-0.0736003 0.0688614 -0.0694223)
(-0.0725995 0.0690974 -0.0778915)
(-0.0510586 -0.0462973 -0.00103461)
(-0.0516734 -0.0468977 -0.00322822)
(-0.052314 -0.047527 -0.00566262)
(-0.0529737 -0.0481799 -0.00836036)
(-0.0536422 -0.0488511 -0.0113428)
(-0.0543051 -0.0495284 -0.0146302)
(-0.0549406 -0.0502052 -0.0182346)
(-0.0555194 -0.0508545 -0.0221625)
(-0.0559913 -0.0514786 -0.0263897)
(-0.0562893 -0.0520176 -0.0308727)
(-0.0562637 -0.0525313 -0.0354622)
(-0.0556718 -0.0529048 -0.0399207)
(-0.0548009 -0.040701 -0.001072)
(-0.0554257 -0.0412867 -0.00334589)
(-0.0560712 -0.0419023 -0.00587152)
(-0.0567314 -0.042547 -0.00867408)
(-0.0573891 -0.0432137 -0.0117794)
(-0.0580331 -0.0439012 -0.0152131)
(-0.0586258 -0.0445972 -0.0189986)
(-0.0591494 -0.0453045 -0.0231547)
(-0.0595222 -0.0460065 -0.0276908)
(-0.0597154 -0.0467274 -0.0326028)
(-0.0595388 -0.0474719 -0.037862)
(-0.0589432 -0.0483663 -0.0434201)
(-0.0577313 -0.0346883 -0.00113287)
(-0.0583711 -0.035253 -0.00353726)
(-0.0590307 -0.0358511 -0.00621049)
(-0.0597012 -0.0364823 -0.00918151)
(-0.0603677 -0.0371439 -0.0124813)
(-0.0610117 -0.0378361 -0.0161428)
(-0.0616053 -0.0385547 -0.0201997)
(-0.0621121 -0.0393053 -0.0246873)
(-0.062483 -0.0400852 -0.0296375)
(-0.0626453 -0.0409254 -0.0350865)
(-0.0625189 -0.0418367 -0.0410585)
(-0.0619599 -0.0429534 -0.0476051)
(-0.0599949 -0.0284689 -0.00120236)
(-0.0606667 -0.0289849 -0.00375557)
(-0.06136 -0.0295344 -0.00659667)
(-0.0620669 -0.0301187 -0.00975818)
(-0.0627718 -0.0307367 -0.0132759)
(-0.0634595 -0.0313907 -0.0171892)
(-0.0640997 -0.0320798 -0.0215409)
(-0.064667 -0.0328117 -0.0263778)
(-0.0651067 -0.0335907 -0.031751)
(-0.0653771 -0.0344426 -0.0377182)
(-0.0653902 -0.0353968 -0.0443446)
(-0.0650767 -0.0365326 -0.0517178)
(-0.0616387 -0.022142 -0.00126739)
(-0.0623491 -0.0225815 -0.00395986)
(-0.0630842 -0.0230517 -0.0069578)
(-0.0638364 -0.0235539 -0.0102968)
(-0.0645912 -0.0240884 -0.0140167)
(-0.0653333 -0.0246576 -0.0181617)
(-0.0660369 -0.0252627 -0.0227816)
(-0.066675 -0.0259103 -0.0279323)
(-0.067205 -0.0266068 -0.0336772)
(-0.0675822 -0.0273728 -0.040091)
(-0.0677466 -0.0282339 -0.0472618)
(-0.0676272 -0.0292511 -0.0553081)
(-0.0628304 -0.0158082 -0.00132187)
(-0.0635793 -0.0161444 -0.00413096)
(-0.0643566 -0.0165051 -0.00726011)
(-0.0651552 -0.0168917 -0.0107473)
(-0.0659612 -0.0173051 -0.0146354)
(-0.0667613 -0.0177472 -0.0189725)
(-0.0675299 -0.0182202 -0.0238136)
(-0.0682455 -0.0187291 -0.0292205)
(-0.0688644 -0.0192811 -0.0352664)
(-0.0693562 -0.0198893 -0.0420361)
(-0.0696563 -0.0205813 -0.0496367)
(-0.0697269 -0.0213898 -0.0582026)
(-0.0635511 -0.00947133 -0.00135993)
(-0.0643305 -0.00968125 -0.00425049)
(-0.0651409 -0.00990681 -0.00747129)
(-0.065976 -0.010149 -0.011062)
(-0.0668221 -0.0104083 -0.0150674)
(-0.0676671 -0.0106863 -0.0195382)
(-0.068486 -0.0109844 -0.0245326)
(-0.0692596 -0.0113058 -0.0301168)
(-0.0699462 -0.0116551 -0.0363698)
(-0.0705197 -0.0120407 -0.0433831)
(-0.0709207 -0.0124792 -0.0512755)
(-0.0711224 -0.0129923 -0.0601926)
(-0.0639142 -0.0031555 -0.00137977)
(-0.0647101 -0.00322774 -0.0043128)
(-0.0655385 -0.00330546 -0.00758136)
(-0.0663934 -0.00338903 -0.0112259)
(-0.0672613 -0.0034787 -0.0152924)
(-0.0681308 -0.00357503 -0.0198326)
(-0.0689769 -0.00367856 -0.0249066)
(-0.0697823 -0.00379042 -0.0305824)
(-0.070505 -0.00391251 -0.0369423)
(-0.0711233 -0.00404735 -0.0440808)
(-0.0715769 -0.00420174 -0.0521228)
(-0.0718491 -0.00438159 -0.061219)
(-0.0639142 0.0031555 -0.00137977)
(-0.0647101 0.00322774 -0.0043128)
(-0.0655385 0.00330546 -0.00758136)
(-0.0663934 0.00338903 -0.0112259)
(-0.0672613 0.0034787 -0.0152924)
(-0.0681308 0.00357502 -0.0198326)
(-0.0689769 0.00367855 -0.0249066)
(-0.0697823 0.00379041 -0.0305824)
(-0.070505 0.0039125 -0.0369423)
(-0.0711233 0.00404733 -0.0440808)
(-0.0715769 0.00420172 -0.0521228)
(-0.0718491 0.00438156 -0.061219)
(-0.0635511 0.00947134 -0.00135993)
(-0.0643305 0.00968125 -0.00425049)
(-0.0651409 0.00990681 -0.00747129)
(-0.065976 0.010149 -0.011062)
(-0.0668221 0.0104083 -0.0150674)