/*--------------------------------*- C++ -*----------------------------------*\
| =========                 |                                                 |
| \\      /  F ield         | foam-extend: Open Source CFD                    |
|  \\    /   O peration     | Version:  3.0                                   |
|   \\  /    A nd           | Web:         http://www.extend-project.de       |
|    \\/     M anipulation  |                                                 |
\*---------------------------------------------------------------------------*/
FoamFile
{
    version     2.0;
    format      ascii;
    class       volScalarField;
    location    "22";
    object      p;
}
// * * * * * * * * * * * * * * * * * * * * * * * * * * * * * * * * * * * * * //

dimensions      [0 0 0 0 0 0 0];

internalField   nonuniform List<scalar> 
1920
(
-0.235295
-0.212419
-0.200122
-0.185584
-0.17852
-0.168928
-0.164966
-0.158544
-0.1565
-0.15218
-0.151294
-0.148346
-0.148055
-0.145909
-0.145727
-0.143872
-0.143316
-0.141229
-0.139763
-0.13685
-0.234296
-0.211516
-0.199272
-0.184795
-0.177761
-0.168209
-0.164264
-0.157869
-0.155834
-0.151531
-0.150649
-0.147714
-0.147424
-0.145287
-0.145106
-0.143258
-0.142705
-0.140626
-0.139166
-0.136266
-0.232276
-0.209694
-0.197555
-0.183204
-0.17623
-0.16676
-0.16285
-0.15651
-0.154492
-0.150227
-0.149353
-0.146443
-0.146156
-0.144038
-0.143858
-0.142027
-0.141478
-0.139417
-0.13797
-0.135095
-0.229279
-0.206988
-0.195005
-0.180839
-0.173955
-0.164607
-0.160747
-0.154489
-0.152497
-0.148287
-0.147424
-0.144551
-0.144267
-0.142177
-0.141999
-0.140191
-0.139649
-0.137615
-0.136186
-0.133348
-0.225284
-0.203381
-0.191607
-0.177688
-0.170924
-0.16174
-0.157947
-0.151798
-0.149841
-0.145705
-0.144857
-0.142034
-0.141756
-0.139701
-0.139527
-0.137751
-0.137219
-0.13522
-0.133816
-0.131027
-0.22034
-0.198918
-0.187402
-0.173788
-0.167172
-0.15819
-0.154479
-0.148465
-0.146551
-0.142505
-0.141676
-0.138915
-0.138643
-0.136633
-0.136462
-0.134725
-0.134205
-0.13225
-0.130877
-0.128149
-0.214436
-0.193588
-0.182381
-0.169132
-0.162694
-0.153952
-0.150342
-0.144489
-0.142626
-0.138689
-0.137882
-0.135195
-0.13493
-0.132975
-0.132809
-0.131118
-0.130611
-0.128709
-0.127373
-0.124718
-0.20763
-0.187444
-0.176593
-0.163764
-0.15753
-0.149065
-0.145569
-0.139902
-0.138098
-0.134286
-0.133504
-0.130902
-0.130645
-0.128752
-0.128591
-0.126954
-0.126463
-0.124621
-0.123327
-0.120757
-0.199919
-0.180483
-0.170035
-0.157683
-0.15168
-0.14353
-0.140164
-0.134707
-0.132971
-0.1293
-0.128548
-0.126043
-0.125796
-0.123973
-0.123818
-0.122242
-0.12177
-0.119996
-0.11875
-0.116275
-0.191369
-0.172763
-0.162762
-0.150938
-0.145192
-0.13739
-0.134168
-0.128944
-0.127282
-0.123768
-0.123048
-0.12065
-0.120413
-0.118668
-0.11852
-0.117011
-0.116559
-0.114861
-0.113668
-0.111299
-0.181982
-0.164289
-0.154779
-0.143535
-0.138071
-0.130652
-0.127588
-0.122621
-0.12104
-0.117699
-0.117014
-0.114734
-0.114509
-0.11285
-0.112709
-0.111274
-0.110844
-0.109229
-0.108096
-0.105843
-0.171832
-0.155126
-0.146146
-0.135529
-0.130369
-0.123364
-0.120471
-0.115781
-0.114288
-0.111133
-0.110486
-0.108333
-0.10812
-0.106553
-0.10642
-0.105065
-0.104659
-0.103135
-0.102064
-0.099937
-0.160931
-0.145285
-0.136874
-0.126931
-0.122099
-0.115539
-0.112829
-0.108437
-0.107039
-0.104084
-0.103478
-0.101462
-0.101263
-0.0997955
-0.0996709
-0.0984021
-0.098022
-0.0965942
-0.0955915
-0.0935994
-0.149356
-0.134835
-0.12703
-0.117801
-0.113317
-0.107228
-0.104713
-0.100636
-0.0993387
-0.0965963
-0.0960339
-0.0941625
-0.0939777
-0.0926156
-0.0924999
-0.0913222
-0.0909693
-0.0896442
-0.0887135
-0.0868647
-0.137126
-0.123794
-0.116628
-0.108155
-0.104038
-0.0984483
-0.0961394
-0.0923967
-0.0912057
-0.088688
-0.0881719
-0.0864539
-0.0862843
-0.0850339
-0.0849278
-0.0838467
-0.0835228
-0.0823062
-0.0814518
-0.0797544
-0.124325
-0.112237
-0.10574
-0.0980581
-0.0943251
-0.0892567
-0.0871632
-0.0837697
-0.0826897
-0.0804069
-0.0799388
-0.078381
-0.0782271
-0.0770933
-0.0769969
-0.0760167
-0.0757229
-0.0746198
-0.0738451
-0.0723062
-0.110975
-0.100185
-0.0943858
-0.0875293
-0.0841974
-0.0796734
-0.0778049
-0.074776
-0.0738121
-0.0717745
-0.0713569
-0.0699665
-0.0698293
-0.0688173
-0.0687315
-0.0678565
-0.0675944
-0.0666098
-0.0659184
-0.0645447
-0.0971659
-0.087719
-0.0826408
-0.0766372
-0.0737197
-0.0697584
-0.0681222
-0.06547
-0.0646259
-0.0628418
-0.0624759
-0.0612584
-0.0611381
-0.0602519
-0.0601766
-0.0594105
-0.0591809
-0.0583187
-0.0577133
-0.0565105
-0.0829246
-0.0748625
-0.0705288
-0.0654054
-0.0629157
-0.0595352
-0.058139
-0.0558757
-0.0551555
-0.053633
-0.0533209
-0.052282
-0.0521795
-0.0514233
-0.0513591
-0.0507054
-0.0505095
-0.0497738
-0.0492572
-0.0482307
-0.0683447
-0.0616999
-0.058128
-0.0539051
-0.0518529
-0.0490666
-0.0479157
-0.0460502
-0.0454564
-0.0442014
-0.0439441
-0.0430877
-0.043003
-0.0423797
-0.0423267
-0.0417878
-0.0416263
-0.0410199
-0.040594
-0.039748
-0.0534556
-0.0482586
-0.0454651
-0.0421624
-0.0405575
-0.0383784
-0.0374784
-0.0360194
-0.0355552
-0.0345737
-0.0343726
-0.0337029
-0.0336368
-0.0331494
-0.0331081
-0.0326866
-0.0325604
-0.0320862
-0.0317531
-0.0310915
-0.0383542
-0.0346252
-0.0326206
-0.0302507
-0.029099
-0.0275354
-0.0268894
-0.0258425
-0.0255092
-0.0248049
-0.0246604
-0.0241798
-0.0241322
-0.0237824
-0.0237526
-0.0234501
-0.0233595
-0.0230192
-0.0227802
-0.0223054
-0.023072
-0.020829
-0.0196233
-0.0181979
-0.0175053
-0.0165648
-0.0161764
-0.0155468
-0.0153465
-0.0149229
-0.0148361
-0.0145471
-0.0145186
-0.0143083
-0.0142905
-0.0141086
-0.0140542
-0.0138495
-0.0137058
-0.0134202
-0.00770753
-0.00695807
-0.00655515
-0.00607884
-0.0058473
-0.00553299
-0.00540309
-0.00519262
-0.00512555
-0.00498394
-0.00495482
-0.00485816
-0.00484853
-0.00477817
-0.00477213
-0.00471131
-0.00469305
-0.00462465
-0.00457661
-0.00448123
0.00770652
0.00695709
0.00655421
0.00607792
0.00584642
0.00553215
0.0054023
0.00519186
0.00512485
0.00498327
0.00495419
0.00485756
0.00484796
0.00477763
0.0047716
0.00471078
0.00469252
0.0046241
0.00457603
0.0044806
0.0230709
0.020828
0.0196224
0.018197
0.0175044
0.016564
0.0161756
0.015546
0.0153457
0.0149222
0.0148355
0.0145465
0.0145181
0.0143077
0.0142899
0.0141081
0.0140536
0.013849
0.0137052
0.0134196
0.0383532
0.0346242
0.0326196
0.0302498
0.0290981
0.0275345
0.0268886
0.0258417
0.0255085
0.0248042
0.0246597
0.0241791
0.0241316
0.0237818
0.023752
0.0234496
0.0233589
0.0230186
0.0227796
0.0223048
0.0534546
0.0482576
0.0454641
0.0421615
0.0405566
0.0383775
0.0374775
0.0360186
0.0355544
0.034573
0.0343719
0.0337022
0.0336362
0.0331488
0.0331075
0.0326861
0.0325598
0.0320856
0.0317525
0.0310908
0.0683437
0.0616989
0.058127
0.0539042
0.051852
0.0490657
0.0479149
0.0460494
0.0454556
0.0442007
0.0439433
0.043087
0.0430024
0.0423791
0.0423261
0.0417872
0.0416256
0.0410192
0.0405933
0.0397473
0.0829235
0.0748615
0.0705278
0.0654044
0.0629147
0.0595343
0.0581381
0.0558749
0.0551547
0.0536322
0.0533201
0.0522813
0.0521788
0.0514226
0.0513585
0.0507047
0.0505089
0.0497731
0.0492565
0.04823
0.0971648
0.087718
0.0826398
0.0766362
0.0737187
0.0697575
0.0681213
0.0654692
0.0646251
0.0628409
0.0624751
0.0612576
0.0611374
0.0602512
0.0601759
0.0594097
0.0591801
0.058318
0.0577125
0.0565097
0.110973
0.100184
0.0943848
0.0875282
0.0841963
0.0796724
0.0778039
0.074775
0.0738112
0.0717737
0.071356
0.0699657
0.0698285
0.0688166
0.0687307
0.0678558
0.0675936
0.066609
0.0659176
0.0645439
0.124324
0.112236
0.105739
0.0980571
0.0943241
0.0892557
0.0871622
0.0837688
0.0826888
0.080406
0.0799379
0.0783801
0.0782263
0.0770924
0.0769961
0.0760158
0.075722
0.0746189
0.0738443
0.0723053
0.137125
0.123793
0.116627
0.108154
0.104037
0.0984472
0.0961384
0.0923957
0.0912047
0.088687
0.0881709
0.0864529
0.0862834
0.085033
0.0849269
0.0838457
0.0835218
0.0823052
0.0814508
0.0797534
0.149355
0.134834
0.127028
0.1178
0.113316
0.107227
0.104712
0.100635
0.0993377
0.0965952
0.0960329
0.0941615
0.0939767
0.0926146
0.0924989
0.0913212
0.0909683
0.0896431
0.0887125
0.0868636
0.160929
0.145283
0.136873
0.12693
0.122098
0.115537
0.112828
0.108435
0.107038
0.104083
0.103477
0.101461
0.101262
0.0997944
0.0996699
0.0984011
0.0980209
0.0965931
0.0955904
0.0935983
0.171831
0.155125
0.146145
0.135528
0.130368
0.123363
0.12047
0.11578
0.114287
0.111132
0.110485
0.108332
0.108119
0.106552
0.106419
0.105064
0.104658
0.103134
0.102063
0.0999357
0.181981
0.164288
0.154777
0.143533
0.13807
0.130651
0.127587
0.12262
0.121039
0.117698
0.117013
0.114733
0.114508
0.112848
0.112707
0.111273
0.110843
0.109228
0.108094
0.105842
0.191367
0.172762
0.16276
0.150936
0.14519
0.137389
0.134166
0.128943
0.127281
0.123767
0.123046
0.120649
0.120412
0.118667
0.118518
0.117009
0.116557
0.114859
0.113667
0.111298
0.199918
0.180481
0.170033
0.157681
0.151679
0.143529
0.140163
0.134706
0.13297
0.129299
0.128546
0.126042
0.125794
0.123971
0.123817
0.12224
0.121768
0.119994
0.118749
0.116274
0.207629
0.187442
0.176591
0.163762
0.157528
0.149064
0.145567
0.1399
0.138097
0.134284
0.133502
0.130901
0.130644
0.12875
0.12859
0.126953
0.126462
0.12462
0.123326
0.120756
0.214435
0.193587
0.18238
0.169131
0.162692
0.153951
0.15034
0.144487
0.142625
0.138688
0.13788
0.135194
0.134929
0.132973
0.132807
0.131116
0.13061
0.128707
0.127371
0.124717
0.220338
0.198916
0.187401
0.173787
0.167171
0.158188
0.154478
0.148464
0.14655
0.142504
0.141674
0.138914
0.138641
0.136632
0.136461
0.134723
0.134203
0.132248
0.130875
0.128147
0.225282
0.203379
0.191606
0.177687
0.170922
0.161738
0.157945
0.151796
0.14984
0.145703
0.144855
0.142033
0.141754
0.1397
0.139525
0.137749
0.137217
0.135218
0.133814
0.131026
0.229278
0.206986
0.195004
0.180837
0.173953
0.164606
0.160745
0.154487
0.152495
0.148285
0.147422
0.144549
0.144266
0.142175
0.141997
0.140189
0.139648
0.137613
0.136185
0.133347
0.232275
0.209692
0.197553
0.183202
0.176228
0.166759
0.162848
0.156508
0.154491
0.150226
0.149351
0.146441
0.146154
0.144036
0.143856
0.142025
0.141476
0.139415
0.137968
0.135093
0.234294
0.211515
0.19927
0.184794
0.177759
0.168207
0.164262
0.157867
0.155832
0.15153
0.150648
0.147712
0.147422
0.145285
0.145104
0.143257
0.142703
0.140624
0.139164
0.136264
0.235293
0.212417
0.20012
0.185583
0.178518
0.168926
0.164964
0.158542
0.156498
0.152178
0.151292
0.148344
0.148053
0.145908
0.145725
0.14387
0.143314
0.141227
0.139761
0.136848
0.235301
0.212424
0.200127
0.185588
0.178523
0.168931
0.164968
0.158546
0.156502
0.152181
0.151295
0.148347
0.148056
0.14591
0.145728
0.143873
0.143317
0.141229
0.139763
0.13685
0.234286
0.211508
0.199263
0.184788
0.177753
0.168202
0.164258
0.157863
0.155828
0.151526
0.150644
0.147709
0.147419
0.145283
0.145101
0.143254
0.142701
0.140622
0.139162
0.136262
0.232283
0.209699
0.19756
0.183208
0.176233
0.166763
0.162852
0.156512
0.154494
0.150229
0.149355
0.146444
0.146157
0.144038
0.143858
0.142027
0.141478
0.139417
0.13797
0.135094
0.229269
0.206979
0.194997
0.180831
0.173947
0.164601
0.160741
0.154483
0.152491
0.148282
0.147419
0.144546
0.144263
0.142172
0.141995
0.140187
0.139645
0.137611
0.136183
0.133345
0.22529
0.203386
0.191612
0.177692
0.170928
0.161743
0.15795
0.1518
0.149843
0.145706
0.144858
0.142035
0.141757
0.139702
0.139528
0.137751
0.137219
0.13522
0.133816
0.131027
0.22033
0.198909
0.187394
0.173781
0.167165
0.158183
0.154473
0.148459
0.146546
0.1425
0.141671
0.13891
0.138638
0.136629
0.136458
0.134721
0.1342
0.132246
0.130873
0.128145
0.214443
0.193594
0.182386
0.169136
0.162698
0.153955
0.150344
0.144491
0.142628
0.138691
0.137883
0.135196
0.134931
0.132975
0.132809
0.131118
0.130612
0.128709
0.127373
0.124718
0.207621
0.187435
0.176584
0.163756
0.157523
0.149059
0.145563
0.139896
0.138092
0.13428
0.133499
0.130898
0.130641
0.128748
0.128587
0.12695
0.126459
0.124617
0.123324
0.120754
0.199926
0.180488
0.17004
0.157687
0.151684
0.143533
0.140167
0.13471
0.132973
0.129302
0.128549
0.126044
0.125797
0.123974
0.123819
0.122242
0.12177
0.119996
0.11875
0.116275
0.191359
0.172754
0.162753
0.15093
0.145185
0.137384
0.134162
0.128939
0.127276
0.123763
0.123043
0.120645
0.120408
0.118663
0.118515
0.117007
0.116555
0.114857
0.113665
0.111296
0.181989
0.164295
0.154784
0.143539
0.138075
0.130655
0.127591
0.122623
0.121042
0.117701
0.117016
0.114735
0.11451
0.11285
0.112709
0.111275
0.110845
0.10923
0.108096
0.105843
0.171823
0.155117
0.146138
0.135521
0.130363
0.123358
0.120465
0.115775
0.114283
0.111128
0.110481
0.108328
0.108116
0.106549
0.106416
0.105061
0.104655
0.103131
0.10206
0.0999335
0.160937
0.14529
0.136879
0.126935
0.122103
0.115542
0.112832
0.108439
0.107041
0.104086
0.10348
0.101463
0.101264
0.0997965
0.0996718
0.0984028
0.0980226
0.0965946
0.0955918
0.0935997
0.149346
0.134826
0.127021
0.117794
0.11331
0.107221
0.104707
0.100631
0.0993334
0.0965912
0.0960291
0.094158
0.0939733
0.0926114
0.0924959
0.0913184
0.0909656
0.0896406
0.0887101
0.0868613
0.137133
0.1238
0.116633
0.10816
0.104042
0.0984515
0.0961423
0.0923992
0.091208
0.0886899
0.0881736
0.0864554
0.0862856
0.085035
0.0849287
0.0838475
0.0835234
0.0823067
0.0814522
0.0797547
0.124315
0.112229
0.105732
0.0980508
0.0943183
0.0892504
0.0871573
0.0837642
0.0826844
0.0804019
0.079934
0.0783765
0.0782228
0.0770892
0.076993
0.0760129
0.0757193
0.0746163
0.0738418
0.0723029
0.110981
0.100191
0.0943909
0.0875336
0.0842012
0.0796767
0.0778078
0.0747785
0.0738144
0.0717765
0.0713587
0.0699681
0.0698307
0.0688185
0.0687325
0.0678574
0.0675952
0.0666105
0.065919
0.0645452
0.0971561
0.0877103
0.0826328
0.0766299
0.0737129
0.0697522
0.0681163
0.0654645
0.0646207
0.0628369
0.0624712
0.061254
0.0611339
0.0602479
0.0601728
0.0594068
0.0591773
0.0583154
0.05771
0.0565074
0.0829313
0.0748682
0.0705339
0.0654097
0.0629196
0.0595385
0.058142
0.0558783
0.0551578
0.053635
0.0533227
0.0522836
0.0521809
0.0514246
0.0513603
0.0507064
0.0505104
0.0497746
0.0492578
0.0482312
0.0683349
0.0616912
0.0581199
0.0538978
0.0518461
0.0490604
0.0479098
0.0460447
0.0454512
0.0441966
0.0439394
0.0430833
0.0429989
0.0423758
0.0423229
0.0417842
0.0416228
0.0410166
0.0405908
0.0397449
0.0534624
0.0482644
0.0454701
0.0421667
0.0405614
0.0383817
0.0374814
0.036022
0.0355576
0.0345758
0.0343745
0.0337045
0.0336383
0.0331507
0.0331093
0.0326877
0.0325613
0.032087
0.0317538
0.031092
0.0383444
0.0346165
0.0326126
0.0302435
0.0290923
0.0275291
0.0268836
0.025837
0.025504
0.0248001
0.0246558
0.0241754
0.0241281
0.0237785
0.0237489
0.0234466
0.0233561
0.0230159
0.022777
0.0223024
0.0230788
0.0208347
0.0196284
0.0182023
0.0175092
0.0165682
0.0161795
0.0155494
0.0153489
0.014925
0.014838
0.0145488
0.0145202
0.0143096
0.0142917
0.0141097
0.0140551
0.0138503
0.0137065
0.0134208
0.00769772
0.00694937
0.00654713
0.00607158
0.00584053
0.00552678
0.00539724
0.0051872
0.00512042
0.00497914
0.00495025
0.00485387
0.00484444
0.0047743
0.00476842
0.00470779
0.00468967
0.0046214
0.00457348
0.00447819
-0.00769972
-0.00695135
-0.00654912
-0.00607355
-0.00584251
-0.00552876
-0.00539924
-0.0051892
-0.00512242
-0.00498115
-0.00495226
-0.00485587
-0.00484642
-0.00477627
-0.00477037
-0.0047097
-0.00469155
-0.00462326
-0.00457531
-0.00448
-0.0230808
-0.0208367
-0.0196304
-0.0182043
-0.0175112
-0.0165702
-0.0161815
-0.0155514
-0.0153509
-0.014927
-0.01484
-0.0145508
-0.0145222
-0.0143116
-0.0142937
-0.0141116
-0.014057
-0.0138522
-0.0137084
-0.0134226
-0.0383464
-0.0346184
-0.0326146
-0.0302455
-0.0290942
-0.0275311
-0.0268856
-0.025839
-0.0255061
-0.0248021
-0.0246578
-0.0241775
-0.0241301
-0.0237805
-0.0237508
-0.0234485
-0.023358
-0.0230178
-0.0227789
-0.0223042
-0.0534644
-0.0482663
-0.0454721
-0.0421687
-0.0405634
-0.0383837
-0.0374834
-0.0360241
-0.0355596
-0.0345778
-0.0343765
-0.0337065
-0.0336403
-0.0331527
-0.0331112
-0.0326896
-0.0325632
-0.0320888
-0.0317557
-0.0310939
-0.0683369
-0.0616932
-0.0581219
-0.0538998
-0.0518481
-0.0490624
-0.0479119
-0.0460467
-0.0454533
-0.0441986
-0.0439415
-0.0430853
-0.0430009
-0.0423778
-0.0423249
-0.0417861
-0.0416247
-0.0410184
-0.0405927
-0.0397468
-0.0829333
-0.0748702
-0.0705359
-0.0654117
-0.0629215
-0.0595405
-0.058144
-0.0558803
-0.0551599
-0.053637
-0.0533248
-0.0522856
-0.0521829
-0.0514266
-0.0513623
-0.0507083
-0.0505123
-0.0497765
-0.0492597
-0.0482331
-0.0971581
-0.0877122
-0.0826347
-0.0766319
-0.0737149
-0.0697542
-0.0681183
-0.0654666
-0.0646227
-0.0628389
-0.0624733
-0.061256
-0.0611359
-0.06025
-0.0601748
-0.0594088
-0.0591793
-0.0583173
-0.0577119
-0.0565092
-0.110983
-0.100193
-0.0943928
-0.0875356
-0.0842032
-0.0796787
-0.0778099
-0.0747805
-0.0738164
-0.0717786
-0.0713607
-0.0699701
-0.0698327
-0.0688206
-0.0687345
-0.0678594
-0.0675972
-0.0666125
-0.0659209
-0.0645471
-0.124317
-0.11223
-0.105734
-0.0980528
-0.0943203
-0.0892524
-0.0871593
-0.0837662
-0.0826865
-0.080404
-0.0799361
-0.0783786
-0.0782249
-0.0770913
-0.0769951
-0.0760149
-0.0757213
-0.0746183
-0.0738437
-0.0723049
-0.137134
-0.123802
-0.116635
-0.108162
-0.104044
-0.0984535
-0.0961444
-0.0924013
-0.09121
-0.088692
-0.0881757
-0.0864574
-0.0862877
-0.0850371
-0.0849308
-0.0838495
-0.0835255
-0.0823087
-0.0814542
-0.0797567
-0.149348
-0.134828
-0.127023
-0.117796
-0.113312
-0.107223
-0.104709
-0.100633
-0.0993354
-0.0965933
-0.0960312
-0.0941601
-0.0939754
-0.0926135
-0.0924979
-0.0913204
-0.0909677
-0.0896426
-0.088712
-0.0868633
-0.160939
-0.145292
-0.136881
-0.126937
-0.122105
-0.115544
-0.112834
-0.108441
-0.107043
-0.104088
-0.103482
-0.101465
-0.101266
-0.0997986
-0.0996739
-0.0984049
-0.0980246
-0.0965967
-0.0955939
-0.0936016
-0.171824
-0.155119
-0.14614
-0.135523
-0.130365
-0.12336
-0.120467
-0.115777
-0.114285
-0.11113
-0.110483
-0.10833
-0.108118
-0.106551
-0.106418
-0.105063
-0.104658
-0.103133
-0.102062
-0.0999355
-0.18199
-0.164297
-0.154785
-0.143541
-0.138077
-0.130657
-0.127593
-0.122625
-0.121045
-0.117703
-0.117018
-0.114737
-0.114512
-0.112853
-0.112712
-0.111277
-0.110847
-0.109232
-0.108098
-0.105845
-0.191361
-0.172756
-0.162755
-0.150932
-0.145187
-0.137386
-0.134164
-0.128941
-0.127279
-0.123765
-0.123045
-0.120647
-0.120411
-0.118666
-0.118517
-0.117009
-0.116557
-0.114859
-0.113667
-0.111298
-0.199928
-0.18049
-0.170041
-0.157689
-0.151686
-0.143535
-0.140169
-0.134712
-0.132975
-0.129304
-0.128551
-0.126046
-0.125799
-0.123976
-0.123821
-0.122244
-0.121772
-0.119998
-0.118752
-0.116278
-0.207622
-0.187437
-0.176586
-0.163758
-0.157525
-0.149061
-0.145565
-0.139898
-0.138095
-0.134282
-0.133501
-0.1309
-0.130643
-0.12875
-0.128589
-0.126952
-0.126462
-0.124619
-0.123326
-0.120756
-0.214444
-0.193595
-0.182388
-0.169138
-0.162699
-0.153957
-0.150346
-0.144493
-0.14263
-0.138693
-0.137885
-0.135199
-0.134933
-0.132978
-0.132811
-0.131121
-0.130614
-0.128711
-0.127375
-0.12472
-0.220332
-0.19891
-0.187396
-0.173782
-0.167167
-0.158185
-0.154475
-0.148461
-0.146548
-0.142502
-0.141673
-0.138912
-0.13864
-0.136631
-0.13646
-0.134723
-0.134203
-0.132248
-0.130875
-0.128147
-0.225292
-0.203388
-0.191614
-0.177694
-0.17093
-0.161745
-0.157951
-0.151802
-0.149845
-0.145708
-0.14486
-0.142037
-0.141759
-0.139704
-0.13953
-0.137753
-0.137221
-0.135222
-0.133818
-0.131029
-0.229271
-0.206981
-0.194999
-0.180833
-0.173949
-0.164603
-0.160742
-0.154485
-0.152493
-0.148284
-0.147421
-0.144548
-0.144265
-0.142174
-0.141997
-0.140189
-0.139647
-0.137613
-0.136185
-0.133347
-0.232285
-0.209701
-0.197561
-0.183209
-0.176235
-0.166765
-0.162854
-0.156514
-0.154496
-0.150231
-0.149357
-0.146446
-0.146159
-0.14404
-0.14386
-0.142029
-0.14148
-0.139419
-0.137972
-0.135096
-0.234287
-0.211509
-0.199265
-0.18479
-0.177755
-0.168204
-0.164259
-0.157865
-0.15583
-0.151528
-0.150646
-0.147711
-0.147421
-0.145285
-0.145103
-0.143256
-0.142703
-0.140624
-0.139164
-0.136264
-0.235303
-0.212426
-0.200129
-0.18559
-0.178525
-0.168932
-0.16497
-0.158548
-0.156504
-0.152183
-0.151297
-0.148349
-0.148058
-0.145912
-0.14573
-0.143875
-0.143319
-0.141231
-0.139765
-0.136852
)
;

boundaryField
{
    out
    {
        type            implicitExtrapolation;
    }
    in
    {
        type            implicitExtrapolation;
    }
    frontAndBack
    {
        type            empty;
    }
}


// ************************************************************************* //
