/*--------------------------------*- C++ -*----------------------------------*\
| =========                 |                                                 |
| \\      /  F ield         | foam-extend: Open Source CFD                    |
|  \\    /   O peration     | Version:  3.0                                   |
|   \\  /    A nd           | Web:         http://www.extend-project.de       |
|    \\/     M anipulation  |                                                 |
\*---------------------------------------------------------------------------*/
FoamFile
{
    version     2.0;
    format      ascii;
    class       volSymmTensorField;
    location    "22";
    object      sigma;
}
// * * * * * * * * * * * * * * * * * * * * * * * * * * * * * * * * * * * * * //

dimensions      [0 0 0 0 0 0 0];

internalField   nonuniform List<symmTensor> 
1920
(
(-0.176266 -0.00577564 4.98859e-20 0.17626 -1.13979e-20 5.6387e-06)
(-0.171003 -0.00683684 9.63315e-20 0.170988 1.52766e-20 1.50833e-05)
(-0.161266 -0.00720162 1.09006e-19 0.161243 1.07309e-20 2.34391e-05)
(-0.149664 -0.0071881 9.80136e-20 0.149633 3.96663e-20 3.0882e-05)
(-0.137526 -0.00696978 7.76579e-20 0.137489 6.49881e-20 3.75199e-05)
(-0.125514 -0.00664366 7.84839e-20 0.12547 5.34924e-20 4.33998e-05)
(-0.113965 -0.00626571 6.26673e-20 0.113916 9.55404e-20 4.85379e-05)
(-0.103031 -0.00586869 7.5842e-20 0.102979 8.02555e-20 5.29106e-05)
(-0.0927812 -0.00547194 7.1057e-20 0.0927247 1.21246e-19 5.64778e-05)
(-0.0832308 -0.00508735 6.3296e-20 0.0831716 1.36773e-19 5.91664e-05)
(-0.0743764 -0.00472174 3.73317e-20 0.0743155 1.4935e-19 6.08926e-05)
(-0.066208 -0.00438 1.94857e-20 0.0661465 1.25969e-19 6.15406e-05)
(-0.0587116 -0.0040646 4.80241e-20 0.0586506 1.11953e-19 6.09873e-05)
(-0.0518849 -0.00377836 6.11513e-20 0.0518259 1.27617e-19 5.90758e-05)
(-0.0457243 -0.00352247 2.66817e-20 0.0456687 1.03128e-19 5.56443e-05)
(-0.0402484 -0.00329969 5.2667e-20 0.0401979 1.77675e-20 5.04949e-05)
(-0.0354719 -0.00311121 6.2457e-20 0.0354285 -2.36509e-20 4.3429e-05)
(-0.0314412 -0.00296064 2.29094e-20 0.031407 -3.39911e-20 3.42091e-05)
(-0.0281952 -0.00285028 1.96866e-20 0.0281726 -6.85909e-20 2.26042e-05)
(-0.0258115 -0.00278207 -3.40659e-21 0.0258032 -3.9232e-20 8.34514e-06)
(-0.175508 -0.017302 5.40208e-20 0.175502 6.32455e-21 5.6151e-06)
(-0.169627 -0.020418 9.77821e-20 0.169612 1.51167e-20 1.50201e-05)
(-0.159577 -0.0214758 1.10382e-19 0.159554 -7.8383e-24 2.33409e-05)
(-0.147834 -0.0214165 1.28159e-19 0.147803 -4.82394e-21 3.07526e-05)
(-0.135655 -0.0207533 9.66884e-20 0.135618 5.06781e-20 3.73628e-05)
(-0.12366 -0.0197729 9.08587e-20 0.123616 6.36732e-20 4.3218e-05)
(-0.11216 -0.0186407 9.00014e-20 0.112112 9.80417e-20 4.83346e-05)
(-0.101294 -0.0174533 7.0275e-20 0.101241 1.95894e-19 5.2689e-05)
(-0.0911191 -0.0162679 7.69508e-20 0.0910628 2.39523e-19 5.62413e-05)
(-0.0816469 -0.0151194 6.20293e-20 0.081588 2.20367e-19 5.89186e-05)
(-0.0728698 -0.0140281 4.69877e-20 0.0728091 2.09224e-19 6.06376e-05)
(-0.064775 -0.0130081 3.13774e-20 0.0647137 1.98875e-19 6.1283e-05)
(-0.057347 -0.0120668 8.04116e-20 0.0572862 1.5723e-19 6.07321e-05)
(-0.0505822 -0.0112126 7.88175e-20 0.0505233 1.68125e-19 5.88286e-05)
(-0.0444761 -0.0104488 -5.18751e-21 0.0444207 2.17897e-19 5.54116e-05)
(-0.0390463 -0.00978365 -6.93872e-20 0.038996 2.32877e-19 5.02839e-05)
(-0.034307 -0.00922069 -4.49211e-20 0.0342637 2.1202e-19 4.32475e-05)
(-0.0303032 -0.00877062 1.78089e-20 0.0302692 1.32642e-19 3.40663e-05)
(-0.0270733 -0.00844027 3.70143e-20 0.0270508 8.40659e-20 2.25099e-05)
(-0.0246949 -0.00823547 5.88563e-20 0.0246866 -3.7051e-20 8.31037e-06)
(-0.173996 -0.0287535 4.82489e-20 0.17399 1.08603e-20 5.56752e-06)
(-0.166906 -0.033724 7.75172e-20 0.166891 1.04158e-20 1.48929e-05)
(-0.156244 -0.0353667 7.42141e-20 0.156221 6.87238e-21 2.31431e-05)
(-0.144228 -0.0352064 1.09425e-19 0.144198 -2.09796e-20 3.0492e-05)
(-0.131971 -0.0340741 1.29906e-19 0.131934 -4.71581e-21 3.70461e-05)
(-0.12001 -0.0324334 1.02271e-19 0.119967 6.90016e-20 4.28517e-05)
(-0.108609 -0.0305517 1.57565e-19 0.108561 1.06487e-19 4.79248e-05)
(-0.0978755 -0.028585 2.30918e-19 0.0978233 2.01437e-19 5.22422e-05)
(-0.0878506 -0.0266252 1.49967e-19 0.0877948 2.57164e-19 5.57643e-05)
(-0.0785331 -0.0247287 9.90685e-20 0.0784747 2.16185e-19 5.84189e-05)
(-0.0699086 -0.0229277 8.59553e-20 0.0698485 2.13297e-19 6.01234e-05)
(-0.0619592 -0.0212452 2.43051e-20 0.0618984 2.49525e-19 6.07633e-05)
(-0.0546663 -0.0196927 8.62162e-20 0.0546061 1.15345e-19 6.02171e-05)
(-0.0480237 -0.0182836 2.05167e-19 0.0479654 1.35276e-19 5.83298e-05)
(-0.0420254 -0.0170234 2.37783e-19 0.0419705 1.53469e-19 5.49419e-05)
(-0.0366867 -0.0159254 2.05092e-19 0.0366369 2.47676e-19 4.98577e-05)
(-0.032021 -0.0149952 9.32502e-20 0.0319781 2.31531e-19 4.2881e-05)
(-0.0280708 -0.0142504 -7.54334e-21 0.028037 6.70943e-20 3.37777e-05)
(-0.0248729 -0.0137021 -8.22485e-20 0.0248506 -4.61004e-20 2.23193e-05)
(-0.0225051 -0.0133601 -7.34582e-20 0.0224969 4.60808e-21 8.24e-06)
(-0.171737 -0.0400806 4.26483e-20 0.171731 4.38934e-21 5.4961e-06)
(-0.1629 -0.0465807 6.05583e-20 0.162886 2.82163e-20 1.47018e-05)
(-0.151358 -0.0486332 4.8998e-20 0.151335 4.07155e-20 2.28462e-05)
(-0.138951 -0.0482825 6.33602e-20 0.138921 2.92458e-20 3.01008e-05)
(-0.126586 -0.0466418 1.36232e-19 0.12655 -3.46695e-20 3.65708e-05)
(-0.114679 -0.0443313 1.80522e-19 0.114637 -1.73398e-20 4.23018e-05)
(-0.103425 -0.0417081 1.96677e-19 0.103378 5.68701e-21 4.73097e-05)
(-0.0928892 -0.0389801 2.90215e-19 0.0928376 -2.23598e-20 5.15716e-05)
(-0.083085 -0.0362694 2.44826e-19 0.08303 -2.727e-21 5.50485e-05)
(-0.0739953 -0.0336507 1.1811e-19 0.0739376 5.7758e-20 5.7669e-05)
(-0.0655951 -0.0311664 1.74375e-19 0.0655358 1.13759e-19 5.93515e-05)
(-0.0578593 -0.0288468 5.44251e-20 0.0577993 1.81758e-19 5.99833e-05)
(-0.0507651 -0.0267069 -1.42089e-20 0.0507057 9.52108e-20 5.94442e-05)
(-0.044302 -0.0247644 1.64155e-19 0.0442444 4.93993e-20 5.75812e-05)
(-0.0384622 -0.0230266 2.09815e-19 0.0384079 1.23842e-20 5.42368e-05)
(-0.0332575 -0.0215111 3.17887e-19 0.0332083 -2.35066e-19 4.92179e-05)
(-0.0287002 -0.0202256 4.02591e-20 0.0286578 -1.3788e-19 4.23309e-05)
(-0.024829 -0.0191939 -1.23793e-19 0.0247956 -2.09912e-19 3.33444e-05)
(-0.0216789 -0.0184311 -4.64142e-20 0.0216569 -2.42618e-20 2.20331e-05)
(-0.0193274 -0.017951 5.0323e-20 0.0193193 1.12445e-19 8.13438e-06)
(-0.168739 -0.0512341 2.54183e-20 0.168734 4.54112e-20 5.40112e-06)
(-0.157697 -0.0588279 2.80519e-20 0.157683 9.82262e-20 1.44478e-05)
(-0.145048 -0.061055 1.24692e-20 0.145025 1.06098e-19 2.24514e-05)
(-0.132156 -0.060394 -3.84102e-20 0.132126 1.62191e-19 2.95806e-05)
(-0.119663 -0.0581926 3.05804e-23 0.119627 6.51894e-20 3.59387e-05)
(-0.107835 -0.0552 8.78492e-20 0.107793 -7.84355e-21 4.15706e-05)
(-0.0967762 -0.0518465 1.68888e-19 0.0967297 -1.20512e-19 4.64919e-05)
(-0.0864979 -0.0483818 2.03072e-19 0.0864473 -5.53902e-20 5.06801e-05)
(-0.0769812 -0.0449521 2.67121e-19 0.0769271 -5.82435e-20 5.40969e-05)
(-0.0681871 -0.0416461 1.78297e-19 0.0681304 1.51123e-19 5.6672e-05)
(-0.0600779 -0.0385143 2.6051e-19 0.0600196 9.41121e-20 5.83255e-05)
(-0.0526187 -0.035592 1.5197e-19 0.0525598 1.26719e-19 5.89463e-05)
(-0.0457818 -0.0328972 -3.13613e-20 0.0457234 1.71111e-19 5.84166e-05)
(-0.0395512 -0.0304504 3.578e-20 0.0394946 2.79964e-19 5.65858e-05)
(-0.0339167 -0.0282603 -1.61093e-20 0.0338634 2.3068e-20 5.32993e-05)
(-0.028886 -0.0263482 7.69381e-21 0.0288376 -1.58393e-19 4.83673e-05)
(-0.0244695 -0.0247237 2.05822e-19 0.0244279 -1.01216e-19 4.15994e-05)
(-0.0207015 -0.0234156 -1.28344e-20 0.0206688 -3.04583e-20 3.27682e-05)
(-0.0176144 -0.0224429 1.94052e-19 0.0175927 1.15826e-19 2.16524e-05)
(-0.0152854 -0.0218237 -7.83992e-20 0.0152774 1.53506e-19 7.99384e-06)
(-0.165018 -0.0621661 -1.97541e-20 0.165013 1.54422e-19 5.28301e-06)
(-0.151408 -0.0703233 -4.82969e-20 0.151394 2.58967e-19 1.41318e-05)
(-0.13748 -0.0724397 -1.00066e-20 0.137458 2.24695e-19 2.19604e-05)
(-0.124037 -0.0713235 1.65107e-20 0.124008 1.34447e-19 2.89337e-05)
(-0.111411 -0.0684987 -9.08685e-20 0.111376 1.41046e-19 3.51526e-05)
(-0.0996893 -0.0648096 -7.26238e-20 0.0996487 8.57975e-20 4.06613e-05)
(-0.0888733 -0.0607401 -1.63188e-20 0.0888278 6.59446e-20 4.54749e-05)
(-0.0789098 -0.0565692 2.01381e-19 0.0788603 9.12247e-20 4.95715e-05)
(-0.0697415 -0.0524598 3.47432e-19 0.0696886 -8.2825e-21 5.29134e-05)
(-0.0613045 -0.0485098 2.83854e-19 0.0612491 1.26262e-19 5.54322e-05)
(-0.053546 -0.0447743 1.75428e-19 0.0534889 8.86515e-20 5.70496e-05)
(-0.0464201 -0.041292 2.25943e-19 0.0463624 1.66015e-19 5.76568e-05)
(-0.0398929 -0.0380819 2.34066e-19 0.0398357 1.87871e-19 5.71387e-05)
(-0.0339422 -0.0351666 9.70737e-20 0.0338869 3.86128e-19 5.53481e-05)
(-0.0285552 -0.0325555 -1.83936e-19 0.028503 -1.16893e-21 5.21335e-05)
(-0.0237343 -0.0302726 -1.02499e-19 0.023687 4.40442e-20 4.73095e-05)
(-0.0194883 -0.0283289 4.35914e-20 0.0194476 -9.4459e-20 4.06897e-05)
(-0.0158458 -0.0267577 -1.63251e-20 0.0158138 -4.95691e-21 3.20517e-05)
(-0.0128363 -0.0255811 2.9998e-19 0.0128151 -1.61485e-19 2.1179e-05)
(-0.0105366 -0.0248215 9.0221e-21 0.0105288 -2.65785e-20 7.81912e-06)
(-0.160588 -0.0728294 6.98261e-21 0.160583 1.45261e-19 5.14225e-06)
(-0.144167 -0.0809473 -6.82738e-20 0.144153 2.79282e-19 1.37553e-05)
(-0.12885 -0.0826293 -8.55645e-20 0.128829 1.32612e-19 2.13753e-05)
(-0.114823 -0.0808941 -2.83929e-20 0.114795 1.00309e-20 2.81627e-05)
(-0.102074 -0.0773754 -6.32668e-20 0.10204 1.5021e-19 3.42159e-05)
(-0.0904932 -0.0729748 -5.46208e-20 0.0904537 1.03757e-19 3.95778e-05)
(-0.079966 -0.0682066 -1.01033e-20 0.0799217 1.08774e-19 4.42631e-05)
(-0.0703697 -0.0633654 7.05304e-20 0.0703214 -4.65041e-20 4.82505e-05)
(-0.0616041 -0.058622 2.63276e-19 0.0615526 -1.26937e-19 5.15033e-05)
(-0.0535779 -0.0540779 4.35201e-19 0.053524 -6.03923e-20 5.3955e-05)
(-0.0462219 -0.0497896 3.37283e-19 0.0461664 1.78788e-20 5.55292e-05)
(-0.0394781 -0.0457964 3.45137e-19 0.039422 -2.21897e-20 5.61204e-05)
(-0.0333058 -0.042117 4.55624e-19 0.0332502 -1.59143e-19 5.56161e-05)
(-0.027676 -0.0387746 4.08837e-19 0.0276221 -6.88805e-20 5.38732e-05)
(-0.0225728 -0.0357787 -1.45287e-19 0.0225221 -3.9469e-19 5.07444e-05)
(-0.0179932 -0.0331549 -9.27062e-20 0.0179471 -3.27787e-19 4.6049e-05)
(-0.0139438 -0.0309152 8.60423e-21 0.0139042 -2.18426e-19 3.96056e-05)
(-0.0104471 -0.0290962 1.24341e-21 0.0104159 -6.32896e-19 3.11978e-05)
(-0.00752904 -0.0277226 -4.55162e-20 0.00750843 -3.04847e-19 2.06148e-05)
(-0.00526619 -0.0268214 2.46852e-19 0.00525858 -4.68347e-19 7.61082e-06)
(-0.155471 -0.0831781 6.82125e-20 0.155466 6.96028e-20 4.97945e-06)
(-0.13612 -0.090606 3.83368e-20 0.136107 3.23838e-20 1.33198e-05)
(-0.119378 -0.091505 -1.38934e-19 0.119357 -8.75748e-21 2.06985e-05)
(-0.104772 -0.0889752 -2.89301e-20 0.104744 1.06328e-20 2.7271e-05)
(-0.0919264 -0.0846883 5.95652e-20 0.0918933 6.87032e-21 3.31326e-05)
(-0.0805255 -0.0795614 -1.00192e-19 0.0804872 2.02245e-20 3.83246e-05)
(-0.0703322 -0.0741148 -7.79239e-20 0.0702894 -6.35462e-20 4.28616e-05)
(-0.0611499 -0.0686435 -7.30189e-20 0.0611032 -1.22654e-19 4.67227e-05)
(-0.0528339 -0.063317 2.56104e-20 0.052784 3.22636e-20 4.98726e-05)
(-0.0452639 -0.0582342 3.9676e-19 0.0452116 -7.12252e-20 5.22466e-05)
(-0.0383534 -0.0534493 2.03567e-19 0.0382996 1.24302e-19 5.3771e-05)
(-0.0320318 -0.0489993 7.9388e-20 0.0319774 -4.07387e-20 5.43435e-05)
(-0.0262514 -0.0449013 1.7872e-19 0.0261975 -1.71643e-19 5.38552e-05)
(-0.0209761 -0.0411775 3.4104e-19 0.0209239 -2.06096e-19 5.21676e-05)
(-0.0161868 -0.0378367 -3.70166e-19 0.0161377 -3.37488e-19 4.91379e-05)
(-0.0118747 -0.0349049 -2.53849e-19 0.0118301 -6.40791e-20 4.45912e-05)
(-0.00804404 -0.0323949 -3.03462e-19 0.00800569 -4.14947e-19 3.83519e-05)
(-0.0047109 -0.0303452 -5.14866e-19 0.00468069 -4.56375e-19 3.02104e-05)
(-0.00189753 -0.0287827 -2.52084e-19 0.00187757 1.6352e-19 1.99624e-05)
(0.000320284 -0.027739 1.49282e-19 -0.000327654 -8.45839e-20 7.36999e-06)
(-0.149687 -0.0931677 4.20907e-20 0.149682 3.03314e-20 4.7953e-06)
(-0.127427 -0.0992332 5.70084e-20 0.127414 -7.53998e-20 1.28272e-05)
(-0.109296 -0.0989904 -9.37678e-20 0.109276 -6.58797e-20 1.9933e-05)
(-0.0941543 -0.0954865 -9.85588e-20 0.094128 -3.48933e-20 2.62624e-05)
(-0.0812589 -0.0903568 1.77724e-20 0.081227 -3.85087e-20 3.19072e-05)
(-0.0700833 -0.0844906 -2.76396e-20 0.0700464 -3.06571e-20 3.69072e-05)
(-0.0602676 -0.0783888 -1.80036e-19 0.0602263 -2.28881e-20 4.12764e-05)
(-0.0515407 -0.0723312 -8.35743e-20 0.0514957 9.57217e-21 4.49947e-05)
(-0.0437129 -0.066476 -1.20997e-19 0.0436649 2.37505e-19 4.80281e-05)
(-0.0366351 -0.0609136 1.40742e-19 0.0365848 2.64536e-19 5.03144e-05)
(-0.0302036 -0.0556919 4.43574e-19 0.0301519 3.10793e-19 5.17825e-05)
(-0.0243351 -0.0508428 8.02831e-20 0.0242827 -2.76279e-20 5.23338e-05)
(-0.0189749 -0.0463801 -1.91713e-19 0.018923 1.6404e-19 5.18637e-05)
(-0.0140799 -0.0423234 3.21335e-19 0.0140297 1.97895e-20 5.02385e-05)
(-0.00962787 -0.0386802 -2.60341e-19 0.00958055 1.46179e-19 4.7321e-05)
(-0.00560385 -0.0354757 -3.77283e-19 0.0055609 3.32681e-20 4.29425e-05)
(-0.00201008 -0.0327228 -8.13838e-19 0.00197314 1.07687e-19 3.69339e-05)
(0.00114427 -0.030461 -4.90133e-19 -0.00117336 6.12431e-19 2.90934e-05)
(0.0038407 -0.0287184 -1.84873e-19 -0.00385993 4.77525e-19 1.92243e-05)
(0.00600448 -0.0275317 -2.56678e-19 -0.00601157 3.04145e-19 7.09751e-06)
(-0.143262 -0.102756 -5.01709e-20 0.143257 9.75693e-20 4.5906e-06)
(-0.118251 -0.106792 -1.42718e-20 0.118239 -3.93257e-20 1.22796e-05)
(-0.0988442 -0.105053 -9.33966e-20 0.0988251 -8.05854e-20 1.9082e-05)
(-0.0832507 -0.1004 -1.3282e-19 0.0832256 -6.19541e-23 2.51412e-05)
(-0.0703696 -0.0943565 -5.39643e-20 0.0703391 3.02981e-20 3.0545e-05)
(-0.0594707 -0.0877413 -1.45502e-19 0.0594354 1.17551e-19 3.53316e-05)
(-0.0500746 -0.0810104 -2.12711e-19 0.050035 1.01924e-19 3.95142e-05)
(-0.0418384 -0.0744125 -1.48368e-19 0.0417954 1.68346e-19 4.30739e-05)
(-0.0345293 -0.0680855 8.95434e-20 0.0344833 2.44747e-19 4.59778e-05)
(-0.0279704 -0.0621047 9.03433e-20 0.0279222 2.91661e-19 4.81666e-05)
(-0.0220416 -0.0565078 3.35085e-19 0.021992 -4.06012e-20 4.95721e-05)
(-0.0166474 -0.0513191 4.08759e-19 0.0165973 -3.10782e-19 5.00999e-05)
(-0.0117268 -0.0465472 3.6233e-20 0.0116771 2.67145e-20 4.96499e-05)
(-0.0072299 -0.0422076 2.01722e-19 0.00718181 4.74233e-22 4.80943e-05)
(-0.00313134 -0.0383057 5.69346e-20 0.00308604 -6.81138e-20 4.53013e-05)
(0.000589531 -0.0348647 -2.39897e-20 -0.000630641 -3.96178e-20 4.11098e-05)
(0.00393271 -0.0318975 1.28511e-19 -0.00396807 1.16575e-19 3.53578e-05)
(0.00689571 -0.0294431 -2.99445e-19 -0.00692357 2.55772e-19 2.7852e-05)
(0.00946389 -0.0275301 1.68496e-20 -0.0094823 5.62452e-20 1.84041e-05)
(0.0115639 -0.0262005 -4.49318e-19 -0.0115707 4.58848e-19 6.79471e-06)
(-0.136225 -0.111901 -6.53887e-20 0.13622 4.43038e-20 4.36622e-06)
(-0.108757 -0.113275 -1.16539e-19 0.108746 -2.74611e-20 1.16793e-05)
(-0.0882605 -0.109706 -1.27215e-19 0.0882423 -3.88219e-20 1.81493e-05)
(-0.0723374 -0.103741 -1.03834e-19 0.0723135 -2.43937e-21 2.39123e-05)
(-0.0595529 -0.0967196 -1.37064e-19 0.0595239 2.11046e-19 2.90519e-05)
(-0.0489875 -0.0893502 4.00805e-20 0.0489539 1.28229e-19 3.36045e-05)
(-0.0400512 -0.0820188 -1.17265e-19 0.0400136 -8.06306e-21 3.75828e-05)
(-0.0323352 -0.0749284 -1.02691e-19 0.0322942 4.72327e-20 4.09685e-05)
(-0.0255668 -0.0681873 1.83605e-19 0.025523 -5.08846e-20 4.37305e-05)
(-0.0195439 -0.0618496 3.20959e-19 0.0194981 -1.78636e-19 4.58124e-05)
(-0.0141316 -0.0559393 4.0909e-20 0.0140845 -3.37376e-19 4.71493e-05)
(-0.00922369 -0.0504702 1.38191e-19 0.00917604 -2.79128e-19 4.76514e-05)
(-0.0047532 -0.0454444 3.60248e-19 0.00470598 -7.87735e-20 4.72235e-05)
(-0.000664111 -0.0408719 4.54447e-19 0.000618367 -2.71072e-19 4.5744e-05)
(0.00307163 -0.0367551 3.23028e-20 -0.00311472 -2.72512e-19 4.30876e-05)
(0.00648001 -0.0331143 -2.17085e-19 -0.00651911 -1.83973e-19 3.9101e-05)
(0.00956317 -0.0299616 5.69493e-20 -0.0095968 -2.17218e-19 3.36301e-05)
(0.012325 -0.0273343 1.20714e-19 -0.0123515 1.39955e-19 2.64911e-05)
(0.0147545 -0.0252613 4.72642e-19 -0.0147721 2.80265e-19 1.75049e-05)
(0.0167803 -0.0237896 2.10187e-19 -0.0167867 -1.88945e-19 6.46272e-06)
(-0.128605 -0.120564 7.46012e-21 0.128601 -4.06767e-20 4.12311e-06)
(-0.0991023 -0.118702 -6.07664e-20 0.0990912 -8.5927e-20 1.1029e-05)
(-0.0777718 -0.113005 -1.40618e-19 0.0777546 -5.53383e-20 1.71387e-05)
(-0.0616775 -0.105584 -4.30638e-20 0.0616549 2.22198e-20 2.25808e-05)
(-0.0490883 -0.0975327 -3.33738e-20 0.0490609 1.69111e-19 2.74342e-05)
(-0.0389182 -0.0894096 2.28709e-20 0.0388865 -1.01145e-19 3.17334e-05)
(-0.0304801 -0.081509 -9.69704e-20 0.0304446 -1.00431e-19 3.54902e-05)
(-0.0233077 -0.0739745 -1.03959e-19 0.023269 -1.56848e-19 3.86874e-05)
(-0.0170938 -0.0668763 -1.21752e-19 0.0170526 -2.03701e-19 4.12958e-05)
(-0.0116152 -0.0602418 1.54709e-19 0.0115719 -2.54171e-19 4.32618e-05)
(-0.00672402 -0.0540784 5.0478e-20 0.0066795 -1.58952e-19 4.45244e-05)
(-0.00230503 -0.0483865 -7.47428e-20 0.00226003 -7.31457e-20 4.49987e-05)
(0.00171345 -0.0431606 -1.09345e-19 -0.00175804 -1.92824e-19 4.45947e-05)
(0.00539267 -0.0384035 2.61829e-20 -0.00543586 -8.29253e-20 4.31977e-05)
(0.00876293 -0.0341145 4.15594e-19 -0.00880362 -4.39489e-20 4.06893e-05)
(0.0118549 -0.0303095 -1.02536e-19 -0.0118919 -1.13563e-19 3.69247e-05)
(0.0146728 -0.0269995 -5.48852e-20 -0.0147046 1.18471e-20 3.17584e-05)
(0.0172262 -0.0242194 9.56426e-20 -0.0172512 4.12878e-20 2.50168e-05)
(0.0195078 -0.0219972 1.23228e-19 -0.0195244 -2.33911e-19 1.65308e-05)
(0.0214483 -0.0203853 1.83201e-19 -0.0214544 -3.28104e-19 6.10314e-06)
(-0.120437 -0.128709 3.63207e-20 0.120433 -6.24237e-20 3.86233e-06)
(-0.0894331 -0.123122 7.34681e-20 0.0894228 -1.6749e-19 1.03314e-05)
(-0.0675865 -0.115043 -9.53265e-20 0.0675705 -7.42989e-20 1.60546e-05)
(-0.0515112 -0.106051 -5.38603e-20 0.0514901 3.74123e-20 2.11525e-05)
(-0.0392307 -0.0969324 1.84358e-19 0.039205 -6.77035e-20 2.5699e-05)
(-0.0295216 -0.0880633 5.16185e-20 0.0294919 -1.77116e-19 2.97262e-05)
(-0.0216179 -0.0796274 -4.65872e-20 0.0215846 -1.1679e-19 3.32454e-05)
(-0.0150068 -0.0716968 -2.41962e-19 0.0149706 -7.42266e-20 3.62405e-05)
(-0.00935401 -0.0642964 -4.57711e-19 0.00931533 1.53225e-20 3.8684e-05)
(-0.00441918 -0.0574227 -2.30938e-19 0.00437865 -4.03026e-20 4.05259e-05)
(-4.5016e-05 -0.051063 -4.60147e-20 3.30729e-06 -3.4168e-20 4.17087e-05)
(0.0038907 -0.0452026 -7.01406e-20 -0.00393285 2.82263e-20 4.21531e-05)
(0.00746313 -0.0398273 -2.01671e-19 -0.00750491 9.98128e-20 4.17749e-05)
(0.0107375 -0.0349314 -4.1725e-19 -0.010778 2.03956e-19 4.04663e-05)
(0.0137458 -0.0305104 -9.86762e-20 -0.0137839 4.02971e-22 3.81166e-05)
(0.0165227 -0.026575 -5.10912e-20 -0.0165573 3.36882e-20 3.45902e-05)
(0.0190738 -0.023135 -2.05621e-20 -0.0191036 -8.63363e-20 2.97506e-05)
(0.0214141 -0.0202214 -1.08207e-19 -0.0214375 -8.81603e-20 2.34353e-05)
(0.0235394 -0.0178612 -1.37075e-19 -0.0235549 -1.2235e-19 1.54858e-05)
(0.0253831 -0.0161122 3.28963e-20 -0.0253888 3.81091e-20 5.71733e-06)
(-0.111755 -0.136301 7.79028e-20 0.111752 -1.19889e-19 3.58499e-06)
(-0.0798808 -0.126603 3.39683e-20 0.0798712 -1.00044e-19 9.58952e-06)
(-0.0578875 -0.115953 1.78506e-20 0.0578726 -5.16545e-20 1.49017e-05)
(-0.0420478 -0.105306 -1.20208e-20 0.0420281 -8.37821e-20 1.96335e-05)
(-0.0302007 -0.0950999 1.17034e-19 0.0301768 -1.95717e-19 2.38535e-05)
(-0.0210214 -0.0855006 1.54786e-19 0.0209938 -2.05318e-19 2.75916e-05)
(-0.0136859 -0.0765654 6.99451e-20 0.0136551 -4.75032e-20 3.08582e-05)
(-0.00764881 -0.0682855 1.21031e-19 0.00761517 -2.08255e-21 3.36383e-05)
(-0.00255656 -0.0606349 -2.08742e-19 0.00252065 -7.4266e-20 3.59064e-05)
(0.00184231 -0.0535752 -4.00303e-19 -0.00187993 -1.72004e-19 3.76162e-05)
(0.00571129 -0.0470715 -3.10105e-19 -0.00575 -9.94104e-21 3.87142e-05)
(0.00917685 -0.0410924 -1.26456e-19 -0.00921597 1.89913e-19 3.91269e-05)
(0.0123162 -0.0356137 -4.1149e-20 -0.0123549 3.36229e-19 3.8776e-05)
(0.015197 -0.0306208 -5.94179e-20 -0.0152346 1.47936e-19 3.75615e-05)
(0.0178524 -0.0261047 -3.24224e-19 -0.0178878 1.49861e-19 3.53807e-05)
(0.0203198 -0.0220703 -3.74659e-19 -0.0203519 1.04517e-19 3.21075e-05)
(0.0226063 -0.0185256 -3.67942e-19 -0.0226339 1.66355e-19 2.76154e-05)
(0.024731 -0.0154972 -1.62737e-19 -0.0247527 2.62324e-19 2.17535e-05)
(0.0266926 -0.0130106 -2.06157e-19 -0.026707 -5.92056e-20 1.43745e-05)
(0.0284277 -0.0111288 -3.46451e-19 -0.028433 2.41177e-19 5.30711e-06)
(-0.102597 -0.143308 3.4615e-20 0.102594 -5.31317e-20 3.29228e-06)
(-0.0705566 -0.129238 4.65051e-20 0.0705478 -2.40679e-20 8.80652e-06)
(-0.0488254 -0.115893 8.25666e-20 0.0488117 -7.6951e-20 1.36849e-05)
(-0.0334577 -0.103548 -1.15952e-20 0.0334397 -1.61336e-19 1.80303e-05)
(-0.0221773 -0.0922531 -4.87931e-20 0.0221553 -1.97312e-19 2.19058e-05)
(-0.013598 -0.0819481 1.12887e-21 0.0135726 -1.3092e-19 2.53387e-05)
(-0.00686236 -0.0725517 5.92783e-20 0.00683402 -1.18044e-20 2.83386e-05)
(-0.00140705 -0.0639676 1.39218e-19 0.00137615 -4.80453e-20 3.08918e-05)
(0.00313098 -0.0561147 1.3795e-19 -0.00316395 -2.11796e-19 3.29749e-05)
(0.00700815 -0.0489168 -2.84326e-19 -0.00704269 -1.80603e-19 3.45452e-05)
(0.0103902 -0.0423156 -2.59059e-19 -0.0104258 2.64879e-20 3.55538e-05)
(0.013405 -0.0362617 2.28431e-20 -0.0134409 1.20763e-19 3.5933e-05)
(0.01613 -0.0307204 2.17874e-19 -0.0161656 8.20176e-20 3.56109e-05)
(0.0186338 -0.0256673 1.62299e-19 -0.0186683 -4.31725e-20 3.44957e-05)
(0.0209499 -0.0210888 3.62018e-19 -0.0209824 1.17437e-19 3.24931e-05)
(0.0231173 -0.0169832 1.46645e-19 -0.0231467 6.18257e-20 2.94872e-05)
(0.0251442 -0.0133571 7.60306e-20 -0.0251696 -6.83376e-21 2.53618e-05)
(0.0270528 -0.0102314 -4.35447e-20 -0.0270728 -1.14859e-19 1.99784e-05)
(0.0288443 -0.0076301 3.80739e-20 -0.0288575 -9.45019e-20 1.32016e-05)
(0.030459 -0.00562114 4.99601e-20 -0.0304639 -8.15125e-20 4.87408e-06)
(-0.093003 -0.149701 4.26072e-21 0.093 -1.47256e-20 2.98545e-06)
(-0.0615491 -0.131132 -3.30741e-21 0.0615411 2.50996e-20 7.98575e-06)
(-0.0405144 -0.115046 1.65751e-19 0.040502 -1.11403e-19 1.24095e-05)
(-0.0258676 -0.100999 -4.81007e-21 0.0258512 -1.56493e-19 1.63499e-05)
(-0.0152914 -0.0886373 -1.38584e-19 0.0152716 -1.43033e-19 1.98641e-05)
(-0.00738243 -0.0776606 -1.41799e-19 0.00735946 -3.58134e-20 2.29771e-05)
(-0.0012756 -0.0678433 5.85444e-20 0.0012499 -1.23902e-20 2.56975e-05)
(0.00359402 -0.0589977 5.56667e-20 -0.00362203 -8.25089e-20 2.80129e-05)
(0.00758891 -0.0509853 1.55515e-19 -0.00761881 -2.32344e-19 2.99021e-05)
(0.0109637 -0.043691 -2.03887e-19 -0.010995 -9.12978e-20 3.13262e-05)
(0.0138821 -0.0370319 -2.02066e-19 -0.0139144 -1.6032e-19 3.2241e-05)
(0.0164703 -0.0309404 -1.94737e-19 -0.0165029 -9.66126e-20 3.25851e-05)
(0.0188043 -0.0253708 1.35991e-19 -0.0188365 -5.6757e-20 3.22932e-05)
(0.0209518 -0.0202886 6.20811e-20 -0.020983 -2.22763e-19 3.12822e-05)
(0.0229456 -0.0156755 1.31694e-19 -0.0229751 -1.14176e-21 2.94663e-05)
(0.0248255 -0.0115231 4.48799e-19 -0.0248523 -1.78399e-19 2.67406e-05)
(0.0266003 -0.0078358 1.85599e-19 -0.0266233 -2.06347e-19 2.29997e-05)
(0.0282941 -0.0046292 1.94588e-19 -0.0283122 -2.34249e-19 1.81178e-05)
(0.0299099 -0.00192491 -2.19987e-19 -0.0299218 -2.51071e-19 1.19722e-05)
(0.0313925 0.000204032 1.18149e-19 -0.0313969 -3.82174e-20 4.42024e-06)
(-0.0830132 -0.155452 3.35693e-20 0.0830105 -3.7909e-21 2.66583e-06)
(-0.0529215 -0.132401 1.10087e-19 0.0529143 -5.14447e-20 7.13075e-06)
(-0.0330284 -0.113608 7.94797e-20 0.0330173 -9.8641e-20 1.10808e-05)
(-0.0193554 -0.0979005 6.77507e-20 0.0193408 -1.02196e-19 1.45993e-05)
(-0.00962191 -0.0845157 7.8357e-21 0.00960417 -1.47618e-19 1.77373e-05)
(-0.002452 -0.0729109 -1.25959e-19 0.00243149 -8.52695e-20 2.05171e-05)
(0.0029998 -0.0627147 7.88122e-22 -0.00302275 -6.73703e-20 2.29463e-05)
(0.00728313 -0.0536474 -6.14804e-20 -0.00730814 -1.13992e-19 2.5014e-05)
(0.0107495 -0.0455129 -1.60324e-19 -0.0107762 -3.46773e-20 2.67011e-05)
(0.0136448 -0.0381571 1.34888e-20 -0.0136727 -2.47552e-20 2.7973e-05)
(0.0161265 -0.0314727 -1.71446e-19 -0.0161553 -2.50977e-19 2.87901e-05)
(0.0183156 -0.0253735 -5.15692e-19 -0.0183447 -4.49274e-20 2.90976e-05)
(0.0202848 -0.019803 -2.82175e-19 -0.0203137 -2.94385e-20 2.88372e-05)
(0.0220994 -0.0147167 -4.05101e-19 -0.0221273 -1.31832e-20 2.79346e-05)
(0.0237907 -0.0100915 -1.7468e-19 -0.023817 1.12722e-19 2.63132e-05)
(0.0253977 -0.00591217 -1.66156e-19 -0.0254216 -1.3842e-19 2.38794e-05)
(0.0269295 -0.0021812 -1.97189e-19 -0.02695 1.19135e-19 2.05389e-05)
(0.0284108 0.00109168 1.612e-20 -0.028427 2.8197e-20 1.61795e-05)
(0.0298463 0.00388712 -1.28611e-19 -0.029857 -3.68393e-20 1.06915e-05)
(0.0311855 0.00612742 -1.24507e-19 -0.0311894 5.98809e-20 3.94741e-06)
(-0.0726708 -0.160537 8.74824e-20 0.0726684 -3.55791e-20 2.33477e-06)
(-0.0447107 -0.133167 1.17469e-19 0.0447045 -6.22511e-20 6.24518e-06)
(-0.0263994 -0.111781 9.76566e-20 0.0263897 -8.41706e-20 9.70466e-06)
(-0.0139491 -0.0945 6.11185e-21 0.0139363 -7.25797e-20 1.27862e-05)
(-0.00519301 -0.0801585 6.26185e-20 0.00517748 -1.41843e-19 1.55345e-05)
(0.00117221 -0.0679786 -6.73018e-20 -0.00119018 -1.03297e-19 1.79691e-05)
(0.00594553 -0.0574472 -1.31953e-20 -0.00596563 -5.24276e-20 2.00968e-05)
(0.0096445 -0.0481951 -1.8408e-20 -0.00966641 -1.41403e-20 2.19078e-05)
(0.0125993 -0.0399702 -3.29891e-20 -0.0126227 -3.43617e-20 2.33856e-05)
(0.01504 -0.0325808 -3.2089e-20 -0.0150645 -1.32665e-19 2.44998e-05)
(0.0171136 -0.0258957 -7.50657e-20 -0.0171388 -1.19721e-19 2.52157e-05)
(0.0189329 -0.019811 -2.05413e-19 -0.0189584 3.9037e-20 2.54853e-05)
(0.0205653 -0.01426 -1.06047e-19 -0.0205906 -6.22878e-20 2.52576e-05)
(0.0220718 -0.0091881 -3.64222e-19 -0.0220962 -2.80262e-20 2.44673e-05)
(0.0234815 -0.00456787 -1.10009e-19 -0.0235046 8.21504e-22 2.30475e-05)
(0.0248314 -0.000377367 -2.53373e-19 -0.0248523 -4.83697e-21 2.09159e-05)
(0.0261302 0.00338295 -1.67554e-19 -0.0261482 1.48839e-19 1.79903e-05)
(0.0274026 0.00670906 -3.25582e-20 -0.0274168 -4.13909e-20 1.41719e-05)
(0.0286538 0.00958391 -3.38627e-19 -0.0286631 9.27311e-20 9.365e-06)
(0.0298388 0.0119255 1.64595e-19 -0.0298423 1.55121e-20 3.45773e-06)
(-0.0620198 -0.164937 -9.01424e-22 0.0620178 -3.94199e-21 1.99371e-06)
(-0.0369272 -0.133549 9.09894e-21 0.0369219 -1.46423e-20 5.33285e-06)
(-0.0206176 -0.109767 2.3268e-20 0.0206093 -1.68316e-20 8.28691e-06)
(-0.00962622 -0.0910416 8.88461e-20 0.0096153 -7.19756e-20 1.09182e-05)
(-0.00197442 -0.0758318 1.96083e-20 0.00196116 -1.33977e-19 1.32651e-05)
(0.0035253 -0.0631393 -9.08226e-20 -0.00354064 -8.49212e-20 1.53441e-05)
(0.00759959 -0.0523178 -9.23999e-20 -0.00761675 -1.82914e-20 1.71611e-05)
(0.0107178 -0.0429145 2.1265e-20 -0.0107366 -2.05017e-21 1.87078e-05)
(0.0131789 -0.0346253 1.16673e-19 -0.0131989 -1.07548e-19 1.997e-05)
(0.0151905 -0.0272229 -3.07938e-20 -0.0152114 -1.62806e-19 2.09217e-05)
(0.0168849 -0.0205544 -9.88598e-20 -0.0169065 -1.15023e-19 2.15334e-05)
(0.0183637 -0.0144991 -7.2376e-20 -0.0183855 -6.94711e-20 2.17639e-05)
(0.0196873 -0.00898058 -2.90568e-20 -0.0197089 -1.23175e-19 2.15697e-05)
(0.0209106 -0.0039354 -1.73231e-19 -0.0209315 -1.56128e-19 2.08952e-05)
(0.0220598 0.0006683 -2.99407e-19 -0.0220795 -5.28778e-20 1.96829e-05)
(0.0231685 0.00485867 -2.3091e-19 -0.0231864 3.95684e-20 1.78629e-05)
(0.024245 0.00863712 -2.10367e-19 -0.0242604 1.72924e-19 1.53645e-05)
(0.0253123 0.0120051 1.16314e-19 -0.0253244 2.33591e-19 1.21036e-05)
(0.0263759 0.0149476 1.0617e-19 -0.0263839 5.29487e-20 7.99836e-06)
(0.0273969 0.017379 3.72295e-20 -0.0273999 -9.7134e-20 2.95319e-06)
(-0.0511059 -0.168631 -1.88634e-20 0.0511042 1.6802e-21 1.64411e-06)
(-0.0295558 -0.133665 -3.32099e-20 0.0295514 2.4394e-22 4.39764e-06)
(-0.0156323 -0.107756 -2.69486e-20 0.0156254 -1.14799e-20 6.83362e-06)
(-0.00631559 -0.0877565 -2.4212e-20 0.00630659 -5.19401e-20 9.0035e-06)
(0.000116702 -0.0717877 -7.96576e-20 -0.000127641 -6.2686e-20 1.09388e-05)
(0.00469644 -0.0586533 -1.1781e-19 -0.00470909 -1.76121e-20 1.26534e-05)
(0.00805416 -0.0475881 -2.74573e-20 -0.00806831 -2.85654e-20 1.41519e-05)
(0.0105963 -0.0380644 -5.54202e-20 -0.0106117 -5.93517e-20 1.54276e-05)
(0.0125813 -0.0297313 -1.90869e-20 -0.0125977 -1.08415e-19 1.64688e-05)
(0.0141882 -0.02233 -6.4724e-20 -0.0142054 -9.55878e-20 1.7254e-05)
(0.0155311 -0.0156879 -1.92583e-20 -0.0155488 -1.16159e-19 1.77588e-05)
(0.0166972 -0.00966959 -1.25418e-19 -0.0167151 -1.24225e-19 1.79493e-05)
(0.0177385 -0.00419005 -1.16743e-19 -0.0177563 -1.19433e-19 1.77895e-05)
(0.0187022 0.000822288 -2.31662e-19 -0.0187195 -8.18469e-20 1.72336e-05)
(0.0196109 0.0054031 -1.94604e-19 -0.0196272 2.52975e-20 1.62341e-05)
(0.0204938 0.00958611 -2.27569e-19 -0.0205086 4.21085e-20 1.47333e-05)
(0.0213582 0.0133744 -2.24683e-19 -0.0213709 1.57825e-19 1.26729e-05)
(0.0222245 0.0167744 9.60266e-20 -0.0222345 1.20396e-19 9.98354e-06)
(0.023098 0.0197732 7.41489e-20 -0.0231046 -1.53235e-20 6.59752e-06)
(0.0239462 0.0222815 5.68918e-21 -0.0239486 1.99686e-20 2.43604e-06)
(-0.0399753 -0.171605 -2.67753e-20 0.039974 2.79553e-21 1.28745e-06)
(-0.0225577 -0.133619 -5.15983e-20 0.0225543 2.67633e-21 3.44359e-06)
(-0.0113556 -0.105921 -5.51116e-20 0.0113503 -8.03938e-21 5.35105e-06)
(-0.00390131 -0.0848533 -6.61113e-20 0.00389426 -2.6505e-20 7.05016e-06)
(0.00121168 -0.0682532 -7.78263e-20 -0.00122025 -1.60488e-20 8.56568e-06)
(0.0048247 -0.0547556 -1.4619e-20 -0.00483461 -1.8342e-20 9.90841e-06)
(0.00745139 -0.0434941 -5.55586e-21 -0.00746247 -4.25775e-20 1.10821e-05)
(0.00942228 -0.0338778 2.71974e-20 -0.00943436 -7.33877e-20 1.20813e-05)
(0.0109473 -0.0255162 -1.3226e-20 -0.0109602 -1.19672e-19 1.2897e-05)
(0.0121716 -0.0181238 -6.42561e-20 -0.0121852 -1.13514e-19 1.35123e-05)
(0.0131878 -0.0115116 -5.2979e-20 -0.0132017 -1.31247e-19 1.39081e-05)
(0.0140662 -0.00553147 -1.51621e-19 -0.0140803 -1.06284e-19 1.40577e-05)
(0.014849 -9.12107e-05 -1.13953e-19 -0.014863 -1.035e-19 1.39331e-05)