/*--------------------------------*- C++ -*----------------------------------*\
| =========                 |                                                 |
| \\      /  F ield         | foam-extend: Open Source CFD                    |
|  \\    /   O peration     | Version:  3.0                                   |
|   \\  /    A nd           | Web:         http://www.extend-project.de       |
|    \\/     M anipulation  |                                                 |
\*---------------------------------------------------------------------------*/
FoamFile
{
    version     2.0;
    format      ascii;
    class       volVectorField;
    location    "22";
    object      u;
}
// * * * * * * * * * * * * * * * * * * * * * * * * * * * * * * * * * * * * * //

dimensions      [0 0 0 0 0 0 0];

internalField   nonuniform List<vector> 
1920
(
(0.148225 -0.0596527 5.63515e-18)
(0.34126 -0.0471938 1.87807e-18)
(0.490819 -0.0380323 1.82057e-18)
(0.596834 -0.0309535 -4.87996e-19)
(0.684534 -0.0255567 4.15062e-18)
(0.747168 -0.0212366 1.06714e-18)
(0.802354 -0.0178229 3.46866e-18)
(0.84114 -0.015012 2.30685e-18)
(0.877701 -0.0127063 6.50471e-19)
(0.902255 -0.0107697 -7.07656e-19)
(0.927359 -0.0091102 -2.0184e-18)
(0.942774 -0.00770134 7.33397e-19)
(0.960377 -0.00642657 1.99436e-18)
(0.969492 -0.00534387 -8.02002e-19)
(0.981887 -0.00429527 -6.81807e-19)
(0.986333 -0.00341413 9.1644e-19)
(0.994893 -0.00248921 -7.46774e-18)
(0.995607 -0.00172605 -2.01163e-18)
(1.00116 -0.000869893 -3.51292e-18)
(0.998709 -5.22068e-05 9.41167e-19)
(0.163797 -0.177936 9.6667e-18)
(0.35358 -0.140772 1.2086e-18)
(0.500748 -0.113445 2.67592e-18)
(0.604914 -0.0923295 -5.21016e-18)
(0.691205 -0.0762317 -2.72109e-18)
(0.752712 -0.0633452 -8.72371e-20)
(0.807007 -0.0531625 -2.28408e-18)
(0.845059 -0.0447781 7.93433e-18)
(0.881018 -0.0379004 5.82889e-18)
(0.905066 -0.0321237 6.23329e-18)
(0.929737 -0.0271738 3.55215e-18)
(0.944784 -0.0229713 5.38031e-18)
(0.962055 -0.0191689 1.67136e-18)
(0.970887 -0.0159393 1.48173e-18)
(0.983009 -0.0128115 2.49736e-18)
(0.987224 -0.0101832 1.22022e-17)
(0.995543 -0.00742428 1.39658e-17)
(0.996058 -0.00514788 1.21541e-17)
(1.00139 -0.0025941 5.28573e-18)
(0.998723 -0.000155069 4.03549e-18)
(0.194675 -0.293174 4.74555e-18)
(0.378009 -0.231942 6.59383e-19)
(0.520434 -0.186916 4.66493e-18)
(0.620936 -0.152126 4.81661e-18)
(0.704434 -0.125602 -1.79777e-18)
(0.763704 -0.10437 1.62729e-18)
(0.816232 -0.0875925 6.14861e-18)
(0.852829 -0.073778 -8.15162e-18)
(0.887595 -0.0624461 -8.48308e-18)
(0.910641 -0.0529281 -5.41697e-18)
(0.934453 -0.0447723 -5.06747e-18)
(0.94877 -0.0378483 -1.6648e-18)
(0.965381 -0.0315832 4.47353e-19)
(0.973653 -0.026262 -2.47799e-18)
(0.985232 -0.0211085 -1.10013e-17)
(0.988992 -0.016778 -9.93663e-18)
(0.996831 -0.0122323 -1.83454e-17)
(0.996951 -0.00848162 -8.1416e-18)
(1.00184 -0.00427393 -1.53392e-17)
(0.99875 -0.000255271 1.15149e-17)
(0.240331 -0.403396 7.45456e-18)
(0.414129 -0.319143 3.65585e-18)
(0.549543 -0.257189 4.50335e-18)
(0.644627 -0.209319 4.43913e-18)
(0.723994 -0.172824 2.35154e-18)
(0.779958 -0.143609 -1.01021e-17)
(0.829873 -0.120524 -6.33723e-18)
(0.864319 -0.101516 -8.44574e-18)
(0.897319 -0.0859232 -1.73796e-17)
(0.918883 -0.0728269 -2.03502e-18)
(0.941425 -0.0616049 -1.14297e-18)
(0.954664 -0.0520776 -9.55769e-18)
(0.9703 -0.0434571 9.85665e-18)
(0.977743 -0.0361354 8.95986e-19)
(0.988519 -0.0290443 3.91841e-18)
(0.991604 -0.0230858 -1.15023e-17)
(0.998736 -0.0168311 -7.69671e-18)
(0.998272 -0.0116703 6.26868e-18)
(1.0025 -0.00588063 1.39959e-17)
(0.998789 -0.000351131 2.96813e-18)
(0.299983 -0.506716 1.28267e-17)
(0.461322 -0.400884 7.41175e-18)
(0.587574 -0.323062 7.24319e-18)
(0.67558 -0.262931 1.14705e-17)
(0.74955 -0.217088 1.63334e-17)
(0.801194 -0.180391 1.04747e-17)
(0.847695 -0.151393 1.28443e-18)
(0.87933 -0.127516 9.48229e-18)
(0.910025 -0.10793 4.9843e-18)
(0.929652 -0.0914796 6.80562e-18)
(0.950535 -0.0773833 1.74601e-18)
(0.962365 -0.0654159 -1.08632e-17)
(0.976726 -0.0545874 4.89032e-18)
(0.983086 -0.0453905 1.4045e-17)
(0.992814 -0.0364832 -1.11619e-17)
(0.995018 -0.0289985 3.13865e-17)
(1.00122 -0.0211418 -1.48707e-17)
(0.999998 -0.0146592 1.42793e-17)
(1.00337 -0.00738673 -1.27247e-17)
(0.998841 -0.000440968 -1.78805e-18)
(0.37261 -0.601366 1.81398e-17)
(0.518781 -0.475766 1.48698e-17)
(0.633879 -0.383407 1.21576e-17)
(0.713265 -0.312044 -1.87715e-17)
(0.780665 -0.257638 2.9512e-18)
(0.827049 -0.214086 -4.09052e-19)
(0.869394 -0.179672 2.63915e-17)
(0.897607 -0.151335 1.3663e-18)
(0.925495 -0.128091 6.37054e-19)
(0.942764 -0.108567 -2.06504e-17)
(0.961626 -0.0918378 8.66566e-18)
(0.971741 -0.0776349 -5.17796e-18)
(0.98455 -0.0647838 2.75011e-18)
(0.989592 -0.0538689 -1.71364e-17)
(0.998043 -0.0432979 -5.2146e-22)
(0.999174 -0.0344151 5.80628e-18)
(1.00425 -0.0250909 -2.78666e-18)
(1.0021 -0.0173974 3.32625e-18)
(1.00443 -0.00876643 4.93906e-19)
(0.998905 -0.000523299 -2.50801e-17)
(0.45697 -0.685727 -6.18776e-18)
(0.585522 -0.542506 -1.1165e-17)
(0.687663 -0.437192 -9.39517e-18)
(0.757039 -0.355818 1.96701e-18)
(0.816807 -0.29378 2.80547e-18)
(0.857081 -0.244118 -1.94273e-18)
(0.894599 -0.204876 -5.54717e-18)
(0.918836 -0.172564 -1.03288e-17)
(0.943463 -0.146059 1.15404e-17)
(0.957994 -0.123797 -1.57864e-17)
(0.974509 -0.104721 -1.3153e-18)
(0.982632 -0.0885256 -2.43794e-17)
(0.993638 -0.0738717 -9.92793e-19)
(0.997149 -0.0614257 -4.08483e-17)
(1.00412 -0.0493717 -1.67387e-17)
(1.004 -0.0392428 -3.1273e-19)
(1.00777 -0.0286106 -8.67046e-18)
(1.00454 -0.0198378 -2.30455e-17)
(1.00566 -0.00999616 1.73776e-17)
(0.998978 -0.000596653 -2.50512e-17)
(0.551621 -0.758354 -8.869e-19)
(0.660403 -0.599965 -3.42102e-17)
(0.748008 -0.483496 -5.65408e-19)
(0.806152 -0.393504 5.02512e-18)
(0.857357 -0.324895 -1.82661e-17)
(0.890777 -0.269973 -4.62904e-18)
(0.922877 -0.226575 2.17527e-18)
(0.942655 -0.190841 2.30804e-18)
(0.963624 -0.161529 3.10224e-17)
(0.975081 -0.136909 -4.33976e-18)
(0.988964 -0.115812 1.77154e-17)
(0.994851 -0.0979016 -1.3939e-18)
(1.00383 -0.0816956 3.95715e-17)
(1.00563 -0.0679314 -1.59536e-17)
(1.01093 -0.0546008 2.14869e-17)
(1.00942 -0.0433991 3.26216e-17)
(1.01172 -0.0316408 -1.98744e-17)
(1.00728 -0.0219389 5.75471e-17)
(1.00704 -0.0110548 9.94348e-19)
(0.99906 -0.000659848 5.16539e-17)
(0.654941 -0.818006 3.77607e-18)
(0.742144 -0.647158 -5.80477e-18)
(0.813881 -0.521528 -5.57199e-18)
(0.859764 -0.424456 3.92099e-18)
(0.901622 -0.350451 1.1848e-17)
(0.927558 -0.291209 -1.16355e-17)
(0.953746 -0.244397 1.12377e-17)
(0.968656 -0.205853 4.67948e-18)
(0.985631 -0.174234 8.36337e-18)
(0.993734 -0.147678 2.85042e-17)
(1.00474 -0.124922 -1.52468e-17)
(1.00819 -0.105602 -3.32201e-17)
(1.01496 -0.0881217 3.20144e-17)
(1.01488 -0.0732748 -1.92628e-17)
(1.01837 -0.0588957 -2.4341e-18)
(1.01533 -0.0468128 -1.59375e-17)
(1.01603 -0.0341296 2.27636e-17)
(1.01027 -0.0236645 3.23393e-17)
(1.00854 -0.0119244 -2.65658e-17)
(0.99915 -0.00071172 2.74773e-17)
(0.765163 -0.863661 1.30523e-17)
(0.829345 -0.683278 -1.45359e-18)
(0.884154 -0.550636 4.62744e-19)
(0.916958 -0.448147 6.13191e-18)
(0.948843 -0.370011 5.65961e-18)
(0.966797 -0.307463 1.15022e-17)
(0.986678 -0.258038 5.74062e-18)
(0.996393 -0.217342 1.66558e-17)
(1.00911 -0.183959 -6.51482e-18)
(1.01363 -0.15592 -8.95689e-18)
(1.02157 -0.131894 -5.51599e-18)
(1.02242 -0.111496 -2.15259e-17)
(1.02684 -0.09304 -1.11675e-17)
(1.02476 -0.0773645 5.74828e-18)
(1.02631 -0.0621828 -2.782e-17)
(1.02164 -0.0494256 1.85719e-17)
(1.02063 -0.0360345 -5.3705e-17)
(1.01345 -0.0249854 5.3411e-19)
(1.01015 -0.0125899 -2.62771e-17)
(0.999246 -0.000751473 2.27881e-17)
(0.880401 -0.894539 -1.42815e-17)
(0.920515 -0.707707 -6.28973e-19)
(0.957626 -0.570322 5.03474e-18)
(0.976754 -0.464169 -3.48407e-18)
(0.998214 -0.38324 2.34134e-17)
(1.00782 -0.318455 -2.62927e-17)
(1.02111 -0.267263 -9.48701e-18)
(1.02539 -0.225112 -8.40786e-18)
(1.03365 -0.190536 -3.44733e-18)
(1.03444 -0.161495 -3.144e-17)
(1.03917 -0.13661 -6.87787e-19)
(1.0373 -0.115483 2.33457e-17)
(1.03925 -0.0963664 -4.99778e-18)
(1.03508 -0.0801304 -2.39256e-17)
(1.0346 -0.064406 -6.87535e-18)
(1.02823 -0.0511927 7.38158e-18)
(1.02544 -0.0373228 2.12006e-17)
(1.01679 -0.0258786 3.87421e-18)
(1.01183 -0.01304 1.37066e-17)
(0.999346 -0.000778324 -7.6797e-17)
(0.998684 -0.910111 -1.61688e-17)
(1.01409 -0.720026 -1.4353e-17)
(1.03304 -0.580251 -4.73367e-19)
(1.03813 -0.472249 4.84227e-18)
(1.04889 -0.389911 -1.26842e-17)
(1.04993 -0.323999 -7.65831e-18)
(1.05645 -0.271916 5.5668e-18)
(1.05516 -0.229031 -4.92883e-18)
(1.05885 -0.193853 1.96234e-17)
(1.05579 -0.164306 1.29771e-17)
(1.05724 -0.138988 1.06555e-18)
(1.05257 -0.117493 4.63538e-18)
(1.05199 -0.0980439 2.82952e-18)
(1.04567 -0.0815254 4.51413e-17)
(1.04312 -0.0655271 -2.60433e-17)
(1.035 -0.0520838 -1.27523e-18)
(1.03038 -0.0379725 -2.68446e-18)
(1.02021 -0.0263291 -3.96972e-18)
(1.01356 -0.013267 -1.87556e-17)
(0.999449 -0.000791923 3.11762e-17)
(1.11799 -0.910111 -7.18893e-18)
(1.10848 -0.720026 -1.50873e-17)
(1.1091 -0.580251 -3.07922e-18)
(1.10004 -0.472249 1.00153e-17)
(1.1 -0.389911 -2.3561e-17)
(1.0924 -0.323999 -5.92083e-18)
(1.09209 -0.271916 -4.8769e-18)
(1.08518 -0.229031 6.60783e-18)
(1.08426 -0.193853 1.86749e-17)
(1.07733 -0.164306 1.85227e-17)
(1.07546 -0.138988 1.75962e-18)
(1.06797 -0.117493 2.1541e-18)
(1.06485 -0.098044 -8.54826e-19)
(1.05636 -0.0815253 7.12231e-18)
(1.05171 -0.0655271 1.94751e-17)
(1.04183 -0.0520838 8.24919e-19)
(1.03535 -0.0379725 2.38196e-18)
(1.02366 -0.0263291 1.33149e-18)
(1.01529 -0.013267 1.73191e-17)
(0.999553 -0.000791915 5.26769e-19)
(1.23627 -0.894539 -1.3031e-17)
(1.20206 -0.707707 9.84176e-18)
(1.18451 -0.570322 -8.15556e-18)
(1.16141 -0.464169 -5.98223e-18)
(1.15068 -0.38324 1.31616e-18)
(1.13451 -0.318455 -5.35966e-18)
(1.12743 -0.267263 1.64935e-18)
(1.11495 -0.225112 -2.13428e-17)
(1.10945 -0.190536 -2.71319e-17)
(1.09868 -0.161495 5.04318e-18)
(1.09352 -0.136609 1.26268e-17)
(1.08324 -0.115483 1.30593e-17)
(1.07759 -0.0963664 -3.9851e-18)
(1.06696 -0.0801304 -1.87112e-17)
(1.06023 -0.0644059 3.03211e-18)
(1.0486 -0.0511927 3.43948e-18)
(1.04029 -0.0373227 2.40005e-17)
(1.02708 -0.0258786 1.01508e-18)
(1.01702 -0.01304 -9.97476e-18)
(0.999656 -0.000778428 3.31403e-17)
(1.35151 -0.863661 5.53125e-18)
(1.29323 -0.683278 2.96752e-18)
(1.25799 -0.550636 -9.89587e-18)
(1.22121 -0.448146 -1.63788e-18)
(1.20005 -0.370011 5.8218e-18)
(1.17554 -0.307462 1.62273e-17)
(1.16186 -0.258038 1.47568e-18)
(1.14395 -0.217342 6.94164e-18)
(1.134 -0.183959 -2.17976e-17)
(1.11949 -0.15592 7.95613e-18)
(1.11112 -0.131894 -8.33438e-19)
(1.09811 -0.111496 1.77884e-19)
(1.09 -0.09304 -2.56633e-17)
(1.07728 -0.0773644 6.85179e-19)
(1.06852 -0.0621827 -2.39671e-17)
(1.05519 -0.0494256 -2.70806e-17)
(1.0451 -0.0360344 -1.83675e-17)
(1.03042 -0.0249853 -2.30034e-17)
(1.0187 -0.0125899 1.1091e-17)
(0.999756 -0.000751554 -4.70224e-17)
(1.46173 -0.818005 2.25556e-18)
(1.38043 -0.647158 7.98379e-18)
(1.32826 -0.521527 -1.29072e-17)
(1.2784 -0.424456 -2.00116e-18)
(1.24727 -0.350451 3.34838e-18)
(1.21477 -0.291209 1.4304e-17)
(1.19479 -0.244397 -5.42516e-18)
(1.17169 -0.205852 3.02143e-19)
(1.15748 -0.174234 -7.18568e-18)
(1.13939 -0.147678 5.98471e-18)
(1.12795 -0.124922 -7.22534e-18)
(1.11234 -0.105602 2.34425e-17)
(1.10188 -0.0881216 -4.47775e-18)
(1.08715 -0.0732748 2.85094e-18)
(1.07646 -0.0588956 2.06699e-17)
(1.0615 -0.0468128 -1.93723e-17)
(1.0497 -0.0341295 1.55389e-17)
(1.03361 -0.0236646 -1.87005e-17)
(1.02031 -0.0119243 2.06322e-17)
(0.999852 -0.000711894 8.13784e-18)
(1.56505 -0.758354 -1.96603e-18)
(1.46217 -0.599965 -1.11476e-17)
(1.39413 -0.483496 2.8897e-18)
(1.33201 -0.393503 -4.33318e-18)
(1.29153 -0.324895 -1.23388e-17)
(1.25156 -0.269973 3.50296e-18)
(1.22566 -0.226575 -9.68587e-19)
(1.19769 -0.190841 3.0958e-18)
(1.17948 -0.161529 2.0753e-17)
(1.15804 -0.136908 -1.06007e-17)
(1.14373 -0.115812 -7.36487e-18)
(1.12568 -0.0979014 2.52877e-17)
(1.11301 -0.0816955 2.64368e-18)
(1.09641 -0.0679313 2.78222e-17)
(1.0839 -0.0546007 -1.84305e-18)
(1.06741 -0.043399 1.34971e-17)
(1.05401 -0.0316407 1.72933e-17)
(1.0366 -0.0219389 -6.51164e-18)
(1.02181 -0.0110548 3.44348e-18)
(0.999942 -0.000659976 -3.77771e-18)
(1.6597 -0.685726 -5.06053e-18)
(1.53705 -0.542506 -2.45171e-18)
(1.45448 -0.437191 -3.49144e-18)
(1.38113 -0.355817 3.62275e-18)
(1.33208 -0.29378 -5.4879e-18)
(1.28525 -0.244118 1.54784e-18)
(1.25394 -0.204876 7.67234e-20)
(1.22151 -0.172564 -1.03872e-18)
(1.19964 -0.146059 -1.0179e-17)
(1.17513 -0.123797 1.13115e-18)
(1.15818 -0.104721 -3.0134e-18)
(1.1379 -0.0885254 -4.13967e-18)
(1.1232 -0.0738715 -1.70558e-17)
(1.10489 -0.0614256 2.68449e-18)
(1.09071 -0.0493716 -8.80853e-18)
(1.07283 -0.0392428 -2.35311e-18)
(1.05796 -0.0286105 5.59113e-19)
(1.03933 -0.0198378 -1.44964e-17)
(1.02319 -0.00999609 2.58881e-17)
(1.00002 -0.00059684 -2.23923e-17)
(1.74406 -0.601366 7.35573e-18)
(1.60379 -0.475765 6.62156e-18)
(1.50826 -0.383407 4.33241e-18)
(1.4249 -0.312043 -7.37498e-18)
(1.36822 -0.257638 -8.76891e-19)
(1.31528 -0.214086 4.08638e-18)
(1.27915 -0.179671 6.11826e-18)
(1.24273 -0.151335 -1.87628e-19)
(1.21761 -0.12809 -9.86095e-18)
(1.19036 -0.108567 6.71054e-19)
(1.17107 -0.0918376 2.32873e-18)
(1.14879 -0.0776347 1.26343e-18)
(1.13229 -0.0647836 -2.80572e-18)
(1.11244 -0.0538688 -1.285e-18)
(1.09679 -0.0432978 1.2421e-17)
(1.07766 -0.034415 1.8086e-18)
(1.06148 -0.0250908 1.14451e-17)
(1.04177 -0.0173973 -4.96053e-18)
(1.02442 -0.00876639 -1.58562e-17)
(1.0001 -0.000523409 3.8877e-18)
(1.81669 -0.506716 3.97844e-18)
(1.66125 -0.400884 3.79366e-18)
(1.55457 -0.323062 2.63385e-18)
(1.46259 -0.26293 2.64217e-18)
(1.39934 -0.217088 4.75915e-18)
(1.34114 -0.18039 4.51958e-18)
(1.30084 -0.151393 -2.29581e-18)
(1.26101 -0.127516 3.52425e-18)
(1.23308 -0.10793 2.63914e-18)
(1.20347 -0.0914794 3.73357e-18)
(1.18216 -0.0773831 -4.81075e-18)
(1.15817 -0.0654157 3.55471e-18)
(1.14012 -0.0545872 -2.1646e-19)
(1.11895 -0.0453904 5.12126e-18)
(1.10201 -0.0364831 -2.36271e-18)
(1.08182 -0.0289984 1.24522e-19)
(1.06451 -0.0211417 6.93726e-18)
(1.04387 -0.0146592 -4.4634e-18)
(1.02548 -0.00738661 3.88466e-18)
(1.00016 -0.000441098 1.17474e-18)
(1.87634 -0.403396 2.61015e-18)
(1.70844 -0.319143 2.406e-18)
(1.5926 -0.257189 1.6569e-18)
(1.49354 -0.209319 1.46506e-18)
(1.4249 -0.172823 1.49404e-18)
(1.36238 -0.143608 -3.13126e-18)
(1.31867 -0.120523 -1.24109e-18)
(1.27602 -0.101515 -3.42903e-18)
(1.24579 -0.085923 -1.14342e-18)
(1.21424 -0.0728266 1.12105e-18)
(1.19127 -0.0616047 -6.78307e-19)
(1.16587 -0.0520774 3.78804e-18)
(1.14654 -0.0434569 -1.01891e-18)
(1.12429 -0.0361352 3.33659e-18)
(1.10631 -0.0290442 1.10133e-17)
(1.08523 -0.0230856 -2.47695e-18)
(1.06699 -0.016831 1.26191e-18)
(1.0456 -0.0116702 -8.08628e-19)
(1.02635 -0.00588054 -1.45211e-19)
(1.00021 -0.000351152 -2.69066e-18)
(1.922 -0.293173 1.23593e-18)
(1.74456 -0.231941 1.53231e-18)
(1.62171 -0.186916 9.66677e-19)
(1.51723 -0.152125 2.18558e-18)
(1.44446 -0.125602 1.30841e-18)
(1.37863 -0.10437 -1.62063e-18)
(1.33231 -0.0875921 1.79804e-19)
(1.28751 -0.0737777 -2.34096e-18)
(1.25551 -0.0624457 -1.55781e-18)
(1.22248 -0.0529279 -6.04629e-19)
(1.19824 -0.0447721 3.23776e-19)
(1.17176 -0.0378481 -1.09205e-19)
(1.15146 -0.031583 -4.05621e-20)
(1.12838 -0.0262619 1.23955e-18)
(1.1096 -0.0211083 1.20285e-18)
(1.08784 -0.0167779 -2.40856e-18)
(1.0689 -0.0122322 -2.87604e-18)
(1.04692 -0.00848154 -2.17775e-18)
(1.02701 -0.00427376 2.16123e-18)
(1.00025 -0.000255274 -2.96167e-18)
(1.95287 -0.177935 1.23228e-18)
(1.76899 -0.140772 9.96656e-19)
(1.64139 -0.113444 5.75198e-19)
(1.53325 -0.0923289 2.81699e-19)
(1.45768 -0.0762312 2.50051e-19)
(1.38962 -0.0633447 -7.89214e-19)
(1.34153 -0.0531621 -1.03488e-19)
(1.29528 -0.0447778 -6.10295e-19)
(1.26209 -0.0379002 4.61659e-20)
(1.22805 -0.0321234 1.55444e-18)
(1.20296 -0.0271735 3.56955e-19)
(1.17575 -0.0229711 1.04196e-18)
(1.15479 -0.0191687 6.08998e-19)
(1.13115 -0.0159391 1.23202e-18)
(1.11182 -0.0128114 1.50417e-18)
(1.08961 -0.010183 1.19152e-18)
(1.07019 -0.00742415 1.34327e-18)
(1.04781 -0.00514772 1.66006e-18)
(1.02746 -0.00259394 1.01502e-18)
(1.00028 -0.000154938 6.41616e-19)
(1.96845 -0.0596518 4.4748e-19)
(1.78131 -0.0471931 5.50861e-19)
(1.65132 -0.0380317 2.54011e-19)
(1.54133 -0.030953 2.40587e-19)
(1.46436 -0.0255563 2.46527e-19)
(1.39516 -0.0212362 -3.0237e-19)
(1.34618 -0.0178225 1.11886e-19)
(1.2992 -0.0150117 -2.99408e-19)
(1.26541 -0.012706 2.49958e-19)
(1.23087 -0.0107695 9.54817e-19)
(1.20533 -0.00910998 8.31603e-19)
(1.17776 -0.00770121 8.99754e-19)
(1.15646 -0.0064264 6.00828e-19)
(1.13254 -0.00534376 1.17301e-18)
(1.11294 -0.00429511 1.29595e-18)
(1.0905 -0.00341403 1.03911e-18)
(1.07084 -0.00248903 1.43382e-18)
(1.04827 -0.00172591 1.60962e-18)
(1.02769 -0.000869657 8.08699e-19)
(1.00029 -5.20269e-05 1.13745e-18)
(1.96845 0.0596518 -4.29984e-19)
(1.78131 0.047193 1.64924e-19)
(1.65132 0.0380315 -7.69502e-20)
(1.54133 0.0309527 3.2694e-19)
(1.46436 0.0255559 1.92071e-19)
(1.39516 0.0212358 1.89618e-20)
(1.34618 0.017822 1.47711e-19)
(1.2992 0.0150112 -1.46623e-19)
(1.26541 0.0127054 3.27767e-19)
(1.23087 0.0107689 6.42508e-19)
(1.20533 0.00910936 8.6385e-19)
(1.17776 0.00770056 7.47086e-19)
(1.15646 0.00642578 6.11329e-19)
(1.13254 0.00534313 1.09856e-18)
(1.11294 0.00429454 1.2371e-18)
(1.0905 0.00341348 6.35412e-19)
(1.07084 0.00248859 1.06262e-18)
(1.04827 0.00172552 7.41543e-19)
(1.02769 0.000869422 6.79871e-19)
(1.00029 5.18639e-05 8.18205e-19)
(1.95287 0.177935 -1.45287e-18)
(1.76899 0.140771 -1.48016e-19)
(1.64139 0.113444 -5.23551e-19)
(1.53325 0.0923287 4.05023e-19)
(1.45768 0.0762309 3.03643e-19)
(1.38962 0.0633443 1.32365e-19)
(1.34153 0.0531617 2.15332e-19)
(1.29528 0.0447772 -7.70591e-21)
(1.26209 0.0378996 6.21207e-19)
(1.22805 0.0321228 4.99502e-19)
(1.20296 0.0271729 8.70954e-19)
(1.17575 0.0229705 7.36836e-19)
(1.15479 0.0191681 8.06057e-19)
(1.13115 0.0159385 1.07094e-18)
(1.11182 0.0128108 1.57291e-18)
(1.08961 0.0101825 5.46518e-19)
(1.07019 0.00742371 7.28605e-19)
(1.04781 0.00514733 4.52042e-20)
(1.02746 0.00259371 8.85795e-19)
(1.00028 0.000154791 3.84472e-19)
(1.922 0.293173 -1.52564e-18)
(1.74456 0.231941 -4.71477e-19)
(1.62171 0.186915 -1.08337e-18)
(1.51723 0.152125 -1.20907e-18)
(1.44445 0.125601 -4.0859e-19)
(1.37863 0.104369 5.93377e-20)
(1.33231 0.0875916 -1.13398e-18)
(1.28751 0.0737772 2.09298e-18)
(1.25551 0.0624452 2.78386e-18)
(1.22248 0.0529272 1.87721e-18)
(1.19824 0.0447715 1.99647e-18)
(1.17176 0.0378474 2.13559e-18)
(1.15146 0.0315823 5.83084e-19)
(1.12838 0.0262613 1.34498e-18)
(1.1096 0.0211078 3.13398e-18)
(1.08784 0.0167774 3.14027e-18)
(1.0689 0.0122317 5.34848e-18)
(1.04692 0.00848116 2.01649e-18)
(1.02701 0.00427353 2.88008e-18)
(1.00025 0.000255157 -8.68254e-19)
(1.87634 0.403396 -2.84269e-18)
(1.70844 0.319143 -1.3487e-18)
(1.5926 0.257189 -1.24332e-18)
(1.49354 0.209318 -1.16954e-18)
(1.4249 0.172823 -1.87641e-18)
(1.36237 0.143608 2.11085e-18)
(1.31867 0.120523 6.42763e-19)
(1.27602 0.101515 1.08784e-18)
(1.24579 0.0859223 3.36865e-18)
(1.21424 0.0728259 2.15219e-19)
(1.19127 0.061604 3.88446e-19)
(1.16587 0.0520767 3.69356e-18)
(1.14654 0.0434563 -1.58166e-18)
(1.12429 0.0361346 2.99863e-19)
(1.10631 0.0290436 -7.27628e-19)
(1.08523 0.0230851 1.27649e-18)
(1.06699 0.0168305 2.36442e-18)
(1.0456 0.0116698 -2.62836e-18)
(1.02635 0.00588032 -3.25481e-18)
(1.00021 0.000351082 7.41094e-19)
(1.81669 0.506715 -4.76458e-18)
(1.66125 0.400883 -2.24832e-18)
(1.55457 0.323061 -2.00177e-18)
(1.46259 0.26293 -2.29364e-18)
(1.39934 0.217087 -5.48518e-18)
(1.34114 0.18039 -3.18426e-18)
(1.30084 0.151392 -2.10405e-18)
(1.26101 0.127515 -3.83002e-18)
(1.23308 0.107929 -3.13169e-18)
(1.20347 0.0914787 -1.8176e-18)
(1.18216 0.0773824 -5.66843e-19)
(1.15817 0.065415 4.01065e-18)
(1.14012 0.0545866 -3.19493e-19)
(1.11895 0.0453897 -2.0298e-18)
(1.10201 0.0364825 3.73018e-18)
(1.08182 0.0289979 -1.01096e-17)
(1.06451 0.0211413 4.73484e-18)
(1.04387 0.0146588 -4.80743e-18)
(1.02548 0.0073864 4.00934e-18)
(1.00016 0.000441081 2.14953e-18)
(1.74406 0.601365 -6.53565e-18)
(1.60379 0.475765 -3.8308e-18)
(1.50826 0.383406 -3.38414e-18)
(1.4249 0.312043 8.19707e-18)
(1.36822 0.257637 -7.96821e-19)
(1.31528 0.214085 1.37803e-18)
(1.27914 0.179671 -9.66924e-18)
(1.24273 0.151334 -2.67472e-19)
(1.21761 0.12809 -1.70051e-18)
(1.19036 0.108566 7.65284e-18)
(1.17107 0.0918368 -3.14547e-18)
(1.14879 0.077634 2.84363e-18)
(1.13229 0.0647829 -7.95477e-19)
(1.11244 0.0538681 9.81289e-18)
(1.09679 0.0432972 6.87603e-20)
(1.07766 0.0344144 -1.40159e-18)
(1.06148 0.0250904 7.93159e-19)
(1.04177 0.017397 -1.49966e-18)
(1.02442 0.00876619 -1.64018e-18)
(1.0001 0.000523458 8.55021e-18)
(1.6597 0.685726 3.0666e-18)
(1.53705 0.542506 7.58794e-18)
(1.45448 0.437191 5.01976e-18)
(1.38113 0.355817 -1.13262e-18)
(1.33208 0.293779 -7.72915e-19)
(1.28525 0.244117 2.13452e-18)
(1.25394 0.204875 3.43785e-18)
(1.2215 0.172563 4.03421e-18)
(1.19964 0.146058 -7.13805e-18)
(1.17513 0.123796 4.69322e-18)
(1.15818 0.10472 -4.84488e-19)
(1.1379 0.0885247 1.10319e-17)
(1.1232 0.0738708 -2.28513e-18)
(1.10489 0.0614249 1.84273e-17)
(1.09071 0.049371 4.85415e-18)
(1.07283 0.0392422 -2.01498e-18)
(1.05796 0.0286101 2.818e-18)
(1.03933 0.0198375 6.15524e-18)
(1.02319 0.0099959 -8.94364e-18)
(1.00003 0.000596955 5.82605e-18)
(1.56505 0.758353 -6.48343e-19)
(1.46217 0.599964 1.80641e-17)
(1.39413 0.483495 -4.7006e-19)
(1.33201 0.393503 -2.93792e-18)
(1.29153 0.324894 9.1458e-18)
(1.25156 0.269972 3.41392e-18)
(1.22566 0.226574 -1.59787e-18)
(1.19769 0.19084 -2.61587e-18)
(1.17948 0.161528 -1.71341e-17)
(1.15804 0.136908 -1.53667e-19)
(1.14373 0.115811 -9.02115e-18)
(1.12568 0.0979006 1.31389e-18)
(1.11301 0.0816947 -2.347e-17)
(1.09641 0.0679306 6.3647e-18)
(1.0839 0.0546001 -1.30279e-17)
(1.06741 0.0433985 -1.84173e-17)
(1.05401 0.0316403 8.75144e-18)
(1.0366 0.0219385 -3.33021e-17)
(1.02181 0.0110546 1.72094e-18)
(0.999943 0.000660164 -3.00764e-17)
(1.46173 0.818005 -3.80007e-18)
(1.38043 0.647157 1.47355e-18)
(1.32826 0.521527 2.19604e-18)
(1.2784 0.424455 -2.42075e-18)
(1.24727 0.35045 -8.52212e-18)
(1.21477 0.291208 7.02895e-18)
(1.19479 0.244396 -6.35089e-18)
(1.17169 0.205852 -3.36338e-18)
(1.15748 0.174233 -3.93829e-18)
(1.13939 0.147677 -1.59804e-17)
(1.12795 0.124921 1.13732e-17)
(1.11234 0.105601 2.0281e-17)
(1.10188 0.0881208 -1.85517e-17)
(1.08715 0.073274 1.02385e-17)
(1.07646 0.0588949 2.48556e-18)
(1.0615 0.0468122 9.85055e-18)
(1.0497 0.0341291 -1.24803e-17)
(1.03361 0.0236643 -1.50023e-17)
(1.02031 0.0119242 2.04912e-17)
(0.999853 0.000712146 -1.37183e-17)
(1.35151 0.863661 -8.97031e-18)
(1.29323 0.683277 -9.18733e-20)
(1.25798 0.550635 -1.17653e-18)
(1.22121 0.448146 -3.35964e-18)
(1.20005 0.37001 -4.07915e-18)
(1.17554 0.307462 -7.11871e-18)
(1.16186 0.258037 -1.38921e-18)
(1.14395 0.217341 -1.0616e-17)
(1.134 0.183958 5.53816e-18)
(1.11949 0.155919 9.90327e-18)
(1.11112 0.131893 3.3035e-18)
(1.09811 0.111495 9.56068e-18)
(1.09 0.0930391 7.51575e-18)
(1.07728 0.0773636 -6.04854e-18)
(1.06852 0.062182 1.77525e-17)
(1.05519 0.049425 -1.5117e-17)
(1.0451 0.036034 3.78444e-17)
(1.03042 0.024985 2.97169e-18)
(1.0187 0.0125897 1.78076e-17)
(0.999757 0.000751872 -9.61606e-18)
(1.23627 0.894539 1.30609e-17)
(1.20206 0.707706 5.37772e-19)
(1.18451 0.570322 -3.52098e-18)
(1.16141 0.464168 4.38754e-18)
(1.15068 0.383239 -1.69673e-17)
(1.13451 0.318454 2.2558e-17)
(1.12743 0.267262 9.15267e-18)
(1.11495 0.225111 8.39379e-18)
(1.10945 0.190535 1.71783e-18)
(1.09868 0.161494 2.30594e-17)
(1.09352 0.136608 -2.31103e-18)
(1.08324 0.115482 -2.43709e-17)
(1.07759 0.0963655 2.37702e-19)
(1.06696 0.0801296 1.42161e-17)
(1.06022 0.0644052 1.99942e-18)
(1.0486 0.0511921 -6.80046e-18)
(1.04029 0.0373223 -2.11271e-17)
(1.02708 0.0258783 -3.50762e-18)
(1.01702 0.0130398 -1.36094e-17)
(0.999657 0.000778794 6.19832e-17)
(1.11799 0.910111 1.45018e-17)
(1.10848 0.720026 1.29817e-17)
(1.1091 0.58025 2.02083e-18)
(1.10003 0.472248 -3.80824e-18)
(1.1 0.38991 1.54611e-17)
(1.0924 0.323998 5.5299e-18)
(1.09209 0.271915 -5.25766e-18)
(1.08518 0.22903 4.79902e-18)
(1.08426 0.193852 -1.8383e-17)
(1.07733 0.164305 -1.7298e-17)
(1.07546 0.138987 -4.18312e-18)
(1.06797 0.117492 -6.00164e-18)
(1.06485 0.098043 -4.46683e-18)
(1.05636 0.0815245 -4.50297e-17)
(1.05171 0.0655264 1.92201e-17)
(1.04183 0.0520832 3.13349e-19)
(1.03535 0.037972 1.19757e-18)
(1.02366 0.0263288 3.04836e-18)
(1.01529 0.0132668 1.45615e-17)
(0.999554 0.000792323 -3.64832e-17)
(0.998684 0.910111 6.26661e-18)
(1.01409 0.720026 1.31393e-17)
(1.03304 0.58025 4.8396e-18)
(1.03813 0.472248 -9.84682e-18)
(1.04889 0.38991 2.48119e-17)
(1.04993 0.323998 3.79728e-18)
(1.05645 0.271915 4.99936e-18)
(1.05516 0.22903 -4.20183e-18)
(1.05885 0.193852 -1.37806e-17)
(1.05579 0.164305 -2.00692e-17)
(1.05724 0.138987 -3.75981e-18)
(1.05256 0.117492 -4.1891e-18)
(1.05199 0.098043 2.67033e-18)
(1.04567 0.0815245 -3.76228e-18)
(1.04312 0.0655263 -2.23808e-17)
(1.035 0.0520832 -1.43938e-19)
(1.03038 0.037972 -4.6496e-18)
(1.02021 0.0263288 -9.75837e-19)
(1.01356 0.0132668 -2.01446e-17)
(0.99945 0.000792348 -3.28995e-18)
(0.880401 0.894539 1.4105e-17)
(0.920515 0.707706 -1.46613e-17)
(0.957625 0.570321 1.09975e-17)
(0.976753 0.464168 7.47703e-18)
(0.998213 0.383239 -4.78732e-18)
(1.00782 0.318454 2.17577e-18)
(1.02111 0.267262 -3.65089e-18)
(1.02539 0.225111 2.70473e-17)
(1.03365 0.190535 3.83591e-17)
(1.03444 0.161493 -4.42087e-18)
(1.03917 0.136608 -1.50482e-17)
(1.0373 0.115482 -1.7618e-17)
(1.03925 0.0963655 8.2248e-18)
(1.03508 0.0801296 2.17545e-17)
(1.0346 0.0644052 4.80919e-19)
(1.02823 0.051192 7.78373e-19)
(1.02544 0.0373223 -2.76569e-17)
(1.01679 0.0258783 3.43079e-18)
(1.01183 0.0130398 1.20459e-17)
(0.999347 0.000778754 -3.55452e-17)
(0.765162 0.86366 -8.77275e-18)
(0.829345 0.683277 -4.70512e-18)
(0.884154 0.550635 1.3683e-17)
(0.916957 0.448145 1.22674e-18)
(0.948843 0.37001 -9.27868e-18)
(0.966797 0.307461 -2.55604e-17)
(0.986677 0.258037 -2.65696e-18)
(0.996393 0.217341 -1.20643e-17)
(1.00911 0.183958 2.85913e-17)
(1.01363 0.155919 -9.73529e-18)
(1.02157 0.131893 2.84259e-18)
(1.02242 0.111495 -4.28973e-18)
(1.02684 0.093039 3.47356e-17)
(1.02476 0.0773636 -9.45822e-18)
(1.02631 0.0621819 2.94967e-17)
(1.02164 0.0494249 3.68088e-17)
(1.02063 0.0360339 2.319e-17)
(1.01345 0.024985 3.30986e-17)
(1.01015 0.0125897 -2.09384e-17)
(0.999246 0.000751879 6.7706e-17)
(0.65494 0.818005 -2.08567e-18)
(0.742144 0.647157 -1.14424e-17)
(0.813881 0.521527 1.80671e-17)
(0.859764 0.424455 2.02695e-18)
(0.901621 0.35045 -3.03662e-18)
(0.927558 0.291208 -2.12888e-17)
(0.953746 0.244396 8.3241e-18)
(0.968655 0.205851 -1.57505e-18)
(0.98563 0.174233 6.73577e-18)
(0.993733 0.147677 -7.42136e-18)
(1.00474 0.124921 1.32501e-17)
(1.00819 0.105601 -4.07589e-17)
(1.01496 0.0881207 3.10771e-18)
(1.01488 0.0732739 -1.48014e-17)
(1.01837 0.0588948 -3.86729e-17)
(1.01533 0.0468121 2.07818e-17)
(1.01603 0.034129 -3.413e-17)
(1.01027 0.0236642 2.37821e-17)
(1.00854 0.0119241 -3.62918e-17)
(0.99915 0.000712084 -1.85096e-17)
(0.55162 0.758353 5.34798e-18)
(0.660403 0.599964 2.15347e-17)
(0.748008 0.483495 -8.62003e-18)
(0.806152 0.393502 4.92238e-18)
(0.857357 0.324894 2.43112e-17)
(0.890776 0.269972 -4.07857e-18)
(0.922877 0.226574 5.09467e-19)
(0.942655 0.19084 -5.46655e-18)
(0.963623 0.161527 -3.75016e-17)
(0.975081 0.136907 2.00735e-17)
(0.988963 0.115811 1.48376e-17)
(0.99485 0.0979005 -4.01019e-17)
(1.00383 0.0816945 -1.07698e-18)
(1.00563 0.0679305 -5.12989e-17)
(1.01093 0.0545999 7.02593e-18)
(1.00942 0.0433984 -2.84842e-17)
(1.01172 0.0316402 -3.32181e-17)
(1.00728 0.0219385 8.33978e-18)
(1.00704 0.0110545 -6.65579e-18)
(0.99906 0.000660141 8.60546e-18)
(0.45697 0.685725 1.01657e-17)
(0.585521 0.542505 2.01321e-18)
(0.687663 0.437191 5.00213e-18)
(0.757039 0.355816 -1.10063e-17)
(0.816807 0.293779 9.62869e-18)
(0.857081 0.244117 -3.70522e-18)
(0.894598 0.204875 -1.00026e-18)
(0.918836 0.172563 3.3783e-18)
(0.943463 0.146058 2.64424e-17)
(0.957993 0.123796 -4.71646e-18)
(0.974509 0.10472 5.20487e-18)
(0.982632 0.0885245 1.56869e-17)
(0.993637 0.0738706 3.9962e-17)
(0.997148 0.0614247 1.8494e-18)
(1.00412 0.0493709 1.93621e-17)
(1.004 0.0392421 7.99526e-18)
(1.00777 0.02861 6.88779e-19)
(1.00454 0.0198374 3.11183e-17)
(1.00566 0.0099958 -5.0147e-17)
(0.998978 0.000596856 4.65138e-17)
(0.37261 0.601365 -1.91794e-17)
(0.51878 0.475764 -1.87881e-17)
(0.633878 0.383406 -1.37121e-17)
(0.713265 0.312043 1.60524e-17)
(0.780665 0.257637 -9.39513e-19)
(0.827049 0.214085 -1.07532e-17)
(0.869394 0.17967 -1.41464e-17)
(0.897607 0.151334 -3.10653e-19)
(0.925494 0.128089 2.01391e-17)
(0.942763 0.108566 -3.36064e-18)
(0.961626 0.0918366 -6.76774e-18)
(0.971741 0.0776338 -4.79978e-18)
(0.984549 0.0647827 2.55987e-18)
(0.989592 0.053868 5.32922e-18)
(0.998042 0.043297 -3.21335e-17)
(0.999174 0.0344143 -1.71655e-18)
(1.00425 0.0250902 -2.96608e-17)
(1.0021 0.0173969 1.24969e-17)
(1.00443 0.00876602 4.66379e-17)
(0.998905 0.000523386 -1.48337e-17)
(0.299982 0.506715 -7.513e-18)
(0.461322 0.400883 -8.73698e-18)
(0.587574 0.323061 -7.29215e-18)
(0.675579 0.26293 -1.2582e-17)
(0.74955 0.217087 -1.55589e-17)
(0.801194 0.180389 -1.00762e-17)
(0.847695 0.151392 1.11754e-17)
(0.87933 0.127515 -9.26968e-18)
(0.910025 0.107929 -1.37395e-17)
(0.929652 0.0914784 -1.15396e-17)
(0.950534 0.0773822 1.52813e-17)
(0.962365 0.0654148 -1.17035e-17)
(0.976725 0.0545864 2.58991e-19)
(0.983086 0.0453895 -1.44122e-17)
(0.992813 0.0364823 1.16136e-17)
(0.995018 0.0289977 6.25369e-18)
(1.00122 0.0211411 -1.45173e-17)
(0.999997 0.0146586 1.50959e-17)
(1.00337 0.00738626 -1.75561e-17)
(0.998841 0.000440923 -4.93905e-20)
(0.240331 0.403395 -3.59364e-18)
(0.414129 0.319142 -4.51473e-18)
(0.549543 0.257188 -3.38869e-18)
(0.644627 0.209318 -5.83404e-18)
(0.723994 0.172822 -2.91287e-18)
(0.779958 0.143608 1.69291e-17)
(0.829873 0.120522 4.51738e-18)
(0.864318 0.101514 1.68032e-17)
(0.897319 0.085922 5.49088e-18)
(0.918883 0.0728257 -1.87636e-18)
(0.941425 0.0616037 1.97257e-19)