/*--------------------------------*- C++ -*----------------------------------*\
| =========                 |                                                 |
| \\      /  F ield         | OpenFOAM: The Open Source CFD Toolbox           |
|  \\    /   O peration     | Version:  2.2.0                                 |
|   \\  /    A nd           | Web:      www.OpenFOAM.org                      |
|    \\/     M anipulation  |                                                 |
\*---------------------------------------------------------------------------*/
FoamFile
{
    version     2.0;
    format      ascii;
    class       volVectorField;
    location    "1.1";
    object      s;
}
// * * * * * * * * * * * * * * * * * * * * * * * * * * * * * * * * * * * * * //

dimensions      [0 1 -1 0 0 0 0];

internalField   nonuniform List<vector> 
1600
(
(1.89866 0.0746004 0)
(1.60006 0.0628668 0)
(1.37737 0.054117 0)
(1.20455 0.0473269 0)
(1.0662 0.0418909 0)
(0.952598 0.0374275 0)
(0.8574 0.0336872 0)
(0.77627 0.0304996 0)
(0.70615 0.0277446 0)
(0.644829 0.0253352 0)
(0.590665 0.0232072 0)
(0.542419 0.0213116 0)
(0.499138 0.0196111 0)
(0.460076 0.0180764 0)
(0.424645 0.0166843 0)
(0.392372 0.0154163 0)
(0.362877 0.0142574 0)
(0.335846 0.0131954 0)
(0.311012 0.0122197 0)
(0.288435 0.0113326 0)
(1.88695 0.223339 0)
(1.59019 0.188213 0)
(1.36888 0.162018 0)
(1.19713 0.141689 0)
(1.05962 0.125415 0)
(0.946725 0.112052 0)
(0.852114 0.100854 0)
(0.771484 0.091311 0)
(0.701796 0.083063 0)
(0.640853 0.0758499 0)
(0.587023 0.0694787 0)
(0.539075 0.0638037 0)
(0.49606 0.0587126 0)
(0.457239 0.0541178 0)
(0.422027 0.0499501 0)
(0.389953 0.046154 0)
(0.36064 0.0426845 0)
(0.333775 0.0395048 0)
(0.309095 0.0365838 0)
(0.286657 0.0339281 0)
(1.86361 0.370699 0)
(1.57052 0.312398 0)
(1.35195 0.268919 0)
(1.18232 0.235178 0)
(1.04652 0.208166 0)
(0.935015 0.185986 0)
(0.841575 0.1674 0)
(0.761941 0.15156 0)
(0.693116 0.137869 0)
(0.632926 0.125897 0)
(0.579762 0.115322 0)
(0.532407 0.105902 0)
(0.489925 0.097452 0)
(0.451584 0.0898256 0)
(0.416807 0.0829079 0)
(0.38513 0.0766071 0)
(0.356179 0.0708484 0)
(0.329647 0.0655707 0)
(0.305272 0.0607223 0)
(0.283111 0.0563143 0)
(1.82877 0.515773 0)
(1.54117 0.434657 0)
(1.32668 0.374163 0)
(1.16022 0.327217 0)
(1.02696 0.289633 0)
(0.91754 0.258773 0)
(0.825846 0.232913 0)
(0.747701 0.210874 0)
(0.680162 0.191826 0)
(0.621097 0.175168 0)
(0.568927 0.160454 0)
(0.522457 0.147348 0)
(0.480768 0.135591 0)
(0.443144 0.12498 0)
(0.409017 0.115355 0)
(0.377932 0.106588 0)
(0.349523 0.0985755 0)
(0.323486 0.0912324 0)
(0.299566 0.0844864 0)
(0.27782 0.0783534 0)
(1.78267 0.657666 0)
(1.50231 0.554235 0)
(1.29323 0.4771 0)
(1.13097 0.417238 0)
(1.00107 0.369314 0)
(0.894409 0.329965 0)
(0.805026 0.29699 0)
(0.728851 0.268887 0)
(0.663015 0.244599 0)
(0.605439 0.223358 0)
(0.554584 0.204597 0)
(0.509286 0.187885 0)
(0.468648 0.172893 0)
(0.431972 0.159363 0)
(0.398705 0.14709 0)
(0.368404 0.135911 0)
(0.340711 0.125695 0)
(0.31533 0.116331 0)
(0.292014 0.10773 0)
(0.270816 0.0999093 0)
(1.72557 0.795504 0)
(1.4542 0.670396 0)
(1.25181 0.577095 0)
(1.09475 0.504687 0)
(0.969008 0.446719 0)
(0.865763 0.399122 0)
(0.779243 0.359236 0)
(0.705508 0.325244 0)
(0.64178 0.295865 0)
(0.586048 0.270172 0)
(0.536822 0.247478 0)
(0.492974 0.227264 0)
(0.453638 0.20913 0)
(0.418137 0.192764 0)
(0.385936 0.177919 0)
(0.356605 0.164397 0)
(0.329799 0.152039 0)
(0.305231 0.140713 0)
(0.282661 0.130309 0)
(0.262142 0.120849 0)
(1.65784 0.928438 0)
(1.39712 0.782424 0)
(1.20268 0.673531 0)
(1.05178 0.589025 0)
(0.930971 0.521369 0)
(0.831779 0.465819 0)
(0.748656 0.419267 0)
(0.677815 0.379595 0)
(0.616588 0.345306 0)
(0.563044 0.31532 0)
(0.51575 0.288834 0)
(0.473624 0.265242 0)
(0.435832 0.244077 0)
(0.401724 0.224976 0)
(0.370787 0.20765 0)
(0.342607 0.191869 0)
(0.316853 0.177446 0)
(0.29325 0.164228 0)
(0.271566 0.152084 0)
(0.251853 0.141044 0)
(1.57988 1.05565 0)
(1.33142 0.889629 0)
(1.14612 0.765816 0)
(1.00232 0.66973 0)
(0.887195 0.592805 0)
(0.792667 0.529644 0)
(0.713452 0.476714 0)
(0.645942 0.431605 0)
(0.587595 0.392619 0)
(0.536569 0.358524 0)
(0.491499 0.328409 0)
(0.451353 0.301584 0)
(0.415338 0.27752 0)
(0.382834 0.255802 0)
(0.353351 0.236102 0)
(0.326497 0.218158 0)
(0.301954 0.201759 0)
(0.279461 0.18673 0)
(0.258796 0.172922 0)
(0.24001 0.16037 0)
(1.49219 1.17635 0)
(1.25752 0.991348 0)
(1.0825 0.853378 0)
(0.946685 0.746307 0)
(0.837949 0.660586 0)
(0.748668 0.590203 0)
(0.67385 0.531221 0)
(0.610088 0.480955 0)
(0.554979 0.43751 0)
(0.506785 0.399517 0)
(0.464217 0.365959 0)
(0.4263 0.336067 0)
(0.392284 0.309251 0)
(0.361584 0.28505 0)
(0.333738 0.263098 0)
(0.308374 0.243103 0)
(0.285193 0.224828 0)
(0.263948 0.20808 0)
(0.244431 0.192694 0)
(0.226688 0.178706 0)
(1.39529 1.2898 0)
(1.17586 1.08695 0)
(1.01221 0.93568 0)
(0.885212 0.818282 0)
(0.783537 0.724294 0)
(0.700054 0.647123 0)
(0.630094 0.582453 0)
(0.570472 0.527339 0)
(0.518942 0.479705 0)
(0.473877 0.438048 0)
(0.434073 0.401253 0)
(0.398618 0.368479 0)
(0.366811 0.339076 0)
(0.338105 0.312541 0)
(0.312067 0.288471 0)
(0.28835 0.266548 0)
(0.266674 0.246511 0)
(0.246809 0.228148 0)
(0.228559 0.211278 0)
(0.211968 0.195941 0)
(1.2898 1.39529 0)
(1.08695 1.17586 0)
(0.93568 1.01221 0)
(0.818282 0.885212 0)
(0.724294 0.783537 0)
(0.647123 0.700054 0)
(0.582453 0.630094 0)
(0.527339 0.570472 0)
(0.479705 0.518942 0)
(0.438048 0.473877 0)
(0.401253 0.434073 0)
(0.368478 0.398618 0)
(0.339076 0.366811 0)
(0.312541 0.338105 0)
(0.288471 0.312067 0)
(0.266548 0.28835 0)
(0.246511 0.266674 0)
(0.228148 0.246809 0)
(0.211278 0.228559 0)
(0.195941 0.211968 0)
(1.17635 1.49219 0)
(0.991348 1.25752 0)
(0.853378 1.0825 0)
(0.746307 0.946685 0)
(0.660586 0.837949 0)
(0.590203 0.748668 0)
(0.531221 0.67385 0)
(0.480954 0.610088 0)
(0.43751 0.554979 0)
(0.399517 0.506785 0)
(0.365959 0.464217 0)
(0.336067 0.426299 0)
(0.309251 0.392284 0)
(0.28505 0.361584 0)
(0.263098 0.333738 0)
(0.243103 0.308374 0)
(0.224828 0.285193 0)
(0.20808 0.263948 0)
(0.192694 0.244431 0)
(0.178706 0.226688 0)
(1.05565 1.57988 0)
(0.889628 1.33142 0)
(0.765816 1.14612 0)
(0.66973 1.00232 0)
(0.592805 0.887195 0)
(0.529643 0.792667 0)
(0.476714 0.713452 0)
(0.431605 0.645942 0)
(0.392618 0.587595 0)
(0.358524 0.536569 0)
(0.328409 0.491499 0)
(0.301584 0.451353 0)
(0.27752 0.415338 0)
(0.255801 0.382834 0)
(0.236102 0.353351 0)
(0.218158 0.326497 0)
(0.201759 0.301954 0)
(0.186729 0.27946 0)
(0.172922 0.258796 0)
(0.160369 0.24001 0)
(0.928438 1.65784 0)
(0.782424 1.39712 0)
(0.673531 1.20268 0)
(0.589024 1.05178 0)
(0.521369 0.930971 0)
(0.465819 0.831779 0)
(0.419267 0.748656 0)
(0.379594 0.677815 0)
(0.345306 0.616588 0)
(0.31532 0.563044 0)
(0.288834 0.51575 0)
(0.265242 0.473624 0)
(0.244077 0.435831 0)
(0.224976 0.401724 0)
(0.20765 0.370786 0)
(0.191869 0.342607 0)
(0.177446 0.316853 0)
(0.164228 0.29325 0)
(0.152084 0.271566 0)
(0.141044 0.251852 0)
(0.795504 1.72557 0)
(0.670396 1.4542 0)
(0.577094 1.25181 0)
(0.504687 1.09475 0)
(0.446719 0.969007 0)
(0.399122 0.865763 0)
(0.359236 0.779243 0)
(0.325243 0.705508 0)
(0.295864 0.64178 0)
(0.270172 0.586048 0)
(0.247478 0.536822 0)
(0.227264 0.492974 0)
(0.20913 0.453638 0)
(0.192764 0.418137 0)
(0.177919 0.385935 0)
(0.164397 0.356605 0)
(0.152039 0.329799 0)
(0.140713 0.305231 0)
(0.130309 0.282661 0)
(0.120849 0.262142 0)
(0.657666 1.78267 0)
(0.554235 1.50231 0)
(0.4771 1.29323 0)
(0.417238 1.13097 0)
(0.369314 1.00107 0)
(0.329965 0.894409 0)
(0.29699 0.805026 0)
(0.268887 0.728851 0)
(0.244599 0.663015 0)
(0.223358 0.605439 0)
(0.204597 0.554584 0)
(0.187885 0.509285 0)
(0.172893 0.468648 0)
(0.159363 0.431972 0)
(0.14709 0.398705 0)
(0.135911 0.368404 0)
(0.125695 0.340711 0)
(0.116331 0.31533 0)
(0.10773 0.292014 0)
(0.0999092 0.270816 0)
(0.515773 1.82877 0)
(0.434656 1.54117 0)
(0.374163 1.32668 0)
(0.327217 1.16022 0)
(0.289633 1.02696 0)
(0.258773 0.91754 0)
(0.232913 0.825846 0)
(0.210873 0.747701 0)
(0.191825 0.680162 0)
(0.175167 0.621097 0)
(0.160454 0.568927 0)
(0.147348 0.522457 0)
(0.13559 0.480768 0)
(0.124979 0.443144 0)
(0.115354 0.409017 0)
(0.106588 0.377932 0)
(0.0985754 0.349522 0)
(0.0912322 0.323485 0)
(0.0844863 0.299566 0)
(0.0783533 0.27782 0)
(0.370699 1.86361 0)
(0.312398 1.57052 0)
(0.268919 1.35195 0)
(0.235178 1.18232 0)
(0.208165 1.04652 0)
(0.185986 0.935015 0)
(0.167399 0.841574 0)
(0.151559 0.761941 0)
(0.137869 0.693116 0)
(0.125897 0.632926 0)
(0.115322 0.579762 0)
(0.105902 0.532407 0)
(0.0974518 0.489924 0)
(0.0898254 0.451584 0)
(0.0829078 0.416806 0)
(0.0766069 0.38513 0)
(0.0708483 0.356179 0)
(0.0655706 0.329646 0)
(0.0607222 0.305271 0)
(0.0563142 0.283111 0)
(0.223339 1.88695 0)
(0.188213 1.59019 0)
(0.162018 1.36888 0)
(0.141689 1.19713 0)
(0.125415 1.05962 0)
(0.112052 0.946725 0)
(0.100854 0.852114 0)
(0.0913109 0.771484 0)
(0.0830628 0.701796 0)
(0.0758497 0.640853 0)
(0.0694785 0.587023 0)
(0.0638035 0.539075 0)
(0.0587124 0.49606 0)
(0.0541176 0.457239 0)
(0.0499499 0.422026 0)
(0.0461538 0.389953 0)
(0.0426844 0.36064 0)
(0.0395047 0.333775 0)
(0.0365837 0.309094 0)
(0.033928 0.286657 0)
(0.0746003 1.89865 0)
(0.0628667 1.60006 0)
(0.054117 1.37737 0)
(0.0473269 1.20455 0)
(0.0418909 1.0662 0)
(0.0374275 0.952598 0)
(0.0336871 0.8574 0)
(0.0304994 0.77627 0)
(0.0277444 0.70615 0)
(0.0253351 0.644828 0)
(0.023207 0.590665 0)
(0.0213114 0.542419 0)
(0.0196109 0.499137 0)
(0.0180762 0.460076 0)
(0.0166841 0.424644 0)
(0.0154162 0.392372 0)
(0.0142573 0.362877 0)
(0.0131953 0.335845 0)
(0.0122196 0.311012 0)
(0.0113326 0.288435 0)
(-0.0746005 1.89865 0)
(-0.062867 1.60006 0)
(-0.0541174 1.37737 0)
(-0.0473273 1.20455 0)
(-0.0418913 1.0662 0)
(-0.037428 0.952598 0)
(-0.0336877 0.8574 0)
(-0.0305 0.77627 0)
(-0.027745 0.70615 0)
(-0.0253357 0.644828 0)
(-0.0232076 0.590665 0)
(-0.021312 0.542419 0)
(-0.0196114 0.499138 0)
(-0.0180767 0.460076 0)
(-0.0166845 0.424644 0)
(-0.0154165 0.392372 0)
(-0.0142576 0.362877 0)
(-0.0131955 0.335845 0)
(-0.0122198 0.311012 0)
(-0.0113327 0.288435 0)
(-0.223339 1.88695 0)
(-0.188213 1.59019 0)
(-0.162018 1.36888 0)
(-0.14169 1.19713 0)
(-0.125415 1.05962 0)
(-0.112053 0.946725 0)
(-0.100855 0.852114 0)
(-0.0913115 0.771484 0)
(-0.0830634 0.701796 0)
(-0.0758503 0.640853 0)
(-0.0694791 0.587023 0)
(-0.063804 0.539075 0)
(-0.0587129 0.49606 0)
(-0.0541181 0.457239 0)
(-0.0499503 0.422026 0)
(-0.0461541 0.389953 0)
(-0.0426847 0.36064 0)
(-0.0395049 0.333775 0)
(-0.0365838 0.309094 0)
(-0.0339281 0.286657 0)
(-0.370699 1.86361 0)
(-0.312398 1.57052 0)
(-0.26892 1.35195 0)
(-0.235179 1.18232 0)
(-0.208166 1.04652 0)
(-0.185987 0.935015 0)
(-0.1674 0.841574 0)
(-0.15156 0.761941 0)
(-0.13787 0.693116 0)
(-0.125897 0.632926 0)
(-0.115322 0.579762 0)
(-0.105903 0.532407 0)
(-0.0974523 0.489924 0)
(-0.0898258 0.451584 0)
(-0.0829082 0.416806 0)
(-0.0766072 0.38513 0)
(-0.0708486 0.356179 0)
(-0.0655708 0.329646 0)
(-0.0607223 0.305271 0)
(-0.0563143 0.283111 0)
(-0.515773 1.82877 0)
(-0.434657 1.54117 0)
(-0.374163 1.32668 0)
(-0.327217 1.16022 0)
(-0.289633 1.02696 0)
(-0.258774 0.91754 0)
(-0.232913 0.825846 0)
(-0.210874 0.747701 0)
(-0.191826 0.680162 0)
(-0.175168 0.621097 0)
(-0.160454 0.568927 0)
(-0.147348 0.522457 0)
(-0.135591 0.480768 0)
(-0.12498 0.443144 0)
(-0.115355 0.409017 0)
(-0.106588 0.377932 0)
(-0.0985756 0.349522 0)
(-0.0912324 0.323485 0)
(-0.0844864 0.299566 0)
(-0.0783534 0.27782 0)
(-0.657666 1.78267 0)
(-0.554235 1.50231 0)
(-0.4771 1.29323 0)
(-0.417239 1.13097 0)
(-0.369315 1.00107 0)
(-0.329965 0.894409 0)
(-0.29699 0.805026 0)
(-0.268888 0.728851 0)
(-0.2446 0.663015 0)
(-0.223359 0.605439 0)
(-0.204597 0.554584 0)
(-0.187886 0.509286 0)
(-0.172894 0.468648 0)
(-0.159363 0.431972 0)
(-0.14709 0.398705 0)
(-0.135912 0.368404 0)
(-0.125695 0.340711 0)
(-0.116332 0.31533 0)
(-0.10773 0.292014 0)
(-0.0999093 0.270816 0)
(-0.795505 1.72557 0)
(-0.670397 1.4542 0)
(-0.577095 1.25181 0)
(-0.504688 1.09475 0)
(-0.446719 0.969008 0)
(-0.399123 0.865763 0)
(-0.359236 0.779243 0)
(-0.325244 0.705508 0)
(-0.295865 0.64178 0)
(-0.270172 0.586048 0)
(-0.247479 0.536822 0)
(-0.227265 0.492974 0)
(-0.20913 0.453638 0)
(-0.192764 0.418137 0)
(-0.177919 0.385936 0)
(-0.164397 0.356605 0)
(-0.152039 0.329799 0)
(-0.140713 0.305231 0)
(-0.130309 0.282661 0)
(-0.120849 0.262142 0)
(-0.928438 1.65784 0)
(-0.782425 1.39712 0)
(-0.673532 1.20268 0)
(-0.589025 1.05178 0)
(-0.52137 0.930971 0)
(-0.465819 0.831779 0)
(-0.419268 0.748656 0)
(-0.379595 0.677815 0)
(-0.345307 0.616588 0)
(-0.31532 0.563044 0)
(-0.288834 0.51575 0)
(-0.265242 0.473624 0)
(-0.244078 0.435832 0)
(-0.224976 0.401724 0)
(-0.207651 0.370787 0)
(-0.191869 0.342607 0)
(-0.177446 0.316853 0)
(-0.164228 0.29325 0)
(-0.152084 0.271566 0)
(-0.141044 0.251853 0)
(-1.05565 1.57988 0)
(-0.889629 1.33142 0)
(-0.765816 1.14612 0)
(-0.669731 1.00232 0)
(-0.592806 0.887195 0)
(-0.529644 0.792667 0)
(-0.476714 0.713452 0)
(-0.431606 0.645943 0)
(-0.392619 0.587595 0)
(-0.358524 0.536569 0)
(-0.328409 0.491499 0)
(-0.301585 0.451353 0)
(-0.27752 0.415338 0)
(-0.255802 0.382834 0)
(-0.236102 0.353352 0)
(-0.218159 0.326497 0)
(-0.201759 0.301954 0)
(-0.18673 0.279461 0)
(-0.172922 0.258797 0)
(-0.16037 0.24001 0)
(-1.17635 1.49219 0)
(-0.991348 1.25752 0)
(-0.853379 1.0825 0)
(-0.746307 0.946685 0)
(-0.660587 0.837949 0)
(-0.590203 0.748669 0)
(-0.531221 0.673851 0)
(-0.480955 0.610088 0)
(-0.437511 0.554979 0)
(-0.399518 0.506786 0)
(-0.36596 0.464217 0)
(-0.336068 0.4263 0)
(-0.309252 0.392284 0)
(-0.28505 0.361584 0)
(-0.263098 0.333738 0)
(-0.243103 0.308374 0)
(-0.224829 0.285194 0)
(-0.20808 0.263949 0)
(-0.192694 0.244432 0)
(-0.178706 0.226688 0)
(-1.2898 1.39529 0)
(-1.08696 1.17586 0)
(-0.93568 1.01221 0)
(-0.818283 0.885213 0)
(-0.724295 0.783537 0)
(-0.647124 0.700054 0)
(-0.582454 0.630094 0)
(-0.527339 0.570472 0)
(-0.479705 0.518942 0)
(-0.438048 0.473877 0)
(-0.401253 0.434073 0)
(-0.368479 0.398618 0)
(-0.339077 0.366811 0)
(-0.312541 0.338105 0)
(-0.288472 0.312067 0)
(-0.266548 0.28835 0)
(-0.246512 0.266675 0)
(-0.228148 0.246809 0)
(-0.211278 0.228559 0)
(-0.195941 0.211968 0)
(-1.39529 1.2898 0)
(-1.17586 1.08696 0)
(-1.01221 0.93568 0)
(-0.885213 0.818282 0)
(-0.783538 0.724295 0)
(-0.700054 0.647123 0)
(-0.630095 0.582453 0)
(-0.570473 0.527339 0)
(-0.518942 0.479705 0)
(-0.473878 0.438048 0)
(-0.434074 0.401253 0)
(-0.398618 0.368479 0)
(-0.366811 0.339077 0)
(-0.338105 0.312541 0)
(-0.312067 0.288472 0)
(-0.28835 0.266548 0)
(-0.266675 0.246511 0)
(-0.246809 0.228148 0)
(-0.22856 0.211278 0)
(-0.211968 0.195941 0)
(-1.49219 1.17635 0)
(-1.25752 0.991348 0)
(-1.08251 0.853379 0)
(-0.946686 0.746307 0)
(-0.83795 0.660586 0)
(-0.748669 0.590203 0)
(-0.673851 0.531221 0)
(-0.610089 0.480955 0)
(-0.55498 0.437511 0)
(-0.506786 0.399518 0)
(-0.464217 0.365959 0)
(-0.4263 0.336068 0)
(-0.392284 0.309252 0)
(-0.361584 0.28505 0)
(-0.333738 0.263098 0)
(-0.308375 0.243103 0)
(-0.285194 0.224828 0)
(-0.263949 0.20808 0)
(-0.244432 0.192694 0)
(-0.226688 0.178706 0)
(-1.57988 1.05565 0)
(-1.33142 0.889629 0)
(-1.14612 0.765816 0)
(-1.00232 0.66973 0)
(-0.887196 0.592805 0)
(-0.792668 0.529644 0)
(-0.713453 0.476714 0)
(-0.645943 0.431605 0)
(-0.587596 0.392619 0)
(-0.536569 0.358524 0)
(-0.491499 0.328409 0)
(-0.451353 0.301585 0)
(-0.415338 0.27752 0)
(-0.382835 0.255802 0)
(-0.353352 0.236102 0)
(-0.326498 0.218159 0)
(-0.301954 0.201759 0)
(-0.279461 0.18673 0)
(-0.258797 0.172922 0)
(-0.24001 0.16037 0)
(-1.65784 0.928438 0)
(-1.39712 0.782425 0)
(-1.20268 0.673532 0)
(-1.05178 0.589025 0)
(-0.930972 0.521369 0)
(-0.83178 0.465819 0)
(-0.748656 0.419267 0)
(-0.677815 0.379595 0)
(-0.616589 0.345306 0)
(-0.563045 0.31532 0)
(-0.515751 0.288834 0)
(-0.473624 0.265242 0)
(-0.435832 0.244078 0)
(-0.401724 0.224976 0)
(-0.370787 0.207651 0)
(-0.342608 0.191869 0)
(-0.316853 0.177446 0)
(-0.29325 0.164228 0)
(-0.271566 0.152084 0)
(-0.251853 0.141044 0)
(-1.72557 0.795505 0)
(-1.4542 0.670397 0)
(-1.25181 0.577095 0)
(-1.09475 0.504687 0)
(-0.969008 0.446719 0)
(-0.865764 0.399122 0)
(-0.779244 0.359236 0)
(-0.705508 0.325244 0)
(-0.641781 0.295865 0)
(-0.586049 0.270172 0)
(-0.536823 0.247478 0)
(-0.492975 0.227264 0)
(-0.453639 0.20913 0)
(-0.418137 0.192764 0)
(-0.385936 0.177919 0)
(-0.356605 0.164397 0)
(-0.329799 0.152039 0)
(-0.305231 0.140713 0)
(-0.282662 0.130309 0)
(-0.262143 0.120849 0)
(-1.78267 0.657666 0)
(-1.50232 0.554235 0)
(-1.29323 0.4771 0)
(-1.13097 0.417239 0)
(-1.00107 0.369314 0)
(-0.89441 0.329965 0)
(-0.805027 0.29699 0)
(-0.728852 0.268888 0)
(-0.663016 0.244599 0)
(-0.60544 0.223358 0)
(-0.554585 0.204597 0)
(-0.509286 0.187885 0)
(-0.468648 0.172893 0)
(-0.431973 0.159363 0)
(-0.398706 0.14709 0)
(-0.368405 0.135912 0)
(-0.340711 0.125695 0)
(-0.315331 0.116332 0)
(-0.292014 0.10773 0)
(-0.270816 0.0999094 0)
(-1.82878 0.515773 0)
(-1.54117 0.434657 0)
(-1.32668 0.374163 0)
(-1.16022 0.327217 0)
(-1.02696 0.289633 0)
(-0.917541 0.258773 0)
(-0.825847 0.232913 0)
(-0.747702 0.210874 0)
(-0.680163 0.191826 0)
(-0.621098 0.175168 0)
(-0.568928 0.160454 0)
(-0.522457 0.147348 0)
(-0.480769 0.135591 0)
(-0.443144 0.12498 0)
(-0.409017 0.115355 0)
(-0.377932 0.106588 0)
(-0.349523 0.0985756 0)
(-0.323486 0.0912324 0)
(-0.299566 0.0844864 0)
(-0.27782 0.0783534 0)
(-1.86361 0.370699 0)
(-1.57052 0.312398 0)
(-1.35195 0.26892 0)
(-1.18232 0.235178 0)
(-1.04652 0.208166 0)
(-0.935016 0.185986 0)
(-0.841575 0.1674 0)
(-0.761942 0.15156 0)
(-0.693117 0.137869 0)
(-0.632927 0.125897 0)
(-0.579763 0.115322 0)
(-0.532408 0.105902 0)
(-0.489925 0.0974521 0)
(-0.451584 0.0898256 0)
(-0.416807 0.082908 0)
(-0.38513 0.0766071 0)
(-0.35618 0.0708485 0)
(-0.329647 0.0655708 0)
(-0.305272 0.0607223 0)
(-0.283111 0.0563143 0)
(-1.88695 0.223339 0)
(-1.59019 0.188213 0)
(-1.36888 0.162018 0)
(-1.19713 0.141689 0)
(-1.05963 0.125415 0)
(-0.946726 0.112052 0)
(-0.852115 0.100854 0)
(-0.771484 0.0913111 0)
(-0.701797 0.083063 0)
(-0.640853 0.0758499 0)
(-0.587024 0.0694788 0)
(-0.539075 0.0638037 0)
(-0.496061 0.0587126 0)
(-0.45724 0.0541178 0)
(-0.422027 0.0499501 0)
(-0.389953 0.046154 0)
(-0.36064 0.0426846 0)
(-0.333775 0.0395049 0)
(-0.309095 0.0365838 0)
(-0.286657 0.0339281 0)
(-1.89866 0.0746004 0)
(-1.60006 0.0628668 0)
(-1.37737 0.0541171 0)
(-1.20455 0.047327 0)
(-1.0662 0.041891 0)
(-0.952599 0.0374276 0)
(-0.857401 0.0336872 0)
(-0.77627 0.0304996 0)
(-0.706151 0.0277446 0)
(-0.644829 0.0253353 0)
(-0.590665 0.0232072 0)
(-0.54242 0.0213116 0)
(-0.499138 0.0196111 0)
(-0.460076 0.0180764 0)
(-0.424645 0.0166843 0)
(-0.392373 0.0154163 0)
(-0.362878 0.0142575 0)
(-0.335846 0.0131954 0)
(-0.311012 0.0122197 0)
(-0.288435 0.0113326 0)
(-1.89866 -0.0746005 0)
(-1.60006 -0.062867 0)
(-1.37737 -0.0541174 0)
(-1.20455 -0.0473273 0)
(-1.0662 -0.0418913 0)
(-0.952599 -0.0374279 0)
(-0.857401 -0.0336876 0)
(-0.77627 -0.0304999 0)
(-0.706151 -0.0277449 0)
(-0.644829 -0.0253356 0)
(-0.590665 -0.0232075 0)
(-0.54242 -0.0213119 0)
(-0.499138 -0.0196113 0)
(-0.460076 -0.0180765 0)
(-0.424645 -0.0166844 0)
(-0.392373 -0.0154164 0)
(-0.362878 -0.0142575 0)
(-0.335846 -0.0131954 0)
(-0.311012 -0.0122197 0)
(-0.288435 -0.0113326 0)
(-1.88695 -0.223339 0)
(-1.59019 -0.188213 0)
(-1.36888 -0.162018 0)
(-1.19713 -0.14169 0)
(-1.05963 -0.125415 0)
(-0.946726 -0.112053 0)
(-0.852115 -0.100855 0)
(-0.771484 -0.0913114 0)
(-0.701797 -0.0830633 0)
(-0.640854 -0.0758502 0)
(-0.587024 -0.069479 0)
(-0.539076 -0.0638039 0)
(-0.496061 -0.0587128 0)
(-0.45724 -0.054118 0)
(-0.422027 -0.0499503 0)
(-0.389954 -0.0461541 0)
(-0.36064 -0.0426846 0)
(-0.333775 -0.0395049 0)
(-0.309095 -0.0365838 0)
(-0.286657 -0.0339281 0)
(-1.86361 -0.370699 0)
(-1.57052 -0.312398 0)
(-1.35195 -0.26892 0)
(-1.18232 -0.235179 0)
(-1.04652 -0.208166 0)
(-0.935016 -0.185987 0)
(-0.841575 -0.1674 0)
(-0.761942 -0.15156 0)
(-0.693117 -0.13787 0)
(-0.632927 -0.125897 0)
(-0.579763 -0.115322 0)
(-0.532408 -0.105903 0)
(-0.489925 -0.0974523 0)
(-0.451584 -0.0898258 0)
(-0.416807 -0.0829081 0)
(-0.38513 -0.0766072 0)
(-0.35618 -0.0708486 0)
(-0.329647 -0.0655708 0)
(-0.305272 -0.0607223 0)
(-0.283111 -0.0563144 0)
(-1.82878 -0.515773 0)
(-1.54117 -0.434657 0)
(-1.32668 -0.374163 0)
(-1.16022 -0.327218 0)
(-1.02696 -0.289633 0)
(-0.917541 -0.258774 0)
(-0.825847 -0.232913 0)
(-0.747702 -0.210874 0)
(-0.680163 -0.191826 0)
(-0.621098 -0.175168 0)
(-0.568928 -0.160454 0)
(-0.522458 -0.147348 0)
(-0.480769 -0.135591 0)
(-0.443145 -0.12498 0)
(-0.409017 -0.115355 0)
(-0.377932 -0.106588 0)
(-0.349523 -0.0985757 0)
(-0.323486 -0.0912325 0)
(-0.299566 -0.0844865 0)
(-0.27782 -0.0783534 0)
(-1.78267 -0.657666 0)
(-1.50232 -0.554236 0)
(-1.29323 -0.4771 0)
(-1.13097 -0.417239 0)
(-1.00107 -0.369315 0)
(-0.89441 -0.329965 0)
(-0.805027 -0.29699 0)
(-0.728852 -0.268888 0)
(-0.663016 -0.2446 0)
(-0.60544 -0.223359 0)
(-0.554585 -0.204597 0)
(-0.509286 -0.187886 0)
(-0.468648 -0.172894 0)
(-0.431973 -0.159363 0)
(-0.398706 -0.14709 0)
(-0.368405 -0.135912 0)
(-0.340711 -0.125695 0)
(-0.315331 -0.116332 0)
(-0.292014 -0.10773 0)
(-0.270816 -0.0999094 0)
(-1.72557 -0.795505 0)
(-1.4542 -0.670397 0)
(-1.25181 -0.577095 0)
(-1.09475 -0.504688 0)
(-0.969008 -0.446719 0)
(-0.865764 -0.399123 0)
(-0.779244 -0.359237 0)
(-0.705509 -0.325244 0)
(-0.641781 -0.295865 0)
(-0.586049 -0.270172 0)
(-0.536823 -0.247479 0)
(-0.492975 -0.227265 0)
(-0.453639 -0.20913 0)
(-0.418138 -0.192764 0)
(-0.385936 -0.177919 0)
(-0.356605 -0.164397 0)
(-0.329799 -0.15204 0)
(-0.305231 -0.140714 0)
(-0.282662 -0.130309 0)
(-0.262143 -0.120849 0)
(-1.65784 -0.928439 0)
(-1.39712 -0.782425 0)
(-1.20268 -0.673532 0)
(-1.05178 -0.589025 0)
(-0.930972 -0.52137 0)
(-0.83178 -0.465819 0)
(-0.748656 -0.419268 0)
(-0.677815 -0.379595 0)
(-0.616589 -0.345307 0)
(-0.563045 -0.31532 0)
(-0.515751 -0.288835 0)
(-0.473624 -0.265242 0)
(-0.435832 -0.244078 0)
(-0.401725 -0.224977 0)
(-0.370787 -0.207651 0)
(-0.342608 -0.19187 0)
(-0.316854 -0.177447 0)
(-0.29325 -0.164228 0)
(-0.271566 -0.152085 0)
(-0.251853 -0.141044 0)
(-1.57989 -1.05565 0)
(-1.33142 -0.889629 0)
(-1.14612 -0.765816 0)
(-1.00232 -0.669731 0)
(-0.887196 -0.592806 0)
(-0.792668 -0.529644 0)
(-0.713453 -0.476714 0)
(-0.645943 -0.431606 0)
(-0.587596 -0.392619 0)
(-0.536569 -0.358524 0)
(-0.491499 -0.32841 0)
(-0.451354 -0.301585 0)
(-0.415338 -0.27752 0)
(-0.382835 -0.255802 0)
(-0.353352 -0.236102 0)
(-0.326498 -0.218159 0)
(-0.301955 -0.20176 0)
(-0.279461 -0.18673 0)
(-0.258797 -0.172923 0)
(-0.24001 -0.16037 0)
(-1.49219 -1.17635 0)
(-1.25752 -0.991348 0)
(-1.08251 -0.853379 0)
(-0.946686 -0.746307 0)
(-0.83795 -0.660587 0)
(-0.748669 -0.590203 0)
(-0.673851 -0.531222 0)
(-0.610089 -0.480955 0)
(-0.55498 -0.437511 0)
(-0.506786 -0.399518 0)
(-0.464218 -0.36596 0)
(-0.4263 -0.336068 0)
(-0.392284 -0.309252 0)
(-0.361585 -0.28505 0)
(-0.333738 -0.263098 0)
(-0.308375 -0.243103 0)
(-0.285194 -0.224829 0)
(-0.263949 -0.208081 0)
(-0.244432 -0.192695 0)
(-0.226688 -0.178706 0)
(-1.3953 -1.2898 0)
(-1.17586 -1.08696 0)
(-1.01221 -0.935681 0)
(-0.885213 -0.818283 0)
(-0.783538 -0.724295 0)
(-0.700055 -0.647124 0)
(-0.630095 -0.582454 0)
(-0.570473 -0.52734 0)
(-0.518942 -0.479706 0)
(-0.473878 -0.438048 0)
(-0.434074 -0.401254 0)
(-0.398618 -0.368479 0)
(-0.366811 -0.339077 0)
(-0.338105 -0.312541 0)
(-0.312067 -0.288472 0)
(-0.28835 -0.266548 0)
(-0.266675 -0.246512 0)
(-0.246809 -0.228148 0)
(-0.22856 -0.211278 0)
(-0.211968 -0.195941 0)
(-1.2898 -1.3953 0)
(-1.08696 -1.17586 0)
(-0.935681 -1.01221 0)
(-0.818283 -0.885213 0)
(-0.724295 -0.783538 0)
(-0.647124 -0.700055 0)
(-0.582454 -0.630095 0)
(-0.52734 -0.570473 0)
(-0.479706 -0.518942 0)
(-0.438048 -0.473878 0)
(-0.401254 -0.434074 0)
(-0.368479 -0.398618 0)
(-0.339077 -0.366811 0)
(-0.312541 -0.338105 0)
(-0.288472 -0.312067 0)
(-0.266548 -0.28835 0)
(-0.246512 -0.266675 0)
(-0.228148 -0.246809 0)
(-0.211278 -0.22856 0)
(-0.195941 -0.211968 0)
(-1.17635 -1.49219 0)
(-0.991348 -1.25752 0)
(-0.853379 -1.08251 0)
(-0.746307 -0.946686 0)
(-0.660587 -0.83795 0)
(-0.590203 -0.748669 0)
(-0.531222 -0.673851 0)
(-0.480955 -0.610089 0)
(-0.437511 -0.55498 0)
(-0.399518 -0.506786 0)
(-0.36596 -0.464218 0)
(-0.336068 -0.4263 0)
(-0.309252 -0.392284 0)
(-0.28505 -0.361585 0)
(-0.263098 -0.333738 0)
(-0.243103 -0.308375 0)
(-0.224829 -0.285194 0)
(-0.208081 -0.263949 0)
(-0.192695 -0.244432 0)
(-0.178706 -0.226688 0)
(-1.05565 -1.57989 0)
(-0.889629 -1.33142 0)
(-0.765816 -1.14612 0)
(-0.669731 -1.00232 0)
(-0.592806 -0.887196 0)
(-0.529644 -0.792668 0)
(-0.476714 -0.713453 0)
(-0.431606 -0.645943 0)
(-0.392619 -0.587596 0)
(-0.358524 -0.53657 0)
(-0.328409 -0.491499 0)
(-0.301585 -0.451354 0)
(-0.27752 -0.415339 0)
(-0.255802 -0.382835 0)
(-0.236102 -0.353352 0)
(-0.218159 -0.326498 0)
(-0.20176 -0.301955 0)
(-0.18673 -0.279461 0)
(-0.172923 -0.258797 0)
(-0.16037 -0.24001 0)
(-0.928439 -1.65784 0)
(-0.782425 -1.39712 0)
(-0.673532 -1.20268 0)
(-0.589025 -1.05178 0)
(-0.52137 -0.930972 0)
(-0.465819 -0.83178 0)
(-0.419268 -0.748656 0)
(-0.379595 -0.677815 0)
(-0.345307 -0.616589 0)
(-0.31532 -0.563045 0)
(-0.288835 -0.515751 0)
(-0.265242 -0.473624 0)
(-0.244078 -0.435832 0)
(-0.224977 -0.401725 0)
(-0.207651 -0.370787 0)
(-0.19187 -0.342608 0)
(-0.177447 -0.316854 0)
(-0.164228 -0.29325 0)
(-0.152085 -0.271567 0)
(-0.141044 -0.251853 0)
(-0.795505 -1.72557 0)
(-0.670397 -1.4542 0)
(-0.577095 -1.25181 0)
(-0.504688 -1.09475 0)
(-0.446719 -0.969008 0)
(-0.399123 -0.865764 0)
(-0.359237 -0.779244 0)
(-0.325244 -0.705508 0)
(-0.295865 -0.641781 0)
(-0.270172 -0.586049 0)
(-0.247479 -0.536823 0)
(-0.227265 -0.492975 0)
(-0.20913 -0.453639 0)
(-0.192764 -0.418138 0)
(-0.177919 -0.385936 0)
(-0.164397 -0.356606 0)
(-0.15204 -0.329799 0)
(-0.140714 -0.305231 0)
(-0.130309 -0.282662 0)
(-0.12085 -0.262143 0)
(-0.657667 -1.78267 0)
(-0.554236 -1.50232 0)
(-0.4771 -1.29323 0)
(-0.417239 -1.13097 0)
(-0.369315 -1.00107 0)
(-0.329965 -0.89441 0)
(-0.29699 -0.805027 0)
(-0.268888 -0.728852 0)
(-0.2446 -0.663016 0)
(-0.223359 -0.60544 0)
(-0.204597 -0.554585 0)
(-0.187886 -0.509286 0)
(-0.172894 -0.468648 0)
(-0.159363 -0.431973 0)
(-0.14709 -0.398706 0)
(-0.135912 -0.368405 0)
(-0.125695 -0.340711 0)
(-0.116332 -0.315331 0)
(-0.10773 -0.292014 0)
(-0.0999095 -0.270816 0)
(-0.515773 -1.82878 0)
(-0.434657 -1.54117 0)
(-0.374164 -1.32668 0)
(-0.327218 -1.16022 0)
(-0.289633 -1.02696 0)
(-0.258774 -0.917541 0)
(-0.232913 -0.825847 0)
(-0.210874 -0.747702 0)
(-0.191826 -0.680163 0)
(-0.175168 -0.621098 0)
(-0.160454 -0.568928 0)
(-0.147348 -0.522457 0)
(-0.135591 -0.480769 0)
(-0.12498 -0.443145 0)
(-0.115355 -0.409017 0)
(-0.106588 -0.377933 0)
(-0.0985758 -0.349523 0)
(-0.0912325 -0.323486 0)
(-0.0844865 -0.299567 0)
(-0.0783535 -0.27782 0)
(-0.370699 -1.86361 0)
(-0.312398 -1.57052 0)
(-0.26892 -1.35195 0)
(-0.235179 -1.18232 0)
(-0.208166 -1.04652 0)
(-0.185987 -0.935016 0)
(-0.1674 -0.841575 0)
(-0.15156 -0.761942 0)
(-0.13787 -0.693117 0)
(-0.125897 -0.632927 0)
(-0.115322 -0.579763 0)
(-0.105903 -0.532408 0)
(-0.0974524 -0.489925 0)
(-0.0898259 -0.451584 0)
(-0.0829082 -0.416807 0)
(-0.0766073 -0.38513 0)
(-0.0708486 -0.35618 0)
(-0.0655709 -0.329647 0)
(-0.0607224 -0.305272 0)
(-0.0563144 -0.283112 0)
(-0.223339 -1.88695 0)
(-0.188213 -1.59019 0)
(-0.162018 -1.36888 0)
(-0.14169 -1.19713 0)
(-0.125415 -1.05963 0)
(-0.112053 -0.946726 0)
(-0.100855 -0.852115 0)
(-0.0913115 -0.771484 0)
(-0.0830634 -0.701797 0)
(-0.0758503 -0.640853 0)
(-0.0694791 -0.587024 0)
(-0.063804 -0.539075 0)
(-0.0587129 -0.496061 0)
(-0.0541181 -0.45724 0)
(-0.0499504 -0.422027 0)
(-0.0461542 -0.389954 0)
(-0.0426847 -0.36064 0)
(-0.039505 -0.333775 0)
(-0.0365838 -0.309095 0)
(-0.0339281 -0.286657 0)
(-0.0746005 -1.89866 0)
(-0.062867 -1.60006 0)
(-0.0541174 -1.37737 0)
(-0.0473274 -1.20455 0)
(-0.0418913 -1.0662 0)
(-0.037428 -0.952599 0)
(-0.0336877 -0.857401 0)
(-0.0305 -0.77627 0)
(-0.027745 -0.706151 0)
(-0.0253357 -0.644829 0)
(-0.0232076 -0.590665 0)
(-0.021312 -0.54242 0)
(-0.0196114 -0.499138 0)
(-0.0180767 -0.460076 0)
(-0.0166845 -0.424645 0)
(-0.0154165 -0.392373 0)
(-0.0142576 -0.362878 0)
(-0.0131955 -0.335846 0)
(-0.0122198 -0.311012 0)
(-0.0113327 -0.288435 0)
(1.89866 -0.0746005 0)
(1.88695 -0.223339 0)
(1.86361 -0.370699 0)
(1.82877 -0.515773 0)
(1.78267 -0.657666 0)
(1.72557 -0.795505 0)
(1.65784 -0.928438 0)
(1.57988 -1.05565 0)
(1.49219 -1.17635 0)
(1.39529 -1.2898 0)
(1.2898 -1.39529 0)
(1.17635 -1.49219 0)
(1.05565 -1.57988 0)
(0.928438 -1.65784 0)
(0.795505 -1.72557 0)
(0.657666 -1.78267 0)
(0.515773 -1.82878 0)
(0.370699 -1.86361 0)
(0.223339 -1.88695 0)
(0.0746004 -1.89866 0)
(1.60006 -0.062867 0)
(1.59019 -0.188213 0)
(1.57052 -0.312398 0)
(1.54117 -0.434657 0)
(1.50231 -0.554235 0)
(1.4542 -0.670397 0)
(1.39712 -0.782425 0)
(1.33142 -0.889629 0)
(1.25752 -0.991348 0)
(1.17586 -1.08696 0)
(1.08696 -1.17586 0)
(0.991348 -1.25752 0)
(0.889629 -1.33142 0)
(0.782425 -1.39712 0)
(0.670397 -1.4542 0)
(0.554235 -1.50232 0)
(0.434657 -1.54117 0)
(0.312398 -1.57052 0)
(0.188213 -1.59019 0)
(0.0628668 -1.60006 0)
(1.37737 -0.0541174 0)
(1.36888 -0.162018 0)
(1.35195 -0.26892 0)
(1.32668 -0.374163 0)
(1.29323 -0.4771 0)
(1.25181 -0.577095 0)
(1.20268 -0.673532 0)
(1.14612 -0.765816 0)
(1.08251 -0.853379 0)
(1.01221 -0.93568 0)
(0.93568 -1.01221 0)
(0.853379 -1.08251 0)
(0.765816 -1.14612 0)
(0.673532 -1.20268 0)
(0.577095 -1.25181 0)
(0.4771 -1.29323 0)
(0.374163 -1.32668 0)
(0.26892 -1.35195 0)
(0.162018 -1.36888 0)
(0.054117 -1.37737 0)
(1.20455 -0.0473273 0)
(1.19713 -0.14169 0)
(1.18232 -0.235179 0)
(1.16022 -0.327217 0)
(1.13097 -0.417239 0)
(1.09475 -0.504688 0)
(1.05178 -0.589025 0)
(1.00232 -0.669731 0)
(0.946685 -0.746307 0)
(0.885213 -0.818283 0)
(0.818282 -0.885213 0)
(0.746307 -0.946686 0)
(0.66973 -1.00232 0)
(0.589025 -1.05178 0)
(0.504687 -1.09475 0)
(0.417238 -1.13097 0)
(0.327217 -1.16022 0)
(0.235178 -1.18232 0)
(0.141689 -1.19713 0)
(0.0473269 -1.20455 0)
(1.0662 -0.0418913 0)
(1.05962 -0.125415 0)
(1.04652 -0.208166 0)
(1.02696 -0.289633 0)