/*--------------------------------*- C++ -*----------------------------------*\
| =========                 |                                                 |
| \\      /  F ield         | foam-extend: Open Source CFD                    |
|  \\    /   O peration     | Version:  3.0                                   |
|   \\  /    A nd           | Web:         http://www.extend-project.de       |
|    \\/     M anipulation  |                                                 |
\*---------------------------------------------------------------------------*/
FoamFile
{
    version     2.0;
    format      ascii;
    class       volScalarField;
    location    "65";
    object      p;
}
// * * * * * * * * * * * * * * * * * * * * * * * * * * * * * * * * * * * * * //

dimensions      [0 0 0 0 0 0 0];

internalField   nonuniform List<scalar> 
7680
(
-0.236066
-0.224038
-0.21514
-0.205741
-0.198949
-0.191486
-0.186259
-0.180265
-0.176226
-0.171373
-0.168258
-0.16431
-0.161921
-0.158696
-0.15688
-0.154239
-0.152874
-0.150702
-0.149689
-0.147891
-0.147144
-0.145639
-0.145084
-0.1438
-0.143367
-0.142238
-0.141861
-0.140824
-0.14044
-0.139433
-0.138977
-0.137943
-0.13735
-0.136233
-0.135441
-0.134195
-0.13315
-0.131754
-0.130426
-0.128905
-0.235773
-0.223762
-0.214875
-0.205486
-0.198699
-0.191242
-0.186018
-0.18003
-0.175997
-0.171152
-0.168041
-0.164099
-0.161713
-0.158494
-0.156679
-0.154042
-0.152677
-0.150509
-0.149495
-0.147702
-0.146954
-0.145453
-0.144897
-0.143618
-0.143184
-0.14206
-0.141684
-0.140651
-0.140268
-0.139266
-0.138812
-0.13778
-0.13719
-0.136072
-0.135283
-0.13403
-0.132991
-0.131579
-0.130273
-0.128705
-0.23531
-0.223322
-0.214452
-0.205081
-0.198309
-0.190868
-0.185656
-0.17968
-0.175656
-0.17082
-0.167717
-0.163783
-0.161403
-0.158191
-0.156382
-0.153751
-0.152392
-0.150228
-0.149221
-0.147431
-0.14669
-0.145193
-0.144643
-0.143368
-0.142942
-0.141821
-0.141453
-0.140424
-0.14005
-0.139051
-0.138605
-0.137575
-0.136991
-0.13587
-0.135079
-0.133814
-0.13275
-0.131306
-0.129928
-0.128341
-0.234509
-0.222563
-0.213723
-0.204384
-0.197633
-0.190217
-0.185021
-0.179066
-0.175054
-0.170236
-0.167142
-0.163223
-0.16085
-0.15765
-0.155846
-0.153225
-0.15187
-0.149716
-0.14871
-0.146929
-0.146189
-0.144701
-0.144153
-0.142886
-0.142463
-0.141351
-0.140987
-0.139968
-0.139599
-0.138611
-0.138173
-0.137153
-0.136578
-0.135466
-0.134683
-0.133418
-0.132358
-0.130895
-0.129502
-0.127857
-0.233546
-0.221647
-0.212844
-0.203543
-0.196821
-0.189435
-0.184262
-0.178332
-0.174338
-0.169539
-0.16646
-0.162557
-0.160196
-0.157009
-0.155215
-0.152605
-0.151259
-0.149114
-0.148117
-0.146344
-0.145612
-0.144132
-0.143592
-0.142333
-0.141919
-0.140815
-0.140462
-0.139451
-0.139096
-0.138117
-0.137696
-0.136686
-0.136132
-0.135029
-0.134271
-0.133011
-0.131984
-0.130511
-0.12916
-0.127417
-0.232242
-0.220411
-0.211657
-0.202407
-0.195722
-0.188378
-0.183232
-0.177335
-0.173363
-0.168592
-0.165529
-0.161648
-0.1593
-0.156132
-0.154347
-0.151754
-0.150414
-0.148283
-0.147291
-0.14553
-0.144803
-0.143334
-0.142798
-0.14155
-0.14114
-0.140049
-0.139701
-0.138704
-0.138357
-0.137393
-0.136983
-0.13599
-0.135448
-0.134361
-0.133615
-0.132363
-0.131334
-0.129844
-0.128443
-0.126649
-0.230782
-0.219024
-0.210325
-0.201133
-0.194491
-0.187193
-0.182081
-0.176221
-0.172275
-0.167534
-0.164492
-0.160635
-0.158304
-0.155156
-0.153385
-0.150807
-0.149479
-0.147362
-0.14638
-0.144632
-0.143914
-0.142455
-0.141929
-0.140691
-0.140292
-0.13921
-0.138876
-0.13789
-0.137558
-0.136607
-0.136217
-0.135238
-0.134723
-0.133649
-0.132937
-0.13169
-0.130698
-0.129185
-0.127806
-0.125895
-0.228981
-0.217315
-0.208684
-0.199564
-0.192974
-0.185732
-0.18066
-0.174846
-0.17093
-0.166226
-0.163208
-0.159382
-0.157068
-0.153946
-0.152188
-0.149632
-0.148314
-0.146215
-0.14524
-0.143508
-0.142795
-0.141351
-0.14083
-0.139606
-0.139212
-0.138144
-0.137815
-0.136844
-0.13652
-0.135585
-0.135205
-0.134244
-0.133741
-0.132684
-0.131983
-0.130747
-0.129755
-0.128232
-0.126821
-0.124859
-0.22703
-0.215462
-0.206905
-0.197863
-0.191329
-0.184149
-0.179121
-0.173356
-0.169475
-0.164811
-0.16182
-0.158027
-0.155734
-0.152638
-0.150898
-0.148364
-0.147059
-0.144979
-0.144015
-0.142298
-0.141596
-0.140165
-0.139654
-0.138441
-0.138057
-0.137001
-0.136683
-0.135724
-0.135414
-0.134491
-0.134129
-0.133181
-0.132701
-0.131657
-0.130982
-0.129752
-0.128786
-0.127246
-0.125845
-0.123811
-0.224739
-0.213289
-0.204818
-0.195868
-0.189399
-0.182292
-0.177314
-0.171608
-0.167766
-0.16315
-0.160188
-0.156434
-0.154164
-0.1511
-0.149376
-0.146869
-0.145577
-0.143519
-0.142565
-0.140867
-0.140171
-0.138757
-0.138251
-0.137054
-0.136673
-0.135632
-0.135318
-0.134373
-0.134068
-0.13316
-0.132804
-0.131871
-0.131398
-0.130368
-0.1297
-0.128482
-0.127517
-0.12598
-0.124569
-0.122516
-0.222306
-0.210979
-0.202599
-0.193745
-0.187347
-0.180317
-0.175394
-0.16975
-0.16595
-0.161383
-0.158455
-0.154741
-0.152497
-0.149467
-0.147763
-0.145283
-0.144007
-0.141971
-0.14103
-0.13935
-0.138665
-0.137267
-0.136769
-0.135585
-0.135213
-0.134183
-0.133877
-0.132943
-0.132647
-0.131749
-0.131404
-0.130481
-0.130021
-0.129001
-0.128348
-0.127137
-0.126189
-0.124654
-0.123257
-0.121192
-0.219535
-0.20835
-0.200075
-0.191333
-0.185014
-0.178072
-0.17321
-0.167636
-0.163883
-0.159375
-0.156482
-0.152816
-0.150599
-0.147607
-0.145924
-0.143476
-0.142214
-0.140205
-0.139274
-0.137617
-0.136939
-0.135559
-0.135066
-0.133899
-0.133529
-0.132513
-0.132209
-0.131287
-0.130992
-0.130106
-0.12976
-0.128849
-0.128388
-0.127379
-0.126726
-0.125528
-0.124582
-0.123065
-0.121676
-0.119644
-0.21663
-0.205592
-0.197427
-0.188799
-0.182564
-0.175714
-0.170917
-0.165417
-0.161714
-0.157265
-0.154412
-0.150793
-0.148607
-0.145654
-0.143995
-0.141579
-0.140336
-0.138353
-0.137436
-0.135799
-0.135132
-0.13377
-0.133285
-0.132131
-0.131768
-0.130763
-0.130464
-0.129551
-0.12926
-0.128381
-0.128039
-0.127133
-0.126676
-0.125673
-0.125024
-0.123836
-0.122898
-0.121403
-0.120036
-0.118054
-0.213391
-0.20252
-0.194477
-0.185979
-0.179838
-0.17309
-0.168364
-0.162947
-0.159299
-0.154917
-0.152106
-0.148542
-0.146388
-0.14348
-0.141845
-0.139465
-0.13824
-0.136287
-0.135382
-0.133771
-0.133112
-0.13177
-0.13129
-0.130153
-0.129792
-0.128801
-0.128501
-0.127599
-0.127304
-0.126435
-0.126087
-0.125189
-0.124725
-0.123731
-0.123076
-0.121903
-0.120966
-0.119505
-0.118161
-0.116261
-0.210026
-0.199325
-0.191409
-0.183044
-0.177
-0.170359
-0.165708
-0.160376
-0.156786
-0.152473
-0.149707
-0.146199
-0.14408
-0.141217
-0.139608
-0.137266
-0.136061
-0.134138
-0.133248
-0.131661
-0.131013
-0.12969
-0.129217
-0.128096
-0.127739
-0.126759
-0.126462
-0.125568
-0.125274
-0.12441
-0.12406
-0.123166
-0.122698
-0.121709
-0.121052
-0.119893
-0.118961
-0.117538
-0.116225
-0.114419
-0.206334
-0.195822
-0.188045
-0.179829
-0.173891
-0.167367
-0.162798
-0.15756
-0.154033
-0.149796
-0.147078
-0.143633
-0.14155
-0.138738
-0.137156
-0.134856
-0.13367
-0.131782
-0.130906
-0.129347
-0.128707
-0.127408
-0.12694
-0.125837
-0.125481
-0.124516
-0.124217
-0.123335
-0.123036
-0.12218
-0.121823
-0.120937
-0.12046
-0.119481
-0.118816
-0.117676
-0.116747
-0.115369
-0.11409
-0.112393
-0.202523
-0.192205
-0.184572
-0.176507
-0.170679
-0.164275
-0.15979
-0.154649
-0.151188
-0.147028
-0.144361
-0.140979
-0.138935
-0.136174
-0.134623
-0.132363
-0.1312
-0.129345
-0.128486
-0.126954
-0.126326
-0.125048
-0.124588
-0.123501
-0.12315
-0.122198
-0.1219
-0.121028
-0.120727
-0.119879
-0.119518
-0.118638
-0.118156
-0.117185
-0.116518
-0.115396
-0.114475
-0.113144
-0.111902
-0.110314
-0.198393
-0.188286
-0.180809
-0.17291
-0.167201
-0.160928
-0.156534
-0.151499
-0.148108
-0.144034
-0.14142
-0.138108
-0.136105
-0.133401
-0.13188
-0.129667
-0.128527
-0.12671
-0.125866
-0.124365
-0.123748
-0.122495
-0.122041
-0.120975
-0.120626
-0.119691
-0.119392
-0.118533
-0.118229
-0.117392
-0.117026
-0.116156
-0.11567
-0.114712
-0.114043
-0.112945
-0.112034
-0.110752
-0.10955
-0.108069
-0.194153
-0.184263
-0.176945
-0.169213
-0.163627
-0.157487
-0.153188
-0.14826
-0.144941
-0.140954
-0.138397
-0.135154
-0.133194
-0.130548
-0.12906
-0.126893
-0.125777
-0.123997
-0.123172
-0.121701
-0.121096
-0.119868
-0.119422
-0.118376
-0.118032
-0.117112
-0.116816
-0.115969
-0.115666
-0.11484
-0.114473
-0.113614
-0.113128
-0.112184
-0.11152
-0.110446
-0.10955
-0.108315
-0.107154
-0.105766
-0.189602
-0.179944
-0.172799
-0.16525
-0.159794
-0.1538
-0.149601
-0.144789
-0.141548
-0.137655
-0.135157
-0.131991
-0.130076
-0.127492
-0.126038
-0.123923
-0.122832
-0.121094
-0.120286
-0.11885
-0.118257
-0.117057
-0.116619
-0.115596
-0.115257
-0.114357
-0.114062
-0.113233
-0.11293
-0.11212
-0.111755
-0.110912
-0.110429
-0.109506
-0.10885
-0.107804
-0.106928
-0.10574
-0.104619
-0.103311
-0.184952
-0.175531
-0.168561
-0.161196
-0.155874
-0.150026
-0.145931
-0.141236
-0.138075
-0.134277
-0.13184
-0.128751
-0.126884
-0.124362
-0.122944
-0.120879
-0.119815
-0.118119
-0.11733
-0.115928
-0.115349
-0.114176
-0.113748
-0.112748
-0.112415
-0.111534
-0.111245
-0.110433
-0.110134
-0.10934
-0.10898
-0.108156
-0.107681
-0.10678
-0.106137
-0.105122
-0.10427
-0.103124
-0.102042
-0.100795
-0.18
-0.170832
-0.16405
-0.156883
-0.151704
-0.146014
-0.142028
-0.13746
-0.134383
-0.130687
-0.128315
-0.125309
-0.123491
-0.121038
-0.119656
-0.117648
-0.116611
-0.11496
-0.114192
-0.112827
-0.112262
-0.111121
-0.110703
-0.109729
-0.109404
-0.108546
-0.108263
-0.107472
-0.10718
-0.106408
-0.106057
-0.105256
-0.104794
-0.10392
-0.103298
-0.102316
-0.101493
-0.100387
-0.0993446
-0.0981387
-0.17496
-0.166048
-0.159456
-0.152489
-0.147455
-0.141923
-0.138049
-0.133608
-0.130618
-0.127024
-0.12472
-0.121797
-0.12003
-0.117644
-0.116302
-0.114348
-0.113341
-0.111735
-0.110988
-0.10966
-0.109111
-0.108001
-0.107594
-0.106646
-0.106329
-0.105495
-0.105219
-0.10445
-0.104167
-0.103417
-0.103077
-0.102302
-0.101856
-0.101012
-0.100414
-0.0994655
-0.098674
-0.0976031
-0.0965965
-0.0954158
-0.169627
-0.160989
-0.154598
-0.147845
-0.142965
-0.137603
-0.133847
-0.129542
-0.126642
-0.123159
-0.120924
-0.118091
-0.116377
-0.114065
-0.112763
-0.110869
-0.109892
-0.108336
-0.107611
-0.106324
-0.105791
-0.104715
-0.10432
-0.103402
-0.103095
-0.102288
-0.102022
-0.101279
-0.101007
-0.100284
-0.0999597
-0.0992134
-0.09879
-0.0979788
-0.0974108
-0.0964984
-0.0957442
-0.0947054
-0.0937352
-0.0925643
-0.164218
-0.155855
-0.149667
-0.143129
-0.138405
-0.133213
-0.129577
-0.125408
-0.122601
-0.119229
-0.117065
-0.114322
-0.112663
-0.110423
-0.109163
-0.107329
-0.106382
-0.104875
-0.104173
-0.102927
-0.102411
-0.101368
-0.100986
-0.100098
-0.0998012
-0.0990205
-0.0987644
-0.0980474
-0.0977871
-0.0970915
-0.0967826
-0.0960668
-0.0956649
-0.0948884
-0.0943491
-0.0934738
-0.0927542
-0.0917463
-0.0908074
-0.08964
-0.158528
-0.150456
-0.144484
-0.138174
-0.133614
-0.128603
-0.125093
-0.12107
-0.11836
-0.115105
-0.113015
-0.110368
-0.108766
-0.106605
-0.105387
-0.103617
-0.102703
-0.101249
-0.100571
-0.0993683
-0.0988701
-0.0978653
-0.0974968
-0.0966412
-0.0963567
-0.0956059
-0.095362
-0.0946741
-0.0944287
-0.0937632
-0.0934744
-0.0927912
-0.0924166
-0.0916758
-0.0911719
-0.0903328
-0.089654
-0.0886735
-0.0877697
-0.0865977
-0.152773
-0.144994
-0.139239
-0.133157
-0.128762
-0.123933
-0.12055
-0.116672
-0.114061
-0.110923
-0.10891
-0.106358
-0.104814
-0.10273
-0.101557
-0.0998506
-0.0989697
-0.0975673
-0.0969143
-0.0957549
-0.0952753
-0.0943068
-0.0939524
-0.0931284
-0.0928556
-0.0921338
-0.0919011
-0.0912417
-0.0910091
-0.0903734
-0.0901011
-0.0894508
-0.0890982
-0.0883939
-0.0879183
-0.0871171
-0.0864708
-0.0855211
-0.0846448
-0.0834773
-0.14675
-0.13928
-0.133752
-0.127912
-0.12369
-0.119053
-0.115803
-0.112079
-0.109571
-0.106557
-0.104623
-0.102172
-0.100689
-0.098688
-0.0975605
-0.0959222
-0.0950755
-0.0937294
-0.0931019
-0.0919895
-0.091529
-0.0906004
-0.0902611
-0.089472
-0.0892122
-0.0885223
-0.088303
-0.0876742
-0.0874577
-0.0868533
-0.086602
-0.085985
-0.0856603
-0.0849913
-0.0845513
-0.0837852
-0.08318
-0.0822575
-0.0814179
-0.0802515
-0.140674
-0.133513
-0.128214
-0.122615
-0.118568
-0.114122
-0.111007
-0.107437
-0.105032
-0.102143
-0.100289
-0.0979385
-0.0965166
-0.0945978
-0.0935171
-0.0919458
-0.0911344
-0.0898433
-0.0892421
-0.0881753
-0.0877344
-0.0868442
-0.0865198
-0.0857641
-0.0855165
-0.084857
-0.084649
-0.0840496
-0.0838452
-0.083271
-0.0830344
-0.0824497
-0.0821436
-0.08151
-0.0810928
-0.0803644
-0.0797851
-0.0788986
-0.0780837
-0.0769448
-0.134345
-0.127507
-0.122448
-0.117102
-0.113238
-0.108993
-0.106018
-0.102609
-0.100313
-0.0975543
-0.0957832
-0.0935395
-0.0921811
-0.0903494
-0.0893168
-0.0878171
-0.0870418
-0.0858098
-0.0852355
-0.084218
-0.0837973
-0.0829489
-0.0826401
-0.0819208
-0.0816865
-0.0810599
-0.080865
-0.0802968
-0.0801075
-0.0795641
-0.0793468
-0.0787939
-0.078513
-0.0779127
-0.0775283
-0.0768336
-0.0762948
-0.0754398
-0.0746692
-0.0735491
-0.127974
-0.121461
-0.116641
-0.111549
-0.107867
-0.103823
-0.100989
-0.0977416
-0.0955538
-0.0929256
-0.0912385
-0.0891005
-0.0878065
-0.0860609
-0.0850774
-0.083648
-0.0829096
-0.0817354
-0.0811886
-0.0802189
-0.0798185
-0.0790103
-0.0787169
-0.0780323
-0.07781
-0.0772145
-0.0770302
-0.0764912
-0.0763124
-0.0757982
-0.0755923
-0.0750697
-0.0748019
-0.0742345
-0.0738649
-0.0732075
-0.0726853
-0.0718756
-0.0711263
-0.0700717
-0.121364
-0.115189
-0.110619
-0.105791
-0.102301
-0.0984665
-0.0957793
-0.0927003
-0.0906253
-0.0881337
-0.0865334
-0.0845066
-0.083279
-0.0816243
-0.0806911
-0.0793364
-0.0786357
-0.0775231
-0.0770043
-0.0760859
-0.0757063
-0.0749415
-0.0746638
-0.0740166
-0.0738073
-0.0732451
-0.0730728
-0.0725647
-0.072399
-0.0719147
-0.0717248
-0.0712323
-0.0709857
-0.0704493
-0.0701088
-0.0694849
-0.0690041
-0.0682326
-0.0675431
-0.0665233
-0.114725
-0.108888
-0.104569
-0.100004
-0.0967049
-0.0930798
-0.0905396
-0.0876283
-0.0856668
-0.0833108
-0.0817981
-0.0798813
-0.078721
-0.077156
-0.0762739
-0.0749925
-0.0743302
-0.0732778
-0.0727875
-0.0719188
-0.0715602
-0.070837
-0.0705749
-0.0699632
-0.0697658
-0.069235
-0.0690725
-0.0685934
-0.0684366
-0.0679803
-0.0677994
-0.0673354
-0.0670977
-0.0665919
-0.0662597
-0.0656718
-0.0651975
-0.0644772
-0.0637977
-0.0628852
-0.107863
-0.102377
-0.098317
-0.0940274
-0.0909257
-0.0875186
-0.0851306
-0.0823944
-0.0805501
-0.0783359
-0.0769133
-0.075112
-0.0740205
-0.0725499
-0.0717201
-0.0705161
-0.0698929
-0.0689043
-0.0684429
-0.0676273
-0.0672899
-0.0666112
-0.0663648
-0.0657913
-0.0656062
-0.065109
-0.0649571
-0.0645088
-0.0643629
-0.063936
-0.063768
-0.0633335
-0.0631132
-0.0626385
-0.0623316
-0.0617794
-0.0613465
-0.0606721
-0.0600696
-0.0592011
-0.100986
-0.0958502
-0.0920488
-0.0880324
-0.0851285
-0.0819382
-0.0797024
-0.0771401
-0.0754134
-0.0733396
-0.0720077
-0.0703205
-0.0692987
-0.067921
-0.0671441
-0.0660161
-0.0654327
-0.0645063
-0.0640744
-0.0633101
-0.0629943
-0.0623584
-0.0621278
-0.0615906
-0.0614174
-0.0609519
-0.0608097
-0.0603903
-0.0602531
-0.059854
-0.059695
-0.0592888
-0.0590784
-0.0586346
-0.058338
-0.0578215
-0.0573953
-0.0567676
-0.0561632
-0.0554063
-0.0939014
-0.0891278
-0.0855941
-0.081861
-0.0791614
-0.0761962
-0.0741174
-0.0717359
-0.0701302
-0.0682028
-0.0669641
-0.065396
-0.0644454
-0.0631651
-0.0624421
-0.0613939
-0.0608508
-0.0599902
-0.0595879
-0.0588781
-0.0585838
-0.0579935
-0.0577785
-0.0572802
-0.0571185
-0.0566872
-0.0565544
-0.056166
-0.056038
-0.0556688
-0.0555206
-0.0551453
-0.0549498
-0.0545405
-0.0542661
-0.0537919
-0.0534006
-0.0528287
-0.0522816
-0.0515966
-0.0868148
-0.0824018
-0.079135
-0.0756836
-0.0731878
-0.0704459
-0.068524
-0.0663217
-0.0648372
-0.0630546
-0.0619094
-0.0604588
-0.05958
-0.0583955
-0.0577271
-0.0567571
-0.056255
-0.0554585
-0.0550866
-0.0544295
-0.0541575
-0.053611
-0.0534122
-0.0529509
-0.0528015
-0.0524023
-0.0522795
-0.0519206
-0.0518022
-0.0514617
-0.051325
-0.0509801
-0.0508009
-0.0504274
-0.050179
-0.0497516
-0.049406
-0.0489008
-0.0484359
-0.0478206
-0.0795377
-0.0754967
-0.0725048
-0.0693442
-0.0670582
-0.0645475
-0.0627869
-0.0607702
-0.0594101
-0.0577778
-0.0567283
-0.0554001
-0.0545944
-0.05351
-0.0528969
-0.052009
-0.0515482
-0.0508191
-0.0504774
-0.0498762
-0.0496258
-0.0491259
-0.0489427
-0.048521
-0.0483827
-0.0480181
-0.047904
-0.0475767
-0.0474665
-0.0471569
-0.0470298
-0.0467178
-0.0465519
-0.046217
-0.0459885
-0.0456103
-0.0452937
-0.0448541
-0.0444268
-0.0439129
-0.0722722
-0.0686009
-0.0658826
-0.0630109
-0.0609338
-0.0586522
-0.0570524
-0.0552195
-0.0539836
-0.0524998
-0.0515461
-0.0503386
-0.0496065
-0.0486202
-0.0480632
-0.0472555
-0.0468368
-0.0461734
-0.0458629
-0.0453156
-0.0450882
-0.0446331
-0.0444665
-0.0440826
-0.043957
-0.0436253
-0.043522
-0.0432246
-0.0431254
-0.0428452
-0.0427321
-0.0424519
-0.0423066
-0.0420093
-0.0418139
-0.041483
-0.0412204
-0.0408397
-0.0404952
-0.0400337
-0.0648336
-0.0615424
-0.0591051
-0.0565305
-0.0546679
-0.0526224
-0.0511876
-0.0495444
-0.0484357
-0.0471055
-0.0462497
-0.0451672
-0.04451
-0.043626
-0.0431255
-0.0424016
-0.0420251
-0.0414306
-0.041151
-0.0406606
-0.0404552
-0.0400476
-0.0398966
-0.039553
-0.0394384
-0.0391419
-0.0390468
-0.0387818
-0.0386901
-0.0384417
-0.0383372
-0.0380909
-0.0379575
-0.0376995
-0.0375211
-0.0372386
-0.0369992
-0.0366797
-0.0363649
-0.0359944
-0.0574205
-0.0545064
-0.0523483
-0.0500684
-0.048419
-0.0466073
-0.0453367
-0.043881
-0.0428991
-0.0417204
-0.0409625
-0.0400031
-0.039421
-0.0386372
-0.038194
-0.037552
-0.0372185
-0.036691
-0.0364433
-0.0360081
-0.0358262
-0.0354643
-0.0353306
-0.0350254
-0.0349241
-0.0346611
-0.0345775
-0.0343429
-0.0342632
-0.0340445
-0.0339553
-0.0337406
-0.0336291
-0.0334076
-0.0332623
-0.0330233
-0.0328344
-0.032566
-0.0323242
-0.0320041
-0.0498522
-0.0473247
-0.0454524
-0.0434747
-0.0420434
-0.0404719
-0.0393691
-0.0381064
-0.0372539
-0.0362316
-0.0355733
-0.0347412
-0.0342352
-0.0335555
-0.03317
-0.0326132
-0.0323227
-0.0318653
-0.0316491
-0.0312718
-0.0311123
-0.0307987
-0.0306807
-0.0304166
-0.0303263
-0.0300991
-0.0300237
-0.029822
-0.0297495
-0.029563
-0.0294819
-0.0293014
-0.0292008
-0.0290182
-0.0288888
-0.0286968
-0.0285309
-0.0283224
-0.0281153
-0.027889
-0.0423234
-0.0401788
-0.03859
-0.0369117
-0.0356969
-0.0343629
-0.0334268
-0.0323546
-0.0316309
-0.0307625
-0.0302036
-0.0294966
-0.0290671
-0.0284892
-0.0281619
-0.0276884
-0.0274417
-0.0270525
-0.0268688
-0.0265476
-0.0264122
-0.0261451
-0.026045
-0.02582
-0.0257437
-0.0255503
-0.0254871
-0.0253161
-0.0252563
-0.0250994
-0.025034
-0.0248843
-0.0248054
-0.0246574
-0.0245591
-0.0244076
-0.0242874
-0.0241267
-0.0239844
-0.0238063
-0.0346576
-0.0329044
-0.031605
-0.0302327
-0.0292388
-0.028148
-0.0273819
-0.0265052
-0.0259126
-0.0252026
-0.0247447
-0.0241665
-0.0238143
-0.0233419
-0.023073
-0.0226859
-0.0224828
-0.0221647
-0.022013
-0.0217506
-0.021638
-0.0214199
-0.0213359
-0.0211525
-0.0210875
-0.0209305
-0.0208758
-0.020738
-0.0206856
-0.020561
-0.0205038
-0.0203879
-0.0203199
-0.0202101
-0.0201277
-0.0200221
-0.0199263
-0.0198245
-0.019721
-0.019632
-0.0270454
-0.0256793
-0.0246665
-0.0235968
-0.022822
-0.0219712
-0.0213737
-0.0206896
-0.0202274
-0.019673
-0.0193157
-0.018864
-0.0185891
-0.0182198
-0.0180099
-0.0177071
-0.0175485
-0.0172994
-0.0171809
-0.0169752
-0.0168873
-0.0167163
-0.0166507
-0.0165071
-0.0164566
-0.0163339
-0.016292
-0.016185
-0.0161458
-0.0160506
-0.0160092
-0.0159233
-0.0158764
-0.0157992
-0.015746
-0.0156784
-0.0156236
-0.0155673
-0.0155208
-0.0154823
-0.0193149
-0.0183433
-0.0176222
-0.0168611
-0.0163089
-0.0157034
-0.0152773
-0.0147903
-0.0144603
-0.0140657
-0.0138102
-0.0134886
-0.0132917
-0.0130287
-0.0128779
-0.0126623
-0.0125478
-0.0123706
-0.0122844
-0.0121382
-0.0120735
-0.0119522
-0.0119031
-0.0118017
-0.011763
-0.0116771
-0.0116442
-0.0115708
-0.0115395
-0.0114766
-0.011444
-0.0113913
-0.0113557
-0.0113152
-0.0112784
-0.0112541
-0.0112238
-0.011222
-0.0112136
-0.0112519
-0.011652
-0.0110701
-0.0106375
-0.0101809
-0.00984926
-0.00948541
-0.00922908
-0.00893599
-0.00873719
-0.00849928
-0.00834517
-0.008151
-0.00803196
-0.0078729
-0.00778154
-0.00765087
-0.00758132
-0.00747372
-0.00742116
-0.00733229
-0.00729269
-0.00721902
-0.0071889
-0.00712756
-0.00710392
-0.00705276
-0.00703304
-0.00699072
-0.006973
-0.00693935
-0.00692261
-0.00689918
-0.00688406
-0.00687463
-0.00686516
-0.00687589
-0.00688252
-0.00692252
-0.0069631
-0.00705039
-0.00388962
-0.00370371
-0.00356397
-0.00341705
-0.00330895
-0.00319135
-0.00310709
-0.00301196
-0.00294596
-0.00286843
-0.00281663
-0.00275312
-0.00271245
-0.00266026
-0.00262834
-0.00258538
-0.00256029
-0.00252493
-0.0025051
-0.00247609
-0.00246017
-0.00243658
-0.00242347
-0.00240474
-0.00239352
-0.00237958
-0.00236963
-0.00236108
-0.00235226
-0.00235078
-0.0023438
-0.00235276
-0.00234996
-0.00237515
-0.00238234
-0.00243247
-0.00246229
-0.00255014
-0.00262451
-0.00277517
0.0037909
0.00358647
0.00343698
0.00327869
0.00316575
0.00304119
0.00295522
0.00285604
0.00279045
0.00271086
0.00266101
0.0025968
0.00255927
0.00250728
0.00247948
0.00243724
0.00241712
0.00238258
0.00236849
0.00233987
0.00233038
0.00230604
0.00229983
0.00227809
0.00227386
0.0022528
0.00224908
0.0022263
0.00222123
0.00219342
0.00218434
0.00214665
0.00212931
0.00207455
0.00204126
0.00195911
0.00189542
0.00177098
0.00165341
0.00146257
0.0115521
0.0109518
0.0105097
0.0100418
0.00970541
0.00933466
0.00907668
0.00877958
0.00858122
0.00834124
0.00818906
0.00799417
0.00787821
0.00771931
0.00763197
0.00750194
0.0074372
0.00733029
0.00728324
0.00719461
0.00716109
0.00708646
0.00706277
0.00699817
0.00698084
0.00692232
0.00690792
0.0068512
0.00683605
0.00677615
0.00675591
0.0066865
0.00665547
0.00656807
0.00651757
0.00640046
0.00631583
0.00615177
0.00600861
0.00576595
0.0192173
0.0182275
0.0174967
0.0167243
0.0161674
0.015555
0.0151271
0.014636
0.0143063
0.0139095
0.0136558
0.0133335
0.0131394
0.0128765
0.0127294
0.0125143
0.0124043
0.0122276
0.0121465
0.0120002
0.0119412
0.0118185
0.0117753
0.0116701
0.0116371
0.0115433
0.011515
0.0114267
0.0113974
0.011308
0.0112716
0.0111735
0.0111225
0.0110064
0.0109307
0.010784
0.0106679
0.0104723
0.0102894
0.010019
0.0269442
0.0255604
0.0245384
0.0234579
0.0226785
0.021821
0.0212219
0.0205339
0.0200719
0.0195155
0.0191599
0.0187074
0.0184352
0.0180658
0.0178594
0.0175567
0.0174022
0.0171533
0.0170392
0.0168331
0.0167498
0.0165769
0.0165158
0.0163678
0.0163211
0.0161898
0.0161499
0.0160276
0.015987
0.0158655
0.0158163
0.0156868
0.01562
0.0154723
0.0153774
0.015199
0.015062
0.0148358
0.0146353
0.014329
0.0345611
0.0327904
0.0314816
0.0300985
0.0290999
0.0280024
0.0272344
0.0263537
0.0257612
0.0250489
0.0245924
0.0240132
0.0236633
0.0231905
0.0229248
0.0225376
0.022338
0.0220196
0.0218717
0.0216082
0.0214994
0.0212787
0.0211982
0.0210095
0.0209471
0.0207807
0.0207268
0.0205728
0.020518
0.0203669
0.0203014
0.0201431
0.0200566
0.01988
0.019761
0.0195535
0.0193886
0.0191336
0.0189044
0.018574
0.0422208
0.0400597
0.0384623
0.0367738
0.0355548
0.0342143
0.0332767
0.0322006
0.0314771
0.0306065
0.030049
0.0293408
0.0289135
0.0283351
0.0280104
0.0275364
0.0272926
0.0269027
0.0267219
0.0263989
0.0262659
0.0259953
0.0258968
0.0256656
0.0255892
0.0253854
0.0253195
0.0251316
0.0250647
0.0248815
0.0248018
0.0246119
0.0245071
0.0242988
0.0241557
0.0239156
0.0237194
0.0234318
0.0231634
0.0228146
0.0497566
0.0472129
0.0453317
0.043344
0.0419081
0.0403302
0.0392254
0.0379588
0.0371061
0.0360814
0.035424
0.0345905
0.0340863
0.0334056
0.0330222
0.0324646
0.0321763
0.0317175
0.0315033
0.0311235
0.0309654
0.0306475
0.0305297
0.0302584
0.0301666
0.0299279
0.0298483
0.029629
0.0295482
0.0293355
0.0292401
0.0290213
0.0288975
0.0286598
0.0284939
0.0282241
0.0280031
0.0276871
0.0273984
0.0270235
0.0573165
0.0543875
0.0522217
0.0499325
0.0482791
0.0464615
0.0451893
0.04373
0.042748
0.0415671
0.04081
0.0398492
0.0392685
0.0384836
0.0380421
0.0373988
0.0370668
0.0365374
0.0362907
0.0358523
0.0356702
0.035303
0.0351675
0.0348541
0.0347484
0.0344729
0.0343812
0.0341286
0.0340354
0.0337912
0.0336811
0.0334312
0.0332885
0.0330195
0.0328287
0.0325273
0.0322749
0.0319294
0.0316055
0.031215
0.064739
0.0614331
0.0589877
0.056404
0.0545371
0.0524857
0.0510489
0.0494018
0.0482926
0.0469599
0.0461045
0.0450203
0.0443639
0.0434783
0.042979
0.0422533
0.0418775
0.0412805
0.0410009
0.0405066
0.0403
0.0398863
0.039732
0.0393793
0.0392587
0.038949
0.0388444
0.0385609
0.0384549
0.0381816
0.0380571
0.0377786
0.0376184
0.0373201
0.037108
0.0367763
0.0364996
0.0361238
0.0357755
0.0353561
0.0721668
0.0684826
0.0657576
0.0628776
0.0607971
0.0585102
0.056909
0.0550726
0.0538364
0.0523502
0.051397
0.0501876
0.0494562
0.0484683
0.0479118
0.047102
0.0466833
0.046017
0.0457055
0.0451537
0.0449236
0.0444617
0.0442901
0.0438963
0.0437622
0.0434166
0.0433004
0.0429845
0.0428667
0.0425629
0.0424246
0.042116
0.0419381
0.0416091
0.0413739
0.0410107
0.0407046
0.0402975
0.0399154
0.039469
0.0794439
0.0753903
0.0723913
0.0692227
0.0669327
0.0644167
0.0626541
0.0606338
0.0592728
0.0576379
0.0565882
0.055258
0.0544524
0.0533658
0.0527527
0.0518623
0.0514008
0.0506682
0.0503247
0.0497183
0.0494643
0.048957
0.0487674
0.0483353
0.0481872
0.0478084
0.0476802
0.0473345
0.0472052
0.0468733
0.0467222
0.0463858
0.0461924
0.0458346
0.0455797
0.0451854
0.0448548
0.0444133
0.0440011
0.0435166
0.086708
0.0822845
0.0790121
0.0755539
0.0730551
0.0703087
0.0683854
0.0661799
0.0646949
0.0629099
0.0617646
0.0603121
0.0594331
0.0582465
0.0575777
0.0566051
0.0561017
0.0553014
0.0549269
0.0542644
0.0539877
0.0534335
0.0532271
0.0527551
0.0525942
0.0521808
0.0520418
0.0516649
0.0515251
0.0511639
0.0510006
0.0506354
0.0504263
0.0500386
0.049763
0.0493364
0.048978
0.0485004
0.048052
0.0475259
0.0938085
0.0890246
0.0854849
0.0817452
0.079042
0.0760722
0.0739914
0.0716066
0.0699998
0.0680698
0.0668304
0.06526
0.0643087
0.063026
0.062302
0.0612508
0.0607058
0.0598411
0.0594355
0.0587199
0.0584202
0.0578219
0.0575985
0.0570893
0.0569154
0.0564699
0.0563202
0.0559147
0.0557648
0.0553767
0.0552024
0.0548104
0.0545879
0.0541717
0.0538784
0.0534194
0.0530366
0.0525199
0.0520367
0.0514593
0.100878
0.0957341
0.0919285
0.0879068
0.0850005
0.0818066
0.0795694
0.0770044
0.075277
0.073201
0.0718686
0.0701793
0.0691567
0.0677767
0.0669985
0.0658675
0.0652819
0.0643514
0.0639158
0.0631459
0.0628242
0.0621805
0.0619411
0.0613935
0.0612077
0.0607289
0.0605694
0.060134
0.0599748
0.0595588
0.059374
0.0589543
0.0587183
0.0582729
0.0579609
0.0574687
0.0570593
0.0565017
0.0559792
0.0553469
0.107771
0.102278
0.0982125
0.0939177
0.0908131
0.0874022
0.0850123
0.0822732
0.0804276
0.0782109
0.0767872
0.0749835
0.0738908
0.0724175
0.0715859
0.0703787
0.0697529
0.06876
0.0682945
0.0674732
0.0671295
0.0664433
0.0661878
0.0656044
0.0654064
0.0648968
0.0647276
0.0642648
0.0640967
0.0636549
0.0634605
0.0630149
0.062767
0.0622935
0.0619652
0.0614398
0.0610062
0.0604055
0.059845
0.05915
0.114616
0.108774
0.104451
0.0998835
0.0965823
0.0929544
0.0904132
0.0874997
0.0855374
0.0831793
0.0816658
0.0797469
0.0785854
0.077018
0.0761341
0.0748497
0.0741847
0.0731283
0.072634
0.0717602
0.0713956
0.0706656
0.0703949
0.0697746
0.0695654
0.0690239
0.0688458
0.0683544
0.0681779
0.0677093
0.0675055
0.0670331
0.0667731
0.0662705
0.065925
0.0653654
0.0649057
0.064261
0.063659
0.0629009
0.121272
0.115093
0.11052
0.105688
0.102195
0.0983582
0.0956694
0.0925879
0.0905115
0.0880177
0.086416
0.0843868
0.0831576
0.0815003
0.0805649
0.0792071
0.0785034
0.0773869
0.0768638
0.0759407
0.0755551
0.0747842
0.0744982
0.0738436
0.0736231
0.073052
0.0728649
0.072347
0.0721623
0.0716687
0.071456
0.0709582
0.0706868
0.0701561
0.0697946
0.0692011
0.068717
0.0680273
0.067386
0.06656
0.127863
0.121348
0.116527
0.111433
0.107751
0.103705
0.10087
0.0976208
0.0954321
0.0928022
0.091114
0.0889741
0.0876786
0.0859308
0.0849452
0.0835132
0.082772
0.0815945
0.0810438
0.0800702
0.0796647
0.0788519
0.0785517
0.0778615
0.0776306
0.0770288
0.0768333
0.0762879
0.0760954
0.0755756
0.075354
0.0748295
0.0745462
0.0739863
0.0736075
0.0729792
0.0724684
0.0717337
0.0710501
0.0701605
0.134254
0.127415
0.122353
0.117006
0.11314
0.108893
0.105917
0.102507
0.100208
0.0974481
0.0956754
0.0934297
0.0920693
0.0902353
0.0892004
0.087698
0.0869197
0.0856846
0.0851066
0.0840857
0.0836602
0.0828082
0.0824935
0.0817705
0.0815288
0.0808986
0.0806945
0.0801235
0.0799229
0.0793785
0.0791477
0.0785979
0.0783026
0.0777142
0.0773182
0.0766555
0.0761191
0.0753398
0.0746169
0.0736629
0.140563
0.133402
0.128104
0.122505
0.118458
0.114011
0.110895
0.107324
0.104919
0.102028
0.100173
0.0978211
0.0963975
0.0944768
0.0933941
0.0918207
0.0910067
0.0897133
0.0891091
0.0880401
0.0875957
0.0867036
0.0863754
0.0856185
0.0853669
0.0847073
0.0844952
0.0838974
0.0836891
0.083119
0.082879
0.0823024
0.0819944
0.0813762
0.0809616
0.0802633
0.0796991
0.0788752
0.0781104
0.077098
0.146661
0.139191
0.133663
0.127823
0.1236
0.118962
0.115711
0.111986
0.109476
0.106462
0.104526
0.102073
0.100588
0.0985848
0.0974551
0.0958147
0.0949654
0.0936172
0.092987
0.091873
0.0914096
0.0904803
0.0901383
0.08935
0.0890881
0.0884012
0.0881807
0.087558
0.0873414
0.086747
0.086497
0.085895
0.0855734
0.0849262
0.0844924
0.0837593
0.0831674
0.0823004
0.0814966
0.0804298
0.152661
0.144885
0.139132
0.133052
0.128658
0.123829
0.120446
0.116568
0.113956
0.110818
0.108803
0.10625
0.104704
0.102619
0.101444
0.0997363
0.0988532
0.0974497
0.0967946
0.0956349
0.0951538
0.0941864
0.0938318
0.0930111
0.0927399
0.0920248
0.0917965
0.091148
0.0909236
0.0903039
0.0900442
0.0894154
0.0890802
0.0884028
0.087949
0.0871799
0.0865593
0.0856489
0.0848051
0.0836878
0.15844
0.150371
0.1444
0.138092
0.133531
0.128521
0.12501
0.120987
0.118276
0.11502
0.112929
0.11028
0.108676
0.106513
0.105293
0.103522
0.102606
0.10115
0.100471
0.0992685
0.0987695
0.0977668
0.0973991
0.0965487
0.0962676
0.0955264
0.0952898
0.0946173
0.0943843
0.093741
0.0934706
0.0928165
0.0924665
0.0917601
0.0912851
0.0904814
0.089831
0.0888792
0.0879954
0.0868327
0.164105
0.155748
0.149564
0.14303
0.138306
0.133117
0.129481
0.125313
0.122506
0.119133
0.116968
0.114224
0.112563
0.110323
0.10906
0.107226
0.106277
0.10477
0.104067
0.102822