/*--------------------------------*- C++ -*----------------------------------*\
| =========                 |                                                 |
| \\      /  F ield         | foam-extend: Open Source CFD                    |
|  \\    /   O peration     | Version:  3.0                                   |
|   \\  /    A nd           | Web:         http://www.extend-project.de       |
|    \\/     M anipulation  |                                                 |
\*---------------------------------------------------------------------------*/
FoamFile
{
    version     2.0;
    format      ascii;
    class       volScalarField;
    location    "16";
    object      p;
}
// * * * * * * * * * * * * * * * * * * * * * * * * * * * * * * * * * * * * * //

dimensions      [0 0 0 0 0 0 0];

internalField   nonuniform List<scalar> 
672
(
-0.2282794691
-0.1930513218
-0.1822014554
-0.1632186611
-0.1607405391
-0.1495715727
-0.1504639118
-0.1435090838
-0.1449273522
-0.1399015177
-0.1393482906
-0.1341068425
-0.2252799343
-0.1905105004
-0.179794532
-0.1610520892
-0.1585973025
-0.1475657637
-0.1484369414
-0.1415657262
-0.1429569104
-0.1379914063
-0.1374419858
-0.132258127
-0.2195807689
-0.1856808384
-0.1752334781
-0.1569639398
-0.1545756427
-0.1438251985
-0.1446829109
-0.1379870742
-0.1393513285
-0.1345100139
-0.1339747181
-0.1289250756
-0.210996855
-0.1784150046
-0.1683696757
-0.1508056702
-0.1485042781
-0.1381661739
-0.1389841765
-0.1325443361
-0.1338502502
-0.1291943037
-0.1286789242
-0.1238105868
-0.1998729056
-0.1689979252
-0.1594790574
-0.142837674
-0.1406602731
-0.1308666894
-0.1316477772
-0.1255470089
-0.1267884145
-0.122375416
-0.121879988
-0.1172624965
-0.1861354558
-0.1573747034
-0.1485048518
-0.1330004836
-0.1309694589
-0.1218432546
-0.1225687488
-0.1168831217
-0.1180383035
-0.1139254476
-0.1134652417
-0.1091513079
-0.1701422765
-0.1438407457
-0.1357278139
-0.1215495229
-0.1196929952
-0.1113470997
-0.1120137838
-0.1068128775
-0.1078718596
-0.10410613
-0.1036816772
-0.09972353899
-0.1519412615
-0.1284437564
-0.1211948727
-0.1085277437
-0.1068700001
-0.09941275935
-0.1000102947
-0.0953607547
-0.09630551512
-0.09293307701
-0.09254014172
-0.08898183373
-0.1318806864
-0.1114714373
-0.1051713388
-0.09416727943
-0.09272497594
-0.08624468899
-0.08676343267
-0.08271990322
-0.08354054993
-0.08060210864
-0.08025785448
-0.07714464168
-0.1101271957
-0.0930713842
-0.08780721554
-0.07861264432
-0.07741161267
-0.07199764574
-0.07243811333
-0.06905843215
-0.06974874348
-0.06728666152
-0.06699106033
-0.06437113491
-0.08700748278
-0.07351363429
-0.06934229918
-0.0620643804
-0.06110849679
-0.0568196585
-0.05716413634
-0.05448325403
-0.05502403641
-0.05306614408
-0.05282035741
-0.05071717608
-0.06278842278
-0.0530298959
-0.05001427818
-0.04475338214
-0.04406850723
-0.04097030885
-0.04123048
-0.03929386085
-0.03969465626
-0.03827519495
-0.03809525466
-0.03655590015
-0.03777332917
-0.03187103276
-0.03003757686
-0.02685069238
-0.02642881523
-0.02454782025
-0.02470083515
-0.02352102617
-0.02375801367
-0.02288716981
-0.02276438251
-0.02179178285
-0.01229754297
-0.01032604123
-0.009709777386
-0.008646096411
-0.008510142893
-0.007883200007
-0.007947727
-0.007552048639
-0.007641107508
-0.007337579111
-0.007280819912
-0.006907502956
0.01335265205
0.01136806955
0.01077178717
0.009708180225
0.00957551087
0.008953823609
0.009000586826
0.00861906624
0.008696859399
0.008435246548
0.008424882821
0.008208715423
0.03881420671
0.03289936817
0.03108590847
0.02789946352
0.02748153193
0.02560590076
0.02574243871
0.02457695444
0.02480368769
0.02397394734
0.02389696921
0.02307200575
0.0638067157
0.05403544333
0.05103934334
0.04577894588
0.04509896415
0.04200529883
0.04225021449
0.04032553696
0.04071335275
0.03932984055
0.03918189861
0.03777255044
0.08798367688
0.07447861646
0.07032682512
0.06305029403
0.06210104014
0.05781634796
0.05814884328
0.05547831026
0.05600871642
0.05408236303
0.05386819845
0.05187616052
0.1110591504
0.09399169928
0.08874597142
0.07955270215
0.07835988723
0.0729482194
0.07337971097
0.07000516457
0.07068429255
0.06824190808
0.06796456403
0.06542291824
0.1327443185
0.1123258335
0.1060441582
0.09504242133
0.09361047909
0.08713047618
0.08764331385
0.08359749972
0.08440365091
0.08146724629
0.08111695476
0.07804116508
0.1527410649
0.1292335977
0.1220012154
0.10933606
0.1076902705
0.1002307204
0.1008267299
0.09616745024
0.09710035133
0.09371230412
0.09330630231
0.08974486992
0.1708501417
0.1445418551
0.1364453427
0.1222700758
0.1204277243
0.1120773022
0.1127458101
0.1075276681
0.1085718488
0.1047727466
0.1043111308
0.1003058848
0.1867630453
0.1579944491
0.1491380351
0.1336361643
0.1316198189
0.1224868082
0.1232170995
0.1175085088
0.1186474787
0.1144885018
0.11397351
0.1095746096
0.2003886856
0.1695097276
0.1600042238
0.1433661667
0.1412054239
0.1314038578
0.1321938714
0.126067691
0.1272967499
0.1228323165
0.1222833276
0.1175566898
0.211419878
0.178832624
0.1687962864
0.1512349934
0.1489490084
0.1386012219
0.1394294297
0.1329602915
0.1342515767
0.1295359067
0.1289501948
0.1239457998
0.2198772385
0.1859760704
0.1755378884
0.1572709747
0.1548990986
0.1441375466
0.1450077677
0.1382799477
0.1396298899
0.1347222812
0.1341083896
0.1288988824
0.2254759679
0.1907037976
0.1799908768
0.1612504999
0.1588090664
0.1477654421
0.1486493137
0.1417435317
0.1431218653
0.1380840699
0.1374554607
0.1320995553
0.2283374504
0.1931142398
0.182266352
0.1632861288
0.1608206044
0.1496386476
0.1505439959
0.1435524899
0.1449574204
0.139855049
0.1392176955
0.1337995976
0.2282271196
0.1930132414
0.1821611255
0.1631812468
0.1607064394
0.1495215524
0.150416192
0.1434219768
0.1448189259
0.1397163723
0.1390809568
0.1336580555
0.2253446718
0.1905660064
0.1798519373
0.161109895
0.1586728116
0.1476319669
0.1485252897
0.1416240618
0.1430140176
0.1379803313
0.1373586246
0.132016068
0.2195356459
0.1856454698
0.175198632
0.1569310778
0.1545468905
0.1437832532
0.1446436785
0.1379160955
0.1392628236
0.1343598525
0.1337543762
0.1285500847
0.2110493488
0.1784595295
0.1684161961
0.1508520058
0.1485642636
0.1382190907
0.1390540412
0.1325926694
0.1338982715
0.1291941588
0.1286259332
0.1236423354
0.1998372293
0.1689699084
0.1594525392
0.1428134853
0.140639601
0.1308384296
0.1316220554
0.125502322
0.1267347628
0.1222851162
0.1217515227
0.117041265
0.1861693036
0.1574027761
0.1485335969
0.1330278346
0.1310032281
0.121872536
0.1226058577
0.1169085648
0.1180627725
0.1139249956
0.1134365577
0.1090668699
0.1701191175
0.1438223682
0.1357120322
0.1215359326
0.1196816055
0.1113346423
0.1120026351
0.1067970801
0.1078549144
0.1040794484
0.1036470777
0.09966970055
0.1519535153
0.1284528626
0.1212025601
0.1085326882
0.1068725516
0.09941403597
0.1000089958
0.09536049191
0.09630650455
0.09293941129
0.09255739127
0.08901891524
0.1318706221
0.1114631822
0.1051668206
0.09416475487
0.09272326661
0.08624924749
0.08676802441
0.08273731701
0.08356511726
0.0806514811
0.08033272755
0.07728250205
0.1101192394
0.09306280745
0.08779511444
0.07859666425
0.07738478238
0.07197309672
0.07240088783
0.06903641555
0.06972918417
0.06730653889
0.06705725412
0.06453195124
0.08700858633
0.07351409441
0.06934756005
0.06207157882
0.06111566797
0.05683979666
0.05718419288
0.05453246028
0.05509051678
0.05318968761
0.05300648371
0.05103924958
0.06276560305
0.05300836163
0.04998770242
0.04472211736
0.04402020366
0.04092669755
0.04116664004
0.03925445132
0.03965703676
0.03829860853
0.03818408458
0.03678869797
0.03778154149
0.03187711983
0.03004926193
0.0268643469
0.02644220805
0.02457815174
0.02473135778
0.02358946813
0.02384951977
0.02305154728
0.02300984701
0.02221106182
0.01226804357
0.01029874348
0.009676869435
0.008608203943
0.0084526717
0.007831494038
0.007873024003
0.007505435016
0.007597559161
0.007363327596
0.007383794139
0.007176432315
-0.01334276732
-0.01136055597
-0.01075835548
-0.009692593651
-0.009559870793
-0.008920329551
-0.0089663663
-0.00854553631
-0.008599079674
-0.008262653785
-0.00816925259
-0.007773671608
-0.03884096382
-0.03292417196
-0.03111587299
-0.027934066
-0.02753422432
-0.02565281227
-0.02581025531
-0.02461747509
-0.02484004006
-0.02394417159
-0.02379281829
-0.02281340775
-0.06380097405
-0.0540310415
-0.05102936949
-0.04576649848
-0.04508585053
-0.04197627182
-0.04221992978
-0.040260701
-0.04062805355
-0.03917962442
-0.03896380742
-0.0374048515
-0.08799882699
-0.07449321765
-0.07034532916
-0.06307262864
-0.06213649448
-0.05784735463
-0.05819468068
-0.05550248111
-0.05602858868
-0.05404992519
-0.05377818169
-0.05166972612
-0.1110625742
-0.09399439131
-0.08874418037
-0.07954822055
-0.07835416912
-0.07293146079
-0.0733612082
-0.06996305049
-0.07062783027
-0.06814127887
-0.06781805158
-0.06518162139
-0.132741272
-0.1123245548
-0.1060451281
-0.09504636274
-0.09362039674
-0.08713932903
-0.08765879112
-0.08360362435
-0.08440830211
-0.08144789752
-0.08107413495
-0.07794626785
-0.1527568037
-0.1292459366
-0.1220107753
-0.1093430401
-0.1076957842
-0.1002329867
-0.1008275006
-0.09616297863
-0.09709129176
-0.09369449923
-0.09327657531
-0.0896971348
-0.1708258172
-0.1445220358
-0.1364261335
-0.1222530892
-0.1204087736
-0.1120619641
-0.112727738
-0.107516476
-0.1085614374
-0.1047754817
-0.1043265289
-0.1003459142
-0.1867917426
-0.1580169622
-0.1491597244
-0.1336555317
-0.1316377674
-0.1225100745
-0.1232400116
-0.1175462595
-0.1186938754
-0.1145645322
-0.1140816148
-0.1097475096
-0.2003440667
-0.1694721254
-0.1599658896
-0.1433292688
-0.1411591726
-0.1313651781
-0.1321434982
-0.1260375436
-0.1272681163
-0.122846751
-0.1223382713
-0.1177021814
-0.2114596005
-0.1788637506
-0.1688282537
-0.1512647345
-0.1489771644
-0.1386412969
-0.1394693828
-0.1330298775
-0.1343384806
-0.129679652
-0.1291548023
-0.1242779697
-0.2198173112
-0.1859248412
-0.1754850499
-0.1572186801
-0.1548318368
-0.1440803533
-0.1449322078
-0.1382340048
-0.1395877225
-0.1347452693
-0.1341997462
-0.1291343534
-0.2255228505
-0.1907405628
-0.1800292345
-0.1612865736
-0.1588428773
-0.1478148311
-0.1486977063
-0.1418303525
-0.1432300597
-0.1382667612
-0.1377164714
-0.1325314068
-0.2282706254
-0.1930568291
-0.1822069149
-0.1632266937
-0.1607429247
-0.1495716494
-0.1504545087
-0.1434964848
-0.1449048729
-0.1398780299
-0.1393209205
-0.134072442
)
;

boundaryField
{
    out
    {
        type            implicitExtrapolation;
    }
    in
    {
        type            implicitExtrapolation;
    }
    frontAndBack
    {
        type            empty;
    }
}


// ************************************************************************* //
