/*--------------------------------*- C++ -*----------------------------------*\
| =========                 |                                                 |
| \\      /  F ield         | foam-extend: Open Source CFD                    |
|  \\    /   O peration     | Version:  3.0                                   |
|   \\  /    A nd           | Web:         http://www.extend-project.de       |
|    \\/     M anipulation  |                                                 |
\*---------------------------------------------------------------------------*/
FoamFile
{
    version     2.0;
    format      ascii;
    class       volVectorField;
    location    "16";
    object      u;
}
// * * * * * * * * * * * * * * * * * * * * * * * * * * * * * * * * * * * * * //

dimensions      [0 0 0 0 0 0 0];

internalField   nonuniform List<vector> 
672
(
(0.4029364638 -0.1001635215 2.693328917e-17)
(0.3866061099 -0.06442980402 9.155086975e-18)
(0.7761710747 -0.05567597839 2.116015538e-17)
(0.6915454949 -0.03558618829 -7.818828774e-18)
(0.9328933177 -0.03321059724 3.659529675e-17)
(0.8334070424 -0.02324905931 2.92912491e-17)
(1.011862149 -0.02082719559 7.454484188e-17)
(0.9001224619 -0.01671041726 -1.744411011e-17)
(1.054283102 -0.01380815952 1.797427414e-17)
(0.9277159855 -0.01203135837 3.15229781e-17)
(1.073892456 -0.01028351553 -1.331627478e-17)
(0.9335621884 -0.00734484861 -5.226896528e-18)
(0.446149209 -0.2856085134 2.921423728e-17)
(0.4134273607 -0.1817362347 -6.286300549e-17)
(0.7991953683 -0.1557403341 7.562552412e-17)
(0.705351991 -0.09684666821 -1.348649597e-16)
(0.9455271317 -0.08927995393 -4.255405933e-17)
(0.841525579 -0.05989715188 -2.359985603e-17)
(1.018695626 -0.05175087351 -2.050198442e-16)
(0.9052387704 -0.03977150309 6.330674317e-17)
(1.057916936 -0.02926566917 -2.385677713e-17)
(0.9304943537 -0.02512015333 3.558805109e-17)
(1.076411287 -0.01604147018 -9.178038457e-17)
(0.932966462 -0.01023817052 1.616951711e-16)
(0.5291073487 -0.4569240626 -5.796600075e-17)
(0.4659944297 -0.2894691422 9.877336211e-17)
(0.8443530338 -0.2477904786 6.225656671e-18)
(0.7332471491 -0.1529089017 1.842419207e-16)
(0.9713815656 -0.1406580823 1.569244058e-17)
(0.858729282 -0.09340984365 1.470416035e-16)
(1.033534026 -0.08002990997 1.022286313e-16)
(0.9165783346 -0.06111597212 1.361167848e-16)
(1.065666768 -0.04313074926 -8.886858007e-17)
(0.9378623809 -0.03806081595 4.377939311e-17)
(1.078794514 -0.01992691653 -3.573384258e-17)
(0.9373513935 -0.0150442295 9.688544106e-19)
(0.6484871101 -0.605411527 -1.031349184e-16)
(0.5411455608 -0.3837361392 -7.683511161e-17)
(0.9086213885 -0.3281139659 -1.410794594e-16)
(0.7723158974 -0.202242265 -5.262131075e-18)
(1.007216668 -0.1857209676 -2.835338248e-16)
(0.8819438455 -0.1228781446 9.616866459e-17)
(1.053308906 -0.1047738788 -3.22244341e-16)
(0.9310094194 -0.07936221433 1.544535795e-16)
(1.076262585 -0.05542691268 -1.452119374e-16)
(0.9453134396 -0.04772856905 2.709735356e-16)
(1.085121483 -0.02499780877 -2.100778878e-16)
(0.9366933869 -0.01634340221 3.416034092e-16)
(0.7977040343 -0.7236484612 3.136601285e-16)
(0.6351069055 -0.4578499756 3.290460036e-17)
(0.9893008736 -0.3913762983 1.625605271e-16)
(0.8216488708 -0.2406043469 3.043118233e-17)
(1.052812441 -0.220864126 1.903818436e-16)
(0.9119092191 -0.1458150722 1.139715892e-16)
(1.07892333 -0.1239531309 5.898263227e-17)
(0.9505417107 -0.09445297856 2.620875851e-17)
(1.089007242 -0.06422385042 1.130509799e-16)
(0.9579468027 -0.05805567189 -2.766507616e-16)
(1.088139744 -0.02567893308 1.40978949e-16)
(0.9429646196 -0.02115101323 -1.077876485e-16)
(0.9697078805 -0.8057558372 -1.972354765e-16)
(0.7437766181 -0.5103358458 4.22949562e-17)
(1.082230065 -0.4359782242 -2.365251127e-16)
(0.8783697497 -0.2681199737 1.632987848e-16)
(1.104888491 -0.245843124 -3.756435127e-16)
(0.9457376645 -0.1621581831 1.395312577e-16)
(1.107772962 -0.137361603 -2.678096211e-16)
(0.9713805792 -0.1042146501 5.79608718e-17)
(1.10447556 -0.07060776278 -1.5729238e-16)
(0.9683142522 -0.06234289253 4.495157473e-16)
(1.097034168 -0.02875852812 -4.489992635e-16)
(0.9429902861 -0.02089668186 3.945624479e-16)
(1.155562332 -0.8474734445 9.439977924e-18)
(0.8605400094 -0.5362370845 5.94933443e-17)
(1.182372981 -0.4579973483 -2.719475862e-17)
(0.9393577111 -0.2813350994 -1.157775583e-16)
(1.161122817 -0.2578952433 2.530578806e-16)
(0.9826566871 -0.17016157 -3.037045442e-17)
(1.138982997 -0.1436194685 1.36067719e-16)
(0.9957575543 -0.1102895961 -4.28740026e-17)
(1.119663752 -0.07224068104 9.591221447e-17)
(0.9843396062 -0.06829649316 -2.964182e-16)
(1.100871544 -0.02559457716 2.666666866e-16)
(0.9492010194 -0.0250679241 -1.151855823e-16)
(1.346177863 -0.8469246994 3.757468647e-17)
(0.9812036044 -0.5364708259 -5.047187734e-17)
(1.285616857 -0.45790182 1.65935328e-16)
(1.002493928 -0.2814353718 -5.391851119e-17)
(1.219083768 -0.2577170731 1.731496979e-17)
(1.020501499 -0.1699733881 -5.437263256e-17)
(1.170759416 -0.143163584 7.700869891e-17)
(1.019452658 -0.1095133805 -1.360934901e-17)
(1.135405848 -0.07210231752 -5.50478042e-17)
(0.997062064 -0.06621538109 2.765534853e-16)
(1.107816652 -0.02726908747 -2.499835547e-16)
(0.9508816754 -0.02222759442 1.739949236e-16)
(1.531823086 -0.8038529666 1.518147531e-17)
(1.097705283 -0.5090686876 -8.461807626e-18)
(1.385447129 -0.4344077694 -2.814122968e-16)
(1.063119142 -0.2669540349 1.60164277e-16)
(1.274934226 -0.2444430597 -2.367141147e-16)
(1.057047649 -0.1613469547 1.777329321e-16)
(1.201517851 -0.1355862828 -1.585571571e-16)
(1.043563375 -0.1046383169 7.635967899e-17)
(1.150082487 -0.06699062053 3.297445385e-17)
(1.013037618 -0.06532903226 -2.17968321e-16)
(1.110955065 -0.02140852849 1.820029525e-16)
(0.9576607698 -0.02576868497 -1.901666452e-16)
(1.703337296 -0.7207481522 5.954510232e-17)
(1.206412729 -0.4569653034 -1.981945499e-17)
(1.478521573 -0.3895232043 3.190832161e-16)
(1.120049407 -0.2395532557 -8.819735251e-17)
(1.327278721 -0.2189754783 2.056530039e-16)
(1.091275243 -0.1446009288 -2.033426526e-16)
(1.230167839 -0.1210073832 1.525846375e-16)
(1.065256862 -0.09362089506 -5.661838974e-17)
(1.163952585 -0.05928367262 -7.05223968e-18)
(1.025162902 -0.05808560408 -4.731188758e-18)
(1.116569554 -0.01912697949 3.23836731e-17)
(0.9593187801 -0.02166827078 -9.87665248e-18)
(1.851997398 -0.6014170645 -2.699871406e-18)
(1.299656119 -0.3816541153 -2.167985438e-17)
(1.558393845 -0.3251751065 -1.52003989e-16)
(1.168436179 -0.2002725815 -5.711824194e-17)
(1.37184963 -0.1830182385 -3.37835517e-17)
(1.120393564 -0.1211976963 7.645600324e-18)
(1.254425881 -0.1011581377 -4.478840079e-17)
(1.084627042 -0.07913382954 -3.330619112e-18)
(1.174769336 -0.04881057355 1.798586422e-17)
(1.038577907 -0.05066996388 -8.183258659e-18)
(1.117236695 -0.01327704697 1.369285038e-17)
(0.9661202826 -0.02208253115 -3.643713032e-17)
(1.97047049 -0.4522235313 -5.414774619e-17)
(1.374811196 -0.2875494292 -1.672467649e-18)
(1.62278739 -0.2443626524 1.144463963e-16)
(1.207774628 -0.1508025597 1.896067403e-17)
(1.408065452 -0.1372369468 9.00954662e-17)
(1.144091003 -0.0911211524 -8.016217293e-17)
(1.274072133 -0.0752648343 1.267348574e-16)
(1.099800427 -0.05964850839 -8.081496326e-17)
(1.183934565 -0.03520287859 3.014447596e-17)
(1.047242532 -0.03876874108 -5.097221377e-17)
(1.120619468 -0.007995137199 7.858379433e-17)
(0.9676920401 -0.01737288594 -7.753807455e-17)
(2.052721151 -0.2802587836 1.910106372e-17)
(1.426385313 -0.1791491559 -1.644664414e-17)
(1.666995227 -0.1518572944 -3.394564514e-17)
(1.234461771 -0.09445222666 -3.972813025e-17)
(1.432659929 -0.08569578361 -1.414769734e-17)
(1.160268469 -0.05754533851 -1.487370191e-17)
(1.287112022 -0.04708397814 -8.312214621e-18)
(1.111145227 -0.03843954776 -2.376133449e-17)
(1.188783885 -0.0212060304 2.585495539e-17)
(1.056049088 -0.02665688242 -2.404612906e-17)
(1.119216956 -0.002252894948 2.443089497e-17)
(0.9720296768 -0.01516210771 -2.607462649e-17)
(2.09472136 -0.0945459544 -1.582325639e-17)
(1.453030101 -0.06173939215 2.693822764e-18)
(1.689895338 -0.05115517515 3.139705339e-17)
(1.24833867 -0.03273565452 8.173557365e-18)
(1.445478779 -0.02871979903 3.698532463e-17)
(1.16867345 -0.01999603612 -2.029335563e-17)
(1.293710951 -0.01533419303 4.259312712e-17)
(1.116775775 -0.01386018031 -2.598093432e-17)
(1.191085543 -0.005739891619 1.639312188e-17)
(1.059680149 -0.01099595763 -2.342305506e-17)
(1.119073622 0.001906249192 2.859408226e-17)
(0.9735226611 -0.008305007424 -3.416173497e-17)
(2.094305697 0.0960116912 7.217649064e-18)
(1.45274651 0.05841734172 -1.382892327e-17)
(1.689777257 0.05127388319 -1.016313499e-17)
(1.24809102 0.02962604989 -2.669059921e-17)
(1.445348303 0.02824510765 -3.81195817e-18)
(1.16865126 0.01721811098 -2.562095057e-17)
(1.293183248 0.01556671502 -1.368248338e-18)
(1.117403164 0.01007678021 -2.156721186e-17)
(1.189572002 0.009111033847 1.346006461e-17)
(1.061230494 0.003362974964 -1.782922378e-17)
(1.116561657 0.007467582872 1.855619502e-17)
(0.9746048247 -0.00539488277 -2.065206048e-17)
(2.051554077 0.2814537056 3.683175844e-18)
(1.425538261 0.1757690195 1.701017695e-17)
(1.666624615 0.1518392336 1.327716445e-17)
(1.233701866 0.09127768194 2.358996098e-17)
(1.432224674 0.08508740837 4.529277759e-17)
(1.160059563 0.05477330122 -1.36116563e-17)
(1.285553733 0.0469391013 6.994781871e-17)
(1.112422118 0.03492825723 -3.380388897e-17)
(1.184800065 0.02350899266 2.029873571e-17)
(1.059297264 0.01992795214 -3.158063832e-17)
(1.113122891 0.009524964666 3.852709391e-17)
(0.9750426921 0.003198297988 -6.30220932e-17)
(1.968593013 0.4528832317 2.790873974e-18)
(1.373428738 0.2840461929 -3.317068451e-17)
(1.622238449 0.2440505474 -1.35828877e-17)
(1.20656429 0.1474591881 -6.156093126e-17)
(1.407428648 0.1363409222 -1.082210214e-17)
(1.143770874 0.08833730554 -5.637493168e-17)
(1.271641294 0.07452903474 -2.530619598e-17)
(1.101868312 0.05670834025 -4.612438177e-17)
(1.177550538 0.03633679674 2.59396333e-17)
(1.052514983 0.0332758642 -6.251057316e-18)
(1.110749012 0.01393128097 6.736555712e-18)
(0.9724353261 0.006203974448 -7.983761229e-18)
(1.849590504 0.6013385717 8.014768857e-17)
(1.297752651 0.3779618077 2.691948346e-17)
(1.557672567 0.3244484798 8.325295886e-17)
(1.166788882 0.1967108153 -1.689970743e-17)
(1.371037763 0.1816967874 1.410079811e-16)
(1.11989696 0.1184148289 -4.949480319e-17)
(1.251438286 0.09933791331 1.414308656e-16)
(1.087184208 0.07711501261 -5.730178887e-17)
(1.166908237 0.04697872079 6.261028871e-17)
(1.04519277 0.04791268644 -1.215802806e-16)
(1.105048791 0.01382831072 9.930428425e-17)
(0.9712980634 0.01435046419 -1.459780225e-16)
(1.700550374 0.7197168237 -1.68070443e-16)
(1.204045214 0.4530410402 -8.312625743e-18)
(1.477747973 0.388301615 -8.448655103e-17)
(1.118034832 0.2357155567 1.486523394e-17)
(1.326414445 0.2172224225 -1.271515072e-16)
(1.090464232 0.1416937993 -3.785952501e-17)
(1.226941321 0.1182760422 -4.330981606e-17)
(1.067450726 0.0921189017 1.206274816e-17)
(1.155589232 0.05528266431 -7.477095342e-17)
(1.031371912 0.05712542352 1.747060424e-16)
(1.103471211 0.01582768456 -9.580932975e-17)
(0.9651042012 0.01722792866 8.314478625e-17)
(1.528883995 0.8017987704 1.185764613e-16)
(1.094946843 0.5048314617 -3.003682709e-17)
(1.384664973 0.4325664532 1.137689483e-16)
(1.060851649 0.2627655665 -1.056459621e-16)
(1.274058751 0.2421424867 2.185669014e-16)
(1.056098193 0.1582603892 -7.016650157e-17)
(1.198138602 0.1319573355 1.436964823e-16)
(1.045800562 0.1036897834 -1.96906835e-17)
(1.141073832 0.06117918092 1.003395961e-16)
(1.019572094 0.06609261637 -3.058053519e-16)
(1.096601109 0.01535467807 3.020515434e-16)
(0.9629558941 0.0230712117 -2.526566582e-16)
(1.343301403 0.8437225931 2.58270488e-17)
(0.9781024196 0.5318904484 -3.297988267e-17)
(1.284934792 0.4554351558 8.037837689e-17)
(1.000038282 0.276913881 1.019897369e-16)
(1.218291323 0.254896088 -1.837315248e-16)
(1.019406421 0.1667043495 3.646782874e-17)
(1.167628044 0.1385287196 -1.109887559e-16)
(1.021360995 0.1090672876 4.525899302e-17)
(1.127298578 0.06367331879 -9.127670086e-17)
(1.00248974 0.06913645096 2.937476289e-16)
(1.095604148 0.01601090644 -2.699292827e-16)
(0.9536469828 0.02327871953 1.55725194e-16)
(1.152971425 0.8431828226 -8.432862817e-17)
(0.8572446716 0.5312809552 6.04673372e-17)
(1.181869573 0.4548207461 -2.943001493e-16)
(0.9368494476 0.2764707893 9.411230597e-17)
(1.160482322 0.2544565766 -1.109632993e-16)
(0.9814147234 0.1666047396 1.183124712e-16)
(1.136193328 0.1381616159 -1.509021087e-16)
(0.9969122791 0.1097699954 4.60065776e-17)
(1.112571769 0.06264729691 3.736311814e-17)
(0.9878735979 0.07144015802 -2.53658711e-16)
(1.090620558 0.01292764807 2.294662412e-16)
(0.9500030103 0.02733239597 -1.236612743e-16)
(0.9676004686 0.8003838755 -2.440150215e-17)
(0.7403480065 0.5049502531 3.105336699e-17)
(1.082020563 0.4321306905 4.254652206e-16)
(0.8759000815 0.2629243137 -1.986640191e-16)
(1.104523658 0.241838356 3.541218561e-16)
(0.9444865505 0.1584477466 -2.210864002e-16)
(1.105614013 0.1311150408 2.303860007e-16)
(0.9720969394 0.104176192 -8.781553726e-17)
(1.098842499 0.05946687627 -4.9625861e-17)
(0.9704968649 0.06687556199 3.137477369e-16)
(1.089290998 0.01379617398 -2.657308687e-16)
(0.9408908531 0.0237107679 2.851729883e-16)
(0.7962805523 0.7173344415 -8.908381484e-17)
(0.6316921586 0.4520925107 2.385395583e-17)
(0.9894452005 0.3868247761 -5.823769951e-16)
(0.8192601752 0.23516533 1.388425125e-16)
(1.052818696 0.2162670637 -4.142032045e-16)
(0.91048872 0.141826439 3.860016113e-16)
(1.077885971 0.1170263367 -3.229988292e-16)
(0.9500012169 0.09408859052 1.419795788e-16)
(1.086693337 0.05197921559 -1.218963202e-17)
(0.9566950857 0.06246851986 2.990069954e-17)
(1.086621036 0.008842207019 -9.189347364e-17)
(0.9364880697 0.0247404679 2.754368322e-17)
(0.6478249341 0.5983003472 -5.736323143e-17)
(0.5378907692 0.3775482724 4.254063264e-17)
(0.909209333 0.322997742 3.069536336e-16)
(0.7701739229 0.196521661 1.802502507e-16)
(1.007666413 0.1806957041 3.75857165e-17)
(0.8805423868 0.1184460194 1.471472871e-18)
(1.053220099 0.09775139457 7.343865933e-17)
(0.9295949235 0.07803869076 2.844328299e-17)
(1.075965728 0.0437602077 -6.674161262e-17)
(0.9420529689 0.05060161541 -1.834019855e-17)
(1.086190808 0.008965479467 -8.287489944e-18)
(0.9288106523 0.0192840206 4.54374744e-17)
(0.5294056055 0.4491822821 2.129156202e-16)
(0.4629418574 0.2829885923 2.56445474e-20)
(0.8454563489 0.2420594598 -2.434534419e-16)
(0.7313101636 0.1470473958 -1.114114089e-16)
(0.9722594816 0.1352114859 -2.095830559e-16)
(0.8573773532 0.08865039291 1.898147292e-16)
(1.034265932 0.07307724774 -3.654724264e-16)
(0.9146645524 0.05894825955 2.311774738e-16)
(1.067233293 0.03226386177 -8.9874988e-17)
(0.9331013017 0.03955878887 1.569981126e-16)
(1.083087671 0.004938330293 -2.48894101e-16)
(0.9268392072 0.01637673527 2.394893989e-16)
(0.4472528042 0.2774782146 -1.11642015e-16)
(0.4108698787 0.1749481871 1.489369868e-17)
(0.8007304712 0.1496295411 9.146546092e-17)
(0.7038194695 0.09090079816 9.041397402e-17)
(0.9467993406 0.08358479895 8.763368368e-17)
(0.8404263057 0.05476113274 -2.105715765e-17)
(1.020181919 0.04513852249 6.868786125e-17)
(0.9030955231 0.03620690002 2.857104583e-17)
(1.061256544 0.02006104418 -1.018315481e-16)
(0.9245649026 0.02382594654 4.394253482e-17)
(1.083858141 0.003811374925 -4.210245008e-17)
(0.920918943 0.009604840934 2.663707152e-17)
(0.4051536397 0.09179835402 4.677900327e-17)
(0.3843835782 0.05751235728 2.184083225e-17)
(0.7783538834 0.04916247481 -1.088945916e-16)
(0.6903347145 0.02962800819 3.347965357e-17)
(0.9346680556 0.02725936465 -9.311953155e-17)
(0.8326053036 0.01780445563 5.252941333e-17)
(1.013876747 0.01464986725 -2.34258766e-17)
(0.8981503545 0.01192152739 -1.086367631e-17)
(1.058229848 0.006461058794 1.898418447e-17)
(0.9219046551 0.008237723297 1.258018137e-17)
(1.081890029 0.001026282304 -2.970960342e-17)
(0.921934242 0.004140282194 2.686887811e-17)
(0.4055568996 -0.09859640454 -2.677723912e-17)
(0.3844685527 -0.06264199112 -8.837059572e-18)
(0.7780889144 -0.05364572416 -2.142249582e-17)
(0.6899683366 -0.03296042936 8.300439368e-18)
(0.9340265195 -0.03029398096 -3.650081018e-17)
(0.8319958089 -0.01991579865 -2.871975218e-17)
(1.013141237 -0.016505468 -7.403629673e-17)
(0.8974905622 -0.01288417811 1.781060796e-17)
(1.057885803 -0.007455511123 -1.783267734e-17)
(0.9209448282 -0.007838503155 -3.11190468e-17)
(1.082784829 -0.001546741208 1.300292497e-17)
(0.9196524118 -0.002367903022 5.436760952e-18)
(0.4480943608 -0.2840980956 -2.942207496e-17)
(0.4115414269 -0.1796488447 6.240908324e-17)
(0.8013798752 -0.1537363775 -7.580938793e-17)
(0.704369095 -0.0938595081 1.34461447e-16)
(0.9474302295 -0.08628139815 4.159439692e-17)
(0.840976542 -0.05664769395 2.374397764e-17)
(1.020650707 -0.04678962832 2.032815796e-16)
(0.9036941976 -0.03736217113 -6.22688517e-17)
(1.061096343 -0.02067767868 2.18794474e-17)
(0.925602958 -0.02443683992 -3.330191275e-17)
(1.082303008 -0.00303403659 8.874232797e-17)
(0.9231233858 -0.008936352355 -1.574582037e-16)
(0.5309695217 -0.4555142659 5.835883348e-17)
(0.4638848376 -0.2880666376 -9.802554015e-17)
(0.8457303409 -0.2465592892 -6.019348954e-18)
(0.7313046387 -0.1504680173 -1.831248327e-16)
(0.971829158 -0.1383665552 -1.519535987e-17)
(0.8568498351 -0.09073660021 -1.459491686e-16)
(1.033447384 -0.07507230171 -1.018151104e-16)
(0.9138688172 -0.0594110401 -1.352359184e-16)
(1.066476822 -0.03369260228 8.838492061e-17)
(0.9319189268 -0.03785514006 -4.307873684e-17)
(1.083248673 -0.006616638868 3.503020299e-17)
(0.9247217356 -0.01334320699 -8.160652813e-19)
(0.6496999736 -0.6041307837 1.025874142e-16)
(0.5390132789 -0.3814921388 7.647502165e-17)
(0.9099647552 -0.3265223503 1.399354241e-16)
(0.7706195511 -0.19898762 5.264307213e-18)
(1.008029717 -0.1829931052 2.813226835e-16)
(0.8807488492 -0.1199732312 -9.516895512e-17)
(1.053323308 -0.09920697005 3.192037342e-16)
(0.9298534879 -0.07897293203 -1.519734153e-16)
(1.075481864 -0.04414391013 1.415730453e-16)
(0.9428886605 -0.05144869864 -2.661873969e-16)
(1.084306072 -0.00711061061 2.042361869e-16)
(0.9305312316 -0.01959992285 -3.336912597e-16)
(0.7986475449 -0.7226558991 -3.130490486e-16)
(0.6333169534 -0.4566182461 -3.220115542e-17)
(0.9901853963 -0.3909260128 -1.617033508e-16)
(0.8195681622 -0.2383398325 -2.956946073e-17)
(1.052642087 -0.2192177746 -1.892719258e-16)
(0.9099633818 -0.1436958642 -1.133257126e-16)
(1.077155385 -0.1189135681 -5.796995379e-17)
(0.9487538267 -0.09415128756 -2.608414963e-17)
(1.085943221 -0.05347319595 -1.126536498e-16)
(0.9546240386 -0.05999899722 2.75891743e-16)
(1.086654346 -0.010897175 -1.400311858e-16)
(0.9337507718 -0.02051122395 1.062272892e-16)
(0.9700399512 -0.8049771917 1.964496375e-16)
(0.7415198379 -0.5080107915 -4.238326174e-17)
(1.082573229 -0.4350277447 2.345739839e-16)
(0.8759662256 -0.2649554503 -1.626316927e-16)
(1.10439228 -0.2437806102 3.72765641e-16)
(0.9440571477 -0.159729333 -1.379751475e-16)
(1.10524916 -0.1323311041 2.645700636e-16)
(0.971505858 -0.1049211487 -5.525083455e-17)
(1.098131573 -0.05956228269 1.537726503e-16)
(0.9704113524 -0.06760290757 -4.449739498e-16)
(1.086995083 -0.01125733053 4.439215814e-16)
(0.9421880194 -0.02447174897 -3.882209827e-16)
(1.155575098 -0.8471645216 -8.678063701e-18)
(0.859126252 -0.5348907872 -5.903746607e-17)
(1.182769552 -0.4581996147 2.872637081e-17)
(0.9372344231 -0.279147371 1.160278297e-16)
(1.160345693 -0.2568949219 -2.513661353e-16)
(0.9807544978 -0.1681824804 3.031874901e-17)
(1.135421971 -0.1395308414 -1.349965942e-16)
(0.9950903443 -0.1097638537 4.291176637e-17)
(1.112074693 -0.06342270669 -9.593369738e-17)
(0.9843535326 -0.06903382338 2.965622872e-16)
(1.091715588 -0.01423609817 -2.671918401e-16)
(0.9451905798 -0.02258668571 1.158569344e-16)
(1.345677151 -0.8468934624 -3.838293481e-17)
(0.9789192707 -0.5341406479 5.061988974e-17)
(1.284991427 -0.457823627 -1.684309506e-16)
(0.9995334163 -0.2786910163 5.503648685e-17)
(1.217419252 -0.2567043584 -2.060063336e-17)
(1.018306946 -0.1679723867 5.649167457e-17)
(1.166310567 -0.1397757739 -8.00058906e-17)
(1.020205372 -0.1098484463 1.573166308e-17)
(1.125261169 -0.06399285808 5.299376497e-17)
(1.002044104 -0.06964419898 -2.743322083e-16)
(1.091529368 -0.01412473611 2.477908732e-16)
(0.9539594566 -0.02340277041 -1.716957706e-16)
(1.531057004 -0.8044077451 -1.453324364e-17)
(1.096505825 -0.5073997753 8.800808794e-18)
(1.385268682 -0.4351111463 2.831582606e-16)
(1.060923768 -0.2648119375 -1.600768379e-16)
(1.273572013 -0.2440202164 2.385166313e-16)
(1.055000046 -0.1593733816 -1.782221609e-16)
(1.196841598 -0.1330226912 1.595530646e-16)
(1.043223557 -0.1032817642 -7.603931296e-17)
(1.139861723 -0.06190204244 -3.403998451e-17)
(1.014831305 -0.06342512251 2.196263588e-16)
(1.096777849 -0.01643408315 -1.844207228e-16)
(0.9571073966 -0.01880561419 1.935665169e-16)
(1.702206669 -0.7215889092 -6.01380123e-17)
(1.204181202 -0.4547203327 1.998537708e-17)
(1.477119741 -0.3904199576 -3.215365558e-16)
(1.116831706 -0.2374740534 8.930662542e-17)
(1.324776108 -0.2191737224 -2.089465783e-16)
(1.088545259 -0.1431216692 2.059245e-16)
(1.224787225 -0.1197846717 -1.559708668e-16)
(1.065317632 -0.09299446743 5.94428472e-17)
(1.152662498 -0.0557275405 4.51462881e-18)
(1.029724726 -0.05774116145 7.51447454e-18)
(1.098397324 -0.01362595584 -3.54080214e-17)
(0.9635174497 -0.01807493446 1.292715671e-17)
(1.850708968 -0.6028552231 3.006131525e-18)
(1.298390819 -0.3796645868 2.213515038e-17)
(1.557499979 -0.3263018215 1.533023756e-16)
(1.166106623 -0.1982604219 5.754754373e-17)
(1.369842493 -0.183129113 3.510192743e-17)
(1.117999262 -0.1193004061 -8.087737644e-18)
(1.2494002 -0.1001733387 4.553024377e-17)
(1.083644338 -0.07692182096 3.289558436e-18)
(1.164637161 -0.04753123537 -1.865353168e-17)
(1.039556385 -0.04608403959 8.824088913e-18)
(1.103082575 -0.01453870668 -1.449283192e-17)
(0.9651293446 -0.01091841949 3.737143346e-17)
(1.968982321 -0.4538822778 5.380904993e-17)
(1.37269692 -0.2854958629 1.753513423e-18)
(1.620857013 -0.2461728189 -1.162986815e-16)
(1.204666607 -0.1494623895 -1.819975714e-17)
(1.405088455 -0.1386249927 -9.262462903e-17)
(1.141013839 -0.09023975242 8.253805162e-17)
(1.268701143 -0.07632058396 -1.295163614e-16)
(1.098425148 -0.0581903635 8.375036685e-17)
(1.173892644 -0.03667033623 -3.305102208e-17)
(1.048817828 -0.03470817158 5.487583929e-17)
(1.105092531 -0.01123593163 -8.299900565e-17)
(0.9688326576 -0.008536480342 8.292310118e-17)
(2.051175125 -0.2824214844 -1.907455753e-17)
(1.424808575 -0.1770763875 1.671818088e-17)
(1.665298581 -0.1534223641 3.46758058e-17)
(1.231955069 -0.09273418402 4.012091933e-17)
(1.42999071 -0.08643419697 1.463662243e-17)
(1.157272493 -0.0558889128 1.463618694e-17)
(1.282424194 -0.04773166505 8.264461139e-18)
(1.108343747 -0.03560427474 2.385723251e-17)
(1.18093492 -0.02366580848 -2.660931378e-17)
(1.053683223 -0.01991316216 2.434510714e-17)
(1.108461629 -0.009320754269 -2.486227503e-17)
(0.9684541809 -0.001558489759 2.629778722e-17)
(2.093112928 -0.09679247827 1.579001596e-17)
(1.451093921 -0.06000860136 -2.464504698e-18)
(1.687660534 -0.05367438148 -3.224806972e-17)
(1.245609502 -0.03207164041 -7.714606258e-18)
(1.442386097 -0.03105251061 -3.775874687e-17)
(1.165304626 -0.01978420839 2.131156844e-17)
(1.289336805 -0.0179885271 -4.300329889e-17)
(1.113102062 -0.01242824149 2.683757389e-17)
(1.184699947 -0.01019306737 -1.665508466e-17)
(1.055963372 -0.005772633618 2.429645943e-17)
(1.110014645 -0.005988320782 -2.934210888e-17)
(0.9688743024 0.002021012035 3.514502369e-17)
(2.092682932 0.09341971427 -7.357288285e-18)
(1.450779561 0.06017476846 1.353644578e-17)
(1.687301968 0.04922838672 1.044060058e-17)
(1.245454633 0.03082390964 2.623881075e-17)
(1.442117456 0.02683959369 3.732772236e-18)
(1.165028454 0.0182122453 2.507567935e-17)
(1.289354822 0.01384565811 8.66207264e-19)
(1.112378505 0.01223102845 2.122049466e-17)
(1.185328451 0.004859793993 -1.361102059e-17)
(1.054555473 0.009561942358 1.744364157e-17)
(1.111203795 -0.002284010451 -1.826368681e-17)
(0.9672881614 0.007780542398 2.047256136e-17)
(2.049943176 0.2789480649 -3.466880212e-18)
(1.42387079 0.177040607 -1.654368328e-17)
(1.664228818 0.1489047818 -1.309821761e-17)
(1.231513078 0.09139817337 -2.31619716e-17)
(1.429211139 0.08218747353 -4.434576549e-17)
(1.156531589 0.05420401426 1.350623439e-17)
(1.282506011 0.04369827746 -6.822299611e-17)
(1.106370345 0.03507339559 3.28379618e-17)
(1.182731729 0.01876121965 -1.83715978e-17)
(1.049864589 0.02297415522 2.944150593e-17)
(1.111637107 0.001790677892 -3.563863428e-17)
(0.9644810126 0.01047466541 5.907060776e-17)
(1.966938007 0.4502045562 -3.162572388e-18)
(1.371230086 0.2850651484 3.244535014e-17)
(1.619132451 0.2414843987 1.339411517e-17)
(1.203964553 0.1479040555 6.046665764e-17)
(1.403818409 0.1342384535 1.034264088e-17)
(1.139805103 0.08824784128 5.529979605e-17)
(1.268762182 0.07238721367 2.490678008e-17)
(1.09523935 0.05691775582 4.523272647e-17)
(1.176657879 0.0324954488 -2.542180684e-17)
(1.042661429 0.03622154673 5.501979026e-18)
(1.110150754 0.005217025901 -5.964136648e-18)
(0.9622476688 0.01530313909 7.723561412e-18)
(1.847953239 0.5988870836 -7.959200916e-17)
(1.296465556 0.3786716014 -2.654063558e-17)
(1.555146534 0.3214060017 -8.211133587e-17)
(1.16516812 0.1964406359 1.691448839e-17)
(1.368104517 0.178629749 -1.388031365e-16)
(1.116435976 0.1169902174 4.853694481e-17)
(1.249387629 0.09647758344 -1.38418928e-16)
(1.079630186 0.07478359727 5.492962611e-17)
(1.168000866 0.04435161806 -5.907622204e-17)
(1.031958366 0.04577130079 1.170204257e-16)
(1.109049582 0.01021000808 -9.374341574e-17)
(0.9573693717 0.01547484729 1.385121711e-16)
(1.698782792 0.7172303935 1.674821808e-16)
(1.201990688 0.4530445144 7.629176283e-18)
(1.47427798 0.3852409569 8.364251752e-17)
(1.11575875 0.2352682125 -1.570449089e-17)
(1.322666969 0.2144518873 1.260705912e-16)
(1.086717493 0.1402980566 3.722853412e-17)
(1.224606508 0.1162466915 4.233219165e-17)
(1.060657544 0.0896325233 -1.220286533e-17)
(1.156254264 0.05373457654 7.440246013e-17)
(1.020982799 0.05485195316 -1.739688906e-16)
(1.104918118 0.01181723347 9.494384949e-17)
(0.9547236632 0.01905069989 -8.168284251e-17)
(1.527099656 0.7996060447 -1.17774222e-16)
(1.094151906 0.5049250039 3.013299697e-17)
(1.381964389 0.4296204117 -1.118197291e-16)
(1.059728288 0.2621935438 1.05004658e-16)
(1.271098799 0.2391034632 -2.157137736e-16)
(1.053038444 0.1560928685 6.865143729e-17)
(1.196393188 0.1296957974 -1.405000919e-16)
(1.038478021 0.09885816803 1.707563918e-17)
(1.143140615 0.06095458713 -9.688792237e-17)
(1.006278594 0.05841553232 3.013984852e-16)
(1.102509932 0.01635443514 -2.971042914e-16)
(0.9490062747 0.01712478569 2.465602934e-16)
(1.341291096 0.8415611716 -2.657534958e-17)
(0.9766402225 0.5308667847 3.254857661e-17)
(1.2814218 0.4520255676 -8.188456222e-17)
(0.9983625157 0.2756069649 -1.022242244e-16)
(1.214721679 0.2515528095 1.820845128e-16)
(1.016342901 0.1641122105 -3.639602325e-17)
(1.165511775 0.1365466977 1.099334002e-16)
(1.015549874 0.1041114541 -4.523876081e-17)
(1.127883232 0.06410389835 9.124516623e-17)
(0.9938545036 0.06192306409 -2.937682934e-16)
(1.096270985 0.01637886263 2.702984146e-16)
(0.9467125079 0.01811913421 -1.561612975e-16)
(1.150910712 0.8413015228 8.513649559e-17)
(0.8570383824 0.5307621966 -6.059419009e-17)
(1.178971312 0.4520519079 2.967778926e-16)
(0.9361109583 0.275564917 -9.520801265e-17)
(1.15744385 0.251490982 1.142249714e-16)
(0.9789321815 0.1638578531 -1.204038217e-16)
(1.134182297 0.1363268967 1.538784428e-16)
(0.9911320739 0.1032070746 -4.812492788e-17)
(1.113452045 0.0641266247 -3.528755013e-17)
(0.9779739914 0.05975789257 2.514271378e-16)
(1.093998618 0.01755511132 -2.27218143e-16)
(0.940511052 0.01514147367 1.21305963e-16)
(0.9652641648 0.7985283036 2.378628832e-17)
(0.7398239879 0.5031431578 -3.137890187e-17)
(1.078746266 0.428634584 -4.271760773e-16)
(0.8750208008 0.260912489 1.986019705e-16)
(1.10142571 0.2381739703 -3.558896944e-16)
(0.9424736629 0.1549443723 2.216127775e-16)
(1.103590252 0.1289706383 -2.313853766e-16)
(0.9682856956 0.0975596999 8.763017435e-17)
(1.098310672 0.06042597145 5.055010672e-17)
(0.9656527614 0.05670822466 -3.151595562e-16)
(1.087378842 0.01544672321 2.678316866e-16)
(0.9396586889 0.0145161584 -2.880831474e-16)
(0.793906229 0.7156811507 8.969008871e-17)
(0.6321281338 0.4510322711 -2.400380533e-17)
(0.9863931538 0.3842384914 5.848093705e-16)
(0.8188515231 0.2338070192 -1.399293983e-16)
(1.049697163 0.2133551265 4.174650444e-16)
(0.9087236184 0.138558595 -3.885489849e-16)
(1.07516065 0.1152551109 3.26348918e-16)
(0.9465968364 0.08653975367 -1.447949135e-16)
(1.084754426 0.05388001536 1.472729494e-17)
(0.9523364917 0.04889333992 -3.269412696e-17)
(1.084236952 0.01431684437 9.495042786e-17)
(0.9347922472 0.01012510357 -3.064290559e-17)
(0.645194265 0.5966391289 5.707325959e-17)
(0.5384384447 0.3753596741 -4.297468638e-17)
(0.9063524691 0.3197285374 -3.082248634e-16)
(0.7701966534 0.1940520568 -1.806590585e-16)
(1.005160916 0.1770229745 -3.886487439e-17)
(0.8798613603 0.1145594555 -9.994424293e-19)
(1.050983987 0.09517325073 -7.416301944e-17)
(0.9286541042 0.07123744113 -2.832216434e-17)
(1.073003698 0.04376763787 6.734136421e-17)
(0.942713627 0.04021996738 1.787870959e-17)
(1.079625356 0.009716165732 8.88553058e-18)
(0.9344177488 0.008501675215 -4.606238772e-17)
(0.5268461221 0.4476143934 -2.12562417e-16)
(0.463995029 0.2815006868 -8.958232026e-20)
(0.84240008 0.2396227901 2.452984207e-16)
(0.7312673782 0.1451555343 1.106734753e-16)
(0.969217663 0.1322393311 2.120851046e-16)
(0.8564432891 0.08517068799 -1.921560786e-16)
(1.031073026 0.07051780659 3.682159212e-16)
(0.9137852933 0.05211213248 -2.340740635e-16)
(1.063133169 0.03184726871 9.273359308e-17)
(0.9340737084 0.02799027543 -1.608439208e-16)
(1.076600349 0.006545483864 2.532438757e-16)
(0.9318685454 0.003700957357 -2.447486225e-16)
(0.4444975575 0.2758897441 1.116307635e-16)
(0.4123646425 0.1728021479 -1.514228442e-17)
(0.7983518326 0.1468796119 -9.21828189e-17)
(0.7047022088 0.08823673032 -9.077576409e-17)