/*--------------------------------*- C++ -*----------------------------------*\
| =========                 |                                                 |
| \\      /  F ield         | foam-extend: Open Source CFD                    |
|  \\    /   O peration     | Version:  3.0                                   |
|   \\  /    A nd           | Web:         http://www.extend-project.de       |
|    \\/     M anipulation  |                                                 |
\*---------------------------------------------------------------------------*/
FoamFile
{
    version     2.0;
    format      ascii;
    class       volScalarField;
    location    "20";
    object      p;
}
// * * * * * * * * * * * * * * * * * * * * * * * * * * * * * * * * * * * * * //

dimensions      [0 0 0 0 0 0 0];

internalField   nonuniform List<scalar> 
576
(
-7.07391
-7.13046
-5.53736
-5.63387
-4.73365
-4.90261
-4.36699
-4.56575
-4.29313
-4.45942
-4.45288
-4.50595
-6.95222
-7.00764
-5.44237
-5.53704
-4.65247
-4.81862
-4.29213
-4.48766
-4.21966
-4.3832
-4.37673
-4.42888
-6.71298
-6.76653
-5.25489
-5.34635
-4.49217
-4.65249
-4.14419
-4.33285
-4.0741
-4.23199
-4.2257
-4.27607
-6.35723
-6.40804
-4.97661
-5.06327
-4.25442
-4.4064
-3.92498
-4.10377
-3.85868
-4.00826
-4.00228
-4.05003
-5.89446
-5.94147
-4.61416
-4.69448
-3.9445
-4.08531
-3.639
-3.80467
-3.57743
-3.71611
-3.71052
-3.75481
-5.32902
-5.37172
-4.17166
-4.2445
-3.5664
-3.69388
-3.29036
-3.44022
-3.2348
-3.3602
-3.35516
-3.39522
-4.67425
-4.71153
-3.65897
-3.7227
-3.12802
-3.23967
-2.88582
-3.01715
-2.83704
-2.94697
-2.94255
-2.97767
-3.93769
-3.96933
-3.08249
-3.13644
-2.63539
-2.72958
-2.4315
-2.54217
-2.39049
-2.48311
-2.47943
-2.50903
-3.13552
-3.16056
-2.45447
-2.49728
-2.09839
-2.17325
-1.93597
-2.02397
-1.90327
-1.97695
-1.97404
-1.99759
-2.27805
-2.29648
-1.78335
-1.81469
-1.52484
-1.57932
-1.40696
-1.47088
-1.38326
-1.4368
-1.43473
-1.45185
-1.38309
-1.39418
-1.0827
-1.1017
-0.925774
-0.958769
-0.854188
-0.892876
-0.839781
-0.872212
-0.871001
-0.881384
-0.463103
-0.467071
-0.36267
-0.369288
-0.310376
-0.321476
-0.286526
-0.29939
-0.281763
-0.292571
-0.292258
-0.295736
0.463671
0.467256
0.36288
0.368975
0.309947
0.321036
0.285814
0.299044
0.280936
0.291961
0.29139
0.294886
1.38345
1.39422
1.08278
1.10131
0.925283
0.958284
0.853448
0.8925
0.838943
0.871587
0.870129
0.88053
2.27885
2.29686
1.78374
1.81451
1.52455
1.57896
1.40634
1.47058
1.38251
1.43623
1.43392
1.45106
3.13577
3.16055
2.45449
2.49688
2.09791
2.17275
1.93528
2.02357
1.90249
1.97634
1.97323
1.99679
3.93869
3.96993
3.08303
3.13638
2.63526
2.72928
2.43103
2.54188
2.38988
2.48261
2.47875
2.50834
4.67444
4.71153
3.65896
3.72232
3.1276
3.23917
2.88524
3.01674
2.83641
2.94641
2.94187
2.97699
5.33007
5.37242
4.17219
4.24451
3.56637
3.6936
3.29006
3.43995
3.23439
3.35979
3.35465
3.39468
5.89458
5.94145
4.61409
4.69411
3.94415
4.08485
3.6386
3.80433
3.57705
3.71569
3.71004
3.75431
6.3582
6.40878
4.97702
5.06337
4.25443
4.40619
3.92487
4.10359
3.85849
4.00801
4.00195
4.04969
6.71304
6.76648
5.2548
5.34601
4.49193
4.65216
4.144
4.33265
4.07392
4.23175
4.22538
4.27578
6.95301
7.00839
5.44266
5.53717
4.65257
4.81852
4.29222
4.48758
4.21965
4.38309
4.37652
4.42872
7.07402
7.13039
5.5374
5.63359
4.7336
4.90243
4.367
4.56572
4.29318
4.45943
4.45278
4.50588
7.074
7.13039
5.5374
5.63362
4.73364
4.90247
4.36707
4.56574
4.29325
4.45947
4.45285
4.50594
6.95293
7.00839
5.44265
5.53726
4.65269
4.81862
4.29241
4.48764
4.21987
4.38321
4.37674
4.42891
6.7129
6.76647
5.25478
5.34616
4.49213
4.65232
4.14431
4.33276
4.07429
4.23195
4.22573
4.2761
6.35801
6.40877
4.97699
5.06358
4.25471
4.40642
3.9253
4.10374
3.85899
4.00828
4.00243
4.05013
5.89434
5.94143
4.61406
4.69437
3.9445
4.08514
3.63914
3.80452
3.57767
3.71603
3.71064
3.75486
5.3298
5.37242
4.17216
4.24482
3.56678
3.69394
3.2907
3.44018
3.23513
3.3602
3.35537
3.39534
4.67411
4.71151
3.65891
3.72267
3.12806
3.23956
2.88597
3.017
2.83725
2.94688
2.94269
2.97773
3.93838
3.96994
3.08302
3.13679
2.63579
2.72973
2.43184
2.54218
2.39081
2.48313
2.47965
2.50916
3.13535
3.16052
2.45443
2.49729
2.09847
2.17322
1.93614
2.02389
1.90348
1.97691
1.9742
1.99768
2.27856
2.29692
1.78377
1.815
1.52518
1.57948
1.40727
1.47093
1.38355
1.43683
1.43494
1.45199
1.38294
1.39415
1.08271
1.10174
0.925891
0.95879
0.854383
0.892858
0.840006
0.872216
0.871173
0.881494
0.463485
0.467385
0.362993
0.369516
0.310656
0.321603
0.286798
0.299435
0.28202
0.292615
0.292448
0.295867
-0.463724
-0.467214
-0.362798
-0.368887
-0.309767
-0.320968
-0.285579
-0.299013
-0.280698
-0.291913
-0.291211
-0.29476
-1.38312
-1.39397
-1.08247
-1.10113
-0.924999
-0.958181
-0.853184
-0.892457
-0.838717
-0.871541
-0.86997
-0.880421
-2.27883
-2.29675
-1.78359
-1.81437
-1.5243
-1.57883
-1.40605
-1.47048
-1.38225
-1.43613
-1.43373
-1.45091
-3.13541
-3.16029
-2.45411
-2.49672
-2.09756
-2.17265
-1.93497
-2.02351
-1.90226
-1.97628
-1.97307
-1.99669
-3.93867
-3.96981
-3.08284
-3.13623
-2.63497
-2.7291
-2.43069
-2.54172
-2.38957
-2.48245
-2.47851
-2.50815
-4.67398
-4.71118
-3.65848
-3.72216
-3.12717
-3.23907
-2.88489
-3.01666
-2.83614
-2.94632
-2.94168
-2.97683
-5.33008
-5.37236
-4.17199
-4.24443
-3.5661
-3.69344
-3.28975
-3.4398
-3.2341
-3.35962
-3.3544
-3.39445
-5.89401
-5.94098
-4.61359
-4.69394
-3.94376
-4.0848
-3.6383
-3.80432
-3.57685
-3.71565
-3.70991
-3.75419
-6.35821
-6.40881
-4.97682
-5.06345
-4.25425
-4.40616
-3.92472
-4.10355
-3.85835
-4.00795
-4.00185
-4.04961
-6.71233
-6.76588
-5.25432
-5.34577
-4.49159
-4.65208
-4.14378
-4.33267
-4.07381
-4.23174
-4.22532
-4.27576
-6.95293
-7.0084
-5.44255
-5.53733
-4.65243
-4.81847
-4.29208
-4.48751
-4.21951
-4.38301
-4.37639
-4.42859
-7.07312
-7.12968
-5.53693
-5.63329
-4.73324
-4.90227
-4.36666
-4.56567
-4.2929
-4.45942
-4.45261
-4.50582
)
;

boundaryField
{
    out
    {
        type            implicitExtrapolation;
    }
    in
    {
        type            implicitExtrapolation;
    }
    frontAndBack
    {
        type            empty;
    }
}


// ************************************************************************* //
