/*--------------------------------*- C++ -*----------------------------------*\
| =========                 |                                                 |
| \\      /  F ield         | foam-extend: Open Source CFD                    |
|  \\    /   O peration     | Version:  3.0                                   |
|   \\  /    A nd           | Web:         http://www.extend-project.de       |
|    \\/     M anipulation  |                                                 |
\*---------------------------------------------------------------------------*/
FoamFile
{
    version     2.0;
    format      ascii;
    class       volSymmTensorField;
    location    "20";
    object      sigma;
}
// * * * * * * * * * * * * * * * * * * * * * * * * * * * * * * * * * * * * * //

dimensions      [0 0 0 0 0 0 0];

internalField   nonuniform List<symmTensor> 
576
(
(1.94593 -0.0656266 2.92162e-18 -1.90265 3.39475e-18 4.64268e-36)
(2.02229 0.151302 7.98247e-18 -1.97346 -3.19262e-17 -1.59305e-34)
(2.31246 0.222725 -1.34196e-20 -2.28447 -1.56943e-17 -1.85306e-35)
(2.11594 0.246824 -1.97826e-18 -2.06879 -4.44304e-18 1.57282e-35)
(1.90482 0.243114 8.70327e-18 -1.8876 -2.96668e-18 2.40324e-35)
(1.65321 0.226766 6.8061e-18 -1.60375 1.04407e-18 2.25001e-36)
(1.36799 0.206182 -1.04764e-17 -1.35642 -4.72224e-18 -9.23197e-36)
(1.12858 0.183033 -1.46372e-17 -1.07915 2.36705e-17 -1.81269e-34)
(0.848785 0.15909 -2.04742e-17 -0.833812 1.22191e-17 -1.19322e-34)
(0.621689 0.136547 -1.38487e-17 -0.578823 7.49868e-18 -2.00738e-35)
(0.369777 0.11258 1.2532e-18 -0.342867 -1.18525e-17 5.79032e-35)
(0.143304 0.0941723 -1.16985e-17 -0.110297 -1.14003e-17 -5.74965e-36)
(2.10706 -0.157429 -1.78901e-17 -2.0644 -1.13516e-17 -9.20754e-35)
(1.96714 0.447166 -4.38714e-17 -1.91908 2.40245e-17 3.88478e-34)
(2.19993 0.649792 -3.75284e-18 -2.17231 1.30075e-17 2.17803e-34)
(1.96863 0.714108 2.39433e-18 -1.92224 -1.46331e-17 -2.44606e-35)
(1.75182 0.701294 1.47636e-17 -1.73488 -1.51215e-17 -6.85274e-36)
(1.50325 0.652393 -1.11058e-17 -1.45465 1.17151e-17 0)
(1.22611 0.591547 -1.9322e-17 -1.21477 4.23781e-17 -4.28049e-34)
(0.997043 0.523885 4.29701e-17 -0.948476 8.09719e-18 1.88977e-34)
(0.728865 0.45376 2.64288e-17 -0.71417 1.7681e-17 4.19442e-34)
(0.512486 0.387923 1.47599e-17 -0.470362 1.01805e-18 -4.11859e-34)
(0.272914 0.31802 -3.04143e-17 -0.246495 6.27925e-19 -2.92734e-34)
(0.0537486 0.263761 -2.94618e-17 -0.0213462 2.86846e-17 4.13637e-34)
(2.39684 -0.136348 4.33189e-18 -2.35585 4.08036e-18 -7.65085e-35)
(1.86074 0.723734 1.83798e-17 -1.81449 1.25196e-17 -3.99968e-35)
(1.98777 1.02431 -2.47094e-17 -1.96123 -1.90168e-17 -2.6811e-34)
(1.69338 1.10624 -4.91009e-17 -1.6487 4.41199e-17 -4.57736e-34)
(1.46672 1.07923 -1.9736e-17 -1.45042 7.54274e-18 3.0593e-34)
(1.22442 0.997928 3.71032e-17 -1.17751 1.54741e-17 -1.7182e-34)
(0.962816 0.899687 8.47758e-17 -0.951868 -2.59498e-17 1.00968e-33)
(0.753302 0.792169 4.81705e-18 -0.706425 9.19005e-18 1.10952e-34)
(0.507158 0.680963 7.98832e-17 -0.492963 -9.16386e-18 1.4161e-33)
(0.310942 0.576782 3.04282e-17 -0.270275 2.47608e-18 9.8875e-34)
(0.0947051 0.466753 -1.63141e-17 -0.0691921 2.97127e-17 -9.41205e-34)
(-0.110538 0.379543 4.23667e-17 0.141823 3.80884e-17 1.10265e-33)
(2.75596 0.0518779 2.42442e-18 -2.71705 4.35494e-18 0)
(1.71098 0.970447 -8.74746e-19 -1.66712 -2.82404e-17 0)
(1.70041 1.31953 -3.64936e-17 -1.67522 5.65224e-17 3.13333e-34)
(1.3263 1.38525 8.29579e-17 -1.28397 -4.41618e-17 5.31107e-34)
(1.08835 1.33667 -4.13438e-17 -1.07289 1.604e-17 -4.11906e-34)
(0.85569 1.22323 4.86421e-17 -0.811264 -3.43209e-17 7.69849e-34)
(0.615908 1.092 -3.94209e-17 -0.60555 7.69821e-18 -1.02927e-33)
(0.433077 0.951753 1.04014e-16 -0.388682 -5.58421e-17 2.62929e-34)
(0.217026 0.807168 4.25387e-17 -0.203613 -6.95366e-17 -2.15954e-33)
(0.0482146 0.672196 1.73754e-17 -0.00971909 -2.85315e-17 -7.95426e-34)
(-0.136435 0.530778 4.62285e-17 0.160558 5.99113e-18 -3.2851e-34)
(-0.322277 0.414954 1.01835e-16 0.351884 -1.11246e-16 -1.60472e-34)
(3.10639 0.433642 -1.00702e-17 -3.0705 1.11755e-19 0)
(1.52769 1.17994 -3.1801e-17 -1.48715 2.76725e-17 7.51384e-35)
(1.36929 1.51914 4.02382e-17 -1.3461 -1.9406e-17 -4.3431e-34)
(0.914373 1.52944 -4.38765e-17 -0.87517 1.76208e-17 -5.0838e-34)
(0.667358 1.45078 7.69304e-17 -0.653109 -5.61388e-17 -6.73326e-34)
(0.44809 1.30589 -8.63364e-17 -0.406923 -3.63294e-18 3.4445e-34)
(0.234889 1.14713 -1.60194e-17 -0.225302 -3.82681e-17 0)
(0.0831052 0.982801 -1.24431e-16 -0.0419546 -2.03499e-17 1.58764e-33)
(-0.097771 0.814165 -1.15538e-16 0.110203 2.32615e-17 2.70803e-33)
(-0.234929 0.657549 -7.17328e-17 0.270627 -8.87324e-18 6.90853e-35)
(-0.383217 0.495223 1.56206e-17 0.405576 -5.60606e-17 -1.58683e-33)
(-0.545819 0.356213 -1.28238e-16 0.573271 -2.01858e-18 1.60472e-34)
(3.36525 1.00245 3.65621e-18 -3.33275 1.2081e-17 0)
(1.32249 1.34869 2.80007e-17 -1.28581 -1.54005e-17 1.3507e-34)
(1.02935 1.61982 -1.52058e-17 -1.00835 -1.22959e-17 -6.38753e-35)
(0.508913 1.53638 -1.2504e-17 -0.473463 5.20201e-18 0)
(0.258895 1.41965 -5.88687e-17 -0.246015 2.48274e-17 2.42814e-34)
(0.056998 1.24453 2.00791e-17 -0.0197649 -1.9235e-17 -1.99752e-34)
(-0.126626 1.06413 -1.24375e-16 0.135278 6.66882e-17 7.04884e-34)
(-0.246006 0.884782 1.51688e-16 0.283215 -8.53323e-18 -2.17637e-33)
(-0.389975 0.701808 1.78614e-17 0.401205 -2.51131e-17 -1.96458e-33)
(-0.494489 0.533044 -7.07918e-17 0.526758 5.33468e-17 1.4687e-33)
(-0.60547 0.360665 1.08108e-17 0.625672 2.10295e-17 0)
(-0.742707 0.204258 -1.75152e-17 0.767518 4.7361e-17 0)
(3.45613 1.71891 2.99338e-18 -3.42778 4.59184e-18 0)
(1.10621 1.47686 -1.54152e-17 -1.07415 4.91947e-17 -6.07918e-34)
(0.713028 1.63086 1.05755e-16 -0.694748 -3.83198e-17 2.04145e-33)
(0.157662 1.4228 -1.43427e-17 -0.126623 -2.44794e-17 0)
(-0.0858 1.26212 4.16698e-17 0.0970332 -1.78997e-17 -7.81915e-35)
(-0.266133 1.05868 -5.44019e-17 0.298753 1.98258e-17 6.43121e-35)
(-0.418837 0.862473 1.37015e-16 0.426407 -1.2641e-17 5.94768e-34)
(-0.507317 0.676459 1.13311e-16 0.539935 -3.6495e-17 2.45182e-34)
(-0.615783 0.488093 -1.73094e-16 0.625626 3.39731e-17 -1.51826e-33)
(-0.689729 0.315855 4.4015e-17 0.718036 1.66767e-17 -4.87837e-34)
(-0.766084 0.143211 -1.2764e-17 0.783796 -2.11601e-17 0)
(-0.877559 -0.0250105 -1.89508e-17 0.89932 3.71386e-17 0)
(3.3233 2.51621 4.62265e-18 -3.29941 5.4576e-18 0)
(0.888579 1.56815 6.02371e-17 -0.861578 -1.46452e-18 4.47663e-34)
(0.446462 1.57268 -4.18305e-17 -0.431075 -1.49456e-17 -1.73502e-33)
(-0.102086 1.22197 -6.48835e-17 0.128232 3.616e-17 -1.29959e-35)
(-0.32692 1.01479 2.1486e-17 0.336358 -1.21111e-17 -1.07048e-35)
(-0.481562 0.78578 1.42132e-17 0.509037 -4.83056e-17 2.01963e-34)
(-0.603444 0.57892 2.25e-17 0.609803 1.2885e-17 0)
(-0.664807 0.392957 -7.85631e-17 0.692273 -2.74791e-17 -4.9023e-34)
(-0.741718 0.206296 -1.62358e-16 0.749997 3.68102e-17 3.30313e-33)
(-0.789606 0.0373867 3.73386e-17 0.813447 2.20344e-17 5.62335e-34)
(-0.836867 -0.127989 -3.47166e-17 0.851776 1.02797e-17 6.78402e-34)
(-0.92357 -0.30321 9.00581e-17 0.941894 -7.46616e-18 -1.15041e-33)
(2.93895 3.309 2.31918e-17 -2.92007 -1.47116e-18 6.83821e-35)
(0.676266 1.62847 -3.40929e-17 -0.654851 -7.28037e-18 -5.2924e-35)
(0.245219 1.47302 -6.60334e-17 -0.233051 4.32914e-17 -2.084e-34)
(-0.248965 0.978099 1.58377e-16 0.26974 -4.78239e-17 9.52333e-34)
(-0.442004 0.726122 -1.53913e-16 0.449488 4.65203e-17 -3.967e-34)
(-0.567029 0.475222 1.35022e-16 0.588879 -8.50676e-18 1.01538e-33)
(-0.659214 0.261902 7.15742e-17 0.664263 -9.5403e-17 -1.93795e-33)
(-0.698652 0.0804084 -1.99591e-16 0.720501 -9.66168e-18 2.48328e-33)
(-0.749546 -0.0999855 -3.09479e-17 0.756125 4.40646e-17 -1.27056e-33)
(-0.777371 -0.26132 -2.25078e-18 0.796353 2.85419e-19 -1.04468e-35)
(-0.802814 -0.414995 8.65134e-18 0.814674 4.50316e-17 -2.8074e-34)
(-0.866677 -0.593539 8.33848e-17 0.881263 -1.85848e-17 1.15041e-33)
(2.31005 4.00668 7.10722e-18 -2.29639 1.43241e-17 0)
(0.473008 1.66508 2.69492e-17 -0.457512 -8.17394e-18 5.76033e-35)
(0.112782 1.36272 5.66202e-17 -0.10401 1.21596e-18 1.86908e-34)
(-0.280502 0.739607 -1.21569e-16 0.295567 2.87032e-17 -1.13579e-33)
(-0.429117 0.448995 1.21348e-16 0.434513 -1.24821e-17 6.09971e-34)
(-0.521125 0.180733 -4.14178e-17 0.536977 3.8288e-17 -3.68984e-34)
(-0.585234 -0.0360369 -8.79634e-17 0.588877 -8.35082e-18 -6.43033e-34)
(-0.608306 -0.211202 5.84579e-17 0.624157 -1.29271e-17 -6.08256e-34)
(-0.639156 -0.383605 6.34961e-17 0.643913 3.21106e-17 -8.6105e-34)
(-0.653254 -0.535962 5.63324e-17 0.667039 6.95966e-18 5.01949e-35)
(-0.664514 -0.676909 1.69143e-16 0.673114 -2.78918e-17 1.40547e-34)
(-0.707867 -0.856409 -8.45489e-17 0.718456 -2.82369e-18 -3.57313e-36)
(1.47667 4.52549 7.22928e-18 -1.46853 -1.9776e-18 0)
(0.279106 1.68481 -4.49998e-17 -0.269806 1.54934e-17 -5.33161e-35)
(0.0403233 1.27039 -5.18067e-17 -0.0350867 -2.10802e-18 -1.16276e-34)
(-0.213011 0.551375 6.73342e-17 0.22211 -9.99377e-18 -4.64564e-35)
(-0.306767 0.232385 -6.36597e-17 0.310009 1.96598e-17 2.61351e-35)
(-0.363107 -0.0479237 1.48181e-17 0.372705 -1.80677e-17 0)
(-0.400772 -0.266243 -4.1839e-17 0.402965 2.97222e-17 -3.83831e-34)
(-0.412375 -0.435615 2.61702e-17 0.421973 2.85413e-17 2.04044e-34)
(-0.428466 -0.600955 -1.63542e-17 0.431333 8.20853e-18 -4.64478e-34)
(-0.434375 -0.745585 -1.6115e-18 0.442738 2.29853e-17 -8.21545e-34)
(-0.438109 -0.875966 -6.98699e-18 0.443312 -3.05068e-17 2.38532e-34)
(-0.463099 -1.05528 3.42914e-17 0.469519 -2.99048e-17 5.97344e-34)
(0.507893 4.80222 1.44109e-18 -0.505418 -1.25664e-17 0)
(0.0920486 1.69321 3.75208e-18 -0.0891295 -1.09725e-17 -5.76397e-35)
(0.0084777 1.21824 -9.03395e-18 -0.00690233 2.01099e-17 -3.97191e-35)
(-0.0789777 0.4479 -1.24689e-17 0.0819353 9.17838e-19 9.08048e-36)
(-0.110987 0.113888 4.16422e-17 0.111987 -1.26213e-17 -2.1556e-36)
(-0.129963 -0.172606 -1.20151e-17 0.133126 1.56721e-18 1.13867e-35)
(-0.142352 -0.391457 8.65497e-18 0.143038 3.14737e-18 -1.54346e-36)
(-0.145814 -0.557427 -1.87902e-17 0.148981 6.37875e-18 -2.02752e-34)
(-0.150743 -0.718678 2.58753e-17 0.15166 -2.56777e-18 -9.95498e-35)
(-0.152218 -0.858884 -1.29634e-17 0.155007 2.7063e-18 -1.9072e-34)
(-0.152937 -0.983313 -3.85311e-18 0.154647 3.55303e-19 -2.63464e-34)
(-0.16107 -1.16229 7.08169e-18 0.163205 -9.76006e-18 4.35053e-35)
(-0.508223 4.80217 2.66608e-18 0.505021 9.32181e-18 1.97516e-35)
(-0.0924394 1.6932 2.20804e-17 0.0889586 1.4902e-17 3.32678e-35)
(-0.00893338 1.2182 2.95582e-18 0.00686323 3.89836e-18 3.30435e-35)
(0.078561 0.447861 -8.74991e-18 -0.0817723 6.6896e-20 -4.8556e-35)
(0.110687 0.113858 -1.10902e-17 -0.111917 -8.1632e-18 9.32152e-35)
(0.129648 -0.172645 1.04586e-17 -0.132954 2.68761e-18 1.69951e-35)
(0.1421 -0.39149 -7.67945e-18 -0.142914 -1.00469e-17 7.28817e-36)
(0.145592 -0.557455 -1.65168e-18 -0.148896 -2.22812e-17 1.40886e-34)
(0.150542 -0.718706 -9.68861e-18 -0.151577 -4.12827e-18 1.93703e-34)
(0.152165 -0.858901 -7.46221e-18 -0.154989 1.0134e-17 1.60783e-34)
(0.152863 -0.983324 -7.51392e-19 -0.154664 1.58992e-17 5.15091e-36)
(0.16105 -1.1623 -4.11229e-19 -0.163228 -2.5336e-18 -1.47138e-35)
(-1.47708 4.52566 1.36788e-17 1.46818 -3.26077e-18 -2.06352e-35)
(-0.279513 1.68482 -4.74975e-17 0.269642 -1.0626e-17 4.12489e-34)
(-0.0407711 1.27034 -4.70621e-17 0.0350364 4.05973e-18 5.03815e-35)
(0.21262 0.551264 -2.51391e-17 -0.221977 1.98632e-17 -2.53503e-34)
(0.306487 0.232301 2.56993e-17 -0.309959 2.37015e-18 9.25463e-35)
(0.362823 -0.0480424 9.41502e-18 -0.372562 -3.33091e-17 0)
(0.400545 -0.266342 -7.69676e-17 -0.402864 -2.78926e-17 1.16884e-34)
(0.412176 -0.435702 2.26097e-17 -0.421909 -6.21891e-18 -1.46972e-34)
(0.428288 -0.60104 6.70043e-17 -0.431266 -7.76844e-18 -6.56824e-34)
(0.434336 -0.745639 4.28461e-17 -0.442736 2.01506e-17 -8.60225e-35)
(0.438047 -0.876005 -2.49214e-17 -0.443335 -7.77964e-19 7.02599e-35)
(0.463098 -1.05533 -3.61137e-17 -0.46956 1.35256e-17 1.61825e-34)
(-2.31042 4.00677 -8.39248e-18 2.29606 -2.34304e-17 1.77816e-34)
(-0.473405 1.66506 7.77955e-17 0.45736 9.54808e-18 -7.29268e-34)
(-0.113196 1.36261 5.45073e-17 0.103943 2.77941e-18 9.28984e-35)
(0.280153 0.73944 -3.72136e-17 -0.295465 -6.31426e-18 4.2549e-34)
(0.428868 0.448868 -1.11276e-16 -0.434496 7.25644e-18 1.34365e-34)
(0.520892 0.180559 -2.1113e-17 -0.536878 -3.91347e-18 -2.90604e-34)
(0.585048 -0.0361795 1.05444e-16 -0.588815 1.19592e-17 1.0536e-34)
(0.608148 -0.211328 -2.93256e-17 -0.624131 -7.68424e-18 1.68235e-34)
(0.639021 -0.38373 4.39667e-17 -0.64388 -8.60029e-19 1.61696e-33)
(0.653247 -0.536034 4.9103e-17 -0.667069 -1.38535e-17 9.82623e-34)
(0.664475 -0.676963 -5.93908e-18 -0.673153 -3.00655e-17 8.9146e-34)
(0.707895 -0.856469 8.43396e-17 -0.718523 2.6743e-17 -9.32871e-34)
(-2.93951 3.30923 2.42215e-18 2.91987 1.03965e-17 0)
(-0.676713 1.62847 -1.21976e-17 0.654721 -1.55629e-17 0)
(-0.245615 1.47292 -6.36557e-17 0.232955 -3.80153e-17 1.16354e-33)
(0.248672 0.977902 1.5596e-16 -0.269707 1.56052e-17 -1.29923e-34)
(0.441802 0.725969 6.74257e-18 -0.449515 2.49406e-17 5.10183e-34)
(0.566872 0.475009 -3.92937e-17 -0.588851 5.50666e-17 5.06509e-34)
(0.659087 0.261723 -1.50832e-16 -0.664252 -2.62721e-17 -1.88645e-33)
(0.698553 0.0802498 3.44341e-17 -0.720526 3.37137e-17 1.22176e-33)
(0.749466 -0.100145 -3.46134e-17 -0.756133 1.42181e-17 6.29441e-34)
(0.777402 -0.261409 9.09424e-18 -0.79642 -6.28804e-17 4.79155e-34)
(0.802807 -0.415068 7.34712e-19 -0.814732 -2.32e-17 2.16521e-34)
(0.866752 -0.593611 8.3191e-17 -0.88137 -3.45937e-17 1.47265e-33)
(-3.32379 2.51636 3.88546e-18 3.29925 -9.79539e-18 0)
(-0.888985 1.56812 -6.85086e-18 0.861463 -3.03941e-17 5.64093e-34)
(-0.446783 1.57255 7.42403e-17 0.430969 5.98998e-17 -6.81686e-34)
(0.101857 1.22175 -1.43193e-16 -0.12823 -2.30585e-17 -5.09465e-34)
(0.326776 1.01462 1.52559e-16 -0.336421 2.74383e-17 -5.68117e-34)
(0.481479 0.785558 -5.20568e-17 -0.509061 1.00387e-17 -1.18026e-34)
(0.603377 0.578733 3.55066e-17 -0.609839 3.51533e-17 0)
(0.66477 0.392798 -7.51431e-17 -0.692348 3.68308e-17 9.7199e-34)
(0.741699 0.206132 -1.75005e-16 -0.750051 -1.06801e-17 -3.41839e-33)
(0.789678 0.0373108 -1.13366e-16 -0.813558 -1.44035e-17 -3.04836e-33)
(0.836899 -0.128059 3.4283e-17 -0.851862 4.84485e-17 1.53931e-33)
(0.923684 -0.30326 -1.72137e-16 -0.942037 -5.38129e-17 -1.47265e-33)
(-3.45682 1.71909 7.61385e-18 3.42777 -1.32888e-17 0)
(-1.10667 1.47682 3.64085e-17 1.07406 1.07475e-17 -2.96215e-34)
(-0.713327 1.63076 3.61154e-17 0.694603 2.48865e-18 -7.26176e-34)
(-0.15783 1.4226 1.71704e-17 0.12655 3.05572e-17 0)
(0.0857205 1.26196 -7.14895e-17 -0.0971483 -2.55281e-17 1.60433e-34)
(0.266143 1.05847 9.28715e-17 -0.298869 1.42378e-17 -1.31974e-34)
(0.418849 0.86228 -7.21202e-17 -0.426506 -5.274e-17 2.19845e-33)
(0.507359 0.676307 1.87722e-16 -0.540078 5.75417e-17 -2.80825e-33)
(0.615837 0.487926 6.59065e-17 -0.625737 3.30198e-17 1.17198e-33)
(0.68985 0.31579 -3.80625e-17 -0.718191 5.39901e-18 -2.19328e-34)
(0.766161 0.143142 3.1526e-18 -0.783911 -9.12724e-18 0)
(0.877716 -0.0250367 3.24756e-17 -0.899495 5.68053e-17 0)
(-3.36582 1.00254 -4.49795e-18 3.33278 -1.38172e-18 0)
(-1.32285 1.34861 -3.87377e-17 1.28573 -3.23415e-17 4.23462e-35)
(-1.02953 1.61973 6.40764e-17 1.00824 1.92778e-17 7.11048e-34)
(-0.509003 1.53619 6.15079e-18 0.473366 -1.00704e-17 0)
(-0.258889 1.41951 6.80661e-17 0.245886 2.6087e-17 -3.14558e-34)
(-0.0569125 1.24435 -4.79225e-17 0.0196117 -2.86993e-17 2.58767e-34)
(0.126705 1.06397 5.64295e-17 -0.135418 5.22234e-17 8.04945e-34)
(0.246105 0.884675 -2.66953e-17 -0.2834 2.08107e-17 5.04885e-33)
(0.390082 0.701679 -1.1328e-16 -0.401356 -8.44279e-17 -2.83197e-33)
(0.494639 0.533031 1.04288e-16 -0.52695 -3.7498e-18 2.31177e-33)
(0.605584 0.360633 -1.90063e-18 -0.625813 1.79521e-17 0)
(0.742889 0.204288 1.46229e-17 -0.767719 2.04996e-17 0)
(-3.10711 0.433658 7.46565e-18 3.07062 -1.14357e-18 0)
(-1.52807 1.17986 -7.78124e-18 1.48706 3.32954e-17 4.46247e-34)
(-1.36948 1.5191 -6.77993e-17 1.34597 -4.78902e-17 -6.37344e-34)
(-0.91442 1.52929 -6.50506e-18 0.875025 -7.03395e-18 9.502e-34)
(-0.667296 1.45069 -1.16624e-17 0.652932 -2.80472e-17 5.3657e-34)
(-0.447943 1.30578 6.79537e-17 0.406699 5.6832e-17 -1.08314e-34)
(-0.234736 1.14701 -7.59778e-17 0.22511 2.01991e-17 0)
(-0.0829549 0.982754 -5.89895e-17 0.0417186 -8.37051e-18 -2.6639e-33)
(0.0979387 0.814078 -6.3058e-17 -0.110399 -9.24295e-18 -1.90445e-34)
(0.23511 0.657578 1.34866e-17 -0.270842 -8.12006e-18 -6.84406e-35)
(0.38337 0.495229 1.11693e-19 -0.405736 1.55513e-18 1.0008e-33)
(0.546008 0.356287 7.69301e-17 -0.573465 3.62295e-17 1.17025e-33)
(-2.75653 0.0517917 -1.14358e-18 2.71723 1.12325e-17 7.79372e-35)
(-1.71123 0.97033 -1.04222e-17 1.66704 -1.29304e-17 -6.03177e-35)
(-1.70052 1.31949 -5.98794e-19 1.67519 -1.10266e-17 -7.85665e-34)
(-1.3263 1.38513 8.52904e-17 1.28383 3.22963e-17 -6.73337e-34)
(-1.08825 1.33662 -7.97312e-17 1.07277 -2.33784e-17 1.29993e-34)
(-0.855527 1.22319 8.46025e-17 0.811049 3.64995e-19 -6.8013e-34)
(-0.615739 1.09195 7.41957e-17 0.605368 7.24835e-17 2.82737e-34)
(-0.432934 0.951774 -4.45985e-17 0.388464 1.94939e-17 3.63722e-34)
(-0.216855 0.807154 5.04414e-17 0.203425 1.57189e-17 8.83182e-34)
(-0.0480596 0.67229 1.03895e-17 0.00952001 2.43821e-17 6.13115e-34)
(0.136587 0.530846 -2.43585e-20 -0.160705 2.47541e-17 5.07397e-34)
(0.322452 0.415097 -2.65089e-17 -0.352066 -5.17054e-17 -1.17025e-33)
(-2.39745 -0.136527 -3.5728e-18 2.35601 -1.19323e-17 0)
(-1.86102 0.72361 9.31857e-18 1.8144 -7.84751e-18 3.11387e-34)
(-1.98794 1.02431 8.71342e-19 1.96124 9.75732e-18 5.95827e-36)
(-1.6934 1.10616 -6.05298e-17 1.64857 -5.68743e-17 4.26269e-35)
(-1.46663 1.07926 7.11763e-17 1.45031 2.00189e-17 -2.11417e-34)
(-1.22428 0.997968 -6.96259e-17 1.17733 -3.94006e-17 5.69961e-34)
(-0.96265 0.899712 2.7586e-17 0.95171 -4.19891e-17 7.03726e-34)
(-0.753191 0.79226 1.22956e-16 0.706247 2.13808e-17 -1.38755e-33)
(-0.506985 0.681019 6.51352e-17 0.492813 -2.19471e-17 -1.98046e-33)
(-0.310806 0.576911 7.08856e-17 0.270118 -7.55622e-18 -1.54676e-33)
(-0.0945375 0.466872 9.3796e-17 0.0690779 2.54683e-17 -1.61304e-33)
(0.110694 0.379708 -8.08254e-17 -0.141958 -3.75791e-19 -3.00868e-34)
(-2.10747 -0.157666 -2.36379e-17 2.06461 5.3194e-18 0)
(-1.96729 0.447057 -2.70414e-17 1.91905 -1.44586e-17 -4.14961e-34)
(-2.20001 0.649722 5.26367e-18 2.17239 -2.35715e-17 -4.12592e-35)
(-1.96859 0.714066 2.1452e-17 1.92218 3.20797e-17 5.59815e-35)
(-1.75172 0.701336 -4.02065e-17 1.73483 -2.59641e-17 -8.00214e-35)
(-1.50317 0.6525 1.53809e-17 1.45455 1.33902e-17 0)
(-1.22598 0.591628 -4.08282e-17 1.21466 -1.45113e-17 7.78771e-35)
(-0.996989 0.524024 6.23488e-18 0.948375 -4.20888e-17 -5.58948e-35)
(-0.728746 0.453874 -2.88013e-17 0.714075 -2.81919e-17 -1.99156e-35)
(-0.512398 0.388079 -1.86482e-17 0.470258 -4.35492e-17 2.09536e-34)
(-0.272782 0.318177 -2.64927e-18 0.246417 -3.21514e-17 7.94493e-34)
(-0.0536303 0.263982 2.96287e-17 0.0212511 4.75027e-17 -4.75647e-34)
(-1.94626 -0.0659569 -4.87433e-19 1.9027 6.92743e-18 0)
(-2.02246 0.151193 6.29763e-18 1.97341 3.02198e-17 1.44284e-34)
(-2.31256 0.222667 -5.43925e-19 2.28449 5.98519e-18 1.95466e-36)
(-2.11591 0.246805 1.19259e-17 2.06871 -1.43083e-17 9.20316e-37)
(-1.90475 0.243189 1.54675e-17 1.88759 1.77231e-17 2.06579e-35)
(-1.65318 0.226922 -7.95238e-18 1.60372 -3.14229e-18 1.13381e-35)
(-1.3679 0.206294 1.52055e-17 1.35639 4.2455e-18 -2.32123e-35)
(-1.12858 0.18323 -2.42562e-17 1.07912 -7.72311e-18 7.52768e-35)
(-0.848692 0.159251 -4.56993e-18 0.833773 2.3332e-18 1.20577e-36)
(-0.621651 0.136753 -3.38213e-17 0.578779 -4.52613e-18 1.56986e-35)
(-0.369635 0.112764 -1.99746e-17 0.342816 -4.30692e-18 8.05092e-35)
(-0.143207 0.0943964 2.54241e-18 0.110266 -1.63546e-17 -3.00949e-35)
(-1.94617 0.065572 2.92126e-18 1.90267 3.39592e-18 -4.6423e-36)
(-2.02242 -0.151351 7.98346e-18 1.97342 -3.19275e-17 1.59323e-34)
(-2.31254 -0.22272 -1.20749e-20 2.28451 -1.56953e-17 1.85278e-35)
(-2.11593 -0.246789 -1.97848e-18 2.06874 -4.44529e-18 -1.57263e-35)
(-1.90477 -0.243082 8.70246e-18 1.88762 -2.96802e-18 -2.40306e-35)
(-1.65322 -0.226759 6.80601e-18 1.60376 1.04287e-18 -2.24846e-36)
(-1.36792 -0.206148 -1.04768e-17 1.35643 -4.72352e-18 9.2279e-36)
(-1.12861 -0.18304 -1.46373e-17 1.07917 2.36709e-17 1.81266e-34)
(-0.848722 -0.159073 -2.04743e-17 0.83381 1.222e-17 1.19322e-34)
(-0.621682 -0.136531 -1.38487e-17 0.578814 7.49904e-18 2.00743e-35)
(-0.369658 -0.112587 1.25263e-18 0.342844 -1.18519e-17 -5.79033e-35)
(-0.143241 -0.0941375 -1.16989e-17 0.110302 -1.14006e-17 5.75133e-36)
(-2.10723 0.157319 -1.7891e-17 2.06452 -1.13509e-17 9.20781e-35)
(-1.9672 -0.447209 -4.38755e-17 1.91907 2.4024e-17 -3.88529e-34)
(-2.19997 -0.649782 -3.75445e-18 2.17245 1.30078e-17 -2.178e-34)
(-1.96863 -0.714071 2.39297e-18 1.92226 -1.46327e-17 2.44303e-35)
(-1.75177 -0.701249 1.47636e-17 1.73493 -1.51194e-17 6.86866e-36)
(-1.50327 -0.652368 -1.11067e-17 1.45467 1.17164e-17 0)
(-1.22606 -0.591506 -1.93223e-17 1.21477 4.23789e-17 4.28037e-34)
(-0.997083 -0.523863 4.29721e-17 0.948493 8.09784e-18 -1.88971e-34)
(-0.72883 -0.453721 2.643e-17 0.71418 1.7682e-17 -4.19449e-34)
(-0.512489 -0.387878 1.47602e-17 0.470356 1.01768e-18 4.11861e-34)
(-0.272848 -0.318017 -3.04148e-17 0.246498 6.27946e-19 2.92736e-34)
(-0.053727 -0.263745 -2.9462e-17 0.021355 2.86847e-17 -4.13637e-34)
(-2.39707 0.136249 4.33232e-18 2.35589 4.07959e-18 7.65178e-35)
(-1.86086 -0.72375 1.83821e-17 1.81442 1.25228e-17 4.0008e-35)
(-1.98787 -1.02438 -2.47083e-17 1.96134 -1.90164e-17 2.68106e-34)
(-1.69345 -1.10621 -4.91019e-17 1.6487 4.41195e-17 4.57714e-34)
(-1.4667 -1.07921 -1.97386e-17 1.45046 7.54036e-18 -3.05892e-34)
(-1.22443 -0.997896 3.71036e-17 1.17751 1.54736e-17 1.7178e-34)
(-0.962762 -0.899636 8.47774e-17 0.951868 -2.59494e-17 -1.00968e-33)
(-0.75333 -0.792151 4.81721e-18 0.706425 9.1907e-18 -1.10948e-34)
(-0.507109 -0.680912 7.98847e-17 0.492972 -9.16398e-18 -1.41612e-33)
(-0.310943 -0.576752 3.04276e-17 0.270269 2.47581e-18 -9.88736e-34)
(-0.0946379 -0.466743 -1.63127e-17 0.0692022 2.97129e-17 9.41222e-34)
(0.110546 -0.379513 4.23663e-17 -0.141798 3.80888e-17 -1.10267e-33)
(-2.75605 -0.0519769 2.42517e-18 2.7171 4.35394e-18 0)
(-1.71102 -0.970452 -8.76361e-19 1.66708 -2.82394e-17 0)
(-1.70041 -1.31958 -3.64945e-17 1.67531 5.652e-17 -3.13363e-34)
(-1.32634 -1.38523 8.2961e-17 1.28397 -4.4158e-17 -5.31092e-34)
(-1.08832 -1.33663 -4.13447e-17 1.07296 1.60392e-17 4.11938e-34)
(-0.855696 -1.22319 4.86414e-17 0.811266 -3.43209e-17 -7.69857e-34)
(-0.615865 -1.09193 -3.94199e-17 0.605558 7.69745e-18 1.02923e-33)
(-0.433094 -0.951734 1.04016e-16 0.388678 -5.58415e-17 -2.62901e-34)
(-0.217 -0.807107 4.25395e-17 0.203618 -6.95394e-17 2.15963e-33)
(-0.0482256 -0.672186 1.73757e-17 0.00970445 -2.85317e-17 7.95436e-34)
(0.136466 -0.53076 4.62293e-17 -0.160551 5.99063e-18 3.28532e-34)
(0.32227 -0.414957 1.01835e-16 -0.351867 -1.11246e-16 1.60472e-34)
(-3.10657 -0.433743 -1.00688e-17 3.07051 1.12001e-19 0)
(-1.52781 -1.17996 -3.1804e-17 1.48711 2.76729e-17 -7.51331e-35)
(-1.36933 -1.5192 4.024e-17 1.3461 -1.94052e-17 4.34301e-34)
(-0.914435 -1.52944 -4.3879e-17 0.875171 1.76199e-17 5.08374e-34)
(-0.667349 -1.45075 7.69324e-17 0.653124 -5.61378e-17 6.73332e-34)
(-0.448099 -1.30587 -8.63393e-17 0.406916 -3.63278e-18 -3.44445e-34)
(-0.234852 -1.14706 -1.60198e-17 0.225307 -3.8268e-17 0)
(-0.0831084 -0.982788 -1.24433e-16 0.0419403 -2.03518e-17 -1.58764e-33)
(0.097798 -0.814097 -1.15541e-16 -0.110197 2.32609e-17 -2.70815e-33)
(0.234937 -0.657534 -7.17323e-17 -0.270645 -8.8724e-18 -6.91745e-35)
(0.383245 -0.495189 1.56209e-17 -0.405569 -5.60602e-17 1.58688e-33)
(0.545814 -0.356209 -1.28237e-16 -0.57325 -2.01792e-18 -1.60472e-34)
(-3.36526 -1.00253 3.65753e-18 3.33273 1.20817e-17 0)
(-1.32255 -1.34869 2.80006e-17 1.2858 -1.54007e-17 -1.35082e-34)
(-1.02934 -1.61984 -1.52062e-17 1.00837 -1.22964e-17 6.39157e-35)
(-0.508968 -1.53638 -1.25041e-17 0.473484 5.20133e-18 0)
(-0.258904 -1.41962 -5.8869e-17 0.246063 2.48265e-17 -2.42827e-34)
(-0.0570247 -1.24451 2.0079e-17 0.0197964 -1.92347e-17 1.99763e-34)
(0.126623 -1.06408 -1.24376e-16 -0.135241 6.6688e-17 -7.04911e-34)
(0.245986 -0.884778 1.51689e-16 -0.2832 -8.53065e-18 2.17639e-33)
(0.389969 -0.701758 1.78608e-17 -0.401171 -2.51106e-17 1.96463e-33)
(0.494479 -0.533044 -7.07929e-17 -0.526763 5.33472e-17 -1.46872e-33)
(0.605471 -0.360638 1.08103e-17 -0.62565 2.10299e-17 0)
(0.742703 -0.204269 -1.75153e-17 -0.767508 4.73612e-17 0)
(-3.45626 -1.719 2.99448e-18 3.42779 4.5925e-18 0)
(-1.10633 -1.47688 -1.54162e-17 1.07415 4.91944e-17 6.07935e-34)
(-0.713081 -1.63088 1.05757e-16 0.694735 -3.8321e-17 -2.04144e-33)
(-0.157724 -1.42283 -1.43433e-17 0.126624 -2.44792e-17 0)
(0.0857614 -1.26211 4.16699e-17 -0.0970031 -1.78986e-17 7.81906e-35)
(0.266103 -1.05869 -5.4403e-17 -0.298743 1.98256e-17 -6.43112e-35)
(0.418824 -0.862436 1.37015e-16 -0.42637 -1.26399e-17 -5.94752e-34)
(0.507298 -0.676462 1.13311e-16 -0.539924 -3.64945e-17 -2.45164e-34)
(0.615774 -0.488053 -1.73091e-16 -0.625588 3.39715e-17 1.51833e-33)
(0.689723 -0.31585 4.40158e-17 -0.718032 1.6677e-17 4.8781e-34)
(0.766075 -0.143184 -1.27641e-17 -0.783765 -2.11607e-17 0)
(0.877558 0.0250056 -1.8951e-17 -0.899308 3.71388e-17 0)
(-3.32329 -2.51621 4.62388e-18 3.29938 5.45834e-18 0)
(-0.888636 -1.56815 6.02373e-17 0.861577 -1.46535e-18 -4.47671e-34)
(-0.446491 -1.57267 -4.183e-17 0.431087 -1.49468e-17 1.73505e-33)
(0.102037 -1.22199 -6.48833e-17 -0.128217 3.616e-17 1.30233e-35)
(0.326881 -1.01478 2.14867e-17 -0.336325 -1.21115e-17 1.07267e-35)
(0.481525 -0.785801 1.42131e-17 -0.509015 -4.83056e-17 -2.01974e-34)
(0.603421 -0.578912 2.24991e-17 -0.609762 1.28842e-17 0)
(0.664782 -0.39298 -7.85641e-17 -0.692258 -2.74812e-17 4.90209e-34)
(0.741699 -0.206286 -1.62358e-16 -0.749956 3.6809e-17 -3.30322e-33)
(0.789597 -0.0374011 3.73396e-17 -0.813443 2.20352e-17 -5.62348e-34)
(0.836849 0.127994 -3.47165e-17 -0.851745 1.02801e-17 -6.78406e-34)
(0.923568 0.303195 9.00583e-17 -0.941888 -7.46582e-18 1.15043e-33)
(-2.93904 -3.30906 2.31921e-17 2.92009 -1.4709e-18 -6.83843e-35)
(-0.676337 -1.62849 -3.40918e-17 0.654854 -7.28164e-18 5.29258e-35)
(-0.245265 -1.47302 -6.60353e-17 0.233055 4.32928e-17 2.0836e-34)
(0.248938 -0.978121 1.58378e-16 -0.269758 -4.78232e-17 -9.52358e-34)
(0.441977 -0.726125 -1.53914e-16 -0.44947 4.65203e-17 3.96684e-34)
(0.567013 -0.475247 1.35023e-16 -0.588888 -8.50621e-18 -1.01538e-33)
(0.659205 -0.2619 7.1574e-17 -0.664238 -9.54027e-17 1.93794e-33)
(0.698643 -0.080432 -1.99591e-16 -0.720503 -9.66165e-18 -2.48327e-33)
(0.749535 0.0999887 -3.09501e-17 -0.756096 4.40661e-17 1.27064e-33)
(0.777373 0.26131 -2.25151e-18 -0.796352 2.86007e-19 1.04697e-35)
(0.802797 0.414994 8.6496e-18 -0.814647 4.50327e-17 2.80793e-34)
(0.866683 0.593532 8.33851e-17 -0.881264 -1.85859e-17 -1.15043e-33)
(-2.31004 -4.00662 7.10708e-18 2.29638 1.43242e-17 0)
(-0.47304 -1.66506 2.69503e-17 0.457514 -8.17357e-18 -5.75968e-35)
(-0.112823 -1.36268 5.66199e-17 0.104026 1.2152e-18 -1.86905e-34)
(0.280481 -0.739612 -1.21568e-16 -0.295576 2.87033e-17 1.13579e-33)
(0.429096 -0.448989 1.21348e-16 -0.434501 -1.24815e-17 -6.09999e-34)
(0.521114 -0.180754 -4.14178e-17 -0.536993 3.82871e-17 3.69005e-34)
(0.585231 0.0360351 -8.79618e-17 -0.588862 -8.3505e-18 6.43056e-34)
(0.608308 0.211177 5.84578e-17 -0.624172 -1.29256e-17 6.08237e-34)
(0.639152 0.383598 6.34962e-17 -0.6439 3.21109e-17 8.61014e-34)
(0.653264 0.535947 5.63325e-17 -0.667046 6.96061e-18 -5.02113e-35)
(0.664503 0.676896 1.69143e-16 -0.6731 -2.78926e-17 -1.40676e-34)
(0.707871 0.856397 -8.45492e-17 -0.718458 -2.82501e-18 3.62558e-36)
(-1.47669 -4.52552 7.2293e-18 1.46856 -1.97798e-18 0)
(-0.27912 -1.68481 -4.49996e-17 0.269804 1.54924e-17 5.33099e-35)
(-0.0403453 -1.27038 -5.1806e-17 0.0351023 -2.10744e-18 1.16272e-34)
(0.213013 -0.551379 6.73339e-17 -0.222134 -9.99362e-18 4.64606e-35)
(0.306765 -0.23238 -6.36591e-17 -0.31 1.96595e-17 -2.61401e-35)
(0.363114 0.0479099 1.48185e-17 -0.372734 -1.80679e-17 0)
(0.400778 0.266245 -4.18389e-17 -0.402954 2.97222e-17 3.83821e-34)
(0.412389 0.435601 2.6171e-17 -0.421994 2.85416e-17 -2.04043e-34)
(0.428465 0.60095 -1.63532e-17 -0.431325 8.20834e-18 4.64477e-34)
(0.434389 0.74558 -1.61093e-18 -0.442743 2.29848e-17 8.21541e-34)
(0.438102 0.875957 -6.98529e-18 -0.443305 -3.05069e-17 -2.38504e-34)
(0.463107 1.05529 3.42909e-17 -0.469524 -2.99049e-17 -5.97348e-34)
(-0.507924 -4.80213 1.44091e-18 0.505444 -1.25665e-17 0)
(-0.0920814 -1.69318 3.75174e-18 0.0891388 -1.09725e-17 5.76415e-35)
(-0.00852535 -1.21821 -9.03443e-18 0.0069266 2.01099e-17 3.97183e-35)
(0.0789614 -0.447891 -1.24687e-17 -0.0819472 9.181e-19 -9.07958e-36)
(0.11097 -0.113875 4.16418e-17 -0.111975 -1.26213e-17 2.1569e-36)
(0.129964 0.172603 -1.20151e-17 -0.133155 1.56702e-18 -1.13866e-35)
(0.14235 0.391463 8.65463e-18 -0.143029 3.14745e-18 1.54381e-36)
(0.14583 0.557423 -1.87901e-17 -0.149004 6.37896e-18 2.02751e-34)
(0.150743 0.718676 2.58755e-17 -0.15166 -2.56789e-18 9.95507e-35)
(0.152235 0.858883 -1.29633e-17 -0.155013 2.70617e-18 1.90719e-34)
(0.152935 0.983304 -3.85313e-18 -0.154647 3.55412e-19 2.63463e-34)
(0.161077 1.16228 7.08198e-18 -0.163207 -9.76005e-18 -4.3505e-35)
(0.508245 -4.80217 2.66583e-18 -0.505008 9.32173e-18 -1.97515e-35)
(0.0924434 -1.69318 2.20808e-17 -0.0889574 1.49018e-17 -3.32635e-35)
(0.0089304 -1.2182 2.95633e-18 -0.00684824 3.89829e-18 -3.30426e-35)
(-0.0785564 -0.447861 -8.74965e-18 0.0817525 6.70096e-20 4.8555e-35)
(-0.110687 -0.113854 -1.10898e-17 0.111928 -8.16313e-18 -9.32135e-35)
(-0.129638 0.17264 1.04587e-17 0.132923 2.68758e-18 -1.69946e-35)
(-0.1421 0.391488 -7.67894e-18 0.142925 -1.00468e-17 -7.28908e-36)
(-0.145575 0.557455 -1.65185e-18 0.148878 -2.22811e-17 -1.40883e-34)
(-0.150545 0.718703 -9.68898e-18 0.15158 -4.12849e-18 -1.937e-34)
(-0.152152 0.858904 -7.46252e-18 0.154992 1.0134e-17 -1.60782e-34)
(-0.152866 0.98332 -7.51463e-19 0.154668 1.58991e-17 -5.15052e-36)
(-0.161046 1.1623 -4.11088e-19 0.163233 -2.53347e-18 1.47133e-35)
(1.477 -4.5256 1.36788e-17 -1.46815 -3.26118e-18 2.06367e-35)
(0.279456 -1.6848 -4.74972e-17 -0.269624 -1.0627e-17 -4.12495e-34)