/*--------------------------------*- C++ -*----------------------------------*\
| =========                 |                                                 |
| \\      /  F ield         | OpenFOAM: The Open Source CFD Toolbox           |
|  \\    /   O peration     | Version:  2.2.0                                 |
|   \\  /    A nd           | Web:      www.OpenFOAM.org                      |
|    \\/     M anipulation  |                                                 |
\*---------------------------------------------------------------------------*/
FoamFile
{
    version     2.0;
    format      ascii;
    class       volVectorField;
    location    "120";
    object      s;
}
// * * * * * * * * * * * * * * * * * * * * * * * * * * * * * * * * * * * * * //

dimensions      [0 1 -1 0 0 0 0];

internalField   nonuniform List<vector> 
20480
(
(1.50693 0.0147957 0)
(1.44101 0.0141479 0)
(1.38062 0.0135548 0)
(1.32509 0.0130095 0)
(1.27385 0.0125064 0)
(1.22642 0.0120408 0)
(1.18239 0.0116085 0)
(1.14142 0.0112062 0)
(1.10319 0.0108309 0)
(1.06743 0.0104799 0)
(1.03392 0.0101509 0)
(1.00245 0.00984189 0)
(0.97284 0.00955116 0)
(0.944927 0.00927711 0)
(0.918571 0.00901835 0)
(0.893645 0.00877363 0)
(0.870035 0.00854183 0)
(0.84764 0.00832197 0)
(0.826369 0.00811313 0)
(0.80614 0.00791452 0)
(0.786877 0.0077254 0)
(0.768512 0.0075451 0)
(0.750986 0.00737303 0)
(0.734241 0.00720863 0)
(0.718226 0.0070514 0)
(0.702894 0.00690088 0)
(0.688204 0.00675665 0)
(0.674115 0.00661832 0)
(0.660591 0.00648555 0)
(0.647599 0.00635799 0)
(0.635108 0.00623536 0)
(0.623089 0.00611737 0)
(0.611517 0.00600375 0)
(0.600367 0.00589429 0)
(0.589616 0.00578873 0)
(0.579244 0.0056869 0)
(0.56923 0.00558858 0)
(0.559557 0.00549361 0)
(0.550205 0.0054018 0)
(0.541164 0.00531304 0)
(0.532411 0.0052271 0)
(0.523942 0.00514395 0)
(0.515731 0.00506334 0)
(0.507782 0.0049853 0)
(0.500064 0.00490952 0)
(0.49259 0.00483614 0)
(0.48532 0.00476477 0)
(0.47828 0.00469566 0)
(0.471421 0.00462831 0)
(0.464778 0.00456309 0)
(0.458296 0.00449946 0)
(0.452016 0.0044378 0)
(0.445884 0.00437759 0)
(0.439935 0.00431919 0)
(0.434127 0.00426217 0)
(0.428481 0.00420674 0)
(0.422976 0.00415269 0)
(0.417607 0.00409998 0)
(0.412385 0.00404871 0)
(0.40727 0.00399849 0)
(0.402311 0.00394981 0)
(0.397433 0.00390192 0)
(0.392716 0.00385561 0)
(0.388062 0.00380992 0)
(1.50634 0.0443803 0)
(1.44046 0.0424384 0)
(1.38009 0.040659 0)
(1.32458 0.0390237 0)
(1.27335 0.0375144 0)
(1.22594 0.0361177 0)
(1.18194 0.0348211 0)
(1.14098 0.0336144 0)
(1.10276 0.0324885 0)
(1.06702 0.0314355 0)
(1.03352 0.0304487 0)
(1.00207 0.0295219 0)
(0.972465 0.0286498 0)
(0.944563 0.0278278 0)
(0.918217 0.0270516 0)
(0.8933 0.0263175 0)
(0.869699 0.0256222 0)
(0.847313 0.0249627 0)
(0.826051 0.0243363 0)
(0.805829 0.0237405 0)
(0.786573 0.0231732 0)
(0.768216 0.0226324 0)
(0.750696 0.0221162 0)
(0.733957 0.0216231 0)
(0.717949 0.0211515 0)
(0.702623 0.0207 0)
(0.687938 0.0202673 0)
(0.673855 0.0198524 0)
(0.660336 0.0194541 0)
(0.647349 0.0190715 0)
(0.634863 0.0187037 0)
(0.622849 0.0183497 0)
(0.611281 0.0180089 0)
(0.600136 0.0176806 0)
(0.589389 0.017364 0)
(0.579021 0.0170585 0)
(0.56901 0.0167636 0)
(0.559341 0.0164787 0)
(0.549993 0.0162033 0)
(0.540955 0.0159371 0)
(0.532206 0.0156793 0)
(0.52374 0.0154299 0)
(0.515532 0.0151881 0)
(0.507586 0.014954 0)
(0.499871 0.0147267 0)
(0.4924 0.0145066 0)
(0.485133 0.0142925 0)
(0.478096 0.0140852 0)
(0.471239 0.0138832 0)
(0.464599 0.0136875 0)
(0.458119 0.0134966 0)
(0.451842 0.0133117 0)
(0.445712 0.0131311 0)
(0.439765 0.0129559 0)
(0.43396 0.0127849 0)
(0.428316 0.0126186 0)
(0.422813 0.0124565 0)
(0.417446 0.0122984 0)
(0.412226 0.0121446 0)
(0.407113 0.0119939 0)
(0.402156 0.0118479 0)
(0.39728 0.0117043 0)
(0.392565 0.0115653 0)
(0.387913 0.0114283 0)
(1.50518 0.0739473 0)
(1.43935 0.070712 0)
(1.37903 0.0677478 0)
(1.32356 0.0650227 0)
(1.27237 0.062508 0)
(1.225 0.0601806 0)
(1.18102 0.0580202 0)
(1.1401 0.0560096 0)
(1.10191 0.0541335 0)
(1.0662 0.0523791 0)
(1.03273 0.0507347 0)
(1.00129 0.0491905 0)
(0.971715 0.0477374 0)
(0.943835 0.0463677 0)
(0.917509 0.0450744 0)
(0.892611 0.0438512 0)
(0.869029 0.0426927 0)
(0.84666 0.0415938 0)
(0.825414 0.04055 0)
(0.805207 0.0395573 0)
(0.785967 0.0386121 0)
(0.767624 0.037711 0)
(0.750117 0.0368509 0)
(0.733391 0.0360292 0)
(0.717395 0.0352434 0)
(0.702081 0.0344911 0)
(0.687408 0.0337702 0)
(0.673335 0.0330788 0)
(0.659827 0.0324152 0)
(0.64685 0.0317777 0)
(0.634373 0.0311648 0)
(0.622369 0.030575 0)
(0.61081 0.0300072 0)
(0.599673 0.0294601 0)
(0.588934 0.0289325 0)
(0.578574 0.0284235 0)
(0.568571 0.0279321 0)
(0.55891 0.0274575 0)
(0.549569 0.0269986 0)
(0.540538 0.0265549 0)
(0.531795 0.0261254 0)
(0.523336 0.0257098 0)
(0.515134 0.0253069 0)
(0.507195 0.0249169 0)
(0.499486 0.0245382 0)
(0.49202 0.0241714 0)
(0.484759 0.0238147 0)
(0.477727 0.0234692 0)
(0.470876 0.0231326 0)
(0.46424 0.0228067 0)
(0.457766 0.0224886 0)
(0.451493 0.0221805 0)
(0.445368 0.0218795 0)
(0.439426 0.0215876 0)
(0.433625 0.0213026 0)
(0.427986 0.0210256 0)
(0.422487 0.0207555 0)
(0.417124 0.020492 0)
(0.411908 0.0202358 0)
(0.406799 0.0199848 0)
(0.401846 0.0197414 0)
(0.396974 0.0195021 0)
(0.392262 0.0192706 0)
(0.387614 0.0190422 0)
(1.50344 0.103486 0)
(1.43768 0.0989583 0)
(1.37743 0.0948104 0)
(1.32202 0.0909966 0)
(1.2709 0.0874774 0)
(1.22358 0.0842204 0)
(1.17966 0.081197 0)
(1.13878 0.0783832 0)
(1.10064 0.0757577 0)
(1.06496 0.0733024 0)
(1.03153 0.0710012 0)
(1.00013 0.0688401 0)
(0.970591 0.0668066 0)
(0.942742 0.0648897 0)
(0.916447 0.0630798 0)
(0.891578 0.061368 0)
(0.868023 0.0597467 0)
(0.84568 0.0582088 0)
(0.824458 0.0567481 0)
(0.804276 0.0553589 0)
(0.785057 0.0540361 0)
(0.766735 0.052775 0)
(0.749249 0.0515714 0)
(0.732543 0.0504215 0)
(0.716565 0.0493217 0)
(0.701269 0.0482689 0)
(0.686612 0.0472601 0)
(0.672556 0.0462925 0)
(0.659063 0.0453638 0)
(0.646101 0.0444716 0)
(0.633639 0.0436138 0)
(0.621648 0.0427885 0)
(0.610103 0.0419939 0)
(0.598979 0.0412282 0)
(0.588253 0.0404899 0)
(0.577905 0.0397776 0)
(0.567913 0.0390899 0)
(0.558263 0.0384256 0)
(0.548933 0.0377835 0)
(0.539912 0.0371626 0)
(0.53118 0.0365615 0)
(0.52273 0.0359799 0)
(0.514538 0.0354161 0)
(0.506608 0.0348702 0)
(0.498907 0.0343402 0)
(0.491451 0.0338269 0)
(0.484198 0.0333277 0)
(0.477174 0.0328442 0)
(0.470331 0.0323732 0)
(0.463703 0.031917 0)
(0.457236 0.0314719 0)
(0.450971 0.0310407 0)
(0.444852 0.0306195 0)
(0.438918 0.030211 0)
(0.433123 0.0298122 0)
(0.42749 0.0294245 0)
(0.421998 0.0290465 0)
(0.416641 0.0286777 0)
(0.411431 0.0283191 0)
(0.406328 0.0279679 0)
(0.401381 0.0276273 0)
(0.396514 0.0272924 0)
(0.391808 0.0269685 0)
(0.387165 0.0266488 0)
(1.50112 0.132984 0)
(1.43546 0.127166 0)
(1.3753 0.121836 0)
(1.31998 0.116935 0)
(1.26894 0.112413 0)
(1.22169 0.108228 0)
(1.17784 0.104342 0)
(1.13702 0.100727 0)
(1.09894 0.0973527 0)
(1.06332 0.0941975 0)
(1.02994 0.0912403 0)
(0.99859 0.0884632 0)
(0.969092 0.08585 0)
(0.941287 0.0833867 0)
(0.915032 0.0810609 0)
(0.890201 0.0788612 0)
(0.866683 0.0767777 0)
(0.844374 0.0748014 0)
(0.823185 0.0729244 0)
(0.803034 0.0711392 0)
(0.783845 0.0694392 0)
(0.765551 0.0678187 0)
(0.748092 0.066272 0)
(0.731412 0.0647943 0)
(0.715458 0.063381 0)
(0.700186 0.0620281 0)
(0.685552 0.0607317 0)
(0.671517 0.0594884 0)
(0.658045 0.0582949 0)
(0.645103 0.0571484 0)
(0.63266 0.0560461 0)
(0.620689 0.0549855 0)
(0.609161 0.0539643 0)
(0.598054 0.0529804 0)
(0.587345 0.0520317 0)
(0.577012 0.0511164 0)
(0.567036 0.0502326 0)
(0.557401 0.049379 0)
(0.548085 0.0485538 0)
(0.539079 0.0477559 0)
(0.530359 0.0469835 0)
(0.521923 0.0462361 0)
(0.513744 0.0455115 0)
(0.505825 0.0448101 0)
(0.498137 0.044129 0)
(0.490692 0.0434694 0)
(0.48345 0.0428279 0)
(0.476437 0.0422066 0)
(0.469605 0.0416013 0)
(0.462987 0.0410151 0)
(0.45653 0.0404431 0)
(0.450275 0.0398889 0)
(0.444166 0.0393477 0)
(0.43824 0.0388228 0)
(0.432454 0.0383103 0)
(0.42683 0.037812 0)
(0.421347 0.0373262 0)
(0.415998 0.0368524 0)
(0.410796 0.0363916 0)
(0.405701 0.0359402 0)
(0.400761 0.0355026 0)
(0.395902 0.0350722 0)
(0.391203 0.0346559 0)
(0.386567 0.0342452 0)
(1.49822 0.162431 0)
(1.43269 0.155325 0)
(1.37265 0.148815 0)
(1.31743 0.142829 0)
(1.26649 0.137305 0)
(1.21933 0.132193 0)
(1.17556 0.127448 0)
(1.13482 0.123031 0)
(1.09681 0.11891 0)
(1.06127 0.115056 0)
(1.02795 0.111444 0)
(0.996661 0.108052 0)
(0.96722 0.10486 0)
(0.939468 0.101852 0)
(0.913264 0.0990107 0)
(0.888481 0.0963239 0)
(0.865008 0.0937791 0)
(0.842743 0.0913652 0)
(0.821595 0.0890725 0)
(0.801482 0.086892 0)
(0.78233 0.0848156 0)
(0.764072 0.0828362 0)
(0.746647 0.080947 0)
(0.729998 0.0791421 0)
(0.714076 0.0774159 0)
(0.698833 0.0757634 0)
(0.684228 0.0741799 0)
(0.67022 0.0726613 0)
(0.656774 0.0712035 0)
(0.643857 0.0698032 0)
(0.631438 0.0684568 0)
(0.619489 0.0671614 0)
(0.607984 0.065914 0)
(0.596899 0.0647122 0)
(0.58621 0.0635534 0)
(0.575897 0.0624354 0)
(0.565941 0.0613559 0)
(0.556324 0.0603133 0)
(0.547026 0.0593053 0)
(0.538037 0.0583308 0)
(0.529335 0.0573873 0)
(0.520914 0.0564744 0)
(0.512751 0.0555894 0)
(0.504848 0.0547326 0)
(0.497175 0.0539007 0)
(0.489744 0.0530951 0)
(0.482516 0.0523115 0)
(0.475517 0.0515527 0)
(0.468697 0.0508134 0)
(0.462093 0.0500973 0)
(0.455648 0.0493987 0)
(0.449405 0.0487218 0)
(0.443307 0.0480607 0)
(0.437393 0.0474196 0)
(0.431619 0.0467935 0)
(0.426005 0.046185 0)
(0.420533 0.0455916 0)
(0.415194 0.0450129 0)
(0.410002 0.04445 0)
(0.404917 0.0438987 0)
(0.399987 0.0433642 0)
(0.395137 0.0428384 0)
(0.390448 0.04233 0)
(0.38582 0.0418283 0)
(1.49474 0.191815 0)
(1.42936 0.183424 0)
(1.36946 0.175737 0)
(1.31437 0.168668 0)
(1.26355 0.162145 0)
(1.2165 0.156108 0)
(1.17283 0.150504 0)
(1.13219 0.145288 0)
(1.09427 0.140422 0)
(1.0588 0.135871 0)
(1.02556 0.131605 0)
(0.994347 0.127599 0)
(0.964974 0.12383 0)
(0.937287 0.120277 0)
(0.911144 0.116922 0)
(0.886419 0.11375 0)
(0.863 0.110744 0)
(0.840787 0.107894 0)
(0.819688 0.105186 0)
(0.799622 0.102611 0)
(0.780514 0.100159 0)
(0.762299 0.0978218 0)
(0.744914 0.0955909 0)
(0.728304 0.0934594 0)
(0.712418 0.0914209 0)
(0.697211 0.0894694 0)
(0.682639 0.0875995 0)
(0.668664 0.0858061 0)
(0.655249 0.0840847 0)
(0.642362 0.082431 0)
(0.629972 0.080841 0)
(0.618051 0.0793113 0)
(0.606573 0.0778383 0)
(0.595513 0.0764191 0)
(0.584849 0.0750506 0)
(0.574561 0.0737303 0)
(0.564627 0.0724556 0)
(0.555032 0.0712244 0)
(0.545756 0.0700341 0)
(0.536788 0.0688832 0)
(0.528106 0.0677691 0)
(0.519705 0.066691 0)
(0.511561 0.0656459 0)
(0.503676 0.0646341 0)
(0.496021 0.0636517 0)
(0.488607 0.0627003 0)
(0.481396 0.061775 0)
(0.474413 0.0608789 0)
(0.467609 0.0600058 0)
(0.46102 0.0591603 0)
(0.454591 0.0583352 0)
(0.448361 0.0575359 0)
(0.442278 0.0567552 0)
(0.436378 0.0559981 0)
(0.430617 0.0552588 0)
(0.425017 0.0545401 0)
(0.419556 0.0538394 0)
(0.41423 0.053156 0)
(0.409051 0.0524913 0)
(0.403977 0.0518403 0)
(0.399058 0.051209 0)
(0.39422 0.0505882 0)
(0.389541 0.0499878 0)
(0.384925 0.0493953 0)
(1.49068 0.221125 0)
(1.42548 0.211453 0)
(1.36574 0.20259 0)
(1.31081 0.194441 0)
(1.26012 0.186922 0)
(1.2132 0.179962 0)
(1.16965 0.173502 0)
(1.12912 0.167489 0)
(1.0913 0.161879 0)
(1.05593 0.156633 0)
(1.02278 0.151716 0)
(0.99165 0.147098 0)
(0.962357 0.142752 0)
(0.934745 0.138656 0)
(0.908672 0.134789 0)
(0.884015 0.131131 0)
(0.860659 0.127667 0)
(0.838506 0.124381 0)
(0.817464 0.121259 0)
(0.797453 0.118291 0)
(0.778397 0.115464 0)
(0.760231 0.11277 0)
(0.742893 0.110198 0)
(0.726328 0.107741 0)
(0.710486 0.105391 0)
(0.69532 0.103141 0)
(0.680788 0.100985 0)
(0.66685 0.0989179 0)
(0.653472 0.0969335 0)
(0.64062 0.095027 0)
(0.628264 0.0931941 0)
(0.616375 0.0914306 0)
(0.604928 0.0897326 0)
(0.593898 0.0880964 0)
(0.583263 0.0865189 0)
(0.573002 0.0849969 0)
(0.563096 0.0835274 0)
(0.553527 0.082108 0)
(0.544276 0.0807358 0)
(0.535332 0.079409 0)
(0.526674 0.0781247 0)
(0.518296 0.0768819 0)
(0.510173 0.0756771 0)
(0.50231 0.0745107 0)
(0.494675 0.0733781 0)
(0.487282 0.0722814 0)
(0.48009 0.0712147 0)
(0.473126 0.0701816 0)
(0.466341 0.0691752 0)
(0.45977 0.0682004 0)
(0.453358 0.0672493 0)
(0.447145 0.0663278 0)
(0.441079 0.0654279 0)
(0.435194 0.064555 0)
(0.429449 0.0637027 0)
(0.423864 0.0628743 0)
(0.418418 0.0620665 0)
(0.413107 0.0612786 0)
(0.407941 0.0605124 0)
(0.402881 0.0597618 0)
(0.397976 0.0590342 0)
(0.393151 0.0583184 0)
(0.388485 0.0576263 0)
(0.383881 0.0569433 0)
(1.48606 0.25035 0)
(1.42106 0.239399 0)
(1.3615 0.229366 0)
(1.30674 0.22014 0)
(1.25621 0.211626 0)
(1.20943 0.203747 0)
(1.16602 0.196433 0)
(1.12561 0.189626 0)
(1.08791 0.183274 0)
(1.05265 0.177334 0)
(1.01961 0.171767 0)
(0.988571 0.166539 0)
(0.959369 0.161619 0)
(0.931842 0.156982 0)
(0.905851 0.152604 0)
(0.88127 0.148463 0)
(0.857987 0.14454 0)
(0.835903 0.14082 0)
(0.814926 0.137286 0)
(0.794977 0.133925 0)
(0.77598 0.130725 0)
(0.75787 0.127674 0)
(0.740586 0.124762 0)
(0.724073 0.12198 0)
(0.70828 0.11932 0)
(0.693161 0.116773 0)
(0.678674 0.114332 0)
(0.66478 0.111992 0)
(0.651443 0.109745 0)
(0.638631 0.107586 0)
(0.626313 0.105511 0)
(0.614461 0.103515 0)
(0.603049 0.101592 0)
(0.592054 0.0997399 0)
(0.581452 0.0979538 0)
(0.571223 0.0962306 0)
(0.561347 0.0945669 0)
(0.551808 0.0929599 0)
(0.542586 0.0914064 0)
(0.53367 0.0899043 0)
(0.525038 0.0884502 0)
(0.516686 0.0870431 0)
(0.508589 0.0856791 0)
(0.50075 0.0843585 0)
(0.493139 0.0830763 0)
(0.485768 0.0818346 0)
(0.4786 0.0806269 0)
(0.471657 0.0794573 0)
(0.464893 0.0783178 0)
(0.458342 0.0772142 0)
(0.45195 0.0761374 0)
(0.445757 0.0750941 0)
(0.439709 0.0740753 0)
(0.433843 0.073087 0)
(0.428115 0.0721221 0)
(0.422548 0.0711842 0)
(0.417119 0.0702696 0)
(0.411824 0.0693776 0)
(0.406675 0.0685101 0)
(0.40163 0.0676604 0)
(0.39674 0.0668365 0)
(0.39193 0.0660262 0)
(0.387278 0.0652425 0)
(0.382689 0.0644693 0)
(1.48085 0.279478 0)
(1.41608 0.267254 0)
(1.35674 0.256053 0)
(1.30216 0.245753 0)
(1.25181 0.23625 0)
(1.2052 0.227453 0)
(1.16194 0.219288 0)
(1.12167 0.211689 0)
(1.0841 0.204599 0)
(1.04897 0.197968 0)
(1.01604 0.191753 0)
(0.985111 0.185916 0)
(0.956011 0.180424 0)
(0.928581 0.175247 0)
(0.90268 0.170359 0)
(0.878185 0.165736 0)
(0.854984 0.161358 0)
(0.832977 0.157204 0)
(0.812074 0.15326 0)
(0.792194 0.149508 0)
(0.773264 0.145935 0)
(0.755218 0.142529 0)
(0.737994 0.139279 0)
(0.721539 0.136173 0)
(0.705801 0.133203 0)
(0.690735 0.13036 0)
(0.676298 0.127635 0)
(0.662453 0.125022 0)
(0.649163 0.122514 0)
(0.636395 0.120104 0)
(0.624121 0.117788 0)
(0.61231 0.115559 0)
(0.600938 0.113413 0)
(0.589981 0.111345 0)
(0.579416 0.109351 0)
(0.569224 0.107427 0)
(0.559382 0.10557 0)
(0.549877 0.103776 0)
(0.540687 0.102042 0)
(0.531802 0.100365 0)
(0.5232 0.0987415 0)
(0.514878 0.0971708 0)
(0.506809 0.0956481 0)
(0.498998 0.0941739 0)
(0.491413 0.0927424 0)
(0.484068 0.0913563 0)
(0.476924 0.0900081 0)
(0.470006 0.0887024 0)
(0.463266 0.0874303 0)
(0.456737 0.0861983 0)
(0.450368 0.0849962 0)
(0.444197 0.0838315 0)
(0.43817 0.0826941 0)
(0.432324 0.0815909 0)
(0.426617 0.0805137 0)
(0.421069 0.0794666 0)
(0.415659 0.0784457 0)
(0.410382 0.0774499 0)
(0.405251 0.0764814 0)
(0.400225 0.0755328 0)
(0.395351 0.0746131 0)
(0.390558 0.0737085 0)
(0.385923 0.0728337 0)
(0.381349 0.0719705 0)
(1.47508 0.308499 0)
(1.41056 0.295005 0)
(1.35145 0.282642 0)
(1.29709 0.271272 0)
(1.24693 0.260782 0)
(1.2005 0.251072 0)
(1.15741 0.242059 0)
(1.1173 0.233671 0)
(1.07988 0.225844 0)
(1.04488 0.218525 0)
(1.01208 0.211664 0)
(0.98127 0.205222 0)
(0.952284 0.19916 0)
(0.924961 0.193445 0)
(0.899161 0.188049 0)
(0.874762 0.182947 0)
(0.851651 0.178113 0)
(0.829729 0.173529 0)
(0.808908 0.169174 0)
(0.789106 0.165033 0)
(0.77025 0.161089 0)
(0.752274 0.15733 0)
(0.735117 0.153741 0)
(0.718726 0.150313 0)
(0.703049 0.147035 0)
(0.688042 0.143896 0)
(0.673662 0.140889 0)
(0.65987 0.138004 0)
(0.646632 0.135236 0)
(0.633915 0.132576 0)
(0.621688 0.130019 0)
(0.609923 0.127559 0)
(0.598596 0.125189 0)
(0.587681 0.122907 0)
(0.577158 0.120706 0)
(0.567005 0.118583 0)
(0.557202 0.116532 0)
(0.547733 0.114552 0)
(0.538579 0.112638 0)
(0.529729 0.110787 0)
(0.521161 0.108995 0)
(0.512871 0.107261 0)
(0.504833 0.10558 0)
(0.497052 0.103953 0)
(0.489497 0.102373 0)
(0.482181 0.100843 0)
(0.475065 0.0993545 0)
(0.468174 0.0979132 0)
(0.46146 0.0965091 0)
(0.454957 0.0951491 0)
(0.448612 0.0938222 0)
(0.442465 0.0925365 0)
(0.436462 0.091281 0)
(0.430639 0.0900633 0)
(0.424954 0.0888743 0)
(0.419427 0.0877184 0)
(0.414039 0.0865915 0)
(0.408783 0.0854922 0)
(0.403671 0.0844233 0)
(0.398664 0.0833761 0)
(0.39381 0.0823609 0)
(0.389036 0.0813623 0)
(0.384418 0.0803967 0)
(0.379863 0.0794439 0)
(1.46874 0.337401 0)
(1.4045 0.322643 0)
(1.34564 0.309121 0)
(1.29151 0.296687 0)
(1.24157 0.285213 0)
(1.19534 0.274594 0)
(1.15243 0.264737 0)
(1.1125 0.255563 0)
(1.07523 0.247003 0)
(1.04039 0.238997 0)
(1.00772 0.231494 0)
(0.977052 0.224448 0)
(0.94819 0.217818 0)
(0.920984 0.211568 0)
(0.895296 0.205667 0)
(0.871001 0.200086 0)
(0.84799 0.1948 0)
(0.826163 0.189786 0)
(0.805431 0.185023 0)
(0.785714 0.180494 0)
(0.766939 0.176181 0)
(0.74904 0.172069 0)
(0.731957 0.168145 0)
(0.715636 0.164396 0)
(0.700027 0.16081 0)
(0.685084 0.157377 0)
(0.670766 0.154088 0)
(0.657034 0.150934 0)
(0.643852 0.147905 0)
(0.63119 0.144997 0)
(0.619015 0.1422 0)
(0.607301 0.139509 0)
(0.596022 0.136918 0)
(0.585155 0.134422 0)
(0.574676 0.132014 0)
(0.564567 0.129692 0)
(0.554806 0.12745 0)
(0.545379 0.125284 0)
(0.536264 0.12319 0)
(0.527452 0.121166 0)
(0.51892 0.119206 0)
(0.510666 0.11731 0)
(0.502663 0.115472 0)
(0.494916 0.113692 0)
(0.487393 0.111964 0)
(0.480108 0.11029 0)
(0.473023 0.108663 0)
(0.466161 0.107086 0)
(0.459476 0.105551 0)
(0.453001 0.104063 0)
(0.446684 0.102612 0)
(0.440563 0.101206 0)
(0.434586 0.0998328 0)
(0.428788 0.098501 0)
(0.423127 0.0972006 0)
(0.417624 0.0959364 0)
(0.412259 0.0947039 0)
(0.407025 0.0935017 0)
(0.401936 0.0923325 0)
(0.396951 0.0911873 0)
(0.392117 0.090077 0)
(0.387363 0.0889849 0)
(0.382766 0.0879288 0)
(0.37823 0.0868867 0)
(1.46183 0.366172 0)
(1.39789 0.350156 0)
(1.33931 0.335481 0)
(1.28544 0.321987 0)
(1.23573 0.309535 0)
(1.18972 0.29801 0)
(1.14701 0.287312 0)
(1.10726 0.277356 0)
(1.07018 0.268066 0)
(1.03549 0.259378 0)
(1.00299 0.251235 0)
(0.972457 0.243588 0)
(0.943731 0.236393 0)
(0.916653 0.22961 0)
(0.891085 0.223205 0)
(0.866905 0.217148 0)
(0.844001 0.211411 0)
(0.822277 0.20597 0)
(0.801643 0.200801 0)
(0.782018 0.195885 0)
(0.763332 0.191205 0)
(0.745517 0.186742 0)
(0.728515 0.182483 0)
(0.712271 0.178415 0)
(0.696735 0.174523 0)
(0.681862 0.170798 0)
(0.667611 0.167228 0)
(0.653944 0.163804 0)
(0.640824 0.160518 0)
(0.628221 0.157361 0)
(0.616104 0.154326 0)
(0.604445 0.151406 0)
(0.593219 0.148594 0)
(0.582403 0.145884 0)
(0.571974 0.143272 0)
(0.561912 0.140752 0)
(0.552197 0.138318 0)
(0.542814 0.135968 0)
(0.533742 0.133695 0)
(0.524971 0.131498 0)
(0.51648 0.129372 0)
(0.508264 0.127314 0)
(0.500299 0.125318 0)
(0.492588 0.123387 0)
(0.485101 0.121511 0)
(0.47785 0.119695 0)
(0.470798 0.117929 0)
(0.463969 0.116218 0)
(0.457315 0.114551 0)
(0.450871 0.112937 0)
(0.444583 0.111362 0)
(0.438491 0.109836 0)
(0.432542 0.108346 0)
(0.426771 0.106901 0)
(0.421137 0.105489 0)
(0.41566 0.104117 0)
(0.41032 0.10278 0)
(0.405111 0.101475 0)
(0.400046 0.100206 0)
(0.395084 0.0989633 0)
(0.390273 0.0977584 0)
(0.385541 0.0965731 0)
(0.380966 0.0954269 0)
(0.376451 0.094296 0)
(1.45436 0.394803 0)
(1.39075 0.377534 0)
(1.33246 0.361712 0)
(1.27887 0.347162 0)
(1.22941 0.333737 0)
(1.18364 0.321311 0)
(1.14115 0.309777 0)
(1.1016 0.299042 0)
(1.06471 0.289026 0)
(1.0302 0.279658 0)
(0.997859 0.270879 0)
(0.967487 0.262634 0)
(0.938908 0.254876 0)
(0.911968 0.247563 0)
(0.886531 0.240658 0)
(0.862474 0.234127 0)
(0.839688 0.227942 0)
(0.818075 0.222074 0)
(0.797546 0.216502 0)
(0.778022 0.211202 0)
(0.75943 0.206155 0)
(0.741707 0.201344 0)
(0.724791 0.196752 0)
(0.70863 0.192365 0)
(0.693174 0.188169 0)
(0.678377 0.184152 0)
(0.664199 0.180303 0)
(0.650602 0.176612 0)
(0.637549 0.173069 0)
(0.62501 0.169665 0)
(0.612955 0.166393 0)
(0.601356 0.163244 0)
(0.590188 0.160212 0)
(0.579427 0.157291 0)
(0.569051 0.154474 0)
(0.55904 0.151757 0)
(0.549375 0.149133 0)
(0.540039 0.146599 0)
(0.531014 0.144149 0)
(0.522288 0.14178 0)
(0.51384 0.139487 0)
(0.505666 0.137268 0)
(0.497742 0.135117 0)
(0.490071 0.133034 0)
(0.482622 0.131012 0)
(0.475408 0.129054 0)
(0.468392 0.12715 0)
(0.461598 0.125305 0)
(0.454978 0.123508 0)
(0.448566 0.121768 0)
(0.442311 0.12007 0)
(0.43625 0.118424 0)
(0.430331 0.116818 0)
(0.42459 0.115259 0)
(0.418985 0.113738 0)
(0.413536 0.112258 0)
(0.408223 0.110816 0)
(0.403041 0.109409 0)
(0.398001 0.108041 0)
(0.393065 0.106701 0)
(0.388279 0.105402 0)
(0.383571 0.104124 0)
(0.379019 0.102888 0)
(0.374527 0.101669 0)
(1.44633 0.423281 0)
(1.38307 0.404767 0)
(1.32511 0.387804 0)
(1.2718 0.372204 0)
(1.22262 0.357811 0)
(1.1771 0.344489 0)
(1.13485 0.332122 0)
(1.09552 0.320613 0)
(1.05883 0.309874 0)
(1.02451 0.299831 0)
(0.992349 0.290418 0)
(0.962144 0.281579 0)
(0.933722 0.273261 0)
(0.906932 0.26542 0)
(0.881635 0.258017 0)
(0.857711 0.251016 0)
(0.835051 0.244384 0)
(0.813557 0.238093 0)
(0.793141 0.232119 0)
(0.773725 0.226436 0)
(0.755236 0.221026 0)
(0.737611 0.215867 0)
(0.720789 0.210944 0)
(0.704717 0.206241 0)
(0.689346 0.201742 0)
(0.674631 0.197436 0)
(0.660531 0.193309 0)
(0.647009 0.189352 0)
(0.634028 0.185553 0)
(0.621559 0.181904 0)
(0.60957 0.178395 0)
(0.598035 0.175019 0)
(0.586928 0.171769 0)
(0.576227 0.168637 0)
(0.565908 0.165617 0)
(0.555953 0.162704 0)
(0.546341 0.159891 0)
(0.537057 0.157174 0)
(0.528081 0.154547 0)
(0.519404 0.152007 0)
(0.511003 0.149549 0)
(0.502874 0.14717 0)
(0.494993 0.144863 0)
(0.487364 0.142631 0)
(0.479956 0.140463 0)
(0.472783 0.138363 0)
(0.465806 0.136321 0)
(0.459048 0.134344 0)
(0.452465 0.132417 0)
(0.446089 0.130551 0)
(0.439868 0.128731 0)
(0.433841 0.126967 0)
(0.427955 0.125244 0)
(0.422245 0.123573 0)
(0.416671 0.121942 0)
(0.411252 0.120356 0)
(0.405969 0.11881 0)
(0.400815 0.117301 0)
(0.395803 0.115835 0)
(0.390894 0.114398 0)
(0.386134 0.113005 0)
(0.381453 0.111635 0)
(0.376925 0.11031 0)
(0.372458 0.109003 0)
(1.43774 0.451596 0)
(1.37485 0.431844 0)
(1.31724 0.413745 0)
(1.26425 0.397103 0)
(1.21536 0.381746 0)
(1.17011 0.367533 0)
(1.12811 0.354339 0)
(1.08902 0.34206 0)
(1.05254 0.330603 0)
(1.01843 0.319888 0)
(0.986455 0.309846 0)
(0.95643 0.300415 0)
(0.928177 0.291541 0)
(0.901546 0.283176 0)
(0.876399 0.275277 0)
(0.852617 0.267807 0)
(0.830092 0.260732 0)
(0.808725 0.254021 0)
(0.788431 0.247646 0)
(0.76913 0.241584 0)
(0.750751 0.235811 0)
(0.73323 0.230308 0)
(0.716508 0.225055 0)
(0.700532 0.220037 0)
(0.685252 0.215238 0)
(0.670625 0.210643 0)
(0.656608 0.206241 0)
(0.643166 0.202018 0)
(0.630263 0.197966 0)
(0.617867 0.194072 0)
(0.60595 0.190329 0)
(0.594483 0.186727 0)
(0.583443 0.183259 0)
(0.572805 0.179918 0)
(0.562547 0.176696 0)
(0.552651 0.173588 0)
(0.543096 0.170587 0)
(0.533868 0.167688 0)
(0.524945 0.164885 0)
(0.516319 0.162176 0)
(0.507968 0.159553 0)
(0.499888 0.157015 0)
(0.492054 0.154554 0)
(0.48447 0.152172 0)
(0.477106 0.149859 0)
(0.469975 0.147619 0)
(0.463039 0.145441 0)
(0.456322 0.143331 0)
(0.449778 0.141275 0)
(0.44344 0.139285 0)
(0.437256 0.137342 0)
(0.431264 0.13546 0)
(0.425413 0.133622 0)
(0.419738 0.13184 0)
(0.414196 0.130099 0)
(0.40881 0.128407 0)
(0.403558 0.126757 0)
(0.398435 0.125148 0)
(0.393453 0.123583 0)
(0.388572 0.122051 0)
(0.383841 0.120565 0)
(0.379187 0.119103 0)
(0.374687 0.117689 0)
(0.370246 0.116294 0)
(1.42859 0.479737 0)
(1.36611 0.458754 0)
(1.30886 0.439528 0)
(1.25621 0.421848 0)
(1.20763 0.405535 0)
(1.16267 0.390436 0)
(1.12093 0.37642 0)
(1.08209 0.363376 0)
(1.04585 0.351204 0)
(1.01195 0.339822 0)
(0.980182 0.329154 0)
(0.950347 0.319135 0)
(0.922274 0.309708 0)
(0.895812 0.300822 0)
(0.870826 0.292431 0)
(0.847195 0.284496 0)
(0.824812 0.276979 0)
(0.803582 0.26985 0)
(0.783417 0.263078 0)
(0.764239 0.256638 0)
(0.745977 0.250506 0)
(0.728567 0.244659 0)
(0.711951 0.23908 0)
(0.696077 0.233749 0)
(0.680894 0.22865 0)
(0.66636 0.223769 0)
(0.652433 0.219093 0)
(0.639076 0.214607 0)
(0.626255 0.210302 0)
(0.613938 0.206166 0)
(0.602096 0.202189 0)
(0.590703 0.198363 0)
(0.579732 0.194679 0)
(0.569162 0.19113 0)
(0.55897 0.187707 0)
(0.549136 0.184405 0)
(0.539642 0.181217 0)
(0.530472 0.178137 0)
(0.521607 0.17516 0)
(0.513035 0.172282 0)
(0.504737 0.169495 0)
(0.496708 0.166799 0)
(0.488924 0.164185 0)
(0.481389 0.161655 0)
(0.474072 0.159197 0)
(0.466986 0.156818 0)
(0.460094 0.154504 0)
(0.45342 0.152262 0)
(0.446918 0.150079 0)
(0.44062 0.147964 0)
(0.434475 0.145901 0)
(0.428522 0.143901 0)
(0.422708 0.141949 0)
(0.417068 0.140055 0)
(0.411562 0.138206 0)
(0.40621 0.136409 0)
(0.400991 0.134656 0)
(0.395901 0.132947 0)
(0.39095 0.131285 0)
(0.386101 0.129656 0)
(0.3814 0.128077 0)
(0.376776 0.126525 0)
(0.372304 0.125023 0)
(0.367892 0.123541 0)
(1.4189 0.507693 0)
(1.35684 0.485487 0)
(1.29998 0.465141 0)
(1.24769 0.446431 0)
(1.19944 0.429167 0)
(1.15478 0.413188 0)
(1.11333 0.398356 0)
(1.07475 0.384551 0)
(1.03875 0.371671 0)
(1.00508 0.359625 0)
(0.97353 0.348335 0)
(0.943898 0.337733 0)
(0.916016 0.327756 0)
(0.889733 0.318352 0)
(0.864916 0.309472 0)
(0.841446 0.301074 0)
(0.819215 0.29312 0)
(0.798129 0.285575 0)
(0.7781 0.278409 0)
(0.759052 0.271593 0)
(0.740915 0.265104 0)
(0.723623 0.258917 0)
(0.70712 0.253012 0)
(0.691353 0.24737 0)
(0.676274 0.241975 0)
(0.661838 0.236809 0)
(0.648005 0.23186 0)
(0.634739 0.227113 0)
(0.622005 0.222557 0)
(0.609772 0.21818 0)
(0.59801 0.213972 0)
(0.586694 0.209923 0)
(0.575798 0.206024 0)
(0.565299 0.202267 0)
(0.555176 0.198645 0)
(0.54541 0.195151 0)
(0.53598 0.191777 0)
(0.526873 0.188518 0)
(0.518067 0.185367 0)
(0.509554 0.182321 0)
(0.501312 0.179372 0)
(0.493338 0.176519 0)
(0.485607 0.173753 0)
(0.478122 0.171075 0)
(0.470855 0.168475 0)
(0.463817 0.165956 0)
(0.456972 0.163507 0)
(0.450343 0.161135 0)
(0.443885 0.158825 0)
(0.43763 0.156586 0)
(0.431527 0.154403 0)
(0.425614 0.152287 0)
(0.419839 0.150221 0)
(0.414238 0.148217 0)
(0.408769 0.14626 0)
(0.403453 0.144358 0)
(0.39827 0.142503 0)
(0.393214 0.140694 0)
(0.388297 0.138935 0)
(0.383481 0.137212 0)
(0.378812 0.135541 0)
(0.374219 0.133898 0)
(0.369778 0.132309 0)
(0.365395 0.130741 0)
(1.40866 0.535453 0)
(1.34705 0.512033 0)
(1.29059 0.490574 0)
(1.23868 0.470841 0)
(1.19078 0.452633 0)
(1.14645 0.435781 0)
(1.10529 0.420137 0)
(1.06699 0.405578 0)
(1.03125 0.391993 0)
(0.997828 0.379289 0)
(0.966504 0.367382 0)
(0.937085 0.3562 0)
(0.909404 0.345678 0)
(0.883311 0.335759 0)
(0.858674 0.326394 0)
(0.835373 0.317537 0)
(0.813302 0.309148 0)
(0.792368 0.30119 0)
(0.772484 0.293632 0)
(0.753574 0.286444 0)
(0.735567 0.279599 0)
(0.7184 0.273074 0)
(0.702016 0.266846 0)
(0.686363 0.260896 0)
(0.671392 0.255206 0)
(0.657061 0.249758 0)
(0.643328 0.244538 0)
(0.630158 0.239532 0)
(0.617516 0.234726 0)
(0.605371 0.23011 0)
(0.593694 0.225672 0)
(0.58246 0.221401 0)
(0.571642 0.217289 0)
(0.561219 0.213327 0)
(0.551169 0.209507 0)
(0.541473 0.205822 0)
(0.532112 0.202263 0)
(0.52307 0.198826 0)
(0.514328 0.195503 0)
(0.505876 0.192291 0)
(0.497694 0.18918 0)
(0.489777 0.186171 0)
(0.482102 0.183254 0)
(0.474671 0.180429 0)
(0.467456 0.177687 0)
(0.460469 0.175031 0)
(0.453674 0.172448 0)
(0.447093 0.169946 0)
(0.440681 0.167509 0)
(0.434471 0.165149 0)
(0.428412 0.162845 0)
(0.422542 0.160614 0)
(0.416809 0.158435 0)
(0.411248 0.156321 0)
(0.405819 0.154258 0)
(0.400541 0.152251 0)
(0.395395 0.150295 0)
(0.390376 0.148387 0)
(0.385495 0.146532 0)
(0.380713 0.144714 0)
(0.376078 0.142952 0)
(0.371518 0.141219 0)
(0.367109 0.139543 0)
(0.362758 0.137889 0)
(1.39787 0.563007 0)
(1.33673 0.538382 0)
(1.28071 0.515819 0)
(1.2292 0.49507 0)
(1.18166 0.475926 0)
(1.13767 0.458206 0)
(1.09683 0.441757 0)
(1.05882 0.426449 0)
(1.02336 0.412165 0)
(0.990189 0.398807 0)
(0.959104 0.386287 0)
(0.929911 0.374529 0)
(0.902442 0.363466 0)
(0.876549 0.353037 0)
(0.8521 0.34319 0)
(0.828977 0.333877 0)
(0.807076 0.325056 0)
(0.786302 0.316689 0)
(0.76657 0.308742 0)
(0.747805 0.301184 0)
(0.729935 0.293987 0)
(0.7129 0.287126 0)
(0.696642 0.280578 0)
(0.681108 0.274322 0)
(0.666252 0.268338 0)
(0.65203 0.26261 0)
(0.638403 0.257122 0)
(0.625333 0.251858 0)
(0.612788 0.246805 0)
(0.600736 0.241951 0)
(0.589149 0.237284 0)
(0.578 0.232794 0)
(0.567266 0.228471 0)
(0.556923 0.224305 0)
(0.54695 0.220288 0)
(0.537328 0.216413 0)
(0.528038 0.212672 0)
(0.519065 0.209058 0)
(0.51039 0.205564 0)
(0.502003 0.202186 0)
(0.493884 0.198916 0)
(0.486027 0.195751 0)
(0.478411 0.192684 0)
(0.471037 0.189714 0)
(0.463877 0.18683 0)
(0.456944 0.184038 0)
(0.450201 0.181322 0)
(0.44367 0.178692 0)
(0.437307 0.176129 0)
(0.431145 0.173647 0)
(0.425132 0.171225 0)
(0.419307 0.168879 0)
(0.413618 0.166588 0)
(0.4081 0.164365 0)
(0.402712 0.162196 0)
(0.397475 0.160086 0)
(0.392368 0.158029 0)
(0.387387 0.156023 0)
(0.382543 0.154072 0)
(0.377799 0.152161 0)
(0.373199 0.150309 0)
(0.368674 0.148486 0)
(0.364298 0.146724 0)
(0.359981 0.144985 0)
(1.38655 0.590344 0)
(1.32591 0.564523 0)
(1.27034 0.540864 0)
(1.21924 0.519109 0)
(1.17209 0.499034 0)
(1.12845 0.480454 0)
(1.08794 0.463207 0)
(1.05024 0.447155 0)
(1.01507 0.432178 0)
(0.982168 0.418171 0)
(0.951335 0.405043 0)
(0.922379 0.392715 0)
(0.895132 0.381114 0)
(0.869449 0.370179 0)
(0.845197 0.359854 0)
(0.822262 0.350089 0)
(0.800538 0.34084 0)
(0.779933 0.332066 0)
(0.760361 0.323733 0)
(0.741747 0.315808 0)
(0.724023 0.308262 0)
(0.707125 0.301068 0)
(0.690999 0.294202 0)
(0.675591 0.287642 0)
(0.660855 0.281368 0)
(0.646749 0.275362 0)
(0.633232 0.269606 0)
(0.620268 0.264087 0)
(0.607824 0.258789 0)
(0.59587 0.253699 0)
(0.584377 0.248806 0)
(0.573318 0.244098 0)
(0.562671 0.239564 0)
(0.552411 0.235196 0)
(0.542519 0.230984 0)
(0.532975 0.226921 0)
(0.523761 0.222998 0)
(0.514861 0.219209 0)
(0.506256 0.215545 0)
(0.497937 0.212003 0)