/*--------------------------------*- C++ -*----------------------------------*\
| =========                 |                                                 |
| \\      /  F ield         | foam-extend: Open Source CFD                    |
|  \\    /   O peration     | Version:  3.0                                   |
|   \\  /    A nd           | Web:         http://www.extend-project.de       |
|    \\/     M anipulation  |                                                 |
\*---------------------------------------------------------------------------*/
FoamFile
{
    version     2.0;
    format      ascii;
    class       volScalarField;
    location    "83";
    object      p;
}
// * * * * * * * * * * * * * * * * * * * * * * * * * * * * * * * * * * * * * //

dimensions      [0 0 0 0 0 0 0];

internalField   nonuniform List<scalar> 
2688
(
-0.2333498895
-0.2140809225
-0.2025468476
-0.1893895766
-0.1821354202
-0.1728177825
-0.1683111528
-0.1615752338
-0.158899759
-0.1539738772
-0.1525271324
-0.1488931763
-0.1482415806
-0.1455189282
-0.1453192128
-0.1432003713
-0.1431522218
-0.1413630632
-0.1411771345
-0.1394489569
-0.1388222552
-0.1368689565
-0.1354632297
-0.1329600301
-0.2326206895
-0.2134120128
-0.2019141447
-0.1887980127
-0.1815667055
-0.1722782624
-0.167785861
-0.161071119
-0.1584040922
-0.153493768
-0.1520515804
-0.1484291691
-0.1477795995
-0.1450656553
-0.1448665163
-0.14275449
-0.1427064218
-0.1409230209
-0.1407376296
-0.1390149969
-0.1383903297
-0.1364432664
-0.1350421594
-0.1325469647
-0.2311554987
-0.2120680296
-0.2006427961
-0.1876094866
-0.1804239392
-0.1711941778
-0.1667303096
-0.1600580149
-0.157408059
-0.1525288012
-0.1510960094
-0.1474965355
-0.1468514053
-0.1441546549
-0.143957144
-0.141858488
-0.1418110936
-0.1400389453
-0.1398550475
-0.1381432646
-0.1375227858
-0.1355880695
-0.1341959158
-0.1317167752
-0.2289672333
-0.2100605746
-0.1987435873
-0.1858338105
-0.1787163871
-0.1695741828
-0.1651526742
-0.1585437538
-0.1559189645
-0.1510861304
-0.1496669557
-0.1461018078
-0.1454628063
-0.142791842
-0.1425961923
-0.1405176516
-0.1404706827
-0.1387155327
-0.1385333727
-0.1368379677
-0.1362234206
-0.1343071455
-0.1329283522
-0.1304728442
-0.2260541385
-0.2073882706
-0.1962154797
-0.1834701542
-0.1764435012
-0.1674177779
-0.1630527642
-0.1565280672
-0.1539369458
-0.1491657136
-0.1477649047
-0.1442452026
-0.1436146725
-0.1409777433
-0.1407849423
-0.1387328599
-0.1386868439
-0.1369540007
-0.1367744749
-0.1351005985
-0.1344940911
-0.1326021804
-0.1312410292
-0.1288168353
-0.2224344088
-0.2040675228
-0.1930737418
-0.1805326566
-0.1736186457
-0.1647376519
-0.1604426679
-0.1540226935
-0.1514731887
-0.1467786368
-0.1454003681
-0.141937333
-0.1413169848
-0.1387226005
-0.1385329445
-0.1365140394
-0.1364687959
-0.1347639982
-0.1345873769
-0.1329405533
-0.1323437996
-0.1304823611
-0.1291430993
-0.1267578863
-0.2181100373
-0.200100486
-0.1893206614
-0.1770235915
-0.1702442193
-0.1615360437
-0.1573248038
-0.1510297691
-0.1485301062
-0.1439269182
-0.1425757571
-0.1391801093
-0.138572163
-0.1360282407
-0.1358426268
-0.1338629609
-0.1338189441
-0.1321472578
-0.1319743864
-0.1303595454
-0.12977465
-0.1279493736
-0.1266363296
-0.1242974022
-0.2131043461
-0.1955082012
-0.184975895
-0.1729612115
-0.1663375803
-0.1578294896
-0.1537150698
-0.1475647918
-0.1451226728
-0.1406254606
-0.1393054809
-0.1359881323
-0.1353942959
-0.1329091456
-0.1327279218
-0.130794079
-0.130751161
-0.1291182143
-0.1289493413
-0.1273718998
-0.126800383
-0.1250172569
-0.1237342401
-0.1214490871
-0.2074230943
-0.1902963306
-0.1800450463
-0.1683508751
-0.1619040543
-0.1536229451
-0.1496184627
-0.1436322704
-0.141255539
-0.1368783077
-0.1355938373
-0.1323649786
-0.1317873231
-0.129368439
-0.1291924086
-0.1273100995
-0.1272686763
-0.125679217
-0.1255151671
-0.1239797222
-0.123423741
-0.121688081
-0.1204395655
-0.1182151393
-0.2010943623
-0.1844902392
-0.1745518675
-0.1632146806
-0.1569647389
-0.1489365534
-0.1450544608
-0.1392512369
-0.1369472482
-0.1327039523
-0.131458908
-0.1283289912
-0.1277691937
-0.125424561
-0.1252541137
-0.1234296768
-0.1233896765
-0.1218491129
-0.1216901243
-0.1202018538
-0.1196627301
-0.1179802437
-0.1167695361
-0.1146130832
-0.1941276993
-0.1780990981
-0.1685052751
-0.1575610656
-0.1515278796
-0.1437779845
-0.1400306374
-0.1344285841
-0.1322047048
-0.1281085043
-0.1269069251
-0.1238854986
-0.1233454631
-0.1210820775
-0.1209179227
-0.1191566643
-0.1191184268
-0.1176311416
-0.1174779922
-0.1160410936
-0.1155209076
-0.1138963781
-0.1127277651
-0.110645355
-0.1865554778
-0.1711521845
-0.1619327336
-0.1514156172
-0.145617969
-0.1381706528
-0.1345697193
-0.1291865398
-0.1270496775
-0.1231136803
-0.121959265
-0.1190561717
-0.1185375096
-0.1163629142
-0.116205466
-0.1145133918
-0.1144769039
-0.1130480314
-0.1129009913
-0.1115203806
-0.1110203812
-0.1094592623
-0.1083357827
-0.1063347121
-0.1783910441
-0.1636621725
-0.1548464603
-0.1447898424
-0.1392461662
-0.1321249493
-0.128681872
-0.1235344207
-0.1214913787
-0.1177277485
-0.116624205
-0.113848251
-0.1133526833
-0.1112733165
-0.111123187
-0.109505175
-0.1094707147
-0.1081042865
-0.1079640628
-0.1066435991
-0.1061657388
-0.1046723596
-0.1035980589
-0.1016833595
-0.1696705156
-0.1556617611
-0.1472771716
-0.1377123843
-0.1324399371
-0.1256671445
-0.1223926534
-0.1174972204
-0.1155543609
-0.1119751774
-0.1109259243
-0.1082861993
-0.1078152315
-0.1058380813
-0.1056956801
-0.1041573269
-0.1041249132
-0.1028257666
-0.1026926379
-0.1014370308
-0.1009824796
-0.09956216469
-0.09853983961
-0.09671891497
-0.1604110223
-0.1471671023
-0.1392403605
-0.130197799
-0.1252133431
-0.1188103572
-0.1157148435
-0.1110867332
-0.109250219
-0.1058665106
-0.104874887
-0.1023793629
-0.1019345199
-0.1000654119
-0.09993125091
-0.09847698352
-0.09844683033
-0.09721865872
-0.09709326113
-0.09590608274
-0.09547670196
-0.09413340361
-0.09316698533
-0.09144386127
-0.1506518031
-0.1382137603
-0.1307694698
-0.1222772907
-0.117596338
-0.1115832348
-0.1086763481
-0.1043302214
-0.1026057773
-0.09942842608
-0.09849751195
-0.09615438589
-0.09573702793
-0.09398227404
-0.09385672732
-0.09249162238
-0.0924637474
-0.09131099024
-0.09119356223
-0.09007924125
-0.08967604396
-0.08841493523
-0.08750686654
-0.08588908188
-0.1404137361
-0.1288213168
-0.1218832217
-0.1139684258
-0.109605859
-0.104001618
-0.1012925752
-0.09724200217
-0.09563508333
-0.09267385465
-0.09180658957
-0.0896229113
-0.08923435778
-0.08759910883
-0.0874825887
-0.08621057232
-0.08618512666
-0.08511108397
-0.08500218902
-0.08396392553
-0.08358868423
-0.08241320855
-0.08156731603
-0.08005773151
-0.1297385055
-0.119027595
-0.1126172116
-0.1053044291
-0.101273817
-0.09609600882
-0.09359325025
-0.08985106908
-0.08836668094
-0.08563110622
-0.08483017911
-0.08281312368
-0.08245455608
-0.0809443225
-0.0808371428
-0.07966262535
-0.07963959927
-0.07864811866
-0.07854790958
-0.07758960122
-0.07724306959
-0.07615800232
-0.07537618842
-0.07398248524
-0.1186506605
-0.1088555218
-0.1029933128
-0.09630580703
-0.09261996994
-0.08788493587
-0.08559639709
-0.08217428
-0.08081711309
-0.07831558104
-0.07758350961
-0.07573912352
-0.07541165545
-0.07403084869
-0.07393333372
-0.0728596728
-0.07283916884
-0.07193305507
-0.07184202918
-0.07096632877
-0.07065016997
-0.06965819556
-0.06894409449
-0.06766781228
-0.1071936174
-0.09834454083
-0.09304866878
-0.08700723753
-0.08367762823
-0.07940021084
-0.0773330113
-0.07424180623
-0.07301607514
-0.07075663675
-0.07009567465
-0.06843000349
-0.06813461047
-0.06688783688
-0.06680022146
-0.06583103726
-0.06581299715
-0.0649953266
-0.06491350515
-0.06412351637
-0.0638381095
-0.06294327692
-0.06229803737
-0.06114669576
-0.09539547686
-0.08752079754
-0.08280818321
-0.07743205664
-0.07446927626
-0.07066297531
-0.06882367851
-0.06607301937
-0.06498260552
-0.06297217538
-0.06238440618
-0.06090242496
-0.06064002598
-0.05953090606
-0.05945345475
-0.05859148722
-0.05857600503
-0.05784902104
-0.05777688137
-0.05707460902
-0.05682154091
-0.05602567706
-0.05545270318
-0.05442679911
-0.08330065988
-0.07642470456
-0.07230993212
-0.06761581885
-0.06502905881
-0.06170580256
-0.06010011318
-0.0576987198
-0.05674698745
-0.05499203398
-0.05447923945
-0.05318579069
-0.05295713311
-0.05198931888
-0.05192217172
-0.05117021755
-0.05115716745
-0.0505231457
-0.05046053661
-0.04984823023
-0.04962741674
-0.04893364396
-0.04843318169
-0.04753921058
-0.07094063535
-0.06508544332
-0.06158167665
-0.05758452785
-0.0553820405
-0.05255231918
-0.05118535512
-0.04914070744
-0.04833069471
-0.04683657983
-0.046400405
-0.04529934013
-0.04510516767
-0.0442814564
-0.04422485669
-0.04358502466
-0.04357454504
-0.04303518136
-0.04298262407
-0.0424617113
-0.04227473004
-0.04168423463
-0.04125950622
-0.04049779977
-0.05836011143
-0.05354375159
-0.05066181715
-0.04737404743
-0.04556264692
-0.04323532648
-0.0421113032
-0.04042988545
-0.03976405932
-0.03853559451
-0.03817732073
-0.03727223901
-0.03711305377
-0.03643614747
-0.036390131
-0.03586446273
-0.03585635898
-0.03541327909
-0.03537046933
-0.03494254749
-0.03478892871
-0.03430394429
-0.0339544324
-0.03332939424
-0.04559367562
-0.04183160274
-0.03958073871
-0.03701282824
-0.03559831674
-0.0337807464
-0.03290327868
-0.03159032645
-0.03107085568
-0.03011178918
-0.02983262132
-0.02912621083
-0.0290025987
-0.02847444898
-0.02843926474
-0.02802923792
-0.02802370749
-0.02767811117
-0.02764557187
-0.02731166234
-0.02719280998
-0.02681425579
-0.02654272407
-0.0260552125
-0.03268563046
-0.02998943885
-0.02837658227
-0.0265365003
-0.02552323013
-0.02422110509
-0.02359286525
-0.02265254928
-0.02228097047
-0.02159440543
-0.02139510521
-0.0208897008
-0.02080191011
-0.02042429224
-0.02039987834
-0.02010687247
-0.02010369966
-0.01985674456
-0.01983419024
-0.0195954768
-0.01951100929
-0.01924040668
-0.01904644851
-0.0186987278
-0.01967335618
-0.01805171384
-0.01708205762
-0.01597567803
-0.01536692781
-0.01458436256
-0.01420741932
-0.01364266583
-0.01342025697
-0.01300828238
-0.01288960939
-0.01258670294
-0.0125351673
-0.01230916085
-0.01229577349
-0.01212061439
-0.01212000919
-0.01197240667
-0.01196015334
-0.01181734388
-0.01176790837
-0.01160603481
-0.01149087057
-0.01128366881
-0.00660010629
-0.006057992928
-0.005734501256
-0.005365251546
-0.005162859423
-0.004902309789
-0.004777760427
-0.004590377279
-0.004517726543
-0.004381703106
-0.004343891399
-0.004244533679
-0.004229249002
-0.004155699409
-0.004153197778
-0.004096616219
-0.004098410775
-0.00405086242
-0.00404885885
-0.004002693716
-0.003988557534
-0.003936237928
-0.003900653218
-0.003835013501
0.006494353003
0.005955169776
0.005631418285
0.005262347995
0.005057671318
0.004795380356
0.004667042355
0.004476478305
0.004399002833
0.004258675603
0.004215324058
0.004110863462
0.004089624147
0.004010540092
0.0040019004
0.003939780898
0.003935382469
0.0038827442
0.003874459315
0.003823738931
0.003802918595
0.003745315397
0.00370219099
0.003626247425
0.01956840285
0.01794961772
0.01697966589
0.01587343006
0.01526238012
0.01447806033
0.01409732229
0.01352938684
0.01330214796
0.01288586982
0.01276164612
0.01245362211
0.01239610945
0.01216451284
0.01214494763
0.01196411709
0.01195725279
0.01180431784
0.01178566549
0.01163798434
0.01158163506
0.01141433379
0.01129129241
0.01107468215
0.03258037353
0.02988714199
0.02827404271
0.02643415315
0.02541860228
0.02411473333
0.02348269196
0.0225391712
0.02216272747
0.02147180113
0.02126688098
0.02075625898
0.02066238296
0.02027901535
0.02024828391
0.01994935026
0.01993978692
0.01968707702
0.01965810087
0.01941385593
0.01932274234
0.01904591893
0.01884480295
0.01848720113
0.0454907996
0.04173147087
0.03948025849
0.03691243546
0.03549559939
0.03367624785
0.03279496268
0.03147880715
0.03095446016
0.02999104397
0.02970623148
0.02899458442
0.02886483294
0.02833082152
0.02828922088
0.02787297836
0.02786088962
0.02750901465
0.02746974534
0.02712965104
0.02700352454
0.0266185409
0.02633884384
0.02584365663
0.05825665682
0.05344324233
0.05056106652
0.04727348217
0.04545980097
0.04313072584
0.04200288283
0.04031822742
0.039647474
0.0384145656
0.03805053802
0.03714006096
0.03697456227
0.03629155589
0.036238899
0.03570666087
0.03569179615
0.03524189099
0.03519235355
0.03475741999
0.0345970834
0.03410468496
0.03374845068
0.03311498445
0.07084108671
0.06498848928
0.06148431071
0.05748717845
0.0552823423
0.05245081102
0.05108000821
0.04903213838
0.04821719286
0.04671868291
0.04627673637
0.0451703104
0.04496977294
0.04413991723
0.04407657407
0.04342997693
0.04341255955
0.04286600246
0.04280640404
0.04227812822
0.04208381944
0.04148628859
0.04105393126
0.04028725947
0.08320031161
0.07632724185
0.07221222024
0.06751827157
0.06492924148
0.06160422625
0.0599947196
0.05759007615
0.0566333756
0.05487392908
0.05435526258
0.05305629178
0.05282109877
0.05184692537
0.05177281324
0.05101383274
0.05099365335
0.05035211799
0.05028251516
0.0496624263
0.04943498737
0.04873364897
0.048227324
0.04732719622
0.09530046965
0.08742820289
0.08271511131
0.07733892444
0.07437378767
0.07056566186
0.06872253408
0.06596866626
0.06487329907
0.06285848588
0.06226485843
0.06077749425
0.06050855075
0.05939319833
0.05930873604
0.05843983035
0.05841712551
0.05768272264
0.05760342281
0.05689370633
0.05663370204
0.05583148572
0.05525226389
0.05422433778
0.1070976627
0.09825136765
0.09295523822
0.08691394497
0.08358210459
0.07930294703
0.0772319842
0.07413756729
0.07290689931
0.07064300448
0.06997614681
0.06830497047
0.06800294145
0.06674979979
0.06665504995
0.06567883172
0.06565349219
0.06482840111
0.06473958634
0.06394225216
0.06365072099
0.06274957461
0.06209993355
0.06094517233
0.1185613623
0.1087684256
0.1029056821
0.09621804221
0.09252987532
0.08779303062
0.08550072726
0.08207547229
0.08071341531
0.07820760893
0.0774697065
0.0756200764
0.07528603483
0.07389918061
0.07379458134
0.07271427492
0.07268650322
0.07177350108
0.07167547914
0.07079331458
0.07047094583
0.06947428546
0.06875563792
0.06747962386
0.1296481969
0.1189399211
0.1125292803
0.105216611
0.1011838515
0.09600435873
0.09349796991
0.08975268695
0.08826350883
0.08552362918
0.08471694169
0.0826945733
0.0823294786
0.08081313505
0.08069891554
0.07951776185
0.07948757564
0.07848935599
0.07838247526
0.0774179984
0.07706610828
0.07597656923
0.07519185722
0.07379703746
0.1403312554
0.1287408025
0.1218021327
0.1138871392
0.1095223182
0.1039163207
0.1012036619
0.0971500929
0.09553846722
0.09257318193
0.09170027845
0.08951165296
0.08911671476
0.08747582311
0.0873524158
0.08607433585
0.08604188039
0.08496181773
0.08484636437
0.08380290226
0.08342229616
0.08224375583
0.08139477404
0.07988673669
0.1505683369
0.138132742
0.1306882086
0.1221961257
0.1175131652
0.111498478
0.1085881908
0.1042391531
0.1025102075
0.09932882144
0.09839247534
0.09604438578
0.09562085869
0.09386044183
0.09372824833
0.09235709706
0.09232251458
0.09116382157
0.09104027902
0.08992087731
0.08951305753
0.08824882096
0.08733879239
0.08572115015
0.1603363932
0.1470941829
0.139166849
0.1301240417
0.1251374647
0.1187328215
0.1156339355
0.1110030445
0.1091621437
0.1057746984
0.1047778147
0.1022777644
0.1018269619
0.09995274008
0.09981216561
0.09835248428
0.09831585539
0.09708243243
0.09695108684
0.09575954605
0.09532551196
0.09397988863
0.09301113409
0.09128970481
0.1695950092
0.1555884791
0.1472036791
0.1376389816
0.1323647261
0.1255904974
0.122312937
0.1174148635
0.1154679372
0.1118850974
0.1108309359
0.1081867228
0.1077101864
0.1057279334
0.1055795518
0.1040357759
0.1039973639
0.1026929161
0.1025543623
0.1012942274
0.1008355989
0.09941251422
0.09838841255
0.09656779045
0.178325211
0.1635977744
0.1547814775
0.1447245832
0.1391789781
0.1320562475
0.1286101361
0.123460188
0.1214132138
0.1176462544
0.1165380054
0.1137580417
0.113257155
0.1111732759
0.111017442
0.1093946527
0.1093544589
0.1079833437
0.1078378636
0.1065133484
0.1060313265
0.1045354675
0.1034588692
0.1015450682
0.1864889468
0.1710876219
0.1618680097
0.1513509886
0.1455517868
0.1381032267
0.134499648
0.1291141701
0.1269738074
0.1230346264
0.1218759976
0.1189689975
0.1184455714
0.1162665278
0.1161039825
0.1144071474
0.1143655557
0.1129319259
0.1127802251
0.1113953256
0.1108916439
0.1093275137
0.108201948
0.1062005738
0.1940715003
0.1780440455
0.1684496682
0.1575051688
0.1514702984
0.1437190732
0.1399691131
0.1343649054
0.1321376625
0.128038614
0.12683303
0.1238081916
0.1232636483
0.1209964291
0.1208274549
0.1190621107
0.1190190233
0.1175276231
0.1173699547
0.115929242
0.1154052672
0.1137778815
0.112606675
0.1105238412
0.2010376997
0.1844352611
0.1744967903
0.1631597133
0.1569085168
0.1488793159
0.1449950755
0.1391899537
0.1368831329
0.1326372028
0.1313887687
0.1282556188
0.1276920109
0.1253436912
0.1251691812
0.1233407707
0.1232966846
0.1217520647
0.1215892421
0.1200971128
0.1195546962
0.1178690886
0.1166559343
0.1144982521
0.2073772475
0.1902513313
0.1799995419
0.168305081
0.1618568616
0.1535746371
0.1495680251
0.1435800649
0.1412006217
0.1368210786
0.1355334066
0.1323018003
0.1317205641
0.1292986104
0.1291187615
0.1272331865
0.1271878925
0.1255951071
0.1254273362
0.123888659
0.1233293017
0.1215907857
0.1203394404
0.1181131597
0.213058305
0.1954635385
0.1849312013
0.1729166473
0.1662920881
0.1577832348
0.1536672112
0.1475154748
0.1450712546
0.1405720102
0.139249541
0.1359297001
0.1353330919
0.1328451078
0.1326609407
0.1307240551
0.1306781432
0.1290420861
0.1288702673
0.1272897806
0.1267154313
0.1249294879
0.1236437952
0.1213563334
0.2180751283
0.2000661203
0.1892858515
0.1769885019
0.1702080427
0.161498987
0.1572861385
0.1509897491
0.1484880721
0.1438831391
0.1425296324
0.1391319366
0.1385213937
0.1359752149
0.1357868415
0.1338048165
0.133757971
0.1320839173
0.1319082083
0.130291002
0.1297032792
0.1278754949
0.1265595994
0.1242175655
0.2223995881
0.2040337598
0.1930400128
0.1804990771
0.1735844746
0.1647029814
0.1604069539
0.1539859773
0.1514351206
0.1467391589
0.1453593194
0.1418945568
0.1412724923
0.1386761576
0.1384846929
0.1364637251
0.1364166006
0.1347097289
0.1345310873
0.13288217
0.1322830863
0.130419255
0.1290771118
0.126688317
0.2260306086
0.2073649835
0.1961918102
0.183446223
0.1764188035
0.1673924448
0.1630263545
0.1565007242
0.1539082935
0.1491358863
0.1477335891
0.1442125328
0.1435803843
0.1409419926
0.140747481
0.1386939137
0.1386461083
0.1369118158
0.136730356
0.1350549426
0.1344461969
0.1325521358
0.1311881812
0.1287598725
0.2289440671
0.2100381392
0.1987212369
0.1858116307
0.1786939418
0.1695514989
0.1651294939
0.1585200208
0.1558946049
0.1510609698
0.1496411053
0.1460749701
0.1454352555
0.1427631808
0.1425667961
0.1404870981
0.140439309
0.1386830024
0.1384997348
0.1368030292
0.1361867224
0.1342683852
0.1328867257
0.1304267133
0.2311436384
0.2120561283
0.2006305617
0.1875970213
0.1804110176
0.1711808671
0.1667164417
0.1600436282
0.1573930409
0.1525131585
0.1510796921
0.1474795187
0.1468336858
0.1441361933
0.143937941
0.1418385445
0.1417903084
0.1400174242
0.1398324013
0.1381196612
0.1374974423
0.1355608092
0.1341658806
0.1316820175
0.2326094297
0.2134011574
0.2019034139
0.1887874808
0.1815562077
0.1722677789
0.1677753916
0.1610605232
0.1583935392
0.1534829842
0.1520409089
0.1484181903
0.1477688073
0.1450544994
0.1448555782
0.1427431508
0.1426951973
0.1409113177
0.1407256401
0.1390022046
0.1383764003
0.1364274928
0.1350238104
0.1325238936
0.233349913
0.2140805549
0.2025462761
0.189388685
0.1821344595
0.1728165853
0.1683099553
0.1615738579
0.1588984232
0.1539724022
0.1525257525
0.1488916788
0.1482402195
0.1455174481
0.1453178592
0.1431988687
0.143150701
0.1413612692
0.1411749006
0.139446055
0.1388180992
0.1368630109
0.1354546252
0.1329467377
0.2333495724
0.2140805133
0.2025465134
0.1893891897
0.1821352561
0.1728176364
0.1683113369
0.1615754923
0.158900439
0.1539746747
0.1525284619
0.1488946466
0.1482436733
0.145521152
0.1453220811
0.1432033118
0.1431556663
0.1413663898
0.1411805145
0.1394517081
0.1388241922
0.1368690056
0.135460958
0.1329529134
0.2326216804
0.2134127986
0.2019148529
0.1887986721
0.1815674401
0.1722790107
0.1677868299
0.1610721406
0.1584054704
0.1534952254
0.1520535322
0.1484312032
0.1477822336
0.1450683338
0.14486982
0.142757744
0.1427101454
0.1409264707
0.1407410263
0.1390175842
0.1383918106
0.1364427479
0.1350388257
0.1325389883
0.2311551802
0.2120676569
0.2006424402
0.1876091816
0.1804237936
0.171194144
0.1667305736
0.1600584356
0.1574089093
0.1525298407
0.1510976126
0.147498338
0.1468538723
0.1441572874
0.1439604598
0.1418618728
0.141815014
0.1400426929
0.1398588517
0.1381462801
0.1375248948
0.1355880271
0.1341934082
0.1317092066
0.2289680938
0.210061252
0.1987442265
0.1858343956
0.1787170814
0.1695748954
0.1651536343
0.158544779
0.1559203746
0.1510876313
0.1496689755
0.1461039103
0.1454655249
0.1427945813
0.1425995589
0.1405209071
0.1404743984
0.1387188676
0.1385366411
0.136840275
0.1362246224
0.1343062253
0.1329246858
0.1304647722
0.226053846
0.2073878981
0.1962151365
0.1834698393
0.1764433419
0.1674177195
0.1630529845
0.1565284409
0.153937723
0.1491666813
0.1477663964
0.1442468929
0.1436169722
0.1409801996
0.1407880143
0.1387359738
0.1386904199
0.1369573479
0.1367778158
0.1351030979
0.1344957071
0.1326017424
0.1312382992
0.1288096383
0.2224350952
0.204068059
0.1930742662
0.1805331305
0.1736192271
0.1647382465
0.1604434869
0.1540235674
0.1514744065
0.1467799305
0.1454021183
0.1419391446
0.1413193306
0.1387249396
0.1385358196
0.1365167693
0.1364719075
0.1347666886
0.1345899834
0.1329421987
0.1323445044
0.1304811539
0.1291395929
0.1267507554
0.2181097216
0.200100088
0.1893202805
0.1770232216
0.1702439656
0.161535866
0.1573248375
0.1510299289
0.148530574
0.1439275489
0.1425767854
0.1391813101
0.138573822
0.136030035
0.13584488
0.1338652417
0.1338215556
0.1321496395
0.1319767053
0.1303611004
0.1297754453
0.1279484787
0.1266335517
0.1242912418
0.2131048403
0.1955085862
0.1849762748
0.1729615441
0.1663379895
0.1578298948
0.1537156341
0.1475653834
0.1451235087
0.1406263405
0.139306684
0.1359893688
0.13539591
0.1329107411
0.1327299025
0.1307959308
0.1307533025
0.1291199883
0.1289510831
0.1273728189
0.1268007017
0.1250160653
0.1237314958
0.1214438159
0.207422713
0.1902958785
0.1800445856
0.1683504069
0.1619036395
0.1536225705
0.1496181958
0.1436320843
0.1412555133
0.1368783967
0.1355941329
0.1323654053
0.1317879879
0.1293692209
0.129193437
0.1273111819
0.1272699485
0.1256803556
0.1255162604
0.1239802831
0.1234238262
0.1216870314
0.1204372597
0.1182107907
0.2010946621
0.1844904735
0.1745520907
0.1632148558
0.1569649405
0.1489367258
0.1450546981
0.1392514635
0.1369475796
0.1327042872
0.1314593837
0.1283294738
0.1277698457
0.1254252071
0.1252549535
0.1234304741
0.1233906663
0.1218499338
0.121691024
0.1202022968
0.1196630294
0.1179796866
0.1167683102
0.1146104852
0.1941272218
0.1780985689
0.1685047075
0.1575604714
0.1515272645
0.1437773679
0.1400300048
0.1344279765
0.1322040795
0.128107932
0.1269063286
0.1238849827
0.123344919
0.1210816427
0.1209174783
0.1191563608
0.1191181543
0.1176309914
0.1174778667
0.116040964
0.1155207646
0.1138960655
0.1127271782
0.1106444356
0.1865555975
0.1711522808
0.1619328063
0.1514156386
0.1456179578
0.1381705841
0.1345696082
0.1291863755
0.1270494591
0.1231134201
0.1219589366
0.1190558221
0.1185370859
0.1163625113
0.1162050221
0.1145130501
0.1144766159
0.1130479308
0.1129010708
0.111520691
0.1110210899
0.1094602448
0.1083372666
0.106336311
0.1783904528
0.1636615535
0.1548457759
0.1447891152
0.1392453448
0.1321240858
0.1286808672
0.1235333821
0.1214901392
0.1177264922
0.1166226818
0.1138467446
0.1133508594
0.1112715827
0.1111211479
0.1095033771
0.1094687322
0.108102771
0.1079625923
0.1066428895
0.1061655102
0.1046733302
0.1035999819
0.1016869949
0.169670486
0.1556617449
0.1472771188
0.137712277
0.1324397406
0.1256668648
0.1223922281
0.1174967007
0.115553632
0.1119743573
0.1109248261
0.1082850369
0.1078137389
0.1058366059
0.1056938936
0.1041557446
0.1041231786
0.1028245442
0.1026916081
0.1014369521
0.1009832942
0.09956454192
0.09854401436
0.0967249684
0.1604103135
0.147166393
0.1392395678
0.1301969543
0.1252123446
0.1188092844
0.1157135231
0.1110853263
0.1092484508
0.1058646538
0.1048725436
0.1023769511
0.1019315154
0.1000624199
0.09992764809
0.0984736038
0.09844299761
0.09721544243
0.09708999962
0.09590409114
0.09547552689
0.09413457391
0.09317019502
0.09145087071
0.1506516697
0.1382136699
0.1307693341
0.1222770999
0.1175960151
0.1115828105
0.1086756973
0.1043294431
0.1026046638
0.09942717211
0.09849580245
0.09615254571
0.09573462792
0.09397981137
0.09385368821
0.09248871299
0.09246043851
0.09130818155
0.09119083958
0.09007765662
0.08967561409
0.08841673185
0.08751140926
0.08589704954
0.1404129195
0.1288205284
0.1218823463
0.1139674995
0.1096047448
0.1040004128
0.1012910537
0.09724035937
0.09563297004
0.09267159262
0.09180368425
0.0896198397
0.08923048554
0.08759509564
0.08747771383
0.08620569471
0.08617953858
0.08510582369
0.08499670294
0.08395947053
0.08358508756
0.08241215376
0.0815688055
0.08006465132
0.1297383245
0.1190274775
0.1126170485
0.1053042146
0.1012734503
0.09609553561
0.093592507
0.08985018305
0.08836538746
0.08562963825
0.0848281477
0.08281089061
0.08245161358
0.08094117621
0.08083323054
0.07965857998
0.07963494709
0.07864352791
0.07854323471
0.07758547342
0.07724005785
0.07615680783
0.07537800447
0.07398856428
0.1186497549
0.1088546738
0.1029923918
0.09630484894
0.09261882264
0.08788370308
0.08559483114
0.08217258877
0.08081491686
0.07831321205
0.07758044097
0.07573581968
0.07540746655
0.07402635682
0.07392786279
0.0728538641
0.07283250094
0.07192611087
0.07183468235
0.07095912828
0.07064360884
0.06965337927
0.06894161392
0.06767146799
0.1071934495
0.0983444469
0.093048539
0.08700706579
0.08367731142
0.07939979974
0.07733233367
0.0742409992
0.07301485986
0.07075525239
0.07009371928
0.06842782141
0.06813169939
0.06688461985
0.06679619982
0.06582661907
0.06580790685
0.0649897525
0.06490773876
0.06411738896
0.06383289978
0.06293884436
0.06229629937
0.06114920967
0.09539450574
0.08751991286
0.08280725751
0.07743112065
0.07446818465
0.07066182948
0.0688222394
0.06607149255
0.06498062502
0.06297006068
0.06238165733
0.06089946231
0.06063625492
0.05952679439
0.05944843929
0.05858595853
0.05856966228
0.05784197276
0.05776937944
0.05706647514
0.05681376488
0.05601864092
0.05544737155
0.05442715741
0.08330056276
0.07642468175
0.07230989228
0.06761575176
0.06502888019
0.06170556035
0.06009965538
0.05769818097
0.05674611503
0.05499105728
0.05447779583
0.05318419358
0.05295494109
0.05198688119
0.05191908306
0.05116673451
0.05115315488
0.05051851293
0.05045577812
0.04984272996
0.04962270656
0.04892904217
0.04843079686
0.04754045886
0.07093962073
0.06508454288
0.0615807816
0.05758366049
0.05538108101
0.05255136056
0.05118419375
0.04913953845
0.04832920258
0.0468350658
0.04639843907
0.04529731033
0.04510256701
0.04427870345
0.04422147774
0.04358134923
0.04357032431
0.04303046464
0.04297761087
0.04245616391
0.04226942366
0.04167936757
0.04125575321
0.04049827031
0.0583601328
0.05354383814
0.0506619107
0.04737413144
0.04556267221
0.0432353332
0.04211118224
0.04042976225
0.03976373871
0.03853529243
0.03817675044
0.03727169732
0.03711218603
0.03643529869
0.03638895814
0.03586327445
0.03585497535
0.03541179138
0.03536909646
0.03494102047
0.03478820002
0.0343036162
0.03395590979
0.03333350602
0.0455926336
0.04183070053
0.03957989623
0.03701205785
0.03559753627
0.0337800372
0.03290249044
0.03158964013
0.03107003055
0.03011111008
0.02983175442
0.02912553552
0.02900170714
0.02847379315
0.02843841551
0.0280286759
0.02802305608
0.02767779589
0.02764533682
0.02731187999
0.02719344475
0.02681585122
0.02654520269
0.02605995806
0.03268580284
0.02998965879
0.02837683242
0.02653675748
0.02552348837
0.02422139453
0.02359313175
0.02265290561
0.0222812962
0.02159490139
0.02139558144
0.02089044632
0.02080267228
0.0204254519
0.02040113755
0.02010870655
0.02010577427
0.01985959458
0.01983745565
0.01959970696
0.01951599063
0.01924655811
0.01905374596
0.01870709392
0.01967229419
0.01805081391
0.01708127116
0.0159750076
0.01536633222
0.01458391008
0.01420701911
0.01364248162
0.01342013239
0.01300848276
0.01288990961
0.01258747408
0.01253611423
0.01231077744
0.01229768685
0.01212347398
0.01212332165
0.0119769846
0.01196531799
0.01182402452
0.01177537245
0.01161497148
0.01150068093
0.0112937649
0.006600444351
0.006058353794
0.005734907809
0.005365675328
0.005163336278
0.004902859593
0.00477838346
0.004591170863
0.004518645975
0.004382927841
0.004345332379
0.004246457991
0.004231518818
0.004158696051
0.004156704967
0.004101187871
0.004103648455
0.004057550413
0.004056233647
0.004011783193
0.003998211869
0.003947303105
0.003911799303
0.003845249559
-0.006495436466
-0.005956073712
-0.005632164562
-0.005262942145
-0.00505811957
-0.004795627596
-0.004667126376
-0.004476256228
-0.004398553165
-0.004257762762
-0.004214068228
-0.004108928106
-0.004087181621
-0.004007121914
-0.003997770774
-0.003934283153
-0.003928977103
-0.003874569401
-0.00386530828
-0.00381267998
-0.003790947392
-0.003732153462
-0.00368865745
-0.003614650623
-0.01956790183
-0.01794912421
-0.01697912512
-0.01587287287
-0.01526173942
-0.01447732478
-0.0140964503
-0.01352829769
-0.01330082699
-0.01288416599
-0.01275956518
-0.01245094161
-0.01239285956
-0.01216037714
-0.01214002223
-0.01195793734
-0.01195011789
-0.01179556598
-0.01177604775
-0.01162665303
-0.01156991286
-0.0114016689
-0.01127942377
-0.01106504394
-0.03258148681
-0.02988806421
-0.02827478
-0.02643471623
-0.02541897621
-0.0241148747
-0.02348260299
-0.02253873215
-0.02216196116
-0.02147051141
-0.02126510791
-0.02075372832
-0.02065916039
-0.02027472851
-0.02024306621
-0.01994269635
-0.01993201188
-0.01967756406
-0.01964750411
-0.01940163458
-0.01930980077
-0.01903256467
-0.01883183645
-0.01847784262
-0.04549015233
-0.04173086525
-0.03947962174
-0.03691179678
-0.03549487756
-0.0336754364
-0.03279400108
-0.03147762923
-0.03095302238
-0.02998922413
-0.02970399183
-0.02899175458
-0.02886137875
-0.02832651899
-0.02828407057
-0.02786667884
-0.02785359517
-0.02750034323
-0.02746023226
-0.02711887856
-0.02699253866
-0.0266072663
-0.02632881225
-0.0258362096
-0.05825781097
-0.05344420055
-0.05056183369