/*--------------------------------*- C++ -*----------------------------------*\
| =========                 |                                                 |
| \\      /  F ield         | OpenFOAM: The Open Source CFD Toolbox           |
|  \\    /   O peration     | Version:  2.2.0                                 |
|   \\  /    A nd           | Web:      www.OpenFOAM.org                      |
|    \\/     M anipulation  |                                                 |
\*---------------------------------------------------------------------------*/
FoamFile
{
    version     2.0;
    format      ascii;
    class       volVectorField;
    location    "6";
    object      s;
}
// * * * * * * * * * * * * * * * * * * * * * * * * * * * * * * * * * * * * * //

dimensions      [0 1 -1 0 0 0 0];

internalField   nonuniform List<vector> 
7920
(
(0.50774 0.445215 0.106732)
(0.48044 0.421049 0.1679)
(0.449981 0.394033 0.232485)
(0.416885 0.364631 0.299361)
(0.381008 0.332831 0.366942)
(0.341892 0.298468 0.432985)
(0.301067 0.263922 0.494436)
(0.249322 0.22206 0.5456)
(0.54273 0.362605 0.14847)
(0.513292 0.342664 0.208195)
(0.480664 0.320489 0.271223)
(0.44517 0.29627 0.336515)
(0.406701 0.2701 0.402658)
(0.365138 0.242172 0.467816)
(0.320822 0.213947 0.529757)
(0.270611 0.183278 0.585668)
(0.557991 0.275175 0.21555)
(0.527687 0.260087 0.271518)
(0.494353 0.243408 0.330515)
(0.457992 0.225157 0.391636)
(0.418658 0.205512 0.453679)
(0.376375 0.184806 0.515198)
(0.331238 0.164004 0.57457)
(0.282191 0.143597 0.630252)
(0.553839 0.188013 0.315287)
(0.524639 0.178017 0.362701)
(0.492442 0.166904 0.412768)
(0.457205 0.154697 0.464795)
(0.418974 0.141522 0.517914)
(0.377876 0.127684 0.571109)
(0.334013 0.113834 0.623306)
(0.287688 0.101113 0.673672)
(0.53743 0.106913 0.43534)
(0.510906 0.101604 0.469216)
(0.481381 0.0956283 0.505542)
(0.448757 0.0890007 0.54402)
(0.413021 0.0817882 0.584218)
(0.374312 0.0741891 0.625621)
(0.332784 0.0665908 0.667665)
(0.28945 0.0598818 0.70999)
(0.522376 0.0342529 0.525772)
(0.498366 0.0326655 0.547803)
(0.471234 0.0308446 0.572379)
(0.440939 0.0287926 0.599535)
(0.407367 0.0265308 0.629202)
(0.370647 0.0241284 0.661226)
(0.330959 0.0217181 0.695364)
(0.289634 0.0196252 0.731493)
(0.522339 -0.0343142 0.525771)
(0.498227 -0.0327908 0.547807)
(0.471148 -0.0310718 0.572386)
(0.440857 -0.0290935 0.599545)
(0.407311 -0.026899 0.629216)
(0.370617 -0.0245411 0.661243)
(0.330956 -0.0221507 0.695383)
(0.289652 -0.0200486 0.731514)
(0.537787 -0.107049 0.435594)
(0.511623 -0.101883 0.46945)
(0.481913 -0.0959486 0.50577)
(0.44937 -0.0893907 0.544229)
(0.413582 -0.0822063 0.584407)
(0.374838 -0.0746192 0.625785)
(0.333246 -0.0670076 0.667803)
(0.289832 -0.0602656 0.710101)
(0.55427 -0.188113 0.315338)
(0.525193 -0.178136 0.362766)
(0.492957 -0.166973 0.412841)
(0.457738 -0.154768 0.464879)
(0.419483 -0.141595 0.518005)
(0.378353 -0.127775 0.571205)
(0.334443 -0.113947 0.623404)
(0.288063 -0.101252 0.673767)
(0.558185 -0.275241 0.215653)
(0.528003 -0.26018 0.271631)
(0.49465 -0.243454 0.330641)
(0.458341 -0.225202 0.391769)
(0.419019 -0.205547 0.453817)
(0.37675 -0.184845 0.515335)
(0.331605 -0.164048 0.574703)
(0.282547 -0.143659 0.630375)
(0.542823 -0.362612 0.148517)
(0.51343 -0.342644 0.208254)
(0.48084 -0.320423 0.271296)
(0.44538 -0.296183 0.336599)
(0.406943 -0.270002 0.402751)
(0.365406 -0.242081 0.467916)
(0.321102 -0.213871 0.529861)
(0.270915 -0.183244 0.58577)
(0.507713 -0.445191 0.106755)
(0.480363 -0.420962 0.167933)
(0.449954 -0.393971 0.23253)
(0.416875 -0.364554 0.299419)
(0.381041 -0.332759 0.367011)
(0.341971 -0.298403 0.433063)
(0.301195 -0.26387 0.494521)
(0.2495 -0.222028 0.545688)
(0.226572 0.198666 0.0277129)
(0.228678 0.200408 0.0505801)
(0.230113 0.20159 0.0769456)
(0.230356 0.201763 0.107009)
(0.228972 0.200652 0.14068)
(0.225193 0.197767 0.177411)
(0.218415 0.193267 0.215622)
(0.205474 0.185072 0.252418)
(0.255076 0.170534 0.0403577)
(0.256514 0.171734 0.0640187)
(0.257083 0.172453 0.0912045)
(0.256233 0.172401 0.122134)
(0.253462 0.171389 0.156815)
(0.248088 0.169237 0.194939)
(0.239118 0.166024 0.235635)
(0.225596 0.161914 0.277493)
(0.282235 0.139296 0.0631638)
(0.282447 0.139762 0.0872329)
(0.281684 0.139868 0.114784)
(0.279297 0.139422 0.146062)
(0.27482 0.138316 0.181176)
(0.267644 0.136524 0.220048)
(0.256842 0.134138 0.262321)
(0.242019 0.131933 0.307403)
(0.30961 0.105245 0.0998187)
(0.308195 0.105115 0.122586)
(0.305268 0.104618 0.148656)
(0.300835 0.103804 0.178324)
(0.294198 0.102559 0.211822)
(0.284981 0.100954 0.249296)
(0.272408 0.0991105 0.290793)
(0.256628 0.0978285 0.336336)
(0.335113 0.0668 0.146644)
(0.330926 0.066223 0.165799)
(0.325692 0.0655589 0.188073)
(0.318695 0.0646461 0.213871)
(0.309731 0.0635416 0.243592)
(0.298379 0.062276 0.277625)
(0.284094 0.060967 0.316364)
(0.267282 0.0601535 0.360302)
(0.351675 0.0230682 0.183076)
(0.345626 0.0227397 0.198481)
(0.338535 0.0223748 0.21694)
(0.329744 0.0219533 0.238972)
(0.319101 0.0214843 0.265117)
(0.306264 0.0209884 0.295942)
(0.290793 0.020506 0.332054)
(0.273217 0.0202223 0.374206)
(0.351815 -0.0231028 0.183113)
(0.34579 -0.0228016 0.198509)
(0.338673 -0.0224691 0.216963)
(0.329871 -0.0220714 0.238987)
(0.319205 -0.0216246 0.265125)
(0.306346 -0.0211476 0.295943)
(0.290852 -0.0206836 0.33205)
(0.273257 -0.0204194 0.374199)
(0.335278 -0.0667953 0.146485)
(0.331159 -0.0662264 0.16565)
(0.325888 -0.0655333 0.187927)
(0.318906 -0.0646352 0.213737)
(0.309924 -0.0635499 0.243471)
(0.298557 -0.0623217 0.277522)
(0.284248 -0.0610586 0.316282)
(0.267411 -0.0602938 0.360242)
(0.309789 -0.10532 0.0997109)
(0.308123 -0.105134 0.122477)
(0.305304 -0.1047 0.148544)
(0.300795 -0.103889 0.178216)
(0.294176 -0.102676 0.211721)
(0.284964 -0.101098 0.249207)
(0.272414 -0.0992872 0.290721)
(0.256656 -0.0980319 0.336282)
(0.282519 -0.139501 0.0631202)
(0.282776 -0.140041 0.0871861)
(0.281955 -0.140196 0.114733)
(0.279554 -0.139786 0.146009)
(0.275053 -0.138702 0.181124)
(0.267857 -0.136914 0.220001)
(0.257039 -0.134517 0.262283)
(0.242189 -0.132279 0.307377)
(0.255401 -0.170765 0.0403676)
(0.256882 -0.172009 0.0640281)
(0.257416 -0.172732 0.0912145)
(0.256563 -0.1727 0.122144)
(0.253768 -0.171695 0.156824)
(0.248369 -0.169547 0.194949)
(0.239373 -0.166331 0.235648)
(0.225813 -0.162208 0.277508)
(0.22686 -0.198904 0.0277527)
(0.229062 -0.200723 0.0506247)
(0.230462 -0.201862 0.0769987)
(0.230726 -0.202053 0.107065)
(0.229328 -0.200934 0.140736)
(0.225533 -0.198045 0.177465)
(0.218727 -0.193533 0.215674)
(0.205759 -0.18532 0.252466)
(0.121555 0.106581 0.00424316)
(0.123243 0.107952 0.0141553)
(0.125093 0.109473 0.0257242)
(0.126678 0.110752 0.0391326)
(0.127918 0.111787 0.0544932)
(0.128416 0.112347 0.0717565)
(0.1276 0.112322 0.0904732)
(0.124396 0.111326 0.109439)
(0.137321 0.0918116 0.00576497)
(0.138794 0.0929437 0.0163176)
(0.140378 0.0942131 0.0286218)
(0.141564 0.0953333 0.0428953)
(0.142258 0.0963299 0.0593238)
(0.14207 0.0971254 0.0780137)
(0.140313 0.0976685 0.0989092)
(0.13679 0.0985326 0.121697)
(0.152805 0.0754577 0.0094636)
(0.153855 0.0762349 0.0207395)
(0.154934 0.0771193 0.0338691)
(0.155511 0.0779074 0.0491034)
(0.155497 0.0786449 0.0666965)
(0.154518 0.0793173 0.0868855)
(0.151981 0.0799424 0.109878)
(0.147783 0.081127 0.135831)
(0.16888 0.0574167 0.0159765)
(0.169173 0.0577535 0.0276501)
(0.169407 0.0581605 0.0412323)
(0.169079 0.058519 0.0570173)
(0.168115 0.058877 0.0753088)
(0.166202 0.0592581 0.0964453)
(0.162869 0.0597229 0.120811)
(0.15817 0.0607466 0.148863)
(0.184165 0.0366807 0.0248435)
(0.183383 0.0366676 0.0363215)
(0.182469 0.0366914 0.0497423)
(0.18097 0.0366997 0.0654203)
(0.178843 0.0367289 0.083716)
(0.175834 0.0368086 0.105047)
(0.171584 0.0369944 0.129927)
(0.166211 0.0375746 0.159015)
(0.194265 0.0127369 0.0318293)
(0.192598 0.0126605 0.0428654)
(0.190755 0.0125918 0.0558595)
(0.188344 0.0125249 0.0711539)
(0.185335 0.0124712 0.089145)
(0.181519 0.0124458 0.110301)
(0.176602 0.012471 0.135208)
(0.170725 0.0126442 0.164631)
(0.194345 -0.0127792 0.0318264)
(0.192706 -0.0127481 0.0428624)
(0.190843 -0.0127342 0.0558563)
(0.188436 -0.0127121 0.0711506)
(0.185417 -0.0126997 0.0891417)
(0.181593 -0.0127079 0.110298)
(0.176666 -0.0127599 0.135204)
(0.170778 -0.0129517 0.164627)
(0.184316 -0.0367141 0.0248226)
(0.183643 -0.0367441 0.0363008)
(0.182679 -0.0367787 0.0497207)
(0.181206 -0.0368226 0.0653987)
(0.179066 -0.0368829 0.0836948)
(0.176046 -0.0369992 0.105027)
(0.171777 -0.0372206 0.129908)
(0.166378 -0.0378318 0.158998)
(0.169013 -0.0574567 0.0160083)
(0.169292 -0.0578017 0.0276736)
(0.169546 -0.0582255 0.0412523)
(0.169217 -0.0586059 0.0570298)
(0.168266 -0.0589953 0.0753146)
(0.166358 -0.059412 0.0964439)
(0.163032 -0.0599159 0.120803)
(0.158331 -0.0609738 0.14885)
(0.153001 -0.0755799 0.00942342)
(0.154067 -0.0763926 0.0206969)
(0.15513 -0.0773041 0.0338226)
(0.155712 -0.0781196 0.0490556)
(0.155698 -0.0788802 0.0666489)
(0.154724 -0.0795708 0.0868398)
(0.152192 -0.0802096 0.109835)
(0.147989 -0.0813966 0.135792)
(0.137606 -0.0920215 0.00575092)
(0.139132 -0.0932048 0.0162998)
(0.140682 -0.0944758 0.0285994)
(0.141875 -0.0956141 0.0428691)
(0.142558 -0.0966153 0.0592941)
(0.14236 -0.0974116 0.0779813)
(0.140592 -0.0979505 0.0988752)
(0.137049 -0.0988039 0.121663)
(0.121836 -0.10681 0.00422715)
(0.123609 -0.108238 0.0141349)
(0.125434 -0.109718 0.0256982)
(0.127043 -0.111006 0.0391024)
(0.128274 -0.112028 0.0544596)
(0.128763 -0.11258 0.0717208)
(0.127927 -0.112543 0.0904369)
(0.124704 -0.111533 0.109403)
(0.0649833 0.0569883 -0.00599589)
(0.0659577 0.0578096 -0.00174015)
(0.0670772 0.0587622 0.00328042)
(0.0681324 0.059659 0.00917483)
(0.0690989 0.0605136 0.0160404)
(0.0698037 0.0612397 0.0239198)
(0.0699202 0.0617552 0.0327129)
(0.0690285 0.0620415 0.0419688)
(0.0733896 0.0490861 -0.00992919)
(0.0742802 0.0498107 -0.00532526)
(0.0752803 0.0506496 0.000135504)
(0.0761549 0.0514816 0.00659769)
(0.0768635 0.0523265 0.0142161)
(0.0772331 0.0531696 0.023137)
(0.0769029 0.05398 0.0334774)
(0.0758365 0.0551597 0.0452617)
(0.0816591 0.040348 -0.0160288)
(0.0823893 0.0409121 -0.0108108)
(0.0831537 0.0415531 -0.00460212)
(0.0837574 0.0422143 0.00277644)
(0.0841358 0.0429093 0.0115293)
(0.0841332 0.043652 0.0218799)
(0.083448 0.0444525 0.0340766)
(0.0820572 0.0456618 0.0483797)
(0.09013 0.030701 -0.0252537)
(0.0905335 0.0310514 -0.0190349)
(0.0908968 0.0314599 -0.0116801)
(0.0910883 0.0318807 -0.00299172)
(0.0910317 0.0323393 0.00725787)
(0.090605 0.0328561 0.019328)
(0.0895749 0.0334677 0.0335274)
(0.0879681 0.0344265 0.0502288)
(0.0979951 0.0195801 -0.0367575)
(0.0977452 0.0196876 -0.0291282)
(0.0976582 0.0198804 -0.0202539)
(0.0972681 0.0200523 -0.00994366)
(0.0966994 0.0202645 0.00202248)
(0.0957814 0.0205189 0.0159021)
(0.0943626 0.0208537 0.0320161)
(0.0924801 0.021415 0.050783)
(0.103085 0.00677511 -0.0456423)
(0.102395 0.00677835 -0.0368089)
(0.101896 0.00680776 -0.0266863)
(0.101087 0.00683908 -0.015102)
(0.100116 0.00688772 -0.00185416)
(0.0988343 0.00695777 0.0133005)
(0.0971179 0.00706134 0.0306779)
(0.0950155 0.00724542 0.0507124)
(0.103154 -0.00679016 -0.0456472)
(0.102488 -0.00680138 -0.0368144)
(0.101968 -0.00684126 -0.0266926)
(0.101154 -0.00687812 -0.0151092)
(0.100169 -0.00693243 -0.00186238)
(0.0988739 -0.00700765 0.0132912)
(0.0971441 -0.00711886 0.0306677)
(0.0950301 -0.00731481 0.0507015)
(0.0979858 -0.0195574 -0.0367927)
(0.0977698 -0.0196602 -0.0291639)
(0.0976691 -0.0198343 -0.0202913)
(0.097294 -0.0200084 -0.00998223)
(0.0967204 -0.0202269 0.00198292)
(0.0958022 -0.0204991 0.0158622)
(0.094379 -0.0208594 0.0319766)
(0.0924926 -0.0214521 0.0507448)
(0.0900752 -0.0306762 -0.0252776)
(0.0903919 -0.0310021 -0.0190651)
(0.0907996 -0.0314253 -0.0117149)
(0.0909736 -0.0318498 -0.00303216)
(0.0909326 -0.0323255 0.00721268)
(0.0905179 -0.0328638 0.0192788)
(0.0895083 -0.0335037 0.0334755)
(0.0879228 -0.0344912 0.050176)
(0.0816558 -0.0403797 -0.0160863)
(0.0823419 -0.040956 -0.0108739)
(0.0831077 -0.0416405 -0.00467318)
(0.0836968 -0.0423232 0.0027003)
(0.0840778 -0.0430421 0.0114495)
(0.084081 -0.0438002 0.021799)
(0.0834123 -0.0446132 0.0339971)
(0.0820334 -0.045822 0.0483044)
(0.0735061 -0.0491933 -0.00996422)
(0.0744118 -0.0499604 -0.00536837)
(0.0753795 -0.0508185 8.26741e-05)
(0.0762446 -0.0516737 0.00653693)
(0.0769357 -0.0525317 0.0141485)
(0.0772912 -0.0533807 0.0230648)
(0.0769533 -0.0541921 0.0334034)
(0.0758707 -0.0553569 0.0451892)
(0.0651415 -0.0571278 -0.00602261)
(0.0661588 -0.0579948 -0.00177521)
(0.0672513 -0.0589338 0.003235)
(0.0683085 -0.059846 0.00912119)
(0.0692581 -0.0607021 0.0159795)
(0.069945 -0.0614301 0.0238536)
(0.0700415 -0.0619439 0.0326441)
(0.0691241 -0.0622191 0.0419003)
(0.031825 0.027963 -0.0109691)
(0.0321925 0.0283471 -0.00946663)
(0.0327526 0.0289173 -0.00764238)
(0.0332379 0.0294144 -0.00542873)
(0.0337247 0.029929 -0.00275331)
(0.0341 0.0303896 0.00044987)
(0.0342284 0.03077 0.00421266)
(0.0338758 0.0310732 0.00845351)
(0.0358418 0.0239986 -0.0176331)
(0.0361743 0.0243347 -0.0159581)
(0.0367034 0.0248311 -0.0138757)
(0.0371129 0.0252897 -0.0112842)
(0.0374885 0.0257911 -0.00806339)
(0.0377122 0.0263034 -0.00407556)
(0.0376345 0.0268271 0.000832885)
(0.0372206 0.0275439 0.00680663)
(0.0397823 0.0196768 -0.0286634)
(0.0400296 0.0199346 -0.0264673)
(0.040474 0.0203242 -0.0237213)
(0.0407683 0.0206914 -0.0202909)
(0.0410098 0.0211084 -0.0160179)
(0.0410799 0.0215609 -0.0107175)
(0.0408561 0.0220682 -0.00417438)
(0.0403195 0.0227924 0.00385299)
(0.043848 0.0149287 -0.0458886)
(0.0439458 0.015074 -0.0424228)
(0.0442242 0.0153115 -0.0382267)
(0.0443401 0.015543 -0.0331552)
(0.0443931 0.0158206 -0.0270449)
(0.0442782 0.0161441 -0.01971)
(0.0439029 0.0165383 -0.0109369)
(0.0432765 0.0171225 -0.00047491)
(0.0476737 0.00950616 -0.0676587)
(0.0475522 0.00954914 -0.0620098)
(0.0475849 0.00964276 -0.0554843)
(0.0474578 0.00974029 -0.0479675)
(0.0472659 0.00987135 -0.0393329)
(0.0469221 0.0100413 -0.0294403)
(0.046358 0.0102693 -0.0181227)
(0.0455931 0.0106262 -0.00516737)
(0.050188 0.00328723 -0.0845715)
(0.0498884 0.00328153 -0.0769049)
(0.0497133 0.00328846 -0.0683072)
(0.0493936 0.00330404 -0.0587038)
(0.0490089 0.00333447 -0.0480152)
(0.0484896 0.00338438 -0.0361488)
(0.0477798 0.00346013 -0.0229819)
(0.0469023 0.00358444 -0.00833372)
(0.0502533 -0.00331458 -0.0845754)
(0.0499923 -0.00332913 -0.0769089)
(0.0497945 -0.00335826 -0.0683113)
(0.0494788 -0.00338434 -0.0587081)
(0.0490826 -0.00341824 -0.0480195)
(0.0485524 -0.00346288 -0.0361533)
(0.0478287 -0.00352699 -0.0229865)
(0.0469362 -0.00363586 -0.00833854)
(0.0477852 -0.00952161 -0.0676738)
(0.0477384 -0.00956895 -0.0620245)
(0.047729 -0.0096469 -0.0554996)
(0.0476099 -0.00974134 -0.0479829)
(0.0473955 -0.0098666 -0.0393485)
(0.047031 -0.0100346 -0.0294559)
(0.0464405 -0.0102625 -0.0181382)
(0.0456495 -0.010622 -0.0051827)
(0.0437414 -0.0148564 -0.0458991)
(0.0438883 -0.0149902 -0.042435)
(0.0441693 -0.0151917 -0.0382406)
(0.0443158 -0.0154173 -0.0331709)
(0.0443823 -0.0156934 -0.0270622)
(0.0442793 -0.0160289 -0.0197289)
(0.043909 -0.0164439 -0.010957)
(0.0432863 -0.0170557 -0.000495872)
(0.0396793 -0.0196238 -0.0286761)
(0.0398349 -0.0198396 -0.0264823)
(0.0403199 -0.0202453 -0.0237389)
(0.0406005 -0.0206048 -0.0203109)
(0.0408601 -0.0210291 -0.01604)
(0.0409487 -0.0214909 -0.0107414)
(0.0407521 -0.0220145 -0.00419952)
(0.0402463 -0.0227572 0.00382717)
(0.0358038 -0.0240007 -0.0176433)
(0.0361229 -0.024351 -0.0159713)
(0.0366399 -0.0248698 -0.013892)
(0.0370389 -0.0253376 -0.0113033)
(0.0374117 -0.025847 -0.00808508)
(0.0376366 -0.0263601 -0.00409939)
(0.037568 -0.0268829 0.000807449)
(0.0371621 -0.02759 0.00678018)
(0.0318342 -0.0279778 -0.0109671)
(0.0322107 -0.0283795 -0.00946695)
(0.0327591 -0.0289539 -0.00764437)
(0.0332419 -0.0294615 -0.00543391)
(0.0337188 -0.0299805 -0.00276206)
(0.0340856 -0.0304449 0.000437079)
(0.0342078 -0.0308277 0.00419582)
(0.0338453 -0.0311278 0.00843354)
(0.014868 0.0131006 -0.0135065)
(0.0149843 0.0132986 -0.0134146)
(0.0152236 0.0136211 -0.0132275)
(0.0154116 0.0138993 -0.0129046)
(0.0156057 0.0141953 -0.012388)
(0.0157459 0.0144683 -0.0116059)
(0.0157804 0.0147095 -0.0104682)
(0.0155707 0.0149072 -0.00886709)
(0.0166502 0.0111703 -0.0215789)
(0.0167551 0.0113468 -0.0214087)
(0.0169917 0.0116307 -0.0210627)
(0.017153 0.011895 -0.0204663)
(0.0173016 0.0121894 -0.0195206)
(0.0173739 0.012492 -0.0180998)
(0.0173123 0.0128061 -0.0160436)
(0.0170722 0.0131884 -0.0131583)
(0.0184603 0.00914683 -0.035149)
(0.0185439 0.00929897 -0.0345114)
(0.0187309 0.00952407 -0.033553)
(0.0188389 0.00974715 -0.0321682)
(0.0189163 0.00999897 -0.0302266)
(0.0189092 0.010272 -0.0275722)
(0.0187697 0.0105748 -0.0240202)
(0.0184702 0.0109639 -0.0193573)
(0.0202257 0.00693075 -0.0565002)
(0.0202532 0.00705469 -0.0544606)
(0.0203483 0.007231 -0.0519043)
(0.020376 0.00739854 -0.0487192)
(0.0203651 0.00758448 -0.0447798)
(0.0202763 0.00778474 -0.039948)
(0.020072 0.00801292 -0.0340729)
(0.0197404 0.008314 -0.0269881)
(0.0217547 0.00438991 -0.0835766)
(0.0215567 0.00444304 -0.0789589)
(0.021615 0.00457171 -0.0736636)
(0.0215084 0.00466749 -0.0676172)
(0.0214184 0.00478212 -0.0607485)
(0.0212492 0.0049003 -0.0529873)
(0.0209943 0.00503773 -0.0442604)
(0.0206441 0.00522176 -0.0344835)
(0.0227614 0.00150712 -0.104619)
(0.0224321 0.00151757 -0.0975697)
(0.022425 0.0015559 -0.0897834)
(0.0222281 0.00158861 -0.081239)
(0.0220609 0.00163044 -0.0719271)
(0.0218252 0.0016772 -0.0618424)
(0.0215194 0.00173198 -0.0509762)
(0.0211433 0.00180256 -0.0393012)
(0.0227793 -0.00150739 -0.104637)
(0.0224775 -0.00150827 -0.0975869)
(0.0224549 -0.00153426 -0.0898003)
(0.022256 -0.00154985 -0.0812555)
(0.0220788 -0.00157283 -0.071943)
(0.0218325 -0.00159972 -0.0618576)
(0.0215158 -0.001637 -0.0509908)
(0.021131 -0.0016953 -0.0393151)
(0.0216704 -0.00434397 -0.0835779)
(0.0214769 -0.00436956 -0.0789646)
(0.0215332 -0.00446307 -0.0736721)
(0.0214312 -0.00453815 -0.0676301)
(0.0213372 -0.00463696 -0.0607659)
(0.0211681 -0.00474965 -0.0530095)
(0.0209129 -0.00488978 -0.0442873)
(0.0205672 -0.00508354 -0.0345141)
(0.0200068 -0.00684636 -0.0565496)
(0.0199458 -0.00693179 -0.054511)
(0.0200887 -0.00711188 -0.0519587)
(0.0201022 -0.0072682 -0.048776)
(0.0201115 -0.00745575 -0.0448391)
(0.020041 -0.00766033 -0.040009)
(0.0198659 -0.00789916 -0.0341345)
(0.0195673 -0.00821125 -0.027049)
(0.0182539 -0.00907153 -0.0351908)
(0.0182901 -0.00922257 -0.0345598)
(0.0184829 -0.00948228 -0.0336088)
(0.018581 -0.00971773 -0.0322304)
(0.018667 -0.00998509 -0.0302944)
(0.0186742 -0.0102655 -0.0276443)
(0.0185627 -0.0105733 -0.0240948)
(0.0182892 -0.0109533 -0.019432)
(0.0165527 -0.0111477 -0.0216192)
(0.0166595 -0.0113653 -0.0214581)
(0.0168606 -0.0116771 -0.0211229)
(0.0170147 -0.0119674 -0.0205353)
(0.0171502 -0.0122738 -0.0195972)
(0.0172184 -0.012578 -0.0181815)
(0.0171645 -0.0128855 -0.0161276)
(0.0169222 -0.0132412 -0.0132412)
(0.0148784 -0.0131108 -0.0135394)
(0.0150792 -0.0133963 -0.0134572)
(0.0152694 -0.0136856 -0.013282)
(0.0154691 -0.013989 -0.0129684)
(0.0156399 -0.0142791 -0.0124601)
(0.0157596 -0.0145474 -0.0116838)
(0.0157682 -0.0147743 -0.0105493)
(0.0155351 -0.0149458 -0.00894831)
(0.00630115 0.00561332 -0.0147207)
(0.00626194 0.00571669 -0.0152983)
(0.00632422 0.00593326 -0.0158888)
(0.00633442 0.00610099 -0.0164612)
(0.00635841 0.00628851 -0.0169661)
(0.00635206 0.00645716 -0.0173286)
(0.00631658 0.00661526 -0.0174329)
(0.00613819 0.00672938 -0.0170823)
(0.00690918 0.00467961 -0.0234583)
(0.00682796 0.00474477 -0.0240023)
(0.00692286 0.00494944 -0.024481)
(0.00692351 0.00510487 -0.0248305)
(0.0069437 0.00529348 -0.0249631)
(0.00692246 0.00547865 -0.0247588)
(0.0068595 0.00567552 -0.0240559)
(0.00669269 0.005866 -0.0226394)
(0.00755784 0.00377485 -0.038245)
(0.00745717 0.00382465 -0.0383466)
(0.00755437 0.00399045 -0.0382376)
(0.00753819 0.00411884 -0.0378225)
(0.00754251 0.00428121 -0.0369859)
(0.00750072 0.00445086 -0.0355862)
(0.00741338 0.004643 -0.0334549)
(0.00724418 0.00485853 -0.0303952)
(0.00818126 0.00281327 -0.061537)
(0.00804207 0.00284218 -0.0601755)
(0.00812707 0.0029607 -0.058398)
(0.00808557 0.00305219 -0.0561089)
(0.00806692 0.00317145 -0.0532009)
(0.00800232 0.00330145 -0.0495598)
(0.00789395 0.00345481 -0.0450664)
(0.00772282 0.0036417 -0.0395976)
(0.00879697 0.00176888 -0.0910844)
(0.00861605 0.00177853 -0.0869614)
(0.00866492 0.00184305 -0.0822536)
(0.00858384 0.00189539 -0.0769113)
(0.00852603 0.00196829 -0.0708882)
(0.00842502 0.00205347 -0.0641488)
(0.00828524 0.00215912 -0.0566661)
(0.0080993 0.00229453 -0.0484191)
(0.00921796 0.00061252 -0.114077)
(0.00900641 0.000621566 -0.107327)
(0.00901677 0.000646972 -0.0999314)
(0.00890297 0.000672514 -0.091897)
(0.0088116 0.000706923 -0.0832471)
(0.00868042 0.000749245 -0.0740195)
(0.00851395 0.000801807 -0.0642611)
(0.00831062 0.000867474 -0.05402)
(0.0092241 -0.000629126 -0.114094)
(0.00902443 -0.000626488 -0.107344)
(0.00902527 -0.000646606 -0.0999482)
(0.0089151 -0.000642705 -0.0919134)
(0.00881568 -0.000635632 -0.083263)
(0.00867733 -0.000620969 -0.0740345)
(0.0085013 -0.00060611 -0.064275)
(0.00828964 -0.00060104 -0.0540325)
(0.00880453 -0.00174128 -0.0911364)
(0.00879271 -0.00174024 -0.0870121)
(0.0087607 -0.0017333 -0.0823043)
(0.00871373 -0.00174131 -0.0769603)
(0.00862354 -0.00175543 -0.0709353)
(0.0084954 -0.0017872 -0.0641929)
(0.00831308 -0.00184122 -0.0567064)
(0.00808861 -0.00193525 -0.0484547)
(0.00789434 -0.0026336 -0.0615878)
(0.00772425 -0.0025668 -0.0602277)
(0.00786504 -0.00259884 -0.0584536)
(0.00782657 -0.00262033 -0.0561658)
(0.00782765 -0.00269106 -0.0532585)
(0.00777074 -0.00279391 -0.0496164)
(0.00766756 -0.00294137 -0.0451202)
(0.00751407 -0.00314587 -0.0396467)
(0.00701176 -0.0034827 -0.038271)
(0.00678572 -0.00343359 -0.0383774)
(0.00696122 -0.00359533 -0.0382736)
(0.00694201 -0.00368197 -0.0378632)
(0.0069886 -0.00382808 -0.0370308)
(0.00698975 -0.00398802 -0.0356338)
(0.00695606 -0.0041865 -0.0335031)
(0.00685611 -0.00442409 -0.0304423)
(0.00642338 -0.00435984 -0.0235134)
(0.00624717 -0.00436459 -0.0240627)
(0.00637542 -0.00459444 -0.0245492)
(0.00635382 -0.00473345 -0.024901)
(0.00638745 -0.0049261 -0.0250333)
(0.0063829 -0.00511283 -0.0248255)
(0.00635524 -0.00532147 -0.0241163)
(0.00623474 -0.0055211 -0.0226942)
(0.00592413 -0.00532389 -0.0146947)
(0.00575785 -0.00536369 -0.0152749)
(0.00583097 -0.00564757 -0.0158631)
(0.0057994 -0.00582025 -0.0164397)
(0.00581716 -0.00603459 -0.01695)
(0.00581151 -0.00622118 -0.0173207)
(0.00580259 -0.00640273 -0.0174338)
(0.00563833 -0.00653349 -0.0170934)
(0.00239916 0.00218288 -0.0152613)
(0.00230513 0.00223061 -0.0161358)
(0.00229923 0.0023788 -0.0170721)
(0.00224464 0.00248466 -0.0180425)
(0.00220294 0.0026102 -0.0190025)
(0.0021424 0.00272424 -0.0198766)
(0.00208031 0.00283749 -0.0205384)
(0.00192989 0.00291343 -0.0207515)
(0.00251175 0.00173666 -0.0242685)
(0.00240083 0.0017729 -0.0251255)
(0.00242338 0.00191727 -0.0259662)
(0.0023713 0.00202211 -0.0267342)
(0.00233716 0.00215243 -0.0273467)
(0.00227669 0.00227662 -0.0276875)
(0.00220589 0.00240748 -0.0275959)
(0.00206797 0.00250295 -0.0268481)
(0.00271381 0.00137499 -0.0395638)
(0.00256726 0.00139725 -0.0399891)
(0.00260173 0.00151343 -0.0402512)
(0.00253464 0.00160134 -0.0402647)
(0.00249169 0.00171563 -0.0399203)
(0.00241992 0.00183371 -0.0390845)
(0.00233507 0.00196492 -0.037598)
(0.00220215 0.00208825 -0.0352732)
(0.00270947 0.000958034 -0.0636922)
(0.00264563 0.0010161 -0.0626264)
(0.00264728 0.00110895 -0.0611907)
(0.00261751 0.00120164 -0.0592983)
(0.00257267 0.00130126 -0.0568511)
(0.00250606 0.0014042 -0.0537471)
(0.00241649 0.00151171 -0.0498833)
(0.00228517 0.001617 -0.0451583)
(0.00286574 0.000628151 -0.0943239)
(0.00268501 0.000667459 -0.0904163)
(0.00270901 0.000770981 -0.0859669)
(0.00261876 0.000840268 -0.0809358)
(0.00256075 0.000918432 -0.0752904)
(0.00247494 0.000986963 -0.0690118)
(0.00238123 0.00105336 -0.0620963)
(0.00226335 0.00111586 -0.0545544)
(0.00281781 0.000214962 -0.118128)
(0.00252362 0.000240581 -0.111512)
(0.00259008 0.000299282 -0.104291)
(0.00247764 0.000342747 -0.0964868)
(0.00242904 0.000389941 -0.0881378)
(0.00235318 0.000431494 -0.0793023)
(0.00227578 0.000468265 -0.0700544)
(0.00218701 0.000497749 -0.0604792)
(0.00276766 -0.00017907 -0.118131)
(0.00249391 -0.000153448 -0.111514)
(0.0025514 -0.000149023 -0.104291)
(0.00243451 -0.000133077 -0.0964852)
(0.00237807 -0.000123111 -0.0881338)
(0.00229345 -0.00011624 -0.0792957)
(0.00220864 -0.000118646 -0.0700451)
(0.00211775 -0.000133845 -0.0604675)
(0.00256194 -0.000512662 -0.094331)
(0.00229547 -0.000474815 -0.0904186)
(0.00236836 -0.000512009 -0.0859651)
(0.00226705 -0.00052432 -0.0809277)
(0.00222599 -0.000560137 -0.0752753)
(0.00215674 -0.000603456 -0.068989)
(0.00208796 -0.00066435 -0.0620658)
(0.00200582 -0.000739562 -0.0545176)
(0.00229365 -0.000820514 -0.0636426)
(0.00204053 -0.000808686 -0.0625733)
(0.00212637 -0.00092132 -0.0611323)
(0.00204512 -0.000982029 -0.0592353)
(0.00202427 -0.00107086 -0.0567835)
(0.00197736 -0.00115894 -0.0536755)
(0.00193639 -0.00126348 -0.0498087)
(0.00186527 -0.00136583 -0.0450825)
(0.00227061 -0.00114026 -0.0394854)
(0.00207728 -0.00112919 -0.0399029)
(0.00213268 -0.00125747 -0.0401543)
(0.00205112 -0.00134872 -0.0401606)
(0.00201944 -0.001488 -0.0398105)
(0.00196079 -0.00163262 -0.0389719)
(0.00191455 -0.00180057 -0.0374853)
(0.00181789 -0.00192878 -0.035164)
(0.00201268 -0.00152346 -0.0242156)
(0.0016487 -0.00149015 -0.0250605)
(0.00170292 -0.00180006 -0.0258859)
(0.00159913 -0.00195021 -0.0266412)
(0.00158477 -0.00214974 -0.0272423)
(0.00156283 -0.00230984 -0.027575)
(0.0015886 -0.00247368 -0.0274795)
(0.00150776 -0.00253336 -0.026733)
(0.00232567 -0.00220515 -0.0152071)
(0.00252913 -0.00261402 -0.0160671)
(0.00230169 -0.00267418 -0.0169846)
(0.00229243 -0.00289273 -0.0179412)
(0.00217332 -0.00299863 -0.0188895)
(0.00206438 -0.00308544 -0.019756)
(0.00194762 -0.0031317 -0.020415)
(0.00174474 -0.00308258 -0.0206303)
(0.00077981 0.000712602 -0.0154914)
(0.000662671 0.000655564 -0.0164957)
(0.000691382 0.000747069 -0.0175825)
(0.000637843 0.000767789 -0.0187275)
(0.000618609 0.000829644 -0.0198872)
(0.000581408 0.000883363 -0.0209858)
(0.000554948 0.000949075 -0.021892)
(0.000473416 0.00100687 -0.022352)
(0.000923479 0.000621344 -0.0246377)
(0.000840542 0.000590695 -0.0256342)
(0.00086495 0.000636432 -0.0266357)
(0.000812788 0.000644484 -0.0275878)
(0.000784557 0.000680119 -0.02841)
(0.000732827 0.000713454 -0.0289876)
(0.000678436 0.000760739 -0.0291599)
(0.00059454 0.000797215 -0.0286998)
(0.000992398 0.000500232 -0.0401616)
(0.000898886 0.000478235 -0.0407312)
(0.00092976 0.000520669 -0.0411584)
(0.000879535 0.000529233 -0.0413608)
(0.000855483 0.000557553 -0.0412318)
(0.00080906 0.000584292 -0.0406409)
(0.00075654 0.000622445 -0.0394324)
(0.000683158 0.000662982 -0.0374229)
(0.00109119 0.000374384 -0.0646733)
(0.000997767 0.00035528 -0.0637372)
(0.00102186 0.000377447 -0.0624524)
(0.000967831 0.000378474 -0.0607327)
(0.000938181 0.000392875 -0.058485)
(0.000887072 0.000407467 -0.0556119)
(0.000827853 0.000430107 -0.0520175)
(0.000752675 0.000459902 -0.0476098)
(0.00115763 0.000229755 -0.0957643)
(0.00106139 0.000214346 -0.0919506)
(0.00108136 0.000222263 -0.0876144)
(0.00102546 0.000219097 -0.0827187)
(0.000992036 0.000223732 -0.077237)
(0.000938542 0.000229631 -0.0711577)
(0.000877158 0.000241193 -0.0644869)
(0.000804282 0.000260416 -0.0572489)
(0.00124076 8.24987e-05 -0.119863)
(0.00114607 7.64679e-05 -0.113309)
(0.00115103 7.56641e-05 -0.106169)
(0.0010886 6.98224e-05 -0.0984703)
(0.00104647 6.43024e-05 -0.0902584)
(0.000986812 5.78901e-05 -0.0816002)
(0.000920679 5.24293e-05 -0.0725812)
(0.000845844 5.04869e-05 -0.0633017)
(0.00123355 -9.29464e-05 -0.119847)
(0.00111501 -9.68177e-05 -0.113293)
(0.00112518 -0.000118207 -0.106151)
(0.00106265 -0.000130831 -0.0984512)
(0.00102363 -0.000146911 -0.0902381)
(0.000969764 -0.000161154 -0.0815793)
(0.000911769 -0.000175346 -0.0725605)
(0.000844524 -0.000188386 -0.0632822)
(0.00113607 -0.000239048 -0.095671)
(0.00111686 -0.000258172 -0.0918591)
(0.00110296 -0.000281757 -0.0875227)
(0.00107968 -0.000305327 -0.0826297)
(0.00104795 -0.000329569 -0.077152)
(0.00100434 -0.000354234 -0.0710785)
(0.000948322 -0.00038055 -0.0644155)
(0.000874313 -0.000407807 -0.0571868)
(0.00114039 -0.000396601 -0.0645816)
(0.00106227 -0.000398922 -0.0636424)
(0.00107946 -0.000433157 -0.0623522)
(0.00103444 -0.00045471 -0.0606307)
(0.00100787 -0.000487266 -0.0583831)
(0.000963171 -0.000520585 -0.0555134)
(0.000912327 -0.00055992 -0.0519256)
(0.000840231 -0.000599252 -0.0475275)
(0.00108444 -0.000556923 -0.0401123)
(0.00103864 -0.000572269 -0.0406746)
(0.00104245 -0.000620735 -0.0410931)
(0.00100848 -0.000652645 -0.0412888)
(0.000983454 -0.000694665 -0.0411544)
(0.000942644 -0.000733657 -0.0405606)
(0.00089543 -0.00077723 -0.0393528)
(0.00081963 -0.000811216 -0.0373467)
(0.00101613 -0.000699116 -0.0245794)
(0.000979995 -0.000714409 -0.0255688)
(0.000981443 -0.000763947 -0.0265607)
(0.000952835 -0.000798358 -0.0275084)
(0.000928475 -0.00084306 -0.0283288)
(0.000888683 -0.000883752 -0.0289078)
(0.00084448 -0.000928972 -0.0290848)
(0.000763421 -0.000953845 -0.0286286)
(0.000948374 -0.000857854 -0.0155244)
(0.000920539 -0.000879005 -0.0165266)
(0.000913684 -0.000929142 -0.0176161)
(0.000888563 -0.000965759 -0.0187558)
(0.000864539 -0.00100957 -0.0199082)
(0.00082851 -0.00104788 -0.0209958)
(0.000790812 -0.00108677 -0.0218899)
(0.000708205 -0.00110551 -0.0223354)
(0.000147817 0.000156037 -0.0155829)
(6.95661e-05 0.000123452 -0.0166422)
(7.11376e-05 0.000173304 -0.0177902)
(2.25807e-05 0.000175428 -0.0190072)
(-4.71251e-06 0.000199379 -0.0202486)
(-4.33027e-05 0.000213788 -0.0214387)
(-7.14407e-05 0.000233489 -0.0224435)
(-0.000134001 0.00023959 -0.0230023)
(0.000133693 9.91377e-05 -0.024803)
(5.45815e-05 7.03039e-05 -0.0258604)
(6.8826e-05 0.000106196 -0.0269315)
(2.40878e-05 0.000107751 -0.0279618)
(1.46668e-06 0.000127317 -0.0288716)
(-3.51531e-05 0.000140372 -0.0295462)