/*--------------------------------*- C++ -*----------------------------------*\
| =========                 |                                                 |
| \\      /  F ield         | foam-extend: Open Source CFD                    |
|  \\    /   O peration     | Version:  3.0                                   |
|   \\  /    A nd           | Web:         http://www.extend-project.de       |
|    \\/     M anipulation  |                                                 |
\*---------------------------------------------------------------------------*/
FoamFile
{
    version     2.0;
    format      ascii;
    class       volVectorField;
    location    "27";
    object      s;
}
// * * * * * * * * * * * * * * * * * * * * * * * * * * * * * * * * * * * * * //

dimensions      [0 1 -1 0 0 0 0];

internalField   nonuniform List<vector> 
3012
(
(-2.25281 0.119334 0)
(-1.85382 -0.258879 0)
(-2.60493 0.159088 0)
(-1.75241 0.113617 0)
(-3.13274 0.340345 0)
(-2.19618 0.215088 0)
(-3.04281 -0.324927 0)
(-2.88673 0.0953334 0)
(-2.02057 0.225467 0)
(-2.23073 -0.405558 0)
(-1.9127 -0.0851824 0)
(-2.24212 0.443144 0)
(-1.29351 -0.142715 0)
(-2.01992 0.0735183 0)
(-2.2698 0.0616669 0)
(-1.23253 0.104603 0)
(-3.11843 0.293357 0)
(-2.21537 0.264537 0)
(-2.97029 -0.352035 0)
(-2.89749 0.0894706 0)
(-1.27678 0.414076 0)
(-1.68723 -0.225737 0)
(-1.8987 -0.357271 0)
(-1.22993 0.29403 0)
(-2.69117 0.0253443 0)
(-1.98668 -0.150667 0)
(-1.94912 0.253892 0)
(-2.28179 0.0417606 0)
(-1.88822 0.325822 0)
(-2.0808 0.408972 0)
(-1.38656 -0.17705 0)
(-1.56735 -0.450706 0)
(-1.32383 -0.156115 0)
(-2.1002 0.368851 0)
(-1.90353 0.302007 0)
(-1.48426 -0.423143 0)
(-2.10928 -0.201189 0)
(-2.74236 0.0447979 0)
(-2.30249 0.0448783 0)
(-2.0603 0.235366 0)
(-1.18204 -0.125986 0)
(-2.17978 0.0574293 0)
(-1.1208 0.0992908 0)
(-1.95168 0.0696046 0)
(-1.30617 -0.11581 0)
(-1.44934 -0.382882 0)
(-1.9435 0.270426 0)
(-2.15402 0.32511 0)
(-1.28986 -0.380689 0)
(-2.03076 0.323703 0)
(-1.84789 0.283841 0)
(-1.16066 -0.142698 0)
(-2.23809 0.117019 0)
(-1.78624 -0.243419 0)
(-1.68944 0.116212 0)
(-2.57798 0.148397 0)
(-2.73337 -0.334356 0)
(-2.28853 0.441906 0)
(-3.07572 0.225637 0)
(-2.91026 0.0810543 0)
(-2.71896 -0.3634 0)
(-2.26689 0.354989 0)
(-3.01702 0.250951 0)
(-2.9329 0.0369284 0)
(-1.31963 -0.0934338 0)
(-2.0362 0.0282381 0)
(-2.29779 -0.000510228 0)
(-1.27448 0.151427 0)
(-2.14564 -0.15328 0)
(-1.19455 0.262261 0)
(-1.2096 0.0795281 0)
(-1.911 -0.0879814 0)
(-1.79434 0.458988 0)
(-1.58652 -0.499569 0)
(-1.3799 -0.249291 0)
(-1.65401 0.364821 0)
(-1.70717 0.348977 0)
(-1.85714 0.419636 0)
(-1.43279 -0.481068 0)
(-1.25505 -0.239165 0)
(-1.4085 -0.0892905 0)
(-2.08473 0.0209989 0)
(-1.3684 0.173863 0)
(-2.36707 -0.0120583 0)
(-2.12446 -0.0425652 0)
(-1.1017 0.182293 0)
(-1.14223 -0.0120512 0)
(-1.9017 -0.0078647 0)
(-1.22758 -0.192301 0)
(-2.00462 0.38123 0)
(-1.82815 0.322297 0)
(-1.38234 -0.440859 0)
(-2.2829 -0.400726 0)
(-2.024 0.214524 0)
(-1.94881 -0.0808258 0)
(-2.2453 0.447931 0)
(-2.22908 0.00766875 0)
(-2.31097 0.352096 0)
(-2.16043 -0.042309 0)
(-2.70331 -0.20049 0)
(-2.12104 -0.169587 0)
(-1.17409 0.271352 0)
(-1.18751 0.0958768 0)
(-1.89146 -0.101633 0)
(-1.75547 0.465066 0)
(-1.36892 -0.256983 0)
(-1.57759 -0.504534 0)
(-1.62116 0.371146 0)
(-1.81739 -0.402618 0)
(-1.25535 0.318626 0)
(-1.61614 -0.253822 0)
(-1.31823 0.431665 0)
(-1.97467 0.218092 0)
(-2.19795 0.251942 0)
(-1.37015 -0.322312 0)
(-1.25516 -0.0591497 0)
(-1.53599 -0.505604 0)
(-1.34536 -0.282899 0)
(-1.52267 0.499085 0)
(-1.41458 0.396475 0)
(-1.77274 -0.183475 0)
(-1.09381 0.204766 0)
(-1.09303 0.311369 0)
(-1.96893 -0.269078 0)
(-2.50588 -0.215846 0)
(-2.33742 -0.00165428 0)
(-2.80643 0.140978 0)
(-2.31463 0.308835 0)
(-3.07188 0.0347899 0)
(-2.68899 0.667498 0)
(-3.00164 0.05466 0)
(-2.44154 -0.30898 0)
(-2.58082 -0.221612 0)
(-2.32773 0.0010595 0)
(-2.42017 0.343108 0)
(-2.85032 0.116238 0)
(-3.0782 0.0618444 0)
(-3.05077 0.0836387 0)
(-2.61603 0.678887 0)
(-2.49413 -0.365411 0)
(-2.68502 0.0634053 0)
(-1.87495 0.219275 0)
(-2.27968 0.058678 0)
(-1.93501 -0.182011 0)
(-3.00949 0.181426 0)
(-2.43557 0.487205 0)
(-2.55434 -0.317257 0)
(-2.96501 -0.0138386 0)
(-2.94348 0.206064 0)
(-2.38759 0.477672 0)
(-2.47381 -0.234054 0)
(-2.86578 -0.0582496 0)
(-1.07896 -0.0966972 0)
(-1.83893 0.239411 0)
(-1.18193 -0.320845 0)
(-2.02988 0.265365 0)
(-1.33167 -0.397189 0)
(-2.04389 0.343853 0)
(-1.8584 0.296628 0)
(-1.19328 -0.152517 0)
(-1.76088 -0.428214 0)
(-1.56394 -0.26446 0)
(-1.36559 0.451759 0)
(-1.29133 0.340823 0)
(-2.31923 0.0469858 0)
(-2.38282 -0.204699 0)
(-2.82119 0.0242978 0)
(-2.36776 0.284972 0)
(-1.33598 -0.173181 0)
(-2.07526 0.38946 0)
(-1.88413 0.316884 0)
(-1.50532 -0.441046 0)
(-2.8838 0.289648 0)
(-2.8079 -0.0957246 0)
(-2.49041 -0.201576 0)
(-2.25622 0.342331 0)
(-2.42632 -0.0801355 0)
(-2.8504 0.270544 0)
(-2.34621 0.315071 0)
(-2.74563 -0.178469 0)
(-2.30577 0.049583 0)
(-2.40544 -0.237681 0)
(-2.83141 0.0444813 0)
(-2.36761 0.290306 0)
(-1.62169 0.448028 0)
(-1.86374 -0.204199 0)
(-1.53495 0.261537 0)
(-2.14431 -0.384587 0)
(-1.58751 0.295494 0)
(-2.07152 -0.429776 0)
(-1.69671 0.468167 0)
(-1.80086 -0.222217 0)
(-1.79953 -0.416489 0)
(-1.5973 -0.258334 0)
(-1.35556 0.44918 0)
(-1.28514 0.334678 0)
(-1.67065 -0.447779 0)
(-2.14446 0.409313 0)
(-1.93726 0.31334 0)
(-1.4797 -0.158197 0)
(-1.30924 -0.0671668 0)
(-2.02157 0.0123455 0)
(-1.26938 0.169063 0)
(-2.2796 -0.0221178 0)
(-1.32158 -0.164643 0)
(-2.28394 0.0845098 0)
(-2.03153 0.089719 0)
(-1.2537 0.0889183 0)
(-1.11482 -0.262725 0)
(-2.02053 0.204 0)
(-1.03459 -0.0463082 0)
(-1.82702 0.187964 0)
(-1.11145 0.218935 0)
(-1.77398 -0.181911 0)
(-1.97871 -0.270931 0)
(-1.11321 0.338904 0)
(-2.36294 -0.040631 0)
(-1.37696 0.197426 0)
(-1.4084 -0.0587156 0)
(-2.07862 0.00159395 0)
(-1.5668 -0.51959 0)
(-1.41985 0.393136 0)
(-1.37403 -0.296009 0)
(-1.52787 0.496531 0)
(-1.39038 -0.187406 0)
(-1.85854 0.330153 0)
(-1.57451 -0.457312 0)
(-2.04206 0.415654 0)
(-1.16133 0.212117 0)
(-1.77958 -0.174001 0)
(-1.1723 0.338627 0)
(-1.98868 -0.269851 0)
(-1.41614 -0.277247 0)
(-1.55331 0.479099 0)
(-1.44436 0.37557 0)
(-1.61223 -0.498684 0)
(-2.11096 0.423111 0)
(-1.69411 -0.457335 0)
(-1.49444 -0.170107 0)
(-1.91172 0.321648 0)
(-1.28154 0.408427 0)
(-1.71797 -0.216079 0)
(-1.93403 -0.345846 0)
(-1.23752 0.281932 0)
(-1.26222 0.31033 0)
(-1.86877 -0.383928 0)
(-1.32078 0.430379 0)
(-1.65903 -0.239875 0)
(-1.66444 0.452635 0)
(-1.87065 -0.201489 0)
(-1.57055 0.262673 0)
(-2.15518 -0.390079 0)
(-1.60151 0.280368 0)
(-1.70906 0.462533 0)
(-2.11849 -0.418629 0)
(-1.83834 -0.213655 0)
(-2.56476 -0.300387 0)
(-2.00849 0.0982533 0)
(-2.13671 -0.0608296 0)
(-2.16837 0.433177 0)
(-1.15817 -0.208507 0)
(-1.75887 0.330345 0)
(-1.30586 -0.441574 0)
(-1.91558 0.38255 0)
(-1.10415 -0.109633 0)
(-2.09643 0.0556567 0)
(-1.04589 0.0968649 0)
(-1.88698 0.0668656 0)
(-1.76087 0.457646 0)
(-1.64713 0.263462 0)
(-1.86916 -0.200389 0)
(-2.163 -0.410487 0)
(-1.21976 -0.127311 0)
(-2.19484 0.0595379 0)
(-1.15762 0.100631 0)
(-1.963 0.0716032 0)
(-1.28771 -0.115884 0)
(-2.01787 0.0529054 0)
(-2.26996 0.0350437 0)
(-1.23231 0.125693 0)
(-2.27705 0.0762032 0)
(-1.90396 -0.242328 0)
(-1.82594 0.155549 0)
(-2.65976 0.0953311 0)
(-1.06525 -0.081673 0)
(-2.03169 0.24866 0)
(-1.83793 0.224501 0)
(-1.16132 -0.302862 0)
(-2.76621 -0.198557 0)
(-2.29239 0.00373192 0)
(-2.6952 0.390979 0)
(-2.86963 0.0367605 0)
(-2.90008 -0.233276 0)
(-2.86694 0.388343 0)
(-2.27848 0.0470612 0)
(-2.89894 0.0446463 0)
(-1.27193 -0.117422 0)
(-1.93571 0.268338 0)
(-1.40991 -0.380852 0)
(-2.1439 0.318486 0)
(-1.80994 0.468112 0)
(-1.68784 0.272362 0)
(-1.86593 -0.195916 0)
(-2.16236 -0.41551 0)
(-1.35954 -0.336508 0)
(-1.9508 0.238207 0)
(-2.16657 0.277074 0)
(-1.23842 -0.0782709 0)
(-2.26952 0.0749161 0)
(-1.91067 -0.21083 0)
(-1.83577 0.178092 0)
(-2.65358 0.0953308 0)
(-2.56767 -0.276074 0)
(-1.97398 0.0743399 0)
(-2.14326 -0.0701521 0)
(-2.10535 0.404235 0)
(-1.89809 -0.467808 0)
(-1.64768 0.482595 0)
(-1.53574 0.340996 0)
(-1.65922 -0.252426 0)
(-1.14411 -0.0432421 0)
(-2.13832 -0.0166503 0)
(-1.91449 0.012032 0)
(-1.0989 0.158624 0)
(-1.39018 0.248745 0)
(-1.84224 -0.199124 0)
(-1.44729 0.4172 0)
(-2.0976 -0.345612 0)
(-2.22856 -0.032927 0)
(-2.17597 0.349253 0)
(-2.05543 -0.022673 0)
(-2.68408 -0.215733 0)
(-2.14932 -0.0697112 0)
(-1.17217 -0.00103344 0)
(-1.13655 0.197133 0)
(-1.91939 -0.0281079 0)
(-1.86549 0.433359 0)
(-1.71424 0.355672 0)
(-1.48182 -0.481185 0)
(-1.29475 -0.236683 0)
(-1.89357 0.414575 0)
(-1.73859 0.346764 0)
(-1.41216 -0.47212 0)
(-1.23973 -0.22946 0)
(-1.27571 -0.260713 0)
(-1.76141 0.44489 0)
(-1.62579 0.366576 0)
(-1.4689 -0.500858 0)
(-1.1212 0.0540048 0)
(-2.08757 -0.111637 0)
(-1.09305 0.231462 0)
(-1.86848 -0.0619119 0)
(-1.10561 -0.239915 0)
(-2.02929 0.188426 0)
(-1.02358 -0.0203176 0)
(-1.83537 0.172184 0)
(-1.06275 -0.132573 0)
(-1.79558 0.264967 0)
(-1.9716 0.292699 0)
(-1.17162 -0.349881 0)
(-1.30267 -0.253242 0)
(-1.77143 0.445847 0)
(-1.49898 -0.495189 0)
(-1.63524 0.364224 0)
(-1.14743 0.0563543 0)
(-2.10017 -0.121181 0)
(-1.87813 -0.0680101 0)
(-1.12197 0.234784 0)
(-1.8647 0.316926 0)
(-1.90755 -0.466856 0)
(-1.66324 -0.181654 0)
(-2.04888 0.459684 0)
(-1.92429 0.310472 0)
(-1.90282 -0.464282 0)
(-2.12556 0.448564 0)
(-1.66511 -0.165659 0)
(-2.19773 -0.296544 0)
(-1.46313 0.385223 0)
(-1.92445 -0.165949 0)
(-1.41816 0.192138 0)
(-1.65418 -0.236465 0)
(-1.64195 0.342139 0)
(-1.77606 0.487201 0)
(-1.90112 -0.477157 0)
(-1.32737 -0.102712 0)
(-1.96927 0.257329 0)
(-2.1881 0.311164 0)
(-1.46768 -0.375584 0)
(-1.86261 0.465895 0)
(-1.95045 -0.169712 0)
(-1.7394 0.241151 0)
(-2.27371 -0.386341 0)
(-1.90808 0.45073 0)
(-1.98753 -0.149012 0)
(-1.78052 0.208923 0)
(-2.3293 -0.369864 0)
(-1.68125 -0.246421 0)
(-1.45082 0.45149 0)
(-1.37282 0.317434 0)
(-1.90621 -0.417488 0)
(-1.5356 0.307742 0)
(-1.5201 0.0572264 0)
(-2.07339 -0.0772617 0)
(-2.38165 -0.167607 0)
(-1.32394 -0.216712 0)
(-2.01307 0.13092 0)
(-1.24086 0.0401112 0)
(-2.25574 0.138753 0)
(-2.32929 -0.336 0)
(-2.30935 0.0869173 0)
(-2.69339 0.256404 0)
(-2.0954 0.116259 0)
(-1.54872 0.290288 0)
(-2.11135 -0.0516924 0)
(-1.5453 0.0243917 0)
(-2.42761 -0.127715 0)
(-2.59142 0.433571 0)
(-2.87818 0.112697 0)
(-2.36678 -0.115584 0)
(-2.85385 -0.147246 0)
(-1.42781 -0.264064 0)
(-1.57139 0.375781 0)
(-1.63787 -0.509874 0)
(-1.69834 0.48064 0)
(-1.23245 -0.433938 0)
(-1.74644 0.33949 0)
(-1.09393 -0.206848 0)
(-1.89403 0.384915 0)
(-1.85912 0.0808917 0)
(-2.0623 0.074966 0)
(-0.9899 0.0651336 0)
(-1.0475 -0.137668 0)
(-1.87187 -0.1377 0)
(-1.20945 0.149514 0)
(-1.21052 0.313075 0)
(-2.10265 -0.223302 0)
(-2.08387 -0.120706 0)
(-1.76352 0.381902 0)
(-2.43898 -0.269188 0)
(-1.69225 0.111357 0)
(-2.11187 -0.10092 0)
(-1.75751 0.369934 0)
(-2.47091 -0.239203 0)
(-1.69513 0.0882864 0)
(-1.53478 -0.501988 0)
(-1.32447 -0.276273 0)
(-1.56117 0.484724 0)
(-1.45082 0.391962 0)
(-2.54481 -0.22392 0)
(-1.87397 0.367438 0)
(-2.16001 -0.080982 0)
(-1.80075 0.0568379 0)
(-1.09671 0.297894 0)
(-1.09354 0.173536 0)
(-1.78516 -0.167254 0)
(-1.98535 -0.248536 0)
(-2.27408 0.901084 0)
(-3.12685 -0.913464 0)
(-3.70785 -0.0154169 0)
(-3.1132 0.417402 0)
(-2.18341 -0.285912 0)
(-1.417 0.379593 0)
(-1.37995 0.191685 0)
(-1.91556 -0.162896 0)
(-1.98075 0.282 0)
(-1.05509 -0.113754 0)
(-1.15986 -0.329131 0)
(-1.79988 0.255071 0)
(-2.23341 0.18178 0)
(-2.74284 0.263542 0)
(-2.33542 0.0160018 0)
(-2.54336 -0.301104 0)
(-1.79729 0.348587 0)
(-2.52561 -0.206087 0)
(-2.15081 -0.0801779 0)
(-1.74295 0.0487654 0)
(-1.49788 0.465186 0)
(-1.67509 -0.252314 0)
(-1.41059 0.328862 0)
(-1.90432 -0.435217 0)
(-1.61806 -0.24857 0)
(-1.62551 0.350232 0)
(-1.75856 0.486509 0)
(-1.85559 -0.488342 0)
(-1.36979 -0.106778 0)
(-2.06071 0.0400262 0)
(-1.32209 0.149056 0)
(-2.33042 0.0145498 0)
(-2.26415 0.570062 0)
(-3.02542 -0.47666 0)
(-3.36147 0.197534 0)
(-2.97375 0.241082 0)
(-1.86269 -0.475643 0)
(-1.66424 0.487297 0)
(-1.54762 0.35034 0)
(-1.62818 -0.254131 0)
(-1.36357 0.23197 0)
(-1.85214 -0.194127 0)
(-1.41405 0.40038 0)
(-2.10563 -0.331119 0)
(-1.54929 -0.0645924 0)
(-2.34676 0.318519 0)
(-1.7095 -0.387102 0)
(-2.08686 0.240461 0)
(-1.26066 -0.178576 0)
(-2.02376 0.373098 0)
(-1.84334 0.312722 0)
(-1.41744 -0.431097 0)
(-2.24388 0.0941522 0)
(-2.82876 0.382528 0)
(-2.79891 -0.220485 0)
(-2.8645 0.0298146 0)
(-1.19843 0.291212 0)
(-1.88107 -0.346453 0)
(-1.23973 0.406692 0)
(-1.67497 -0.221299 0)
(-2.35027 0.340042 0)
(-1.58426 -0.0731804 0)
(-1.75832 -0.40132 0)
(-2.08918 0.250492 0)
(-1.33558 0.358846 0)
(-1.69504 -0.470774 0)
(-1.50264 -0.28605 0)
(-1.4246 0.465707 0)
(-1.35043 0.35546 0)
(-1.72879 -0.463993 0)
(-1.52988 -0.278724 0)
(-1.43958 0.466886 0)
(-2.32163 0.196167 0)
(-1.34767 0.00663534 0)
(-2.0647 0.169903 0)
(-1.44924 -0.278366 0)
(-3.34524 0.0162871 0)
(-3.07666 0.722129 0)
(-2.30262 -0.266707 0)
(-2.94938 -0.030275 0)
(-1.80621 0.489693 0)
(-1.78975 -0.493861 0)
(-1.66404 0.362735 0)
(-1.55888 -0.242329 0)
(-2.24934 0.316034 0)
(-1.39704 -0.0874423 0)
(-1.54415 -0.3784 0)
(-2.01572 0.254825 0)
(-1.37416 -0.00195252 0)
(-1.48433 -0.291276 0)
(-2.07349 0.181608 0)
(-2.33146 0.215695 0)
(-1.1025 -0.0984226 0)
(-1.84545 0.244803 0)
(-2.03661 0.27287 0)
(-1.20946 -0.32498 0)
(-1.85048 0.483255 0)
(-1.80027 -0.490825 0)
(-1.56879 -0.233932 0)
(-1.70188 0.355775 0)
(-1.34415 0.143277 0)
(-1.36468 0.33746 0)
(-1.94444 -0.140264 0)
(-2.20788 -0.244382 0)
(-1.3685 0.124358 0)
(-1.38562 0.327916 0)
(-1.96756 -0.126297 0)
(-2.23808 -0.226267 0)
(-1.42236 0.0115647 0)
(-2.0959 0.176029 0)
(-1.53445 -0.287762 0)
(-2.36293 0.213383 0)
(-1.60268 -0.508319 0)
(-1.57589 0.376159 0)
(-1.39289 -0.261853 0)
(-1.70299 0.475608 0)
(-2.25779 0.318707 0)
(-1.58225 -0.385746 0)
(-1.43096 -0.0910588 0)
(-2.02238 0.253749 0)
(-1.30422 -0.190128 0)
(-2.00754 0.116557 0)
(-1.22699 0.0611366 0)
(-2.24956 0.119186 0)
(-1.87026 -0.128285 0)
(-1.18762 0.131976 0)
(-1.18208 0.295065 0)
(-2.09676 -0.206239 0)
(-2.03714 -0.339894 0)
(-3.83948 -0.136984 0)
(-3.63516 0.666985 0)
(-2.81251 -0.179693 0)
(-1.44061 0.0355135 0)
(-1.54478 -0.269159 0)
(-2.12036 0.158799 0)
(-2.39817 0.189347 0)
(-2.24218 0.367549 0)
(-1.69625 -0.427714 0)
(-2.0101 0.278727 0)
(-1.51698 -0.12174 0)
(-1.86029 -0.121329 0)
(-2.19187 0.459112 0)
(-1.97814 0.261254 0)
(-2.15836 -0.435502 0)
(-3.17531 -0.091724 0)
(-2.94402 0.573435 0)
(-2.31509 -0.169021 0)
(-2.92565 0.0264025 0)
(-2.32707 0.0774456 0)
(-2.5706 -0.198184 0)
(-2.88736 -0.00705309 0)
(-2.62007 0.334927 0)
(-2.0627 0.263067 0)
(-1.84799 -0.425978 0)
(-2.3155 0.373732 0)
(-1.64863 -0.092951 0)
(-1.33737 -0.137257 0)
(-2.13567 0.356737 0)
(-1.49476 -0.409193 0)
(-1.93112 0.291596 0)
(-2.23644 0.163732 0)
(-2.07874 -0.359554 0)
(-1.88296 0.0367945 0)
(-2.56764 0.287741 0)
(-1.15844 -0.280324 0)
(-1.85256 0.207399 0)
(-1.06567 -0.0580136 0)
(-2.05096 0.228874 0)
(-1.2346 -0.416307 0)
(-1.76408 0.333951 0)
(-1.92019 0.380174 0)
(-1.09861 -0.190386 0)
(-2.22377 0.167152 0)
(-2.12196 -0.37511 0)
(-2.55783 0.307925 0)
(-1.90803 0.0325322 0)
(-1.17282 -0.269471 0)
(-2.06895 0.213968 0)
(-1.86843 0.194346 0)
(-1.08188 -0.0431435 0)
(-1.86466 0.0936316 0)
(-1.00341 0.0495983 0)
(-2.06835 0.0909046 0)
(-1.06558 -0.160805 0)
(-2.24523 0.361374 0)
(-1.4901 -0.108317 0)
(-1.66287 -0.410073 0)
(-2.01317 0.277565 0)
(-2.62243 0.316067 0)
(-2.83908 -0.117299 0)
(-2.27846 0.122199 0)
(-2.42527 -0.173229 0)
(-2.04532 0.27434 0)
(-1.80176 -0.429522 0)
(-1.60732 -0.104545 0)
(-2.29026 0.379517 0)
(-2.17681 0.341609 0)
(-2.28217 0.0143097 0)
(-2.13964 -0.101233 0)
(-2.7612 -0.0698807 0)
(-2.20466 0.50764 0)
(-2.68131 -0.340624 0)
(-3.08085 0.275804 0)
(-2.86968 0.0824901 0)
(-2.75091 0.231159 0)
(-2.21008 0.227665 0)
(-2.48524 -0.266636 0)
(-2.3311 0.0140706 0)
(-2.35113 0.319085 0)
(-2.36179 -0.0143267 0)
(-2.82903 0.178323 0)
(-2.59298 -0.21616 0)
(-2.1198 -0.123372 0)
(-2.13303 0.30963 0)
(-2.74495 -0.0355035 0)
(-2.28475 0.0243373 0)
(-1.14022 -0.181062 0)
(-1.80174 0.317604 0)
(-1.27834 -0.414795 0)
(-1.96999 0.363226 0)
(-1.16058 -0.192643 0)
(-1.9655 0.372497 0)
(-1.79826 0.322294 0)
(-1.30448 -0.430024 0)
(-3.22646 -0.789034 0)
(-2.13759 0.936145 0)
(-3.69886 0.031999 0)
(-2.97036 0.496539 0)
(-1.92539 0.305635 0)
(-2.12908 0.388486 0)
(-1.42606 -0.157716 0)
(-1.60396 -0.440642 0)
(-2.398 0.289441 0)
(-2.12448 0.218989 0)
(-1.71035 -0.36364 0)
(-1.56083 -0.0376392 0)
(-1.14857 0.306967 0)
(-1.14949 0.164808 0)
(-1.82238 -0.151649 0)
(-2.03495 -0.234549 0)
(-2.02996 -0.257317 0)
(-1.17375 0.328127 0)
(-1.81441 -0.165466 0)
(-1.16703 0.189089 0)
(-1.61563 0.478818 0)
(-1.58191 -0.508828 0)
(-1.50057 0.380784 0)
(-1.37324 -0.266606 0)
(-3.78557 0.132619 0)
(-2.04796 -0.396401 0)
(-3.52225 0.96265 0)
(-2.82707 -0.178499 0)
(-1.27342 -0.391539 0)
(-2.00453 0.341643 0)
(-1.82726 0.300495 0)
(-1.14162 -0.157168 0)
(-1.59858 0.487469 0)
(-1.48505 0.383149 0)
(-1.41122 -0.272543 0)
(-1.61381 -0.508784 0)
(-1.98866 0.220439 0)
(-1.01951 -0.0653234 0)
(-1.10715 -0.273474 0)
(-1.79678 0.200622 0)
(-1.59605 0.477954 0)
(-1.55212 -0.505742 0)
(-1.48436 0.383829 0)
(-1.33853 -0.265658 0)
(-1.11711 0.293854 0)
(-1.80794 -0.155831 0)
(-1.12159 0.158634 0)
(-2.01369 -0.234562 0)
(-1.29848 0.310022 0)
(-1.89225 -0.3939 0)
(-1.36248 0.436442 0)
(-1.67626 -0.241633 0)
(-2.28624 0.0366064 0)
(-2.3776 -0.145947 0)
(-2.82305 -0.0206432 0)
(-2.39398 0.366645 0)
(-1.6137 0.0436247 0)
(-2.49202 0.206793 0)
(-1.73176 -0.297292 0)
(-2.18643 0.157709 0)
(-2.29977 0.0902443 0)
(-2.02313 -0.255938 0)
(-2.68827 0.141731 0)
(-1.9153 0.158229 0)
(-2.02981 -0.0789571 0)
(-1.99606 0.175124 0)
(-2.40239 -0.370527 0)
(-2.19458 0.44738 0)
(-2.10465 -0.246373 0)
(-2.31413 0.0697529 0)
(-2.72329 0.116048 0)
(-2.0041 0.185643 0)
(-2.15736 -0.235447 0)
(-2.31874 0.057103 0)
(-2.75338 0.0724785 0)
(-2.09305 0.209113 0)
(-1.95611 0.0282028 0)
(-2.19409 -0.385123 0)
(-2.56955 0.311107 0)
(-2.23083 0.147271 0)
(-1.80285 0.46935 0)
(-1.6603 0.367379 0)
(-1.63608 -0.508322 0)
(-1.42507 -0.254252 0)
(-2.27625 -0.281746 0)
(-1.54425 0.380465 0)
(-1.49411 0.164231 0)
(-1.98046 -0.14828 0)
(-2.08252 -0.0648837 0)
(-2.03348 0.138433 0)
(-2.48334 -0.34265 0)
(-2.22407 0.440573 0)
(-1.87171 0.483684 0)
(-1.72319 0.326526 0)
(-1.70261 -0.217951 0)
(-1.96307 -0.472012 0)
(-2.01092 -0.154955 0)
(-1.75305 0.424908 0)
(-2.34212 -0.332009 0)
(-1.66433 0.185348 0)
(-2.17028 -0.173224 0)
(-1.2401 0.0985153 0)
(-1.23147 0.285909 0)
(-1.92713 -0.0999087 0)
(-2.50419 0.237879 0)
(-1.65147 0.0258041 0)
(-1.78759 -0.322809 0)
(-2.19638 0.17436 0)
(-2.39292 0.270543 0)
(-1.66064 -0.351283 0)
(-2.11949 0.21028 0)
(-1.52239 -0.0286359 0)
(-1.50122 0.132125 0)
(-1.54253 0.364803 0)
(-2.02264 -0.130663 0)
(-2.32833 -0.25314 0)
(-1.76945 0.281322 0)
(-1.05238 -0.146385 0)
(-1.93794 0.312509 0)
(-1.16498 -0.35813 0)
(-1.07737 -0.225186 0)
(-0.997355 0.00176972 0)
(-2.01262 0.163939 0)
(-1.81881 0.154111 0)
(-1.95359 -0.480548 0)
(-1.77161 0.332614 0)
(-1.69271 -0.214 0)
(-1.93373 0.48944 0)
(-1.74974 0.436208 0)
(-1.9754 -0.169118 0)
(-2.29571 -0.356719 0)
(-1.65302 0.209378 0)
(-1.38455 -0.0436088 0)
(-2.30265 0.269727 0)
(-1.51404 -0.336898 0)
(-2.05366 0.221187 0)
(-1.99605 0.222921 0)
(-2.22502 0.263106 0)
(-1.42035 -0.326972 0)
(-1.29944 -0.0569977 0)
(-2.3085 0.0796556 0)
(-2.04893 0.0852361 0)
(-1.36153 -0.164426 0)
(-1.29579 0.0955914 0)
(-1.71519 0.32059 0)
(-2.00082 -0.472072 0)
(-1.86231 0.485795 0)
(-1.73309 -0.22022 0)
(-1.30409 0.21971 0)
(-1.33958 0.379582 0)
(-2.0855 -0.302321 0)
(-1.84358 -0.181288 0)
(-1.50336 0.37407 0)
(-1.22772 -0.260248 0)
(-1.61333 0.446719 0)
(-1.43198 -0.494632 0)
(-2.73629 0.310805 0)
(-2.36096 -0.0387061 0)
(-2.19931 0.224917 0)
(-2.62623 -0.225801 0)
(-1.56405 -0.261068 0)
(-1.65051 0.483267 0)
(-1.78553 -0.487457 0)
(-1.53251 0.359023 0)
(-2.22223 0.191972 0)
(-2.74766 -0.173829 0)
(-2.69769 0.336908 0)
(-2.39049 -0.101595 0)
(-2.68255 0.305953 0)
(-2.1529 0.151073 0)
(-2.31162 0.0497382 0)
(-2.47992 -0.303024 0)
(-1.97639 -0.161255 0)
(-1.05423 0.0990233 0)
(-1.78046 -0.10547 0)
(-1.03313 0.243262 0)
(-2.52134 0.25913 0)
(-2.33964 0.0241235 0)
(-2.59654 -0.287837 0)
(-2.87899 0.0586917 0)
(-2.76039 0.333282 0)
(-2.26237 0.227289 0)
(-2.40272 -0.103648 0)
(-2.76914 -0.188159 0)
(-2.21533 0.211886 0)
(-2.68073 0.357736 0)
(-2.76196 -0.149448 0)
(-2.37901 -0.103843 0)
(-2.13069 0.231462 0)
(-1.95346 -0.413444 0)
(-2.41086 0.357174 0)
(-1.74432 -0.0575792 0)
(-1.63674 0.358481 0)
(-1.23411 -0.25622 0)
(-1.77332 0.429433 0)
(-1.41595 -0.489492 0)
(-1.0634 0.205118 0)
(-1.85547 -0.0361967 0)
(-2.0694 -0.0766479 0)
(-1.09813 0.0258103 0)
(-2.31967 0.079225 0)
(-2.26425 -0.247219 0)
(-2.7542 0.163083 0)
(-2.12533 0.234074 0)
(-2.0241 -0.343778 0)
(-1.35734 0.403549 0)
(-1.7895 -0.208387 0)
(-1.30926 0.256597 0)
(-1.57303 0.480854 0)
(-1.59058 -0.260564 0)
(-1.46904 0.354002 0)
(-1.81174 -0.467579 0)
(-2.34124 0.05646 0)
(-2.3641 -0.261616 0)
(-2.17922 0.224812 0)
(-2.77453 0.185513 0)
(-1.46439 0.065235 0)
(-2.06131 -0.0804197 0)
(-1.47392 0.307795 0)
(-2.3607 -0.16724 0)
(-2.04592 -0.131417 0)
(-1.68399 0.380521 0)
(-2.37725 -0.278747 0)
(-1.61881 0.131961 0)
(-1.83754 0.334744 0)
(-2.01651 0.468673 0)
(-1.62005 -0.205199 0)
(-1.8563 -0.485459 0)
(-2.06447 -0.329414 0)
(-1.36484 0.392128 0)
(-1.31946 0.236617 0)
(-1.82318 -0.197423 0)
(-1.5915 -0.258362 0)
(-1.8161 -0.474701 0)
(-1.50828 0.357754 0)
(-1.61862 0.486998 0)
(-1.91932 0.396649 0)
(-2.11059 -0.0990529 0)
(-1.82443 0.101435 0)
(-2.49658 -0.274363 0)
(-1.74601 0.475047 0)
(-1.44628 -0.258565 0)
(-1.61212 0.36908 0)
(-1.65814 -0.506148 0)
(-1.17139 -0.0611155 0)
(-1.94149 0.0263283 0)
(-2.1716 0.00153994 0)
(-1.12259 0.150872 0)
(-2.38174 0.0619116 0)
(-2.09997 0.0728815 0)
(-1.3758 0.119246 0)
(-1.43741 -0.158315 0)
(-2.01329 -0.143182 0)
(-1.67892 0.397422 0)
(-1.60929 0.161455 0)
(-2.33517 -0.296681 0)
(-1.74612 0.479934 0)
(-1.48709 -0.255744 0)
(-1.61221 0.367485 0)
(-1.70379 -0.503583 0)
(-1.27706 -0.344859 0)
(-1.15979 -0.103757 0)
(-2.08272 0.28597 0)
(-1.88501 0.25224 0)
(-1.59899 0.308314 0)
(-1.77188 -0.225168 0)
(-2.04051 -0.4381 0)
(-1.71198 0.476683 0)
(-1.14968 -0.118435 0)
(-1.27259 -0.354868 0)
(-2.05102 0.310288 0)
(-1.86127 0.272709 0)
(-1.23918 0.307706 0)
(-1.89729 -0.125034 0)
(-1.23931 0.133827 0)
(-2.13614 -0.208777 0)
(-2.16403 0.211028 0)
(-1.98271 -0.393739 0)
(-1.77782 -0.0250456 0)
(-2.45829 0.33379 0)
(-2.27764 -0.295772 0)
(-1.56968 0.40448 0)
(-1.51323 0.185886 0)
(-1.97484 -0.153715 0)
(-1.47766 -0.188712 0)
(-1.67897 -0.465289 0)
(-2.04995 0.431676 0)
(-1.86448 0.330581 0)
(-1.58567 0.440681 0)
(-1.88274 -0.194242 0)
(-1.50869 0.251272 0)
(-2.16364 -0.362495 0)
(-1.66853 0.362401 0)
(-1.81021 0.432604 0)
(-1.22693 -0.248497 0)
(-1.40545 -0.48255 0)
(-1.9729 -0.473627 0)
(-1.80671 0.321192 0)
(-1.709 -0.201063 0)
(-1.97585 0.481046 0)
(-1.57346 0.351581 0)
(-2.0443 -0.11546 0)
(-1.5341 0.110416 0)
(-2.35858 -0.235296 0)
(-1.27897 0.324749 0)
(-1.90276 -0.13561 0)
(-1.26991 0.148815 0)
(-2.14725 -0.228553 0)
(-1.94092 0.407175 0)
(-1.42631 -0.469971 0)
(-1.25599 -0.221504 0)
(-1.77645 0.339325 0)
(-1.87366 -0.0228698 0)
(-2.08971 -0.060431 0)
(-1.06482 0.184864 0)
(-1.10249 -0.00155578 0)
(-2.32039 -0.0659807 0)
(-1.34723 0.212598 0)
(-1.37287 -0.0290731 0)
(-2.04707 -0.0171715 0)
(-2.58978 -0.256553 0)
(-2.2879 0.0316245 0)
(-2.16441 0.139282 0)
(-2.60263 0.370718 0)
(-2.67714 -0.188305 0)
(-2.24123 0.248632 0)
(-2.35367 -0.0293726 0)
(-2.71035 0.333823 0)
(-2.35592 -0.119366 0)
(-1.42544 0.0102837 0)
(-1.41793 0.256448 0)
(-2.06704 -0.0519678 0)
(-1.28139 -0.306669 0)
(-2.13878 0.241314 0)
(-1.17512 -0.0603595 0)
(-1.92637 0.21412 0)
(-1.40831 0.370653 0)
(-1.47198 -0.286223 0)
(-1.66882 -0.493278 0)
(-1.51073 0.47904 0)
(-1.35406 -0.380304 0)
(-1.87941 0.281687 0)
(-2.07026 0.328116 0)
(-1.21789 -0.132737 0)
(-2.32041 0.0662159 0)
(-2.75515 0.146886 0)
(-2.2555 -0.240407 0)
(-2.12269 0.228815 0)
(-2.51275 -0.229788 0)
(-2.3942 0.31529 0)
(-2.32046 0.0237043 0)
(-2.83659 0.0977693 0)
(-1.4019 -0.398924 0)
(-2.08897 0.34339 0)
(-1.25684 -0.143197 0)
(-1.89412 0.28997 0)
(-1.20545 0.366679 0)
(-1.78163 -0.179402 0)
(-1.18516 0.234662 0)
(-1.99865 -0.283218 0)
(-1.74716 -0.195209 0)
(-1.21658 0.377235 0)
(-1.96014 -0.306642 0)
(-1.18916 0.251534 0)
(-1.44441 0.373022 0)
(-1.65623 -0.507354 0)
(-1.55419 0.480388 0)
(-1.45745 -0.287578 0)
(-1.36008 -0.0292428 0)
(-2.29719 0.247105 0)
(-1.48014 -0.31638 0)
(-2.04923 0.205966 0)
(-1.72735 0.34555 0)
(-1.8792 0.407932 0)
(-1.19882 -0.230511 0)
(-1.36275 -0.465736 0)
(-2.49741 0.384621 0)
(-2.83277 -0.195317 0)
(-2.37555 -0.135628 0)
(-2.88377 0.160031 0)
(-1.76332 0.329624 0)
(-1.18691 -0.22016 0)
(-1.9223 0.386272 0)
(-1.34139 -0.459259 0)
(-1.87724 -0.416131 0)
(-1.3321 0.324479 0)
(-1.65922 -0.251464 0)
(-1.40622 0.451705 0)
(-1.83582 0.4611 0)
(-1.68865 0.359534 0)
(-1.64637 -0.49893 0)
(-1.43696 -0.243385 0)
(-1.80647 -0.393209 0)
(-1.22238 0.318315 0)
(-1.27946 0.427941 0)
(-1.60829 -0.252492 0)
(-2.1086 0.00229871 0)
(-1.06324 0.141704 0)
(-1.89329 0.0260528 0)
(-1.11206 -0.0580987 0)
(-1.06583 0.119592 0)
(-2.12088 0.0422877 0)
(-1.12229 -0.088025 0)
(-1.90478 0.0576041 0)
(-2.18897 -0.159232 0)
(-1.94158 -0.0880807 0)
(-1.2644 0.0826444 0)
(-1.25421 0.275537 0)
(-1.73611 -0.435722 0)
(-1.54315 -0.273217 0)
(-1.34791 0.455306 0)
(-1.2741 0.347586 0)
(-1.89632 0.10072 0)
(-1.12024 -0.162156 0)
(-1.05164 0.0554763 0)
(-2.10733 0.098907 0)
(-1.12378 -0.139039 0)
(-2.12195 0.0739635 0)
(-1.06092 0.0768685 0)
(-1.90727 0.0806706 0)
(-2.38938 0.0924296 0)
(-2.10759 0.0929991 0)
(-1.3869 0.103054 0)
(-1.4585 -0.182338 0)
(-1.77474 -0.473312 0)
(-1.55378 -0.191367 0)
(-2.04899 0.458204 0)
(-1.86351 0.338662 0)
(-2.14061 0.168061 0)
(-1.99489 -0.0049012 0)
(-2.32693 -0.37002 0)
(-2.40998 0.407074 0)
(-1.41527 0.295004 0)
(-1.99416 -0.403542 0)
(-1.49275 0.445187 0)
(-1.75207 -0.232641 0)
(-1.70349 0.345822 0)
(-1.8507 0.406285 0)
(-1.34048 -0.470797 0)
(-1.18015 -0.238935 0)
(-1.87335 0.0253193 0)
(-2.08437 0.00179157 0)
(-1.08671 -0.0477396 0)
(-1.03864 0.145473 0)
(-2.17768 0.163904 0)
(-2.47351 0.39732 0)
(-2.00115 0.0145479 0)
(-2.32275 -0.374032 0)
(-1.41973 0.282203 0)
(-2.04093 -0.388 0)
(-1.49342 0.441177 0)
(-1.79029 -0.222061 0)
(-1.81282 -0.456835 0)
(-1.59951 -0.268451 0)
(-1.48359 0.469778 0)
(-1.39262 0.347195 0)
(-2.58008 -0.193597 0)
(-1.91424 0.358551 0)
(-2.18533 -0.0568966 0)
(-1.84464 0.0322945 0)
(-2.20006 0.396699 0)
(-1.70957 -0.437204 0)
(-1.97944 0.298348 0)
(-1.51784 -0.136606 0)
(-2.63798 0.318328 0)
(-2.80137 -0.121363 0)
(-2.24349 0.143974 0)
(-2.41668 -0.158451 0)
(-2.13379 0.194673 0)
(-1.2207 -0.257296 0)
(-1.12874 -0.0193401 0)
(-1.92035 0.177932 0)
(-1.42733 0.0361281 0)
(-2.34068 -0.133514 0)
(-1.42305 0.274805 0)
(-2.05178 -0.0623267 0)
(-1.15647 0.0378612 0)
(-1.95489 0.129577 0)
(-1.23523 -0.200337 0)
(-2.18031 0.134666 0)
(-1.78931 -0.479748 0)
(-1.56717 -0.199263 0)
(-2.02058 0.454524 0)
(-1.84038 0.334509 0)
(-1.18324 0.0599637 0)
(-1.97731 0.110846 0)
(-1.25806 -0.18026 0)
(-2.20974 0.111591 0)
(-2.11619 -0.0365595 0)
(-1.52143 0.263552 0)
(-1.52791 -0.00524917 0)
(-2.42825 -0.101742 0)
(-2.14538 0.440913 0)
(-1.63402 -0.15686 0)
(-1.93871 0.311053 0)
(-1.86213 -0.459263 0)
(-1.42339 -0.416106 0)
(-1.27174 -0.158504 0)
(-2.07027 0.353838 0)
(-1.8799 0.297137 0)
(-2.01007 0.079074 0)
(-2.62027 0.301699 0)
(-2.26958 -0.349386 0)
(-2.26732 0.115368 0)
(-2.60908 -0.258328 0)
(-2.16717 0.102509 0)
(-2.52994 0.381302 0)
(-2.2493 0.0303752 0)
(-2.21016 0.0809749 0)
(-1.18292 0.0838165 0)
(-1.24998 -0.151702 0)
(-1.97646 0.0883531 0)
(-2.59903 0.321317 0)
(-2.10413 0.0596597 0)
(-2.4062 -0.366798 0)
(-2.25406 0.0924346 0)
(-1.22544 -0.263225 0)
(-1.65811 0.447723 0)
(-1.54051 0.373921 0)
(-1.42049 -0.494102 0)
(-1.10194 -0.136899 0)
(-1.9946 0.311575 0)
(-1.22022 -0.361478 0)
(-1.81609 0.277806 0)
(-1.1116 -0.152732 0)
(-1.99306 0.328508 0)
(-1.8168 0.291902 0)
(-1.23614 -0.381466 0)
(-2.07172 0.168636 0)
(-1.13562 -0.231304 0)
(-1.05318 -0.00393861 0)
(-1.86903 0.157295 0)
(-2.08711 0.148698 0)
(-1.05129 0.0130232 0)
(-1.88079 0.140833 0)
(-1.12839 -0.212907 0)
(-1.13867 -0.222785 0)
(-1.74989 0.339208 0)
(-1.28586 -0.455427 0)
(-1.90462 0.391487 0)
(-2.08904 -0.330156 0)
(-2.26785 0.151398 0)
(-2.61604 0.268175 0)
(-1.90298 0.0787082 0)
(-2.0022 -0.139496 0)
(-1.05785 0.0765654 0)
(-1.80135 -0.0875723 0)
(-1.03547 0.232676 0)
(-1.01956 0.100331 0)
(-2.09531 0.0548723 0)
(-1.07672 -0.10535 0)
(-1.88699 0.0661427 0)
(-1.50527 0.470926 0)
(-1.63415 -0.25483 0)
(-1.41483 0.340596 0)
(-1.85686 -0.442807 0)
(-1.9846 0.415712 0)
(-2.10371 -0.101844 0)
(-1.86352 0.117851 0)
(-2.49742 -0.305459 0)
(-2.28397 0.00853202 0)
(-2.21223 -0.130904 0)
(-2.34033 0.291239 0)
(-2.7833 -0.170101 0)
(-1.85674 0.049921 0)
(-2.06166 0.031806 0)
(-1.05469 -0.0595736 0)
(-1.00066 0.132659 0)
(-1.84621 0.391735 0)
(-1.13792 -0.244763 0)
(-1.28803 -0.4737 0)
(-1.69921 0.338099 0)
(-2.65009 -0.247954 0)
(-2.18036 0.105344 0)
(-2.54138 0.374419 0)
(-2.26215 -0.00423353 0)
(-2.70592 0.232749 0)
(-2.29613 -0.301262 0)
(-2.30708 0.0813691 0)
(-2.08489 0.157796 0)
(-2.22078 0.359811 0)
(-1.99621 0.281491 0)
(-1.61738 -0.406695 0)
(-1.44904 -0.114129 0)
(-1.40098 0.430212 0)
(-1.73634 -0.23005 0)
(-1.33749 0.289993 0)
(-1.96651 -0.383154 0)
(-2.10413 0.242862 0)
(-1.13634 -0.0658385 0)
(-1.23982 -0.303857 0)
(-1.89815 0.218027 0)
(-2.12727 0.167919 0)
(-1.1056 -0.00716079 0)
(-1.18931 -0.24351 0)
(-1.91425 0.156564 0)
(-1.44602 0.44501 0)
(-1.72651 -0.236433 0)
(-1.37302 0.303109 0)
(-1.96001 -0.400753 0)
(-1.77505 -0.209678 0)
(-1.32296 0.401542 0)
(-2.00431 -0.341116 0)
(-1.2786 0.259694 0)
(-2.27559 0.0909379 0)
(-2.85092 -0.0483031 0)
(-2.51608 -0.188121 0)
(-2.61977 0.343909 0)
(-2.0622 0.469534 0)
(-1.85694 -0.151299 0)
(-1.88204 0.269877 0)
(-2.15965 -0.433653 0)
(-2.10264 0.475466 0)
(-1.83712 -0.14821 0)
(-1.91078 0.276968 0)
(-2.13921 -0.441592 0)
(-1.82445 0.310497 0)
(-1.19498 -0.178644 0)