/*--------------------------------*- C++ -*----------------------------------*\
| =========                 |                                                 |
| \\      /  F ield         | foam-extend: Open Source CFD                    |
|  \\    /   O peration     | Version:  3.0                                   |
|   \\  /    A nd           | Web:         http://www.extend-project.de       |
|    \\/     M anipulation  |                                                 |
\*---------------------------------------------------------------------------*/
FoamFile
{
    version     2.0;
    format      ascii;
    class       volScalarField;
    location    "27";
    object      Theta;
}
// * * * * * * * * * * * * * * * * * * * * * * * * * * * * * * * * * * * * * //

dimensions      [0 2 -2 0 0 0 0];

internalField   nonuniform List<scalar> 
3012
(
-2.55806
1.77083
4.14675
-0.288991
25.5083
8.73323
-19.7414
-3.40689
-2.55362
3.65564
-2.82812
3.59303
1.01407
-0.698007
2.52011
0.849363
-18.8426
-22.8978
16.7407
22.3069
1.12657
0.0234968
1.74636
0.907779
3.90347
-2.45008
5.29971
-1.73131
-1.55352
3.89503
-0.111038
2.34115
0.459419
2.85007
-0.877237
1.46223
2.54529
7.88618
-6.10066
-1.37523
0.967115
3.11018
1.1579
-0.976702
0.945032
1.07207
-1.1582
3.14955
0.63484
1.49293
0.302709
1.08595
-4.11335
1.70524
1.37892
6.84415
-4.8281
-13.4575
2.50291
11.2708
-13.5881
11.8814
20.775
-4.29583
0.956841
-1.71589
4.1204
1.40518
1.93374
1.05879
0.998073
0.0826882
2.27672
1.24375
0.09801
-0.403182
-0.692004
2.72238
1.80769
0.238424
0.91869
-1.44667
1.12882
3.48745
2.87618
0.813333
1.04703
-0.808656
-0.240795
3.81915
-1.5303
2.56541
2.95416
-1.74029
-0.166639
4.01112
-5.77821
3.9407
-3.34029
6.21951
4.03098
2.06033
0.332504
-1.69831
3.38586
-0.902164
3.08106
-1.06372
2.18787
0.856842
-0.312132
1.13789
-1.04303
3.27835
1.16934
1.08174
2.44407
0.0831506
2.34664
0.196468
-0.825934
-0.0763286
0.866168
2.66616
4.79754
-9.36499
7.13856
-7.05942
26.9631
-28.6966
3.95139
-4.83219
-2.53428
1.77778
9.82777
4.87821
-14.4281
12.2917
22.7961
-7.52263
9.30714
-2.27551
-5.32786
5.28278
6.91781
8.2683
-4.60332
-2.39347
5.65107
-23.0231
-6.0018
20.6735
0.241295
-0.731863
1.80329
2.83611
2.35448
3.34315
-1.16277
-0.145921
2.53873
-0.408499
1.98132
0.0894052
-3.01628
-5.99624
4.8425
7.85545
0.459828
3.0186
-1.06708
1.46005
9.91949
9.54585
-9.28598
-9.64182
-7.90247
11.1829
14.6591
-8.74574
-7.73564
2.59361
8.05523
-1.87778
3.4401
-1.5742
-1.10965
4.11723
-0.17713
2.66965
2.12971
-0.768938
2.30151
-0.197443
2.03851
0.03891
2.04778
3.08162
-1.02449
0.0702396
0.867357
-0.44272
0.810158
2.09284
1.18456
4.5195
-2.12869
1.35645
1.44056
1.22041
1.13389
0.266497
1.11649
1.71907
-0.0141714
1.04375
3.20614
1.41232
0.492609
-1.16701
0.266308
1.04537
0.881788
0.412666
0.170762
-0.247666
1.3895
1.95314
0.912804
1.74303
1.04036
-0.211436
0.926632
0.0503128
1.23824
0.341839
2.9836
2.38957
-0.460608
-1.12433
2.30677
-0.924115
3.15257
-0.072494
-0.231115
3.2311
2.49667
-0.798338
1.63965
-1.73853
0.570289
4.00599
-1.88809
4.18673
3.81542
-1.41658
5.85983
1.66744
-1.90114
1.4999
1.12459
1.97303
0.109431
-0.451004
0.739185
0.0692535
0.636694
1.48395
2.16504
-0.469583
-1.07019
2.82724
1.29729
4.15956
1.02032
-1.83399
1.52635
-1.21945
3.23773
0.413052
-5.1962
2.51511
0.338185
8.32481
0.891334
1.49966
0.195188
1.04853
17.0892
-16.3146
-19.4223
14.4536
-17.1524
23.1368
5.12419
0.127356
-0.38459
-1.94282
2.73917
4.32118
3.03767
-0.706811
-1.6754
4.23606
1.99069
-1.32466
3.45535
-0.0626266
-0.989867
-1.28479
1.53673
0.939826
5.55467
-1.2598
-3.79453
2.57145
3.27945
3.61149
-1.07002
-0.785492
0.537156
1.39859
0.378947
1.36536
-0.00182
-0.863623
2.12302
3.07207
-4.21589
-0.0597902
3.03921
8.66301
2.46883
0.470119
1.5445
-0.506291
2.07576
-0.00866958
2.06554
-0.103539
1.23946
0.591095
1.36099
0.2083
-0.198591
3.49887
-1.23065
2.11678
1.08082
3.51022
1.27695
-1.15271
0.788448
1.93634
-0.10787
0.0593536
0.734308
0.158902
1.91286
1.246
-0.60453
2.57006
2.73734
-0.395578
0.215536
3.23808
-1.11301
1.89776
-0.0187356
2.61815
-1.71076
1.12883
-2.86891
3.69705
6.04176
-0.214279
2.09999
2.05723
-0.364555
-0.160215
-0.449885
0.392964
1.08443
1.8145
-0.0371724
-1.45958
3.63691
2.0851
4.06792
-1.90065
-1.19605
5.10638
3.22994
-1.94278
-2.08665
2.91331
-1.04791
2.37631
-0.260866
3.17204
2.35891
-0.921409
-1.0063
2.27022
0.90311
-1.1468
1.3782
3.35616
-1.69985
-4.90407
9.87224
7.93179
1.64755
-2.94264
1.32067
6.14699
-10.6257
9.02678
-11.0179
8.39367
-0.880238
-0.485962
3.28406
2.78457
1.57128
-0.296384
0.680888
1.83339
-0.266027
2.50378
0.760132
1.001
-1.38306
-0.067671
2.31073
3.66222
-2.12612
1.37622
3.91856
0.214343
-2.64215
2.65564
4.62456
-0.490252
0.00797361
-0.138348
1.8545
-0.0650055
6.04293
0.560937
-3.72258
1.41735
1.33188
1.24959
1.29797
0.734063
-32.9416
5.72443
-8.89739
30.6624
5.46907
2.32615
0.314075
-2.53805
1.20089
1.12154
0.563017
0.530067
8.80002
8.95846
-5.25259
-3.49158
2.84867
5.27532
-2.25931
-0.328442
1.82848
0.246544
0.202091
1.66142
-1.41652
-2.16546
4.84322
4.1148
0.975258
-1.54432
0.916055
3.62943
-21.0256
10.8463
-11.2678
22.2102
1.83613
2.09921
-0.419578
-0.211667
0.790885
-0.691334
1.08335
2.60557
-0.650714
2.49115
1.9573
-1.19578
0.207786
3.41233
-1.11123
1.79428
-21.8842
-19.222
16.2955
20.0161
0.0266132
2.88153
2.36568
-0.657394
5.64719
0.113479
3.0764
-2.7685
-0.315059
2.47571
-0.348418
2.49226
-0.0328498
2.18056
-0.183309
1.96247
2.98565
0.574691
-1.1311
1.45648
23.3132
-22.1634
-5.2168
6.26073
4.17599
3.2576
-1.70736
-0.955009
4.46121
0.588648
1.73896
-2.23515
0.231371
2.38502
-2.72005
5.4407
0.967868
-1.09163
3.08315
1.30265
2.49782
2.85554
-0.826454
-0.527709
0.528416
1.8398
-2.15754
4.61988
0.0133895
2.22072
-1.06042
3.166
0.174345
-1.12649
1.34911
2.67941
1.19657
-0.298986
0.0511204
2.16727
3.60982
2.49674
-0.348992
-1.5026
1.19611
-0.533828
0.390942
2.27562
0.14845
0.941778
1.08542
1.85234
-18.8873
29.3211
-31.7673
16.2237
0.688378
1.94722
-2.33254
5.07604
3.88371
2.16324
-1.66504
0.173482
-0.536978
5.60819
-2.24463
4.52124
-15.4515
19.9912
-10.5516
13.8742
3.58032
-17.0532
1.16864
22.359
-2.02527
2.19913
3.7585
-0.56721
-0.309537
3.3454
2.29808
-1.12614
-3.91424
3.75965
-1.71116
6.05759
1.48503
-0.880156
0.277734
3.0421
0.277517
1.46833
0.549495
1.08452
-3.0316
2.39748
4.04717
-1.2947
1.58857
2.84895
-0.836309
0.879616
1.07372
0.945079
0.538654
0.927638
2.78682
0.0394592
1.61755
-1.16665
15.302
0.806246
5.82934
-8.93505
-2.74055
3.56217
-0.431456
5.53152
-1.66406
-3.53556
4.91143
7.3698
-6.00403
6.90186
-4.09975
11.3443
3.70308
-13.5413
11.1761
-5.12863
11.112
-2.29277
8.42392
-3.6373
-4.17427
4.56565
5.10812
-4.62582
1.22704
1.24171
0.237008
0.370675
-0.310328
5.07695
-2.40928
2.95301
-24.2146
-4.08653
23.9476
4.55067
-1.55242
3.6203
-0.385794
2.47674
5.47419
-2.67685
3.04147
-0.274809
0.769392
1.27695
0.901983
0.888806
4.24399
2.11753
-1.78355
0.324911
1.50892
0.282914
0.183611
0.505351
-17.0834
-20.7108
17.5186
20.8472
2.06047
4.00294
-1.51408
0.225449
3.47674
-1.04188
-0.739388
3.41705
2.85078
0.614401
1.46601
-0.34048
3.39768
2.79024
-1.09315
-0.693994
1.82515
-1.06484
0.58214
3.5226
0.356587
2.22149
1.72412
-0.318148
-9.6665
12.4872
11.1324
-11.721
0.548205
4.06838
1.10572
-2.74398
-2.89918
2.63773
5.30056
-0.00612754
-2.15937
-3.82963
3.09246
4.88563
2.32808
-6.21536
8.95398
0.343889
-0.475661
-2.73591
4.36825
2.50979
0.543588
3.33212
7.41508
-3.99832
2.11987
-0.0708926
2.43233
-0.291564
2.71608
2.08295
-0.208353
-0.77034
-1.9735
1.25284
6.2819
2.08434
1.92318
-0.36873
-0.568766
2.10222
-2.35956
3.1901
5.67236
-0.286357
2.82538
0.150204
1.65154
-0.854351
4.80832
0.441709
2.2283
-2.24948
3.83493
1.21164
-2.0971
0.772179
0.0409501
2.21634
-2.00409
4.28507
-0.442587
0.611928
2.65057
1.44561
1.48371
1.69091
2.72105
-0.392509
3.89271
-1.01344
-1.42763
3.35551
2.2536
-1.27972
2.68158
-0.73332
0.877948
4.5467
1.5095
-2.09845
-1.33042
3.26972
2.51679
-0.511615
3.15227
-1.23176
1.36514
0.380232
-1.08628
3.04709
3.24241
-0.751547
0.767402
1.56892
3.34467
-1.13468
-0.44954
0.168548
2.40855
2.14099
0.954327
1.1165
-12.7871
14.6752
-0.378739
3.13423
2.28201
-1.03265
-4.70108
5.63608
5.8739
-5.208
3.66375
-9.38685
-2.67473
9.68151
2.7735
0.64496
-0.548905
1.33163
8.33207
1.61336
-1.69456
4.72059
2.71578
0.6299
2.19212
6.56755
-0.315578
9.35422
2.48559
-7.71026
-2.85384
3.44634
5.38948
-0.939478
0.864546
0.455737
0.855054
1.18744
1.13146
0.677073
1.00122
0.516838
-5.643
0.865812
5.90034
-0.243682
2.48752
1.84492
-0.575979
0.315313
1.69081
-0.290688
0.015697
2.03364
-2.75261
0.792847
5.76039
8.79706
1.44609
-3.68644
1.54814
6.93771
-1.89594
3.13979
4.61224
-0.563668
-3.52634
6.57815
-0.537646
3.79644
3.14579
2.04017
0.0738339
-0.955078
-0.585452
2.93234
-0.671847
2.99218
1.54982
-3.8314
0.247135
5.75214
2.81497
-0.124546
-0.901373
1.77125
1.02988
-1.19903
3.43702
0.935159
4.48611
-2.21495
0.8824
1.34559
-1.38521
0.843058
0.339082
2.51762
2.84514
-0.719317
-0.629888
2.75271
1.54814
0.625008
3.35557
-1.09053
-0.0106193
-0.967385
2.62714
1.61248
0.405083
1.52787
2.19792
-0.237755
1.30683
-0.512541
1.01446
2.65588
-2.42011
3.94445
-1.80509
4.53187
2.99739
1.13026
0.524917
-1.15134
-1.2133
3.2539
2.68354
-0.587956
2.06991
-0.853374
-0.262663
2.60005
-0.610218
2.77129
0.010331
1.88848
3.73124
-1.63214
-1.45713
3.84437
3.09905
-2.28373
-0.501394
4.89886
1.87206
-1.17141
0.206432
3.39325
3.21558
2.14913
0.0510445
-1.06906
-0.752506
2.89539
1.27243
0.991139
3.63499
2.1283
-0.0678276
-1.62481
9.9647
1.54567
-4.70264
2.62781
0.182836
-0.158517
-10.2202
10.1666
4.87908
0.650129
1.66234
-2.61612
1.10698
2.25259
0.622223
-0.493017
0.727002
-0.429021
2.34899
1.06477
1.48142
-0.974176
3.18163
0.621248
-4.29525
5.71364
4.07613
-2.64048
3.7211
-5.41012
-10.3722
8.69768
1.1425
2.10992
0.624235
-0.341123
1.12029
-1.26154
1.21232
3.51635
0.351325
2.47808
1.63498
-0.425046
-1.07173
2.15129
3.39118
0.0168665
-0.37893
2.87172
2.25805
-1.09651
-0.222232
2.30394
-0.106091
2.07396
15.9437
-8.56188
-5.07503
10.3153
-1.08532
0.211502
3.38014
2.06102
2.69919
-0.216033
-0.450875
2.40881
3.84529
-1.53028
3.26761
-1.22159
3.08426
-0.589418
2.91797
-0.606128
2.65616
1.29964
-0.656808
0.667507
1.12225
3.30486
1.09329
-1.0804
4.22846
-1.7409
0.380991
2.2675
3.33368
-0.987013
2.56163
-0.296747
-0.0489511
1.14854
0.677874
1.87234
1.14654
3.88651
1.21637
-1.56293
3.57085
-1.40653
0.551864
1.577
3.11839
-0.787159
4.19307
-1.86753
-3.51055
-2.88347
4.33406
4.93792
-0.574554
3.71798
2.8177
-1.47754
-0.142761
2.17917
1.62832
0.275944
-0.197813
2.26159
0.874148
1.16396
-0.701728
3.67261
-1.77574
5.37394
0.438598
2.23911
1.40372
-0.313011
3.0171
-0.779095
2.5281
-0.218491
5.51764
3.37971
-3.22382
-0.993884
4.34877
3.2034
-2.05838
-0.966774
-3.29804
10.8443
-12.3383
1.27298
3.44415
1.62079
0.546467
-1.19062
0.416206
0.780673
0.732372
0.40524
0.422226
0.23192
0.999393
1.32358
0.817863
0.188623
0.52724
0.537342
1.15395
-1.48072
1.10201
3.79305
-0.954396
0.385705
0.658258
2.03885
1.7454
-0.0665139
-0.788279
1.0031
1.55734
0.380773
2.70693
-0.704047
-6.03646
3.24235
6.79202
-2.11349
3.14783
-3.52759
7.88135
-7.79984
1.96276
0.608114
1.13679
-0.128787
5.47269
-0.187822
3.60841
-2.73211
0.238075
1.65911
0.315873
1.33762
0.488803
2.9453
1.68253
-0.84642
0.778469
1.19225
0.617703
0.977796
2.94245
1.37359
0.823146
-0.939955
1.62351
0.548655
0.233368
1.00928
-0.539842
-2.32547
3.18782
5.08984
3.25289
-2.25629
3.64228
-1.83776
1.52044
0.735548
0.290463
1.09051
1.35435
5.40575
1.29151
-2.72784
1.88312
-0.662305
-0.0270127
2.61724
2.33786
-1.8738
0.511957
5.05976
-1.82452
-0.829595
4.22072
5.79787
-0.499444
2.40836
0.677605
1.4475
2.21274
-0.0219957
2.04449
-0.0788918
4.82381
-0.651017
4.56075
-1.54868
3.00245
4.52693
-4.15179
-5.98253
4.75578
-2.31189
2.72849
-0.333492
2.00044
-0.727622
0.130786
2.68555
3.06866
0.621044
1.71061
-0.858206
2.51974
0.555039
1.44124
-0.615338
2.19887
0.030239
-0.168528
2.04348
-1.22231
2.0953
3.63193
0.264066
-15.5096
15.3398
13.7675
-15.2538
3.36472
-0.664981
-1.40141
2.87775
2.16077
-2.28388
-0.780246
3.61391
0.522195
0.814909
1.28293
0.815416
-0.600815
1.29704
-1.48528
2.33916
4.37531
-1.36009
-1.72386
4.46328
-0.00209791
2.72877
-0.657518
2.02699
5.28714
0.337189
2.2569
-2.5883
0.127919
1.65173
0.215385
1.42103
3.1412
-0.681648
-1.99154
1.94761
1.69859
-0.829053
2.72823
0.229458
-1.73197
4.04836
-0.384065
2.67422
0.17055
1.4694
0.188955
1.29739
-1.29853
4.66685
-1.9393
4.1257
1.62957
0.598358
1.26893
0.3175
0.0793675
2.01236
2.47171
-0.538309
1.20908
1.93291
0.704481
0.016123
-0.923354
1.10329
0.648019
2.88513
-0.76781
-1.47559
3.84737
3.07444
-0.0714013
-0.0789
1.45547
1.56009
0.0096044
1.11047
1.5915
0.458802
1.97337
-0.177325
0.338028
0.970009
-1.76662
0.696199
0.123964
2.67135
2.54709
5.26446
-2.28792
0.485759
17.7134
-11.3436
11.0983
-6.10959
2.24241
0.998912
-0.332057
0.471785
8.41274
-17.6223
23.9031
-2.83341
-5.59574
-1.0826
9.32678
4.78751
2.95103
-2.56348
-0.178556
5.02329
1.35937
0.354719
-1.01275
2.76702
1.05378
0.997947
-0.470268
2.59975
0.120237
1.42858
2.1624
-0.430893
0.578856
0.432769
1.45507
1.24073
1.55949
0.857562
0.165997
0.892987
1.52814
0.478793
5.04074
-1.94716
1.62312
1.99041
-0.0317166
-0.289016
3.29339
-1.03019
-0.900208
3.39192
7.88015
19.682
-13.6492
-2.35067
-2.01943
3.66621
3.87896
-2.25396
-21.0524
9.42447
19.1183
-12.9554
4.99219
2.62552
1.80053
7.27416
3.06275
-0.667959
2.75239
-0.793537
0.24665
-2.36962
2.75306
5.18873
1.80886
-1.27416
2.43092
-0.644374
1.69929
-0.768635
2.85439
0.546735
-1.11716
3.45782
0.391445
1.83413
0.172576
1.27401
0.454554
1.18978
-1.45581
4.33501
-1.85085
4.45364
0.0705894
0.513857
1.2984
1.06658
-1.88757
4.02568
-1.45812
4.66709
1.92719
-0.554795
2.5331
0.22465
2.01454
-1.83463
4.26371
0.28682
3.30744
3.70994
-1.09451
-1.45097
-0.402407
0.6179
2.50165
1.40771
0.795979
0.700616
-0.910978
2.44037
4.89888
1.96302
-2.96128
0.230336
3.20639
1.33559
-1.11483
0.715254
2.48592
-2.04838
3.5493
-0.727231
5.66493
-4.29859
0.232302
1.16484
3.48183
0.595726
1.59443
-1.51196
1.53574
-0.455328
-2.19624
3.43543
0.195881
-0.220044
1.83818
2.30592
-20.3827
-3.78237
18.3155
3.01525
2.63804
-0.477233
2.14465
-0.0681679
1.12433
0.577018
1.88661
-0.101834
0.242224
0.0744935
1.55003
1.70066
0.896454
-0.439388
2.60599
1.15283
1.95433
0.325129
2.54259
-0.467831
0.461823
0.661454
1.35492
1.25055
-21.6027
15.1233
-12.348
21.9883
0.396183
0.356385
1.37367
1.11305
1.62155
-0.123328
-0.246764
2.00317
1.49516
0.0879622
1.89662
0.696645
0.22606
0.459583
1.30814
0.94775
0.32667
2.00465
1.83893
0.175375
-0.175921
1.43555
2.1281
0.411979
-0.761879
2.36047
3.08784
-0.175473
0.614549
0.273518
0.758108
1.16795
1.07678
0.826257
2.92367
-0.797258
-1.61489
-2.06516
6.25724
6.52285
-0.60281
-0.121163
2.25645
2.71348
1.04711
-2.12952
4.67746
1.09839
-1.27788
0.184153
2.00622
3.33519
-0.00205257
1.75867
0.308528
1.06923
-0.934418
3.12892
0.779954
1.56656
1.74913
-0.109729
0.789872
0.679902
-0.452991
2.9657
-1.13474
2.21459
1.85053
-0.0292099
-1.06713
2.9901
-0.462244
3.44165
-1.01351
2.76967
-2.25531
0.872988
1.60133
4.7507
-6.0983
-24.2535
6.47906
25.6753
0.158517
-0.239405
5.21592
4.78756
3.87568
-1.68306
-0.259056
2.15213
5.26716
2.31301
0.681136
-2.66598
3.18694
3.63002
-0.939649
-1.43018
-1.06895
2.74175
2.44357
5.70564
2.97781
-3.39239
5.10412
-1.4168
0.0752559
2.67024
-2.14395
5.29931
-0.747063
-0.377839
2.74301
0.815748
1.91709
0.683125
1.3217
0.19024
-1.70325
1.42012
-0.435586
2.5557
-2.55659
1.76377
1.02416
5.83112
-0.637809
2.36352
0.829395
0.890228
3.38501
3.00636
-1.27556
-1.03809
-0.838405
3.09343
1.9459
0.369461
2.10102
-4.04864
-0.581995
5.5113
-1.51358
-0.575119
3.53716
2.85462
2.44489
-0.0684135
2.03859
-0.444516
2.25643
-0.663411
2.84156
-0.452242
-0.575031
1.75059
0.669381
2.89993
1.81621
-0.783772
0.211305
2.77917
3.68532
-1.57497
0.53006
1.53087
4.99554
-1.65928
-1.41191
4.80924
-0.279984
-0.339704
2.25219
2.4152
1.64496
-0.640697
2.78385
0.364213
-1.14638
1.81909
3.56222
0.467495
-1.00477
-2.08537
3.37375
4.56232
-1.0105
1.01173
3.24365
1.14638
2.11283
-1.06774
1.60125
-1.3876
-0.652221
-2.30359
4.26405
5.43779
1.86879
0.929791
-2.98322
5.85452
1.22641
-0.236968
2.38145
-0.19233
3.60668
-1.38542
3.53591
-1.73181
-0.187576
1.16735
2.15674
0.741355
4.18962
-2.10874
1.41333
0.488199
3.5666
-1.46719
1.91289
0.529248
-4.96029
-4.43165
6.75997
6.14008
4.36488
-2.13489
1.5563
0.599104
0.425923
-1.92625
3.34483
1.28533
-3.10805
7.75229
-4.56424
6.07667
-0.623006
3.69363
-1.61721
2.31183
2.3446
5.30973
-2.36817
0.391684
-1.72526
4.07495
1.33463
0.785501
-12.2099
7.00768
-7.9382
12.6598
2.48817
0.962799
0.95674
-0.440904
-0.24904
1.69066
2.27788
0.385001
0.414527
0.381843
1.46209
1.25724
0.928615
0.927545
1.83559
-0.0126282
3.14299
-1.79293
2.20481
-1.09809
-0.117039
2.20756
2.99349
-0.785233
-2.03424
4.09432
2.36964
0.114534
-0.98287
3.08031
2.1451
-0.180955
0.978053
1.93444
-0.178471
0.776067
-0.536321
1.70912
3.44911
-2.19098
2.85172
-0.577029
4.96373
1.93151
2.55399
-0.610221
2.75208
-0.437887
0.16032
3.05995
1.67999
-0.558909
1.55839
0.914331
0.61868
3.48948
-0.82458
1.90244
0.526201
3.08878
2.49212
0.822329
-0.567003
1.51411
-0.114131
2.05631
-0.020986
2.34301
0.509225
-0.720335
1.57708
2.80451
3.3962
-1.55239
0.628594
1.01918
2.14512
-0.0619978
0.576491
1.35024
-0.430014
-0.777392
2.90639
2.57458
1.98105
0.248234
0.131343
1.8565
4.23243
-2.68059
3.77451
-3.0654
2.24279
3.11708
-0.0121945
-1.07034
5.97625
0.135102
3.45611
-1.21647
2.22497
-0.431138
-4.9876
6.44326
-2.26113
2.85674
-0.690776
4.65117
-0.721963
2.97748
2.69854
-1.05943
3.68124
1.27905
0.665093
-1.77278
1.29166
3.19588
-1.31769
0.472594
-6.15633
3.54241
-2.18916
7.67571
2.86493
-1.81339
4.85773
-0.349683
5.64531
1.13441
1.60197
-2.76622
-3.91637
1.9381
1.32219
7.12837
1.6713
0.00291491
5.10072
3.24471
0.202913
2.66686
1.4119
-1.0449
1.45777
-2.04969
3.78404
0.247493
-0.656969
1.07661
2.81436
1.04851
3.2028
-0.289687
2.57535
-0.956053
-1.33626
1.4345
3.60492
0.75942
0.393097
2.5927
-0.499138
1.82962
0.472336
1.95395
-0.0345701
1.84078
-3.86521
9.36656
5.65177
-7.01873
0.545757
1.9554
1.41878
0.0154747
0.479574
0.266141
1.50094
1.71855
0.341734
1.69865
2.61216
-0.540775
-0.134097
2.09142
2.18044
-0.0142185
1.97236
1.88843
-0.1553
-0.194596
1.41291
-0.611692
2.36218
0.355929
-0.333358
2.21534
2.32211
-0.266426
-3.25879
2.78372
0.254624
6.37863
5.69674
-1.31399
5.16641
-2.26323
3.63497
-0.641173
1.27788
-2.79568
1.61125
0.16884
-1.491
3.49022
0.771513
0.275657
1.52379
0.874767
0.554955
1.4484
1.2994
0.404654
2.54545
1.44864
0.127143
-0.921907
-1.28395
5.84126
-2.69333
4.63642
-0.0996607
2.17857
3.26714
-1.26842
-0.348256
0.714224
5.65751
-4.65875
2.2001
1.95254
6.46544
-2.3916
-2.87421
2.61264
0.605982
6.25249
-0.892782
1.60432
3.57102
-2.7945
-14.0358
23.803
11.8237
-26.1437
-0.350252
3.32675
4.76153
6.55877
-0.971957
3.31777
3.44411
-1.18067
0.718053
4.6856
0.292644
-3.3467
-1.17871
3.20696
1.45578
0.402906
3.08122
-3.46347
5.0643
-1.77354
3.92585
-0.93545
-2.25417
2.2281
2.81208
-0.533131
2.28713
-1.15036
3.08828
1.53251
-0.995154
0.546735
2.59167
-0.612926
-0.979186
3.10269
1.21807
-5.62271
5.75054
-1.26792
1.31754
-0.370837
0.699551
2.24322
-0.198041
1.71607
-0.402585
1.69089
-0.741541
1.08571
0.329373
2.04528
0.0146121
-0.29808
2.3279
2.5147
-0.0403237
1.9576
2.15237
0.0464795
1.68771
2.61301
-0.552529
0.273205
4.75954
-2.43192
1.07458
1.19458
-4.50233
-9.82788
10.1581
5.01992
0.0133782
-1.69539
4.10254
2.34504
0.308616
3.82875
2.33641
-1.58634
-4.5436
5.28659
-4.50571
5.48202
2.07942
1.20107
-0.409799
1.06901
2.1845
-0.114031
0.480217
1.60982
-1.42128
3.40488
-2.15828
2.66736
-0.238286
13.8218
4.14734
-9.2323
-19.1975
5.97297
-4.62701
19.8391
-1.48354
-0.977535
2.6691
3.30652
4.97162
0.391756
2.30277
-1.70847
0.874177
-3.36047
6.51961
2.15793
7.94274
-0.128904
1.22586
-7.09256
3.73527
-4.16239
-3.16128
4.88351
-0.922432
1.95935
2.96078
-0.0352645
0.858606
0.685578
0.151054
1.52034
0.0649486
2.50408
1.83502
-0.441354
4.22677
1.49311
0.407693
-2.46347
-0.408619
2.59731
-0.220733
2.55432
0.867118
-0.503308
1.28931
2.53188
2.41501
-1.42804
3.45845
-0.462971
3.50103
-1.53061
4.03448
-1.11078
0.257297
2.1438
1.58286
-0.273658
-27.4315
8.72609
-11.1344
25.8344
2.29475
-0.300869
2.28003
-0.242979
0.345775
3.48329
-1.71015
1.4955
2.71157
-0.519651
1.39805
0.77714
6.99739
2.4511
-3.002
1.63163
0.872744
-0.181604
2.14734
1.12053
1.97698
0.212798
0.0702642
1.5708
1.95574
-0.851908
2.84755
0.0105818
2.75384
-0.833279
2.08885
-0.190762
-9.80168
12.3208
15.4672
-3.94025
-2.35053
4.10925
-0.843059
2.80695
5.24476
-2.08889
3.74477
-1.08156
5.36888
0.789745
-3.48945
1.66508
2.2238
-3.7869
-0.70761
5.47464
-6.75125
-24.2565
5.19342
21.3458
-2.13446
2.10797
4.2332
0.350798
-3.56192
-2.77876
4.55629
3.81148
-4.44956
-0.202827
3.06155
8.45295
1.62693
0.310849
1.43337
0.371956
-4.23876
4.15927
-3.86166
4.06579
-1.24605
2.65326
2.48647
-0.937244
0.678674
0.264129
1.50549
0.888974
0.406826
-1.86008
4.3498
2.04384
-1.05489
3.90205
3.20733
-1.48663
-2.91051
3.178
-0.904734
4.99788
2.69664
3.63364
-0.510755
-1.45447
3.09736
3.61884
-0.864046
-1.22277
-0.113629
3.87065
-1.86285
1.9675
1.74537
0.00362827
0.846688
1.10719
0.0807879
-1.49756
3.87365
2.09808
-2.63117
1.29899
1.1202
4.62089
-1.22125
-0.850711
3.51484
3.75436
8.20236
0.117581
3.32599
-3.77708
2.24238
4.06573
-1.82752
0.265016
2.80608
1.78929
0.157333
-0.809785
0.792201
0.930723
3.15853
-1.31408
-0.644008
2.29535
2.90539
-0.174125
-0.607899
2.60847
2.83341
-0.289817
1.43523
25.0192
4.86899
-18.4626
3.19209
0.0583264
1.84274
-1.32998
2.79566
-2.8599
5.7092
-0.65334
0.628517
4.14426
1.45258
-1.76428
-0.792294
5.81745
-2.57813
3.75974
0.462967
1.32579
0.513056
1.45059
1.6551
0.142599
1.11058
0.654926
-1.6666
2.02017
-1.66335
2.26457
5.15471
-1.39267
4.67154
-1.28858
4.106
-1.852
-0.172124
2.46628
4.84311
1.25626
-3.93362
-0.687365
4.77571
-0.938617
-2.27129
3.26849
2.25272
6.2366
-1.09347
-4.11504
-1.86475
1.95388
3.88095
-0.0339874
6.92915
-4.93711
-1.86976
4.1142
0.167388
3.70336
-1.67084
1.68098
2.85319
-1.48281
-4.65082
5.9484
-2.61952
1.05686
6.00336
2.13154
11.3991
-16.1598
-10.5994
17.5772
-0.63255
10.4051
5.51482
-0.816814
2.4999
-0.304883
2.04635
-0.661513
2.75891
1.38123
-0.727799
0.551163
2.01173
4.32206
-3.50728
-1.32773
4.34802
4.81415
-1.11501
-0.817512
-0.298683
3.65429
-2.12838
1.72831
2.37349
5.34713
0.610807
-2.46584
5.87989
-0.173103
1.95386
-3.72823
-4.56865
3.03366
6.30696
-1.33253
3.62336
1.635
0.546405
-1.71007
0.345554
2.59729
1.8081
-0.458308
-0.314405
1.9809
0.163856
2.48081
5.99931
1.27104
2.23569
-2.45552
15.7015
-23.1142
21.1638
-17.7437
0.822509
-1.1253
3.4615
1.52241
1.74142
0.17044
2.30843
-0.12382
2.64647
1.4111
1.00636
-0.432581
-0.545891
2.7866
2.9209
-0.723752
1.80807
-1.43268
0.380036
3.57731
0.299387
1.39719
-1.25616
3.30519
-0.976695
0.69129
3.14025
1.4784
1.84914
0.553723
0.0524022
1.81519
1.87741
-0.00215306
1.99005
0.0854317
2.4945
-0.0332836
-0.362623
2.1664
-1.24522
4.18613
3.4433
-1.81939
3.13027
2.07321
-0.957069
-2.32248
-23.3011
9.07236
-7.74583
24.2439
2.20077
-2.41006
4.52098
0.0472248
0.498777
1.35861
-1.54191
3.63296
0.454848
-1.30506
3.42268
1.75745
1.71775
0.509565
-1.80573
4.05418
-0.517365
1.10524
2.63595
0.547453
-0.988639
3.02672
1.43725
0.552942
3.67501
-1.54274
0.794261
1.53867
1.52544
-0.250135
3.58568
-2.42599
-1.24768
0.4293
1.97877
3.47653
-1.74985
2.86867
-0.59281
4.12909
2.71946
-0.676674
3.1475
-0.9669
2.8482
-0.0344846
-0.731478
2.0498
0.504342
2.14053
-2.80502
5.55034
8.24143
1.62597
-5.77147
1.4314
5.8696
-3.02758
4.76298
-3.92928
-2.25793
-1.13252
4.85008
3.82453
-1.57102
3.6975
2.83123
-0.665334
5.12123
14.043
-9.50755
-1.09768
4.47068
7.38449
-1.88355
-3.61466
-4.29235
5.11424
5.37502
-4.52966
0.00726104
0.0204974
1.98853
1.95185
-0.555887
2.46627
1.49452
0.43384
0.299343
1.83488
4.06227
-1.78934
-2.55425
1.0989
5.1658
1.59275
-2.83715
-0.294939
2.99573
5.57073
-2.49586
2.59401
4.35773
-0.898875
2.17593
3.92529
-0.082677
-1.83173
4.64642
1.15574
1.23251
-2.27828
2.74817
-2.61802
2.56894
7.9815
-1.0147
0.764721
3.01495
1.20602
2.06944
2.34483
-0.343715
0.086129
-0.791917
2.80302
1.26081
0.54472
3.8808
-2.26046
-2.77955
3.16324
-1.44343
-0.238729
1.9402
3.30252
2.09756
-0.269907
-0.385944
2.05254
0.417984
2.22731
-0.303394
1.62697
5.1595
1.07971
2.01195
-2.23094
2.03585
0.83401
-0.101899
1.04871
-0.413086
1.6932
2.41373
0.186244
-19.1321
-17.8735
14.697
17.5836
0.854758
-0.36109
2.10152
0.844603
-1.71211
0.458106
1.7297
4.14189
-1.33071
2.97584
-0.752235
3.4411
-1.53344
3.06727
4.31128
-0.602128
4.54556
-2.68626
-2.71166
4.69605
5.91231
-0.589637
-2.35933
3.48738
5.95567
0.626053
2.4103
-2.30412
3.0578
-1.1688
3.58061
-0.705343
0.492555
1.37474
2.7233
-0.736729
1.45739
-0.428002
0.522647
2.46208
1.71647
2.4221
-0.283486
-0.417008
1.67235
0.295178
0.0624611
1.453
2.10193
-4.42547
-0.487922
6.76587
0.256214
0.7066
1.03167
1.42916
1.23517
0.653823
0.0277538
0.604477
4.42748
-1.60126
-2.42124
5.28776
0.226059
0.96839
1.12544
0.322498
6.15711
0.192702
2.6371
-3.27262
-27.2578
1.65174
24.3184
-4.17195
-0.107719
2.38457
2.05097
-0.417209
4.55452
3.48778
-1.90807
-0.316401
2.51621
-0.519962
0.125829
1.86779
2.98463
0.446891
1.37664
-1.03459
0.898027
3.28067
0.700024
-1.55086
4.79261
0.11161
-2.32741
2.34116
7.78035
1.82227
0.619435
-4.26653
4.01624
-1.51985
3.70114
-1.4056
2.89489
-4.0093
-0.746631
5.89582
2.49465
1.28465
-0.444507
0.895728
2.63083
0.165981
-1.1048
1.36705
1.07476
-1.85155
3.30573
0.553895
-2.5939
3.48907
3.5069
-2.04784
4.30284
-0.99424
3.40467
-1.7544
-1.85282
4.16831
1.89846
0.277392
4.25159
-2.0873
1.51545
0.648406
0.852685
2.07597
-0.479781
0.835097
5.05881
3.63692
-0.750646
-1.70386
-1.91567
0.461645
1.7283
4.21701
3.68616
-1.31886
-0.776397
2.95917
-0.158672
-3.76583
6.67353
2.42581
0.618233
1.31733
2.67505
-0.707846
-3.16481
5.10244
3.77924
-4.36543
0.50256
0.776876
1.2527
0.672344
-0.00387916
1.27533
1.82318
0.54595
0.00710787
2.32245
-2.28909
4.55125
0.7691
1.08981
-0.7755
2.67081
-6.95539
4.24463
9.21937
-0.699234
6.70566
-4.99078
8.67296
-2.48293
2.9027
4.8211
-0.357434
-2.35175
6.12948
-0.18071
1.32359
-4.36351
8.99225
-5.10704
2.26524
1.13952
2.65992
2.55342
-1.49587
-0.890388
-2.2025
6.87167
3.76203
-5.45305
4.20709
-3.11338
-0.794261
7.06497
-1.16937
-1.44978
3.53786
3.85836
4.2942
-1.83244
-1.27614
3.75996
3.25592
-1.9328
-1.26187
3.82963
0.910003
0.595393
1.46532
-0.0466709
1.5478
0.963785
0.607131
0.0827405
0.00095966
2.13873
-1.40853
3.73426
-0.866501
3.08751
-0.74693
2.9521
-3.91048
-3.26501
4.89269
4.45381
2.20819
0.00853558
-0.403046
1.65954
2.68511
0.52778
1.63697
-0.622779
2.21032
-0.343542
1.62887
0.254753
2.15493
-0.288243
2.41079
-0.567002
3.54986
-1.2298
3.082
-1.61105
5.68891
-1.34831
4.73667
-2.90916
-5.75111
7.5741
-4.58517
5.38482
0.385855
1.88551
-2.67496
5.13569
)
;

boundaryField
{
    insideCircle
    {
        type            myTemperature;
        value           nonuniform List<scalar> 
24
(
4.99219
2.23274
1.22289
7.53405
-2.68365
-0.872787
6.91858
5.4498
0.373428
-0.60864
5.32468
4.7816
-1.12795
2.27493
3.06102
6.07397
3.21235
0.0663381
5.61262
1.97736
1.6574
-0.0868895
5.22209
3.3696
)
;
    }
    outsideCircle
    {
        type            myTemperature;
        value           nonuniform List<scalar> 
124
(
2.44406
0.326493
1.68141
-0.301723
0.704425
1.55589
2.15323
1.70015
1.28348
0.248475
0.435498
2.43577
-0.102917
1.90295
1.17207
1.20038
2.32145
1.0243
1.34272
-0.767313
-0.461794
0.687798
2.51659
1.51916
1.10672
-0.40695
2.57475
-0.691348
-0.123725
-0.255691
2.44888
1.77101
2.47159
0.794354
-0.433893
1.3882
0.951785
-0.00924353
2.27797
1.03218
-0.467254
1.05659
2.50399
1.07797
0.226661
-0.374214
1.89754
2.61765
0.88265
-0.699316
2.75574
1.21385
1.91552
0.0990425
2.26848
-0.166258
0.499664
2.01897
2.00162
-0.259411
-1.77729
-1.47363
4.16078
0.371784
2.64579
0.574515
-0.240336
1.40818
-0.418453
2.18181
-0.0198285
2.55672
2.29258
-0.252279
0.618509
1.57557
1.87781
-0.0451954
0.0649166
1.91934
-0.738412
0.83771
2.8511
1.33367
-0.0119498
2.57046
-0.402783
2.14361
-0.0845462
-0.167263
1.90125
2.32943
1.91903
2.58999
-0.310284
0.416417
2.44505
0.711103
0.0397545
1.0195
2.05829
-0.0863525
0.559627
1.44671
2.41665
-0.486876
1.33744
0.727155
0.171969
2.51785
1.91464
-0.337967
-0.267403
2.07542
-0.0179534
2.472
2.23561
0.149373
2.40026
-0.412555
2.6335
1.10386
0.608473
-0.6265
)
;
    }
    topAndBottom
    {
        type            empty;
    }
}


// ************************************************************************* //
