/*--------------------------------*- C++ -*----------------------------------*\
| =========                 |                                                 |
| \\      /  F ield         | OpenFOAM: The Open Source CFD Toolbox           |
|  \\    /   O peration     | Version:  2.2.0                                 |
|   \\  /    A nd           | Web:      www.OpenFOAM.org                      |
|    \\/     M anipulation  |                                                 |
\*---------------------------------------------------------------------------*/
FoamFile
{
    version     2.0;
    format      ascii;
    class       volVectorField;
    location    "0.8";
    object      s;
}
// * * * * * * * * * * * * * * * * * * * * * * * * * * * * * * * * * * * * * //

dimensions      [0 1 -1 0 0 0 0];

internalField   nonuniform List<vector> 
1600
(
(2.02167 0.0794337 0)
(1.69264 0.0665044 0)
(1.446 0.0568137 0)
(1.25313 0.0492353 0)
(1.09741 0.043117 0)
(0.968401 0.0380483 0)
(0.859281 0.033761 0)
(0.765397 0.0300723 0)
(0.68348 0.0268538 0)
(0.611169 0.0240127 0)
(0.54672 0.0214805 0)
(0.488818 0.0192055 0)
(0.436458 0.0171483 0)
(0.388858 0.0152782 0)
(0.345403 0.0135708 0)
(0.305601 0.012007 0)
(0.26906 0.0105713 0)
(0.235457 0.0092511 0)
(0.20454 0.00803636 0)
(0.176272 0.00692572 0)
(2.0092 0.237809 0)
(1.68221 0.199103 0)
(1.43709 0.170091 0)
(1.2454 0.147403 0)
(1.09064 0.129086 0)
(0.962431 0.113911 0)
(0.853983 0.101075 0)
(0.760678 0.090032 0)
(0.679266 0.0803963 0)
(0.607401 0.0718905 0)
(0.543349 0.0643095 0)
(0.485805 0.0574986 0)
(0.433768 0.0513397 0)
(0.386461 0.0457406 0)
(0.343273 0.040629 0)
(0.303717 0.0359472 0)
(0.267401 0.031649 0)
(0.234006 0.0276964 0)
(0.203279 0.0240596 0)
(0.175185 0.0207345 0)
(1.98435 0.394716 0)
(1.6614 0.330474 0)
(1.41931 0.28232 0)
(1.23 0.244662 0)
(1.07715 0.214259 0)
(0.950526 0.189071 0)
(0.84342 0.167767 0)
(0.751269 0.149437 0)
(0.670864 0.133443 0)
(0.599888 0.119325 0)
(0.536629 0.106742 0)
(0.479796 0.0954372 0)
(0.428402 0.0852145 0)
(0.381681 0.075921 0)
(0.339027 0.0674366 0)
(0.29996 0.0596658 0)
(0.264094 0.0525315 0)
(0.231111 0.0459709 0)
(0.200765 0.0399345 0)
(0.173018 0.0344154 0)
(1.94726 0.549189 0)
(1.63035 0.459807 0)
(1.39279 0.392808 0)
(1.20701 0.340412 0)
(1.05702 0.298111 0)
(0.932762 0.263066 0)
(0.827657 0.233423 0)
(0.737229 0.20792 0)
(0.658327 0.185667 0)
(0.588677 0.166024 0)
(0.526599 0.148516 0)
(0.470829 0.132787 0)
(0.420396 0.118564 0)
(0.374547 0.105633 0)
(0.332691 0.0938285 0)
(0.294354 0.0830165 0)
(0.259158 0.0730902 0)
(0.226792 0.063962 0)
(0.197012 0.0555632 0)
(0.169785 0.0478842 0)
(1.89817 0.700276 0)
(1.58924 0.586305 0)
(1.35767 0.500874 0)
(1.17658 0.434064 0)
(1.03037 0.380124 0)
(0.909246 0.335439 0)
(0.806792 0.297641 0)
(0.718643 0.265121 0)
(0.64173 0.236747 0)
(0.573836 0.211699 0)
(0.513324 0.189375 0)
(0.458959 0.169319 0)
(0.409797 0.151182 0)
(0.365105 0.134694 0)
(0.324304 0.119642 0)
(0.286934 0.105855 0)
(0.252625 0.0931982 0)
(0.221075 0.0815587 0)
(0.192046 0.0708494 0)
(0.165504 0.0610578 0)
(1.83737 0.847044 0)
(1.53834 0.709188 0)
(1.31419 0.605851 0)
(1.1389 0.525039 0)
(0.997372 0.459795 0)
(0.880125 0.405743 0)
(0.780952 0.360024 0)
(0.695626 0.320688 0)
(0.621177 0.286366 0)
(0.555457 0.256069 0)
(0.496883 0.229066 0)
(0.44426 0.204806 0)
(0.396673 0.182869 0)
(0.353411 0.162925 0)
(0.313917 0.144718 0)
(0.277744 0.128042 0)
(0.244534 0.112732 0)
(0.213994 0.0986526 0)
(0.185895 0.0856987 0)
(0.160204 0.0738549 0)
(1.76525 0.988591 0)
(1.47796 0.827699 0)
(1.26261 0.707094 0)
(1.09419 0.612777 0)
(0.958222 0.53663 0)
(0.845578 0.473546 0)
(0.750297 0.420187 0)
(0.668321 0.374278 0)
(0.596794 0.334221 0)
(0.533654 0.298861 0)
(0.477379 0.267345 0)
(0.426821 0.239031 0)
(0.381102 0.213427 0)
(0.339539 0.190151 0)
(0.301595 0.168901 0)
(0.266842 0.149438 0)
(0.234935 0.13157 0)
(0.205594 0.115138 0)
(0.178598 0.10002 0)
(0.153915 0.0861966 0)
(1.68224 1.12404 0)
(1.40846 0.941106 0)
(1.20323 0.803977 0)
(1.04274 0.696737 0)
(0.913164 0.610157 0)
(0.805817 0.53843 0)
(0.715017 0.477759 0)
(0.636895 0.42556 0)
(0.568731 0.380014 0)
(0.508561 0.339809 0)
(0.454932 0.303976 0)
(0.406751 0.271782 0)
(0.363182 0.24267 0)
(0.323573 0.216205 0)
(0.287413 0.192043 0)
(0.254294 0.169914 0)
(0.223888 0.149597 0)
(0.195927 0.130914 0)
(0.1702 0.113724 0)
(0.146678 0.098007 0)
(1.58887 1.25256 0)
(1.33028 1.04871 0)
(1.13645 0.895903 0)
(0.984861 0.776402 0)
(0.862477 0.679922 0)
(0.761088 0.599994 0)
(0.675328 0.532386 0)
(0.601543 0.474218 0)
(0.537163 0.423465 0)
(0.480332 0.378663 0)
(0.42968 0.338732 0)
(0.384174 0.302858 0)
(0.343023 0.270417 0)
(0.305613 0.240926 0)
(0.27146 0.214002 0)
(0.240179 0.189342 0)
(0.211461 0.166702 0)
(0.185051 0.145883 0)
(0.160753 0.126727 0)
(0.138536 0.109213 0)
(1.48569 1.37336 0)
(1.2439 1.14985 0)
(1.06265 0.982305 0)
(0.920909 0.85128 0)
(0.806472 0.745495 0)
(0.711667 0.657858 0)
(0.631476 0.58373 0)
(0.562482 0.519953 0)
(0.502282 0.464305 0)
(0.449142 0.415182 0)
(0.401779 0.3714 0)
(0.359227 0.332066 0)
(0.320749 0.296497 0)
(0.285768 0.264161 0)
(0.253833 0.23464 0)
(0.224583 0.207602 0)
(0.19773 0.182779 0)
(0.173035 0.159952 0)
(0.150314 0.138949 0)
(0.12954 0.119746 0)
(1.37336 1.48569 0)
(1.14985 1.2439 0)
(0.982305 1.06265 0)
(0.85128 0.920909 0)
(0.745495 0.806472 0)
(0.657858 0.711667 0)
(0.58373 0.631476 0)
(0.519953 0.562482 0)
(0.464305 0.502282 0)
(0.415182 0.449142 0)
(0.3714 0.401778 0)
(0.332066 0.359227 0)
(0.296497 0.320748 0)
(0.264161 0.285768 0)
(0.23464 0.253832 0)
(0.207602 0.224583 0)
(0.182779 0.197729 0)
(0.159952 0.173035 0)
(0.138949 0.150314 0)
(0.119746 0.12954 0)
(1.25256 1.58887 0)
(1.04871 1.33028 0)
(0.895903 1.13645 0)
(0.776402 0.984861 0)
(0.679922 0.862477 0)
(0.599994 0.761088 0)
(0.532386 0.675328 0)
(0.474218 0.601543 0)
(0.423465 0.537163 0)
(0.378663 0.480332 0)
(0.338732 0.42968 0)
(0.302858 0.384173 0)
(0.270417 0.343023 0)
(0.240926 0.305613 0)
(0.214002 0.27146 0)
(0.189342 0.240179 0)
(0.166702 0.211461 0)
(0.145883 0.185051 0)
(0.126727 0.160753 0)
(0.109213 0.138536 0)
(1.12404 1.68224 0)
(0.941106 1.40846 0)
(0.803977 1.20323 0)
(0.696737 1.04274 0)
(0.610157 0.913164 0)
(0.53843 0.805817 0)
(0.477759 0.715017 0)
(0.42556 0.636895 0)
(0.380014 0.568731 0)
(0.339809 0.508561 0)
(0.303976 0.454932 0)
(0.271782 0.406751 0)
(0.24267 0.363182 0)
(0.216205 0.323573 0)
(0.192043 0.287413 0)
(0.169914 0.254294 0)
(0.149597 0.223888 0)
(0.130914 0.195927 0)
(0.113724 0.1702 0)
(0.0980069 0.146678 0)
(0.988591 1.76525 0)
(0.827699 1.47796 0)
(0.707094 1.2626 0)
(0.612777 1.09419 0)
(0.53663 0.958222 0)
(0.473546 0.845578 0)
(0.420187 0.750297 0)
(0.374278 0.668321 0)
(0.334221 0.596794 0)
(0.298861 0.533654 0)
(0.267345 0.477379 0)
(0.239031 0.426821 0)
(0.213427 0.381102 0)
(0.190151 0.339539 0)
(0.168901 0.301595 0)
(0.149438 0.266841 0)
(0.13157 0.234935 0)
(0.115138 0.205594 0)
(0.10002 0.178598 0)
(0.0861966 0.153915 0)
(0.847044 1.83737 0)
(0.709188 1.53834 0)
(0.605851 1.31419 0)
(0.525039 1.1389 0)
(0.459795 0.997371 0)
(0.405743 0.880125 0)
(0.360024 0.780952 0)
(0.320688 0.695626 0)
(0.286366 0.621177 0)
(0.256069 0.555457 0)
(0.229066 0.496883 0)
(0.204806 0.444259 0)
(0.182869 0.396672 0)
(0.162925 0.353411 0)
(0.144718 0.313917 0)
(0.128042 0.277744 0)
(0.112732 0.244534 0)
(0.0986526 0.213994 0)
(0.0856987 0.185895 0)
(0.0738548 0.160203 0)
(0.700276 1.89817 0)
(0.586305 1.58924 0)
(0.500874 1.35767 0)
(0.434064 1.17658 0)
(0.380124 1.03037 0)
(0.335439 0.909246 0)
(0.297641 0.806792 0)
(0.265121 0.718643 0)
(0.236747 0.64173 0)
(0.211699 0.573836 0)
(0.189375 0.513323 0)
(0.169319 0.458959 0)
(0.151182 0.409797 0)
(0.134694 0.365105 0)
(0.119642 0.324304 0)
(0.105855 0.286933 0)
(0.0931982 0.252625 0)
(0.0815587 0.221074 0)
(0.0708493 0.192046 0)
(0.0610577 0.165504 0)
(0.549189 1.94726 0)
(0.459807 1.63035 0)
(0.392808 1.39279 0)
(0.340412 1.20701 0)
(0.298111 1.05702 0)
(0.263066 0.932761 0)
(0.233423 0.827657 0)
(0.20792 0.737228 0)
(0.185667 0.658326 0)
(0.166024 0.588677 0)
(0.148516 0.526599 0)
(0.132787 0.470829 0)
(0.118564 0.420396 0)
(0.105633 0.374547 0)
(0.0938285 0.332691 0)
(0.0830165 0.294354 0)
(0.0730901 0.259158 0)
(0.0639619 0.226792 0)
(0.0555632 0.197012 0)
(0.0478842 0.169784 0)
(0.394716 1.98435 0)
(0.330474 1.6614 0)
(0.28232 1.41931 0)
(0.244662 1.23 0)
(0.214259 1.07715 0)
(0.189071 0.950526 0)
(0.167767 0.84342 0)
(0.149437 0.751269 0)
(0.133443 0.670864 0)
(0.119325 0.599888 0)
(0.106742 0.536628 0)
(0.0954372 0.479796 0)
(0.0852144 0.428402 0)
(0.0759209 0.381681 0)
(0.0674366 0.339027 0)
(0.0596658 0.29996 0)
(0.0525315 0.264094 0)
(0.0459709 0.231111 0)
(0.0399345 0.200764 0)
(0.0344154 0.173018 0)
(0.237809 2.0092 0)
(0.199103 1.6822 0)
(0.170091 1.43709 0)
(0.147403 1.2454 0)
(0.129086 1.09064 0)
(0.113911 0.96243 0)
(0.101075 0.853983 0)
(0.090032 0.760678 0)
(0.0803963 0.679266 0)
(0.0718905 0.607401 0)
(0.0643095 0.543349 0)
(0.0574986 0.485804 0)
(0.0513396 0.433767 0)
(0.0457405 0.386461 0)
(0.0406289 0.343273 0)
(0.0359472 0.303717 0)
(0.031649 0.267401 0)
(0.0276963 0.234006 0)
(0.0240596 0.203279 0)
(0.0207345 0.175185 0)
(0.0794337 2.02167 0)
(0.0665045 1.69264 0)
(0.0568137 1.446 0)
(0.0492354 1.25313 0)
(0.0431171 1.09741 0)
(0.0380484 0.968401 0)
(0.033761 0.859281 0)
(0.0300723 0.765397 0)
(0.0268538 0.68348 0)
(0.0240127 0.611169 0)
(0.0214805 0.54672 0)
(0.0192055 0.488818 0)
(0.0171483 0.436458 0)
(0.0152781 0.388858 0)
(0.0135708 0.345402 0)
(0.012007 0.305601 0)
(0.0105713 0.26906 0)
(0.00925109 0.235457 0)
(0.00803636 0.20454 0)
(0.00692572 0.176272 0)
(-0.0794338 2.02167 0)
(-0.0665047 1.69264 0)
(-0.0568141 1.446 0)
(-0.0492359 1.25313 0)
(-0.0431176 1.09741 0)
(-0.0380489 0.968401 0)
(-0.0337615 0.859281 0)
(-0.0300728 0.765397 0)
(-0.0268543 0.68348 0)
(-0.0240132 0.611169 0)
(-0.0214809 0.54672 0)
(-0.019206 0.488818 0)
(-0.0171487 0.436458 0)
(-0.0152785 0.388858 0)
(-0.0135711 0.345402 0)
(-0.0120072 0.305601 0)
(-0.0105715 0.26906 0)
(-0.00925121 0.235457 0)
(-0.00803643 0.20454 0)
(-0.00692574 0.176272 0)
(-0.237809 2.0092 0)
(-0.199104 1.6822 0)
(-0.170092 1.43709 0)
(-0.147404 1.2454 0)
(-0.129086 1.09064 0)
(-0.113912 0.96243 0)
(-0.101076 0.853983 0)
(-0.0900325 0.760678 0)
(-0.0803968 0.679266 0)
(-0.071891 0.607401 0)
(-0.0643099 0.543349 0)
(-0.057499 0.485804 0)
(-0.05134 0.433767 0)
(-0.0457408 0.386461 0)
(-0.0406292 0.343273 0)
(-0.0359474 0.303717 0)
(-0.0316491 0.267401 0)
(-0.0276965 0.234006 0)
(-0.0240597 0.203279 0)
(-0.0207345 0.175185 0)
(-0.394716 1.98435 0)
(-0.330475 1.6614 0)
(-0.28232 1.41931 0)
(-0.244662 1.23 0)
(-0.214259 1.07715 0)
(-0.189072 0.950526 0)
(-0.167767 0.84342 0)
(-0.149437 0.751269 0)
(-0.133444 0.670864 0)
(-0.119326 0.599888 0)
(-0.106742 0.536628 0)
(-0.0954376 0.479796 0)
(-0.0852148 0.428402 0)
(-0.0759212 0.381681 0)
(-0.0674368 0.339027 0)
(-0.059666 0.29996 0)
(-0.0525317 0.264094 0)
(-0.045971 0.231111 0)
(-0.0399346 0.200764 0)
(-0.0344154 0.173018 0)
(-0.549189 1.94726 0)
(-0.459808 1.63035 0)
(-0.392808 1.39279 0)
(-0.340413 1.20701 0)
(-0.298111 1.05702 0)
(-0.263067 0.932761 0)
(-0.233424 0.827657 0)
(-0.20792 0.737228 0)
(-0.185668 0.658326 0)
(-0.166024 0.588677 0)
(-0.148517 0.526599 0)
(-0.132788 0.470829 0)
(-0.118564 0.420396 0)
(-0.105634 0.374547 0)
(-0.0938287 0.332691 0)
(-0.0830167 0.294354 0)
(-0.0730903 0.259158 0)
(-0.063962 0.226792 0)
(-0.0555633 0.197012 0)
(-0.0478842 0.169785 0)
(-0.700276 1.89817 0)
(-0.586306 1.58924 0)
(-0.500874 1.35767 0)
(-0.434064 1.17658 0)
(-0.380125 1.03037 0)
(-0.335439 0.909246 0)
(-0.297642 0.806792 0)
(-0.265122 0.718643 0)
(-0.236747 0.64173 0)
(-0.2117 0.573836 0)
(-0.189375 0.513323 0)
(-0.169319 0.458959 0)
(-0.151183 0.409797 0)
(-0.134695 0.365105 0)
(-0.119642 0.324304 0)
(-0.105856 0.286934 0)
(-0.0931983 0.252625 0)
(-0.0815588 0.221074 0)
(-0.0708494 0.192046 0)
(-0.0610577 0.165504 0)
(-0.847044 1.83737 0)
(-0.709188 1.53834 0)
(-0.605852 1.31419 0)
(-0.525039 1.1389 0)
(-0.459795 0.997371 0)
(-0.405744 0.880125 0)
(-0.360024 0.780952 0)
(-0.320689 0.695626 0)
(-0.286367 0.621177 0)
(-0.25607 0.555457 0)
(-0.229067 0.496883 0)
(-0.204807 0.444259 0)
(-0.182869 0.396672 0)
(-0.162925 0.353411 0)
(-0.144718 0.313917 0)
(-0.128042 0.277744 0)
(-0.112732 0.244534 0)
(-0.0986527 0.213994 0)
(-0.0856987 0.185895 0)
(-0.0738548 0.160203 0)
(-0.988591 1.76525 0)
(-0.827699 1.47796 0)
(-0.707094 1.26261 0)
(-0.612778 1.09419 0)
(-0.536631 0.958222 0)
(-0.473547 0.845578 0)
(-0.420187 0.750297 0)
(-0.374278 0.668321 0)
(-0.334221 0.596794 0)
(-0.298861 0.533654 0)
(-0.267345 0.477379 0)
(-0.239032 0.426821 0)
(-0.213428 0.381102 0)
(-0.190151 0.339539 0)
(-0.168901 0.301595 0)
(-0.149439 0.266841 0)
(-0.13157 0.234935 0)
(-0.115138 0.205594 0)
(-0.10002 0.178598 0)
(-0.0861966 0.153915 0)
(-1.12404 1.68224 0)
(-0.941106 1.40846 0)
(-0.803977 1.20323 0)
(-0.696738 1.04274 0)
(-0.610158 0.913164 0)
(-0.53843 0.805817 0)
(-0.47776 0.715017 0)
(-0.42556 0.636895 0)
(-0.380015 0.568731 0)
(-0.33981 0.508561 0)
(-0.303976 0.454932 0)
(-0.271783 0.406751 0)
(-0.242671 0.363182 0)
(-0.216205 0.323573 0)
(-0.192044 0.287413 0)
(-0.169914 0.254294 0)
(-0.149597 0.223888 0)
(-0.130914 0.195927 0)
(-0.113724 0.1702 0)
(-0.0980069 0.146678 0)
(-1.25256 1.58887 0)
(-1.04871 1.33028 0)
(-0.895903 1.13645 0)
(-0.776402 0.984861 0)
(-0.679923 0.862477 0)
(-0.599994 0.761088 0)
(-0.532386 0.675328 0)
(-0.474219 0.601543 0)
(-0.423465 0.537163 0)
(-0.378663 0.480332 0)
(-0.338732 0.42968 0)
(-0.302858 0.384173 0)
(-0.270417 0.343023 0)
(-0.240926 0.305613 0)
(-0.214002 0.27146 0)
(-0.189342 0.240179 0)
(-0.166702 0.211461 0)
(-0.145883 0.185051 0)
(-0.126727 0.160753 0)
(-0.109213 0.138536 0)
(-1.37336 1.48569 0)
(-1.14985 1.2439 0)
(-0.982306 1.06265 0)
(-0.85128 0.920909 0)
(-0.745496 0.806472 0)
(-0.657859 0.711667 0)
(-0.583731 0.631476 0)
(-0.519953 0.562482 0)
(-0.464305 0.502282 0)
(-0.415183 0.449142 0)
(-0.371401 0.401778 0)
(-0.332067 0.359227 0)
(-0.296497 0.320749 0)
(-0.264161 0.285768 0)
(-0.234641 0.253833 0)
(-0.207602 0.224583 0)
(-0.182779 0.197729 0)
(-0.159952 0.173035 0)
(-0.138949 0.150314 0)
(-0.119746 0.12954 0)
(-1.48569 1.37336 0)
(-1.2439 1.14985 0)
(-1.06265 0.982305 0)
(-0.920909 0.85128 0)
(-0.806473 0.745495 0)
(-0.711668 0.657858 0)
(-0.631476 0.58373 0)
(-0.562482 0.519953 0)
(-0.502282 0.464305 0)
(-0.449142 0.415182 0)
(-0.401779 0.3714 0)
(-0.359228 0.332066 0)
(-0.320749 0.296497 0)
(-0.285768 0.264161 0)
(-0.253833 0.23464 0)
(-0.224583 0.207602 0)
(-0.19773 0.182779 0)
(-0.173035 0.159952 0)
(-0.150314 0.138949 0)
(-0.12954 0.119746 0)
(-1.58887 1.25256 0)
(-1.33028 1.04871 0)
(-1.13645 0.895903 0)
(-0.984861 0.776402 0)
(-0.862477 0.679922 0)
(-0.761089 0.599994 0)
(-0.675329 0.532386 0)
(-0.601543 0.474218 0)
(-0.537163 0.423465 0)
(-0.480332 0.378663 0)
(-0.42968 0.338732 0)
(-0.384174 0.302858 0)
(-0.343023 0.270417 0)
(-0.305613 0.240926 0)
(-0.27146 0.214002 0)
(-0.240179 0.189342 0)
(-0.211461 0.166702 0)
(-0.185051 0.145883 0)
(-0.160753 0.126727 0)
(-0.138536 0.109213 0)
(-1.68224 1.12404 0)
(-1.40846 0.941106 0)
(-1.20324 0.803977 0)
(-1.04274 0.696737 0)
(-0.913165 0.610157 0)
(-0.805817 0.53843 0)
(-0.715017 0.477759 0)
(-0.636896 0.42556 0)
(-0.568732 0.380014 0)
(-0.508561 0.339809 0)
(-0.454932 0.303976 0)
(-0.406751 0.271782 0)
(-0.363182 0.24267 0)
(-0.323573 0.216205 0)
(-0.287413 0.192043 0)
(-0.254294 0.169914 0)
(-0.223888 0.149597 0)
(-0.195927 0.130914 0)
(-0.1702 0.113724 0)
(-0.146678 0.0980069 0)
(-1.76525 0.988591 0)
(-1.47796 0.827699 0)
(-1.26261 0.707094 0)
(-1.09419 0.612777 0)
(-0.958222 0.53663 0)
(-0.845578 0.473546 0)
(-0.750298 0.420187 0)
(-0.668321 0.374278 0)
(-0.596794 0.334221 0)
(-0.533654 0.298861 0)
(-0.477379 0.267345 0)
(-0.426821 0.239031 0)
(-0.381102 0.213427 0)
(-0.339539 0.190151 0)
(-0.301595 0.168901 0)
(-0.266842 0.149438 0)
(-0.234935 0.13157 0)
(-0.205594 0.115138 0)
(-0.178598 0.10002 0)
(-0.153915 0.0861966 0)
(-1.83737 0.847044 0)
(-1.53834 0.709188 0)
(-1.31419 0.605851 0)
(-1.1389 0.525039 0)
(-0.997372 0.459795 0)
(-0.880126 0.405743 0)
(-0.780952 0.360024 0)
(-0.695627 0.320688 0)
(-0.621177 0.286366 0)
(-0.555458 0.256069 0)
(-0.496883 0.229066 0)
(-0.44426 0.204806 0)
(-0.396673 0.182869 0)
(-0.353412 0.162925 0)
(-0.313917 0.144718 0)
(-0.277744 0.128042 0)
(-0.244534 0.112732 0)
(-0.213994 0.0986526 0)
(-0.185895 0.0856987 0)
(-0.160204 0.0738548 0)
(-1.89817 0.700276 0)
(-1.58924 0.586305 0)
(-1.35767 0.500874 0)
(-1.17658 0.434064 0)
(-1.03037 0.380125 0)
(-0.909247 0.335439 0)
(-0.806792 0.297641 0)
(-0.718643 0.265121 0)
(-0.64173 0.236747 0)
(-0.573836 0.211699 0)
(-0.513324 0.189375 0)
(-0.458959 0.169319 0)
(-0.409798 0.151182 0)
(-0.365105 0.134694 0)
(-0.324304 0.119642 0)
(-0.286934 0.105855 0)
(-0.252625 0.0931982 0)
(-0.221075 0.0815587 0)
(-0.192046 0.0708494 0)
(-0.165504 0.0610577 0)
(-1.94726 0.549189 0)
(-1.63035 0.459807 0)
(-1.39279 0.392808 0)
(-1.20701 0.340412 0)
(-1.05702 0.298111 0)
(-0.932762 0.263066 0)
(-0.827658 0.233424 0)
(-0.737229 0.20792 0)
(-0.658327 0.185667 0)
(-0.588677 0.166024 0)
(-0.5266 0.148516 0)
(-0.470829 0.132787 0)
(-0.420396 0.118564 0)
(-0.374548 0.105633 0)
(-0.332691 0.0938285 0)
(-0.294354 0.0830165 0)
(-0.259158 0.0730902 0)
(-0.226792 0.063962 0)
(-0.197012 0.0555632 0)
(-0.169785 0.0478842 0)
(-1.98435 0.394716 0)
(-1.6614 0.330474 0)
(-1.41931 0.28232 0)
(-1.23 0.244662 0)
(-1.07715 0.214259 0)
(-0.950527 0.189071 0)
(-0.843421 0.167767 0)
(-0.75127 0.149437 0)
(-0.670865 0.133443 0)
(-0.599889 0.119325 0)
(-0.536629 0.106742 0)
(-0.479796 0.0954372 0)
(-0.428402 0.0852144 0)
(-0.381681 0.075921 0)
(-0.339027 0.0674366 0)
(-0.299961 0.0596658 0)
(-0.264094 0.0525315 0)
(-0.231111 0.0459709 0)
(-0.200765 0.0399345 0)
(-0.173018 0.0344154 0)
(-2.0092 0.237809 0)
(-1.68221 0.199103 0)
(-1.43709 0.170091 0)
(-1.2454 0.147403 0)
(-1.09064 0.129086 0)
(-0.962431 0.113911 0)
(-0.853983 0.101075 0)
(-0.760678 0.090032 0)
(-0.679267 0.0803963 0)
(-0.607401 0.0718905 0)
(-0.543349 0.0643095 0)
(-0.485805 0.0574986 0)
(-0.433768 0.0513397 0)
(-0.386461 0.0457406 0)
(-0.343273 0.040629 0)
(-0.303717 0.0359472 0)
(-0.267402 0.031649 0)
(-0.234006 0.0276964 0)
(-0.203279 0.0240596 0)
(-0.175185 0.0207345 0)
(-2.02167 0.0794337 0)
(-1.69264 0.0665044 0)
(-1.446 0.0568137 0)
(-1.25313 0.0492354 0)
(-1.09741 0.0431171 0)
(-0.968401 0.0380484 0)
(-0.859281 0.033761 0)
(-0.765397 0.0300723 0)
(-0.68348 0.0268538 0)
(-0.61117 0.0240127 0)
(-0.54672 0.0214805 0)
(-0.488819 0.0192055 0)
(-0.436459 0.0171483 0)
(-0.388858 0.0152781 0)
(-0.345403 0.0135708 0)
(-0.305601 0.012007 0)
(-0.26906 0.0105713 0)
(-0.235458 0.0092511 0)
(-0.20454 0.00803636 0)
(-0.176272 0.00692573 0)
(-2.02167 -0.0794338 0)
(-1.69264 -0.0665048 0)
(-1.446 -0.0568141 0)
(-1.25313 -0.0492359 0)
(-1.09741 -0.0431176 0)
(-0.968401 -0.0380489 0)
(-0.859281 -0.0337616 0)
(-0.765397 -0.0300729 0)
(-0.68348 -0.0268543 0)
(-0.61117 -0.0240132 0)
(-0.54672 -0.021481 0)
(-0.488819 -0.019206 0)
(-0.436459 -0.0171487 0)
(-0.388858 -0.0152785 0)
(-0.345403 -0.0135711 0)
(-0.305601 -0.0120072 0)
(-0.26906 -0.0105715 0)
(-0.235458 -0.00925122 0)
(-0.20454 -0.00803644 0)
(-0.176272 -0.00692575 0)
(-2.0092 -0.237809 0)
(-1.68221 -0.199104 0)
(-1.43709 -0.170092 0)
(-1.2454 -0.147404 0)
(-1.09064 -0.129086 0)
(-0.962431 -0.113912 0)
(-0.853983 -0.101076 0)
(-0.760678 -0.0900326 0)
(-0.679267 -0.0803968 0)
(-0.607402 -0.071891 0)
(-0.54335 -0.06431 0)
(-0.485805 -0.0574991 0)
(-0.433768 -0.05134 0)
(-0.386461 -0.0457409 0)
(-0.343273 -0.0406292 0)
(-0.303717 -0.0359474 0)
(-0.267402 -0.0316492 0)
(-0.234006 -0.0276965 0)
(-0.203279 -0.0240597 0)
(-0.175185 -0.0207345 0)
(-1.98435 -0.394717 0)
(-1.6614 -0.330475 0)
(-1.41931 -0.28232 0)
(-1.23 -0.244662 0)
(-1.07715 -0.214259 0)
(-0.950527 -0.189072 0)
(-0.843421 -0.167767 0)
(-0.75127 -0.149437 0)
(-0.670865 -0.133444 0)
(-0.599889 -0.119326 0)
(-0.536629 -0.106742 0)
(-0.479796 -0.0954377 0)
(-0.428403 -0.0852148 0)
(-0.381681 -0.0759213 0)
(-0.339027 -0.0674369 0)
(-0.299961 -0.059666 0)
(-0.264094 -0.0525317 0)
(-0.231112 -0.045971 0)
(-0.200765 -0.0399346 0)
(-0.173018 -0.0344155 0)
(-1.94726 -0.549189 0)
(-1.63035 -0.459808 0)
(-1.39279 -0.392808 0)
(-1.20701 -0.340413 0)
(-1.05702 -0.298111 0)
(-0.932762 -0.263067 0)
(-0.827658 -0.233424 0)
(-0.737229 -0.20792 0)
(-0.658327 -0.185668 0)
(-0.588677 -0.166025 0)
(-0.5266 -0.148517 0)
(-0.470829 -0.132788 0)
(-0.420396 -0.118564 0)
(-0.374548 -0.105634 0)
(-0.332691 -0.0938288 0)
(-0.294355 -0.0830168 0)
(-0.259158 -0.0730904 0)
(-0.226792 -0.0639621 0)
(-0.197013 -0.0555634 0)
(-0.169785 -0.0478843 0)
(-1.89817 -0.700276 0)
(-1.58924 -0.586306 0)
(-1.35768 -0.500874 0)
(-1.17658 -0.434064 0)
(-1.03037 -0.380125 0)
(-0.909247 -0.335439 0)
(-0.806792 -0.297642 0)
(-0.718643 -0.265122 0)
(-0.64173 -0.236747 0)
(-0.573836 -0.2117 0)
(-0.513324 -0.189376 0)
(-0.458959 -0.169319 0)
(-0.409798 -0.151183 0)
(-0.365105 -0.134695 0)
(-0.324304 -0.119642 0)
(-0.286934 -0.105856 0)
(-0.252625 -0.0931984 0)
(-0.221075 -0.0815589 0)
(-0.192046 -0.0708495 0)
(-0.165504 -0.0610578 0)
(-1.83737 -0.847045 0)
(-1.53834 -0.709189 0)
(-1.31419 -0.605852 0)
(-1.1389 -0.525039 0)
(-0.997372 -0.459795 0)
(-0.880126 -0.405744 0)
(-0.780952 -0.360024 0)
(-0.695627 -0.320689 0)
(-0.621177 -0.286367 0)
(-0.555458 -0.25607 0)
(-0.496883 -0.229067 0)
(-0.44426 -0.204807 0)
(-0.396673 -0.182869 0)
(-0.353412 -0.162925 0)
(-0.313917 -0.144718 0)
(-0.277744 -0.128042 0)
(-0.244534 -0.112732 0)
(-0.213994 -0.0986528 0)
(-0.185895 -0.0856989 0)
(-0.160204 -0.0738549 0)
(-1.76525 -0.988591 0)
(-1.47796 -0.827699 0)
(-1.26261 -0.707094 0)
(-1.09419 -0.612778 0)
(-0.958222 -0.536631 0)
(-0.845578 -0.473547 0)
(-0.750298 -0.420187 0)
(-0.668321 -0.374278 0)
(-0.596794 -0.334221 0)
(-0.533655 -0.298861 0)
(-0.477379 -0.267346 0)
(-0.426821 -0.239032 0)
(-0.381102 -0.213428 0)
(-0.339539 -0.190151 0)
(-0.301595 -0.168902 0)
(-0.266842 -0.149439 0)
(-0.234935 -0.13157 0)
(-0.205594 -0.115138 0)
(-0.178598 -0.10002 0)
(-0.153915 -0.0861967 0)
(-1.68224 -1.12404 0)
(-1.40846 -0.941106 0)
(-1.20324 -0.803977 0)
(-1.04274 -0.696738 0)
(-0.913165 -0.610158 0)
(-0.805818 -0.53843 0)
(-0.715017 -0.47776 0)
(-0.636896 -0.42556 0)
(-0.568732 -0.380015 0)
(-0.508561 -0.33981 0)
(-0.454932 -0.303976 0)
(-0.406752 -0.271783 0)
(-0.363182 -0.242671 0)
(-0.323574 -0.216205 0)
(-0.287414 -0.192044 0)
(-0.254294 -0.169914 0)
(-0.223888 -0.149598 0)
(-0.195927 -0.130914 0)
(-0.1702 -0.113724 0)
(-0.146678 -0.0980071 0)
(-1.58887 -1.25256 0)
(-1.33028 -1.04871 0)
(-1.13645 -0.895903 0)
(-0.984861 -0.776402 0)
(-0.862477 -0.679923 0)
(-0.761089 -0.599994 0)
(-0.675329 -0.532386 0)
(-0.601543 -0.474219 0)
(-0.537163 -0.423465 0)
(-0.480332 -0.378664 0)
(-0.42968 -0.338733 0)
(-0.384174 -0.302858 0)
(-0.343023 -0.270418 0)
(-0.305613 -0.240926 0)
(-0.27146 -0.214002 0)
(-0.240179 -0.189342 0)
(-0.211461 -0.166702 0)
(-0.185052 -0.145883 0)
(-0.160753 -0.126727 0)
(-0.138536 -0.109213 0)
(-1.48569 -1.37336 0)
(-1.2439 -1.14985 0)
(-1.06265 -0.982306 0)
(-0.920909 -0.85128 0)
(-0.806473 -0.745496 0)
(-0.711668 -0.657859 0)
(-0.631476 -0.583731 0)
(-0.562482 -0.519953 0)
(-0.502283 -0.464305 0)
(-0.449142 -0.415183 0)
(-0.401779 -0.371401 0)
(-0.359228 -0.332067 0)
(-0.320749 -0.296497 0)
(-0.285768 -0.264161 0)
(-0.253833 -0.234641 0)
(-0.224583 -0.207603 0)
(-0.19773 -0.18278 0)
(-0.173035 -0.159952 0)
(-0.150314 -0.138949 0)
(-0.12954 -0.119746 0)
(-1.37336 -1.48569 0)
(-1.14985 -1.2439 0)
(-0.982306 -1.06265 0)
(-0.85128 -0.92091 0)
(-0.745496 -0.806473 0)
(-0.657859 -0.711668 0)
(-0.583731 -0.631477 0)
(-0.519953 -0.562482 0)
(-0.464305 -0.502283 0)
(-0.415183 -0.449142 0)
(-0.371401 -0.401779 0)
(-0.332067 -0.359228 0)
(-0.296497 -0.320749 0)
(-0.264161 -0.285768 0)
(-0.234641 -0.253833 0)
(-0.207603 -0.224583 0)
(-0.18278 -0.19773 0)
(-0.159952 -0.173035 0)
(-0.138949 -0.150314 0)
(-0.119746 -0.12954 0)
(-1.25256 -1.58887 0)
(-1.04871 -1.33028 0)
(-0.895903 -1.13645 0)
(-0.776402 -0.984861 0)
(-0.679923 -0.862478 0)
(-0.599994 -0.761089 0)
(-0.532386 -0.675329 0)
(-0.474219 -0.601543 0)
(-0.423465 -0.537163 0)
(-0.378664 -0.480332 0)
(-0.338733 -0.42968 0)
(-0.302858 -0.384174 0)
(-0.270418 -0.343023 0)
(-0.240926 -0.305613 0)
(-0.214002 -0.27146 0)
(-0.189342 -0.240179 0)
(-0.166702 -0.211461 0)
(-0.145883 -0.185052 0)
(-0.126727 -0.160753 0)
(-0.109213 -0.138536 0)
(-1.12404 -1.68224 0)
(-0.941106 -1.40846 0)
(-0.803977 -1.20324 0)
(-0.696738 -1.04274 0)
(-0.610158 -0.913165 0)
(-0.53843 -0.805818 0)
(-0.47776 -0.715018 0)
(-0.42556 -0.636896 0)
(-0.380015 -0.568732 0)
(-0.33981 -0.508561 0)
(-0.303976 -0.454932 0)
(-0.271783 -0.406752 0)
(-0.242671 -0.363182 0)
(-0.216205 -0.323574 0)
(-0.192044 -0.287414 0)
(-0.169914 -0.254295 0)
(-0.149597 -0.223888 0)
(-0.130914 -0.195927 0)
(-0.113724 -0.1702 0)
(-0.0980071 -0.146678 0)
(-0.988591 -1.76525 0)
(-0.827699 -1.47796 0)
(-0.707094 -1.26261 0)
(-0.612778 -1.09419 0)
(-0.536631 -0.958222 0)
(-0.473547 -0.845578 0)
(-0.420187 -0.750298 0)
(-0.374278 -0.668321 0)
(-0.334221 -0.596794 0)
(-0.298861 -0.533655 0)
(-0.267345 -0.477379 0)
(-0.239032 -0.426822 0)
(-0.213428 -0.381102 0)
(-0.190151 -0.339539 0)
(-0.168901 -0.301595 0)
(-0.149439 -0.266842 0)
(-0.13157 -0.234936 0)
(-0.115138 -0.205594 0)
(-0.10002 -0.178598 0)
(-0.0861968 -0.153915 0)
(-0.847045 -1.83737 0)
(-0.709189 -1.53834 0)
(-0.605852 -1.31419 0)
(-0.525039 -1.1389 0)
(-0.459795 -0.997372 0)
(-0.405744 -0.880126 0)
(-0.360024 -0.780953 0)
(-0.320689 -0.695627 0)
(-0.286367 -0.621177 0)
(-0.25607 -0.555458 0)
(-0.229067 -0.496883 0)
(-0.204807 -0.44426 0)
(-0.182869 -0.396673 0)
(-0.162925 -0.353412 0)
(-0.144718 -0.313917 0)
(-0.128042 -0.277744 0)
(-0.112732 -0.244534 0)
(-0.0986528 -0.213994 0)
(-0.0856989 -0.185895 0)
(-0.073855 -0.160204 0)
(-0.700276 -1.89817 0)
(-0.586306 -1.58924 0)
(-0.500874 -1.35768 0)
(-0.434064 -1.17658 0)
(-0.380125 -1.03037 0)
(-0.335439 -0.909247 0)
(-0.297642 -0.806792 0)
(-0.265122 -0.718643 0)
(-0.236747 -0.64173 0)
(-0.2117 -0.573837 0)
(-0.189375 -0.513324 0)
(-0.169319 -0.458959 0)
(-0.151183 -0.409798 0)
(-0.134695 -0.365105 0)
(-0.119642 -0.324304 0)
(-0.105856 -0.286934 0)
(-0.0931984 -0.252625 0)
(-0.0815589 -0.221075 0)
(-0.0708495 -0.192046 0)
(-0.0610579 -0.165505 0)
(-0.54919 -1.94726 0)
(-0.459808 -1.63035 0)
(-0.392808 -1.39279 0)
(-0.340413 -1.20701 0)
(-0.298111 -1.05702 0)
(-0.263067 -0.932762 0)
(-0.233424 -0.827658 0)
(-0.20792 -0.737229 0)
(-0.185668 -0.658327 0)
(-0.166024 -0.588677 0)
(-0.148517 -0.5266 0)
(-0.132788 -0.470829 0)
(-0.118564 -0.420396 0)
(-0.105634 -0.374548 0)
(-0.0938288 -0.332691 0)
(-0.0830167 -0.294355 0)
(-0.0730904 -0.259159 0)
(-0.0639621 -0.226792 0)
(-0.0555634 -0.197013 0)
(-0.0478843 -0.169785 0)
(-0.394717 -1.98435 0)
(-0.330475 -1.6614 0)
(-0.28232 -1.41931 0)
(-0.244662 -1.23 0)
(-0.214259 -1.07715 0)
(-0.189072 -0.950527 0)
(-0.167767 -0.843421 0)
(-0.149437 -0.75127 0)
(-0.133444 -0.670865 0)
(-0.119326 -0.599889 0)
(-0.106742 -0.536629 0)
(-0.0954376 -0.479796 0)
(-0.0852148 -0.428403 0)
(-0.0759213 -0.381681 0)
(-0.0674369 -0.339027 0)
(-0.059666 -0.299961 0)
(-0.0525317 -0.264094 0)
(-0.045971 -0.231112 0)
(-0.0399346 -0.200765 0)
(-0.0344155 -0.173018 0)
(-0.237809 -2.0092 0)
(-0.199104 -1.68221 0)
(-0.170092 -1.43709 0)
(-0.147404 -1.2454 0)
(-0.129086 -1.09064 0)
(-0.113912 -0.962431 0)
(-0.101076 -0.853984 0)
(-0.0900325 -0.760679 0)
(-0.0803968 -0.679267 0)
(-0.071891 -0.607402 0)
(-0.0643099 -0.54335 0)
(-0.057499 -0.485805 0)
(-0.05134 -0.433768 0)
(-0.0457409 -0.386461 0)
(-0.0406292 -0.343273 0)
(-0.0359475 -0.303717 0)
(-0.0316492 -0.267402 0)
(-0.0276965 -0.234006 0)
(-0.0240597 -0.203279 0)
(-0.0207346 -0.175185 0)
(-0.0794338 -2.02167 0)
(-0.0665047 -1.69264 0)
(-0.0568141 -1.44601 0)
(-0.0492359 -1.25313 0)
(-0.0431176 -1.09741 0)
(-0.0380489 -0.968402 0)
(-0.0337615 -0.859281 0)
(-0.0300728 -0.765398 0)
(-0.0268543 -0.683481 0)
(-0.0240132 -0.61117 0)
(-0.0214809 -0.54672 0)
(-0.019206 -0.488819 0)
(-0.0171487 -0.436459 0)
(-0.0152785 -0.388859 0)
(-0.0135711 -0.345403 0)
(-0.0120072 -0.305602 0)
(-0.0105715 -0.269061 0)
(-0.00925123 -0.235458 0)
(-0.00803644 -0.20454 0)
(-0.00692575 -0.176272 0)
(2.02167 -0.0794338 0)
(2.0092 -0.237809 0)
(1.98435 -0.394716 0)
(1.94726 -0.549189 0)
(1.89817 -0.700276 0)
(1.83737 -0.847045 0)
(1.76525 -0.988591 0)
(1.68224 -1.12404 0)
(1.58887 -1.25256 0)
(1.48569 -1.37336 0)
(1.37336 -1.48569 0)
(1.25256 -1.58887 0)
(1.12404 -1.68224 0)
(0.988591 -1.76525 0)
(0.847045 -1.83737 0)
(0.700276 -1.89817 0)
(0.549189 -1.94726 0)
(0.394716 -1.98435 0)
(0.237809 -2.0092 0)
(0.0794337 -2.02167 0)
(1.69264 -0.0665048 0)
(1.68221 -0.199104 0)
(1.6614 -0.330475 0)
(1.63035 -0.459808 0)
(1.58924 -0.586306 0)
(1.53834 -0.709189 0)
(1.47796 -0.827699 0)
(1.40846 -0.941106 0)
(1.33028 -1.04871 0)
(1.2439 -1.14985 0)
(1.14985 -1.2439 0)
(1.04871 -1.33028 0)
(0.941106 -1.40846 0)
(0.827699 -1.47796 0)
(0.709188 -1.53834 0)
(0.586305 -1.58924 0)
(0.459808 -1.63035 0)
(0.330474 -1.6614 0)
(0.199103 -1.68221 0)
(0.0665045 -1.69264 0)
(1.446 -0.0568141 0)
(1.43709 -0.170092 0)
(1.41931 -0.28232 0)
(1.39279 -0.392808 0)
(1.35767 -0.500874 0)
(1.31419 -0.605852 0)
(1.26261 -0.707094 0)
(1.20324 -0.803977 0)
(1.13645 -0.895903 0)
(1.06265 -0.982306 0)
(0.982305 -1.06265 0)
(0.895903 -1.13645 0)
(0.803977 -1.20324 0)
(0.707094 -1.26261 0)
(0.605851 -1.31419 0)
(0.500874 -1.35768 0)
(0.392808 -1.39279 0)
(0.28232 -1.41931 0)
(0.170091 -1.43709 0)
(0.0568137 -1.44601 0)
(1.25313 -0.0492359 0)
(1.2454 -0.147404 0)
(1.23 -0.244662 0)
(1.20701 -0.340413 0)
(1.17658 -0.434064 0)
(1.1389 -0.525039 0)
(1.09419 -0.612778 0)
(1.04274 -0.696738 0)
(0.984861 -0.776402 0)
(0.920909 -0.85128 0)
(0.85128 -0.92091 0)
(0.776402 -0.984861 0)
(0.696737 -1.04274 0)
(0.612777 -1.09419 0)
(0.525039 -1.1389 0)
(0.434064 -1.17658 0)
(0.340412 -1.20701 0)
(0.244662 -1.23 0)
(0.147403 -1.2454 0)
(0.0492354 -1.25313 0)