/*--------------------------------*- C++ -*----------------------------------*\
| =========                 |                                                 |
| \\      /  F ield         | foam-extend: Open Source CFD                    |
|  \\    /   O peration     | Version:  3.0                                   |
|   \\  /    A nd           | Web:         http://www.extend-project.de       |
|    \\/     M anipulation  |                                                 |
\*---------------------------------------------------------------------------*/
FoamFile
{
    version     2.0;
    format      ascii;
    class       volSymmTensorField;
    location    "19";
    object      sigma;
}
// * * * * * * * * * * * * * * * * * * * * * * * * * * * * * * * * * * * * * //

dimensions      [0 0 0 0 0 0 0];

internalField   nonuniform List<symmTensor> 
480
(
(-0.16412 -0.0122609 2.36144e-20 0.164132 -3.78791e-21 -1.24296e-05)
(-0.146792 -0.0138678 1.06099e-19 0.146822 -3.40107e-20 -3.00903e-05)
(-0.124337 -0.0132654 1.04778e-19 0.124382 1.75387e-19 -4.41665e-05)
(-0.10224 -0.0119627 -7.21511e-20 0.102296 1.21642e-19 -5.51397e-05)
(-0.0821821 -0.0105199 1.18629e-19 0.0822452 -2.04945e-19 -6.30297e-05)
(-0.0645693 -0.00916995 4.03315e-19 0.0646365 -8.76291e-20 -6.72195e-05)
(-0.0494696 -0.0080019 3.90513e-19 0.0495365 -1.85328e-19 -6.68266e-05)
(-0.0370387 -0.00709188 4.73351e-20 0.037099 -4.43353e-20 -6.02319e-05)
(-0.0273846 -0.00646341 4.87584e-19 0.0274301 -7.30003e-19 -4.54446e-05)
(-0.0210732 -0.00620225 5.32466e-20 0.0210926 -1.84128e-19 -1.93518e-05)
(-0.159824 -0.0361705 1.29068e-21 0.159836 -1.32147e-20 -1.25165e-05)
(-0.140031 -0.0403692 1.58915e-19 0.140061 -1.1498e-19 -3.03238e-05)
(-0.117103 -0.0383397 3.48966e-19 0.117148 -1.86565e-19 -4.45287e-05)
(-0.0952669 -0.0343485 -2.61724e-20 0.0953225 -1.63551e-19 -5.56017e-05)
(-0.0757208 -0.0299728 -2.13858e-19 0.0757843 -1.98981e-19 -6.35591e-05)
(-0.0586566 -0.0258623 2.22488e-19 0.0587244 -1.82189e-20 -6.77695e-05)
(-0.0440571 -0.0222621 3.36274e-19 0.0441245 -2.27846e-19 -6.73509e-05)
(-0.0320099 -0.0193818 7.74279e-20 0.0320706 -1.80885e-19 -6.06672e-05)
(-0.0226051 -0.0172877 -5.34494e-19 0.0226508 -5.18853e-19 -4.57293e-05)
(-0.0163629 -0.0161935 1.47264e-19 0.0163823 2.92075e-19 -1.94461e-05)
(-0.151545 -0.0586216 -5.22664e-20 0.151557 -4.60518e-20 -1.24309e-05)
(-0.127289 -0.0637785 -4.15186e-21 0.127319 -2.47225e-19 -3.01338e-05)
(-0.10356 -0.059874 2.01786e-20 0.103604 -2.155e-19 -4.42676e-05)
(-0.0822691 -0.0532002 -1.45498e-19 0.0823244 -2.25588e-20 -5.52923e-05)
(-0.0637252 -0.0460671 -1.89316e-19 0.0637885 3.55245e-19 -6.32125e-05)
(-0.0477273 -0.039413 3.68473e-19 0.0477947 1.39047e-19 -6.73982e-05)
(-0.0341019 -0.0335869 9.28388e-20 0.0341689 -3.73107e-20 -6.69629e-05)
(-0.0228131 -0.0288919 -1.77233e-19 0.0228734 -1.30679e-19 -6.02832e-05)
(-0.0139176 -0.025427 -1.37691e-19 0.013963 6.146e-19 -4.53975e-05)
(-0.00785513 -0.0235111 6.45353e-19 0.0078744 -4.76718e-19 -1.92712e-05)
(-0.139841 -0.0788149 -1.61582e-19 0.139853 -1.27964e-20 -1.21555e-05)
(-0.109976 -0.0825048 -4.19025e-19 0.110006 2.29795e-19 -2.9487e-05)
(-0.0853716 -0.0760705 2.53705e-20 0.0854149 3.31008e-19 -4.33408e-05)
(-0.0649307 -0.0667363 2.34684e-19 0.0649848 2.92654e-19 -5.41599e-05)
(-0.0478114 -0.0571202 8.36531e-20 0.0478733 4.13011e-19 -6.19378e-05)
(-0.0333052 -0.0482572 1.38413e-19 0.0333712 -1.06491e-19 -6.60507e-05)
(-0.0210385 -0.0405238 2.62714e-19 0.0211041 -8.56032e-20 -6.56212e-05)
(-0.0108158 -0.0342564 3.62832e-19 0.0108748 -1.19901e-20 -5.90552e-05)
(-0.00265003 -0.0295717 1.92224e-19 0.00269447 -6.26616e-19 -4.4443e-05)
(0.00312352 -0.0268606 -8.8068e-19 -0.00310468 9.11771e-20 -1.88389e-05)
(-0.125458 -0.0961815 3.17315e-20 0.125469 -1.59417e-20 -1.16887e-05)
(-0.0899459 -0.0955842 -3.36081e-19 0.0899743 5.59141e-19 -2.83802e-05)
(-0.064718 -0.0858793 -2.56507e-19 0.0647597 5.99552e-19 -4.17437e-05)
(-0.0454571 -0.073936 -2.30851e-20 0.0455093 4.1041e-19 -5.21988e-05)
(-0.0300936 -0.0621817 4.15465e-19 0.0301533 -1.28824e-19 -5.9726e-05)
(-0.0173827 -0.0515232 3.46607e-20 0.0174464 -5.4772e-19 -6.3716e-05)
(-0.0067403 -0.0422743 4.88179e-19 0.00680361 -9.00749e-19 -6.33094e-05)
(0.0021981 -0.0347345 -2.65986e-19 -0.00214114 -7.6113e-19 -5.69631e-05)
(0.00946697 -0.0290199 -1.74142e-19 -0.00942412 -7.20161e-19 -4.2844e-05)
(0.0148459 -0.0255555 5.21601e-19 -0.0148277 3.27294e-19 -1.81355e-05)
(-0.109228 -0.110426 6.93844e-20 0.109239 1.67888e-19 -1.10338e-05)
(-0.0692254 -0.102795 3.48813e-19 0.0692522 3.84174e-19 -2.68185e-05)
(-0.0439756 -0.0891336 3.20528e-19 0.0440151 3.08549e-19 -3.94804e-05)
(-0.0262471 -0.0746774 1.99589e-19 0.0262966 -6.21243e-20 -4.9409e-05)
(-0.0128685 -0.0611666 -6.24221e-20 0.0129251 -7.51998e-19 -5.65717e-05)
(-0.00212121 -0.0491571 -5.55314e-19 0.00218159 -1.10727e-18 -6.03816e-05)
(0.00676284 -0.0388111 -1.13603e-18 -0.00670283 -5.53417e-19 -6.00109e-05)
(0.0142979 -0.0303214 9.56353e-20 -0.0142439 -4.80304e-19 -5.39887e-05)
(0.0205627 -0.0237856 -1.11788e-18 -0.0205221 -2.82128e-19 -4.05841e-05)
(0.0254471 -0.0196244 5.11356e-19 -0.0254299 -3.89393e-19 -1.71529e-05)
(-0.0919735 -0.121533 -3.7824e-20 0.0919837 2.33235e-19 -1.01947e-05)
(-0.0497251 -0.104659 5.94904e-19 0.0497499 4.97652e-20 -2.48092e-05)
(-0.025368 -0.0865531 8.23485e-19 0.0254045 -2.81202e-19 -3.65594e-05)
(-0.00953778 -0.0697393 6.43126e-19 0.00958357 -7.61162e-19 -4.57978e-05)
(0.00172741 -0.0548563 -4.01118e-19 -0.00167493 -9.07524e-19 -5.24792e-05)
(0.010473 -0.0419239 -1.02003e-18 -0.010417 -5.61459e-19 -5.60486e-05)
(0.0175907 -0.0308787 -1.25075e-18 -0.017535 2.28242e-19 -5.5723e-05)
(0.023699 -0.0217493 -6.94239e-19 -0.0236488 -3.69334e-19 -5.0128e-05)
(0.0289108 -0.0145987 -1.60081e-18 -0.0288731 3.24175e-19 -3.76614e-05)
(0.0332088 -0.00981106 2.43793e-19 -0.0331929 -1.22251e-19 -1.58921e-05)
(-0.0744019 -0.12973 9.55076e-20 0.0744111 -1.47064e-20 -9.17828e-06)
(-0.0329686 -0.102337 2.71684e-19 0.032991 -2.07656e-19 -2.23685e-05)
(-0.0106433 -0.0796132 1.95187e-19 0.0106763 -3.97884e-19 -3.30021e-05)
(0.00292465 -0.0606678 -1.12555e-19 -0.00288326 -4.98323e-19 -4.13877e-05)
(0.0120348 -0.0447696 -6.6142e-19 -0.0119873 -2.39127e-19 -4.74689e-05)
(0.0188487 -0.0312844 -6.55645e-19 -0.018798 4.8795e-20 -5.07328e-05)
(0.0242956 -0.0198772 -5.30537e-19 -0.0242452 1.57595e-19 -5.04562e-05)
(0.0290329 -0.0103751 -5.74788e-19 -0.0289875 1.76977e-19 -4.53852e-05)
(0.0331925 -0.00279577 -3.41481e-19 -0.0331584 -7.19888e-20 -3.4075e-05)
(0.0368223 0.00253498 -1.10831e-18 -0.036808 1.41693e-19 -1.43502e-05)
(-0.0570363 -0.13542 -3.10507e-20 0.0570443 -6.51777e-20 -7.99596e-06)
(-0.0198858 -0.0974259 -2.58004e-19 0.0199053 -1.51737e-19 -1.95219e-05)
(-0.000827081 -0.0703022 -4.81342e-19 0.000855924 -1.03965e-19 -2.88429e-05)
(0.0101366 -0.0495274 -4.09252e-19 -0.0101004 4.63728e-20 -3.62182e-05)
(0.0171142 -0.0329218 -2.77656e-20 -0.0170726 3.25268e-20 -4.15821e-05)
(0.0221395 -0.0191675 -4.03809e-19 -0.022095 3.24099e-20 -4.4474e-05)
(0.0260795 -0.00764608 -3.4054e-19 -0.0260353 6.66755e-20 -4.42457e-05)
(0.0295548 0.00202603 -3.23274e-19 -0.0295151 1.95034e-19 -3.97896e-05)
(0.0326978 0.00988097 -5.75641e-20 -0.032668 -8.10364e-20 -2.9846e-05)
(0.03559 0.0156603 -5.73437e-19 -0.0355775 3.18826e-19 -1.25378e-05)
(-0.0401704 -0.139094 -5.04063e-20 0.0401771 -4.73059e-20 -6.66214e-06)
(-0.0106988 -0.0916945 -1.39518e-19 0.0107151 -1.62733e-19 -1.6303e-05)
(0.00391359 -0.0608029 -6.87089e-19 -0.00388946 -2.92928e-20 -2.4129e-05)
(0.0119748 -0.0385752 -6.29995e-19 -0.0119445 1.46563e-19 -3.03441e-05)
(0.0168787 -0.0215108 -4.31174e-19 -0.0168439 2.00765e-19 -3.48762e-05)
(0.020289 -0.00767153 -5.88983e-20 -0.0202516 1.37921e-19 -3.73279e-05)
(0.0229118 0.00381742 -3.4556e-19 -0.0228747 1.42561e-19 -3.71416e-05)
(0.025256 0.0135306 -1.231e-20 -0.0252226 3.35841e-19 -3.33807e-05)
(0.0274355 0.021547 5.53676e-19 -0.0274105 3.35134e-20 -2.5e-05)
(0.0295342 0.027671 -1.10504e-19 -0.0295237 -1.50604e-20 -1.04631e-05)
(-0.0238651 -0.141229 -5.80682e-20 0.0238702 -3.09961e-20 -5.19521e-06)
(-0.00491871 -0.0867961 -1.01979e-19 0.00493146 -1.0795e-19 -1.27544e-05)
(0.00427245 -0.0531469 -3.66205e-19 -0.00425353 -1.23658e-20 -1.89203e-05)
(0.00919884 -0.0299081 -2.70338e-19 -0.00917501 1.1851e-19 -2.38375e-05)
(0.0120955 -0.0125754 -2.78116e-19 -0.0120681 1.2252e-19 -2.74305e-05)
(0.014052 0.00125922 -4.46086e-19 -0.0140226 9.92943e-20 -2.93761e-05)
(0.0155303 0.0126646 -4.13322e-19 -0.0155011 1.85358e-19 -2.92222e-05)
(0.0168644 0.0223598 -1.1194e-19 -0.0168382 2.99853e-19 -2.6228e-05)
(0.0181331 0.0304608 4.07268e-19 -0.0181135 5.46024e-20 -1.95893e-05)
(0.0193976 0.0368183 -3.74236e-20 -0.0193894 -1.93484e-20 -8.14993e-06)
(-0.00798198 -0.142202 -7.87603e-20 0.00798559 -1.60916e-20 -3.61656e-06)
(-0.00145227 -0.0840043 -1.44208e-19 0.0014612 -7.39326e-20 -8.9271e-06)
(0.00167449 -0.0488956 -2.88578e-19 -0.00166119 -1.25788e-20 -1.32903e-05)
(0.00331746 -0.0251363 -3.82522e-19 -0.00330068 1.124e-19 -1.67876e-05)
(0.00425687 -0.00768024 -3.73682e-19 -0.00423752 1.06095e-19 -1.93445e-05)
(0.00487208 0.0061333 -3.5082e-19 -0.00485136 8.74711e-20 -2.07216e-05)
(0.00532526 0.017478 -1.66977e-19 -0.00530467 1.64837e-19 -2.05869e-05)
(0.00573343 0.0271505 -1.11555e-19 -0.00571502 2.61914e-19 -1.84179e-05)
(0.0061288 0.0352879 2.8784e-19 -0.00611513 9.80655e-20 -1.36763e-05)
(0.00653442 0.0417629 1.55869e-19 -0.0065288 -2.38904e-20 -5.62282e-06)
(0.00774988 -0.142216 -7.62114e-20 -0.00774793 -4.84391e-21 -1.95121e-06)
(0.00119766 -0.0840099 -2.10503e-19 -0.00119278 -6.21661e-20 -4.88114e-06)
(-0.00196631 -0.048896 -1.77976e-19 0.00197364 -2.33647e-20 -7.3261e-06)
(-0.00365913 -0.025133 -3.20409e-19 0.00366843 1.08919e-19 -9.30274e-06)
(-0.00465954 -0.00767404 -4.26738e-19 0.00467028 1.04009e-19 -1.0741e-05)
(-0.00534608 0.00614163 -3.06925e-19 0.00535757 6.367e-20 -1.14952e-05)
(-0.00587631 0.0174886 -2.63036e-20 0.00588768 1.14859e-19 -1.13657e-05)
(-0.00636463 0.0271629 -1.62231e-19 0.0063747 2.1553e-19 -1.00682e-05)
(-0.00683026 0.0353036 6.64128e-20 0.00683761 8.40103e-20 -7.35101e-06)
(-0.00729151 0.0417778 1.7174e-19 0.00729443 -2.62561e-20 -2.92171e-06)
(0.023647 -0.141267 -9.05773e-20 -0.0236467 9.75748e-21 -2.27247e-07)
(0.00466966 -0.0868113 -2.50734e-19 -0.00466897 -5.41448e-20 -6.84611e-07)
(-0.00456418 -0.0531478 -2.83513e-20 0.00456531 -4.24947e-20 -1.12798e-06)
(-0.00954429 -0.0298991 -5.08509e-20 0.00954579 1.04711e-19 -1.50817e-06)
(-0.012505 -0.0125585 -5.30484e-19 0.0125068 9.67249e-20 -1.76386e-06)
(-0.0145351 0.00128191 -3.3229e-19 0.014537 4.91417e-20 -1.85046e-06)
(-0.0160929 0.0126933 -2.4746e-19 0.0160947 3.93899e-20 -1.71133e-06)
(-0.0175091 0.0223933 1.90056e-19 0.0175104 1.67928e-19 -1.31599e-06)
(-0.0188516 0.0305035 -4.10473e-19 0.0188524 7.22361e-20 -7.15949e-07)
(-0.020171 0.0368586 7.66968e-20 0.020171 -1.41958e-20 -8.89822e-08)
(0.0399766 -0.139146 -3.78733e-20 -0.0399781 4.37806e-20 1.52434e-06)
(0.0104593 -0.0917152 -2.81542e-19 -0.0104629 -1.61634e-20 3.58681e-06)
(-0.00420524 -0.060804 -3.90708e-19 0.00420005 -9.26584e-20 5.19195e-06)
(-0.0123269 -0.0385628 -2.86529e-19 0.0123205 1.12034e-20 6.45433e-06)
(-0.0173003 -0.0214878 -3.94194e-19 0.0172929 6.58602e-20 7.42276e-06)
(-0.0207882 -0.00764083 -1.08493e-19 0.0207802 5.62889e-20 8.03482e-06)
(-0.0234946 0.00385611 -1.82303e-19 0.0234864 5.33775e-20 8.19671e-06)
(-0.0259243 0.0135756 -5.72365e-20 0.0259166 6.7775e-20 7.67416e-06)
(-0.0281836 0.0216044 -1.77597e-19 0.0281775 -6.20482e-20 6.10248e-06)
(-0.0303357 0.0277247 3.52154e-19 0.0303329 1.18494e-20 2.82006e-06)
(0.0568704 -0.135471 -4.48607e-20 -0.0568737 5.40725e-20 3.27044e-06)
(0.0196572 -0.0974462 -4.48982e-19 -0.019665 -5.28945e-20 7.8518e-06)
(0.000535288 -0.0703032 -1.36643e-19 -0.0005468 -1.11629e-19 1.15123e-05)
(-0.0104966 -0.0495151 1.14568e-19 0.0104822 -2.21392e-20 1.44305e-05)
(-0.0175499 -0.0328992 1.49756e-19 0.0175333 2.06665e-19 1.66393e-05)
(-0.0226576 -0.0191375 -2.8568e-19 0.0226396 1.65205e-19 1.79659e-05)
(-0.0266859 -0.00760844 -2.95901e-19 0.0266677 -9.43654e-20 1.81618e-05)
(-0.0302505 0.00206957 6.04865e-21 0.0302337 -1.19709e-19 1.67231e-05)
(-0.0334803 0.00993635 1.81542e-20 0.0334673 1.81424e-20 1.29683e-05)
(-0.0364241 0.0157112 -6.89071e-19 0.0364183 8.13937e-20 5.74811e-06)
(0.0742601 -0.129767 4.82128e-20 -0.0742651 -3.39582e-20 4.97643e-06)
(0.0327491 -0.102351 2.22841e-19 -0.0327611 9.73903e-20 1.20249e-05)
(0.010351 -0.0796135 1.65462e-19 -0.0103687 1.13328e-19 1.77052e-05)
(-0.00329209 -0.060659 4.14091e-20 0.00326983 9.57077e-20 2.22567e-05)
(-0.0124833 -0.0447537 4.46254e-20 0.0124576 1.70992e-19 2.56939e-05)
(-0.0193836 -0.0312638 -5.67554e-19 0.0193559 2.22571e-19 2.77329e-05)
(-0.024923 -0.0198516 -8.0105e-19 0.024895 -3.14513e-19 2.79703e-05)
(-0.0297526 -0.0103461 -4.4698e-19 0.029727 1.91478e-19 2.5634e-05)
(-0.0340048 -0.00275918 -1.43667e-18 0.0339851 -6.13559e-19 1.973e-05)
(-0.0376843 0.00256695 9.08999e-19 0.0376757 2.1725e-20 8.62921e-06)
(0.0918454 -0.121545 -1.07501e-19 -0.091852 -2.98599e-19 6.60732e-06)
(0.0495102 -0.104662 4.93154e-19 -0.0495263 -1.34281e-19 1.60194e-05)
(0.0250745 -0.0865525 5.39961e-19 -0.0250981 5.6501e-20 2.364e-05)
(0.00916511 -0.0697365 3.70426e-19 -0.00919487 3.64879e-19 2.97654e-05)
(-0.00218437 -0.054852 -4.96909e-19 0.00214998 3.29335e-19 3.43898e-05)
(-0.0110188 -0.041919 -8.70468e-19 0.0109816 5.10541e-19 3.71205e-05)
(-0.0182311 -0.0308734 -1.50179e-18 0.0181937 -4.88065e-21 3.7403e-05)
(-0.0244334 -0.0217444 -1.83997e-19 0.0243992 -7.6494e-20 3.42056e-05)
(-0.0297408 -0.0145931 -1.18064e-18 0.0297146 2.61804e-19 2.62335e-05)
(-0.0340866 -0.00980973 -4.24295e-19 0.0340752 -6.45832e-19 1.13979e-05)
(0.1091 -0.110409 -3.33147e-20 -0.109108 -1.94739e-19 8.12843e-06)
(0.0690093 -0.102786 2.43424e-20 -0.069029 -4.27055e-19 1.97493e-05)
(0.0436804 -0.0891322 -6.14005e-20 -0.0437095 -5.03241e-19 2.91869e-05)
(0.0258724 -0.0746815 -1.30171e-19 -0.0259092 -1.84626e-19 3.67894e-05)
(0.0124093 -0.0611755 -5.72612e-19 -0.0124519 2.88157e-19 4.25298e-05)
(0.00157317 -0.0491703 -4.6604e-19 -0.00161908 4.44672e-19 4.59117e-05)
(-0.00740538 -0.038829 1.57569e-19 0.00735915 7.72198e-19 4.62379e-05)
(-0.015034 -0.030344 -3.85511e-19 0.0149917 4.47833e-19 4.22326e-05)
(-0.0213935 -0.0238152 -4.26099e-19 0.0213611 1.05966e-18 3.23205e-05)
(-0.0263241 -0.0196577 -5.05505e-19 0.0263101 -6.39146e-19 1.39856e-05)
(0.125314 -0.0961385 -1.3165e-20 -0.125324 2.57072e-20 9.50686e-06)
(0.0897225 -0.0955656 -5.1511e-19 -0.0897456 -3.09321e-19 2.31324e-05)
(0.0644204 -0.0858771 -8.32546e-19 -0.0644547 -6.37633e-19 3.42217e-05)
(0.0450836 -0.0739462 -5.7722e-19 -0.0451268 -5.38093e-19 4.31685e-05)
(0.0296385 -0.0622022 7.87489e-20 -0.0296884 1.61711e-19 4.99246e-05)
(0.016841 -0.0515521 4.82541e-19 -0.0168949 3.47543e-19 5.38985e-05)
(0.00610672 -0.0423123 5.77951e-19 -0.00616098 4.55234e-19 5.42623e-05)
(-0.00292269 -0.0347808 4.05127e-19 0.00287317 3.59915e-19 4.9519e-05)
(-0.0102816 -0.0290799 4.56752e-19 0.0102438 1.19798e-18 3.78406e-05)
(-0.0157058 -0.0256186 -9.7548e-19 0.0156895 1.06802e-19 1.6328e-05)
(0.139672 -0.0787569 -1.48004e-19 -0.139683 3.69051e-20 1.0712e-05)
(0.109741 -0.0824801 -5.33898e-19 -0.109767 1.00894e-19 2.60927e-05)
(0.0850714 -0.0760681 -5.91269e-19 -0.0851101 -1.37339e-19 3.86291e-05)
(0.0645609 -0.0667502 1.53459e-19 -0.0646097 -2.28108e-19 4.87536e-05)
(0.0473652 -0.0571477 7.68658e-19 -0.0474216 -6.14013e-21 5.63978e-05)
(0.0327764 -0.0482956 3.37019e-19 -0.0328372 2.68677e-19 6.08862e-05)
(0.0204221 -0.0405737 2.8164e-19 -0.0204834 1.14587e-21 6.12766e-05)
(0.0101124 -0.0343168 6.51761e-19 -0.0101682 2.32721e-19 5.588e-05)
(0.00186391 -0.0296495 3.53111e-19 -0.00190657 4.63319e-19 4.26512e-05)
(-0.00395433 -0.0269411 2.73897e-19 0.00393597 6.9781e-19 1.83636e-05)
(0.151347 -0.0585627 -2.52007e-20 -0.151358 1.16195e-19 1.17171e-05)
(0.127041 -0.0637536 -1.57656e-19 -0.127069 4.51927e-19 2.85631e-05)
(0.103257 -0.0598718 -3.04998e-19 -0.1033 4.95278e-19 4.23077e-05)
(0.0819042 -0.0532146 1.17132e-19 -0.0819576 2.57828e-19 5.34134e-05)
(0.0632898 -0.0460952 2.61222e-19 -0.0633516 -2.25145e-19 6.17941e-05)
(0.0472139 -0.039452 4.5516e-19 -0.0472806 -2.40262e-19 6.67038e-05)
(0.0335059 -0.0336375 2.42919e-19 -0.033573 -2.10317e-19 6.71058e-05)
(0.0221346 -0.0289529 1.09499e-18 -0.0221957 -3.04638e-19 6.11542e-05)
(0.0131646 -0.0255054 9.15112e-19 -0.0132113 8.92375e-20 4.66285e-05)
(0.00705773 -0.0235921 -7.72431e-20 -0.00707777 2.1436e-19 2.00397e-05)
(0.1596 -0.0361249 2.18605e-20 -0.159612 8.27123e-20 1.24996e-05)
(0.139771 -0.0403501 1.58457e-20 -0.139801 2.41574e-19 3.04875e-05)
(0.116798 -0.0383382 7.53197e-20 -0.116843 4.84999e-19 4.5172e-05)
(0.0949062 -0.0343599 2.81246e-19 -0.0949633 2.88075e-19 5.70376e-05)
(0.0752948 -0.0299949 1.08855e-19 -0.0753607 1.12755e-19 6.5983e-05)
(0.0581567 -0.0258932 -1.39237e-19 -0.0582279 -1.24809e-19 7.12074e-05)
(0.0434788 -0.0223022 2.19802e-19 -0.0435504 2.10626e-20 7.16027e-05)
(0.0313529 -0.0194302 6.39846e-19 -0.0314181 -3.40957e-19 6.52056e-05)
(0.0218808 -0.0173497 5.41524e-19 -0.0219305 -3.90154e-19 4.96677e-05)
(0.0155945 -0.0162585 7.27255e-20 -0.0156158 9.10053e-20 2.1311e-05)
(0.163879 -0.0122392 2.97269e-20 -0.163892 3.02396e-20 1.30423e-05)
(0.146525 -0.0138587 5.60563e-20 -0.146557 4.6497e-20 3.18227e-05)
(0.124031 -0.0132648 2.41945e-20 -0.124078 2.30761e-19 4.7157e-05)
(0.101882 -0.0119686 3.11524e-20 -0.101941 1.0114e-20 5.95422e-05)
(0.0817612 -0.0105314 1.59692e-19 -0.0818301 -9.4363e-20 6.88654e-05)
(0.0640767 -0.00918618 2.77999e-19 -0.064151 1.30485e-19 7.42886e-05)
(0.0489013 -0.00802308 3.93368e-19 -0.048976 2.21389e-19 7.46568e-05)
(0.036394 -0.00711783 4.34486e-19 -0.0364619 -1.24453e-19 6.79331e-05)
(0.0266769 -0.00649625 6.08676e-19 -0.0267286 -2.71485e-19 5.16918e-05)
(0.0203218 -0.00623902 7.25824e-20 -0.0203439 1.60017e-19 2.21452e-05)
(0.16389 0.0121485 2.37127e-20 -0.163904 -3.73929e-21 1.33336e-05)
(0.146542 0.0137139 1.06391e-19 -0.146575 -3.39377e-20 3.25399e-05)
(0.124057 0.0130516 1.05031e-19 -0.124105 1.75606e-19 4.82189e-05)
(0.101919 0.0116678 -7.2087e-20 -0.10198 1.2189e-19 6.08712e-05)
(0.0818122 0.0101199 1.19096e-19 -0.0818826 -2.05364e-19 7.03757e-05)
(0.0641452 0.00863703 4.0441e-19 -0.064221 -8.8115e-20 7.58756e-05)
(0.0489914 0.00730488 3.91157e-19 -0.0490676 -1.86755e-19 7.61955e-05)
(0.0365105 0.0061945 4.74819e-20 -0.0365798 -4.46149e-20 6.92702e-05)
(0.0268248 0.00533077 4.88992e-19 -0.0268774 -7.33846e-19 5.26502e-05)
(0.0205108 0.00475734 5.27169e-20 -0.0205334 -1.85749e-19 2.25206e-05)
(0.159632 0.0360397 1.35352e-21 -0.159645 -1.32265e-20 1.3368e-05)
(0.139822 0.0402145 1.59243e-19 -0.139855 -1.15061e-19 3.26257e-05)
(0.116874 0.0381389 3.49351e-19 -0.116923 -1.87067e-19 4.83379e-05)
(0.0950147 0.0340788 -2.64306e-20 -0.0950757 -1.6419e-19 6.09996e-05)
(0.0754442 0.0296104 -2.14077e-19 -0.0755147 -1.99106e-19 7.04854e-05)
(0.0583574 0.0253802 2.22975e-19 -0.0584333 -1.83782e-20 7.59387e-05)
(0.0437429 0.0216313 3.37208e-19 -0.0438191 -2.28908e-19 7.61899e-05)
(0.0316944 0.0185678 7.64335e-20 -0.0317636 -1.82911e-19 6.9192e-05)
(0.0223142 0.0162613 -5.35611e-19 -0.0223668 -5.19879e-19 5.25252e-05)
(0.0161488 0.014875 1.48135e-19 -0.0161712 2.92911e-19 2.24306e-05)
(0.151398 0.0584881 -5.22623e-20 -0.151411 -4.61282e-20 1.31463e-05)
(0.127123 0.063636 -4.01591e-21 -0.127155 -2.47457e-19 3.2082e-05)
(0.103379 0.0596992 2.03036e-20 -0.103426 -2.15718e-19 4.75175e-05)
(0.0820765 0.0529715 -1.45756e-19 -0.0821364 -2.26263e-20 5.99329e-05)
(0.0635272 0.0457628 -1.89533e-19 -0.0635964 3.5618e-19 6.92024e-05)
(0.0475328 0.0390087 3.68852e-19 -0.0476073 1.38829e-19 7.4488e-05)
(0.0339257 0.033058 9.27236e-20 -0.0340003 -3.79387e-20 7.46524e-05)
(0.0226774 0.0282082 -1.78322e-19 -0.0227451 -1.31962e-19 6.77114e-05)
(0.0138537 0.0245659 -1.37557e-19 -0.0139051 6.17215e-19 5.13279e-05)
(0.00793932 0.0223983 6.46486e-19 -0.0079612 -4.80447e-19 2.18804e-05)
(0.13974 0.0786978 -1.61662e-19 -0.139752 -1.28343e-20 1.26753e-05)
(0.109848 0.0823879 -4.19114e-19 -0.109879 2.30097e-19 3.09262e-05)
(0.0852291 0.0759333 2.55597e-20 -0.0852749 3.31247e-19 4.57848e-05)
(0.064785 0.0665607 2.34962e-19 -0.0648427 2.9251e-19 5.77074e-05)
(0.0476739 0.0568888 8.36544e-20 -0.0477405 4.12946e-19 6.65716e-05)
(0.0331913 0.0479506 1.3836e-19 -0.0332629 -1.0722e-19 7.15753e-05)
(0.0209684 0.0401232 2.62776e-19 -0.0210401 -8.63658e-20 7.16383e-05)
(0.0108191 0.0337383 3.63066e-19 -0.010884 -1.32149e-20 6.48821e-05)
(0.00276129 0.0289203 1.91557e-19 -0.00281039 -6.30548e-19 4.91017e-05)
(-0.00280575 0.0260152 -8.80805e-19 0.00278486 9.24226e-20 2.08899e-05)
(0.125393 0.0960988 3.17152e-20 -0.125405 -1.59805e-20 1.19675e-05)
(0.0898468 0.0955047 -3.36146e-19 -0.089876 5.59326e-19 2.919e-05)
(0.0646036 0.0857886 -2.5646e-19 -0.0646468 5.99662e-19 4.31886e-05)
(0.0453437 0.0738221 -2.28381e-20 -0.0453981 4.10279e-19 5.43877e-05)
(0.029997 0.0620332 4.16067e-19 -0.0300597 -1.30005e-19 6.26712e-05)
(0.0173231 0.0513274 3.44252e-20 -0.0173904 -5.48877e-19 6.72891e-05)
(0.00674182 0.0420194 4.88099e-19 -0.00680906 -9.02163e-19 6.72407e-05)
(-0.00210061 0.0344055 -2.67566e-19 0.00203982 -7.62894e-19 6.07922e-05)
(-0.00923755 0.0286079 -1.75464e-19 0.00919164 -7.17794e-19 4.59163e-05)
(-0.0143686 0.0250207 5.20675e-19 0.0143491 3.29244e-19 1.94896e-05)
(0.109185 0.110391 6.94446e-20 -0.109196 1.67878e-19 1.10409e-05)
(0.0691425 0.10276 3.49121e-19 -0.0691694 3.83948e-19 2.69185e-05)
(0.0438761 0.0890953 3.21048e-19 -0.0439159 3.07937e-19 3.9798e-05)
(0.0261504 0.0746303 2.00299e-19 -0.0262005 -6.32135e-20 5.00644e-05)
(0.0127927 0.0611065 -6.22915e-20 -0.0128503 -7.52985e-19 5.76104e-05)
(0.00208914 0.0490793 -5.56406e-19 -0.00215089 -1.10803e-18 6.17521e-05)
(-0.00672526 0.0387115 -1.13917e-18 0.00666367 -5.50787e-19 6.15881e-05)
(-0.014153 0.0301949 9.43263e-20 0.0140975 -4.79769e-19 5.55632e-05)
(-0.0202741 0.0236296 -1.12183e-18 0.0202323 -2.77304e-19 4.18673e-05)
(-0.0248895 0.0194252 5.10894e-19 0.0248717 -3.88422e-19 1.77219e-05)
(0.0919318 0.121551 -3.77605e-20 -0.0919417 2.3321e-19 9.91798e-06)
(0.049643 0.104673 5.95209e-19 -0.0496671 4.95531e-20 2.41679e-05)
(0.0252692 0.086569 8.23904e-19 -0.0253049 -2.81734e-19 3.56988e-05)
(0.00944161 0.0697605 6.43759e-19 -0.00948646 -7.62153e-19 4.48495e-05)
(-0.00180268 0.0548861 -4.01256e-19 0.00175116 -9.07872e-19 5.15234e-05)
(-0.0105046 0.0419662 -1.02134e-18 0.0104494 -5.60888e-19 5.51145e-05)
(-0.0175527 0.0309373 -1.25237e-18 0.0174978 2.29959e-19 5.48367e-05)
(-0.0235539 0.0218292 -6.9533e-19 0.0235045 -3.67844e-19 4.93415e-05)
(-0.0286225 0.0147034 -1.60296e-18 0.0285855 3.27417e-19 3.70693e-05)
(-0.0326519 0.00995542 2.41473e-19 0.0326363 -1.21343e-19 1.56366e-05)
(0.0743409 0.129796 9.56128e-20 -0.0743495 -1.47296e-20 8.6249e-06)
(0.0328719 0.102397 2.71806e-19 -0.0328929 -2.07601e-19 2.10037e-05)
(0.0105309 0.0796814 1.94832e-19 -0.0105619 -3.97697e-19 3.09906e-05)
(-0.00303633 0.0607555 -1.13272e-19 0.00299745 -4.98404e-19 3.88729e-05)
(-0.0121297 0.0448872 -6.61728e-19 0.0120851 -2.39465e-19 4.45652e-05)
(-0.0189066 0.0314441 -6.55631e-19 0.018859 4.85818e-20 4.75486e-05)
(-0.0242927 0.0200903 -5.29946e-19 0.0242455 1.57567e-19 4.7165e-05)
(-0.0289345 0.0106565 -5.74463e-19 0.0288922 1.76715e-19 4.22945e-05)
(-0.0329636 0.00315517 -3.37209e-19 0.032932 -7.29712e-20 3.16528e-05)
(-0.036347 -0.00205612 -1.10924e-18 0.0363337 1.41161e-19 1.32912e-05)
(0.0569393 0.135523 -3.09363e-20 -0.0569465 -6.51866e-20 7.19067e-06)
(0.0197612 0.0975243 -2.57896e-19 -0.0197787 -1.51576e-19 1.74981e-05)
(0.000687697 0.0704171 -4.81816e-19 -0.000713481 -1.03746e-19 2.57832e-05)
(-0.0102794 0.0496764 -4.09976e-19 0.0102471 4.58121e-20 3.22765e-05)
(-0.0172488 0.0331215 -2.73133e-20 0.0172119 3.14577e-20 3.69043e-05)
(-0.0222504 0.0194369 -4.02863e-19 0.0222111 3.20417e-20 3.92413e-05)
(-0.0261468 0.00800351 -3.39745e-19 0.0261081 6.63346e-20 3.87657e-05)
(-0.0295495 -0.0015571 -3.21374e-19 0.0295149 1.93376e-19 3.46013e-05)
(-0.0325867 -0.00928435 -5.32922e-20 0.0325609 -8.26482e-20 2.57573e-05)
(-0.0352746 -0.0148729 -5.7133e-19 0.0352638 3.16979e-19 1.07459e-05)
(0.0400282 0.139215 -5.02203e-20 -0.0400338 -4.73683e-20 5.6463e-06)
(0.0105368 0.0918193 -1.39024e-19 -0.0105505 -1.6269e-19 1.37282e-05)
(-0.00409118 0.0609554 -6.8694e-19 0.00407099 -2.92424e-20 2.01926e-05)
(-0.0121634 0.0387768 -6.301e-19 0.0121382 1.46096e-19 2.521e-05)
(-0.0170725 0.0217825 -4.31783e-19 0.0170438 2.00108e-19 2.87176e-05)
(-0.0204788 0.00803734 -5.86334e-20 0.0204484 1.37281e-19 3.03874e-05)
(-0.0230835 -0.00333332 -3.45675e-19 0.0230537 1.41821e-19 2.98388e-05)
(-0.025388 -0.0128981 -1.17449e-20 0.0253615 3.32528e-19 2.64475e-05)
(-0.0274981 -0.0207431 5.57684e-19 0.0274786 3.12695e-20 1.95263e-05)
(-0.0294516 -0.0266185 -1.08759e-19 0.0294436 -1.47614e-20 8.06329e-06)
(0.0236768 0.141349 -5.79018e-20 -0.0236808 -3.10764e-20 4.02357e-06)
(0.00471471 0.0869339 -1.01579e-19 -0.00472449 -1.08009e-19 9.77246e-06)
(-0.0044967 0.0533255 -3.65622e-19 0.00448237 -1.2568e-20 1.4337e-05)
(-0.00944602 0.0301502 -2.69793e-19 0.00942819 1.18025e-19 1.78251e-05)
(-0.0123664 0.0129043 -2.77736e-19 0.0123462 1.22372e-19 2.01833e-05)
(-0.0143448 -0.00081668 -4.46456e-19 0.0143236 9.94488e-20 2.11826e-05)
(-0.0158379 -0.01208 -4.13171e-19 0.0158173 1.84532e-19 2.0584e-05)
(-0.017174 -0.0215986 -1.12351e-19 0.017156 2.97294e-19 1.80175e-05)
(-0.0184204 -0.0294936 4.08017e-19 0.0184073 5.29447e-20 1.3102e-05)
(-0.0196117 -0.0355621 -3.63935e-20 0.0196064 -1.94284e-20 5.3047e-06)
(0.00775515 0.142304 -7.8645e-20 -0.00775751 -1.61423e-20 2.35452e-06)
(0.00120666 0.0841417 -1.44009e-19 -0.00121237 -7.4002e-20 5.70973e-06)
(-0.00195049 0.0490872 -2.88199e-19 0.00194215 -1.26583e-20 8.33413e-06)
(-0.00363317 0.0254033 -3.82495e-19 0.0036229 1.12171e-19 1.02716e-05)
(-0.00461975 0.00804634 -3.73736e-19 0.00460827 1.05652e-19 1.14764e-05)
(-0.00528805 -0.00564062 -3.50211e-19 0.00527624 8.66698e-20 1.1817e-05)
(-0.00579485 -0.016828 -1.65542e-19 0.00578365 1.63823e-19 1.11941e-05)
(-0.00625346 -0.0263068 -1.11133e-19 0.00624397 2.60058e-19 9.48818e-06)
(-0.00668252 -0.0342155 2.88446e-19 0.0066759 9.61858e-20 6.61985e-06)
(-0.00709455 -0.0403813 1.57562e-19 0.00709202 -2.31122e-20 2.52842e-06)
(-0.00800228 0.14229 -7.61563e-20 0.00800161 -4.86283e-21 6.7011e-07)
(-0.00148047 0.0841356 -2.10451e-19 0.00147886 -6.22939e-20 1.61593e-06)
(0.00163712 0.0490865 -1.77601e-19 -0.00163941 -2.34404e-20 2.29702e-06)
(0.00326889 0.0254065 -3.2019e-19 -0.00327158 1.08902e-19 2.69269e-06)
(0.00419467 0.00805271 -4.27132e-19 -0.00419743 1.03514e-19 2.76296e-06)
(0.00479348 -0.00563173 -3.06867e-19 -0.00479595 6.25649e-20 2.47045e-06)
(0.00522733 -0.0168164 -2.59091e-20 -0.00522918 1.14227e-19 1.85026e-06)
(0.0056129 -0.0262928 -1.62049e-19 -0.00561392 2.15043e-19 1.02477e-06)
(0.00598304 -0.0341972 6.42764e-20 -0.00598325 8.23975e-20 2.06012e-07)
(0.00635609 -0.0403631 1.71426e-19 -0.00635587 -2.5337e-20 -2.11355e-07)
(-0.02391 0.14131 -9.06105e-20 0.023911 9.75361e-21 -9.99779e-07)
(-0.00498261 0.0869173 -2.50862e-19 0.00498505 -5.43562e-20 -2.43643e-06)
(0.00418397 0.0533236 -2.82644e-20 -0.00418031 -4.27036e-20 -3.66752e-06)
(0.00907858 0.0301589 -5.07715e-20 -0.0090738 1.04969e-19 -4.77759e-06)
(0.011935 0.0129217 -5.31113e-19 -0.0119292 9.66172e-20 -5.80337e-06)
(0.0138416 -0.000792326 -3.32359e-19 -0.0138349 4.84564e-20 -6.69274e-06)
(0.0152592 -0.0120482 -2.47941e-19 -0.0152519 3.83945e-20 -7.28358e-06)
(0.0165201 -0.0215602 1.90476e-19 -0.0165128 1.69078e-19 -7.22485e-06)
(0.0177035 -0.0294434 -4.14023e-19 -0.0176975 7.27754e-20 -6.02784e-06)
(0.0188563 -0.0355121 7.73072e-20 -0.0188535 -1.46426e-20 -2.86726e-06)
(-0.0402372 0.139162 -3.796e-20 0.0402398 4.3818e-20 -2.62788e-06)
(-0.0107944 0.0917965 -2.81875e-19 0.0108008 -1.62826e-20 -6.38128e-06)
(0.00377959 0.0609527 -3.91159e-19 -0.00377013 -9.29296e-20 -9.46252e-06)
(0.0117905 0.0387887 -2.86742e-19 -0.0117785 1.11834e-20 -1.20187e-05)
(0.0166304 0.0218065 -3.93858e-19 -0.0166163 6.55657e-20 -1.40853e-05)
(0.0199606 0.00807089 -1.07766e-19 -0.0199451 5.59017e-20 -1.55266e-05)
(0.0224854 -0.00328944 -1.82099e-19 -0.0224694 5.35358e-20 -1.60632e-05)
(0.0247108 -0.0128449 -5.77776e-20 -0.0246957 6.90788e-20 -1.51309e-05)
(0.026751 -0.0206736 -1.76874e-19 -0.026739 -6.26629e-20 -1.19842e-05)
(0.0286669 -0.026549 3.53346e-19 -0.0286615 1.28733e-20 -5.39764e-06)
(-0.0571205 0.135469 -4.49711e-20 0.0571247 5.41317e-20 -4.18868e-06)
(-0.0200069 0.0975011 -4.49392e-19 0.020017 -5.31521e-20 -1.01578e-05)
(-0.000997909 0.0704141 -1.366e-19 0.00101291 -1.12028e-19 -1.50001e-05)
(0.00990029 0.0496883 1.15149e-19 -0.00988137 -2.24111e-20 -1.89227e-05)
(0.0167943 0.0331458 1.50909e-19 -0.0167723 2.06789e-19 -2.19619e-05)
(0.0217149 0.0194711 -2.85437e-19 -0.021691 1.65184e-19 -2.39053e-05)
(0.0255263 0.00804842 -2.95665e-19 -0.0255019 -9.44073e-20 -2.4366e-05)
(0.0288454 -0.00150247 6.43219e-21 -0.0288228 -1.19336e-19 -2.25857e-05)
(0.0318046 -0.00921277 1.88645e-20 -0.031787 2.09375e-20 -1.75834e-05)
(0.0344558 -0.0148005 -6.91893e-19 -0.034448 8.03711e-20 -7.7693e-06)
(-0.0744978 0.129756 4.8241e-20 0.0745035 -3.38874e-20 -5.66039e-06)
(-0.0331072 0.102379 2.22956e-19 0.0331209 9.73557e-20 -1.3714e-05)
(-0.0108398 0.0796789 1.65658e-19 0.01086 1.13076e-19 -2.02058e-05)
(0.00265192 0.0607643 4.16042e-20 -0.00262652 9.51882e-20 -2.53996e-05)
(0.0116644 0.0449056 4.49834e-20 -0.0116351 1.7081e-19 -2.93335e-05)
(0.0183561 0.0314703 -5.68185e-19 -0.0183244 2.2241e-19 -3.17258e-05)
(0.0236526 0.0201251 -8.02334e-19 -0.0236205 -3.14947e-19 -3.20932e-05)
(0.028207 0.0106993 -4.49277e-19 -0.0281775 1.9263e-19 -2.95024e-05)
(0.0321509 0.00321156 -1.44203e-18 -0.0321282 -6.17035e-19 -2.27617e-05)
(0.0354983 -0.00199771 9.10406e-19 -0.0354883 2.30538e-20 -9.9553e-06)
(-0.0920747 0.121534 -1.07613e-19 0.0920817 -2.9874e-19 -7.0229e-06)