/*--------------------------------*- C++ -*----------------------------------*\
| =========                 |                                                 |
| \\      /  F ield         | foam-extend: Open Source CFD                    |
|  \\    /   O peration     | Version:  3.0                                   |
|   \\  /    A nd           | Web:         http://www.extend-project.de       |
|    \\/     M anipulation  |                                                 |
\*---------------------------------------------------------------------------*/
FoamFile
{
    version     2.0;
    format      ascii;
    class       volSymmTensorField;
    location    "2";
    object      sigma;
}
// * * * * * * * * * * * * * * * * * * * * * * * * * * * * * * * * * * * * * //

dimensions      [0 0 0 0 0 0 0];

internalField   nonuniform List<symmTensor> 
3012
(
(0.0550448 0.12601 0.00063892 0.0324604 -0.000463833 8.5105e-20)
(0.0149209 0.105599 -8.97714e-05 -0.032955 -0.00160054 3.90368e-19)
(0.0180103 0.10107 0.00173212 -0.102212 0.000392387 -2.85355e-20)
(0.0515366 0.126477 0.00162978 -0.0367584 -4.48687e-06 8.88046e-20)
(0.00630287 0.193294 0.0200683 -0.0102725 0.0314601 1.69267e-19)
(-0.0366121 0.235876 -0.0227892 0.0694204 -0.0189943 6.15776e-20)
(-0.01488 0.306946 0.0149208 0.0189635 0.0266582 2.48391e-18)
(0.0350987 0.242186 -0.0225927 -0.067975 -0.0185836 -2.74084e-19)
(0.0850391 0.140419 0.00413367 -0.0200714 0.00579893 2.30758e-19)
(-0.00276973 0.138837 -0.0116458 -0.0634136 -0.012209 1.17746e-19)
(0.0807768 0.0968144 -0.0110727 -0.0210647 -0.012143 6.80112e-20)
(0.00247122 0.101548 0.00580812 -0.060858 0.00735948 1.9973e-20)
(0.00713551 0.01115 0.000651794 -0.0123626 0.000594864 1.4026e-19)
(0.052452 0.0367287 -0.000703801 0.0295794 -0.000553169 3.09875e-20)
(-0.0228386 0.0335898 -0.000278783 -0.0576247 -0.000221124 -3.89885e-21)
(0.0184136 0.0616318 0.00133168 -0.0149007 0.00141292 2.89351e-20)
(0.0053657 0.183506 0.0213923 -0.0118673 0.0333281 1.95713e-19)
(-0.0400889 0.216553 -0.0264006 0.0732716 -0.0220531 7.93853e-20)
(-0.0203443 0.288459 0.0156297 0.0272384 0.0271652 2.0391e-18)
(0.0331743 0.232928 -0.0261035 -0.0667547 -0.0216079 -2.21695e-19)
(-0.00229815 0.0258851 4.90537e-05 -0.0162261 0.000919723 5.3849e-21)
(0.0466503 0.00847485 -0.00125129 -0.00697427 -0.000834936 7.86164e-21)
(-0.00833103 0.019332 -0.00125085 -0.0343776 -0.00074075 7.60099e-21)
(0.0447656 0.00134363 3.35955e-05 -0.0233552 0.000754923 4.3067e-20)
(0.0338413 0.129935 -0.00209445 -0.112691 -0.00165536 -4.71937e-20)
(0.0296984 0.131935 0.00224735 -0.0334874 0.00320274 5.71985e-19)
(0.0421413 0.143041 0.00453186 -0.0396818 0.00562906 1.06061e-19)
(0.0444134 0.138548 -0.00295063 0.0357491 -0.00250839 7.79546e-20)
(0.0553336 0.0659012 0.00114321 0.0233239 0.000492993 6.45112e-20)
(-0.0349371 0.0456415 0.00179505 -0.0368814 0.000854408 -2.80311e-22)
(0.0468372 0.0652824 -0.00139377 -0.00901478 -0.00330278 3.29295e-20)
(-0.0325021 0.0459672 -0.0019932 -0.0119504 -0.00363074 1.02821e-19)
(0.0403822 0.0608817 -0.000639804 -0.00894156 -0.00237662 2.9366e-20)
(-0.0361451 0.037263 0.00150135 -0.034633 0.000560885 -1.89305e-21)
(0.0502614 0.0560438 0.000919144 0.0266944 0.000244766 5.2286e-20)
(-0.0317322 0.0329748 -0.00123494 -0.00568742 -0.00275767 1.00349e-19)
(0.0320623 0.149378 0.00236832 -0.0370639 0.00305965 6.4611e-19)
(0.0420897 0.142854 -0.00187239 -0.11587 -0.00162012 -6.06055e-20)
(0.0405737 0.152701 -0.0027913 0.0345381 -0.00255119 8.30187e-20)
(0.0440907 0.153718 0.00486655 -0.0405629 0.00561004 1.16507e-19)
(0.00436088 -0.00589325 0.000461446 -0.00721845 0.000467362 8.30595e-20)
(-0.0207844 0.0151298 -0.000203817 -0.0389913 -0.0001281 -1.54884e-21)
(0.0125123 0.0392746 0.000859234 -0.0107501 0.000981796 1.71647e-20)
(0.0402795 0.016304 -0.000488498 0.0204844 -0.00034254 1.87461e-20)
(0.0375114 0.0635984 -0.000165752 -0.0104178 -0.00182549 3.11069e-20)
(-0.0262994 0.0295006 -0.000819319 -0.00627867 -0.00230891 1.12401e-19)
(0.0505692 0.0546883 0.000826736 0.0295194 0.000107449 4.92704e-20)
(-0.0340969 0.0369303 0.00142208 -0.0403717 0.000442704 -3.17099e-21)
(-0.0257487 0.00320508 -0.000213605 0.00653246 -0.000951324 4.76112e-20)
(-0.0294058 0.0112565 0.000587543 -0.0140162 0.000109909 -1.0596e-21)
(0.0270632 0.0234882 0.000295285 0.0197979 -3.98642e-05 2.16918e-20)
(0.0206846 0.0326738 0.000109906 -0.00478697 -0.000702279 1.34572e-20)
(0.0558206 0.117164 0.000346911 0.0342378 -0.000547606 8.02248e-20)
(0.0123416 0.0963171 0.000117262 -0.0297114 -0.00120678 3.62672e-19)
(0.0488575 0.120226 0.00174548 -0.0347332 0.000339755 8.07553e-20)
(0.0118505 0.0943718 0.00137435 -0.0985936 0.000246499 -2.15022e-20)
(0.0256389 0.192702 0.0151963 -0.00478082 0.0227761 6.32426e-19)
(0.00482621 0.121831 -0.0320425 0.0306246 -0.0287025 7.02759e-20)
(0.0385824 0.116857 0.0208029 -0.05769 0.0305392 1.43588e-19)
(0.0556345 0.180136 -0.0318951 -0.0929194 -0.0282942 -2.12068e-20)
(0.000720933 0.214672 0.0154421 0.0153765 0.0235161 8.44516e-19)
(-0.0171262 0.143308 -0.0321048 0.0512028 -0.0282847 7.98591e-20)
(0.0217964 0.129332 0.0215036 -0.0365533 0.0323539 2.25846e-19)
(0.0456393 0.186827 -0.0317904 -0.0811423 -0.0278008 -7.88578e-20)
(0.0157815 0.0172355 0.000833646 -0.0157443 0.00120783 1.61089e-19)
(0.0567913 0.0407575 -0.00126141 0.029059 -0.000832793 3.21711e-20)
(-0.0196214 0.0408654 -0.000850088 -0.0654902 -0.000477997 -3.4464e-21)
(0.0177438 0.0666526 0.00157351 -0.0186727 0.00216752 3.21283e-20)
(-0.0138457 0.0247854 -0.00149623 -0.0529178 -0.000685702 2.99842e-21)
(0.00423202 0.0426431 0.000860203 -0.0163023 0.00203083 1.74768e-20)
(0.0362781 -0.00165144 0.000529003 -0.0227561 0.00144083 9.23061e-20)
(0.0542788 0.0159019 -0.00165924 0.0108658 -0.000899251 1.67355e-20)
(-0.0342079 0.0368658 0.00076885 -0.0142614 0.000733608 3.49869e-21)
(-0.0364549 0.0367035 -0.00192572 -0.00920008 -0.00256271 4.10523e-20)
(0.0441374 0.0410612 -0.00164702 -0.00445291 -0.00250329 1.72384e-20)
(0.0480454 0.0427548 0.000467573 0.00647127 0.000533183 4.94453e-20)
(0.0316252 0.0289143 0.000288146 0.0124147 0.000103873 2.78316e-20)
(-0.0346585 0.0194391 0.000509859 -0.00508563 0.000198384 6.44411e-22)
(-0.0353515 0.0163815 -0.000860563 0.00593255 -0.00156629 3.41893e-20)
(0.0285266 0.031404 -0.000614393 -0.0034262 -0.00145991 1.23683e-20)
(0.0217524 0.0317925 0.00106484 -0.0203143 0.00171356 2.10032e-19)
(0.0611381 0.0551423 -0.0017838 0.0312533 -0.00117566 3.97186e-20)
(0.0202584 0.0814795 0.00201176 -0.0224403 0.0029409 3.80868e-20)
(-0.0150387 0.0556291 -0.00130366 -0.0766174 -0.000740728 -4.82808e-21)
(-0.0132109 0.00691698 -0.000567541 -0.0366407 -0.000208259 5.36577e-22)
(0.00584111 0.0288808 0.000637327 -0.00966854 0.00113667 1.50354e-20)
(0.0173241 -0.0177386 0.000391802 -0.0134053 0.000747775 5.95322e-20)
(0.0377827 0.00312071 -0.000742794 0.0120023 -0.000374858 1.21859e-20)
(0.0281466 0.04069 -0.000336093 -0.00367668 -0.00148058 1.76432e-20)
(-0.0344359 0.0216648 0.000835148 -0.0175544 0.000223255 -5.99746e-22)
(0.0365521 0.0340896 0.000485138 0.020324 6.01541e-05 3.29197e-20)
(-0.0300671 0.0152443 -0.000706292 0.000952559 -0.00171482 5.54537e-20)
(0.00188827 0.142799 -0.0126417 -0.069182 -0.0127302 1.09059e-19)
(0.0862292 0.142208 0.00430511 -0.0247303 0.00656073 2.54374e-19)
(0.079594 0.0976135 -0.0121277 -0.0185183 -0.0127054 6.69201e-20)
(0.00529177 0.104786 0.00603067 -0.0605005 0.008294 2.5802e-20)
(0.0429017 0.117365 -0.0169936 0.0214016 -0.0129077 6.55364e-20)
(0.0212109 0.133896 0.0091809 -0.0443729 0.0174682 1.25843e-19)
(0.0638832 0.154932 0.00636532 -0.0383002 0.0131969 6.34397e-19)
(0.0416973 0.167211 -0.0167801 -0.108544 -0.0124144 -5.00877e-21)
(-0.0122253 0.0186177 -0.00127616 -0.0477786 -0.000573397 2.93417e-21)
(0.00408113 0.0363296 0.000692722 -0.0150378 0.00171062 1.49425e-20)
(0.0333179 -0.006487 0.000431498 -0.0210522 0.00122593 7.59606e-20)
(0.0495335 0.010947 -0.00141861 0.00898124 -0.000760654 1.52284e-20)
(-0.0327417 0.031683 0.000579535 -0.0107137 0.000571926 2.90568e-21)
(0.0395829 0.0362519 -0.00138268 -0.00383672 -0.00211277 1.44781e-20)
(-0.0353706 0.0308516 -0.00162107 -0.00573945 -0.0021583 3.44491e-20)
(0.042505 0.0371293 0.00034372 0.0064752 0.000416392 4.17385e-20)
(-0.00859685 0.0178049 -0.00101058 -0.0282814 -0.000675416 9.75617e-21)
(0.0458996 0.00268867 -5.09566e-05 -0.024615 0.000556552 3.37558e-20)
(0.0455987 0.00855374 -0.000998024 -0.0115765 -0.000754795 4.35465e-21)
(-0.00425893 0.0234099 -9.55362e-05 -0.0141925 0.000615215 3.7241e-21)
(0.0484397 0.0474126 0.000530117 0.0305006 -8.16094e-05 4.21363e-20)
(-0.031596 0.0320801 0.00108296 -0.0427738 0.000232752 -3.98599e-21)
(-0.0196374 0.0213786 -0.000240786 -0.00512467 -0.00144555 1.14976e-19)
(0.0316096 0.0602871 0.000408386 -0.0113424 -0.00089212 3.05185e-20)
(-0.0239481 0.00479227 -0.000422433 0.0165294 -0.000467687 4.39525e-21)
(0.0219415 0.00463685 -0.000365797 -0.0154104 -0.000439184 2.17136e-21)
(-0.022438 0.00405714 -0.000204857 0.0158041 -0.000102626 6.36987e-22)
(0.0220335 0.00569493 -0.00018582 -0.0145001 -8.72134e-05 7.28659e-21)
(0.0186233 -0.0169521 -0.000452541 -0.00915569 -0.000291594 1.1757e-21)
(0.025961 -0.0333165 -0.000109077 -0.0230297 0.000126333 1.10116e-20)
(-0.00386126 0.0113639 -0.000145913 0.00127762 0.000162433 5.40244e-21)
(0.00298097 -0.0045743 -0.000400963 -0.012824 -0.000234423 1.37582e-21)
(0.062672 0.199965 -0.00680192 -0.0847432 -0.0118237 4.80868e-19)
(0.0736725 0.203142 0.00677271 -0.0154439 0.00323911 1.10398e-19)
(0.0905836 0.149999 0.00853595 -0.145765 0.00468461 -2.05851e-20)
(0.0944973 0.157922 -0.00489392 -0.0754479 -0.0104571 1.41049e-19)
(0.168814 0.229407 -0.027389 -0.188459 -0.0324846 1.84075e-19)
(0.130167 0.129496 -0.0263437 -0.112452 -0.0318204 2.73063e-19)
(0.178916 0.150606 0.0228344 -0.207052 0.0210828 -6.40097e-20)
(0.127085 0.205048 0.0201283 -0.0969533 0.0189066 1.1579e-19)
(0.066019 0.224624 -0.00470897 -0.082577 -0.00900495 5.99061e-19)
(0.0663471 0.217819 0.00521772 -0.0113782 0.00184322 8.47695e-20)
(0.0891204 0.174178 -0.00251708 -0.0749332 -0.00734506 1.39107e-19)
(0.0966394 0.175667 0.00665165 -0.149225 0.00316792 -5.73058e-20)
(0.173605 0.20545 -0.0325232 -0.194409 -0.0365036 1.18065e-19)
(0.176185 0.132049 0.0258296 -0.201106 0.0267408 -8.80649e-20)
(0.119728 0.112144 -0.031708 -0.100732 -0.0360344 3.72612e-19)
(0.121916 0.190257 0.0222912 -0.0950855 0.0239867 1.58034e-19)
(0.0292677 0.121817 -0.00148941 -0.111105 -0.00115082 -3.94673e-20)
(0.0418741 0.13698 0.00393231 -0.0377574 0.00466731 9.86337e-20)
(0.0479576 0.130686 -0.00236801 0.0354266 -0.00200292 7.8345e-20)
(0.0289105 0.12155 0.00181059 -0.0346391 0.00240922 5.12545e-19)
(0.114038 0.126541 0.0229399 -0.139623 0.0278007 7.09714e-21)
(0.0719697 0.11562 -0.0333074 -0.0445608 -0.0343985 2.11759e-19)
(0.0874578 0.201542 0.0176845 -0.0595921 0.0233944 2.63102e-19)
(0.110902 0.194443 -0.0336862 -0.14049 -0.0343851 8.09698e-20)
(0.123245 0.124072 0.0219879 -0.152291 0.0240294 -3.28831e-20)
(0.0914662 0.111943 -0.0299301 -0.0654751 -0.033032 2.5541e-19)
(0.09653 0.196544 0.0177045 -0.0651023 0.0207381 2.25541e-19)
(0.118994 0.195045 -0.0305222 -0.147294 -0.0332382 9.67385e-20)
(0.0116375 0.0220263 0.000293754 -0.00425629 -9.26232e-05 8.02054e-21)
(0.0150714 0.00979391 7.62807e-05 0.0144222 -8.61063e-05 1.15442e-20)
(-0.0168968 -0.00854347 6.04793e-05 0.0077927 -0.000313663 3.17734e-20)
(-0.0191555 0.00195707 0.00028322 -0.00857091 3.83723e-05 -1.22244e-21)
(-0.0269131 0.00828275 -0.000360836 0.00354441 -0.00125736 5.79286e-20)
(-0.0320662 0.0170554 0.000743137 -0.0185509 0.000165733 -1.43785e-21)
(0.0328011 0.029216 0.000398175 0.0218278 -9.12898e-06 2.72091e-20)
(0.024265 0.0390525 1.90052e-05 -0.00486217 -0.000977785 1.63006e-20)
(-0.0117553 0.0182626 -0.000918699 -0.021626 -0.000663884 8.35201e-21)
(0.0406626 0.0103207 -0.000889228 -0.0102265 -0.000727694 5.17268e-21)
(-0.00873948 0.0224877 -0.000139885 -0.0102011 0.000440487 2.25435e-21)
(0.0424772 0.00605344 -8.01999e-05 -0.0206228 0.000423428 2.79011e-20)
(0.025711 0.177553 -0.00607508 0.0367642 -0.00477092 7.85507e-20)
(0.036571 0.191255 0.0045994 -0.0373666 0.00689147 9.08712e-19)
(0.0579383 0.173491 -0.00531024 -0.119759 -0.00385897 -8.78166e-20)
(0.0408516 0.169305 0.00776949 -0.0407716 0.0100359 1.32352e-19)
(0.0416125 0.0602588 -0.000909096 -0.00779868 -0.00267084 2.91229e-20)
(-0.0361144 0.0396357 0.00154267 -0.0334681 0.000634185 -1.09763e-21)
(0.0510897 0.0575355 0.000960832 0.0248667 0.000322084 5.48153e-20)
(-0.0322911 0.0369366 -0.0014799 -0.00773049 -0.00301122 9.47436e-20)
(0.0827044 0.118392 0.0201962 -0.109207 0.0265358 4.81874e-20)
(0.0828123 0.187195 -0.0319446 -0.118045 -0.030801 6.75631e-20)
(0.0727413 0.191415 0.0155153 -0.0437886 0.0215917 3.42096e-19)
(0.0544594 0.110804 -0.0317036 -0.0216316 -0.0309413 1.72718e-19)
(0.0901384 0.193599 0.0137866 -0.0502808 0.0152556 2.30326e-19)
(0.0951762 0.124219 0.0174626 -0.131979 0.017895 -2.75738e-20)
(0.0904457 0.114914 -0.023872 -0.0598794 -0.0277654 1.99106e-19)
(0.0874334 0.19383 -0.0246332 -0.121021 -0.0280492 1.77414e-19)
(0.0292135 0.190553 -0.00322322 0.0321113 -0.00339062 7.90701e-20)
(0.0374933 0.201856 0.00289846 -0.0426248 0.00338207 8.44438e-19)
(0.0622602 0.175387 -0.00232519 -0.122396 -0.00240282 -1.16103e-19)
(0.0475605 0.173066 0.0058761 -0.0436853 0.00612658 1.57365e-19)
(-0.00700879 0.0804365 0.00189895 -0.0345393 0.00485965 3.21296e-20)
(0.0779031 0.0595862 -0.00593264 0.00289725 -0.00461714 3.07494e-20)
(0.0767791 0.0650143 0.00121526 -0.0292713 0.00370949 1.81241e-19)
(-0.0161568 0.0844109 -0.00597786 -0.0707103 -0.00438278 3.1273e-20)
(0.0794116 0.0713363 0.00123396 -0.0249301 0.00343812 1.67659e-19)
(-0.0196024 0.086701 -0.00614411 -0.0635554 -0.00503928 3.90996e-20)
(-0.0126135 0.0803543 0.00191093 -0.0351192 0.00446188 2.56198e-20)
(0.0770552 0.0625983 -0.00600046 -0.000700064 -0.005214 3.52962e-20)
(-0.0123031 0.0218131 -0.0011857 -0.0269926 -0.000858082 1.03479e-20)
(0.0454871 0.0125365 -0.00115108 -0.0096024 -0.000931398 6.1315e-21)
(-0.00807504 0.0263798 -4.31386e-05 -0.0132543 0.000667647 3.67764e-21)
(0.0464766 0.00794578 -2.19842e-05 -0.021833 0.000593246 3.70198e-20)
(-0.0307319 0.0627815 -0.00292407 -0.0184067 -0.00489159 1.31076e-19)
(-0.0306174 0.0582311 0.00245167 -0.0461106 0.00135234 -4.90573e-22)
(0.0625176 0.0834546 0.00160828 0.0214997 0.000850808 8.41008e-20)
(0.056074 0.0782435 -0.00220399 -0.0140151 -0.00450609 4.17464e-20)
(0.0184429 0.014055 0.000872762 -0.0158145 0.00138232 1.55675e-19)
(0.0564291 0.0371394 -0.00144217 0.0280917 -0.000883341 3.03159e-20)
(0.0162171 0.0655178 0.00158878 -0.019328 0.00232473 3.12361e-20)
(-0.0186154 0.0403846 -0.0010639 -0.0655691 -0.000538129 -2.54584e-21)
(0.00527615 0.0151294 0.000616359 -0.0127171 0.000439139 1.49445e-19)
(-0.0227386 0.0363405 -0.000127945 -0.0596284 -0.000182823 -3.25324e-21)
(0.0531533 0.0412665 -0.000593794 0.0312319 -0.000535743 3.38348e-20)
(0.020732 0.0651553 0.00134392 -0.0153613 0.00129093 2.74727e-20)
(-0.010691 -0.0172176 0.000110121 0.00668163 -5.2031e-05 2.49819e-20)
(-0.0121262 -0.00274065 0.000151437 -0.00433697 4.57653e-05 -1.01974e-21)
(0.00706548 0.0171391 0.000290563 -0.00390013 0.000154086 4.53933e-21)
(0.00876316 0.00051757 -2.39502e-05 0.00852795 -8.18377e-05 7.40014e-21)
(0.0234794 -0.0236134 -0.000102471 -0.0191325 0.000175884 1.31833e-20)
(0.0214661 -0.0118183 -0.000464582 -0.00876948 -0.000226901 9.6837e-22)
(0.0014898 -0.00310675 -0.000421144 -0.0147457 -0.00017648 1.49371e-21)
(0.000351405 0.0080662 -0.000144906 -0.00417776 0.000212999 3.95024e-21)
(-0.0140399 0.0578448 -0.00169391 -0.0777691 -0.000911092 -4.24069e-21)
(0.0182627 0.0810537 0.00207168 -0.0232366 0.00330485 3.55669e-20)
(0.0266634 0.0320641 0.00113406 -0.0219543 0.00204261 2.10656e-19)
(0.062553 0.0530739 -0.00213202 0.0294329 -0.00133322 3.8422e-20)
(-0.0172343 0.00568962 -0.00038333 0.00699038 -0.000490818 4.34834e-21)
(0.0206691 0.00601468 -0.000208012 -0.0107645 -6.9163e-05 7.85518e-21)
(0.0193275 0.00681548 -0.000338803 -0.0102574 -0.000478177 2.25138e-21)
(-0.0165184 0.00685761 -0.000246196 0.0078008 -0.000100967 5.46736e-22)
(0.0480212 0.0637586 -0.00155829 -0.00858703 -0.00339866 3.20447e-20)
(0.0557115 0.065869 0.00110759 0.0206743 0.000563571 6.52903e-20)
(-0.03442 0.0455124 -0.0021211 -0.011774 -0.00368087 9.31591e-20)
(-0.0359021 0.0441606 0.00173211 -0.0335472 0.000920466 1.02598e-21)
(0.0346709 -0.0110626 9.3116e-05 -0.0218047 0.000683593 4.34174e-20)
(0.0388259 0.000673772 -0.00103987 -0.00274831 -0.000578623 8.99374e-21)
(-0.000842624 0.0214071 0.000150269 -0.0103919 0.00089671 3.5845e-21)
(-0.00674645 0.0100963 -0.00098566 -0.0310524 -0.000474378 1.97045e-21)
(0.0327215 0.0183398 -0.000945368 -0.00657275 -0.00118794 7.46058e-21)
(-0.0218485 0.0212489 5.49817e-05 -0.00277095 0.000279115 2.20601e-21)
(0.0348718 0.0178959 -3.9845e-06 -0.00685041 0.000230818 2.61233e-20)
(-0.0240547 0.0197276 -0.0010452 -0.00546643 -0.00117794 1.41833e-20)
(-0.0311477 0.0592677 0.00244426 -0.0435838 0.00151222 1.09206e-21)
(-0.0310759 0.0656517 -0.00326921 -0.0210352 -0.00512435 1.21246e-19)
(0.0579747 0.076469 -0.00259504 -0.0131466 -0.0047955 4.01448e-20)
(0.0648844 0.0841304 0.00161175 0.0173395 0.00100362 8.80672e-20)
(-0.00375092 0.031783 0.000195234 -0.0173104 0.00126969 7.02429e-21)
(0.0517918 0.0134218 -0.00160363 -0.00505978 -0.00107557 1.09873e-20)
(-0.0118649 0.0239187 -0.00159288 -0.0381991 -0.000959034 8.14829e-21)
(0.0480512 0.00530526 0.000120559 -0.023743 0.00100272 5.53566e-20)
(0.0491253 0.00831948 5.20871e-05 -0.0235997 0.000832385 4.65147e-20)
(-0.0118314 0.0243582 -0.00145224 -0.034184 -0.000969045 1.13522e-20)
(-0.00540787 0.0300127 8.03817e-05 -0.016668 0.00100419 7.18865e-21)
(0.0504726 0.0140919 -0.00143841 -0.00794048 -0.00106661 7.33329e-21)
(-0.00724198 0.0841659 0.0020883 -0.0361077 0.00514021 3.38069e-20)
(0.0784708 0.0627381 -0.00639224 0.00216018 -0.00509893 3.39569e-20)
(0.078556 0.0699299 0.00134798 -0.0290529 0.00393473 1.89865e-19)
(-0.0156336 0.0896474 -0.00645751 -0.0712413 -0.00486869 3.53097e-20)
(0.0802098 0.074775 0.00137602 -0.0271627 0.00386154 1.82409e-19)
(-0.00980275 0.0839531 0.002119 -0.0367033 0.00502265 3.36142e-20)
(-0.0169214 0.0913811 -0.00664289 -0.0682167 -0.00529259 4.32045e-20)
(0.0781804 0.0651069 -0.00652475 0.00034859 -0.00549407 3.59315e-20)
(0.0272772 0.155577 -0.0156292 -0.100107 -0.0120138 2.4228e-20)
(0.0778946 0.140539 0.00497716 -0.0406143 0.010655 4.58574e-19)
(0.0622163 0.102967 -0.015629 0.00669761 -0.0123621 6.52642e-20)
(0.0182313 0.121304 0.00707404 -0.0516718 0.0138854 8.13711e-20)
(0.0175391 0.0223844 -6.93371e-05 -0.00295838 -0.0006957 8.68312e-21)
(0.0195842 0.0160679 0.000164675 0.0135853 -5.68385e-05 1.61176e-20)
(-0.0295034 -0.000192869 -0.000271787 0.012091 -0.000823672 2.57921e-20)
(-0.0296706 0.00550587 0.000338673 -0.000655034 1.48223e-05 -3.01268e-22)
(0.00310545 -0.0239287 0.000275514 -0.00452159 0.000280289 4.00999e-20)
(-0.0130699 -0.00273334 -0.000114752 -0.0220844 -4.71054e-05 -5.54987e-22)
(0.00582963 0.0206901 0.000469763 -0.00501959 0.000533406 8.56926e-21)
(0.0234629 -0.00221106 -0.000278693 0.0122402 -0.000178369 9.34343e-21)
(-0.00865099 0.0894874 0.00254159 -0.0388569 0.0056776 3.06725e-20)
(0.0833264 0.0847114 0.00167391 -0.0292643 0.00437071 2.0797e-19)
(0.0795991 0.0703717 -0.00738295 -0.000912829 -0.00626123 3.88163e-20)
(-0.0143575 0.101287 -0.00752487 -0.0709422 -0.00605684 4.13242e-20)
(0.00560538 -0.0020928 0.000535055 -0.00914483 0.000515573 1.02562e-19)
(-0.0219444 0.020857 -0.000231183 -0.0461084 -0.00016469 -2.11703e-21)
(0.0148475 0.0478563 0.00102796 -0.0125807 0.00112052 2.08006e-20)
(0.0455448 0.0228146 -0.000564484 0.0237795 -0.000419407 2.29984e-20)
(0.0109009 0.0111112 0.000713418 -0.0136109 0.00082806 1.4061e-19)
(0.0535744 0.0356357 -0.000901238 0.0281943 -0.000628228 2.98275e-20)
(-0.0216806 0.0339545 -0.000499814 -0.0589509 -0.000302215 -3.22991e-21)
(0.0172434 0.0605629 0.00138247 -0.0158118 0.0016575 2.82002e-20)
(0.05132 0.134358 -1.58387e-05 0.0331313 -0.000853962 8.5712e-20)
(0.0183238 0.117755 0.000456648 -0.0326214 -0.000688268 4.4826e-19)
(0.0509044 0.134587 0.00238154 -0.0393797 0.00116777 9.56758e-20)
(0.0246464 0.112207 0.00105635 -0.106375 4.68007e-05 -4.01548e-20)
(0.0105158 0.0204866 0.000314456 -0.00439465 -6.4217e-06 6.85586e-21)
(-0.0169923 -0.000233861 0.000242155 -0.00818152 4.01153e-05 -1.11024e-21)
(0.0128689 0.00746705 4.36647e-05 0.0138029 -8.49482e-05 1.02129e-20)
(-0.0155635 -0.0113848 9.43307e-05 0.00797898 -0.000220918 2.9885e-20)
(0.0491799 0.265009 0.00238171 -0.0553526 0.0018362 1.09492e-18)
(0.027047 0.237508 -0.00221733 0.0192451 -0.00337093 7.17558e-20)
(0.0559566 0.197664 0.00545003 -0.0509388 0.00438283 1.39476e-19)
(0.0844776 0.216285 -0.00140548 -0.129639 -0.00237985 -1.32593e-19)
(0.0379232 0.288388 0.00597188 -0.0404629 0.00822193 1.468e-18)
(0.0425705 0.203204 0.00948426 -0.0407296 0.0112376 1.64161e-19)
(0.0107795 0.245356 -0.00717953 0.0302029 -0.00684035 6.62094e-20)
(0.0756235 0.233937 -0.00660795 -0.115945 -0.00602255 -1.70616e-19)
(0.0344342 0.0583022 -7.41863e-05 -0.00903805 -0.0015811 2.75178e-20)
(0.0474018 0.0493012 0.000713793 0.0285345 7.06696e-05 4.3665e-20)
(-0.0264958 0.0251596 -0.000670889 -0.00411869 -0.00202866 1.00294e-19)
(-0.0345372 0.0327447 0.00125498 -0.0360328 0.000369972 -3.25205e-21)
(-0.00876248 0.0919373 0.00278218 -0.0408534 0.00584461 3.20484e-20)
(0.0842647 0.0902878 0.00185034 -0.0279182 0.00451661 2.12716e-19)
(0.0796951 0.0735339 -0.00783917 -0.00257739 -0.00685569 4.12393e-20)
(-0.0139894 0.105685 -0.00802367 -0.0699157 -0.00667402 4.7274e-20)
(-0.0203245 0.0174801 -0.000263148 -0.00436777 -0.00140797 1.01468e-19)
(0.0451934 0.0434394 0.000505868 0.0293107 -5.06794e-05 3.80463e-20)
(-0.0315411 0.028386 0.00101275 -0.0384315 0.000235892 -3.4697e-21)
(0.0293031 0.0563399 0.000332936 -0.00906852 -0.00090981 2.55779e-20)
(0.0499627 0.128813 -0.00106527 0.0351512 -0.00124697 8.35057e-20)
(0.0226434 0.114605 0.00112488 -0.0329619 0.000759454 4.63511e-19)
(0.0457698 0.134437 0.00311589 -0.0377113 0.00276463 9.39803e-20)
(0.0250691 0.114337 -9.18994e-05 -0.107954 -0.000372721 -4.05647e-20)
(0.0263831 0.151258 -0.0143241 -0.102203 -0.0105598 2.22931e-20)
(0.076617 0.134142 0.00456952 -0.0419614 0.0102176 4.56211e-19)
(0.061606 0.101719 -0.0143924 0.0105392 -0.0109546 6.32062e-20)
(0.0166198 0.121766 0.00661155 -0.047674 0.0134115 8.48522e-20)
(-0.0279055 0.0648196 -0.00408838 -0.0433427 -0.00377079 3.94926e-20)
(-0.0215124 0.0623979 0.00114852 -0.0272858 0.00249245 1.36883e-20)
(0.0700429 0.0562804 0.000719524 -0.0142814 0.00193823 1.04396e-19)
(0.0674538 0.05139 -0.00389516 -0.00316809 -0.00385974 2.4717e-20)
(0.0140797 -0.0165504 0.000398101 -0.0117404 0.00067308 6.17262e-20)
(-0.0142855 0.00740485 -0.000471438 -0.035921 -0.000176116 -1.88094e-23)
(0.0368874 0.00446975 -0.000660748 0.0133347 -0.000347345 1.27687e-20)
(0.00691354 0.0297303 0.000660716 -0.00941349 0.00106871 1.42328e-20)
(0.0650101 0.0361816 0.000745349 -0.0274406 0.00265605 1.35725e-19)
(0.0720195 0.0410176 -0.00397023 0.0050332 -0.00278854 2.38825e-20)
(-0.00417547 0.0647689 0.00119658 -0.0285383 0.00350883 2.3533e-20)
(-0.0169987 0.05959 -0.00393647 -0.0650335 -0.00256163 1.71932e-20)
(0.0483603 0.113231 -0.0149677 0.0209265 -0.0110023 6.43615e-20)
(0.0199738 0.130914 0.00792209 -0.0430275 0.015679 1.15559e-19)
(0.0654528 0.144569 0.00539642 -0.0400032 0.0118022 6.00702e-19)
(0.0369178 0.158363 -0.014739 -0.108764 -0.0104955 -5.38143e-21)
(-0.014889 0.0134441 -0.000793068 -0.0428012 -0.000317869 7.63539e-22)
(0.0201148 -0.0124917 0.000469293 -0.0142558 0.000958593 7.42483e-20)
(0.00700647 0.035474 0.000767229 -0.0125478 0.00143314 1.68244e-20)
(0.0433711 0.00858651 -0.000982545 0.013897 -0.000509148 1.46752e-20)
(-0.0356303 0.0250423 0.000661224 -0.00960224 0.000350796 1.21485e-21)
(0.0375586 0.0356785 0.000391891 0.01274 0.00021697 3.53532e-20)
(-0.0362623 0.0220789 -0.0011808 0.00125041 -0.00196413 3.92825e-20)
(0.0336243 0.0375479 -0.000898621 -0.00359502 -0.00185641 1.48907e-20)
(-0.0345319 0.0187433 0.000553814 -0.0064739 0.000183653 4.06945e-22)
(0.0313404 0.0289251 0.000312939 0.0138533 7.95075e-05 2.7507e-20)
(-0.034096 0.0151268 -0.00078828 0.00574598 -0.00153716 3.50399e-20)
(0.0274663 0.0323098 -0.000525271 -0.00331029 -0.0014141 1.32566e-20)
(0.0254019 0.0248415 -0.000631231 -0.00215695 -0.0012156 8.50034e-21)
(-0.0312721 0.0172871 0.000228565 -0.000118265 0.000134622 1.07202e-21)
(0.0276529 0.0233944 0.000110179 0.00739505 8.64755e-05 2.26323e-20)
(-0.0325218 0.0147947 -0.000794657 0.00557248 -0.00125853 2.19398e-20)
(0.0219393 -0.0206542 0.000271082 -0.0155213 0.000726906 4.01907e-20)
(-0.00877943 0.00265804 -0.000641542 -0.0328422 -0.000231271 1.30789e-21)
(0.00439308 0.0204851 0.000399121 -0.0102565 0.000992062 1.10028e-20)
(0.0356564 -0.00328767 -0.000753138 0.00530563 -0.000357917 8.33991e-21)
(-0.00884324 -0.0184738 0.000125373 0.00525743 -1.83984e-05 2.64383e-20)
(-0.0116717 -0.00455144 0.000148043 -0.00501454 5.11825e-05 -1.02063e-21)
(0.00732609 0.0182805 0.000315027 -0.00449502 0.000198703 5.51643e-21)
(0.0105096 0.00222893 -3.49261e-05 0.00694501 -8.19206e-05 7.50863e-21)
(0.00935243 0.0141245 0.000183989 -0.00470597 -4.41814e-05 4.68023e-21)
(0.00683864 0.00191519 2.59737e-05 0.00901863 -6.71144e-05 7.15036e-21)
(-0.0159861 -0.00379336 0.000178772 0.00119262 2.93283e-05 -3.5597e-22)
(-0.0185869 -0.0145195 1.7891e-05 0.0129055 -0.000200721 1.77414e-20)
(0.0311535 0.0305061 -0.000861332 -0.00326493 -0.00156174 1.11383e-20)
(-0.0331578 0.0220281 0.000387977 -0.00414241 0.000272378 1.54566e-21)
(-0.0347847 0.0196365 -0.00106498 0.00250699 -0.00161608 2.86511e-20)
(0.0336913 0.029274 0.000214531 0.00798695 0.000184354 2.96876e-20)
(0.0245582 -0.0165954 0.000350469 -0.0166934 0.000893865 5.53138e-20)
(-0.0109264 0.0085419 -0.000824214 -0.0386729 -0.0003232 1.58548e-21)
(0.0410249 0.0024025 -0.000959364 0.00787969 -0.000477769 1.14444e-20)
(0.00497696 0.0281001 0.000545666 -0.0121339 0.00125112 1.3992e-20)
(0.0767849 0.101437 0.00206536 -0.000669901 0.00239008 1.34134e-19)
(-0.0284097 0.0925757 -0.00594294 -0.0380219 -0.00715822 9.77404e-20)
(0.0723443 0.0810609 -0.00538164 -0.0137373 -0.00702576 5.2112e-20)
(-0.0242509 0.0759753 0.00305774 -0.0438815 0.00316344 9.83323e-21)
(0.0757563 0.105699 0.00230347 0.00251428 0.00235028 1.34207e-19)
(-0.02617 0.0963882 -0.00599289 -0.0372371 -0.00756916 1.13902e-19)
(-0.0218038 0.0787535 0.00338439 -0.0486052 0.00314383 8.15209e-21)
(0.0720072 0.0846241 -0.0053529 -0.0162925 -0.00736534 5.60423e-20)
(-0.0129665 0.0667477 -0.00425889 -0.0753619 -0.00261304 1.62157e-20)
(0.000943088 0.0742541 0.00163592 -0.0301104 0.00429611 2.81727e-20)
(0.0737716 0.0456653 -0.00436545 0.0102504 -0.00290256 3.01119e-20)
(0.0639936 0.0383303 0.00101549 -0.0306726 0.00319497 1.66486e-19)
(0.070018 0.0617508 -0.00445829 -0.00562279 -0.00483697 2.78473e-20)
(0.0733732 0.0721614 0.00106699 -0.00928462 0.00211959 1.14539e-19)
(-0.025669 0.0676772 0.00165401 -0.0307712 0.00274647 1.46832e-20)
(-0.0318004 0.0747808 -0.00475361 -0.0401887 -0.00479643 5.38155e-20)
(0.0395304 0.0681913 -0.000134979 -0.0122598 -0.0018961 3.43351e-20)
(0.052676 0.0594278 0.000894544 0.0307834 0.0001037 5.31532e-20)
(-0.0330362 0.0401737 0.00154137 -0.0447291 0.000472478 -4.0205e-21)
(-0.0253791 0.0331346 -0.000845899 -0.00744403 -0.00243122 1.25579e-19)
(-0.000546635 0.100706 0.00344707 -0.0447563 0.0074293 4.09258e-20)
(0.0776902 0.0799636 -0.00932126 0.0010655 -0.00774196 4.67501e-20)
(0.0832173 0.100817 0.00231013 -0.0318674 0.00571844 2.60521e-19)
(-0.00423981 0.118757 -0.00943996 -0.0806049 -0.00749374 4.45977e-20)
(0.000449604 0.105121 0.00397106 -0.0442073 0.00836811 4.76324e-20)
(0.0783282 0.0838635 -0.0102875 -0.000485115 -0.00845825 5.12877e-20)
(0.086325 0.10831 0.00269519 -0.0369018 0.00645627 2.8349e-19)
(-0.000678487 0.126564 -0.010406 -0.0829343 -0.00819324 4.64585e-20)
(0.0625507 0.0334748 -0.00276265 -0.00271093 -0.00228397 1.86571e-20)
(-0.0116849 0.0494628 0.000573865 -0.0228936 0.00198002 1.14731e-20)
(0.0614341 0.0307727 0.000350363 -0.0216106 0.00155405 8.46047e-20)
(-0.0198376 0.0459129 -0.00282283 -0.0453159 -0.00215327 2.01735e-20)
(0.0121906 0.0941462 0.00274296 -0.0306954 0.00581431 5.27444e-20)
(0.0518273 0.0518823 0.0016569 -0.0312327 0.00413077 2.61728e-19)
(0.0685144 0.0624357 -0.00477083 0.0237556 -0.00295849 4.19897e-20)
(-0.00405933 0.0824437 -0.00444973 -0.090466 -0.00251491 1.64333e-21)
(-0.00345143 0.0171562 0.000399762 -0.00944753 -0.000161178 1.40008e-19)
(0.051095 0.0429098 -0.000164542 0.0318152 -0.000373724 3.59832e-20)
(0.0239022 0.0630583 0.00110531 -0.0138516 0.000594587 2.78406e-20)
(-0.0260391 0.0344761 0.000335903 -0.0540081 -3.38614e-05 -4.14265e-21)
(0.0374789 0.168429 -0.00939288 -0.0714799 -0.0143948 3.20578e-19)
(0.0767187 0.179104 0.00719164 -0.0122572 0.00434418 1.52108e-19)
(0.0576034 0.118749 0.00933117 -0.117732 0.00583279 -3.38199e-20)
(0.0908778 0.130926 -0.00796573 -0.0611043 -0.0135229 1.20878e-19)
(0.0147134 0.0973519 0.00291917 -0.0296785 0.00584481 5.90132e-20)
(0.0674774 0.0685717 -0.00454234 0.0255737 -0.00281162 4.46628e-20)
(0.0488934 0.0573428 0.00172862 -0.0324869 0.00407602 2.81698e-19)
(-0.00219768 0.0844602 -0.00415513 -0.0924491 -0.00233067 -2.53063e-21)
(0.11516 0.148617 -0.0130417 -0.0958383 -0.019717 1.70345e-19)
(0.129625 0.155341 0.0140407 -0.171804 0.0101504 -7.13013e-20)
(0.0976151 0.213018 0.0118852 -0.0528086 0.00838796 1.27977e-19)
(0.10482 0.223751 -0.0146053 -0.126707 -0.0207263 3.61912e-19)
(0.0439188 0.0364655 -0.00170051 -0.00427767 -0.00227479 1.48782e-20)
(0.0466277 0.0370154 0.00033065 0.00175782 0.000578481 4.72768e-20)
(-0.0339674 0.0348614 -0.001915 -0.0111737 -0.00229055 3.2301e-20)
(-0.0304892 0.0361642 0.000561899 -0.0122523 0.000762748 4.04676e-21)
(-0.0296649 -0.0198047 -9.28084e-06 0.0256937 -0.000155492 7.62807e-21)