/*--------------------------------*- C++ -*----------------------------------*\
| =========                 |                                                 |
| \\      /  F ield         | foam-extend: Open Source CFD                    |
|  \\    /   O peration     | Version:  3.0                                   |
|   \\  /    A nd           | Web:         http://www.extend-project.de       |
|    \\/     M anipulation  |                                                 |
\*---------------------------------------------------------------------------*/
FoamFile
{
    version     2.0;
    format      ascii;
    class       volVectorField;
    location    "2";
    object      u;
}
// * * * * * * * * * * * * * * * * * * * * * * * * * * * * * * * * * * * * * //

dimensions      [0 0 0 0 0 0 0];

internalField   nonuniform List<vector> 
3012
(
(1.32607 0.007321 0.0302501)
(2.24816 0.0809594 -0.0160531)
(1.24517 0.299994 -0.0373447)
(2.01004 0.0437496 0.0249297)
(3.45337 -0.419947 0.337193)
(1.7533 0.4187 0.0580384)
(1.66051 1.2266 -0.297553)
(0.0779228 -1.26429 -0.0564286)
(1.44767 0.636638 -0.00467539)
(1.43106 -0.50856 0.0477663)
(1.90904 -0.02373 -0.047543)
(1.97866 0.0990037 0.00051108)
(2.15803 0.0288572 -0.00908594)
(1.33825 -0.198412 0.00370902)
(1.22523 0.246357 -0.00644542)
(1.72528 -0.0614207 0.0135146)
(1.69929 -0.698738 0.381079)
(2.05901 -1.23429 0.0262015)
(3.69298 1.28296 -0.291629)
(-0.372507 0.863814 -0.0314268)
(1.6131 0.251585 0.0197898)
(1.37295 -0.406568 -0.0153353)
(1.03363 -0.276166 0.0145644)
(1.75774 0.60005 -0.0154457)
(1.13695 -0.0331188 -0.0392518)
(1.81275 -0.117064 -0.0409662)
(2.12535 -0.307819 0.0525497)
(1.39504 0.268747 0.0324412)
(1.24737 0.292325 0.00307511)
(1.56901 0.233159 -0.0054084)
(1.73873 -0.0536508 -0.0070737)
(1.67698 -0.344944 0.0106336)
(1.67797 -0.145097 -0.000250315)
(1.61866 0.31961 -0.00616587)
(1.24901 0.205232 0.00373167)
(1.77074 -0.503506 0.00414705)
(2.24472 -0.0161046 -0.062196)
(1.4867 0.255583 -0.0535174)
(1.39597 0.0202193 0.0460564)
(2.03243 0.178859 0.0788116)
(2.00339 0.0506753 -0.0105542)
(1.06009 0.292073 -0.00146008)
(1.61148 -0.0838928 0.0160197)
(1.20434 -0.124508 -0.00123794)
(1.7478 -0.206901 -3.49814e-07)
(1.91967 -0.460748 0.00412663)
(1.28914 0.197852 0.00533471)
(1.5648 0.395932 -0.0086016)
(1.82197 -0.543841 0.00379879)
(1.4672 0.489426 -0.00436412)
(1.11893 0.202905 0.00210861)
(1.54752 -0.221917 -0.00064715)
(1.41875 0.273529 0.0275234)
(1.72952 -0.3663 -0.00539119)
(1.94978 -0.210179 0.0129296)
(1.55503 0.0785669 -0.0346614)
(1.74753 0.90534 -0.114376)
(1.77027 0.0114375 -0.0990905)
(2.99898 0.20734 0.174113)
(1.01397 -1.27396 0.0945791)
(1.68443 1.01329 -0.13068)
(1.76515 -0.0586062 -0.126261)
(2.62332 0.194981 0.196278)
(0.599465 -1.25055 0.118245)
(2.03175 0.0391979 -0.0138994)
(1.30159 -0.184413 0.00137574)
(1.1941 0.161753 -0.004466)
(1.69739 -0.0469076 0.0198271)
(1.11422 0.00673858 0.00618317)
(1.64217 0.0706477 0.0230549)
(1.98087 0.26506 -0.0170066)
(1.3261 -0.328423 -0.00785433)
(1.656 0.311072 0.00362777)
(1.50731 -0.487975 0.0154873)
(1.5653 -0.204078 -0.0142251)
(1.34714 0.369348 -0.00399795)
(1.27216 0.22057 -0.00147025)
(1.49432 0.365661 0.000441396)
(1.6122 -0.454932 0.0115926)
(1.49097 -0.257234 -0.00955001)
(2.19142 0.125436 -0.0165559)
(1.33575 -0.256007 0.00407836)
(1.80426 0.0178771 0.0230138)
(1.19603 0.140765 -0.00712975)
(1.06253 0.133136 0.00263938)
(1.59546 0.0597245 0.0189479)
(1.96042 0.221492 -0.0133835)
(1.23172 -0.252437 -0.00457877)
(1.57604 -0.144175 -0.00498393)
(1.45496 0.323781 -0.00290173)
(1.1207 0.193431 0.000899806)
(1.69308 -0.464525 0.00818321)
(1.3586 -0.668156 0.0528022)
(1.58641 0.63002 -0.00427077)
(1.84419 -0.264548 -0.054561)
(2.05066 0.0560635 -0.000454844)
(1.79007 -0.244934 -0.0413048)
(2.03853 -0.0808507 0.10017)
(1.95331 0.683896 -0.0774852)
(0.953711 -0.403619 0.0382968)
(1.0798 0.181628 0.006288)
(1.66534 -0.00564313 0.0211311)
(2.0958 0.122747 -0.0158471)
(1.22335 -0.247719 -0.0084315)
(1.51413 0.35976 0.00799602)
(1.62269 -0.206039 -0.0149868)
(1.7104 -0.489362 0.0168827)
(1.21099 0.277041 -0.00720747)
(1.16836 -0.259302 0.015649)
(1.67795 0.282243 -0.0143681)
(1.25942 -0.351235 -0.0161203)
(1.57819 0.189378 0.0183973)
(1.17276 0.0795472 0.00440518)
(1.44341 0.372578 -0.00720504)
(1.96773 -0.326998 0.000253247)
(1.6933 -0.0524907 0.00473107)
(1.2379 -0.590735 0.00572846)
(1.34569 -0.250351 -0.00543583)
(1.13675 0.585294 0.00630002)
(0.784476 0.700034 -0.0052048)
(0.649898 -0.463383 -0.00440927)
(1.88093 0.0849731 -0.0092984)
(1.45382 -0.0155196 0.0112601)
(0.536525 -0.0411629 0.00363692)
(2.39335 -0.455939 -0.00505807)
(1.1735 0.413405 0.118822)
(1.44168 0.420985 -0.137691)
(2.45444 -0.19756 0.0144047)
(1.5387 -1.32276 0.141137)
(2.3775 -0.265362 -0.143432)
(2.20963 0.680763 -0.179988)
(0.975992 1.05887 0.116888)
(1.47026 0.227229 -0.00305986)
(1.57458 0.762345 0.125099)
(2.67089 -0.523752 0.00970891)
(0.734305 -0.376095 -0.136929)
(2.46203 -0.435132 0.245478)
(1.40642 1.05332 -0.174959)
(1.85711 -1.23488 -0.248766)
(1.26094 0.700838 0.112933)
(1.33927 -0.251203 -0.00899249)
(1.99735 0.276581 0.0895232)
(1.3902 -0.173753 0.00591336)
(1.90371 0.222994 -0.0692118)
(2.74441 0.418018 -0.0022296)
(1.94626 -0.274334 -0.268314)
(0.888742 1.36338 -0.0492297)
(1.78247 -1.43472 0.266178)
(2.73874 0.196101 -0.0380309)
(2.14914 0.127748 -0.216385)
(0.833203 1.24355 -0.040981)
(1.27091 -1.57252 0.215676)
(1.41253 -0.124327 0.00277977)
(1.06115 -0.102806 0.00113392)
(1.99646 -0.311995 0.000501793)
(1.26054 0.508865 -0.00309926)
(2.0223 -0.287626 0.0042781)
(1.32579 0.425271 -0.00311547)
(1.12152 0.0586926 0.00124751)
(1.6758 -0.0790571 -0.000486035)
(1.24848 -0.326975 0.0176452)
(1.41199 -0.381989 -0.017725)
(1.58835 0.265639 0.0156697)
(1.65117 0.439118 -0.0127835)
(1.26659 0.120869 0.0854776)
(2.2616 -0.037661 -0.115175)
(1.3354 -0.053633 -0.0934199)
(2.42629 0.165107 0.141013)
(1.72012 -0.204352 -0.00562444)
(1.6613 0.408098 -0.00823566)
(1.29722 0.08272 0.00525422)
(2.0295 -0.546136 0.00827346)
(1.51784 -1.01082 0.0696545)
(0.170609 -0.024873 0.201335)
(2.74119 2.1335 -0.109486)
(2.78763 -1.0156 -0.204531)
(1.31669 0.571323 0.0393909)
(1.85749 0.344616 -0.07402)
(1.88202 -0.557233 -0.195845)
(1.8788 -0.629754 0.194833)
(1.24296 -0.0695663 0.137041)
(2.38821 -0.301078 -0.0568321)
(1.16617 0.185105 -0.148336)
(2.18062 -0.291801 0.0691909)
(1.73186 0.0521106 0.0271788)
(1.63576 -0.154005 -0.0219262)
(1.73948 0.468507 -0.0217044)
(1.23143 -0.152703 0.0214311)
(1.57646 0.608027 -0.0148391)
(1.26673 -0.497211 0.02025)
(1.82627 0.100755 0.0172581)
(1.7501 -0.245738 -0.0213367)
(1.2975 -0.342704 0.0153933)
(1.42778 -0.455044 -0.0156092)
(1.72881 0.388514 0.0151275)
(1.84842 0.534233 -0.0122288)
(1.65533 -0.580976 0.0147446)
(1.71775 0.292827 -0.00806303)
(1.22232 0.36481 0.00522011)
(1.7403 -0.120942 -0.0115947)
(2.19364 -0.0865622 -0.0121237)
(1.2687 -0.209942 0.00359932)
(1.72317 -0.171714 0.0158114)
(1.17628 0.267626 -0.00667216)
(2.16126 -0.132695 -0.0105423)
(1.33291 0.275346 -0.00608376)
(1.27142 -0.169674 0.00276864)
(1.74739 -0.0477003 0.0161862)
(2.48582 -0.397901 -0.0019776)
(1.34007 0.511694 -0.00130346)
(1.55706 -0.118445 0.00494021)
(1.06137 -0.450933 0.000181995)
(2.25777 0.581644 -0.011403)
(1.32945 -0.778401 -0.00868709)
(0.990491 -0.140246 0.00796317)
(1.60205 0.230689 0.0141201)
(1.23623 0.21681 -0.00404344)
(1.7586 0.0141924 0.0269972)
(2.16636 0.0735873 -0.0199651)
(1.34002 -0.193398 0.00125008)
(1.38674 -0.552696 0.00910943)
(1.68596 0.576863 -0.00330137)
(1.37291 -0.496982 -0.00888879)
(1.73428 0.585946 0.00466723)
(1.77821 -0.0498381 -0.0038524)
(1.13894 0.217536 0.00241958)
(1.98183 -0.411085 0.00686679)
(1.51316 0.435281 -0.00362472)
(1.87439 0.381618 -0.0161407)
(1.2139 -0.391335 -0.0107566)
(1.61462 0.200937 0.0209999)
(1.03951 -0.137982 0.00943855)
(1.3607 -0.412879 -0.0144271)
(1.54448 0.399553 0.00901472)
(1.51586 0.397281 -0.0078248)
(1.36493 -0.438056 0.0153565)
(1.65552 0.3204 -0.00777134)
(1.87866 -0.525766 0.0149238)
(1.80211 -0.172343 -0.012689)
(1.27479 0.246944 0.0051569)
(1.61111 0.0527021 0.0182038)
(1.37266 -0.304995 -0.0158058)
(1.05687 -0.00612322 0.0147047)
(1.91558 0.368025 -0.0147356)
(1.93799 0.444802 -0.0151925)
(1.21722 -0.244683 0.0159518)
(1.64554 0.231228 0.0190409)
(1.42308 -0.521235 -0.0163919)
(1.83949 0.132285 0.0279374)
(1.73919 -0.234099 -0.0243526)
(1.65521 0.495974 -0.0223258)
(1.39715 -0.426281 0.0238665)
(2.00714 0.452417 -0.0181008)
(1.8738 0.0441904 0.0213275)
(1.31327 -0.11706 0.0258933)
(1.69317 -0.239517 -0.0268406)
(1.01353 -0.422547 0.0618138)
(1.69717 0.749314 -0.0588404)
(1.78286 -0.110415 -0.0631517)
(1.97665 -0.035654 0.0753754)
(1.49239 -0.241764 -0.0043837)
(1.06978 0.197642 3.68525e-05)
(1.80965 -0.465121 0.00730232)
(1.29782 0.524674 -0.00147356)
(1.94746 0.122364 -0.0095868)
(0.924015 0.232724 -0.000508494)
(1.46426 0.0261863 0.0146279)
(1.02386 -0.263911 -0.00183513)
(1.77952 0.065999 0.0274963)
(1.504 0.476224 -0.0223713)
(1.74064 -0.125505 -0.0253907)
(1.35869 -0.40531 0.0256501)
(1.91926 -0.0654572 -0.0128424)
(1.27394 0.100072 -0.00204457)
(1.72096 -0.00808248 0.0199838)
(1.23051 -0.10014 -0.00101096)
(2.23509 0.0974459 -0.0134805)
(1.34304 -0.245258 0.000877238)
(1.26821 0.321458 -0.00325742)
(1.68611 0.0458752 0.0192417)
(1.46689 0.148565 0.0438651)
(1.73623 -0.0856879 -0.0219624)
(2.00197 -0.126579 0.03018)
(1.40392 -0.0914837 -0.0514945)
(1.64068 -0.14827 0.00443356)
(1.32679 0.600863 -0.00274485)
(0.885525 -0.0353386 0.00104767)
(2.24533 -0.583067 -0.00127831)
(2.60807 -0.391072 -0.180293)
(0.836632 -0.0230906 0.171227)
(2.22255 0.110022 0.205976)
(1.24498 0.337617 -0.181826)
(2.07993 -0.967532 -0.15195)
(3.12828 1.03678 0.167202)
(0.0369513 0.481284 0.170247)
(2.02272 -0.541836 -0.173278)
(1.71358 -0.0254179 -0.00123972)
(1.15447 0.128365 0.00440239)
(1.80654 -0.27457 0.00558129)
(1.4109 0.248403 -0.00775384)
(1.88955 0.104956 0.0235201)
(1.73756 0.553531 -0.0195986)
(1.78313 -0.226165 -0.0267238)
(1.37177 -0.371882 0.0264581)
(1.97872 -0.160253 -0.000852179)
(1.10596 -0.0627565 0.00140997)
(1.34999 0.25262 -0.00296593)
(1.68486 0.0868974 0.00680308)
(1.23885 -0.0447557 0.0492598)
(2.45287 -0.121933 -0.0434731)
(2.09068 -0.000318994 0.0523666)
(1.29888 0.348722 -0.0585858)
(1.35852 -0.47116 0.0336665)
(1.90839 0.661254 -0.0617517)
(1.99122 -0.243446 -0.0354704)
(2.09725 0.00181507 0.0768878)
(1.34873 -0.367875 0.0198156)
(1.68403 0.1706 0.0112679)
(1.55167 0.530301 -0.0100029)
(1.68781 -0.242327 -0.0197574)
(2.30403 0.0598535 -0.010332)
(1.13948 0.296842 7.64706e-06)
(1.23933 -0.29454 -0.00206639)
(1.71952 -0.0297615 0.0144117)
(1.89564 0.41882 -0.0196359)
(1.49046 -0.269817 -0.0150748)
(1.76633 0.0951391 0.025458)
(1.16912 -0.156948 0.0141095)
(1.9029 -0.0954371 -0.0693549)
(2.09317 -0.0650588 0.119817)
(1.8997 0.58587 -0.090351)
(1.16617 -0.32191 0.0675738)
(1.10072 0.189965 0.00183699)
(2.15873 0.231107 -0.0136162)
(1.66775 0.0523386 0.0190587)
(1.29289 -0.304109 -0.00374952)
(1.59678 0.374411 -0.000306302)
(1.3072 0.255836 -0.000950058)
(1.70324 -0.538536 0.0117473)
(1.60346 -0.257278 -0.00968872)
(1.52976 0.476707 0.000632628)
(1.25659 0.20586 -0.00132526)
(1.95391 -0.46338 0.00835023)
(1.68457 -0.211536 -0.00607462)
(1.51061 -0.218666 -0.0130896)
(1.59998 0.420432 0.00308504)
(1.31426 0.349512 -0.00369498)
(1.59336 -0.487955 0.014943)
(2.15861 0.231599 -0.0151717)
(1.06953 0.131431 0.0058096)
(1.54986 0.0555372 0.0216464)
(1.25935 -0.471141 -0.00767995)
(2.10044 -0.20696 -0.00385785)
(1.26461 0.610362 -0.000557523)
(1.47167 -0.0497749 0.00725049)
(1.09925 -0.0499015 -0.000474195)
(1.45504 -0.158658 0.00175634)
(1.19664 -0.206304 -7.00042e-05)
(1.23648 0.358744 -0.00157204)
(1.99543 -0.18285 0.000491282)
(1.57597 -0.258132 -0.0135145)
(1.43083 0.343672 0.0039756)
(1.62765 -0.448193 0.0157178)
(1.23016 0.288985 -0.00435669)
(2.00193 0.109339 -0.0155666)
(1.07442 0.13691 0.00482916)
(1.14699 -0.226396 -0.00692604)
(1.63761 0.0450714 0.0212378)
(1.27902 0.359681 -0.00097614)
(1.66376 -0.39545 0.0254018)
(1.81183 -0.0606414 -0.023463)
(1.64626 0.190258 -0.00109971)
(1.36281 0.532184 0.00148062)
(1.66692 -0.423129 0.0270643)
(1.76802 0.263773 -0.00402881)
(1.91408 -0.0717148 -0.0252667)
(1.1209 -0.123244 0.0126251)
(1.73762 -0.0465203 0.0290047)
(1.45608 -0.284445 -0.0142511)
(1.91366 0.280573 -0.0224636)
(1.69013 -0.174877 -0.0222079)
(1.46982 0.518044 -0.00935078)
(1.7564 0.221356 0.0101535)
(1.41781 -0.444753 0.0229325)
(1.74382 0.0218014 0.00189546)
(1.21391 0.0297452 0.00388747)
(1.47444 0.30363 -0.00616661)
(1.99364 -0.229083 0.00338499)
(1.85449 -0.140632 0.0347872)
(1.6647 -0.0629764 -0.0387374)
(1.64163 0.31924 -0.0283684)
(1.22675 -0.277354 0.0371718)
(1.89125 -0.0695842 0.0346135)
(1.79696 -0.0645366 -0.0366988)
(1.69138 0.571325 -0.0289075)
(1.18825 -0.272816 0.0345559)
(1.5187 -0.362068 -0.0159418)
(1.69012 0.15999 0.0166377)
(1.78921 0.366807 -0.0135114)
(1.32611 -0.270017 0.0156096)
(1.7634 -0.0561526 0.0369301)
(1.903 0.0298286 -0.0279647)
(1.3562 -0.0814425 -0.00438896)
(1.23717 0.0465467 0.00131741)
(1.98067 -0.125642 -0.00726169)
(1.26924 -0.0901267 0.004459)
(1.63914 -0.0602358 0.0119009)
(1.3113 0.279131 -0.00753286)
(1.58954 -0.221758 0.0547077)
(1.53076 0.564162 0.0686012)
(1.403 0.117187 -0.083733)
(2.04178 -0.43093 -0.0511793)
(1.95746 -0.12145 0.0385247)
(1.43135 -0.233493 -0.00274055)
(2.14301 0.00194332 -0.0292831)
(1.25034 -0.0595475 -0.000261509)
(2.31079 -0.316134 -0.0406193)
(1.7945 0.737324 -0.210007)
(1.14945 0.558574 0.177301)
(2.39509 -0.90019 0.0437806)
(1.65927 -0.220983 -0.0162044)
(1.29655 0.491765 -0.00752926)
(1.524 -0.445309 0.0174383)
(1.53577 0.344066 0.0082984)
(1.60896 -0.34804 0.00158712)
(0.575069 0.23389 -0.0011648)
(1.40603 -0.119297 -9.26073e-05)
(0.820422 0.45891 0.00104822)
(0.503224 -0.0380902 -0.00118275)
(0.726023 0.269044 -0.000338064)
(1.38511 -0.165481 0.0080717)
(1.66266 -0.391351 -0.00630958)
(1.22438 -0.298377 -0.0103557)
(2.01284 0.16139 -0.017423)
(1.73989 0.00212052 0.0231163)
(1.04979 -0.0321653 0.00876655)
(1.81398 -0.237859 -0.0155245)
(1.96889 0.12401 0.0481011)
(1.29118 -0.157325 0.0129941)
(2.09325 0.627241 -0.0374588)
(1.61116 -0.173161 -0.0108078)
(1.93951 -0.099647 0.0424346)
(1.15976 -0.188991 0.00736132)
(1.95757 0.308385 -0.0337438)
(1.76242 -0.500315 0.0115803)
(1.54365 -0.412478 -0.0105821)
(1.59807 0.54778 0.00583158)
(1.50944 0.331648 -0.00559491)
(1.21123 -0.386944 0.0199666)
(2.00986 0.0178865 0.0668426)
(1.75376 -0.330337 -0.0222174)
(1.97397 0.517675 -0.0535243)
(1.62002 0.165253 0.0160051)
(2.41054 0.236265 -0.0116205)
(1.22975 -0.572031 -0.00597859)
(1.15895 0.202172 0.00483006)
(2.28218 -1.52105 -0.349314)
(3.92783 1.99267 -0.0225975)
(1.74784 0.975129 -0.0195207)
(-0.40844 -0.094979 0.340299)
(1.27978 -0.301404 0.0181261)
(1.66743 0.0812034 0.0356298)
(1.60597 0.448243 -0.0268014)
(1.65245 -0.229447 -0.0195776)
(1.1796 0.827951 -0.00149489)
(1.60645 -0.194858 0.00291633)
(2.41427 -0.196042 -0.000246284)
(1.17588 -0.0294484 -0.000290959)
(2.1122 -0.536769 -0.110676)
(1.47778 0.389091 -0.104279)
(1.43135 0.721963 0.0786768)
(1.78605 -0.400701 0.11278)
(1.91944 -0.0395817 0.0622686)
(1.19289 -0.0486574 0.0169287)
(1.60637 -0.0676369 -0.0200342)
(1.96897 0.313173 -0.0475738)
(1.70389 0.25537 0.0162725)
(1.5105 -0.347915 -0.0168197)
(1.6267 0.577007 -0.0132256)
(1.20379 -0.430606 0.0166842)
(1.57283 -0.120625 -0.0270174)
(1.61851 0.432576 -0.010273)
(1.77814 0.0476189 0.0109012)
(1.20825 -0.261539 0.0275122)
(2.11758 0.0114448 -0.016901)
(1.42729 -0.172696 0.00179155)
(1.72619 -0.0637837 0.023622)
(1.32476 0.221542 -0.00504583)
(1.40692 0.326364 -0.188122)
(1.68533 0.733126 0.0081381)
(3.6288 0.906319 0.190899)
(0.854745 -1.3783 0.182937)
(1.27472 -0.34997 0.0144871)
(1.76612 0.178423 0.00434416)
(1.79585 0.423997 -0.00496815)
(1.50342 -0.379216 -0.0145518)
(1.79145 0.487397 -0.0192137)
(1.54339 -0.351579 -0.0104226)
(1.67272 0.244923 0.0256702)
(1.30025 -0.249253 0.0096118)
(1.88096 -0.0996265 -0.00671201)
(1.58552 0.389751 -0.0228482)
(2.04331 -0.41267 0.0100319)
(1.24436 0.205793 0.0172972)
(1.68411 -0.167918 -0.00569501)
(1.42757 0.33368 -0.00476467)
(1.30256 0.153294 0.00218663)
(1.85348 -0.276874 0.00961949)
(0.712845 -0.71042 0.127832)
(1.88378 0.315103 0.315686)
(3.32039 -0.35529 -0.281234)
(1.24205 0.74054 -0.134439)
(1.5465 0.349991 -0.0187675)
(1.26699 -0.23386 0.0180943)
(1.54397 0.171864 0.0238962)
(1.43532 -0.231263 -0.018809)
(1.7924 0.196658 -0.0213715)
(1.74728 -0.100832 -0.0151035)
(1.74914 -0.522332 0.0183308)
(1.33902 0.185211 0.0159354)
(1.69567 0.21659 -0.0119106)
(1.28646 -0.205931 0.019619)
(1.31257 -0.312055 -0.0194701)
(1.5798 0.187733 0.0149323)
(1.53671 0.365629 -0.0114963)
(1.16951 -0.392605 0.0181141)
(1.29205 -0.392602 -0.0178988)
(1.53032 0.238988 0.0139938)
(1.40789 0.335141 -0.0136641)
(1.74585 -0.117125 0.00724324)
(1.30304 -0.0962384 0.00987515)
(2.14278 -0.227865 -0.00315572)
(2.7078 0.455206 0.240002)
(2.41475 -1.75409 -0.246937)
(2.44163 0.94326 0.366513)
(-0.00771409 0.865168 -0.396112)
(1.73039 0.160447 0.00990385)
(1.41903 -0.501806 0.0194053)
(1.31992 0.398364 -0.00866446)
(1.63761 -0.12166 -0.0180708)
(1.50674 0.311583 -0.0127183)
(1.70683 -0.0969844 -0.00441281)
(1.81285 -0.379423 0.00807266)
(1.19956 0.179447 0.008784)
(1.79427 0.0136759 0.00871918)
(2.00833 -0.210155 -0.00321364)
(1.32706 -0.00629465 0.00819726)
(1.52877 0.235571 -0.0116345)
(1.59621 -0.189047 0.00348523)
(1.06168 0.0312882 0.0012719)
(1.28881 0.293549 -0.00360614)
(1.84077 -0.418512 0.000631581)
(1.76366 0.354971 0.00951443)
(1.78128 -0.505692 0.0218459)
(1.73481 -0.141388 -0.0203967)
(1.37976 0.32363 -0.00824016)
(1.89238 0.3796 -0.0185567)
(1.67786 -0.030597 0.0237891)
(1.496 -0.248518 -0.0101157)
(1.0644 -0.039753 0.00794475)
(2.21317 0.182433 -0.0199887)
(1.7695 -0.0242827 0.0257832)
(1.44396 -0.311963 -0.0109491)
(1.2115 0.122986 0.00865921)
(1.73368 -0.0347555 0.0132622)
(1.23752 -0.0501179 0.0103441)
(1.98595 -0.189833 -0.0073132)
(1.3844 0.227569 -0.0139105)
(1.54306 -0.464091 0.0137675)
(1.49648 0.46435 -0.00388004)
(1.54829 -0.331915 -0.0128989)
(1.64329 0.451882 0.00338799)
(1.64238 0.337651 -0.0140504)
(2.00178 -0.377453 0.00771845)
(1.82963 -0.0914469 -0.00356977)
(1.34013 0.135663 0.00972031)
(2.24503 -0.210466 -0.00855203)
(1.23728 -0.152538 0.00487113)
(1.75506 -0.148926 0.0129367)
(1.29246 0.352779 -0.00807539)
(1.26481 -0.487379 -0.0079473)
(2.14221 0.260831 -0.0159212)
(1.68444 0.143132 0.021651)
(1.13824 -0.0367231 0.00674133)
(-1.61975 1.98749 0.49691)
(2.39293 -2.84443 0.289434)
(3.81945 1.66046 -0.311056)
(2.94979 0.542658 -0.501363)
(1.89523 -0.00119131 0.0156903)
(2.14713 -0.110913 -0.00922711)
(1.28758 -0.0178081 0.010591)
(1.3761 0.27017 -0.0140569)
(1.63603 0.279118 -0.0158762)
(1.76078 -0.443756 0.0148222)
(1.32945 0.28136 0.0113356)
(1.76844 -0.170063 -0.0122463)
(1.86653 -0.141309 -0.0549226)
(1.94104 -0.0358769 0.00453711)
(1.48001 0.374758 -0.00685811)
(1.51009 -0.535344 0.055638)
(2.21558 0.0853488 0.0612521)
(2.68887 -1.08362 -0.0620527)
(1.8072 0.656765 0.333369)
(0.33603 0.00678477 -0.346871)
(1.51082 0.363702 0.0514844)
(1.74651 0.366406 -0.14912)
(0.984262 -0.697775 -0.0544351)
(2.82142 -0.064454 0.174056)
(1.34421 0.287697 0.0122848)
(1.81098 -0.479488 0.0253873)
(1.79403 0.236879 -0.0176093)
(1.86561 -0.0727077 -0.0224955)
(1.77305 -0.0622398 -0.00147835)
(1.37143 0.391656 -0.00625109)
(2.12122 -0.211764 0.00585272)
(1.19953 0.0266341 0.00384413)
(1.36696 0.294418 0.039719)
(1.86356 -0.27946 0.00676856)
(2.03635 -0.00218219 -0.00018599)
(1.65383 0.149022 -0.0495824)
(2.08426 -0.234479 -0.00242854)
(0.887221 -0.232621 -0.000209573)
(1.50276 0.0500165 0.00693656)
(1.18045 0.380377 -0.00109855)
(2.35193 -0.466062 0.00345428)
(1.08079 -0.0772807 -0.000556266)
(1.25086 0.737775 -0.00090256)
(1.57659 -0.313955 -0.000931228)
(1.28866 0.277283 0.0448839)
(2.17106 -0.46935 0.0332229)
(1.64872 0.430998 -0.0575869)
(2.02261 -0.156949 -0.0306756)
(1.93814 -0.152142 -0.00214977)
(1.16438 0.359556 -0.00283916)
(1.03009 -0.00513338 0.00063384)
(1.6044 -0.0124972 0.00689284)
(0.973168 -0.316148 -0.000554977)
(1.61266 0.00944554 0.00855224)
(1.23405 0.643251 -0.00121795)
(2.54679 -0.254461 -0.00483026)
(1.62695 0.411939 -0.0170248)
(1.71613 -0.0997412 -0.00603343)
(1.93698 -0.47635 0.0091577)
(1.22149 0.182303 0.0123935)
(2.43374 -0.0182174 0.153509)
(0.725635 -0.813366 0.0760138)
(1.6544 0.280952 -0.0801028)
(1.34337 0.687504 -0.11482)
(1.31177 0.237865 0.00911436)
(1.72666 -0.443274 0.0278329)
(1.80002 -0.0995157 -0.0250576)
(1.70043 0.161962 -0.0134836)
(2.16957 0.294142 0.132217)
(1.23544 -0.0813193 0.000478816)
(2.11595 0.135824 -0.106794)
(1.26891 -0.126863 -0.00501532)
(1.88937 -0.34723 -0.179869)
(1.56748 1.2933 -0.113797)
(2.49818 0.319594 0.204816)
(0.805915 -1.43281 0.175212)
(1.89141 0.304774 -0.112074)
(2.24079 -0.120259 -0.0377909)
(2.02575 -0.808434 0.0428674)
(1.19855 0.505437 0.0873029)
(2.32796 -0.633521 -0.0676847)
(1.61903 0.653278 0.122451)
(1.13277 0.215445 -0.140396)
(1.82754 -0.121566 0.0714358)
(2.29155 0.0773828 -0.0845872)
(2.08925 0.0693202 0.106889)
(1.3409 0.0388962 -0.0347531)
(1.47582 -0.161044 0.0285982)
(1.53852 -0.273848 -0.00115719)
(1.09417 0.214831 0.00215444)
(1.92925 -0.460613 0.0034288)
(1.30131 0.618826 -0.00415253)
(1.75361 -0.187822 -0.00253213)
(1.31651 0.432026 -0.00184458)
(1.12529 0.135708 0.000185331)
(2.01371 -0.356811 0.0055658)
(0.151074 1.67825 0.510841)
(2.2487 0.414993 -0.273394)
(4.85637 0.588098 -0.0488256)
(0.276186 -3.84602 0.255944)
(1.37583 0.156289 0.00655624)
(1.653 0.332988 -0.00985312)
(1.725 -0.116854 -0.00904256)
(1.88794 -0.37454 0.0121292)
(1.61395 0.150356 -0.0238861)
(1.27331 0.127442 0.0181437)
(1.89656 -0.353906 0.00938353)
(1.8935 -0.0265079 -0.00446706)
(1.63452 0.125569 0.0210254)
(1.88782 0.234157 -0.015541)
(1.1727 -0.358033 -0.00805525)
(1.05805 -0.112746 0.00677326)
(1.13247 -0.0515985 0.00827022)
(1.87865 0.170802 0.0202691)
(1.27123 -0.313148 -0.00948747)
(2.15022 0.307679 -0.0152463)
(1.51048 0.370685 0.00485224)
(1.3892 -0.411645 0.0137624)
(1.39215 0.459248 -0.00487661)
(1.47068 -0.302233 -0.0127482)
(3.63124 0.102777 0.297816)
(1.41201 0.247013 0.68559)
(3.20237 -1.93585 -0.302263)
(-0.534491 0.497797 -0.677991)
(2.01738 -0.209134 0.00419085)
(1.26185 0.384438 -0.00101184)
(1.08665 -0.0582402 -0.000344907)
(1.61421 -0.0374882 -0.000156534)
(1.56888 0.396527 0.00727164)
(1.5644 0.442417 -0.00651799)
(1.65875 -0.483164 -0.0133964)
(1.62339 -0.477815 0.0143097)
(0.919658 0.640538 -0.00103572)
(1.54086 -0.0487708 0.00723794)
(2.14436 -0.262697 -0.00272319)
(0.698902 0.00366371 -0.000348759)
(1.50824 0.379258 0.00512162)
(1.18565 -0.363197 0.0145209)
(1.55718 0.532157 -0.00536658)
(1.33124 -0.419115 -0.0136269)
(1.56729 0.288317 0.0224132)
(1.13809 -0.484339 -0.00893124)
(1.80336 0.336972 -0.0163412)
(1.08545 -0.259733 0.00779692)
(1.88579 0.500787 -0.0148551)
(1.21534 -0.298486 0.015333)
(1.72417 0.243038 0.0187612)
(1.46176 -0.441185 -0.0159818)
(0.884241 -0.242476 0.028921)
(2.41684 -0.216071 -0.171505)
(1.3309 0.0455876 -0.0338898)
(2.18475 0.378172 0.203414)
(1.83666 -0.0890086 0.00958802)
(1.5835 0.207953 -0.0362308)
(1.80436 -0.31752 -0.00359329)
(1.37451 0.198772 0.0284556)
(1.10561 0.239327 0.037332)
(2.07007 -0.549207 -0.0304357)
(1.6092 0.105912 -0.043596)
(2.22487 0.0211967 0.0421397)
(1.80105 -0.0600152 -0.0536922)
(1.47505 0.5176 -0.021463)
(1.21173 -0.663506 0.0520639)
(2.08648 -0.128041 0.0219257)
(2.19199 -0.118276 -0.0319747)
(1.3745 0.0336893 0.0575635)
(1.48874 0.231933 -0.0657382)
(1.98187 0.0530593 0.0450697)
(1.9923 -0.0178958 -0.0370142)
(1.41815 0.278673 0.0732406)
(1.015 -0.143295 -0.0817883)
(2.4652 -0.346106 0.0461863)
(2.11261 -0.14282 -0.0518021)
(1.62921 -0.540598 0.0545658)
(1.79699 0.138347 -0.0489633)
(1.34803 0.601544 0.037812)
(1.64301 0.361811 0.00551934)
(1.4064 0.499146 -0.00548266)
(1.51649 -0.474308 0.0184919)
(1.64568 -0.261081 -0.0171648)
(1.21288 -0.26504 0.00885093)
(1.90588 0.0187524 0.0299628)
(2.04003 0.415143 -0.0236067)
(1.61684 -0.374858 -0.0104917)
(1.90367 -0.174326 -0.0724412)
(1.79822 0.76832 -0.0372561)
(1.11532 -0.458486 0.071144)
(2.08963 -0.101061 0.0436651)
(1.92185 0.22861 0.00709915)
(1.66917 0.555901 -0.00717282)
(1.74928 -0.229526 -0.0205992)
(1.44257 -0.465383 0.0207592)
(1.83727 -0.267045 -0.0291121)
(1.83487 -0.0571336 0.040485)
(1.25326 -0.27076 0.0267472)
(1.84621 0.516964 -0.0321596)
(1.06671 -0.0740776 0.0076214)
(2.05651 0.286129 -0.0183694)
(1.75891 0.041326 0.0247046)
(1.32717 -0.365583 -0.0094938)
(1.55965 0.214265 -0.0356664)
(2.00231 -0.145811 0.00352352)
(2.01825 -0.455055 0.00227152)
(1.24808 0.168357 0.0290686)
(1.64389 0.271759 -0.0264089)
(1.96976 -0.369345 0.00547114)
(1.38589 0.0860128 0.0199563)
(1.77837 -0.125135 -0.00188806)
(1.99983 0.394652 -0.0290455)
(1.84586 -0.0614477 0.0373489)
(1.50415 -0.111281 -0.0185946)
(1.01764 0.0234839 0.015866)
(0.65856 0.0348665 -0.000865194)
(1.54813 0.0275286 0.00195882)
(1.11147 0.907785 0.000986796)
(2.36795 -0.421649 0.000405304)
(2.4332 -0.447854 -0.00491872)
(1.44395 -0.243856 0.00676772)
(0.959522 0.651646 -0.00198264)
(0.755562 -0.374492 -0.000164705)
(1.51966 -0.607159 0.0343861)
(1.26522 0.483697 -0.0125203)
(1.83997 -0.159599 -0.033326)
(1.73991 0.126251 0.0141201)
(1.93004 -0.094211 0.0247247)
(1.64985 -0.222834 -0.0195819)
(1.21754 -0.172679 0.0171959)
(2.00352 0.336151 -0.0212155)
(1.62723 0.0402393 0.0041696)
(1.35521 0.231801 -0.0114443)
(1.78314 -0.149588 0.000767825)
(1.17029 0.0563872 0.00827739)
(1.23824 0.0405013 0.00636246)
(1.45895 0.24601 -0.00989924)
(1.88369 -0.277641 -0.000134671)
(1.68857 -0.0564898 0.00555903)
(1.22836 0.176353 -0.00670321)
(1.35451 -0.155631 0.00355008)
(2.0402 0.0472447 -0.0133127)
(1.72773 -0.0637243 0.0200704)
(1.53967 0.39489 -0.00858698)
(1.39967 -0.405529 0.0232623)
(1.79614 0.0981942 0.00874326)
(1.66983 -0.165829 -0.0237763)
(1.90178 0.339681 -0.0173661)
(1.69313 0.117922 0.0227231)
(1.15237 -0.174629 0.00958489)
(1.37613 -0.372048 -0.0105802)
(1.01628 0.647213 -0.00519011)
(1.43539 -0.396192 -0.00682519)
(1.39244 0.61647 0.00468104)
(1.40136 -0.759108 0.00746794)
(1.95788 -0.127954 0.0111152)
(1.16046 1.37277 -0.0322159)
(2.43837 -0.160442 -0.151536)
(1.11843 -0.783008 0.153554)
(1.57324 -0.321318 -0.0150305)
(1.66512 0.283157 0.00658113)
(1.36364 -0.385689 0.0154226)
(1.59171 0.514221 -0.00632923)
(2.20185 -0.00944259 -0.113636)
(1.18964 -0.94135 0.111587)
(2.43699 -0.106569 0.0847984)
(1.56801 1.21911 -0.0796832)
(2.0924 0.101392 -0.0454823)
(2.22786 -0.147305 -0.0759345)
(1.29294 0.598736 0.0245587)
(1.7078 -0.854001 0.0797033)
(0.595113 0.0212686 0.0034824)
(2.15979 0.344915 -0.0115565)
(0.887903 -0.530481 -0.00438009)
(1.60536 0.0621739 0.0156331)
(2.89116 0.493981 0.0951498)
(0.81342 0.855211 0.0933058)
(1.4241 -0.509661 -0.0852316)
(1.73544 -0.576513 -0.100148)
(1.89624 0.217358 0.0746041)
(1.84072 -0.32038 -0.228403)
(1.48607 1.09964 -0.0694376)
(1.30079 -0.512589 0.224758)
(1.78675 -0.359659 -0.0946158)
(2.29948 -0.0675909 0.0668015)
(1.13143 -0.782026 0.0900837)
(2.06267 0.618746 -0.0611853)
(1.31138 0.317713 0.0144541)
(1.75759 -0.387689 0.0301802)
(1.68858 0.0965576 -0.0198112)
(1.99716 -0.0532533 -0.0250989)
(1.23943 0.220961 -0.00292157)
(1.51799 -0.38731 -0.00791541)
(1.55711 0.482402 0.00301832)
(1.7639 -0.689537 0.00978261)
(1.66558 0.0816655 0.0142299)
(1.22312 -0.336303 -0.00461539)
(0.931238 0.259987 0.00268943)
(2.24867 0.369625 -0.0102372)
(1.24282 0.233216 0.0901707)
(2.06985 -0.588022 -0.0138305)
(1.54738 0.222867 -0.104672)
(2.10124 -0.282679 0.0223278)
(1.16163 -0.149395 0.0116469)
(1.5264 0.143444 0.0211356)
(1.43284 -0.316168 -0.0127094)
(1.70495 0.416523 -0.0164562)
(1.60037 0.210107 0.0111163)
(1.42083 -0.293397 -0.016287)
(1.54432 0.389456 -0.00954844)
(1.25269 -0.348285 0.0166402)
(1.37806 0.413716 0.0829579)
(1.70463 -0.30844 0.0322081)
(2.14917 -0.202369 -0.0274732)
(1.45835 -0.0183517 -0.0949228)
(1.87969 0.392433 -0.0291093)
(1.67816 -0.22421 -0.0108559)
(1.77424 0.04514 0.0389814)
(1.28898 -0.127326 0.00821638)
(1.61918 -0.154799 -0.0138219)
(1.86279 -0.145117 0.0332432)
(1.21037 -0.0609134 0.0107782)
(1.97431 0.235605 -0.0272813)
(1.53944 0.405242 -0.00349303)
(1.8997 0.0906995 0.00202971)
(1.72301 -0.111614 -0.0282892)
(1.43466 -0.434148 0.0300482)
(1.2797 -0.107365 0.0109295)
(1.84171 0.0406313 0.0219571)
(2.08636 0.172876 -0.0169924)
(1.41124 -0.330572 -0.0121525)
(1.73059 -0.246662 -0.0165295)
(1.60808 -0.274566 0.0170585)
(1.60452 0.449965 -0.00923368)
(1.63914 0.309211 0.0107257)
(1.86209 0.0506566 0.0543566)
(1.91374 -0.112946 -0.0202885)
(1.78115 0.704218 -0.0427633)
(1.24643 -0.252982 0.0176602)
(1.6778 0.27444 0.00688349)
(1.61529 -0.353533 -0.0166128)
(1.51755 0.279616 -0.00642591)
(1.62459 -0.505289 0.0175463)
(2.09228 0.190598 -0.0144479)
(1.26365 -0.272563 -0.00399794)
(1.08052 0.185766 0.00174711)
(1.66083 0.0217284 0.0206973)
(1.35119 0.316837 -0.00955132)
(1.41298 -0.097269 0.00609189)
(1.74641 -0.0592545 0.0221505)
(2.14927 -0.0297943 -0.0157352)
(1.65796 -0.368414 -0.0165388)
(1.86676 0.0167165 0.0335007)
(2.11458 0.596056 -0.0273204)
(1.08017 -0.152111 0.0140382)
(1.64807 0.334964 0.00648789)
(1.65944 -0.181148 -0.0163509)
(1.41372 0.466409 -0.00619104)
(1.53354 -0.391906 0.0171938)
(1.90609 -0.401938 0.00208516)
(1.58879 -0.140876 0.0020561)
(1.39217 0.393259 -0.00327362)
(1.1188 0.0593206 0.00132345)
(1.88899 0.542604 -0.0110662)
(1.6938 -0.272999 -0.0182172)
(1.30948 -0.185784 0.0177036)
(1.80013 0.131239 0.0119631)
(1.72816 -0.115153 0.00221149)
(2.18817 -0.331971 0.00138701)
(1.24036 0.4379 -0.00190348)
(1.02371 -0.0529422 0.000681974)
(1.73209 0.129408 0.0245895)
(1.43518 -0.268536 -0.0103933)
(2.08981 0.385487 -0.0185901)
(1.17306 0.0814329 0.00881678)
(1.19525 0.247595 0.0212389)
(1.82186 -0.444001 0.0304792)
(1.98701 -0.11318 -0.0253975)
(1.57707 0.10104 -0.0280385)
(1.13681 -0.169966 0.0155474)
(1.73168 0.0449496 0.0333649)
(1.84663 0.485222 -0.0261625)