/*--------------------------------*- C++ -*----------------------------------*\
| =========                 |                                                 |
| \\      /  F ield         | foam-extend: Open Source CFD                    |
|  \\    /   O peration     | Version:  3.0                                   |
|   \\  /    A nd           | Web:         http://www.extend-project.de       |
|    \\/     M anipulation  |                                                 |
\*---------------------------------------------------------------------------*/
FoamFile
{
    version     2.0;
    format      ascii;
    class       volVectorField;
    location    "13";
    object      u;
}
// * * * * * * * * * * * * * * * * * * * * * * * * * * * * * * * * * * * * * //

dimensions      [0 0 0 0 0 0 0];

internalField   nonuniform List<vector> 
7680
(
(0.0950896 -0.0352585 1.85526e-17)
(0.181728 -0.0299519 2.45746e-17)
(0.311251 -0.027944 -6.68859e-18)
(0.373785 -0.0243391 7.82337e-18)
(0.468488 -0.0227168 2.06071e-18)
(0.513503 -0.0202781 9.46069e-18)
(0.585808 -0.0189917 1.65272e-18)
(0.618097 -0.017248 -5.59676e-18)
(0.675058 -0.0162701 -1.01857e-17)
(0.698206 -0.0149576 -9.1441e-18)
(0.744157 -0.0142273 -1.00307e-18)
(0.760646 -0.0132174 6.16287e-18)
(0.798478 -0.012671 -1.00995e-17)
(0.809993 -0.0118951 1.48816e-19)
(0.841722 -0.0114789 2.08303e-18)
(0.84942 -0.0108911 1.25814e-17)
(0.876492 -0.0105653 -1.332e-17)
(0.88118 -0.0101302 2.04229e-17)
(0.904656 -0.00986841 -5.60272e-18)
(0.906905 -0.00955718 2.89815e-18)
(0.927577 -0.00934306 -6.33607e-18)
(0.927795 -0.00913258 3.38412e-18)
(0.946269 -0.00895543 -4.10806e-18)
(0.944744 -0.00882743 1.77805e-17)
(0.961491 -0.00867949 -1.63648e-17)
(0.958428 -0.00861992 1.26359e-17)
(0.97382 -0.00849474 -1.635e-18)
(0.969362 -0.00849329 8.32356e-18)
(0.983697 -0.00838489 -7.01068e-18)
(0.97794 -0.0084348 1.06523e-18)
(0.991463 -0.00833577 -1.11024e-19)
(0.984462 -0.00843908 -7.40361e-19)
(0.997387 -0.00832293 -2.53608e-18)
(0.989133 -0.00853394 2.95742e-19)
(1.00174 -0.00827078 3.40972e-18)
(0.991963 -0.00877747 -1.30823e-18)
(1.00502 -0.00830785 4.95914e-18)
(0.992566 -0.0083919 -6.15532e-18)
(1.00788 -0.00975969 1.69796e-18)
(0.990997 -0.00985663 -7.09018e-18)
(0.0995415 -0.101294 -3.26207e-17)
(0.185378 -0.0853335 -4.41786e-17)
(0.314699 -0.0791976 -8.70644e-18)
(0.376732 -0.0683674 -8.80084e-19)
(0.471235 -0.0632102 -2.86497e-17)
(0.515912 -0.0557806 5.25062e-19)
(0.588047 -0.0516011 -3.21135e-18)
(0.620094 -0.0461805 1.92263e-17)
(0.67692 -0.0429343 3.54294e-17)
(0.699884 -0.0388074 3.05045e-17)
(0.745728 -0.0362921 5.1955e-19)
(0.762074 -0.0330818 1.10356e-18)
(0.799819 -0.0311006 1.42378e-17)
(0.811221 -0.0285712 4.09239e-18)
(0.842877 -0.0269769 -2.12154e-17)
(0.850486 -0.0249708 -1.94761e-17)
(0.877493 -0.0236564 2.68227e-17)
(0.882113 -0.0220645 -4.96208e-17)
(0.90553 -0.0209514 3.53258e-17)
(0.907726 -0.0196946 -3.40849e-17)
(0.928346 -0.0187251 2.31486e-17)
(0.928522 -0.0177433 -2.13062e-17)
(0.946949 -0.0168753 1.73792e-17)
(0.945393 -0.0161216 -4.84072e-17)
(0.962098 -0.0153234 3.05403e-17)
(0.959011 -0.0147609 -2.54228e-17)
(0.974365 -0.0140078 1.13032e-18)
(0.969889 -0.0136074 -1.61937e-17)
(0.98419 -0.0128793 1.74059e-18)
(0.978418 -0.0126193 2.82283e-18)
(0.991909 -0.0118956 3.11994e-18)
(0.984898 -0.0117716 4.86937e-18)
(0.997791 -0.0109967 9.78657e-18)
(0.989537 -0.0111088 -1.32952e-17)
(1.0021 -0.0100093 6.03954e-18)
(0.99235 -0.0108214 -1.61071e-17)
(1.00532 -0.00885077 2.29118e-17)
(0.99293 -0.0102375 -5.36952e-18)
(1.00817 -0.00905935 -2.7991e-18)
(0.99138 -0.0110911 3.0715e-17)
(0.108188 -0.16691 4.78621e-17)
(0.192772 -0.140542 3.2775e-17)
(0.321466 -0.130068 2.75206e-18)
(0.382576 -0.112075 3.205e-17)
(0.476587 -0.103382 2.49441e-17)
(0.52062 -0.0910053 -1.60988e-17)
(0.592368 -0.0839866 -1.79507e-17)
(0.62394 -0.0749353 -1.01154e-17)
(0.680471 -0.0694609 -6.66198e-17)
(0.70307 -0.062531 -5.33445e-17)
(0.748685 -0.0582608 -1.8069e-18)
(0.764746 -0.0528344 -7.37297e-18)
(0.802308 -0.049444 -1.04876e-17)
(0.813486 -0.0451489 -1.28265e-17)
(0.844992 -0.0423913 4.80091e-17)
(0.852425 -0.0389723 4.50365e-17)
(0.879306 -0.0366694 -3.34857e-17)
(0.883786 -0.0339406 8.48802e-17)
(0.907096 -0.0319653 -7.64741e-17)
(0.909181 -0.029788 4.88954e-17)
(0.929708 -0.0280486 -2.92607e-17)
(0.929794 -0.0263182 4.57657e-17)
(0.948139 -0.0247464 -4.08336e-17)
(0.946509 -0.0233832 7.61562e-17)
(0.963138 -0.0219269 -2.70697e-17)
(0.959992 -0.0208695 5.15459e-17)
(0.975273 -0.019487 -8.80946e-18)
(0.970751 -0.0186883 2.79859e-17)
(0.984979 -0.0173453 7.33213e-19)
(0.979174 -0.0167706 -8.47704e-18)
(0.99259 -0.0154325 -7.37018e-18)
(0.985557 -0.0150738 4.50768e-18)
(0.998369 -0.0136543 -2.86794e-18)
(0.990112 -0.013659 4.58873e-18)
(1.00257 -0.0117396 -2.6953e-18)
(0.992873 -0.0128471 -3.37973e-18)
(1.00566 -0.00939388 2.0057e-18)
(0.993418 -0.0120686 -9.42748e-18)
(1.00841 -0.00836207 8.39914e-18)
(0.991845 -0.0123084 -1.86545e-17)
(0.121232 -0.231807 -3.61413e-17)
(0.203617 -0.195 -9.40253e-17)
(0.331541 -0.180414 1.18427e-16)
(0.391229 -0.155339 -1.62958e-16)
(0.484581 -0.143161 2.38827e-17)
(0.527643 -0.125886 3.23405e-17)
(0.598848 -0.116019 3.70576e-17)
(0.629707 -0.103359 2.98391e-17)
(0.685807 -0.0956537 1.85945e-17)
(0.707858 -0.0859598 4.4084e-17)
(0.753134 -0.0799354 4.26589e-17)
(0.768763 -0.0723467 -1.0238e-17)
(0.806056 -0.0675467 -1.29596e-18)
(0.816889 -0.0615287 3.23705e-17)
(0.848175 -0.0576136 -7.48349e-17)
(0.855329 -0.0528017 2.14961e-17)
(0.882026 -0.049527 -3.01624e-17)
(0.88628 -0.045663 -7.01518e-17)
(0.909428 -0.0428499 9.47347e-17)
(0.911331 -0.0397453 -7.05451e-17)
(0.931712 -0.0372618 3.40662e-17)
(0.931652 -0.0347749 -6.26112e-17)
(0.949862 -0.0325225 4.69374e-17)
(0.948116 -0.0305445 -5.13045e-17)
(0.964619 -0.0284483 -1.11042e-17)
(0.961382 -0.0268952 -3.91254e-17)
(0.976542 -0.0248957 -1.27448e-17)
(0.971949 -0.0237025 -8.78353e-18)
(0.986061 -0.021751 -1.45475e-17)
(0.980201 -0.020869 1.93749e-17)
(0.993503 -0.0189177 2.81979e-17)
(0.986431 -0.0183336 -2.0658e-17)
(0.999124 -0.0162671 -1.95084e-17)
(0.990854 -0.0161735 8.37506e-17)
(1.00316 -0.013432 -5.4201e-17)
(0.993527 -0.0148394 2.49294e-17)
(1.00603 -0.00990969 3.24584e-17)
(0.994023 -0.0138671 -2.26273e-17)
(1.0086 -0.00765142 1.06808e-17)
(0.992387 -0.0135023 -8.03223e-18)
(0.138372 -0.295729 3.03373e-17)
(0.218134 -0.248744 2.99512e-17)
(0.344919 -0.229986 -2.38135e-16)
(0.402743 -0.197923 2.76284e-16)
(0.495152 -0.182309 -2.77337e-17)
(0.536918 -0.16021 -1.07905e-16)
(0.607366 -0.147577 -7.39396e-17)
(0.637278 -0.131374 -7.11629e-18)
(0.692791 -0.121498 2.42263e-18)
(0.714117 -0.10907 -1.81928e-17)
(0.758934 -0.101335 -5.89525e-17)
(0.773996 -0.0915867 -2.5571e-18)
(0.810918 -0.0854131 4.72351e-17)
(0.821304 -0.0776738 -5.12649e-17)
(0.852283 -0.0726254 7.82927e-17)
(0.859082 -0.0664344 -7.66522e-17)
(0.885519 -0.0621974 6.74939e-17)
(0.88949 -0.0572223 -2.49384e-18)
(0.912415 -0.0535705 -1.76157e-17)
(0.914089 -0.0495657 8.51896e-18)
(0.934274 -0.0463333 3.73262e-17)
(0.934029 -0.0431146 8.53203e-17)
(0.952063 -0.0401775 -5.39218e-17)
(0.950167 -0.0376047 2.51056e-17)
(0.966507 -0.0348672 4.55173e-17)
(0.963149 -0.0328325 4.27884e-17)
(0.978154 -0.030219 -1.38381e-17)
(0.973465 -0.0286392 5.68154e-18)
(0.987424 -0.0260873 5.63671e-17)
(0.981491 -0.0249002 -3.38176e-17)
(0.994638 -0.0223488 6.43395e-19)
(0.987515 -0.0215367 1.814e-17)
(1.00004 -0.0188411 -5.63038e-17)
(0.991758 -0.0186425 3.48894e-17)
(1.00385 -0.0151015 -1.386e-17)
(0.994312 -0.0167954 -1.57554e-17)
(1.00643 -0.0104204 -1.86546e-17)
(0.994748 -0.0156338 -2.47445e-17)
(1.00875 -0.00694854 1.72888e-17)
(0.993011 -0.0146669 3.488e-17)
(0.159761 -0.358378 -6.37199e-18)
(0.236023 -0.301355 8.21019e-17)
(0.361463 -0.278579 2.57666e-16)
(0.416961 -0.239679 -2.3048e-16)
(0.508253 -0.220693 -1.73483e-18)
(0.548423 -0.193868 1.58944e-16)
(0.617962 -0.178486 1.17569e-16)
(0.646696 -0.158806 -1.16738e-17)
(0.701493 -0.146776 -3.99612e-17)
(0.721912 -0.131682 1.41121e-17)
(0.766167 -0.122254 1.69007e-16)
(0.780515 -0.110418 -5.11259e-17)
(0.816989 -0.102884 3.59703e-17)
(0.826804 -0.0934801 -3.68885e-17)
(0.857418 -0.0873142 -5.09272e-17)
(0.863758 -0.0797792 -2.92265e-17)
(0.889888 -0.0746029 9.94466e-17)
(0.893486 -0.068534 -6.95219e-17)
(0.916145 -0.0640713 7.06556e-17)
(0.917518 -0.0591739 -1.44946e-17)
(0.937464 -0.0552207 -2.47454e-17)
(0.936976 -0.0512738 -1.09053e-16)
(0.95479 -0.0476773 3.48102e-17)
(0.952699 -0.0445119 3.20273e-17)
(0.968831 -0.041155 -9.40597e-17)
(0.965317 -0.0386412 1.29451e-17)
(0.980123 -0.0354311 -1.01779e-17)
(0.975312 -0.0334687 -1.77578e-17)
(0.989076 -0.0303293 -4.39972e-17)
(0.983049 -0.0288433 -2.87162e-17)
(0.996003 -0.0257004 -4.54959e-17)
(0.988812 -0.0246686 2.63986e-17)
(1.00114 -0.0213489 -4.5302e-17)
(0.992825 -0.0210539 5.58643e-17)
(1.00465 -0.0167197 -1.19085e-16)
(0.995224 -0.0187024 5.53208e-17)
(1.00687 -0.0109011 3.82004e-17)
(0.995586 -0.0173552 -3.68409e-17)
(1.00886 -0.00624006 -2.43825e-17)
(0.993708 -0.0157997 8.34429e-18)
(0.185118 -0.419511 4.09371e-17)
(0.257402 -0.352719 -1.73056e-16)
(0.381204 -0.325992 -1.25242e-16)
(0.433939 -0.280412 1.21143e-16)
(0.523856 -0.258146 3.97295e-17)
(0.562112 -0.226704 -3.66367e-17)
(0.630539 -0.208675 -1.35723e-16)
(0.657873 -0.1856 5.60684e-17)
(0.711803 -0.171491 6.17351e-17)
(0.73115 -0.15378 -8.43865e-17)
(0.774723 -0.142715 -1.533e-16)
(0.788231 -0.128812 4.3805e-18)
(0.824157 -0.119964 3.89869e-17)
(0.833307 -0.108914 1.14043e-16)
(0.863467 -0.101665 6.94428e-18)
(0.869275 -0.0928086 -4.5799e-18)
(0.895021 -0.0867131 -6.80532e-17)
(0.898191 -0.0795785 -1.20578e-17)
(0.920518 -0.0743151 -6.68996e-17)
(0.921545 -0.0685535 -1.68192e-17)
(0.941198 -0.0638856 -1.68133e-17)
(0.940429 -0.059236 4.34171e-17)
(0.957978 -0.0549857 3.10424e-17)
(0.955658 -0.0512498 -3.71673e-17)
(0.971545 -0.04728 5.18868e-17)
(0.967848 -0.0443052 -7.29974e-17)
(0.982419 -0.0405074 6.72243e-17)
(0.977462 -0.0381759 -7.29891e-17)
(0.990996 -0.0344612 1.44155e-16)
(0.984857 -0.0326843 -3.48029e-17)
(0.997578 -0.0289661 1.92222e-16)
(0.990308 -0.0277169 -4.54512e-17)
(1.00239 -0.0237941 1.45268e-17)
(0.994048 -0.0233986 2.10588e-17)
(1.00556 -0.0182987 5.53145e-17)
(0.996261 -0.0205546 -2.89542e-17)
(1.00734 -0.0113698 4.34163e-18)
(0.996539 -0.0190266 -3.79185e-17)
(1.00892 -0.00554305 1.24367e-16)
(0.994483 -0.0168914 -2.00648e-17)
(0.214483 -0.478843 2.74e-17)
(0.282033 -0.402571 3.74749e-18)
(0.403953 -0.372008 1.67637e-16)
(0.453488 -0.319948 3.13908e-17)
(0.54185 -0.294483 -9.42622e-17)
(0.577904 -0.258566 -1.78297e-16)
(0.64507 -0.237936 1.39735e-16)
(0.670782 -0.211572 -1.34431e-16)
(0.723721 -0.195425 2.30813e-17)
(0.741819 -0.175191 -2.47582e-17)
(0.784615 -0.162523 1.91895e-16)
(0.79714 -0.146642 -2.00865e-16)
(0.832445 -0.136506 5.20536e-17)
(0.840811 -0.123878 -2.29172e-16)
(0.870463 -0.11557 2.73648e-17)
(0.875641 -0.105441 -4.23077e-17)
(0.900961 -0.0984543 1.1173e-16)
(0.903621 -0.0902854 -8.68344e-17)
(0.925578 -0.0842517 1.05958e-16)
(0.926192 -0.0776468 2.63152e-17)
(0.945515 -0.0722937 -3.78064e-17)
(0.944412 -0.0669562 7.91173e-19)
(0.961657 -0.0620792 -4.09041e-17)
(0.959069 -0.0577831 5.75793e-17)
(0.974669 -0.053225 -1.84838e-19)
(0.970757 -0.0497963 -2.66078e-17)
(0.985053 -0.0454329 6.17879e-18)
(0.979926 -0.0427376 7.16444e-17)
(0.993191 -0.0384666 -2.35275e-16)
(0.986919 -0.0364047 -2.18513e-17)
(0.999372 -0.0321267 -1.1442e-16)
(0.992005 -0.0306674 -1.50463e-18)
(1.0038 -0.026154 7.77956e-17)
(0.995424 -0.0256656 -7.21249e-17)
(1.00657 -0.0198146 -8.706e-18)
(0.997418 -0.0223433 4.18566e-17)
(1.00785 -0.0118065 5.04026e-17)
(0.997599 -0.0206408 -1.51634e-17)
(1.00894 -0.00484775 -1.05461e-17)
(0.995327 -0.0179427 -1.09046e-16)
(0.247619 -0.53614 1.14558e-17)
(0.309912 -0.450691 -3.99488e-18)
(0.429705 -0.416447 -1.28183e-16)
(0.475633 -0.358131 -3.49344e-16)
(0.562211 -0.329595 4.29886e-17)
(0.595768 -0.289348 3.43914e-16)
(0.661489 -0.266234 -8.10212e-17)
(0.685371 -0.236684 1.65784e-16)
(0.737179 -0.218587 5.15225e-17)
(0.753874 -0.195897 -9.24725e-17)
(0.79578 -0.181694 -3.36513e-17)
(0.807204 -0.163876 1.87042e-16)
(0.841793 -0.152507 4.46906e-18)
(0.849286 -0.138336 1.86413e-16)
(0.878347 -0.129012 1.49333e-16)
(0.882824 -0.117644 -9.56218e-17)
(0.907645 -0.109797 8.97175e-17)
(0.90974 -0.100627 -5.84341e-17)
(0.931265 -0.0938438 6.26454e-17)
(0.931419 -0.0864264 -2.76401e-18)
(0.950359 -0.0804047 -2.66498e-17)
(0.948883 -0.0744062 4.80652e-17)
(0.965781 -0.0689173 -4.44922e-17)
(0.96289 -0.0640845 -3.55087e-17)
(0.978166 -0.0589523 2.72449e-17)
(0.974011 -0.0550906 -1.99952e-19)
(0.987997 -0.0501758 -5.94383e-17)
(0.982677 -0.0471347 1.97512e-16)
(0.995638 -0.0423231 -4.29305e-18)
(0.989218 -0.0399892 1.59835e-16)
(1.00137 -0.0351704 2.35195e-17)
(0.993891 -0.033508 -4.60341e-17)
(1.00537 -0.0284277 1.64043e-17)
(0.996947 -0.0278452 -5.11073e-17)
(1.00768 -0.0212753 9.59416e-18)
(0.998694 -0.0240596 -1.41969e-17)
(1.00838 -0.0122246 -3.64914e-17)
(0.998767 -0.0221883 -1.25775e-16)
(1.00891 -0.00416817 2.38545e-16)
(0.996244 -0.0189424 -9.18894e-17)
(0.284465 -0.591139 2.18754e-16)
(0.340858 -0.496917 1.8023e-17)
(0.458279 -0.4591 2.43133e-16)
(0.500185 -0.394772 5.36948e-16)
(0.584798 -0.363267 1.6086e-16)
(0.615584 -0.318874 -4.04089e-16)
(0.679712 -0.29335 2.31869e-17)
(0.701555 -0.260754 -2.67771e-16)
(0.752115 -0.240768 -1.31482e-16)
(0.767242 -0.215741 2.49906e-16)
(0.808168 -0.200051 4.02731e-18)
(0.81836 -0.180399 -1.25002e-16)
(0.852165 -0.167836 5.02378e-17)
(0.858674 -0.152202 -2.75451e-16)
(0.887094 -0.141895 -6.03468e-17)
(0.89078 -0.129347 2.36098e-17)
(0.91506 -0.120672 -9.77201e-17)
(0.916515 -0.110544 -4.16439e-17)
(0.937573 -0.103045 -4.29186e-17)
(0.93721 -0.0948469 1.80754e-17)
(0.955733 -0.0881878 5.47807e-17)
(0.953838 -0.0815529 -1.13694e-17)
(0.970353 -0.0754812 5.05073e-17)
(0.967124 -0.0701299 3.99774e-17)
(0.982041 -0.064451 -1.14674e-16)
(0.977614 -0.0601685 1.96162e-16)
(0.991254 -0.0547287 -8.21187e-17)
(0.985719 -0.0513494 -3.30949e-17)
(0.998341 -0.0460222 -1.6824e-16)
(0.991752 -0.0434223 6.92952e-17)
(1.00356 -0.038085 -9.57161e-17)
(0.995964 -0.0362259 1.31882e-16)
(1.00708 -0.0305987 -1.6176e-16)
(0.998613 -0.0299282 2.39335e-16)
(1.00889 -0.0226625 -1.86198e-16)
(1.00008 -0.0256981 1.21729e-16)
(1.00894 -0.012609 -3.80803e-17)
(1.00003 -0.0236663 4.62369e-17)
(1.00885 -0.00349663 -4.05372e-17)
(0.997224 -0.0198931 -1.52422e-16)
(0.324806 -0.643619 -5.58634e-16)
(0.37477 -0.540981 -2.73118e-16)
(0.4896 -0.499804 -1.70887e-16)
(0.527118 -0.429748 -6.60104e-16)
(0.609564 -0.395433 -1.83081e-16)
(0.637315 -0.347071 2.22322e-16)
(0.699687 -0.31927 -3.34639e-18)
(0.719302 -0.283752 3.67736e-16)
(0.768486 -0.261979 2.39769e-16)
(0.781902 -0.2347 -2.83016e-16)
(0.821746 -0.217604 -1.03509e-16)
(0.830594 -0.196176 -3.32507e-17)
(0.863529 -0.182485 2.63415e-17)
(0.86897 -0.165435 1.29418e-16)
(0.896673 -0.154199 7.45345e-17)
(0.899502 -0.140515 3.40054e-17)
(0.923177 -0.131052 7.94833e-17)
(0.92394 -0.120006 9.73125e-17)
(0.944473 -0.111821 1.45921e-16)
(0.943548 -0.102877 -1.33884e-16)
(0.961604 -0.0956064 -1.10333e-17)
(0.959252 -0.0883643 -4.98778e-17)
(0.975342 -0.0817324 -2.47915e-17)
(0.971743 -0.0758879 -8.21432e-18)
(0.986263 -0.0696831 -8.74994e-17)
(0.981537 -0.0650029 4.71469e-17)
(0.994798 -0.0590574 -1.61222e-16)
(0.989025 -0.0553608 2.48937e-16)
(1.00128 -0.0495373 -1.27928e-16)
(0.994504 -0.0466885 -4.82884e-17)
(1.00594 -0.0408542 1.95097e-17)
(0.99821 -0.0388094 -3.73626e-18)
(1.00894 -0.0326612 -4.96468e-17)
(1.00041 -0.0319049 3.84647e-17)
(1.01019 -0.0239791 -7.0794e-17)
(1.00157 -0.0272487 8.4283e-17)
(1.00953 -0.0129686 -9.8564e-19)
(1.0014 -0.0250631 -8.06069e-17)
(1.00874 -0.00284518 2.03691e-16)
(0.99827 -0.020783 -4.81072e-17)
(0.368512 -0.693343 4.60111e-16)
(0.411492 -0.58278 2.64495e-16)
(0.52351 -0.538363 1.54297e-16)
(0.556252 -0.462869 4.69644e-16)
(0.63636 -0.425867 4.99729e-17)
(0.660818 -0.373759 1.23419e-16)
(0.721297 -0.343778 -8.49622e-17)
(0.738491 -0.305508 -2.05814e-16)
(0.786191 -0.282027 -3.17344e-16)
(0.797747 -0.252636 2.67681e-16)
(0.836426 -0.234196 -7.37392e-18)
(0.843811 -0.211109 2.70376e-16)
(0.875813 -0.196336 -9.94545e-17)
(0.880089 -0.177965 -1.02669e-17)
(0.907026 -0.165838 5.89789e-17)
(0.908918 -0.151088 5.06091e-18)
(0.931947 -0.140875 -1.21786e-16)
(0.931953 -0.128962 -5.45456e-17)
(0.951927 -0.120128 -1.1076e-16)
(0.950388 -0.110479 1.96904e-16)
(0.967947 -0.10263 -3.09217e-17)
(0.965097 -0.0948134 1.20199e-17)
(0.980733 -0.0876529 6.34353e-17)
(0.976731 -0.0813401 1.33159e-16)
(0.990824 -0.0746398 -1.38961e-16)
(0.985775 -0.0695791 1.78612e-16)
(0.998625 -0.0631582 -1.02252e-16)
(0.992595 -0.0591553 9.76626e-18)
(1.00444 -0.0528654 -7.09522e-17)
(0.99747 -0.0497747 1.57033e-16)
(1.0085 -0.043472 -8.18965e-17)
(1.00062 -0.0412474 -1.49676e-17)
(1.01092 -0.0346053 6.18697e-17)
(1.00234 -0.0337672 1.23762e-16)
(1.01157 -0.0252128 -2.13594e-16)
(1.00317 -0.0287078 9.82911e-17)
(1.01014 -0.013293 -6.46597e-17)
(1.00285 -0.0263782 5.62563e-17)
(1.0086 -0.00220774 -2.02126e-16)
(0.999374 -0.0216155 -6.33941e-17)
(0.415361 -0.74011 7.17449e-17)
(0.450865 -0.622041 -8.40796e-17)
(0.559868 -0.574638 -1.00526e-16)
(0.587515 -0.494038 -2.31763e-16)
(0.665109 -0.454533 -1.5433e-16)
(0.686043 -0.398885 -3.11317e-16)
(0.744484 -0.366875 1.36822e-16)
(0.75909 -0.325998 1.05051e-16)
(0.805193 -0.300925 1.09736e-16)
(0.814759 -0.269525 4.74183e-17)
(0.852182 -0.249831 -1.16734e-17)
(0.858003 -0.225161 -3.45429e-16)
(0.888997 -0.209383 1.90828e-17)
(0.892028 -0.189748 -1.76188e-16)
(0.918135 -0.176794 -5.80575e-17)
(0.919028 -0.161029 -2.08576e-16)
(0.941356 -0.150115 1.7183e-16)
(0.940554 -0.137383 -1.32064e-16)
(0.95992 -0.127938 1.31761e-16)
(0.957726 -0.117623 -3.02742e-16)
(0.974744 -0.109229 5.96361e-17)
(0.971361 -0.10087 -3.85326e-17)
(0.986504 -0.0932101 -7.72413e-17)
(0.982069 -0.0864563 4.05019e-18)
(0.9957 -0.0792871 -6.3662e-17)
(0.990302 -0.0738706 1.94739e-16)
(1.00271 -0.0669985 -1.53965e-16)
(0.996404 -0.0627119 1.33191e-16)
(1.00782 -0.0559786 4.64788e-17)
(1.00063 -0.0526659 -8.1382e-17)
(1.01123 -0.0459186 8.42329e-17)
(1.00319 -0.0435288 1.17449e-17)
(1.01304 -0.0364204 -9.25348e-17)
(1.00439 -0.0355062 -2.83841e-17)
(1.01304 -0.0263618 2.02756e-16)
(1.00486 -0.0300655 -1.85275e-16)
(1.01078 -0.0135871 1.49708e-16)
(1.0044 -0.0275998 -1.59798e-16)
(1.00842 -0.00159415 2.48382e-16)
(1.00053 -0.0223795 2.09266e-17)
(0.465185 -0.783707 -1.91484e-16)
(0.492729 -0.658694 4.49831e-17)
(0.59853 -0.608439 4.699e-17)
(0.620731 -0.523075 9.32961e-17)
(0.695657 -0.48121 3.31017e-16)
(0.712835 -0.42228 1.77758e-16)
(0.769114 -0.388356 -1.05352e-17)
(0.780959 -0.345069 1.1378e-16)
(0.825368 -0.318496 -8.5051e-17)
(0.832814 -0.285245 -5.43068e-17)
(0.868905 -0.26437 7.963e-18)
(0.87306 -0.238247 2.76128e-16)
(0.902988 -0.221519 2.15642e-16)
(0.904691 -0.200726 2.59553e-16)
(0.929922 -0.186989 2.38728e-17)
(0.929747 -0.17029 3.67149e-16)
(0.951337 -0.158716 -3.05951e-16)
(0.949671 -0.145225 3.64274e-16)
(0.968398 -0.135209 -7.50158e-17)
(0.965502 -0.124276 2.42219e-16)
(0.981952 -0.115373 -3.50801e-17)
(0.978001 -0.10651 5.29576e-17)
(0.992623 -0.098385 -7.85066e-17)
(0.987728 -0.091221 8.96559e-17)
(1.00087 -0.0836157 2.38935e-18)
(0.995104 -0.0778658 -1.97384e-16)
(1.00704 -0.0705757 1.91287e-16)
(1.00044 -0.0660201 -1.68143e-16)
(1.0114 -0.0588773 3.23804e-17)
(1.00398 -0.0553513 -1.03534e-16)
(1.01411 -0.0481932 6.1163e-17)
(1.00591 -0.045644 -1.5531e-16)
(1.01527 -0.038103 1.41919e-16)
(1.00655 -0.0371149 1.87478e-17)
(1.01458 -0.0274198 -1.07512e-16)
(1.00664 -0.0313187 2.14574e-16)
(1.01144 -0.0138448 -1.5444e-16)
(1.00602 -0.028728 1.43462e-16)
(1.0082 -0.00100044 -9.93639e-17)
(1.00175 -0.0230781 -1.8059e-16)
(0.517737 -0.823962 -2.23999e-16)
(0.536895 -0.692482 9.69806e-17)
(0.639307 -0.639667 -1.17191e-16)
(0.655791 -0.549901 -5.38117e-17)
(0.727897 -0.505884 -1.9222e-16)
(0.741122 -0.443903 -1.83622e-16)
(0.795116 -0.408234 -1.14672e-16)
(0.804056 -0.3627 -1.09174e-16)
(0.846675 -0.334756 -3.33383e-16)
(0.851886 -0.299774 2.47454e-16)
(0.886569 -0.277821 -1.60954e-16)
(0.888967 -0.250333 -1.05597e-16)
(0.917764 -0.23274 -5.22933e-16)
(0.918068 -0.210858 -2.35691e-16)
(0.942369 -0.196409 -1.60347e-16)
(0.941071 -0.178835 -7.92041e-17)
(0.961876 -0.166657 2.04738e-16)
(0.959302 -0.152459 -2.85658e-16)
(0.977348 -0.141918 1.92904e-16)
(0.973716 -0.13041 -2.89434e-16)
(0.989559 -0.121038 1.4561e-16)
(0.985009 -0.111706 -1.07529e-16)
(0.999077 -0.103152 1.06006e-16)
(0.993696 -0.095607 -5.49203e-17)
(1.00632 -0.0875979 3.94416e-17)
(1.00016 -0.0815403 4.85422e-17)
(1.0116 -0.0738612 -2.00339e-19)
(1.00469 -0.0690603 -2.29846e-17)
(1.01516 -0.0615348 1.23124e-16)
(1.0075 -0.057817 -4.59e-18)
(1.01715 -0.0502748 5.59864e-17)
(1.00877 -0.0475832 -4.26234e-17)
(1.01761 -0.039639 8.86743e-17)
(1.00882 -0.0385853 -9.73826e-17)
(1.01619 -0.0283805 5.45088e-17)
(1.0085 -0.0324592 -8.03902e-17)
(1.01212 -0.0140669 -2.3265e-17)
(1.00771 -0.0297526 -5.02409e-17)
(1.00795 -0.000433511 -4.83769e-17)
(1.00301 -0.0237018 3.84861e-17)
(0.572829 -0.860684 3.65382e-16)
(0.583182 -0.72336 -1.11264e-16)
(0.682058 -0.668129 3.1571e-17)
(0.69252 -0.574358 1.9789e-16)
(0.761675 -0.528347 4.64875e-17)
(0.770746 -0.463605 3.19012e-16)
(0.822346 -0.426321 5.11825e-17)
(0.828234 -0.378759 2.11543e-16)
(0.868977 -0.349549 2.6146e-16)
(0.871843 -0.313008 -9.99552e-17)
(0.905053 -0.290059 -1.2454e-17)
(0.905609 -0.261347 2.03307e-16)
(0.933224 -0.242952 4.66651e-16)
(0.932061 -0.220094 3.54431e-16)
(0.955391 -0.204985 1.46803e-16)
(0.952912 -0.186624 -6.45881e-17)
(0.972898 -0.173888 -2.93675e-16)
(0.969369 -0.159051 2.83845e-16)
(0.986706 -0.148027 -2.81873e-16)
(0.982298 -0.135998 9.30039e-17)
(0.997511 -0.126196 5.38795e-17)
(0.992331 -0.11644 -2.77482e-18)
(1.00582 -0.107492 3.79374e-17)
(0.999933 -0.0996016 -3.66837e-17)
(1.01202 -0.0912234 4.12995e-17)
(1.00545 -0.0848851 -1.61687e-16)
(1.01637 -0.0768523 1.3027e-16)
(1.00913 -0.0718246 -1.62113e-16)
(1.01909 -0.0639529 1.68651e-17)
(1.01117 -0.0600547 -8.37706e-17)
(1.02031 -0.0521658 8.84811e-17)
(1.01174 -0.0493384 -8.72072e-17)
(1.02005 -0.0410295 8.24957e-17)
(1.01118 -0.0399115 -2.8856e-16)
(1.01786 -0.0292431 2.72529e-16)
(1.01044 -0.0334837 -1.51303e-16)
(1.01281 -0.0142521 5.83785e-17)
(1.00948 -0.0306732 1.29216e-16)
(1.00767 0.000107897 -3.44695e-17)
(1.00431 -0.0242528 1.24083e-16)
(0.630186 -0.893739 -3.34462e-16)
(0.631386 -0.751099 3.78536e-16)
(0.726562 -0.693778 -3.01948e-16)
(0.730779 -0.59638 -5.15515e-17)
(0.796857 -0.548608 -2.68654e-16)
(0.80161 -0.481355 -1.10571e-16)
(0.85072 -0.442639 2.73545e-17)
(0.853433 -0.393228 -1.66787e-17)
(0.892224 -0.362894 -4.6115e-16)
(0.892649 -0.32493 3.35494e-16)
(0.924323 -0.301095 -8.44707e-17)
(0.922959 -0.27126 -1.51628e-16)
(0.949342 -0.252154 -3.51596e-16)
(0.946649 -0.228401 -4.87219e-16)
(0.968965 -0.212706 -1.87808e-16)
(0.965258 -0.193625 9.36373e-17)
(0.984388 -0.180394 2.0351e-16)
(0.979866 -0.164974 -1.27535e-16)
(0.996461 -0.153519 6.84529e-17)
(0.991247 -0.141017 2.11712e-18)
(1.0058 -0.13083 3.07467e-17)
(0.999964 -0.120688 -1.09424e-16)
(1.01285 -0.111386 -1.60347e-17)
(1.00643 -0.103181 -6.2103e-17)
(1.01795 -0.0944712 1.3794e-16)
(1.01095 -0.0878785 -4.91467e-17)
(1.02133 -0.0795259 8.24901e-17)
(1.01375 -0.0742951 1.19398e-17)
(1.02317 -0.0661085 1.99714e-16)
(1.01499 -0.0620514 -1.60761e-16)
(1.0236 -0.0538459 2.35365e-16)
(1.01483 -0.0509007 -1.95766e-16)
(1.02258 -0.0422592 2.06108e-16)
(1.01363 -0.0410868 2.03331e-17)
(1.01959 -0.0299981 1.17434e-16)
(1.01244 -0.0343858 -3.19829e-16)
(1.01352 -0.0143972 2.37923e-16)
(1.0113 -0.0314819 -2.71947e-16)
(1.00736 0.000620282 -1.61801e-17)
(1.00565 -0.024724 3.76773e-17)
(0.689602 -0.922958 3.17931e-16)
(0.681306 -0.775671 -1.43198e-16)
(0.772664 -0.716412 -4.83506e-17)
(0.770393 -0.615839 3.93379e-16)
(0.833285 -0.566473 3.44389e-16)
(0.83356 -0.497027 1.20173e-16)
(0.880085 -0.457021 -2.34777e-16)
(0.879508 -0.405999 6.30177e-17)
(0.916273 -0.374653 3.167e-16)
(0.91417 -0.335451 -2.64005e-16)
(0.944252 -0.31082 9.75187e-17)
(0.940901 -0.280012 1.53952e-16)
(0.966009 -0.260266 2.89938e-16)
(0.961733 -0.235737 2.47351e-16)
(0.983001 -0.219515 3.46837e-16)
(0.978021 -0.199808 -9.48977e-17)
(0.996266 -0.186131 -1.12477e-16)
(0.990714 -0.170203 1.09114e-17)
(1.00654 -0.158361 5.87195e-17)
(1.00049 -0.145444 -7.99565e-17)
(1.01436 -0.134913 5.9752e-17)
(1.00785 -0.124433 -5.13086e-17)
(1.02011 -0.114817 1.66318e-16)
(1.01314 -0.106336 -2.34378e-16)
(1.02407 -0.0973307 9.62528e-17)
(1.01663 -0.0905145 -1.80519e-16)
(1.02645 -0.0818785 -1.8148e-18)
(1.01852 -0.076467 -8.89743e-17)
(1.02739 -0.0680031 -2.81711e-17)
(1.01894 -0.0638019 -3.55758e-17)
(1.02699 -0.0553191 -1.4951e-16)
(1.01802 -0.0522646 1.29591e-16)
(1.02519 -0.043332 -1.33712e-16)
(1.01615 -0.0421064 -1.49872e-16)
(1.02137 -0.0306485 1.03131e-16)
(1.0145 -0.0351626 1.72428e-16)
(1.01424 -0.0145049 -1.33675e-17)
(1.01318 -0.0321776 1.52209e-16)
(1.00702 0.00110214 -6.37501e-17)
(1.00702 -0.025116 8.62395e-17)
(0.750785 -0.948245 -2.59142e-16)
(0.732724 -0.796888 -1.53318e-16)
(0.82014 -0.736041 -8.75887e-18)
(0.811198 -0.632681 -1.02715e-16)
(0.87081 -0.581972 -6.6718e-16)
(0.866476 -0.510599 -7.15937e-17)
(0.910345 -0.469501 8.67157e-17)
(0.906379 -0.417059 1.6103e-17)
(0.941062 -0.384855 -2.39093e-16)
(0.936355 -0.34456 1.66239e-16)
(0.9648 -0.319252 1.01388e-16)
(0.959399 -0.287583 -3.85332e-16)
(0.983192 -0.267293 -7.79572e-17)
(0.977284 -0.242076 -1.2601e-16)
(0.997471 -0.225405 -2.00993e-16)
(0.991178 -0.205146 6.00362e-17)
(1.00851 -0.191089 2.42848e-16)
(1.0019 -0.174714 -1.10999e-16)
(1.01694 -0.162541 1.74642e-16)
(1.01002 -0.149261 -2.56128e-16)
(1.02319 -0.138434 1.53237e-16)
(1.01598 -0.127657 -6.29125e-17)
(1.0276 -0.11777 -1.99215e-17)
(1.02005 -0.109047 7.2912e-17)
(1.03039 -0.0997872 1.3499e-16)
(1.02249 -0.0927744 7.11292e-17)
(1.03173 -0.0838931 3.89711e-17)
(1.02343 -0.0783243 6.10654e-17)
(1.03173 -0.0696187 2.3462e-18)
(1.02299 -0.065294 1.3681e-16)
(1.03047 -0.056568 6.24311e-17)
(1.0213 -0.0534217 -6.02642e-17)
(1.02786 -0.0442333 5.81374e-17)
(1.01874 -0.0429648 2.28041e-16)
(1.02319 -0.0311838 -6.15766e-17)
(1.01661 -0.0358093 -2.92959e-16)
(1.01498 -0.0145693 2.41585e-16)
(1.0151 -0.0327548 -1.87289e-16)
(1.00665 0.00155311 2.40186e-17)
(1.00843 -0.0254247 -3.74787e-17)
(0.813507 -0.969463 4.64586e-16)
(0.785424 -0.814732 5.31866e-16)
(0.8688 -0.752464 -2.88877e-18)
(0.853019 -0.646809 1.03772e-16)
(0.909264 -0.594933 5.2332e-16)
(0.900205 -0.521972 2.14515e-17)
(0.941343 -0.479931 4.60703e-17)
(0.933906 -0.426322 8.8162e-17)
(0.966448 -0.393379 6.54957e-17)
(0.959072 -0.352187 -1.19838e-16)
(0.985835 -0.326297 -1.22747e-16)
(0.978337 -0.293923 2.69822e-16)
(1.00078 -0.273165 1.9203e-16)
(0.993203 -0.247386 4.34981e-17)
(1.01228 -0.230329 2.50563e-17)
(1.00465 -0.209616 -7.53576e-17)
(1.02104 -0.195233 -2.86708e-16)
(1.01334 -0.178488 5.00435e-17)
(1.02757 -0.166033 -2.62354e-18)
(1.01977 -0.152451 8.34221e-17)
(1.03222 -0.141372 3.52481e-18)
(1.02429 -0.130349 1.85636e-19)
(1.03525 -0.120231 6.80435e-17)
(1.02713 -0.111308 -7.04402e-17)
(1.03684 -0.101831 -8.0804e-17)
(1.02847 -0.0946552 -1.61908e-16)
(1.03712 -0.0855658 9.50503e-17)
(1.02844 -0.0798652 -1.65647e-16)
(1.03617 -0.070956 1.36251e-16)
(1.02714 -0.0665259 -2.50619e-16)
(1.03404 -0.0575965 -2.11751e-17)
(1.02465 -0.0543696 4.10778e-17)
(1.0306 -0.0449682 -1.66771e-16)
(1.02138 -0.043659 -1.56708e-16)
(1.02505 -0.031609 -1.25227e-16)
(1.01877 -0.0363235 1.33693e-16)
(1.01572 -0.0145954 -1.2058e-16)
(1.01706 -0.0332122 -3.06676e-18)
(1.00627 0.00196961 5.09918e-17)
(1.00985 -0.025649 1.11756e-16)
(0.877472 -0.986547 -5.88774e-16)
(0.839175 -0.829064 -5.28623e-16)
(0.918441 -0.765733 -2.4543e-16)
(0.895673 -0.658182 1.47859e-16)
(0.948493 -0.605404 -3.96111e-16)
(0.934611 -0.531133 1.38987e-16)
(0.972973 -0.488357 -2.47801e-16)
(0.961991 -0.433783 -9.85148e-17)
(0.992358 -0.400263 7.43942e-17)
(0.982257 -0.358326 1.93802e-16)
(1.00731 -0.331981 1.23496e-16)
(0.997668 -0.29902 -7.3332e-17)
(1.01874 -0.277895 -1.1541e-16)
(1.00945 -0.251647 -2.48274e-16)
(1.0274 -0.234288 3.0036e-17)
(1.01839 -0.213197 1.42416e-16)
(1.03384 -0.198557 2.02988e-16)
(1.02502 -0.181508 -1.48289e-16)
(1.03843 -0.168829 4.9365e-17)
(1.02973 -0.154998 -9.66287e-17)
(1.04144 -0.143719 -5.57994e-18)
(1.03277 -0.132493 4.25268e-17)
(1.04306 -0.122191 -1.92998e-16)
(1.03434 -0.113102 -1.87461e-17)
(1.04342 -0.103452 2.70885e-16)
(1.03458 -0.0961415 -5.16547e-17)
(1.04262 -0.0868855 2.40022e-17)
(1.03356 -0.0810759 8.18545e-17)
(1.04069 -0.0720025 -5.50172e-17)
(1.03136 -0.0674864 1.01851e-16)
(1.03766 -0.0583915 9.48081e-18)
(1.02806 -0.0551001 1.459e-16)
(1.03338 -0.0455245 3.0428e-17)
(1.02407 -0.0441838 3.0023e-16)
(1.02694 -0.0319141 1.58667e-16)
(1.02096 -0.0367015 -3.94893e-17)
(1.01646 -0.0145765 9.30332e-17)
(1.01906 -0.0335461 7.88661e-17)
(1.00586 0.00235343 -1.7252e-16)
(1.01129 -0.0257877 6.50528e-17)
(0.942426 -0.999402 6.54198e-16)
(0.893755 -0.839873 4.57457e-16)
(0.968825 -0.775666 2.27294e-16)
(0.938984 -0.666734 2.31129e-17)
(0.988312 -0.61324 5.95383e-17)
(0.969541 -0.538012 -8.99002e-18)
(1.00507 -0.494658 2.18147e-16)
(0.990498 -0.43938 6.40745e-17)
(1.01865 -0.405405 -1.66272e-16)
(1.00578 -0.362927 -1.56534e-16)
(1.02909 -0.336225 8.72123e-17)
(1.01728 -0.302838 -1.49016e-16)
(1.03695 -0.281426 -6.17691e-17)
(1.02593 -0.254839 5.00051e-16)
(1.04273 -0.237241 -2.97963e-16)
(1.03233 -0.215877 2.71352e-17)
(1.04681 -0.201036 -6.62759e-17)
(1.03687 -0.183763 -2.296e-17)
(1.04943 -0.170909 2.14001e-16)
(1.03982 -0.156895 -1.1219e-16)
(1.05078 -0.14546 6.25037e-17)
(1.04137 -0.134084 1.10069e-16)
(1.05098 -0.12364 3.14815e-17)
(1.04166 -0.114428 -8.31949e-17)
(1.0501 -0.104644 7.71e-17)
(1.04076 -0.0972334 -1.7575e-16)
(1.04819 -0.0878484 4.11081e-17)
(1.03875 -0.0819579 1.05002e-16)
(1.04528 -0.0727582 -2.8362e-16)
(1.03564 -0.0681769 1.22768e-16)