/*--------------------------------*- C++ -*----------------------------------*\
| =========                 |                                                 |
| \\      /  F ield         | OpenFOAM: The Open Source CFD Toolbox           |
|  \\    /   O peration     | Version:  2.2.0                                 |
|   \\  /    A nd           | Web:      www.OpenFOAM.org                      |
|    \\/     M anipulation  |                                                 |
\*---------------------------------------------------------------------------*/
FoamFile
{
    version     2.0;
    format      ascii;
    class       volVectorField;
    location    "14";
    object      s;
}
// * * * * * * * * * * * * * * * * * * * * * * * * * * * * * * * * * * * * * //

dimensions      [0 1 -1 0 0 0 0];

internalField   nonuniform List<vector> 
7920
(
(0.528985 0.463761 0.106246)
(0.502008 0.439712 0.167139)
(0.471875 0.412802 0.231431)
(0.439074 0.383452 0.297924)
(0.403709 0.351971 0.365118)
(0.364063 0.316824 0.430545)
(0.323888 0.283266 0.491696)
(0.271552 0.240124 0.541546)
(0.56572 0.377821 0.147913)
(0.536794 0.357993 0.207415)
(0.504507 0.335789 0.270201)
(0.469524 0.311629 0.335168)
(0.431479 0.285572 0.400949)
(0.390039 0.257205 0.465606)
(0.34597 0.229686 0.527101)
(0.296363 0.197604 0.582135)
(0.582291 0.287062 0.214972)
(0.55266 0.272132 0.270781)
(0.51959 0.255391 0.329606)
(0.483807 0.237207 0.390473)
(0.444818 0.217559 0.452218)
(0.402683 0.196612 0.513332)
(0.357813 0.176111 0.572276)
(0.308387 0.154792 0.627267)
(0.578367 0.19629 0.314583)
(0.549881 0.186415 0.361908)
(0.518 0.175281 0.411864)
(0.48343 0.16314 0.463709)
(0.445607 0.149957 0.516586)
(0.404914 0.136044 0.569445)
(0.36142 0.122391 0.621209)
(0.314997 0.109252 0.670982)
(0.561695 0.111736 0.434773)
(0.535925 0.106536 0.468594)
(0.50678 0.100589 0.504852)
(0.474884 0.0940314 0.543181)
(0.4396 0.0868297 0.583167)
(0.40141 0.07922 0.624263)
(0.360256 0.0716978 0.665876)
(0.31684 0.0647905 0.707657)
(0.546042 0.0357959 0.525231)
(0.522795 0.0342504 0.54723)
(0.49615 0.0324526 0.571755)
(0.466657 0.0304436 0.59878)
(0.433618 0.028209 0.62825)
(0.397541 0.0258337 0.659982)
(0.358301 0.0234741 0.693691)
(0.317062 0.0213588 0.729288)
(0.546042 -0.0357959 0.525231)
(0.522795 -0.0342505 0.54723)
(0.49615 -0.032453 0.571755)
(0.466657 -0.0304441 0.59878)
(0.433618 -0.0282096 0.62825)
(0.397541 -0.0258342 0.659982)
(0.3583 -0.0234744 0.693691)
(0.317062 -0.021359 0.729288)
(0.561695 -0.111736 0.434773)
(0.535925 -0.106536 0.468594)
(0.506779 -0.100589 0.504852)
(0.474884 -0.0940317 0.543181)
(0.439599 -0.0868301 0.583167)
(0.401409 -0.0792203 0.624263)
(0.360256 -0.071698 0.665876)
(0.31684 -0.0647906 0.707657)
(0.578367 -0.19629 0.314583)
(0.54988 -0.186415 0.361908)
(0.517999 -0.175281 0.411864)
(0.483429 -0.16314 0.463709)
(0.445606 -0.149957 0.516586)
(0.404913 -0.136044 0.569446)
(0.361419 -0.122391 0.621209)
(0.314996 -0.109252 0.670982)
(0.58229 -0.287062 0.214972)
(0.552659 -0.272132 0.270781)
(0.519589 -0.255391 0.329606)
(0.483806 -0.237207 0.390473)
(0.444817 -0.217559 0.452218)
(0.402682 -0.196612 0.513332)
(0.357813 -0.176111 0.572276)
(0.308386 -0.154792 0.627267)
(0.565719 -0.377821 0.147913)
(0.536793 -0.357993 0.207415)
(0.504506 -0.335788 0.270201)
(0.469523 -0.311629 0.335168)
(0.431478 -0.285572 0.400949)
(0.390039 -0.257204 0.465606)
(0.345969 -0.229686 0.527101)
(0.296363 -0.197603 0.582135)
(0.528984 -0.46376 0.106246)
(0.502006 -0.439711 0.16714)
(0.471873 -0.412801 0.231431)
(0.439073 -0.383451 0.297924)
(0.403707 -0.35197 0.365118)
(0.364061 -0.316823 0.430546)
(0.323887 -0.283266 0.491697)
(0.27155 -0.240123 0.541546)
(0.219609 0.192475 0.0293575)
(0.221751 0.194119 0.0530851)
(0.223048 0.195033 0.0804422)
(0.223242 0.195009 0.111673)
(0.221819 0.193751 0.146637)
(0.217958 0.190502 0.18495)
(0.211211 0.186153 0.224585)
(0.199156 0.177469 0.263589)
(0.247994 0.165757 0.0427139)
(0.249445 0.166869 0.0672087)
(0.249853 0.167377 0.0953549)
(0.248982 0.167178 0.127416)
(0.246122 0.165982 0.163376)
(0.240831 0.163617 0.203026)
(0.23184 0.16034 0.245283)
(0.218988 0.155858 0.289245)
(0.274386 0.135433 0.0668303)
(0.274625 0.135852 0.091684)
(0.27365 0.135801 0.12014)
(0.271214 0.135223 0.152491)
(0.266603 0.133918 0.188841)
(0.259429 0.131912 0.22918)
(0.248628 0.1293 0.273053)
(0.233923 0.126714 0.320177)
(0.301556 0.102486 0.10566)
(0.299891 0.102231 0.129033)
(0.296892 0.101656 0.155815)
(0.292346 0.100745 0.186354)
(0.285598 0.099395 0.220889)
(0.276419 0.0977123 0.259627)
(0.263858 0.0957835 0.302604)
(0.24822 0.0943431 0.350025)
(0.326691 0.0650521 0.155472)
(0.322618 0.0644311 0.174903)
(0.317161 0.0636289 0.197552)
(0.310151 0.0626478 0.223885)
(0.301034 0.0614492 0.25432)
(0.289681 0.0601242 0.289317)
(0.27534 0.0587279 0.329305)
(0.258514 0.0577973 0.374905)
(0.343226 0.0225199 0.19436)
(0.337284 0.022198 0.209716)
(0.329966 0.0218219 0.228226)
(0.321142 0.021396 0.250476)
(0.310335 0.0209141 0.277042)
(0.297478 0.0204127 0.308564)
(0.281936 0.0199164 0.345714)
(0.264313 0.0196169 0.389353)
(0.343226 -0.0225199 0.19436)
(0.337284 -0.0221979 0.209716)
(0.329966 -0.0218217 0.228226)
(0.321142 -0.0213957 0.250477)
(0.310335 -0.0209138 0.277042)
(0.297478 -0.0204125 0.308565)
(0.281936 -0.0199163 0.345715)
(0.264314 -0.019617 0.389353)
(0.326691 -0.0650521 0.155473)
(0.322618 -0.064431 0.174903)
(0.317161 -0.0636287 0.197553)
(0.310151 -0.0626476 0.223885)
(0.301034 -0.061449 0.254321)
(0.289681 -0.060124 0.289318)
(0.27534 -0.0587279 0.329306)
(0.258514 -0.0577975 0.374906)
(0.301556 -0.102486 0.10566)
(0.299892 -0.102231 0.129033)
(0.296893 -0.101656 0.155816)
(0.292347 -0.100745 0.186355)
(0.285599 -0.0993948 0.22089)
(0.276419 -0.0977122 0.259628)
(0.263858 -0.0957836 0.302606)
(0.24822 -0.0943433 0.350026)
(0.274386 -0.135433 0.0668306)
(0.274625 -0.135852 0.0916844)
(0.27365 -0.135801 0.12014)
(0.271214 -0.135223 0.152492)
(0.266603 -0.133918 0.188842)
(0.259429 -0.131912 0.229181)
(0.248628 -0.1293 0.273055)
(0.233923 -0.126714 0.320179)
(0.247995 -0.165757 0.0427142)
(0.249445 -0.166869 0.0672092)
(0.249853 -0.167377 0.0953555)
(0.248982 -0.167178 0.127417)
(0.246122 -0.165982 0.163378)
(0.240832 -0.163617 0.203028)
(0.23184 -0.16034 0.245286)
(0.218988 -0.155859 0.289248)
(0.21961 -0.192475 0.0293576)
(0.221752 -0.19412 0.0530852)
(0.223049 -0.195034 0.0804424)
(0.223243 -0.19501 0.111673)
(0.22182 -0.193752 0.146638)
(0.217959 -0.190503 0.184951)
(0.211212 -0.186153 0.224587)
(0.199156 -0.17747 0.263592)
(0.12983 0.113712 0.00396256)
(0.131897 0.115217 0.0137164)
(0.133886 0.116633 0.0250947)
(0.135747 0.117928 0.0382862)
(0.137167 0.118924 0.0533859)
(0.137881 0.119398 0.0703797)
(0.137045 0.119399 0.0887422)
(0.134216 0.118076 0.107507)
(0.146786 0.0980879 0.00546932)
(0.148619 0.0993479 0.015894)
(0.150285 0.100548 0.0280391)
(0.151726 0.101694 0.042124)
(0.152546 0.102634 0.05832)
(0.152594 0.103424 0.0767398)
(0.150768 0.103891 0.0973011)
(0.147386 0.10478 0.119749)
(0.162708 0.0803165 0.00919331)
(0.164084 0.0811901 0.0203691)
(0.165207 0.0820248 0.0333638)
(0.165991 0.0828296 0.0484279)
(0.166058 0.0835156 0.0657988)
(0.165225 0.0841807 0.0857063)
(0.162639 0.0847118 0.108339)
(0.158323 0.0859611 0.133861)
(0.179572 0.0610454 0.0160365)
(0.180142 0.0614632 0.0276189)
(0.180381 0.0618621 0.0410771)
(0.180213 0.0622605 0.056689)
(0.179304 0.0626246 0.0747468)
(0.177518 0.0630547 0.0955726)
(0.174157 0.0635253 0.119541)
(0.169426 0.0646788 0.147079)
(0.195366 0.0389135 0.0253736)
(0.1948 0.0389421 0.0367357)
(0.193855 0.0389618 0.0499959)
(0.192467 0.0389881 0.0654629)
(0.190363 0.0390159 0.0834804)
(0.187442 0.0391133 0.104449)
(0.183173 0.0392821 0.128874)
(0.17776 0.0399121 0.157372)
(0.205859 0.0135113 0.0329048)
(0.204356 0.013464 0.0437666)
(0.202458 0.0134164 0.0565414)
(0.200118 0.0133755 0.0715647)
(0.197111 0.0133441 0.0892184)
(0.193359 0.0133474 0.109954)
(0.188424 0.0133926 0.13435)
(0.182514 0.0136094 0.163127)
(0.205859 -0.0135113 0.0329049)
(0.204356 -0.013464 0.0437666)
(0.202458 -0.0134165 0.0565414)
(0.200118 -0.0133756 0.0715647)
(0.197111 -0.0133442 0.0892184)
(0.193359 -0.0133474 0.109954)
(0.188424 -0.0133924 0.13435)
(0.182514 -0.0136089 0.163127)
(0.195366 -0.0389135 0.0253737)
(0.1948 -0.0389422 0.0367358)
(0.193855 -0.0389619 0.049996)
(0.192467 -0.0389882 0.0654629)
(0.190363 -0.039016 0.0834804)
(0.187442 -0.0391133 0.104449)
(0.183173 -0.0392819 0.128874)
(0.17776 -0.0399117 0.157371)
(0.179572 -0.0610455 0.0160365)
(0.180142 -0.0614633 0.0276189)
(0.180381 -0.0618623 0.0410771)
(0.180213 -0.0622607 0.056689)
(0.179304 -0.0626247 0.0747468)
(0.177518 -0.0630547 0.0955725)
(0.174158 -0.0635251 0.119541)
(0.169426 -0.0646784 0.147079)
(0.162708 -0.0803166 0.00919332)
(0.164084 -0.0811903 0.0203691)
(0.165207 -0.082025 0.0333638)
(0.165991 -0.0828299 0.0484278)
(0.166058 -0.0835158 0.0657987)
(0.165225 -0.0841808 0.0857062)
(0.162639 -0.0847118 0.108338)
(0.158323 -0.0859607 0.133861)
(0.146787 -0.0980881 0.0054693)
(0.14862 -0.0993482 0.015894)
(0.150285 -0.100549 0.028039)
(0.151727 -0.101694 0.0421239)
(0.152546 -0.102634 0.0583198)
(0.152594 -0.103424 0.0767394)
(0.150768 -0.103891 0.0973005)
(0.147386 -0.10478 0.119748)
(0.12983 -0.113712 0.00396263)
(0.131896 -0.115216 0.0137165)
(0.133886 -0.116633 0.0250948)
(0.135747 -0.117928 0.0382863)
(0.137167 -0.118924 0.0533859)
(0.137881 -0.119398 0.0703795)
(0.137045 -0.119399 0.0887417)
(0.134215 -0.118075 0.107506)
(0.0656448 0.0574834 -0.00554619)
(0.0667705 0.0582897 -0.00104277)
(0.0679198 0.0591018 0.00426445)
(0.0690768 0.0599127 0.0104953)
(0.0700973 0.0606428 0.0177465)
(0.0709201 0.0612468 0.0260654)
(0.0710077 0.0616549 0.0353318)
(0.0704378 0.0616963 0.0450813)
(0.0743424 0.0496844 -0.00924465)
(0.0753629 0.0503983 -0.00438687)
(0.0763642 0.0511287 0.0013679)
(0.0773254 0.0518855 0.00817421)
(0.0780661 0.0526045 0.0161906)
(0.078565 0.0533638 0.0255633)
(0.078205 0.0540056 0.0364213)
(0.0773152 0.0551426 0.0487431)
(0.0824529 0.0407153 -0.0149167)
(0.0832775 0.0412535 -0.00945261)
(0.0840426 0.0418121 -0.00296019)
(0.0847105 0.0424001 0.00474949)
(0.0851144 0.0429839 0.0138862)
(0.0852013 0.0436405 0.0246771)
(0.0845146 0.0442753 0.0373889)
(0.0831684 0.0454451 0.0522603)
(0.0911082 0.0309895 -0.0233898)
(0.0915776 0.0313016 -0.0169656)
(0.0919515 0.0316357 -0.00937097)
(0.0921943 0.032004 -0.00039795)
(0.0921633 0.0323978 0.0101894)
(0.0918191 0.0328818 0.0226582)
(0.0908037 0.033425 0.0373428)
(0.0892788 0.0344072 0.0546066)
(0.0991526 0.0197619 -0.0338672)
(0.0991085 0.0198525 -0.0261312)
(0.0989449 0.0199579 -0.0171186)
(0.0986315 0.0200875 -0.00662667)
(0.0980562 0.0202435 0.00557699)
(0.0971886 0.0204657 0.019763)
(0.0957662 0.020747 0.0362818)
(0.0939171 0.021303 0.0555571)
(0.104487 0.00686264 -0.0419017)
(0.10401 0.00686798 -0.0330626)
(0.103405 0.0068798 -0.0229026)
(0.10265 0.00690214 -0.0112344)
(0.101655 0.00693784 0.00215952)
(0.100398 0.00700116 0.0175396)
(0.0986674 0.00709342 0.0352542)
(0.0965751 0.00728418 0.0557507)
(0.104487 -0.00686264 -0.0419016)
(0.10401 -0.00686797 -0.0330625)
(0.103405 -0.00687977 -0.0229025)
(0.10265 -0.0069021 -0.0112343)
(0.101655 -0.00693782 0.00215968)
(0.100398 -0.00700119 0.0175398)
(0.0986674 -0.00709355 0.0352544)
(0.0965751 -0.00728442 0.055751)
(0.0991526 -0.0197619 -0.0338671)
(0.0991085 -0.0198524 -0.026131)
(0.0989449 -0.0199579 -0.0171184)
(0.0986315 -0.0200875 -0.00662634)
(0.0980562 -0.0202435 0.00557741)
(0.0971886 -0.0204657 0.0197636)
(0.0957662 -0.0207471 0.0362825)
(0.093917 -0.0213033 0.0555579)
(0.0911082 -0.0309895 -0.0233896)
(0.0915776 -0.0313016 -0.0169654)
(0.0919514 -0.0316357 -0.00937065)
(0.0921943 -0.0320039 -0.000397509)
(0.0921633 -0.0323978 0.01019)
(0.0918191 -0.0328818 0.022659)
(0.0908037 -0.0334251 0.0373437)
(0.0892788 -0.0344074 0.0546078)
(0.0824528 -0.0407153 -0.0149165)
(0.0832774 -0.0412534 -0.00945233)
(0.0840425 -0.041812 -0.0029598)
(0.0847104 -0.0424 0.00475002)
(0.0851144 -0.0429839 0.0138869)
(0.0852012 -0.0436405 0.0246781)
(0.0845145 -0.0442754 0.0373902)
(0.0831683 -0.0454453 0.0522619)
(0.0743423 -0.0496843 -0.00924445)
(0.0753627 -0.0503981 -0.00438657)
(0.0763641 -0.0511286 0.00136833)
(0.0773252 -0.0518854 0.00817482)
(0.078066 -0.0526043 0.0161914)
(0.0785648 -0.0533637 0.0255645)
(0.0782048 -0.0540057 0.036423)
(0.077315 -0.0551427 0.0487453)
(0.0656449 -0.0574835 -0.00554612)
(0.0667707 -0.0582898 -0.00104266)
(0.06792 -0.059102 0.00426465)
(0.0690769 -0.0599128 0.0104956)
(0.0700975 -0.060643 0.0177471)
(0.0709202 -0.0612469 0.0260663)
(0.0710078 -0.061655 0.0353333)
(0.0704378 -0.0616965 0.0450836)
(0.0339769 0.0297499 -0.0109317)
(0.0345776 0.0301768 -0.00941394)
(0.0351999 0.0306136 -0.00757316)
(0.0358403 0.0310609 -0.00534118)
(0.0364285 0.0314804 -0.0026463)
(0.0369443 0.0318622 0.00057585)
(0.0371008 0.0321546 0.00435968)
(0.0369783 0.0323342 0.00861041)
(0.0384533 0.0256994 -0.0175469)
(0.0390007 0.0260827 -0.0158495)
(0.0395489 0.0264815 -0.013743)
(0.0400912 0.0269042 -0.0111261)
(0.0405411 0.0273215 -0.00787887)
(0.0408942 0.0277811 -0.00386854)
(0.0408345 0.0281964 0.00106868)
(0.0405487 0.028922 0.00704136)
(0.0426157 0.0210459 -0.0284794)
(0.043068 0.0213417 -0.0262588)
(0.0435016 0.0216547 -0.023488)
(0.0439019 0.0219921 -0.0200337)
(0.0441901 0.0223399 -0.0157386)
(0.0443445 0.0227418 -0.0104225)
(0.0441349 0.0231482 -0.00386285)
(0.0436332 0.0238632 0.00415715)
(0.0470328 0.0160005 -0.0455008)
(0.047313 0.0161804 -0.0420159)
(0.0475578 0.0163771 -0.0378016)
(0.0477539 0.0165988 -0.0327147)
(0.0478351 0.0168435 -0.0265923)
(0.0477854 0.0171461 -0.0192527)
(0.0474279 0.0174913 -0.010476)
(0.0468503 0.0180805 -3.06516e-05)
(0.0511101 0.0101889 -0.0669868)
(0.0511406 0.0102508 -0.0613415)
(0.0511249 0.0103241 -0.0548234)
(0.0510524 0.0104147 -0.0473174)
(0.0508726 0.0105249 -0.0386982)
(0.0505729 0.0106759 -0.0288278)
(0.0500259 0.0108647 -0.0175346)
(0.0492972 0.0112032 -0.00461859)
(0.0538003 0.00353439 -0.0836442)
(0.0536195 0.00354315 -0.0760091)
(0.0533891 0.00355651 -0.0674463)
(0.0531024 0.00357691 -0.0578813)
(0.05272 0.00360621 -0.0472345)
(0.0522329 0.0036519 -0.0354148)
(0.0515401 0.0037149 -0.0222948)
(0.0506958 0.00383087 -0.00770318)
(0.0538004 -0.00353439 -0.0836442)
(0.0536196 -0.00354316 -0.0760091)
(0.0533891 -0.00355652 -0.0674463)
(0.0531025 -0.00357691 -0.0578813)
(0.05272 -0.00360619 -0.0472345)
(0.0522329 -0.00365183 -0.0354148)
(0.0515402 -0.00371474 -0.0222948)
(0.0506958 -0.00383062 -0.00770321)
(0.0511102 -0.0101889 -0.0669868)
(0.0511407 -0.0102509 -0.0613415)
(0.051125 -0.0103242 -0.0548234)
(0.0510525 -0.0104147 -0.0473174)
(0.0508727 -0.0105249 -0.0386982)
(0.050573 -0.0106758 -0.0288279)
(0.050026 -0.0108646 -0.0175347)
(0.0492972 -0.011203 -0.00461869)
(0.047033 -0.0160005 -0.0455009)
(0.0473132 -0.0161804 -0.042016)
(0.0475579 -0.0163772 -0.0378016)
(0.047754 -0.0165989 -0.0327147)
(0.0478353 -0.0168436 -0.0265924)
(0.0477855 -0.0171461 -0.0192528)
(0.0474281 -0.0174913 -0.0104761)
(0.0468505 -0.0180803 -3.0834e-05)
(0.042616 -0.0210461 -0.0284794)
(0.0430682 -0.0213418 -0.0262589)
(0.0435018 -0.0216548 -0.023488)
(0.0439021 -0.0219922 -0.0200338)
(0.0441904 -0.0223401 -0.0157387)
(0.0443448 -0.0227419 -0.0104226)
(0.0441351 -0.0231482 -0.00386305)
(0.0436334 -0.0238631 0.00415686)
(0.0384535 -0.0256996 -0.0175469)
(0.039001 -0.0260828 -0.0158496)
(0.0395491 -0.0264817 -0.0137431)
(0.0400914 -0.0269044 -0.0111262)
(0.0405413 -0.0273216 -0.00787901)
(0.0408944 -0.0277812 -0.00386876)
(0.0408347 -0.0281965 0.00106837)
(0.040549 -0.0289219 0.00704091)
(0.033977 -0.02975 -0.0109317)
(0.0345778 -0.0301769 -0.00941395)
(0.0352 -0.0306137 -0.00757318)
(0.0358405 -0.0310611 -0.00534122)
(0.0364286 -0.0314806 -0.00264639)
(0.0369444 -0.0318623 0.000575692)
(0.0371009 -0.0321548 0.0043594)
(0.0369783 -0.0323343 0.00860993)
(0.0158821 0.0139049 -0.0134402)
(0.0161656 0.0141037 -0.0133086)
(0.016461 0.0143082 -0.0130761)
(0.016767 0.0145189 -0.0126985)
(0.0170513 0.0147179 -0.0121185)
(0.0173065 0.0149031 -0.0112647)
(0.0173954 0.0150467 -0.010046)
(0.0173649 0.0151475 -0.00836964)
(0.0179741 0.012012 -0.0214641)
(0.0182329 0.0121919 -0.0212509)
(0.0184942 0.0123802 -0.0208555)
(0.0187549 0.0125807 -0.0202014)
(0.0189755 0.0127804 -0.0191887)
(0.0191556 0.0130028 -0.017693)
(0.019146 0.0132053 -0.0155476)
(0.0190414 0.0135626 -0.0125786)
(0.0199134 0.00983427 -0.0349628)
(0.020129 0.00997458 -0.0342822)
(0.0203383 0.010124 -0.0332746)
(0.0205342 0.0102858 -0.0318326)
(0.020681 0.0104538 -0.0298248)
(0.02077 0.0106492 -0.0270957)
(0.0206932 0.0108477 -0.0234546)
(0.0204893 0.0111958 -0.018699)
(0.0219689 0.00747406 -0.0561908)
(0.0221066 0.00756105 -0.0541118)
(0.0222302 0.00765679 -0.0515096)
(0.0223334 0.00776506 -0.0482711)
(0.0223866 0.0078852 -0.0442693)
(0.0223833 0.0080338 -0.0393654)
(0.0222413 0.00820326 -0.0334026)
(0.0220051 0.00848932 -0.0262208)
(0.0238625 0.00475733 -0.0831198)
(0.0238866 0.00478889 -0.0784727)
(0.0238918 0.00482631 -0.0731414)
(0.023873 0.00487233 -0.0670522)
(0.0238076 0.00492823 -0.0601316)
(0.0236907 0.00500394 -0.0523081)
(0.0234637 0.00509786 -0.043503)
(0.0231591 0.00526254 -0.0336336)
(0.0251104 0.00164974 -0.104053)
(0.0250381 0.00165489 -0.0969833)
(0.0249453 0.00166238 -0.0891693)
(0.0248288 0.00167334 -0.0805907)
(0.0246711 0.00168869 -0.0712349)
(0.0244689 0.00171192 -0.0610951)
(0.024176 0.00174338 -0.050157)
(0.0238187 0.00179977 -0.0383928)
(0.0251104 -0.00164974 -0.104053)
(0.0250381 -0.00165489 -0.0969832)
(0.0249453 -0.00166238 -0.0891693)
(0.0248288 -0.00167335 -0.0805906)
(0.0246711 -0.00168871 -0.0712348)
(0.0244689 -0.00171195 -0.0610951)
(0.024176 -0.00174344 -0.0501569)
(0.0238187 -0.00179985 -0.0383927)
(0.0238625 -0.00475733 -0.0831198)
(0.0238866 -0.00478889 -0.0784727)
(0.0238918 -0.00482631 -0.0731413)
(0.023873 -0.00487234 -0.0670521)
(0.0238076 -0.00492824 -0.0601315)
(0.0236907 -0.00500397 -0.0523079)
(0.0234637 -0.00509791 -0.0435028)
(0.0231591 -0.00526261 -0.0336333)
(0.0219689 -0.00747405 -0.0561907)
(0.0221065 -0.00756105 -0.0541117)
(0.0222301 -0.00765678 -0.0515095)
(0.0223334 -0.00776506 -0.048271)
(0.0223866 -0.00788521 -0.0442691)
(0.0223832 -0.00803382 -0.0393652)
(0.0222413 -0.0082033 -0.0334024)
(0.022005 -0.00848937 -0.0262204)
(0.0199133 -0.00983426 -0.0349627)
(0.020129 -0.00997456 -0.0342821)
(0.0203382 -0.0101239 -0.0332745)
(0.0205341 -0.0102858 -0.0318324)
(0.020681 -0.0104538 -0.0298246)
(0.02077 -0.0106492 -0.0270955)
(0.0206932 -0.0108477 -0.0234542)
(0.0204892 -0.0111958 -0.0186986)
(0.017974 -0.012012 -0.021464)
(0.0182329 -0.0121918 -0.0212508)
(0.0184941 -0.0123801 -0.0208554)
(0.0187548 -0.0125807 -0.0202012)
(0.0189754 -0.0127803 -0.0191885)
(0.0191555 -0.0130028 -0.0176927)
(0.0191459 -0.0132053 -0.0155471)
(0.0190414 -0.0135626 -0.012578)
(0.0158821 -0.0139049 -0.0134402)
(0.0161656 -0.0141037 -0.0133086)
(0.016461 -0.0143082 -0.013076)
(0.016767 -0.0145189 -0.0126984)
(0.0170512 -0.0147179 -0.0121183)
(0.0173064 -0.0149032 -0.0112645)
(0.0173954 -0.0150468 -0.0100456)
(0.0173649 -0.0151475 -0.00836901)
(0.00712285 0.00623571 -0.0147095)
(0.00725095 0.00632489 -0.0152804)
(0.00738476 0.00641677 -0.0158633)
(0.00752371 0.00651162 -0.0164263)
(0.00765363 0.00660164 -0.0169202)
(0.00777129 0.00668614 -0.0172707)
(0.00781564 0.00675228 -0.0173603)
(0.00780834 0.00680217 -0.0169981)
(0.00806307 0.00538835 -0.0234392)
(0.00817999 0.00546919 -0.0239766)
(0.00829834 0.00555397 -0.0244472)
(0.00841682 0.00564447 -0.0247875)
(0.00851817 0.005735 -0.024909)
(0.00860212 0.00583623 -0.0246925)
(0.0086025 0.00592916 -0.0239728)
(0.00856226 0.00609308 -0.0225437)
(0.00893617 0.00441308 -0.0382201)
(0.0090337 0.00447625 -0.0383169)
(0.00912871 0.00454366 -0.0382007)
(0.00921819 0.00461681 -0.0377779)
(0.00928655 0.00469318 -0.0369317)
(0.00932981 0.00478209 -0.0355207)
(0.00930015 0.00487295 -0.0333733)
(0.0092155 0.00503151 -0.0302979)
(0.00986025 0.00335454 -0.0615432)
(0.00992289 0.00339382 -0.0601741)
(0.00997962 0.00343714 -0.0583878)
(0.0100277 0.00348624 -0.0560875)
(0.0100543 0.00354095 -0.0531656)
(0.0100564 0.00360862 -0.0495076)
(0.0099978 0.00368605 -0.0449917)
(0.00989852 0.00381595 -0.039498)
(0.010711 0.00213538 -0.0911756)
(0.0107228 0.00214977 -0.0870353)
(0.0107267 0.00216688 -0.0823087)
(0.0107203 0.00218795 -0.0769438)
(0.010694 0.00221362 -0.0708953)
(0.0106454 0.00224831 -0.0641271)
(0.0105489 0.0022914 -0.056611)
(0.010419 0.00236624 -0.0483283)
(0.0112706 0.000740474 -0.114229)
(0.0112395 0.000742865 -0.107451)
(0.0111996 0.000746336 -0.100025)
(0.0111496 0.0007514 -0.0919574)
(0.0110821 0.000758486 -0.0832725)
(0.0109955 0.000769142 -0.0740078)
(0.0108697 0.000783567 -0.0642092)
(0.0107162 0.000809152 -0.0539264)
(0.0112706 -0.000740474 -0.114229)
(0.0112395 -0.000742866 -0.107451)
(0.0111996 -0.000746337 -0.100025)
(0.0111496 -0.000751399 -0.0919574)
(0.0110821 -0.00075848 -0.0832725)
(0.0109955 -0.000769125 -0.0740078)
(0.0108697 -0.000783537 -0.0642092)
(0.0107162 -0.000809106 -0.0539264)
(0.010711 -0.00213539 -0.0911756)
(0.0107229 -0.00214978 -0.0870353)
(0.0107267 -0.00216688 -0.0823087)
(0.0107203 -0.00218795 -0.0769438)
(0.010694 -0.00221362 -0.0708953)
(0.0106454 -0.0022483 -0.0641271)
(0.010549 -0.00229138 -0.056611)
(0.010419 -0.0023662 -0.0483283)
(0.0098603 -0.00335456 -0.0615432)
(0.00992293 -0.00339383 -0.0601741)
(0.00997967 -0.00343716 -0.0583878)
(0.0100278 -0.00348626 -0.0560875)
(0.0100544 -0.00354096 -0.0531656)
(0.0100564 -0.00360862 -0.0495076)
(0.00999785 -0.00368604 -0.0449917)
(0.00989857 -0.00381592 -0.0394981)
(0.00893624 -0.00441311 -0.0382201)
(0.00903376 -0.00447628 -0.0383169)
(0.00912877 -0.00454369 -0.0382007)
(0.00921826 -0.00461685 -0.0377779)
(0.00928662 -0.00469321 -0.0369317)
(0.00932987 -0.00478212 -0.0355207)
(0.00930021 -0.00487297 -0.0333734)
(0.00921556 -0.0050315 -0.030298)
(0.00806313 -0.00538839 -0.0234392)
(0.00818004 -0.00546923 -0.0239766)
(0.0082984 -0.00555401 -0.0244472)
(0.00841688 -0.00564451 -0.0247876)
(0.00851823 -0.00573504 -0.0249091)
(0.00860218 -0.00583626 -0.0246925)
(0.00860255 -0.00592918 -0.0239728)
(0.00856233 -0.00609308 -0.0225437)
(0.0071229 -0.00623575 -0.0147095)
(0.00725101 -0.00632494 -0.0152804)
(0.00738481 -0.00641682 -0.0158633)
(0.00752376 -0.00651167 -0.0164263)
(0.00765368 -0.00660169 -0.0169203)
(0.00777133 -0.00668619 -0.0172707)
(0.00781568 -0.00675233 -0.0173603)
(0.00780836 -0.0068022 -0.0169982)
(0.00296701 0.00259733 -0.0152826)
(0.00302051 0.00263427 -0.0161702)
(0.00307641 0.0026723 -0.0171205)
(0.0031345 0.00271155 -0.0181072)
(0.00318892 0.00274875 -0.0190845)
(0.00323824 0.00278366 -0.0199767)
(0.00325715 0.00281078 -0.0206551)
(0.00325451 0.00283139 -0.0208836)
(0.00335869 0.00224442 -0.0243333)
(0.00340753 0.00227794 -0.0252097)
(0.00345702 0.00231308 -0.0260712)
(0.0035066 0.00235057 -0.02686)
(0.00354916 0.00238809 -0.0274927)
(0.00358449 0.00243001 -0.0278522)
(0.00358516 0.00246845 -0.0277745)
(0.00356922 0.00253665 -0.0270382)
(0.0037224 0.0018382 -0.0396986)
(0.00376321 0.00186443 -0.0401471)
(0.00380302 0.0018924 -0.0404337)
(0.00384058 0.00192275 -0.0404711)
(0.00386944 0.00195443 -0.0401487)
(0.0038879 0.00199127 -0.0393316)
(0.00387611 0.00202892 -0.0378571)
(0.00384174 0.00209476 -0.0355377)
(0.00410683 0.00139712 -0.0639787)
(0.0041332 0.00141345 -0.0629308)
(0.00415716 0.00143145 -0.0615133)
(0.00417759 0.00145185 -0.0596364)
(0.00418915 0.00147457 -0.0572015)
(0.00419056 0.00150265 -0.0541045)
(0.00416687 0.00153478 -0.0502397)
(0.00412649 0.00158872 -0.0455052)
(0.00446073 0.000889282 -0.0948479)
(0.00446608 0.000895289 -0.0909362)
(0.00446812 0.000902422 -0.0864819)
(0.00446597 0.000911199 -0.0814429)
(0.00445562 0.000921889 -0.0757862)
(0.00443606 0.000936301 -0.069492)
(0.0043967 0.00095421 -0.0625545)
(0.00434362 0.000985269 -0.0549843)
(0.00469337 0.000308341 -0.118872)
(0.00468088 0.000309343 -0.112224)
(0.0046648 0.000310792 -0.104971)
(0.0046446 0.000312901 -0.0971322)
(0.00461718 0.000315847 -0.0887472)
(0.00458187 0.000320267 -0.0798738)
(0.00453035 0.000326249 -0.0705853)
(0.0044675 0.00033685 -0.0609665)
(0.00469337 -0.000308341 -0.118872)
(0.00468088 -0.000309344 -0.112224)
(0.0046648 -0.000310794 -0.104971)
(0.0046446 -0.000312904 -0.0971322)
(0.00461718 -0.000315851 -0.0887472)
(0.00458187 -0.000320272 -0.0798738)
(0.00453035 -0.000326256 -0.0705853)
(0.0044675 -0.000336858 -0.0609665)
(0.00446073 -0.000889283 -0.0948479)
(0.00446608 -0.00089529 -0.0909362)
(0.00446812 -0.000902424 -0.0864819)
(0.00446598 -0.000911202 -0.0814428)
(0.00445562 -0.000921893 -0.0757862)
(0.00443607 -0.000936306 -0.0694919)
(0.0043967 -0.000954217 -0.0625545)
(0.00434362 -0.000985278 -0.0549842)
(0.00410683 -0.00139712 -0.0639787)
(0.0041332 -0.00141345 -0.0629308)
(0.00415716 -0.00143146 -0.0615133)
(0.00417759 -0.00145185 -0.0596364)
(0.00418915 -0.00147458 -0.0572014)
(0.00419056 -0.00150265 -0.0541045)
(0.00416687 -0.00153479 -0.0502396)
(0.0041265 -0.00158872 -0.0455052)
(0.0037224 -0.0018382 -0.0396986)
(0.00376321 -0.00186443 -0.0401471)
(0.00380302 -0.0018924 -0.0404337)
(0.00384058 -0.00192275 -0.040471)
(0.00386944 -0.00195443 -0.0401487)
(0.0038879 -0.00199128 -0.0393316)
(0.0038761 -0.00202893 -0.037857)
(0.00384174 -0.00209477 -0.0355376)
(0.00335869 -0.00224442 -0.0243333)
(0.00340753 -0.00227793 -0.0252097)
(0.00345702 -0.00231308 -0.0260712)
(0.00350659 -0.00235057 -0.02686)
(0.00354916 -0.00238809 -0.0274926)
(0.00358449 -0.00243001 -0.0278522)
(0.00358516 -0.00246845 -0.0277744)
(0.00356922 -0.00253665 -0.0270381)
(0.00296701 -0.00259733 -0.0152826)
(0.00302051 -0.00263427 -0.0161702)
(0.00307641 -0.00267231 -0.0171205)
(0.0031345 -0.00271155 -0.0181071)
(0.00318891 -0.00274876 -0.0190845)
(0.00323823 -0.00278367 -0.0199767)
(0.00325714 -0.00281079 -0.020655)
(0.0032545 -0.0028314 -0.0208835)
(0.0011128 0.000974112 -0.0155276)
(0.00113292 0.000987945 -0.0165507)
(0.00115396 0.00100218 -0.0176581)
(0.00117582 0.00101686 -0.018826)
(0.00119634 0.00103079 -0.0200101)
(0.00121492 0.00104385 -0.021134)
(0.00122221 0.00105397 -0.0220642)
(0.00122136 0.00106179 -0.0225454)
(0.00125993 0.000841919 -0.0247152)
(0.0012783 0.00085447 -0.0257366)
(0.00129692 0.00086763 -0.0267652)
(0.00131557 0.000881664 -0.0277459)
(0.00133163 0.000895723 -0.0285971)
(0.00134496 0.000911412 -0.0292031)
(0.00134539 0.000925835 -0.0294001)
(0.00133965 0.000951437 -0.0289603)
(0.00139682 0.000689763 -0.0403296)
(0.00141216 0.000699582 -0.0409285)
(0.00142714 0.000710054 -0.0413873)
(0.00144127 0.000721411 -0.0416215)
(0.00145217 0.00073328 -0.0415233)
(0.00145918 0.000747064 -0.0409603)
(0.00145489 0.000761178 -0.0397737)
(0.00144223 0.000785831 -0.0377782)
(0.00154134 0.000524341 -0.0650173)
(0.00155125 0.000530445 -0.0641067)
(0.00156027 0.000537177 -0.062847)
(0.00156797 0.0005448 -0.0611514)
(0.00157237 0.000553302 -0.0589249)
(0.00157296 0.000563795 -0.0560682)
(0.0015642 0.000575825 -0.0524824)
(0.00154922 0.000595997 -0.0480734)
(0.00167442 0.000333802 -0.0964127)
(0.00167644 0.000336045 -0.0925991)
(0.00167722 0.000338708 -0.0882616)
(0.00167645 0.000341987 -0.0833624)
(0.00167261 0.000345986 -0.0778738)
(0.00166533 0.000351373 -0.0717829)
(0.00165066 0.000358083 -0.0650938)
(0.00163088 0.000369697 -0.0578293)
(0.00176182 0.000115743 -0.12085)
(0.00175715 0.000116114 -0.114258)
(0.00175113 0.00011665 -0.10708)
(0.00174357 0.000117434 -0.0993393)
(0.00173333 0.000118531 -0.0910833)
(0.00172013 0.000120178 -0.0823782)
(0.00170089 0.000122413 -0.073309)
(0.00167742 0.000126369 -0.0639754)
(0.00176183 -0.000115744 -0.12085)
(0.00175715 -0.000116114 -0.114258)
(0.00175113 -0.000116651 -0.10708)
(0.00174357 -0.000117434 -0.0993393)
(0.00173333 -0.000118531 -0.0910833)
(0.00172013 -0.000120176 -0.0823782)
(0.00170089 -0.00012241 -0.073309)
(0.00167743 -0.000126365 -0.0639754)
(0.00167443 -0.000333803 -0.0964127)
(0.00167645 -0.000336046 -0.0925991)
(0.00167723 -0.00033871 -0.0882616)
(0.00167645 -0.000341988 -0.0833624)
(0.00167262 -0.000345987 -0.0778738)
(0.00166533 -0.000351373 -0.0717829)
(0.00165066 -0.000358081 -0.0650938)
(0.00163088 -0.000369694 -0.0578293)
(0.00154134 -0.000524343 -0.0650173)
(0.00155126 -0.000530448 -0.0641067)
(0.00156028 -0.000537179 -0.062847)
(0.00156797 -0.000544803 -0.0611514)
(0.00157238 -0.000553304 -0.0589249)
(0.00157297 -0.000563796 -0.0560682)
(0.00156421 -0.000575825 -0.0524824)
(0.00154923 -0.000595994 -0.0480734)
(0.00139683 -0.000689768 -0.0403296)
(0.00141217 -0.000699587 -0.0409285)
(0.00142714 -0.000710059 -0.0413873)
(0.00144128 -0.000721417 -0.0416215)
(0.00145218 -0.000733285 -0.0415233)
(0.00145919 -0.000747068 -0.0409603)
(0.0014549 -0.000761181 -0.0397737)
(0.00144223 -0.000785831 -0.0377782)
(0.00125994 -0.000841924 -0.0247152)
(0.00127831 -0.000854475 -0.0257366)
(0.00129692 -0.000867636 -0.0267652)
(0.00131557 -0.00088167 -0.0277459)
(0.00133164 -0.000895728 -0.0285971)
(0.00134497 -0.000911416 -0.0292031)
(0.0013454 -0.000925839 -0.0294001)
(0.00133966 -0.000951436 -0.0289603)
(0.00111281 -0.000974119 -0.0155276)
(0.00113293 -0.000987952 -0.0165507)
(0.00115397 -0.00100219 -0.0176581)
(0.00117583 -0.00101687 -0.018826)
(0.00119634 -0.0010308 -0.0200101)
(0.00121493 -0.00104386 -0.021134)
(0.00122221 -0.00105398 -0.0220642)
(0.00122136 -0.0010618 -0.0225454)
(0.000236785 0.000207233 -0.0156156)
(0.000241111 0.000210122 -0.0166874)
(0.000245652 0.0002131 -0.0178512)
(0.000250368 0.000216155 -0.0190841)
(0.000254821 0.000219045 -0.0203424)
(0.000258862 0.00022174 -0.0215495)
(0.000260521 0.000223782 -0.02257)
(0.000260479 0.000225375 -0.0231417)
(0.000268411 0.00017933 -0.0248523)
(0.00027235 0.000181962 -0.0259256)
(0.000276364 0.000184726 -0.0270142)
(0.000280378 0.000187662 -0.0280636)
(0.000283867 0.000190605 -0.0289933)
(0.000286769 0.000193878 -0.0296876)
(0.00028695 0.000196873 -0.029983)
(0.00028589 0.000202274 -0.0296495)
(0.000297968 0.00014712 -0.0405558)
(0.000301255 0.000149179 -0.0412085)
(0.00030448 0.000151378 -0.041729)