/*--------------------------------*- C++ -*----------------------------------*\
| =========                 |                                                 |
| \\      /  F ield         | foam-extend: Open Source CFD                    |
|  \\    /   O peration     | Version:  3.0                                   |
|   \\  /    A nd           | Web:         http://www.extend-project.de       |
|    \\/     M anipulation  |                                                 |
\*---------------------------------------------------------------------------*/
FoamFile
{
    version     2.0;
    format      ascii;
    class       volSymmTensorField;
    location    "5.7";
    object      sigma;
}
// * * * * * * * * * * * * * * * * * * * * * * * * * * * * * * * * * * * * * //

dimensions      [0 0 0 0 0 0 0];

internalField   nonuniform List<symmTensor> 
400
(
(0.234914 0.0286512 1.31318e-316 -0.318084 1.61604e-316 0.0831698)
(0.439361 -0.0652518 1.36516e-316 -0.29298 1.80544e-316 -0.146381)
(0.53075 -0.181613 1.31988e-316 -0.275478 1.75435e-316 -0.255272)
(0.521755 -0.25846 1.25088e-316 -0.235458 1.61669e-316 -0.286297)
(0.486113 -0.339329 1.15282e-316 -0.205791 1.43551e-316 -0.280322)
(0.415548 -0.395662 1.05981e-316 -0.166591 1.27118e-316 -0.248957)
(0.33997 -0.444329 9.6329e-317 -0.133569 1.1001e-316 -0.206401)
(0.251082 -0.479176 8.76588e-317 -0.0960035 9.67555e-317 -0.155079)
(0.161715 -0.503162 7.94992e-317 -0.0617014 8.31623e-317 -0.100014)
(0.0645788 -0.517003 7.22315e-317 -0.0237317 7.35264e-317 -0.040847)
(-0.0332719 -0.51939 6.56962e-317 0.0133253 6.32137e-317 0.0199466)
(-0.136264 -0.511761 5.98321e-317 0.0536685 5.64771e-317 0.0825957)
(-0.238833 -0.491934 5.47361e-317 0.094559 4.87025e-317 0.144274)
(-0.340155 -0.461514 4.99373e-317 0.137064 4.40421e-317 0.203091)
(-0.432193 -0.416227 4.60393e-317 0.178778 3.82308e-317 0.253415)
(-0.508995 -0.362819 4.18446e-317 0.219525 3.50442e-317 0.28947)
(-0.549715 -0.285702 3.89722e-317 0.252026 3.10817e-317 0.297689)
(-0.548478 -0.211281 3.50925e-317 0.2836 2.91739e-317 0.264878)
(-0.44642 -0.0976493 3.30492e-317 0.291731 2.73217e-317 0.154688)
(-0.230099 -0.0026492 2.86783e-317 0.300995 2.6353e-317 -0.070896)
(0.156079 0.0332263 5.18765e-317 -0.372051 9.38218e-317 0.215973)
(0.335361 -0.00852464 6.39324e-317 -0.389938 1.34377e-316 0.0545763)
(0.403629 -0.0677931 6.94928e-317 -0.36568 1.43637e-316 -0.0379487)
(0.419032 -0.114832 7.17113e-317 -0.335795 1.38582e-316 -0.0832363)
(0.39141 -0.164372 7.11788e-317 -0.291376 1.26263e-316 -0.100034)
(0.342318 -0.202643 6.94328e-317 -0.243948 1.13165e-316 -0.0983699)
(0.280988 -0.235833 6.66131e-317 -0.19454 9.87785e-317 -0.0864482)
(0.209163 -0.258459 6.34156e-317 -0.141586 8.69275e-317 -0.0675762)
(0.135077 -0.273562 5.9898e-317 -0.0898497 7.48929e-317 -0.0452278)
(0.0541334 -0.278099 5.63476e-317 -0.0339868 6.58922e-317 -0.0201466)
(-0.0267998 -0.275359 5.28433e-317 0.0211014 5.6635e-317 0.00569838)
(-0.111919 -0.262642 4.94416e-317 0.0799359 5.02097e-317 0.0319828)
(-0.195451 -0.244374 4.62965e-317 0.13894 4.32631e-317 0.0565108)
(-0.276453 -0.218714 4.32244e-317 0.198464 3.88049e-317 0.0779892)
(-0.350268 -0.189458 4.06205e-317 0.257744 3.36673e-317 0.0925238)
(-0.404708 -0.158769 3.78927e-317 0.308463 3.06025e-317 0.0962444)
(-0.437614 -0.123385 3.59674e-317 0.356419 2.69892e-317 0.0811953)
(-0.415418 -0.0966754 3.36369e-317 0.377423 2.49893e-317 0.0379946)
(-0.340757 -0.0570049 3.25035e-317 0.390438 2.35319e-317 -0.0496801)
(-0.15239 -0.0393166 3.06743e-317 0.352364 2.48329e-317 -0.199974)
(0.146076 0.0949589 2.38308e-319 -0.420221 4.59229e-317 0.274145)
(0.294059 0.072375 1.52332e-317 -0.424522 9.44593e-317 0.130463)
(0.346338 0.0448128 2.68363e-317 -0.392154 1.1137e-316 0.0458163)
(0.354262 0.0100636 3.52376e-317 -0.353009 1.12475e-316 -0.00125276)
(0.329293 -0.0242438 4.06208e-317 -0.30383 1.05486e-316 -0.0254634)
(0.288547 -0.0565362 4.39224e-317 -0.253815 9.61002e-317 -0.0347321)
(0.240009 -0.0824509 4.53914e-317 -0.204587 8.51885e-317 -0.0354222)
(0.183014 -0.100929 4.57345e-317 -0.152744 7.54509e-317 -0.0302703)
(0.125778 -0.11037 4.51618e-317 -0.103513 6.56964e-317 -0.022265)
(0.0611431 -0.109673 4.40508e-317 -0.0490064 5.78147e-317 -0.0121366)
(-0.00337544 -0.101169 4.25732e-317 0.00512933 5.00553e-317 -0.0017539)
(-0.0741998 -0.0827175 4.08665e-317 0.0655909 4.41007e-317 0.00860889)
(-0.146089 -0.0615034 3.90858e-317 0.129128 3.81055e-317 0.0169607)
(-0.21819 -0.034076 3.71275e-317 0.19574 3.36619e-317 0.0224509)
(-0.289567 -0.0119566 3.52054e-317 0.267685 2.90353e-317 0.021882)
(-0.343357 0.00896303 3.28415e-317 0.330786 2.56214e-317 0.0125715)
(-0.38548 0.017135 3.03691e-317 0.397021 2.20401e-317 -0.0115405)
(-0.372251 0.0158571 2.68811e-317 0.429519 1.92036e-317 -0.0572676)
(-0.31639 0.00254606 2.26828e-317 0.453261 1.66006e-317 -0.136871)
(-0.145862 -0.0213639 1.77828e-317 0.41283 1.4779e-317 -0.266968)
(0.107507 0.134711 -4.49952e-317 -0.392197 2.82223e-318 0.28469)
(0.225161 0.129311 -2.78055e-317 -0.383347 5.56813e-317 0.158186)
(0.264228 0.118513 -1.11637e-317 -0.343452 7.80117e-317 0.0792236)
(0.269883 0.0884163 2.24681e-318 -0.302312 8.46319e-317 0.0324288)
(0.250157 0.0626312 1.27643e-317 -0.255993 8.2672e-317 0.00583627)
(0.219767 0.0327277 2.04019e-317 -0.212183 7.73572e-317 -0.00758414)
(0.186326 0.0116896 2.57478e-317 -0.173009 6.99313e-317 -0.0133169)
(0.146501 -0.00279781 2.92475e-317 -0.132553 6.27638e-317 -0.0139474)
(0.109328 -0.00774105 3.13339e-317 -0.0972425 5.52636e-317 -0.0120853)
(0.0646451 -0.000552553 3.23658e-317 -0.0560896 4.89528e-317 -0.00855551)
(0.0217404 0.013203 3.26249e-317 -0.016739 4.26954e-317 -0.00500145)
(-0.0302626 0.040141 3.23149e-317 0.0321001 3.77781e-317 -0.00183754)
(-0.0830675 0.0658635 3.16155e-317 0.0838756 3.29573e-317 -0.000808159)
(-0.14255 0.101027 3.05781e-317 0.145389 2.94682e-317 -0.00283889)
(-0.203272 0.121298 2.933e-317 0.214044 2.61578e-317 -0.0107718)
(-0.255908 0.142082 2.77492e-317 0.283148 2.42277e-317 -0.0272399)
(-0.301721 0.131019 2.59237e-317 0.359457 2.27413e-317 -0.0577359)
(-0.299625 0.108084 2.35569e-317 0.40824 2.2632e-317 -0.108616)
(-0.262728 0.04699 2.06451e-317 0.452861 2.26039e-317 -0.190133)
(-0.11577 -0.0351055 1.6798e-317 0.429064 2.10824e-317 -0.313295)
(0.111185 0.204743 -5.5332e-317 -0.434764 -1.78459e-317 0.32358)
(0.203541 0.198635 -4.10778e-317 -0.385644 2.79099e-317 0.182103)
(0.231929 0.192562 -2.51821e-317 -0.329912 5.04001e-317 0.0979833)
(0.224058 0.155639 -1.14454e-317 -0.272835 5.97778e-317 0.0487769)
(0.208992 0.128607 -1.46322e-319 -0.229293 6.14748e-317 0.0203014)
(0.18173 0.0932249 8.56358e-318 -0.186547 5.94665e-317 0.00481719)
(0.162197 0.0709188 1.50151e-317 -0.158896 5.52282e-317 -0.00330131)
(0.134479 0.0541271 1.96494e-317 -0.127828 5.04535e-317 -0.00665055)
(0.115087 0.0503741 2.28245e-317 -0.107268 4.51987e-317 -0.00781921)
(0.085451 0.0589392 2.49132e-317 -0.0778733 4.03868e-317 -0.00757777)
(0.0598504 0.0773305 2.61971e-317 -0.0522275 3.56e-317 -0.00762287)
(0.020325 0.10998 2.69108e-317 -0.0120199 3.15146e-317 -0.00830509)
(-0.0209172 0.143468 2.72759e-317 0.0324483 2.75906e-317 -0.0115311)
(-0.077109 0.188669 2.74004e-317 0.0953117 2.44409e-317 -0.0182027)
(-0.138628 0.2163 2.75108e-317 0.170195 2.15716e-317 -0.0315676)
(-0.203993 0.248348 2.75646e-317 0.25856 1.95941e-317 -0.0545664)
(-0.267426 0.234302 2.78585e-317 0.36136 1.81994e-317 -0.0939337)
(-0.293668 0.214079 2.81058e-317 0.451564 1.79976e-317 -0.157897)
(-0.280226 0.125038 2.85884e-317 0.541745 1.90134e-317 -0.261518)
(-0.14227 0.0225682 2.81814e-317 0.568589 2.24662e-317 -0.426318)
(0.0931566 0.302849 -6.2377e-317 -0.436818 -3.10223e-317 0.343661)
(0.152958 0.271434 -5.05214e-317 -0.34623 7.72025e-318 0.193272)
(0.172804 0.245334 -3.56731e-317 -0.278202 2.87459e-317 0.105398)
(0.15462 0.192004 -2.21453e-317 -0.209395 3.94469e-317 0.0547747)
(0.145867 0.152488 -1.03952e-317 -0.171701 4.35463e-317 0.0258334)
(0.124526 0.109484 -1.02791e-318 -0.134381 4.40765e-317 0.0098549)
(0.119222 0.081174 6.2694e-318 -0.120389 4.2268e-317 0.00116716)
(0.106061 0.0629788 1.17105e-317 -0.102944 3.95156e-317 -0.0031172)
(0.105507 0.058406 1.56608e-317 -0.100143 3.60292e-317 -0.00536388)
(0.0943516 0.0710197 1.8417e-317 -0.0877893 3.25718e-317 -0.00656226)
(0.0901274 0.0941495 2.02583e-317 -0.0819387 2.89548e-317 -0.00818864)
(0.0684425 0.137451 2.14117e-317 -0.0575528 2.57106e-317 -0.0108896)
(0.0476924 0.182177 2.20758e-317 -0.0312472 2.25292e-317 -0.0164452)
(0.00158077 0.245669 2.24104e-317 0.0246832 1.98875e-317 -0.0262639)
(-0.0467875 0.289519 2.25692e-317 0.0906063 1.75094e-317 -0.0438188)
(-0.120069 0.344289 2.26788e-317 0.193299 1.59255e-317 -0.0732291)
(-0.186024 0.342894 2.28567e-317 0.308764 1.50384e-317 -0.12274)
(-0.244893 0.336843 2.31425e-317 0.448879 1.55353e-317 -0.203987)
(-0.249127 0.240761 2.35024e-317 0.586621 1.75103e-317 -0.337494)
(-0.144387 0.123358 2.31809e-317 0.697659 2.12334e-317 -0.553272)
(0.0882944 0.413871 -4.8607e-317 -0.43484 -3.00302e-317 0.346546)
(0.122386 0.348414 -4.15259e-317 -0.312375 -3.13152e-318 0.189989)
(0.137131 0.291908 -3.0868e-317 -0.239364 1.39046e-317 0.102233)
(0.109391 0.218909 -2.03536e-317 -0.162484 2.4059e-317 0.0530938)
(0.108564 0.161666 -1.08746e-317 -0.134142 2.92404e-317 0.0255786)
(0.0910806 0.108037 -2.94528e-318 -0.101607 3.13326e-317 0.0105268)
(0.0992744 0.0703727 3.40526e-318 -0.101544 3.12942e-317 0.00226983)
(0.0970893 0.0457263 8.34878e-318 -0.0950822 3.00994e-317 -0.00200709)
(0.113078 0.037184 1.20766e-317 -0.10847 2.80753e-317 -0.00460815)
(0.1164 0.0464801 1.48307e-317 -0.109981 2.57475e-317 -0.00641875)
(0.130122 0.0715188 1.68234e-317 -0.121135 2.31408e-317 -0.00898781)
(0.122351 0.116852 1.82547e-317 -0.109458 2.0584e-317 -0.0128933)
(0.116972 0.172343 1.93265e-317 -0.0967703 1.79854e-317 -0.0202021)
(0.076792 0.247714 2.01913e-317 -0.0443809 1.56129e-317 -0.032411)
(0.033026 0.314298 2.10869e-317 0.0207524 1.33869e-317 -0.0537784)
(-0.0538657 0.3955 2.21072e-317 0.143077 1.16399e-317 -0.0892117)
(-0.136198 0.427442 2.35908e-317 0.285533 1.05131e-317 -0.149335)
(-0.234756 0.462982 2.5451e-317 0.48417 1.07231e-317 -0.249415)
(-0.269086 0.400762 2.80344e-317 0.687472 1.33191e-317 -0.418386)
(-0.18291 0.332906 3.03106e-317 0.885972 2.1025e-317 -0.703062)
(0.0625085 0.528449 -4.11755e-317 -0.366776 -2.77887e-317 0.304268)
(0.0708398 0.416783 -3.65291e-317 -0.234739 -8.723e-318 0.163899)
(0.0787561 0.319267 -2.83713e-317 -0.165289 4.63051e-318 0.0865332)
(0.0477291 0.224498 -1.98065e-317 -0.0917957 1.36294e-317 0.0440666)
(0.0518008 0.144859 -1.16677e-317 -0.0727034 1.90012e-317 0.0209026)
(0.0405886 0.0819484 -4.68711e-318 -0.0490607 2.18701e-317 0.00847208)
(0.0581162 0.0325045 1.09472e-318 -0.0599847 2.2862e-317 0.00186851)
(0.067583 0.00355293 5.65925e-318 -0.0660275 2.26828e-317 -0.00155552)
(0.096697 -0.010569 9.16461e-318 -0.0930506 2.16273e-317 -0.00364643)
(0.115725 -0.00154362 1.17602e-317 -0.110343 2.01068e-317 -0.00538202)
(0.146883 0.0248367 1.36147e-317 -0.13888 1.81983e-317 -0.00800276)
(0.156887 0.0773742 1.48803e-317 -0.144519 1.61531e-317 -0.0123679)
(0.172451 0.145536 1.56981e-317 -0.152097 1.39447e-317 -0.020354)
(0.146262 0.24163 1.62005e-317 -0.112257 1.17676e-317 -0.0340046)
(0.122404 0.337819 1.65151e-317 -0.0646742 9.5982e-318 -0.0577298)
(0.0331521 0.45819 1.67946e-317 0.0645601 7.70788e-318 -0.0977122)
(-0.0402347 0.537287 1.71871e-317 0.2063 6.29186e-318 -0.166065)
(-0.172149 0.625633 1.78728e-317 0.453909 6.08629e-318 -0.28176)
(-0.216769 0.613128 1.90542e-317 0.696308 8.19464e-318 -0.47954)
(-0.17654 0.586123 2.04843e-317 0.991391 1.47254e-317 -0.814851)
(0.0386136 0.613724 -2.42276e-317 -0.264379 -1.99666e-317 0.225766)
(0.0260353 0.469306 -2.29896e-317 -0.143088 -9.88715e-318 0.117052)
(0.0313664 0.336199 -1.86351e-317 -0.09072 -6.68184e-319 0.0593537)
(0.00152002 0.2248 -1.31945e-317 -0.0301656 6.5402e-318 0.0286455)
(0.0124125 0.124603 -7.68105e-318 -0.0248955 1.14983e-317 0.0124829)
(0.00734196 0.0517778 -2.60673e-318 -0.0114814 1.46091e-317 0.00413942)
(0.0335405 -0.0100636 1.73373e-318 -0.0334717 1.62087e-317 -6.87453e-05)
(0.0520806 -0.0478503 5.30736e-318 -0.0499741 1.67271e-317 -0.00210647)
(0.0926358 -0.0701333 8.12e-318 -0.089215 1.6405e-317 -0.00342086)
(0.124213 -0.0697237 1.02633e-317 -0.119501 1.55331e-317 -0.00471207)
(0.170819 -0.0463238 1.1831e-317 -0.16364 1.42189e-317 -0.00717891)
(0.196128 0.00065052 1.2927e-317 -0.184603 1.26401e-317 -0.0115245)
(0.229808 0.0768993 1.367e-317 -0.209995 1.08177e-317 -0.0198121)
(0.216589 0.177791 1.41452e-317 -0.18258 8.86954e-318 -0.0340098)
(0.206112 0.303831 1.45142e-317 -0.147047 6.80078e-318 -0.0590644)
(0.114307 0.452093 1.48255e-317 -0.0128366 4.77289e-318 -0.10147)
(0.0336195 0.594278 1.53691e-317 0.14138 2.99095e-318 -0.175)
(-0.133266 0.750229 1.61469e-317 0.434252 2.05932e-318 -0.300986)
(-0.214606 0.832961 1.7681e-317 0.735582 3.4253e-318 -0.520976)
(-0.209607 0.924267 1.99525e-317 1.11596 1.03652e-317 -0.906354)
(0.00294482 0.670202 -1.75338e-317 -0.113771 -1.4865e-317 0.110826)
(-0.0269399 0.493421 -1.70989e-317 -0.0258101 -9.18252e-318 0.0527499)
(-0.0315578 0.329613 -1.41552e-317 0.00796336 -2.96989e-318 0.0235944)
(-0.0548698 0.206898 -1.0097e-317 0.0458967 2.56531e-318 0.0089731)
(-0.0438952 0.0890667 -5.70551e-318 0.0418922 6.80114e-318 0.00200301)
(-0.04135 0.010313 -1.61964e-318 0.0425011 9.75376e-318 -0.00115103)
(-0.0127499 -0.0633611 1.96686e-318 0.0150298 1.1534e-317 -0.00227992)
(0.0141753 -0.107157 4.91139e-318 -0.0116379 1.23824e-317 -0.00253736)
(0.0597736 -0.138124 7.23078e-318 -0.0571456 1.24672e-317 -0.00262795)
(0.10275 -0.143222 8.95632e-318 -0.0996046 1.19946e-317 -0.00314541)
(0.158968 -0.123662 1.01487e-317 -0.15409 1.10634e-317 -0.00487813)
(0.200519 -0.0770564 1.08636e-317 -0.191824 9.80555e-318 -0.00869451)
(0.250653 0.00705854 1.11512e-317 -0.234353 8.25265e-318 -0.0163001)
(0.257406 0.122569 1.10507e-317 -0.227422 6.48452e-318 -0.0299845)
(0.270541 0.28093 1.05852e-317 -0.216212 4.51168e-318 -0.054329)
(0.193018 0.473111 9.79939e-318 -0.0966265 2.43754e-318 -0.096392)
(0.137048 0.684969 8.71087e-318 0.0328335 4.19981e-319 -0.169881)
(-0.0422979 0.921804 7.51509e-318 0.339871 -1.11072e-318 -0.297573)
(-0.115241 1.1012 6.41796e-318 0.637369 -1.09359e-318 -0.522128)
(-0.164599 1.27686 6.40274e-318 1.07817 2.29715e-318 -0.913572)
(-0.0353449 0.676495 -6.34518e-318 0.0596768 -8.52798e-318 -0.0243319)
(-0.0781843 0.494591 -7.38657e-318 0.0994817 -7.66309e-318 -0.0212974)
(-0.0854467 0.316669 -6.52625e-318 0.102163 -4.16551e-318 -0.0167159)
(-0.0992728 0.188594 -4.33743e-318 0.112086 -2.2854e-319 -0.012813)
(-0.0860109 0.0595974 -1.70428e-318 0.0955504 3.28958e-318 -0.00953942)
(-0.0762376 -0.0258316 9.89337e-319 0.0832803 6.02243e-318 -0.00704271)
(-0.0454058 -0.109287 3.42217e-318 0.0503705 7.89444e-318 -0.00496472)
(-0.0121498 -0.161955 5.49809e-318 0.0154832 8.98244e-318 -0.00333331)
(0.037926 -0.202219 7.14971e-318 -0.0357098 9.38702e-318 -0.00221622)
(0.0895115 -0.218795 8.38088e-318 -0.0876913 9.2524e-318 -0.00182024)
(0.155248 -0.206956 9.20205e-318 -0.152467 8.67016e-318 -0.00278105)
(0.210702 -0.173188 9.63354e-318 -0.204973 7.74624e-318 -0.00572867)
(0.277728 -0.0889372 9.70395e-318 -0.265369 6.52278e-318 -0.0123598)
(0.304135 0.0185927 9.4081e-318 -0.279517 5.05885e-318 -0.0246184)
(0.338742 0.20039 8.78489e-318 -0.29171 3.36808e-318 -0.047032)
(0.277054 0.405076 7.77165e-318 -0.191077 1.49136e-318 -0.0859767)
(0.229191 0.687914 6.45984e-318 -0.0742494 -4.74604e-319 -0.154942)
(0.0333971 0.987684 4.82481e-318 0.242521 -2.36802e-318 -0.275918)
(-0.0795812 1.29945 3.1708e-318 0.573136 -3.37904e-318 -0.493555)
(-0.189589 1.63058 2.63336e-318 1.08001 -1.99617e-318 -0.89042)
(-0.0683347 0.639364 -5.42871e-318 0.230768 -5.51786e-318 -0.162433)
(-0.125967 0.457104 -5.40347e-318 0.221917 -5.88579e-318 -0.0959503)
(-0.148285 0.277015 -4.09967e-318 0.2047 -4.08395e-318 -0.0564144)
(-0.151363 0.153719 -2.07013e-318 0.185059 -1.37912e-318 -0.0336965)
(-0.141722 0.0203289 2.29454e-319 0.162006 1.43454e-318 -0.0202837)
(-0.123859 -0.066127 2.36314e-318 0.136192 3.82007e-318 -0.012333)
(-0.0951489 -0.156576 4.26206e-318 0.102314 5.58213e-318 -0.00716532)
(-0.0567326 -0.214741 5.81328e-318 0.0604721 6.69829e-318 -0.00373952)
(-0.00882204 -0.263119 7.01496e-318 0.010159 7.22243e-318 -0.00133698)
(0.0482885 -0.288024 7.85086e-318 -0.0483214 7.25601e-318 3.29592e-05)
(0.113546 -0.283979 8.32148e-318 -0.113702 6.87728e-318 0.000155852)
(0.180023 -0.25826 8.41624e-318 -0.178375 6.17159e-318 -0.00164841)
(0.252833 -0.175364 8.11557e-318 -0.246246 5.1857e-318 -0.00658661)
(0.301588 -0.0656816 7.38313e-318 -0.284969 3.96858e-318 -0.0166192)
(0.354403 0.137504 6.14402e-318 -0.3191 2.54775e-318 -0.0353034)
(0.326611 0.375946 4.34275e-318 -0.258086 9.47485e-319 -0.0685249)
(0.313202 0.728489 1.79863e-318 -0.185754 -7.73104e-319 -0.127448)
(0.143774 1.11842 -1.34928e-318 0.0879972 -2.62267e-318 -0.231771)
(0.0675708 1.55202 -5.2848e-318 0.35177 -4.427e-318 -0.41934)
(-0.0833354 1.99478 -8.30881e-318 0.836642 -6.58483e-318 -0.753307)
(-0.112477 0.572513 -1.2249e-318 0.409293 -3.69769e-318 -0.296816)
(-0.170437 0.408628 -8.73869e-319 0.334728 -6.19714e-318 -0.164291)
(-0.196302 0.239944 2.41717e-319 0.287702 -5.39942e-318 -0.0913999)
(-0.187518 0.119141 1.6563e-318 0.239102 -3.24522e-318 -0.0515838)
(-0.179909 -0.0123656 3.0627e-318 0.209217 -6.23896e-319 -0.0293074)
(-0.155382 -0.101413 4.35023e-318 0.172124 1.7309e-318 -0.0167417)
(-0.128897 -0.194644 5.46588e-318 0.137956 3.55042e-318 -0.00905873)
(-0.0871503 -0.257783 6.39241e-318 0.0913055 4.77938e-318 -0.00415524)
(-0.0411092 -0.311992 7.09598e-318 0.0418416 5.45786e-318 -0.000732427)
(0.018827 -0.345931 7.55424e-318 -0.0203619 5.67933e-318 0.00153494)
(0.085264 -0.351267 7.74069e-318 -0.0878703 5.52398e-318 0.00260634)
(0.159676 -0.340748 7.62752e-318 -0.161726 5.07388e-318 0.00204944)
(0.242608 -0.267697 7.19034e-318 -0.241428 4.3864e-318 -0.00118016)
(0.311795 -0.178029 6.3804e-318 -0.303283 3.51393e-318 -0.00851144)
(0.388863 0.0288422 5.16361e-318 -0.365979 2.4955e-318 -0.0228838)
(0.393905 0.25234 3.44233e-318 -0.345367 1.34702e-318 -0.0485383)
(0.407304 0.653611 1.1544e-318 -0.313092 9.38774e-320 -0.094212)
(0.247648 1.06289 -1.74023e-318 -0.072849 -1.43056e-318 -0.174799)
(0.137776 1.625 -5.3238e-318 0.185388 -3.41429e-318 -0.323164)
(-0.112102 2.20017 -8.38668e-318 0.723495 -6.76344e-318 -0.611393)
(-0.130195 0.450288 -3.45759e-318 0.528735 -2.50537e-318 -0.39854)
(-0.209476 0.319365 -9.65068e-319 0.426126 -5.09817e-318 -0.21665)
(-0.249764 0.177971 1.76983e-318 0.367019 -4.92839e-318 -0.117255)
(-0.231774 0.0743371 3.45673e-318 0.295964 -3.17494e-318 -0.0641896)
(-0.225288 -0.0474473 4.73877e-318 0.260648 -8.87959e-319 -0.0353597)
(-0.192912 -0.132622 5.57775e-318 0.212442 1.20031e-318 -0.01953)
(-0.168611 -0.224491 6.24712e-318 0.178705 2.80731e-318 -0.0100942)
(-0.124706 -0.289063 6.74492e-318 0.128878 3.89297e-318 -0.00417264)
(-0.0855203 -0.346102 7.09357e-318 0.0854583 4.49951e-318 6.19911e-05)
(-0.0270077 -0.386113 7.26001e-318 0.0239422 4.71319e-318 0.00306548)
(0.0290519 -0.399158 7.20867e-318 -0.0341651 4.60848e-318 0.0051132)
(0.10505 -0.400014 6.89655e-318 -0.110828 4.25843e-318 0.00577833)
(0.178985 -0.337746 6.27345e-318 -0.183487 3.72077e-318 0.00450263)
(0.264606 -0.259505 5.28519e-318 -0.264644 3.04702e-318 3.83019e-05)
(0.34312 -0.0535449 3.83693e-318 -0.333833 2.29432e-318 -0.00928713)
(0.394221 0.179876 1.88405e-318 -0.367799 1.49429e-318 -0.0264221)
(0.433611 0.623188 -7.99907e-319 -0.377723 6.78802e-319 -0.0558878)
(0.350832 1.10782 -4.06538e-318 -0.24461 -3.20382e-319 -0.106222)
(0.301792 1.78749 -8.33005e-318 -0.108396 -2.09666e-318 -0.193396)
(0.0765176 2.49523 -1.245e-317 0.26551 -6.59623e-318 -0.342027)
(-0.172276 0.3548 2.47828e-319 0.651693 -6.19579e-318 -0.479416)
(-0.229696 0.238343 2.67728e-318 0.479759 -9.94212e-318 -0.250063)
(-0.275065 0.118826 5.1178e-318 0.406697 -8.76618e-318 -0.131631)
(-0.246282 0.0183423 6.08959e-318 0.316738 -5.88395e-318 -0.070456)
(-0.243584 -0.0921347 6.50861e-318 0.281663 -2.94442e-318 -0.0380788)
(-0.206342 -0.173857 6.64766e-318 0.227017 -4.85968e-319 -0.0206747)
(-0.185665 -0.259438 6.73336e-318 0.19613 1.30717e-318 -0.0104652)
(-0.141669 -0.320984 6.80998e-318 0.145749 2.5251e-318 -0.00408043)
(-0.108651 -0.376553 6.84482e-318 0.108092 3.26009e-318 0.000559189)
(-0.053925 -0.418205 6.79231e-318 0.0498698 3.62857e-318 0.00405518)
(-0.00499863 -0.437861 6.59577e-318 -0.00178727 3.71556e-318 0.0067859)
(0.0690435 -0.449842 6.20601e-318 -0.0775457 3.59693e-318 0.00850218)
(0.14197 -0.404754 5.58076e-318 -0.150809 3.33219e-318 0.00883894)
(0.238982 -0.351672 4.68054e-318 -0.246028 2.97559e-318 0.00704547)
(0.335276 -0.168716 3.47811e-318 -0.337508 2.58315e-318 0.00223218)
(0.423146 0.0222803 1.94399e-318 -0.416494 2.19061e-318 -0.00665171)
(0.504912 0.462054 5.09184e-320 -0.484443 1.80737e-318 -0.0204692)
(0.454662 0.890212 -2.1746e-318 -0.414789 1.25448e-318 -0.0398735)
(0.399913 1.63676 -4.82831e-318 -0.331696 -1.3781e-319 -0.0682172)
(0.0155445 2.35283 -7.65952e-318 0.119437 -3.9741e-318 -0.134981)
(-0.170155 0.178532 5.2156e-318 0.670365 -3.69121e-319 -0.50021)
(-0.26114 0.12197 7.25464e-318 0.517914 -5.56429e-318 -0.256774)
(-0.305352 0.0537772 8.97275e-318 0.437711 -5.32499e-318 -0.13236)
(-0.270656 -0.0245881 8.74298e-318 0.340283 -2.99905e-318 -0.0696272)
(-0.260078 -0.112086 8.19774e-318 0.297232 -7.47783e-319 -0.037154)
(-0.215626 -0.185042 7.58989e-318 0.235618 1.04332e-318 -0.0199917)
(-0.195153 -0.25841 7.16008e-318 0.205141 2.25497e-318 -0.00998753)
(-0.15196 -0.314505 6.8707e-318 0.155679 3.00802e-318 -0.00371836)
(-0.128363 -0.364076 6.65209e-318 0.127387 3.3975e-318 0.000975747)
(-0.0814679 -0.404624 6.42419e-318 0.076806 3.5191e-318 0.00466193)
(-0.0498609 -0.426819 6.1106e-318 0.041998 3.44271e-318 0.0078629)
(0.0147398 -0.445633 5.65038e-318 -0.0250724 3.22602e-318 0.0103326)
(0.0649172 -0.41531 4.98851e-318 -0.0769624 2.92022e-318 0.0120452)
(0.163671 -0.379249 4.08906e-318 -0.176095 2.57227e-318 0.0124246)
(0.237461 -0.222212 2.89566e-318 -0.249029 2.24179e-318 0.0115685)
(0.366574 -0.0486058 1.4367e-318 -0.376176 1.98015e-318 0.009602)
(0.440148 0.377982 -3.97095e-319 -0.449915 1.8148e-318 0.00976778)
(0.517446 0.841433 -2.39429e-318 -0.53677 1.66067e-318 0.0193243)
(0.51073 1.65642 -4.78624e-318 -0.570826 8.1427e-319 0.060096)
(0.311586 2.5465 -7.46764e-318 -0.501705 -2.31501e-318 0.190118)
(-0.195085 0.103009 1.35053e-317 0.682327 -1.14554e-317 -0.487242)
(-0.228673 0.0225815 1.23177e-317 0.46679 -1.53522e-317 -0.238117)
(-0.280635 -0.0395405 1.11729e-317 0.40029 -1.2035e-317 -0.119654)
(-0.238686 -0.115066 9.48572e-318 0.300761 -7.32175e-318 -0.0620747)
(-0.233058 -0.191039 8.02366e-318 0.265963 -3.9817e-318 -0.0329048)
(-0.189355 -0.250895 6.9915e-318 0.207064 -1.59025e-318 -0.0177083)
(-0.172996 -0.311327 6.30968e-318 0.181843 -3.94363e-320 -0.00884648)
(-0.134468 -0.355206 5.89341e-318 0.137711 9.93186e-319 -0.0032435)
(-0.11825 -0.396305 5.60089e-318 0.11717 1.65606e-318 0.00108016)
(-0.0805208 -0.430584 5.34247e-318 0.0759022 2.07272e-318 0.00461869)
(-0.0595984 -0.453916 5.03651e-318 0.0517101 2.31519e-318 0.00788825)
(-0.0066549 -0.477042 4.6283e-318 -0.00406639 2.43909e-318 0.0107213)
(0.0333707 -0.4647 4.08155e-318 -0.0465786 2.48511e-318 0.0132078)
(0.125178 -0.451813 3.38132e-318 -0.140222 2.48906e-318 0.0150439)
(0.202138 -0.339271 2.54012e-318 -0.218887 2.48475e-318 0.016749)
(0.344159 -0.224288 1.60638e-318 -0.363616 2.50312e-318 0.0194571)
(0.461483 0.130764 6.71144e-319 -0.490165 2.53182e-318 0.0286822)
(0.559861 0.456619 -1.79514e-319 -0.617565 2.48641e-318 0.0577043)
(0.614204 1.20959 -7.79902e-319 -0.755715 1.85975e-318 0.14151)
(0.156986 1.83577 -1.74264e-318 -0.486998 -1.7068e-319 0.330012)
(-0.171009 -0.09181 2.81941e-317 0.570039 1.13651e-317 -0.39903)
(-0.252116 -0.0905606 2.24081e-317 0.443415 1.68982e-318 -0.191299)
(-0.267767 -0.073149 1.63218e-317 0.362317 5.4202e-319 -0.0945502)
(-0.22281 -0.126699 1.20084e-317 0.271506 1.69548e-318 -0.0486957)
(-0.201421 -0.160521 9.00074e-318 0.227233 2.66017e-318 -0.0258119)
(-0.151884 -0.20841 7.23127e-318 0.165891 3.26425e-318 -0.0140076)
(-0.137086 -0.243473 6.14846e-318 0.144139 3.54179e-318 -0.00705276)
(-0.101946 -0.276511 5.52044e-318 0.104544 3.59732e-318 -0.00259818)
(-0.0969209 -0.301794 5.10638e-318 0.0959393 3.50265e-318 0.000981587)
(-0.0700898 -0.325654 4.78553e-318 0.0660853 3.30599e-318 0.00400456)
(-0.0685605 -0.341921 4.45956e-318 0.0615964 3.04297e-318 0.00696406)
(-0.0320096 -0.356896 4.06854e-318 0.0223255 2.7417e-318 0.0096841)
(-0.0220083 -0.352202 3.56754e-318 0.00962233 2.43022e-318 0.012386)
(0.0544654 -0.340247 2.93805e-318 -0.0692894 2.136e-318 0.0148241)
(0.0872068 -0.265686 2.16133e-318 -0.105007 1.89461e-318 0.0178005)
(0.245871 -0.170976 1.30645e-318 -0.26843 1.74436e-318 0.0225585)
(0.301125 0.100159 3.72516e-319 -0.336682 1.68698e-318 0.0355569)
(0.555657 0.412952 -4.09136e-319 -0.628279 1.71482e-318 0.0726218)
(0.560644 1.10202 -1.03222e-318 -0.747722 1.41104e-318 0.187078)
(0.595198 2.00178 -1.88839e-318 -1.14573 1.97873e-319 0.550529)
(-0.131824 -0.113326 2.15958e-317 0.402517 -1.70393e-317 -0.270693)
(-0.105831 -0.196431 1.54532e-317 0.22952 -1.58102e-317 -0.123689)
(-0.140145 -0.23146 9.821e-318 0.200408 -1.12964e-317 -0.0602629)
(-0.103935 -0.271327 6.74107e-318 0.134985 -6.93946e-318 -0.0310502)
(-0.0961562 -0.313889 4.85326e-318 0.112741 -4.5509e-318 -0.016585)
(-0.0656055 -0.336513 3.84902e-318 0.0747747 -2.94774e-318 -0.00916918)
(-0.0566281 -0.364267 3.27455e-318 0.0613271 -1.91082e-318 -0.00469902)
(-0.0352035 -0.379842 2.96393e-318 0.0369923 -1.13949e-318 -0.00178885)
(-0.0325822 -0.398107 2.76568e-318 0.0319176 -5.44317e-319 0.000664575)
(-0.0170999 -0.414456 2.60951e-318 0.0143054 -5.73413e-320 0.00279454)
(-0.0173383 -0.42974 2.43989e-318 0.0123606 3.5219e-319 0.00497777)
(0.00387686 -0.449864 2.22729e-318 -0.0109435 7.04073e-319 0.00706661)
(0.0101786 -0.458291 1.95557e-318 -0.0194548 1.00743e-318 0.00927613)
(0.0582676 -0.473913 1.62921e-318 -0.0697015 1.26882e-318 0.0114339)
(0.0873346 -0.445927 1.27737e-318 -0.101538 1.48215e-318 0.0142032)
(0.192265 -0.424123 9.57929e-319 -0.210747 1.64517e-318 0.0184819)
(0.272604 -0.267916 7.95624e-319 -0.301856 1.73634e-318 0.0292517)
(0.420593 -0.146531 8.35218e-319 -0.479479 1.7183e-318 0.0588867)
(0.584232 0.314252 1.35241e-318 -0.734218 1.5099e-318 0.149985)
(0.179247 0.514815 1.66154e-318 -0.58018 1.06011e-318 0.400932)
(-0.0335491 -0.321851 3.05185e-317 0.118449 3.35327e-317 -0.0849)
(-0.109363 -0.268574 2.12751e-317 0.151381 1.74391e-317 -0.0420181)
(-0.066862 -0.160068 1.13452e-317 0.0876342 1.19702e-317 -0.0207722)
(-0.0321194 -0.18015 7.01966e-318 0.0430102 9.0064e-318 -0.0108908)
(-0.0136004 -0.14009 4.40592e-318 0.0195403 7.73959e-318 -0.00593996)
(0.0211464 -0.158515 3.2482e-318 -0.0177388 6.80454e-318 -0.00340762)
(0.021319 -0.142191 2.5905e-318 -0.0195147 6.12477e-318 -0.00180434)
(0.0387622 -0.150344 2.26028e-318 -0.0380203 5.49198e-318 -0.000741832)
(0.0286495 -0.141134 2.05071e-318 -0.0288692 4.90316e-318 0.00021964)
(0.0355994 -0.137914 1.9039e-318 -0.0366698 4.32802e-318 0.00107031)
(0.0182323 -0.130902 1.76654e-318 -0.0202218 3.77537e-318 0.00198954)
(0.0250929 -0.113103 1.613e-318 -0.0279815 3.25039e-318 0.00288859)
(0.00233642 -0.105593 1.42148e-318 -0.00622718 2.77066e-318 0.00389075)
(0.0276618 -0.0647312 1.18277e-318 -0.0325586 2.35192e-318 0.00489681)
(0.00275335 -0.0525458 8.8123e-319 -0.00895877 2.00734e-318 0.00620542)
(0.093888 0.0276351 5.59297e-319 -0.10195 1.75344e-318 0.00806228)
(0.0681045 0.0552728 2.09464e-319 -0.0805501 1.54086e-318 0.0124456)
(0.345465 0.201001 6.56119e-321 -0.36982 1.33023e-318 0.0243546)
(0.267084 0.304707 -1.5316e-320 -0.336507 9.0788e-319 0.0694225)
(0.75468 0.88693 -9.64663e-320 -1.0641 -2.98416e-320 0.309422)
)
;

boundaryField
{
    cavity
    {
        type            mySigma;
    }
    lid
    {
        type            fixedValue;
        value           uniform (0.1 -0.3 0 -0.1 0 0);
    }
    frontAndBack
    {
        type            empty;
    }
}


// ************************************************************************* //
