/*--------------------------------*- C++ -*----------------------------------*\
| =========                 |                                                 |
| \\      /  F ield         | foam-extend: Open Source CFD                    |
|  \\    /   O peration     | Version:  3.0                                   |
|   \\  /    A nd           | Web:         http://www.extend-project.de       |
|    \\/     M anipulation  |                                                 |
\*---------------------------------------------------------------------------*/
FoamFile
{
    version     2.0;
    format      ascii;
    class       volScalarField;
    location    "5.7";
    object      Theta;
}
// * * * * * * * * * * * * * * * * * * * * * * * * * * * * * * * * * * * * * //

dimensions      [0 0 0 0 0 0 0];

internalField   nonuniform List<scalar> 
400
(
0.160788
0.00207183
-0.0208573
-0.0549833
-0.0355111
-0.027598
0.00372499
0.02706
0.0613112
0.0899003
0.124634
0.152844
0.186115
0.207274
0.234436
0.236522
0.246459
0.20482
0.170546
0.0181837
0.350125
0.221152
0.182866
0.130095
0.124201
0.104957
0.108849
0.10365
0.109864
0.109092
0.114494
0.111999
0.114324
0.104202
0.100595
0.0744167
0.0586245
0.00114454
-0.0446036
-0.162719
0.279972
0.158415
0.131138
0.0893566
0.0909385
0.0799017
0.0897128
0.0905774
0.102248
0.107018
0.118682
0.122699
0.133148
0.131344
0.137638
0.121236
0.115325
0.0670497
0.0295283
-0.0846942
0.27434
0.173544
0.147612
0.109793
0.110326
0.0980249
0.105003
0.102394
0.110364
0.111121
0.119441
0.120217
0.128932
0.125707
0.132733
0.11713
0.113707
0.0680672
0.0313688
-0.0724582
0.210252
0.104008
0.0910553
0.0601286
0.0708796
0.0659443
0.0808146
0.0849738
0.100244
0.108046
0.124786
0.134011
0.15384
0.160974
0.182775
0.177782
0.19175
0.149253
0.125077
-0.00893999
0.181401
0.0817898
0.0756875
0.0505945
0.0650486
0.0627113
0.0787021
0.0835204
0.0990282
0.107217
0.125048
0.136003
0.159636
0.17122
0.201284
0.20336
0.229964
0.191207
0.176002
0.0181278
0.133906
0.0379015
0.0416001
0.0225778
0.042445
0.0442951
0.0635426
0.0715445
0.0900406
0.101645
0.123807
0.139742
0.171023
0.190286
0.233675
0.245276
0.291803
0.255075
0.257166
0.0535481
0.0985052
0.0233264
0.0315959
0.0199714
0.0396925
0.0433649
0.0608486
0.0683621
0.0847756
0.0953733
0.116213
0.1323
0.16462
0.187183
0.236142
0.255513
0.313269
0.284249
0.296281
0.0734832
0.053866
0.00569902
0.0186604
0.0148845
0.0331957
0.0385539
0.0537203
0.0608602
0.075104
0.0848302
0.104374
0.120535
0.154202
0.179757
0.236158
0.262908
0.338534
0.316138
0.353665
0.0993173
0.0112741
0.00157956
0.0170832
0.0227429
0.0370514
0.0433172
0.0535177
0.0583127
0.0671508
0.0730134
0.0867581
0.0990671
0.127271
0.151598
0.204628
0.236954
0.313467
0.306814
0.34832
0.11347
-0.0330578
0.000599106
0.0160223
0.0315159
0.0401805
0.0472574
0.0517785
0.0539487
0.0568135
0.0581373
0.0653297
0.0724893
0.0947344
0.115859
0.167703
0.203343
0.292792
0.299903
0.381061
0.148987
-0.0788936
-0.00312411
0.0172795
0.0431124
0.048161
0.05613
0.0549592
0.0536478
0.0490582
0.0439174
0.0413075
0.0401574
0.0498372
0.0635927
0.100438
0.13695
0.210494
0.242186
0.31054
0.159231
-0.114842
0.00529687
0.0213867
0.0580319
0.0568608
0.0660971
0.058616
0.0537282
0.0413293
0.029103
0.016237
0.00532796
0.00255762
0.00615776
0.0324789
0.0654265
0.145254
0.19567
0.32403
0.220308
-0.153146
-0.00206026
0.0252557
0.0710586
0.0699256
0.0801963
0.0682243
0.0593084
0.0389953
0.0186435
-0.00620955
-0.0289533
-0.0494822
-0.0595159
-0.0588968
-0.0323779
0.0114031
0.0909981
0.173348
0.222161
-0.16682
0.016212
0.0356068
0.091887
0.0860183
0.09809
0.0805225
0.0676545
0.0392712
0.010607
-0.0259937
-0.0614705
-0.0985275
-0.125157
-0.143268
-0.13039
-0.0890342
0.00623209
0.17057
0.312057
-0.177841
0.0166409
0.0521966
0.113713
0.110686
0.122618
0.101595
0.0841009
0.0484442
0.0112752
-0.0369893
-0.0856856
-0.141851
-0.186852
-0.236767
-0.240208
-0.252894
-0.13571
-0.0686356
0.286494
-0.150489
0.0524712
0.0782105
0.147576
0.140726
0.153301
0.126938
0.104928
0.0619296
0.016703
-0.0422785
-0.103997
-0.177123
-0.242726
-0.316732
-0.345978
-0.373708
-0.258322
-0.102562
0.372036
-0.100047
0.0894494
0.127048
0.193549
0.18677
0.195002
0.164414
0.136567
0.0878593
0.0352443
-0.0320123
-0.105244
-0.193424
-0.278859
-0.382441
-0.440261
-0.528444
-0.423087
-0.419129
0.268993
-0.00873663
0.155426
0.183601
0.250481
0.237679
0.242131
0.205238
0.171813
0.117343
0.0583896
-0.016001
-0.099362
-0.200497
-0.306006
-0.433874
-0.527842
-0.647947
-0.578874
-0.536947
0.245651
0.157431
0.272225
0.290779
0.338557
0.315368
0.305544
0.262906
0.220787
0.164536
0.100186
0.0255606
-0.0648981
-0.168939
-0.292257
-0.433349
-0.572176
-0.731032
-0.752459
-0.847363
-0.0692898
)
;

boundaryField
{
    cavity
    {
        type            implicitExtrapolation;
    }
    lid
    {
        type            implicitExtrapolation;
    }
    frontAndBack
    {
        type            empty;
    }
}


// ************************************************************************* //
