/*--------------------------------*- C++ -*----------------------------------*\
| =========                 |                                                 |
| \\      /  F ield         | foam-extend: Open Source CFD                    |
|  \\    /   O peration     | Version:  3.0                                   |
|   \\  /    A nd           | Web:         http://www.extend-project.de       |
|    \\/     M anipulation  |                                                 |
\*---------------------------------------------------------------------------*/
FoamFile
{
    version     2.0;
    format      ascii;
    class       volScalarField;
    location    "60";
    object      p;
}
// * * * * * * * * * * * * * * * * * * * * * * * * * * * * * * * * * * * * * //

dimensions      [0 0 0 0 0 0 0];

internalField   nonuniform List<scalar> 
7680
(
-0.236126
-0.224128
-0.215257
-0.205881
-0.199112
-0.191672
-0.186467
-0.1805
-0.176488
-0.171667
-0.168582
-0.164668
-0.162311
-0.159125
-0.157344
-0.154745
-0.15342
-0.151296
-0.150329
-0.148587
-0.147894
-0.146455
-0.145964
-0.144757
-0.144402
-0.143364
-0.143081
-0.142152
-0.141881
-0.141001
-0.140681
-0.139792
-0.13936
-0.1384
-0.137789
-0.136696
-0.135838
-0.134548
-0.133367
-0.131818
-0.23587
-0.223885
-0.215023
-0.205658
-0.198896
-0.191465
-0.186266
-0.180305
-0.176298
-0.171482
-0.168401
-0.164491
-0.162137
-0.158954
-0.157175
-0.154579
-0.153256
-0.151135
-0.150168
-0.148428
-0.147736
-0.146299
-0.145809
-0.144604
-0.144249
-0.143213
-0.14293
-0.142002
-0.141732
-0.140853
-0.140533
-0.139644
-0.139212
-0.138252
-0.137641
-0.136547
-0.135688
-0.134395
-0.133214
-0.131661
-0.235371
-0.223412
-0.214569
-0.205224
-0.198477
-0.191061
-0.185874
-0.179926
-0.175929
-0.171123
-0.168049
-0.164148
-0.161799
-0.158624
-0.156849
-0.154259
-0.152939
-0.150823
-0.149859
-0.148123
-0.147433
-0.146
-0.145511
-0.144309
-0.143956
-0.142922
-0.142641
-0.141715
-0.141447
-0.14057
-0.140251
-0.139364
-0.138933
-0.137974
-0.137365
-0.136271
-0.135411
-0.134117
-0.132933
-0.131377
-0.234609
-0.222689
-0.213875
-0.204561
-0.197836
-0.190445
-0.185275
-0.179346
-0.175361
-0.170572
-0.167507
-0.163619
-0.161278
-0.158113
-0.156344
-0.153763
-0.152447
-0.150338
-0.149377
-0.147648
-0.14696
-0.145531
-0.145044
-0.143847
-0.143495
-0.142465
-0.142186
-0.141263
-0.140996
-0.140122
-0.139806
-0.138922
-0.138493
-0.137537
-0.13693
-0.135838
-0.134981
-0.133688
-0.132504
-0.130945
-0.233608
-0.221739
-0.212963
-0.203689
-0.196993
-0.189634
-0.184486
-0.178583
-0.174616
-0.169847
-0.166796
-0.162925
-0.160595
-0.157444
-0.155683
-0.153113
-0.151804
-0.149704
-0.148748
-0.147027
-0.146343
-0.144921
-0.144437
-0.143245
-0.142895
-0.141871
-0.141594
-0.140676
-0.140412
-0.139542
-0.139229
-0.138349
-0.137924
-0.136973
-0.13637
-0.135282
-0.134429
-0.133138
-0.131958
-0.130395
-0.232344
-0.22054
-0.211812
-0.202589
-0.195929
-0.18861
-0.18349
-0.177619
-0.173673
-0.16893
-0.165896
-0.162046
-0.159728
-0.156595
-0.154844
-0.152288
-0.150986
-0.148897
-0.147947
-0.146235
-0.145555
-0.144141
-0.14366
-0.142475
-0.142128
-0.141109
-0.140835
-0.139923
-0.139661
-0.138797
-0.138487
-0.137612
-0.137192
-0.136246
-0.135647
-0.134566
-0.133717
-0.132432
-0.131253
-0.12969
-0.230845
-0.219117
-0.210446
-0.201282
-0.194666
-0.187394
-0.182308
-0.176476
-0.172556
-0.167844
-0.16483
-0.161005
-0.158703
-0.15559
-0.15385
-0.151312
-0.150018
-0.147944
-0.147001
-0.1453
-0.144626
-0.143221
-0.142745
-0.141568
-0.141224
-0.140213
-0.139942
-0.139036
-0.138778
-0.13792
-0.137614
-0.136747
-0.136331
-0.135393
-0.134801
-0.133727
-0.132885
-0.131605
-0.130434
-0.128867
-0.229084
-0.217447
-0.208842
-0.199749
-0.193183
-0.185967
-0.18092
-0.175132
-0.171242
-0.166566
-0.163575
-0.15978
-0.157495
-0.154406
-0.15268
-0.150161
-0.148877
-0.146819
-0.145883
-0.144196
-0.143527
-0.142133
-0.141661
-0.140493
-0.140153
-0.13915
-0.138881
-0.137983
-0.137728
-0.136878
-0.136576
-0.135716
-0.135305
-0.134375
-0.133788
-0.132724
-0.131888
-0.130617
-0.12945
-0.127889
-0.227093
-0.215557
-0.207027
-0.198013
-0.191505
-0.184352
-0.179349
-0.173612
-0.169757
-0.165122
-0.162157
-0.158395
-0.156131
-0.153069
-0.151359
-0.148862
-0.147591
-0.145551
-0.144624
-0.142952
-0.142289
-0.140908
-0.140441
-0.139284
-0.138948
-0.137954
-0.137689
-0.1368
-0.136548
-0.135706
-0.135409
-0.134557
-0.134152
-0.133231
-0.132652
-0.131596
-0.130769
-0.129506
-0.128349
-0.126788
-0.224844
-0.213423
-0.204978
-0.196053
-0.18961
-0.182528
-0.177575
-0.171895
-0.168077
-0.163489
-0.160553
-0.156829
-0.154587
-0.151555
-0.149862
-0.14739
-0.146132
-0.144112
-0.143194
-0.141539
-0.140883
-0.139517
-0.139054
-0.137909
-0.137576
-0.136593
-0.136331
-0.135451
-0.135202
-0.134369
-0.134076
-0.133233
-0.132833
-0.131921
-0.131348
-0.130303
-0.129484
-0.128232
-0.127082
-0.125534
-0.222369
-0.211074
-0.202722
-0.193896
-0.187524
-0.180521
-0.175622
-0.170005
-0.16623
-0.161693
-0.15879
-0.155107
-0.15289
-0.149893
-0.148219
-0.145775
-0.14453
-0.142534
-0.141626
-0.13999
-0.139342
-0.137991
-0.137534
-0.136402
-0.136074
-0.135102
-0.134844
-0.133974
-0.133729
-0.132905
-0.132616
-0.131783
-0.131388
-0.130486
-0.129921
-0.128886
-0.128076
-0.126835
-0.125698
-0.124157
-0.21964
-0.208484
-0.200235
-0.191518
-0.185225
-0.178307
-0.173469
-0.167921
-0.164193
-0.159711
-0.156844
-0.153206
-0.151017
-0.148056
-0.146403
-0.143988
-0.142759
-0.140787
-0.139892
-0.138275
-0.137635
-0.136301
-0.13585
-0.134732
-0.134408
-0.133448
-0.133193
-0.132334
-0.132092
-0.131279
-0.130992
-0.130169
-0.129779
-0.128888
-0.128328
-0.127305
-0.126504
-0.125278
-0.124151
-0.122632
-0.216692
-0.205687
-0.197549
-0.188949
-0.18274
-0.175916
-0.171143
-0.16567
-0.161992
-0.157571
-0.154743
-0.151155
-0.148995
-0.146074
-0.144443
-0.142062
-0.14085
-0.138905
-0.138022
-0.136428
-0.135797
-0.134481
-0.134036
-0.132934
-0.132615
-0.131668
-0.131417
-0.130569
-0.130331
-0.129528
-0.129246
-0.128433
-0.128048
-0.127167
-0.126615
-0.125604
-0.124813
-0.123601
-0.12249
-0.120989
-0.213496
-0.202653
-0.194636
-0.186163
-0.180046
-0.173323
-0.168621
-0.163228
-0.159605
-0.155249
-0.152463
-0.148927
-0.146799
-0.143922
-0.142315
-0.139969
-0.138775
-0.136859
-0.135989
-0.134418
-0.133797
-0.1325
-0.132062
-0.130976
-0.130661
-0.129728
-0.12948
-0.128645
-0.12841
-0.127618
-0.127339
-0.126537
-0.126157
-0.125288
-0.124742
-0.123744
-0.122963
-0.121769
-0.120674
-0.119201
-0.210088
-0.199418
-0.191529
-0.183192
-0.177173
-0.170558
-0.165931
-0.160625
-0.15706
-0.152774
-0.150033
-0.146554
-0.144461
-0.14163
-0.140049
-0.137741
-0.136566
-0.134681
-0.133825
-0.13228
-0.131669
-0.130393
-0.129962
-0.128894
-0.128584
-0.127666
-0.127422
-0.1266
-0.126368
-0.125589
-0.125313
-0.124524
-0.124148
-0.123291
-0.122752
-0.121769
-0.121
-0.119824
-0.118747
-0.117302
-0.206437
-0.195954
-0.188202
-0.180011
-0.174096
-0.167596
-0.16305
-0.157836
-0.154333
-0.150121
-0.147428
-0.14401
-0.141953
-0.139171
-0.137618
-0.13535
-0.134196
-0.132343
-0.131502
-0.129984
-0.129384
-0.12813
-0.127707
-0.126657
-0.126352
-0.12545
-0.12521
-0.124401
-0.124172
-0.123406
-0.123134
-0.122356
-0.121985
-0.121142
-0.120611
-0.119644
-0.118886
-0.117732
-0.116675
-0.115263
-0.202584
-0.192296
-0.184689
-0.176651
-0.170847
-0.164469
-0.160008
-0.154892
-0.151455
-0.147322
-0.144679
-0.141325
-0.139307
-0.136578
-0.135054
-0.132829
-0.131696
-0.129879
-0.129054
-0.127564
-0.126975
-0.125746
-0.12533
-0.1243
-0.124001
-0.123116
-0.12288
-0.122086
-0.121861
-0.121108
-0.12084
-0.120076
-0.11971
-0.118882
-0.118359
-0.117409
-0.116665
-0.115533
-0.114498
-0.113119
-0.198495
-0.188416
-0.180963
-0.173087
-0.167401
-0.161151
-0.15678
-0.151768
-0.1484
-0.144351
-0.141761
-0.138475
-0.136498
-0.133824
-0.132331
-0.13015
-0.129041
-0.12726
-0.126452
-0.124992
-0.124415
-0.12321
-0.122803
-0.121794
-0.121501
-0.120632
-0.120401
-0.119623
-0.119401
-0.118663
-0.118399
-0.11765
-0.11729
-0.116477
-0.115963
-0.115032
-0.114302
-0.113195
-0.112183
-0.110841
-0.194212
-0.18435
-0.177059
-0.169353
-0.16379
-0.157676
-0.153399
-0.148496
-0.1452
-0.141239
-0.138706
-0.135491
-0.133556
-0.13094
-0.12948
-0.127347
-0.126262
-0.12452
-0.123729
-0.122302
-0.121737
-0.120558
-0.12016
-0.119173
-0.118886
-0.118037
-0.11781
-0.117048
-0.116831
-0.116108
-0.115849
-0.115116
-0.114762
-0.113967
-0.113463
-0.112552
-0.111838
-0.110756
-0.109768
-0.108462
-0.189702
-0.18007
-0.172948
-0.165422
-0.159988
-0.154016
-0.149839
-0.145049
-0.141831
-0.137962
-0.135487
-0.132347
-0.130458
-0.127902
-0.126476
-0.124392
-0.123333
-0.121631
-0.120859
-0.119464
-0.118913
-0.117762
-0.117373
-0.116408
-0.116128
-0.115298
-0.115077
-0.114333
-0.11412
-0.113414
-0.11316
-0.112443
-0.112097
-0.11132
-0.110827
-0.109938
-0.109241
-0.108187
-0.107225
-0.105954
-0.185008
-0.175615
-0.168669
-0.16133
-0.15603
-0.150207
-0.146133
-0.141462
-0.138324
-0.134551
-0.132138
-0.129076
-0.127233
-0.124741
-0.12335
-0.121319
-0.120286
-0.118627
-0.117874
-0.116514
-0.115976
-0.114854
-0.114475
-0.113535
-0.113261
-0.112453
-0.112236
-0.111511
-0.111303
-0.110614
-0.110366
-0.109668
-0.109329
-0.108572
-0.108091
-0.107225
-0.106546
-0.10552
-0.104584
-0.10335
-0.180097
-0.170953
-0.164193
-0.157048
-0.15189
-0.146221
-0.142256
-0.137709
-0.134654
-0.130981
-0.128632
-0.125651
-0.123858
-0.121432
-0.120078
-0.118101
-0.117095
-0.11548
-0.114747
-0.113424
-0.112901
-0.111808
-0.11144
-0.110524
-0.110259
-0.109471
-0.109261
-0.108555
-0.108353
-0.107683
-0.107442
-0.106762
-0.106433
-0.105696
-0.105229
-0.104387
-0.103727
-0.102731
-0.101822
-0.100623
-0.175012
-0.166127
-0.159557
-0.152615
-0.147603
-0.142094
-0.138241
-0.133823
-0.130854
-0.127285
-0.125003
-0.122107
-0.120364
-0.118008
-0.116692
-0.114771
-0.113793
-0.112224
-0.111512
-0.110227
-0.109719
-0.108658
-0.108299
-0.10741
-0.107152
-0.106388
-0.106183
-0.105498
-0.105302
-0.104651
-0.104417
-0.103757
-0.103438
-0.102723
-0.102269
-0.101453
-0.100812
-0.0998464
-0.0989641
-0.0978012
-0.16972
-0.161104
-0.154734
-0.148001
-0.143141
-0.137799
-0.134063
-0.129778
-0.1269
-0.123439
-0.121226
-0.118417
-0.116727
-0.114442
-0.113166
-0.111303
-0.110355
-0.108834
-0.108144
-0.106897
-0.106405
-0.105376
-0.105029
-0.104167
-0.103918
-0.103177
-0.102979
-0.102315
-0.102126
-0.101495
-0.10127
-0.10063
-0.100323
-0.0996301
-0.0991921
-0.0984012
-0.0977823
-0.0968464
-0.0959927
-0.094864
-0.164267
-0.155928
-0.149762
-0.143246
-0.138542
-0.133372
-0.129756
-0.12561
-0.122824
-0.119474
-0.117332
-0.114615
-0.112979
-0.110767
-0.109533
-0.10773
-0.106813
-0.105341
-0.104673
-0.103467
-0.10299
-0.101995
-0.101659
-0.100826
-0.100585
-0.0998686
-0.0996777
-0.099036
-0.0988528
-0.0982442
-0.0980258
-0.0974087
-0.0971106
-0.0964426
-0.0960183
-0.0952553
-0.0946557
-0.0937521
-0.0929252
-0.0918332
-0.158617
-0.150565
-0.144612
-0.138321
-0.133779
-0.128787
-0.125295
-0.121292
-0.118601
-0.115367
-0.113299
-0.110675
-0.109096
-0.10696
-0.105768
-0.104028
-0.103142
-0.101721
-0.101076
-0.0999119
-0.0994524
-0.0984917
-0.0981683
-0.097364
-0.0971321
-0.096441
-0.0962583
-0.0956392
-0.0954646
-0.0948774
-0.0946692
-0.0940738
-0.0937891
-0.0931443
-0.0927378
-0.0920008
-0.0914245
-0.0905507
-0.0897534
-0.0886942
-0.152817
-0.145061
-0.139325
-0.133264
-0.128888
-0.124079
-0.120715
-0.116858
-0.114267
-0.111151
-0.109159
-0.106631
-0.105109
-0.103052
-0.101904
-0.100227
-0.099374
-0.0980051
-0.097384
-0.0962629
-0.0958201
-0.0948954
-0.0945838
-0.09381
-0.0935866
-0.0929221
-0.0927462
-0.0921514
-0.0919831
-0.0914195
-0.0912187
-0.0906475
-0.0903726
-0.0897539
-0.0893609
-0.0886531
-0.0880957
-0.0872551
-0.0864837
-0.0854633
-0.146834
-0.139381
-0.133871
-0.128047
-0.123843
-0.119222
-0.115991
-0.112285
-0.109795
-0.106801
-0.104887
-0.102458
-0.100996
-0.0990197
-0.0979164
-0.0963054
-0.0954861
-0.0941709
-0.0935746
-0.0924975
-0.0920728
-0.0911845
-0.0908862
-0.0901432
-0.08993
-0.0892922
-0.0891252
-0.0885546
-0.0883957
-0.0878551
-0.0876657
-0.0871175
-0.0868575
-0.0862629
-0.0858895
-0.0852078
-0.0846754
-0.0838635
-0.0831232
-0.0821332
-0.140714
-0.133572
-0.128291
-0.122711
-0.118682
-0.114254
-0.111157
-0.107606
-0.10522
-0.102351
-0.100517
-0.0981891
-0.0967884
-0.0948945
-0.0938372
-0.0922937
-0.0915085
-0.0902485
-0.089677
-0.0886454
-0.0882382
-0.0873878
-0.0871019
-0.086391
-0.0861867
-0.085577
-0.0854171
-0.0848722
-0.08472
-0.0842042
-0.0840226
-0.0834998
-0.0832498
-0.0826824
-0.0823224
-0.0816708
-0.0811562
-0.0803786
-0.0796621
-0.0787145
-0.134422
-0.1276
-0.122556
-0.117226
-0.113377
-0.109147
-0.106189
-0.102797
-0.100517
-0.0977773
-0.0960249
-0.0938014
-0.0924634
-0.0906542
-0.0896444
-0.0881699
-0.08742
-0.0862165
-0.0856709
-0.0846856
-0.0842973
-0.0834853
-0.0832132
-0.0825346
-0.0823411
-0.0817595
-0.0816091
-0.0810897
-0.0809476
-0.0804562
-0.080287
-0.0797886
-0.0795551
-0.079013
-0.078675
-0.0780498
-0.0775636
-0.0768134
-0.0761313
-0.0752095
-0.128007
-0.121511
-0.116708
-0.111632
-0.107967
-0.10394
-0.101123
-0.0978924
-0.0957217
-0.0931126
-0.0914437
-0.0893266
-0.0880524
-0.0863298
-0.085368
-0.0839641
-0.0832499
-0.0821041
-0.0815844
-0.0806466
-0.0802768
-0.0795042
-0.079245
-0.0785999
-0.0784156
-0.0778633
-0.0777202
-0.0772277
-0.0770924
-0.0766271
-0.0764658
-0.0759942
-0.0757709
-0.0752576
-0.0749328
-0.0743394
-0.0738699
-0.0731559
-0.0724949
-0.071621
-0.121435
-0.115273
-0.110716
-0.105901
-0.102425
-0.0986045
-0.0959323
-0.0928682
-0.0908091
-0.088334
-0.086751
-0.0847426
-0.0835339
-0.0818997
-0.0809875
-0.0796557
-0.0789783
-0.0778915
-0.0773987
-0.0765093
-0.0761589
-0.0754264
-0.0751814
-0.07457
-0.0743967
-0.0738737
-0.0737402
-0.0732744
-0.0731495
-0.0727098
-0.0725618
-0.0721162
-0.0719112
-0.0714249
-0.0711256
-0.0705605
-0.0701251
-0.0694393
-0.0688203
-0.0679655
-0.114753
-0.10893
-0.104625
-0.100075
-0.0967898
-0.0931797
-0.0906545
-0.0877592
-0.0858133
-0.0834746
-0.0819786
-0.0800809
-0.0789386
-0.0773945
-0.0765322
-0.0752739
-0.0746336
-0.0736068
-0.0731409
-0.0723007
-0.0719694
-0.0712778
-0.071046
-0.0704693
-0.0703053
-0.0698126
-0.0696864
-0.0692483
-0.0691305
-0.0687179
-0.0685781
-0.0681606
-0.0679663
-0.0675108
-0.0672255
-0.0666948
-0.066276
-0.0656301
-0.0650291
-0.0642312
-0.107927
-0.102451
-0.0984024
-0.0941236
-0.0910343
-0.0876391
-0.0852644
-0.0825414
-0.0807115
-0.078512
-0.0771051
-0.0753202
-0.074246
-0.0727937
-0.0719828
-0.0707994
-0.0701972
-0.0692315
-0.0687935
-0.0680034
-0.0676921
-0.0670418
-0.0668245
-0.0662825
-0.0661294
-0.0656669
-0.0655502
-0.0651396
-0.065032
-0.0646461
-0.0645197
-0.0641298
-0.0639549
-0.0635293
-0.0632723
-0.0627743
-0.0623962
-0.0617835
-0.0612367
-0.0604532
-0.101007
-0.0958824
-0.092093
-0.0880889
-0.0851977
-0.0820204
-0.0797979
-0.0772497
-0.0755371
-0.0734787
-0.0721619
-0.0704917
-0.0694861
-0.0681271
-0.0673679
-0.0662604
-0.0656966
-0.0647929
-0.0643826
-0.0636433
-0.0633516
-0.0627434
-0.0625396
-0.0620331
-0.0618895
-0.0614578
-0.0613484
-0.0609661
-0.0608654
-0.0605072
-0.0603893
-0.0600287
-0.0598655
-0.0594726
-0.0592315
-0.058771
-0.0584118
-0.0578433
-0.0573146
-0.0566002
-0.0939576
-0.0891913
-0.0856669
-0.0819425
-0.0792535
-0.0762982
-0.074231
-0.0718608
-0.0702679
-0.0683533
-0.0671285
-0.0655749
-0.0646395
-0.0633754
-0.0626692
-0.061639
-0.0611144
-0.0602738
-0.0598921
-0.0592044
-0.058933
-0.0583674
-0.0581779
-0.0577071
-0.057574
-0.0571732
-0.0570724
-0.0567182
-0.0566266
-0.0562959
-0.0561901
-0.0558585
-0.0557136
-0.0553537
-0.055141
-0.0547194
-0.0544038
-0.0538787
-0.0534122
-0.0527198
-0.0868283
-0.082424
-0.0791671
-0.0757255
-0.0732406
-0.0705097
-0.0685994
-0.0664092
-0.0649371
-0.0631679
-0.0620359
-0.0606002
-0.0597357
-0.0585674
-0.0579146
-0.0569625
-0.0564774
-0.0557004
-0.0553473
-0.0547117
-0.0544604
-0.0539378
-0.0537622
-0.0533273
-0.0532038
-0.052834
-0.0527405
-0.0524146
-0.0523299
-0.0520268
-0.0519297
-0.0516277
-0.0514954
-0.0511696
-0.0509758
-0.0505954
-0.0503048
-0.049829
-0.0493889
-0.0487622
-0.0795855
-0.0755491
-0.0725644
-0.0694103
-0.067133
-0.0646303
-0.0628796
-0.0608723
-0.0595232
-0.0579017
-0.0568642
-0.0555484
-0.054756
-0.0536852
-0.0530868
-0.0522141
-0.0517693
-0.0510571
-0.0507331
-0.0501505
-0.0499198
-0.0494407
-0.0492793
-0.0488808
-0.0487671
-0.0484287
-0.0483427
-0.048045
-0.0479676
-0.047692
-0.0476043
-0.0473317
-0.0472138
-0.0469228
-0.0467527
-0.0464171
-0.0461664
-0.045751
-0.0453776
-0.0448194
-0.072278
-0.0686126
-0.065902
-0.0630378
-0.0609697
-0.0586969
-0.057107
-0.0552842
-0.0540589
-0.0525863
-0.0516441
-0.050449
-0.0497292
-0.0487567
-0.0482129
-0.0474202
-0.0470159
-0.0463689
-0.0460741
-0.0455448
-0.0453346
-0.0448993
-0.044752
-0.04439
-0.044286
-0.0439786
-0.0438999
-0.0436301
-0.0435594
-0.0433107
-0.0432315
-0.0429875
-0.0428829
-0.0426257
-0.0424776
-0.0421858
-0.0419725
-0.0416166
-0.041307
-0.0408219
-0.0648726
-0.0615834
-0.0591511
-0.0565808
-0.054725
-0.0526855
-0.0512588
-0.049623
-0.0485234
-0.047202
-0.0463563
-0.0452839
-0.0446378
-0.0437651
-0.0432769
-0.0425654
-0.0422022
-0.0416214
-0.0413564
-0.0408811
-0.0406918
-0.0403009
-0.0401677
-0.0398427
-0.039748
-0.0394723
-0.0393999
-0.0391583
-0.0390928
-0.0388712
-0.0387979
-0.0385823
-0.0384861
-0.0382618
-0.0381264
-0.0378762
-0.0376812
-0.0373809
-0.037096
-0.0367061
-0.0574182
-0.0545073
-0.0523547
-0.0500801
-0.0484377
-0.0466327
-0.04537
-0.0439223
-0.0429491
-0.0417796
-0.041031
-0.0400818
-0.0395098
-0.0387372
-0.0383049
-0.037675
-0.0373531
-0.0368387
-0.0366037
-0.0361826
-0.0360144
-0.0356679
-0.0355492
-0.035261
-0.0351762
-0.0349317
-0.0348666
-0.0346525
-0.0345937
-0.034398
-0.0343329
-0.0341442
-0.0340606
-0.0338674
-0.0337535
-0.0335432
-0.0333873
-0.0331417
-0.0329297
-0.0326057
-0.049882
-0.0473539
-0.0454844
-0.043509
-0.0420826
-0.040515
-0.0394184
-0.0381611
-0.0373158
-0.0363001
-0.03565
-0.0348256
-0.0343287
-0.0336576
-0.0332819
-0.0327347
-0.0324547
-0.0320078
-0.031803
-0.0314371
-0.03129
-0.0309888
-0.0308842
-0.0306336
-0.030558
-0.0303454
-0.0302861
-0.0301002
-0.0300454
-0.0298764
-0.0298149
-0.0296537
-0.0295747
-0.0294133
-0.0293063
-0.0291369
-0.0289926
-0.0288077
-0.0286207
-0.0284233
-0.0423126
-0.0401687
-0.0385833
-0.0369079
-0.0356982
-0.0343688
-0.0334387
-0.0323724
-0.0316554
-0.0307939
-0.0302424
-0.0295431
-0.0291215
-0.0285522
-0.0282332
-0.0277689
-0.027531
-0.0271516
-0.0269773
-0.0266664
-0.0265409
-0.0262848
-0.0261953
-0.0259819
-0.0259167
-0.0257355
-0.0256839
-0.0255256
-0.0254779
-0.0253343
-0.0252813
-0.0251458
-0.0250795
-0.024947
-0.0248611
-0.0247285
-0.0246216
-0.0244876
-0.0243684
-0.0242355
-0.0346778
-0.0329217
-0.031623
-0.0302507
-0.0292599
-0.028171
-0.0274091
-0.0265357
-0.0259485
-0.0252429
-0.0247911
-0.0242184
-0.0238728
-0.0234065
-0.023145
-0.0227645
-0.0225692
-0.0222583
-0.0221147
-0.0218599
-0.0217559
-0.0215459
-0.0214708
-0.0212958
-0.0212399
-0.0210913
-0.0210457
-0.0209161
-0.0208724
-0.0207558
-0.0207065
-0.0205985
-0.020537
-0.0204361
-0.020358
-0.0202666
-0.0201748
-0.0201018
-0.0200163
-0.0199949
-0.027026
-0.0256582
-0.0246466
-0.0235777
-0.0228059
-0.0219577
-0.0213642
-0.0206838
-0.0202263
-0.0196766
-0.0193246
-0.0188783
-0.0186089
-0.0182455
-0.0180414
-0.0177448
-0.0175922
-0.0173495
-0.0172371
-0.017038
-0.0169562
-0.0167919
-0.0167324
-0.0165952
-0.0165505
-0.0164338
-0.0163969
-0.0162952
-0.0162596
-0.0161687
-0.0161291
-0.0160468
-0.0159992
-0.0159264
-0.0158701
-0.0158131
-0.0157565
-0.0157297
-0.015701
-0.0157392
-0.0193251
-0.0183485
-0.0176262
-0.016863
-0.0163119
-0.0157063
-0.0152826
-0.0147969
-0.0144702
-0.0140778
-0.0138263
-0.0135078
-0.0133153
-0.0130558
-0.0129098
-0.0126979
-0.0125884
-0.012415
-0.0123338
-0.0121915
-0.0121317
-0.0120142
-0.0119698
-0.0118716
-0.011837
-0.0117537
-0.0117236
-0.0116515
-0.0116213
-0.0115581
-0.0115241
-0.0114699
-0.0114298
-0.0113885
-0.011344
-0.0113258
-0.0112893
-0.0113145
-0.0113214
-0.0114359
-0.0116237
-0.0110378
-0.0106045
-0.0101466
-0.00981598
-0.00945263
-0.00919837
-0.0089069
-0.00871082
-0.00847531
-0.0083243
-0.00813303
-0.00801728
-0.00786137
-0.00777332
-0.00764584
-0.00757947
-0.00747494
-0.00742533
-0.00733927
-0.00730226
-0.00723096
-0.00720283
-0.00714314
-0.00712049
-0.0070698
-0.00704948
-0.00700599
-0.0069854
-0.00694868
-0.00692613
-0.00689803
-0.00687362
-0.00685992
-0.00683793
-0.00685106
-0.00684657
-0.00690922
-0.00695946
-0.00711657
-0.00388982
-0.00369671
-0.00355387
-0.00340302
-0.0032941
-0.00317446
-0.00309068
-0.00299476
-0.00293009
-0.00285264
-0.00280272
-0.00273983
-0.00270133
-0.00264999
-0.0026203
-0.00257818
-0.00255521
-0.00252048
-0.0025025
-0.00247374
-0.00245924
-0.00243533
-0.00242293
-0.00240298
-0.00239134
-0.0023748
-0.00236272
-0.00234971
-0.00233642
-0.00232835
-0.00231398
-0.00231451
-0.00230106
-0.00231777
-0.0023115
-0.00235849
-0.00237633
-0.00247743
-0.00255773
-0.00275755
0.00382822
0.00362971
0.00348297
0.00332789
0.00321588
0.00309281
0.00300674
0.00290802
0.00284178
0.00276202
0.00271124
0.00264657
0.00260809
0.00255564
0.00252708
0.00248461
0.00246411
0.00242977
0.00241583
0.00238801
0.00237935
0.00235663
0.00235218
0.00233318
0.00233204
0.0023153
0.00231654
0.00230012
0.00230246
0.00228328
0.00228454
0.00225751
0.00225379
0.0022103
0.00219384
0.00211947
0.0020732
0.00194502
0.00183379
0.00161224
0.0115621
0.0109708
0.0105336
0.0100715
0.00973776
0.00937094
0.00911438
0.00882007
0.00862238
0.0083845
0.00823257
0.00803946
0.00792364
0.00776651
0.00767947
0.00755149
0.00748743
0.00738307
0.00733725
0.00725186
0.00722029
0.00714981
0.00712904
0.00706982
0.00705678
0.00700529
0.006997
0.00694941
0.00694265
0.0068942
0.00688491
0.00682917
0.00681171
0.00673937
0.00670475
0.00660179
0.00653328
0.00637901
0.00624529
0.0060064
0.0192636
0.0182816
0.0175554
0.016788
0.0162339
0.0156249
0.0151988
0.0147103
0.014382
0.0139873
0.0137348
0.0134144
0.0132217
0.012961
0.0128158
0.0126034
0.0124958
0.0123225
0.0122446
0.0121026
0.0120477
0.0119304
0.0118925
0.011794
0.0117677
0.0116826
0.0116627
0.0115852
0.0115666
0.0114904
0.0114671
0.0113847
0.0113494
0.0112513
0.0111943
0.0110675
0.0109737
0.0108005
0.0106449
0.0103998
0.0269644
0.0255913
0.0245759
0.0235028
0.0227279
0.0218762
0.0212803
0.020597
0.0201378
0.0195855
0.0192324
0.018784
0.0185142
0.0181492
0.0179456
0.017648
0.0174969
0.0172537
0.0171439
0.0169444
0.0168663
0.0167013
0.0166466
0.0165079
0.016469
0.0163489
0.0163187
0.0162098
0.0161809
0.0160754
0.01604
0.0159293
0.0158787
0.0157532
0.015677
0.0155253
0.01541
0.0152183
0.0150451
0.0147968
0.0346164
0.0328551
0.0315526
0.0301762
0.0291822
0.02809
0.0273257
0.0264495
0.0258605
0.0251524
0.0246993
0.0241245
0.0237784
0.0233105
0.023049
0.0226675
0.0224731
0.0221613
0.0220196
0.0217639
0.0216625
0.0214509
0.021379
0.0212012
0.021149
0.0209953
0.0209534
0.0208146
0.0207737
0.0206405
0.0205911
0.020454
0.0203859
0.0202353
0.0201378
0.0199639
0.0198258
0.0196186
0.019428
0.0191795
0.0422513
0.0401022
0.038513
0.0368335
0.0356206
0.0342877
0.0333551
0.0322857
0.0315668
0.0307026
0.0301496
0.0294479
0.0290253
0.0284539
0.0281346
0.0276684
0.0274309
0.0270498
0.0268763
0.0265634
0.026439
0.02618
0.0260914
0.0258735
0.0258087
0.0256202
0.0255678
0.0253979
0.0253465
0.0251844
0.0251227
0.0249579
0.0248743
0.0246973
0.0245807
0.0243832
0.0242238
0.0239999
0.0237921
0.0235421
0.0498208
0.0472878
0.0454145
0.0434351
0.0420056
0.0404347
0.0393355
0.0380753
0.0372281
0.0362097
0.0355579
0.0347312
0.034233
0.0335599
0.0331834
0.0326342
0.0323539
0.031905
0.0317001
0.0313316
0.0311842
0.0308792
0.0307737
0.0305173
0.0304395
0.030218
0.0301544
0.0299551
0.0298926
0.0297033
0.0296286
0.029438
0.0293383
0.0291365
0.0290002
0.0287803
0.0285993
0.0283581
0.0281325
0.0278775
0.0573571
0.0544413
0.0522851
0.0500064
0.0483608
0.0465523
0.045287
0.0438361
0.0428607
0.0416882
0.0409378
0.0399857
0.0394121
0.0386368
0.0382031
0.0375705
0.0372476
0.0367302
0.0364939
0.0360691
0.0358991
0.0355473
0.0354255
0.0351297
0.0350396
0.0347842
0.0347105
0.0344809
0.0344084
0.0341912
0.034105
0.0338877
0.0337735
0.0335459
0.0333913
0.0331473
0.0329449
0.0326835
0.0324376
0.0321722
0.0648118
0.0615178
0.0590819
0.0565078
0.0546489
0.0526061
0.0511768
0.049538
0.0484362
0.0471119
0.0462643
0.0451891
0.0445411
0.0436657
0.0431758
0.0424615
0.0420966
0.0415126
0.0412454
0.0407661
0.0405736
0.0401769
0.0400388
0.0397054
0.0396032
0.0393156
0.0392318
0.038974
0.0388917
0.0386484
0.038551
0.0383087
0.0381805
0.0379282
0.0377559
0.0374875
0.0372638
0.0369792
0.0367112
0.0364265
0.0722174
0.0685473
0.0658333
0.0629651
0.0608939
0.0586176
0.057025
0.0551988
0.0539711
0.0524953
0.0515507
0.0503524
0.0496303
0.0486545
0.0481085
0.0473122
0.0469054
0.0462543
0.0459565
0.0454219
0.0452074
0.044765
0.0446111
0.0442394
0.0441256
0.0438052
0.0437123
0.0434254
0.0433345
0.0430645
0.0429573
0.0426893
0.0425485
0.0422706
0.0420815
0.0417868
0.0415415
0.0412298
0.0409356
0.0406241
0.0795252
0.0754844
0.0724962
0.0693385
0.0670582
0.0645522
0.0627988
0.0607886
0.0594369
0.0578125
0.0567725
0.0554537
0.0546587
0.0535848
0.0529838
0.0521076
0.0516598
0.0509436
0.0506157
0.0500279
0.0497918
0.0493056
0.0491364
0.0487283
0.0486034
0.0482521
0.0481505
0.0478365
0.0477376
0.0474428
0.0473267
0.0470346
0.0468824
0.0465797
0.0463749
0.046053
0.0457864
0.045443
0.0451202
0.0447699
0.0867683
0.0823597
0.0790995
0.0756542
0.0731662
0.0704318
0.0685188
0.0663252
0.0648504
0.0630777
0.061943
0.0605037
0.0596364
0.0584643
0.0578084
0.0568522
0.0563635
0.0555817
0.0552241
0.0545825
0.054325
0.0537945
0.0536102
0.0531651
0.0530296
0.0526469
0.0525372
0.0521956
0.0520896
0.0517695
0.0516454
0.0513288
0.051166
0.0508377
0.0506179
0.0502669
0.049978
0.0495992
0.0492433
0.0488466
0.0938979
0.0891276
0.0855999
0.0818722
0.0791802
0.0762218
0.0741519
0.0717788
0.0701831
0.0682655
0.0670379
0.065481
0.0645426
0.063275
0.0625655
0.0615315
0.061003
0.0601578
0.0597711
0.0590778
0.0587998
0.0582268
0.0580282
0.057548
0.0574025
0.0569902
0.0568732
0.0565059
0.0563936
0.05605
0.0559191
0.0555792
0.0554074
0.0550539
0.0548205
0.0544393
0.0541289
0.0537099
0.0533189
0.052864
0.100948
0.0958195
0.092027
0.0880193
0.0851252
0.0819445
0.0797192
0.0771676
0.0754521
0.0733902
0.0720704
0.0703963
0.0693875
0.0680244
0.0672616
0.0661497
0.0655816
0.0646727
0.0642572
0.0635118
0.0632132
0.0625974
0.0623846
0.0618687
0.0617135
0.0612711
0.061147
0.0607535
0.0606353
0.0602676
0.0601303
0.0597668
0.0595861
0.0592068
0.0589596
0.0585469
0.0582136
0.0577519
0.0573216
0.0568034
0.107868
0.102389
0.098337
0.0940552
0.090963
0.087565
0.0851874
0.0824616
0.0806288
0.0784263
0.0770163
0.0752282
0.0741505
0.0726948
0.0718801
0.0706927
0.0700861
0.0691159
0.0686725
0.0678771
0.0675588
0.0669021
0.0666758
0.0661263
0.065962
0.0654913
0.0653609
0.0649428
0.0648196
0.0644293
0.0642867
0.0639004
0.0637123
0.0633075
0.063048
0.0626028
0.0622479
0.06174
0.0612701
0.0606794
0.114695
0.108869
0.10456
0.100007
0.0967196
0.0931062
0.0905782
0.0876796
0.0857308
0.0833885
0.0818893
0.0799877
0.0788419
0.0772937
0.0764276
0.0751648
0.07452
0.0734883
0.0730171
0.0721713
0.0718335
0.0711354
0.0708957
0.0703118
0.0701384
0.0696388
0.0695021
0.0690588
0.0689304
0.0685168
0.0683686
0.0679591
0.0677628
0.067332
0.0670591
0.0665809
0.0662023
0.0656478
0.0651348
0.0644721
0.121377
0.115212
0.110653
0.105835
0.102356
0.0985331
0.0958581
0.0927913
0.0907293
0.0882513
0.0866651
0.0846534
0.0834412
0.0818036
0.0808875
0.079552
0.0788702
0.0777793
0.0772814
0.0763875
0.0760308
0.0752934
0.0750409
0.0744247
0.0742429
0.073716
0.0735736
0.0731065
0.0729735
0.0725379
0.0723847
0.0719526
0.0717492
0.0712924
0.0710075
0.0704958
0.0700957
0.0694929
0.0689397
0.0681991
0.127951
0.121452
0.116646
0.111567
0.1079
0.103869
0.101049
0.0978161
0.0956424
0.0930299
0.0913578
0.0892369
0.0879591
0.0862325
0.0852669
0.0838589
0.0831403
0.0819902
0.0814656
0.0805233
0.0801479
0.0793708
0.0791055
0.0784562
0.0782657
0.0777109
0.0775624
0.0770707
0.0769327
0.076474
0.076315
0.0758595
0.0756474
0.0751641
0.074865
0.0743196
0.0738951
0.0732456
0.0726489
0.0718389
0.134366
0.127541
0.122495
0.117162
0.113311
0.109079
0.106118
0.102723
0.100441
0.0976983
0.0959428
0.0937163
0.0923748
0.0905625
0.0895488
0.0880712
0.0873171
0.0861103
0.0855602
0.0845717
0.0841784
0.0833635
0.083086
0.0824056
0.082207
0.0816257
0.0814716
0.0809566
0.0808137
0.080333
0.0801683
0.0796899
0.0794695
0.0789598
0.0786472
0.0780684
0.0776217
0.0769263
0.0762921
0.0754108
0.140659
0.133515
0.128232
0.122649
0.118618
0.114187
0.111088
0.107534
0.105145
0.102273
0.100435
0.0981041
0.0966998
0.0948023
0.0937413
0.0921942
0.0914051
0.0901416
0.089566
0.0885311
0.0881199
0.0872669
0.0869771
0.0862649
0.0860578
0.0854495
0.0852891
0.0847499
0.0846014
0.0840977
0.0839262
0.0834238
0.0831932
0.0826562
0.0823276
0.081715
0.0812424
0.0805032
0.0798273
0.0788878
0.146779
0.139325
0.133812
0.127987
0.12378
0.119158
0.115924
0.112216
0.109723
0.106727
0.10481
0.102378
0.100913
0.0989336
0.0978269
0.0962133
0.0953904
0.0940729
0.0934728
0.092394
0.0919655
0.0910765
0.0907749
0.0900328
0.0898176
0.0891837
0.0890174
0.0884553
0.0883011
0.0877752
0.0875966
0.0870709
0.0868296
0.0862657
0.0859207
0.0852751
0.0847779
0.0839973
0.0832862
0.0822936
0.152765
0.145006
0.139269
0.133206
0.128828
0.124016
0.12065
0.116791
0.114196
0.111078
0.109082
0.106551
0.105026
0.102966
0.101814
0.100135
0.0992785
0.097907
0.0972828
0.0961598
0.0957142
0.0947887
0.0944753
0.0937026
0.0934792
0.092819
0.0926462
0.0920603
0.0918999
0.091351
0.0911643
0.0906143
0.0903612
0.0897695
0.0894064
0.0887274
0.0882034
0.0873823
0.0866337
0.085596
0.158563
0.150511
0.144556
0.138264
0.13372
0.128726
0.125232
0.121227
0.118534
0.115298
0.113227
0.110601
0.109019
0.106881
0.105686
0.103943
0.103055
0.101632
0.100985
0.09982
0.0993581
0.0983983
0.0980735
0.0972722
0.0970408
0.0963559
0.0961767
0.0955685
0.0954015
0.0948307
0.0946356
0.0940622
0.0937965
0.093178
0.0927957
0.0920845
0.0915324
0.0906729
0.0898858
0.0888102
0.164216
0.155876
0.149709
0.143192
0.138486
0.133314
0.129696
0.125547
0.122759
0.119407
0.117262
0.114542
0.112903
0.110689