/*--------------------------------*- C++ -*----------------------------------*\
| =========                 |                                                 |
| \\      /  F ield         | foam-extend: Open Source CFD                    |
|  \\    /   O peration     | Version:  3.0                                   |
|   \\  /    A nd           | Web:         http://www.extend-project.de       |
|    \\/     M anipulation  |                                                 |
\*---------------------------------------------------------------------------*/
FoamFile
{
    version     2.0;
    format      ascii;
    class       volVectorField;
    location    "28";
    object      u;
}
// * * * * * * * * * * * * * * * * * * * * * * * * * * * * * * * * * * * * * //

dimensions      [0 0 0 0 0 0 0];

internalField   nonuniform List<vector> 
7680
(
(0.109067 -0.0315864 3.64961e-17)
(0.166932 -0.0264553 3.99195e-17)
(0.323558 -0.0244324 -2.84178e-17)
(0.360234 -0.0202905 2.73992e-17)
(0.478149 -0.0189624 -1.02624e-17)
(0.501692 -0.0158474 1.45294e-17)
(0.593241 -0.0148047 -3.86944e-18)
(0.607623 -0.0124628 -1.03724e-17)
(0.680953 -0.0115959 -1.51353e-17)
(0.68865 -0.00978482 -1.49614e-17)
(0.749009 -0.00905731 -1.23406e-17)
(0.751756 -0.00761514 1.82205e-17)
(0.802604 -0.00699529 -2.57922e-17)
(0.801617 -0.00582568 1.76231e-17)
(0.845343 -0.00527954 -6.2535e-18)
(0.841456 -0.00432191 3.05671e-17)
(0.879777 -0.00381987 -2.68667e-17)
(0.873552 -0.00303147 4.51645e-17)
(0.907741 -0.00255123 -2.72449e-17)
(0.899555 -0.00189942 2.83487e-17)
(0.930577 -0.00142533 -2.84401e-17)
(0.920676 -0.000884444 2.77589e-17)
(0.949282 -0.000405721 -2.46466e-17)
(0.937821 4.46032e-05 4.13821e-17)
(0.964604 0.000535785 -3.17392e-17)
(0.951671 0.000911147 3.1133e-17)
(0.977112 0.00142203 -1.3661e-17)
(0.962744 0.00173209 2.14104e-17)
(0.987246 0.00227391 -1.60807e-17)
(0.971426 0.0025171 8.80128e-18)
(0.99536 0.00311474 -8.06903e-18)
(0.977987 0.00326693 5.59247e-18)
(1.00177 0.00397133 -6.97161e-18)
(0.982568 0.00398823 3.34348e-18)
(1.0068 0.00482097 5.23942e-18)
(0.985215 0.00479993 -3.50917e-18)
(1.01071 0.00563439 1.1833e-17)
(0.986054 0.00480344 -1.34807e-17)
(1.01342 0.0103469 1.26919e-17)
(0.985596 -0.00208994 -1.53975e-17)
(0.113349 -0.0971038 -4.93165e-17)
(0.170483 -0.0816091 -6.44275e-17)
(0.3269 -0.0758129 2.56922e-17)
(0.363022 -0.0636857 -3.47587e-17)
(0.480793 -0.0597882 -1.82277e-17)
(0.50393 -0.0507477 5.91043e-18)
(0.595362 -0.0476906 6.96843e-18)
(0.609443 -0.0409507 3.13235e-17)
(0.682675 -0.0384499 4.36803e-17)
(0.690143 -0.0333068 4.67251e-17)
(0.75042 -0.03125 1.17058e-17)
(0.752986 -0.0272227 -5.48372e-20)
(0.803764 -0.0255093 1.65609e-17)
(0.802633 -0.0222969 -5.828e-19)
(0.846297 -0.0208297 -2.90482e-17)
(0.842295 -0.0182413 -3.26227e-17)
(0.880559 -0.0169375 3.91919e-17)
(0.874244 -0.0148447 -8.25094e-17)
(0.908377 -0.013639 6.54107e-17)
(0.900121 -0.0119497 -6.92297e-17)
(0.93109 -0.0107922 4.79423e-17)
(0.921133 -0.00943752 -5.45504e-17)
(0.949687 -0.00829075 3.73543e-17)
(0.938182 -0.0072176 -7.67444e-17)
(0.964914 -0.00605275 3.96335e-17)
(0.951946 -0.005221 -4.44666e-17)
(0.977336 -0.00401317 2.89606e-18)
(0.962941 -0.00339715 -2.52551e-17)
(0.987391 -0.00211439 -1.75976e-18)
(0.971551 -0.00171631 1.25719e-18)
(0.995428 -0.000292622 6.97839e-19)
(0.978047 -0.00017746 4.81551e-18)
(1.00177 0.00153121 7.35103e-18)
(0.982571 0.00121021 -1.06406e-17)
(1.00672 0.00337819 3.02317e-18)
(0.985163 0.00258363 -1.48626e-17)
(1.01055 0.00517754 2.31399e-17)
(0.985973 0.00318476 -4.35289e-18)
(1.01307 0.01068 -6.55088e-18)
(0.9857 -0.00283227 3.60514e-17)
(0.121841 -0.162208 5.89695e-17)
(0.177702 -0.136505 5.71407e-17)
(0.333565 -0.126832 -5.55038e-17)
(0.368667 -0.106786 8.64773e-17)
(0.486069 -0.100316 4.85132e-18)
(0.50844 -0.0853944 -2.0223e-17)
(0.599587 -0.0803595 -4.22963e-17)
(0.613099 -0.0692584 -1.85733e-17)
(0.686104 -0.0651554 -8.32266e-17)
(0.693139 -0.0566966 -7.09557e-17)
(0.753231 -0.0533349 -2.15962e-17)
(0.755462 -0.0467222 -7.32342e-18)
(0.806089 -0.0439343 -6.91521e-18)
(0.804693 -0.0386784 -1.33618e-17)
(0.848229 -0.0362999 6.84687e-17)
(0.844016 -0.0320895 5.09979e-17)
(0.882168 -0.0299824 -4.00712e-17)
(0.875685 -0.026603 1.16828e-16)
(0.909717 -0.0246616 -1.07498e-16)
(0.901325 -0.0219569 8.799e-17)
(0.932199 -0.0201024 -5.62722e-17)
(0.922135 -0.017955 9.05357e-17)
(0.950596 -0.0161283 -6.78612e-17)
(0.939006 -0.0144489 1.1755e-16)
(0.965645 -0.0126037 -4.21018e-17)
(0.952614 -0.0113257 8.29487e-17)
(0.977907 -0.00942086 -1.38863e-17)
(0.963468 -0.0085019 4.53771e-17)
(0.987814 -0.00648489 6.2121e-18)
(0.971952 -0.00592842 -1.74128e-18)
(0.995713 -0.00369113 -5.036e-18)
(0.978335 -0.00360437 1.04857e-17)
(1.00191 -0.000908377 -5.10375e-18)
(0.98276 -0.00155475 5.80678e-18)
(1.00672 0.00192842 -8.82101e-19)
(0.985263 0.000375828 -6.79625e-18)
(1.01042 0.00470814 4.77223e-18)
(0.986004 0.00157139 -1.6e-17)
(1.01269 0.0109932 1.87621e-17)
(0.985856 -0.00356479 -2.89607e-17)
(0.134648 -0.226605 -3.66693e-17)
(0.188414 -0.190734 -1.15124e-16)
(0.343567 -0.177328 2.03665e-16)
(0.377082 -0.149441 -2.2991e-16)
(0.494005 -0.140437 5.25452e-17)
(0.515205 -0.119697 3.413e-17)
(0.605977 -0.112678 7.17674e-17)
(0.618619 -0.0972586 3.17125e-17)
(0.691315 -0.0915481 4.10998e-17)
(0.697688 -0.0798176 5.60728e-17)
(0.757528 -0.0751488 8.0689e-17)
(0.75924 -0.065998 -2.63636e-17)
(0.809658 -0.0621348 5.90486e-18)
(0.80785 -0.0548737 1.61428e-17)
(0.851209 -0.0515891 -8.8238e-17)
(0.846666 -0.0457783 2.70272e-18)
(0.884662 -0.0428819 -9.47486e-18)
(0.877913 -0.0382226 -1.171e-16)
(0.911801 -0.0355666 1.40742e-16)
(0.903199 -0.0318439 -1.21269e-16)
(0.933934 -0.0293164 6.69209e-17)
(0.923705 -0.0263702 -1.13085e-16)
(0.952029 -0.0238863 6.90396e-17)
(0.940314 -0.0215953 -8.48118e-17)
(0.966814 -0.0190883 -1.28939e-17)
(0.953689 -0.0173616 -5.78867e-17)
(0.978839 -0.0147731 -2.59641e-17)
(0.964334 -0.0135528 -1.63043e-17)
(0.988531 -0.0108093 -3.92813e-17)
(0.972631 -0.0100997 2.14478e-17)
(0.996226 -0.00705214 6.13488e-18)
(0.978845 -0.00700095 -1.12925e-17)
(1.00222 -0.00331898 -3.91078e-17)
(0.983126 -0.00429716 1.01455e-16)
(1.00683 0.000498095 -7.43914e-17)
(0.985501 -0.00181547 3.80777e-17)
(1.01032 0.00424674 2.90281e-17)
(0.986134 -3.14159e-05 -2.63675e-17)
(1.0123 0.0112989 1.52216e-17)
(0.986055 -0.00429044 -2.19719e-17)
(0.151563 -0.290038 1.6979e-17)
(0.202732 -0.244201 3.5215e-17)
(0.356844 -0.227045 -3.43559e-16)
(0.388307 -0.191436 3.36666e-16)
(0.504532 -0.179935 -6.24792e-17)
(0.524201 -0.153461 -1.0049e-16)
(0.614433 -0.144518 -1.17758e-16)
(0.625938 -0.124846 1.67686e-18)
(0.6982 -0.117576 -1.52953e-17)
(0.703711 -0.102612 -3.57193e-17)
(0.763196 -0.096673 -9.55801e-17)
(0.76424 -0.0850015 9.46817e-18)
(0.814365 -0.0800922 5.59463e-17)
(0.81203 -0.0708385 -4.39652e-17)
(0.855139 -0.0666674 1.16967e-16)
(0.850179 -0.0592742 -8.21304e-17)
(0.887953 -0.0555972 7.39328e-17)
(0.880874 -0.0496823 1.55156e-17)
(0.914561 -0.0463119 -3.87003e-17)
(0.905695 -0.0415981 3.56484e-17)
(0.936242 -0.0383939 2.03939e-17)
(0.925806 -0.0346742 1.25295e-16)
(0.953947 -0.0315294 -6.87566e-17)
(0.942071 -0.0286475 5.27605e-17)
(0.968389 -0.0254782 5.22131e-17)
(0.955144 -0.0233173 5.97034e-17)
(0.980108 -0.0200494 5.04762e-18)
(0.965521 -0.0185352 1.3813e-17)
(0.989519 -0.0150756 9.15631e-17)
(0.973575 -0.0142133 -3.39903e-17)
(0.996949 -0.0103723 2.7262e-17)
(0.979575 -0.0103504 1.94714e-17)
(1.00268 -0.00570606 -4.75345e-17)
(0.983672 -0.00700252 3.30995e-17)
(1.00702 -0.000925802 -3.85376e-18)
(0.985884 -0.00397906 -2.40922e-17)
(1.01024 0.00377688 -8.73687e-18)
(0.986373 -0.00161507 -3.23952e-17)
(1.01187 0.0115816 3.35773e-17)
(0.986306 -0.00499944 3.52561e-17)
(0.172661 -0.352214 2.92768e-17)
(0.22044 -0.296578 9.65166e-17)
(0.373344 -0.275793 3.84352e-16)
(0.402218 -0.23262 -2.68829e-16)
(0.517632 -0.218665 4.14191e-17)
(0.535383 -0.186576 1.31139e-16)
(0.624983 -0.175717 1.71948e-16)
(0.635063 -0.15188 -4.64459e-17)
(0.706809 -0.143057 -1.65216e-17)
(0.711236 -0.124938 1.27506e-17)
(0.770301 -0.117737 2.34316e-16)
(0.770498 -0.103616 -1.0613e-16)
(0.820277 -0.0976688 6.46604e-17)
(0.81727 -0.0864805 -1.00105e-16)
(0.860088 -0.0814341 -4.7808e-17)
(0.85459 -0.0724977 -6.79404e-17)
(0.892109 -0.0680574 1.30825e-16)
(0.884598 -0.0609092 -1.20053e-16)
(0.918052 -0.0568472 1.17366e-16)
(0.908844 -0.0511532 -5.47776e-17)
(0.939167 -0.0472973 -5.41994e-19)
(0.928462 -0.0428088 -1.42762e-16)
(0.956382 -0.0390281 3.76015e-17)
(0.9443 -0.0355573 2.78627e-17)
(0.970394 -0.0317486 -1.25457e-16)
(0.956997 -0.0291552 2.24436e-17)
(0.98173 -0.0252276 -5.65182e-17)
(0.967038 -0.0234222 -5.40659e-18)
(0.990792 -0.0192623 -1.09694e-16)
(0.974791 -0.0182512 -9.02569e-18)
(0.997895 -0.0136295 -1.0394e-16)
(0.980524 -0.0136408 5.12227e-17)
(1.00331 -0.00804613 -8.65693e-17)
(0.984392 -0.00966225 8.55123e-17)
(1.00731 -0.00231985 -1.53779e-16)
(0.986404 -0.00610821 7.61187e-17)
(1.0102 0.00331799 2.63017e-17)
(0.986709 -0.00317559 -4.45138e-17)
(1.01144 0.0118537 -1.833e-17)
(0.986599 -0.0056961 -3.36891e-17)
(0.197717 -0.412889 -2.16525e-17)
(0.241602 -0.347703 -2.21328e-16)
(0.393001 -0.323354 -2.57685e-16)
(0.418827 -0.272793 1.05199e-16)
(0.53323 -0.256455 -5.12158e-18)
(0.548712 -0.218881 1.17751e-17)
(0.637527 -0.206182 -1.93538e-16)
(0.645925 -0.178274 1.14224e-16)
(0.717035 -0.16796 5.29724e-17)
(0.720187 -0.146746 -9.38055e-17)
(0.778734 -0.13833 -2.02536e-16)
(0.777941 -0.121798 4.9057e-17)
(0.827291 -0.11485 3.2456e-17)
(0.823503 -0.101756 1.64039e-16)
(0.865955 -0.0958624 3.85366e-17)
(0.859837 -0.0854112 -7.00094e-19)
(0.897034 -0.0802261 -5.47483e-17)
(0.889031 -0.071875 -3.96691e-18)
(0.92219 -0.0671321 -7.29629e-17)
(0.912592 -0.0604878 -1.20596e-17)
(0.942639 -0.0559872 -2.12487e-17)
(0.931627 -0.0507569 6.06143e-17)
(0.95928 -0.0463461 2.90898e-17)
(0.946962 -0.042309 -3.6131e-17)
(0.972788 -0.037868 7.39639e-17)
(0.959216 -0.0348592 -7.12794e-17)
(0.983674 -0.0302824 9.88647e-17)
(0.968863 -0.0281967 -6.67911e-17)
(0.992326 -0.0233517 2.02823e-16)
(0.976262 -0.022196 -4.21105e-17)
(0.999042 -0.016815 2.45563e-16)
(0.981681 -0.0168558 -5.91504e-17)
(1.00407 -0.0103402 4.31518e-17)
(0.985283 -0.0122621 6.30679e-18)
(1.00768 -0.00369356 8.21393e-17)
(0.987064 -0.00819081 -5.35126e-17)
(1.01019 0.00285583 4.03175e-17)
(0.98715 -0.0047024 -6.85671e-17)
(1.01098 0.0121008 1.74803e-16)
(0.986941 -0.00636936 -2.93481e-17)
(0.226742 -0.47178 1.29364e-16)
(0.266007 -0.39733 8.32454e-17)
(0.415719 -0.369524 3.11813e-16)
(0.437994 -0.311801 1.08537e-16)
(0.551266 -0.293133 -3.80972e-17)
(0.564115 -0.250244 -2.47915e-16)
(0.652052 -0.235729 1.98674e-16)
(0.658493 -0.20388 -2.21053e-16)
(0.72889 -0.192096 2.37759e-17)
(0.730553 -0.167896 -2.10973e-17)
(0.78852 -0.158285 2.5597e-16)
(0.786566 -0.139434 -2.75837e-16)
(0.835439 -0.131504 9.88863e-17)
(0.830732 -0.116577 -3.33574e-16)
(0.872782 -0.109855 4.09745e-17)
(0.865928 -0.0979433 -9.12939e-17)
(0.902774 -0.0920342 1.30177e-16)
(0.894183 -0.0825171 -1.24712e-16)
(0.92702 -0.0771176 1.30216e-16)
(0.916955 -0.0695476 1.4235e-17)
(0.946696 -0.0644279 -2.61844e-17)
(0.935318 -0.0584721 -2.60627e-18)
(0.962669 -0.0534575 -5.151e-17)
(0.95007 -0.0488647 8.71329e-17)
(0.975592 -0.0438171 -5.14158e-17)
(0.961813 -0.0403998 1.22195e-17)
(0.985956 -0.035198 -6.32556e-17)
(0.971002 -0.0328366 9.95874e-17)
(0.994132 -0.0273291 -3.29415e-16)
(0.977992 -0.0260319 1.81861e-17)
(1.0004 -0.0199127 -2.00905e-16)
(0.983049 -0.0199842 4.19146e-17)
(1.00499 -0.0125701 1.9635e-17)
(0.986341 -0.0147942 -3.15733e-17)
(1.00815 -0.00502804 -5.27866e-17)
(0.987855 -0.0102219 6.48508e-17)
(1.0102 0.00240662 3.16373e-17)
(0.987684 -0.00619439 -3.15279e-17)
(1.01051 0.012334 5.31446e-19)
(0.987323 -0.00702508 -1.92939e-16)
(0.25951 -0.528659 -1.32359e-16)
(0.293648 -0.445242 -1.19651e-16)
(0.441417 -0.414114 -2.74902e-16)
(0.459703 -0.349463 -4.97409e-16)
(0.571666 -0.328568 -2.41306e-17)
(0.58155 -0.280535 4.20628e-16)
(0.668469 -0.264296 -1.36795e-16)
(0.672712 -0.228628 2.7099e-16)
(0.742285 -0.215446 7.05688e-17)
(0.742281 -0.188343 -1.18191e-16)
(0.799574 -0.177594 -7.01715e-17)
(0.796325 -0.156482 2.20699e-16)
(0.844641 -0.147615 -1.06696e-17)
(0.838911 -0.130901 2.45974e-16)
(0.880488 -0.123386 1.81989e-16)
(0.872822 -0.110053 -1.04733e-16)
(0.90925 -0.103448 1.3815e-16)
(0.900013 -0.0928017 -8.03601e-17)
(0.93247 -0.0867661 9.31262e-17)
(0.921892 -0.0783035 -3.63003e-17)
(0.951274 -0.0725816 -2.26414e-17)
(0.939495 -0.0659289 4.32603e-17)
(0.966497 -0.0603256 -5.69388e-17)
(0.95359 -0.0552008 -3.49353e-17)
(0.978763 -0.0495621 2.07253e-17)
(0.964756 -0.0457551 2.82677e-17)
(0.988541 -0.0399455 -7.65194e-17)
(0.973433 -0.0373219 2.57411e-16)
(0.996184 -0.0311725 3.95341e-18)
(0.979962 -0.0297407 1.90031e-16)
(1.00195 -0.0229097 5.10637e-17)
(0.984613 -0.0230101 -4.72407e-17)
(1.00604 -0.0147323 3.98423e-17)
(0.98756 -0.0172443 -7.06227e-17)
(1.00869 -0.00632841 4.65324e-17)
(0.988777 -0.0121883 -5.04914e-17)
(1.01024 0.00195974 2.58961e-17)
(0.988316 -0.00763883 -1.77232e-16)
(1.01001 0.0125406 3.24277e-16)
(0.987751 -0.00765101 -1.08734e-16)
(0.295965 -0.583259 4.00437e-16)
(0.324332 -0.491264 1.61103e-16)
(0.469967 -0.456918 3.92811e-16)
(0.483799 -0.38563 7.4561e-16)
(0.594333 -0.362569 2.35311e-16)
(0.600911 -0.309611 -4.53916e-16)
(0.686721 -0.291689 5.4252e-17)
(0.688509 -0.252371 -3.57362e-16)
(0.757182 -0.237826 -1.82057e-16)
(0.755312 -0.207957 3.03546e-16)
(0.811873 -0.1961 2.41359e-17)
(0.80717 -0.172839 -1.30204e-16)
(0.854886 -0.163061 8.37634e-17)
(0.848004 -0.144649 -3.34795e-16)
(0.889074 -0.136365 -6.03741e-17)
(0.880489 -0.12168 1.61373e-17)
(0.916473 -0.114402 -1.30073e-16)
(0.906502 -0.102677 -2.98286e-17)
(0.938554 -0.0960314 -6.84886e-17)
(0.927394 -0.0867128 5.87319e-17)
(0.956391 -0.0804156 4.80397e-17)
(0.944155 -0.0730924 1.7712e-17)
(0.97078 -0.066928 3.59563e-17)
(0.957522 -0.0612899 9.40679e-17)
(0.982314 -0.055088 -1.71225e-16)
(0.968048 -0.0509034 2.48271e-16)
(0.991441 -0.0445144 -1.49232e-16)
(0.976156 -0.0416355 -4.16507e-18)
(0.998491 -0.0348725 -2.5838e-16)
(0.982175 -0.0333094 1.23882e-16)
(1.0037 -0.0257952 -1.96929e-16)
(0.986373 -0.0259236 2.07953e-16)
(1.00724 -0.0168142 -2.53324e-16)
(0.988936 -0.0196061 3.26944e-16)
(1.00932 -0.00758099 -2.79913e-16)
(0.989822 -0.0140872 1.90315e-16)
(1.01032 0.00152734 -1.02812e-16)
(0.989037 -0.00903711 5.54212e-17)
(1.0095 0.0127299 -5.45503e-17)
(0.988216 -0.00825426 -2.49824e-16)
(0.335882 -0.635367 -7.59528e-16)
(0.35798 -0.53515 -4.26203e-16)
(0.50126 -0.497771 -3.25851e-16)
(0.510234 -0.420136 -8.97482e-16)
(0.619182 -0.395039 -2.81243e-16)
(0.622151 -0.337368 2.44136e-16)
(0.706728 -0.317866 -3.57872e-17)
(0.705839 -0.275048 4.54925e-16)
(0.773512 -0.259222 2.79435e-16)
(0.76961 -0.226693 -3.39515e-16)
(0.825356 -0.213793 -1.18994e-16)
(0.819074 -0.188461 -8.42704e-17)
(0.866116 -0.177825 2.73215e-18)
(0.857986 -0.157776 1.18382e-16)
(0.898484 -0.148767 9.84454e-17)
(0.888907 -0.13278 -2.11618e-17)
(0.924388 -0.124866 1.64979e-16)
(0.913627 -0.112105 1.96435e-17)
(0.94522 -0.104879 2.24819e-16)
(0.933434 -0.0947412 -2.29347e-16)
(0.961998 -0.0878941 1.97288e-17)
(0.949271 -0.0799313 -8.81182e-17)
(0.975473 -0.0732294 -4.03294e-17)
(0.961839 -0.0671032 -8.27403e-18)
(0.986208 -0.0603612 -1.16231e-16)
(0.971664 -0.0558193 1.01282e-16)
(0.994622 -0.0488743 -2.14756e-16)
(0.979148 -0.0457557 3.36568e-16)
(1.00102 -0.0384049 -1.47272e-16)
(0.98461 -0.0367194 -1.08365e-17)
(1.00563 -0.028553 3.22935e-17)
(0.988316 -0.028709 -2.08559e-18)
(1.00857 -0.0188083 -3.41947e-17)
(0.990461 -0.0218651 1.34084e-17)
(1.01003 -0.00878644 -2.27912e-17)
(0.990988 -0.0159045 3.43194e-17)
(1.01041 0.00110267 7.82827e-17)
(0.989848 -0.0103753 -1.37997e-16)
(1.00898 0.0128914 2.95291e-16)
(0.988724 -0.00882216 -4.00698e-17)
(0.379146 -0.684742 6.58325e-16)
(0.394414 -0.576775 4.1936e-16)
(0.535156 -0.536477 2.95621e-16)
(0.538847 -0.452842 7.30713e-16)
(0.646093 -0.425784 1.44717e-16)
(0.64514 -0.363662 1.79524e-16)
(0.728398 -0.342638 -9.25477e-17)
(0.724596 -0.296521 -2.25621e-16)
(0.791199 -0.279464 -3.80058e-16)
(0.785086 -0.244435 3.59969e-16)
(0.839961 -0.230534 -9.57772e-18)
(0.831957 -0.20326 3.86057e-16)
(0.878283 -0.1918 -6.22884e-17)
(0.868791 -0.170217 5.66489e-17)
(0.908684 -0.160511 5.17802e-17)
(0.89802 -0.143302 8.70923e-17)
(0.932972 -0.13478 -2.12779e-16)
(0.921343 -0.121045 4.77467e-17)
(0.952454 -0.113265 -1.98314e-16)
(0.93998 -0.102356 3.11595e-16)
(0.968087 -0.0949873 -7.19884e-17)
(0.95482 -0.0864202 7.75054e-17)
(0.980575 -0.0792099 4.25188e-17)
(0.966527 -0.0726211 1.83985e-16)
(0.990445 -0.0653693 -1.75504e-16)
(0.975596 -0.0604873 1.96446e-16)
(0.998088 -0.0530183 -1.29239e-16)
(0.982406 -0.0496695 1.61597e-18)
(1.00379 -0.0417645 -1.20613e-16)
(0.987264 -0.0399603 1.78224e-16)
(1.00773 -0.0311773 -1.35691e-16)
(0.990437 -0.0313584 1.81238e-17)
(1.01002 -0.020707 1.08034e-17)
(0.992128 -0.0240167 1.87658e-16)
(1.01081 -0.00993623 -3.02738e-16)
(0.992267 -0.0176393 1.8444e-16)
(1.01053 0.000693885 -1.59245e-16)
(0.990741 -0.0116564 9.84023e-17)
(1.00844 0.0130323 -2.44637e-16)
(0.989265 -0.00936224 -1.44097e-16)
(0.425525 -0.731189 -1.21075e-16)
(0.433498 -0.615889 -2.03505e-16)
(0.571509 -0.572896 -2.59165e-16)
(0.569555 -0.483603 -4.52469e-16)
(0.674964 -0.454733 -2.95964e-16)
(0.669819 -0.388407 -3.84247e-16)
(0.751648 -0.365977 1.02909e-16)
(0.744737 -0.316739 1.31861e-16)
(0.810182 -0.298541 9.17674e-17)
(0.801707 -0.26114 9.89893e-18)
(0.855639 -0.24631 -6.97122e-17)
(0.845797 -0.217189 -4.72898e-16)
(0.891344 -0.204966 -6.43612e-17)
(0.880401 -0.181923 -2.98327e-16)
(0.919634 -0.171573 -5.88085e-17)
(0.907815 -0.153202 -3.41633e-16)
(0.942186 -0.144114 3.01732e-16)
(0.929638 -0.129456 -3.00468e-16)
(0.960219 -0.12116 2.7005e-16)
(0.947016 -0.10952 -4.71014e-16)
(0.974622 -0.101663 1.3522e-16)
(0.960785 -0.0925255 -1.21245e-16)
(0.986051 -0.0848377 -6.3859e-17)
(0.971565 -0.0778132 -6.84561e-18)
(0.994992 -0.0700814 -8.52141e-17)
(0.979821 -0.0648806 2.55944e-16)
(1.00181 -0.0569171 -1.98695e-16)
(0.985909 -0.0533547 2.05362e-16)
(1.00676 -0.0449264 5.07204e-17)
(0.99012 -0.0430138 -7.09914e-17)
(1.01 -0.0336496 1.18937e-16)
(0.992723 -0.0338564 -4.80055e-18)
(1.01159 -0.0224997 -5.09457e-17)
(0.99393 -0.0260469 -8.57119e-17)
(1.01166 -0.011027 2.91582e-16)
(0.993655 -0.0192774 -2.879e-16)
(1.01068 0.000297798 2.68422e-16)
(0.991714 -0.0128665 -2.47835e-16)
(1.00789 0.0131445 3.38629e-16)
(0.989843 -0.00986235 3.29991e-17)
(0.474861 -0.774493 -9.99621e-18)
(0.475054 -0.652401 1.46028e-16)
(0.61017 -0.60684 1.82317e-16)
(0.602194 -0.51229 3.16541e-16)
(0.70566 -0.481696 4.57182e-16)
(0.696044 -0.411472 3.28361e-16)
(0.776366 -0.387705 -8.52948e-18)
(0.766136 -0.335577 1.63872e-16)
(0.830358 -0.316298 -6.19695e-17)
(0.819364 -0.276707 -2.31964e-19)
(0.872301 -0.260998 6.64544e-17)
(0.860499 -0.230176 4.44998e-16)
(0.905228 -0.217229 3.28995e-16)
(0.892733 -0.192842 4.32073e-16)
(0.931275 -0.181881 4.21539e-17)
(0.918219 -0.162441 5.25669e-16)
(0.951986 -0.152818 -4.45994e-16)
(0.938451 -0.137307 5.52858e-16)
(0.968481 -0.128526 -2.13582e-16)
(0.954494 -0.11621 4.01485e-16)
(0.981579 -0.107895 -9.68821e-17)
(0.967128 -0.0982285 1.22101e-16)
(0.991883 -0.0900942 -8.80177e-17)
(0.976927 -0.0826657 9.27691e-17)
(0.999841 -0.0744862 1.83122e-17)
(0.984322 -0.0689885 -2.68004e-16)
(1.00578 -0.0605654 2.38447e-16)
(0.989644 -0.0568021 -2.62439e-16)
(1.00993 -0.0478883 5.67178e-17)
(0.99317 -0.045872 -1.65941e-16)
(1.01242 -0.0359682 8.13949e-17)
(0.995166 -0.036197 -2.05136e-16)
(1.01328 -0.0241834 1.6017e-16)
(0.995859 -0.0279523 1.2439e-17)
(1.01259 -0.012055 -1.41924e-16)
(0.995145 -0.020819 2.73803e-16)
(1.01084 -8.11517e-05 -2.2359e-16)
(0.992761 -0.0140091 1.94205e-16)
(1.00734 0.0132332 -1.35346e-16)
(0.990452 -0.0103296 -2.23588e-16)
(0.526905 -0.814486 -4.24026e-16)
(0.518908 -0.686076 4.80981e-17)
(0.650959 -0.638203 -2.93321e-16)
(0.63665 -0.538777 -2.06862e-16)
(0.738057 -0.506629 -3.9191e-16)
(0.723737 -0.432782 -2.99444e-16)
(0.80246 -0.407806 -1.92301e-16)
(0.788739 -0.352989 -1.1548e-16)
(0.851665 -0.33273 -4.73744e-16)
(0.838021 -0.291095 2.85281e-16)
(0.889901 -0.274589 -3.05472e-16)
(0.876037 -0.242176 -2.35308e-16)
(0.919895 -0.228573 -7.08011e-16)
(0.90577 -0.202929 -4.0864e-16)
(0.943574 -0.191413 -2.19996e-16)
(0.92922 -0.170973 -2.31004e-16)
(0.962339 -0.160865 3.44795e-16)
(0.947771 -0.144558 -4.94106e-16)
(0.977209 -0.135334 3.57966e-16)
(0.962404 -0.122389 -4.78815e-16)
(0.988929 -0.113655 2.49122e-16)
(0.973837 -0.103497 -2.14636e-16)
(0.998046 -0.0949527 1.59389e-16)
(0.982598 -0.0871487 -8.85965e-17)
(1.00496 -0.0785574 6.96084e-17)
(0.989082 -0.072785 8.17235e-17)
(1.00998 -0.0639373 1.58226e-17)
(0.993595 -0.0599902 7.16504e-18)
(1.01329 -0.0506267 1.86289e-16)
(0.996396 -0.0485176 -2.81207e-17)
(1.01499 -0.0381139 1.41839e-16)
(0.997754 -0.0383658 -8.74669e-17)
(1.01506 -0.025745 1.65294e-16)
(0.997905 -0.0297197 -1.58275e-16)
(1.01357 -0.0130136 1.40884e-16)
(0.996728 -0.022251 -1.85178e-16)
(1.01103 -0.000442963 7.21308e-17)
(0.993879 -0.0150715 -1.39248e-16)
(1.00676 0.0132925 1.23423e-17)
(0.991092 -0.0107533 1.99598e-17)
(0.58147 -0.850978 5.8411e-16)
(0.564871 -0.716849 -4.61552e-17)
(0.693723 -0.666805 1.76214e-16)
(0.672755 -0.562956 3.80031e-16)
(0.772012 -0.52935 2.18487e-16)
(0.75275 -0.452223 4.91935e-16)
(0.829803 -0.426118 8.59392e-17)
(0.812414 -0.368871 2.83553e-16)
(0.873987 -0.347698 3.87258e-16)
(0.857558 -0.304221 -1.15209e-16)
(0.908338 -0.286973 1.10829e-16)
(0.892306 -0.253128 3.57657e-16)
(0.935259 -0.238915 6.57676e-16)
(0.919419 -0.21214 5.40547e-16)
(0.956459 -0.200109 2.27679e-16)
(0.940739 -0.178769 6.13375e-17)
(0.973187 -0.168209 -4.05451e-16)
(0.957529 -0.151186 4.4622e-16)
(0.986357 -0.141552 -3.90708e-16)
(0.970687 -0.128039 2.04433e-16)
(0.996635 -0.118918 2.59243e-17)
(0.980865 -0.108317 1.49578e-17)
(1.00451 -0.0993957 6.56307e-17)
(0.988542 -0.091253 -9.58461e-17)
(1.01034 -0.0822841 8.53116e-17)
(0.994075 -0.076263 -2.8223e-16)
(1.01439 -0.067028 1.89348e-16)
(0.997742 -0.0629129 -2.86287e-16)
(1.01682 -0.0531407 4.43566e-17)
(0.999787 -0.0509451 -1.72659e-16)
(1.01769 -0.0400875 1.03863e-16)
(1.00048 -0.0403584 -1.65046e-16)
(1.01695 -0.0271854 1.23343e-16)
(1.00006 -0.0313471 -3.63074e-16)
(1.01461 -0.0139028 3.09393e-16)
(0.9984 -0.023574 -1.449e-16)
(1.01124 -0.000786461 3.95378e-17)
(0.99506 -0.0160568 1.89723e-16)
(1.00619 0.0133256 -8.28257e-17)
(0.991758 -0.0111394 1.84086e-16)
(0.638286 -0.883833 -6.04548e-16)
(0.612746 -0.74451 3.21428e-16)
(0.738253 -0.692577 -5.0042e-16)
(0.71037 -0.584717 -1.64933e-16)
(0.807382 -0.549839 -5.31303e-16)
(0.782983 -0.469733 -2.06375e-16)
(0.858293 -0.442639 -8.46093e-17)
(0.837093 -0.383179 -2.66145e-17)
(0.897252 -0.361205 -6.60057e-16)
(0.877929 -0.316047 4.14167e-16)
(0.927557 -0.298146 -2.40121e-16)
(0.909274 -0.262993 -2.80308e-16)
(0.951277 -0.248243 -5.51265e-16)
(0.933658 -0.220435 -6.62656e-16)
(0.969893 -0.20795 -2.75663e-16)
(0.952756 -0.185788 -8.42502e-18)
(0.984499 -0.174831 3.15321e-16)
(0.967712 -0.157154 -2.86641e-16)
(0.995897 -0.147158 2.02177e-16)
(0.979333 -0.133128 -1.39583e-16)
(1.00467 -0.123664 1.14572e-16)
(0.988201 -0.112658 -1.87593e-16)
(1.01125 -0.103403 3.54458e-17)
(0.994746 -0.0949511 -8.22294e-17)
(1.01595 -0.0856455 2.01652e-16)
(0.999287 -0.0793985 -3.56743e-17)
(1.01898 -0.0698162 1.52805e-16)
(1.00207 -0.0655502 1.31355e-17)
(1.0205 -0.0554098 3.09713e-16)
(1.00333 -0.0531383 -2.02655e-16)
(1.02051 -0.0418711 3.75356e-16)
(1.00332 -0.0421617 -2.65194e-16)
(1.01892 -0.0284907 3.31222e-16)
(1.00231 -0.0328227 -4.73948e-17)
(1.0157 -0.0147142 2.26921e-16)
(1.00015 -0.0247765 -4.51993e-16)
(1.01147 -0.00110911 3.60852e-16)
(0.9963 -0.0169543 -4.08399e-16)
(1.0056 0.0133292 7.29517e-17)
(0.99245 -0.0114791 -6.15589e-17)
(0.697146 -0.912889 6.18839e-16)
(0.662329 -0.769017 -5.18069e-18)
(0.784384 -0.715347 1.10433e-16)
(0.749322 -0.603973 5.51134e-16)
(0.844013 -0.567929 5.72876e-16)
(0.814286 -0.485218 2.50497e-16)
(0.887793 -0.457222 -1.69093e-16)
(0.862639 -0.395832 1.2213e-16)
(0.921337 -0.373128 4.57506e-16)
(0.899012 -0.326507 -3.09337e-16)
(0.947452 -0.308013 2.03999e-16)
(0.926832 -0.271724 2.90247e-16)
(0.967858 -0.256487 4.62665e-16)
(0.948391 -0.227781 4.04329e-16)
(0.9838 -0.214885 4.40016e-16)
(0.965191 -0.192008 -4.54551e-17)
(0.99621 -0.180692 -1.78008e-16)
(0.978249 -0.162446 8.88997e-17)
(1.00577 -0.152122 1.01879e-17)
(0.988278 -0.137642 -4.21289e-17)
(1.01299 -0.127871 7.94714e-17)
(0.995794 -0.116513 -8.92138e-17)
(1.01823 -0.106957 2.33803e-16)
(1.00117 -0.0982377 -3.41327e-16)
(1.02176 -0.088631 1.48918e-16)
(1.00469 -0.082188 -3.18397e-16)
(1.02375 -0.0722971 4.32626e-17)
(1.00656 -0.067899 -2.13092e-16)
(1.02432 -0.0574334 -2.76145e-17)
(1.007 -0.0550945 -1.11478e-16)
(1.02344 -0.0434665 -1.91541e-16)
(1.00627 -0.0437733 8.74898e-17)
(1.02097 -0.0296636 -1.66142e-16)
(1.00466 -0.0341453 -1.98505e-16)
(1.01685 -0.0154502 8.47208e-17)
(1.00197 -0.0258593 2.12199e-16)
(1.01172 -0.00141221 -7.471e-17)
(0.997593 -0.0177667 2.49739e-16)
(1.00502 0.0133041 -1.37339e-16)
(0.993162 -0.0117771 2.04155e-16)
(0.757764 -0.938043 -6.16233e-16)
(0.713405 -0.790192 -3.24495e-16)
(0.831895 -0.735085 -2.21934e-16)
(0.789452 -0.620635 -1.89814e-16)
(0.88175 -0.583625 -9.7388e-16)
(0.846541 -0.498629 -1.10128e-16)
(0.918191 -0.46988 -4.21279e-17)
(0.888969 -0.406794 4.79326e-18)
(0.946161 -0.383479 -3.80433e-16)
(0.920748 -0.335569 2.26394e-16)
(0.967961 -0.316579 1.97302e-17)
(0.944938 -0.279287 -5.14898e-16)
(0.984952 -0.263641 -1.96163e-16)
(0.963586 -0.234142 -2.9587e-16)
(0.998139 -0.220902 -2.37309e-16)
(0.978018 -0.197395 -1.27452e-17)
(1.00829 -0.185776 3.55401e-16)
(0.989121 -0.167029 -2.33896e-16)
(1.01596 -0.15643 2.88327e-16)
(0.99751 -0.141554 -3.70306e-16)
(1.02158 -0.131522 2.25335e-16)
(1.00363 -0.119855 -1.20742e-16)
(1.02544 -0.110044 1.2071e-17)
(1.0078 -0.101088 7.69552e-17)
(1.02775 -0.0912259 1.92768e-16)
(1.01026 -0.0846096 1.03705e-16)
(1.02867 -0.074455 9.26382e-17)
(1.01119 -0.0699411 1.06727e-16)
(1.02826 -0.0591957 6.76171e-17)
(1.01079 -0.0567986 1.68618e-16)
(1.02646 -0.0448589 1.52921e-16)
(1.00932 -0.0451811 -4.89261e-17)
(1.02308 -0.0306917 1.47373e-16)
(1.00708 -0.0353047 2.34146e-16)
(1.01803 -0.016102 2.98206e-17)
(1.00386 -0.0268129 -3.82475e-16)
(1.01198 -0.00169171 3.51672e-16)
(0.998932 -0.0184851 -3.03059e-16)
(1.00442 0.0132495 1.01181e-16)
(0.993894 -0.0120267 -1.48343e-16)
(0.81991 -0.959167 8.45799e-16)
(0.76576 -0.808013 7.8894e-16)
(0.8806 -0.751635 1.69377e-16)
(0.830584 -0.634641 2.22851e-16)
(0.920428 -0.596776 7.76946e-16)
(0.879598 -0.509894 7.7031e-17)
(0.949342 -0.480485 1.40888e-16)
(0.915948 -0.416001 1.29446e-16)
(0.971597 -0.392153 1.4088e-16)
(0.943016 -0.343185 -1.55705e-16)
(0.988973 -0.323761 -7.56735e-17)
(0.963485 -0.285647 3.75627e-16)
(1.00247 -0.269645 2.7327e-16)
(0.97915 -0.239498 1.94464e-16)
(1.01283 -0.225957 3.93178e-17)
(0.991156 -0.201934 -3.46206e-17)
(1.02066 -0.190052 -3.52393e-16)
(1.00025 -0.170895 9.42954e-17)
(1.0264 -0.160058 -2.47766e-17)
(1.00696 -0.144856 9.98002e-17)
(1.03037 -0.1346 2.71266e-17)
(1.01166 -0.12268 -3.54673e-17)
(1.03282 -0.11265 1.30487e-16)
(1.01459 -0.103502 -1.6694e-16)
(1.0339 -0.0934201 -4.35636e-17)
(1.01597 -0.0866636 -2.8392e-16)
(1.03371 -0.0762846 1.27412e-16)
(1.01594 -0.0716768 -2.84025e-16)
(1.0323 -0.0606952 1.32531e-16)
(1.01468 -0.0582511 -3.38419e-16)
(1.02957 -0.0460497 -6.66522e-17)
(1.01245 -0.0463852 -2.08066e-17)
(1.02526 -0.0315781 -2.21493e-16)
(1.00957 -0.0363013 -2.14067e-16)
(1.01925 -0.0166731 -1.80994e-16)
(1.0058 -0.0276386 1.7304e-16)
(1.01225 -0.00195024 -1.98209e-16)
(1.00031 -0.019112 8.72877e-17)
(1.00383 0.0131648 -2.66675e-17)
(0.994641 -0.0122311 2.4745e-16)
(0.883292 -0.97619 -9.9426e-16)
(0.819162 -0.822341 -7.92284e-16)
(0.930282 -0.765001 -4.48023e-16)
(0.872543 -0.64592 9.3203e-17)
(0.959889 -0.607409 -6.69432e-16)
(0.913324 -0.518976 1.4637e-16)
(0.981128 -0.489064 -3.72597e-16)
(0.943479 -0.423429 -1.17781e-16)
(0.997555 -0.399172 2.81332e-17)
(0.965744 -0.349329 2.15904e-16)
(1.01042 -0.329573 1.07918e-16)
(0.982418 -0.290778 -1.71817e-16)
(1.02034 -0.274504 -1.29196e-16)
(0.995041 -0.243818 -4.26792e-16)
(1.02783 -0.230047 9.95181e-17)
(1.00457 -0.205596 5.0462e-17)
(1.03329 -0.193513 3.20279e-16)
(1.01163 -0.174016 -2.42876e-16)
(1.03706 -0.162995 1.29413e-16)
(1.01662 -0.147525 -1.77317e-16)
(1.03936 -0.137095 3.78617e-17)
(1.01986 -0.124965 9.51896e-18)
(1.04036 -0.114766 -1.89489e-16)
(1.02153 -0.105457 6.25523e-18)
(1.04017 -0.095205 2.97682e-16)
(1.0218 -0.0883309 -6.72939e-18)
(1.03886 -0.0777761 5.68011e-17)
(1.02079 -0.0730898 1.32445e-16)
(1.03643 -0.0619215 -5.32483e-18)
(1.01865 -0.059438 1.62633e-16)
(1.03274 -0.0470283 5.7155e-17)
(1.01565 -0.0473746 2.20825e-16)
(1.02749 -0.0323129 6.62122e-17)
(1.01211 -0.0371257 3.82477e-16)
(1.0205 -0.0171558 1.97909e-16)
(1.00779 -0.0283281 -5.05953e-17)
(1.01254 -0.00218353 1.44677e-16)
(1.00173 -0.0196402 2.79238e-17)
(1.00324 0.0130503 -1.33592e-16)
(0.995401 -0.0123859 -4.0128e-17)
(0.94766 -0.989021 1.02681e-15)
(0.873393 -0.833171 7.35501e-16)
(0.980725 -0.77505 3.73187e-16)
(0.91515 -0.654434 8.84361e-17)
(0.999951 -0.615397 2.56682e-16)
(0.947567 -0.525828 -1.13746e-17)
(1.0134 -0.49551 3.18405e-16)
(0.971429 -0.429033 8.38013e-17)
(1.0239 -0.404449 -1.42924e-16)
(0.988814 -0.35397 -1.76467e-16)
(1.03219 -0.333948 1.02603e-16)
(1.00164 -0.294659 -9.54547e-17)
(1.03849 -0.278167 -6.35935e-17)
(1.01117 -0.247092 6.53522e-16)
(1.04305 -0.233136 -3.80492e-16)
(1.01819 -0.208377 9.18511e-17)
(1.04611 -0.196133 -1.26404e-16)
(1.02317 -0.17639 -6.98349e-18)
(1.04787 -0.165223 2.20182e-16)
(1.02642 -0.14956 -1.16422e-16)
(1.04847 -0.138992 8.89803e-17)
(1.02818 -0.126712 8.25066e-17)
(1.04801 -0.116379 8.65972e-17)
(1.02858 -0.106957 -1.58644e-16)
(1.04655 -0.0965715 1.11473e-16)
(1.02773 -0.0896152 -2.55467e-16)
(1.0441 -0.0789242 3.83087e-17)