/*--------------------------------*- C++ -*----------------------------------*\
| =========                 |                                                 |
| \\      /  F ield         | foam-extend: Open Source CFD                    |
|  \\    /   O peration     | Version:  3.0                                   |
|   \\  /    A nd           | Web:         http://www.extend-project.de       |
|    \\/     M anipulation  |                                                 |
\*---------------------------------------------------------------------------*/
FoamFile
{
    version     2.0;
    format      ascii;
    class       volVectorField;
    location    "1.9";
    object      s;
}
// * * * * * * * * * * * * * * * * * * * * * * * * * * * * * * * * * * * * * //

dimensions      [0 0 0 0 0 0 0];

internalField   nonuniform List<vector> 
400
(
(-0.0013503 5.26768e-05 2.39849e-318)
(-0.0017674 0.000804683 4.28278e-318)
(-0.00270248 0.00124578 4.9672e-318)
(-0.00355964 0.00169128 5.08319e-318)
(-0.0046136 0.00172134 4.88556e-318)
(-0.00557214 0.00162179 4.5333e-318)
(-0.00648188 0.00126725 4.01704e-318)
(-0.00721113 0.000788838 3.48892e-318)
(-0.00773382 0.000179088 2.87843e-318)
(-0.00799381 -0.000494297 2.33384e-318)
(-0.00796647 -0.00120677 1.76076e-318)
(-0.00764671 -0.00190547 1.29062e-318)
(-0.00703157 -0.0025638 8.1174e-319)
(-0.00617156 -0.00310941 4.41601e-319)
(-0.00506701 -0.00354575 6.36307e-320)
(-0.00385558 -0.00374388 -2.16984e-319)
(-0.00246366 -0.0038191 -4.7996e-319)
(-0.00121408 -0.00348497 -6.64869e-319)
(0.000160065 -0.00299398 -6.78851e-319)
(0.000840528 -0.00161605 -4.7001e-319)
(-0.00147753 0.000982194 2.27712e-318)
(-0.00227856 0.00248258 4.94798e-318)
(-0.00414648 0.00335264 6.35548e-318)
(-0.00559747 0.00382521 7.03177e-318)
(-0.00731555 0.00378067 7.11279e-318)
(-0.00870713 0.00343368 6.88425e-318)
(-0.009983 0.00276637 6.32153e-318)
(-0.0109385 0.00189467 5.6519e-318)
(-0.0116021 0.000849971 4.80522e-318)
(-0.0119052 -0.000294647 3.98484e-318)
(-0.0118354 -0.00149002 3.0932e-318)
(-0.0113863 -0.00266978 2.30637e-318)
(-0.0105454 -0.00377934 1.50062e-318)
(-0.00937513 -0.00473695 8.3047e-319)
(-0.00783566 -0.00549656 1.59465e-319)
(-0.00614572 -0.00592935 -3.67091e-319)
(-0.00411723 -0.00602136 -8.62263e-319)
(-0.00238604 -0.00551507 -1.1753e-318)
(-0.000350681 -0.0043702 -1.25027e-318)
(0.000517729 -0.00206775 -8.25179e-319)
(-0.00124773 0.00243817 1.9507e-318)
(-0.00209842 0.00561848 4.56445e-318)
(-0.00415336 0.00735519 6.09786e-318)
(-0.00583175 0.00812532 6.89615e-318)
(-0.00780798 0.00795587 7.09678e-318)
(-0.00936373 0.00718733 6.92847e-318)
(-0.0107776 0.0058722 6.42487e-318)
(-0.0118002 0.00420502 5.76994e-318)
(-0.0125105 0.00225602 4.94478e-318)
(-0.0128349 0.000144748 4.10342e-318)
(-0.0127781 -0.00205262 3.19746e-318)
(-0.0123323 -0.00423041 2.35579e-318)
(-0.0114662 -0.0063002 1.50865e-318)
(-0.0102452 -0.00811775 7.68257e-319)
(-0.00857862 -0.00957739 5.82256e-320)
(-0.00673281 -0.010434 -5.08058e-319)
(-0.0044513 -0.0105788 -9.74505e-319)
(-0.00250016 -0.009583 -1.20782e-318)
(-0.000264391 -0.00732977 -1.14181e-318)
(0.000704947 -0.00318486 -5.91604e-319)
(-0.00126986 0.00341265 1.27579e-318)
(-0.00201819 0.00786632 3.37135e-318)
(-0.00404966 0.0101576 4.81251e-318)
(-0.00557655 0.0110304 5.68929e-318)
(-0.00741079 0.0106534 6.0507e-318)
(-0.0087497 0.00951088 6.03722e-318)
(-0.00997272 0.00773082 5.70626e-318)
(-0.0108135 0.00555647 5.17846e-318)
(-0.0114065 0.00307958 4.49033e-318)
(-0.0116813 0.00042693 3.73763e-318)
(-0.0116595 -0.00232446 2.93311e-318)
(-0.0113325 -0.00506914 2.15109e-318)
(-0.0106497 -0.00771343 1.38703e-318)
(-0.00967144 -0.0100926 7.02472e-319)
(-0.008244 -0.0120661 8.72718e-320)
(-0.0066477 -0.0133094 -3.94309e-319)
(-0.00450832 -0.0136287 -7.39745e-319)
(-0.00267417 -0.0124201 -8.69402e-319)
(-0.000368078 -0.00949061 -7.54507e-319)
(0.000626991 -0.00401443 -3.33692e-319)
(-0.00126812 0.00475687 1.20596e-318)
(-0.0018691 0.0106389 3.0267e-318)
(-0.00384048 0.0134715 4.25267e-318)
(-0.00515046 0.0143893 4.98619e-318)
(-0.0067942 0.0137234 5.29707e-318)
(-0.00787372 0.0121382 5.28137e-318)
(-0.00888457 0.00982606 5.00027e-318)
(-0.00953347 0.00709038 4.5402e-318)
(-0.0100124 0.00403514 3.93968e-318)
(-0.0102484 0.000794426 3.26974e-318)
(-0.0102789 -0.00256292 2.54989e-318)
(-0.0100943 -0.00593587 1.83482e-318)
(-0.00962077 -0.00923512 1.13113e-318)
(-0.00891844 -0.012276 4.83764e-319)
(-0.00775738 -0.0148931 -1.03097e-319)
(-0.00644654 -0.016666 -5.82884e-319)
(-0.00445873 -0.0173231 -9.33122e-319)
(-0.00276748 -0.0160215 -1.09246e-318)
(-0.000370333 -0.0124495 -9.91807e-319)
(0.00059238 -0.00537659 -5.11669e-319)
(-0.00137846 0.00595226 8.76077e-319)
(-0.00179338 0.0130486 2.34847e-318)
(-0.00363172 0.016194 3.42348e-318)
(-0.00456742 0.0170065 4.11384e-318)
(-0.00586758 0.0159849 4.44462e-318)
(-0.00653938 0.013986 4.48339e-318)
(-0.00721974 0.0112518 4.28131e-318)
(-0.00758737 0.00812725 3.90407e-318)
(-0.00789533 0.00471084 3.39703e-318)
(-0.008066 0.00112353 2.81288e-318)
(-0.00815268 -0.0025916 2.18394e-318)
(-0.00814649 -0.00635918 1.55084e-318)
(-0.00795085 -0.0101145 9.34866e-319)
(-0.00763094 -0.013679 3.70386e-319)
(-0.0068717 -0.0168846 -1.23012e-319)
(-0.00601522 -0.0192361 -5.06832e-319)
(-0.00433679 -0.0203945 -7.55772e-319)
(-0.00294895 -0.0192322 -8.20485e-319)
(-0.000497722 -0.0152857 -6.7316e-319)
(0.000416579 -0.00671204 -2.8348e-319)
(-0.00156796 0.00736836 9.59362e-319)
(-0.00164136 0.0155172 2.31598e-318)
(-0.00329009 0.0187939 3.21962e-318)
(-0.00371533 0.0193499 3.75706e-318)
(-0.00459437 0.0179206 3.99574e-318)
(-0.00478569 0.0155108 3.98622e-318)
(-0.0050932 0.0124101 3.78119e-318)
(-0.00514856 0.00897834 3.42805e-318)
(-0.005266 0.00530217 2.96664e-318)
(-0.00535724 0.00147699 2.43623e-318)
(-0.00549155 -0.00248532 1.86674e-318)
(-0.00566322 -0.00654606 1.28909e-318)
(-0.00575672 -0.0106731 7.23579e-319)
(-0.00585369 -0.0147137 1.95704e-319)
(-0.00555071 -0.018508 -2.7434e-319)
(-0.00525231 -0.0215198 -6.60793e-319)
(-0.00398077 -0.0233376 -9.3203e-319)
(-0.00307943 -0.0225709 -1.0488e-318)
(-0.000597459 -0.018487 -9.39491e-319)
(7.04027e-05 -0.00847066 -4.93562e-319)
(-0.00176396 0.00869637 7.77743e-319)
(-0.00135462 0.0175336 1.96077e-318)
(-0.00266557 0.0207465 2.78587e-318)
(-0.00245644 0.0209173 3.29479e-318)
(-0.00281911 0.0190929 3.52488e-318)
(-0.00247014 0.0163393 3.52852e-318)
(-0.00236085 0.0130015 3.34897e-318)
(-0.00207528 0.00941696 3.03069e-318)
(-0.00197748 0.00565934 2.6134e-318)
(-0.00196769 0.00178422 2.13162e-318)
(-0.00212999 -0.00223065 1.61544e-318)
(-0.00246448 -0.00639448 1.09231e-318)
(-0.00284483 -0.0107135 5.8484e-319)
(-0.00337562 -0.0150858 1.16802e-319)
(-0.00357896 -0.0193669 -2.89231e-319)
(-0.00392947 -0.0230354 -6.06342e-319)
(-0.00319615 -0.0255925 -8.08326e-319)
(-0.00296419 -0.0254686 -8.54664e-319)
(-0.000597623 -0.0215219 -7.09167e-319)
(-0.000341209 -0.0103442 -3.21755e-319)
(-0.00187789 0.00989981 8.71221e-319)
(-0.000806826 0.0189953 2.01952e-318)
(-0.00163945 0.0220382 2.74357e-318)
(-0.000714969 0.0217502 3.146e-318)
(-0.000519764 0.0196103 3.30283e-318)
(0.000375266 0.0165991 3.2598e-318)
(0.000902858 0.0131531 3.06223e-318)
(0.00152571 0.00954262 2.74769e-318)
(0.00184723 0.00584178 2.34937e-318)
(0.00197783 0.00205569 1.89721e-318)
(0.00182145 -0.00186517 1.41663e-318)
(0.00137027 -0.00598431 9.31551e-319)
(0.000749661 -0.0103413 4.61349e-319)
(-0.00017198 -0.0149085 2.50442e-320)
(-0.000868968 -0.0195468 -3.59369e-319)
(-0.00189498 -0.0238259 -6.73584e-319)
(-0.00178332 -0.0271093 -8.90524e-319)
(-0.00240285 -0.0278394 -9.82474e-319)
(-0.000318366 -0.024235 -8.80588e-319)
(-0.000789022 -0.0123522 -4.75489e-319)
(-0.00172575 0.0107002 7.48984e-319)
(2.08563e-05 0.0196264 1.81035e-318)
(-0.000133864 0.0224677 2.50677e-318)
(0.00147444 0.0217286 2.90441e-318)
(0.00224807 0.0194036 3.05433e-318)
(0.00363903 0.0162491 3.01144e-318)
(0.00456585 0.0128348 2.81943e-318)
(0.00549973 0.00932769 2.51706e-318)
(0.00604482 0.00581821 2.13878e-318)
(0.00631296 0.00225579 1.71298e-318)
(0.00620198 -0.00142765 1.26479e-318)
(0.00569655 -0.00535063 8.16676e-319)
(0.00490575 -0.00957801 3.8755e-319)
(0.00368047 -0.0141738 -2.87052e-321)
(0.00254285 -0.0189886 -3.37027e-319)
(0.000901784 -0.0237589 -5.93921e-319)
(0.000333458 -0.0276533 -7.53341e-319)
(-0.00117236 -0.0293408 -7.85426e-319)
(0.000333827 -0.0262072 -6.56717e-319)
(-0.000948171 -0.0141237 -3.17017e-319)
(-0.00129097 0.0108685 8.19625e-319)
(0.00105436 0.01928 1.87636e-318)
(0.00171462 0.0219925 2.51321e-318)
(0.00392662 0.0208892 2.84046e-318)
(0.00526851 0.0185484 2.93897e-318)
(0.00708373 0.015374 2.85895e-318)
(0.00837538 0.0121201 2.64875e-318)
(0.00958093 0.00882167 2.34307e-318)
(0.0103413 0.00560611 1.97392e-318)
(0.0107604 0.00236599 1.56659e-318)
(0.0107385 -0.000972828 1.14325e-318)
(0.010255 -0.0045802 7.2471e-319)
(0.00938663 -0.00853286 3.27748e-319)
(0.00798062 -0.0129963 -3.12595e-320)
(0.00649463 -0.017786 -3.37215e-319)
(0.00434889 -0.0228753 -5.75873e-319)
(0.00308446 -0.0271602 -7.28989e-319)
(0.000689901 -0.0297887 -7.8339e-319)
(0.00135393 -0.0270982 -6.90427e-319)
(-0.00086572 -0.0153649 -3.79106e-319)
(-0.000512476 0.010459 7.28737e-319)
(0.00212666 0.0181831 1.74435e-318)
(0.00376465 0.0207769 2.37554e-318)
(0.00639984 0.0194269 2.70396e-318)
(0.00829897 0.0171923 2.79238e-318)
(0.0104326 0.0141061 2.70531e-318)
(0.0120448 0.011108 2.49142e-318)
(0.0134658 0.00809815 2.18947e-318)
(0.0144214 0.00524672 1.83117e-318)
(0.0149933 0.00239627 1.44229e-318)
(0.0150961 -0.000525378 1.04356e-318)
(0.0147083 -0.00372829 6.5439e-319)
(0.0138589 -0.00729133 2.91504e-319)
(0.0124169 -0.011476 -2.77319e-320)
(0.0106986 -0.0160533 -2.87561e-319)
(0.00823819 -0.021265 -4.71813e-319)
(0.00628486 -0.0257226 -5.65295e-319)
(0.00320775 -0.0291863 -5.5451e-319)
(0.00265254 -0.0269882 -4.29639e-319)
(-0.000192814 -0.0160113 -1.91851e-319)
(0.000306727 0.00929428 7.78776e-319)
(0.00300908 0.0162921 1.80485e-318)
(0.00563543 0.0188093 2.39184e-318)
(0.00857584 0.0173792 2.66141e-318)
(0.0110077 0.0153698 2.70473e-318)
(0.0133798 0.0124857 2.58492e-318)
(0.0152631 0.00982402 2.35492e-318)
(0.016841 0.00716739 2.05069e-318)
(0.0179598 0.00472553 1.70101e-318)
(0.0186741 0.0023047 1.3288e-318)
(0.0189252 -0.000158499 9.53216e-319)
(0.0186952 -0.00289765 5.91649e-319)
(0.0179567 -0.00598437 2.58792e-319)
(0.0166167 -0.00975531 -2.85965e-320)
(0.0147908 -0.013934 -2.56534e-319)
(0.0121895 -0.0190204 -4.12614e-319)
(0.00958652 -0.0233555 -4.81689e-319)
(0.00594408 -0.0273778 -4.67198e-319)
(0.00397947 -0.0255058 -3.54947e-319)
(0.000530884 -0.0155781 -1.58724e-319)
(0.00113446 0.00801797 7.26934e-319)
(0.00355989 0.0142421 1.7349e-318)
(0.00719327 0.0165173 2.30373e-318)
(0.0102575 0.0150984 2.55483e-318)
(0.013175 0.0133317 2.57467e-318)
(0.0156682 0.010726 2.44021e-318)
(0.0177443 0.00843887 2.20402e-318)
(0.0193961 0.00617125 1.90383e-318)
(0.020623 0.00415166 1.56714e-318)
(0.021448 0.00216757 1.21481e-318)
(0.0218502 0.000166504 8.64551e-319)
(0.0218201 -0.00208933 5.3161e-319)
(0.0212735 -0.00466026 2.30976e-319)
(0.0201739 -0.00792661 -2.17191e-320)
(0.0183902 -0.0115854 -2.10605e-319)
(0.015898 -0.0163428 -3.20703e-319)
(0.0127546 -0.0203976 -3.37975e-319)
(0.00893137 -0.0247732 -2.60481e-319)
(0.00529438 -0.0234619 -1.09806e-319)
(0.00185264 -0.0149725 3.74403e-320)
(0.00158959 0.00630843 7.85979e-319)
(0.0037364 0.0118087 1.78936e-318)
(0.00814474 0.0137566 2.29026e-318)
(0.0112827 0.0125033 2.46717e-318)
(0.0145838 0.0110227 2.43805e-318)
(0.0171109 0.00879561 2.27612e-318)
(0.0192815 0.00691998 2.03269e-318)
(0.0209202 0.00507205 1.73976e-318)
(0.0221832 0.00347172 1.4204e-318)
(0.0230685 0.00191323 1.09205e-318)
(0.023602 0.000354302 7.7011e-319)
(0.0237811 -0.00142277 4.67569e-319)
(0.0234796 -0.00346702 1.98511e-319)
(0.0227086 -0.00615297 -2.38288e-320)
(0.0211 -0.0091819 -1.84622e-319)
(0.0188719 -0.0133495 -2.71464e-319)
(0.0153484 -0.0168569 -2.70377e-319)
(0.0114337 -0.02109 -1.88353e-319)
(0.00630279 -0.0200194 -4.49056e-320)
(0.00255862 -0.0128445 8.23163e-320)
(0.0016335 0.00501209 8.20905e-319)
(0.00343567 0.00962852 1.76088e-318)
(0.0084468 0.011094 2.18371e-318)
(0.0115218 0.00999741 2.30235e-318)
(0.0150371 0.00877964 2.23627e-318)
(0.0174452 0.00696676 2.06072e-318)
(0.0195625 0.00550352 1.82126e-318)
(0.0210745 0.00407135 1.54516e-318)
(0.0222782 0.00286363 1.25168e-318)
(0.0231562 0.00169319 9.54159e-319)
(0.0237772 0.000532972 6.66257e-319)
(0.0241488 -0.000804545 3.98266e-319)
(0.0241219 -0.00235044 1.62449e-319)
(0.0237553 -0.00444582 -2.87645e-320)
(0.0224825 -0.00681835 -1.60458e-319)
(0.0207741 -0.0102762 -2.19182e-319)
(0.0171731 -0.0131906 -1.92315e-319)
(0.01373 -0.0171697 -7.77857e-320)
(0.00718149 -0.0167383 8.20297e-320)
(0.0041491 -0.0116763 1.90047e-319)
(0.00162117 0.00376501 8.48128e-319)
(0.00299955 0.00731121 1.68857e-318)
(0.00814577 0.00818668 2.00375e-318)
(0.0110224 0.00738648 2.04399e-318)
(0.0144792 0.00646311 1.94659e-318)
(0.0166277 0.00514182 1.76882e-318)
(0.0185316 0.00409234 1.54827e-318)
(0.0198118 0.00307103 1.30349e-318)
(0.0208602 0.00221734 1.04848e-318)
(0.0216485 0.00138993 7.93489e-319)
(0.0222931 0.000569899 5.48566e-319)
(0.022785 -0.000379567 3.22121e-319)
(0.0230086 -0.00148188 1.23951e-319)
(0.0230043 -0.00299148 -3.51379e-320)
(0.0221518 -0.00470789 -1.43215e-319)
(0.0209824 -0.00727465 -1.89716e-319)
(0.0176252 -0.00942618 -1.64909e-319)
(0.014596 -0.0124937 -7.37936e-320)
(0.00750032 -0.0121073 4.90163e-320)
(0.0042597 -0.00798688 1.40087e-319)
(0.000392743 0.00261468 1.00508e-318)
(0.00208088 0.00538247 1.62122e-318)
(0.00710662 0.00576734 1.77419e-318)
(0.0096879 0.00515898 1.72867e-318)
(0.0128086 0.00451035 1.60089e-318)
(0.0145109 0.00362951 1.42846e-318)
(0.0160259 0.00296024 1.23405e-318)
(0.0169728 0.00229848 1.028e-318)
(0.0177696 0.00175586 8.18855e-319)
(0.0184056 0.00121403 6.13224e-319)
(0.0189906 0.000686533 4.17392e-319)
(0.0195453 6.08154e-05 2.36736e-319)
(0.0199509 -0.00064717 7.88035e-320)
(0.0203024 -0.00164027 -4.76032e-320)
(0.0199259 -0.00274104 -1.32894e-319)
(0.0195051 -0.00448707 -1.67197e-319)
(0.0167346 -0.00591586 -1.4234e-319)
(0.0148959 -0.00835412 -5.50784e-320)
(0.00745209 -0.00840266 5.31022e-320)
(0.00614868 -0.00694636 1.28719e-319)
(0.000639744 0.00237684 6.08249e-319)
(0.00105377 0.00312183 1.02423e-318)
(0.00500276 0.00318208 1.12568e-318)
(0.00671155 0.00295544 1.0931e-318)
(0.00893499 0.00265093 1.01335e-318)
(0.0100355 0.00225753 9.04619e-319)
(0.0110034 0.0019234 7.82674e-319)
(0.0115697 0.00158578 6.52152e-319)
(0.0120632 0.00128951 5.1951e-319)
(0.0124521 0.00098431 3.88973e-319)
(0.0128912 0.00067785 2.64459e-319)
(0.013291 0.000318236 1.49667e-319)
(0.0137304 -9.17364e-05 4.99155e-320)
(0.0140737 -0.000629055 -2.9639e-320)
(0.0140908 -0.00123837 -8.2672e-320)
(0.0139566 -0.00209753 -1.04292e-319)
(0.0122769 -0.0028585 -9.19555e-320)
(0.0110162 -0.00382609 -5.0454e-320)
(0.00573951 -0.00379864 -8.11256e-321)
(0.00421619 -0.0016943 1.3987e-320)
(-0.00087836 0.00108537 8.73483e-319)
(0.000794731 0.00227987 8.56013e-319)
(0.00355847 0.00183716 7.50718e-319)
(0.00442364 0.00166539 6.39039e-319)
(0.00572514 0.00149281 5.47622e-319)
(0.0060483 0.00131483 4.63073e-319)
(0.00646644 0.00123535 3.84867e-319)
(0.00660227 0.0011179 3.10239e-319)
(0.00677417 0.00105967 2.38792e-319)
(0.00695173 0.000957536 1.71283e-319)
(0.00714499 0.000898944 1.0778e-319)
(0.00748223 0.000778571 4.90014e-320)
(0.00774413 0.000704784 -3.30036e-321)
(0.00827461 0.000519524 -4.73216e-320)
(0.00837998 0.000417608 -8.01671e-320)
(0.0090049 4.56062e-05 -9.78645e-320)
(0.00799928 -6.14273e-05 -9.65651e-320)
(0.00856065 -0.000959981 -7.19557e-320)
(0.00399983 -0.000878161 -3.97377e-320)
(0.00580388 -0.00239634 -7.20842e-321)
)
;

boundaryField
{
    cavity
    {
        type            myHeatFlux;
        ThetaWall       uniform 0;
        value           nonuniform List<vector> 
60
(
(0.001 0 0)
(0.001 0 0)
(0.001 0 0)
(0.001 0 0)
(0.001 0 0)
(0.001 0 0)
(0.001 0 0)
(0.001 0 0)
(0.001 0 0)
(0.001 0 0)
(0.001 0 0)
(0.001 0 0)
(0.001 0 0)
(0.001 0 0)
(0.001 0 0)
(0.001 0 0)
(0.001 0 0)
(0.001 0 0)
(0.001 0 0)
(0.001 0 0)
(0 -0.001 0)
(0 -0.001 0)
(0 -0.001 0)
(0 -0.001 0)
(0 -0.001 0)
(0 -0.001 0)
(0 -0.001 0)
(0 -0.001 0)
(0 -0.001 0)
(0 -0.001 0)
(0 -0.001 0)
(0 -0.001 0)
(0 -0.001 0)
(0 -0.001 0)
(0 -0.001 0)
(0 -0.001 0)
(0 -0.001 0)
(0 -0.001 0)
(0 -0.001 0)
(0 -0.001 0)
(-0.001 0 0)
(-0.001 0 0)
(-0.001 0 0)
(-0.001 0 0)
(-0.001 0 0)
(-0.001 0 0)
(-0.001 0 0)
(-0.001 0 0)
(-0.001 0 0)
(-0.001 0 0)
(-0.001 0 0)
(-0.001 0 0)
(-0.001 0 0)
(-0.001 0 0)
(-0.001 0 0)
(-0.001 0 0)
(-0.001 0 0)
(-0.001 0 0)
(-0.001 0 0)
(-0.001 0 0)
)
;
    }
    lid
    {
        type            myHeatFlux;
        ThetaWall       uniform 0;
        value           nonuniform List<vector> 
20
(
(0.000135815 0.0009 0)
(0.000135815 0.0009 0)
(0.000135815 0.0009 0)
(0.000135815 0.0009 0)
(0.000135815 0.0009 0)
(0.000135815 0.0009 0)
(0.000135815 0.0009 0)
(0.000135815 0.0009 0)
(0.000135815 0.0009 0)
(0.000135815 0.0009 0)
(0.000135815 0.0009 0)
(0.000135815 0.0009 0)
(0.000135815 0.0009 0)
(0.000135815 0.0009 0)
(0.000135815 0.0009 0)
(0.000135815 0.0009 0)
(0.000135815 0.0009 0)
(0.000135815 0.0009 0)
(0.000135815 0.0009 0)
(0.000135815 0.0009 0)
)
;
    }
    frontAndBack
    {
        type            empty;
    }
}


// ************************************************************************* //
