/*--------------------------------*- C++ -*----------------------------------*\
| =========                 |                                                 |
| \\      /  F ield         | foam-extend: Open Source CFD                    |
|  \\    /   O peration     | Version:  3.0                                   |
|   \\  /    A nd           | Web:         http://www.extend-project.de       |
|    \\/     M anipulation  |                                                 |
\*---------------------------------------------------------------------------*/
FoamFile
{
    version     2.0;
    format      ascii;
    class       volVectorField;
    location    "1.9";
    object      u;
}
// * * * * * * * * * * * * * * * * * * * * * * * * * * * * * * * * * * * * * //

dimensions      [0 0 0 0 0 0 0];

internalField   nonuniform List<vector> 
400
(
(0.00919427 -0.00476643 4.2448e-316)
(-0.0816717 0.0587327 3.81485e-316)
(-0.108328 0.0593886 2.99325e-316)
(-0.189671 0.0855088 2.85885e-316)
(-0.234477 0.0761685 1.96517e-316)
(-0.297737 0.0739426 2.03336e-316)
(-0.337669 0.0588634 1.22072e-316)
(-0.37797 0.0445189 1.42028e-316)
(-0.401063 0.0273623 7.10061e-317)
(-0.415887 0.00910156 1.00446e-316)
(-0.417089 -0.00866357 3.71015e-317)
(-0.405327 -0.0276052 7.25826e-317)
(-0.383841 -0.0458584 1.36348e-317)
(-0.345189 -0.061933 5.19226e-317)
(-0.304918 -0.0786605 -5.33808e-318)
(-0.241075 -0.0826194 3.24047e-317)
(-0.194161 -0.0928106 -2.31625e-317)
(-0.110558 -0.0665705 6.34321e-318)
(-0.0821723 -0.0647288 -3.55449e-317)
(0.0105819 0.00316027 -3.16727e-317)
(-0.0320755 0.098884 1.33973e-316)
(-0.0861309 0.113958 1.71449e-316)
(-0.129748 0.100953 1.65152e-316)
(-0.179189 0.106776 1.67211e-316)
(-0.211738 0.089608 1.43763e-316)
(-0.25001 0.0845024 1.34997e-316)
(-0.274239 0.0650778 1.07046e-316)
(-0.298574 0.0520241 9.78829e-317)
(-0.312129 0.0306329 7.18916e-317)
(-0.320977 0.0132886 6.60228e-317)
(-0.321378 -0.00938346 4.37106e-317)
(-0.313984 -0.0271756 4.13498e-317)
(-0.300922 -0.0501643 2.20342e-317)
(-0.277577 -0.0642072 2.19898e-317)
(-0.253184 -0.0862054 4.2857e-318)
(-0.21505 -0.0918838 4.86095e-318)
(-0.181966 -0.11139 -1.25589e-317)
(-0.131602 -0.104558 -1.52784e-317)
(-0.0877751 -0.118259 -3.31849e-317)
(-0.0322976 -0.0999772 -5.4267e-317)
(-0.0193993 0.155848 2.23233e-316)
(-0.0862547 0.187177 2.00671e-316)
(-0.13421 0.182514 1.73266e-316)
(-0.192837 0.191902 1.54772e-316)
(-0.236974 0.168246 1.26569e-316)
(-0.279859 0.154229 1.1402e-316)
(-0.31254 0.121393 8.88912e-317)
(-0.338647 0.0921432 8.05892e-317)
(-0.35636 0.0553226 5.89201e-317)
(-0.366421 0.0187274 5.37713e-317)
(-0.367589 -0.0198085 3.45829e-317)
(-0.361681 -0.0573411 3.11409e-317)
(-0.345585 -0.0962652 1.26587e-317)
(-0.322389 -0.127685 8.60787e-318)
(-0.289535 -0.163923 -1.20049e-317)
(-0.247052 -0.179534 -2.08531e-317)
(-0.201054 -0.206054 -4.77584e-317)
(-0.139615 -0.195488 -7.04491e-317)
(-0.0900429 -0.199864 -1.07618e-316)
(-0.0186761 -0.16442 -1.60641e-316)
(-0.0257298 0.233724 2.65275e-317)
(-0.0917837 0.263502 6.68754e-317)
(-0.143221 0.241243 7.88736e-317)
(-0.189527 0.242655 8.69664e-317)
(-0.23042 0.205191 8.30519e-317)
(-0.258983 0.183983 7.78331e-317)
(-0.286512 0.142835 6.74616e-317)
(-0.302195 0.108362 5.87317e-317)
(-0.31652 0.0664842 4.7239e-317)
(-0.322649 0.0255183 3.86096e-317)
(-0.323875 -0.0175509 2.78256e-317)
(-0.321409 -0.0598408 2.00807e-317)
(-0.308786 -0.105417 1.01688e-317)
(-0.296066 -0.143026 3.29383e-318)
(-0.268287 -0.190816 -5.57369e-318)
(-0.240696 -0.214452 -1.06026e-317)
(-0.197577 -0.259204 -1.65773e-317)
(-0.148584 -0.255874 -1.50926e-317)
(-0.0955399 -0.281199 -1.32219e-317)
(-0.0234625 -0.243619 5.70271e-318)
(-0.0319428 0.300766 1.81309e-316)
(-0.105557 0.332778 1.45616e-316)
(-0.171172 0.30212 1.23692e-316)
(-0.219637 0.297575 1.03024e-316)
(-0.272265 0.251432 8.67923e-317)
(-0.300305 0.219694 7.3699e-317)
(-0.335579 0.171804 6.0851e-317)
(-0.350783 0.125313 5.08043e-317)
(-0.369355 0.0785013 3.9854e-317)
(-0.376746 0.0250644 3.12251e-317)
(-0.379271 -0.0220915 2.11509e-317)
(-0.380291 -0.0773659 1.28317e-317)
(-0.365397 -0.12759 2.33778e-318)
(-0.357331 -0.178577 -7.3927e-318)
(-0.321933 -0.23314 -2.05458e-317)
(-0.297271 -0.2687 -3.52231e-317)
(-0.239894 -0.323182 -5.50929e-317)
(-0.187357 -0.325196 -8.2709e-317)
(-0.116056 -0.360196 -1.15038e-316)
(-0.029983 -0.315379 -1.68179e-316)
(-0.0420349 0.398926 1.74154e-317)
(-0.108884 0.432071 4.69903e-317)
(-0.184017 0.378552 5.61058e-317)
(-0.216321 0.363631 6.18416e-317)
(-0.269915 0.301307 5.95999e-317)
(-0.282029 0.257793 5.50002e-317)
(-0.31479 0.202043 4.79525e-317)
(-0.31895 0.146067 4.04797e-317)
(-0.335546 0.0964025 3.2295e-317)
(-0.338557 0.034877 2.44648e-317)
(-0.341581 -0.0141024 1.62795e-317)
(-0.345821 -0.07861 8.55635e-318)
(-0.333726 -0.133929 4.6453e-319)
(-0.337026 -0.197628 -7.08238e-318)
(-0.304198 -0.265358 -1.46642e-317)
(-0.297958 -0.316799 -2.0597e-317)
(-0.237868 -0.396407 -2.5188e-317)
(-0.204843 -0.410022 -2.32405e-317)
(-0.120155 -0.477353 -1.88363e-317)
(-0.0412925 -0.423444 4.66391e-318)
(-0.0658402 0.475535 1.72195e-316)
(-0.126627 0.498368 1.27868e-316)
(-0.226226 0.425831 1.04371e-316)
(-0.245597 0.39529 8.26123e-317)
(-0.31027 0.325241 6.82418e-317)
(-0.311707 0.26805 5.60732e-317)
(-0.349231 0.211999 4.58606e-317)
(-0.347683 0.145833 3.68421e-317)
(-0.366881 0.0997207 2.83122e-317)
(-0.369872 0.0299028 2.03424e-317)
(-0.374999 -0.0136111 1.22984e-317)
(-0.385369 -0.087119 4.29387e-318)
(-0.374156 -0.136853 -4.37246e-318)
(-0.39 -0.212991 -1.38044e-317)
(-0.353288 -0.278456 -2.49582e-317)
(-0.364751 -0.347115 -3.89308e-317)
(-0.289134 -0.4344 -5.6351e-317)
(-0.272735 -0.46566 -8.29468e-317)
(-0.151863 -0.556597 -1.13275e-316)
(-0.0726266 -0.506505 -1.6754e-316)
(-0.0956193 0.612482 2.18039e-317)
(-0.121329 0.610733 4.67592e-317)
(-0.238489 0.509725 5.21867e-317)
(-0.226311 0.454672 5.50541e-317)
(-0.290868 0.3724 5.13855e-317)
(-0.270862 0.297303 4.59119e-317)
(-0.303787 0.239545 3.9016e-317)
(-0.289328 0.162155 3.17762e-317)
(-0.305403 0.119584 2.43715e-317)
(-0.302451 0.041633 1.70629e-317)
(-0.30818 0.00303999 9.70885e-318)
(-0.319922 -0.0804482 2.38975e-318)
(-0.313015 -0.127976 -5.10741e-318)
(-0.340311 -0.221181 -1.26026e-317)
(-0.308684 -0.29319 -2.00591e-317)
(-0.346495 -0.389445 -2.6547e-317)
(-0.268078 -0.501114 -3.17443e-317)
(-0.295882 -0.566068 -3.09095e-317)
(-0.145684 -0.705638 -2.76321e-317)
(-0.115168 -0.676127 -4.04684e-318)
(-0.140468 0.707449 1.66863e-316)
(-0.12786 0.6521 1.19313e-316)
(-0.276826 0.537687 9.53704e-317)
(-0.235156 0.449791 7.36156e-317)
(-0.307172 0.371279 5.97944e-317)
(-0.269721 0.279105 4.81727e-317)
(-0.302815 0.230147 3.86764e-317)
(-0.279844 0.14514 3.02128e-317)
(-0.296188 0.11321 2.24114e-317)
(-0.291988 0.0317097 1.50014e-317)
(-0.300695 0.00587673 7.69508e-318)
(-0.318833 -0.0818504 3.01089e-319)
(-0.317117 -0.113562 -7.52126e-318)
(-0.360805 -0.21724 -1.61546e-317)
(-0.331787 -0.271331 -2.61522e-317)
(-0.399632 -0.39159 -3.88709e-317)
(-0.307908 -0.491222 -5.46961e-317)
(-0.380819 -0.600286 -7.99401e-317)
(-0.173289 -0.756307 -1.09106e-316)
(-0.187691 -0.788616 -1.65379e-316)
(-0.177317 0.88268 2.69749e-317)
(-0.0942956 0.747229 5.09369e-317)
(-0.256834 0.616232 5.38546e-317)
(-0.177556 0.481883 5.4486e-317)
(-0.242642 0.404588 4.91639e-317)
(-0.187009 0.288961 4.25594e-317)
(-0.211236 0.247438 3.51483e-317)
(-0.178061 0.152324 2.77368e-317)
(-0.189344 0.130764 2.0483e-317)
(-0.178153 0.0445125 1.34426e-317)
(-0.187106 0.0305855 6.50631e-318)
(-0.20093 -0.064043 -4.11581e-319)
(-0.205135 -0.0840052 -7.47661e-318)
(-0.251054 -0.205707 -1.46772e-317)
(-0.232063 -0.252335 -2.19912e-317)
(-0.319997 -0.413368 -2.87789e-317)
(-0.232794 -0.520184 -3.46644e-317)
(-0.366119 -0.703539 -3.52421e-317)
(-0.125086 -0.903724 -3.38267e-317)
(-0.256508 -1.04158 -1.16661e-317)
(-0.212589 0.971209 1.62081e-316)
(-0.0756874 0.73039 1.14112e-316)
(-0.257593 0.618582 9.07944e-317)
(-0.150548 0.435402 6.96548e-317)
(-0.212448 0.379991 5.61462e-317)
(-0.143443 0.247257 4.47356e-317)
(-0.161042 0.221256 3.53842e-317)
(-0.121364 0.122913 2.70934e-317)
(-0.129999 0.11403 1.95494e-317)
(-0.116847 0.0295892 1.24845e-317)
(-0.12942 0.0297841 5.63487e-318)
(-0.146288 -0.0633167 -1.19213e-318)
(-0.160664 -0.0626914 -8.29912e-318)
(-0.217965 -0.189945 -1.60393e-317)
(-0.212236 -0.203337 -2.48782e-317)
(-0.327237 -0.391148 -3.61069e-317)
(-0.240478 -0.448708 -5.01446e-317)
(-0.428609 -0.70762 -7.36327e-317)
(-0.131317 -0.868677 -1.01215e-316)
(-0.345857 -1.16034 -1.60009e-316)
(-0.193843 1.14357 3.17349e-317)
(-0.00608141 0.784562 5.71485e-317)
(-0.162074 0.681548 5.80466e-317)
(-0.0440803 0.436626 5.66509e-317)
(-0.0838931 0.395455 4.95792e-317)
(-0.0137297 0.238641 4.17178e-317)
(-0.0174462 0.225582 3.36066e-317)
(0.0245562 0.121677 2.58663e-317)
(0.02247 0.12618 1.86025e-317)
(0.0423688 0.0429945 1.17509e-317)
(0.0302952 0.058288 5.17967e-318)
(0.0259047 -0.0352054 -1.27158e-318)
(0.00519272 -0.016718 -7.76928e-318)
(-0.0347837 -0.157356 -1.43914e-317)
(-0.0449267 -0.150252 -2.11535e-317)
(-0.146633 -0.38594 -2.75995e-317)
(-0.0846158 -0.425461 -3.33734e-317)
(-0.297194 -0.80138 -3.4548e-317)
(-0.0134304 -0.977051 -3.3928e-317)
(-0.359177 -1.47256 -1.31526e-317)
(-0.168694 1.14956 1.58192e-316)
(0.0231357 0.704982 1.12416e-316)
(-0.104329 0.65277 8.96493e-317)
(0.0145338 0.367329 6.88699e-317)
(-0.000928783 0.354047 5.5103e-317)
(0.0708626 0.188851 4.34467e-317)
(0.082616 0.188768 3.38682e-317)
(0.126597 0.0881531 2.55207e-317)
(0.130146 0.100398 1.80726e-317)
(0.152274 0.0239329 1.12703e-317)
(0.13645 0.0472497 4.86085e-318)
(0.134212 -0.0391043 -1.39883e-318)
(0.0987389 -0.00594702 -7.72331e-318)
(0.0586466 -0.143496 -1.44185e-317)
(0.0200912 -0.102803 -2.18318e-317)
(-0.0896467 -0.354971 -3.10982e-317)
(-0.0629013 -0.318086 -4.24673e-317)
(-0.301605 -0.771171 -6.27372e-317)
(-0.0200312 -0.821465 -8.63991e-317)
(-0.405396 -1.48942 -1.44941e-316)
(-0.0337155 1.26125 3.93447e-317)
(0.102618 0.727363 6.7731e-317)
(0.077601 0.68575 6.52795e-317)
(0.157879 0.348358 6.0819e-317)
(0.183833 0.347448 5.13112e-317)
(0.236751 0.167739 4.18713e-317)
(0.264951 0.179109 3.28766e-317)
(0.302988 0.0812827 2.47702e-317)
(0.312651 0.105397 1.74854e-317)
(0.339944 0.037473 1.08548e-317)
(0.325458 0.0744118 4.67501e-318)
(0.341675 -0.00354507 -1.22589e-318)
(0.301934 0.0473945 -7.02865e-318)
(0.299233 -0.0912209 -1.28195e-317)
(0.242122 -0.02601 -1.85518e-317)
(0.195603 -0.315425 -2.38741e-317)
(0.16856 -0.248373 -2.82112e-317)
(0.00787347 -0.832295 -2.7976e-317)
(0.159397 -0.885721 -2.49563e-317)
(-0.232412 -1.8118 -1.74198e-319)
(0.0427733 1.10766 1.624e-316)
(0.117828 0.622011 1.17229e-316)
(0.181129 0.612693 9.24852e-317)
(0.239815 0.284672 7.02162e-317)
(0.314104 0.293763 5.51499e-317)
(0.361256 0.125223 4.26855e-317)
(0.411556 0.138503 3.2696e-317)
(0.448029 0.0513571 2.42335e-317)
(0.464625 0.0741826 1.69249e-317)
(0.49371 0.0158793 1.04408e-317)
(0.4762 0.0502603 4.49954e-318)
(0.498394 -0.0170478 -1.13928e-318)
(0.442769 0.0331852 -6.64754e-318)
(0.449805 -0.0918816 -1.22376e-317)
(0.35115 -0.0154659 -1.80685e-317)
(0.315582 -0.293176 -2.49786e-317)
(0.203195 -0.16828 -3.28102e-317)
(0.0518443 -0.76426 -4.78062e-317)
(0.0928513 -0.641904 -6.41354e-317)
(-0.264715 -1.56193 -1.13804e-316)
(0.25814 1.14276 6.99119e-317)
(0.175875 0.622776 9.02123e-317)
(0.401011 0.595049 7.84637e-317)
(0.396724 0.24879 6.71019e-317)
(0.516118 0.257897 5.37652e-317)
(0.536316 0.0948476 4.21297e-317)
(0.597321 0.115512 3.21597e-317)
(0.623396 0.0415277 2.36968e-317)
(0.642454 0.0726939 1.64595e-317)
(0.674112 0.0290501 1.00951e-317)
(0.658502 0.0727446 4.33784e-318)
(0.699218 0.0220635 -1.02943e-318)
(0.644869 0.0856092 -6.15258e-318)
(0.697564 -0.0221918 -1.11006e-317)
(0.588828 0.0752586 -1.57228e-317)
(0.653747 -0.204659 -1.95661e-317)
(0.477305 -0.0520096 -2.16651e-317)
(0.53222 -0.747065 -1.80286e-317)
(0.313893 -0.646268 -9.46353e-318)
(0.228139 -1.92124 2.89999e-317)
(0.387629 0.824722 1.82549e-316)
(0.230517 0.526811 1.22376e-316)
(0.561987 0.464394 9.31663e-317)
(0.543737 0.20412 6.80302e-317)
(0.71486 0.197922 5.21265e-317)
(0.730435 0.0676957 3.95303e-317)
(0.809498 0.0790229 2.97982e-317)
(0.830908 0.0200771 2.18315e-317)
(0.854428 0.0415536 1.51091e-317)
(0.884828 0.00693271 9.27297e-318)
(0.86859 0.0379177 4.01711e-318)
(0.91371 -0.00274151 -8.74531e-319)
(0.850894 0.0424275 -5.50705e-318)
(0.913173 -0.0455757 -1.00229e-317)
(0.768769 0.0258705 -1.4406e-317)
(0.842969 -0.207537 -1.91216e-317)
(0.556936 -0.0730053 -2.36726e-317)
(0.599189 -0.648908 -3.28662e-317)
(0.192679 -0.434066 -4.16229e-317)
(-0.00125596 -1.2213 -7.56614e-317)
(0.384638 0.7393 1.78954e-316)
(0.27227 0.507099 1.45234e-316)
(0.722966 0.390445 1.09071e-316)
(0.690935 0.148145 8.17341e-317)
(0.882794 0.13624 6.11298e-317)
(0.876288 0.0319894 4.55012e-317)
(0.951848 0.0500393 3.36005e-317)
(0.963123 0.0113575 2.41419e-317)
(0.982617 0.0382424 1.6433e-317)
(1.01605 0.0199178 9.85398e-318)
(1.00008 0.0557679 4.04268e-318)
(1.06432 0.0349276 -1.32199e-318)
(1.0075 0.0888498 -6.39484e-318)
(1.11826 0.0334528 -1.12118e-317)
(0.980756 0.123967 -1.55325e-317)
(1.17236 -0.0648183 -1.86973e-317)
(0.843019 0.10815 -1.92423e-317)
(1.20029 -0.506733 -1.19191e-317)
(0.423495 -0.252054 3.28672e-318)
(1.03705 -1.76314 6.05763e-317)
(1.02354 0.432742 1.20934e-316)
(0.529514 0.324581 5.90946e-317)
(0.974122 0.211287 4.60116e-317)
(0.924449 0.103948 3.30575e-317)
(1.09315 0.0832285 2.65071e-317)
(1.08879 0.0226145 2.07576e-317)
(1.15556 0.0252979 1.61909e-317)
(1.15771 0.000389506 1.22011e-317)
(1.1771 0.0109188 8.68388e-318)
(1.19347 -0.00183309 5.51373e-318)
(1.18617 0.0132803 2.59972e-318)
(1.22431 -0.0019164 -9.99544e-320)
(1.18529 0.0184501 -2.60275e-318)
(1.25126 -0.0196615 -4.93703e-318)
(1.13991 0.00723616 -7.08179e-318)
(1.24241 -0.110102 -9.36644e-318)
(0.95265 -0.0697073 -1.17772e-317)
(1.0807 -0.384465 -1.83082e-317)
(0.494962 -0.318764 -2.72629e-317)
(0.168284 -0.384763 -5.98303e-317)
(-0.227867 -0.146265 5.24685e-316)
(0.72126 0.52299 3.2802e-316)
(1.33809 0.158194 2.24433e-316)
(1.39423 0.0763824 1.54242e-316)
(1.66201 0.0396568 1.10647e-316)
(1.61363 -0.00585995 7.99591e-317)
(1.68587 0.00922747 5.7827e-317)
(1.67382 -0.00245719 4.08701e-317)
(1.67911 0.0174251 2.72766e-317)
(1.72698 0.0143227 1.5828e-317)
(1.7037 0.0389229 5.71578e-318)
(1.82898 0.0363376 -3.71053e-318)
(1.77414 0.0750861 -1.28104e-317)
(2.01344 0.0614739 -2.17402e-317)
(1.86566 0.130351 -3.01639e-317)
(2.28814 0.0454433 -3.69766e-317)
(1.77065 0.198668 -3.92709e-317)
(2.56009 -0.235417 -2.9553e-317)
(0.655931 0.263262 -2.60609e-318)
(2.5106 -1.31296 8.34394e-317)
)
;

boundaryField
{
    cavity
    {
        type            myImplicitVelocity;
    }
    lid
    {
        type            fixedValue;
        value           uniform (1 0 0);
    }
    frontAndBack
    {
        type            empty;
    }
}


// ************************************************************************* //
