/*--------------------------------*- C++ -*----------------------------------*\
| =========                 |                                                 |
| \\      /  F ield         | OpenFOAM: The Open Source CFD Toolbox           |
|  \\    /   O peration     | Version:  2.2.0                                 |
|   \\  /    A nd           | Web:      www.OpenFOAM.org                      |
|    \\/     M anipulation  |                                                 |
\*---------------------------------------------------------------------------*/
FoamFile
{
    version     2.0;
    format      ascii;
    class       volVectorField;
    location    "3.7";
    object      s;
}
// * * * * * * * * * * * * * * * * * * * * * * * * * * * * * * * * * * * * * //

dimensions      [0 1 -1 0 0 0 0];

internalField   nonuniform List<vector> 
1600
(
(1.76757 0.06945 0)
(1.50175 0.0590042 0)
(1.30359 0.0512185 0)
(1.15187 0.0452571 0)
(1.03163 0.0405327 0)
(0.934076 0.0367 0)
(0.853359 0.0335286 0)
(0.785472 0.0308613 0)
(0.727588 0.028587 0)
(0.67765 0.026625 0)
(0.634131 0.0249151 0)
(0.595869 0.0234118 0)
(0.561968 0.0220798 0)
(0.531723 0.0208915 0)
(0.504574 0.0198248 0)
(0.480071 0.018862 0)
(0.457838 0.0179885 0)
(0.437612 0.0171938 0)
(0.418992 0.0164622 0)
(0.402152 0.0158006 0)
(1.75667 0.207919 0)
(1.49249 0.176649 0)
(1.29556 0.15334 0)
(1.14477 0.135492 0)
(1.02527 0.121348 0)
(0.928317 0.109874 0)
(0.848098 0.100379 0)
(0.78063 0.0923936 0)
(0.723102 0.0855847 0)
(0.673472 0.0797107 0)
(0.630221 0.0745916 0)
(0.592195 0.0700909 0)
(0.558503 0.0661032 0)
(0.528445 0.0625455 0)
(0.501463 0.0593521 0)
(0.477111 0.0564698 0)
(0.455016 0.0538546 0)
(0.434914 0.0514754 0)
(0.416408 0.0492852 0)
(0.399672 0.0473043 0)
(1.73494 0.345106 0)
(1.47403 0.293204 0)
(1.27953 0.254516 0)
(1.13061 0.224892 0)
(1.01258 0.201416 0)
(0.916835 0.18237 0)
(0.837608 0.166611 0)
(0.770974 0.153356 0)
(0.714158 0.142055 0)
(0.665142 0.132305 0)
(0.622426 0.123808 0)
(0.584871 0.116338 0)
(0.551595 0.109719 0)
(0.521908 0.103814 0)
(0.495261 0.0985134 0)
(0.47121 0.0937294 0)
(0.449388 0.0893887 0)
(0.429534 0.0854396 0)
(0.411258 0.0818042 0)
(0.394729 0.0785164 0)
(1.70251 0.480163 0)
(1.44648 0.40795 0)
(1.25562 0.354122 0)
(1.10948 0.312906 0)
(0.993659 0.280241 0)
(0.8997 0.253742 0)
(0.821954 0.231815 0)
(0.756565 0.213373 0)
(0.700811 0.197649 0)
(0.652711 0.184083 0)
(0.610793 0.172261 0)
(0.57394 0.161868 0)
(0.541286 0.152658 0)
(0.512154 0.144442 0)
(0.486005 0.137067 0)
(0.462403 0.130411 0)
(0.440989 0.124372 0)
(0.421506 0.118877 0)
(0.403572 0.113819 0)
(0.387352 0.109244 0)
(1.65959 0.61226 0)
(1.41001 0.520182 0)
(1.22396 0.451545 0)
(1.08151 0.39899 0)
(0.968609 0.357339 0)
(0.877018 0.323549 0)
(0.801232 0.29559 0)
(0.737492 0.272075 0)
(0.683143 0.252025 0)
(0.636256 0.234727 0)
(0.595395 0.219653 0)
(0.559471 0.206399 0)
(0.52764 0.194657 0)
(0.499243 0.18418 0)
(0.473752 0.174776 0)
(0.450746 0.166289 0)
(0.429871 0.158588 0)
(0.41088 0.151582 0)
(0.393397 0.145132 0)
(0.377586 0.139299 0)
(1.60644 0.740581 0)
(1.36485 0.629206 0)
(1.18476 0.546184 0)
(1.04687 0.482614 0)
(0.937586 0.432233 0)
(0.848929 0.391362 0)
(0.77557 0.357543 0)
(0.713872 0.329099 0)
(0.661264 0.304846 0)
(0.615878 0.283924 0)
(0.576326 0.26569 0)
(0.541552 0.249659 0)
(0.510741 0.235455 0)
(0.483253 0.222783 0)
(0.458579 0.211408 0)
(0.436309 0.201141 0)
(0.416104 0.191826 0)
(0.39772 0.183352 0)
(0.380798 0.17555 0)
(0.365493 0.168495 0)
(1.54338 0.864337 0)
(1.31127 0.734351 0)
(1.13826 0.637455 0)
(1.00578 0.563262 0)
(0.900783 0.504463 0)
(0.815606 0.456761 0)
(0.745127 0.417291 0)
(0.68585 0.384094 0)
(0.635307 0.355789 0)
(0.591703 0.331369 0)
(0.553704 0.310089 0)
(0.520295 0.291379 0)
(0.490693 0.274801 0)
(0.464284 0.260011 0)
(0.440579 0.246736 0)
(0.419183 0.234754 0)
(0.39977 0.223882 0)
(0.382109 0.213991 0)
(0.36585 0.204886 0)
(0.351146 0.196651 0)
(1.47081 0.982764 0)
(1.24962 0.834968 0)
(1.08473 0.724797 0)
(0.958483 0.640438 0)
(0.858427 0.573582 0)
(0.777255 0.519345 0)
(0.71009 0.474466 0)
(0.6536 0.436721 0)
(0.605434 0.404538 0)
(0.56388 0.376772 0)
(0.527667 0.352576 0)
(0.495829 0.331302 0)
(0.46762 0.312453 0)
(0.442453 0.295637 0)
(0.419862 0.280542 0)
(0.399472 0.266919 0)
(0.380972 0.254557 0)
(0.364141 0.243311 0)
(0.348647 0.232959 0)
(0.334635 0.223596 0)
(1.38917 1.09513 0)
(1.18025 0.930437 0)
(1.02452 0.807669 0)
(0.90528 0.713665 0)
(0.810778 0.639165 0)
(0.734112 0.578727 0)
(0.670674 0.528717 0)
(0.617321 0.486656 0)
(0.571828 0.450792 0)
(0.532581 0.419852 0)
(0.498378 0.392889 0)
(0.468307 0.369183 0)
(0.441663 0.348179 0)
(0.417893 0.32944 0)
(0.396556 0.312619 0)
(0.377298 0.297438 0)
(0.359826 0.283663 0)
(0.343929 0.271131 0)
(0.329295 0.259595 0)
(0.31606 0.249162 0)
(1.29896 1.20075 0)
(1.10361 1.02017 0)
(0.957997 0.885563 0)
(0.846496 0.782492 0)
(0.75813 0.700808 0)
(0.686442 0.63454 0)
(0.627124 0.579707 0)
(0.577235 0.53359 0)
(0.534696 0.494268 0)
(0.497998 0.460344 0)
(0.466016 0.43078 0)
(0.437898 0.404788 0)
(0.412984 0.381758 0)
(0.390757 0.361212 0)
(0.370806 0.342769 0)
(0.352799 0.326123 0)
(0.33646 0.311021 0)
(0.321596 0.29728 0)
(0.307912 0.284631 0)
(0.295537 0.273191 0)
(1.20075 1.29896 0)
(1.02017 1.10361 0)
(0.885563 0.957996 0)
(0.782493 0.846495 0)
(0.700808 0.75813 0)
(0.634541 0.686442 0)
(0.579708 0.627124 0)
(0.533591 0.577234 0)
(0.494268 0.534696 0)
(0.460344 0.497997 0)
(0.430781 0.466015 0)
(0.404789 0.437897 0)
(0.381758 0.412984 0)
(0.361212 0.390757 0)
(0.342769 0.370806 0)
(0.326124 0.352798 0)
(0.311021 0.33646 0)
(0.29728 0.321596 0)
(0.284631 0.307912 0)
(0.273191 0.295537 0)
(1.09513 1.38917 0)
(0.930438 1.18025 0)
(0.80767 1.02452 0)
(0.713666 0.905279 0)
(0.639166 0.810777 0)
(0.578727 0.734111 0)
(0.528717 0.670674 0)
(0.486656 0.61732 0)
(0.450793 0.571827 0)
(0.419853 0.53258 0)
(0.39289 0.498377 0)
(0.369184 0.468307 0)
(0.348179 0.441663 0)
(0.32944 0.417893 0)
(0.31262 0.396556 0)
(0.297438 0.377298 0)
(0.283664 0.359825 0)
(0.271131 0.343928 0)
(0.259595 0.329295 0)
(0.249162 0.31606 0)
(0.982764 1.47081 0)
(0.834968 1.24962 0)
(0.724797 1.08473 0)
(0.640438 0.958482 0)
(0.573583 0.858426 0)
(0.519345 0.777254 0)
(0.474467 0.710089 0)
(0.436722 0.653599 0)
(0.404538 0.605433 0)
(0.376773 0.56388 0)
(0.352576 0.527667 0)
(0.331303 0.495829 0)
(0.312453 0.467619 0)
(0.295637 0.442452 0)
(0.280543 0.419861 0)
(0.266919 0.399472 0)
(0.254557 0.380972 0)
(0.243311 0.364141 0)
(0.232959 0.348647 0)
(0.223596 0.334635 0)
(0.864337 1.54338 0)
(0.734351 1.31127 0)
(0.637456 1.13826 0)
(0.563263 1.00578 0)
(0.504463 0.900783 0)
(0.456762 0.815606 0)
(0.417291 0.745126 0)
(0.384095 0.685849 0)
(0.355789 0.635306 0)
(0.33137 0.591703 0)
(0.310089 0.553703 0)
(0.291379 0.520294 0)
(0.274801 0.490692 0)
(0.260012 0.464283 0)
(0.246736 0.440578 0)
(0.234754 0.419182 0)
(0.223882 0.39977 0)
(0.213991 0.382108 0)
(0.204886 0.36585 0)
(0.196651 0.351146 0)
(0.740581 1.60644 0)
(0.629206 1.36485 0)
(0.546184 1.18476 0)
(0.482614 1.04687 0)
(0.432234 0.937586 0)
(0.391362 0.848928 0)
(0.357543 0.775569 0)
(0.3291 0.713871 0)
(0.304847 0.661263 0)
(0.283924 0.615877 0)
(0.26569 0.576325 0)
(0.249659 0.541551 0)
(0.235455 0.51074 0)
(0.222783 0.483252 0)
(0.211408 0.458578 0)
(0.201141 0.436309 0)
(0.191826 0.416103 0)
(0.183352 0.39772 0)
(0.17555 0.380797 0)
(0.168494 0.365493 0)
(0.61226 1.65959 0)
(0.520182 1.41001 0)
(0.451545 1.22396 0)
(0.39899 1.08151 0)
(0.357339 0.968608 0)
(0.32355 0.877017 0)
(0.29559 0.801231 0)
(0.272075 0.737491 0)
(0.252025 0.683142 0)
(0.234727 0.636255 0)
(0.219653 0.595394 0)
(0.2064 0.55947 0)
(0.194657 0.527639 0)
(0.18418 0.499242 0)
(0.174776 0.473752 0)
(0.166289 0.450745 0)
(0.158588 0.429871 0)
(0.151582 0.41088 0)
(0.145132 0.393397 0)
(0.139299 0.377586 0)
(0.480163 1.70251 0)
(0.407951 1.44648 0)
(0.354122 1.25562 0)
(0.312906 1.10948 0)
(0.280242 0.993659 0)
(0.253742 0.899699 0)
(0.231815 0.821953 0)
(0.213374 0.756564 0)
(0.197649 0.70081 0)
(0.184084 0.65271 0)
(0.172262 0.610793 0)
(0.161868 0.573939 0)
(0.152659 0.541285 0)
(0.144443 0.512154 0)
(0.137068 0.486004 0)
(0.130411 0.462402 0)
(0.124372 0.440988 0)
(0.118877 0.421506 0)
(0.113819 0.403571 0)
(0.109244 0.387351 0)
(0.345105 1.73494 0)
(0.293204 1.47402 0)
(0.254516 1.27953 0)
(0.224893 1.13061 0)
(0.201416 1.01258 0)
(0.18237 0.916834 0)
(0.166611 0.837607 0)
(0.153357 0.770973 0)
(0.142055 0.714157 0)
(0.132305 0.665141 0)
(0.123809 0.622425 0)
(0.116338 0.58487 0)
(0.109719 0.551594 0)
(0.103814 0.521908 0)
(0.0985136 0.49526 0)
(0.0937295 0.471209 0)
(0.0893888 0.449387 0)
(0.0854396 0.429533 0)
(0.0818042 0.411257 0)
(0.0785164 0.394728 0)
(0.207919 1.75667 0)
(0.176649 1.49249 0)
(0.15334 1.29556 0)
(0.135493 1.14477 0)
(0.121349 1.02526 0)
(0.109874 0.928316 0)
(0.100379 0.848097 0)
(0.092394 0.780629 0)
(0.0855852 0.723101 0)
(0.0797111 0.673471 0)
(0.0745919 0.63022 0)
(0.0700912 0.592195 0)
(0.0661034 0.558502 0)
(0.0625458 0.528444 0)
(0.0593523 0.501463 0)
(0.0564699 0.47711 0)
(0.0538547 0.455015 0)
(0.0514754 0.434913 0)
(0.0492852 0.416408 0)
(0.0473043 0.399672 0)
(0.0694502 1.76757 0)
(0.0590045 1.50174 0)
(0.0512189 1.30359 0)
(0.0452576 1.15187 0)
(0.0405332 1.03162 0)
(0.0367005 0.934075 0)
(0.0335291 0.853358 0)
(0.0308618 0.785471 0)
(0.0285875 0.727587 0)
(0.0266254 0.677649 0)
(0.0249155 0.63413 0)
(0.0234121 0.595868 0)
(0.0220801 0.561967 0)
(0.0208917 0.531722 0)
(0.019825 0.504573 0)
(0.0188622 0.48007 0)
(0.0179887 0.457838 0)
(0.0171939 0.437611 0)
(0.0164623 0.418991 0)
(0.0158006 0.402151 0)
(-0.0694499 1.76757 0)
(-0.0590039 1.50174 0)
(-0.0512181 1.30359 0)
(-0.0452567 1.15187 0)
(-0.0405322 1.03162 0)
(-0.0366994 0.934075 0)
(-0.033528 0.853358 0)
(-0.0308608 0.785471 0)
(-0.0285865 0.727587 0)
(-0.0266244 0.677649 0)
(-0.0249146 0.63413 0)
(-0.0234114 0.595868 0)
(-0.0220794 0.561967 0)
(-0.0208911 0.531722 0)
(-0.0198245 0.504573 0)
(-0.0188618 0.48007 0)
(-0.0179883 0.457838 0)
(-0.0171937 0.437611 0)
(-0.0164621 0.418991 0)
(-0.0158005 0.402151 0)
(-0.207919 1.75667 0)
(-0.176648 1.49249 0)
(-0.153339 1.29556 0)
(-0.135492 1.14477 0)
(-0.121348 1.02526 0)
(-0.109873 0.928316 0)
(-0.100378 0.848097 0)
(-0.092393 0.780629 0)
(-0.0855841 0.723101 0)
(-0.0797101 0.673471 0)
(-0.0745911 0.63022 0)
(-0.0700905 0.592195 0)
(-0.0661027 0.558502 0)
(-0.0625451 0.528444 0)
(-0.0593517 0.501462 0)
(-0.0564695 0.47711 0)
(-0.0538544 0.455015 0)
(-0.0514752 0.434913 0)
(-0.049285 0.416408 0)
(-0.0473042 0.399672 0)
(-0.345105 1.73494 0)
(-0.293203 1.47402 0)
(-0.254515 1.27953 0)
(-0.224892 1.13061 0)
(-0.201415 1.01258 0)
(-0.182369 0.916834 0)
(-0.16661 0.837607 0)
(-0.153356 0.770973 0)
(-0.142054 0.714157 0)
(-0.132304 0.665141 0)
(-0.123808 0.622425 0)
(-0.116337 0.58487 0)
(-0.109719 0.551594 0)
(-0.103814 0.521908 0)
(-0.098513 0.49526 0)
(-0.093729 0.471209 0)
(-0.0893884 0.449387 0)
(-0.0854394 0.429533 0)
(-0.081804 0.411257 0)
(-0.0785163 0.394728 0)
(-0.480163 1.70251 0)
(-0.40795 1.44648 0)
(-0.354121 1.25562 0)
(-0.312905 1.10948 0)
(-0.28024 0.993659 0)
(-0.253741 0.899699 0)
(-0.231814 0.821953 0)
(-0.213373 0.756564 0)
(-0.197648 0.70081 0)
(-0.184083 0.65271 0)
(-0.172261 0.610793 0)
(-0.161867 0.573939 0)
(-0.152658 0.541285 0)
(-0.144442 0.512154 0)
(-0.137067 0.486004 0)
(-0.130411 0.462402 0)
(-0.124371 0.440988 0)
(-0.118877 0.421506 0)
(-0.113819 0.403571 0)
(-0.109244 0.387351 0)
(-0.612259 1.65959 0)
(-0.520181 1.41001 0)
(-0.451544 1.22396 0)
(-0.398989 1.08151 0)
(-0.357338 0.968608 0)
(-0.323548 0.877017 0)
(-0.295589 0.801231 0)
(-0.272074 0.737491 0)
(-0.252024 0.683142 0)
(-0.234726 0.636255 0)
(-0.219652 0.595394 0)
(-0.206399 0.55947 0)
(-0.194656 0.527639 0)
(-0.18418 0.499242 0)
(-0.174776 0.473752 0)
(-0.166288 0.450745 0)
(-0.158587 0.429871 0)
(-0.151581 0.410879 0)
(-0.145132 0.393397 0)
(-0.139299 0.377586 0)
(-0.740581 1.60644 0)
(-0.629205 1.36485 0)
(-0.546183 1.18476 0)
(-0.482613 1.04687 0)
(-0.432233 0.937585 0)
(-0.391361 0.848928 0)
(-0.357542 0.775569 0)
(-0.329098 0.713871 0)
(-0.304846 0.661263 0)
(-0.283923 0.615877 0)
(-0.265689 0.576325 0)
(-0.249658 0.541551 0)
(-0.235454 0.51074 0)
(-0.222782 0.483252 0)
(-0.211407 0.458578 0)
(-0.201141 0.436309 0)
(-0.191826 0.416103 0)
(-0.183351 0.39772 0)
(-0.17555 0.380797 0)
(-0.168494 0.365493 0)
(-0.864336 1.54338 0)
(-0.73435 1.31127 0)
(-0.637455 1.13826 0)
(-0.563261 1.00578 0)
(-0.504462 0.900783 0)
(-0.456761 0.815605 0)
(-0.41729 0.745126 0)
(-0.384094 0.685849 0)
(-0.355788 0.635306 0)
(-0.331369 0.591702 0)
(-0.310088 0.553703 0)
(-0.291378 0.520294 0)
(-0.2748 0.490692 0)
(-0.260011 0.464283 0)
(-0.246735 0.440578 0)
(-0.234753 0.419182 0)
(-0.223881 0.39977 0)
(-0.213991 0.382108 0)
(-0.204886 0.36585 0)
(-0.196651 0.351146 0)
(-0.982763 1.47081 0)
(-0.834967 1.24962 0)
(-0.724796 1.08473 0)
(-0.640437 0.958482 0)
(-0.573582 0.858426 0)
(-0.519344 0.777254 0)
(-0.474465 0.710089 0)
(-0.436721 0.653599 0)
(-0.404537 0.605433 0)
(-0.376772 0.563879 0)
(-0.352575 0.527667 0)
(-0.331302 0.495829 0)
(-0.312452 0.467619 0)
(-0.295636 0.442452 0)
(-0.280542 0.419861 0)
(-0.266918 0.399471 0)
(-0.254557 0.380972 0)
(-0.243311 0.364141 0)
(-0.232958 0.348647 0)
(-0.223595 0.334634 0)
(-1.09513 1.38916 0)
(-0.930437 1.18025 0)
(-0.807669 1.02452 0)
(-0.713664 0.905279 0)
(-0.639165 0.810777 0)
(-0.578726 0.734111 0)
(-0.528716 0.670673 0)
(-0.486655 0.61732 0)
(-0.450791 0.571827 0)
(-0.419852 0.53258 0)
(-0.392888 0.498377 0)
(-0.369182 0.468306 0)
(-0.348178 0.441663 0)
(-0.329439 0.417892 0)
(-0.312619 0.396556 0)
(-0.297437 0.377298 0)
(-0.283663 0.359825 0)
(-0.271131 0.343928 0)
(-0.259595 0.329294 0)
(-0.249161 0.31606 0)
(-1.20075 1.29896 0)
(-1.02017 1.10361 0)
(-0.885562 0.957996 0)
(-0.782492 0.846495 0)
(-0.700807 0.758129 0)
(-0.634539 0.686441 0)
(-0.579706 0.627123 0)
(-0.533589 0.577234 0)
(-0.494267 0.534696 0)
(-0.460343 0.497997 0)
(-0.430779 0.466015 0)
(-0.404787 0.437897 0)
(-0.381757 0.412983 0)
(-0.361211 0.390757 0)
(-0.342768 0.370805 0)
(-0.326123 0.352798 0)
(-0.31102 0.33646 0)
(-0.297279 0.321595 0)
(-0.28463 0.307912 0)
(-0.273191 0.295536 0)
(-1.29896 1.20075 0)
(-1.10361 1.02017 0)
(-0.957995 0.885562 0)
(-0.846494 0.782492 0)
(-0.758129 0.700808 0)
(-0.686441 0.63454 0)
(-0.627123 0.579707 0)
(-0.577233 0.53359 0)
(-0.534695 0.494267 0)
(-0.497996 0.460344 0)
(-0.466014 0.43078 0)
(-0.437896 0.404788 0)
(-0.412983 0.381758 0)
(-0.390756 0.361212 0)
(-0.370805 0.342769 0)
(-0.352798 0.326123 0)
(-0.336459 0.31102 0)
(-0.321595 0.29728 0)
(-0.307911 0.284631 0)
(-0.295536 0.273191 0)
(-1.38916 1.09513 0)
(-1.18025 0.930437 0)
(-1.02452 0.807669 0)
(-0.905279 0.713665 0)
(-0.810776 0.639165 0)
(-0.73411 0.578726 0)
(-0.670673 0.528716 0)
(-0.617319 0.486656 0)
(-0.571826 0.450792 0)
(-0.532579 0.419852 0)
(-0.498376 0.392889 0)
(-0.468306 0.369183 0)
(-0.441662 0.348179 0)
(-0.417892 0.32944 0)
(-0.396555 0.312619 0)
(-0.377297 0.297438 0)
(-0.359825 0.283663 0)
(-0.343928 0.271131 0)
(-0.329294 0.259595 0)
(-0.316059 0.249161 0)
(-1.47081 0.982763 0)
(-1.24961 0.834967 0)
(-1.08473 0.724796 0)
(-0.958481 0.640438 0)
(-0.858425 0.573582 0)
(-0.777253 0.519345 0)
(-0.710088 0.474466 0)
(-0.653599 0.436721 0)
(-0.605432 0.404537 0)
(-0.563879 0.376772 0)
(-0.527666 0.352576 0)
(-0.495828 0.331302 0)
(-0.467618 0.312453 0)
(-0.442451 0.295637 0)
(-0.41986 0.280542 0)
(-0.399471 0.266918 0)
(-0.380971 0.254557 0)
(-0.36414 0.243311 0)
(-0.348646 0.232958 0)
(-0.334634 0.223595 0)
(-1.54338 0.864336 0)
(-1.31127 0.73435 0)
(-1.13826 0.637455 0)
(-1.00577 0.563262 0)
(-0.900782 0.504463 0)
(-0.815605 0.456761 0)
(-0.745125 0.417291 0)
(-0.685848 0.384094 0)
(-0.635305 0.355789 0)
(-0.591702 0.331369 0)
(-0.553702 0.310088 0)
(-0.520293 0.291378 0)
(-0.490691 0.274801 0)
(-0.464283 0.260011 0)
(-0.440577 0.246735 0)
(-0.419182 0.234753 0)
(-0.399769 0.223882 0)
(-0.382108 0.213991 0)
(-0.365849 0.204886 0)
(-0.351146 0.196651 0)
(-1.60644 0.740581 0)
(-1.36485 0.629206 0)
(-1.18476 0.546184 0)
(-1.04687 0.482613 0)
(-0.937585 0.432233 0)
(-0.848927 0.391361 0)
(-0.775568 0.357542 0)
(-0.71387 0.329099 0)
(-0.661262 0.304846 0)
(-0.615876 0.283923 0)
(-0.576324 0.265689 0)
(-0.54155 0.249658 0)
(-0.510739 0.235454 0)
(-0.483252 0.222782 0)
(-0.458578 0.211407 0)
(-0.436308 0.201141 0)
(-0.416102 0.191826 0)
(-0.397719 0.183351 0)
(-0.380797 0.17555 0)
(-0.365492 0.168494 0)
(-1.65959 0.612259 0)
(-1.41001 0.520182 0)
(-1.22396 0.451545 0)
(-1.08151 0.398989 0)
(-0.968607 0.357339 0)
(-0.877016 0.323549 0)
(-0.80123 0.29559 0)
(-0.73749 0.272075 0)
(-0.683141 0.252024 0)
(-0.636254 0.234727 0)
(-0.595393 0.219653 0)
(-0.559469 0.206399 0)
(-0.527638 0.194656 0)
(-0.499241 0.18418 0)
(-0.473751 0.174776 0)
(-0.450744 0.166288 0)
(-0.42987 0.158588 0)
(-0.410879 0.151581 0)
(-0.393396 0.145132 0)
(-0.377585 0.139299 0)
(-1.70251 0.480163 0)
(-1.44647 0.40795 0)
(-1.25562 0.354122 0)
(-1.10948 0.312905 0)
(-0.993658 0.280241 0)
(-0.899698 0.253741 0)
(-0.821952 0.231815 0)
(-0.756563 0.213373 0)
(-0.700809 0.197649 0)
(-0.652709 0.184083 0)
(-0.610792 0.172261 0)
(-0.573938 0.161867 0)
(-0.541284 0.152658 0)
(-0.512153 0.144442 0)
(-0.486003 0.137067 0)
(-0.462401 0.130411 0)
(-0.440988 0.124371 0)
(-0.421505 0.118877 0)
(-0.40357 0.113819 0)
(-0.387351 0.109244 0)
(-1.73494 0.345105 0)
(-1.47402 0.293203 0)
(-1.27953 0.254515 0)
(-1.13061 0.224892 0)
(-1.01258 0.201415 0)
(-0.916833 0.18237 0)
(-0.837606 0.16661 0)
(-0.770972 0.153356 0)
(-0.714156 0.142055 0)
(-0.66514 0.132305 0)
(-0.622424 0.123808 0)
(-0.584869 0.116338 0)
(-0.551593 0.109719 0)
(-0.521907 0.103814 0)
(-0.495259 0.0985133 0)
(-0.471208 0.0937292 0)
(-0.449386 0.0893885 0)
(-0.429533 0.0854394 0)
(-0.411256 0.081804 0)
(-0.394728 0.0785162 0)
(-1.75667 0.207919 0)
(-1.49248 0.176648 0)
(-1.29556 0.15334 0)
(-1.14477 0.135492 0)
(-1.02526 0.121348 0)
(-0.928315 0.109873 0)
(-0.848096 0.100379 0)
(-0.780628 0.0923935 0)
(-0.7231 0.0855846 0)
(-0.67347 0.0797106 0)
(-0.630219 0.0745915 0)
(-0.592194 0.0700908 0)
(-0.558501 0.0661031 0)
(-0.528443 0.0625454 0)
(-0.501462 0.0593519 0)
(-0.477109 0.0564697 0)
(-0.455014 0.0538545 0)
(-0.434912 0.0514753 0)
(-0.416407 0.049285 0)
(-0.399671 0.0473042 0)
(-1.76757 0.06945 0)
(-1.50174 0.0590041 0)
(-1.30359 0.0512184 0)
(-1.15187 0.0452571 0)
(-1.03162 0.0405326 0)
(-0.934074 0.0366999 0)
(-0.853357 0.0335285 0)
(-0.78547 0.0308612 0)
(-0.727586 0.0285869 0)
(-0.677648 0.0266249 0)
(-0.634129 0.024915 0)
(-0.595867 0.0234117 0)
(-0.561966 0.0220797 0)
(-0.531721 0.0208914 0)
(-0.504572 0.0198247 0)
(-0.480069 0.018862 0)
(-0.457837 0.0179885 0)
(-0.43761 0.0171937 0)
(-0.41899 0.0164622 0)
(-0.402151 0.0158005 0)
(-1.76757 -0.06945 0)
(-1.50174 -0.0590043 0)
(-1.30359 -0.0512186 0)
(-1.15187 -0.0452572 0)
(-1.03162 -0.0405328 0)
(-0.934074 -0.0367 0)
(-0.853357 -0.0335286 0)
(-0.78547 -0.0308613 0)
(-0.727586 -0.028587 0)
(-0.677648 -0.026625 0)
(-0.634129 -0.0249151 0)
(-0.595867 -0.0234118 0)
(-0.561966 -0.0220798 0)
(-0.531721 -0.0208915 0)
(-0.504572 -0.0198248 0)
(-0.480069 -0.018862 0)
(-0.457837 -0.0179885 0)
(-0.43761 -0.0171938 0)
(-0.41899 -0.0164622 0)
(-0.402151 -0.0158005 0)
(-1.75667 -0.207919 0)
(-1.49248 -0.176649 0)
(-1.29556 -0.15334 0)
(-1.14477 -0.135492 0)
(-1.02526 -0.121348 0)
(-0.928315 -0.109874 0)
(-0.848096 -0.100379 0)
(-0.780628 -0.0923936 0)
(-0.7231 -0.0855847 0)
(-0.67347 -0.0797107 0)
(-0.630219 -0.0745916 0)
(-0.592194 -0.0700909 0)
(-0.558501 -0.0661031 0)
(-0.528443 -0.0625455 0)
(-0.501462 -0.059352 0)
(-0.477109 -0.0564697 0)
(-0.455014 -0.0538546 0)
(-0.434912 -0.0514753 0)
(-0.416407 -0.049285 0)
(-0.399671 -0.0473042 0)
(-1.73494 -0.345105 0)
(-1.47402 -0.293203 0)
(-1.27953 -0.254516 0)
(-1.13061 -0.224892 0)
(-1.01258 -0.201416 0)
(-0.916833 -0.18237 0)
(-0.837606 -0.166611 0)
(-0.770972 -0.153356 0)
(-0.714156 -0.142055 0)
(-0.66514 -0.132305 0)
(-0.622424 -0.123808 0)
(-0.584869 -0.116338 0)
(-0.551593 -0.109719 0)
(-0.521907 -0.103814 0)
(-0.495259 -0.0985133 0)
(-0.471208 -0.0937292 0)
(-0.449386 -0.0893886 0)
(-0.429533 -0.0854395 0)
(-0.411256 -0.081804 0)
(-0.394728 -0.0785162 0)
(-1.70251 -0.480163 0)
(-1.44647 -0.40795 0)
(-1.25562 -0.354122 0)
(-1.10948 -0.312905 0)
(-0.993658 -0.280241 0)
(-0.899698 -0.253742 0)
(-0.821952 -0.231815 0)
(-0.756563 -0.213373 0)
(-0.700809 -0.197649 0)
(-0.652709 -0.184083 0)
(-0.610792 -0.172261 0)
(-0.573938 -0.161868 0)
(-0.541285 -0.152658 0)
(-0.512153 -0.144442 0)
(-0.486003 -0.137067 0)
(-0.462402 -0.130411 0)
(-0.440988 -0.124372 0)
(-0.421505 -0.118877 0)
(-0.40357 -0.113819 0)
(-0.387351 -0.109244 0)
(-1.65959 -0.612259 0)
(-1.41001 -0.520182 0)
(-1.22396 -0.451545 0)
(-1.08151 -0.398989 0)
(-0.968607 -0.357339 0)
(-0.877016 -0.323549 0)
(-0.80123 -0.29559 0)
(-0.73749 -0.272075 0)
(-0.683141 -0.252025 0)
(-0.636254 -0.234727 0)
(-0.595393 -0.219653 0)
(-0.559469 -0.206399 0)
(-0.527639 -0.194656 0)
(-0.499241 -0.18418 0)
(-0.473751 -0.174776 0)
(-0.450744 -0.166289 0)
(-0.42987 -0.158588 0)
(-0.410879 -0.151581 0)
(-0.393396 -0.145132 0)
(-0.377585 -0.139299 0)
(-1.60644 -0.740581 0)
(-1.36485 -0.629206 0)
(-1.18476 -0.546184 0)
(-1.04687 -0.482614 0)
(-0.937585 -0.432233 0)
(-0.848928 -0.391362 0)
(-0.775568 -0.357543 0)
(-0.71387 -0.329099 0)
(-0.661262 -0.304846 0)
(-0.615877 -0.283923 0)
(-0.576324 -0.26569 0)
(-0.54155 -0.249659 0)
(-0.510739 -0.235455 0)
(-0.483252 -0.222782 0)
(-0.458578 -0.211408 0)
(-0.436308 -0.201141 0)
(-0.416102 -0.191826 0)
(-0.397719 -0.183351 0)
(-0.380797 -0.17555 0)
(-0.365492 -0.168494 0)
(-1.54338 -0.864337 0)
(-1.31127 -0.734351 0)
(-1.13826 -0.637455 0)
(-1.00577 -0.563262 0)
(-0.900782 -0.504463 0)
(-0.815605 -0.456761 0)
(-0.745125 -0.417291 0)
(-0.685848 -0.384094 0)
(-0.635306 -0.355789 0)
(-0.591702 -0.331369 0)
(-0.553702 -0.310089 0)
(-0.520293 -0.291379 0)
(-0.490692 -0.274801 0)
(-0.464283 -0.260011 0)
(-0.440577 -0.246735 0)
(-0.419182 -0.234753 0)
(-0.399769 -0.223882 0)
(-0.382108 -0.213991 0)
(-0.365849 -0.204886 0)
(-0.351146 -0.196651 0)
(-1.47081 -0.982763 0)
(-1.24962 -0.834968 0)
(-1.08473 -0.724797 0)
(-0.958481 -0.640438 0)
(-0.858425 -0.573582 0)
(-0.777253 -0.519345 0)
(-0.710088 -0.474466 0)
(-0.653599 -0.436721 0)
(-0.605432 -0.404538 0)
(-0.563879 -0.376772 0)
(-0.527666 -0.352576 0)
(-0.495828 -0.331302 0)
(-0.467618 -0.312453 0)
(-0.442451 -0.295637 0)
(-0.419861 -0.280542 0)
(-0.399471 -0.266918 0)
(-0.380971 -0.254557 0)
(-0.36414 -0.243311 0)
(-0.348647 -0.232958 0)
(-0.334634 -0.223595 0)
(-1.38916 -1.09513 0)
(-1.18025 -0.930437 0)
(-1.02452 -0.807669 0)
(-0.905279 -0.713665 0)
(-0.810776 -0.639165 0)
(-0.73411 -0.578727 0)
(-0.670673 -0.528717 0)
(-0.617319 -0.486656 0)
(-0.571826 -0.450792 0)
(-0.532579 -0.419852 0)
(-0.498377 -0.392889 0)
(-0.468306 -0.369183 0)
(-0.441662 -0.348179 0)
(-0.417892 -0.32944 0)
(-0.396555 -0.312619 0)
(-0.377297 -0.297438 0)
(-0.359825 -0.283663 0)
(-0.343928 -0.271131 0)
(-0.329294 -0.259595 0)
(-0.31606 -0.249161 0)
(-1.29896 -1.20075 0)
(-1.10361 -1.02017 0)
(-0.957995 -0.885563 0)
(-0.846495 -0.782492 0)
(-0.758129 -0.700808 0)
(-0.686441 -0.63454 0)
(-0.627123 -0.579707 0)
(-0.577234 -0.53359 0)
(-0.534695 -0.494268 0)
(-0.497996 -0.460344 0)
(-0.466015 -0.43078 0)
(-0.437896 -0.404788 0)
(-0.412983 -0.381758 0)
(-0.390756 -0.361212 0)
(-0.370805 -0.342769 0)
(-0.352798 -0.326123 0)
(-0.33646 -0.31102 0)
(-0.321595 -0.29728 0)
(-0.307912 -0.284631 0)
(-0.295536 -0.273191 0)
(-1.20075 -1.29896 0)
(-1.02017 -1.10361 0)
(-0.885562 -0.957996 0)
(-0.782492 -0.846495 0)
(-0.700807 -0.75813 0)
(-0.634539 -0.686442 0)
(-0.579706 -0.627124 0)
(-0.533589 -0.577234 0)
(-0.494267 -0.534696 0)
(-0.460343 -0.497997 0)
(-0.430779 -0.466015 0)
(-0.404787 -0.437897 0)
(-0.381757 -0.412983 0)
(-0.361211 -0.390757 0)
(-0.342769 -0.370805 0)
(-0.326123 -0.352798 0)
(-0.31102 -0.33646 0)
(-0.297279 -0.321595 0)
(-0.284631 -0.307912 0)
(-0.273191 -0.295536 0)
(-1.09513 -1.38917 0)
(-0.930437 -1.18025 0)
(-0.807669 -1.02452 0)
(-0.713664 -0.90528 0)
(-0.639165 -0.810777 0)
(-0.578726 -0.734111 0)
(-0.528716 -0.670674 0)
(-0.486655 -0.61732 0)
(-0.450792 -0.571827 0)
(-0.419852 -0.53258 0)
(-0.392888 -0.498377 0)
(-0.369183 -0.468307 0)
(-0.348178 -0.441663 0)
(-0.32944 -0.417893 0)
(-0.312619 -0.396556 0)
(-0.297437 -0.377298 0)
(-0.283663 -0.359825 0)
(-0.271131 -0.343928 0)
(-0.259595 -0.329294 0)
(-0.249161 -0.31606 0)
(-0.982763 -1.47081 0)
(-0.834967 -1.24962 0)
(-0.724796 -1.08473 0)
(-0.640437 -0.958482 0)
(-0.573582 -0.858426 0)
(-0.519344 -0.777254 0)
(-0.474466 -0.710089 0)
(-0.436721 -0.6536 0)
(-0.404537 -0.605433 0)
(-0.376772 -0.56388 0)
(-0.352575 -0.527667 0)
(-0.331302 -0.495829 0)
(-0.312453 -0.467619 0)
(-0.295637 -0.442452 0)
(-0.280542 -0.419861 0)
(-0.266918 -0.399472 0)
(-0.254557 -0.380972 0)
(-0.243311 -0.364141 0)
(-0.232958 -0.348647 0)
(-0.223596 -0.334635 0)
(-0.864337 -1.54338 0)
(-0.73435 -1.31127 0)
(-0.637455 -1.13826 0)
(-0.563261 -1.00578 0)
(-0.504462 -0.900783 0)
(-0.456761 -0.815606 0)
(-0.41729 -0.745126 0)
(-0.384094 -0.68585 0)
(-0.355788 -0.635307 0)
(-0.331369 -0.591703 0)
(-0.310088 -0.553703 0)
(-0.291378 -0.520294 0)
(-0.274801 -0.490692 0)
(-0.260011 -0.464284 0)
(-0.246735 -0.440578 0)
(-0.234753 -0.419182 0)
(-0.223882 -0.39977 0)
(-0.213991 -0.382108 0)
(-0.204886 -0.36585 0)
(-0.196651 -0.351146 0)
(-0.740581 -1.60644 0)
(-0.629206 -1.36485 0)
(-0.546183 -1.18476 0)
(-0.482613 -1.04687 0)
(-0.432233 -0.937586 0)
(-0.391361 -0.848929 0)
(-0.357542 -0.775569 0)
(-0.329099 -0.713871 0)
(-0.304846 -0.661263 0)
(-0.283923 -0.615878 0)
(-0.265689 -0.576325 0)
(-0.249658 -0.541551 0)
(-0.235454 -0.51074 0)
(-0.222782 -0.483253 0)
(-0.211407 -0.458579 0)
(-0.201141 -0.436309 0)
(-0.191826 -0.416103 0)
(-0.183351 -0.39772 0)
(-0.17555 -0.380797 0)
(-0.168494 -0.365493 0)
(-0.612259 -1.65959 0)
(-0.520181 -1.41001 0)
(-0.451545 -1.22396 0)
(-0.398989 -1.08151 0)
(-0.357338 -0.968608 0)
(-0.323548 -0.877018 0)
(-0.295589 -0.801231 0)
(-0.272074 -0.737491 0)
(-0.252024 -0.683143 0)
(-0.234727 -0.636255 0)
(-0.219652 -0.595395 0)
(-0.206399 -0.55947 0)
(-0.194656 -0.52764 0)
(-0.18418 -0.499242 0)
(-0.174776 -0.473752 0)
(-0.166288 -0.450745 0)
(-0.158588 -0.429871 0)
(-0.151581 -0.41088 0)
(-0.145132 -0.393397 0)
(-0.139299 -0.377586 0)
(-0.480163 -1.70251 0)
(-0.40795 -1.44648 0)
(-0.354122 -1.25562 0)
(-0.312905 -1.10948 0)
(-0.280241 -0.993659 0)
(-0.253741 -0.899699 0)
(-0.231814 -0.821953 0)
(-0.213373 -0.756565 0)
(-0.197648 -0.70081 0)
(-0.184083 -0.652711 0)
(-0.172261 -0.610793 0)
(-0.161867 -0.573939 0)
(-0.152658 -0.541286 0)
(-0.144442 -0.512154 0)
(-0.137067 -0.486004 0)
(-0.130411 -0.462403 0)
(-0.124371 -0.440989 0)
(-0.118877 -0.421506 0)
(-0.113819 -0.403571 0)
(-0.109244 -0.387351 0)
(-0.345105 -1.73494 0)
(-0.293203 -1.47402 0)
(-0.254515 -1.27953 0)
(-0.224892 -1.13061 0)
(-0.201415 -1.01258 0)
(-0.182369 -0.916834 0)
(-0.16661 -0.837607 0)
(-0.153356 -0.770973 0)
(-0.142054 -0.714157 0)
(-0.132304 -0.665142 0)
(-0.123808 -0.622426 0)
(-0.116338 -0.58487 0)
(-0.109719 -0.551595 0)
(-0.103814 -0.521908 0)
(-0.0985131 -0.49526 0)
(-0.0937291 -0.471209 0)
(-0.0893885 -0.449387 0)
(-0.0854395 -0.429534 0)
(-0.0818041 -0.411257 0)
(-0.0785164 -0.394729 0)
(-0.207919 -1.75667 0)
(-0.176648 -1.49249 0)
(-0.153339 -1.29556 0)
(-0.135492 -1.14477 0)
(-0.121348 -1.02526 0)
(-0.109873 -0.928317 0)
(-0.100378 -0.848097 0)
(-0.0923931 -0.780629 0)
(-0.0855843 -0.723101 0)
(-0.0797102 -0.673472 0)
(-0.0745912 -0.630221 0)
(-0.0700906 -0.592195 0)
(-0.0661028 -0.558503 0)
(-0.0625452 -0.528444 0)
(-0.0593518 -0.501463 0)
(-0.0564696 -0.477111 0)
(-0.0538545 -0.455015 0)
(-0.0514753 -0.434913 0)
(-0.0492851 -0.416408 0)
(-0.0473043 -0.399672 0)
(-0.0694499 -1.76757 0)
(-0.059004 -1.50174 0)
(-0.0512182 -1.30359 0)
(-0.0452567 -1.15187 0)
(-0.0405323 -1.03163 0)
(-0.0366995 -0.934076 0)
(-0.0335281 -0.853358 0)
(-0.0308608 -0.785472 0)
(-0.0285866 -0.727587 0)
(-0.0266245 -0.67765 0)
(-0.0249147 -0.63413 0)
(-0.0234114 -0.595869 0)
(-0.0220795 -0.561967 0)
(-0.0208912 -0.531723 0)
(-0.0198246 -0.504574 0)
(-0.0188619 -0.48007 0)
(-0.0179884 -0.457838 0)
(-0.0171937 -0.437611 0)
(-0.0164622 -0.418991 0)
(-0.0158005 -0.402152 0)
(1.76757 -0.0694501 0)
(1.75667 -0.207919 0)
(1.73494 -0.345106 0)
(1.70251 -0.480163 0)
(1.65959 -0.61226 0)
(1.60644 -0.740582 0)
(1.54338 -0.864337 0)
(1.47081 -0.982764 0)
(1.38917 -1.09513 0)
(1.29896 -1.20075 0)
(1.20075 -1.29896 0)
(1.09513 -1.38917 0)
(0.982764 -1.47081 0)
(0.864337 -1.54338 0)
(0.740582 -1.60644 0)
(0.61226 -1.65959 0)
(0.480163 -1.70251 0)
(0.345106 -1.73494 0)
(0.207919 -1.75667 0)
(0.0694502 -1.76757 0)
(1.50175 -0.0590043 0)
(1.49249 -0.176649 0)
(1.47403 -0.293204 0)
(1.44648 -0.407951 0)
(1.41001 -0.520182 0)
(1.36485 -0.629206 0)
(1.31128 -0.734351 0)
(1.24962 -0.834968 0)
(1.18025 -0.930438 0)
(1.10361 -1.02017 0)
(1.02017 -1.10361 0)
(0.930438 -1.18025 0)
(0.834968 -1.24962 0)
(0.734351 -1.31127 0)
(0.629206 -1.36485 0)
(0.520182 -1.41001 0)
(0.407951 -1.44648 0)
(0.293204 -1.47402 0)
(0.176649 -1.49249 0)
(0.0590045 -1.50175 0)
(1.30359 -0.0512186 0)
(1.29556 -0.15334 0)
(1.27953 -0.254516 0)
(1.25562 -0.354122 0)
(1.22396 -0.451545 0)
(1.18476 -0.546184 0)
(1.13826 -0.637456 0)
(1.08473 -0.724797 0)
(1.02452 -0.80767 0)
(0.957997 -0.885563 0)
(0.885563 -0.957996 0)
(0.80767 -1.02452 0)
(0.724797 -1.08473 0)
(0.637456 -1.13826 0)
(0.546184 -1.18476 0)
(0.451545 -1.22396 0)
(0.354122 -1.25562 0)
(0.254516 -1.27953 0)
(0.15334 -1.29556 0)
(0.0512189 -1.30359 0)
(1.15187 -0.0452572 0)
(1.14477 -0.135492 0)
(1.13061 -0.224892 0)
(1.10948 -0.312906 0)
(1.08151 -0.39899 0)
(1.04687 -0.482614 0)
(1.00578 -0.563262 0)
(0.958483 -0.640438 0)
(0.90528 -0.713665 0)
(0.846496 -0.782493 0)
(0.782493 -0.846496 0)
(0.713666 -0.90528 0)
(0.640438 -0.958483 0)
(0.563263 -1.00578 0)
(0.482614 -1.04687 0)
(0.39899 -1.08151 0)
(0.312906 -1.10948 0)
(0.224893 -1.13061 0)
(0.135493 -1.14477 0)
(0.0452576 -1.15187 0)
(1.03163 -0.0405327 0)