/*--------------------------------*- C++ -*----------------------------------*\
| =========                 |                                                 |
| \\      /  F ield         | foam-extend: Open Source CFD                    |
|  \\    /   O peration     | Version:  3.0                                   |
|   \\  /    A nd           | Web:         http://www.extend-project.de       |
|    \\/     M anipulation  |                                                 |
\*---------------------------------------------------------------------------*/
FoamFile
{
    version     2.0;
    format      ascii;
    class       volScalarField;
    location    "25";
    object      p;
}
// * * * * * * * * * * * * * * * * * * * * * * * * * * * * * * * * * * * * * //

dimensions      [0 0 0 0 0 0 0];

internalField   nonuniform List<scalar> 
120
(
-0.285284
-0.212507
-0.222091
-0.212234
-0.212383
-0.265902
-0.19806
-0.206986
-0.19779
-0.197926
-0.22828
-0.170046
-0.177716
-0.169829
-0.169949
-0.175224
-0.130518
-0.136398
-0.130337
-0.130426
-0.110108
-0.0820251
-0.0857258
-0.0819237
-0.0819827
-0.0376122
-0.0280168
-0.0292748
-0.0279709
-0.0279891
0.0375666
0.027971
0.0292303
0.027927
0.0279443
0.110062
0.0819784
0.0856804
0.0818787
0.0819369
0.175176
0.130469
0.136351
0.13029
0.130378
0.228229
0.169995
0.177666
0.169779
0.169898
0.265848
0.198006
0.206932
0.197737
0.197873
0.285226
0.212449
0.222034
0.212176
0.212326
0.285286
0.212484
0.222063
0.212196
0.212342
0.265781
0.197964
0.206896
0.197711
0.19785
0.228282
0.170024
0.177688
0.169791
0.169908
0.175103
0.130422
0.136308
0.130258
0.13035
0.110111
0.0820026
0.0856978
0.0818857
0.0819415
0.0374907
0.0279203
0.029184
0.0278904
0.027912
-0.0375649
-0.0279945
-0.0292596
-0.0279666
-0.0279873
-0.110184
-0.0820758
-0.0857723
-0.0819608
-0.0820156
-0.175175
-0.130493
-0.136381
-0.13033
-0.130422
-0.228351
-0.170092
-0.177758
-0.169861
-0.169977
-0.265846
-0.198029
-0.206962
-0.197777
-0.197916
-0.285347
-0.212545
-0.222125
-0.212257
-0.212403
)
;

boundaryField
{
    out
    {
        type            implicitExtrapolation;
    }
    in
    {
        type            implicitExtrapolation;
    }
    frontAndBack
    {
        type            empty;
    }
}


// ************************************************************************* //
