/*--------------------------------*- C++ -*----------------------------------*\
| =========                 |                                                 |
| \\      /  F ield         | foam-extend: Open Source CFD                    |
|  \\    /   O peration     | Version:  3.0                                   |
|   \\  /    A nd           | Web:         http://www.extend-project.de       |
|    \\/     M anipulation  |                                                 |
\*---------------------------------------------------------------------------*/
FoamFile
{
    version     2.0;
    format      ascii;
    class       volSymmTensorField;
    location    "25";
    object      sigma;
}
// * * * * * * * * * * * * * * * * * * * * * * * * * * * * * * * * * * * * * //

dimensions      [0 0 0 0 0 0 0];

internalField   nonuniform List<symmTensor> 
120
(
(-0.131166 -0.0230087 1.9303e-19 0.131168 -1.19376e-20 -2.39578e-06)
(-0.0936385 -0.0224208 5.30639e-19 0.0936436 4.34009e-19 -5.06818e-06)
(-0.0551198 -0.0174789 1.1744e-18 0.0551264 -6.08446e-19 -6.56538e-06)
(-0.0241338 -0.0131054 -8.72541e-19 0.0241402 5.34731e-20 -6.31692e-06)
(-0.00175938 -0.00967288 -9.17293e-19 0.00176261 -7.84803e-21 -3.22998e-06)
(-0.111713 -0.0631004 3.37711e-19 0.111715 -1.02634e-19 -1.90067e-06)
(-0.0687703 -0.0580737 1.65414e-18 0.0687744 -7.81573e-19 -4.01289e-06)
(-0.0326406 -0.0434869 9.83281e-19 0.0326458 -1.61834e-18 -5.18836e-06)
(-0.00430472 -0.0308882 1.39392e-18 0.00430969 -1.04724e-18 -4.9716e-06)
(0.0156573 -0.021198 7.42085e-19 -0.0156548 -1.38278e-18 -2.5244e-06)
(-0.0802929 -0.0883781 9.32612e-21 0.0802941 -2.98533e-19 -1.26298e-06)
(-0.0315586 -0.0712822 -3.47384e-19 0.0315613 -1.30543e-18 -2.66571e-06)
(-0.000182048 -0.0478082 -1.3247e-18 0.000185479 -1.70948e-18 -3.43093e-06)
(0.02335 -0.0283813 -1.97569e-18 -0.0233467 -1.85115e-18 -3.25678e-06)
(0.0391729 -0.0139804 -3.27477e-18 -0.0391713 5.86647e-19 -1.61863e-06)
(-0.047756 -0.0971195 -1.00973e-19 0.0477566 -2.12387e-19 -5.55525e-07)
(0.00014601 -0.0611464 -5.66328e-19 -0.000144848 -7.55134e-19 -1.1625e-06)
(0.0245334 -0.0301488 -3.04135e-18 -0.0245319 1.86588e-19 -1.47741e-06)
(0.041881 -0.00575543 -1.05379e-18 -0.0418797 9.54991e-19 -1.36242e-06)
(0.0528543 0.0114882 -5.87089e-19 -0.0528537 1.67534e-18 -6.38395e-07)
(-0.0224786 -0.0948877 6.19488e-20 0.0224784 -1.8033e-19 2.00995e-07)
(0.0133538 -0.0391865 -7.59687e-19 -0.0133542 -4.11391e-20 4.34861e-07)
(0.0288538 -0.00267967 -1.02261e-19 -0.0288544 4.2913e-19 6.00855e-07)
(0.0393731 0.0247948 -3.7792e-19 -0.0393738 1.00971e-18 6.54229e-07)
(0.0456358 0.0433397 2.87806e-18 -0.0456362 -3.94722e-20 4.14732e-07)
(-0.00618305 -0.0905446 -2.49759e-19 0.00618212 -8.36943e-20 9.27829e-07)
(0.00716478 -0.0222138 -1.00744e-18 -0.00716676 2.08383e-19 1.97842e-06)
(0.012485 0.0172164 7.73204e-19 -0.0124876 4.08583e-19 2.60314e-06)
(0.0159972 0.0461229 2.25945e-19 -0.0159997 6.46146e-19 2.58679e-06)
(0.018009 0.0650729 6.57849e-19 -0.0180104 -3.24473e-19 1.40536e-06)
(0.00617894 -0.090545 -2.44638e-19 -0.00618054 -4.34044e-20 1.60403e-06)
(-0.00716971 -0.0222143 -5.75185e-19 0.0071663 1.64136e-19 3.40515e-06)
(-0.0124899 0.0172162 7.13013e-19 0.0124855 3.61065e-19 4.45648e-06)
(-0.0160014 0.046123 1.91577e-19 0.015997 4.77606e-19 4.37696e-06)
(-0.0180108 0.0650734 -1.07152e-18 0.0180085 -2.23799e-19 2.33194e-06)
(0.0224749 -0.0948888 -3.43352e-19 -0.022477 -7.48752e-21 2.15645e-06)
(-0.013358 -0.0391877 8.90738e-19 0.0133534 3.46893e-19 4.57903e-06)
(-0.0288582 -0.00268036 -4.63884e-19 0.0288522 8.65354e-20 5.97581e-06)
(-0.0393772 0.0247949 5.38249e-19 0.0393714 -5.48393e-20 5.83485e-06)
(-0.0456384 0.0433409 8.64893e-20 0.0456353 -4.00376e-19 3.06878e-06)
(0.0477529 -0.0971212 -2.11835e-19 -0.0477555 3.08948e-19 2.57559e-06)
(-0.0001491 -0.0611479 -9.47379e-19 0.000143639 5.4171e-19 5.46139e-06)
(-0.0245368 -0.0301496 -1.86928e-18 0.0245297 3.47104e-19 7.1198e-06)
(-0.0418847 -0.0057555 -1.22503e-18 0.0418778 7.60533e-19 6.93279e-06)
(-0.0528578 0.0114893 -3.13768e-18 0.0528542 -1.19366e-19 3.63019e-06)
(0.0802906 -0.0883801 1.17689e-19 -0.0802934 4.09837e-19 2.80544e-06)
(0.0315567 -0.0712835 1.33543e-19 -0.0315626 9.36481e-19 5.9524e-06)
(0.000179665 -0.0478088 -6.68222e-19 -0.000187416 1.07687e-18 7.75074e-06)
(-0.0233531 -0.0283815 1.80552e-18 0.0233455 1.14847e-19 7.52724e-06)
(-0.0391768 -0.0139805 2.38379e-18 0.0391729 2.55605e-18 3.9154e-06)
(0.111712 -0.0631026 2.97855e-19 -0.111715 2.25356e-19 2.85775e-06)
(0.0687693 -0.0580745 5.24908e-19 -0.0687754 2.06575e-19 6.05826e-06)
(0.0326392 -0.0434872 2.1371e-18 -0.0326471 1.18005e-18 7.88519e-06)
(0.00430257 -0.0308886 1.20321e-18 -0.00431021 -4.5042e-19 7.64619e-06)
(-0.0156605 -0.0211995 2.35216e-18 0.0156566 -1.97199e-19 3.96722e-06)
(0.131165 -0.023011 1.32973e-19 -0.131168 -3.49895e-21 2.70109e-06)
(0.0936381 -0.0224213 4.6937e-19 -0.0936438 4.47634e-20 5.73093e-06)
(0.0551191 -0.017479 1.68853e-18 -0.0551266 -1.40716e-19 7.45266e-06)
(0.0241328 -0.0131059 1.46204e-19 -0.02414 -6.1376e-19 7.21102e-06)
(0.00175777 -0.00967533 -1.11965e-19 -0.00176149 -2.1245e-18 3.71879e-06)
(0.131167 0.0230038 1.92968e-19 -0.131169 -1.19667e-20 2.37301e-06)
(0.0936388 0.0224173 5.30643e-19 -0.0936439 4.338e-19 5.0311e-06)
(0.0551199 0.0174757 1.1745e-18 -0.0551264 -6.08463e-19 6.54019e-06)
(0.0241335 0.0131024 -8.72082e-19 -0.0241398 5.33316e-20 6.3175e-06)
(0.00175791 0.00967343 -9.16982e-19 -0.00176116 -7.57796e-21 3.24763e-06)
(0.111716 0.0630964 3.3758e-19 -0.111718 -1.02689e-19 1.86797e-06)
(0.0687717 0.0580709 1.65416e-18 -0.0687757 -7.81656e-19 3.96546e-06)
(0.0326414 0.043484 9.8333e-19 -0.0326465 -1.61797e-18 5.14832e-06)
(0.00430473 0.0308855 1.39407e-18 -0.00430968 -1.04734e-18 4.95562e-06)
(-0.0156605 0.0211976 7.42701e-19 0.0156579 -1.38266e-18 2.52244e-06)
(0.0802969 0.0883761 9.30112e-21 -0.0802982 -2.98543e-19 1.24732e-06)
(0.0315605 0.0712804 -3.47305e-19 -0.0315632 -1.30503e-18 2.64521e-06)
(0.00018312 0.0478061 -1.32468e-18 -0.00018655 -1.70882e-18 3.42977e-06)
(-0.0233501 0.0283788 -1.97557e-18 0.0233468 -1.85068e-18 3.28464e-06)
(-0.0391771 0.0139786 -3.27488e-18 0.0391754 5.86844e-19 1.65332e-06)
(0.0477602 0.0971197 -1.00971e-19 -0.0477607 -2.1241e-19 5.25858e-07)
(-0.00014406 0.0611458 -5.66092e-19 0.000142939 -7.54904e-19 1.12035e-06)
(-0.0245324 0.0301474 -3.04112e-18 0.0245309 1.86769e-19 1.4416e-06)
(-0.0418812 0.00575328 -1.05396e-18 0.0418799 9.54597e-19 1.34935e-06)
(-0.0528586 -0.0114921 -5.86335e-19 0.052858 1.67551e-18 6.37164e-07)
(0.0224817 0.09489 6.19251e-20 -0.0224815 -1.80359e-19 -2.19718e-07)
(-0.0133524 0.0391868 -7.59704e-19 0.0133529 -4.10726e-20 -4.65184e-07)
(-0.0288532 0.00267892 -1.01747e-19 0.0288538 4.28987e-19 -6.20602e-07)
(-0.0393735 -0.024797 -3.78081e-19 0.0393741 1.00951e-18 -6.49252e-07)
(-0.0456393 -0.0433453 2.87885e-18 0.0456397 -3.90207e-20 -3.9439e-07)
(0.00618409 0.0905482 -2.49794e-19 -0.00618313 -8.37133e-20 -9.65618e-07)
(-0.00716447 0.0222148 -1.00749e-18 0.00716651 2.0838e-19 -2.04204e-06)
(-0.0124849 -0.0172169 7.73374e-19 0.0124876 4.08565e-19 -2.67443e-06)
(-0.0159976 -0.0461251 2.25849e-19 0.0160003 6.46352e-19 -2.6419e-06)
(-0.0180106 -0.0650796 6.57143e-19 0.018012 -3.23868e-19 -1.43226e-06)
(-0.00618036 0.0905486 -2.44616e-19 0.006182 -4.34645e-20 -1.63299e-06)
(0.00716889 0.0222152 -5.74987e-19 -0.00716543 1.64148e-19 -3.46157e-06)
(0.0124892 -0.0172166 7.13025e-19 -0.0124847 3.61185e-19 -4.51788e-06)
(0.0160009 -0.0461251 1.91719e-19 -0.0159965 4.78099e-19 -4.42127e-06)
(0.0180112 -0.0650801 -1.07178e-18 -0.0180088 -2.2351e-19 -2.34159e-06)
(-0.0224783 0.0948911 -3.43302e-19 0.0224805 -7.61737e-21 -2.2034e-06)
(0.0133561 0.039188 8.9081e-19 -0.0133515 3.46922e-19 -4.6656e-06)
(0.0288569 0.00267963 -4.64278e-19 -0.0288508 8.65835e-20 -6.08324e-06)
(0.0393765 -0.024797 5.38323e-19 -0.0393706 -5.46916e-20 -5.93288e-06)
(0.0456405 -0.0433465 8.63386e-20 -0.0456374 -3.99785e-19 -3.12174e-06)
(-0.0477574 0.0971214 -2.11828e-19 0.04776 3.08932e-19 -2.61012e-06)
(0.000146655 0.0611472 -9.47799e-19 -0.000141124 5.41809e-19 -5.53141e-06)
(0.0245351 0.0301482 -1.86996e-18 -0.0245279 3.47145e-19 -7.20242e-06)
(0.0418839 0.00575338 -1.22554e-18 -0.0418769 7.60704e-19 -7.00281e-06)
(0.0528608 -0.0114931 -3.13783e-18 -0.0528572 -1.19501e-19 -3.65571e-06)
(-0.0802949 0.0883781 1.17714e-19 0.0802977 4.09852e-19 -2.85326e-06)
(-0.0315591 0.0712816 1.33316e-19 0.0315652 9.36744e-19 -6.04001e-06)
(-0.000181486 0.0478067 -6.68383e-19 0.000189345 1.07714e-18 -7.85879e-06)
(0.023352 0.028379 1.80596e-18 -0.0233444 1.14707e-19 -7.62663e-06)
(0.0391796 0.0139786 2.38367e-18 -0.0391757 2.55688e-18 -3.96926e-06)
(-0.111715 0.0630987 2.97888e-19 0.111718 2.25345e-19 -2.88919e-06)
(-0.0687712 0.0580716 5.24854e-19 0.0687773 2.06579e-19 -6.11826e-06)
(-0.0326407 0.0434843 2.13727e-18 0.0326486 1.18059e-18 -7.94918e-06)
(-0.0043036 0.0308858 1.20346e-18 0.00431129 -4.50569e-19 -7.69394e-06)
(0.0156624 0.0211991 2.3517e-18 -0.0156585 -1.96389e-19 -3.97969e-06)
(-0.131166 0.0230061 1.32996e-19 0.131169 -3.52385e-21 -2.74468e-06)
(-0.0936389 0.0224178 4.69384e-19 0.0936447 4.47291e-20 -5.80361e-06)
(-0.0551199 0.0174756 1.68857e-18 0.0551274 -1.40537e-19 -7.52968e-06)
(-0.0241334 0.0131029 1.46025e-19 0.0241407 -6.13847e-19 -7.26962e-06)
(-0.00175751 0.00967583 -1.12583e-19 0.00176126 -2.12521e-18 -3.74674e-06)
)
;

boundaryField
{
    out
    {
        type            mySigma;
    }
    in
    {
        type            mySigma;
    }
    frontAndBack
    {
        type            empty;
    }
}


// ************************************************************************* //
