/*--------------------------------*- C++ -*----------------------------------*\
| =========                 |                                                 |
| \\      /  F ield         | foam-extend: Open Source CFD                    |
|  \\    /   O peration     | Version:  3.0                                   |
|   \\  /    A nd           | Web:         http://www.extend-project.de       |
|    \\/     M anipulation  |                                                 |
\*---------------------------------------------------------------------------*/
FoamFile
{
    version     2.0;
    format      ascii;
    class       volVectorField;
    location    "25";
    object      u;
}
// * * * * * * * * * * * * * * * * * * * * * * * * * * * * * * * * * * * * * //

dimensions      [0 0 0 0 0 0 0];

internalField   nonuniform List<vector> 
120
(
(0.499939 -0.15716 -8.48145e-20)
(0.758633 -0.0863376 5.95165e-18)
(0.953209 -0.0444385 -1.40733e-17)
(0.959319 -0.0242641 7.44566e-18)
(1.04732 0.00461641 3.51848e-17)
(0.657115 -0.4294 2.40012e-18)
(0.844995 -0.23595 -3.33751e-17)
(0.997696 -0.121522 -9.97521e-18)
(0.983646 -0.0664571 -3.17005e-17)
(1.0428 0.0123711 -2.80601e-17)
(0.929344 -0.586581 4.0406e-18)
(0.994594 -0.32233 6.5558e-18)
(1.07475 -0.166034 1.86046e-17)
(1.02581 -0.0908234 1.12552e-17)
(1.03501 0.016834 8.85313e-17)
(1.24369 -0.586581 1.89806e-18)
(1.16733 -0.32234 -7.00295e-19)
(1.16375 -0.166044 2.74648e-17)
(1.0745 -0.0908429 -1.43391e-18)
(1.02602 0.016811 -6.25492e-18)
(1.51592 -0.429412 -2.17837e-18)
(1.31694 -0.235971 3.37054e-18)
(1.24081 -0.121562 -3.167e-18)
(1.11667 -0.0665059 6.00124e-18)
(1.01823 0.0122954 -2.96709e-17)
(1.6731 -0.157176 -9.08395e-19)
(1.4033 -0.0863788 5.01631e-18)
(1.28531 -0.0444982 -2.7716e-18)
(1.14102 -0.024349 2.24344e-18)
(1.01374 0.00449972 -1.33552e-17)
(1.67309 0.157163 -1.08966e-18)
(1.4033 0.086362 4.31922e-18)
(1.2853 0.0444808 4.29707e-19)
(1.14102 0.0243383 1.54167e-18)
(1.01374 -0.00450549 -1.14372e-17)
(1.51591 0.429394 -2.9899e-18)
(1.31693 0.235951 9.61922e-18)
(1.2408 0.121542 -1.44324e-18)
(1.11667 0.0664923 8.45724e-18)
(1.01822 -0.0123044 3.49467e-18)
(1.24368 0.586554 -2.96997e-18)
(1.16732 0.322314 -1.31499e-17)
(1.16374 0.16602 -2.07228e-17)
(1.07449 0.0908242 -1.48589e-17)
(1.02601 -0.0168257 -5.65743e-17)
(0.929324 0.586544 2.07836e-18)
(0.994582 0.322298 1.58165e-18)
(1.07475 0.166005 -2.67729e-17)
(1.0258 0.0907987 5.89201e-18)
(1.03499 -0.0168549 4.1494e-17)
(0.657101 0.429354 7.82431e-18)
(0.844986 0.235912 -4.55675e-18)
(0.997689 0.121488 2.46877e-17)
(0.983639 0.0664273 -8.13568e-18)
(1.0428 -0.0123972 6.57081e-17)
(0.499934 0.157109 -2.45716e-19)
(0.75863 0.0862959 -1.15968e-17)
(0.953207 0.0444019 1.84353e-17)
(0.959316 0.0242313 -2.83217e-18)
(1.04732 -0.00464513 3.2743e-18)
(0.499955 -0.157246 8.27133e-20)
(0.758646 -0.086458 -5.95494e-18)
(0.953235 -0.0446023 1.40668e-17)
(0.959345 -0.0244814 -7.44961e-18)
(1.04736 0.00431951 -3.51814e-17)
(0.657144 -0.429482 -2.40118e-18)
(0.845044 -0.236061 3.33579e-17)
(0.997757 -0.121676 9.97235e-18)
(0.983735 -0.0666581 3.16864e-17)
(1.04292 0.0120946 2.80479e-17)
(0.9294 -0.586648 -4.0436e-18)
(0.994667 -0.322429 -6.5614e-18)
(1.07486 -0.166164 -1.85987e-17)
(1.02594 -0.0909993 -1.12563e-17)
(1.03519 0.0166013 -8.85113e-17)
(1.24376 -0.586638 -1.90242e-18)
(1.16743 -0.322412 6.90367e-19)
(1.16388 -0.166149 -2.74565e-17)
(1.07468 -0.0909739 1.42954e-18)
(1.02625 0.0166302 6.23311e-18)
(1.51601 -0.429442 2.17411e-18)
(1.31705 -0.236021 -3.37822e-18)
(1.24097 -0.121623 3.15906e-18)
(1.11688 -0.0665933 -6.00293e-18)
(1.01851 0.0121866 2.96453e-17)
(1.67318 -0.157192 9.06093e-19)
(1.40343 -0.0863919 -5.01782e-18)
(1.28547 -0.0445237 2.76402e-18)
(1.14124 -0.0243746 -2.24731e-18)
(1.01403 0.00445846 1.33475e-17)
(1.67318 0.157179 1.08767e-18)
(1.40342 0.086375 -4.32244e-18)
(1.28547 0.0445057 -4.36105e-19)
(1.14124 0.0243633 -1.54552e-18)
(1.01403 -0.00446513 1.14417e-17)
(1.51599 0.429424 2.98898e-18)
(1.31704 0.236001 -9.63657e-18)
(1.24096 0.121602 1.44026e-18)
(1.11687 0.066579 -8.47202e-18)
(1.0185 -0.0121959 -3.50703e-18)
(1.24374 0.586611 2.96714e-18)
(1.16742 0.322386 1.31446e-17)
(1.16387 0.166124 2.07291e-17)
(1.07467 0.0909546 1.48582e-17)
(1.02624 -0.0166443 5.65974e-17)
(0.929381 0.58661 -2.08263e-18)
(0.994654 0.322396 -1.59154e-18)
(1.07485 0.166134 2.67817e-17)
(1.02593 0.0909742 -5.89645e-18)
(1.03518 -0.016621 -4.15167e-17)
(0.65713 0.429436 -7.82859e-18)
(0.845035 0.236022 4.5491e-18)
(0.99775 0.121642 -2.46959e-17)
(0.983726 0.066628 8.13413e-18)
(1.04291 -0.0121195 -6.57351e-17)
(0.49995 0.157195 2.43353e-19)
(0.758643 0.0864162 1.15953e-17)
(0.953232 0.0445655 -1.8443e-17)
(0.959341 0.0244484 2.82839e-18)
(1.04736 -0.00434777 -3.28234e-18)
)
;

boundaryField
{
    out
    {
        type            fixedValue;
        value           uniform (1 0 0);
    }
    in
    {
        type            myVelocity;
    }
    frontAndBack
    {
        type            empty;
    }
}


// ************************************************************************* //
