/*--------------------------------*- C++ -*----------------------------------*\
| =========                 |                                                 |
| \\      /  F ield         | foam-extend: Open Source CFD                    |
|  \\    /   O peration     | Version:  3.0                                   |
|   \\  /    A nd           | Web:         http://www.extend-project.de       |
|    \\/     M anipulation  |                                                 |
\*---------------------------------------------------------------------------*/
FoamFile
{
    version     2.0;
    format      ascii;
    class       volScalarField;
    location    "4";
    object      p;
}
// * * * * * * * * * * * * * * * * * * * * * * * * * * * * * * * * * * * * * //

dimensions      [0 0 0 0 0 0 0];

internalField   nonuniform List<scalar> 
400
(
0.834744
0.831817
0.832888
0.833343
0.837037
0.83996
0.845377
0.849721
0.855928
0.860766
0.866952
0.871497
0.876954
0.880549
0.884632
0.886734
0.888877
0.889144
0.889159
0.888247
0.835967
0.833291
0.834675
0.835154
0.838754
0.841417
0.846492
0.850478
0.856284
0.860761
0.866567
0.870796
0.875943
0.879329
0.88325
0.885387
0.887659
0.88841
0.889053
0.888177
0.835708
0.832741
0.833635
0.834098
0.837765
0.840469
0.845705
0.849672
0.855644
0.860087
0.866109
0.870346
0.875824
0.879279
0.883684
0.88586
0.888722
0.889136
0.890061
0.88789
0.835739
0.832609
0.833632
0.834155
0.837943
0.840682
0.845946
0.84989
0.855833
0.860239
0.866241
0.870477
0.875996
0.879514
0.884047
0.886323
0.889363
0.889758
0.890722
0.887971
0.833722
0.830476
0.831556
0.832183
0.836229
0.839155
0.844759
0.848877
0.855183
0.859747
0.866146
0.870549
0.876519
0.880198
0.885212
0.887545
0.890969
0.891119
0.892095
0.888732
0.832847
0.829546
0.830905
0.831711
0.836018
0.839142
0.844927
0.849204
0.855629
0.860324
0.866824
0.871361
0.877451
0.881272
0.886427
0.888868
0.892397
0.892511
0.893447
0.889799
0.829706
0.826451
0.828173
0.82922
0.833953
0.837361
0.843585
0.848131
0.854992
0.859935
0.866882
0.871659
0.878221
0.882266
0.887892
0.890481
0.894394
0.894473
0.895561
0.891671
0.828243
0.825121
0.827236
0.828587
0.833641
0.837339
0.843782
0.848565
0.85557
0.860712
0.867772
0.872738
0.87942
0.883664
0.889433
0.892213
0.896273
0.896477
0.897664
0.89376
0.824178
0.821338
0.824033
0.825781
0.831385
0.835447
0.842374
0.847466
0.854911
0.860327
0.867821
0.873058
0.880202
0.884729
0.890995
0.894053
0.898601
0.899017
0.900585
0.896735
0.822431
0.819993
0.823181
0.825378
0.831307
0.835716
0.842817
0.848153
0.855673
0.861272
0.868799
0.874214
0.881404
0.88615
0.89252
0.895863
0.900599
0.90135
0.903177
0.899638
0.817658
0.81582
0.819812
0.822592
0.829166
0.834
0.841574
0.847203
0.855092
0.860918
0.868791
0.874435
0.882017
0.887057
0.893917
0.89765
0.902985
0.904204
0.906668
0.903543
0.816167
0.815104
0.819643
0.823024
0.829844
0.83503
0.842631
0.848426
0.856208
0.862104
0.869815
0.875522
0.882963
0.888147
0.894964
0.899009
0.904483
0.90624
0.909082
0.906702
0.811157
0.8111
0.81671
0.820867
0.828379
0.833987
0.841952
0.847925
0.855893
0.861858
0.869707
0.875492
0.883133
0.888512
0.895703
0.900169
0.906288
0.908759
0.912523
0.911032
0.810898
0.812119
0.818202
0.823065
0.830588
0.83643
0.844124
0.850045
0.857588
0.863367
0.870724
0.876308
0.883467
0.888753
0.895573
0.90022
0.906244
0.909381
0.913533
0.913352
0.806549
0.809287
0.816766
0.822539
0.830666
0.83677
0.844546
0.850371
0.857756
0.863298
0.870432
0.875785
0.882782
0.887988
0.894871
0.899801
0.906356
0.910404
0.915787
0.917138
0.809184
0.813857
0.821399
0.827771
0.835372
0.841343
0.848338
0.853699
0.860201
0.865148
0.871346
0.876073
0.882099
0.886755
0.892703
0.897389
0.903284
0.907867
0.913357
0.916724
0.807142
0.814064
0.823215
0.83035
0.838102
0.843861
0.850387
0.855172
0.86101
0.865274
0.870759
0.874798
0.880129
0.884206
0.889626
0.894137
0.900077
0.905533
0.912428
0.918322
0.815868
0.825156
0.833004
0.839901
0.846071
0.850913
0.85596
0.859691
0.864162
0.867344
0.871468
0.874371
0.878222
0.881093
0.884834
0.888214
0.892398
0.897452
0.903234
0.911608
0.819883
0.832393
0.840711
0.84729
0.852347
0.856059
0.859823
0.86237
0.865629
0.867662
0.870591
0.872319
0.874895
0.87653
0.878896
0.881156
0.884149
0.889112
0.895165
0.907475
0.844607
0.8534
0.856858
0.860533
0.86272
0.864441
0.866277
0.867279
0.868989
0.869616
0.871045
0.871276
0.872142
0.871986
0.872159
0.872121
0.872033
0.873916
0.875243
0.884
)
;

boundaryField
{
    cavity
    {
        type            implicitExtrapolation;
    }
    lid
    {
        type            implicitExtrapolation;
    }
    frontAndBack
    {
        type            empty;
    }
}


// ************************************************************************* //
