/*--------------------------------*- C++ -*----------------------------------*\
| =========                 |                                                 |
| \\      /  F ield         | foam-extend: Open Source CFD                    |
|  \\    /   O peration     | Version:  3.0                                   |
|   \\  /    A nd           | Web:         http://www.extend-project.de       |
|    \\/     M anipulation  |                                                 |
\*---------------------------------------------------------------------------*/
FoamFile
{
    version     2.0;
    format      ascii;
    class       volVectorField;
    location    "4";
    object      u;
}
// * * * * * * * * * * * * * * * * * * * * * * * * * * * * * * * * * * * * * //

dimensions      [0 0 0 0 0 0 0];

internalField   nonuniform List<vector> 
400
(
(-0.0347641 -0.0409173 0)
(-0.000794942 -0.0135619 0)
(-0.0501071 0.0196748 0)
(-0.0526868 0.0123548 0)
(-0.0789094 0.0121588 0)
(-0.0807262 0.00717968 0)
(-0.0935735 0.00490213 0)
(-0.0890538 0.00267902 0)
(-0.0943344 0.00115032 0)
(-0.083516 -0.000278274 0)
(-0.0839731 -0.00216003 0)
(-0.0657258 -0.00343872 0)
(-0.0632895 -0.00655779 0)
(-0.0350123 -0.00725706 0)
(-0.033323 -0.0126969 0)
(0.00904921 -0.00987428 0)
(-0.000430667 -0.0211022 0)
(0.0639768 0.0018505 0)
(0.00661212 -0.0261153 0)
(0.114404 0.086513 0)
(-0.0489587 0.0761601 0)
(-0.0794517 0.0172298 0)
(-0.107933 0.0302511 0)
(-0.109775 0.0164372 0)
(-0.12943 0.0163658 0)
(-0.129534 0.00820253 0)
(-0.141635 0.0042828 0)
(-0.137756 -0.00103498 0)
(-0.142592 -0.00572018 0)
(-0.132825 -0.00917415 0)
(-0.132171 -0.0146369 0)
(-0.115789 -0.0163291 0)
(-0.112001 -0.0231049 0)
(-0.0883987 -0.0217019 0)
(-0.0852123 -0.0301524 0)
(-0.054448 -0.0217741 0)
(-0.0580369 -0.032354 0)
(-0.0239793 -0.00725503 0)
(-0.0365242 -0.0226186 0)
(-0.0178165 0.0366398 0)
(-0.0152526 0.0759541 0)
(-0.0620512 0.0341066 0)
(-0.0934758 0.0434021 0)
(-0.110895 0.0272565 0)
(-0.131229 0.0252665 0)
(-0.13794 0.0120639 0)
(-0.149964 0.00591189 0)
(-0.149785 -0.00401671 0)
(-0.154725 -0.0110448 0)
(-0.148343 -0.0181528 0)
(-0.147481 -0.0259669 0)
(-0.135039 -0.0303083 0)
(-0.129681 -0.0396376 0)
(-0.111199 -0.0393895 0)
(-0.103007 -0.0506585 0)
(-0.0790061 -0.0403478 0)
(-0.0702306 -0.0534182 0)
(-0.043193 -0.0200597 0)
(-0.0342652 -0.0321782 0)
(-0.0136712 0.0340734 0)
(-0.0237534 0.150685 0)
(-0.0729655 0.090637 0)
(-0.104774 0.0780954 0)
(-0.124075 0.0539073 0)
(-0.143576 0.0432119 0)
(-0.150914 0.0265963 0)
(-0.163185 0.0158568 0)
(-0.163562 0.00326991 0)
(-0.16942 -0.00744877 0)
(-0.164114 -0.0168325 0)
(-0.164345 -0.0280538 0)
(-0.153772 -0.0342493 0)
(-0.149202 -0.0466047 0)
(-0.133646 -0.047921 0)
(-0.124927 -0.0613182 0)
(-0.105123 -0.0533646 0)
(-0.0918807 -0.0665173 0)
(-0.0701257 -0.0414179 0)
(-0.0463136 -0.0506532 0)
(-0.0281712 -0.00976296 0)
(-0.0187337 0.172248 0)
(-0.066184 0.112314 0)
(-0.0965261 0.0954037 0)
(-0.121864 0.0677696 0)
(-0.141387 0.0539184 0)
(-0.154056 0.0335276 0)
(-0.166157 0.0204676 0)
(-0.170627 0.004038 0)
(-0.176377 -0.00859385 0)
(-0.174674 -0.0214473 0)
(-0.174659 -0.0343804 0)
(-0.167516 -0.0435915 0)
(-0.16185 -0.0576479 0)
(-0.14932 -0.0615627 0)
(-0.137603 -0.0767677 0)
(-0.119575 -0.0710284 0)
(-0.100745 -0.0858627 0)
(-0.0777309 -0.0633248 0)
(-0.0486501 -0.0721494 0)
(-0.0234562 -0.0390221 0)
(-0.0217899 0.235999 0)
(-0.067373 0.166767 0)
(-0.0993373 0.135654 0)
(-0.123424 0.101462 0)
(-0.143309 0.0782247 0)
(-0.155223 0.0542659 0)
(-0.167727 0.035336 0)
(-0.172046 0.0163129 0)
(-0.178687 -0.000588954 0)
(-0.177589 -0.0158861 0)
(-0.178782 -0.0325114 0)
(-0.172978 -0.0444805 0)
(-0.168348 -0.0620929 0)
(-0.157662 -0.0695501 0)
(-0.145986 -0.0882692 0)
(-0.129787 -0.0875926 0)
(-0.108835 -0.105682 0)
(-0.0866561 -0.0912716 0)
(-0.0525739 -0.103086 0)
(-0.0249579 -0.0808067 0)
(-0.0216403 0.262229 0)
(-0.065524 0.188766 0)
(-0.0960111 0.153933 0)
(-0.121801 0.114995 0)
(-0.140876 0.089025 0)
(-0.155617 0.0613034 0)
(-0.167341 0.0405838 0)
(-0.174716 0.0181615 0)
(-0.180794 2.25616e-05 0)
(-0.18289 -0.0184717 0)
(-0.183703 -0.0361452 0)
(-0.181108 -0.0513331 0)
(-0.175836 -0.0701869 0)
(-0.167893 -0.0812521 0)
(-0.154623 -0.101815 0)
(-0.139798 -0.105524 0)
(-0.115959 -0.126293 0)
(-0.0926204 -0.117382 0)
(-0.0559655 -0.132074 0)
(-0.0240183 -0.115693 0)
(-0.02233 0.324373 0)
(-0.0620663 0.24072 0)
(-0.0929642 0.194841 0)
(-0.115534 0.149891 0)
(-0.134699 0.11557 0)
(-0.147367 0.0842246 0)
(-0.159325 0.057764 0)
(-0.165683 0.0328873 0)
(-0.172547 0.0105225 0)
(-0.174684 -0.0102902 0)
(-0.176858 -0.0317078 0)
(-0.175313 -0.0499413 0)
(-0.171665 -0.0728445 0)
(-0.165606 -0.0883961 0)
(-0.153581 -0.113829 0)
(-0.141056 -0.123865 0)
(-0.117143 -0.150383 0)
(-0.0957276 -0.149288 0)
(-0.0570306 -0.170119 0)
(-0.025273 -0.160225 0)
(-0.0230206 0.348047 0)
(-0.0615085 0.259222 0)
(-0.0910446 0.2105 0)
(-0.113034 0.160356 0)
(-0.130454 0.124305 0)
(-0.143686 0.0892228 0)
(-0.154031 0.0619166 0)
(-0.162047 0.0340981 0)
(-0.167867 0.0114715 0)
(-0.172652 -0.01202 0)
(-0.174458 -0.0335119 0)
(-0.17632 -0.0547084 0)
(-0.172663 -0.078004 0)
(-0.170241 -0.0974951 0)
(-0.157864 -0.124287 0)
(-0.148247 -0.139943 0)
(-0.122844 -0.169423 0)
(-0.102301 -0.175734 0)
(-0.0609156 -0.201118 0)
(-0.0270106 -0.197634 0)
(-0.0224992 0.410556 0)
(-0.0534292 0.309093 0)
(-0.0812908 0.249594 0)
(-0.0976812 0.192831 0)
(-0.113668 0.149407 0)
(-0.123206 0.110683 0)
(-0.13285 0.0785967 0)
(-0.138774 0.0487855 0)
(-0.144954 0.0228319 0)
(-0.149125 -0.00235741 0)
(-0.152432 -0.0268675 0)
(-0.155149 -0.0507412 0)
(-0.153993 -0.0778238 0)
(-0.153936 -0.102075 0)
(-0.144599 -0.134372 0)
(-0.138779 -0.157385 0)
(-0.115881 -0.194524 0)
(-0.0999594 -0.209766 0)
(-0.0587377 -0.244215 0)
(-0.0286454 -0.248045 0)
(-0.0236459 0.425706 0)
(-0.0524891 0.318345 0)
(-0.0781927 0.257865 0)
(-0.0916179 0.195964 0)
(-0.104391 0.152534 0)
(-0.112084 0.110645 0)
(-0.118946 0.0791817 0)
(-0.124853 0.0473787 0)
(-0.12941 0.0225657 0)
(-0.135482 -0.00420904 0)
(-0.138542 -0.0273354 0)
(-0.144936 -0.0531495 0)
(-0.144701 -0.0790552 0)
(-0.149699 -0.106613 0)
(-0.141651 -0.138716 0)
(-0.141305 -0.167738 0)
(-0.118504 -0.206861 0)
(-0.106618 -0.231712 0)
(-0.0624026 -0.271406 0)
(-0.0324676 -0.285069 0)
(-0.0212747 0.488496 0)
(-0.0376427 0.364405 0)
(-0.0583635 0.291739 0)
(-0.063364 0.221861 0)
(-0.0721737 0.171969 0)
(-0.0744153 0.12669 0)
(-0.0789457 0.0921357 0)
(-0.0815889 0.0593871 0)
(-0.0856352 0.0330864 0)
(-0.0902481 0.00595382 0)
(-0.0946508 -0.0184186 0)
(-0.101357 -0.0457015 0)
(-0.104402 -0.0739428 0)
(-0.111851 -0.105781 0)
(-0.109027 -0.142829 0)
(-0.11391 -0.180242 0)
(-0.0974277 -0.228287 0)
(-0.0937613 -0.265021 0)
(-0.0538372 -0.317518 0)
(-0.0333977 -0.343159 0)
(-0.0230917 0.486407 0)
(-0.0353118 0.355937 0)
(-0.0518338 0.286255 0)
(-0.0502804 0.212084 0)
(-0.0534597 0.16498 0)
(-0.0508916 0.118011 0)
(-0.0510368 0.0861465 0)
(-0.051678 0.0531295 0)
(-0.0533672 0.0297193 0)
(-0.0587945 0.00283114 0)
(-0.0630659 -0.0183722 0)
(-0.073358 -0.0456077 0)
(-0.0785055 -0.0704526 0)
(-0.0923279 -0.103534 0)
(-0.0932302 -0.137475 0)
(-0.10678 -0.179629 0)
(-0.0933547 -0.226502 0)
(-0.098462 -0.274694 0)
(-0.0562086 -0.331027 0)
(-0.0397799 -0.372599 0)
(-0.0166324 0.548629 0)
(-0.00866578 0.394048 0)
(-0.0145695 0.309156 0)
(-0.00198328 0.225235 0)
(0.00216824 0.173207 0)
(0.0111654 0.123932 0)
(0.0152338 0.0916714 0)
(0.0184348 0.0596584 0)
(0.0183795 0.0375317 0)
(0.0152125 0.012507 0)
(0.0103149 -0.00714522 0)
(0.000962301 -0.0335492 0)
(-0.00741829 -0.057851 0)
(-0.0222866 -0.0934598 0)
(-0.0301338 -0.129903 0)
(-0.0485539 -0.180948 0)
(-0.046711 -0.236458 0)
(-0.0632162 -0.301767 0)
(-0.0343336 -0.375529 0)
(-0.0368023 -0.439517 0)
(-0.0217477 0.513385 0)
(-0.00436827 0.354358 0)
(-0.00202069 0.28154 0)
(0.0229819 0.196535 0)
(0.0363898 0.15179 0)
(0.0535829 0.103837 0)
(0.0638415 0.0767926 0)
(0.0709595 0.0470411 0)
(0.0740333 0.0293775 0)
(0.0714215 0.00687109 0)
(0.0667927 -0.0082513 0)
(0.0548147 -0.031933 0)
(0.0433856 -0.0507725 0)
(0.0219693 -0.0837992 0)
(0.00723022 -0.113202 0)
(-0.0226848 -0.164201 0)
(-0.0297707 -0.211895 0)
(-0.0617562 -0.286712 0)
(-0.0347148 -0.356728 0)
(-0.0487639 -0.443985 0)
(-0.00117219 0.57629 0)
(0.0463337 0.375259 0)
(0.0701027 0.283538 0)
(0.104987 0.187457 0)
(0.128936 0.141865 0)
(0.149952 0.0945959 0)
(0.165123 0.0713919 0)
(0.174319 0.0456964 0)
(0.179563 0.032688 0)
(0.179094 0.0149462 0)
(0.17515 0.00460907 0)
(0.166034 -0.0148415 0)
(0.153455 -0.0291265 0)
(0.135129 -0.0607206 0)
(0.114779 -0.0875658 0)
(0.0855085 -0.145282 0)
(0.0625639 -0.197513 0)
(0.0216908 -0.296419 0)
(0.0166718 -0.38769 0)
(-0.0282839 -0.523152 0)
(-0.0208585 0.469796 0)
(0.0544168 0.283589 0)
(0.0951344 0.224175 0)
(0.151533 0.138014 0)
(0.18924 0.105779 0)
(0.220787 0.0654544 0)
(0.243229 0.0492455 0)
(0.256997 0.0285787 0)
(0.265815 0.0200199 0)
(0.267123 0.00633545 0)
(0.264296 -0.000130501 0)
(0.254877 -0.0149548 0)
(0.239959 -0.0239468 0)
(0.217823 -0.0484289 0)
(0.188527 -0.0657481 0)
(0.148288 -0.113105 0)
(0.106507 -0.14799 0)
(0.0432757 -0.240134 0)
(0.0188191 -0.305694 0)
(-0.0525232 -0.455433 0)
(0.0724251 0.54414 0)
(0.158345 0.260509 0)
(0.239791 0.18737 0)
(0.284213 0.0932065 0)
(0.329266 0.071123 0)
(0.350932 0.0380388 0)
(0.373531 0.031691 0)
(0.382313 0.0188531 0)
(0.391161 0.0178142 0)
(0.392213 0.0114325 0)
(0.391232 0.0119037 0)
(0.386345 0.00484655 0)
(0.375403 0.00397778 0)
(0.363303 -0.0123904 0)
(0.338052 -0.0199522 0)
(0.313495 -0.0640785 0)
(0.265233 -0.0921066 0)
(0.2167 -0.207705 0)
(0.138342 -0.290531 0)
(0.0467036 -0.55643 0)
(0.0643394 0.240667 0)
(0.235675 0.116847 0)
(0.371868 0.0995743 0)
(0.447958 0.0487594 0)
(0.513932 0.0380427 0)
(0.544524 0.0191431 0)
(0.574071 0.0149945 0)
(0.585778 0.00739342 0)
(0.598009 0.00616164 0)
(0.601476 0.00209408 0)
(0.603361 0.00171376 0)
(0.601487 -0.00280331 0)
(0.592121 -0.0038589 0)
(0.582441 -0.01319 0)
(0.55219 -0.016919 0)
(0.524507 -0.0402387 0)
(0.449633 -0.0500872 0)
(0.379539 -0.111628 0)
(0.222842 -0.133991 0)
(0.0820771 -0.269568 0)
(0.258765 0.245593 0)
(0.229542 -0.0466538 0)
(0.330475 -0.0248775 0)
(0.305273 -0.0492919 0)
(0.330477 -0.026751 0)
(0.31664 -0.0242014 0)
(0.325103 -0.0123402 0)
(0.3187 -0.00841976 0)
(0.323308 -0.00151719 0)
(0.322579 0.00233256 0)
(0.327073 0.00836593 0)
(0.33232 0.0129692 0)
(0.337273 0.020662 0)
(0.349743 0.0260369 0)
(0.351261 0.0375764 0)
(0.372196 0.0390607 0)
(0.352259 0.0543882 0)
(0.378995 0.0210569 0)
(0.263922 0.00884417 0)
(0.25548 -0.250482 0)
)
;

boundaryField
{
    cavity
    {
        type            myImplicitVelocity;
    }
    lid
    {
        type            fixedValue;
        value           uniform (1 0 0);
    }
    frontAndBack
    {
        type            empty;
    }
}


// ************************************************************************* //
