/*--------------------------------*- C++ -*----------------------------------*\
| =========                 |                                                 |
| \\      /  F ield         | foam-extend: Open Source CFD                    |
|  \\    /   O peration     | Version:  3.0                                   |
|   \\  /    A nd           | Web:         http://www.extend-project.de       |
|    \\/     M anipulation  |                                                 |
\*---------------------------------------------------------------------------*/
FoamFile
{
    version     2.0;
    format      ascii;
    class       volVectorField;
    location    "18";
    object      u;
}
// * * * * * * * * * * * * * * * * * * * * * * * * * * * * * * * * * * * * * //

dimensions      [0 0 0 0 0 0 0];

internalField   nonuniform List<vector> 
480
(
(0.282495 -0.102605 3.13208e-19)
(0.543537 -0.0691396 1.72569e-18)
(0.72288 -0.0485996 -3.62051e-18)
(0.816919 -0.0347111 3.94149e-18)
(0.896994 -0.0252481 2.51326e-18)
(0.932245 -0.0184894 -2.14876e-18)
(0.973536 -0.0130481 -1.28893e-17)
(0.981548 -0.00912616 9.86816e-18)
(1.00419 -0.0049869 -8.10832e-18)
(0.995271 -0.0025712 -8.43155e-18)
(0.335486 -0.300239 1.905e-18)
(0.579173 -0.201941 2.5368e-18)
(0.747832 -0.141445 -1.90099e-17)
(0.834632 -0.100442 -1.63538e-17)
(0.909756 -0.0724236 1.38883e-17)
(0.94146 -0.0523323 3.8997e-18)
(0.979879 -0.0361178 6.39463e-18)
(0.985816 -0.0243711 -2.03458e-17)
(1.00628 -0.0120831 2.76598e-17)
(0.995758 -0.00322952 4.77035e-18)
(0.437819 -0.477426 -2.15796e-18)
(0.647961 -0.321006 2.80818e-18)
(0.795963 -0.224685 1.2156e-17)
(0.868757 -0.159367 1.13316e-17)
(0.934304 -0.114708 2.28938e-17)
(0.959134 -0.0826577 -7.04763e-18)
(0.991997 -0.0567793 3.09283e-18)
(0.993903 -0.0380106 9.83588e-19)
(1.01015 -0.0184163 2.85122e-17)
(0.996415 -0.00375968 -5.20383e-17)
(0.582516 -0.622093 1.1056e-18)
(0.74522 -0.41822 3.43905e-17)
(0.863999 -0.292649 1.22891e-17)
(0.916982 -0.207473 -6.39574e-18)
(0.968971 -0.149224 -8.02838e-18)
(0.984074 -0.107398 -1.55441e-18)
(1.00907 -0.0736257 -3.88403e-19)
(1.00527 -0.0491111 -8.96677e-18)
(1.01554 -0.0235519 -4.07335e-17)
(0.997204 -0.00410935 6.47211e-17)
(0.75972 -0.724376 -8.30025e-18)
(0.864325 -0.486959 6.67494e-18)
(0.947315 -0.340703 1.18444e-17)
(0.976025 -0.241479 1.29951e-17)
(1.01141 -0.173612 -1.72458e-17)
(1.01459 -0.124865 -3.53312e-18)
(1.02994 -0.0855022 -1.23851e-17)
(1.01914 -0.0569112 -1.53568e-17)
(1.0221 -0.027133 4.74639e-17)
(0.998064 -0.00424629 -6.82783e-17)
(0.957349 -0.777307 1.11309e-17)
(0.997166 -0.522536 -1.75178e-17)
(1.04024 -0.365574 -2.00434e-17)
(1.04188 -0.259065 -2.05073e-17)
(1.05874 -0.186211 -4.04461e-18)
(1.04861 -0.133862 -5.61208e-18)
(1.0532 -0.091597 5.51227e-17)
(1.03458 -0.0608727 -2.72656e-17)
(1.02938 -0.0289123 3.33543e-17)
(0.998937 -0.00415295 -1.02187e-17)
(1.16194 -0.777277 1.12219e-17)
(1.13469 -0.522525 -1.19177e-17)
(1.13645 -0.365559 -2.2191e-17)
(1.11006 -0.259027 -2.90361e-17)
(1.10774 -0.186152 -2.12103e-19)
(1.08383 -0.133769 1.32861e-17)
(1.07728 -0.0914848 1.21334e-17)
(1.05055 -0.0607215 5.94314e-19)
(1.0369 -0.0287607 2.95011e-17)
(0.999754 -0.00383633 -2.94073e-18)
(1.35954 -0.724293 -5.13153e-18)
(1.26753 -0.486923 -9.24573e-19)
(1.22939 -0.340655 5.3131e-18)
(1.17593 -0.241359 7.85981e-18)
(1.15508 -0.173434 1.25187e-17)
(1.11785 -0.124585 3.30658e-18)
(1.10053 -0.0851681 -6.58269e-18)
(1.06595 -0.0564599 6.75867e-18)
(1.04414 -0.026686 -2.83787e-17)
(1.00046 -0.00331758 4.79885e-17)
(1.53669 -0.621963 1.79692e-18)
(1.38664 -0.418153 9.27632e-18)
(1.31274 -0.292549 1.40962e-17)
(1.23501 -0.207257 6.36588e-18)
(1.19755 -0.148908 -1.02269e-17)
(1.14837 -0.106926 6.68961e-19)
(1.12139 -0.0730646 -4.20611e-19)
(1.07976 -0.0483748 3.46082e-18)
(1.05062 -0.0228205 -3.11312e-18)
(1.00101 -0.00263906 1.07311e-17)
(1.68131 -0.477267 1.60076e-18)
(1.48391 -0.320895 2.20841e-19)
(1.38081 -0.224514 1.10269e-17)
(1.28327 -0.159033 8.15973e-18)
(1.23225 -0.114241 5.75123e-18)
(1.17331 -0.0819847 -5.82773e-18)
(1.13843 -0.0559931 1.0201e-18)
(1.09102 -0.0370079 -2.14451e-18)
(1.05589 -0.0174252 -1.27197e-17)
(1.00137 -0.00184844 2.66274e-18)
(1.78355 -0.300061 9.45906e-19)
(1.55269 -0.201774 -7.55302e-19)
(1.42897 -0.141174 3.12111e-18)
(1.31743 -0.0999664 2.8738e-19)
(1.25682 -0.0717783 3.28575e-20)
(1.19096 -0.051453 2.42267e-18)
(1.15051 -0.0351032 2.87717e-18)
(1.09898 -0.0231303 1.60656e-18)
(1.05962 -0.0108572 -5.73999e-18)
(1.00152 -0.00100523 3.02573e-18)
(1.83645 -0.102427 5.95756e-19)
(1.58831 -0.0689014 -8.31301e-19)
(1.45394 -0.0482055 2.32203e-18)
(1.33516 -0.0340697 1.15e-18)
(1.26959 -0.0244093 -6.67622e-19)
(1.20014 -0.0173988 1.37091e-18)
(1.15679 -0.0118128 1.55802e-18)
(1.10311 -0.00767692 1.13487e-18)
(1.06154 -0.00356071 -4.0515e-18)
(1.00146 -0.000161772 5.25151e-19)
(1.83639 0.102173 2.23009e-19)
(1.58833 0.0686694 -1.14912e-18)
(1.45401 0.048067 2.50252e-18)
(1.33524 0.0341698 1.78993e-18)
(1.26968 0.0246509 -1.68288e-18)
(1.20022 0.0178619 1.25621e-19)
(1.15685 0.0123038 7.11437e-19)
(1.10311 0.00830344 7.22101e-19)
(1.06154 0.00397929 -4.05662e-18)
(1.00123 0.000628374 5.65675e-19)
(1.78339 0.299795 -2.51575e-20)
(1.55275 0.201571 -2.01049e-18)
(1.42917 0.141083 2.78096e-18)
(1.31767 0.100111 3.43223e-18)
(1.25709 0.0720611 -4.1457e-18)
(1.19118 0.051937 -8.41606e-19)
(1.15069 0.035607 -2.10461e-18)
(1.09901 0.023734 4.22148e-18)
(1.0596 0.0112541 -8.15373e-18)
(1.00084 0.00132904 1.97513e-18)
(1.68107 0.476981 1.17284e-18)
(1.484 0.320745 -3.39774e-18)
(1.3811 0.22451 -6.61667e-18)
(1.28364 0.15926 -3.22809e-18)
(1.23266 0.114599 -5.50328e-18)
(1.17365 0.0825065 3.00968e-18)
(1.13873 0.0565199 -8.83383e-19)
(1.09108 0.0375686 -5.59847e-19)
(1.05588 0.0177816 -5.1406e-18)
(1.00033 0.00190963 1.65309e-17)
(1.53638 0.621657 8.03327e-19)
(1.38675 0.418076 -1.52457e-17)
(1.31309 0.292661 -5.64696e-18)
(1.23547 0.207592 5.07887e-18)
(1.19806 0.149364 8.25564e-18)
(1.14881 0.107495 7.40851e-19)
(1.12177 0.0736191 -1.23933e-18)
(1.07985 0.0488775 4.7859e-18)
(1.05061 0.0231236 1.79856e-17)
(0.999757 0.00236042 -2.80614e-17)
(1.3592 0.723974 6.19741e-18)
(1.26763 0.486931 2.30015e-18)
(1.22976 0.340895 -4.10085e-18)
(1.17643 0.241808 -5.65756e-18)
(1.15565 0.173991 1.14268e-17)
(1.11836 0.1252 1.50662e-19)
(1.10098 0.0857481 -5.23206e-19)
(1.06611 0.0568961 8.28004e-18)
(1.04417 0.02693 -3.73003e-17)
(0.999147 0.00267748 4.80341e-17)
(1.16159 0.776964 -1.14451e-17)
(1.13476 0.522621 1.77176e-17)
(1.13678 0.365921 1.93371e-17)
(1.11055 0.259581 2.01173e-17)
(1.10831 0.186799 -1.2214e-18)
(1.08437 0.13442 -7.32995e-20)
(1.07777 0.092081 -5.05865e-17)
(1.05077 0.0610901 1.95822e-17)
(1.03698 0.028948 -2.42258e-17)
(0.998537 0.00287379 -2.56643e-18)
(0.957009 0.777025 -1.4342e-17)
(0.997184 0.522713 8.63669e-18)
(1.0405 0.366035 1.62328e-17)
(1.04232 0.259694 2.27122e-17)
(1.05927 0.186918 -6.29307e-18)
(1.04915 0.134526 -1.62661e-17)
(1.05371 0.0921927 -2.97586e-18)
(1.03488 0.061179 -2.72961e-18)
(1.02952 0.0290525 -1.96381e-17)
(0.997952 0.00296297 -7.77396e-18)
(0.759405 0.724156 4.56763e-18)
(0.864277 0.487206 -5.34407e-18)
(0.947469 0.341227 -2.05846e-17)
(0.976373 0.242143 -2.49267e-17)
(1.01187 0.174337 -1.72504e-17)
(1.01511 0.125515 5.48924e-19)
(1.03044 0.086076 1.51936e-17)
(1.01951 0.0571663 -6.55993e-18)
(1.02231 0.0272412 5.01585e-17)
(0.997408 0.00296707 -6.96152e-17)
(0.582228 0.621969 -6.30246e-18)
(0.745099 0.418518 -1.86984e-17)
(0.864034 0.293191 -3.06739e-17)
(0.917222 0.208122 -1.51658e-17)
(0.969332 0.149915 2.55619e-17)
(0.984552 0.108001 3.88974e-18)
(1.00955 0.0741528 -5.42731e-19)
(1.00571 0.0493284 -2.31995e-18)
(1.01582 0.0236464 5.24999e-18)
(0.996915 0.0029026 -8.87702e-18)
(0.437552 0.477427 -2.08001e-18)
(0.647766 0.321335 7.09712e-18)
(0.795882 0.225199 -2.01495e-17)
(0.868891 0.159952 -1.49664e-17)
(0.934569 0.115318 -1.40901e-17)
(0.959567 0.0831811 1.51724e-17)
(0.992452 0.0572361 -6.67244e-18)
(0.99441 0.0382049 5.47007e-18)
(1.01048 0.018515 3.61448e-17)
(0.996472 0.00278659 -6.79639e-18)
(0.335222 0.300384 4.31925e-20)
(0.578912 0.202281 8.37157e-18)
(0.747654 0.141892 3.80202e-18)
(0.834678 0.100918 1.22493e-17)
(0.909941 0.0729071 7.80354e-18)
(0.941853 0.0527472 -1.39256e-17)
(0.98031 0.0364826 -1.09166e-17)
(0.986366 0.0245537 -9.23309e-18)
(1.00665 0.0122004 9.39297e-18)
(0.99608 0.00262783 -1.27128e-17)
(0.282212 0.102905 -9.03521e-19)
(0.543225 0.069473 3.02916e-18)
(0.722639 0.0489475 -3.25282e-19)
(0.816908 0.0350482 -4.66812e-18)
(0.897129 0.025575 5.15532e-21)
(0.932611 0.0187766 4.95431e-20)
(0.973947 0.0133071 6.54069e-18)
(0.982115 0.00930557 -2.51025e-18)
(1.00457 0.00513194 1.19758e-17)
(0.995733 0.0024323 4.64124e-18)
(0.282124 -0.101553 -3.0744e-19)
(0.543136 -0.0680356 -1.72253e-18)
(0.722536 -0.0472934 3.63454e-18)
(0.816794 -0.0331653 -3.94063e-18)
(0.896997 -0.023448 -2.51951e-18)
(0.932467 -0.0164142 2.15677e-18)
(0.973784 -0.0107093 1.29443e-17)
(0.981941 -0.00650308 -9.89902e-18)
(1.00439 -0.00220997 8.13082e-18)
(0.995435 0.0022008 8.5011e-18)
(0.334965 -0.299058 -1.90019e-18)
(0.578645 -0.200871 -2.53618e-18)
(0.747352 -0.140268 1.9045e-17)
(0.834334 -0.0990697 1.63965e-17)
(0.909554 -0.0708179 -1.39275e-17)
(0.941421 -0.0504263 -3.91293e-18)
(0.979831 -0.0339298 -6.42738e-18)
(0.985844 -0.0217988 2.04532e-17)
(1.00609 -0.00932836 -2.78228e-17)
(0.995186 0.00193292 -4.77867e-18)
(0.437127 -0.476154 2.16437e-18)
(0.64733 -0.319979 -2.80875e-18)
(0.795384 -0.223637 -1.21723e-17)
(0.86833 -0.15817 -1.13487e-17)
(0.933931 -0.113304 -2.29374e-17)
(0.958858 -0.0809411 7.0761e-18)
(0.991662 -0.0547734 -3.10348e-18)
(0.993553 -0.0355434 -9.75632e-19)
(1.00957 -0.0157429 -2.86295e-17)
(0.994998 0.00163021 5.22782e-17)
(0.581653 -0.620772 -1.10221e-18)
(0.744504 -0.417242 -3.44165e-17)
(0.863358 -0.291716 -1.22927e-17)
(0.916453 -0.206439 6.42022e-18)
(0.968461 -0.148011 8.06211e-18)
(0.983578 -0.105882 1.56665e-18)
(1.00846 -0.0718212 3.8749e-19)
(1.00453 -0.0468068 8.99697e-18)
(1.01457 -0.0210205 4.08545e-17)
(0.994876 0.00129648 -6.50122e-17)
(0.75869 -0.72306 8.30768e-18)
(0.863541 -0.48603 -6.66856e-18)
(0.946627 -0.339867 -1.1837e-17)
(0.975417 -0.240585 -1.2995e-17)
(1.01078 -0.172575 1.72748e-17)
(1.01389 -0.12355 3.53976e-18)
(1.02908 -0.0839165 1.23723e-17)
(1.01803 -0.0548256 1.53801e-17)
(1.02074 -0.0248084 -4.76854e-17)
(0.994836 0.000943934 6.84824e-17)
(0.956178 -0.776044 -1.11287e-17)
(0.996322 -0.521658 1.75314e-17)
(1.03951 -0.364808 2.00608e-17)
(1.04119 -0.258288 2.05255e-17)
(1.05799 -0.185325 4.04311e-18)
(1.04771 -0.132749 5.60822e-18)
(1.0521 -0.0902388 -5.52143e-17)
(1.03312 -0.0590611 2.72917e-17)
(1.02766 -0.026852 -3.34348e-17)
(0.994883 0.000587746 1.02485e-17)
(1.16066 -0.776116 -1.12177e-17)
(1.1338 -0.521699 1.19156e-17)
(1.13567 -0.364847 2.21813e-17)
(1.10928 -0.258344 2.90186e-17)
(1.10686 -0.185401 2.07442e-19)
(1.08274 -0.132857 -1.3272e-17)
(1.07594 -0.0903664 -1.21121e-17)
(1.04876 -0.059228 -5.58222e-19)
(1.03486 -0.0270197 -2.94485e-17)
(0.995024 0.00025299 3.01329e-18)
(1.3582 -0.723267 5.1322e-18)
(1.26659 -0.486155 9.18549e-19)
(1.22855 -0.339984 -5.3156e-18)
(1.17505 -0.24076 -7.85205e-18)
(1.15406 -0.172803 -1.25042e-17)
(1.11657 -0.123876 -3.29123e-18)
(1.09897 -0.0842962 6.58246e-18)
(1.0639 -0.0553233 -6.7087e-18)
(1.04183 -0.0253027 2.83148e-17)
(0.99525 -3.71108e-05 -4.77794e-17)
(1.53533 -0.621101 -1.79366e-18)
(1.38565 -0.417451 -9.26959e-18)
(1.31181 -0.291925 -1.40723e-17)
(1.23399 -0.206741 -6.34548e-18)
(1.19636 -0.148405 1.01761e-17)
(1.14689 -0.106426 -6.73884e-19)
(1.11962 -0.0724539 4.2636e-19)
(1.07748 -0.0476157 -3.42675e-18)
(1.0481 -0.0218266 3.10564e-18)
(0.995548 -0.000253952 -1.06443e-17)
(1.67999 -0.476574 -1.60247e-18)
(1.48287 -0.320276 -2.29845e-19)
(1.37978 -0.223951 -1.09982e-17)
(1.2821 -0.158618 -8.12773e-18)
(1.23088 -0.113875 -5.73085e-18)
(1.17163 -0.0817076 5.77368e-18)
(1.13647 -0.055653 -1.01096e-18)
(1.08858 -0.0366398 2.13042e-18)
(1.05323 -0.0168309 1.25507e-17)
(0.995891 -0.000379741 -2.64343e-18)
(1.78232 -0.299539 -9.51419e-19)
(1.55161 -0.201254 7.40297e-19)
(1.42782 -0.140705 -3.12447e-18)
(1.31609 -0.0996768 -3.07143e-19)
(1.25526 -0.0715823 -5.55333e-20)
(1.1891 -0.0514132 -2.38544e-18)
(1.14836 -0.035052 -2.8299e-18)
(1.09643 -0.0231465 -1.55182e-18)
(1.05687 -0.010666 5.6734e-18)
(0.996245 -0.000398656 -2.97863e-18)
(1.83534 -0.102056 -6.03826e-19)
(1.5872 -0.0685047 8.20546e-19)
(1.45266 -0.047865 -2.32513e-18)
(1.33365 -0.0339479 -1.14437e-18)
(1.26784 -0.0244143 6.60491e-19)
(1.19812 -0.0176199 -1.37139e-18)
(1.15449 -0.0120603 -1.58115e-18)
(1.1005 -0.00806602 -1.12091e-18)
(1.05877 -0.00375551 3.97591e-18)
(0.996572 -0.000313886 -5.81609e-19)
(1.83544 0.10241 -2.33875e-19)
(1.5872 0.0689245 1.14227e-18)
(1.45261 0.0482314 -2.51334e-18)
(1.33358 0.0340861 -1.78645e-18)
(1.26776 0.0244016 1.68117e-18)
(1.19805 0.0173644 -1.36706e-19)
(1.15444 0.011742 -7.71781e-19)
(1.10051 0.0075694 -6.83252e-19)
(1.05879 0.00341728 3.99689e-18)
(0.996831 -0.000135256 -6.53131e-19)
(1.78261 0.299927 1.37853e-20)
(1.55163 0.20166 2.0027e-18)
(1.42769 0.141036 -2.81802e-18)
(1.3159 0.0997795 -3.47495e-18)
(1.25503 0.0715368 4.17478e-18)
(1.18892 0.0511449 8.55038e-19)
(1.14821 0.0347291 2.12541e-18)
(1.09644 0.022682 -4.32725e-18)
(1.05693 0.0103585 8.28297e-18)
(0.99699 0.000106374 -1.94904e-18)
(1.68044 0.477025 -1.18534e-18)
(1.48291 0.320658 3.39163e-18)
(1.37959 0.224216 6.62516e-18)
(1.2818 0.158656 3.24461e-18)
(1.23054 0.11377 5.5565e-18)
(1.17134 0.0814169 -3.03211e-18)
(1.13623 0.055323 8.91185e-19)
(1.08858 0.0362357 5.45363e-19)
(1.05331 0.0165809 5.29743e-18)
(0.997023 0.000375732 -1.67985e-17)
(1.5359 0.621634 -8.09242e-19)
(1.38573 0.417802 1.52686e-17)
(1.31159 0.292106 5.65542e-18)
(1.23363 0.206697 -5.09346e-18)
(1.19593 0.148226 -8.27553e-18)
(1.14652 0.10611 -7.55325e-19)
(1.11931 0.0721186 1.22668e-18)
(1.07746 0.0472939 -4.82877e-18)
(1.04818 0.0216541 -1.81436e-17)
(0.996924 0.000622938 2.82957e-17)
(1.35884 0.723887 -6.20512e-18)
(1.2667 0.486474 -2.29592e-18)
(1.22834 0.340077 4.10509e-18)
(1.17466 0.240633 5.66337e-18)
(1.15359 0.172551 -1.14691e-17)
(1.11614 0.12354 -1.77975e-19)
(1.09861 0.0839623 4.7052e-19)
(1.06383 0.0550963 -8.33774e-18)
(1.04189 0.0252178 3.74437e-17)
(0.996697 0.000802759 -4.8239e-17)
(1.16134 0.776814 1.14395e-17)
(1.13396 0.521989 -1.77237e-17)
(1.13551 0.364863 -1.93507e-17)
(1.10892 0.258149 -2.01328e-17)
(1.1064 0.185091 1.19718e-18)
(1.08229 0.132516 5.04208e-20)
(1.07555 0.0900465 5.06269e-17)
(1.04864 0.0590992 -1.96235e-17)
(1.03488 0.0270227 2.43226e-17)
(0.996371 0.000867735 2.52018e-18)
(0.956848 0.776795 1.4333e-17)
(0.996535 0.521927 -8.64199e-18)
(1.03942 0.364772 -1.62428e-17)
(1.04088 0.258054 -2.27263e-17)
(1.05756 0.184989 6.27265e-18)
(1.04726 0.132424 1.62511e-17)
(1.05169 0.0899497 2.9952e-18)
(1.03291 0.059024 2.70184e-18)
(1.02762 0.0269333 1.96795e-17)
(0.995982 0.000786421 7.70083e-18)
(0.759313 0.723831 -4.57281e-18)
(0.863805 0.486289 5.33459e-18)
(0.946633 0.339814 2.05587e-17)
(0.975189 0.240353 2.48862e-17)
(1.01042 0.172255 1.72277e-17)
(1.01346 0.123269 -5.42123e-19)
(1.02867 0.0836786 -1.51628e-17)
(1.01774 0.054867 6.5348e-18)
(1.02062 0.0249509 -5.00186e-17)
(0.995585 0.000537445 6.93933e-17)
(0.582205 0.621523 6.29608e-18)
(0.744811 0.417504 1.86806e-17)
(0.863461 0.291687 3.06417e-17)
(0.916316 0.206254 1.51413e-17)
(0.968188 0.147753 -2.55098e-17)
(0.983173 0.105673 -3.86773e-18)
(1.00806 0.071655 5.39508e-19)
(1.00415 0.0469082 2.30462e-18)
(1.01437 0.021202 -5.22812e-18)
(0.995235 0.000122528 8.79834e-18)
(0.437597 0.476841 2.0802e-18)
(0.647669 0.320254 -7.0868e-18)
(0.795573 0.22367 2.01283e-17)
(0.868277 0.158077 1.49419e-17)
(0.933734 0.113153 1.40629e-17)
(0.958481 0.0808333 -1.512e-17)
(0.991262 0.0546981 6.65343e-18)
(0.993097 0.0356856 -5.45979e-18)
(1.00929 0.0159406 -3.59642e-17)
(0.994989 -0.000440706 6.76366e-18)
(0.335356 0.299642 -3.99851e-20)
(0.578995 0.201166 -8.35745e-18)
(0.747597 0.140393 -3.78638e-18)
(0.834339 0.0991044 -1.22192e-17)
(0.909412 0.0708098 -7.78014e-18)
(0.941063 0.0504407 1.38834e-17)
(0.979436 0.0339601 1.08719e-17)
(0.985326 0.0219641 9.16987e-18)
(1.00576 0.00952138 -9.3573e-18)
(0.994893 -0.00111361 1.26521e-17)
(0.28245 0.102004 9.07818e-19)
(0.543479 0.0683526 -3.02038e-18)
(0.722801 0.0475288 3.32628e-19)
(0.816823 0.0333491 4.66313e-18)
(0.896879 0.0236051 -1.87017e-21)
(0.932115 0.016564 -4.25609e-20)
(0.973386 0.010853 -6.50434e-18)
(0.981385 0.00667839 2.49831e-18)
(1.00402 0.00238279 -1.19138e-17)
(0.994983 -0.00184342 -4.58438e-18)
)
;

boundaryField
{
    out
    {
        type            fixedValue;
        value           uniform (1 0 0);
    }
    in
    {
        type            myVelocity;
    }
    frontAndBack
    {
        type            empty;
    }
}


// ************************************************************************* //
