/*--------------------------------*- C++ -*----------------------------------*\
| =========                 |                                                 |
| \\      /  F ield         | foam-extend: Open Source CFD                    |
|  \\    /   O peration     | Version:  3.0                                   |
|   \\  /    A nd           | Web:         http://www.extend-project.de       |
|    \\/     M anipulation  |                                                 |
\*---------------------------------------------------------------------------*/
FoamFile
{
    version     2.0;
    format      ascii;
    class       volScalarField;
    location    "33";
    object      p;
}
// * * * * * * * * * * * * * * * * * * * * * * * * * * * * * * * * * * * * * //

dimensions      [0 0 0 0 0 0 0];

internalField   nonuniform List<scalar> 
576
(
-7.23816
-7.30694
-5.66535
-5.7784
-4.84996
-5.02137
-4.49482
-4.66169
-4.43552
-4.55453
-4.59019
-4.63166
-7.11383
-7.18155
-5.56813
-5.6793
-4.76677
-4.93529
-4.41776
-4.58182
-4.35952
-4.47654
-4.51159
-4.55235
-6.86872
-6.93404
-5.37619
-5.48351
-4.60242
-4.76512
-4.26541
-4.4238
-4.20915
-4.32212
-4.35594
-4.39529
-6.50516
-6.56712
-5.09169
-5.1934
-4.3589
-4.51307
-4.03976
-4.18983
-3.98651
-4.09355
-4.12558
-4.16286
-6.0312
-6.08856
-4.72065
-4.81492
-4.04123
-4.18414
-3.74532
-3.88443
-3.69592
-3.79514
-3.82483
-3.85938
-5.45316
-5.50512
-4.26826
-4.35356
-3.65399
-3.78327
-3.38646
-3.5123
-3.34184
-3.43158
-3.45842
-3.48968
-4.78267
-4.82815
-3.74341
-3.81819
-3.20463
-3.31801
-2.96998
-3.08034
-2.93083
-3.00953
-3.03305
-3.06046
-4.02953
-4.06793
-3.15396
-3.21703
-2.70005
-2.79563
-2.50237
-2.59541
-2.46941
-2.53576
-2.55557
-2.57868
-3.20823
-3.23874
-2.51108
-2.56127
-2.14966
-2.22576
-1.99225
-2.06633
-1.96599
-2.01882
-2.03458
-2.05297
-2.33129
-2.35352
-1.82472
-1.86125
-1.56211
-1.61747
-1.44774
-1.50164
-1.42869
-1.46712
-1.47856
-1.49195
-1.41517
-1.42861
-1.10763
-1.12981
-0.948196
-0.981832
-0.878756
-0.911497
-0.867179
-0.890529
-0.897448
-0.905573
-0.474137
-0.478695
-0.371109
-0.378625
-0.317707
-0.329081
-0.294451
-0.305521
-0.290601
-0.2985
-0.300789
-0.303535
0.474345
0.478878
0.371304
0.378655
0.317879
0.329015
0.29462
0.305461
0.290728
0.298456
0.30084
0.303539
1.41535
1.42877
1.1078
1.12982
0.948351
0.981752
0.878906
0.911426
0.867287
0.890476
0.897485
0.905567
2.33153
2.35374
1.82493
1.86132
1.56229
1.61745
1.44792
1.50161
1.42882
1.46711
1.47863
1.49197
3.20839
3.23888
2.51123
2.56128
2.14979
2.22569
1.99237
2.06627
1.96607
2.01878
2.0346
2.05296
4.02983
4.06819
3.1542
3.21714
2.70024
2.79566
2.50254
2.59543
2.46954
2.53578
2.55565
2.57872
4.78279
4.82827
3.74352
3.81821
3.20472
3.31797
2.97006
3.08032
2.93088
3.00951
3.03307
3.06046
5.4535
5.50541
4.26851
4.35372
3.65416
3.78335
3.38661
3.51238
3.34196
3.43165
3.45851
3.48975
6.03127
6.08863
4.72071
4.81494
4.04126
4.18413
3.74535
3.88445
3.69596
3.79515
3.82484
3.85939
6.50552
6.56744
5.09193
5.19361
4.35907
4.51322
4.0399
4.18997
3.98664
4.09366
4.12568
4.16295
6.86872
6.93407
5.3762
5.48354
4.60241
4.76517
4.26541
4.42387
4.20917
4.32217
4.35597
4.39532
7.1142
7.18191
5.56834
5.67956
4.76691
4.93552
4.41787
4.58202
4.35963
4.4767
4.51169
4.55246
7.2381
7.30697
5.66531
5.77846
4.84991
5.02147
4.49479
4.66182
4.43554
4.55465
4.59025
4.63173
7.23806
7.30694
5.66528
5.77845
4.84989
5.02147
4.49478
4.66182
4.43553
4.55466
4.59025
4.63173
7.11423
7.18193
5.56835
5.6796
4.76691
4.93558
4.41787
4.58208
4.35964
4.47674
4.51171
4.55249
6.86865
6.93402
5.37614
5.48356
4.60237
4.76523
4.26538
4.42393
4.20915
4.32223
4.35599
4.39536
6.50554
6.56746
5.09193
5.19369
4.35906
4.51334
4.03989
4.19008
3.98664
4.09375
4.12572
4.16302
6.03115
6.08855
4.72062
4.81497
4.0412
4.18424
3.7453
3.88456
3.69594
3.79525
3.82488
3.85946
5.45353
5.50544
4.26852
4.35384
3.65416
3.78353
3.3866
3.51254
3.34197
3.43179
3.45857
3.48984
4.78263
4.82816
3.7434
3.81825
3.20463
3.31811
2.96998
3.08046
2.93085
3.00964
3.03311
3.06054
4.02988
4.06824
3.15422
3.2173
2.70024
2.79588
2.50253
2.59564
2.46956
2.53596
2.55573
2.57885
3.20819
3.23874
2.51108
2.56133
2.14967
2.22585
1.99227
2.06644
1.96603
2.01893
2.03465
2.05306
2.33162
2.35381
1.82498
1.86151
1.56232
1.61771
1.44792
1.50185
1.42885
1.46732
1.47873
1.49212
1.41511
1.4286
1.10762
1.12986
0.948218
0.981916
0.878793
0.911597
0.867235
0.890632
0.89753
0.905667
0.474465
0.478988
0.371371
0.378882
0.317926
0.329309
0.294645
0.305724
0.290782
0.298685
0.300963
0.303707
-0.474403
-0.478889
-0.371306
-0.378606
-0.317851
-0.328932
-0.294573
-0.305363
-0.290662
-0.298354
-0.300752
-0.303442
-1.41501
-1.42847
-1.10754
-1.12956
-0.948129
-0.981521
-0.878708
-0.911224
-0.867103
-0.890292
-0.897311
-0.905395
-2.33158
-2.35374
-1.82493
-1.86126
-1.56226
-1.61736
-1.44786
-1.50151
-1.42875
-1.467
-1.47853
-1.49187
-3.20804
-3.23857
-2.51096
-2.56101
-2.14957
-2.22545
-1.99217
-2.06606
-1.96589
-2.01858
-2.03443
-2.05279
-4.02987
-4.06818
-3.15419
-3.21707
-2.7002
-2.79555
-2.50248
-2.59531
-2.46946
-2.53567
-2.55555
-2.57862
-4.78244
-4.82795
-3.74325
-3.81792
-3.20451
-3.31771
-2.96987
-3.08009
-2.9307
-3.00931
-3.03289
-3.06027
-5.45354
-5.5054
-4.2685
-4.35365
-3.65414
-3.78323
-3.38657
-3.51226
-3.34189
-3.43153
-3.4584
-3.48963
-6.0309
-6.08831
-4.72044
-4.81465
-4.04107
-4.18388
-3.74519
-3.88422
-3.6958
-3.79496
-3.82468
-3.85922
-6.50556
-6.56743
-5.09192
-5.19354
-4.35906
-4.51311
-4.03987
-4.18986
-3.98659
-4.09356
-4.1256
-4.16286
-6.86834
-6.93374
-5.37593
-5.48326
-4.60221
-4.76491
-4.26526
-4.42365
-4.20904
-4.32199
-4.35583
-4.39518
-7.11424
-7.18192
-5.56834
-5.67952
-4.76689
-4.93542
-4.41785
-4.58191
-4.35958
-4.47658
-4.51161
-4.55236
-7.23768
-7.30659
-5.66505
-5.77815
-4.84974
-5.02116
-4.49468
-4.66155
-4.43544
-4.55443
-4.59012
-4.63158
)
;

boundaryField
{
    out
    {
        type            implicitExtrapolation;
    }
    in
    {
        type            implicitExtrapolation;
    }
    frontAndBack
    {
        type            empty;
    }
}


// ************************************************************************* //
