/*--------------------------------*- C++ -*----------------------------------*\
| =========                 |                                                 |
| \\      /  F ield         | foam-extend: Open Source CFD                    |
|  \\    /   O peration     | Version:  3.0                                   |
|   \\  /    A nd           | Web:         http://www.extend-project.de       |
|    \\/     M anipulation  |                                                 |
\*---------------------------------------------------------------------------*/
FoamFile
{
    version     2.0;
    format      ascii;
    class       volSymmTensorField;
    location    "33";
    object      sigma;
}
// * * * * * * * * * * * * * * * * * * * * * * * * * * * * * * * * * * * * * //

dimensions      [0 0 0 0 0 0 0];

internalField   nonuniform List<symmTensor> 
576
(
(1.95368 -0.069071 3.01782e-18 -1.94998 3.73406e-18 4.92132e-36)
(2.02888 0.154856 8.07682e-18 -2.02572 -3.316e-17 -1.64992e-34)
(2.33883 0.225834 -3.04212e-19 -2.33357 -1.63398e-17 -1.96584e-35)
(2.12768 0.252611 -2.39563e-18 -2.12713 -3.85512e-18 1.65183e-35)
(1.93308 0.247874 8.73158e-18 -1.92698 -3.31014e-18 2.45635e-35)
(1.6478 0.230991 6.93973e-18 -1.64819 1.72458e-18 1.18194e-36)
(1.3932 0.211355 -1.08307e-17 -1.38725 -5.25563e-18 -7.06202e-36)
(1.10584 0.185202 -1.50765e-17 -1.10579 2.45843e-17 -1.87498e-34)
(0.862064 0.163812 -2.04729e-17 -0.857014 1.22314e-17 -1.20337e-34)
(0.590269 0.137393 -1.40368e-17 -0.588956 8.31309e-18 -2.34899e-35)
(0.360973 0.115729 1.65145e-18 -0.357181 -1.2224e-17 5.9381e-35)
(0.111012 0.0948849 -1.16466e-17 -0.107998 -1.1248e-17 -5.37722e-36)
(2.11987 -0.166328 -1.84971e-17 -2.11621 -1.18137e-17 -9.49251e-35)
(1.97192 0.457373 -4.48027e-17 -1.96879 2.46249e-17 4.03376e-34)
(2.22515 0.658977 -3.13406e-18 -2.21997 1.37647e-17 2.21408e-34)
(1.97663 0.730605 3.27841e-18 -1.97608 -1.5686e-17 -2.90998e-35)
(1.77702 0.714923 1.51379e-17 -1.77102 -1.52246e-17 -2.30587e-36)
(1.49501 0.664213 -1.145e-17 -1.49539 1.11565e-17 0)
(1.24754 0.606246 -1.9101e-17 -1.24168 4.36769e-17 -4.35844e-34)
(0.972704 0.529725 4.41442e-17 -0.972665 8.05499e-18 1.93396e-34)
(0.738416 0.467002 2.65492e-17 -0.733447 1.81868e-17 4.3683e-34)
(0.480106 0.389942 1.43181e-17 -0.478826 1.26635e-18 -4.07681e-34)
(0.26137 0.326657 -3.12326e-17 -0.257642 2.14683e-19 -3.04115e-34)
(0.0202327 0.265377 -2.95122e-17 -0.0172719 2.94899e-17 4.18379e-34)
(2.41898 -0.14767 4.69319e-18 -2.41546 3.73277e-18 -7.85236e-35)
(1.86239 0.73951 1.84258e-17 -1.85939 1.37552e-17 -4.04369e-35)
(2.01094 1.03911 -2.60854e-17 -2.00594 -2.03333e-17 -2.75694e-34)
(1.69458 1.1312 -5.08826e-17 -1.69407 4.61635e-17 -4.89917e-34)
(1.4863 1.10008 -1.94125e-17 -1.48051 7.24275e-18 3.44911e-34)
(1.21102 1.01551 3.78265e-17 -1.21139 1.6688e-17 -1.98092e-34)
(0.977227 0.921753 8.57749e-17 -0.971577 -2.69428e-17 1.02158e-33)
(0.726103 0.800494 4.29279e-18 -0.726062 9.66274e-18 1.2416e-34)
(0.509794 0.700505 8.10981e-17 -0.505006 -9.57588e-18 1.43155e-33)
(0.276909 0.57914 2.99059e-17 -0.275668 2.24002e-18 1.02427e-33)
(0.0780891 0.47907 -1.5961e-17 -0.0744945 2.95388e-17 -9.89729e-34)
(-0.146248 0.380998 4.14708e-17 0.149106 3.95281e-17 1.11572e-33)
(2.78981 0.0427263 2.42251e-18 -2.78646 4.99887e-18 0)
(1.70843 0.990148 -1.02629e-18 -1.70557 -2.99151e-17 0)
(1.72059 1.33902 -3.62835e-17 -1.71586 5.86647e-17 3.2011e-34)
(1.31863 1.41524 8.4094e-17 -1.31814 -4.5386e-17 5.60921e-34)
(1.1005 1.36216 -4.26433e-17 -1.09501 1.70504e-17 -4.09544e-34)
(0.83573 1.2438 4.94538e-17 -0.83608 -3.52674e-17 7.77786e-34)
(0.621183 1.1182 -3.94436e-17 -0.615829 8.09549e-18 -1.05778e-33)
(0.402367 0.960731 1.06368e-16 -0.402331 -5.71783e-17 2.70113e-34)
(0.210762 0.8297 4.30336e-17 -0.206222 -7.09149e-17 -2.19672e-33)
(0.0122803 0.673598 1.79395e-17 -0.0111083 -3.0912e-17 -8.57594e-34)
(-0.159447 0.544082 4.68621e-17 0.162855 7.82726e-18 -2.92079e-34)
(-0.360569 0.414734 1.02281e-16 0.363276 -1.15347e-16 -1.8606e-34)
(3.15256 0.431994 -1.05264e-17 -3.14947 -6.87685e-20 0)
(1.5208 1.20161 -3.18691e-17 -1.51816 2.85749e-17 7.37364e-35)
(1.38616 1.54235 4.00585e-17 -1.38177 -1.98243e-17 -4.5421e-34)
(0.8973 1.56045 -4.3489e-17 -0.896852 1.70617e-17 -5.25085e-34)
(0.671401 1.47795 7.74977e-17 -0.666312 -5.74459e-17 -6.9055e-34)
(0.421359 1.32621 -8.78107e-17 -0.421691 -4.18565e-18 3.57726e-34)
(0.230273 1.17367 -1.65345e-17 -0.225311 -3.915e-17 0)
(0.0490349 0.990318 -1.26827e-16 -0.0490055 -2.0882e-17 1.62289e-33)
(-0.113546 0.835789 -1.1668e-16 0.11775 2.3912e-17 2.76133e-33)
(-0.272449 0.656475 -7.0122e-17 0.273534 -8.25592e-18 9.51946e-35)
(-0.412842 0.506362 1.47194e-17 0.415997 -5.67565e-17 -1.65124e-33)
(-0.586404 0.3525 -1.25514e-16 0.588911 -1.88065e-18 1.8606e-34)
(3.42171 1.01349 3.77784e-18 -3.4189 1.2501e-17 0)
(1.31157 1.37031 2.82002e-17 -1.30918 -1.57582e-17 1.37568e-34)
(1.04266 1.64562 -1.56775e-17 -1.03869 -1.27916e-17 -5.53902e-35)
(0.483429 1.56433 -1.36208e-17 -0.48302 6.1913e-18 0)
(0.255271 1.44548 -5.88644e-17 -0.250665 2.5501e-17 2.40555e-34)
(0.0245615 1.26134 1.92444e-17 -0.0248612 -1.91837e-17 -1.97882e-34)
(-0.140349 1.08722 -1.25397e-16 0.144838 6.80911e-17 7.09056e-34)
(-0.282425 0.888736 1.53318e-16 0.282449 -7.09179e-18 -2.21511e-33)
(-0.414251 0.718666 1.73546e-17 0.418055 -2.67422e-17 -1.99616e-33)
(-0.532624 0.528052 -7.28577e-17 0.533602 5.55953e-17 1.5314e-33)
(-0.640588 0.366547 1.2022e-17 0.643443 2.06668e-17 0)
(-0.784524 0.195346 -1.94845e-17 0.78679 4.92324e-17 0)
(3.5192 1.74684 2.87468e-18 -3.51675 4.67587e-18 0)
(1.09249 1.49671 -1.51153e-17 -1.09039 5.03198e-17 -6.23622e-34)
(0.723049 1.65829 1.07488e-16 -0.71956 -3.84072e-17 2.10601e-33)
(0.126209 1.44426 -1.39407e-17 -0.125859 -2.59327e-17 0)
(-0.0955624 1.28401 4.14318e-17 0.0996037 -1.79373e-17 -7.69126e-35)
(-0.302082 1.06927 -5.45671e-17 0.301812 1.93853e-17 6.32678e-35)
(-0.43955 0.878875 1.38805e-16 0.443487 -1.21979e-17 6.16814e-34)
(-0.544351 0.675128 1.14597e-16 0.544367 -3.85567e-17 2.52387e-34)
(-0.646177 0.496917 -1.74833e-16 0.64951 3.39778e-17 -1.52798e-33)
(-0.727001 0.305772 4.45267e-17 0.727855 1.74133e-17 -5.48818e-34)
(-0.804456 0.141258 -1.2473e-17 0.806955 -2.21564e-17 0)
(-0.918875 -0.040498 -1.93203e-17 0.920859 3.79718e-17 0)
(3.3873 2.5634 4.92958e-18 -3.38522 5.40277e-18 0)
(0.873556 1.58493 6.11061e-17 -0.871784 -1.06282e-18 4.60637e-34)
(0.453518 1.60086 -4.2028e-17 -0.450572 -1.65849e-17 -1.78982e-33)
(-0.135983 1.23456 -6.68049e-17 0.136279 3.76174e-17 -1.97544e-35)
(-0.340503 1.03091 2.28944e-17 0.343913 -1.23136e-17 -1.74824e-35)
(-0.517928 0.788322 1.33567e-17 0.517699 -4.94341e-17 2.07293e-34)
(-0.62794 0.586476 2.34424e-17 0.63126 1.39024e-17 0)
(-0.70013 0.385262 -7.96043e-17 0.700141 -2.86113e-17 -5.25321e-34)
(-0.774714 0.204968 -1.64039e-16 0.777525 3.82593e-17 3.4288e-33)
(-0.824109 0.0215723 3.77239e-17 0.824825 2.2108e-17 5.70843e-34)
(-0.875353 -0.139376 -3.41555e-17 0.877459 1.08936e-17 7.15483e-34)
(-0.962153 -0.326001 8.87595e-17 0.963823 -7.51126e-18 -1.18902e-33)
(2.9978 3.37578 2.36829e-17 -2.99615 -1.45009e-18 7.05297e-35)
(0.661894 1.64159 -3.51421e-17 -0.660492 -7.8016e-18 -5.45862e-35)
(0.249884 1.50138 -6.66459e-17 -0.247539 4.49021e-17 -2.07921e-34)
(-0.281227 0.980923 1.60393e-16 0.281454 -4.90196e-17 9.89889e-34)
(-0.456643 0.735714 -1.56089e-16 0.459357 4.72437e-17 -3.98982e-34)
(-0.600325 0.469108 1.37335e-16 0.600137 -8.17003e-18 1.04663e-33)
(-0.68375 0.25981 7.18661e-17 0.686391 -9.80113e-17 -1.98074e-33)
(-0.729719 0.0660919 -2.02491e-16 0.729723 -1.01066e-17 2.53626e-33)
(-0.78109 -0.112149 -3.21317e-17 0.783324 4.54415e-17 -1.31608e-33)
(-0.807056 -0.282893 -1.9337e-18 0.807622 2.00302e-19 -1.01079e-36)
(-0.837846 -0.436207 7.75005e-18 0.83952 4.6323e-17 -3.14387e-34)
(-0.900083 -0.623602 8.49437e-17 0.901409 -1.90992e-17 1.18902e-33)
(2.35743 4.09072 7.26761e-18 -2.35622 1.47385e-17 0)
(0.461139 1.6746 2.75961e-17 -0.460112 -8.38358e-18 5.7907e-35)
(0.115648 1.39087 5.70273e-17 -0.113935 1.31986e-18 1.93679e-34)
(-0.307023 0.733314 -1.2267e-16 0.307187 2.91468e-17 -1.17795e-33)
(-0.441986 0.452391 1.227e-16 0.443963 -1.2531e-17 6.2396e-34)
(-0.547854 0.166651 -4.15604e-17 0.547712 3.88929e-17 -3.88253e-34)
(-0.606019 -0.0470678 -8.94088e-17 0.60794 -8.3882e-18 -6.60536e-34)
(-0.6326 -0.231491 5.91104e-17 0.632599 -1.30683e-17 -6.19022e-34)
(-0.665185 -0.405686 6.38773e-17 0.666809 3.26465e-17 -8.79345e-34)
(-0.67613 -0.562617 5.71703e-17 0.676537 7.24864e-18 5.58959e-35)
(-0.692573 -0.706995 1.69527e-16 0.693787 -2.87198e-17 1.629e-34)
(-0.733732 -0.892858 -8.48713e-17 0.734692 -3.19298e-18 -1.74715e-35)
(1.50748 4.62257 7.41029e-18 -1.50675 -2.04142e-18 0)
(0.271327 1.69152 -4.5503e-17 -0.270712 1.58787e-17 -5.32126e-35)
(0.0418711 1.29828 -5.24787e-17 -0.0408333 -2.31534e-18 -1.20717e-34)
(-0.230396 0.538081 6.8227e-17 0.230485 -1.02318e-17 -4.89294e-35)
(-0.315519 0.230985 -6.43437e-17 0.316717 2.01585e-17 2.90285e-35)
(-0.380392 -0.068086 1.48673e-17 0.380298 -1.86948e-17 0)
(-0.414637 -0.284127 -4.20084e-17 0.415799 3.0359e-17 -3.89122e-34)
(-0.427836 -0.460416 2.65292e-17 0.42783 2.8939e-17 2.08873e-34)
(-0.445576 -0.63059 -1.62898e-17 0.446558 8.12036e-18 -4.70426e-34)
(-0.448811 -0.776031 -1.32756e-18 0.449053 2.32147e-17 -8.29266e-34)
(-0.456248 -0.912761 -6.40134e-18 0.45698 -3.09616e-17 2.38135e-34)
(-0.479474 -1.09648 3.4371e-17 0.480051 -3.01729e-17 6.02455e-34)
(0.518685 4.90614 1.51453e-18 -0.518428 -1.2954e-17 0)
(0.0894717 1.69836 3.59323e-18 -0.0892577 -1.14688e-17 -5.96022e-35)
(0.00911616 1.24594 -9.28009e-18 -0.00875607 2.08679e-17 -4.11361e-35)
(-0.0848882 0.430829 -1.27878e-17 0.0849106 8.82598e-19 9.3287e-36)
(-0.113985 0.109887 4.21742e-17 0.114391 -1.29641e-17 -3.60564e-36)
(-0.13584 -0.196029 -1.21152e-17 0.135798 1.70612e-18 1.18606e-35)
(-0.147137 -0.413034 8.2732e-18 0.147527 3.13356e-18 -1.9599e-36)
(-0.15105 -0.584632 -1.88423e-17 0.151039 6.60467e-18 -2.07236e-34)
(-0.156645 -0.752375 2.58966e-17 0.15697 -2.64335e-18 -9.94362e-35)
(-0.157132 -0.89134 -1.29504e-17 0.157204 2.89379e-18 -1.93568e-34)
(-0.15919 -1.02371 -4.04773e-18 0.159428 2.98236e-19 -2.6606e-34)
(-0.166666 -1.206 7.26225e-18 0.16685 -9.89438e-18 4.40838e-35)
(-0.518703 4.90612 2.78907e-18 0.518459 9.62664e-18 2.0398e-35)
(-0.0895002 1.69835 2.2226e-17 0.0892896 1.53802e-17 3.51092e-35)
(-0.00914962 1.24593 2.94336e-18 0.0088097 3.81748e-18 3.34988e-35)
(0.0848695 0.430823 -8.86371e-18 -0.0849219 1.01619e-19 -4.96697e-35)
(0.113957 0.109879 -1.14544e-17 -0.114358 -8.31133e-18 9.49207e-35)
(0.135816 -0.196036 1.07235e-17 -0.135807 2.80882e-18 1.75093e-35)
(0.147111 -0.413042 -7.73499e-18 -0.147507 -1.02e-17 6.82501e-36)
(0.151037 -0.584636 -1.58987e-18 -0.151052 -2.27205e-17 1.45061e-34)
(0.156627 -0.752381 -9.69386e-18 -0.156966 -4.12046e-18 1.96165e-34)
(0.157136 -0.891339 -7.33118e-18 -0.157235 1.03246e-17 1.65057e-34)
(0.159174 -1.02371 -7.37267e-19 -0.159435 1.60912e-17 4.32015e-36)
(0.166673 -1.206 -2.95028e-19 -0.166884 -2.61628e-18 -1.52352e-35)
(-1.50751 4.62259 1.38239e-17 1.5068 -3.33479e-18 -2.09396e-35)
(-0.271358 1.69152 -4.77721e-17 0.270745 -1.09382e-17 4.24635e-34)
(-0.0419065 1.29827 -4.79119e-17 0.0408883 4.27766e-18 5.18962e-35)
(0.230374 0.538086 -2.54049e-17 -0.230493 2.02123e-17 -2.58594e-34)
(0.315491 0.230977 2.60889e-17 -0.316684 2.26073e-18 9.43582e-35)
(0.380367 -0.0680886 9.51262e-18 -0.380306 -3.39753e-17 0)
(0.414612 -0.284139 -7.79913e-17 -0.415782 -2.86046e-17 1.18588e-34)
(0.427822 -0.460416 2.29063e-17 -0.427842 -6.18427e-18 -1.50761e-34)
(0.445559 -0.6306 6.78578e-17 -0.446556 -8.05983e-18 -6.7077e-34)
(0.448813 -0.776025 4.31601e-17 -0.449082 2.06623e-17 -8.95246e-35)
(0.456235 -0.912769 -2.53786e-17 -0.45699 -7.50039e-19 7.27073e-35)
(0.479483 -1.09648 -3.63334e-17 -0.480087 1.37241e-17 1.6491e-34)
(-2.35744 4.0907 -8.31088e-18 2.35625 -2.40828e-17 1.83305e-34)
(-0.461161 1.67458 7.89787e-17 0.460142 9.67505e-18 -7.52253e-34)
(-0.115673 1.39085 5.5504e-17 0.11398 2.91032e-18 9.58622e-35)
(0.307008 0.733311 -3.7654e-17 -0.307197 -6.19067e-18 4.45602e-34)
(0.441968 0.452372 -1.1297e-16 -0.44394 7.60148e-18 1.29242e-34)
(0.547838 0.166641 -2.12381e-17 -0.547727 -4.04493e-18 -2.85208e-34)
(0.606006 -0.0470904 1.06436e-16 -0.607933 1.21327e-17 1.10191e-34)
(0.632592 -0.231496 -2.93248e-17 -0.632615 -7.71383e-18 1.60656e-34)
(0.665178 -0.405704 4.39475e-17 -0.666815 -8.38769e-19 1.65054e-33)
(0.676131 -0.562607 4.98466e-17 -0.676564 -1.38776e-17 9.83079e-34)
(0.692566 -0.707005 -6.09624e-18 -0.693801 -3.02352e-17 9.06393e-34)
(0.733737 -0.892849 8.54317e-17 -0.734721 2.72669e-17 -9.37179e-34)
(-2.99785 3.37579 2.82019e-18 2.99621 1.09619e-17 0)
(-0.661922 1.64158 -1.3211e-17 0.660525 -1.61551e-17 0)
(-0.249916 1.50136 -6.3778e-17 0.247588 -3.88752e-17 1.20577e-33)
(0.281203 0.980928 1.57826e-16 -0.281455 1.53525e-17 -1.24885e-34)
(0.456622 0.735696 7.68817e-18 -0.459334 2.56896e-17 5.2014e-34)
(0.600307 0.4691 -4.07838e-17 -0.600147 5.6467e-17 5.23355e-34)
(0.683739 0.259786 -1.5264e-16 -0.68639 -2.70858e-17 -1.91202e-33)
(0.729707 0.0660867 3.43419e-17 -0.729735 3.38738e-17 1.24524e-33)
(0.781085 -0.112169 -3.5227e-17 -0.783336 1.43565e-17 6.41236e-34)
(0.807051 -0.282884 8.14015e-18 -0.807644 -6.43297e-17 5.18391e-34)
(0.837843 -0.436219 1.84033e-18 -0.83954 -2.37112e-17 1.96249e-34)
(0.900092 -0.623598 8.1212e-17 -0.901444 -3.50113e-17 1.50352e-33)
(-3.38731 2.56338 3.58266e-18 3.38525 -1.01107e-17 0)
(-0.873571 1.58491 -5.93564e-18 0.871813 -3.10663e-17 5.8111e-34)
(-0.453537 1.60083 7.45791e-17 0.450607 6.15691e-17 -7.08687e-34)
(0.135967 1.23456 -1.45628e-16 -0.136279 -2.32103e-17 -5.41368e-34)
(0.340493 1.03089 1.541e-16 -0.343901 2.71489e-17 -5.89278e-34)
(0.51792 0.788315 -5.24134e-17 -0.517713 1.07487e-17 -1.24575e-34)
(0.627943 0.586453 3.56681e-17 -0.63127 3.54909e-17 0)
(0.700127 0.385257 -7.5811e-17 -0.700157 3.81177e-17 1.01176e-33)
(0.774723 0.204949 -1.77109e-16 -0.777546 -1.07866e-17 -3.49616e-33)
(0.824105 0.0215833 -1.1336e-16 -0.824843 -1.57747e-17 -3.11353e-33)
(0.875358 -0.139384 3.43439e-17 -0.877483 4.94522e-17 1.58965e-33)
(0.962157 -0.325991 -1.71535e-16 -0.963849 -5.53601e-17 -1.50352e-33)
(-3.51925 1.74684 8.04178e-18 3.51681 -1.35633e-17 0)
(-1.09251 1.4967 3.65674e-17 1.09043 1.10721e-17 -3.00128e-34)
(-0.723077 1.65826 3.70542e-17 0.719598 2.22049e-18 -7.47583e-34)
(-0.126237 1.44426 1.79919e-17 0.125869 3.18425e-17 0)
(0.0955492 1.28399 -7.21609e-17 -0.0995951 -2.61703e-17 1.68867e-34)
(0.302072 1.06926 9.43787e-17 -0.301824 1.4776e-17 -1.38912e-34)
(0.439556 0.878852 -7.23928e-17 -0.443506 -5.41606e-17 2.25469e-33)
(0.544347 0.675117 1.91083e-16 -0.544381 5.87191e-17 -2.89498e-33)
(0.64619 0.496899 6.52104e-17 -0.649541 3.38733e-17 1.20437e-33)
(0.726995 0.305777 -3.76422e-17 -0.727871 6.21968e-18 -2.37514e-34)
(0.804466 0.141253 2.2996e-18 -0.806988 -9.8063e-18 0)
(0.918885 -0.0404887 3.37717e-17 -0.920892 5.82687e-17 0)
(-3.42171 1.01347 -4.89695e-18 3.41892 -1.45973e-18 0)
(-1.31159 1.3703 -3.8988e-17 1.30921 -3.30816e-17 4.49843e-35)
(-1.04268 1.6456 6.48764e-17 1.03871 1.91999e-17 7.30856e-34)
(-0.483447 1.56433 5.76529e-18 0.483033 -1.08495e-17 0)
(-0.255276 1.44546 6.88052e-17 0.250665 2.66283e-17 -3.22656e-34)
(-0.0245619 1.26133 -4.92214e-17 0.0248495 -2.95102e-17 2.65418e-34)
(0.140365 1.0872 5.73235e-17 -0.144866 5.32991e-17 8.14519e-34)
(0.28243 0.888731 -2.96291e-17 -0.282465 2.16898e-17 5.17446e-33)
(0.414276 0.718658 -1.14328e-16 -0.418093 -8.64252e-17 -2.92387e-33)
(0.532622 0.52806 1.05583e-16 -0.533615 -4.30875e-18 2.40074e-33)
(0.640604 0.366551 -2.55045e-18 -0.643475 1.7992e-17 0)
(0.784533 0.19536 1.54837e-17 -0.786816 2.07108e-17 0)
(-3.1526 0.431962 7.79647e-18 3.14951 -1.28723e-18 0)
(-1.52082 1.2016 -8.53944e-18 1.51819 3.45591e-17 4.61439e-34)
(-1.38618 1.54232 -6.96737e-17 1.38179 -4.9325e-17 -6.51805e-34)
(-0.897327 1.56044 -5.66323e-18 0.896868 -5.93322e-18 1.0028e-33)
(-0.671406 1.47793 -1.21316e-17 0.666303 -2.966e-17 5.6069e-34)
(-0.421357 1.3262 6.97923e-17 0.421675 5.87343e-17 -1.02329e-34)
(-0.230251 1.17366 -7.75427e-17 0.225271 2.07579e-17 0)
(-0.0490219 0.990308 -5.99424e-17 0.0489829 -9.02358e-18 -2.70919e-33)
(0.113575 0.83579 -6.20039e-17 -0.117798 -9.34855e-18 -2.60338e-34)
(0.272454 0.65648 1.29329e-17 -0.273552 -8.13832e-18 -7.86295e-35)
(0.412857 0.506374 1.59246e-18 -0.416032 8.60249e-19 9.82213e-34)
(0.586415 0.352517 7.60917e-17 -0.588941 3.72625e-17 1.2141e-33)
(-2.7898 0.0426985 -1.12198e-18 2.78648 1.17526e-17 7.96216e-35)
(-1.70844 0.990124 -1.10928e-17 1.70561 -1.35063e-17 -6.16232e-35)
(-1.72061 1.33899 1.49305e-18 1.71588 -1.08265e-17 -8.22981e-34)
(-1.31865 1.41523 8.52903e-17 1.31816 3.22542e-17 -7.08498e-34)
(-1.1005 1.36215 -8.02345e-17 1.095 -2.25234e-17 1.13179e-34)
(-0.835722 1.24379 8.57064e-17 0.836071 -6.81572e-19 -6.94833e-34)
(-0.62116 1.1182 7.39055e-17 0.615792 7.46959e-17 2.95209e-34)
(-0.402351 0.96073 -4.53403e-17 0.402314 2.01902e-17 3.61623e-34)
(-0.210731 0.829714 5.19097e-17 0.20618 1.68491e-17 9.26264e-34)
(-0.0122782 0.673608 1.02951e-17 0.0110975 2.49064e-17 6.22915e-34)
(0.159461 0.544104 1.86077e-18 -0.162882 2.69294e-17 5.75293e-34)
(0.360578 0.414757 -2.78486e-17 -0.363299 -5.35699e-17 -1.2141e-33)
(-2.41901 -0.147715 -3.71399e-18 2.41549 -1.24456e-17 0)
(-1.86242 0.739472 9.57138e-18 1.85942 -8.09902e-18 3.23367e-34)
(-2.01096 1.03908 -7.14421e-19 2.00595 1.00224e-17 6.38398e-36)
(-1.6946 1.13117 -6.10638e-17 1.69409 -5.87256e-17 3.14819e-35)
(-1.48632 1.10007 7.22867e-17 1.4805 2.00126e-17 -2.04237e-34)
(-1.21101 1.0155 -7.15809e-17 1.21138 -4.00844e-17 5.92725e-34)
(-0.977212 0.921765 2.91594e-17 0.971542 -4.39059e-17 7.15107e-34)
(-0.72608 0.800494 1.25599e-16 0.72604 2.19473e-17 -1.41178e-33)
(-0.509772 0.70053 6.49817e-17 0.504966 -2.21146e-17 -2.01721e-33)
(-0.276897 0.579149 7.32051e-17 0.275651 -7.95804e-18 -1.56672e-33)
(-0.0780815 0.479097 9.16909e-17 0.0744689 2.62417e-17 -1.72643e-33)
(0.146255 0.381022 -8.19859e-17 -0.149127 -8.53749e-20 -2.62155e-34)
(-2.11987 -0.166351 -2.43455e-17 2.11623 5.69053e-18 0)
(-1.97193 0.457339 -2.76272e-17 1.96883 -1.49682e-17 -4.30125e-34)
(-2.22516 0.658952 6.4282e-18 2.21998 -2.43515e-17 -4.40048e-35)
(-1.97663 0.73058 2.15508e-17 1.9761 3.37082e-17 5.65615e-35)
(-1.77703 0.714923 -4.09386e-17 1.77101 -2.64972e-17 -8.25061e-35)
(-1.495 0.664215 1.60175e-17 1.49538 1.39327e-17 0)
(-1.24753 0.606272 -4.16946e-17 1.24166 -1.42183e-17 6.85035e-35)
(-0.972688 0.529736 5.96477e-18 0.97265 -4.32082e-17 -5.53207e-35)
(-0.738399 0.467031 -2.9263e-17 0.733424 -2.87863e-17 -2.75365e-35)
(-0.480099 0.389954 -1.88801e-17 0.478811 -4.4394e-17 2.02562e-34)
(-0.261366 0.326686 -2.0354e-18 0.257627 -3.3992e-17 8.32422e-34)
(-0.020226 0.265413 2.96555e-17 0.0172546 4.84713e-17 -4.80374e-34)
(-1.95369 -0.0690995 -5.12431e-19 1.94998 6.79459e-18 0)
(-2.02887 0.154782 6.35441e-18 2.02571 3.15266e-17 1.50333e-34)
(-2.33884 0.22581 -8.06649e-19 2.33356 6.43899e-18 1.0272e-36)
(-2.12766 0.252556 1.23203e-17 2.12712 -1.5517e-17 1.71082e-36)
(-1.93309 0.247873 1.57689e-17 1.92696 1.83506e-17 2.21363e-35)
(-1.64778 0.230986 -8.28231e-18 1.64818 -3.78731e-18 1.17738e-35)
(-1.39321 0.211385 1.57022e-17 1.38724 4.4831e-18 -2.43755e-35)
(-1.10583 0.185215 -2.42241e-17 1.10579 -8.04227e-18 7.56804e-35)
(-0.862064 0.163846 -4.53506e-18 0.857003 2.50162e-18 -1.33537e-36)
(-0.590258 0.137407 -3.42428e-17 0.588949 -4.65675e-18 1.65867e-35)
(-0.360974 0.115762 -2.00043e-17 0.357171 -4.01466e-18 7.95442e-35)
(-0.11101 0.0949193 2.4384e-18 0.107987 -1.69351e-17 -3.04045e-35)
(-1.95369 0.0690643 3.01807e-18 1.94998 3.73468e-18 -4.92212e-36)
(-2.02886 -0.154834 8.0767e-18 2.0257 -3.31609e-17 1.64999e-34)
(-2.33884 -0.22584 -3.04261e-19 2.33357 -1.63398e-17 1.96585e-35)
(-2.12766 -0.252585 -2.39545e-18 2.12712 -3.85559e-18 -1.65182e-35)
(-1.93309 -0.247877 8.73122e-18 1.92697 -3.31033e-18 -2.45648e-35)
(-1.64779 -0.230976 6.93941e-18 1.64818 1.72444e-18 -1.18174e-36)
(-1.39321 -0.211354 -1.08308e-17 1.38724 -5.25567e-18 7.06045e-36)
(-1.10583 -0.185194 -1.50765e-17 1.10579 2.45848e-17 1.875e-34)
(-0.86207 -0.163807 -2.04727e-17 0.85701 1.22318e-17 1.20341e-34)
(-0.590258 -0.137393 -1.40369e-17 0.588951 8.31362e-18 2.34936e-35)
(-0.360978 -0.115729 1.65138e-18 0.357177 -1.2224e-17 -5.9381e-35)
(-0.111012 -0.0948829 -1.16467e-17 0.107992 -1.12482e-17 5.37748e-36)
(-2.11986 0.166322 -1.84977e-17 2.11621 -1.18138e-17 9.49272e-35)
(-1.97192 -0.457385 -4.48031e-17 1.96881 2.46252e-17 -4.03393e-34)
(-2.22516 -0.65898 -3.13405e-18 2.21997 1.37648e-17 -2.21405e-34)
(-1.97662 -0.730606 3.27864e-18 1.97609 -1.56864e-17 2.90942e-35)
(-1.77704 -0.714929 1.51381e-17 1.77102 -1.52243e-17 2.31108e-36)
(-1.495 -0.664206 -1.14499e-17 1.49539 1.11564e-17 0)
(-1.24754 -0.606245 -1.91004e-17 1.24167 4.36772e-17 4.35848e-34)
(-0.972694 -0.529717 4.41448e-17 0.972659 8.05563e-18 -1.93397e-34)
(-0.738416 -0.466996 2.65494e-17 0.733443 1.81871e-17 -4.36849e-34)
(-0.480099 -0.38994 1.43175e-17 0.478815 1.26672e-18 4.07677e-34)
(-0.261377 -0.326656 -3.12332e-17 0.257643 2.14724e-19 3.0413e-34)
(-0.0202337 -0.265379 -2.95122e-17 0.0172668 2.94901e-17 -4.1838e-34)
(-2.41899 0.147681 4.69377e-18 2.41547 3.73252e-18 7.85286e-35)
(-1.86239 -0.739517 1.84255e-17 1.8594 1.37563e-17 4.04377e-35)
(-2.01095 -1.03911 -2.60858e-17 2.00594 -2.03333e-17 2.75694e-34)
(-1.69458 -1.13119 -5.08831e-17 1.69408 4.61649e-17 4.89928e-34)
(-1.48632 -1.10008 -1.94128e-17 1.48051 7.24264e-18 -3.44912e-34)
(-1.21101 -1.01549 3.78264e-17 1.21139 1.66881e-17 1.98085e-34)
(-0.977236 -0.921747 8.5776e-17 0.971571 -2.69432e-17 -1.02159e-33)
(-0.72609 -0.800479 4.29315e-18 0.726058 9.66276e-18 -1.24164e-34)
(-0.509797 -0.700504 8.10984e-17 0.504997 -9.57625e-18 -1.43156e-33)
(-0.276898 -0.579135 2.9906e-17 0.27566 2.23975e-18 -1.02428e-33)
(-0.0780985 -0.479073 -1.59617e-17 0.0744945 2.95387e-17 9.89738e-34)
(0.146243 -0.38099 4.147e-17 -0.149106 3.95289e-17 -1.11574e-33)
(-2.78979 -0.0427161 2.42271e-18 2.78645 4.99865e-18 0)
(-1.70841 -0.990155 -1.02649e-18 1.70557 -2.99151e-17 0)
(-1.72061 -1.33902 -3.62827e-17 1.71586 5.86645e-17 -3.20108e-34)
(-1.31862 -1.41524 8.40944e-17 1.31814 -4.53858e-17 -5.60939e-34)
(-1.10051 -1.36216 -4.26439e-17 1.09501 1.70497e-17 4.09545e-34)
(-0.835726 -1.24379 4.94527e-17 0.836086 -3.52679e-17 -7.77773e-34)
(-0.62119 -1.11819 -3.94429e-17 0.615824 8.09502e-18 1.05776e-33)
(-0.402363 -0.960718 1.06369e-16 0.402334 -5.71787e-17 -2.70089e-34)
(-0.210761 -0.829698 4.30339e-17 0.206216 -7.09159e-17 2.19675e-33)
(-0.0122791 -0.673594 1.79402e-17 0.0111086 -3.09131e-17 8.57629e-34)
(0.15944 -0.544088 4.68631e-17 -0.162852 7.82739e-18 2.92087e-34)
(0.360563 -0.41473 1.02281e-16 -0.363273 -1.15348e-16 1.86063e-34)
(-3.15257 -0.431987 -1.0526e-17 3.14948 -6.87397e-20 0)
(-1.52078 -1.20163 -3.18696e-17 1.51815 2.85757e-17 -7.37304e-35)
(-1.38617 -1.54235 4.00582e-17 1.38177 -1.98246e-17 4.54204e-34)
(-0.897295 -1.56045 -4.34888e-17 0.896854 1.7061e-17 5.25091e-34)
(-0.671411 -1.47795 7.74983e-17 0.666309 -5.74461e-17 6.90546e-34)
(-0.421359 -1.3262 -8.78116e-17 0.421696 -4.18555e-18 -3.57728e-34)
(-0.23028 -1.17366 -1.65351e-17 0.225307 -3.91502e-17 0)
(-0.0490326 -0.990304 -1.26828e-16 0.0490081 -2.08817e-17 -1.62287e-33)
(0.113546 -0.835786 -1.16679e-16 -0.117758 2.39117e-17 -2.76137e-33)
(0.272453 -0.656468 -7.01211e-17 -0.273536 -8.25605e-18 -9.52281e-35)
(0.412836 -0.506367 1.47193e-17 -0.415997 -5.67567e-17 1.65128e-33)
(0.586397 -0.352494 -1.25513e-16 -0.588907 -1.88061e-18 -1.86063e-34)
(-3.4217 -1.01347 3.77853e-18 3.4189 1.25014e-17 0)
(-1.31155 -1.37031 2.81999e-17 1.30917 -1.57583e-17 -1.37576e-34)
(-1.04267 -1.64562 -1.56778e-17 1.03869 -1.27915e-17 5.53984e-35)
(-0.483418 -1.56432 -1.36215e-17 0.48302 6.19155e-18 0)
(-0.255281 -1.44548 -5.88639e-17 0.250666 2.55012e-17 -2.40554e-34)
(-0.0245627 -1.26134 1.9244e-17 0.024868 -1.91834e-17 1.97882e-34)
(0.140339 -1.08722 -1.25396e-16 -0.144836 6.8092e-17 -7.09034e-34)
(0.28242 -0.88873 1.53318e-16 -0.282441 -7.09014e-18 2.21507e-33)
(0.414249 -0.718664 1.73529e-17 -0.418057 -2.67431e-17 1.99618e-33)
(0.532619 -0.528049 -7.28582e-17 -0.533597 5.55956e-17 -1.53143e-33)
(0.640586 -0.366552 1.20224e-17 -0.643442 2.06671e-17 0)
(0.784516 -0.195343 -1.94851e-17 -0.786783 4.92332e-17 0)
(-3.51922 -1.74684 2.87504e-18 3.51676 4.67599e-18 0)
(-1.09247 -1.49671 -1.51151e-17 1.09039 5.03197e-17 6.23629e-34)
(-0.723057 -1.6583 1.07489e-16 0.719566 -3.84075e-17 -2.106e-33)
(-0.126205 -1.44426 -1.39405e-17 0.12586 -2.59329e-17 0)
(0.0955554 -1.28402 4.14316e-17 -0.0996001 -1.7937e-17 7.69069e-35)
(0.302077 -1.06927 -5.45669e-17 -0.301805 1.93853e-17 -6.32631e-35)
(0.439542 -0.878879 1.38805e-16 -0.443483 -1.21971e-17 -6.16835e-34)
(0.544342 -0.675123 1.14597e-16 -0.544357 -3.85584e-17 -2.52368e-34)
(0.646173 -0.496916 -1.74833e-16 -0.649509 3.39767e-17 1.52797e-33)
(0.726993 -0.305768 4.45265e-17 -0.727848 1.74139e-17 5.4885e-34)
(0.804453 -0.141261 -1.24728e-17 -0.806956 -2.21564e-17 0)
(0.918867 0.0405002 -1.93211e-17 -0.920853 3.79725e-17 0)
(-3.38731 -2.56339 4.92997e-18 3.38523 5.40311e-18 0)
(-0.873546 -1.58491 6.11056e-17 0.871783 -1.06373e-18 -4.60631e-34)
(-0.453523 -1.60086 -4.20276e-17 0.450576 -1.65858e-17 1.78982e-33)
(0.135989 -1.23455 -6.68054e-17 -0.13628 3.76181e-17 1.97855e-35)
(0.3405 -1.03092 2.2895e-17 -0.343911 -1.23132e-17 1.74984e-35)
(0.517927 -0.788323 1.33563e-17 -0.517697 -4.94338e-17 -2.07296e-34)
(0.627936 -0.586483 2.34417e-17 -0.631257 1.39014e-17 0)
(0.700124 -0.385265 -7.9604e-17 -0.700137 -2.86122e-17 5.25323e-34)
(0.774712 -0.204971 -1.64039e-16 -0.777524 3.82599e-17 -3.42884e-33)
(0.824101 -0.0215755 3.77239e-17 -0.82482 2.21086e-17 -5.70833e-34)
(0.875351 0.139372 -3.41549e-17 -0.877459 1.08949e-17 -7.15484e-34)
(0.962143 0.325998 8.87586e-17 -0.963814 -7.51218e-18 1.18905e-33)
(-2.99781 -3.37578 2.36828e-17 2.99616 -1.44993e-18 -7.053e-35)
(-0.661889 -1.64158 -3.51415e-17 0.660489 -7.80229e-18 5.45864e-35)
(-0.249887 -1.50138 -6.66466e-17 0.247544 4.49034e-17 2.07886e-34)
(0.28123 -0.98092 1.60394e-16 -0.281455 -4.90199e-17 -9.89918e-34)
(0.456644 -0.735722 -1.5609e-16 -0.459356 4.7244e-17 3.98977e-34)
(0.600324 -0.469112 1.37335e-16 -0.600135 -8.16999e-18 -1.04665e-33)
(0.683751 -0.259818 7.18656e-17 -0.68639 -9.80118e-17 1.98074e-33)
(0.729712 -0.0660977 -2.02492e-16 -0.729718 -1.01063e-17 -2.53625e-33)
(0.781089 0.112145 -3.21328e-17 -0.783322 4.54426e-17 1.31612e-33)
(0.807049 0.282888 -1.9343e-18 -0.807617 2.00714e-19 1.03013e-36)
(0.837846 0.436205 7.74847e-18 -0.839519 4.63239e-17 3.14432e-34)
(0.900077 0.623599 8.49449e-17 -0.901403 -1.91004e-17 -1.18905e-33)
(-2.35744 -4.09071 7.26746e-18 2.35624 1.47385e-17 0)
(-0.461142 -1.67458 2.75968e-17 0.46012 -8.38357e-18 -5.79005e-35)
(-0.11565 -1.39087 5.70269e-17 0.113941 1.31933e-18 -1.93678e-34)
(0.307023 -0.733303 -1.22669e-16 -0.307187 2.91472e-17 1.17796e-33)
(0.44199 -0.452393 1.227e-16 -0.443963 -1.25307e-17 -6.23976e-34)
(0.547854 -0.16665 -4.15601e-17 -0.547716 3.88917e-17 3.8828e-34)
(0.606023 0.0470634 -8.94079e-17 -0.607942 -8.38718e-18 6.60547e-34)
(0.632598 0.231487 5.91104e-17 -0.632602 -1.30668e-17 6.19003e-34)
(0.665188 0.405683 6.38772e-17 -0.666811 3.26467e-17 8.79317e-34)
(0.676126 0.562611 5.71707e-17 -0.676538 7.24992e-18 -5.5923e-35)
(0.692574 0.706991 1.69526e-16 -0.693788 -2.87213e-17 -1.63021e-34)
(0.733727 0.892851 -8.48715e-17 -0.734689 -3.1942e-18 1.75182e-35)
(-1.50749 -4.62257 7.41012e-18 1.50676 -2.04176e-18 0)
(-0.271331 -1.69151 -4.55029e-17 0.270713 1.58783e-17 5.32045e-35)
(-0.0418708 -1.29828 -5.24782e-17 0.0408343 -2.31505e-18 1.20715e-34)
(0.230396 -0.538077 6.82264e-17 -0.230487 -1.02315e-17 4.89302e-35)
(0.315525 -0.230989 -6.43431e-17 -0.316718 2.01583e-17 -2.90283e-35)
(0.380393 0.0680831 1.48672e-17 -0.380301 -1.86948e-17 0)
(0.414643 0.284122 -4.20086e-17 -0.415801 3.03592e-17 3.89115e-34)
(0.427836 0.460409 2.65301e-17 -0.427832 2.8939e-17 -2.08875e-34)
(0.445581 0.630587 -1.62893e-17 -0.446558 8.12014e-18 4.70426e-34)
(0.448811 0.776024 -1.32675e-18 -0.449053 2.32145e-17 8.29268e-34)
(0.45625 0.91276 -6.39976e-18 -0.456979 -3.09618e-17 -2.38111e-34)
(0.479473 1.09648 3.43704e-17 -0.480049 -3.01731e-17 -6.02461e-34)
(-0.518692 -4.90613 1.51443e-18 0.518442 -1.29541e-17 0)
(-0.0894803 -1.69835 3.59287e-18 0.0892696 -1.14689e-17 5.9605e-35)
(-0.00911659 -1.24593 -9.28038e-18 0.00876475 2.08679e-17 4.11358e-35)
(0.0848818 -0.430821 -1.27876e-17 -0.084908 8.82973e-19 -9.32835e-36)
(0.113989 -0.109886 4.21739e-17 -0.114388 -1.29641e-17 3.60402e-36)
(0.135837 0.196031 -1.21151e-17 -0.135802 1.70599e-18 -1.186e-35)
(0.147143 0.413034 8.273e-18 -0.147527 3.1336e-18 1.95923e-36)
(0.151049 0.584631 -1.88421e-17 -0.151045 6.60483e-18 2.07238e-34)
(0.156649 0.752374 2.58966e-17 -0.156972 -2.64341e-18 9.9437e-35)
(0.157132 0.891336 -1.29503e-17 -0.157208 2.89353e-18 1.9357e-34)
(0.159191 1.02371 -4.04766e-18 -0.159429 2.98313e-19 2.66061e-34)
(0.166666 1.206 7.26245e-18 -0.166852 -9.89446e-18 -4.4084e-35)
(0.518697 -4.90612 2.78874e-18 -0.518461 9.62656e-18 -2.03979e-35)
(0.0894951 -1.69835 2.22265e-17 -0.0892892 1.53801e-17 -3.51046e-35)
(0.00915277 -1.24593 2.94366e-18 -0.00881089 3.81746e-18 -3.34983e-35)
(-0.0848693 -0.430821 -8.86332e-18 0.0849185 1.01832e-19 4.96691e-35)
(-0.11395 -0.10988 -1.14542e-17 0.114357 -8.31123e-18 -9.49213e-35)
(-0.135813 0.196034 1.07235e-17 0.135803 2.80879e-18 -1.75094e-35)
(-0.147104 0.41304 -7.73469e-18 0.147506 -1.02e-17 -6.82472e-36)
(-0.151033 0.584633 -1.59028e-18 0.151048 -2.27204e-17 -1.45057e-34)
(-0.156622 0.752379 -9.69423e-18 0.156966 -4.12054e-18 -1.9616e-34)
(-0.157133 0.891335 -7.33171e-18 0.157233 1.03245e-17 -1.65053e-34)
(-0.159173 1.02371 -7.3733e-19 0.159437 1.60911e-17 -4.31962e-36)
(-0.166671 1.20599 -2.94826e-19 0.166885 -2.61628e-18 1.52353e-35)
(1.5075 -4.62258 1.38238e-17 -1.50678 -3.33513e-18 2.09406e-35)
(0.271352 -1.69152 -4.7772e-17 -0.270736 -1.09389e-17 -4.24645e-34)