/*--------------------------------*- C++ -*----------------------------------*\
| =========                 |                                                 |
| \\      /  F ield         | foam-extend: Open Source CFD                    |
|  \\    /   O peration     | Version:  3.0                                   |
|   \\  /    A nd           | Web:         http://www.extend-project.de       |
|    \\/     M anipulation  |                                                 |
\*---------------------------------------------------------------------------*/
FoamFile
{
    version     2.0;
    format      ascii;
    class       volVectorField;
    location    "33";
    object      u;
}
// * * * * * * * * * * * * * * * * * * * * * * * * * * * * * * * * * * * * * //

dimensions      [0 0 0 0 0 0 0];

internalField   nonuniform List<vector> 
576
(
(0.0533611 -0.0283921 2.11585e-20)
(0.137885 -0.0362913 3.92035e-19)
(0.255547 -0.0497791 -5.64508e-19)
(0.386972 -0.0531302 -7.77067e-19)
(0.497496 -0.0555787 -2.36529e-19)
(0.620469 -0.0543339 4.11029e-19)
(0.710021 -0.0518503 2.84283e-19)
(0.811305 -0.0465523 2.20536e-19)
(0.871736 -0.0404418 -1.91709e-19)
(0.945187 -0.0310807 -9.25581e-20)
(0.969602 -0.0211049 4.8823e-19)
(1.00871 -0.00754242 -6.05504e-20)
(0.0680596 -0.0832428 4.15402e-19)
(0.156672 -0.106405 -4.48529e-18)
(0.281316 -0.145952 -2.83898e-18)
(0.414477 -0.155779 -8.04638e-19)
(0.526269 -0.162965 1.5177e-18)
(0.648597 -0.159313 -1.53729e-19)
(0.736863 -0.152035 -4.96486e-19)
(0.835405 -0.136498 8.15842e-18)
(0.892673 -0.118585 6.3956e-18)
(0.961278 -0.091133 1.52961e-18)
(0.980528 -0.0618852 -4.31171e-18)
(1.01261 -0.0221119 -4.5507e-18)
(0.0964516 -0.13242 -5.7504e-19)
(0.192965 -0.169266 2.31316e-18)
(0.331098 -0.23218 -7.39836e-19)
(0.467611 -0.247812 -6.34014e-18)
(0.581854 -0.259245 -2.96581e-18)
(0.702938 -0.253436 3.81407e-18)
(0.788721 -0.24186 8.38246e-18)
(0.881964 -0.217144 1.88266e-18)
(0.933123 -0.188648 1.02968e-17)
(0.992364 -0.144978 4.21263e-18)
(1.00164 -0.0984498 6.53185e-19)
(1.02016 -0.0351782 1.16781e-17)
(0.136606 -0.172574 -4.53881e-19)
(0.244292 -0.220593 1.13061e-18)
(0.401503 -0.302582 -3.19346e-18)
(0.542756 -0.322956 6.51979e-18)
(0.660467 -0.337857 -7.48049e-18)
(0.779789 -0.330287 -3.52659e-19)
(0.862062 -0.315201 -1.19368e-18)
(0.94781 -0.282988 1.14067e-17)
(0.990327 -0.245853 8.15768e-18)
(1.03633 -0.188938 1.14316e-17)
(1.03149 -0.128303 6.94848e-18)
(1.03083 -0.0458432 2.58784e-17)
(0.185783 -0.200966 -1.75582e-19)
(0.307152 -0.256886 -1.42461e-18)
(0.487728 -0.352366 6.05075e-19)
(0.634787 -0.376092 -1.06142e-18)
(0.756745 -0.393446 4.32406e-18)
(0.87391 -0.384629 -1.04841e-17)
(0.951884 -0.367062 -6.00413e-18)
(1.02845 -0.329549 -1.97081e-17)
(1.06039 -0.286305 -1.80297e-17)
(1.09017 -0.220025 -8.8926e-18)
(1.06805 -0.149414 -4.5949e-18)
(1.04389 -0.0533867 -2.98222e-17)
(0.240635 -0.215664 2.22234e-19)
(0.377266 -0.275673 1.81097e-18)
(0.583903 -0.378135 -1.70566e-19)
(0.737437 -0.403597 -3.99333e-18)
(0.864132 -0.42222 -1.03021e-18)
(0.97889 -0.412759 -1.98893e-18)
(1.05207 -0.393908 -8.0271e-18)
(1.1184 -0.35365 2.1314e-18)
(1.13853 -0.307244 -7.70617e-18)
(1.15022 -0.236116 -1.4497e-17)
(1.10883 -0.160342 2.28027e-18)
(1.05846 -0.0572899 -7.12317e-18)
(0.297419 -0.215663 6.31058e-19)
(0.449851 -0.275673 4.27186e-19)
(0.683468 -0.378135 8.00264e-18)
(0.843706 -0.403597 1.6193e-18)
(0.975305 -0.422221 5.80606e-19)
(1.08757 -0.41276 -1.64902e-18)
(1.15579 -0.393909 9.37523e-19)
(1.21152 -0.353651 4.84078e-18)
(1.21943 -0.307245 -2.59348e-18)
(1.21239 -0.236116 3.47626e-18)
(1.15105 -0.160343 -1.15912e-18)
(1.07355 -0.0572898 -4.90995e-18)
(0.352271 -0.200967 3.30221e-19)
(0.519966 -0.256887 1.0915e-18)
(0.779642 -0.352366 5.03642e-18)
(0.946357 -0.376093 -5.2961e-18)
(1.08269 -0.393447 8.47824e-18)
(1.19255 -0.384631 -6.14719e-18)
(1.25598 -0.367065 -4.16665e-18)
(1.30147 -0.32955 8.53148e-19)
(1.29758 -0.286308 -1.33193e-17)
(1.27245 -0.220025 6.08385e-18)
(1.19183 -0.149417 -9.34346e-20)
(1.08812 -0.0533847 1.26295e-17)
(0.401448 -0.172573 5.02102e-19)
(0.582827 -0.220594 9.20572e-19)
(0.865868 -0.302583 -3.35685e-18)
(1.03839 -0.322958 5.6611e-18)
(1.17897 -0.33786 -5.58432e-18)
(1.28668 -0.33029 8.35791e-18)
(1.3458 -0.315206 -2.50578e-18)
(1.38211 -0.282991 -1.61064e-17)
(1.36764 -0.245858 -1.4993e-17)
(1.32629 -0.188939 -5.24053e-18)
(1.2284 -0.128307 -1.28003e-17)
(1.10118 -0.0458416 1.25354e-17)
(0.441603 -0.13242 8.58044e-19)
(0.634154 -0.169268 2.17227e-18)
(0.936273 -0.232179 5.96384e-20)
(1.11353 -0.247814 3.92624e-18)
(1.25758 -0.259249 3.90838e-19)
(1.36353 -0.25344 5.32175e-18)
(1.41914 -0.241865 8.12375e-18)
(1.44796 -0.217146 -2.99566e-18)
(1.42484 -0.188654 3.65752e-18)
(1.37025 -0.144977 6.09465e-18)
(1.25825 -0.098455 5.58047e-18)
(1.11185 -0.0351742 -5.94395e-18)
(0.469995 -0.083242 2.51856e-19)
(0.670447 -0.106407 -2.52896e-19)
(0.986055 -0.145953 1.89217e-18)
(1.16667 -0.155782 -3.11166e-18)
(1.31317 -0.16297 2.43331e-18)
(1.41787 -0.159318 -1.74643e-19)
(1.471 -0.152043 -1.08414e-18)
(1.49452 -0.136502 7.39197e-18)
(1.46529 -0.118592 6.32013e-18)
(1.40134 -0.0911345 9.19948e-18)
(1.27936 -0.061892 1.3993e-17)
(1.11939 -0.0221098 -2.01414e-18)
(0.484694 -0.0283912 -3.70649e-20)
(0.689235 -0.0362932 -2.22602e-18)
(1.01183 -0.0497796 -1.55336e-18)
(1.19418 -0.0531331 2.5383e-18)
(1.34195 -0.0555842 -1.90098e-18)
(1.446 -0.0543388 6.11076e-19)
(1.49785 -0.0518576 -1.63212e-18)
(1.51862 -0.0465556 1.65766e-18)
(1.48623 -0.0404494 1.80322e-19)
(1.41743 -0.0310811 1.2473e-18)
(1.29029 -0.0211118 1.43714e-18)
(1.1233 -0.00753821 2.33666e-18)
(0.484693 0.0283944 -2.35418e-20)
(0.689234 0.0362928 1.75146e-18)
(1.01183 0.0497854 1.91636e-18)
(1.19417 0.0531361 2.08815e-18)
(1.34195 0.055589 2.01212e-18)
(1.446 0.0543432 -1.83557e-20)
(1.49784 0.051861 2.65907e-18)
(1.51862 0.046563 -3.46442e-18)
(1.48623 0.0404504 -3.41526e-18)
(1.41743 0.03109 -4.60329e-18)
(1.29029 0.0211078 1.61458e-19)
(1.12329 0.0075467 1.17695e-18)
(0.469997 0.0832456 4.21735e-19)
(0.670449 0.106407 -1.36432e-18)
(0.986058 0.145959 -3.25794e-19)
(1.16667 0.155786 1.59056e-18)
(1.31318 0.162976 3.72662e-18)
(1.41787 0.159324 7.93657e-19)
(1.471 0.152047 -5.27347e-18)
(1.49452 0.13651 -3.0677e-18)
(1.4653 0.118594 -6.69919e-18)
(1.40134 0.0911437 -5.47909e-18)
(1.27936 0.0618889 8.1867e-19)
(1.11939 0.022118 -4.56581e-18)
(0.441603 0.132423 1.5512e-19)
(0.634155 0.169268 -4.05123e-18)
(0.936273 0.232185 -5.13174e-19)
(1.11354 0.247818 -5.93662e-18)
(1.25759 0.259254 1.45198e-18)
(1.36353 0.253445 -7.16691e-19)
(1.41914 0.24187 3.12763e-18)
(1.44796 0.217153 8.97995e-19)
(1.42484 0.188656 3.48456e-18)
(1.37025 0.144985 2.34175e-18)
(1.25825 0.0984521 4.49809e-21)
(1.11185 0.0351814 -1.04158e-17)
(0.401451 0.172577 -1.01047e-18)
(0.58283 0.220596 2.4195e-18)
(0.865872 0.30259 -3.37423e-18)
(1.03839 0.322964 -9.89704e-19)
(1.17898 0.337868 -7.83744e-18)
(1.28668 0.330298 5.84622e-18)
(1.3458 0.315212 1.03901e-17)
(1.38211 0.283 6.71642e-18)
(1.36764 0.245862 1.77935e-17)
(1.32629 0.188948 1.26634e-17)
(1.2284 0.128307 -3.91924e-18)
(1.10118 0.0458483 4.82324e-18)
(0.352272 0.200969 -7.07354e-19)
(0.519967 0.256888 -1.35931e-18)
(0.779644 0.352372 -6.37325e-18)
(0.946359 0.376098 6.6637e-18)
(1.0827 0.393455 -1.31054e-18)
(1.19256 0.384638 3.43277e-18)
(1.25598 0.367071 2.85351e-18)
(1.30147 0.329559 6.04505e-18)
(1.29758 0.286312 1.17555e-17)
(1.27245 0.220032 1.02642e-17)
(1.19184 0.149417 3.53164e-18)
(1.08812 0.0533898 2.699e-17)
(0.297422 0.215667 -7.01579e-19)
(0.449854 0.275676 -2.2107e-18)
(0.683473 0.378143 -1.58937e-18)
(0.843711 0.403605 -3.54074e-18)
(0.975314 0.422231 1.98272e-18)
(1.08758 0.41277 -4.41117e-18)
(1.1558 0.393918 -4.04987e-18)
(1.21152 0.353662 -1.70077e-17)
(1.21944 0.307252 3.7759e-18)
(1.2124 0.236125 -6.63618e-18)
(1.15106 0.160346 2.84786e-19)
(1.07355 0.0572943 -9.24562e-18)
(0.240635 0.215666 -3.6967e-19)
(0.377266 0.275675 7.4115e-19)
(0.583906 0.378142 -1.44947e-18)
(0.73744 0.403604 -1.16351e-19)
(0.864138 0.422231 -4.35359e-18)
(0.978896 0.412769 6.376e-19)
(1.05208 0.393918 -7.51773e-18)
(1.1184 0.353661 1.60907e-17)
(1.13854 0.307252 1.80846e-17)
(1.15022 0.236123 -8.88619e-18)
(1.10884 0.160346 5.68325e-18)
(1.05846 0.0572932 -4.87803e-18)
(0.185786 0.20097 -1.95905e-19)
(0.307154 0.25689 -1.21062e-18)
(0.487734 0.352375 7.64295e-18)
(0.634792 0.376101 -2.68389e-18)
(0.756753 0.393459 4.04469e-18)
(0.873917 0.384642 -6.12617e-18)
(0.951892 0.367076 5.38754e-18)
(1.02846 0.329562 1.325e-17)
(1.06039 0.286316 -6.50364e-19)
(1.09017 0.220033 -6.72861e-18)
(1.06806 0.14942 -5.07089e-18)
(1.04389 0.053389 -2.21184e-17)
(0.136607 0.172576 -7.50033e-19)
(0.244291 0.220596 2.53568e-18)
(0.401506 0.302591 -9.87312e-19)
(0.542758 0.322965 -4.62368e-18)
(0.660473 0.337872 1.3482e-18)
(0.779794 0.3303 -8.66165e-18)
(0.862068 0.315216 3.68878e-20)
(0.947814 0.283001 2.77454e-18)
(0.99033 0.245865 -1.34001e-17)
(1.03633 0.188947 -7.6822e-18)
(1.03149 0.128311 -1.26009e-17)
(1.03083 0.0458456 -3.57967e-18)
(0.0964542 0.132424 1.50815e-19)
(0.192965 0.16927 -2.25589e-19)
(0.331103 0.232189 -1.04097e-18)
(0.467614 0.247822 4.80952e-18)
(0.581861 0.259262 -6.42995e-18)
(0.702943 0.253452 5.01853e-18)
(0.788727 0.241878 -2.16498e-18)
(0.881969 0.217157 -1.59474e-17)
(0.933125 0.188662 -1.2608e-17)
(0.992367 0.144986 -1.62364e-17)
(1.00164 0.0984585 -1.5457e-17)
(1.02016 0.035179 1.99127e-17)
(0.0680611 0.0832454 7.65827e-19)
(0.156671 0.106407 3.75197e-18)
(0.281319 0.145962 1.75334e-18)
(0.414478 0.155789 -2.28374e-18)
(0.526272 0.162982 3.75659e-18)
(0.648601 0.159329 -1.33314e-18)
(0.736866 0.152054 9.29255e-19)
(0.835409 0.136513 -1.90231e-18)
(0.892674 0.1186 1.29958e-18)
(0.961281 0.0911429 -1.2598e-18)
(0.980527 0.0618952 -1.72992e-18)
(1.01262 0.0221143 -8.76888e-18)
(0.053364 0.0283957 5.31902e-20)
(0.137884 0.0362952 1.94994e-19)
(0.255549 0.04979 2.14501e-19)
(0.386972 0.0531408 -9.33838e-20)
(0.497498 0.0555983 -1.95418e-18)
(0.620471 0.0543506 6.79951e-19)
(0.71002 0.0518704 -1.23554e-18)
(0.811307 0.0465677 -4.92953e-19)
(0.871735 0.040458 -2.39595e-18)
(0.94519 0.0310907 1.41424e-18)
(0.969599 0.0211152 -1.42143e-18)
(1.00871 0.00754359 -1.13807e-18)
(0.0533638 -0.0283906 -2.12036e-20)
(0.137883 -0.0362925 -3.9204e-19)
(0.255549 -0.0497766 5.6451e-19)
(0.386972 -0.0531304 7.77076e-19)
(0.497496 -0.0555765 2.365e-19)
(0.62047 -0.0543332 -4.10978e-19)
(0.710019 -0.0518494 -2.8424e-19)
(0.811307 -0.0465523 -2.20484e-19)
(0.871734 -0.0404427 1.91697e-19)
(0.94519 -0.0310814 9.25332e-20)
(0.969598 -0.0211048 -4.88253e-19)
(1.00871 -0.00754175 6.05552e-20)
(0.0680609 -0.0832406 -4.15468e-19)
(0.15667 -0.106405 4.48544e-18)
(0.281318 -0.145949 2.839e-18)
(0.414476 -0.155779 8.04739e-19)
(0.526269 -0.162962 -1.51774e-18)
(0.648598 -0.159312 1.53744e-19)
(0.736862 -0.152034 4.96454e-19)
(0.835407 -0.136498 -8.15856e-18)
(0.892671 -0.118586 -6.3958e-18)
(0.961281 -0.0911338 -1.52981e-18)
(0.980524 -0.0618854 4.31171e-18)
(1.01262 -0.0221123 4.55075e-18)
(0.0964536 -0.132419 5.74994e-19)
(0.192963 -0.169268 -2.3132e-18)
(0.3311 -0.232176 7.3978e-19)
(0.467611 -0.247812 6.34023e-18)
(0.581855 -0.259242 2.96577e-18)
(0.702939 -0.253436 -3.81398e-18)
(0.788721 -0.241858 -8.3825e-18)
(0.881966 -0.217143 -1.88279e-18)
(0.93312 -0.188648 -1.0297e-17)
(0.992367 -0.144976 -4.21287e-18)
(1.00163 -0.0984494 -6.53269e-19)
(1.02016 -0.0351764 -1.16782e-17)
(0.136607 -0.172572 4.53865e-19)
(0.244289 -0.220594 -1.13062e-18)
(0.401503 -0.302579 3.19348e-18)
(0.542754 -0.322957 -6.51996e-18)
(0.660466 -0.337854 7.48041e-18)
(0.779788 -0.330286 3.52676e-19)
(0.86206 -0.315199 1.19391e-18)
(0.947811 -0.282988 -1.14069e-17)
(0.990324 -0.245853 -8.15768e-18)
(1.03633 -0.188938 -1.14317e-17)
(1.03149 -0.128303 -6.94853e-18)
(1.03083 -0.0458425 -2.58788e-17)
(0.185785 -0.200965 1.75565e-19)
(0.307151 -0.256888 1.42456e-18)
(0.487729 -0.352363 -6.05098e-19)
(0.634787 -0.376092 1.06151e-18)
(0.756745 -0.393442 -4.32408e-18)
(0.87391 -0.384629 1.04842e-17)
(0.951883 -0.36706 6.00426e-18)
(1.02845 -0.329548 1.97084e-17)
(1.06039 -0.286304 1.803e-17)
(1.09017 -0.220024 8.89291e-18)
(1.06805 -0.149414 4.59493e-18)
(1.04389 -0.0533848 2.98227e-17)
(0.240635 -0.215662 -2.22232e-19)
(0.377265 -0.275675 -1.81111e-18)
(0.583902 -0.378133 1.70606e-19)
(0.737436 -0.403598 3.99328e-18)
(0.864129 -0.422217 1.03035e-18)
(0.978889 -0.412758 1.98876e-18)
(1.05207 -0.393905 8.0273e-18)
(1.1184 -0.353649 -2.13183e-18)
(1.13853 -0.307243 7.70619e-18)
(1.15022 -0.236115 1.44971e-17)
(1.10883 -0.160342 -2.28024e-18)
(1.05846 -0.0572885 7.12314e-18)
(0.29742 -0.215662 -6.31057e-19)
(0.449851 -0.275675 -4.27243e-19)
(0.683467 -0.378133 -8.00268e-18)
(0.843706 -0.403598 -1.61935e-18)
(0.975303 -0.422218 -5.80626e-19)
(1.08757 -0.412759 1.64896e-18)
(1.15579 -0.393906 -9.37574e-19)
(1.21152 -0.35365 -4.84094e-18)
(1.21943 -0.307244 2.59367e-18)
(1.21239 -0.236115 -3.47619e-18)
(1.15105 -0.160343 1.15918e-18)
(1.07355 -0.0572882 4.90993e-18)
(0.352271 -0.200965 -3.30198e-19)
(0.519965 -0.256889 -1.0916e-18)
(0.77964 -0.352365 -5.03623e-18)
(0.946355 -0.376094 5.29608e-18)
(1.08269 -0.393446 -8.47812e-18)
(1.19255 -0.384631 6.14702e-18)
(1.25597 -0.367063 4.16673e-18)
(1.30147 -0.32955 -8.53016e-19)
(1.29757 -0.286307 1.33195e-17)
(1.27245 -0.220024 -6.08389e-18)
(1.19183 -0.149417 9.35301e-20)
(1.08812 -0.0533836 -1.26301e-17)
(0.401448 -0.172572 -5.02084e-19)
(0.582826 -0.220595 -9.20599e-19)
(0.865866 -0.302582 3.35693e-18)
(1.03839 -0.322959 -5.6613e-18)
(1.17897 -0.33786 5.58436e-18)
(1.28667 -0.33029 -8.35807e-18)
(1.34579 -0.315205 2.50571e-18)
(1.38211 -0.28299 1.61065e-17)
(1.36763 -0.245858 1.49929e-17)
(1.32629 -0.188938 5.24045e-18)
(1.22839 -0.128308 1.28002e-17)
(1.10118 -0.0458407 -1.25356e-17)
(0.441602 -0.132419 -8.58041e-19)
(0.634154 -0.169269 -2.17227e-18)
(0.936271 -0.232179 -5.96797e-20)
(1.11353 -0.247816 -3.92612e-18)
(1.25758 -0.259249 -3.91025e-19)
(1.36353 -0.253441 -5.32172e-18)
(1.41914 -0.241866 -8.12366e-18)
(1.44796 -0.217146 2.99537e-18)
(1.42484 -0.188654 -3.65783e-18)
(1.37025 -0.144977 -6.09499e-18)
(1.25825 -0.0984548 -5.58119e-18)
(1.11185 -0.0351739 5.94422e-18)
(0.469994 -0.0832416 -2.51854e-19)
(0.670446 -0.106407 2.52959e-19)
(0.986053 -0.145953 -1.8921e-18)
(1.16667 -0.155783 3.11164e-18)
(1.31317 -0.16297 -2.43328e-18)
(1.41787 -0.159319 1.7462e-19)
(1.471 -0.152042 1.08419e-18)
(1.49452 -0.136502 -7.39203e-18)
(1.46529 -0.118592 -6.32016e-18)
(1.40134 -0.0911341 -9.19953e-18)
(1.27936 -0.061892 -1.3993e-17)
(1.11939 -0.0221094 2.01404e-18)
(0.484692 -0.0283915 3.70559e-20)
(0.689234 -0.036294 2.22604e-18)
(1.01182 -0.0497808 1.55337e-18)
(1.19417 -0.0531344 -2.53829e-18)
(1.34194 -0.0555855 1.9009e-18)
(1.446 -0.0543402 -6.11072e-19)
(1.49784 -0.0518585 1.63208e-18)
(1.51862 -0.0465567 -1.65766e-18)
(1.48623 -0.0404496 -1.80414e-19)
(1.41743 -0.0310819 -1.24729e-18)
(1.29029 -0.0211113 -1.43715e-18)
(1.1233 -0.00753884 -2.33668e-18)
(0.484691 0.028394 2.35314e-20)
(0.689233 0.0362929 -1.75145e-18)
(1.01182 0.049785 -1.91634e-18)
(1.19417 0.0531361 -2.08813e-18)
(1.34194 0.0555887 -2.01213e-18)
(1.446 0.0543433 1.83481e-20)
(1.49784 0.0518609 -2.65907e-18)
(1.51862 0.0465633 3.4644e-18)
(1.48623 0.0404506 3.41523e-18)
(1.41743 0.0310903 4.60327e-18)
(1.29029 0.021108 -1.61465e-19)
(1.1233 0.00754675 -1.17695e-18)
(0.469995 0.0832443 -4.2178e-19)
(0.670448 0.106406 1.36441e-18)
(0.986056 0.145958 3.25856e-19)
(1.16667 0.155785 -1.59048e-18)
(1.31317 0.162974 -3.72665e-18)
(1.41787 0.159322 -7.93655e-19)
(1.471 0.152046 5.2735e-18)
(1.49452 0.136509 3.06756e-18)
(1.46529 0.118594 6.69895e-18)
(1.40134 0.0911425 5.47887e-18)
(1.27936 0.0618895 -8.18711e-19)
(1.11939 0.022117 4.56589e-18)
(0.441601 0.132422 -1.55141e-19)
(0.634154 0.169268 4.0512e-18)
(0.936272 0.232184 5.13152e-19)
(1.11353 0.247818 5.93669e-18)
(1.25759 0.259254 -1.45196e-18)
(1.36353 0.253445 7.16735e-19)
(1.41914 0.24187 -3.12776e-18)
(1.44796 0.217153 -8.98112e-19)
(1.42484 0.188656 -3.48478e-18)
(1.37025 0.144985 -2.34199e-18)
(1.25825 0.0984524 -4.57835e-21)
(1.11185 0.0351814 1.04156e-17)
(0.401449 0.172575 1.01046e-18)
(0.582829 0.220595 -2.41951e-18)
(0.865871 0.302588 3.37431e-18)
(1.03839 0.322963 9.89559e-19)
(1.17898 0.337867 7.83741e-18)
(1.28668 0.330296 -5.84619e-18)
(1.3458 0.315211 -1.03898e-17)
(1.38211 0.282999 -6.71661e-18)
(1.36764 0.245862 -1.77935e-17)
(1.32629 0.188947 -1.26635e-17)
(1.2284 0.128307 3.91921e-18)
(1.10118 0.0458474 -4.82369e-18)
(0.35227 0.200967 7.07338e-19)
(0.519965 0.256889 1.35929e-18)
(0.779643 0.35237 6.3732e-18)
(0.946358 0.376098 -6.66359e-18)
(1.0827 0.393454 1.31043e-18)
(1.19256 0.384638 -3.43267e-18)
(1.25598 0.367072 -2.85341e-18)
(1.30147 0.329558 -6.04478e-18)
(1.29758 0.286312 -1.17551e-17)
(1.27245 0.220032 -1.02637e-17)
(1.19184 0.149417 -3.53165e-18)
(1.08812 0.0533899 -2.69894e-17)
(0.297421 0.215665 7.01578e-19)
(0.449854 0.275676 2.21059e-18)
(0.683472 0.378141 1.58942e-18)
(0.843711 0.403603 3.54069e-18)
(0.975314 0.42223 -1.98256e-18)
(1.08758 0.412768 4.41098e-18)
(1.1558 0.393917 4.0501e-18)
(1.21152 0.35366 1.70072e-17)
(1.21944 0.307252 -3.77597e-18)
(1.2124 0.236124 6.63631e-18)
(1.15106 0.160346 -2.84769e-19)
(1.07355 0.0572938 9.24559e-18)
(0.240635 0.215663 3.69657e-19)
(0.377265 0.275676 -7.41176e-19)
(0.583905 0.37814 1.4494e-18)
(0.737439 0.403603 1.16318e-19)
(0.864138 0.42223 4.35352e-18)
(0.978895 0.412768 -6.37622e-19)
(1.05208 0.393918 7.51766e-18)
(1.1184 0.35366 -1.60909e-17)
(1.13854 0.307253 -1.80843e-17)
(1.15022 0.236124 8.88618e-18)
(1.10884 0.160346 -5.68317e-18)
(1.05846 0.0572939 4.87803e-18)
(0.185786 0.200967 1.95919e-19)
(0.307153 0.256891 1.21051e-18)
(0.487734 0.352372 -7.64274e-18)
(0.634792 0.3761 2.68385e-18)
(0.756754 0.393458 -4.04458e-18)
(0.873918 0.384641 6.126e-18)
(0.951894 0.367076 -5.38745e-18)
(1.02846 0.329561 -1.32499e-17)
(1.0604 0.286316 6.50674e-19)
(1.09017 0.220033 6.72858e-18)
(1.06806 0.149421 5.07104e-18)
(1.04389 0.0533897 2.21179e-17)
(0.136607 0.172572 7.50033e-19)
(0.244289 0.220596 -2.53569e-18)
(0.401506 0.302587 9.87365e-19)
(0.542757 0.322964 4.62349e-18)
(0.660472 0.33787 -1.34816e-18)
(0.779793 0.330299 8.6615e-18)
(0.862068 0.315216 -3.69227e-20)
(0.947813 0.283001 -2.77443e-18)
(0.990332 0.245866 1.34001e-17)
(1.03633 0.188948 7.68215e-18)
(1.03149 0.128312 1.26009e-17)
(1.03082 0.0458472 3.57951e-18)
(0.0964551 0.132421 -1.50818e-19)
(0.192964 0.169271 2.25585e-19)
(0.331104 0.232186 1.04091e-18)
(0.467613 0.247823 -4.8094e-18)
(0.581862 0.25926 6.42976e-18)
(0.702942 0.253451 -5.01846e-18)
(0.788729 0.241877 2.16506e-18)
(0.881968 0.217157 1.59471e-17)
(0.933127 0.188662 1.26077e-17)
(0.992365 0.144986 1.6236e-17)
(1.00164 0.0984586 1.54564e-17)
(1.02016 0.0351795 -1.99125e-17)
(0.068061 0.0832414 -7.65841e-19)
(0.15667 0.106407 -3.75188e-18)
(0.281319 0.145958 -1.75329e-18)
(0.414476 0.155787 2.28372e-18)
(0.526273 0.162979 -3.75656e-18)
(0.648599 0.159327 1.33316e-18)
(0.736867 0.152053 -9.29155e-19)
(0.835406 0.136512 1.90227e-18)
(0.892676 0.1186 -1.29956e-18)
(0.961278 0.0911435 1.25976e-18)
(0.98053 0.0618952 1.72989e-18)
(1.01261 0.0221146 8.76879e-18)
(0.0533638 0.0283933 -5.31896e-20)
(0.137882 0.0362964 -1.94947e-19)
(0.255549 0.0497873 -2.145e-19)
(0.38697 0.0531408 9.34121e-20)
(0.497498 0.0555967 1.9541e-18)
(0.620468 0.0543508 -6.79962e-19)
(0.710021 0.0518708 1.23548e-18)
(0.811303 0.0465679 4.92941e-19)
(0.871737 0.0404587 2.39585e-18)
(0.945186 0.0310917 -1.41424e-18)
(0.969602 0.021116 1.4214e-18)
(1.00871 0.00754542 1.13805e-18)
)
;

boundaryField
{
    out
    {
        type            fixedValue;
        value           uniform (1 0 0);
    }
    in
    {
        type            fixedValue;
        value           uniform (0 0 0);
    }
    frontAndBack
    {
        type            empty;
    }
}


// ************************************************************************* //
