/*--------------------------------*- C++ -*----------------------------------*\
| =========                 |                                                 |
| \\      /  F ield         | foam-extend: Open Source CFD                    |
|  \\    /   O peration     | Version:  3.0                                   |
|   \\  /    A nd           | Web:         http://www.extend-project.de       |
|    \\/     M anipulation  |                                                 |
\*---------------------------------------------------------------------------*/
FoamFile
{
    version     2.0;
    format      ascii;
    class       volScalarField;
    location    "42";
    object      p;
}
// * * * * * * * * * * * * * * * * * * * * * * * * * * * * * * * * * * * * * //

dimensions      [0 0 0 0 0 0 0];

internalField   nonuniform List<scalar> 
7680
(
-0.234241
-0.222223
-0.213322
-0.203915
-0.197108
-0.189629
-0.184378
-0.178367
-0.174302
-0.169433
-0.166288
-0.162324
-0.159903
-0.156664
-0.154816
-0.152162
-0.150768
-0.148587
-0.147549
-0.14575
-0.144987
-0.14349
-0.142928
-0.141665
-0.14124
-0.140146
-0.139796
-0.138813
-0.138477
-0.137548
-0.137166
-0.136234
-0.135745
-0.134753
-0.134093
-0.132988
-0.132096
-0.130828
-0.129651
-0.12819
-0.234036
-0.222027
-0.213133
-0.203734
-0.196932
-0.189459
-0.184212
-0.178206
-0.174144
-0.169279
-0.166137
-0.162176
-0.159756
-0.15652
-0.154672
-0.152021
-0.150627
-0.148449
-0.14741
-0.145613
-0.144849
-0.143354
-0.142791
-0.141529
-0.141103
-0.140011
-0.139659
-0.138677
-0.13834
-0.13741
-0.137027
-0.136093
-0.1356
-0.134605
-0.133941
-0.132828
-0.131931
-0.130652
-0.129475
-0.128007
-0.233484
-0.221504
-0.212632
-0.203255
-0.196469
-0.189015
-0.183781
-0.177789
-0.173737
-0.168884
-0.165749
-0.161798
-0.159384
-0.156155
-0.154313
-0.151668
-0.150277
-0.148104
-0.147069
-0.145276
-0.144514
-0.143022
-0.142462
-0.141202
-0.140778
-0.139688
-0.139338
-0.138358
-0.138022
-0.137094
-0.136711
-0.135776
-0.135284
-0.134286
-0.133618
-0.132498
-0.131591
-0.130299
-0.129098
-0.127621
-0.232787
-0.220841
-0.211994
-0.202645
-0.195879
-0.188446
-0.183227
-0.177252
-0.173212
-0.168373
-0.165247
-0.161308
-0.158901
-0.155682
-0.153844
-0.151207
-0.14982
-0.147653
-0.146621
-0.144833
-0.144073
-0.142586
-0.142026
-0.140771
-0.140348
-0.139262
-0.138912
-0.137935
-0.137601
-0.136675
-0.136294
-0.135362
-0.134871
-0.133874
-0.133208
-0.132086
-0.131179
-0.129878
-0.128671
-0.127172
-0.231729
-0.219838
-0.211032
-0.201726
-0.194991
-0.187592
-0.182397
-0.17645
-0.172429
-0.167612
-0.164501
-0.160579
-0.158184
-0.154979
-0.153151
-0.150525
-0.149146
-0.146988
-0.145961
-0.144182
-0.143426
-0.141945
-0.14139
-0.14014
-0.13972
-0.138639
-0.138294
-0.137321
-0.136991
-0.13607
-0.135694
-0.134766
-0.134283
-0.13329
-0.132634
-0.131514
-0.13062
-0.129316
-0.128121
-0.126592
-0.23054
-0.21871
-0.209948
-0.200688
-0.193987
-0.186626
-0.181457
-0.17554
-0.171539
-0.166747
-0.163651
-0.15975
-0.157366
-0.154178
-0.152358
-0.149746
-0.148373
-0.146227
-0.145205
-0.143435
-0.142682
-0.14121
-0.140657
-0.139415
-0.138997
-0.137922
-0.137578
-0.136612
-0.136285
-0.13537
-0.134998
-0.134077
-0.1336
-0.132613
-0.131964
-0.130848
-0.129958
-0.12865
-0.127444
-0.125886
-0.228981
-0.217231
-0.208529
-0.199333
-0.192678
-0.185367
-0.180234
-0.174357
-0.170384
-0.165624
-0.16255
-0.158674
-0.156308
-0.153141
-0.151334
-0.14874
-0.147376
-0.145245
-0.14423
-0.142472
-0.141726
-0.140263
-0.139715
-0.138481
-0.138068
-0.137
-0.136662
-0.135703
-0.135382
-0.134474
-0.134111
-0.133197
-0.132731
-0.131751
-0.131119
-0.130009
-0.129138
-0.127825
-0.126632
-0.125018
-0.227307
-0.215642
-0.207003
-0.197873
-0.191266
-0.184008
-0.178912
-0.173078
-0.169133
-0.164408
-0.161356
-0.157509
-0.155159
-0.152015
-0.150221
-0.147646
-0.146292
-0.144177
-0.143169
-0.141424
-0.140683
-0.139231
-0.138687
-0.137463
-0.137052
-0.135994
-0.135658
-0.134708
-0.134389
-0.13349
-0.133131
-0.132227
-0.131767
-0.130796
-0.13017
-0.129066
-0.128198
-0.126883
-0.125678
-0.124045
-0.225253
-0.213694
-0.205134
-0.196088
-0.189541
-0.182349
-0.177299
-0.171519
-0.16761
-0.162927
-0.159904
-0.156091
-0.153763
-0.150648
-0.148871
-0.146319
-0.144978
-0.142881
-0.141883
-0.140154
-0.13942
-0.137982
-0.137444
-0.13623
-0.135825
-0.134776
-0.134446
-0.133504
-0.133192
-0.132302
-0.131951
-0.131054
-0.130605
-0.129642
-0.12903
-0.12793
-0.127078
-0.125758
-0.124561
-0.122892
-0.223101
-0.211651
-0.203172
-0.194211
-0.187726
-0.180603
-0.175601
-0.169875
-0.166003
-0.161366
-0.15837
-0.154594
-0.152288
-0.149203
-0.147442
-0.144915
-0.143586
-0.14151
-0.140521
-0.138808
-0.138081
-0.136657
-0.136124
-0.134922
-0.134521
-0.133482
-0.133155
-0.132223
-0.131914
-0.131032
-0.130685
-0.129797
-0.129352
-0.128398
-0.127789
-0.126697
-0.125846
-0.124529
-0.123327
-0.12166
-0.220561
-0.209243
-0.200861
-0.192003
-0.185593
-0.178551
-0.173607
-0.167946
-0.164119
-0.159534
-0.156574
-0.152841
-0.150561
-0.147511
-0.145771
-0.143272
-0.141959
-0.139906
-0.138929
-0.137236
-0.136518
-0.135109
-0.134583
-0.133395
-0.132999
-0.131972
-0.131649
-0.130727
-0.130423
-0.129551
-0.129209
-0.128331
-0.127893
-0.126946
-0.126347
-0.125261
-0.12442
-0.123108
-0.121917
-0.120253
-0.217939
-0.206755
-0.198472
-0.189718
-0.183384
-0.176425
-0.171539
-0.165946
-0.162164
-0.157633
-0.154708
-0.151019
-0.148766
-0.145753
-0.144033
-0.141564
-0.140266
-0.138238
-0.137272
-0.135599
-0.134889
-0.133498
-0.132977
-0.131803
-0.131411
-0.130396
-0.130076
-0.129165
-0.128862
-0.128
-0.127659
-0.12679
-0.126353
-0.125416
-0.124818
-0.123743
-0.122904
-0.121607
-0.120422
-0.118788
-0.214924
-0.203896
-0.195729
-0.187097
-0.180851
-0.173989
-0.169171
-0.163656
-0.159926
-0.155459
-0.152574
-0.148937
-0.146716
-0.143744
-0.142048
-0.139613
-0.138334
-0.136333
-0.135381
-0.133731
-0.133031
-0.131658
-0.131145
-0.129987
-0.1296
-0.128598
-0.128283
-0.127383
-0.127085
-0.126232
-0.125896
-0.125036
-0.124603
-0.123676
-0.123083
-0.12202
-0.121191
-0.119912
-0.118747
-0.117151
-0.211845
-0.200974
-0.192922
-0.184414
-0.178257
-0.171492
-0.166743
-0.161307
-0.157631
-0.153227
-0.150383
-0.146798
-0.144609
-0.141679
-0.140008
-0.137608
-0.136347
-0.134375
-0.133436
-0.13181
-0.131119
-0.129766
-0.129259
-0.128117
-0.127735
-0.126747
-0.126434
-0.125546
-0.125249
-0.124407
-0.124071
-0.123221
-0.122789
-0.121873
-0.121282
-0.120235
-0.119411
-0.118158
-0.117013
-0.115468
-0.208368
-0.197676
-0.189758
-0.18139
-0.175335
-0.168683
-0.164013
-0.158666
-0.15505
-0.150719
-0.147923
-0.144396
-0.142243
-0.139362
-0.137718
-0.135357
-0.134117
-0.132178
-0.131255
-0.129654
-0.128975
-0.127644
-0.127145
-0.126021
-0.125645
-0.124672
-0.124363
-0.123488
-0.123194
-0.122364
-0.122031
-0.121192
-0.120763
-0.11986
-0.119274
-0.118245
-0.117434
-0.116211
-0.115094
-0.113606
-0.204844
-0.194332
-0.186547
-0.17832
-0.172367
-0.165827
-0.161235
-0.155978
-0.152424
-0.148166
-0.145416
-0.14195
-0.139833
-0.137001
-0.135385
-0.133064
-0.131845
-0.129938
-0.12903
-0.127457
-0.126789
-0.12548
-0.124989
-0.123883
-0.123512
-0.122555
-0.122249
-0.121387
-0.121095
-0.120277
-0.119945
-0.119119
-0.118691
-0.117802
-0.11722
-0.116211
-0.11541
-0.114222
-0.113132
-0.111705
-0.200919
-0.190611
-0.182976
-0.174908
-0.169069
-0.162655
-0.158152
-0.152997
-0.149511
-0.145335
-0.142639
-0.139239
-0.137163
-0.134385
-0.1328
-0.130523
-0.129327
-0.127457
-0.126567
-0.125024
-0.124368
-0.123084
-0.122602
-0.121517
-0.121152
-0.120212
-0.119911
-0.119065
-0.118776
-0.117972
-0.117643
-0.116831
-0.116408
-0.115535
-0.114961
-0.113975
-0.11319
-0.112037
-0.110979
-0.109614
-0.196966
-0.186859
-0.179374
-0.171464
-0.16574
-0.159451
-0.155037
-0.149982
-0.146565
-0.142471
-0.139828
-0.136495
-0.13446
-0.131736
-0.130183
-0.127952
-0.126779
-0.124946
-0.124073
-0.12256
-0.121917
-0.120658
-0.120185
-0.119121
-0.118762
-0.11784
-0.117544
-0.116712
-0.116427
-0.115637
-0.115312
-0.114514
-0.114095
-0.11324
-0.112673
-0.111711
-0.11094
-0.109823
-0.108796
-0.107489
-0.192611
-0.182729
-0.175411
-0.167677
-0.16208
-0.155932
-0.151616
-0.146674
-0.143332
-0.13933
-0.136745
-0.133486
-0.131496
-0.128833
-0.127314
-0.125132
-0.123985
-0.122193
-0.121339
-0.119859
-0.119231
-0.117999
-0.117536
-0.116496
-0.116144
-0.115242
-0.114951
-0.114138
-0.113858
-0.113085
-0.112765
-0.111984
-0.111573
-0.110737
-0.110181
-0.109244
-0.108492
-0.107411
-0.106417
-0.105164
-0.188245
-0.178586
-0.171433
-0.163874
-0.158403
-0.152394
-0.148175
-0.143345
-0.140079
-0.136168
-0.133641
-0.130456
-0.128512
-0.125909
-0.124425
-0.122292
-0.121172
-0.11942
-0.118586
-0.11714
-0.116526
-0.115322
-0.11487
-0.113853
-0.113509
-0.112627
-0.112342
-0.111547
-0.111272
-0.110516
-0.110202
-0.109439
-0.109036
-0.10822
-0.107676
-0.106764
-0.10603
-0.104982
-0.104017
-0.102811
-0.183478
-0.174066
-0.167095
-0.159729
-0.154398
-0.148542
-0.14443
-0.139723
-0.136541
-0.132728
-0.130266
-0.127162
-0.125267
-0.122731
-0.121284
-0.119206
-0.118114
-0.116407
-0.115594
-0.114184
-0.113586
-0.112413
-0.111972
-0.11098
-0.110645
-0.109786
-0.109508
-0.108733
-0.108465
-0.107729
-0.107423
-0.106681
-0.106288
-0.105496
-0.104967
-0.104082
-0.103369
-0.102354
-0.101419
-0.100253
-0.178718
-0.169549
-0.162758
-0.155582
-0.150389
-0.144685
-0.14068
-0.136095
-0.132995
-0.129281
-0.126883
-0.12386
-0.122014
-0.119544
-0.118135
-0.116111
-0.115048
-0.113385
-0.112593
-0.111221
-0.110638
-0.109496
-0.109067
-0.108102
-0.107776
-0.106939
-0.106669
-0.105915
-0.105655
-0.104939
-0.104642
-0.103921
-0.103539
-0.10277
-0.102256
-0.101397
-0.100705
-0.099719
-0.0988099
-0.0976749
-0.173559
-0.164657
-0.158064
-0.151097
-0.146055
-0.140516
-0.136627
-0.132175
-0.129165
-0.125559
-0.123231
-0.120295
-0.118503
-0.116104
-0.114736
-0.112771
-0.111738
-0.110124
-0.109355
-0.108023
-0.107457
-0.106348
-0.105931
-0.104995
-0.104679
-0.103867
-0.103606
-0.102875
-0.102623
-0.10193
-0.101644
-0.100946
-0.100579
-0.099835
-0.09934
-0.0985085
-0.0978401
-0.096883
-0.0960007
-0.0948917
-0.168426
-0.159786
-0.153387
-0.146625
-0.141732
-0.136356
-0.132583
-0.128262
-0.125341
-0.121842
-0.119583
-0.116734
-0.114995
-0.112668
-0.11134
-0.109434
-0.108432
-0.106866
-0.106121
-0.104828
-0.10428
-0.103204
-0.102801
-0.101893
-0.101587
-0.1008
-0.100548
-0.0998406
-0.0995986
-0.0989284
-0.0986534
-0.0979794
-0.0976272
-0.0969082
-0.096433
-0.0956275
-0.094983
-0.0940509
-0.0931928
-0.0921007
-0.162898
-0.154544
-0.148357
-0.141818
-0.137087
-0.131889
-0.12824
-0.124062
-0.121237
-0.117854
-0.115669
-0.112914
-0.111232
-0.108981
-0.107697
-0.105854
-0.104885
-0.103371
-0.10265
-0.101401
-0.10087
-0.099831
-0.0994412
-0.0985639
-0.098269
-0.0975099
-0.0972673
-0.0965851
-0.0963532
-0.095708
-0.0954454
-0.0947974
-0.0944613
-0.0937702
-0.0933161
-0.0925399
-0.0919209
-0.0910164
-0.0901839
-0.0891085
-0.157412
-0.149339
-0.143359
-0.13704
-0.132468
-0.127445
-0.123918
-0.119881
-0.117151
-0.113882
-0.111771
-0.109109
-0.107484
-0.10531
-0.10407
-0.102289
-0.101353
-0.0998904
-0.0991946
-0.0979879
-0.0974763
-0.0964729
-0.0960972
-0.0952506
-0.0949671
-0.0942351
-0.0940027
-0.0933455
-0.0931244
-0.0925036
-0.0922541
-0.0916312
-0.0913123
-0.0906476
-0.0902159
-0.089467
-0.0888746
-0.0879947
-0.0871876
-0.0861233
-0.151539
-0.143769
-0.138014
-0.131933
-0.127532
-0.122697
-0.119303
-0.115417
-0.11279
-0.109643
-0.107611
-0.105049
-0.103485
-0.101392
-0.100199
-0.0984844
-0.0975842
-0.0961763
-0.0955068
-0.0943456
-0.0938536
-0.0928884
-0.0925274
-0.0917135
-0.0914416
-0.0907385
-0.0905163
-0.0898859
-0.0896754
-0.0890809
-0.0888441
-0.0882485
-0.0879462
-0.0873109
-0.0869008
-0.0861833
-0.0856175
-0.0847679
-0.083988
-0.0829425
-0.145725
-0.138252
-0.132718
-0.126869
-0.122637
-0.117987
-0.114723
-0.110986
-0.10846
-0.105434
-0.10348
-0.101017
-0.0995135
-0.0975012
-0.096354
-0.094706
-0.0938411
-0.0924878
-0.0918448
-0.090729
-0.0902567
-0.0893295
-0.0889836
-0.0882021
-0.0879421
-0.0872675
-0.0870559
-0.0864516
-0.0862521
-0.0856828
-0.0854592
-0.0848892
-0.0846041
-0.0839959
-0.0836086
-0.0829197
-0.0823824
-0.0815607
-0.0808112
-0.079782
-0.139531
-0.132378
-0.127081
-0.121482
-0.117431
-0.112981
-0.109856
-0.106279
-0.103861
-0.100964
-0.0990934
-0.0967352
-0.0952957
-0.0933694
-0.0922711
-0.0906936
-0.0898657
-0.0885705
-0.087955
-0.0868873
-0.0864355
-0.0855485
-0.0852179
-0.0844708
-0.0842228
-0.0835782
-0.0833769
-0.0828002
-0.0826109
-0.0820683
-0.0818563
-0.0813138
-0.0810434
-0.0804648
-0.080097
-0.079441
-0.0789289
-0.0781434
-0.0774239
-0.0764299
-0.133414
-0.126573
-0.121508
-0.116154
-0.11228
-0.108024
-0.105037
-0.101617
-0.0993046
-0.096535
-0.094747
-0.0924925
-0.0911167
-0.0892753
-0.0882258
-0.086718
-0.0859272
-0.0846894
-0.0841018
-0.0830816
-0.0826507
-0.0818035
-0.0814885
-0.0807752
-0.0805394
-0.0799244
-0.0797335
-0.0791835
-0.0790045
-0.0784871
-0.078287
-0.0777697
-0.0775145
-0.0769624
-0.0766151
-0.0759884
-0.0755043
-0.0747516
-0.074069
-0.0731059
-0.126925
-0.120421
-0.115603
-0.110512
-0.106827
-0.10278
-0.0999383
-0.0966854
-0.0944862
-0.0918519
-0.0901511
-0.0880069
-0.0866981
-0.0849468
-0.0839485
-0.0825145
-0.0817623
-0.0805853
-0.0800265
-0.0790566
-0.078647
-0.0778418
-0.0775427
-0.076865
-0.0766413
-0.0760573
-0.0758764
-0.0753545
-0.0751847
-0.074694
-0.0745038
-0.0740131
-0.0737698
-0.0732461
-0.0729139
-0.0723198
-0.0718562
-0.0711446
-0.0704922
-0.0695902
-0.120531
-0.114353
-0.109777
-0.104942
-0.101443
-0.097599
-0.0949008
-0.0918117
-0.0897236
-0.0872222
-0.0856076
-0.0835717
-0.0823296
-0.0806669
-0.0797196
-0.0783585
-0.077645
-0.0765279
-0.0759982
-0.0750779
-0.0746899
-0.0739261
-0.0736431
-0.0730004
-0.0727891
-0.0722354
-0.0720647
-0.0715698
-0.0714095
-0.0709438
-0.0707639
-0.0702977
-0.0700668
-0.0695685
-0.069253
-0.0686876
-0.0682487
-0.0675733
-0.0669616
-0.0661074
-0.113776
-0.107947
-0.10363
-0.0990676
-0.0957659
-0.0921389
-0.0895925
-0.0866776
-0.0847069
-0.0823464
-0.0808226
-0.0789014
-0.077729
-0.07616
-0.075266
-0.0739817
-0.0733084
-0.0722544
-0.0717547
-0.0708866
-0.0705208
-0.0698005
-0.0695337
-0.0689279
-0.0687289
-0.0682071
-0.0680461
-0.0675797
-0.0674282
-0.0669892
-0.0668181
-0.066378
-0.066157
-0.065686
-0.0653823
-0.0648478
-0.0644247
-0.0637903
-0.0632047
-0.0624287
-0.107132
-0.101642
-0.0975765
-0.0932798
-0.0901708
-0.0867554
-0.0843579
-0.0816132
-0.0797579
-0.0775355
-0.0761013
-0.0742926
-0.0731894
-0.0717125
-0.0708715
-0.0696627
-0.0690296
-0.0680379
-0.0675682
-0.0667516
-0.066408
-0.0657307
-0.0654804
-0.0649108
-0.0647241
-0.0642335
-0.0640826
-0.0636438
-0.0635013
-0.0630878
-0.0629261
-0.0625108
-0.0623008
-0.0618554
-0.0615663
-0.0610608
-0.0606598
-0.0600632
-0.0595178
-0.0588023
-0.10014
-0.0950115
-0.0912131
-0.087199
-0.084294
-0.0811029
-0.0788626
-0.0762981
-0.0745644
-0.0724878
-0.0711474
-0.0694574
-0.0684264
-0.0670465
-0.0662606
-0.0651312
-0.0645396
-0.0636133
-0.0631746
-0.0624119
-0.0620911
-0.0614587
-0.0612252
-0.0606935
-0.0605195
-0.0600617
-0.0599209
-0.0595115
-0.0593781
-0.058992
-0.0588398
-0.0584515
-0.0582528
-0.0578357
-0.0575607
-0.057087
-0.0567046
-0.056148
-0.0556296
-0.0549817
-0.0932735
-0.088496
-0.0849575
-0.0812181
-0.0785122
-0.0755397
-0.0734532
-0.0710646
-0.0694502
-0.0675162
-0.0662683
-0.0646946
-0.063735
-0.0624502
-0.061719
-0.0606677
-0.0601175
-0.0592554
-0.0588477
-0.0581381
-0.0578402
-0.057252
-0.0570353
-0.056541
-0.0563796
-0.055954
-0.0558233
-0.0554426
-0.0553184
-0.0549592
-0.0548168
-0.0544552
-0.0542686
-0.05388
-0.0536214
-0.0531807
-0.0528222
-0.0523076
-0.0518263
-0.0512391
-0.0860743
-0.0816686
-0.0784052
-0.0749566
-0.0724608
-0.0697192
-0.0677945
-0.0655913
-0.064102
-0.0623181
-0.0611668
-0.0597153
-0.0588299
-0.057645
-0.0569704
-0.0560009
-0.0554934
-0.0546985
-0.0543226
-0.0536685
-0.053394
-0.052852
-0.0526526
-0.0521973
-0.052049
-0.0516572
-0.0515373
-0.051187
-0.0510732
-0.0507427
-0.0506121
-0.0502797
-0.0501085
-0.0497519
-0.0495153
-0.049113
-0.0487879
-0.0483221
-0.0478933
-0.0473637
-0.0790157
-0.0749704
-0.0719743
-0.068808
-0.0665168
-0.0639999
-0.0622334
-0.060211
-0.0588442
-0.057207
-0.0561507
-0.0548187
-0.0540067
-0.0529194
-0.052301
-0.0514117
-0.0509468
-0.0502178
-0.0498736
-0.049274
-0.049023
-0.0485263
-0.0483442
-0.0479272
-0.0477919
-0.0474333
-0.0473239
-0.0470035
-0.0468995
-0.0465975
-0.046478
-0.0461746
-0.0460177
-0.0456931
-0.0454764
-0.0451116
-0.0448137
-0.0443934
-0.0439992
-0.0435239
-0.07164
-0.0679756
-0.0652611
-0.0623926
-0.0603166
-0.0580362
-0.0564353
-0.0546028
-0.0533642
-0.0518807
-0.0509234
-0.0497164
-0.0489805
-0.0479954
-0.047435
-0.0466294
-0.0462082
-0.045548
-0.0452364
-0.0446936
-0.0444665
-0.0440172
-0.0438528
-0.0434758
-0.0433541
-0.0430302
-0.0429323
-0.0426433
-0.0425508
-0.0422789
-0.0421731
-0.0419007
-0.0417626
-0.0414722
-0.0412825
-0.0409574
-0.0406985
-0.0403234
-0.0399816
-0.03954
-0.0644192
-0.0611234
-0.0586823
-0.0561025
-0.0542359
-0.0521853
-0.0507462
-0.0490986
-0.0479854
-0.0466517
-0.0457916
-0.0447068
-0.0440459
-0.0431608
-0.0426578
-0.0419341
-0.0415563
-0.0409635
-0.0406843
-0.0401971
-0.039994
-0.039591
-0.0394441
-0.0391063
-0.0389979
-0.038708
-0.038621
-0.0383628
-0.0382807
-0.0380383
-0.0379445
-0.0377025
-0.0375799
-0.0373228
-0.0371543
-0.0368672
-0.0366358
-0.0363037
-0.0359937
-0.0356008
-0.0568986
-0.053991
-0.051837
-0.0495608
-0.0479134
-0.0461039
-0.0448336
-0.0433796
-0.042397
-0.04122
-0.0404608
-0.0395035
-0.0389201
-0.0381391
-0.0376952
-0.0370567
-0.0367235
-0.0362007
-0.0359547
-0.0355253
-0.0353466
-0.0349918
-0.034863
-0.0345659
-0.0344715
-0.034217
-0.0341419
-0.0339158
-0.0338458
-0.0336342
-0.0335549
-0.0333444
-0.0332414
-0.0330183
-0.032877
-0.0326274
-0.0324325
-0.0321402
-0.0318749
-0.0315125
-0.0495464
-0.0470141
-0.0451383
-0.0431561
-0.0417219
-0.0401463
-0.0390407
-0.0377749
-0.0369199
-0.0358956
-0.0352353
-0.0344023
-0.0338952
-0.0332159
-0.0328303
-0.0322753
-0.0319862
-0.0315319
-0.0313188
-0.030946
-0.0307916
-0.0304838
-0.0303729
-0.0301156
-0.0300345
-0.0298146
-0.0297505
-0.0295556
-0.0294961
-0.0293145
-0.0292471
-0.0290671
-0.0289793
-0.0287892
-0.028668
-0.0284549
-0.028286
-0.028034
-0.0277997
-0.0274832
-0.0419133
-0.0397747
-0.0381903
-0.036516
-0.0353042
-0.0339733
-0.033039
-0.0319696
-0.0312471
-0.0303817
-0.0298237
-0.02912
-0.0286917
-0.0281179
-0.0277923
-0.0273237
-0.0270798
-0.0266966
-0.026517
-0.0262028
-0.0260731
-0.0258141
-0.0257215
-0.0255054
-0.0254384
-0.0252542
-0.0252022
-0.0250396
-0.0249921
-0.0248412
-0.0247881
-0.0246391
-0.0245701
-0.0244127
-0.0243167
-0.0241393
-0.0240031
-0.0237895
-0.0235954
-0.0233183
-0.0344611
-0.0327029
-0.0314004
-0.0300241
-0.0290283
-0.0279345
-0.027167
-0.0262884
-0.0256952
-0.0249845
-0.0245267
-0.023949
-0.0235979
-0.0231271
-0.0228607
-0.0224765
-0.0222772
-0.0219633
-0.0218171
-0.0215601
-0.0214549
-0.0212435
-0.0211688
-0.0209929
-0.0209393
-0.0207899
-0.0207487
-0.0206175
-0.0205801
-0.020459
-0.0204172
-0.0202982
-0.0202434
-0.0201181
-0.0200409
-0.0198989
-0.0197879
-0.0196147
-0.0194537
-0.0192251
-0.0267481
-0.0253876
-0.0243794
-0.0233141
-0.022543
-0.0216962
-0.0211019
-0.0204216
-0.0199623
-0.019412
-0.0190576
-0.0186105
-0.0183389
-0.0179747
-0.0177688
-0.0174719
-0.0173182
-0.017076
-0.0169636
-0.0167657
-0.0166854
-0.0165231
-0.0164668
-0.0163323
-0.0162928
-0.0161792
-0.0161498
-0.0160507
-0.0160249
-0.0159342
-0.0159057
-0.0158171
-0.0157795
-0.0156862
-0.015632
-0.0155253
-0.0154449
-0.0153122
-0.0151914
-0.0150112
-0.0192278
-0.018251
-0.0175273
-0.0167627
-0.0162095
-0.015602
-0.0151759
-0.0146882
-0.0143593
-0.013965
-0.0137117
-0.0133917
-0.013198
-0.0129377
-0.0127913
-0.0125796
-0.0124709
-0.0122986
-0.0122197
-0.0120795
-0.0120237
-0.0119093
-0.0118709
-0.0117768
-0.0117506
-0.0116718
-0.0116529
-0.011585
-0.011569
-0.0115076
-0.0114897
-0.0114304
-0.0114061
-0.0113439
-0.0113076
-0.0112362
-0.0111807
-0.0110901
-0.0110051
-0.0108787
-0.011468
-0.0108911
-0.0104634
-0.0100115
-0.00968436
-0.00932521
-0.00907329
-0.00878503
-0.00859071
-0.00835791
-0.00820851
-0.00801987
-0.007906
-0.00775298
-0.00766743
-0.00754342
-0.0074805
-0.00738022
-0.0073353
-0.00725441
-0.0072236
-0.00715842
-0.00713835
-0.00708568
-0.00707331
-0.00703029
-0.00702287
-0.00698687
-0.00698175
-0.00695026
-0.00694486
-0.00691527
-0.00690685
-0.00687613
-0.00686143
-0.00682545
-0.00679999
-0.00675211
-0.00670904
-0.00663632
-0.0039117
-0.00372039
-0.00357846
-0.00342864
-0.00332041
-0.00320161
-0.00311876
-0.00302384
-0.00296058
-0.00288447
-0.00283659
-0.00277559
-0.00273997
-0.00269126
-0.00266551
-0.00262695
-0.00260916
-0.00257904
-0.00256768
-0.00254461
-0.00253838
-0.00252118
-0.00251897
-0.00250665
-0.00250747
-0.00249914
-0.0025021
-0.002497
-0.00250123
-0.00249864
-0.00250331
-0.00250244
-0.0025066
-0.00250643
-0.00250887
-0.00250784
-0.00250689
-0.00250211
-0.00249545
-0.00248146
0.00386166
0.00365253
0.00349812
0.00333478
0.00321666
0.00308671
0.0029952
0.00289034
0.00281884
0.00273328
0.00267709
0.00260659
0.00256225
0.00250361
0.00246848
0.00241921
0.0023912
0.00234928
0.00232668
0.00229043
0.00227178
0.00223978
0.00222381
0.00219479
0.00218033
0.00215311
0.00213905
0.00211251
0.00209779
0.00207082
0.00205438
0.00202593
0.00200674
0.00197579
0.00195277
0.00191835
0.00189004
0.00185146
0.00181544
0.00177411
0.0114216
0.0108268
0.0103865
0.00992096
0.00958387
0.0092135
0.00895287
0.00865463
0.00845204
0.00820976
0.00805205
0.0078539
0.00773132
0.00756838
0.00747348
0.00733878
0.00726569
0.00715365
0.00709755
0.00700355
0.00696039
0.00688051
0.00684674
0.00677752
0.00674996
0.00668823
0.0066639
0.00660669
0.00658271
0.00652715
0.00650072
0.00644393
0.00641223
0.00635124
0.00631123
0.00624268
0.00619041
0.00610993
0.00603906
0.00593856
0.0191751
0.0181811
0.0174453
0.0166676
0.0161048
0.0154864
0.0150519
0.0145545
0.0142175
0.013814
0.0135526
0.0132233
0.013021
0.0127511
0.0125955
0.0123733
0.0122545
0.0120707
0.0119808
0.0118277
0.0117599
0.011631
0.0115793
0.0114689
0.0114279
0.0113309
0.0112957
0.011207
0.0111728
0.0110879
0.01105
0.0109639
0.0109175
0.0108254
0.0107652
0.0106613
0.0105804
0.0104572
0.0103448
0.0101896
0.0267064
0.0253282
0.0243076
0.0232289
0.022448
0.0215901
0.0209872
0.0202972
0.0198297
0.0192701
0.0189075
0.0184512
0.018171
0.0177972
0.0175821
0.0172748
0.0171113
0.0168577
0.0167344
0.0165239
0.0164317
0.0162552
0.0161858
0.0160354
0.0159814
0.0158501
0.0158046
0.0156854
0.0156418
0.0155284
0.0154801
0.0153658
0.0153062
0.0151841
0.0151058
0.0149681
0.0148622
0.0146989
0.0145523
0.0143453
0.0344069
0.0326324
0.0313184
0.0299298
0.0289248
0.0278207
0.0270451
0.0261573
0.0255564
0.0248368
0.0243713
0.0237847
0.0234254
0.0229454
0.0226701
0.022276
0.0220671
0.0217423
0.0215856
0.0213165
0.0211997
0.0209747
0.0208875
0.0206964
0.0206291
0.0204627
0.0204065
0.0202561
0.0202024
0.0200596
0.0199998
0.0198561
0.0197816
0.019628
0.0195292
0.0193557
0.0192212
0.0190155
0.0188296
0.0185708
0.0418772
0.0397217
0.0381253
0.0364381
0.0352169
0.0338752
0.0329327
0.0318538
0.0311235
0.0302491
0.0296833
0.0289707
0.0285342
0.0279512
0.027617
0.0271385
0.0268852
0.0264912
0.0263015
0.0259754
0.0258346
0.0255624
0.0254576
0.0252269
0.0251466
0.0249463
0.0248796
0.024699
0.0246356
0.0244644
0.0243937
0.0242217
0.0241327
0.0239488
0.0238298
0.0236217
0.0234585
0.0232117
0.0229855
0.0226799
0.0494916
0.0469444
0.045058
0.0430645
0.0416217
0.0400367
0.0389234
0.0376492
0.0367869
0.0357544
0.0350867
0.0342455
0.0337308
0.0330428
0.0326491
0.0320848
0.0317868
0.0313224
0.0310996
0.0307156
0.0305506
0.0302305
0.0301082
0.0298372
0.0297438
0.0295088
0.0294316
0.02922
0.0291465
0.0289462
0.0288639
0.0286625
0.0285585
0.028343
0.0282032
0.0279594
0.0277678
0.0274792
0.0272163
0.0268621
0.056869
0.0539456
0.0517804
0.049492
0.0478356
0.0460161
0.044738
0.0432751
0.042285
0.0410996
0.0403331
0.0393674
0.0387764
0.0379868
0.0375349
0.0368874
0.0365455
0.0360129
0.0357575
0.0353174
0.0351286
0.0347619
0.0346222
0.0343122
0.0342059
0.0339373
0.0338497
0.0336082
0.0335249
0.0332965
0.0332029
0.0329734
0.0328545
0.032609
0.0324484
0.0321708
0.0319502
0.031623
0.0313213
0.0309278
0.0643647
0.0610558
0.0586052
0.0560154
0.054141
0.0520819
0.0506359
0.0489806
0.0478608
0.0465197
0.0456529
0.0445607
0.0438928
0.0429999
0.0424894
0.0417574
0.0413716
0.0407698
0.0404818
0.0399848
0.0397722
0.0393584
0.0392015
0.0388518
0.0387327
0.03843
0.0383321
0.03806
0.0379668
0.0377096
0.0376048
0.0373463
0.0372127
0.0369362
0.0367556
0.0364433
0.0361957
0.0358286
0.0354924
0.0350516
0.0716177
0.067939
0.0652142
0.0623346
0.0602502
0.0579606
0.0563525
0.0545118
0.0532663
0.0517751
0.050811
0.0495965
0.0488537
0.0478609
0.0472932
0.0464795
0.0460506
0.0453817
0.0450618
0.0445095
0.0442736
0.043814
0.04364
0.043252
0.0431202
0.0427846
0.0426763
0.0423749
0.042272
0.0419872
0.0418712
0.0415853
0.0414372
0.0411318
0.0409312
0.0405869
0.040312
0.0399089
0.0395369
0.0390572
0.0789624
0.0749061
0.0719018
0.0687269
0.066429
0.0639048
0.0621321
0.060103
0.0587304
0.0570867
0.0560245
0.054686
0.0538678
0.0527738
0.0521488
0.0512523
0.0507804
0.0500437
0.0496919
0.0490839
0.0488247
0.048319
0.0481282
0.0477013
0.0475571
0.047188
0.0470696
0.0467384
0.0466259
0.0463131
0.0461862
0.0458722
0.0457101
0.0453748
0.0451553
0.0447777
0.0444773
0.0440358
0.0436302
0.0431039
0.0860599
0.0816418
0.0783692
0.0749107
0.0724074
0.0696576
0.0677263
0.0655157
0.0640202
0.0622295
0.0610722
0.059614
0.0587226
0.0575309
0.05685
0.0558735
0.0553594
0.0545571
0.0541741
0.0535121
0.0532301
0.0526796
0.0524721
0.0520078
0.0518511
0.0514499
0.0513215
0.0509616
0.0508397
0.0505
0.0503625
0.0500219
0.0498461
0.0494829
0.0492448
0.0488364
0.0485107
0.0480339
0.0475946
0.0470265
0.0932221
0.0884359
0.0848909
0.0811445
0.078433
0.0754545
0.0733628
0.0709686
0.0693491
0.0674098
0.0661568
0.0645777
0.0636128
0.0623225
0.0615857
0.0605286
0.0599725
0.0591042
0.0586901
0.0579738
0.0576691
0.0570736
0.0568498
0.0563476
0.0561788
0.055745
0.0556069
0.055218
0.0550869
0.05472
0.0545721
0.0542044
0.0540152
0.0536232
0.053367
0.0529265
0.0525761
0.0520616
0.0515886
0.0509738
0.100134
0.0949952
0.0911889
0.0871664
0.0842548
0.0810566
0.0788105
0.0762396
0.0745005
0.0724181
0.0710725
0.0693769
0.0683406
0.0669552
0.066164
0.065029
0.0644319
0.0634997
0.0630553
0.0622864
0.0619595
0.0613205
0.0610805
0.0605418
0.060361
0.0598959
0.0597481
0.0593313
0.0591912
0.0587983
0.0586403
0.0582468
0.0580447
0.0576256
0.0573518
0.0568812
0.0565065
0.0559568
0.0554506
0.0547923
0.107083
0.101587
0.0975167
0.0932149
0.0901014
0.0866814
0.0842797
0.0815307
0.0796713
0.0774447
0.0760063
0.0741934
0.0730859
0.0716048
0.0707593
0.0695462
0.0689084
0.0679121
0.0674376
0.066616
0.0662672
0.0655845
0.0653286
0.0647533
0.0645607
0.0640641
0.0639069
0.0634621
0.0633131
0.0628938
0.0627259
0.0623061
0.0620912
0.0616442
0.0613528
0.0608508
0.0604517
0.0598647
0.0593247
0.05862
0.113779
0.107942
0.103618
0.099049
0.0957417
0.0921089
0.0895575
0.0866374
0.0846621
0.0822969
0.0807687
0.078843
0.0776665
0.0760932
0.0751951
0.0739065
0.073229
0.0721709
0.0716669
0.0707945
0.0704241
0.0696993
0.0694278
0.0688172
0.0686129
0.068086
0.0679195
0.0674477
0.0672901
0.0668457
0.066668
0.0662233
0.0659959
0.0655225
0.0652141
0.0646823
0.0642595
0.0636373
0.0630645
0.062316
0.120485
0.114304
0.109725
0.104886
0.101384
0.0975373
0.0948359
0.0917439
0.0896525
0.0871482
0.0855305
0.0834917
0.0822463
0.0805808
0.0796303
0.0782663
0.0775495
0.0764296
0.0758965
0.0749733
0.0745818
0.0738149
0.073528
0.072882
0.0726665
0.0721092
0.0719336
0.0714347
0.0712685
0.0707986
0.0706113
0.0701411
0.0699013
0.0694007
0.0690751
0.0685125
0.0680656
0.0674068
0.0668004
0.0660066
0.126937
0.120427
0.115604
0.110508
0.106819
0.102767
0.0999212
0.0966643
0.0944613
0.0918234
0.0901193
0.0879717
0.0866599
0.0849055
0.0839044
0.0824677
0.0817127
0.0805332
0.0799718
0.0789995
0.0785873
0.0777798
0.077478
0.0767979
0.0765712
0.0759847
0.0758001
0.0752752
0.0751007
0.0746065
0.0744098
0.0739154
0.0736635
0.0731371
0.0727948
0.0722031
0.071733
0.0710394
0.0704008
0.0695642
0.133372
0.126531
0.121463
0.116109
0.112233
0.107976
0.104986
0.101564
0.0992499
0.0964786
0.0946885
0.0924324
0.0910546
0.0892117
0.0881603
0.0866513
0.0858586
0.0846197
0.0840305
0.0830094
0.0825769
0.081729
0.0814125
0.0806985
0.0804609
0.0798451
0.0796518
0.0791008
0.078918
0.0783993
0.0781932
0.0776742
0.07741
0.0768573
0.0764981
0.0758764
0.0753827
0.0746534
0.0739821
0.0731018
0.139552
0.132396
0.127095
0.121493
0.117438
0.112985
0.109857
0.106277
0.103856
0.100957
0.0990839
0.0967237
0.0952821
0.0933542
0.0922543
0.0906756
0.0898464
0.0885505
0.0879342
0.0868661
0.0864139
0.085527
0.0851961
0.0844494
0.0842012
0.0835573
0.0833555
0.0827794
0.0825887
0.0820464
0.0818313
0.0812887
0.0810129
0.080435
0.0800597
0.0794094
0.0788931
0.07813
0.0774275
0.0765059
0.145687
0.138216
0.132682
0.126833
0.122601
0.117951
0.114686
0.110949
0.108422
0.105396
0.103441
0.100977
0.0994727
0.0974604
0.0963126
0.0946649
0.0937997
0.0924473
0.0918043
0.0906898
0.0902181
0.0892928
0.0889477
0.0881687
0.08791
0.0872383
0.0870279
0.086427
0.0862282
0.0856623
0.0854381
0.0848718
0.0845839
0.0839806
0.0835887
0.0829096
0.0823703
0.0815728
0.0808388
0.0798754
0.151569
0.143798
0.138041
0.131958
0.127555
0.122718
0.119322
0.115435
0.112806
0.109657
0.107624
0.105061
0.103496
0.101403
0.100209
0.0984949
0.097595
0.0961882
0.0955195
0.0943603
0.0938698
0.0929073
0.0925487
0.0917385
0.0914696
0.0907711
0.0905526
0.0899277
0.0897212
0.0891327
0.0888998
0.0883108
0.0880116
0.0873838
0.0869763
0.0862695
0.0857085
0.0848784
0.0841145
0.0831115
0.157378
0.149309
0.143332
0.137015
0.132443
0.127422
0.123895
0.119859
0.11713
0.113861
0.11175
0.109089
0.107464
0.105291
0.104052
0.102273
0.101339
0.0998783
0.0991844
0.0979811
0.0974722
0.0964733
0.0961012
0.0952604
0.0949815
0.0942565
0.0940299
0.0933812
0.0931669
0.092556
0.092314
0.0917023
0.0913914
0.0907393
0.0903157
0.0895812
0.0889979
0.0881351
0.0873409
0.0862984
0.162937
0.154584
0.148396
0.141858
0.137125
0.131926
0.128276
0.124098
0.121272
0.117888