/*--------------------------------*- C++ -*----------------------------------*\
| =========                 |                                                 |
| \\      /  F ield         | foam-extend: Open Source CFD                    |
|  \\    /   O peration     | Version:  3.0                                   |
|   \\  /    A nd           | Web:         http://www.extend-project.de       |
|    \\/     M anipulation  |                                                 |
\*---------------------------------------------------------------------------*/
FoamFile
{
    version     2.0;
    format      ascii;
    class       volScalarField;
    location    "9.9";
    object      p;
}
// * * * * * * * * * * * * * * * * * * * * * * * * * * * * * * * * * * * * * //

dimensions      [0 0 0 0 0 0 0];

internalField   nonuniform List<scalar> 
400
(
2.93994
0.107376
0.341474
-0.40125
0.515421
0.213634
1.14342
0.886104
1.72207
1.44903
2.23746
1.95817
2.75167
2.45551
3.24335
2.83684
3.45872
2.61319
2.53116
0.0917237
7.08001
4.73442
4.45333
3.22365
3.50169
2.59792
2.92652
2.10614
2.37664
1.5709
1.78993
0.974449
1.17031
0.325944
0.506731
-0.41458
-0.334115
-1.50455
-1.90388
-3.88014
5.44843
3.31111
3.32645
2.39948
2.83156
2.1891
2.66015
2.06204
2.51717
1.91052
2.37295
1.75101
2.24274
1.59428
2.09051
1.35773
1.72071
0.713078
0.54745
-1.3031
5.69629
4.52022
4.17242
3.41701
3.40398
2.74872
2.8027
2.1493
2.20768
1.55021
1.62275
0.975113
1.08148
0.44486
0.567618
-0.104567
-0.0929222
-0.947455
-1.38467
-2.6499
4.24329
3.30046
3.2758
2.71065
2.92825
2.43729
2.74302
2.24761
2.63038
2.12606
2.61782
2.11801
2.74175
2.24083
2.95341
2.3775
2.97495
2.10942
2.09216
0.531958
3.86575
3.52639
3.30372
2.94897
2.82571
2.42441
2.34712
1.91055
1.88276
1.44992
1.5059
1.11861
1.29729
0.969243
1.26754
0.921323
1.19315
0.545494
0.32534
-1.21698
3.02817
2.9227
2.90855
2.67433
2.71906
2.39202
2.53627
2.15794
2.45132
2.065
2.57247
2.22128
3.00803
2.70685
3.77753
3.43044
4.57229
3.78414
4.2279
1.92803
2.44244
2.762
2.63715
2.57442
2.34807
2.11146
1.89878
1.59372
1.45329
1.15859
1.15206
0.943018
1.14846
1.07321
1.54738
1.52127
2.15171
1.67585
1.77484
-0.666366
1.97274
2.56897
2.53833
2.56166
2.42513
2.21025
2.16197
1.84622
1.97902
1.64354
2.055
1.7778
2.59941
2.44139
3.7926
3.6778
5.45168
4.78998
5.98864
2.60894
1.31649
2.24892
2.16269
2.31212
1.96596
1.81888
1.45422
1.19396
0.892415
0.624858
0.457566
0.293197
0.372144
0.422767
0.883681
1.13123
1.96129
1.7899
2.18651
-0.898278
1.05828
2.26823
2.18478
2.39592
2.08367
1.93379
1.68116
1.37211
1.27622
0.906601
1.07307
0.75043
1.36533
1.21909
2.54577
2.60475
4.78204
4.44881
6.58243
2.77997
0.460477
1.89537
1.80849
2.1027
1.65317
1.55034
1.04493
0.767092
0.273919
-0.0693884
-0.496024
-0.770664
-1.01328
-1.02793
-0.891061
-0.496987
0.153264
0.515412
1.03506
-1.50285
0.382588
2.00032
1.86045
2.19169
1.75576
1.64635
1.21642
0.877634
0.518147
0.0397713
-0.168542
-0.667121
-0.529674
-0.848037
0.00797431
0.0972978
2.15372
2.40994
5.43819
2.79712
-0.0220767
1.66916
1.57284
1.95195
1.45495
1.38036
0.77503
0.446954
-0.236132
-0.729583
-1.47325
-1.99929
-2.71989
-3.02427
-3.5191
-3.2106
-3.20277
-2.13282
-1.80709
-1.9258
0.133903
1.82115
1.65373
2.04501
1.56827
1.49518
0.941088
0.557979
-0.0569519
-0.689072
-1.33352
-2.11035
-2.646
-3.32872
-3.37639
-3.49365
-2.26349
-1.27143
2.24447
2.90666
0.0612359
1.66383
1.56712
1.98158
1.50094
1.45272
0.794001
0.405397
-0.437347
-1.1126
-2.16578
-3.02874
-4.27964
-5.07296
-6.37985
-6.48667
-7.48957
-5.80942
-6.07896
-1.78522
0.554637
1.90841
1.75061
2.15797
1.70784
1.66837
1.03693
0.606469
-0.22086
-1.01143
-2.06001
-3.15055
-4.39744
-5.58193
-6.78501
-7.41652
-7.71353
-6.1928
-3.21764
2.73099
0.963562
2.11317
2.01905
2.42756
1.98469
1.94532
1.25424
0.800517
-0.153961
-0.995515
-2.27831
-3.47299
-5.16699
-6.54888
-8.63651
-9.53258
-11.6647
-10.0173
-11.2733
-1.50975
1.86017
2.55164
2.42686
2.81918
2.39108
2.34896
1.6505
1.16312
0.187989
-0.727018
-2.05443
-3.40415
-5.20383
-6.90618
-9.19028
-10.6434
-12.8701
-11.6528
-11.2225
0.509461
2.89842
3.40009
3.26585
3.60985
3.12942
3.01921
2.27708
1.73418
0.733791
-0.225957
-1.58034
-3.00742
-4.89265
-6.81044
-9.36128
-11.3744
-14.3323
-14.2077
-16.4207
-3.67748
)
;

boundaryField
{
    cavity
    {
        type            implicitExtrapolation;
    }
    lid
    {
        type            implicitExtrapolation;
    }
    frontAndBack
    {
        type            empty;
    }
}


// ************************************************************************* //
