/*--------------------------------*- C++ -*----------------------------------*\
| =========                 |                                                 |
| \\      /  F ield         | foam-extend: Open Source CFD                    |
|  \\    /   O peration     | Version:  3.0                                   |
|   \\  /    A nd           | Web:         http://www.extend-project.de       |
|    \\/     M anipulation  |                                                 |
\*---------------------------------------------------------------------------*/
FoamFile
{
    version     2.0;
    format      ascii;
    class       volSymmTensorField;
    location    "9.9";
    object      sigma;
}
// * * * * * * * * * * * * * * * * * * * * * * * * * * * * * * * * * * * * * //

dimensions      [0 0 0 0 0 0 0];

internalField   nonuniform List<symmTensor> 
400
(
(2.27761 1.50912 4.53317e-316 -3.16316 4.82104e-316 0.885555)
(4.09031 0.220781 4.43274e-316 -2.71042 4.90067e-316 -1.37989)
(4.84942 -1.3957 4.18274e-316 -2.45405 4.6943e-316 -2.39537)
(4.5386 -2.48032 3.89209e-316 -1.93343 4.36385e-316 -2.60517)
(4.17087 -3.66912 3.56501e-316 -1.68182 3.97103e-316 -2.48905)
(3.38628 -4.42466 3.25379e-316 -1.25924 3.58269e-316 -2.12704)
(2.73329 -5.12707 2.9477e-316 -1.02444 3.19282e-316 -1.70885)
(1.89084 -5.55452 2.66867e-316 -0.674509 2.84614e-316 -1.21633)
(1.16187 -5.86166 2.40675e-316 -0.436987 2.51095e-316 -0.724881)
(0.31251 -5.99244 2.16828e-316 -0.112676 2.2265e-316 -0.199834)
(-0.471761 -5.97013 1.94877e-316 0.149903 1.95224e-316 0.321858)
(-1.34946 -5.81725 1.74488e-316 0.484737 1.72496e-316 0.864719)
(-2.17197 -5.47975 1.55852e-316 0.779973 1.50337e-316 1.39199)
(-3.04514 -5.03781 1.3779e-316 1.13836 1.32048e-316 1.90677)
(-3.78483 -4.36341 1.21147e-316 1.44323 1.13913e-316 2.34161)
(-4.47522 -3.63427 1.03858e-316 1.80861 9.85248e-317 2.66661)
(-4.79419 -2.59616 8.72539e-317 2.06028 8.28467e-317 2.73391)
(-4.82751 -1.6192 6.8572e-317 2.3862 6.82334e-317 2.44131)
(-3.9362 -0.279815 4.92222e-317 2.49654 5.17768e-317 1.43965)
(-2.03607 0.850847 2.68035e-317 2.65395 3.14745e-317 -0.617884)
(1.36071 1.20601 3.31701e-316 -3.41179 3.79082e-316 2.05107)
(2.75665 0.44097 3.29659e-316 -3.2307 4.21435e-316 0.474059)
(3.26392 -0.523545 3.14181e-316 -2.86849 4.23099e-316 -0.395431)
(3.27668 -1.2799 2.94722e-316 -2.48662 4.03237e-316 -0.79006)
(3.02417 -2.04909 2.72416e-316 -2.11238 3.71974e-316 -0.911786)
(2.57275 -2.58194 2.50869e-316 -1.70893 3.37583e-316 -0.86382)
(2.09297 -3.05631 2.29778e-316 -1.36155 3.01656e-316 -0.731415)
(1.50394 -3.33193 2.10341e-316 -0.959618 2.68682e-316 -0.544323)
(0.947713 -3.52978 1.92104e-316 -0.612413 2.36822e-316 -0.3353)
(0.309678 -3.56923 1.75324e-316 -0.201734 2.09398e-316 -0.107944)
(-0.291008 -3.52652 1.59812e-316 0.169293 1.8338e-316 0.121715)
(-0.951978 -3.36096 1.45332e-316 0.598335 1.61706e-316 0.353644)
(-1.57142 -3.1115 1.32082e-316 1.00131 1.41142e-316 0.57011)
(-2.19997 -2.78013 1.19389e-316 1.43831 1.24352e-316 0.761665)
(-2.74898 -2.35906 1.07855e-316 1.85477 1.08426e-316 0.894212)
(-3.18513 -1.91803 9.62905e-317 2.25108 9.55864e-317 0.934046)
(-3.43101 -1.36422 8.55075e-317 2.62346 8.35095e-317 0.80755)
(-3.30688 -0.889931 7.37331e-317 2.87996 7.34327e-317 0.426911)
(-2.72039 -0.265153 6.13276e-317 3.08596 6.27392e-317 -0.365571)
(-1.28176 0.130825 4.58117e-317 3.03762 4.91729e-317 -1.75587)
(1.24265 2.5159 2.22079e-316 -3.55513 2.91069e-316 2.31248)
(2.1936 1.58279 2.27093e-316 -3.16706 3.62799e-316 0.973458)
(2.54185 0.68906 2.19816e-316 -2.78592 3.81887e-316 0.244071)
(2.45355 -0.0544967 2.09413e-316 -2.32325 3.71843e-316 -0.130294)
(2.28641 -0.755776 1.96637e-316 -1.98476 3.46777e-316 -0.301656)
(1.95003 -1.23651 1.84107e-316 -1.60242 3.1602e-316 -0.347605)
(1.64172 -1.65875 1.71518e-316 -1.31607 2.83001e-316 -0.325649)
(1.23897 -1.88322 1.59673e-316 -0.979021 2.51847e-316 -0.259951)
(0.869141 -2.03526 1.48242e-316 -0.694276 2.21926e-316 -0.174865)
(0.423862 -2.02912 1.37453e-316 -0.348093 1.95681e-316 -0.0757691)
(-0.00995562 -1.94913 1.27214e-316 -0.0134742 1.71144e-316 0.0234298)
(-0.504781 -1.75531 1.17462e-316 0.383445 1.50242e-316 0.121336)
(-1.00652 -1.50274 1.08418e-316 0.803438 1.30758e-316 0.203084)
(-1.52492 -1.18959 9.97721e-317 1.2627 1.14409e-316 0.262217)
(-2.03664 -0.844362 9.20986e-317 1.76311 9.92698e-317 0.273534)
(-2.45104 -0.500187 8.4856e-317 2.23636 8.69332e-317 0.21468)
(-2.76395 -0.138949 7.89224e-317 2.72892 7.61328e-317 0.0350335)
(-2.74347 0.174411 7.33582e-317 3.06993 6.84737e-317 -0.326456)
(-2.35003 0.522857 6.88321e-317 3.33437 6.29346e-317 -0.984337)
(-1.16815 0.834717 6.16579e-317 3.2844 6.00232e-317 -2.11624)
(0.552796 2.80075 9.20476e-317 -2.05546 1.89646e-316 1.50267)
(1.23988 1.9878 1.08967e-316 -2.01071 2.94207e-316 0.770827)
(1.50154 1.18009 1.14885e-316 -1.80842 3.31147e-316 0.30688)
(1.58558 0.535247 1.1695e-316 -1.62607 3.31309e-316 0.0404887)
(1.51006 -0.0593856 1.16437e-316 -1.41117 3.12978e-316 -0.0988828)
(1.38004 -0.442337 1.1462e-316 -1.22459 2.86885e-316 -0.155451)
(1.21121 -0.768108 1.11788e-316 -1.04654 2.57659e-316 -0.16467)
(1.00421 -0.901822 1.0822e-316 -0.861226 2.29441e-316 -0.142984)
(0.792675 -0.983507 1.04025e-316 -0.685285 2.02229e-316 -0.10739)
(0.531323 -0.898708 9.93384e-317 -0.468629 1.78108e-316 -0.0626947)
(0.263051 -0.778999 9.43125e-317 -0.243406 1.5563e-316 -0.0196454)
(-0.0639563 -0.525105 8.90192e-317 0.0444699 1.36266e-316 0.0194864)
(-0.412866 -0.274263 8.37615e-317 0.369858 1.18234e-316 0.0430079)
(-0.798158 0.0588303 7.85451e-317 0.753266 1.02804e-316 0.0448913)
(-1.2087 0.328169 7.39742e-317 1.20279 8.83157e-317 0.00590916)
(-1.5484 0.598395 7.00153e-317 1.63988 7.60209e-317 -0.0914712)
(-1.86063 0.750556 6.78655e-317 2.14418 6.48422e-317 -0.28355)
(-1.83591 0.802783 6.72096e-317 2.44675 5.67231e-317 -0.61084)
(-1.60516 0.761343 7.00678e-317 2.73997 5.28066e-317 -1.13481)
(-0.676437 0.544523 7.28655e-317 2.58234 5.9141e-317 -1.90591)
(0.506075 3.22157 -2.31608e-317 -1.59989 9.44768e-317 1.09381)
(0.959364 2.44291 4.83498e-318 -1.50513 2.24328e-316 0.54577)
(1.13945 1.74701 2.41032e-317 -1.36918 2.76158e-316 0.22973)
(1.17842 1.09349 3.85394e-317 -1.22928 2.85783e-316 0.0508609)
(1.17695 0.549601 4.94809e-317 -1.13078 2.74406e-316 -0.0461692)
(1.11493 0.156388 5.74444e-317 -1.0252 2.53625e-316 -0.0897314)
(1.07393 -0.142016 6.3006e-317 -0.970269 2.29025e-316 -0.103662)
(0.981974 -0.27922 6.64669e-317 -0.884726 2.04496e-316 -0.0972478)
(0.910788 -0.334866 6.81687e-317 -0.827285 1.80707e-316 -0.0835032)
(0.774251 -0.242324 6.84036e-317 -0.709795 1.59196e-316 -0.0644556)
(0.629895 -0.0866559 6.74607e-317 -0.579653 1.39161e-316 -0.0502415)
(0.400993 0.194187 6.55224e-317 -0.359553 1.21427e-316 -0.0414396)
(0.120511 0.490495 6.29148e-317 -0.0701927 1.04803e-316 -0.0503181)
(-0.238499 0.874449 5.96573e-317 0.319363 8.98321e-317 -0.0808641)
(-0.68385 1.17234 5.62166e-317 0.837014 7.53062e-317 -0.153163)
(-1.1087 1.50323 5.24477e-317 1.39078 6.15932e-317 -0.282081)
(-1.58333 1.5946 4.91382e-317 2.08873 4.79565e-317 -0.505405)
(-1.73501 1.66392 4.60647e-317 2.5984 3.52609e-317 -0.863388)
(-1.71108 1.38292 4.45594e-317 3.14271 2.61268e-317 -1.43163)
(-0.831812 1.0676 4.51089e-317 3.14683 2.77206e-317 -2.31502)
(0.11719 3.38509 -1.35799e-316 -0.59142 -4.17248e-319 0.47423)
(0.338255 2.59338 -9.70005e-317 -0.575324 1.49849e-316 0.237068)
(0.484798 1.87888 -6.34759e-317 -0.566738 2.14719e-316 0.0819398)
(0.585503 1.25198 -3.60795e-317 -0.575872 2.34118e-316 -0.00963112)
(0.663 0.714921 -1.3318e-317 -0.604439 2.30582e-316 -0.0585612)
(0.722633 0.360601 4.39673e-318 -0.643236 2.16345e-316 -0.0793969)
(0.78758 0.0804703 1.81857e-317 -0.703391 1.9733e-316 -0.0841893)
(0.832399 -0.0115833 2.82871e-317 -0.753659 1.77462e-316 -0.07874)
(0.88547 -0.042174 3.54393e-317 -0.814947 1.57726e-316 -0.0705231)
(0.891913 0.110625 4.00244e-317 -0.830096 1.39562e-316 -0.0618175)
(0.890195 0.306303 4.25184e-317 -0.830636 1.22498e-316 -0.0595593)
(0.795055 0.678982 4.31965e-317 -0.728795 1.07224e-316 -0.0662598)
(0.661761 1.03977 4.23617e-317 -0.569777 9.2854e-317 -0.0919838)
(0.387584 1.55144 4.00961e-317 -0.243644 7.97863e-317 -0.14394)
(0.0558948 1.92132 3.65843e-317 0.185544 6.70337e-317 -0.241439)
(-0.395964 2.36772 3.17137e-317 0.801197 5.47826e-317 -0.405233)
(-0.846234 2.45396 2.56416e-317 1.52325 4.22251e-317 -0.677013)
(-1.1809 2.47853 1.84153e-317 2.29077 2.95825e-317 -1.10987)
(-1.25505 1.96573 1.06076e-317 3.04654 1.75407e-317 -1.79149)
(-0.65738 1.2521 5.44797e-318 3.48246 7.60751e-318 -2.82508)
(0.0477954 3.39825 -2.1118e-316 -0.0952145 -7.5579e-317 0.0474191)
(0.113499 2.65713 -1.67301e-316 -0.0800648 8.02226e-317 -0.0334342)
(0.22241 1.99152 -1.24437e-316 -0.150875 1.52772e-316 -0.0715347)
(0.318293 1.3718 -8.81522e-317 -0.22949 1.80401e-316 -0.0888035)
(0.459396 0.854578 -5.73732e-317 -0.365534 1.84626e-316 -0.0938626)
(0.576649 0.480373 -3.29674e-317 -0.485986 1.77319e-316 -0.0906632)
(0.737213 0.19955 -1.36798e-317 -0.653135 1.64429e-316 -0.0840781)
(0.866422 0.071725 9.51417e-319 -0.791511 1.49697e-316 -0.0749109)
(1.03246 0.0367526 1.18157e-317 -0.964073 1.34448e-316 -0.0683907)
(1.13855 0.153761 1.94894e-317 -1.07417 1.19951e-316 -0.064377)
(1.2563 0.366025 2.45475e-317 -1.18612 1.06139e-316 -0.0701843)
(1.25387 0.729578 2.73486e-317 -1.16702 9.35143e-317 -0.0868493)
(1.21171 1.15753 2.82317e-317 -1.08487 8.15842e-317 -0.126836)
(0.971607 1.723 2.72509e-317 -0.774735 7.05292e-317 -0.196872)
(0.630419 2.22763 2.45459e-317 -0.308383 5.96995e-317 -0.322036)
(0.073945 2.82163 1.98584e-317 0.452596 4.8946e-317 -0.526541)
(-0.570537 3.07643 1.31574e-317 1.43805 3.75197e-317 -0.867514)
(-1.17737 3.33683 4.38852e-318 2.59565 2.46572e-317 -1.41828)
(-1.54793 2.93068 -6.22649e-318 3.86859 9.78622e-318 -2.32066)
(-1.00578 2.49979 -1.47351e-317 4.80146 -8.09729e-318 -3.79568)
(-0.202059 3.36625 -2.64029e-316 0.671786 -1.33567e-316 -0.469727)
(-0.315379 2.5829 -2.18745e-316 0.6382 1.89539e-317 -0.322821)
(-0.254624 1.87637 -1.70164e-316 0.487483 9.48644e-317 -0.232859)
(-0.133555 1.27579 -1.27947e-316 0.309366 1.29051e-316 -0.175811)
(0.0422187 0.744452 -9.15235e-317 0.0942358 1.40366e-316 -0.136454)
(0.231063 0.388599 -6.23396e-317 -0.122762 1.39801e-316 -0.108301)
(0.447648 0.0927256 -3.89991e-317 -0.360566 1.32883e-316 -0.0870824)
(0.667487 -0.0275184 -2.1055e-317 -0.596377 1.23235e-316 -0.0711105)
(0.912224 -0.07669 -7.44424e-318 -0.851181 1.12332e-316 -0.0610427)
(1.13064 0.0587811 2.46032e-318 -1.0732 1.01467e-316 -0.0574351)
(1.36267 0.282634 9.31722e-318 -1.29794 9.08323e-317 -0.0647344)
(1.48919 0.717009 1.3541e-317 -1.40267 8.09628e-317 -0.0865259)
(1.60035 1.22272 1.54497e-317 -1.46688 7.16335e-317 -0.133475)
(1.46676 1.95971 1.51784e-317 -1.24959 6.30741e-317 -0.217165)
(1.29298 2.64109 1.27061e-317 -0.929395 5.48797e-317 -0.363589)
(0.72634 3.5193 7.92516e-318 -0.118758 4.69308e-317 -0.607583)
(0.195861 4.01206 3.94739e-319 0.821314 3.84613e-317 -1.01718)
(-0.650502 4.5461 -9.71634e-318 2.34399 2.81749e-317 -1.69349)
(-1.03376 4.24541 -2.30912e-317 3.8495 1.32886e-317 -2.81574)
(-0.85964 3.73061 -3.58746e-317 5.49944 -1.30189e-317 -4.6398)
(-0.317356 3.15981 -2.75912e-316 1.25817 -1.65739e-316 -0.940814)
(-0.531598 2.43608 -2.35368e-316 1.13162 -2.9398e-317 -0.600026)
(-0.49641 1.76298 -1.87763e-316 0.886315 4.43122e-317 -0.389905)
(-0.358877 1.18731 -1.45158e-316 0.620392 8.22846e-317 -0.261515)
(-0.151978 0.669935 -1.07891e-316 0.332444 9.92903e-317 -0.180466)
(0.0753827 0.295894 -7.75782e-317 0.0529497 1.04641e-316 -0.128332)
(0.343201 -0.0174076 -5.31365e-317 -0.249408 1.03223e-316 -0.0937928)
(0.616489 -0.194869 -3.40297e-317 -0.545996 9.83427e-317 -0.0704929)
(0.940529 -0.280388 -1.92949e-317 -0.883286 9.15816e-317 -0.057243)
(1.23781 -0.226024 -8.24284e-318 -1.18542 8.41982e-317 -0.0523883)
(1.58539 -0.0259149 -2.26015e-319 -1.52441 7.66241e-317 -0.0609828)
(1.81478 0.333159 5.20796e-318 -1.72959 6.93997e-317 -0.0851914)
(2.06094 0.882942 8.42924e-318 -1.92263 6.25503e-317 -0.138312)
(2.01398 1.60672 9.61099e-318 -1.78252 5.63196e-317 -0.231457)
(1.91797 2.47895 8.86585e-318 -1.52095 5.05498e-317 -0.39702)
(1.3103 3.49928 6.13662e-318 -0.636552 4.51394e-317 -0.673745)
(0.643408 4.39841 1.18788e-318 0.504442 3.94613e-317 -1.14785)
(-0.512564 5.35788 -5.9227e-318 2.45805 3.20917e-317 -1.94548)
(-1.29748 5.65518 -1.58721e-317 4.6154 1.95511e-317 -3.31791)
(-1.34708 5.99209 -2.69489e-317 7.04604 -5.42881e-318 -5.69896)
(-0.492543 2.88388 -2.69408e-316 1.91206 -1.78493e-316 -1.41952)
(-0.840699 2.17379 -2.35568e-316 1.70795 -6.19891e-317 -0.867254)
(-0.875306 1.51044 -1.91989e-316 1.41159 5.97105e-318 -0.536281)
(-0.729981 0.982362 -1.51713e-316 1.06931 4.50625e-317 -0.339326)
(-0.536668 0.473077 -1.15766e-316 0.755245 6.5701e-317 -0.218576)
(-0.279692 0.11156 -8.60791e-317 0.423831 7.53966e-317 -0.144139)
(-0.0116475 -0.224317 -6.1805e-317 0.107684 7.82073e-317 -0.0960363)
(0.305077 -0.42612 -4.25852e-317 -0.239875 7.70995e-317 -0.0652026)
(0.647789 -0.555628 -2.75307e-317 -0.601343 7.36367e-317 -0.0464459)
(1.0175 -0.535457 -1.604e-317 -0.97885 6.90639e-317 -0.0386507)
(1.42116 -0.368923 -7.49646e-318 -1.37697 6.39498e-317 -0.0441934)
(1.76664 -0.00220326 -1.45358e-318 -1.69913 5.88754e-317 -0.0675061)
(2.13028 0.586384 2.4406e-318 -2.01066 5.40234e-317 -0.119616)
(2.23276 1.44857 4.46728e-318 -2.01687 4.96974e-317 -0.215884)
(2.32835 2.52887 4.73157e-318 -1.94062 4.58988e-317 -0.387727)
(1.82338 3.92854 3.45199e-318 -1.14049 4.26492e-317 -0.682893)
(1.39466 5.28092 4.18548e-319 -0.200983 3.94392e-317 -1.19368)
(0.130073 6.85707 -4.05186e-318 1.93972 3.51201e-317 -2.0698)
(-0.470024 7.70396 -1.07005e-317 4.05538 2.59164e-317 -3.58536)
(-0.913735 8.41592 -1.96833e-317 7.06649 4.02997e-318 -6.15276)
(-0.635414 2.51729 -2.36856e-316 2.50552 -1.74145e-316 -1.87011)
(-1.02511 1.90441 -2.1315e-316 2.13334 -8.31874e-317 -1.10824)
(-1.08973 1.31551 -1.78157e-316 1.75374 -2.38044e-317 -0.664012)
(-0.924762 0.832864 -1.4387e-316 1.32987 1.4213e-317 -0.405106)
(-0.742749 0.356349 -1.12429e-316 0.992947 3.69643e-317 -0.250198)
(-0.477211 -0.0157832 -8.57366e-317 0.63397 4.98381e-317 -0.156759)
(-0.207106 -0.369424 -6.35387e-317 0.305079 5.60352e-317 -0.0979725)
(0.123655 -0.63114 -4.55694e-317 -0.0630937 5.80758e-317 -0.0605617)
(0.499143 -0.815108 -3.12187e-317 -0.461443 5.74502e-317 -0.0377002)
(0.910082 -0.89777 -1.99622e-317 -0.883733 5.5346e-317 -0.02635)
(1.39822 -0.79675 -1.12886e-317 -1.36898 5.24171e-317 -0.0292368)
(1.83255 -0.562989 -4.77729e-318 -1.78331 4.92522e-317 -0.0492446)
(2.34726 0.00738191 -4.99649e-320 -2.24828 4.61343e-317 -0.0989803)
(2.58291 0.751149 3.20517e-318 -2.39083 4.33775e-317 -0.192082)
(2.85753 1.98488 5.2804e-318 -2.49428 4.10709e-317 -0.363249)
(2.43322 3.398 6.46278e-318 -1.7739 3.92811e-317 -0.659314)
(2.02181 5.26755 6.97206e-318 -0.839938 3.76402e-317 -1.18188)
(0.514756 7.2429 7.00124e-318 1.57773 3.53831e-317 -2.09248)
(-0.539056 9.09289 6.44847e-318 4.26423 2.96773e-317 -3.72518)
(-1.52228 11.0594 3.07311e-318 8.24042 1.60228e-317 -6.71814)
(-0.739498 2.01949 -2.0202e-316 2.9651 -1.55302e-316 -2.2256)
(-1.23805 1.51703 -1.86439e-316 2.53662 -8.69712e-317 -1.29857)
(-1.38033 1.02965 -1.59437e-316 2.14116 -3.81196e-317 -0.760831)
(-1.23203 0.628768 -1.31437e-316 1.68386 -3.94192e-318 -0.451835)
(-1.09148 0.200697 -1.04875e-316 1.3614 1.83581e-317 -0.269918)
(-0.832661 -0.158555 -8.17573e-317 0.994787 3.22585e-317 -0.162127)
(-0.600862 -0.522789 -6.20739e-317 0.695559 4.00864e-317 -0.0946967)
(-0.270618 -0.822527 -4.58255e-317 0.322701 4.38711e-317 -0.0520838)
(0.0663277 -1.05704 -3.25717e-317 -0.0418768 4.49412e-317 -0.0244508)
(0.497642 -1.20773 -2.19631e-317 -0.488505 4.43744e-317 -0.0091373)
(0.960444 -1.17475 -1.35926e-317 -0.953934 4.28321e-317 -0.00650978)
(1.46762 -1.00297 -7.10648e-318 -1.44668 4.08772e-317 -0.0209433)
(2.00532 -0.463212 -2.18257e-318 -1.9433 3.8826e-317 -0.0620196)
(2.40544 0.320706 1.5326e-318 -2.25992 3.6983e-317 -0.145521)
(2.80756 1.69576 4.30768e-318 -2.50634 3.54625e-317 -0.301227)
(2.63721 3.45023 6.59397e-318 -2.05894 3.43704e-317 -0.578275)
(2.52335 5.84806 8.66436e-318 -1.45342 3.34238e-317 -1.06993)
(1.23261 8.67157 1.08766e-317 0.705909 3.22784e-317 -1.93851)
(0.638035 11.4638 1.3373e-317 2.8497 2.90712e-317 -3.48774)
(-0.513365 14.3134 1.32928e-317 6.69278 2.14759e-317 -6.17941)
(-0.868378 1.59597 -1.61726e-316 3.3867 -1.38264e-316 -2.51832)
(-1.34457 1.20899 -1.54068e-316 2.77645 -9.16426e-317 -1.43189)
(-1.52514 0.834078 -1.35647e-316 2.34636 -5.1722e-317 -0.821215)
(-1.37012 0.486521 -1.14464e-316 1.84736 -2.07732e-317 -0.477239)
(-1.27191 0.107749 -9.35024e-317 1.55025 1.1805e-318 -0.278336)
(-1.03286 -0.248092 -7.4525e-317 1.19492 1.5955e-317 -0.162059)
(-0.832788 -0.616868 -5.7925e-317 0.922885 2.51582e-317 -0.0900975)
(-0.52456 -0.951677 -4.38114e-317 0.56882 3.04541e-317 -0.0442602)
(-0.200827 -1.23232 -3.2007e-317 0.214627 3.30256e-317 -0.0137998)
(0.221822 -1.46411 -2.22845e-317 -0.227061 3.38693e-317 0.00523857)
(0.71112 -1.51468 -1.43665e-317 -0.723533 3.36287e-317 0.0124127)
(1.25555 -1.48571 -7.96665e-318 -1.26045 3.28341e-317 0.00490753)
(1.90566 -1.03768 -2.7802e-318 -1.87865 3.17976e-317 -0.0270033)
(2.43439 -0.457314 1.51017e-318 -2.33845 3.07872e-317 -0.0959421)
(3.07228 0.934023 5.27062e-318 -2.84197 2.98954e-317 -0.230305)
(3.09779 2.48641 8.87249e-318 -2.62672 2.9193e-317 -0.471069)
(3.21479 5.27721 1.28396e-317 -2.31071 2.84605e-317 -0.904077)
(1.83611 8.13938 1.72825e-317 -0.161343 2.75713e-317 -1.67476)
(0.866063 12.0069 2.28045e-317 2.23503 2.59246e-317 -3.10109)
(-1.30219 15.9348 2.6339e-317 7.1969 2.42602e-317 -5.89471)
(-0.897799 0.99761 -1.27408e-316 3.53549 -1.05383e-316 -2.63769)
(-1.4743 0.796161 -1.23502e-316 2.9567 -7.64129e-317 -1.4824)
(-1.71488 0.605479 -1.10761e-316 2.55099 -4.75912e-317 -0.836113)
(-1.60089 0.351431 -9.56394e-317 2.07816 -2.29884e-317 -0.477272)
(-1.53857 0.0568809 -7.99578e-317 1.81133 -4.1834e-318 -0.272767)
(-1.32474 -0.281276 -6.52159e-317 1.47945 9.08573e-318 -0.154714)
(-1.17122 -0.632 -5.17794e-317 1.25292 1.77698e-317 -0.0816941)
(-0.891748 -0.989487 -3.99676e-317 0.926663 2.30536e-317 -0.0349155)
(-0.642601 -1.29364 -2.9778e-317 0.644815 2.59052e-317 -0.00221421)
(-0.251662 -1.5842 -2.11672e-317 0.231793 2.71504e-317 0.0198696)
(0.134755 -1.69972 -1.3989e-317 -0.167387 2.73552e-317 0.0326318)
(0.680016 -1.76494 -8.05274e-318 -0.712565 2.69734e-317 0.0325481)
(1.22518 -1.40683 -3.14587e-318 -1.23834 2.62832e-317 0.0131617)
(1.87237 -0.901214 1.01555e-318 -1.83426 2.55041e-317 -0.0381113)
(2.47138 0.483886 4.68955e-318 -2.32971 2.47033e-317 -0.141669)
(2.86002 2.1965 8.24886e-318 -2.52686 2.39268e-317 -0.33316)
(3.15216 5.368 1.20403e-317 -2.4785 2.29971e-317 -0.673663)
(2.4615 9.07532 1.62256e-317 -1.18593 2.19434e-317 -1.27556)
(2.12989 14.0551 2.12224e-317 0.213158 2.08892e-317 -2.34304)
(0.520181 19.3991 2.4938e-317 3.63118 2.14684e-317 -4.15136)
(-0.963648 0.662661 -9.99675e-317 3.61676 -1.00786e-316 -2.65311)
(-1.45234 0.529579 -9.87318e-317 2.90576 -8.20963e-317 -1.45342)
(-1.72798 0.4275 -9.01512e-317 2.5331 -5.67724e-317 -0.805124)
(-1.6264 0.210255 -7.96309e-317 2.07906 -3.31299e-317 -0.452665)
(-1.61058 -0.045994 -6.81256e-317 1.86555 -1.48437e-317 -0.254967)
(-1.43181 -0.360206 -5.6797e-317 1.57383 -1.58272e-318 -0.142023)
(-1.31675 -0.696965 -4.60373e-317 1.38906 7.29622e-318 -0.0723102)
(-1.0802 -1.04176 -3.62228e-317 1.10719 1.3028e-317 -0.0269969)
(-0.872381 -1.35901 -2.75067e-317 0.866631 1.64762e-317 0.00574982)
(-0.534583 -1.67102 -1.99375e-317 0.504797 1.84202e-317 0.0297851)
(-0.182359 -1.85215 -1.34626e-317 0.135983 1.9361e-317 0.0463759)
(0.325263 -2.01152 -7.95413e-318 -0.378544 1.96976e-317 0.0532809)
(0.898873 -1.79384 -3.23228e-318 -0.943706 1.96614e-317 0.0448328)
(1.59577 -1.5047 9.162e-319 -1.60779 1.94242e-317 0.0120222)
(2.39691 -0.298513 4.76339e-318 -2.33572 1.90176e-317 -0.0611958)
(2.99504 1.0179 8.51458e-318 -2.79697 1.84423e-317 -0.198066)
(3.71217 4.18682 1.25478e-317 -3.27388 1.75674e-317 -0.438294)
(3.07395 7.29573 1.67361e-317 -2.22634 1.64132e-317 -0.847609)
(2.69009 12.8712 2.15139e-317 -1.11188 1.56841e-317 -1.57821)
(-0.636737 18.1107 2.55387e-317 3.78675 1.78551e-317 -3.15002)
(-0.927101 0.127307 -6.13213e-317 3.39075 -5.7996e-317 -2.46365)
(-1.51933 0.195994 -6.43163e-317 2.85075 -5.48082e-317 -1.33142)
(-1.80067 0.324101 -6.23778e-317 2.5277 -4.00374e-317 -0.727033)
(-1.74398 0.184346 -5.85334e-317 2.14796 -2.36981e-317 -0.403975)
(-1.72687 0.0408243 -5.27141e-317 1.952 -9.97295e-318 -0.225138)
(-1.56456 -0.243739 -4.56029e-317 1.68845 2.3565e-319 -0.12389)
(-1.48046 -0.516404 -3.79846e-317 1.54149 7.27498e-318 -0.061028)
(-1.27814 -0.842825 -3.0439e-317 1.29773 1.18827e-317 -0.0195906)
(-1.15407 -1.12454 -2.34007e-317 1.14224 1.47074e-317 0.011835)
(-0.882483 -1.44075 -1.70764e-317 0.846202 1.63057e-317 0.0362802)
(-0.678282 -1.63383 -1.15505e-317 0.622357 1.70656e-317 0.0559258)
(-0.245628 -1.84913 -6.78022e-318 0.177294 1.72868e-317 0.0683344)
(0.114386 -1.72236 -2.67644e-318 -0.184885 1.71532e-317 0.0704998)
(0.822459 -1.55678 9.1957e-319 -0.87698 1.67928e-317 0.0545219)
(1.36974 -0.509515 4.1474e-318 -1.38168 1.62284e-317 0.0119377)
(2.31636 0.727267 7.17346e-318 -2.24383 1.54482e-317 -0.0725326)
(2.85583 3.90439 1.00991e-317 -2.6469 1.43563e-317 -0.208933)
(3.40754 7.55325 1.28604e-317 -2.99918 1.29882e-317 -0.408351)
(3.43374 14.0096 1.54396e-317 -2.80271 1.20846e-317 -0.631034)
(2.20645 21.3478 1.76244e-317 -1.60327 1.33877e-317 -0.603176)
(-0.870198 0.0161393 -4.42082e-317 3.01377 -7.67172e-317 -2.14357)
(-1.29275 0.0171384 -4.87097e-317 2.42199 -6.82163e-317 -1.12923)
(-1.58253 0.104525 -4.87167e-317 2.19048 -5.00432e-317 -0.607945)
(-1.55213 -0.0324228 -4.71805e-317 1.88723 -3.13065e-317 -0.3351)
(-1.56432 -0.1929 -4.33226e-317 1.75018 -1.79878e-317 -0.185854)
(-1.44364 -0.42635 -3.81172e-317 1.54554 -8.3454e-318 -0.1019)
(-1.38505 -0.679387 -3.21697e-317 1.43439 -1.96328e-318 -0.0493337)
(-1.2329 -0.942355 -2.61137e-317 1.24687 2.35196e-318 -0.0139691)
(-1.14854 -1.2041 -2.03467e-317 1.13458 5.16103e-318 0.0139637)
(-0.950747 -1.47787 -1.50858e-317 0.913715 6.99742e-318 0.0370319)
(-0.803854 -1.6983 -1.04193e-317 0.746623 8.15477e-318 0.0572307)
(-0.469425 -1.9346 -6.32638e-318 0.396476 8.86665e-318 0.0729491)
(-0.153629 -1.95068 -2.72859e-318 0.0715082 9.25717e-318 0.0821208)
(0.468924 -1.94624 4.77663e-319 -0.548472 9.41415e-318 0.0795483)
(1.10366 -1.24913 3.42859e-318 -1.16421 9.34618e-318 0.0605501)
(2.06765 -0.478919 6.14964e-318 -2.08672 9.03571e-318 0.0190757)
(3.08798 2.10903 8.73758e-318 -3.05152 8.44644e-318 -0.0364616)
(3.55836 4.52107 1.09225e-317 -3.48661 7.59457e-318 -0.071745)
(4.22925 10.3967 1.26261e-317 -4.25931 7.19321e-318 0.030064)
(0.224564 15.0914 1.40992e-317 -0.492165 8.77646e-318 0.267601)
(-0.767448 -0.356145 1.32207e-317 2.40581 -1.31622e-317 -1.63837)
(-1.32344 -0.158787 -3.88125e-318 2.17612 -2.77432e-317 -0.852683)
(-1.51667 0.188151 -1.84975e-317 1.97194 -2.27908e-317 -0.455269)
(-1.49988 0.11551 -2.53167e-317 1.75024 -1.40866e-317 -0.250353)
(-1.46397 0.12617 -2.77448e-317 1.60298 -6.14978e-318 -0.139003)
(-1.32938 -0.0556267 -2.62718e-317 1.40599 -6.10418e-320 -0.0766133)
(-1.28663 -0.169236 -2.31251e-317 1.32347 4.4138e-318 -0.036842)
(-1.15566 -0.366098 -1.90729e-317 1.16519 7.54861e-318 -0.00952956)
(-1.14717 -0.508198 -1.49223e-317 1.13401 9.68133e-318 0.0131598)
(-1.01855 -0.705282 -1.0967e-317 0.985821 1.10569e-317 0.0327279)
(-1.02034 -0.837048 -7.40625e-318 0.969073 1.18719e-317 0.0512696)
(-0.801275 -1.00759 -4.26443e-318 0.734003 1.22738e-317 0.0672714)
(-0.741385 -1.01561 -1.52841e-318 0.661192 1.236e-317 0.0801928)
(-0.229123 -1.01488 8.76275e-319 0.143115 1.22013e-317 0.0860072)
(-0.0117029 -0.500654 2.99005e-318 -0.0722718 1.18131e-317 0.0839747)
(1.12387 0.121905 4.85018e-318 -1.19569 1.11943e-317 0.0718181)
(1.48743 2.26695 6.36617e-318 -1.55863 1.03282e-317 0.071202)
(3.45546 4.7184 7.39405e-318 -3.60138 9.23659e-318 0.145925)
(3.51696 10.5996 7.57359e-318 -4.0962 8.3782e-318 0.579234)
(4.34917 18.3974 7.59432e-318 -6.831 8.1117e-318 2.48183)
(-0.485104 -0.158892 -2.83385e-318 1.5115 -5.2752e-317 -1.0264)
(-0.703814 -0.258114 -1.19913e-317 1.23072 -4.02794e-317 -0.526909)
(-0.878164 -0.234077 -1.82448e-317 1.15865 -2.85017e-317 -0.280482)
(-0.890699 -0.330754 -2.08249e-317 1.04564 -1.77136e-317 -0.154942)
(-0.886089 -0.465224 -2.05194e-317 0.972827 -1.20233e-317 -0.0867381)
(-0.822949 -0.570481 -1.87502e-317 0.87153 -8.17143e-318 -0.0485811)
(-0.794338 -0.718573 -1.61581e-317 0.817927 -5.86212e-318 -0.0235894)
(-0.726446 -0.830844 -1.33177e-317 0.732467 -4.24594e-318 -0.00602139)
(-0.71733 -0.976664 -1.05098e-317 0.707989 -3.1326e-318 0.00934037)
(-0.651841 -1.11702 -7.89904e-318 0.628707 -2.29886e-318 0.0231339)
(-0.64861 -1.27401 -5.55014e-318 0.611657 -1.67099e-318 0.0369538)
(-0.530779 -1.45128 -3.46561e-318 0.480986 -1.17992e-318 0.0497929)
(-0.471971 -1.5853 -1.61349e-318 0.410304 -7.98459e-319 0.0616679)
(-0.170102 -1.73511 4.2712e-320 0.0999245 -5.04401e-319 0.0701776)
(0.0734379 -1.63371 1.55277e-318 -0.14922 -2.87892e-319 0.0757826)
(0.763238 -1.49767 2.87194e-318 -0.841337 -1.44835e-319 0.0780996)
(1.46331 -0.443638 3.9755e-318 -1.55994 -4.81121e-320 0.0966295)
(2.35261 0.472457 4.65314e-318 -2.53858 3.71142e-320 0.185966)
(3.98774 3.99952 4.63915e-318 -4.55206 3.07521e-319 0.56432)
(0.230685 5.31023 4.52645e-318 -1.83637 1.32392e-318 1.60569)
(-0.230308 -0.550185 5.19726e-317 0.556545 2.48265e-317 -0.326237)
(-0.710322 -0.263513 2.96569e-317 0.887107 -4.22888e-318 -0.176785)
(-0.650314 0.16673 7.11411e-318 0.745715 -7.38716e-318 -0.0954009)
(-0.621871 0.196061 -1.37026e-318 0.675559 -6.16933e-318 -0.0536884)
(-0.554168 0.432753 -5.94923e-318 0.584844 -2.1754e-318 -0.0306757)
(-0.450323 0.404549 -6.70108e-318 0.468143 1.55263e-318 -0.0178202)
(-0.446377 0.546631 -6.37298e-318 0.455321 5.00684e-318 -0.00894326)
(-0.381479 0.530139 -5.29615e-318 0.384041 7.75786e-318 -0.00256221)
(-0.438983 0.63305 -4.10262e-318 0.435556 9.91547e-318 0.00342715)
(-0.415196 0.659718 -2.90123e-318 0.406223 1.14837e-317 0.00897239)
(-0.530044 0.751936 -1.82287e-318 0.515181 1.25602e-317 0.0148622)
(-0.506576 0.857293 -8.73222e-319 0.485966 1.32118e-317 0.0206102)
(-0.673796 0.967592 -6.17582e-320 0.647336 1.35012e-317 0.0264597)
(-0.534886 1.21854 6.43357e-319 0.503435 1.34824e-317 0.0314508)
(-0.739573 1.41086 1.24397e-318 0.703433 1.31826e-317 0.0361396)
(-0.126678 1.93136 1.75562e-318 0.0865659 1.26351e-317 0.0401119)
(-0.386347 2.40874 2.10193e-318 0.334442 1.18936e-317 0.0519049)
(1.7822 3.44431 2.20729e-318 -1.87828 1.10523e-317 0.0960792)
(1.03581 5.03855 1.85648e-318 -1.37128 1.02787e-317 0.335464)
(5.67821 10.1424 1.46968e-318 -7.64582 9.11543e-318 1.96761)
)
;

boundaryField
{
    cavity
    {
        type            mySigma;
    }
    lid
    {
        type            fixedValue;
        value           uniform (0.1 -0.3 0 -0.1 0 0);
    }
    frontAndBack
    {
        type            empty;
    }
}


// ************************************************************************* //
