/*--------------------------------*- C++ -*----------------------------------*\
| =========                 |                                                 |
| \\      /  F ield         | foam-extend: Open Source CFD                    |
|  \\    /   O peration     | Version:  3.0                                   |
|   \\  /    A nd           | Web:         http://www.extend-project.de       |
|    \\/     M anipulation  |                                                 |
\*---------------------------------------------------------------------------*/
FoamFile
{
    version     2.0;
    format      ascii;
    class       volScalarField;
    location    "7.6";
    object      p;
}
// * * * * * * * * * * * * * * * * * * * * * * * * * * * * * * * * * * * * * //

dimensions      [0 0 0 0 0 0 0];

internalField   nonuniform List<scalar> 
400
(
1.61071
0.742333
0.773299
0.514377
0.781064
0.67495
0.97546
0.901527
1.1918
1.12213
1.4052
1.33323
1.61574
1.52989
1.79886
1.66333
1.85856
1.57126
1.52192
0.748015
2.76652
2.04817
1.9484
1.56554
1.65729
1.38752
1.51519
1.28112
1.40338
1.17662
1.28701
1.0533
1.1526
0.90024
0.983127
0.692735
0.725045
0.343925
0.204842
-0.418233
2.27617
1.60966
1.59665
1.29954
1.44382
1.2494
1.42525
1.25505
1.4355
1.26669
1.45178
1.27656
1.46766
1.27747
1.46139
1.23342
1.36037
1.03165
0.970875
0.371141
2.33103
1.87701
1.78387
1.52945
1.56984
1.37404
1.44501
1.26056
1.33555
1.15218
1.23122
1.04817
1.13541
0.948872
1.03602
0.825942
0.866364
0.575646
0.445355
-0.0254491
1.91982
1.49936
1.49871
1.29865
1.41091
1.26826
1.41447
1.28148
1.45033
1.3173
1.51754
1.38487
1.62415
1.48686
1.75169
1.5803
1.80242
1.51148
1.51192
0.918133
1.7893
1.49721
1.45744
1.31211
1.34507
1.22849
1.27737
1.16119
1.22053
1.10702
1.18922
1.08788
1.20832
1.12065
1.28029
1.17516
1.32314
1.08785
1.04492
0.408153
1.55384
1.32365
1.34168
1.23743
1.31422
1.22655
1.33212
1.23952
1.38325
1.28999
1.49459
1.41189
1.70172
1.63248
2.01217
1.91948
2.31972
2.05312
2.20335
1.33261
1.34565
1.24603
1.24045
1.1878
1.19292
1.13026
1.13753
1.06303
1.08488
1.01391
1.0733
1.0273
1.1542
1.14674
1.3633
1.36143
1.62957
1.45099
1.52106
0.591998
1.20351
1.22206
1.23651
1.22361
1.23802
1.18967
1.2272
1.15531
1.2398
1.16236
1.32704
1.26798
1.558
1.53636
1.99194
1.97886
2.56387
2.35182
2.72956
1.56046
0.953289
1.11542
1.12198
1.15452
1.10903
1.07867
1.02403
0.962882
0.92032
0.855468
0.850923
0.816752
0.890763
0.922379
1.12216
1.20989
1.53139
1.46511
1.63715
0.569369
0.863893
1.1733
1.16618
1.23804
1.17812
1.15587
1.11106
1.04028
1.03668
0.945444
1.01769
0.941902
1.15072
1.13336
1.56201
1.61095
2.29926
2.21691
2.87283
1.66972
0.615779
1.04634
1.05635
1.16409
1.06731
1.05708
0.93735
0.869059
0.746424
0.653774
0.548689
0.476423
0.430384
0.440919
0.519397
0.659174
0.907148
1.03438
1.25222
0.456458
0.578484
1.13659
1.10974
1.25301
1.13482
1.13242
1.01192
0.929134
0.824399
0.693265
0.630858
0.494852
0.537227
0.464999
0.728342
0.795271
1.42645
1.56066
2.48798
1.76044
0.389764
1.01567
1.03071
1.19862
1.06985
1.07554
0.902937
0.815977
0.612305
0.466752
0.241498
0.0856051
-0.130831
-0.211655
-0.351789
-0.230332
-0.20165
0.177386
0.339054
0.403858
0.429739
1.11865
1.08973
1.28544
1.14139
1.15641
0.979189
0.877313
0.674825
0.487032
0.271749
0.0409704
-0.142216
-0.331626
-0.364109
-0.354372
0.00896846
0.403777
1.4869
1.88725
0.372267
1.06606
1.08722
1.29518
1.15669
1.17478
0.965009
0.853436
0.57916
0.368806
0.0269592
-0.240857
-0.642777
-0.878509
-1.29225
-1.29262
-1.59759
-0.999826
-1.02807
0.499464
0.539613
1.1976
1.18268
1.40652
1.26101
1.28636
1.06854
0.942745
0.657843
0.409792
0.0540649
-0.28462
-0.702759
-1.05583
-1.45955
-1.6087
-1.72584
-1.14548
-0.221076
1.89137
0.708036
1.30747
1.32184
1.53915
1.39404
1.40987
1.16954
1.02776
0.700608
0.429023
-0.000701462
-0.379927
-0.937073
-1.3621
-2.03871
-2.2842
-2.96248
-2.35974
-2.71823
0.55785
1.0629
1.51678
1.50823
1.72306
1.56757
1.57875
1.32299
1.16584
0.822234
0.524196
0.0718138
-0.358249
-0.958514
-1.48489
-2.23668
-2.65317
-3.38061
-2.89964
-2.77043
1.1457
1.58342
1.90937
1.87224
2.04001
1.85398
1.82463
1.54947
1.36475
1.01225
0.694615
0.234525
-0.225273
-0.852287
-1.45594
-2.29412
-2.90421
-3.86818
-3.76007
-4.47061
-0.317457
)
;

boundaryField
{
    cavity
    {
        type            implicitExtrapolation;
    }
    lid
    {
        type            implicitExtrapolation;
    }
    frontAndBack
    {
        type            empty;
    }
}


// ************************************************************************* //
