/*--------------------------------*- C++ -*----------------------------------*\
| =========                 |                                                 |
| \\      /  F ield         | foam-extend: Open Source CFD                    |
|  \\    /   O peration     | Version:  3.0                                   |
|   \\  /    A nd           | Web:         http://www.extend-project.de       |
|    \\/     M anipulation  |                                                 |
\*---------------------------------------------------------------------------*/
FoamFile
{
    version     2.0;
    format      ascii;
    class       volScalarField;
    location    "13";
    object      p;
}
// * * * * * * * * * * * * * * * * * * * * * * * * * * * * * * * * * * * * * //

dimensions      [0 0 0 0 0 0 0];

internalField   nonuniform List<scalar> 
120
(
-0.284404
-0.211625
-0.221109
-0.211187
-0.211361
-0.265319
-0.197451
-0.206299
-0.19705
-0.197212
-0.227916
-0.169685
-0.17732
-0.169416
-0.169568
-0.175226
-0.130507
-0.136387
-0.13033
-0.130448
-0.110364
-0.0823013
-0.0860504
-0.0822961
-0.0823855
-0.0382212
-0.0286338
-0.029975
-0.0287418
-0.0287833
0.0367587
0.027122
0.0282578
0.0268464
0.026843
0.108999
0.0808907
0.0844488
0.0805288
0.0805767
0.174047
0.12929
0.135008
0.12881
0.128893
0.227002
0.168744
0.176255
0.168245
0.168371
0.264725
0.196843
0.205616
0.196304
0.19645
0.284172
0.211389
0.22085
0.210912
0.211081
0.284488
0.211669
0.22115
0.211225
0.211392
0.265176
0.197377
0.206254
0.197055
0.197223
0.228023
0.169768
0.177412
0.169523
0.169666
0.175087
0.130438
0.136348
0.130342
0.130465
0.11045
0.0823516
0.0861011
0.0823451
0.082427
0.0380443
0.0285066
0.0298612
0.0286485
0.0286961
-0.03672
-0.0271426
-0.028297
-0.0269225
-0.0269255
-0.109216
-0.0810804
-0.0846422
-0.0807332
-0.0807742
-0.174034
-0.12935
-0.135096
-0.128955
-0.129044
-0.227222
-0.168938
-0.176454
-0.168456
-0.168575
-0.264692
-0.196871
-0.205665
-0.196392
-0.196544
-0.284354
-0.211525
-0.220974
-0.211018
-0.21118
)
;

boundaryField
{
    out
    {
        type            implicitExtrapolation;
    }
    in
    {
        type            implicitExtrapolation;
    }
    frontAndBack
    {
        type            empty;
    }
}


// ************************************************************************* //
