/*--------------------------------*- C++ -*----------------------------------*\
| =========                 |                                                 |
| \\      /  F ield         | foam-extend: Open Source CFD                    |
|  \\    /   O peration     | Version:  3.0                                   |
|   \\  /    A nd           | Web:         http://www.extend-project.de       |
|    \\/     M anipulation  |                                                 |
\*---------------------------------------------------------------------------*/
FoamFile
{
    version     2.0;
    format      ascii;
    class       volSymmTensorField;
    location    "13";
    object      sigma;
}
// * * * * * * * * * * * * * * * * * * * * * * * * * * * * * * * * * * * * * //

dimensions      [0 0 0 0 0 0 0];

internalField   nonuniform List<symmTensor> 
120
(
(-0.131109 -0.0230055 1.92839e-19 0.131005 -1.15834e-20 0.00010389)
(-0.0936655 -0.0224684 5.29436e-19 0.0934447 4.31859e-19 0.000220828)
(-0.0552176 -0.0175899 1.17267e-18 0.054927 -6.06555e-19 0.000290628)
(-0.0242535 -0.0133021 -8.6746e-19 0.023965 5.33847e-20 0.000288457)
(-0.00182313 -0.0100172 -9.18783e-19 0.00166653 -5.90804e-21 0.000156598)
(-0.111683 -0.06308 3.36352e-19 0.111584 -1.02403e-19 9.84941e-05)
(-0.0688151 -0.0580916 1.65177e-18 0.0686055 -7.8068e-19 0.000209675)
(-0.032731 -0.0435732 9.81807e-19 0.0324552 -1.61261e-18 0.000275756)
(-0.00437771 -0.0310657 1.39312e-18 0.00410503 -1.04562e-18 0.000272678)
(0.0157201 -0.0215295 7.42986e-19 -0.0158668 -1.37985e-18 0.00014671)
(-0.0802775 -0.0883561 9.27574e-21 0.0801909 -2.97699e-19 8.6662e-05)
(-0.0316202 -0.0712946 -3.47247e-19 0.0314357 -1.30062e-18 0.000184573)
(-0.000265203 -0.0478821 -1.32337e-18 2.30019e-05 -1.70333e-18 0.000242201)
(0.0233188 -0.0285274 -1.97183e-18 -0.023557 -1.84367e-18 0.000238203)
(0.039345 -0.0142302 -3.28151e-18 -0.0394717 5.84913e-19 0.000126687)
(-0.0477401 -0.0971004 -1.00571e-19 0.0476713 -2.12058e-19 6.88133e-05)
(8.64507e-05 -0.0611738 -5.64447e-19 -0.000233061 -7.53798e-19 0.000146611)
(0.0244688 -0.030225 -3.03679e-18 -0.0246605 1.85801e-19 0.000191769)
(0.0418835 -0.00587036 -1.05197e-18 -0.0420707 9.50736e-19 0.000187117)
(0.0530784 0.0113583 -5.7872e-19 -0.0531763 1.67032e-18 9.78512e-05)
(-0.0224507 -0.0948659 6.20686e-20 0.0224046 -1.80234e-19 4.6178e-05)
(0.0133241 -0.0392337 -7.58773e-19 -0.0134225 -4.19315e-20 9.83919e-05)
(0.0288279 -0.00276477 -1.00345e-19 -0.0289558 4.26677e-19 0.000127897)
(0.0394064 0.0247029 -3.78371e-19 -0.0395293 1.00645e-18 0.0001229)
(0.0458454 0.0433211 2.88294e-18 -0.0459075 -3.9189e-20 6.213e-05)
(-0.00614087 -0.0905107 -2.49646e-19 0.00612059 -8.37525e-20 2.0277e-05)
(0.0071872 -0.0222669 -1.00719e-18 -0.00723043 2.07671e-19 4.3229e-05)
(0.0125167 0.0171302 7.71482e-19 -0.0125717 4.07751e-19 5.50184e-05)
(0.0160647 0.0460465 2.24564e-19 -0.0161147 6.44871e-19 5.00202e-05)
(0.01816 0.0651187 6.54876e-19 -0.018182 -3.23125e-19 2.20225e-05)
(0.00622951 -0.0904917 -2.44831e-19 -0.00622244 -4.33226e-20 -7.06685e-06)
(-0.00709079 -0.0222483 -5.77106e-19 0.00710578 1.63945e-19 -1.49946e-05)
(-0.0123945 0.0171477 7.11541e-19 0.0124162 3.60918e-19 -2.17343e-05)
(-0.0158945 0.0460613 1.89838e-19 0.0159209 4.75164e-19 -2.63742e-05)
(-0.0179224 0.0651244 -1.07466e-18 0.0179421 -2.2307e-19 -1.96322e-05)
(0.022523 -0.0948138 -3.43755e-19 -0.0224891 -6.79338e-21 -3.39455e-05)
(-0.0132401 -0.039181 8.90194e-19 0.0133122 3.47896e-19 -7.21943e-05)
(-0.0287115 -0.0027119 -4.61124e-19 0.0288084 8.687e-20 -9.69674e-05)
(-0.0392319 0.0247537 5.41153e-19 0.0393328 -5.37744e-20 -0.000100905)
(-0.0455805 0.0433563 9.3636e-20 0.0456404 -3.98573e-19 -5.99071e-05)
(0.0477859 -0.0970281 -2.12095e-19 -0.0477274 3.07994e-19 -5.8454e-05)
(-2.38125e-05 -0.0610951 -9.45103e-19 0.000148142 5.40169e-19 -0.00012433)
(-0.024366 -0.0301361 -1.86572e-18 0.0245314 3.46279e-19 -0.000165355)
(-0.0417111 -0.00576874 -1.22243e-18 0.0418793 7.55813e-19 -0.000168273)
(-0.0527856 0.0114664 -3.14503e-18 0.0528815 -1.20569e-19 -9.59166e-05)
(0.0802961 -0.0882785 1.17164e-19 -0.0802171 4.08738e-19 -7.89219e-05)
(0.0316578 -0.0712 1.34568e-19 -0.03149 9.33409e-19 -0.000167826)
(0.000344058 -0.0477586 -6.70258e-19 -0.00012185 1.06937e-18 -0.000222208)
(-0.0231694 -0.0283629 1.79715e-18 0.0233932 1.14841e-19 -0.000223856)
(-0.0390639 -0.0140067 2.3763e-18 0.0391891 2.54059e-18 -0.00012521)
(0.111681 -0.0630074 2.98009e-19 -0.111587 2.25413e-19 -9.391e-05)
(0.0688285 -0.0579893 5.23818e-19 -0.0686289 2.06787e-19 -0.000199656)
(0.0327745 -0.043421 2.13203e-18 -0.0325109 1.17533e-18 -0.00026357)
(0.00447315 -0.0308403 1.19732e-18 -0.00420937 -4.50116e-19 -0.000263774)
(-0.0155213 -0.0211812 2.35841e-18 0.015667 -1.91361e-19 -0.00014571)
(0.131098 -0.0229403 1.33339e-19 -0.130995 -2.91657e-21 -0.000102466)
(0.0936568 -0.0223638 4.67273e-19 -0.093439 4.44585e-20 -0.00021778)
(0.0552157 -0.0174207 1.68431e-18 -0.0549289 -1.38358e-19 -0.00028682)
(0.024266 -0.0130376 1.4574e-19 -0.0239805 -6.12752e-19 -0.000285543)
(0.0018701 -0.00958581 -1.08762e-19 -0.0017139 -2.11598e-18 -0.0001562)
(0.13107 0.0230343 1.92604e-19 -0.130966 -1.18199e-20 -0.000103986)
(0.0936324 0.0224301 5.28815e-19 -0.0934115 4.31375e-19 -0.000220974)
(0.0551793 0.0175081 1.17132e-18 -0.0548889 -6.0364e-19 -0.0002904)
(0.0242083 0.0131729 -8.69109e-19 -0.0239206 5.48757e-20 -0.000287717)
(0.00177831 0.00981605 -9.17828e-19 -0.00162237 -8.10239e-21 -0.00015594)
(0.111604 0.0630789 3.36133e-19 -0.111506 -1.02722e-19 -9.84734e-05)
(0.068758 0.0580397 1.65067e-18 -0.0685488 -7.78383e-19 -0.000209224)
(0.0326697 0.0434827 9.80907e-19 -0.0323954 -1.61087e-18 -0.000274386)
(0.00430992 0.0309334 1.39068e-18 -0.00403939 -1.03989e-18 -0.000270532)
(-0.0157718 0.0213329 7.4104e-19 0.015917 -1.37374e-18 -0.000145239)
(0.0801841 0.088312 9.03864e-21 -0.0800978 -2.98054e-19 -8.62662e-05)
(0.0315483 0.071219 -3.46794e-19 -0.031365 -1.3015e-18 -0.000183308)
(0.000185876 0.0477719 -1.32188e-18 5.39557e-05 -1.70596e-18 -0.000239831)
(-0.0234104 0.0283784 -1.97152e-18 0.0236455 -1.84585e-18 -0.000235111)
(-0.0394096 0.0140323 -3.27534e-18 0.0395343 5.79855e-19 -0.000124728)
(0.0476557 0.0970163 -1.01008e-19 -0.0475874 -2.12146e-19 -6.82883e-05)
(-0.000159023 0.0610703 -5.64706e-19 0.000304169 -7.53618e-19 -0.000145146)
(-0.0245536 0.0300858 -3.03311e-18 0.0247429 1.8321e-19 -0.000189329)
(-0.0419872 0.00568913 -1.04978e-18 0.0421714 9.49306e-19 -0.000184153)
(-0.0531534 -0.0115694 -5.74462e-19 0.0532494 1.66726e-18 -9.60501e-05)
(0.02239 0.0947544 6.13517e-20 -0.0223443 -1.80172e-19 -4.56797e-05)
(-0.0133827 0.0391055 -7.58813e-19 0.0134799 -4.186e-20 -9.71987e-05)
(-0.0289002 0.0025962 -1.01927e-19 0.0290263 4.27855e-19 -0.00012609)
(-0.0394984 -0.0249219 -3.77053e-19 0.0396192 1.00613e-18 -0.000120838)
(-0.045918 -0.0435518 2.86988e-18 0.0459789 -3.35993e-20 -6.08993e-05)
(0.00611016 0.0903852 -2.49982e-19 -0.00609012 -8.38072e-20 -2.00411e-05)
(-0.00722112 0.0221244 -1.00706e-18 0.00726392 2.07502e-19 -4.27988e-05)
(-0.0125604 -0.0173168 7.6894e-19 0.0126149 4.08266e-19 -5.45199e-05)
(-0.0161218 -0.0462895 2.24168e-19 0.0161714 6.44934e-19 -4.95958e-05)
(-0.0182153 -0.0653628 6.56671e-19 0.0182371 -3.23421e-19 -2.18204e-05)
(-0.00622756 0.090364 -2.45119e-19 0.00622057 -4.34365e-20 6.99252e-06)
(0.00708571 0.022106 -5.77319e-19 -0.00710027 1.63803e-19 1.45574e-05)
(0.0123846 -0.0173329 7.08231e-19 -0.0124055 3.60531e-19 2.08492e-05)
(0.0158803 -0.0463016 1.88404e-19 -0.0159054 4.75811e-19 2.51501e-05)
(0.0178889 -0.0653663 -1.07171e-18 -0.0179077 -2.23589e-19 1.88681e-05)
(-0.0224874 0.0946981 -3.43826e-19 0.0224539 -6.95586e-21 3.35269e-05)
(0.0132595 0.0390532 8.86956e-19 -0.0133304 3.4697e-19 7.09126e-05)
(0.028728 0.00254627 -4.64619e-19 -0.0288228 8.58366e-20 9.48126e-05)
(0.0392478 -0.0249673 5.33303e-19 -0.039346 -5.61228e-20 9.82219e-05)
(0.0455602 -0.0435825 8.46355e-20 -0.0456184 -4.02307e-19 5.82657e-05)
(-0.0477229 0.0969416 -2.12004e-19 0.047665 3.08298e-19 5.78386e-05)
(5.70698e-05 0.060992 -9.45395e-19 -0.000179657 5.41897e-19 0.000122587)
(0.0243927 0.0299988 -1.86505e-18 -0.0245553 3.49553e-19 0.000162598)
(0.0417339 0.00559033 -1.22301e-18 -0.0418988 7.59758e-19 0.000164976)
(0.0527636 -0.0116755 -3.13635e-18 -0.0528576 -1.16226e-19 9.39636e-05)
(-0.0802237 0.0882359 1.17363e-19 0.0801455 4.09112e-19 7.82025e-05)
(-0.0316251 0.0711245 1.34487e-19 0.0314591 9.35031e-19 0.00016596)
(-0.000323082 0.0476479 -6.66325e-19 0.000103643 1.07607e-18 0.000219438)
(0.02318 0.0282115 1.80195e-18 -0.0234007 1.19351e-19 0.000220694)
(0.0390316 0.0138062 2.38308e-18 -0.039155 2.55082e-18 0.000123375)
(-0.111627 0.06301 2.98176e-19 0.111533 2.25496e-19 9.32358e-05)
(-0.06881 0.0579376 5.2457e-19 0.0686119 2.08181e-19 0.000198103)
(-0.0327695 0.0433287 2.13273e-18 0.0325079 1.17568e-18 0.000261538)
(-0.00448163 0.0307029 1.20062e-18 0.00421997 -4.48099e-19 0.000261666)
(0.0154804 0.0209799 2.3525e-18 -0.015625 -2.02745e-19 0.0001446)
(-0.131086 0.0229709 1.33586e-19 0.130984 -2.57642e-21 0.000101812)
(-0.093662 0.0223255 4.68183e-19 0.0934454 4.5704e-20 0.000216679)
(-0.0552315 0.0173379 1.68501e-18 0.0549457 -1.40301e-19 0.000285838)
(-0.0242925 0.0129058 1.47462e-19 0.0240077 -6.12587e-19 0.000284803)
(-0.00191375 0.00938253 -1.09414e-19 0.00175786 -2.1145e-18 0.000155887)
)
;

boundaryField
{
    out
    {
        type            mySigma;
    }
    in
    {
        type            mySigma;
    }
    frontAndBack
    {
        type            empty;
    }
}


// ************************************************************************* //
