/*--------------------------------*- C++ -*----------------------------------*\
| =========                 |                                                 |
| \\      /  F ield         | foam-extend: Open Source CFD                    |
|  \\    /   O peration     | Version:  3.0                                   |
|   \\  /    A nd           | Web:         http://www.extend-project.de       |
|    \\/     M anipulation  |                                                 |
\*---------------------------------------------------------------------------*/
FoamFile
{
    version     2.0;
    format      ascii;
    class       volScalarField;
    location    "66";
    object      p;
}
// * * * * * * * * * * * * * * * * * * * * * * * * * * * * * * * * * * * * * //

dimensions      [0 0 0 0 0 0 0];

internalField   nonuniform List<scalar> 
7680
(
-0.235285
-0.223162
-0.214174
-0.204677
-0.19779
-0.190227
-0.184899
-0.178801
-0.174659
-0.169696
-0.166473
-0.162408
-0.159909
-0.156565
-0.154643
-0.151885
-0.150422
-0.148142
-0.147037
-0.145143
-0.144309
-0.142724
-0.142085
-0.140744
-0.140236
-0.139089
-0.138662
-0.137671
-0.13729
-0.13642
-0.13606
-0.135256
-0.13488
-0.13405
-0.133566
-0.132608
-0.131886
-0.130747
-0.129706
-0.128334
-0.234997
-0.222888
-0.21391
-0.204424
-0.197545
-0.18999
-0.184669
-0.178577
-0.17444
-0.169483
-0.166262
-0.162201
-0.159703
-0.156362
-0.15444
-0.151685
-0.15022
-0.147942
-0.146834
-0.144942
-0.144103
-0.142519
-0.141873
-0.140532
-0.140015
-0.138866
-0.138428
-0.137435
-0.137039
-0.136168
-0.135793
-0.13499
-0.134601
-0.133772
-0.133281
-0.132323
-0.131603
-0.13046
-0.12944
-0.128039
-0.234545
-0.222458
-0.213496
-0.204027
-0.197162
-0.18962
-0.18431
-0.17823
-0.174101
-0.169153
-0.16594
-0.161887
-0.159395
-0.15606
-0.154144
-0.151393
-0.149933
-0.147658
-0.146554
-0.144663
-0.143828
-0.142244
-0.141601
-0.140259
-0.139745
-0.138595
-0.138159
-0.137165
-0.136773
-0.135902
-0.135532
-0.13473
-0.134347
-0.133519
-0.133031
-0.132068
-0.131337
-0.130178
-0.129115
-0.127712
-0.233753
-0.221706
-0.212775
-0.203338
-0.196495
-0.188978
-0.183685
-0.177625
-0.173509
-0.168577
-0.165373
-0.161333
-0.158848
-0.155523
-0.153611
-0.150869
-0.149411
-0.147143
-0.14604
-0.144155
-0.143317
-0.141738
-0.141091
-0.139752
-0.139232
-0.138085
-0.137641
-0.13665
-0.13625
-0.135382
-0.135004
-0.134206
-0.133818
-0.132993
-0.132502
-0.131541
-0.130807
-0.129643
-0.128575
-0.127157
-0.232801
-0.220803
-0.211907
-0.202508
-0.195692
-0.188206
-0.182934
-0.176898
-0.1728
-0.167888
-0.164698
-0.160674
-0.1582
-0.154889
-0.152985
-0.150254
-0.148803
-0.146543
-0.145445
-0.143566
-0.142734
-0.141158
-0.140515
-0.139179
-0.138662
-0.137516
-0.137076
-0.136086
-0.135689
-0.134823
-0.134452
-0.133657
-0.133279
-0.132456
-0.131979
-0.131019
-0.130305
-0.129142
-0.128108
-0.126654
-0.231509
-0.219577
-0.21073
-0.201383
-0.194605
-0.18716
-0.181917
-0.175914
-0.171837
-0.166952
-0.163778
-0.159776
-0.157313
-0.15402
-0.152125
-0.149409
-0.147964
-0.145716
-0.144621
-0.142752
-0.14192
-0.140353
-0.139709
-0.138379
-0.13786
-0.13672
-0.136275
-0.135291
-0.134889
-0.13403
-0.133655
-0.132865
-0.132484
-0.131666
-0.131184
-0.130225
-0.129499
-0.128333
-0.127267
-0.125814
-0.230061
-0.218203
-0.209411
-0.200122
-0.193386
-0.185987
-0.180777
-0.174811
-0.17076
-0.165905
-0.162752
-0.158774
-0.156328
-0.153055
-0.151173
-0.148472
-0.147038
-0.144803
-0.143716
-0.141857
-0.141032
-0.139472
-0.138833
-0.137509
-0.136994
-0.135858
-0.135417
-0.134437
-0.13404
-0.133184
-0.132816
-0.13203
-0.13166
-0.130843
-0.130377
-0.129416
-0.128709
-0.127533
-0.126489
-0.124988
-0.228272
-0.216508
-0.207784
-0.198567
-0.191883
-0.184542
-0.179371
-0.173451
-0.16943
-0.164613
-0.161482
-0.157535
-0.155107
-0.151859
-0.149989
-0.14731
-0.145884
-0.143667
-0.142585
-0.140741
-0.139919
-0.138371
-0.137733
-0.13642
-0.135904
-0.134778
-0.134335
-0.133364
-0.132965
-0.132117
-0.131747
-0.130968
-0.130595
-0.129783
-0.12931
-0.12835
-0.127628
-0.126451
-0.12538
-0.123888
-0.226334
-0.214669
-0.206019
-0.19688
-0.190252
-0.182972
-0.177846
-0.171976
-0.167989
-0.163212
-0.160109
-0.156195
-0.153788
-0.150567
-0.148714
-0.146057
-0.144644
-0.142444
-0.141373
-0.139543
-0.138729
-0.137193
-0.136562
-0.135258
-0.134748
-0.133629
-0.133192
-0.132227
-0.131833
-0.130991
-0.130627
-0.129852
-0.129488
-0.128679
-0.128216
-0.127254
-0.126543
-0.125358
-0.124297
-0.122785
-0.224057
-0.21251
-0.203947
-0.194901
-0.188339
-0.181133
-0.176057
-0.170246
-0.166298
-0.161569
-0.158495
-0.154621
-0.152236
-0.149048
-0.147212
-0.144581
-0.14318
-0.141003
-0.139941
-0.13813
-0.137321
-0.135801
-0.135174
-0.133883
-0.133375
-0.132269
-0.131832
-0.130879
-0.130485
-0.129653
-0.129289
-0.128524
-0.128159
-0.127357
-0.126891
-0.125934
-0.125215
-0.124036
-0.122966
-0.12147
-0.221637
-0.210214
-0.201743
-0.192794
-0.186303
-0.179174
-0.174153
-0.168404
-0.164499
-0.159821
-0.156781
-0.152948
-0.150589
-0.147435
-0.145619
-0.143016
-0.141631
-0.139477
-0.138427
-0.136634
-0.135836
-0.134331
-0.133712
-0.132435
-0.131934
-0.130838
-0.130409
-0.129464
-0.129077
-0.128253
-0.127896
-0.127137
-0.12678
-0.125983
-0.125526
-0.124574
-0.123867
-0.122691
-0.121633
-0.12014
-0.218881
-0.207601
-0.199236
-0.190398
-0.183987
-0.176947
-0.171988
-0.166311
-0.162453
-0.157833
-0.15483
-0.151044
-0.148713
-0.145598
-0.143804
-0.141233
-0.139864
-0.137737
-0.136698
-0.134929
-0.134139
-0.132653
-0.13204
-0.130779
-0.130283
-0.129203
-0.128777
-0.127845
-0.127462
-0.126651
-0.126297
-0.12555
-0.125194
-0.12441
-0.123955
-0.123017
-0.122314
-0.121154
-0.120106
-0.118636
-0.215988
-0.204857
-0.196601
-0.18788
-0.181554
-0.174606
-0.169712
-0.16411
-0.160304
-0.155744
-0.152781
-0.149044
-0.146745
-0.14367
-0.1419
-0.139363
-0.138013
-0.135913
-0.134889
-0.133142
-0.132364
-0.130897
-0.130295
-0.12905
-0.128563
-0.127496
-0.127079
-0.126159
-0.125785
-0.124983
-0.124638
-0.1239
-0.123553
-0.122779
-0.122335
-0.121411
-0.120723
-0.11958
-0.118551
-0.117099
-0.212764
-0.2018
-0.193668
-0.185078
-0.178846
-0.172002
-0.167181
-0.161662
-0.157911
-0.15342
-0.150499
-0.146819
-0.144553
-0.141524
-0.139779
-0.13728
-0.135949
-0.133881
-0.132871
-0.131151
-0.130383
-0.12894
-0.128345
-0.12712
-0.126639
-0.12559
-0.125179
-0.124275
-0.123907
-0.12312
-0.12278
-0.122056
-0.121715
-0.120958
-0.120522
-0.119619
-0.118945
-0.117828
-0.11682
-0.1154
-0.209411
-0.19862
-0.190615
-0.182159
-0.176026
-0.169289
-0.164544
-0.159111
-0.15542
-0.150998
-0.148125
-0.144501
-0.142272
-0.13929
-0.137573
-0.135112
-0.133803
-0.131767
-0.130774
-0.12908
-0.128326
-0.126905
-0.126322
-0.125116
-0.124646
-0.123613
-0.123213
-0.122322
-0.121965
-0.121189
-0.120859
-0.120147
-0.119817
-0.119074
-0.118651
-0.117768
-0.117114
-0.116022
-0.115041
-0.113652
-0.205733
-0.195132
-0.187269
-0.178962
-0.172936
-0.166318
-0.161655
-0.156318
-0.152691
-0.148348
-0.145523
-0.141964
-0.139772
-0.136843
-0.135155
-0.132738
-0.131451
-0.129451
-0.128475
-0.126811
-0.12607
-0.124674
-0.124101
-0.122917
-0.122456
-0.121443
-0.121051
-0.120178
-0.119828
-0.119069
-0.118746
-0.118051
-0.117727
-0.117004
-0.116592
-0.115736
-0.1151
-0.11404
-0.113086
-0.111738
-0.201935
-0.191529
-0.18381
-0.175656
-0.169741
-0.163244
-0.158668
-0.153429
-0.149869
-0.145605
-0.142833
-0.139338
-0.137188
-0.134312
-0.132656
-0.130282
-0.129019
-0.127055
-0.126098
-0.124465
-0.123739
-0.122368
-0.121808
-0.120646
-0.120196
-0.119201
-0.11882
-0.117963
-0.117624
-0.116878
-0.116566
-0.115884
-0.115571
-0.114866
-0.114467
-0.113634
-0.11302
-0.111991
-0.111067
-0.109758
-0.197818
-0.187625
-0.180064
-0.172077
-0.166282
-0.159919
-0.155435
-0.150303
-0.146815
-0.142638
-0.139922
-0.136499
-0.134391
-0.131574
-0.129951
-0.127627
-0.126388
-0.124465
-0.123527
-0.121927
-0.121215
-0.119874
-0.119324
-0.118187
-0.117747
-0.116774
-0.116401
-0.115564
-0.115233
-0.114505
-0.114201
-0.113536
-0.11323
-0.112545
-0.112159
-0.111353
-0.110759
-0.109763
-0.108869
-0.107605
-0.19359
-0.183614
-0.176214
-0.168397
-0.162726
-0.156498
-0.15211
-0.147087
-0.143674
-0.139585
-0.136927
-0.133577
-0.131514
-0.128757
-0.127169
-0.124893
-0.123682
-0.121799
-0.120881
-0.119315
-0.118619
-0.117306
-0.11677
-0.115657
-0.115228
-0.114275
-0.113914
-0.113094
-0.112773
-0.11206
-0.111765
-0.111115
-0.110819
-0.110152
-0.109778
-0.108996
-0.108422
-0.107458
-0.106594
-0.105373
-0.189053
-0.179311
-0.172085
-0.164452
-0.158913
-0.152832
-0.148546
-0.143641
-0.140308
-0.136316
-0.133719
-0.130448
-0.128433
-0.125741
-0.124189
-0.121967
-0.120783
-0.118945
-0.118048
-0.11652
-0.115839
-0.114558
-0.114033
-0.112947
-0.112528
-0.111599
-0.111246
-0.110447
-0.110135
-0.109439
-0.109153
-0.10852
-0.108232
-0.107584
-0.107221
-0.106464
-0.10591
-0.104979
-0.104144
-0.102968
-0.184413
-0.17491
-0.167861
-0.160414
-0.155011
-0.149078
-0.144898
-0.140112
-0.136861
-0.132966
-0.130433
-0.127242
-0.125276
-0.122649
-0.121136
-0.118968
-0.117813
-0.11602
-0.115145
-0.113653
-0.11299
-0.111739
-0.111228
-0.110168
-0.10976
-0.108853
-0.10851
-0.10773
-0.107426
-0.106748
-0.106469
-0.105852
-0.105572
-0.104942
-0.104589
-0.103855
-0.103317
-0.102417
-0.101609
-0.100475
-0.179474
-0.170226
-0.163366
-0.156119
-0.150861
-0.145087
-0.141019
-0.136362
-0.133198
-0.129407
-0.126942
-0.123836
-0.121923
-0.119367
-0.117893
-0.115784
-0.11466
-0.112914
-0.112062
-0.110611
-0.109964
-0.108748
-0.108249
-0.107219
-0.106821
-0.105939
-0.105605
-0.104846
-0.10455
-0.103891
-0.10362
-0.10302
-0.102748
-0.102135
-0.101794
-0.101082
-0.100561
-0.09969
-0.0989104
-0.0978168
-0.174443
-0.165453
-0.158785
-0.15174
-0.14663
-0.141017
-0.137063
-0.132536
-0.12946
-0.125775
-0.12338
-0.12036
-0.118501
-0.116015
-0.114583
-0.112532
-0.111439
-0.109742
-0.108914
-0.107502
-0.106874
-0.105691
-0.105206
-0.104204
-0.103816
-0.102959
-0.102633
-0.101895
-0.101607
-0.100966
-0.100701
-0.100118
-0.0998522
-0.0992574
-0.0989236
-0.0982324
-0.0977254
-0.0968825
-0.0961266
-0.0950723
-0.169124
-0.160409
-0.153944
-0.147115
-0.14216
-0.136719
-0.132885
-0.128497
-0.125515
-0.121943
-0.11962
-0.116693
-0.11489
-0.112481
-0.111092
-0.109104
-0.108044
-0.106399
-0.105595
-0.104227
-0.103617
-0.10247
-0.101999
-0.101027
-0.100651
-0.0998198
-0.0995025
-0.0987878
-0.0985073
-0.0978864
-0.0976291
-0.0970642
-0.096807
-0.0962295
-0.0959063
-0.0952348
-0.0947435
-0.0939265
-0.0931956
-0.0921771
-0.163724
-0.155286
-0.149027
-0.142415
-0.137618
-0.13235
-0.128639
-0.12439
-0.121503
-0.118045
-0.115796
-0.112962
-0.111217
-0.108884
-0.107539
-0.105614
-0.104588
-0.102994
-0.102216
-0.100891
-0.1003
-0.0991884
-0.098732
-0.0977903
-0.0974246
-0.0966194
-0.0963106
-0.0956184
-0.0953448
-0.094744
-0.0944929
-0.0939465
-0.0936955
-0.0931362
-0.0928206
-0.0921692
-0.0916894
-0.0908985
-0.090188
-0.0892062
-0.158047
-0.149902
-0.14386
-0.137478
-0.132848
-0.127763
-0.124181
-0.12008
-0.117293
-0.113955
-0.111785
-0.109049
-0.107364
-0.105113
-0.103814
-0.101956
-0.100965
-0.099427
-0.0986751
-0.0973961
-0.0968246
-0.0957522
-0.0953104
-0.0944018
-0.0940473
-0.0932705
-0.0929709
-0.0923035
-0.0920382
-0.0914592
-0.0912168
-0.09069
-0.090449
-0.0899079
-0.0896047
-0.0889726
-0.0885097
-0.0877423
-0.0870562
-0.0861049
-0.152301
-0.144451
-0.138628
-0.132477
-0.128015
-0.123115
-0.119663
-0.11571
-0.113025
-0.109808
-0.107716
-0.10508
-0.103456
-0.101286
-0.100035
-0.0982435
-0.0972884
-0.0958055
-0.0950808
-0.0938473
-0.0932962
-0.0922617
-0.0918351
-0.0909585
-0.0906155
-0.0898664
-0.0895758
-0.0889328
-0.088675
-0.0881183
-0.087883
-0.0873771
-0.0871434
-0.086623
-0.0863282
-0.0857185
-0.085267
-0.0845269
-0.0838594
-0.082944
-0.146291
-0.138751
-0.133159
-0.127251
-0.122965
-0.118259
-0.114943
-0.111148
-0.108568
-0.105479
-0.10347
-0.100938
-0.0993786
-0.0972945
-0.0960926
-0.0943722
-0.0934543
-0.0920303
-0.0913335
-0.090149
-0.0896188
-0.0886255
-0.0882147
-0.0873732
-0.0870425
-0.0863237
-0.0860434
-0.0854271
-0.0851791
-0.0846463
-0.0844215
-0.0839375
-0.0837169
-0.0832174
-0.0829395
-0.0823515
-0.0819225
-0.0812063
-0.0805674
-0.0796764
-0.140225
-0.132996
-0.127635
-0.121971
-0.117863
-0.113351
-0.110173
-0.106535
-0.104063
-0.101101
-0.0991756
-0.0967483
-0.0952535
-0.0932552
-0.0921033
-0.0904536
-0.0895737
-0.088208
-0.0875399
-0.0864037
-0.0858949
-0.0849419
-0.0845473
-0.08374
-0.0834219
-0.0827326
-0.0824626
-0.0818726
-0.0816337
-0.0811252
-0.0809091
-0.0804487
-0.0802369
-0.0797617
-0.0794938
-0.0789331
-0.0785171
-0.0778332
-0.0772132
-0.0763615
-0.133908
-0.127005
-0.121886
-0.116478
-0.112556
-0.108248
-0.105213
-0.101739
-0.0993789
-0.0965512
-0.0947129
-0.0923956
-0.0909683
-0.0890606
-0.0879604
-0.0863855
-0.0855449
-0.0842411
-0.0836025
-0.0825179
-0.0820314
-0.0811218
-0.0807442
-0.0799738
-0.0796693
-0.0790122
-0.0787539
-0.0781926
-0.0779651
-0.0774827
-0.0772794
-0.0768438
-0.0766483
-0.0761983
-0.075953
-0.0754191
-0.0750347
-0.0743784
-0.0737976
-0.0729644
-0.127547
-0.120971
-0.116094
-0.110943
-0.107206
-0.103103
-0.100212
-0.0969031
-0.0946552
-0.0919617
-0.090211
-0.0880034
-0.0866442
-0.0848266
-0.0837789
-0.0822781
-0.0814775
-0.0802349
-0.0796265
-0.0785926
-0.0781289
-0.0772617
-0.0769015
-0.0761673
-0.0758765
-0.0752508
-0.0750042
-0.0744709
-0.0742541
-0.0737976
-0.0736044
-0.0731943
-0.0730086
-0.072586
-0.0723511
-0.0718493
-0.0714782
-0.0708613
-0.070299
-0.0695182
-0.12095
-0.114715
-0.110091
-0.105206
-0.101664
-0.0977731
-0.095033
-0.0918957
-0.0897647
-0.0872112
-0.0855515
-0.0834588
-0.0821701
-0.0804472
-0.0794536
-0.0780309
-0.0772715
-0.0760936
-0.0755162
-0.0745363
-0.0740959
-0.0732742
-0.0729319
-0.0722366
-0.0719604
-0.0713686
-0.0711349
-0.0706318
-0.0704279
-0.0699993
-0.0698206
-0.0694376
-0.0692705
-0.0688765
-0.0686683
-0.0681982
-0.0678666
-0.0672825
-0.0667742
-0.0660087
-0.114323
-0.108428
-0.104057
-0.0994394
-0.096091
-0.0924132
-0.0898235
-0.0868579
-0.084844
-0.0824303
-0.080862
-0.0788838
-0.0776661
-0.0760371
-0.0750982
-0.073753
-0.0730352
-0.0719212
-0.0713754
-0.0704484
-0.070032
-0.0692547
-0.0689309
-0.0682733
-0.068012
-0.067453
-0.0672322
-0.0667584
-0.0665663
-0.0661647
-0.065997
-0.0656404
-0.0654834
-0.065118
-0.0649198
-0.0644835
-0.064162
-0.0636205
-0.0631222
-0.0624323
-0.107475
-0.101934
-0.0978255
-0.093485
-0.090338
-0.0868813
-0.0844476
-0.0816605
-0.079768
-0.0774998
-0.076026
-0.0741671
-0.0730227
-0.071492
-0.0706094
-0.0693453
-0.0686703
-0.0676235
-0.06711
-0.066239
-0.0658469
-0.0651168
-0.0648117
-0.0641946
-0.0639485
-0.0634247
-0.0632176
-0.062775
-0.0625964
-0.0622236
-0.0620708
-0.0617424
-0.0616038
-0.0612689
-0.0610969
-0.0606954
-0.0604148
-0.059911
-0.0594767
-0.0588067
-0.100611
-0.0954218
-0.0915757
-0.087512
-0.0845661
-0.0813301
-0.0790522
-0.0764431
-0.074672
-0.0725487
-0.0711696
-0.0694293
-0.0683584
-0.0669253
-0.0660994
-0.0649156
-0.0642839
-0.0633033
-0.0628226
-0.0620066
-0.0616394
-0.0609553
-0.0606695
-0.0600915
-0.0598611
-0.0593711
-0.0591776
-0.058765
-0.0585991
-0.0582537
-0.0581129
-0.0578114
-0.0576847
-0.0573789
-0.0572198
-0.0568522
-0.0565841
-0.0561192
-0.0556888
-0.0550924
-0.0935413
-0.0887177
-0.0851428
-0.0813655
-0.0786276
-0.07562
-0.0735031
-0.0710784
-0.0694327
-0.0674596
-0.0661781
-0.064561
-0.0635659
-0.0622342
-0.0614665
-0.0603665
-0.059779
-0.0588678
-0.0584204
-0.0576621
-0.0573201
-0.0566846
-0.0564182
-0.0558816
-0.0556668
-0.0552129
-0.055033
-0.0546523
-0.0544994
-0.054183
-0.0540557
-0.0537825
-0.0536716
-0.0533973
-0.0532602
-0.0529308
-0.0526963
-0.0522764
-0.0518949
-0.0513424
-0.0864688
-0.0820092
-0.0787044
-0.0752126
-0.072682
-0.0699019
-0.0679455
-0.0657044
-0.0641838
-0.0623601
-0.0611761
-0.0596814
-0.0587621
-0.057531
-0.0568218
-0.0558046
-0.0552617
-0.0544189
-0.0540053
-0.0533037
-0.0529873
-0.0523992
-0.0521526
-0.0516563
-0.0514575
-0.0510381
-0.0508721
-0.0505216
-0.0503816
-0.0500925
-0.0499783
-0.0497319
-0.049636
-0.0493924
-0.0492769
-0.0489872
-0.0487897
-0.0484226
-0.0481028
-0.0475998
-0.0792087
-0.0751244
-0.0720983
-0.0689007
-0.0665838
-0.0640383
-0.0622475
-0.0601958
-0.0588039
-0.0571345
-0.0560509
-0.0546828
-0.0538413
-0.0527144
-0.0520649
-0.0511338
-0.0506363
-0.0498647
-0.0494853
-0.048843
-0.0485523
-0.0480141
-0.0477871
-0.0473331
-0.0471498
-0.046767
-0.0466141
-0.0462955
-0.0461673
-0.0459066
-0.0458034
-0.0455844
-0.0454996
-0.0452867
-0.045186
-0.0449359
-0.0447614
-0.0444467
-0.0441588
-0.043732
-0.0719595
-0.0682486
-0.0654996
-0.0625949
-0.0604906
-0.0581784
-0.0565522
-0.0546887
-0.0534251
-0.051909
-0.0509254
-0.0496828
-0.048919
-0.0478953
-0.0473058
-0.0464597
-0.046008
-0.0453065
-0.0449618
-0.0443777
-0.0441133
-0.0436236
-0.0434168
-0.0430038
-0.0428367
-0.0424888
-0.0423496
-0.042061
-0.0419453
-0.0417113
-0.0416205
-0.0414271
-0.0413573
-0.0411731
-0.0410954
-0.0408822
-0.0407479
-0.0404802
-0.0402577
-0.0398743
-0.0645399
-0.0612129
-0.0587489
-0.0561451
-0.0542592
-0.052187
-0.0507299
-0.0490601
-0.0479281
-0.0465698
-0.0456887
-0.0445755
-0.0438912
-0.0429741
-0.0424457
-0.0416876
-0.0412823
-0.0406537
-0.0403438
-0.0398202
-0.039582
-0.039143
-0.0389561
-0.038586
-0.0384344
-0.0381232
-0.0379965
-0.0377396
-0.0376343
-0.0374278
-0.0373453
-0.0371773
-0.0371137
-0.036957
-0.0368856
-0.0367071
-0.0365833
-0.0363639
-0.0361598
-0.0358605
-0.0571455
-0.0541998
-0.0520188
-0.0497139
-0.048045
-0.046211
-0.0449218
-0.0434442
-0.042443
-0.041241
-0.040462
-0.039477
-0.038872
-0.0380603
-0.0375931
-0.0369217
-0.0365632
-0.0360062
-0.0357319
-0.0352676
-0.0350563
-0.0346668
-0.0345006
-0.0341721
-0.0340368
-0.0337607
-0.0336476
-0.0334204
-0.0333269
-0.0331459
-0.0330744
-0.0329297
-0.0328786
-0.0327465
-0.0326941
-0.0325462
-0.0324559
-0.0322763
-0.0321288
-0.0318815
-0.0495986
-0.0470437
-0.0451526
-0.0431541
-0.0417076
-0.0401177
-0.0390006
-0.0377201
-0.0368528
-0.0358113
-0.0351366
-0.0342832
-0.0337591
-0.0330559
-0.0326508
-0.032069
-0.0317577
-0.0312748
-0.0310359
-0.0306333
-0.0304485
-0.0301106
-0.0299643
-0.0296795
-0.0295596
-0.0293207
-0.0292198
-0.0290242
-0.0289401
-0.0287863
-0.0287213
-0.0286011
-0.0285535
-0.0284471
-0.0283973
-0.0282817
-0.028199
-0.0280672
-0.0279413
-0.027788
-0.0420913
-0.039924
-0.0383205
-0.0366257
-0.0353995
-0.0340516
-0.0331052
-0.0320198
-0.0312853
-0.0304028
-0.0298316
-0.0291084
-0.0286649
-0.0280687
-0.0277258
-0.0272322
-0.0269685
-0.0265584
-0.0263557
-0.0260133
-0.0258561
-0.0255685
-0.0254435
-0.0252007
-0.0250977
-0.0248941
-0.024807
-0.0246411
-0.0245688
-0.0244397
-0.0243851
-0.0242866
-0.0242497
-0.0241656
-0.0241317
-0.0240436
-0.0239897
-0.023895
-0.0238194
-0.0237168
-0.0344494
-0.0326783
-0.0313687
-0.0299844
-0.0289834
-0.027883
-0.0271107
-0.0262249
-0.025626
-0.0249061
-0.0244405
-0.0238507
-0.023489
-0.0230027
-0.0227227
-0.0223199
-0.022104
-0.0217691
-0.0216023
-0.0213225
-0.0211921
-0.0209569
-0.0208521
-0.0206537
-0.0205663
-0.0204004
-0.0203257
-0.0201918
-0.020129
-0.0200274
-0.0199793
-0.0199057
-0.0198727
-0.0198148
-0.0197851
-0.0197302
-0.0196874
-0.0196408
-0.0195927
-0.0195758
-0.0268618
-0.0254829
-0.0244641
-0.0233871
-0.022609
-0.0217533
-0.0211536
-0.0204651
-0.0200005
-0.0194412
-0.0190803
-0.0186221
-0.018342
-0.0179638
-0.0177469
-0.0174332
-0.0172655
-0.0170042
-0.0168742
-0.0166554
-0.0165532
-0.0163688
-0.016286
-0.0161301
-0.0160603
-0.0159303
-0.0158702
-0.0157662
-0.0157161
-0.0156392
-0.0156024
-0.0155503
-0.0155287
-0.0154927
-0.0154791
-0.0154513
-0.0154364
-0.0154253
-0.0154227
-0.0154503
-0.019158
-0.018179
-0.0174567
-0.0166929
-0.0161419
-0.0155358
-0.0151117
-0.0146246
-0.0142965
-0.0139012
-0.0136467
-0.013323
-0.0131254
-0.0128582
-0.0127046
-0.0124826
-0.012363
-0.0121777
-0.0120839
-0.0119284
-0.0118534
-0.0117221
-0.0116599
-0.0115491
-0.0114954
-0.0114036
-0.0113565
-0.0112852
-0.0112456
-0.0111967
-0.0111679
-0.0111412
-0.0111258
-0.0111166
-0.0111106
-0.0111162
-0.0111167
-0.01115
-0.0111766
-0.0112695
-0.011523
-0.0109391
-0.0105098
-0.0100555
-0.00972891
-0.00936914
-0.00911869
-0.00883021
-0.00863733
-0.00840364
-0.00825458
-0.00806332
-0.00794769
-0.00778941
-0.00769926
-0.00756702
-0.0074962
-0.00738493
-0.00732849
-0.00723434
-0.00718807
-0.007108
-0.00706841
-0.00700055
-0.00696534
-0.00690977
-0.00687853
-0.00683743
-0.00681199
-0.00678819
-0.00677239
-0.00676742
-0.00676521
-0.00677818
-0.00678973
-0.00682181
-0.00684984
-0.00691542
-0.0069814
-0.00710866
-0.0037904
-0.00360831
-0.00347677
-0.00333721
-0.00323866
-0.00312954
-0.00305536
-0.00296907
-0.00291321
-0.00284421
-0.00280182
-0.00274569
-0.00271279
-0.00266593
-0.00263936
-0.00259928
-0.00257679
-0.00254197
-0.00252197
-0.00249156
-0.00247277
-0.00244629
-0.00242775
-0.00240537
-0.00238683
-0.00237014
-0.00235266
-0.00234479
-0.00233095
-0.00233557
-0.0023293
-0.0023498
-0.00235572
-0.00239485
-0.00241624
-0.00247934
-0.00252375
-0.00262703
-0.0027185
-0.00289184
0.00385902
0.00364471
0.00348251
0.00331172
0.00318533
0.00304743
0.00294761
0.00283482
0.00275527
0.00266229
0.00259907
0.0025225
0.00247322
0.0024109
0.0023739
0.00232401
0.00229762
0.00225816
0.00224063
0.00220946
0.00219916
0.00217422
0.00216964
0.00214878
0.00214809
0.00212833
0.00212894
0.0021063
0.00210475
0.00207479
0.00206673
0.00202445
0.00200415
0.00194358
0.00190433
0.00181698
0.00174689
0.00161679
0.00149197
0.00129577
0.0115874
0.010971
0.0105109
0.0100253
0.00967097
0.00928242
0.00900643
0.00869151
0.00847504
0.00821745
0.00804766
0.00783601
0.00770407
0.00753036
0.00742979
0.00728774
0.00721298
0.00709702
0.00704296
0.00694794
0.00690998
0.00683128
0.00680535
0.00673874
0.00672097
0.00666203
0.00664825
0.00659218
0.00657816
0.00651983
0.00650112
0.00643405
0.00640448
0.00631969
0.00627016
0.00615626
0.006072
0.00591289
0.00577077
0.00554069
0.0192182
0.0182059
0.0174526
0.0166571
0.0160783
0.0154432
0.0149936
0.01448
0.0141285
0.0137093
0.0134342
0.0130901
0.0128763
0.0125936
0.0124296
0.0121978
0.0120743
0.0118841
0.0117926
0.0116361
0.0115689
0.0114389
0.0113896
0.0112798
0.0112424
0.011147
0.0111158
0.0110292
0.0109992
0.0109157
0.0108823
0.010794
0.0107502
0.0106455
0.0105797
0.0104449
0.0103387
0.0101585
0.00998895
0.00974472
0.0269092
0.0254963
0.0244464
0.0233375
0.0225317
0.021647
0.0210221
0.0203073
0.0198196
0.0192365
0.0188554
0.0183769
0.0180809
0.0176873
0.0174601
0.0171365
0.0169648
0.0166985
0.0165705
0.0163504
0.0162556
0.016072
0.0160012
0.0158458
0.0157911
0.0156566
0.0156108
0.015491
0.0154481
0.0153366
0.0152918
0.0151798
0.015126
0.0149992
0.0149227
0.0147654
0.0146468
0.0144455
0.0142656
0.0140001
0.0344887
0.0326821
0.0313407
0.0299238
0.0288949
0.0277652
0.0269679
0.0260557
0.0254339
0.0246902
0.0242046
0.0235946
0.0232172
0.0227154
0.0224254
0.0220125
0.0217925
0.0214525
0.0212874
0.0210061
0.0208824
0.0206477
0.0205537
0.0203554
0.0202811
0.0201105
0.0200473
0.0198973
0.0198387
0.0197026
0.0196437
0.0195113
0.0194446
0.0192994
0.0192093
0.0190332
0.0188977
0.0186783
0.0184807
0.0182019
0.0421096
0.0399057
0.0382702
0.0365425
0.0352887
0.0339116
0.0329406
0.031829
0.0310723
0.0301663
0.0295757
0.0288324
0.0283736
0.027762
0.0274092
0.0269055
0.0266377
0.0262223
0.026021
0.0256768
0.0255255
0.0252378
0.0251226
0.0248791
0.0247877
0.0245785
0.0245008
0.0243182
0.0242466
0.0240833
0.024013
0.0238579
0.0237805
0.0236146
0.0235121
0.0233148
0.0231613
0.0229205
0.0226984
0.0224081
0.0496052
0.0470117
0.0450878
0.0430552
0.0415808
0.0399613
0.0388197
0.0375129
0.0366236
0.0355588
0.0348649
0.0339915
0.0334524
0.0327337
0.0323189
0.0317269
0.0314116
0.0309232
0.0306853
0.0302807
0.030101
0.0297629
0.0296249
0.0293391
0.0292286
0.0289839
0.0288895
0.0286774
0.028591
0.0284039
0.0283207
0.0281463
0.028058
0.0278748
0.0277615
0.0275464
0.0273805
0.0271218
0.0268889
0.0265806
0.0571238
0.0541379
0.0519238
0.0495845
0.047888
0.0460245
0.0447115
0.043208
0.0421855
0.0409606
0.0401631
0.0391584
0.038539
0.0377119
0.0372353
0.0365537
0.0361912
0.0356285
0.035355
0.0348884
0.0346816
0.0342914
0.0341324
0.0338024
0.0336751
0.0333928
0.0332841
0.0330404
0.0329417
0.0327286
0.0326347
0.0324388
0.0323407
0.0321382
0.0320133
0.0317786
0.0315955
0.0313176
0.0310623
0.0307424
0.0645036
0.0611338
0.0586356
0.0559961
0.0540824
0.0519801
0.0504993
0.0488034
0.0476505
0.0462692
0.0453701
0.0442372
0.0435388
0.0426063
0.0420689
0.0413003
0.0408912
0.0402567
0.0399474
0.0394214
0.0391869
0.0387472
0.0385662
0.0381947
0.0380492
0.0377322
0.0376079
0.0373356
0.0372234
0.0369873
0.0368823
0.036668
0.0365613
0.0363423
0.0362093
0.0359569
0.0357632
0.0354657
0.0351974
0.0348531
0.071888
0.0681327
0.0653494
0.0624085
0.0602767
0.0579346
0.0562855
0.0543964
0.0531128
0.0515742
0.0505735
0.0493116
0.0485344
0.0474955
0.0468973
0.0460408
0.0455854
0.0448781
0.0445338
0.0439471
0.0436861
0.0431955
0.042994
0.0425795
0.0424177
0.0420644
0.0419264
0.0416239
0.0415002
0.0412396
0.0411251
0.0408909
0.040776
0.0405389
0.0403962
0.0401247
0.0399158
0.0395971
0.0393073
0.0389398
0.0791207
0.074989
0.0719272
0.068692
0.0663473
0.0637712
0.0619576
0.05988
0.0584686
0.0567767
0.0556763
0.0542889
0.0534344
0.0522921
0.0516344
0.0506927
0.0501918
0.0494141
0.0490351
0.0483902
0.0481026
0.0475635
0.047341
0.0468861
0.0467072
0.0463201
0.0461679
0.0458376
0.045702
0.0454192
0.0452955
0.0450434
0.0449219
0.0446684
0.044519
0.0442288
0.0440089
0.0436668
0.0433586
0.0429583
0.0863398
0.0818312
0.0784908
0.0749609
0.072403
0.0695925
0.0676143
0.0653479
0.0638086
0.061963
0.0607633
0.0592497
0.0583181
0.0570719
0.0563549
0.0553272
0.0547812
0.0539324
0.0535193
0.0528152
0.0525018
0.0519132
0.051671
0.0511744
0.0509797
0.0505577
0.0503927
0.0500336
0.0498874
0.0495816
0.0494497
0.0491789
0.049051
0.0487798
0.0486226
0.0483119
0.0480776
0.04771
0.0473774
0.0469425
0.0933948
0.0885191
0.084907
0.0810901
0.0783246
0.0752858
0.0731471
0.0706968
0.0690328
0.0670377
0.0657408
0.0641048
0.0630978
0.0617507
0.0609758
0.0598649
0.0592747
0.0583573
0.0579106
0.0571498
0.0568107
0.0561751
0.0559129
0.055377
0.0551664
0.0547118
0.0545336
0.0541479
0.0539912
0.0536641
0.0535245
0.0532365
0.0531031
0.0528153
0.0526522
0.052321
0.0520744
0.0516789
0.051323
0.0508464
0.100418
0.0951761
0.091293
0.0871895
0.0842166
0.0809498
0.078651
0.0760169
0.0742286
0.0720839
0.0706903
0.0689315
0.0678495
0.0664013
0.0655686
0.0643742
0.0637401
0.0627536
0.0622738
0.0614557
0.0610916
0.0604081
0.0601268
0.0595508
0.0593253
0.0588371
0.0586469
0.0582337
0.0580674
0.0577184
0.0575718
0.0572657
0.0571275
0.0568217
0.0566521
0.0562989
0.0560378
0.0556129
0.0552295
0.0547098
0.107266
0.101668
0.097521
0.093139
0.0899645
0.0864763
0.0840216
0.0812092
0.0792997
0.0770098
0.075522
0.0736442
0.0724891
0.0709429
0.070054
0.0687789
0.0681019
0.0670488
0.0665366
0.0656634
0.0652747
0.0645457
0.0642454
0.0636315
0.063391
0.0628714
0.0626692
0.0622304
0.0620547
0.0616854
0.0615322
0.0612095
0.0610668
0.0607445
0.0605692
0.0601943
0.0599201
0.0594643
0.0590545
0.0584863
0.114065
0.108112
0.103703
0.0990439
0.0956688
0.0919599
0.0893502
0.0863598
0.0843299
0.0818953
0.0803136
0.0783171
0.0770892
0.0754451
0.0745002
0.0731442
0.0724247
0.0713048
0.0707606
0.069832
0.0694193
0.068644
0.0683256
0.0676731
0.0674185
0.0668667
0.0666533
0.0661882
0.0660038
0.0656134
0.0654541
0.0651138
0.0649672
0.0646269
0.0644457
0.064048
0.0637592
0.0632719
0.062833
0.0622173
0.120676
0.11438
0.109717
0.104789
0.101219
0.0972968
0.0945367
0.0913741
0.0892272
0.0866523
0.0849795
0.082868
0.0815695
0.0798307
0.0788315
0.0773974
0.0766365
0.0754522
0.0748767
0.0738951
0.0734587
0.0726396
0.072303
0.0716141
0.0713453
0.0707635
0.0705388
0.0700494
0.0698562
0.0694467
0.0692813
0.0689252
0.0687745
0.0684179
0.0682315
0.0678119
0.0675101
0.066991
0.0665253
0.0658584
0.127222
0.120585
0.11567
0.110475
0.106713
0.102578
0.0996682
0.0963344
0.0940714
0.091357
0.0895938
0.0873679
0.0859991
0.084166
0.0831127
0.0816006
0.0807988
0.07955
0.0789438
0.0779087
0.0774494
0.0765857
0.0762319
0.0755059
0.0752239
0.0746111
0.0743762
0.0738614
0.0736604
0.0732305
0.0730597
0.0726865
0.0725321
0.072158
0.0719658
0.0715236
0.0712075
0.0706569
0.0701622
0.0694482
0.13357
0.126604
0.121445
0.115993
0.112043
0.107703
0.104649
0.10115
0.0987747
0.0959257
0.0940748
0.0917384
0.0903016
0.0883774
0.0872718
0.0856846
0.0848429
0.0835321
0.0828958
0.0818097
0.0813276
0.0804218
0.0800507
0.0792898
0.0789944
0.0783529
0.0781074
0.0775694
0.0773602
0.0769119
0.0767354
0.076347
0.0761888
0.0757988
0.0756015
0.0751379
0.0748092
0.074228
0.0737079
0.072946
0.139836
0.132544
0.127144
0.121437
0.117303
0.11276
0.109563
0.1059
0.103413
0.100431
0.0984931
0.096047
0.0945427
0.0925279
0.0913704
0.0897083
0.0888272
0.0874545
0.0867887
0.0856512
0.0851472
0.0841987
0.0838112
0.0830146
0.0827069
0.0820358
0.0817808
0.0812185
0.0810021
0.0805344
0.0803529
0.0799481
0.0797863
0.0793794
0.0791765
0.078691
0.0783485
0.0777372
0.0771898
0.0763848
0.145893
0.138288
0.132656
0.126704
0.122392
0.117654
0.114319
0.110498
0.107904
0.104793
0.102771
0.100219
0.0986497
0.0965478
0.09534
0.093606
0.0926865
0.0912545
0.0905595
0.0893732
0.0888472
0.0878585
0.0874544
0.0866246
0.086304
0.0856056
0.0853405
0.0847563
0.0845322
0.084047
0.0838599
0.0834408
0.083275
0.0828532
0.0826447
0.0821393
0.0817842
0.0811446
0.0805735
0.0797286
0.151853
0.14394
0.138079
0.131885
0.127397
0.122466
0.118995
0.115018
0.112318
0.10908
0.106975
0.104319
0.102685
0.100497
0.0992391
0.0974336
0.0964762
0.0949849
0.0942617
0.0930262
0.0924792
0.0914494
0.0910298
0.0901658
0.0898337
0.089107
0.0888332
0.088226
0.0879953
0.0874917
0.0873003
0.0868657
0.0866967
0.0862592
0.0860456
0.0855197
0.0851521
0.0844847
0.0838895
0.0830077
0.157596
0.149387
0.143306
0.136881
0.132224
0.127108
0.123506
0.11938
0.116577
0.113217
0.111033
0.108276
0.10658
0.104308
0.103003
0.101129
0.100134
0.0985864
0.0978351
0.0965529
0.0959847
0.0949166
0.0944809
0.0935854
0.0932408
0.0924884
0.092205
0.0915772
0.0913392
0.0908197
0.0906228
0.0901755
0.0900025
0.0895519
0.0893328
0.088789
0.0884091
0.0877163
0.0870981
0.0861838
0.163225
0.154726
0.14843
0.141777
0.136954
0.131656
0.127926
0.123652
0.12075
0.117269
0.115006
0.11215