/*--------------------------------*- C++ -*----------------------------------*\
| =========                 |                                                 |
| \\      /  F ield         | foam-extend: Open Source CFD                    |
|  \\    /   O peration     | Version:  3.0                                   |
|   \\  /    A nd           | Web:         http://www.extend-project.de       |
|    \\/     M anipulation  |                                                 |
\*---------------------------------------------------------------------------*/
FoamFile
{
    version     2.0;
    format      ascii;
    class       volScalarField;
    location    "1";
    object      p;
}
// * * * * * * * * * * * * * * * * * * * * * * * * * * * * * * * * * * * * * //

dimensions      [0 0 0 0 0 0 0];

internalField   nonuniform List<scalar> 
7680
(
-0.206438
-0.193976
-0.184923
-0.175478
-0.168874
-0.161793
-0.157143
-0.152011
-0.149
-0.145538
-0.143955
-0.14198
-0.141688
-0.141077
-0.141983
-0.142651
-0.144679
-0.146547
-0.149618
-0.152597
-0.156612
-0.160585
-0.165411
-0.170221
-0.175689
-0.181138
-0.187045
-0.192898
-0.199019
-0.205015
-0.211115
-0.216979
-0.222828
-0.228277
-0.233657
-0.238386
-0.243075
-0.246706
-0.250399
-0.252235
-0.206276
-0.193822
-0.184797
-0.175364
-0.168779
-0.161713
-0.157077
-0.151953
-0.14895
-0.145492
-0.143915
-0.141942
-0.141654
-0.141045
-0.141953
-0.142622
-0.14465
-0.146518
-0.149588
-0.152566
-0.156577
-0.160548
-0.16537
-0.170176
-0.175639
-0.181082
-0.186982
-0.192827
-0.198937
-0.204923
-0.211008
-0.216857
-0.222682
-0.228108
-0.233446
-0.238143
-0.242753
-0.24636
-0.249924
-0.251948
-0.205821
-0.193396
-0.184395
-0.17499
-0.168424
-0.161374
-0.156749
-0.151638
-0.148643
-0.145196
-0.143625
-0.141661
-0.141377
-0.140774
-0.141685
-0.142357
-0.144385
-0.146254
-0.149322
-0.152298
-0.156305
-0.160271
-0.165086
-0.169884
-0.175337
-0.18077
-0.186657
-0.192487
-0.198581
-0.204547
-0.210609
-0.216434
-0.222227
-0.227623
-0.232915
-0.237581
-0.242128
-0.24574
-0.249267
-0.251523
-0.205254
-0.192865
-0.183893
-0.174515
-0.167971
-0.160946
-0.156339
-0.151247
-0.148264
-0.14483
-0.143266
-0.141309
-0.141028
-0.140428
-0.141336
-0.142006
-0.144029
-0.145892
-0.14895
-0.151916
-0.15591
-0.159862
-0.164659
-0.16944
-0.174872
-0.180282
-0.186144
-0.191949
-0.198011
-0.203948
-0.209971
-0.215762
-0.221507
-0.226865
-0.232097
-0.236733
-0.241219
-0.244848
-0.248367
-0.250801
-0.204362
-0.192025
-0.183095
-0.173762
-0.167251
-0.160259
-0.155675
-0.150607
-0.14764
-0.144223
-0.142669
-0.140724
-0.140448
-0.139854
-0.140762
-0.141433
-0.143451
-0.145309
-0.148357
-0.151313
-0.155292
-0.159229
-0.164007
-0.168767
-0.174174
-0.179559
-0.185391
-0.191165
-0.197193
-0.203095
-0.209078
-0.214831
-0.22053
-0.225851
-0.231037
-0.235649
-0.240104
-0.243755
-0.247299
-0.249843
-0.203353
-0.191081
-0.182197
-0.172913
-0.166436
-0.159483
-0.154925
-0.149886
-0.146936
-0.143538
-0.141993
-0.140059
-0.139785
-0.139194
-0.140098
-0.140764
-0.14277
-0.144618
-0.147648
-0.150586
-0.154541
-0.158453
-0.163201
-0.167931
-0.173303
-0.178653
-0.184444
-0.190178
-0.19616
-0.202019
-0.207951
-0.21366
-0.219306
-0.224588
-0.229725
-0.234316
-0.238744
-0.242413
-0.245978
-0.248583
-0.202023
-0.189833
-0.18101
-0.17179
-0.165359
-0.158454
-0.153928
-0.148924
-0.145996
-0.142623
-0.141091
-0.139173
-0.138903
-0.13832
-0.13922
-0.139886
-0.141881
-0.143719
-0.146731
-0.149652
-0.153582
-0.157469
-0.162186
-0.166883
-0.172217
-0.177528
-0.183276
-0.188967
-0.194901
-0.200714
-0.206596
-0.212259
-0.217856
-0.223101
-0.228198
-0.232768
-0.237178
-0.240856
-0.244439
-0.247071
-0.200575
-0.188476
-0.179719
-0.170567
-0.164184
-0.157331
-0.15284
-0.147875
-0.14497
-0.141623
-0.140103
-0.138198
-0.137931
-0.137351
-0.138244
-0.138902
-0.140881
-0.142703
-0.145689
-0.148585
-0.152481
-0.156335
-0.16101
-0.165667
-0.170953
-0.176217
-0.181911
-0.187551
-0.193428
-0.199188
-0.205012
-0.210625
-0.216168
-0.221371
-0.226425
-0.230972
-0.235361
-0.239038
-0.242626
-0.245268
-0.198815
-0.186825
-0.178147
-0.169079
-0.162754
-0.155965
-0.151516
-0.146596
-0.143719
-0.140404
-0.1389
-0.137014
-0.136752
-0.136179
-0.137067
-0.137722
-0.139685
-0.141492
-0.144454
-0.147325
-0.151187
-0.155006
-0.159639
-0.164253
-0.169489
-0.174704
-0.180343
-0.185929
-0.191748
-0.197452
-0.203219
-0.208779
-0.21427
-0.219429
-0.224442
-0.228962
-0.233327
-0.236995
-0.240577
-0.243215
-0.196932
-0.18506
-0.176466
-0.167486
-0.161223
-0.154501
-0.150095
-0.145225
-0.142375
-0.139093
-0.137603
-0.135735
-0.135474
-0.134906
-0.135783
-0.13643
-0.138371
-0.140158
-0.143087
-0.145926
-0.149745
-0.153523
-0.158104
-0.162667
-0.167844
-0.173001
-0.178577
-0.184101
-0.189854
-0.195497
-0.201198
-0.206701
-0.212133
-0.217246
-0.222212
-0.226698
-0.231034
-0.234684
-0.238251
-0.240878
-0.19475
-0.183013
-0.174517
-0.16564
-0.159449
-0.152803
-0.148449
-0.143634
-0.140818
-0.137575
-0.136103
-0.134259
-0.134002
-0.133443
-0.134312
-0.134953
-0.136874
-0.138642
-0.141539
-0.144347
-0.148124
-0.151858
-0.156387
-0.160898
-0.166015
-0.171112
-0.176622
-0.182082
-0.187767
-0.193345
-0.19898
-0.204423
-0.209795
-0.214856
-0.219773
-0.22422
-0.228521
-0.232145
-0.235689
-0.238299
-0.192442
-0.180847
-0.172454
-0.163684
-0.157568
-0.151003
-0.146702
-0.141946
-0.139164
-0.135959
-0.134505
-0.132682
-0.132427
-0.131872
-0.132728
-0.13336
-0.135254
-0.136998
-0.139855
-0.142625
-0.146351
-0.150036
-0.154503
-0.158954
-0.164002
-0.169032
-0.174468
-0.179857
-0.185466
-0.190973
-0.196535
-0.201912
-0.207218
-0.212221
-0.217084
-0.221487
-0.225745
-0.229337
-0.232852
-0.235439
-0.189847
-0.178412
-0.170135
-0.161486
-0.155455
-0.148981
-0.144739
-0.14005
-0.137307
-0.134148
-0.132715
-0.130918
-0.130669
-0.130123
-0.130969
-0.131593
-0.133463
-0.135184
-0.138003
-0.140736
-0.144411
-0.148045
-0.152451
-0.15684
-0.161818
-0.166779
-0.172139
-0.177453
-0.182985
-0.188417
-0.193904
-0.199209
-0.204447
-0.209387
-0.214191
-0.218542
-0.222754
-0.226307
-0.229785
-0.232345
-0.187122
-0.175854
-0.167699
-0.159176
-0.153232
-0.146853
-0.142673
-0.138052
-0.135349
-0.132235
-0.130822
-0.12905
-0.128803
-0.128263
-0.129094
-0.129707
-0.131546
-0.133238
-0.136012
-0.138701
-0.142317
-0.145894
-0.15023
-0.154551
-0.15945
-0.164334
-0.16961
-0.174844
-0.18029
-0.185641
-0.191045
-0.196274
-0.201435
-0.206308
-0.211046
-0.215341
-0.219499
-0.223009
-0.226445
-0.228974
-0.184127
-0.173042
-0.16502
-0.156636
-0.150789
-0.144515
-0.140404
-0.135859
-0.133201
-0.130139
-0.12875
-0.127008
-0.126766
-0.126236
-0.127055
-0.127659
-0.129469
-0.131135
-0.133865
-0.13651
-0.140068
-0.143587
-0.147853
-0.152103
-0.156923
-0.161727
-0.166917
-0.172066
-0.177425
-0.18269
-0.188009
-0.193156
-0.198238
-0.203037
-0.207704
-0.211937
-0.216035
-0.219496
-0.222884
-0.225378
-0.180998
-0.170105
-0.162221
-0.153981
-0.148235
-0.142069
-0.138029
-0.133561
-0.130949
-0.127938
-0.126572
-0.124859
-0.124619
-0.124096
-0.124898
-0.125489
-0.127265
-0.128899
-0.131577
-0.134174
-0.137666
-0.14112
-0.145307
-0.149481
-0.154212
-0.15893
-0.164027
-0.169085
-0.174347
-0.179522
-0.184747
-0.189807
-0.194802
-0.199522
-0.204113
-0.208278
-0.212311
-0.215718
-0.219055
-0.221511
-0.177613
-0.166927
-0.159193
-0.15111
-0.145473
-0.139424
-0.135461
-0.13108
-0.128517
-0.125565
-0.124226
-0.122546
-0.122312
-0.1218
-0.122588
-0.123168
-0.124912
-0.126515
-0.129144
-0.131692
-0.135118
-0.138507
-0.142616
-0.14671
-0.151353
-0.155981
-0.160982
-0.165945
-0.17111
-0.176188
-0.181317
-0.186284
-0.191189
-0.195824
-0.200333
-0.204425
-0.208388
-0.211736
-0.215015
-0.21743
-0.174094
-0.163623
-0.156044
-0.148123
-0.142599
-0.136671
-0.132787
-0.128493
-0.125981
-0.123087
-0.121773
-0.120125
-0.119894
-0.11939
-0.12016
-0.120726
-0.122432
-0.124
-0.126572
-0.129066
-0.132419
-0.135737
-0.139759
-0.143768
-0.148313
-0.152847
-0.157743
-0.162605
-0.167664
-0.17264
-0.177665
-0.182534
-0.187341
-0.191886
-0.196307
-0.200321
-0.204209
-0.207495
-0.210713
-0.213083
-0.170334
-0.160092
-0.15268
-0.144932
-0.13953
-0.133731
-0.129933
-0.125733
-0.123277
-0.120447
-0.119163
-0.117552
-0.117327
-0.116835
-0.117589
-0.118143
-0.119812
-0.121347
-0.123864
-0.126303
-0.129585
-0.13283
-0.136765
-0.140687
-0.145134
-0.149569
-0.15436
-0.159116
-0.164066
-0.168935
-0.173853
-0.178619
-0.183324
-0.187774
-0.192103
-0.196033
-0.199841
-0.203059
-0.206211
-0.208534
-0.166441
-0.156436
-0.149195
-0.141626
-0.136348
-0.130683
-0.126973
-0.122869
-0.120469
-0.117703
-0.116447
-0.114872
-0.11465
-0.114168
-0.114901
-0.115441
-0.117068
-0.118565
-0.12102
-0.123401
-0.126602
-0.12977
-0.13361
-0.137439
-0.141779
-0.14611
-0.150787
-0.155433
-0.160266
-0.165023
-0.169826
-0.174483
-0.17908
-0.183429
-0.18766
-0.191503
-0.195225
-0.198373
-0.201456
-0.203727
-0.162322
-0.152568
-0.145508
-0.138129
-0.132984
-0.127461
-0.123844
-0.119843
-0.117504
-0.114808
-0.113584
-0.112049
-0.111833
-0.111364
-0.112081
-0.112607
-0.114195
-0.115654
-0.118049
-0.12037
-0.123493
-0.126582
-0.130327
-0.13406
-0.138293
-0.142516
-0.147078
-0.151609
-0.156323
-0.160962
-0.165648
-0.17019
-0.174675
-0.178918
-0.183047
-0.186797
-0.19043
-0.193502
-0.196512
-0.19873
-0.158072
-0.148576
-0.141703
-0.134519
-0.129509
-0.124132
-0.12061
-0.116715
-0.114436
-0.11181
-0.110618
-0.109122
-0.10891
-0.108451
-0.109146
-0.109657
-0.1112
-0.112618
-0.114947
-0.117204
-0.120241
-0.123246
-0.126889
-0.130522
-0.13464
-0.138749
-0.143188
-0.147598
-0.152186
-0.156702
-0.161263
-0.165686
-0.170053
-0.174185
-0.178206
-0.181859
-0.185398
-0.188392
-0.191324
-0.193487
-0.153611
-0.144386
-0.13771
-0.130731
-0.125864
-0.120641
-0.11722
-0.113436
-0.111223
-0.108673
-0.107515
-0.106062
-0.105857
-0.105412
-0.106088
-0.106585
-0.108084
-0.109463
-0.111726
-0.11392
-0.116871
-0.119791
-0.12333
-0.12686
-0.130862
-0.134855
-0.139169
-0.143454
-0.147912
-0.152302
-0.156735
-0.161034
-0.165278
-0.169295
-0.173204
-0.176756
-0.180197
-0.183108
-0.18596
-0.188063
-0.149023
-0.140077
-0.133601
-0.126832
-0.122112
-0.117046
-0.113727
-0.110057
-0.10791
-0.105435
-0.104311
-0.102901
-0.1027
-0.102267
-0.102921
-0.1034
-0.104852
-0.106188
-0.10838
-0.110505
-0.113364
-0.116194
-0.119625
-0.123046
-0.126925
-0.130797
-0.134978
-0.139133
-0.143456
-0.147712
-0.152011
-0.156181
-0.160298
-0.164195
-0.167987
-0.171433
-0.174772
-0.177597
-0.180365
-0.182407
-0.14424
-0.135583
-0.129318
-0.122769
-0.118202
-0.1133
-0.11009
-0.106539
-0.104462
-0.102068
-0.100981
-0.0996172
-0.0994237
-0.0990051
-0.0996384
-0.100103
-0.101509
-0.102801
-0.104923
-0.10698
-0.109747
-0.112486
-0.115806
-0.119117
-0.122871
-0.126618
-0.130665
-0.134687
-0.138871
-0.142991
-0.147152
-0.151188
-0.155174
-0.158946
-0.162617
-0.165954
-0.169187
-0.171923
-0.174604
-0.176582
-0.139334
-0.130975
-0.124924
-0.118599
-0.114189
-0.109455
-0.106354
-0.102924
-0.100918
-0.0986056
-0.0975545
-0.0962364
-0.096048
-0.0956423
-0.0962521
-0.0966992
-0.0980546
-0.099301
-0.101348
-0.103332
-0.106003
-0.108646
-0.111849
-0.115046
-0.118669
-0.122286
-0.126193
-0.130075
-0.134115
-0.138093
-0.142111
-0.146008
-0.149857
-0.153501
-0.157047
-0.16027
-0.163393
-0.166037
-0.168627
-0.17054
-0.134248
-0.126196
-0.120369
-0.114278
-0.11003
-0.105471
-0.102485
-0.0991823
-0.0972506
-0.0950237
-0.0940121
-0.092743
-0.0925623
-0.092172
-0.09276
-0.093191
-0.0944973
-0.0956981
-0.0976702
-0.0995821
-0.102155
-0.104701
-0.107787
-0.110866
-0.114357
-0.117842
-0.121605
-0.125346
-0.129238
-0.13307
-0.136941
-0.140697
-0.144405
-0.147917
-0.151333
-0.15444
-0.15745
-0.159998
-0.162495
-0.164338
-0.129046
-0.121309
-0.11571
-0.109856
-0.105774
-0.101393
-0.0985229
-0.0953488
-0.0934919
-0.0913513
-0.0903782
-0.0891578
-0.0889829
-0.0886067
-0.0891703
-0.0895831
-0.0908366
-0.091989
-0.0938822
-0.0957179
-0.0981879
-0.100633
-0.103597
-0.106555
-0.109907
-0.113255
-0.11687
-0.120463
-0.124202
-0.127885
-0.131604
-0.135213
-0.138776
-0.142151
-0.145434
-0.14842
-0.151313
-0.153763
-0.156164
-0.157938
-0.12368
-0.116267
-0.110903
-0.105295
-0.101385
-0.0971881
-0.0944391
-0.0913985
-0.0896203
-0.08757
-0.0866384
-0.0854697
-0.0853028
-0.0849429
-0.0854835
-0.0858794
-0.0870809
-0.0881854
-0.0899997
-0.0917588
-0.0941258
-0.0964689
-0.0993093
-0.102143
-0.105356
-0.108563
-0.112027
-0.115471
-0.119054
-0.122583
-0.126147
-0.129605
-0.133021
-0.136255
-0.139402
-0.142264
-0.145037
-0.147386
-0.149687
-0.151388
-0.118205
-0.111123
-0.105998
-0.10064
-0.0969047
-0.0928948
-0.0902681
-0.0873629
-0.0856635
-0.0837042
-0.0828135
-0.0816962
-0.0815357
-0.0811909
-0.0817062
-0.0820833
-0.0832298
-0.0842838
-0.0860156
-0.087695
-0.0899547
-0.092192
-0.0949041
-0.0976103
-0.100678
-0.103741
-0.10705
-0.110339
-0.113761
-0.117132
-0.120537
-0.123841
-0.127103
-0.130193
-0.1332
-0.135935
-0.138585
-0.14083
-0.14303
-0.144657
-0.11258
-0.105838
-0.10096
-0.0958596
-0.0923038
-0.0884868
-0.0859869
-0.0832216
-0.0816045
-0.0797398
-0.0788925
-0.0778293
-0.0776773
-0.0773495
-0.0778406
-0.0782001
-0.0792922
-0.080296
-0.0819452
-0.0835442
-0.0856961
-0.0878263
-0.0904087
-0.0929854
-0.0959066
-0.0988233
-0.101974
-0.105106
-0.108364
-0.111574
-0.114816
-0.117962
-0.121069
-0.124012
-0.126875
-0.12948
-0.132004
-0.134143
-0.136239
-0.137788
-0.106856
-0.10046
-0.0958312
-0.0909924
-0.0876188
-0.0839974
-0.0816255
-0.0790018
-0.0774673
-0.0756978
-0.0748934
-0.0738842
-0.0737392
-0.0734275
-0.0738925
-0.0742327
-0.0752677
-0.0762191
-0.0777825
-0.0792986
-0.0813388
-0.0833588
-0.0858075
-0.0882512
-0.0910214
-0.0937878
-0.0967756
-0.0997462
-0.102837
-0.105882
-0.108957
-0.111942
-0.114889
-0.117681
-0.120398
-0.12287
-0.125266
-0.127296
-0.129285
-0.130757
-0.100998
-0.0949549
-0.090583
-0.0860122
-0.0828259
-0.0794053
-0.0771653
-0.0746873
-0.0732384
-0.0715673
-0.0708082
-0.0698553
-0.069719
-0.0694251
-0.069865
-0.0701869
-0.0711652
-0.0720643
-0.0735418
-0.0749743
-0.0769021
-0.0788107
-0.0811244
-0.0834332
-0.0860507
-0.0886644
-0.0914874
-0.0942942
-0.0972143
-0.100091
-0.102997
-0.105818
-0.108603
-0.111241
-0.113809
-0.116145
-0.118409
-0.120327
-0.122208
-0.1236
-0.0950491
-0.0893653
-0.0852532
-0.0809539
-0.077957
-0.0747396
-0.0726327
-0.0703018
-0.0689388
-0.0673669
-0.0666525
-0.0657559
-0.0656273
-0.0653503
-0.0657634
-0.0660655
-0.0669849
-0.0678299
-0.0692186
-0.0705652
-0.0723776
-0.0741719
-0.0763472
-0.078518
-0.080979
-0.0834367
-0.0860912
-0.0887307
-0.0914767
-0.0941824
-0.0969153
-0.099568
-0.102188
-0.104669
-0.107085
-0.109283
-0.111412
-0.113218
-0.114988
-0.116298
-0.0889822
-0.0836644
-0.0798176
-0.0757958
-0.0729927
-0.0699831
-0.0680128
-0.0658327
-0.0645584
-0.0630883
-0.0624208
-0.0615825
-0.0614629
-0.0612043
-0.0615915
-0.0618745
-0.0627353
-0.0635262
-0.064826
-0.0660861
-0.0677821
-0.0694611
-0.0714967
-0.0735278
-0.0758307
-0.0781303
-0.0806142
-0.0830839
-0.0856534
-0.0881852
-0.0907425
-0.0932248
-0.0956762
-0.0979988
-0.100259
-0.102316
-0.10431
-0.106
-0.107657
-0.108884
-0.0828353
-0.0778882
-0.0743098
-0.0705686
-0.0679612
-0.0651616
-0.0633288
-0.0613008
-0.0601155
-0.0587479
-0.0581268
-0.0573469
-0.0572354
-0.0569945
-0.0573543
-0.0576173
-0.0584174
-0.0591527
-0.0603612
-0.0615329
-0.0631099
-0.0646711
-0.0665639
-0.0684528
-0.0705943
-0.072733
-0.0750431
-0.07734
-0.0797299
-0.0820848
-0.0844635
-0.0867726
-0.089053
-0.0912138
-0.0933168
-0.0952308
-0.0970859
-0.0986592
-0.100201
-0.101344
-0.0765857
-0.0720155
-0.0687103
-0.0652547
-0.0628469
-0.0602613
-0.0585692
-0.0566964
-0.0556024
-0.0543397
-0.0537669
-0.053047
-0.0529448
-0.0527229
-0.053056
-0.0532994
-0.0540392
-0.0547188
-0.0558357
-0.0569184
-0.0583756
-0.0598181
-0.061567
-0.0633121
-0.0652908
-0.0672666
-0.0694009
-0.071523
-0.0737311
-0.0759068
-0.0781046
-0.0802381
-0.0823452
-0.0843418
-0.0862851
-0.088054
-0.0897685
-0.0912229
-0.0926485
-0.0937054
-0.0702672
-0.0660779
-0.0630486
-0.0598813
-0.0576747
-0.055305
-0.0537543
-0.052038
-0.0510355
-0.0498783
-0.0493535
-0.0486937
-0.0486
-0.0483965
-0.0487018
-0.0489247
-0.0496025
-0.0502252
-0.0512486
-0.0522406
-0.0535758
-0.0548975
-0.0565001
-0.0580992
-0.0599122
-0.0617229
-0.0636787
-0.0656235
-0.067647
-0.0696411
-0.0716554
-0.0736109
-0.0755423
-0.0773726
-0.0791541
-0.080776
-0.0823481
-0.0836821
-0.0849897
-0.0859598
-0.0638616
-0.0600585
-0.0573091
-0.0544345
-0.0524324
-0.050282
-0.0488755
-0.0473183
-0.0464093
-0.0453596
-0.0448842
-0.044286
-0.0442019
-0.0440179
-0.0442958
-0.0444987
-0.0451147
-0.0456804
-0.0466099
-0.0475108
-0.0487233
-0.0499234
-0.0513785
-0.0528303
-0.0544764
-0.0561202
-0.0578959
-0.0596615
-0.0614987
-0.0633091
-0.0651379
-0.0669134
-0.0686671
-0.0703292
-0.071947
-0.07342
-0.0748479
-0.0760598
-0.0772478
-0.0781297
-0.0573989
-0.0539853
-0.051518
-0.0489384
-0.0471421
-0.0452126
-0.0439508
-0.0425537
-0.0417384
-0.0407968
-0.0403705
-0.039834
-0.0397588
-0.0395938
-0.0398434
-0.0400255
-0.0405784
-0.041086
-0.0419202
-0.0427286
-0.0438166
-0.0448934
-0.046199
-0.0475017
-0.0489787
-0.0504537
-0.0520471
-0.0536314
-0.0552801
-0.0569047
-0.058546
-0.0601396
-0.0617136
-0.0632056
-0.0646579
-0.0659805
-0.0672627
-0.0683513
-0.0694185
-0.0702114
-0.0508647
-0.047845
-0.0456633
-0.0433821
-0.0417943
-0.0400885
-0.0389737
-0.0377389
-0.0370191
-0.0361871
-0.0358113
-0.0353376
-0.0352722
-0.035127
-0.0353488
-0.0355106
-0.0360004
-0.03645
-0.0371885
-0.0379039
-0.0388668
-0.0398196
-0.0409749
-0.0421273
-0.0434342
-0.044739
-0.0461487
-0.0475503
-0.0490088
-0.0504462
-0.0518983
-0.0533082
-0.054701
-0.0560212
-0.0573064
-0.0584771
-0.0596121
-0.0605761
-0.0615213
-0.062224
-0.0442857
-0.0416625
-0.039768
-0.037787
-0.0364089
-0.0349279
-0.0339606
-0.0328888
-0.0322645
-0.0315426
-0.031217
-0.0308062
-0.0307501
-0.0306244
-0.0308175
-0.0309584
-0.0313842
-0.0317748
-0.0324165
-0.0330379
-0.0338743
-0.0347017
-0.0357051
-0.0367059
-0.0378408
-0.038974
-0.0401982
-0.0414155
-0.0426822
-0.0439306
-0.0451919
-0.0464166
-0.0476265
-0.0487736
-0.0498904
-0.050908
-0.0518945
-0.0527329
-0.053555
-0.054167
-0.0376509
-0.0354276
-0.033823
-0.0321451
-0.0309787
-0.0297249
-0.0289068
-0.0279998
-0.0274724
-0.0268619
-0.0265875
-0.0262405
-0.0261944
-0.0260889
-0.0262538
-0.026374
-0.0267359
-0.0270676
-0.0276122
-0.0281393
-0.0288487
-0.0295503
-0.030401
-0.0312494
-0.0322115
-0.033172
-0.0342097
-0.0352415
-0.0363152
-0.0373734
-0.0384426
-0.0394809
-0.0405066
-0.0414793
-0.0424264
-0.0432896
-0.0441267
-0.0448384
-0.0455365
-0.0460568
-0.0309841
-0.0291626
-0.0278491
-0.0264755
-0.0255215
-0.0244956
-0.023827
-0.0230853
-0.0226548
-0.0221559
-0.0219326
-0.0216494
-0.0216129
-0.0215273
-0.0216634
-0.0217625
-0.0220596
-0.0223318
-0.0227784
-0.0232104
-0.0237918
-0.0243665
-0.0250635
-0.0257584
-0.0265465
-0.0273331
-0.0281831
-0.0290281
-0.0299076
-0.0307744
-0.0316503
-0.032501
-0.0333415
-0.0341387
-0.0349151
-0.0356231
-0.0363097
-0.0368941
-0.0374674
-0.0378956
-0.0242772
-0.0228599
-0.0218394
-0.0207722
-0.0200323
-0.0192359
-0.0187182
-0.0181431
-0.0178106
-0.0174243
-0.0172528
-0.0170342
-0.0170078
-0.0169427
-0.0170502
-0.0171286
-0.0173611
-0.0175738
-0.0179223
-0.0182591
-0.0187121
-0.0191597
-0.0197024
-0.0202433
-0.0208567
-0.0214688
-0.0221303
-0.0227878
-0.0234723
-0.0241468
-0.0248285
-0.0254907
-0.0261451
-0.026766
-0.0273708
-0.0279227
-0.0284581
-0.0289144
-0.0293622
-0.0296977
-0.0175514
-0.0165395
-0.0158126
-0.0150524
-0.0145269
-0.0139606
-0.0135938
-0.0131855
-0.0129508
-0.0126773
-0.0125574
-0.0124033
-0.0123866
-0.0123418
-0.0124204
-0.0124776
-0.012645
-0.0127977
-0.0130475
-0.0132885
-0.0136125
-0.0139323
-0.0143201
-0.0147062
-0.0151442
-0.015581
-0.0160532
-0.0165224
-0.017011
-0.0174925
-0.0179793
-0.0184522
-0.0189198
-0.0193637
-0.0197963
-0.0201915
-0.0205751
-0.0209029
-0.0212247
-0.0214671
-0.010801
-0.010196
-0.00976412
-0.00931221
-0.00900213
-0.0086669
-0.00845196
-0.00821136
-0.00807536
-0.00791519
-0.00784751
-0.00775843
-0.007752
-0.00772783
-0.00777778
-0.0078141
-0.00791657
-0.0080095
-0.00816059
-0.00830577
-0.00850072
-0.00869255
-0.00892512
-0.00915626
-0.00941853
-0.00967977
-0.00996227
-0.0102428
-0.0105351
-0.0108231
-0.0111144
-0.0113976
-0.0116778
-0.0119443
-0.0122041
-0.0124422
-0.0126736
-0.0128724
-0.0130678
-0.0132168
-0.00404527
-0.00384747
-0.00371053
-0.00356705
-0.00347236
-0.00336823
-0.003305
-0.00323204
-0.00319446
-0.00314758
-0.00313183
-0.00310765
-0.00311116
-0.00310745
-0.00312845
-0.00314368
-0.00318085
-0.0032137
-0.00326577
-0.00331485
-0.00338034
-0.00344391
-0.00352093
-0.00359675
-0.0036829
-0.0037682
-0.00386064
-0.00395216
-0.00404775
-0.00414194
-0.00423749
-0.0043307
-0.00442321
-0.00451188
-0.0045987
-0.00467944
-0.0047583
-0.00482791
-0.00489674
-0.00495217
0.00271953
0.00250955
0.00235092
0.0021854
0.00206416
0.00193668
0.00184772
0.00175258
0.00169129
0.00162447
0.00158788
0.00154682
0.00153302
0.00151598
0.00152361
0.00152924
0.00155711
0.00158415
0.00163089
0.00167778
0.0017416
0.00180621
0.00188465
0.00196411
0.00205402
0.00214467
0.00224228
0.00233983
0.00244094
0.00254065
0.00264094
0.00273786
0.00283312
0.00292235
0.00300865
0.00308541
0.00315919
0.0032189
0.0032768
0.00331508
0.00947612
0.00885885
0.00840517
0.00793114
0.00759443
0.00723576
0.00699499
0.00673211
0.00657231
0.00639209
0.00630346
0.00619739
0.00617355
0.00613593
0.0061724
0.00619902
0.00629207
0.00637908
0.00652474
0.00666763
0.00686081
0.0070536
0.00728752
0.00752222
0.00778818
0.00805472
0.00834233
0.00862886
0.00892662
0.00922012
0.00951617
0.00980312
0.0100861
0.0103531
0.0106124
0.0108466
0.0110729
0.0112619
0.0114464
0.0115784
0.0162264
0.0152022
0.0144535
0.0136712
0.013119
0.0125292
0.0121365
0.0117058
0.0114473
0.0111536
0.0110127
0.0108415
0.0108073
0.0107489
0.0108139
0.0108613
0.0110192
0.0111659
0.0114101
0.0116487
0.0119709
0.0122915
0.0126805
0.0130701
0.0135117
0.0139538
0.014431
0.0149062
0.0154002
0.0158872
0.0163786
0.0168553
0.0173256
0.0177702
0.0182023
0.0185937
0.0189723
0.0192904
0.0196015
0.019827
0.0229547
0.0215248
0.0204824
0.0193927
0.0186259
0.0178058
0.0172619
0.0166641
0.0163074
0.0159007
0.0157079
0.0154718
0.0154276
0.0153486
0.0154422
0.0155104
0.0157331
0.0159394
0.016282
0.0166161
0.017067
0.0175152
0.0180589
0.018603
0.0192199
0.019837
0.0205034
0.0211667
0.0218565
0.0225364
0.0232228
0.0238887
0.0245459
0.0251675
0.0257719
0.0263201
0.0268507
0.0272975
0.0277347
0.0280536
0.0296615
0.0278272
0.0264917
0.0250956
0.0241147
0.0230649
0.0223701
0.0216056
0.0211508
0.0206312
0.0203864
0.0200856
0.020031
0.0199314
0.0200533
0.020142
0.020429
0.0206946
0.0211351
0.0215642
0.0221432
0.0227184
0.0234161
0.0241141
0.0249054
0.025697
0.0265517
0.0274024
0.0282872
0.0291593
0.0300398
0.0308942
0.0317376
0.0325356
0.0333117
0.0340161
0.0346981
0.0352732
0.0358362
0.0362481
0.0363325
0.034096
0.0324691
0.0307683
0.0295746
0.0282964
0.0274516
0.0265213
0.0259691
0.0253374
0.025041
0.0246759
0.0246112
0.024491
0.0246412
0.0247504
0.0251017
0.0254262
0.0259642
0.0264879
0.0271945
0.027896
0.0287471
0.0295982
0.0305632
0.0315283
0.0325705
0.0336077
0.0346866
0.0357499
0.0368237
0.0378657
0.0388943
0.0398679
0.0408149
0.0416747
0.0425074
0.0432102
0.0438983
0.0444028
0.0429671
0.0403305
0.0384137
0.0364098
0.0350042
0.0334988
0.0325046
0.0314093
0.03076
0.0300167
0.0296688
0.0292395
0.0291646
0.0290239
0.029202
0.0293315
0.0297463
0.0301295
0.0307642
0.0313819
0.0322151
0.0330422
0.0340456
0.0350489
0.0361865
0.037324
0.0385525
0.0397751
0.0410468
0.0423003
0.0435661
0.0447946
0.0460074
0.0471554
0.0482723
0.0492867
0.0502691
0.0510989
0.0519115
0.0525081
0.0495523
0.0465185
0.044314
0.0420092
0.0403935
0.0386626
0.0375203
0.0362613
0.0355158
0.0346617
0.0342629
0.0337699
0.033685
0.033524
0.0337299
0.0338796
0.0343577
0.034799
0.0355298
0.0362408
0.0371998
0.0381516
0.0393064
0.0404607
0.0417697
0.0430785
0.044492
0.0458986
0.0473619
0.0488042
0.0502607
0.0516743
0.05307
0.0543913
0.0556768
0.0568447
0.0579759
0.0589318
0.0598679
0.060556
0.0560864
0.0526584
0.0501683
0.047565
0.0457407
0.0437859
0.0424964
0.0410749
0.0402337
0.0392697
0.0388201
0.0382639
0.0381688
0.0379875
0.0382209
0.0383905
0.0389312
0.0394301
0.0402562
0.0410596
0.0421434
0.0432188
0.0445235
0.0458277
0.0473065
0.0487851
0.0503822
0.0519713
0.0536245
0.055254
0.0568997
0.0584969
0.060074
0.0615671
0.06302
0.06434
0.0656188
0.0666997
0.0677584
0.0685372
0.0625575
0.0587391
0.0559662
0.0530672
0.0510363
0.0488599
0.0474248
0.0458424
0.0449066
0.0438336
0.0433339
0.0427151
0.0426101
0.0424087
0.0426694
0.0428587
0.0434615
0.0440176
0.044938
0.0458331
0.0470404
0.0482383
0.0496916
0.0511442
0.0527914
0.0544382
0.056217
0.057987
0.0598283
0.0616433
0.0634764
0.0652555
0.0670123
0.0686757
0.0702943
0.0717652
0.0731901
0.074395
0.0755751
0.0764438
0.0689631
0.0647582
0.0617053
0.0585135
0.056278
0.0538822
0.0523028
0.050561
0.0495314
0.0483505
0.047801
0.0471202
0.0470052
0.0467839
0.0470714
0.0472802
0.0479443
0.0485568
0.0495706
0.0505562
0.0518857
0.0532047
0.054805
0.0564044
0.0582182
0.0600314
0.0619901
0.0639389
0.0659664
0.0679649
0.0699834
0.0719426
0.0738772
0.0757091
0.0774917
0.0791118
0.0806814
0.0820089
0.0833092
0.0842669
0.0752924
0.0707055
0.0673759
0.0638948
0.0614573
0.0588446
0.0571228
0.0552236
0.0541013
0.0528139
0.0522153
0.0514732
0.0513483
0.0511074
0.0514215
0.0516495
0.0523743
0.0530425
0.0541486
0.0552238
0.0566741
0.0581128
0.0598584
0.0616029
0.0635813
0.065559
0.0676954
0.069821
0.0720326
0.0742124
0.0764142
0.0785512
0.0806616
0.08266
0.0846047
0.0863723
0.0880849
0.0895336
0.0909528
0.0919984
0.0815422
0.0765782
0.0729753
0.0692084
0.0665713
0.0637443
0.0618817
0.059827
0.0586131
0.0572204
0.0565732
0.0557706
0.0556359
0.0553754
0.0557157
0.0559627
0.0567473
0.0574704
0.0586675
0.059831
0.0614006
0.0629573
0.0648464
0.066734
0.0688749
0.0710149
0.0733267
0.0756268
0.07802
0.0803789
0.0827615
0.0850742
0.087358
0.0895209
0.0916256
0.0935388
0.0953926
0.0969609
0.0984974
0.0996299
0.0877026
0.0823667
0.0784944
0.0744458
0.071612
0.0685739
0.0665726
0.0643646
0.0630606
0.0615641
0.060869
0.0600066
0.0598623
0.0595827
0.0599488
0.0602145
0.061058
0.0618354
0.0631222
0.0643728
0.0660599
0.0677331
0.0697635
0.0717923
0.0740933
0.0763934
0.0788781
0.0813503
0.0839226
0.086458
0.0890189
0.0915047
0.0939596
0.0962845
0.0985469
0.100604
0.102597
0.104283
0.105935
0.107153
0.0937699
0.0880678
0.0839301
0.079604
0.0765763
0.0733303
0.0711923
0.0688332
0.0674402
0.0658415
0.0650991
0.0641779
0.0640241
0.0637255
0.0641169
0.0644009
0.0653024
0.0661331
0.0675082
0.0688446
0.0706472
0.0724351
0.0746046
0.0767724
0.0792311
0.0816887
0.0843437
0.0869853
0.0897338
0.092443
0.0951795
0.0978358
0.100459
0.102944
0.105361
0.107559
0.109689
0.111492
0.113258
0.11456
0.099735
0.0936727
0.0892741
0.0846753
0.081457
0.0780064
0.075734
0.0732265
0.0717461
0.0700468
0.0692581
0.0682791
0.0681159
0.0677986
0.068215
0.0685169
0.0694755
0.0703587
0.0718206
0.0732412
0.0751577
0.0770582
0.0793646
0.081669
0.0842827
0.0868953
0.0897177
0.0925258
0.0954477
0.0983277
0.101237
0.104061
0.10685
0.109491
0.112061
0.114399
0.116663
0.11858
0.120458
0.121843
0.105594
0.0991779
0.094523
0.0896561
0.0862505
0.0825991
0.0801946
0.0775411
0.0759749
0.0741768
0.0733424
0.0723065
0.072134
0.0717984
0.0722392
0.0725588
0.0735733
0.0745079
0.0760551
0.0775584
0.0795864
0.0815976
0.0840383
0.0864769
0.0892428
0.0920074
0.0949942
0.0979659
0.101058
0.104106
0.107184
0.110173
0.113124
0.11592
0.11864
0.121114
0.123511
0.12554
0.127528
0.128995
0.111338
0.104575
0.0996691
0.0945394
0.0909502
0.0871018
0.0845679
0.0817714
0.0801209
0.078226
0.0773469
0.0762552
0.0760736
0.07572
0.0761847
0.0765217
0.0775911
0.0785761
0.0802068
0.0817912
0.0839287
0.0860484
0.0886208
0.0911909
0.094106
0.0970198
0.100168
0.1033
0.106559
0.109771
0.113016
0.116166
0.119277
0.122223
0.125091
0.127698
0.130225
0.132364
0.13446
0.136006
0.116964
0.109861
0.104709
0.0993217
0.0955526
0.0915112
0.0888504
0.0859138
0.0841808
0.0821909
0.081268
0.0801216
0.0799312
0.0795598
0.0800479
0.0804017
0.0815248
0.0825592
0.0842717
0.0859354
0.0881801
0.0904059
0.0931072
0.0958061
0.0988673
0.101927
0.105233
0.108522
0.111944
0.115317
0.118725
0.122033
0.1253
0.128394
0.131406
0.134144
0.136798
0.139045
0.141246
0.142871
0.122463
0.115028
0.109635
0.103996
0.100051
0.0958213
0.0930366
0.0899629
0.0881493
0.0860666
0.0851008
0.0839011
0.0837019
0.0833132
0.0838242
0.0841945
0.0853701
0.0864527
0.0882451
0.0899864
0.0923358
0.0946655
0.0974928
0.100318
0.103522
0.106724
0.110184
0.113626
0.117208
0.120739
0.124306
0.127768
0.131188
0.134427
0.137579
0.140446
0.143224
0.145576
0.14788
0.149582
0.127831
0.120072
0.114444
0.10856
0.104443
0.100029
0.0971229
0.0939154
0.092023
0.0898497
0.088842
0.0875901
0.0873823
0.0869767
0.08751
0.0878964
0.0891231
0.0902527
0.0921231
0.0939401
0.0963917
0.0988226
0.101773
0.10472
0.108064
0.111406
0.115016
0.118608
0.122346
0.12603
0.129752
0.133365
0.136934
0.140314
0.143604
0.146595
0.149495
0.151949
0.154355
0.156131
0.133061
0.124986
0.119129
0.113005
0.108722
0.104128
0.101104
0.0977663
0.0957971
0.0935355
0.092487
0.0911842
0.0909681
0.090546
0.091101
0.091503
0.0927796
0.093955
0.0959014
0.0977921
0.100343
0.102873
0.105943
0.10901
0.112489
0.115967
0.119724
0.123462
0.127352
0.131186
0.135059
0.138819
0.142532
0.14605
0.149474
0.152587
0.155604
0.158159
0.160663
0.162512
0.138149
0.129767
0.123687
0.11733
0.112884
0.108115
0.104977
0.101512
0.0994682
0.0971207
0.0960324
0.0946801
0.0944558
0.0940176
0.0945938
0.0950109
0.0963359
0.0975559
0.0995761
0.101538
0.104186
0.106812
0.109999
0.113182
0.116793
0.120403
0.124302
0.128182
0.13222
0.136199
0.14022
0.144122
0.147977
0.151628
0.155182
0.158414
0.161546
0.164199
0.166798
0.168717
0.143087
0.134407
0.128111
0.121529
0.116924
0.111986
0.108736
0.105148
0.103032
0.100601
0.099474
0.0980736
0.0978414
0.0973876
0.0979842
0.0984161
0.0997881
0.101051
0.103143
0.105175
0.107917
0.110636
0.113935
0.117232
0.120971
0.124709
0.128747
0.132764
0.136945
0.141066
0.145229
0.149271
0.153262
0.157043
0.160723
0.16407
0.167314
0.170061
0.172753