/*--------------------------------*- C++ -*----------------------------------*\
| =========                 |                                                 |
| \\      /  F ield         | foam-extend: Open Source CFD                    |
|  \\    /   O peration     | Version:  3.0                                   |
|   \\  /    A nd           | Web:         http://www.extend-project.de       |
|    \\/     M anipulation  |                                                 |
\*---------------------------------------------------------------------------*/
FoamFile
{
    version     2.0;
    format      ascii;
    class       volSymmTensorField;
    location    "1";
    object      sigma;
}
// * * * * * * * * * * * * * * * * * * * * * * * * * * * * * * * * * * * * * //

dimensions      [0 0 0 0 0 0 0];

internalField   nonuniform List<symmTensor> 
7680
(
(-0.0862635 -0.00012845 4.06445e-24 0.0860553 1.30999e-22 0.000208174)
(-0.0957244 -0.000784694 -1.87477e-22 0.0951535 3.58649e-22 0.000570866)
(-0.101787 -0.00125885 -9.76922e-22 0.100892 -1.91622e-21 0.00089543)
(-0.105366 -0.00159722 -1.7808e-21 0.104178 -2.28032e-21 0.00118796)
(-0.107117 -0.00183231 -2.18162e-21 0.105664 -1.91401e-21 0.00145369)
(-0.107526 -0.00198784 -2.97489e-21 0.105829 -2.55397e-22 0.00169719)
(-0.106951 -0.00208167 -2.79568e-21 0.105028 6.35778e-22 0.00192251)
(-0.105659 -0.0021275 -3.10547e-21 0.103526 1.25822e-21 0.00213335)
(-0.103853 -0.00213591 -3.10948e-21 0.101519 2.8844e-21 0.00233305)
(-0.10168 -0.00211504 -2.30424e-21 0.0991551 1.0214e-21 0.00252482)
(-0.0992541 -0.00207112 -2.24816e-21 0.0965425 -1.62125e-21 0.00271155)
(-0.0966597 -0.00200895 -1.90481e-21 0.0937635 -2.95836e-21 0.00289618)
(-0.0939603 -0.00193219 -2.25624e-21 0.0908789 -3.31232e-21 0.00308134)
(-0.0912037 -0.00184365 -3.72335e-21 0.0879339 -7.91119e-22 0.00326974)
(-0.0884256 -0.00174547 -6.72607e-21 0.0849619 7.08386e-22 0.00346372)
(-0.085653 -0.0016393 -6.4962e-21 0.0819873 1.79254e-21 0.00366566)
(-0.082905 -0.00152637 -5.77404e-21 0.0790276 4.35674e-21 0.00387739)
(-0.080196 -0.00140764 -5.81639e-21 0.0760953 6.45895e-21 0.00410061)
(-0.077535 -0.0012838 -8.06179e-21 0.0731987 7.21241e-21 0.00433624)
(-0.0749278 -0.00115538 -1.01161e-20 0.0703431 7.22296e-21 0.00458471)
(-0.0723767 -0.00102276 -1.61387e-20 0.0675314 5.37238e-21 0.00484533)
(-0.0698813 -0.000886217 -1.7136e-20 0.0647648 5.22903e-21 0.00511651)
(-0.0674382 -0.000745955 -1.79149e-20 0.062043 6.34614e-21 0.00539516)
(-0.0650417 -0.000602144 -1.80992e-20 0.0593649 7.22208e-21 0.00567677)
(-0.0626836 -0.000454903 -1.89879e-20 0.0567285 6.33482e-21 0.00595507)
(-0.0603534 -0.000304384 -1.96843e-20 0.0541315 9.5925e-21 0.00622189)
(-0.0580381 -0.000150739 -1.80009e-20 0.0515709 1.24899e-20 0.00646723)
(-0.0557228 5.80763e-06 -1.39977e-20 0.0490439 1.22345e-20 0.00667884)
(-0.0533905 0.000164947 -1.51776e-20 0.0465475 9.54443e-21 0.00684302)
(-0.0510223 0.000326247 -1.80122e-20 0.0440786 6.70983e-21 0.00694368)
(-0.0485987 0.000489043 -1.81714e-20 0.0416344 4.617e-21 0.00696422)
(-0.0460978 0.000652465 -1.33297e-20 0.039212 2.65503e-21 0.00688581)
(-0.0434998 0.000815052 -5.48593e-21 0.036809 4.62813e-22 0.00669081)
(-0.0407821 0.000974956 -3.43981e-21 0.0344223 3.91313e-21 0.00635977)
(-0.0379277 0.00112874 -1.26772e-20 0.0320508 5.44309e-21 0.00587692)
(-0.0349171 0.00127215 -1.80783e-20 0.0296917 5.32335e-21 0.00522538)
(-0.0317447 0.00139687 -1.68435e-20 0.0273496 1.59136e-22 0.00439513)
(-0.0284064 0.00149486 -6.16603e-21 0.0250303 1.63326e-21 0.00337605)
(-0.0249425 0.00155141 -4.97423e-21 0.0227742 -7.97364e-22 0.00216828)
(-0.0214147 0.0015578 -1.53138e-21 0.0206414 -3.1784e-21 0.00077328)
(-0.0864994 -0.000433612 5.17768e-22 0.0862913 -5.16857e-22 0.000208093)
(-0.0958087 -0.00249265 3.66293e-22 0.0952379 -4.48377e-22 0.000570714)
(-0.101757 -0.004002 -8.06474e-22 0.100862 -2.56264e-21 0.000895262)
(-0.105248 -0.00510139 -9.24591e-22 0.104061 -2.52178e-21 0.00118778)
(-0.106934 -0.00588946 -4.27798e-22 0.105481 -2.68684e-21 0.00145354)
(-0.107294 -0.00643848 -7.74937e-22 0.105597 -7.02174e-22 0.00169705)
(-0.106682 -0.006803 -1.07327e-21 0.10476 9.56932e-23 0.00192239)
(-0.105364 -0.00702489 -1.21228e-21 0.103231 1.55843e-21 0.00213326)
(-0.103539 -0.00713646 -1.45816e-21 0.101206 4.05147e-21 0.00233298)
(-0.101354 -0.00716268 -3.16335e-21 0.0988292 1.59106e-21 0.00252476)
(-0.0989206 -0.00712279 -3.53665e-21 0.0962091 -1.80907e-21 0.00271151)
(-0.0963225 -0.00703165 -2.473e-21 0.0934263 -2.53147e-21 0.00289615)
(-0.0936222 -0.00690069 -2.018e-21 0.0905409 -1.43254e-21 0.00308131)
(-0.0908671 -0.00673882 -2.99983e-21 0.0875975 1.34046e-21 0.00326969)
(-0.0880924 -0.00655288 -5.89511e-21 0.0846288 4.88151e-21 0.00346364)
(-0.0853245 -0.00634821 -5.62611e-21 0.081659 6.86946e-21 0.00366551)
(-0.0825824 -0.00612895 -4.57128e-21 0.0787053 1.06832e-20 0.00387717)
(-0.0798801 -0.00589831 -2.93001e-21 0.0757798 8.44867e-21 0.00410028)
(-0.0772265 -0.00565873 -5.67635e-21 0.0728907 8.91119e-21 0.00433577)
(-0.0746273 -0.00541214 -1.07682e-20 0.0700432 6.13453e-21 0.00458407)
(-0.0720846 -0.00515995 -1.7521e-20 0.0672401 5.27709e-21 0.00484449)
(-0.0695978 -0.00490327 -1.6924e-20 0.0644824 4.93276e-21 0.00511543)
(-0.0671637 -0.00464285 -1.60134e-20 0.0617698 6.71338e-21 0.00539382)
(-0.0647764 -0.00437932 -1.68059e-20 0.0591013 6.06082e-21 0.00567514)
(-0.0624278 -0.00411307 -2.08383e-20 0.0564747 1.11074e-20 0.00595313)
(-0.0601073 -0.00384445 -1.34127e-20 0.0538876 1.46942e-20 0.00621963)
(-0.0578019 -0.00357375 -1.2077e-20 0.0513373 1.79579e-20 0.00646464)
(-0.0554968 -0.00330127 -1.27368e-20 0.0488209 1.30688e-20 0.00667593)
(-0.0531751 -0.00302747 -1.63176e-20 0.0463353 1.01568e-20 0.00683982)
(-0.0508178 -0.00275296 -1.8079e-20 0.0438776 8.67729e-21 0.00694022)
(-0.0484055 -0.00247889 -1.96303e-20 0.0414449 9.46247e-21 0.00696057)
(-0.0459166 -0.00220677 -2.02327e-20 0.0390345 1.01564e-20 0.00688204)
(-0.0433313 -0.00193956 -9.20268e-21 0.0366442 2.58388e-21 0.00668703)
(-0.0406279 -0.00168098 2.92022e-21 0.0342718 -4.43371e-21 0.00635609)
(-0.0377905 -0.00143829 -7.16144e-21 0.031917 4.82018e-21 0.00587349)
(-0.0348031 -0.00122001 -1.59961e-20 0.0295807 7.25926e-21 0.00522235)
(-0.0316637 -0.00104209 -2.13723e-20 0.027271 7.40649e-21 0.00439268)
(-0.0283779 -0.000918169 -6.1427e-21 0.0250036 1.00989e-20 0.00337429)
(-0.0249823 -0.000873407 -9.65818e-21 0.0228149 6.25362e-21 0.00216735)
(-0.0215254 -0.000919887 -4.30365e-21 0.0207524 3.50568e-21 0.000773006)
(-0.0869703 -0.000786833 1.03114e-21 0.0867624 -1.23018e-21 0.000207871)
(-0.0959749 -0.00422479 9.85807e-22 0.0954047 -1.91563e-21 0.000570144)
(-0.101693 -0.00675159 -6.28956e-22 0.100798 -2.66804e-21 0.000894415)
(-0.105009 -0.00859845 2.82168e-22 0.103822 -3.37594e-21 0.00118671)
(-0.106562 -0.00992912 5.50406e-23 0.10511 -2.76074e-21 0.00145226)
(-0.106822 -0.0108637 8.34919e-22 0.105126 -1.31058e-21 0.00169559)
(-0.106136 -0.0114929 3.8318e-22 0.104215 -8.65576e-22 0.00192077)
(-0.104765 -0.0118864 1.62378e-21 0.102633 5.6878e-22 0.00213147)
(-0.102901 -0.0120979 2.43968e-21 0.10057 1.75867e-21 0.00233104)
(-0.10069 -0.0121689 -3.13257e-21 0.0981675 -1.01722e-22 0.00252267)
(-0.0982405 -0.0121315 -5.89002e-21 0.0955313 -1.39907e-21 0.00270925)
(-0.0956336 -0.0120104 -2.1992e-21 0.0927399 -1.6805e-21 0.00289372)
(-0.0929304 -0.0118248 1.34946e-21 0.0898517 -5.61149e-22 0.00307869)
(-0.0901771 -0.0115895 -8.85925e-23 0.0869102 5.4845e-21 0.00326687)
(-0.0874077 -0.011316 -4.7507e-21 0.0839471 1.38045e-20 0.00346058)
(-0.0846479 -0.0110133 -5.04474e-21 0.0809857 1.61709e-20 0.00366219)
(-0.0819162 -0.0106884 9.59313e-22 0.0780426 1.51228e-20 0.00387354)
(-0.0792258 -0.0103467 -7.88771e-21 0.0751295 1.19122e-20 0.00409632)
(-0.0765856 -0.0099924 -3.58888e-21 0.0722541 6.52347e-21 0.00433142)
(-0.0740007 -0.00962876 -1.37503e-20 0.0694214 7.29719e-21 0.00457929)
(-0.071473 -0.00925825 -1.68579e-20 0.0666338 6.15201e-21 0.00483923)
(-0.0690019 -0.00888276 -1.81521e-20 0.0638923 8.27457e-21 0.00510965)
(-0.0665839 -0.00850364 -1.60475e-20 0.0611964 1.00831e-20 0.00538748)
(-0.0642131 -0.00812195 -1.9435e-20 0.0585449 1.4115e-20 0.00566822)
(-0.0618813 -0.00773837 -9.41872e-21 0.0559357 2.01466e-20 0.00594561)
(-0.0595779 -0.00735345 -1.01251e-20 0.0533663 2.44756e-20 0.00621151)
(-0.0572899 -0.00696763 -1.02253e-20 0.050834 2.65636e-20 0.00645594)
(-0.0550026 -0.00658133 -1.82091e-20 0.0483359 2.01284e-20 0.0066667)
(-0.052699 -0.00619517 -1.59029e-20 0.0458689 1.47712e-20 0.00683013)
(-0.0503605 -0.00580996 -1.52096e-20 0.0434304 1.25334e-20 0.00693017)
(-0.0479678 -0.00542731 -1.15121e-20 0.0410175 1.58086e-20 0.00695032)
(-0.0454999 -0.00504926 -1.53415e-20 0.0386282 2.55177e-20 0.00687176)
(-0.0429376 -0.00467983 -2.43935e-20 0.0362606 1.65758e-20 0.00667694)
(-0.0402609 -0.00432384 -1.01185e-20 0.0339144 -4.63174e-21 0.00634644)
(-0.0374557 -0.00398996 2.49962e-21 0.0315911 1.39705e-20 0.00586457)
(-0.0345103 -0.00368721 -1.06318e-20 0.0292958 1.45123e-20 0.00521445)
(-0.0314258 -0.0034296 -1.12643e-20 0.0270396 1.88632e-20 0.00438611)
(-0.028212 -0.00322439 -3.08484e-22 0.0248427 2.3316e-20 0.00336931)
(-0.024894 -0.00307877 -5.06825e-21 0.0227298 1.11491e-20 0.0021642)
(-0.0214993 -0.00297637 -1.68864e-21 0.0207275 4.17073e-21 0.000771837)
(-0.0876692 -0.00121885 1.61277e-21 0.0874618 -2.08871e-21 0.000207434)
(-0.0962188 -0.00599731 2.24939e-21 0.0956498 -3.7776e-21 0.000568967)
(-0.101592 -0.00951206 2.08576e-22 0.100699 -2.69542e-21 0.000892605)
(-0.104646 -0.0120838 6.96812e-22 0.103462 -3.94515e-21 0.00118434)
(-0.106001 -0.0139397 1.13457e-21 0.104552 -1.25066e-21 0.00144941)
(-0.106112 -0.0152467 2.14171e-21 0.10442 -1.79909e-21 0.00169231)
(-0.105315 -0.0161306 1.12267e-21 0.103398 -1.58678e-21 0.00191708)
(-0.103863 -0.0166882 2.0106e-21 0.101736 -2.19247e-22 0.00212741)
(-0.101942 -0.0169942 9.85222e-22 0.0996153 1.83285e-22 0.00232662)
(-0.0996919 -0.0171061 -5.97723e-21 0.097174 9.76246e-22 0.0025179)
(-0.0972174 -0.0170685 -6.92655e-21 0.0945132 1.76402e-21 0.00270414)
(-0.0945968 -0.0169159 -3.60397e-21 0.0917085 8.16296e-22 0.00288826)
(-0.0918888 -0.0166747 2.43528e-21 0.0888159 2.29328e-25 0.00307286)
(-0.0891374 -0.0163657 8.48865e-21 0.0858767 8.75876e-21 0.00326064)
(-0.0863754 -0.016005 9.51311e-21 0.0829214 1.77049e-20 0.00345393)
(-0.0836271 -0.0156049 1.39211e-21 0.079972 2.02493e-20 0.00365508)
(-0.0809102 -0.0151753 3.20387e-21 0.0770442 9.9397e-21 0.00386593)
(-0.0782372 -0.0147238 -5.29295e-21 0.074149 1.25209e-20 0.00408814)
(-0.0756161 -0.0142563 -1.35945e-20 0.0712935 9.89078e-21 0.00432264)
(-0.0730519 -0.0137773 -1.0281e-20 0.0684821 1.18597e-20 0.00456983)
(-0.0705461 -0.0132903 -2.0655e-20 0.065717 1.32247e-20 0.00482905)
(-0.0680977 -0.012798 -1.51574e-20 0.062999 1.64437e-20 0.0050987)
(-0.0657029 -0.0123023 -1.20395e-20 0.0603272 1.77613e-20 0.00537571)
(-0.0633561 -0.0118047 -4.69039e-21 0.0577005 1.96768e-20 0.0056556)
(-0.0610485 -0.0113062 -1.06413e-21 0.0551164 2.14752e-20 0.00593213)
(-0.0587699 -0.0108075 6.71971e-21 0.0525727 2.54337e-20 0.00619718)
(-0.0565072 -0.0103093 1.29016e-21 0.0500664 2.9768e-20 0.00644081)
(-0.0542456 -0.00981194 -1.55973e-20 0.0475948 2.80038e-20 0.00665085)
(-0.0519687 -0.00931631 -1.89496e-20 0.045155 2.23335e-20 0.00681368)
(-0.0496579 -0.00882329 -1.74134e-20 0.0427446 2.76438e-20 0.0069133)
(-0.0472944 -0.00833469 -5.79657e-22 0.0403612 2.5114e-20 0.00693325)
(-0.0448582 -0.00785274 9.14724e-21 0.0380034 2.23896e-20 0.00685476)
(-0.042331 -0.00738154 -2.78e-20 0.0356706 2.7848e-20 0.00666035)
(-0.0396948 -0.0069257 -2.61455e-20 0.0333642 2.13092e-20 0.00633064)
(-0.0369375 -0.00649259 2.41381e-20 0.0310875 3.00375e-20 0.00584997)
(-0.0340503 -0.00608839 -2.09196e-21 0.0288488 2.35129e-20 0.00520151)
(-0.0310347 -0.00572031 -1.24918e-23 0.0266595 2.60477e-20 0.00437529)
(-0.0278985 -0.00538628 7.67773e-21 0.0245374 2.36252e-20 0.00336105)
(-0.0246537 -0.00507574 -1.8105e-20 0.0224947 7.13855e-22 0.00215893)
(-0.0213108 -0.00475056 -5.89742e-21 0.0205408 -1.05061e-20 0.000769953)
(-0.088586 -0.00176069 1.80983e-21 0.0883792 -2.06261e-21 0.000206781)
(-0.0965349 -0.00782586 2.79759e-21 0.0959678 -2.92404e-21 0.000567191)
(-0.101453 -0.0122875 1.98685e-21 0.100563 -3.81974e-21 0.000889851)
(-0.104162 -0.0155527 -5.48975e-22 0.102981 7.59692e-22 0.00118073)
(-0.105255 -0.0179098 2.28423e-21 0.10381 1.41543e-21 0.00144503)
(-0.105168 -0.0195707 2.08914e-21 0.103481 -2.20384e-21 0.00168723)
(-0.104225 -0.0206955 1.82518e-21 0.102314 -1.78387e-21 0.00191137)
(-0.102666 -0.0214069 3.65592e-21 0.100545 -1.18626e-22 0.00212111)
(-0.100669 -0.0217997 2.59069e-21 0.0983491 1.71097e-21 0.00231976)
(-0.0983668 -0.0219471 -5.02131e-21 0.0958563 6.35069e-21 0.0025105)
(-0.0958593 -0.0219057 -7.39158e-21 0.0931631 7.19026e-21 0.00269621)
(-0.0932204 -0.0217191 -7.25248e-21 0.0903406 6.96065e-21 0.00287978)
(-0.0905057 -0.0214211 6.39195e-22 0.0874419 3.39533e-21 0.00306384)
(-0.0877567 -0.0210381 1.86927e-20 0.0845056 6.07577e-21 0.00325105)
(-0.0850041 -0.0205903 1.8405e-20 0.0815604 1.15117e-20 0.00344373)
(-0.0822708 -0.0200938 8.25953e-21 0.0786266 1.08377e-20 0.00364422)
(-0.079573 -0.0195608 -7.40987e-21 0.0757187 5.66528e-21 0.00385435)
(-0.0769226 -0.0190011 -7.47291e-22 0.0728468 1.15749e-20 0.0040758)
(-0.0743266 -0.0184223 -5.91374e-21 0.0700171 1.43622e-20 0.00430945)
(-0.0717894 -0.0178301 -8.0349e-21 0.0672337 1.6944e-20 0.00455574)
(-0.0693121 -0.017229 -1.79489e-20 0.0644981 2.85961e-20 0.00481399)
(-0.0668933 -0.0166225 -1.43795e-20 0.0618107 2.84365e-20 0.0050826)
(-0.0645291 -0.016013 -4.50045e-21 0.0591706 1.51053e-20 0.00535853)
(-0.0622135 -0.0154024 -5.18754e-21 0.0565762 1.48111e-20 0.0056373)
(-0.0599379 -0.0147919 -1.75995e-21 0.0540252 2.8222e-20 0.0059127)
(-0.0576918 -0.0141826 7.91742e-21 0.0515152 2.68965e-20 0.00617665)
(-0.0554625 -0.013575 1.71203e-20 0.0490432 2.10967e-20 0.00641925)
(-0.0532352 -0.0129698 -5.73374e-21 0.0466069 2.83241e-20 0.00662836)
(-0.0509938 -0.0123678 -9.58036e-21 0.0442034 2.94481e-20 0.00679045)
(-0.0487203 -0.0117697 7.07829e-21 0.0418308 2.75152e-20 0.00688956)
(-0.0463966 -0.0111773 6.12831e-21 0.0394873 5.54932e-21 0.00690928)
(-0.0440035 -0.0105924 1.34149e-20 0.0371725 -5.31396e-21 0.00683096)
(-0.041524 -0.0100183 9.27721e-21 0.0348868 7.93282e-21 0.00663714)
(-0.0389416 -0.00945822 -2.45869e-21 0.032633 2.32679e-20 0.00630852)
(-0.0362453 -0.00891663 3.31238e-20 0.0304158 1.89764e-20 0.00582952)
(-0.0334271 -0.00839552 1.31044e-20 0.0282438 -7.27539e-21 0.00518332)
(-0.0304867 -0.00789479 1.90695e-20 0.0261267 -1.25044e-20 0.00435998)
(-0.0274262 -0.00740524 5.0933e-21 0.0240769 -1.28173e-20 0.00334927)
(-0.0242486 -0.00690596 -4.26767e-20 0.0220973 -2.12157e-20 0.00215132)
(-0.0209587 -0.00634579 -1.61773e-20 0.0201914 -1.28176e-20 0.000767208)
(-0.0897072 -0.00244171 2.36171e-21 0.0895013 -1.10223e-21 0.000205911)
(-0.096916 -0.00972542 2.72176e-21 0.0963512 8.34041e-22 0.000564819)
(-0.101273 -0.015082 2.18236e-21 0.100387 -6.50538e-23 0.000886155)
(-0.103556 -0.0190005 3.94565e-21 0.10238 3.73713e-21 0.00117586)
(-0.104326 -0.0218282 1.29841e-21 0.102887 4.16622e-21 0.00143911)
(-0.103997 -0.0238198 -3.20136e-21 0.102316 3.21309e-21 0.00168037)
(-0.102873 -0.0251678 1.72064e-22 0.10097 1.56007e-21 0.00190364)
(-0.101182 -0.0260198 5.2165e-21 0.0990697 1.54444e-22 0.00211257)
(-0.0990913 -0.0264898 8.24745e-21 0.0967808 6.49604e-22 0.00231046)
(-0.0967252 -0.0266658 9.95923e-22 0.0942248 9.40271e-21 0.00250046)
(-0.0941769 -0.0266157 -7.09777e-21 0.0914914 1.33423e-20 0.00268545)
(-0.0915155 -0.0263922 -7.26419e-21 0.0886471 1.31427e-20 0.00286831)
(-0.0887924 -0.0260358 -4.95496e-21 0.0857408 7.77455e-21 0.00305163)
(-0.0860462 -0.0255782 1.59615e-20 0.0828081 2.14496e-21 0.00323808)
(-0.0833051 -0.0250437 2.71138e-20 0.0798751 -1.22632e-21 0.00342996)
(-0.0805901 -0.0244516 1.03887e-20 0.0769605 -2.76826e-21 0.00362961)
(-0.077916 -0.0238168 -2.73426e-21 0.0740772 5.02241e-21 0.00383883)
(-0.0752932 -0.023151 8.82101e-21 0.0712339 5.91775e-21 0.00405929)
(-0.072728 -0.0224632 4.20722e-21 0.0684362 4.76748e-21 0.00429188)
(-0.0702241 -0.0217606 1.02658e-20 0.0656871 9.84123e-21 0.00453702)
(-0.0677818 -0.0210483 1.26213e-20 0.0629878 2.1663e-20 0.00479405)
(-0.0653996 -0.0203307 -1.91484e-21 0.0603382 1.5077e-20 0.00506137)
(-0.0630731 -0.0196106 -2.18312e-20 0.0577371 6.71274e-21 0.00533594)
(-0.0607961 -0.0188903 4.49172e-21 0.0551828 1.33899e-20 0.00561333)
(-0.05856 -0.0181714 3.18989e-20 0.0526727 1.95889e-20 0.00588734)
(-0.0563544 -0.0174549 1.35652e-20 0.0502044 2.08708e-20 0.00614994)
(-0.0541666 -0.0167415 1.85277e-20 0.0477753 2.22431e-21 0.00639127)
(-0.0519822 -0.0160319 1.97841e-20 0.0453829 1.48378e-20 0.00659927)
(-0.0497855 -0.0153264 -3.61115e-22 0.043025 2.30697e-20 0.00676045)
(-0.047559 -0.0146258 -9.22823e-21 0.0407 5.01259e-21 0.00685895)
(-0.0452853 -0.0139311 -2.32882e-20 0.0384069 -2.65739e-20 0.00687845)
(-0.0429463 -0.0132434 5.11793e-22 0.0361459 -1.84777e-20 0.00680036)
(-0.0405257 -0.0125645 1.86034e-20 0.0339184 -2.09381e-20 0.00660732)
(-0.0380082 -0.0118956 1.48546e-20 0.0317281 -6.03258e-21 0.00628012)
(-0.0353829 -0.0112378 3.01588e-20 0.0295797 -3.46626e-20 0.00580323)
(-0.032641 -0.0105891 -3.41707e-20 0.027481 -4.57749e-20 0.00515992)
(-0.0297792 -0.00994427 -1.07649e-20 0.0254389 -4.25924e-20 0.00434028)
(-0.026794 -0.00929053 7.17149e-21 0.0234599 -5.32541e-20 0.00333411)
(-0.0236838 -0.00860378 -3.60471e-20 0.0215422 -5.41052e-20 0.00214157)
(-0.0204556 -0.00782529 -1.72439e-20 0.0196918 -4.81031e-21 0.000763729)
(-0.0910165 -0.00328995 3.56621e-21 0.0908117 2.19202e-22 0.000204822)
(-0.097353 -0.0117101 5.69658e-21 0.0967911 2.79857e-22 0.00056185)
(-0.10105 -0.0178988 3.62905e-21 0.100168 2.47582e-21 0.000881523)
(-0.10283 -0.0224228 4.85162e-21 0.101661 6.09403e-21 0.00116975)
(-0.10322 -0.0256843 4.15389e-21 0.101788 4.80822e-21 0.00143168)
(-0.102605 -0.0279784 1.1196e-21 0.100933 3.5453e-21 0.00167173)
(-0.101269 -0.0295283 1.18511e-21 0.0993747 9.151e-22 0.00189391)
(-0.0994223 -0.0305051 2.85599e-21 0.0973205 5.3892e-22 0.00210182)
(-0.097221 -0.0310406 8.54905e-21 0.0949222 5.30258e-22 0.00229874)
(-0.0947796 -0.0312369 1.37672e-20 0.0922918 5.25634e-21 0.00248781)
(-0.0921833 -0.0311725 6.80847e-21 0.0895114 7.81269e-21 0.0026719)
(-0.0894954 -0.0309085 -2.07612e-21 0.0866415 1.05627e-20 0.00285386)
(-0.0867626 -0.0304916 -1.10188e-20 0.0837264 1.09197e-20 0.00303626)
(-0.0840198 -0.0299586 3.2825e-21 0.0807981 4.55067e-21 0.00322177)
(-0.0812925 -0.0293378 2.01487e-20 0.0778798 -1.19254e-20 0.00341267)
(-0.0785991 -0.0286514 1.33332e-20 0.0749879 -1.23208e-20 0.00361127)
(-0.0759529 -0.0279166 1.32098e-20 0.0721336 -8.62012e-21 0.00381937)
(-0.0733628 -0.027147 1.17831e-20 0.0693242 -1.17057e-20 0.00403863)
(-0.0708341 -0.0263531 1.09999e-20 0.0665642 -2.14297e-20 0.00426993)
(-0.0683695 -0.025543 2.08379e-20 0.0638558 -1.58466e-20 0.00451369)
(-0.0659688 -0.0247229 2.15821e-20 0.0611995 -6.88872e-21 0.00476924)
(-0.0636298 -0.0238977 -6.30008e-21 0.0585948 -6.33829e-21 0.00503501)
(-0.0613479 -0.0230707 -1.88744e-20 0.0560399 8.62247e-21 0.00530796)
(-0.0591168 -0.0222447 5.46891e-21 0.0535331 6.68689e-21 0.00558369)
(-0.0569277 -0.0214212 2.87489e-20 0.0510717 -6.46164e-21 0.00585605)
(-0.0547703 -0.0206014 2.54476e-20 0.0486533 -9.05174e-21 0.00611703)
(-0.0526322 -0.0197859 8.07683e-21 0.0462753 -2.28482e-20 0.00635685)
(-0.0504992 -0.0189753 4.15042e-20 0.0439357 -1.50131e-20 0.00656353)
(-0.048356 -0.0181695 4.96658e-21 0.0416324 2.57752e-20 0.00672364)
(-0.0461859 -0.0173689 -3.57288e-20 0.0393645 1.01485e-20 0.00682143)
(-0.043972 -0.0165735 -7.45148e-20 0.0371313 1.34024e-20 0.00684067)
(-0.0416969 -0.0157833 -1.09059e-20 0.034934 7.91641e-21 0.00676287)
(-0.039345 -0.0149984 -3.6401e-21 0.0327742 -1.45329e-20 0.00657079)
(-0.0369012 -0.0142179 -1.78903e-20 0.0306559 7.50182e-21 0.00624531)
(-0.0343543 -0.0134397 -3.17491e-20 0.0285833 -2.94775e-20 0.00577099)
(-0.0316937 -0.012659 -3.32476e-20 0.0265625 -2.949e-20 0.00513119)
(-0.0289136 -0.0118676 -3.59103e-20 0.0245975 -2.2346e-20 0.00431606)
(-0.0260059 -0.0110518 -5.56527e-20 0.0226904 -3.86565e-20 0.00331546)
(-0.0229678 -0.0101877 -6.14572e-20 0.0208382 -2.83209e-20 0.00212954)
(-0.0198143 -0.0092106 4.04751e-21 0.0190549 1.41211e-20 0.000759416)
(-0.0924945 -0.00433157 3.7659e-21 0.092291 1.65803e-21 0.000203517)
(-0.0978353 -0.013793 7.38673e-21 0.097277 -5.43533e-22 0.000558289)
(-0.100778 -0.0207413 6.82041e-21 0.0999018 2.35114e-21 0.00087596)
(-0.101986 -0.025815 8.89375e-21 0.100823 3.99112e-21 0.00116241)
(-0.101942 -0.0294676 6.64397e-21 0.100519 -6.86087e-22 0.00142273)
(-0.101 -0.0320318 1.3176e-21 0.0993388 -1.63455e-21 0.00166133)
(-0.0994219 -0.033759 -1.32681e-21 0.0975397 2.0052e-22 0.00188218)
(-0.0973987 -0.0348421 4.25352e-21 0.0953099 -2.27794e-22 0.00208885)
(-0.0950717 -0.0354297 8.39186e-21 0.0927871 1.33663e-21 0.0022846)
(-0.0925447 -0.0356366 1.36888e-20 0.0900722 8.92966e-22 0.00247256)
(-0.0898941 -0.0355513 1.47481e-21 0.0872385 6.50926e-21 0.00265555)
(-0.0871762 -0.0352425 3.19067e-21 0.0843398 6.39266e-21 0.00283643)
(-0.0844326 -0.0347629 -7.80527e-21 0.0814149 1.17536e-20 0.00301775)
(-0.081694 -0.0341537 -7.80483e-22 0.0784919 4.17195e-21 0.00320213)
(-0.0789825 -0.0334469 2.16039e-22 0.0755907 -1.19045e-20 0.00339185)
(-0.0763142 -0.0326674 6.19604e-21 0.072725 -1.33063e-20 0.00358921)
(-0.0737002 -0.0318347 8.87541e-23 0.0699042 -1.56452e-20 0.00379599)
(-0.0711477 -0.030964 1.93122e-21 0.0671339 -2.44388e-20 0.00401384)
(-0.0686609 -0.0300669 -1.63592e-20 0.0644173 -3.10675e-20 0.00424363)
(-0.0662414 -0.0291529 1.05438e-20 0.0617557 -2.31162e-20 0.00448577)
(-0.0638884 -0.0282288 2.74196e-20 0.0591488 -1.9488e-20 0.0047396)
(-0.0615992 -0.0273 5.90998e-21 0.0565957 -1.1741e-20 0.00500354)
(-0.0593688 -0.0263704 -5.96527e-22 0.0540942 4.36626e-21 0.00527461)
(-0.0571905 -0.0254427 -1.33064e-20 0.0516421 5.13386e-21 0.00554841)
(-0.0550558 -0.0245188 2.3863e-21 0.0492369 -1.16389e-20 0.00581884)
(-0.0529541 -0.0235999 1.05885e-20 0.0468762 -3.25976e-20 0.00607795)
(-0.0508734 -0.0226863 -2.04892e-20 0.0445574 -2.0852e-20 0.00631603)
(-0.0488 -0.0217784 4.01114e-20 0.0422788 -1.15187e-20 0.00652118)
(-0.0467187 -0.0208757 8.36837e-20 0.0400386 1.1342e-20 0.00668007)
(-0.0446135 -0.0199776 5.19286e-21 0.0378364 -6.81019e-21 0.00677704)
(-0.042468 -0.0190834 -2.61465e-20 0.035672 2.6643e-20 0.00679599)
(-0.0402654 -0.0181918 -3.86495e-20 0.0335469 2.32212e-20 0.00671856)
(-0.0379904 -0.0173011 -2.19922e-20 0.0314628 2.30583e-20 0.00652762)
(-0.0356277 -0.0164083 2.56257e-20 0.0294235 1.96616e-20 0.00620419)
(-0.0331653 -0.0155093 -5.44634e-20 0.0274324 1.00749e-20 0.00573291)
(-0.0305909 -0.0145973 -6.51983e-20 0.0254936 1.29619e-20 0.00509726)
(-0.0278964 -0.0136629 -4.85766e-20 0.0236089 3.47955e-20 0.00428747)
(-0.0250711 -0.0126928 -5.17392e-20 0.0217777 1.57099e-20 0.00329346)
(-0.022113 -0.011665 -3.23257e-20 0.0199976 -8.21157e-21 0.00211539)
(-0.0190477 -0.0105094 5.00936e-21 0.0182933 1.08824e-20 0.000754373)
(-0.0941189 -0.00559064 2.9549e-21 0.0939169 3.62016e-21 0.000201996)
(-0.0983508 -0.0159861 7.67234e-21 0.0977966 3.92269e-22 0.000554136)
(-0.100454 -0.0236121 9.48297e-21 0.0995842 2.86239e-23 0.000869472)
(-0.101024 -0.0291728 1.06135e-20 0.0998703 -1.21823e-21 0.00115383)
(-0.100497 -0.0331683 2.43915e-21 0.0990852 -7.89293e-22 0.00141228)
(-0.099193 -0.0359658 -2.03061e-21 0.0975438 1.2413e-21 0.00164919)
(-0.0973453 -0.0378427 1.15462e-21 0.0954769 -1.02693e-21 0.00186847)
(-0.0951258 -0.0390114 3.3977e-21 0.0930521 -1.44489e-21 0.00207369)
(-0.0926595 -0.0396359 7.79946e-21 0.0903914 2.91173e-21 0.00226808)
(-0.0900376 -0.0398425 1.13051e-20 0.0875829 5.94807e-21 0.00245473)
(-0.0873268 -0.0397289 1.94213e-21 0.0846904 1.70669e-20 0.00263644)
(-0.0845761 -0.0393705 -7.79872e-21 0.0817601 1.70262e-20 0.00281606)
(-0.081821 -0.0388254 -1.00544e-20 0.0788249 1.66936e-20 0.0029961)
(-0.0790875 -0.0381392 -1.82957e-20 0.0759083 1.18867e-20 0.00317917)
(-0.0763942 -0.0373467 -1.74662e-20 0.0730266 1.45842e-21 0.00336754)
(-0.0737542 -0.0364757 3.60937e-21 0.0701907 -8.66823e-21 0.00356346)
(-0.0711764 -0.0355472 -7.03458e-21 0.0674076 -9.26467e-21 0.00376872)
(-0.0686663 -0.0345783 -9.27632e-21 0.0646813 -2.42423e-20 0.00398494)
(-0.0662266 -0.0335817 -2.70126e-20 0.0620136 -1.56e-20 0.00421298)
(-0.063858 -0.0325676 -3.44479e-21 0.0594047 -3.96116e-21 0.00445326)
(-0.0615587 -0.0315435 1.29716e-20 0.0568536 -8.68155e-21 0.00470511)
(-0.0593254 -0.0305155 4.86424e-21 0.0543585 -4.58764e-21 0.00496698)
(-0.0571529 -0.0294876 1.57824e-20 0.051917 -6.30809e-21 0.00523589)
(-0.0550343 -0.028463 -2.35405e-21 0.0495268 2.60714e-21 0.00550748)
(-0.0529607 -0.0274432 -2.541e-20 0.047185 -2.60924e-21 0.00577571)
(-0.0509219 -0.0264296 -1.48195e-20 0.0448893 -2.80844e-20 0.00603269)
(-0.048906 -0.0254224 -1.52265e-20 0.0426372 1.06316e-20 0.00626878)
(-0.0468995 -0.0244211 5.1347e-21 0.0404273 3.65118e-20 0.00647218)
(-0.0448878 -0.0234251 3.68696e-20 0.0382582 2.28755e-20 0.00662967)
(-0.0428552 -0.0224329 -2.42139e-20 0.0361295 6.11612e-21 0.00672572)
(-0.0407859 -0.0214426 7.2513e-21 0.0340416 8.82913e-21 0.00674435)
(-0.0386632 -0.0204517 7.44058e-21 0.0319958 4.21178e-21 0.00666736)
(-0.0364719 -0.0194571 -4.35098e-21 0.0299942 1.5985e-20 0.00647773)
(-0.0341964 -0.0184541 2.32822e-20 0.0280397 -3.24439e-20 0.00615665)
(-0.0318239 -0.017437 -1.40182e-20 0.026135 1.29681e-20 0.00568888)
(-0.0293406 -0.0163979 -5.74879e-21 0.0242825 1.59444e-20 0.00505804)
(-0.0267367 -0.0153275 1.17406e-20 0.0224823 1.96942e-20 0.0042544)
(-0.0240005 -0.0142134 -7.51119e-20 0.0207325 -8.95963e-21 0.00326801)
(-0.0211316 -0.0130351 -1.02712e-19 0.0190325 1.59017e-20 0.00209901)
(-0.0181678 -0.0117177 1.95499e-20 0.0174192 2.31701e-20 0.000748514)
(-0.095865 -0.00708888 4.46789e-21 0.0956647 -6.96879e-22 0.000200262)
(-0.098886 -0.0183001 9.72696e-21 0.0983366 -5.14473e-21 0.000549399)
(-0.100072 -0.0265134 8.93079e-21 0.0992103 -6.1603e-22 0.000862066)
(-0.0999472 -0.0324918 7.97204e-21 0.0988031 3.07819e-21 0.00114404)
(-0.0988939 -0.0367772 4.26937e-21 0.0974936 2.46276e-21 0.00140034)
(-0.0971939 -0.0397677 6.41099e-21 0.0955586 -5.94779e-21 0.0016353)
(-0.0950528 -0.0417636 3.63581e-22 0.0932001 -5.19597e-21 0.00185279)
(-0.0926196 -0.0429951 3.77168e-21 0.0905632 -2.39139e-21 0.00205635)
(-0.0900018 -0.0436396 7.09639e-21 0.0877526 8.59973e-21 0.00224917)
(-0.087277 -0.043834 1.16169e-20 0.0848427 1.88907e-20 0.00243432)
(-0.0845014 -0.0436838 1.76501e-20 0.0818868 2.26631e-20 0.00261458)
(-0.0817155 -0.0432705 5.11676e-21 0.0789227 2.11349e-20 0.00279275)
(-0.0789484 -0.0426572 -8.61109e-21 0.0759771 2.20303e-20 0.00297134)
(-0.0762212 -0.0418927 -7.88109e-21 0.0730682 1.29008e-20 0.00315292)
(-0.0735483 -0.041015 -2.25727e-20 0.0702086 6.98353e-21 0.00333974)
(-0.0709399 -0.0400539 -1.62502e-20 0.0674059 1.22116e-21 0.00353403)
(-0.0684023 -0.0390322 -9.09779e-21 0.0646647 -4.25973e-21 0.00373757)
(-0.0659391 -0.0379682 -2.35147e-20 0.0619872 -1.61881e-20 0.00395194)
(-0.0635516 -0.0368758 -1.98422e-20 0.0593736 -6.3167e-22 0.00417802)
(-0.0612391 -0.0357657 -1.13825e-21 0.0568229 1.65844e-20 0.0044162)
(-0.0589991 -0.0346463 -6.61425e-22 0.0543333 1.63516e-20 0.00466582)
(-0.0568278 -0.0335238 -2.32654e-21 0.0519024 8.53836e-21 0.00492535)
(-0.0547192 -0.0324025 1.25812e-21 0.0495274 -9.45566e-21 0.00519183)
(-0.0526664 -0.0312857 1.46373e-20 0.0472055 -8.45198e-21 0.00546095)
(-0.0506605 -0.0301751 -1.80267e-20 0.0449338 -3.61438e-21 0.0057267)
(-0.0486912 -0.0290716 -4.16056e-20 0.0427099 -1.85452e-21 0.00598128)
(-0.0467468 -0.0279752 3.0585e-20 0.0405316 3.26089e-20 0.00621515)
(-0.0448141 -0.0268852 7.54189e-20 0.0383975 3.84805e-20 0.00641659)
(-0.0428788 -0.0257999 7.56181e-20 0.0363063 2.99088e-20 0.00657252)
(-0.0409257 -0.0247174 -1.57651e-20 0.0342581 2.3145e-20 0.00666755)
(-0.0389391 -0.0236346 -2.45037e-20 0.0322533 -1.29884e-21 0.00668583)
(-0.0369027 -0.0225479 -1.93914e-20 0.0302933 -1.73289e-20 0.00660934)
(-0.0348011 -0.0214529 -6.15156e-21 0.0283799 -3.56825e-20 0.00642123)
(-0.0326183 -0.0203437 -2.8786e-20 0.0265154 -3.57741e-20 0.00610283)
(-0.0303408 -0.0192137 3.04382e-20 0.0247017 4.88008e-21 0.00563905)
(-0.0279537 -0.0180545 -3.41713e-20 0.0229401 -1.80447e-20 0.00501365)
(-0.0254464 -0.0168571 -3.38876e-21 0.0212294 -1.11133e-20 0.00421702)
(-0.0228066 -0.0156102 -3.7231e-20 0.0195673 1.59186e-20 0.00323927)
(-0.0200362 -0.0142947 -9.97749e-21 0.0179557 6.25636e-20 0.00208054)
(-0.0171859 -0.0128314 1.61284e-20 0.016444 1.66689e-20 0.000741937)
(-0.0977058 -0.00884533 8.40185e-21 0.0975075 -1.10255e-20 0.000198315)
(-0.0994264 -0.020744 1.36587e-20 0.0988823 -1.23022e-20 0.000544079)
(-0.0996285 -0.0294468 1.53986e-20 0.0987748 -4.65272e-21 0.000853747)
(-0.0987567 -0.0357679 2.06215e-20 0.0976237 -8.238e-21 0.00113304)
(-0.0971387 -0.0402858 9.23923e-21 0.0957517 -7.56395e-21 0.00138692)
(-0.0950147 -0.0434253 -3.51763e-21 0.093395 -6.5467e-21 0.00161969)
(-0.0925594 -0.0455072 -2.95944e-21 0.0907242 -2.86615e-21 0.00183516)
(-0.0898975 -0.0467767 -6.56958e-21 0.0878607 1.18765e-20 0.00203685)
(-0.0871179 -0.0474232 7.00059e-21 0.08489 2.25422e-20 0.00222791)
(-0.0842836 -0.0475923 3.08492e-20 0.0818722 1.54783e-20 0.00241137)
(-0.0814392 -0.0473966 2.93291e-20 0.0788492 1.25845e-20 0.00258999)
(-0.0786165 -0.0469228 8.78402e-21 0.0758499 1.71403e-20 0.00276654)
(-0.0758375 -0.0462379 -4.96468e-21 0.072894 2.25456e-20 0.00294349)
(-0.0731179 -0.0453941 -2.45951e-20 0.0699945 1.66148e-20 0.0031234)
(-0.0704679 -0.0444316 -3.41886e-20 0.0671594 1.73429e-20 0.00330848)
(-0.0678942 -0.043382 -2.62265e-20 0.0643933 1.885e-20 0.00350096)
(-0.0654006 -0.0422698 -2.4421e-20 0.0616981 6.51185e-21 0.00370256)
(-0.0629887 -0.0411141 -4.34024e-20 0.0590739 6.59299e-21 0.00391488)