/*--------------------------------*- C++ -*----------------------------------*\
| =========                 |                                                 |
| \\      /  F ield         | foam-extend: Open Source CFD                    |
|  \\    /   O peration     | Version:  3.0                                   |
|   \\  /    A nd           | Web:         http://www.extend-project.de       |
|    \\/     M anipulation  |                                                 |
\*---------------------------------------------------------------------------*/
FoamFile
{
    version     2.0;
    format      ascii;
    class       volVectorField;
    location    "9.2";
    object      s;
}
// * * * * * * * * * * * * * * * * * * * * * * * * * * * * * * * * * * * * * //

dimensions      [0 0 0 0 0 0 0];

internalField   nonuniform List<vector> 
400
(
(-0.0389543 0.0818224 1.41194e-317)
(-0.065021 0.115722 2.54294e-317)
(-0.145965 0.118361 2.93949e-317)
(-0.187017 0.0964581 2.99991e-317)
(-0.246579 0.0812448 2.90908e-317)
(-0.279888 0.0592916 2.7501e-317)
(-0.316734 0.0447442 2.56557e-317)
(-0.337158 0.0276211 2.37642e-317)
(-0.353996 0.0146894 2.19134e-317)
(-0.36024 -1.12803e-05 2.01706e-317)
(-0.358586 -0.0130673 1.85274e-317)
(-0.34971 -0.0280656 1.70098e-317)
(-0.329329 -0.0425067 1.5585e-317)
(-0.304743 -0.0592669 1.42481e-317)
(-0.264848 -0.0746053 1.29573e-317)
(-0.226223 -0.0924801 1.16638e-317)
(-0.167858 -0.104841 1.02796e-317)
(-0.123149 -0.117386 8.66383e-318)
(-0.0535833 -0.10989 6.49005e-318)
(-0.0264117 -0.072708 3.1382e-318)
(-0.0424204 0.0457811 1.93496e-317)
(-0.0972101 0.101819 3.86223e-317)
(-0.185832 0.12431 4.71067e-317)
(-0.249706 0.12118 4.96895e-317)
(-0.324067 0.107426 4.92059e-317)
(-0.376608 0.0863918 4.71908e-317)
(-0.427482 0.0643386 4.44676e-317)
(-0.460381 0.0409204 4.15164e-317)
(-0.485335 0.01822 3.85253e-317)
(-0.495578 -0.00473794 3.56571e-317)
(-0.494015 -0.0273473 3.29041e-317)
(-0.480358 -0.0500225 3.03236e-317)
(-0.451976 -0.0723022 2.78451e-317)
(-0.414647 -0.0934757 2.54659e-317)
(-0.360537 -0.112223 2.30748e-317)
(-0.303386 -0.126011 2.05876e-317)
(-0.229151 -0.131187 1.78042e-317)
(-0.163661 -0.12241 1.44876e-317)
(-0.0833921 -0.0917672 1.01926e-317)
(-0.0320681 -0.0353287 4.29122e-318)
(-0.0416543 0.139477 1.91006e-317)
(-0.092833 0.244527 3.90487e-317)
(-0.179484 0.275024 4.84842e-317)
(-0.239945 0.257017 5.18634e-317)
(-0.309744 0.225952 5.19496e-317)
(-0.359734 0.18118 5.03035e-317)
(-0.407611 0.137313 4.77958e-317)
(-0.439933 0.0898308 4.49522e-317)
(-0.464472 0.0445427 4.19962e-317)
(-0.47601 -0.00231525 3.91092e-317)
(-0.476165 -0.0483299 3.63022e-317)
(-0.46502 -0.0955679 3.36358e-317)
(-0.439534 -0.142023 3.10425e-317)
(-0.404945 -0.187822 2.85101e-317)
(-0.353682 -0.229007 2.59089e-317)
(-0.298309 -0.263448 2.31241e-317)
(-0.225526 -0.282147 1.99146e-317)
(-0.159994 -0.279265 1.59804e-317)
(-0.0791784 -0.233612 1.09168e-317)
(-0.028584 -0.12299 4.2067e-318)
(-0.0254255 0.132654 1.66244e-317)
(-0.0698087 0.251974 3.4226e-317)
(-0.127463 0.294135 4.29121e-317)
(-0.176044 0.282769 4.63968e-317)
(-0.228018 0.252134 4.69798e-317)
(-0.269368 0.205684 4.59924e-317)
(-0.308169 0.156793 4.41636e-317)
(-0.336612 0.103693 4.1965e-317)
(-0.358696 0.0509489 3.95926e-317)
(-0.37112 -0.00356565 3.72205e-317)
(-0.37419 -0.0584383 3.48656e-317)
(-0.368325 -0.114366 3.25907e-317)
(-0.350333 -0.17025 3.03414e-317)
(-0.324603 -0.223976 2.81092e-317)
(-0.284624 -0.272673 2.57769e-317)
(-0.24001 -0.309538 2.3227e-317)
(-0.181708 -0.327326 2.02271e-317)
(-0.126233 -0.312082 1.64385e-317)
(-0.0640029 -0.247923 1.14338e-317)
(-0.0182124 -0.112687 4.55072e-318)
(-0.0201729 0.163667 1.30106e-317)
(-0.0506634 0.304935 2.70836e-317)
(-0.0939675 0.352052 3.44218e-317)
(-0.128518 0.339494 3.78096e-317)
(-0.167459 0.303603 3.89009e-317)
(-0.198473 0.2498 3.86974e-317)
(-0.228855 0.192467 3.7728e-317)
(-0.252286 0.129763 3.63671e-317)
(-0.27171 0.0668524 3.47726e-317)
(-0.284913 0.00104502 3.30982e-317)
(-0.291107 -0.0659416 3.13723e-317)
(-0.291536 -0.135262 2.96613e-317)
(-0.281486 -0.205528 2.79372e-317)
(-0.266324 -0.274391 2.62065e-317)
(-0.236741 -0.338372 2.43851e-317)
(-0.204455 -0.38865 2.23825e-317)
(-0.15516 -0.416963 1.99872e-317)
(-0.110676 -0.403588 1.68685e-317)
(-0.0526281 -0.330847 1.24257e-317)
(-0.0166043 -0.160196 5.63254e-318)
(-0.0102445 0.156387 8.63581e-318)
(-0.0313171 0.298978 1.87537e-317)
(-0.0533655 0.350615 2.46525e-317)
(-0.0753782 0.341694 2.79843e-317)
(-0.0988253 0.308583 2.96646e-317)
(-0.120339 0.256391 3.03358e-317)
(-0.141677 0.199661 3.03156e-317)
(-0.160438 0.13667 2.98764e-317)
(-0.177039 0.0724311 2.91367e-317)
(-0.191021 0.00432614 2.8228e-317)
(-0.200381 -0.066304 2.71892e-317)
(-0.207128 -0.140505 2.6088e-317)
(-0.205656 -0.21742 2.49192e-317)
(-0.201521 -0.293867 2.37014e-317)
(-0.184141 -0.366918 2.23769e-317)
(-0.165113 -0.424487 2.08731e-317)
(-0.128014 -0.458807 1.89939e-317)
(-0.0949868 -0.44187 1.64092e-317)
(-0.0447882 -0.358469 1.24286e-317)
(-0.015402 -0.162115 5.87375e-318)
(-0.00554491 0.158957 4.33455e-318)
(-0.0163338 0.304904 1.07018e-317)
(-0.0255425 0.358094 1.5288e-317)
(-0.0364471 0.351703 1.86106e-317)
(-0.0486498 0.319834 2.0867e-317)
(-0.0615798 0.26866 2.23574e-317)
(-0.0754279 0.212132 2.32118e-317)
(-0.089585 0.148658 2.36106e-317)
(-0.103366 0.0832334 2.36398e-317)
(-0.117607 0.012778 2.34123e-317)
(-0.129322 -0.061294 2.29758e-317)
(-0.141788 -0.140925 2.23991e-317)
(-0.147679 -0.225018 2.16956e-317)
(-0.154526 -0.311449 2.08907e-317)
(-0.147577 -0.396259 1.99476e-317)
(-0.142726 -0.467657 1.88086e-317)
(-0.113894 -0.514845 1.72977e-317)
(-0.0938195 -0.507109 1.51186e-317)
(-0.041697 -0.422364 1.15853e-317)
(-0.0218701 -0.202155 5.57842e-318)
(0.000533664 0.147447 4.21646e-319)
(-0.00330048 0.285684 3.4775e-318)
(0.00168221 0.339063 6.92894e-318)
(0.000159403 0.335439 1.02445e-317)
(-0.000466936 0.308063 1.3002e-317)
(-0.00552445 0.261352 1.52e-317)
(-0.011552 0.20933 1.68126e-317)
(-0.020842 0.149803 1.79398e-317)
(-0.031006 0.0878261 1.86387e-317)
(-0.0443556 0.0198754 1.90047e-317)
(-0.0572474 -0.0528371 1.90894e-317)
(-0.0736911 -0.132924 1.89599e-317)
(-0.0860578 -0.219751 1.86402e-317)
(-0.102082 -0.31188 1.81566e-317)
(-0.106135 -0.405752 1.74803e-317)
(-0.114097 -0.488687 1.65627e-317)
(-0.0966918 -0.549269 1.52431e-317)
(-0.0883533 -0.549807 1.32779e-317)
(-0.0399055 -0.465327 1.00822e-317)
(-0.0258559 -0.220593 4.77798e-318)
(0.00515412 0.138375 -2.57802e-318)
(0.00752617 0.269685 -2.15255e-318)
(0.0230015 0.321553 3.41958e-319)
(0.0290199 0.32086 3.57198e-318)
(0.0375642 0.297152 6.65577e-318)
(0.0393382 0.255118 9.35141e-318)
(0.0403477 0.207556 1.15157e-317)
(0.0360569 0.152429 1.31801e-317)
(0.030145 0.0945694 1.43773e-317)
(0.0188298 0.0300238 1.51843e-317)
(0.00647431 -0.0398959 1.56528e-317)
(-0.012373 -0.119171 1.58436e-317)
(-0.0289755 -0.206684 1.57844e-317)
(-0.0534152 -0.303816 1.54965e-317)
(-0.0664253 -0.404994 1.49542e-317)
(-0.0890884 -0.502112 1.41099e-317)
(-0.0810759 -0.576893 1.28236e-317)
(-0.0901233 -0.596509 1.09056e-317)
(-0.0392573 -0.517567 7.94992e-318)
(-0.0392041 -0.260543 3.45722e-318)
(0.00925367 0.12249 -4.65233e-318)
(0.0163778 0.241636 -6.17262e-318)
(0.0413869 0.291398 -4.48329e-318)
(0.0541472 0.293192 -1.44371e-318)
(0.0713976 0.274329 1.77711e-318)
(0.0799197 0.237998 4.76326e-318)
(0.0882157 0.196527 7.28616e-318)
(0.0897336 0.14756 9.3202e-318)
(0.0891929 0.0958354 1.08737e-317)
(0.081854 0.037138 1.20046e-317)
(0.0719994 -0.0274328 1.27601e-317)
(0.0539954 -0.102652 1.31936e-317)
(0.035363 -0.187922 1.33308e-317)
(0.0069446 -0.286321 1.31895e-317)
(-0.014368 -0.392913 1.27424e-317)
(-0.0465786 -0.501506 1.1945e-317)
(-0.0522917 -0.59301 1.06764e-317)
(-0.0730919 -0.63179 8.79735e-318)
(-0.0339099 -0.566412 6.08311e-318)
(-0.0389105 -0.295453 2.34128e-318)
(0.0136062 0.109064 -5.80906e-318)
(0.0233803 0.216378 -8.64193e-318)
(0.0561632 0.262405 -7.61897e-318)
(0.0734854 0.266487 -4.86829e-318)
(0.0978791 0.251337 -1.68821e-318)
(0.111943 0.220514 1.38975e-318)
(0.126936 0.184663 4.0824e-318)
(0.134149 0.141915 6.31678e-318)
(0.139555 0.0965966 8.07994e-318)
(0.137159 0.0444043 9.41036e-318)
(0.13168 -0.0134437 1.0347e-317)
(0.11627 -0.0829312 1.09333e-317)
(0.0986511 -0.162813 1.11924e-317)
(0.0674658 -0.259717 1.11367e-317)
(0.0412902 -0.366193 1.07414e-317)
(-0.00301892 -0.484078 9.96297e-318)
(-0.0193249 -0.58488 8.71025e-318)
(-0.0625538 -0.646614 6.8805e-318)
(-0.0272492 -0.58953 4.40881e-318)
(-0.0562241 -0.321359 1.34348e-318)
(0.0158241 0.0903075 -6.0803e-318)
(0.0285431 0.18471 -9.67582e-318)
(0.0666741 0.227344 -9.2285e-318)
(0.088658 0.233521 -6.86698e-318)
(0.119159 0.222288 -3.89112e-318)
(0.138928 0.196865 -8.93048e-319)
(0.1604 0.166812 1.8091e-318)
(0.173904 0.130527 4.10491e-318)
(0.185873 0.0919874 5.95959e-318)
(0.190117 0.0470979 7.39281e-318)
(0.190747 -0.00316587 8.43328e-318)
(0.181623 -0.0650749 9.11685e-318)
(0.167758 -0.13792 9.46319e-318)
(0.140476 -0.229883 9.48357e-318)
(0.111389 -0.334642 9.15664e-318)
(0.0654637 -0.457671 8.44829e-318)
(0.0338702 -0.571181 7.29286e-318)
(-0.0167249 -0.65647 5.61914e-318)
(-0.0100582 -0.62542 3.4538e-318)
(-0.0400992 -0.367614 9.19851e-319)
(0.0186113 0.076518 -6.08916e-318)
(0.0308942 0.157584 -1.00536e-317)
(0.073005 0.195015 -1.00069e-317)
(0.0970786 0.202162 -8.00577e-318)
(0.132185 0.19348 -5.28052e-318)
(0.155968 0.172749 -2.44404e-318)
(0.18278 0.147715 1.75458e-319)
(0.20153 0.117457 2.44122e-318)
(0.219625 0.0853911 4.30399e-318)
(0.230201 0.0477624 5.7675e-318)
(0.237766 0.00561092 6.85127e-318)
(0.235435 -0.0477083 7.58343e-318)
(0.228083 -0.11093 7.98148e-318)
(0.20512 -0.194661 8.05509e-318)
(0.178171 -0.29062 7.79169e-318)
(0.127041 -0.412166 7.16608e-318)
(0.0876408 -0.523255 6.14145e-318)
(0.0132927 -0.623498 4.67041e-318)
(0.00825679 -0.59574 2.81964e-318)
(-0.0591358 -0.354379 7.15718e-319)
(0.0184129 0.0578104 -5.28031e-318)
(0.0317818 0.127571 -9.30668e-318)
(0.0752027 0.160572 -9.64829e-318)
(0.102099 0.168842 -8.08743e-318)
(0.140665 0.162447 -5.72374e-318)
(0.168429 0.145914 -3.16322e-318)
(0.199773 0.125482 -7.37467e-319)
(0.223529 0.10079 1.39869e-318)
(0.247315 0.0747248 3.1807e-318)
(0.26474 0.0440633 4.5988e-318)
(0.279727 0.00966585 5.66464e-318)
(0.286904 -0.0346776 6.39961e-318)
(0.287968 -0.0880386 6.81959e-318)
(0.276579 -0.161402 6.93661e-318)
(0.254097 -0.247853 6.7451e-318)
(0.213259 -0.364007 6.23316e-318)
(0.161744 -0.477059 5.38415e-318)
(0.0926589 -0.595766 4.16914e-318)
(0.0404544 -0.60116 2.64364e-318)
(-0.0149064 -0.40641 8.53508e-319)
(0.017955 0.0464543 -5.15909e-318)
(0.0284457 0.103131 -8.94804e-318)
(0.0711767 0.12987 -9.37538e-318)
(0.0980534 0.137328 -8.05018e-318)
(0.13782 0.132154 -5.95535e-318)
(0.167146 0.119027 -3.64048e-318)
(0.200637 0.102542 -1.41817e-318)
(0.227027 0.0828389 5.60053e-319)
(0.254329 0.0621146 2.22622e-318)
(0.276245 0.0378009 3.56529e-318)
(0.297263 0.0106367 4.58292e-318)
(0.311644 -0.0248414 5.29619e-318)
(0.321776 -0.0675952 5.72074e-318)
(0.319238 -0.128301 5.86818e-318)
(0.30637 -0.199883 5.74223e-318)
(0.269096 -0.301506 5.33986e-318)
(0.219428 -0.398333 4.66279e-318)
(0.131894 -0.510715 3.69523e-318)
(0.0689829 -0.506185 2.46291e-318)
(-0.0370886 -0.327348 9.38898e-319)
(0.0147068 0.0311427 -3.77675e-318)
(0.0246789 0.0787541 -7.33686e-318)
(0.0658854 0.100076 -8.00211e-318)
(0.0937652 0.107233 -7.07729e-318)
(0.134389 0.102943 -5.36916e-318)
(0.164726 0.0927786 -3.40746e-318)
(0.199471 0.0798159 -1.47932e-318)
(0.227361 0.0644739 2.58164e-319)
(0.25701 0.0485226 1.73512e-318)
(0.282673 0.0297851 2.92975e-318)
(0.30878 0.0091239 3.8438e-318)
(0.3314 -0.0182596 4.49084e-318)
(0.350535 -0.0510315 4.885e-318)
(0.362795 -0.0992926 5.04025e-318)
(0.360347 -0.156393 4.96438e-318)
(0.344681 -0.243482 4.66368e-318)
(0.292081 -0.329294 4.14544e-318)
(0.230932 -0.448602 3.4034e-318)
(0.111074 -0.475119 2.42407e-318)
(0.0477042 -0.384593 1.09574e-318)
(0.00997065 0.0240423 -3.99671e-318)
(0.0156036 0.0584029 -6.84378e-318)
(0.0512274 0.0728273 -7.28526e-318)
(0.0765659 0.0776984 -6.41841e-318)
(0.113366 0.0741002 -4.94694e-318)
(0.141273 0.0666282 -3.26956e-318)
(0.17272 0.056914 -1.63035e-318)
(0.198453 0.0456435 -1.52424e-319)
(0.226057 0.0336704 1.10659e-318)
(0.25084 0.0197753 2.12861e-318)
(0.277579 0.00426512 2.91525e-318)
(0.301981 -0.0159083 3.47785e-318)
(0.326493 -0.0402025 3.82966e-318)
(0.344379 -0.0752496 3.9827e-318)
(0.353952 -0.117138 3.94956e-318)
(0.345133 -0.180036 3.7396e-318)
(0.309042 -0.241904 3.36836e-318)
(0.238843 -0.324828 2.83332e-318)
(0.132942 -0.32684 2.09627e-318)
(0.00997431 -0.218281 1.01411e-318)
(0.00359151 0.0143357 -2.13191e-318)
(0.00915424 0.0413315 -4.73569e-318)
(0.042678 0.0501164 -5.31397e-318)
(0.066432 0.0537268 -4.81709e-318)
(0.101381 0.0505405 -3.72741e-318)
(0.1258 0.0452132 -2.44935e-318)
(0.154598 0.0384928 -1.17153e-318)
(0.176898 0.030582 -1.48911e-320)
(0.202276 0.0225858 9.74846e-319)
(0.225459 0.0128809 1.77828e-318)
(0.251924 0.00272054 2.39693e-318)
(0.278812 -0.0112466 2.84e-318)
(0.30709 -0.0267619 3.11863e-318)
(0.335549 -0.0511259 3.24463e-318)
(0.354576 -0.0775988 3.22922e-318)
(0.370879 -0.124566 3.08349e-318)
(0.341964 -0.166165 2.82011e-318)
(0.320842 -0.250141 2.44036e-318)
(0.16705 -0.270731 1.896e-318)
(0.144426 -0.293602 1.01016e-318)
(-0.00251528 0.011066 -2.45207e-318)
(-0.00187949 0.0222409 -3.79225e-318)
(0.0192752 0.0253562 -3.93804e-318)
(0.0351324 0.0267276 -3.43987e-318)
(0.0571996 0.0249605 -2.67483e-318)
(0.0733159 0.0224783 -1.81773e-318)
(0.0907488 0.0186762 -9.91031e-319)
(0.105002 0.0144268 -2.48802e-319)
(0.120493 0.00931594 3.81656e-319)
(0.135123 0.00344921 8.93839e-319)
(0.152644 -0.00352908 1.28864e-318)
(0.169863 -0.0120633 1.57299e-318)
(0.191372 -0.0225344 1.75505e-318)
(0.209966 -0.0358207 1.84215e-318)
(0.230502 -0.0523154 1.84358e-318)
(0.239383 -0.0725395 1.76792e-318)
(0.235646 -0.0955927 1.62744e-318)
(0.204447 -0.114561 1.4252e-318)
(0.127653 -0.112704 1.11925e-318)
(0.0393865 -0.0297693 5.8816e-319)
(-0.00701116 0.00470597 -3.63257e-319)
(-0.001404 0.0132984 -1.42944e-318)
(0.0163446 0.0130368 -1.59995e-318)
(0.0259695 0.0135629 -1.45522e-318)
(0.0426833 0.0121397 -1.08413e-318)
(0.0502079 0.0106692 -6.75185e-319)
(0.0624513 0.00946842 -2.68633e-319)
(0.0691103 0.00760597 9.02411e-320)
(0.0795014 0.00663324 3.94259e-319)
(0.0879688 0.00450635 6.38313e-319)
(0.0996734 0.00360402 8.25065e-319)
(0.112761 0.00063625 9.5827e-319)
(0.127861 -0.000339564 1.04252e-318)
(0.147877 -0.00578457 1.08216e-318)
(0.164204 -0.0067584 1.08047e-318)
(0.190957 -0.0200004 1.04267e-318)
(0.189379 -0.0197146 9.75874e-319)
(0.218512 -0.0614329 8.86586e-319)
(0.120933 -0.0554506 7.6512e-319)
(0.191667 -0.176741 5.2905e-319)
)
;

boundaryField
{
    cavity
    {
        type            myHeatFlux;
        ThetaWall       uniform 0;
        value           nonuniform List<vector> 
60
(
(0.001 0 0)
(0.001 0 0)
(0.001 0 0)
(0.001 0 0)
(0.001 0 0)
(0.001 0 0)
(0.001 0 0)
(0.001 0 0)
(0.001 0 0)
(0.001 0 0)
(0.001 0 0)
(0.001 0 0)
(0.001 0 0)
(0.001 0 0)
(0.001 0 0)
(0.001 0 0)
(0.001 0 0)
(0.001 0 0)
(0.001 0 0)
(0.001 0 0)
(0 -0.001 0)
(0 -0.001 0)
(0 -0.001 0)
(0 -0.001 0)
(0 -0.001 0)
(0 -0.001 0)
(0 -0.001 0)
(0 -0.001 0)
(0 -0.001 0)
(0 -0.001 0)
(0 -0.001 0)
(0 -0.001 0)
(0 -0.001 0)
(0 -0.001 0)
(0 -0.001 0)
(0 -0.001 0)
(0 -0.001 0)
(0 -0.001 0)
(0 -0.001 0)
(0 -0.001 0)
(-0.001 0 0)
(-0.001 0 0)
(-0.001 0 0)
(-0.001 0 0)
(-0.001 0 0)
(-0.001 0 0)
(-0.001 0 0)
(-0.001 0 0)
(-0.001 0 0)
(-0.001 0 0)
(-0.001 0 0)
(-0.001 0 0)
(-0.001 0 0)
(-0.001 0 0)
(-0.001 0 0)
(-0.001 0 0)
(-0.001 0 0)
(-0.001 0 0)
(-0.001 0 0)
(-0.001 0 0)
)
;
    }
    lid
    {
        type            myHeatFlux;
        ThetaWall       uniform 0;
        value           nonuniform List<vector> 
20
(
(0.000135815 0.0009 0)
(0.000135815 0.0009 0)
(0.000135815 0.0009 0)
(0.000135815 0.0009 0)
(0.000135815 0.0009 0)
(0.000135815 0.0009 0)
(0.000135815 0.0009 0)
(0.000135815 0.0009 0)
(0.000135815 0.0009 0)
(0.000135815 0.0009 0)
(0.000135815 0.0009 0)
(0.000135815 0.0009 0)
(0.000135815 0.0009 0)
(0.000135815 0.0009 0)
(0.000135815 0.0009 0)
(0.000135815 0.0009 0)
(0.000135815 0.0009 0)
(0.000135815 0.0009 0)
(0.000135815 0.0009 0)
(0.000135815 0.0009 0)
)
;
    }
    frontAndBack
    {
        type            empty;
    }
}


// ************************************************************************* //
