/*--------------------------------*- C++ -*----------------------------------*\
| =========                 |                                                 |
| \\      /  F ield         | foam-extend: Open Source CFD                    |
|  \\    /   O peration     | Version:  3.0                                   |
|   \\  /    A nd           | Web:         http://www.extend-project.de       |
|    \\/     M anipulation  |                                                 |
\*---------------------------------------------------------------------------*/
FoamFile
{
    version     2.0;
    format      ascii;
    class       volSymmTensorField;
    location    "9.2";
    object      sigma;
}
// * * * * * * * * * * * * * * * * * * * * * * * * * * * * * * * * * * * * * //

dimensions      [0 0 0 0 0 0 0];

internalField   nonuniform List<symmTensor> 
400
(
(1.57142 0.939564 3.902e-316 -2.17693 4.20466e-316 0.605516)
(2.83724 0.0841245 3.83182e-316 -1.88191 4.31887e-316 -0.955339)
(3.36934 -0.992273 3.61485e-316 -1.70964 4.14141e-316 -1.6597)
(3.17129 -1.71542 3.35979e-316 -1.35951 3.83993e-316 -1.81178)
(2.91926 -2.50837 3.07029e-316 -1.18273 3.47799e-316 -1.73652)
(2.38534 -3.01707 2.79633e-316 -0.894035 3.12295e-316 -1.4913)
(1.93011 -3.48868 2.5272e-316 -0.726269 2.76709e-316 -1.20384)
(1.34856 -3.78067 2.2833e-316 -0.484302 2.45521e-316 -0.864261)
(0.836823 -3.99025 2.05508e-316 -0.314087 2.15379e-316 -0.522736)
(0.244995 -4.08336 1.84832e-316 -0.0877353 1.90248e-316 -0.157259)
(-0.307984 -4.07251 1.65869e-316 0.100198 1.65929e-316 0.207786)
(-0.923291 -3.97324 1.48305e-316 0.335305 1.46176e-316 0.587986)
(-1.50503 -3.74934 1.32303e-316 0.546491 1.2674e-316 0.958537)
(-2.1189 -3.45343 1.16741e-316 0.798636 1.11031e-316 1.32026)
(-2.64321 -3.00053 1.02442e-316 1.01661 9.5237e-317 1.6266)
(-3.1279 -2.51052 8.73953e-317 1.27256 8.20963e-317 1.85534)
(-3.35523 -1.80991 7.30591e-317 1.45142 6.85765e-317 1.90381)
(-3.37542 -1.1544 5.67766e-317 1.67533 5.62372e-317 1.70009)
(-2.7518 -0.247504 4.04634e-317 1.74937 4.25668e-317 1.00243)
(-1.41928 0.511845 2.22658e-317 1.84806 2.61944e-317 -0.428772)
(0.951699 0.766948 2.70033e-316 -2.3795 3.19549e-316 1.4278)
(1.93759 0.267324 2.71681e-316 -2.27399 3.65271e-316 0.336402)
(2.29634 -0.369148 2.60479e-316 -2.02829 3.69445e-316 -0.268055)
(2.3139 -0.872199 2.45391e-316 -1.76885 3.52096e-316 -0.545044)
(2.1374 -1.38442 2.27497e-316 -1.50441 3.2369e-316 -0.632996)
(1.82487 -1.7439 2.1005e-316 -1.22206 2.92515e-316 -0.602804)
(1.48635 -2.06283 1.92802e-316 -0.973127 2.59983e-316 -0.513226)
(1.07369 -2.25148 1.76831e-316 -0.688865 2.30509e-316 -0.384824)
(0.679916 -2.386 1.61754e-316 -0.439464 2.02085e-316 -0.240452)
(0.230571 -2.41477 1.4782e-316 -0.147973 1.78006e-316 -0.0825982)
(-0.195692 -2.38682 1.34877e-316 0.118375 1.55145e-316 0.0773171)
(-0.662663 -2.27535 1.22725e-316 0.423366 1.36458e-316 0.239297)
(-1.10329 -2.10722 1.11546e-316 0.712662 1.18651e-316 0.390633)
(-1.54793 -1.8827 1.00702e-316 1.02321 1.04439e-316 0.524714)
(-1.93958 -1.59956 9.07404e-317 1.32222 9.08423e-317 0.617354)
(-2.24697 -1.30287 8.04761e-317 1.60199 8.01156e-317 0.644978)
(-2.42394 -0.933937 7.06974e-317 1.86797 6.98353e-317 0.55597)
(-2.33185 -0.621324 5.96828e-317 2.04249 6.1112e-317 0.289355)
(-1.91915 -0.210386 4.79769e-317 2.18331 5.13268e-317 -0.264159)
(-0.899762 0.039722 3.39907e-317 2.13194 3.8096e-317 -1.23218)
(0.872439 1.63585 1.61842e-316 -2.51029 2.32775e-316 1.63785)
(1.55787 1.0382 1.71375e-316 -2.25942 3.06566e-316 0.701551)
(1.80665 0.463051 1.69764e-316 -1.99409 3.27441e-316 0.187445)
(1.75386 -0.0273934 1.64757e-316 -1.67495 3.19748e-316 -0.07891)
(1.63275 -0.488596 1.57076e-316 -1.42985 2.97708e-316 -0.202907)
(1.39683 -0.813024 1.48948e-316 -1.15842 2.70482e-316 -0.238412)
(1.17443 -1.09469 1.40219e-316 -0.94861 2.41224e-316 -0.225822)
(0.888233 -1.24877 1.31669e-316 -0.706317 2.13885e-316 -0.181915)
(0.622918 -1.3503 1.23105e-316 -0.49885 1.8769e-316 -0.124068)
(0.305646 -1.34648 1.14811e-316 -0.249742 1.64998e-316 -0.0559041)
(-0.0043076 -1.29051 1.0677e-316 -0.00816057 1.43822e-316 0.0124682)
(-0.356933 -1.15665 9.89756e-317 0.276713 1.2607e-316 0.0802199)
(-0.715008 -0.98383 9.16489e-317 0.578475 1.0956e-316 0.136533)
(-1.08426 -0.768601 8.45042e-317 0.907282 9.60307e-317 0.176976)
(-1.44988 -0.537109 7.80329e-317 1.26646 8.35944e-317 0.183423)
(-1.74426 -0.306291 7.16474e-317 1.60409 7.38253e-317 0.140169)
(-1.96875 -0.0750105 6.60089e-317 1.95755 6.53941e-317 0.0112025)
(-1.95131 0.121196 6.0126e-317 2.19772 5.94922e-317 -0.246415)
(-1.67229 0.327709 5.42458e-317 2.3856 5.44001e-317 -0.713309)
(-0.828031 0.504586 4.56273e-317 2.34144 4.85575e-317 -1.51341)
(0.416675 1.8612 3.90265e-317 -1.55897 1.35358e-316 1.1423)
(0.916123 1.34016 6.0121e-317 -1.51016 2.38306e-316 0.59404)
(1.10304 0.82232 7.21337e-317 -1.35158 2.75718e-316 0.248544)
(1.15508 0.392397 7.97885e-317 -1.20465 2.78187e-316 0.0495659)
(1.0958 0.000551501 8.43199e-317 -1.03983 2.63265e-316 -0.0559668)
(0.994576 -0.262317 8.66393e-317 -0.8939 2.41216e-316 -0.100676)
(0.869854 -0.481012 8.72354e-317 -0.759173 2.16212e-316 -0.110681)
(0.716273 -0.575602 8.64704e-317 -0.618397 1.92164e-316 -0.0978764)
(0.563152 -0.630045 8.46158e-317 -0.488336 1.68932e-316 -0.0748154)
(0.373124 -0.572444 8.19259e-317 -0.328279 1.48524e-316 -0.0448445)
(0.18088 -0.488135 7.8647e-317 -0.164913 1.29509e-316 -0.0159666)
(-0.0548671 -0.311002 7.49393e-317 0.0445247 1.13368e-316 0.0103425)
(-0.304409 -0.136468 7.11386e-317 0.279 9.84076e-317 0.0254085)
(-0.581941 0.0965212 6.7316e-317 0.556914 8.59639e-317 0.0250263)
(-0.876353 0.27959 6.40369e-317 0.881295 7.45121e-317 -0.00494186)
(-1.12251 0.465353 6.13127e-317 1.19966 6.54017e-317 -0.077146)
(-1.34803 0.555757 6.01591e-317 1.5663 5.76225e-317 -0.218267)
(-1.33421 0.578611 6.02516e-317 1.79235 5.29514e-317 -0.458137)
(-1.16911 0.517124 6.30879e-317 2.01194 5.15036e-317 -0.842822)
(-0.498402 0.334452 6.48095e-317 1.91076 5.67424e-317 -1.41236)
(0.387087 2.18149 -6.01429e-317 -1.29291 4.94931e-317 0.905821)
(0.723103 1.6759 -3.01864e-317 -1.18831 1.70987e-316 0.465205)
(0.853361 1.22559 -6.33501e-318 -1.06363 2.2086e-316 0.210268)
(0.868903 0.784437 1.23671e-317 -0.934208 2.32358e-316 0.0653051)
(0.860386 0.421448 2.70732e-317 -0.845948 2.24635e-316 -0.0144373)
(0.80387 0.148714 3.80233e-317 -0.751865 2.0832e-316 -0.052005)
(0.768848 -0.0541907 4.59461e-317 -0.702577 1.88331e-316 -0.0662711)
(0.695111 -0.152066 5.12853e-317 -0.630497 1.68243e-316 -0.064614)
(0.641631 -0.189359 5.45272e-317 -0.584561 1.486e-316 -0.0570702)
(0.539437 -0.125598 5.60975e-317 -0.494246 1.30862e-316 -0.0451905)
(0.436137 -0.0154932 5.63817e-317 -0.399501 1.14281e-316 -0.0366352)
(0.26973 0.182627 5.56651e-317 -0.237968 9.96965e-317 -0.0317618)
(0.0707665 0.390999 5.43398e-317 -0.0310555 8.60384e-317 -0.0397109)
(-0.188608 0.662752 5.25361e-317 0.251975 7.39262e-317 -0.0633674)
(-0.504719 0.868969 5.07892e-317 0.62237 6.23227e-317 -0.117651)
(-0.813227 1.1007 4.90964e-317 1.02692 5.17654e-317 -0.213697)
(-1.15058 1.15242 4.83286e-317 1.53046 4.17018e-317 -0.379879)
(-1.26666 1.1897 4.82724e-317 1.9137 3.32387e-317 -0.647047)
(-1.24505 0.963545 5.01967e-317 2.31834 2.87036e-317 -1.07329)
(-0.612559 0.710563 5.2958e-317 2.35274 3.48755e-317 -1.74018)
(0.129398 2.35742 -1.49256e-316 -0.64708 -3.01912e-317 0.517682)
(0.300865 1.82246 -1.12077e-316 -0.572882 1.03283e-316 0.272017)
(0.405709 1.34319 -7.72558e-317 -0.524393 1.62802e-316 0.118684)
(0.454511 0.907244 -4.83127e-317 -0.483728 1.8294e-316 0.0292177)
(0.50018 0.538743 -2.41428e-317 -0.480419 1.82767e-316 -0.0197605)
(0.523428 0.285825 -5.33999e-318 -0.480532 1.72973e-316 -0.0428958)
(0.563846 0.0900042 9.23437e-318 -0.512337 1.58586e-316 -0.0515089)
(0.584327 0.0199698 1.99494e-317 -0.533445 1.43129e-316 -0.0508816)
(0.620347 -0.00227376 2.76095e-317 -0.572965 1.27444e-316 -0.0473814)
(0.618675 0.102022 3.27023e-317 -0.575844 1.1289e-316 -0.0428308)
(0.617978 0.240173 3.57627e-317 -0.575252 9.90529e-317 -0.0427257)
(0.546012 0.502492 3.71488e-317 -0.497199 8.66315e-317 -0.0488129)
(0.452172 0.758519 3.72288e-317 -0.383418 7.48476e-317 -0.0687533)
(0.251866 1.12159 3.61966e-317 -0.144114 6.41562e-317 -0.107752)
(0.0156561 1.38394 3.43493e-317 0.164683 5.37201e-317 -0.180339)
(-0.314825 1.70233 3.17468e-317 0.616844 4.38904e-317 -0.302019)
(-0.637547 1.76128 2.87518e-317 1.14197 3.41304e-317 -0.504426)
(-0.887959 1.7808 2.54524e-317 1.71633 2.51864e-317 -0.828373)
(-0.937882 1.4108 2.25886e-317 2.28037 1.84655e-317 -1.34248)
(-0.501793 0.904968 2.16508e-317 2.6335 1.72514e-317 -2.13171)
(0.0784615 2.43081 -1.9805e-316 -0.313083 -8.6447e-317 0.234621)
(0.137446 1.90966 -1.59769e-316 -0.229066 4.43639e-317 0.0916206)
(0.216309 1.44207 -1.19865e-316 -0.232298 1.07771e-316 0.0159883)
(0.258598 1.00041 -8.55589e-317 -0.234795 1.34331e-316 -0.023803)
(0.349816 0.632671 -5.63489e-317 -0.306536 1.40986e-316 -0.0432802)
(0.412547 0.3616 -3.31697e-317 -0.362355 1.37541e-316 -0.0501919)
(0.521394 0.159002 -1.49313e-317 -0.470286 1.28856e-316 -0.0511078)
(0.601778 0.06287 -1.11002e-318 -0.553794 1.18169e-316 -0.0479834)
(0.718647 0.0351607 9.14181e-318 -0.672958 1.06624e-316 -0.0456888)
(0.788322 0.115092 1.64363e-317 -0.74391 9.53926e-317 -0.0444121)
(0.873286 0.26486 2.13463e-317 -0.823356 8.44454e-317 -0.0499302)
(0.867829 0.522857 2.42682e-317 -0.80484 7.42789e-317 -0.062989)
(0.84025 0.828032 2.55742e-317 -0.747315 6.44769e-317 -0.0929358)
(0.664671 1.23242 2.53972e-317 -0.519986 5.52487e-317 -0.144685)
(0.425038 1.59405 2.39796e-317 -0.188193 4.60431e-317 -0.236846)
(0.0205113 2.02152 2.11988e-317 0.366963 3.68509e-317 -0.387474)
(-0.434066 2.20758 1.72724e-317 1.07327 2.72112e-317 -0.639207)
(-0.878383 2.40029 1.21798e-317 1.92581 1.70654e-317 -1.04743)
(-1.13226 2.11794 6.53688e-318 2.85146 7.27429e-318 -1.7192)
(-0.740691 1.81788 3.0886e-318 3.56274 9.81511e-320 -2.82205)
(-0.0955106 2.4768 -2.26415e-316 0.226692 -1.25151e-316 -0.131182)
(-0.16256 1.90246 -1.8998e-316 0.276434 -3.75703e-318 -0.113875)
(-0.119784 1.38542 -1.4841e-316 0.218688 5.95651e-317 -0.098904)
(-0.0612766 0.944066 -1.11599e-316 0.147264 9.05024e-317 -0.0859878)
(0.0536257 0.553985 -7.96149e-317 0.0202937 1.02801e-316 -0.0739194)
(0.166026 0.289668 -5.38802e-317 -0.102976 1.05027e-316 -0.0630504)
(0.315093 0.0702013 -3.33219e-317 -0.26159 1.01497e-316 -0.0535033)
(0.459552 -0.0233981 -1.75232e-317 -0.414105 9.52266e-317 -0.0454473)
(0.633433 -0.0636419 -5.57435e-318 -0.592896 8.74658e-317 -0.0405365)
(0.783016 0.0278175 3.10934e-318 -0.743589 7.93717e-317 -0.0394269)
(0.950165 0.185679 9.11749e-318 -0.904282 7.11374e-317 -0.0458826)
(1.03636 0.492498 1.28414e-317 -0.97394 6.32675e-317 -0.0624174)
(1.11783 0.85463 1.45835e-317 -1.02071 5.55715e-317 -0.0971128)
(1.01771 1.37925 1.44881e-317 -0.85946 4.82682e-317 -0.158254)
(0.895463 1.87088 1.2581e-317 -0.630392 4.09969e-317 -0.265071)
(0.48354 2.50036 8.7935e-318 -0.0405356 3.37069e-317 -0.443005)
(0.105889 2.86581 2.86358e-318 0.636397 2.58734e-317 -0.742286)
(-0.508356 3.26146 -5.02853e-318 1.74609 1.68231e-317 -1.23774)
(-0.777488 3.07609 -1.51168e-317 2.84043 5.49371e-318 -2.06294)
(-0.645174 2.74672 -2.37197e-317 4.05716 -1.12399e-317 -3.41199)
(-0.185617 2.38654 -2.19823e-316 0.671874 -1.40526e-316 -0.486257)
(-0.328045 1.83728 -1.90015e-316 0.650009 -3.82706e-317 -0.321964)
(-0.302452 1.3247 -1.52426e-316 0.519251 2.0335e-317 -0.2168)
(-0.230865 0.890909 -1.17901e-316 0.381434 5.28881e-317 -0.150569)
(-0.0923329 0.498516 -8.73545e-317 0.199727 6.91582e-317 -0.107394)
(0.0491357 0.216987 -6.22791e-317 0.0295051 7.59142e-317 -0.0786408)
(0.235233 -0.0208834 -4.20147e-317 -0.176124 7.67915e-317 -0.0591098)
(0.419228 -0.15597 -2.61401e-317 -0.373708 7.44186e-317 -0.0455198)
(0.649319 -0.224215 -1.39266e-317 -0.611218 7.00932e-317 -0.0381013)
(0.856214 -0.189182 -4.80299e-318 -0.820302 6.48995e-317 -0.0359114)
(1.10475 -0.0481873 1.75311e-318 -1.06167 5.92274e-317 -0.043081)
(1.26502 0.207789 6.11238e-318 -1.20391 5.35635e-317 -0.061108)
(1.44172 0.602615 8.5754e-318 -1.34186 4.79349e-317 -0.0998572)
(1.40431 1.12191 9.25719e-318 -1.23707 4.25509e-317 -0.167237)
(1.33831 1.75187 8.23424e-318 -1.05148 3.72595e-317 -0.286828)
(0.900006 2.48786 5.38066e-318 -0.413371 3.19695e-317 -0.486636)
(0.431127 3.14673 4.8833e-319 0.398125 2.62207e-317 -0.829252)
(-0.396803 3.85055 -6.42202e-318 1.80318 1.89729e-317 -1.40638)
(-0.941481 4.09621 -1.57672e-317 3.34189 8.18507e-318 -2.40041)
(-0.968508 4.37099 -2.49199e-317 5.09351 -1.0746e-317 -4.125)
(-0.314103 2.23736 -2.02631e-316 1.17307 -1.41382e-316 -0.858966)
(-0.552082 1.68116 -1.79882e-316 1.08253 -5.88225e-317 -0.530445)
(-0.579102 1.16017 -1.47855e-316 0.910438 -7.20496e-318 -0.331336)
(-0.497951 0.751898 -1.17176e-316 0.709805 2.47351e-317 -0.211854)
(-0.369235 0.355617 -8.92954e-317 0.50718 4.30338e-317 -0.137945)
(-0.203723 0.0793959 -6.59525e-317 0.295642 5.27523e-317 -0.0919188)
(-0.0165913 -0.17939 -4.67403e-317 0.0785275 5.67418e-317 -0.0619362)
(0.200089 -0.333088 -3.14716e-317 -0.15759 5.72511e-317 -0.0424984)
(0.444642 -0.434268 -1.95293e-317 -0.41379 5.55177e-317 -0.030852)
(0.703997 -0.424072 -1.0473e-317 -0.677667 5.25723e-317 -0.0263296)
(0.993445 -0.306601 -3.84738e-318 -0.962325 4.89045e-317 -0.0311202)
(1.23662 -0.046156 6.73891e-319 -1.18837 4.50209e-317 -0.0482546)
(1.49723 0.377905 3.33416e-318 -1.41128 4.10838e-317 -0.0859438)
(1.56627 0.993046 4.29826e-318 -1.4113 3.7352e-317 -0.154971)
(1.63536 1.77367 3.56613e-318 -1.35729 3.38223e-317 -0.278068)
(1.27085 2.77474 1.20566e-318 -0.781602 3.04914e-317 -0.489248)
(0.966838 3.76057 -3.12258e-318 -0.111983 2.69561e-317 -0.854855)
(0.0626368 4.89985 -9.16634e-318 1.41963 2.21875e-317 -1.48227)
(-0.361562 5.54683 -1.76864e-317 2.93054 1.32479e-317 -2.56897)
(-0.672027 6.10292 -2.72557e-317 5.08717 -6.60237e-318 -4.41515)
(-0.429474 2.00627 -1.67353e-316 1.65228 -1.29813e-316 -1.2228)
(-0.699539 1.51109 -1.53589e-316 1.42493 -6.98227e-317 -0.725387)
(-0.746512 1.03296 -1.30069e-316 1.18176 -2.68792e-317 -0.435252)
(-0.646507 0.649645 -1.05684e-316 0.912512 2.73726e-318 -0.266005)
(-0.524008 0.26931 -8.27193e-317 0.688654 2.17316e-317 -0.164646)
(-0.348215 -0.0181313 -6.28055e-317 0.451574 3.33246e-317 -0.103359)
(-0.159135 -0.293227 -4.60661e-317 0.223912 3.96107e-317 -0.0647774)
(0.0704751 -0.490298 -3.24146e-317 -0.0303953 4.239e-317 -0.0400798)
(0.337624 -0.631233 -2.15073e-317 -0.312488 4.27933e-317 -0.0251353)
(0.628261 -0.692988 -1.29992e-317 -0.610439 4.17647e-317 -0.0178223)
(0.97594 -0.621595 -6.54996e-318 -0.955459 3.98482e-317 -0.0204817)
(1.28371 -0.452926 -1.87783e-318 -1.2487 3.75464e-317 -0.0350108)
(1.64901 -0.0405814 1.26423e-318 -1.57837 3.51107e-317 -0.0706357)
(1.81444 0.494957 3.05005e-318 -1.67761 3.28168e-317 -0.136834)
(2.0085 1.38585 3.62495e-318 -1.75009 3.07561e-317 -0.258413)
(1.70557 2.40309 3.09832e-318 -1.23717 2.8971e-317 -0.4684)
(1.41601 3.75656 1.46301e-318 -0.577061 2.71571e-317 -0.838949)
(0.350931 5.18594 -1.1506e-318 1.13352 2.44747e-317 -1.48445)
(-0.384947 6.54284 -5.09799e-318 3.02631 1.82386e-317 -2.64136)
(-1.06918 7.98425 -1.09476e-317 5.82793 3.3736e-318 -4.75875)
(-0.507958 1.66384 -1.36382e-316 2.02653 -1.10116e-316 -1.51857)
(-0.860633 1.24219 -1.28682e-316 1.74616 -6.80407e-317 -0.885527)
(-0.966216 0.829849 -1.11845e-316 1.48421 -3.43947e-317 -0.51799)
(-0.872249 0.502834 -9.2985e-317 1.17927 -8.90951e-318 -0.307023)
(-0.777954 0.152108 -7.44346e-317 0.961047 8.85897e-318 -0.183093)
(-0.601658 -0.126988 -5.78803e-317 0.711402 2.0626e-317 -0.109744)
(-0.437966 -0.41216 -4.3573e-317 0.501938 2.77662e-317 -0.0639724)
(-0.20563 -0.636183 -3.16599e-317 0.240598 3.16377e-317 -0.0349685)
(0.0357441 -0.813657 -2.19221e-317 -0.0194847 3.32061e-317 -0.0162593)
(0.342367 -0.923308 -1.41718e-317 -0.3365 3.32971e-317 -0.00586698)
(0.673582 -0.899643 -8.15897e-318 -0.669186 3.24464e-317 -0.00439579)
(1.03377 -0.775038 -3.66357e-318 -1.01904 3.11253e-317 -0.0147272)
(1.41704 -0.383186 -4.93028e-319 -1.37315 2.96174e-317 -0.0438881)
(1.69961 0.178876 1.56817e-318 -1.59687 2.81989e-317 -0.102743)
(1.98542 1.17109 2.6398e-318 -1.77298 2.70044e-317 -0.212436)
(1.8628 2.42406 3.01188e-318 -1.45557 2.6131e-317 -0.407229)
(1.78254 4.15127 2.71285e-318 -1.0298 2.53433e-317 -0.752737)
(0.867736 6.16946 2.07941e-318 0.49501 2.41405e-317 -1.36275)
(0.445075 8.19043 9.11512e-319 2.00601 2.02747e-317 -2.45109)
(-0.373469 10.2501 -2.38381e-318 4.71928 9.8699e-318 -4.34581)
(-0.617262 1.36788 -1.03747e-316 2.39178 -9.40802e-317 -1.77451)
(-0.952517 1.02455 -1.01417e-316 1.9577 -6.83406e-317 -1.00518)
(-1.08457 0.689302 -9.1086e-317 1.65893 -4.20876e-317 -0.57436)
(-0.978851 0.395514 -7.77068e-317 1.31135 -1.9861e-317 -0.332497)
(-0.913276 0.0779716 -6.38432e-317 1.10652 -2.98586e-318 -0.193248)
(-0.745612 -0.200838 -5.08776e-317 0.857719 8.98071e-318 -0.112108)
(-0.604115 -0.489633 -3.93174e-317 0.666244 1.68554e-317 -0.0621285)
(-0.383847 -0.73875 -2.93588e-317 0.414116 2.16798e-317 -0.0302686)
(-0.15274 -0.948455 -2.09863e-317 0.161936 2.42804e-317 -0.00919501)
(0.150007 -1.11481 -1.41053e-317 -0.154086 2.53997e-317 0.00407926)
(0.497935 -1.14958 -8.56916e-318 -0.506915 2.55481e-317 0.00897977)
(0.886446 -1.12455 -4.20916e-318 -0.890209 2.51639e-317 0.00376312)
(1.34614 -0.796936 -8.37189e-319 -1.32752 2.45281e-317 -0.0186181)
(1.7225 -0.375849 1.7526e-318 -1.65578 2.38924e-317 -0.06672)
(2.17115 0.628159 3.79858e-318 -2.01064 2.33801e-317 -0.160504)
(2.19259 1.74418 5.56641e-318 -1.86443 2.30769e-317 -0.328163)
(2.27321 3.74824 7.39122e-318 -1.64384 2.27922e-317 -0.629371)
(1.30974 5.80293 9.41297e-318 -0.145066 2.22455e-317 -1.16468)
(0.627703 8.58118 1.1967e-317 1.52686 2.0162e-317 -2.15456)
(-0.890708 11.4063 1.25976e-317 4.98149 1.54621e-317 -4.09079)
(-0.640778 0.918205 -8.02188e-317 2.53736 -6.83535e-317 -1.89658)
(-1.05818 0.71478 -7.90875e-317 2.12058 -5.43528e-317 -1.06239)
(-1.23389 0.513669 -7.19254e-317 1.83042 -3.6507e-317 -0.596537)
(-1.1519 0.289842 -6.27393e-317 1.49077 -1.95086e-317 -0.338866)
(-1.10832 0.0326366 -5.27529e-317 1.30116 -5.51869e-318 -0.19284)
(-0.952856 -0.232205 -4.30885e-317 1.0618 4.86979e-318 -0.10894)
(-0.841804 -0.507974 -3.40622e-317 0.899182 1.19937e-317 -0.0573774)
(-0.638893 -0.772073 -2.60073e-317 0.663263 1.65405e-317 -0.0243698)
(-0.45918 -0.998098 -1.89964e-317 0.46059 1.91599e-317 -0.00141075)
(-0.177729 -1.20521 -1.30703e-317 0.163505 2.04543e-317 0.0142246)
(0.0987314 -1.2858 -8.1731e-318 -0.121974 2.08625e-317 0.0232422)
(0.48831 -1.32714 -4.20506e-318 -0.511751 2.07557e-317 0.0234412)
(0.876162 -1.06334 -1.0413e-318 -0.886286 2.03829e-317 0.0101245)
(1.33668 -0.696268 1.5171e-318 -1.31152 1.99554e-317 -0.0251581)
(1.76184 0.302133 3.63993e-318 -1.66525 1.95751e-317 -0.0965937)
(2.03929 1.52591 5.64808e-318 -1.81095 1.93173e-317 -0.22834)
(2.24728 3.79383 7.78478e-318 -1.78519 1.90217e-317 -0.462087)
(1.76216 6.42925 1.02865e-317 -0.888031 1.86061e-317 -0.874127)
(1.52355 9.97803 1.34505e-317 0.0801899 1.74806e-317 -1.60374)
(0.371955 13.7752 1.51845e-317 2.46815 1.57849e-317 -2.84011)
(-0.705406 0.667384 -6.15478e-317 2.6503 -6.72361e-317 -1.9449)
(-1.05311 0.507509 -6.13392e-317 2.11246 -5.95624e-317 -1.05936)
(-1.25504 0.369482 -5.64871e-317 1.83847 -4.35158e-317 -0.583433)
(-1.17391 0.17036 -5.04331e-317 1.50005 -2.68802e-317 -0.326141)
(-1.16296 -0.0568665 -4.35147e-317 1.34581 -1.32081e-317 -0.182845)
(-1.02741 -0.303923 -3.64584e-317 1.12887 -2.86638e-318 -0.101469)
(-0.943697 -0.566794 -2.95365e-317 0.995335 4.32708e-318 -0.051638)
(-0.768449 -0.820721 -2.30728e-317 0.787763 9.14537e-318 -0.0193145)
(-0.61919 -1.05389 -1.72469e-317 0.615287 1.21737e-317 0.00390347)
(-0.373866 -1.27558 -1.21547e-317 0.352796 1.39829e-317 0.0210706)
(-0.123741 -1.40158 -7.80704e-318 0.0908225 1.49603e-317 0.0329186)
(0.240738 -1.50948 -4.14288e-318 -0.278904 1.54293e-317 0.0381664)
(0.645623 -1.34491 -1.04821e-318 -0.678336 1.55954e-317 0.0327131)
(1.14419 -1.13051 1.6391e-318 -1.15484 1.56261e-317 0.0106588)
(1.70759 -0.259045 4.14003e-318 -1.66857 1.55812e-317 -0.039014)
(2.13914 0.687673 6.66142e-318 -2.00758 1.5492e-317 -0.131557)
(2.6411 2.95302 9.56391e-318 -2.34793 1.52235e-317 -0.293172)
(2.20802 5.17515 1.28114e-317 -1.64168 1.47232e-317 -0.566347)
(1.93162 9.14529 1.68808e-317 -0.880671 1.4103e-317 -1.05095)
(-0.403559 12.8855 1.99885e-317 2.49991 1.48769e-317 -2.09635)
(-0.682993 0.235512 -3.47853e-317 2.5143 -3.46589e-317 -1.83131)
(-1.11615 0.237414 -3.67416e-317 2.09966 -3.72036e-317 -0.983511)
(-1.31749 0.276295 -3.60314e-317 1.85086 -2.87874e-317 -0.53337)
(-1.26344 0.138566 -3.47033e-317 1.55788 -1.76776e-317 -0.294436)
(-1.24616 -0.00209697 -3.19121e-317 1.40945 -7.74078e-318 -0.163288)
(-1.1176 -0.225414 -2.79992e-317 1.20717 -5.62543e-320 -0.0895713)
(-1.05367 -0.439767 -2.34389e-317 1.0979 5.39187e-318 -0.0442298)
(-0.90094 -0.679071 -1.87024e-317 0.915373 9.05044e-318 -0.0144332)
(-0.810569 -0.886118 -1.41578e-317 0.802577 1.1348e-317 0.00799177)
(-0.612085 -1.10989 -1.00159e-317 0.586541 1.26873e-317 0.0255447)
(-0.466253 -1.24517 -6.38359e-318 0.426632 1.33618e-317 0.0396208)
(-0.155135 -1.39231 -3.25931e-318 0.106325 1.36105e-317 0.0488104)
(0.100736 -1.29449 -5.95171e-319 -0.151632 1.35939e-317 0.0508969)
(0.606984 -1.16785 1.73839e-318 -0.647757 1.3435e-317 0.0407728)
(0.996106 -0.413457 3.86131e-318 -1.00889 1.31759e-317 0.0127867)
(1.672 0.473733 5.9667e-318 -1.62936 1.2828e-317 -0.0426371)
(2.05687 2.73428 8.19473e-318 -1.92626 1.22822e-317 -0.130619)
(2.45208 5.32249 1.05705e-317 -2.19737 1.15285e-317 -0.25471)
(2.46678 9.88908 1.32007e-317 -2.08781 1.09024e-317 -0.378972)
(1.57649 15.0661 1.52746e-317 -1.27789 1.1774e-317 -0.298592)
(-0.652668 0.126872 -2.28594e-317 2.26966 -5.56704e-317 -1.61699)
(-0.952865 0.0734718 -2.62387e-317 1.79672 -5.22085e-317 -0.843852)
(-1.1638 0.0828904 -2.70463e-317 1.61419 -3.93295e-317 -0.450393)
(-1.12219 -0.0486427 -2.73023e-317 1.3686 -2.5117e-317 -0.24641)
(-1.12703 -0.195946 -2.58446e-317 1.263 -1.48525e-317 -0.135974)
(-1.02634 -0.377752 -2.32052e-317 1.1007 -7.24528e-318 -0.0743609)
(-0.981447 -0.572774 -1.97831e-317 1.01765 -2.09835e-318 -0.0361987)
(-0.86402 -0.764126 -1.60638e-317 0.87464 1.47567e-318 -0.0106205)
(-0.803165 -0.953658 -1.23931e-317 0.79377 3.87388e-318 0.00939491)
(-0.657059 -1.14693 -8.97525e-318 0.631048 5.49767e-318 0.0260113)
(-0.553599 -1.3002 -5.91517e-318 0.513099 6.57167e-318 0.0405004)
(-0.311714 -1.46385 -3.21885e-318 0.259691 7.28162e-318 0.0520232)
(-0.0895573 -1.46695 -8.3587e-319 0.0305328 7.73524e-318 0.0590245)
(0.357823 -1.45737 1.32761e-318 -0.416093 8.01193e-318 0.05827)
(0.804601 -0.950151 3.40828e-318 -0.851345 8.1291e-318 0.0467443)
(1.49759 -0.395236 5.47577e-318 -1.51889 8.07987e-318 0.0212999)
(2.21388 1.45279 7.69768e-318 -2.20366 7.80623e-318 -0.0102216)
(2.56687 3.17297 9.85993e-318 -2.54761 7.28665e-318 -0.0192683)
(3.02738 7.34132 1.20542e-317 -3.11319 7.03077e-318 0.085811)
(0.214645 10.6844 1.3923e-317 -0.540944 8.50211e-318 0.326298)
(-0.588383 -0.200063 2.24742e-317 1.84089 -1.346e-318 -1.25251)
(-0.987199 -0.0915651 8.53903e-318 1.6305 -1.61224e-317 -0.643299)
(-1.11807 0.129644 -4.26995e-318 1.4579 -1.41228e-317 -0.339828)
(-1.08213 0.0498548 -1.11943e-317 1.26744 -8.36246e-318 -0.18531)
(-1.04813 0.0379964 -1.46007e-317 1.15048 -2.87597e-318 -0.102358)
(-0.934755 -0.105663 -1.47438e-317 0.991053 1.40644e-318 -0.056298)
(-0.901282 -0.196704 -1.33613e-317 0.928581 4.57235e-318 -0.0272991)
(-0.798732 -0.340909 -1.10763e-317 0.806192 6.79022e-318 -0.00745939)
(-0.792993 -0.445275 -8.55598e-318 0.784159 8.28676e-318 0.00883392)
(-0.69683 -0.584099 -6.06427e-318 0.673871 9.23116e-318 0.0229587)
(-0.699513 -0.677091 -3.78809e-318 0.663262 9.76718e-318 0.036251)
(-0.540139 -0.793656 -1.76603e-318 0.49222 1.00064e-317 0.0479183)
(-0.498432 -0.796318 1.49702e-321 0.440968 1.00287e-317 0.0574642)
(-0.129494 -0.788186 1.58291e-318 0.0670695 9.89089e-318 0.0624245)
(0.0260133 -0.419874 3.02968e-318 -0.0884863 9.60742e-318 0.0624729)
(0.838447 0.0316878 4.41887e-318 -0.895378 9.17649e-318 0.0569313)
(1.10088 1.54803 5.72835e-318 -1.16353 8.54731e-318 0.0626497)
(2.49789 3.28908 6.85533e-318 -2.62628 7.70374e-318 0.128391)
(2.54222 7.42384 7.54235e-318 -3.00436 7.01361e-318 0.462141)
(3.10018 12.9071 8.03708e-318 -4.96376 7.06225e-318 1.86358)
(-0.37118 -0.109666 5.92594e-318 1.16406 -4.41097e-317 -0.792881)
(-0.517499 -0.215932 -2.10293e-318 0.917789 -3.4297e-317 -0.40029)
(-0.641936 -0.230839 -8.17091e-318 0.852368 -2.45228e-317 -0.210432)
(-0.631387 -0.313643 -1.12011e-317 0.746574 -1.54317e-317 -0.115187)
(-0.624455 -0.42547 -1.18907e-317 0.68861 -1.06505e-317 -0.0641547)
(-0.568638 -0.503624 -1.12837e-317 0.604503 -7.34972e-318 -0.0358649)
(-0.546616 -0.613849 -9.91198e-318 0.564215 -5.3015e-318 -0.0175984)
(-0.492761 -0.69306 -8.22238e-318 0.497555 -3.80892e-318 -0.00479406)
(-0.486673 -0.796235 -6.46295e-318 0.480429 -2.72971e-318 0.00624439)
(-0.437242 -0.894594 -4.779e-318 0.421024 -1.88971e-318 0.0162175)
(-0.436279 -1.00317 -3.24053e-318 0.410168 -1.23278e-318 0.0261113)
(-0.350116 -1.12794 -1.85804e-318 0.314676 -7.05862e-319 0.0354409)
(-0.309796 -1.21798 -6.10087e-319 0.2657 -2.8681e-319 0.0440959)
(-0.0916276 -1.32344 5.42454e-319 0.0409616 4.08889e-320 0.0506659)
(0.079622 -1.24293 1.6618e-318 -0.135182 2.83935e-319 0.0555596)
(0.575892 -1.14556 2.73218e-318 -0.635026 4.45203e-319 0.0591335)
(1.06781 -0.385738 3.78093e-318 -1.14397 5.48536e-319 0.0761588)
(1.71331 0.265613 4.59418e-318 -1.8611 6.20344e-319 0.147787)
(2.85252 2.77432 4.98749e-318 -3.28714 8.84066e-319 0.434619)
(0.220453 3.72072 5.28035e-318 -1.44208 1.98385e-318 1.22162)
(-0.190824 -0.441638 4.94002e-317 0.448407 3.17172e-317 -0.257584)
(-0.522297 -0.246518 3.00402e-317 0.657353 5.16572e-318 -0.135056)
(-0.466218 0.0791157 1.01964e-317 0.537996 6.27972e-319 -0.0717779)
(-0.425931 0.0840577 2.45096e-318 0.465933 6.37246e-320 -0.0400018)
(-0.374184 0.25708 -1.95713e-318 0.39693 2.16407e-318 -0.0227469)
(-0.288175 0.226334 -3.08143e-318 0.301358 4.27232e-318 -0.013183)
(-0.287417 0.326384 -3.24098e-318 0.294111 6.35597e-318 -0.00669419)
(-0.236025 0.30985 -2.71888e-318 0.238051 8.01409e-318 -0.00202648)
(-0.280255 0.380758 -2.045e-318 0.277985 9.3106e-318 0.00227033)
(-0.261151 0.399068 -1.31926e-318 0.254861 1.02222e-317 0.00628917)
(-0.345874 0.46192 -6.58693e-319 0.335382 1.08138e-317 0.0104925)
(-0.326969 0.539366 -7.52017e-320 0.312307 1.11267e-317 0.0146623)
(-0.447959 0.614002 4.1878e-319 0.429077 1.12027e-317 0.0188818)
(-0.344834 0.797908 8.52411e-319 0.32222 1.10777e-317 0.0226144)
(-0.490516 0.927262 1.23369e-318 0.464275 1.07586e-317 0.0262411)
(-0.0485776 1.30556 1.59938e-318 0.0188607 1.02557e-317 0.0297169)
(-0.22855 1.62588 1.905e-318 0.18916 9.57807e-318 0.0393905)
(1.30925 2.36873 2.08152e-318 -1.38279 8.75469e-318 0.0735405)
(0.790939 3.45162 1.91008e-318 -1.04042 7.97223e-318 0.249479)
(4.037 7.03698 1.6884e-318 -5.45634 7.02391e-318 1.41934)
)
;

boundaryField
{
    cavity
    {
        type            mySigma;
    }
    lid
    {
        type            fixedValue;
        value           uniform (0.1 -0.3 0 -0.1 0 0);
    }
    frontAndBack
    {
        type            empty;
    }
}


// ************************************************************************* //
