/*--------------------------------*- C++ -*----------------------------------*\
| =========                 |                                                 |
| \\      /  F ield         | foam-extend: Open Source CFD                    |
|  \\    /   O peration     | Version:  3.0                                   |
|   \\  /    A nd           | Web:         http://www.extend-project.de       |
|    \\/     M anipulation  |                                                 |
\*---------------------------------------------------------------------------*/
FoamFile
{
    version     2.0;
    format      ascii;
    class       volScalarField;
    location    "9.2";
    object      Theta;
}
// * * * * * * * * * * * * * * * * * * * * * * * * * * * * * * * * * * * * * //

dimensions      [0 0 0 0 0 0 0];

internalField   nonuniform List<scalar> 
400
(
0.572284
-0.412769
-0.46299
-0.614531
-0.440576
-0.380131
-0.191442
-0.0872988
0.0783815
0.187413
0.340091
0.445081
0.596787
0.681081
0.824114
0.836222
0.917154
0.714008
0.56703
-0.293739
1.94435
1.14241
0.956125
0.637327
0.619463
0.468185
0.469267
0.372672
0.359863
0.276546
0.249021
0.158486
0.121268
0.00480245
-0.041819
-0.217457
-0.297971
-0.616302
-0.83897
-1.52253
1.50055
0.754465
0.65247
0.415512
0.432018
0.341695
0.36411
0.314464
0.32518
0.284749
0.289266
0.245866
0.251082
0.189633
0.19218
0.0756872
0.043392
-0.221846
-0.39446
-1.04947
1.49152
1.06272
0.913122
0.714075
0.666128
0.551208
0.519065
0.431642
0.397619
0.320308
0.288486
0.214256
0.190873
0.108122
0.0878904
-0.035425
-0.0915943
-0.329808
-0.528004
-0.993377
1.05043
0.693042
0.628755
0.485907
0.478485
0.405567
0.403472
0.355276
0.355011
0.32037
0.332866
0.309013
0.345202
0.3207
0.376828
0.309195
0.33974
0.121811
-0.00585174
-0.576475
0.886324
0.724782
0.658883
0.565316
0.533413
0.465009
0.439193
0.383151
0.365539
0.323868
0.328342
0.305948
0.347291
0.338942
0.416962
0.382072
0.447316
0.263387
0.154705
-0.433338
0.591028
0.512073
0.496358
0.442718
0.426208
0.37892
0.362109
0.323557
0.319679
0.29891
0.328719
0.336132
0.423488
0.457766
0.61418
0.627672
0.807651
0.627175
0.61974
-0.213765
0.41261
0.48021
0.475065
0.46231
0.43061
0.388452
0.352487
0.307335
0.286053
0.257361
0.274806
0.281372
0.367172
0.418248
0.59235
0.648728
0.867815
0.735373
0.750124
-0.157074
0.204476
0.380207
0.392433
0.411907
0.372569
0.338583
0.292892
0.248466
0.220469
0.191182
0.209427
0.220238
0.326059
0.395085
0.631708
0.723698
1.0767
0.95507
1.15059
-0.0403005
0.0333212
0.333611
0.360654
0.411088
0.359458
0.326308
0.260946
0.204741
0.152126
0.104449
0.0933436
0.0861841
0.160847
0.22676
0.43728
0.564477
0.900462
0.864517
1.0237
-0.0904215
-0.113425
0.301651
0.319905
0.396986
0.325619
0.294773
0.210065
0.144152
0.0699473
0.00322352
-0.0315166
-0.0629397
-0.00333658
0.044078
0.280322
0.413715
0.883098
0.87718
1.34722
0.0453529
-0.25435
0.248788
0.288505
0.386082
0.309844
0.277462
0.175794
0.0940415
-0.0104074
-0.106714
-0.188935
-0.26022
-0.269415
-0.257004
-0.11438
0.0301527
0.373537
0.503313
0.791608
-0.0957286
-0.330978
0.25628
0.27157
0.389903
0.29489
0.264687
0.143627
0.0477726
-0.0855345
-0.213834
-0.338525
-0.460277
-0.520229
-0.569718
-0.452438
-0.351821
0.0995736
0.268171
1.03478
0.17432
-0.407954
0.212793
0.256304
0.385596
0.296576
0.265411
0.133313
0.0207566
-0.143588
-0.308208
-0.490998
-0.670343
-0.828386
-0.946604
-0.988485
-0.915471
-0.723543
-0.383103
-0.0443197
-0.0398787
-0.386437
0.253532
0.26974
0.413334
0.315203
0.288558
0.142409
0.0155362
-0.177802
-0.379666
-0.613191
-0.859433
-1.09336
-1.31257
-1.43186
-1.46931
-1.22313
-0.874888
0.104928
0.407062
-0.356856
0.258671
0.303935
0.451009
0.365967
0.338855
0.186387
0.043874
-0.17653
-0.414361
-0.703726
-1.01356
-1.35256
-1.66498
-1.9781
-2.0947
-2.21619
-1.72004
-1.49045
0.09623
-0.197624
0.351639
0.376871
0.531408
0.446384
0.423581
0.261313
0.105526
-0.139105
-0.410868
-0.746215
-1.123
-1.54305
-1.97658
-2.4047
-2.6992
-2.85436
-2.44826
-1.53497
0.556122
-0.00916194
0.472064
0.516996
0.666832
0.588875
0.559223
0.389392
0.21764
-0.0460399
-0.346032
-0.719312
-1.14911
-1.64958
-2.18106
-2.78144
-3.21694
-3.75364
-3.36204
-3.47175
-0.00353345
0.314763
0.655176
0.691509
0.840386
0.760107
0.726085
0.544742
0.359062
0.0785769
-0.245015
-0.647302
-1.1259
-1.68797
-2.32886
-3.05031
-3.70174
-4.38724
-4.24522
-4.00808
-0.0652323
0.72221
1.0006
1.02817
1.15081
1.04871
0.982579
0.786627
0.57724
0.293237
-0.0474297
-0.448788
-0.955298
-1.53062
-2.25157
-3.04035
-3.90813
-4.80215
-5.10867
-5.66425
-1.47108
)
;

boundaryField
{
    cavity
    {
        type            implicitExtrapolation;
    }
    lid
    {
        type            implicitExtrapolation;
    }
    frontAndBack
    {
        type            empty;
    }
}


// ************************************************************************* //
