/*--------------------------------*- C++ -*----------------------------------*\
| =========                 |                                                 |
| \\      /  F ield         | foam-extend: Open Source CFD                    |
|  \\    /   O peration     | Version:  3.0                                   |
|   \\  /    A nd           | Web:         http://www.extend-project.de       |
|    \\/     M anipulation  |                                                 |
\*---------------------------------------------------------------------------*/
FoamFile
{
    version     2.0;
    format      ascii;
    class       regIOobject;
    location    "22/uniform";
    object      profilingInfo;
}
// * * * * * * * * * * * * * * * * * * * * * * * * * * * * * * * * * * * * * //

profilingInfo
(

    {
        id              11;
        parentId        9;
        description     "Foam::Time::writeObject - outputTime";
        calls           22;
        totalTime       0.195062;
        childTime       0;
        onStack         1;
    }

    {
        id              9;
        parentId        1;
        description     "Foam::Time::writeObject";
        calls           2200;
        totalTime       0.203052;
        childTime       0.195062;
        onStack         1;
    }

    {
        id              1;
        description     "application::main";
        calls           1;
        totalTime       64.684;
        childTime       18.9265;
        onStack         1;
    }

    {
        id              3;
        parentId        2;
        description     "functionObjectList::read";
        calls           1;
        totalTime       1.2e-05;
        childTime       0;
        onStack         0;
    }

    {
        id              10;
        parentId        1;
        description     "functionObjects_.execute()";
        calls           2199;
        totalTime       0.012186;
        childTime       0;
        onStack         0;
    }

    {
        id              2;
        parentId        1;
        description     "functionObjects_.start()";
        calls           1;
        totalTime       5.5e-05;
        childTime       1.2e-05;
        onStack         0;
    }

    {
        id              7;
        parentId        1;
        description     "fvMatrix::solve_Theta";
        calls           2200;
        totalTime       0.313348;
        childTime       0.07998;
        onStack         0;
    }

    {
        id              4;
        parentId        1;
        description     "fvMatrix::solve_s";
        calls           2200;
        totalTime       18.3979;
        childTime       17.3948;
        onStack         0;
    }

    {
        id              8;
        parentId        7;
        description     "lduMatrix::solver_Theta";
        calls           2200;
        totalTime       0.07998;
        childTime       0;
        onStack         0;
    }

    {
        id              5;
        parentId        4;
        description     "lduMatrix::solver_sx";
        calls           2200;
        totalTime       8.53474;
        childTime       0;
        onStack         0;
    }

    {
        id              6;
        parentId        4;
        description     "lduMatrix::solver_sy";
        calls           2200;
        totalTime       8.8601;
        childTime       0;
        onStack         0;
    }
);


// ************************************************************************* //
