/*--------------------------------*- C++ -*----------------------------------*\
| =========                 |                                                 |
| \\      /  F ield         | OpenFOAM: The Open Source CFD Toolbox           |
|  \\    /   O peration     | Version:  2.2.0                                 |
|   \\  /    A nd           | Web:      www.OpenFOAM.org                      |
|    \\/     M anipulation  |                                                 |
\*---------------------------------------------------------------------------*/
FoamFile
{
    version     2.0;
    format      ascii;
    class       volVectorField;
    location    "4.3";
    object      s;
}
// * * * * * * * * * * * * * * * * * * * * * * * * * * * * * * * * * * * * * //

dimensions      [0 1 -1 0 0 0 0];

internalField   nonuniform List<vector> 
1600
(
(1.76396 0.0693083 0)
(1.4988 0.0588885 0)
(1.30098 0.0511157 0)
(1.14965 0.0451698 0)
(1.02967 0.0404558 0)
(0.932349 0.0366321 0)
(0.851824 0.0334683 0)
(0.784102 0.0308075 0)
(0.72636 0.0285388 0)
(0.676548 0.0265817 0)
(0.633139 0.0248762 0)
(0.594977 0.0233767 0)
(0.561164 0.0220482 0)
(0.530999 0.0208631 0)
(0.503923 0.0197992 0)
(0.479487 0.0188391 0)
(0.457312 0.0179679 0)
(0.437147 0.0171756 0)
(0.418576 0.0164459 0)
(0.401757 0.0157851 0)
(1.75308 0.207495 0)
(1.48956 0.176302 0)
(1.29295 0.153032 0)
(1.14256 0.135231 0)
(1.02332 0.121118 0)
(0.926601 0.10967 0)
(0.846573 0.100198 0)
(0.779268 0.0922324 0)
(0.721882 0.0854403 0)
(0.672377 0.079581 0)
(0.629236 0.074475 0)
(0.591308 0.0699859 0)
(0.557704 0.0660086 0)
(0.527726 0.0624604 0)
(0.500816 0.0592755 0)
(0.476531 0.0564011 0)
(0.454493 0.0537928 0)
(0.434452 0.0514207 0)
(0.415995 0.0492362 0)
(0.39928 0.0472579 0)
(1.7314 0.344401 0)
(1.47113 0.292629 0)
(1.27696 0.254004 0)
(1.12843 0.224458 0)
(1.01066 0.201033 0)
(0.91514 0.182033 0)
(0.836101 0.166311 0)
(0.769629 0.153089 0)
(0.712953 0.141815 0)
(0.66406 0.13209 0)
(0.621453 0.123615 0)
(0.583994 0.116164 0)
(0.550806 0.109562 0)
(0.521198 0.103673 0)
(0.494622 0.0983863 0)
(0.470636 0.0936154 0)
(0.448871 0.089286 0)
(0.429078 0.0853489 0)
(0.410849 0.081723 0)
(0.394342 0.0784394 0)
(1.69904 0.479183 0)
(1.44364 0.40715 0)
(1.2531 0.35341 0)
(1.10734 0.312302 0)
(0.991774 0.279709 0)
(0.898037 0.253272 0)
(0.820475 0.231398 0)
(0.755246 0.213001 0)
(0.699629 0.197316 0)
(0.65165 0.183784 0)
(0.609839 0.171992 0)
(0.57308 0.161625 0)
(0.540512 0.15244 0)
(0.511457 0.144246 0)
(0.485378 0.136891 0)
(0.461841 0.130252 0)
(0.440482 0.124229 0)
(0.421059 0.118751 0)
(0.403171 0.113706 0)
(0.386972 0.109137 0)
(1.6562 0.61101 0)
(1.40724 0.519162 0)
(1.2215 0.450638 0)
(1.07942 0.398219 0)
(0.966771 0.356661 0)
(0.875397 0.322951 0)
(0.799791 0.295058 0)
(0.736205 0.2716 0)
(0.681991 0.251599 0)
(0.635221 0.234345 0)
(0.594464 0.219309 0)
(0.558633 0.20609 0)
(0.526885 0.194378 0)
(0.498563 0.18393 0)
(0.473141 0.174551 0)
(0.450197 0.166086 0)
(0.429378 0.158406 0)
(0.410444 0.151421 0)
(0.393007 0.144988 0)
(0.377216 0.139162 0)
(1.60316 0.739069 0)
(1.36217 0.627972 0)
(1.18238 0.545087 0)
(1.04485 0.481682 0)
(0.935807 0.431413 0)
(0.84736 0.390638 0)
(0.774175 0.356899 0)
(0.712626 0.328525 0)
(0.660148 0.304332 0)
(0.614876 0.283462 0)
(0.575425 0.265274 0)
(0.540741 0.249285 0)
(0.510011 0.235118 0)
(0.482596 0.222479 0)
(0.457988 0.211135 0)
(0.435779 0.200896 0)
(0.415625 0.191606 0)
(0.397298 0.183157 0)
(0.38042 0.175376 0)
(0.365135 0.168329 0)
(1.54023 0.862572 0)
(1.3087 0.73291 0)
(1.13597 0.636175 0)
(1.00384 0.562175 0)
(0.899074 0.503505 0)
(0.814098 0.455917 0)
(0.743787 0.41654 0)
(0.684654 0.383424 0)
(0.634235 0.355189 0)
(0.590741 0.33083 0)
(0.552838 0.309604 0)
(0.519515 0.290942 0)
(0.489991 0.274408 0)
(0.463652 0.259657 0)
(0.44001 0.246417 0)
(0.418673 0.234468 0)
(0.399311 0.223625 0)
(0.381703 0.213764 0)
(0.365487 0.204683 0)
(0.350802 0.196459 0)
(1.4678 0.980757 0)
(1.24717 0.83333 0)
(1.08256 0.72334 0)
(0.956633 0.639202 0)
(0.856798 0.572494 0)
(0.775818 0.518385 0)
(0.708812 0.473613 0)
(0.65246 0.435959 0)
(0.604413 0.403855 0)
(0.562963 0.376159 0)
(0.526842 0.352024 0)
(0.495087 0.330806 0)
(0.466951 0.312006 0)
(0.441851 0.295235 0)
(0.41932 0.28018 0)
(0.398986 0.266594 0)
(0.380535 0.254265 0)
(0.363755 0.243053 0)
(0.348301 0.232727 0)
(0.334307 0.223377 0)
(1.38633 1.0929 0)
(1.17794 0.928612 0)
(1.02247 0.806047 0)
(0.903533 0.712288 0)
(0.809239 0.637952 0)
(0.732754 0.577656 0)
(0.669468 0.527766 0)
(0.616244 0.485807 0)
(0.570863 0.450032 0)
(0.531715 0.419169 0)
(0.497599 0.392275 0)
(0.467606 0.36863 0)
(0.441032 0.347681 0)
(0.417325 0.328992 0)
(0.396045 0.312216 0)
(0.376839 0.297076 0)
(0.359412 0.283337 0)
(0.343564 0.270843 0)
(0.328968 0.259337 0)
(0.31575 0.248917 0)
(1.29631 1.1983 0)
(1.10145 1.01817 0)
(0.956072 0.883783 0)
(0.844862 0.780982 0)
(0.756691 0.699478 0)
(0.685173 0.633367 0)
(0.625996 0.578664 0)
(0.576228 0.532659 0)
(0.533794 0.493434 0)
(0.497188 0.459595 0)
(0.465287 0.430107 0)
(0.437242 0.404182 0)
(0.412393 0.381212 0)
(0.390226 0.36072 0)
(0.370328 0.342327 0)
(0.352369 0.325727 0)
(0.336074 0.310663 0)
(0.321254 0.296964 0)
(0.307606 0.284348 0)
(0.295247 0.272923 0)
(1.1983 1.29631 0)
(1.01817 1.10145 0)
(0.883784 0.956071 0)
(0.780983 0.844861 0)
(0.699478 0.756691 0)
(0.633368 0.685172 0)
(0.578665 0.625996 0)
(0.53266 0.576227 0)
(0.493434 0.533793 0)
(0.459596 0.497187 0)
(0.430107 0.465287 0)
(0.404182 0.437241 0)
(0.381212 0.412393 0)
(0.360721 0.390225 0)
(0.342327 0.370327 0)
(0.325727 0.352369 0)
(0.310663 0.336073 0)
(0.296964 0.321254 0)
(0.284348 0.307606 0)
(0.272923 0.295247 0)
(1.0929 1.38633 0)
(0.928613 1.17794 0)
(0.806047 1.02246 0)
(0.712288 0.903532 0)
(0.637953 0.809238 0)
(0.577657 0.732753 0)
(0.527766 0.669467 0)
(0.485808 0.616243 0)
(0.450032 0.570862 0)
(0.41917 0.531714 0)
(0.392275 0.497598 0)
(0.368631 0.467605 0)
(0.347681 0.441031 0)
(0.328992 0.417324 0)
(0.312216 0.396044 0)
(0.297076 0.376839 0)
(0.283338 0.359412 0)
(0.270844 0.343563 0)
(0.259337 0.328968 0)
(0.248917 0.31575 0)
(0.980757 1.4678 0)
(0.83333 1.24716 0)
(0.723341 1.08255 0)
(0.639202 0.956632 0)
(0.572494 0.856797 0)
(0.518385 0.775817 0)
(0.473614 0.708811 0)
(0.43596 0.652459 0)
(0.403856 0.604412 0)
(0.37616 0.562962 0)
(0.352025 0.526842 0)
(0.330806 0.495086 0)
(0.312007 0.46695 0)
(0.295235 0.44185 0)
(0.280181 0.419319 0)
(0.266594 0.398986 0)
(0.254265 0.380534 0)
(0.243053 0.363754 0)
(0.232727 0.348301 0)
(0.223376 0.334306 0)
(0.862572 1.54023 0)
(0.732911 1.3087 0)
(0.636175 1.13597 0)
(0.562176 1.00383 0)
(0.503506 0.899073 0)
(0.455917 0.814097 0)
(0.416541 0.743786 0)
(0.383425 0.684653 0)
(0.355189 0.634234 0)
(0.330831 0.59074 0)
(0.309604 0.552837 0)
(0.290943 0.519514 0)
(0.274408 0.48999 0)
(0.259658 0.463652 0)
(0.246418 0.440009 0)
(0.234468 0.418672 0)
(0.223625 0.39931 0)
(0.213764 0.381703 0)
(0.204682 0.365487 0)
(0.196458 0.350802 0)
(0.739069 1.60316 0)
(0.627972 1.36217 0)
(0.545087 1.18238 0)
(0.481683 1.04485 0)
(0.431414 0.935806 0)
(0.390639 0.847358 0)
(0.3569 0.774174 0)
(0.328526 0.712625 0)
(0.304333 0.660147 0)
(0.283462 0.614875 0)
(0.265275 0.575424 0)
(0.249285 0.54074 0)
(0.235118 0.51001 0)
(0.22248 0.482595 0)
(0.211135 0.457987 0)
(0.200897 0.435778 0)
(0.191606 0.415625 0)
(0.183157 0.397298 0)
(0.175376 0.380419 0)
(0.168329 0.365134 0)
(0.611009 1.6562 0)
(0.519162 1.40724 0)
(0.450638 1.2215 0)
(0.39822 1.07942 0)
(0.356661 0.966769 0)
(0.322951 0.875395 0)
(0.295059 0.799789 0)
(0.271601 0.736204 0)
(0.2516 0.68199 0)
(0.234346 0.63522 0)
(0.21931 0.594463 0)
(0.206091 0.558631 0)
(0.194378 0.526884 0)
(0.18393 0.498562 0)
(0.174551 0.47314 0)
(0.166087 0.450197 0)
(0.158406 0.429377 0)
(0.151421 0.410443 0)
(0.144988 0.393006 0)
(0.139162 0.377216 0)
(0.479182 1.69904 0)
(0.40715 1.44364 0)
(0.353411 1.25309 0)
(0.312302 1.10734 0)
(0.27971 0.991772 0)
(0.253273 0.898035 0)
(0.231399 0.820474 0)
(0.213002 0.755244 0)
(0.197316 0.699627 0)
(0.183785 0.651648 0)
(0.171993 0.609837 0)
(0.161626 0.573079 0)
(0.15244 0.540511 0)
(0.144246 0.511456 0)
(0.136891 0.485377 0)
(0.130253 0.46184 0)
(0.124229 0.440481 0)
(0.118751 0.421058 0)
(0.113706 0.40317 0)
(0.109137 0.386971 0)
(0.344401 1.7314 0)
(0.292629 1.47113 0)
(0.254005 1.27696 0)
(0.224459 1.12842 0)
(0.201034 1.01066 0)
(0.182033 0.915138 0)
(0.166312 0.8361 0)
(0.153089 0.769628 0)
(0.141816 0.712952 0)
(0.13209 0.664059 0)
(0.123615 0.621452 0)
(0.116164 0.583993 0)
(0.109562 0.550805 0)
(0.103673 0.521197 0)
(0.0983866 0.494621 0)
(0.0936155 0.470635 0)
(0.0892861 0.44887 0)
(0.0853489 0.429077 0)
(0.081723 0.410849 0)
(0.0784393 0.394341 0)
(0.207495 1.75308 0)
(0.176303 1.48956 0)
(0.153032 1.29295 0)
(0.135232 1.14256 0)
(0.121119 1.02332 0)
(0.109671 0.926599 0)
(0.100199 0.846571 0)
(0.0922331 0.779267 0)
(0.085441 0.721881 0)
(0.0795816 0.672376 0)
(0.0744755 0.629235 0)
(0.0699864 0.591307 0)
(0.066009 0.557703 0)
(0.0624608 0.527725 0)
(0.0592758 0.500815 0)
(0.0564013 0.47653 0)
(0.0537929 0.454492 0)
(0.0514208 0.434451 0)
(0.0492362 0.415994 0)
(0.0472579 0.39928 0)
(0.0693084 1.76396 0)
(0.058889 1.4988 0)
(0.0511163 1.30097 0)
(0.0451705 1.14965 0)
(0.0404566 1.02967 0)
(0.0366329 0.932348 0)
(0.0334691 0.851823 0)
(0.0308082 0.784101 0)
(0.0285395 0.726359 0)
(0.0265823 0.676547 0)
(0.0248767 0.633138 0)
(0.0233772 0.594975 0)
(0.0220487 0.561163 0)
(0.0208634 0.530998 0)
(0.0197995 0.503922 0)
(0.0188394 0.479486 0)
(0.0179681 0.457311 0)
(0.0171757 0.437146 0)
(0.0164459 0.418575 0)
(0.0157851 0.401757 0)
(-0.0693079 1.76396 0)
(-0.0588879 1.4988 0)
(-0.0511149 1.30097 0)
(-0.045169 1.14964 0)
(-0.0404549 1.02967 0)
(-0.0366312 0.932348 0)
(-0.0334674 0.851823 0)
(-0.0308066 0.784101 0)
(-0.028538 0.726359 0)
(-0.0265809 0.676547 0)
(-0.0248754 0.633138 0)
(-0.0233761 0.594975 0)
(-0.0220476 0.561163 0)
(-0.0208625 0.530998 0)
(-0.0197988 0.503922 0)
(-0.0188387 0.479486 0)
(-0.0179676 0.457311 0)
(-0.0171753 0.437146 0)
(-0.0164457 0.418575 0)
(-0.015785 0.401757 0)
(-0.207494 1.75308 0)
(-0.176301 1.48956 0)
(-0.153031 1.29295 0)
(-0.13523 1.14256 0)
(-0.121117 1.02332 0)
(-0.10967 0.926599 0)
(-0.100198 0.846571 0)
(-0.0922315 0.779266 0)
(-0.0854395 0.721881 0)
(-0.0795802 0.672375 0)
(-0.0744742 0.629235 0)
(-0.0699852 0.591307 0)
(-0.066008 0.557703 0)
(-0.0624598 0.527725 0)
(-0.059275 0.500815 0)
(-0.0564006 0.47653 0)
(-0.0537924 0.454492 0)
(-0.0514204 0.434451 0)
(-0.049236 0.415994 0)
(-0.0472578 0.39928 0)
(-0.3444 1.73139 0)
(-0.292628 1.47113 0)
(-0.254003 1.27696 0)
(-0.224457 1.12842 0)
(-0.201032 1.01066 0)
(-0.182032 0.915138 0)
(-0.16631 0.8361 0)
(-0.153088 0.769628 0)
(-0.141814 0.712952 0)
(-0.132089 0.664059 0)
(-0.123614 0.621452 0)
(-0.116163 0.583993 0)
(-0.109561 0.550805 0)
(-0.103672 0.521197 0)
(-0.0983858 0.494621 0)
(-0.0936148 0.470635 0)
(-0.0892856 0.44887 0)
(-0.0853485 0.429077 0)
(-0.0817227 0.410849 0)
(-0.0784392 0.394341 0)
(-0.479182 1.69903 0)
(-0.407149 1.44364 0)
(-0.353409 1.25309 0)
(-0.312301 1.10734 0)
(-0.279708 0.991772 0)
(-0.253271 0.898035 0)
(-0.231397 0.820474 0)
(-0.213 0.755244 0)
(-0.197315 0.699627 0)
(-0.183783 0.651648 0)
(-0.171991 0.609837 0)
(-0.161624 0.573079 0)
(-0.152439 0.540511 0)
(-0.144245 0.511456 0)
(-0.13689 0.485377 0)
(-0.130252 0.46184 0)
(-0.124228 0.440481 0)
(-0.11875 0.421058 0)
(-0.113706 0.40317 0)
(-0.109137 0.386971 0)
(-0.611009 1.6562 0)
(-0.51916 1.40724 0)
(-0.450637 1.2215 0)
(-0.398218 1.07942 0)
(-0.356659 0.966769 0)
(-0.32295 0.875395 0)
(-0.295057 0.799789 0)
(-0.271599 0.736204 0)
(-0.251598 0.681989 0)
(-0.234344 0.63522 0)
(-0.219308 0.594463 0)
(-0.206089 0.558631 0)
(-0.194377 0.526884 0)
(-0.183929 0.498562 0)
(-0.17455 0.47314 0)
(-0.166086 0.450196 0)
(-0.158405 0.429377 0)
(-0.15142 0.410443 0)
(-0.144987 0.393006 0)
(-0.139162 0.377215 0)
(-0.739068 1.60315 0)
(-0.627971 1.36217 0)
(-0.545085 1.18238 0)
(-0.481681 1.04485 0)
(-0.431412 0.935805 0)
(-0.390637 0.847358 0)
(-0.356898 0.774174 0)
(-0.328524 0.712625 0)
(-0.304331 0.660147 0)
(-0.283461 0.614875 0)
(-0.265273 0.575424 0)
(-0.249284 0.54074 0)
(-0.235117 0.510009 0)
(-0.222479 0.482594 0)
(-0.211134 0.457986 0)
(-0.200896 0.435778 0)
(-0.191605 0.415625 0)
(-0.183156 0.397297 0)
(-0.175375 0.380419 0)
(-0.168329 0.365134 0)
(-0.862571 1.54023 0)
(-0.732909 1.3087 0)
(-0.636173 1.13597 0)
(-0.562174 1.00383 0)
(-0.503504 0.899072 0)
(-0.455915 0.814097 0)
(-0.416539 0.743785 0)
(-0.383423 0.684652 0)
(-0.355187 0.634234 0)
(-0.330829 0.59074 0)
(-0.309603 0.552837 0)
(-0.290941 0.519514 0)
(-0.274407 0.48999 0)
(-0.259657 0.463651 0)
(-0.246416 0.440009 0)
(-0.234467 0.418672 0)
(-0.223624 0.39931 0)
(-0.213763 0.381702 0)
(-0.204682 0.365486 0)
(-0.196458 0.350801 0)
(-0.980755 1.4678 0)
(-0.833329 1.24716 0)
(-0.723339 1.08255 0)
(-0.6392 0.956632 0)
(-0.572492 0.856796 0)
(-0.518383 0.775816 0)
(-0.473612 0.708811 0)
(-0.435958 0.652459 0)
(-0.403854 0.604411 0)
(-0.376158 0.562962 0)
(-0.352023 0.526841 0)
(-0.330805 0.495085 0)
(-0.312005 0.46695 0)
(-0.295234 0.441849 0)
(-0.280179 0.419319 0)
(-0.266593 0.398985 0)
(-0.254264 0.380534 0)
(-0.243052 0.363754 0)
(-0.232727 0.3483 0)
(-0.223376 0.334306 0)
(-1.09289 1.38633 0)
(-0.928611 1.17794 0)
(-0.806045 1.02246 0)
(-0.712286 0.903531 0)
(-0.637951 0.809238 0)
(-0.577655 0.732753 0)
(-0.527764 0.669467 0)
(-0.485805 0.616243 0)
(-0.45003 0.570862 0)
(-0.419168 0.531713 0)
(-0.392273 0.497598 0)
(-0.368629 0.467605 0)
(-0.34768 0.441031 0)
(-0.328991 0.417324 0)
(-0.312215 0.396044 0)
(-0.297075 0.376839 0)
(-0.283337 0.359411 0)
(-0.270843 0.343563 0)
(-0.259337 0.328967 0)
(-0.248917 0.315749 0)
(-1.19829 1.29631 0)
(-1.01817 1.10145 0)
(-0.883782 0.95607 0)
(-0.78098 0.844861 0)
(-0.699476 0.75669 0)
(-0.633365 0.685172 0)
(-0.578663 0.625995 0)
(-0.532658 0.576227 0)
(-0.493432 0.533793 0)
(-0.459594 0.497187 0)
(-0.430105 0.465286 0)
(-0.40418 0.437241 0)
(-0.381211 0.412392 0)
(-0.360719 0.390225 0)
(-0.342326 0.370327 0)
(-0.325726 0.352369 0)
(-0.310662 0.336073 0)
(-0.296963 0.321253 0)
(-0.284347 0.307606 0)
(-0.272923 0.295246 0)
(-1.29631 1.19829 0)
(-1.10145 1.01817 0)
(-0.956069 0.883782 0)
(-0.84486 0.780981 0)
(-0.756689 0.699477 0)
(-0.685171 0.633366 0)
(-0.625994 0.578664 0)
(-0.576226 0.532659 0)
(-0.533792 0.493433 0)
(-0.497186 0.459595 0)
(-0.465285 0.430106 0)
(-0.43724 0.404181 0)
(-0.412391 0.381212 0)
(-0.390224 0.36072 0)
(-0.370326 0.342326 0)
(-0.352368 0.325726 0)
(-0.336072 0.310663 0)
(-0.321253 0.296964 0)
(-0.307605 0.284348 0)
(-0.295246 0.272923 0)
(-1.38633 1.09289 0)
(-1.17794 0.928611 0)
(-1.02246 0.806046 0)
(-0.90353 0.712287 0)
(-0.809237 0.637952 0)
(-0.732752 0.577656 0)
(-0.669466 0.527765 0)
(-0.616241 0.485806 0)
(-0.570861 0.450031 0)
(-0.531712 0.419169 0)
(-0.497597 0.392274 0)
(-0.467604 0.36863 0)
(-0.44103 0.34768 0)
(-0.417323 0.328991 0)
(-0.396043 0.312216 0)
(-0.376838 0.297076 0)
(-0.359411 0.283337 0)
(-0.343562 0.270843 0)
(-0.328967 0.259337 0)
(-0.315749 0.248917 0)
(-1.4678 0.980755 0)
(-1.24716 0.833329 0)
(-1.08255 0.72334 0)
(-0.95663 0.639201 0)
(-0.856795 0.572493 0)
(-0.775815 0.518384 0)
(-0.70881 0.473612 0)
(-0.652458 0.435959 0)
(-0.60441 0.403855 0)
(-0.562961 0.376159 0)
(-0.52684 0.352024 0)
(-0.495084 0.330805 0)
(-0.466949 0.312006 0)
(-0.441849 0.295234 0)
(-0.419318 0.28018 0)
(-0.398984 0.266593 0)
(-0.380533 0.254264 0)
(-0.363753 0.243052 0)
(-0.3483 0.232727 0)
(-0.334305 0.223376 0)
(-1.54022 0.862571 0)
(-1.3087 0.732909 0)
(-1.13597 0.636174 0)
(-1.00383 0.562174 0)
(-0.899071 0.503505 0)
(-0.814096 0.455916 0)
(-0.743784 0.41654 0)
(-0.684651 0.383424 0)
(-0.634233 0.355188 0)
(-0.590738 0.33083 0)
(-0.552835 0.309603 0)
(-0.519513 0.290942 0)
(-0.489989 0.274408 0)
(-0.46365 0.259657 0)
(-0.440008 0.246417 0)
(-0.418671 0.234467 0)
(-0.399309 0.223624 0)
(-0.381701 0.213763 0)
(-0.365486 0.204682 0)
(-0.350801 0.196458 0)
(-1.60315 0.739068 0)
(-1.36217 0.627971 0)
(-1.18238 0.545086 0)
(-1.04485 0.481682 0)
(-0.935804 0.431412 0)
(-0.847357 0.390638 0)
(-0.774172 0.356899 0)
(-0.712624 0.328525 0)
(-0.660145 0.304332 0)
(-0.614874 0.283461 0)
(-0.575422 0.265274 0)
(-0.540738 0.249284 0)
(-0.510008 0.235117 0)
(-0.482593 0.222479 0)
(-0.457985 0.211135 0)
(-0.435777 0.200896 0)
(-0.415624 0.191605 0)
(-0.397296 0.183156 0)
(-0.380418 0.175375 0)
(-0.365133 0.168329 0)
(-1.6562 0.611008 0)
(-1.40724 0.519161 0)
(-1.2215 0.450637 0)
(-1.07942 0.398219 0)
(-0.966767 0.35666 0)
(-0.875394 0.32295 0)
(-0.799788 0.295058 0)
(-0.736203 0.2716 0)
(-0.681988 0.251599 0)
(-0.635218 0.234345 0)
(-0.594462 0.219309 0)
(-0.55863 0.20609 0)
(-0.526883 0.194378 0)
(-0.498561 0.183929 0)
(-0.473139 0.17455 0)
(-0.450195 0.166086 0)
(-0.429376 0.158405 0)
(-0.410442 0.15142 0)
(-0.393005 0.144987 0)
(-0.377214 0.139162 0)
(-1.69903 0.479182 0)
(-1.44364 0.40715 0)
(-1.25309 0.35341 0)
(-1.10733 0.312301 0)
(-0.99177 0.279709 0)
(-0.898033 0.253272 0)
(-0.820472 0.231398 0)
(-0.755243 0.213001 0)
(-0.699626 0.197315 0)
(-0.651647 0.183784 0)
(-0.609836 0.171992 0)
(-0.573078 0.161625 0)
(-0.54051 0.15244 0)
(-0.511455 0.144246 0)
(-0.485375 0.13689 0)
(-0.461838 0.130252 0)
(-0.44048 0.124228 0)
(-0.421057 0.11875 0)
(-0.403169 0.113706 0)
(-0.38697 0.109137 0)
(-1.73139 0.3444 0)
(-1.47113 0.292628 0)
(-1.27696 0.254004 0)
(-1.12842 0.224458 0)
(-1.01066 0.201033 0)
(-0.915137 0.182032 0)
(-0.836098 0.166311 0)
(-0.769626 0.153088 0)
(-0.71295 0.141815 0)
(-0.664057 0.132089 0)
(-0.62145 0.123614 0)
(-0.583992 0.116163 0)
(-0.550804 0.109562 0)
(-0.521196 0.103672 0)
(-0.49462 0.0983861 0)
(-0.470634 0.0936151 0)
(-0.448869 0.0892857 0)
(-0.429076 0.0853486 0)
(-0.410848 0.0817227 0)
(-0.39434 0.0784391 0)
(-1.75308 0.207494 0)
(-1.48956 0.176302 0)
(-1.29295 0.153031 0)
(-1.14256 0.135231 0)
(-1.02332 0.121118 0)
(-0.926598 0.10967 0)
(-0.846569 0.100198 0)
(-0.779265 0.0922322 0)
(-0.721879 0.0854402 0)
(-0.672374 0.0795808 0)
(-0.629233 0.0744748 0)
(-0.591306 0.0699857 0)
(-0.557702 0.0660085 0)
(-0.527723 0.0624603 0)
(-0.500814 0.0592753 0)
(-0.476528 0.0564009 0)
(-0.454491 0.0537926 0)
(-0.43445 0.0514205 0)
(-0.415993 0.049236 0)
(-0.399279 0.0472577 0)
(-1.76396 0.0693081 0)
(-1.4988 0.0588884 0)
(-1.30097 0.0511155 0)
(-1.14964 0.0451697 0)
(-1.02966 0.0404557 0)
(-0.932346 0.036632 0)
(-0.851821 0.0334682 0)
(-0.784099 0.0308074 0)
(-0.726357 0.0285387 0)
(-0.676545 0.0265815 0)
(-0.633137 0.024876 0)
(-0.594974 0.0233766 0)
(-0.561162 0.0220481 0)
(-0.530997 0.020863 0)
(-0.503921 0.0197991 0)
(-0.479484 0.018839 0)
(-0.45731 0.0179678 0)
(-0.437145 0.0171755 0)
(-0.418574 0.0164458 0)
(-0.401756 0.015785 0)
(-1.76396 -0.0693082 0)
(-1.4988 -0.0588884 0)
(-1.30097 -0.0511156 0)
(-1.14964 -0.0451698 0)
(-1.02966 -0.0404558 0)
(-0.932346 -0.0366321 0)
(-0.851821 -0.0334683 0)
(-0.784099 -0.0308075 0)
(-0.726357 -0.0285388 0)
(-0.676545 -0.0265816 0)
(-0.633137 -0.0248761 0)
(-0.594974 -0.0233767 0)
(-0.561162 -0.0220482 0)
(-0.530997 -0.020863 0)
(-0.503921 -0.0197992 0)
(-0.479485 -0.018839 0)
(-0.45731 -0.0179678 0)
(-0.437145 -0.0171755 0)
(-0.418574 -0.0164458 0)
(-0.401756 -0.015785 0)
(-1.75308 -0.207494 0)
(-1.48956 -0.176302 0)
(-1.29295 -0.153032 0)
(-1.14256 -0.135231 0)
(-1.02332 -0.121118 0)
(-0.926598 -0.10967 0)
(-0.846569 -0.100198 0)
(-0.779265 -0.0922323 0)
(-0.721879 -0.0854403 0)
(-0.672374 -0.0795809 0)
(-0.629233 -0.0744749 0)
(-0.591306 -0.0699858 0)
(-0.557702 -0.0660085 0)
(-0.527723 -0.0624603 0)
(-0.500814 -0.0592754 0)
(-0.476528 -0.056401 0)
(-0.454491 -0.0537926 0)
(-0.43445 -0.0514206 0)
(-0.415993 -0.049236 0)
(-0.399279 -0.0472577 0)
(-1.73139 -0.3444 0)
(-1.47113 -0.292628 0)
(-1.27696 -0.254004 0)
(-1.12842 -0.224458 0)
(-1.01066 -0.201033 0)
(-0.915137 -0.182032 0)
(-0.836098 -0.166311 0)
(-0.769626 -0.153089 0)
(-0.71295 -0.141815 0)
(-0.664057 -0.13209 0)
(-0.62145 -0.123614 0)
(-0.583992 -0.116163 0)
(-0.550804 -0.109562 0)
(-0.521196 -0.103673 0)
(-0.49462 -0.0983861 0)
(-0.470634 -0.0936151 0)
(-0.448869 -0.0892858 0)
(-0.429076 -0.0853486 0)
(-0.410848 -0.0817227 0)
(-0.39434 -0.0784391 0)
(-1.69903 -0.479182 0)
(-1.44364 -0.40715 0)
(-1.25309 -0.35341 0)
(-1.10733 -0.312301 0)
(-0.99177 -0.279709 0)
(-0.898034 -0.253272 0)
(-0.820472 -0.231398 0)
(-0.755243 -0.213001 0)
(-0.699626 -0.197315 0)
(-0.651647 -0.183784 0)
(-0.609836 -0.171992 0)
(-0.573078 -0.161625 0)
(-0.54051 -0.15244 0)
(-0.511455 -0.144246 0)
(-0.485376 -0.13689 0)
(-0.461838 -0.130252 0)
(-0.44048 -0.124228 0)
(-0.421057 -0.11875 0)
(-0.403169 -0.113706 0)
(-0.38697 -0.109137 0)
(-1.6562 -0.611008 0)
(-1.40724 -0.519161 0)
(-1.2215 -0.450637 0)
(-1.07942 -0.398219 0)
(-0.966767 -0.35666 0)
(-0.875394 -0.322951 0)
(-0.799788 -0.295058 0)
(-0.736203 -0.2716 0)
(-0.681988 -0.251599 0)
(-0.635219 -0.234345 0)
(-0.594462 -0.219309 0)
(-0.55863 -0.20609 0)
(-0.526883 -0.194378 0)
(-0.498561 -0.183929 0)
(-0.473139 -0.174551 0)
(-0.450195 -0.166086 0)
(-0.429376 -0.158405 0)
(-0.410442 -0.15142 0)
(-0.393005 -0.144987 0)
(-0.377215 -0.139162 0)
(-1.60315 -0.739068 0)
(-1.36217 -0.627971 0)
(-1.18238 -0.545086 0)
(-1.04485 -0.481682 0)
(-0.935804 -0.431413 0)
(-0.847357 -0.390638 0)
(-0.774172 -0.356899 0)
(-0.712624 -0.328525 0)
(-0.660145 -0.304332 0)
(-0.614874 -0.283461 0)
(-0.575422 -0.265274 0)
(-0.540738 -0.249284 0)
(-0.510008 -0.235117 0)
(-0.482593 -0.222479 0)
(-0.457986 -0.211135 0)
(-0.435777 -0.200896 0)
(-0.415624 -0.191605 0)
(-0.397296 -0.183156 0)
(-0.380418 -0.175375 0)
(-0.365133 -0.168329 0)
(-1.54022 -0.862571 0)
(-1.3087 -0.732909 0)
(-1.13597 -0.636174 0)
(-1.00383 -0.562174 0)
(-0.899071 -0.503505 0)
(-0.814096 -0.455916 0)
(-0.743784 -0.41654 0)
(-0.684651 -0.383424 0)
(-0.634233 -0.355188 0)
(-0.590738 -0.33083 0)
(-0.552836 -0.309603 0)
(-0.519513 -0.290942 0)
(-0.489989 -0.274408 0)
(-0.46365 -0.259657 0)
(-0.440008 -0.246417 0)
(-0.418671 -0.234468 0)
(-0.399309 -0.223624 0)
(-0.381702 -0.213763 0)
(-0.365486 -0.204682 0)
(-0.350801 -0.196458 0)
(-1.4678 -0.980756 0)
(-1.24716 -0.833329 0)
(-1.08255 -0.72334 0)
(-0.956631 -0.639201 0)
(-0.856795 -0.572493 0)
(-0.775815 -0.518384 0)
(-0.70881 -0.473613 0)
(-0.652458 -0.435959 0)
(-0.60441 -0.403855 0)
(-0.562961 -0.376159 0)
(-0.52684 -0.352024 0)
(-0.495085 -0.330806 0)
(-0.466949 -0.312006 0)
(-0.441849 -0.295234 0)
(-0.419318 -0.28018 0)
(-0.398985 -0.266593 0)
(-0.380533 -0.254264 0)
(-0.363753 -0.243052 0)
(-0.3483 -0.232727 0)
(-0.334306 -0.223376 0)
(-1.38633 -1.09289 0)
(-1.17794 -0.928611 0)
(-1.02246 -0.806046 0)
(-0.90353 -0.712287 0)
(-0.809237 -0.637952 0)
(-0.732752 -0.577656 0)
(-0.669466 -0.527765 0)
(-0.616241 -0.485807 0)
(-0.570861 -0.450031 0)
(-0.531712 -0.419169 0)
(-0.497597 -0.392274 0)
(-0.467604 -0.36863 0)
(-0.44103 -0.347681 0)
(-0.417323 -0.328991 0)
(-0.396043 -0.312216 0)
(-0.376838 -0.297076 0)
(-0.359411 -0.283337 0)
(-0.343562 -0.270843 0)
(-0.328967 -0.259337 0)
(-0.315749 -0.248917 0)
(-1.29631 -1.19829 0)
(-1.10145 -1.01817 0)
(-0.956069 -0.883782 0)
(-0.84486 -0.780982 0)
(-0.756689 -0.699477 0)
(-0.685171 -0.633366 0)
(-0.625994 -0.578664 0)
(-0.576226 -0.532659 0)
(-0.533792 -0.493433 0)
(-0.497186 -0.459595 0)
(-0.465285 -0.430106 0)
(-0.43724 -0.404181 0)
(-0.412392 -0.381212 0)
(-0.390224 -0.36072 0)
(-0.370326 -0.342327 0)
(-0.352368 -0.325726 0)
(-0.336073 -0.310663 0)
(-0.321253 -0.296964 0)
(-0.307605 -0.284348 0)
(-0.295246 -0.272923 0)
(-1.19829 -1.29631 0)
(-1.01817 -1.10145 0)
(-0.883782 -0.95607 0)
(-0.780981 -0.844861 0)
(-0.699476 -0.75669 0)
(-0.633365 -0.685172 0)
(-0.578663 -0.625995 0)
(-0.532658 -0.576227 0)
(-0.493432 -0.533793 0)
(-0.459594 -0.497187 0)
(-0.430105 -0.465286 0)
(-0.40418 -0.437241 0)
(-0.381211 -0.412392 0)
(-0.360719 -0.390225 0)
(-0.342326 -0.370327 0)
(-0.325726 -0.352369 0)
(-0.310662 -0.336073 0)
(-0.296963 -0.321254 0)
(-0.284348 -0.307606 0)
(-0.272923 -0.295246 0)
(-1.09289 -1.38633 0)
(-0.928611 -1.17794 0)
(-0.806045 -1.02246 0)
(-0.712286 -0.903532 0)
(-0.637951 -0.809238 0)
(-0.577655 -0.732753 0)
(-0.527764 -0.669467 0)
(-0.485806 -0.616243 0)
(-0.45003 -0.570862 0)
(-0.419168 -0.531713 0)
(-0.392274 -0.497598 0)
(-0.368629 -0.467605 0)
(-0.34768 -0.441031 0)
(-0.328991 -0.417324 0)
(-0.312215 -0.396044 0)
(-0.297075 -0.376839 0)
(-0.283337 -0.359411 0)
(-0.270843 -0.343563 0)
(-0.259337 -0.328967 0)
(-0.248917 -0.315749 0)
(-0.980756 -1.4678 0)
(-0.833329 -1.24716 0)
(-0.723339 -1.08255 0)
(-0.6392 -0.956632 0)
(-0.572492 -0.856796 0)
(-0.518383 -0.775817 0)
(-0.473612 -0.708811 0)
(-0.435958 -0.652459 0)
(-0.403854 -0.604411 0)
(-0.376158 -0.562962 0)
(-0.352023 -0.526841 0)
(-0.330805 -0.495086 0)
(-0.312005 -0.46695 0)
(-0.295234 -0.44185 0)
(-0.28018 -0.419319 0)
(-0.266593 -0.398985 0)
(-0.254264 -0.380534 0)
(-0.243052 -0.363754 0)
(-0.232727 -0.3483 0)
(-0.223376 -0.334306 0)
(-0.862571 -1.54023 0)
(-0.732909 -1.3087 0)
(-0.636173 -1.13597 0)
(-0.562174 -1.00383 0)
(-0.503504 -0.899072 0)
(-0.455915 -0.814097 0)
(-0.416539 -0.743785 0)
(-0.383423 -0.684653 0)
(-0.355187 -0.634234 0)
(-0.330829 -0.59074 0)
(-0.309603 -0.552837 0)
(-0.290941 -0.519514 0)
(-0.274407 -0.48999 0)
(-0.259657 -0.463651 0)
(-0.246417 -0.440009 0)
(-0.234467 -0.418672 0)
(-0.223624 -0.39931 0)
(-0.213763 -0.381702 0)
(-0.204682 -0.365486 0)
(-0.196458 -0.350801 0)
(-0.739068 -1.60315 0)
(-0.627971 -1.36217 0)
(-0.545085 -1.18238 0)
(-0.481681 -1.04485 0)
(-0.431412 -0.935805 0)
(-0.390637 -0.847358 0)
(-0.356898 -0.774174 0)
(-0.328524 -0.712625 0)
(-0.304331 -0.660147 0)
(-0.283461 -0.614875 0)
(-0.265273 -0.575424 0)
(-0.249284 -0.54074 0)
(-0.235117 -0.51001 0)
(-0.222479 -0.482595 0)
(-0.211134 -0.457987 0)
(-0.200896 -0.435778 0)
(-0.191605 -0.415625 0)
(-0.183156 -0.397297 0)
(-0.175375 -0.380419 0)
(-0.168329 -0.365134 0)
(-0.611009 -1.6562 0)
(-0.519161 -1.40724 0)
(-0.450637 -1.2215 0)
(-0.398218 -1.07942 0)
(-0.356659 -0.966769 0)
(-0.32295 -0.875395 0)
(-0.295057 -0.799789 0)
(-0.271599 -0.736204 0)
(-0.251598 -0.68199 0)
(-0.234344 -0.63522 0)
(-0.219308 -0.594463 0)
(-0.206089 -0.558631 0)
(-0.194377 -0.526884 0)
(-0.183929 -0.498562 0)
(-0.17455 -0.47314 0)
(-0.166086 -0.450197 0)
(-0.158405 -0.429377 0)
(-0.15142 -0.410443 0)
(-0.144987 -0.393006 0)
(-0.139162 -0.377215 0)
(-0.479182 -1.69903 0)
(-0.407149 -1.44364 0)
(-0.35341 -1.25309 0)
(-0.312301 -1.10734 0)
(-0.279708 -0.991772 0)
(-0.253271 -0.898035 0)
(-0.231397 -0.820474 0)
(-0.213 -0.755244 0)
(-0.197315 -0.699627 0)
(-0.183783 -0.651648 0)
(-0.171991 -0.609837 0)
(-0.161624 -0.573079 0)
(-0.152439 -0.540511 0)
(-0.144245 -0.511457 0)
(-0.13689 -0.485377 0)
(-0.130252 -0.46184 0)
(-0.124228 -0.440481 0)
(-0.11875 -0.421058 0)
(-0.113706 -0.40317 0)
(-0.109137 -0.386971 0)
(-0.3444 -1.73139 0)
(-0.292628 -1.47113 0)
(-0.254003 -1.27696 0)
(-0.224457 -1.12842 0)
(-0.201032 -1.01066 0)
(-0.182032 -0.915138 0)
(-0.16631 -0.8361 0)
(-0.153088 -0.769628 0)
(-0.141814 -0.712952 0)
(-0.132089 -0.664059 0)
(-0.123614 -0.621452 0)
(-0.116163 -0.583993 0)
(-0.109561 -0.550805 0)
(-0.103672 -0.521197 0)
(-0.0983859 -0.494621 0)
(-0.0936149 -0.470636 0)
(-0.0892857 -0.448871 0)
(-0.0853486 -0.429077 0)
(-0.0817228 -0.410849 0)
(-0.0784393 -0.394341 0)
(-0.207494 -1.75308 0)
(-0.176302 -1.48956 0)
(-0.153031 -1.29295 0)
(-0.13523 -1.14256 0)
(-0.121117 -1.02332 0)
(-0.10967 -0.926599 0)
(-0.100198 -0.846571 0)
(-0.0922316 -0.779267 0)
(-0.0854396 -0.721881 0)
(-0.0795803 -0.672376 0)
(-0.0744743 -0.629235 0)
(-0.0699853 -0.591307 0)
(-0.0660081 -0.557703 0)
(-0.0624599 -0.527725 0)
(-0.0592751 -0.500816 0)
(-0.0564007 -0.47653 0)
(-0.0537925 -0.454492 0)
(-0.0514205 -0.434451 0)
(-0.0492361 -0.415994 0)
(-0.0472578 -0.39928 0)
(-0.069308 -1.76396 0)
(-0.058888 -1.4988 0)
(-0.051115 -1.30097 0)
(-0.0451691 -1.14965 0)
(-0.040455 -1.02967 0)
(-0.0366313 -0.932348 0)
(-0.0334675 -0.851823 0)
(-0.0308067 -0.784101 0)
(-0.0285381 -0.726359 0)
(-0.026581 -0.676547 0)
(-0.0248755 -0.633138 0)
(-0.0233762 -0.594976 0)
(-0.0220477 -0.561163 0)
(-0.0208626 -0.530999 0)
(-0.0197989 -0.503922 0)
(-0.0188388 -0.479486 0)
(-0.0179676 -0.457312 0)
(-0.0171754 -0.437146 0)
(-0.0164458 -0.418575 0)
(-0.015785 -0.401757 0)
(1.76396 -0.0693083 0)
(1.75308 -0.207495 0)
(1.7314 -0.344401 0)
(1.69904 -0.479183 0)
(1.6562 -0.61101 0)
(1.60316 -0.739069 0)
(1.54023 -0.862572 0)
(1.4678 -0.980757 0)
(1.38633 -1.0929 0)
(1.29631 -1.1983 0)
(1.1983 -1.29631 0)
(1.0929 -1.38633 0)
(0.980757 -1.4678 0)
(0.862572 -1.54023 0)
(0.739069 -1.60316 0)
(0.611009 -1.6562 0)
(0.479183 -1.69904 0)
(0.344401 -1.7314 0)
(0.207495 -1.75308 0)
(0.0693084 -1.76396 0)
(1.4988 -0.0588885 0)
(1.48956 -0.176302 0)
(1.47113 -0.292628 0)
(1.44364 -0.40715 0)
(1.40724 -0.519162 0)
(1.36217 -0.627972 0)
(1.3087 -0.73291 0)
(1.24717 -0.83333 0)
(1.17794 -0.928612 0)
(1.10145 -1.01817 0)
(1.01817 -1.10145 0)
(0.928613 -1.17794 0)
(0.83333 -1.24716 0)
(0.732911 -1.3087 0)
(0.627972 -1.36217 0)
(0.519162 -1.40724 0)
(0.40715 -1.44364 0)
(0.292629 -1.47113 0)
(0.176303 -1.48956 0)
(0.0588889 -1.4988 0)
(1.30098 -0.0511156 0)
(1.29295 -0.153032 0)
(1.27696 -0.254004 0)
(1.2531 -0.35341 0)
(1.2215 -0.450638 0)
(1.18238 -0.545087 0)
(1.13597 -0.636175 0)
(1.08256 -0.72334 0)
(1.02247 -0.806047 0)
(0.956072 -0.883783 0)
(0.883784 -0.956071 0)
(0.806047 -1.02246 0)
(0.723341 -1.08255 0)
(0.636175 -1.13597 0)
(0.545087 -1.18238 0)
(0.450638 -1.2215 0)
(0.353411 -1.25309 0)
(0.254005 -1.27696 0)
(0.153032 -1.29295 0)
(0.0511162 -1.30097 0)
(1.14965 -0.0451698 0)
(1.14256 -0.135231 0)
(1.12843 -0.224458 0)
(1.10734 -0.312302 0)
(1.07942 -0.398219 0)
(1.04485 -0.481682 0)
(1.00384 -0.562175 0)
(0.956633 -0.639202 0)
(0.903533 -0.712288 0)
(0.844862 -0.780982 0)
(0.780983 -0.844862 0)
(0.712288 -0.903532 0)
(0.639202 -0.956632 0)
(0.562175 -1.00383 0)
(0.481683 -1.04485 0)
(0.39822 -1.07942 0)
(0.312302 -1.10734 0)
(0.224459 -1.12842 0)
(0.135232 -1.14256 0)
(0.0451705 -1.14965 0)
(1.02967 -0.0404557 0)
(1.02332 -0.121118 0)
(1.01066 -0.201033 0)
(0.991774 -0.279709 0)
(0.96677 -0.35666 0)