/*--------------------------------*- C++ -*----------------------------------*\
| =========                 |                                                 |
| \\      /  F ield         | foam-extend: Open Source CFD                    |
|  \\    /   O peration     | Version:  3.0                                   |
|   \\  /    A nd           | Web:         http://www.extend-project.de       |
|    \\/     M anipulation  |                                                 |
\*---------------------------------------------------------------------------*/
FoamFile
{
    version     2.0;
    format      ascii;
    class       volScalarField;
    location    "39";
    object      p;
}
// * * * * * * * * * * * * * * * * * * * * * * * * * * * * * * * * * * * * * //

dimensions      [0 0 0 0 0 0 0];

internalField   nonuniform List<scalar> 
576
(
-7.24746
-7.31659
-5.67929
-5.78036
-4.86697
-5.01976
-4.51247
-4.66046
-4.45107
-4.557
-4.60155
-4.63998
-7.12308
-7.19111
-5.58188
-5.68124
-4.78354
-4.93371
-4.43515
-4.58059
-4.37482
-4.47894
-4.52275
-4.56052
-6.87757
-6.94318
-5.38944
-5.48534
-4.61858
-4.76357
-4.28217
-4.42261
-4.2239
-4.32443
-4.36671
-4.40317
-6.51363
-6.57585
-5.10428
-5.19516
-4.37425
-4.5116
-4.05567
-4.18869
-4.00051
-4.09573
-4.13579
-4.17033
-6.03899
-6.0966
-4.7323
-4.81652
-4.05543
-4.18275
-3.76005
-3.88336
-3.70888
-3.79715
-3.83427
-3.86629
-5.46026
-5.51244
-4.27883
-4.35503
-3.66686
-3.78201
-3.3998
-3.51133
-3.35357
-3.4334
-3.46697
-3.49593
-4.78886
-4.83454
-3.75266
-3.81945
-3.21592
-3.31688
-2.98168
-3.07947
-2.9411
-3.0111
-3.04054
-3.06593
-4.03479
-4.07335
-3.16178
-3.2181
-2.70957
-2.79468
-2.51224
-2.59466
-2.47809
-2.53708
-2.56189
-2.58329
-3.21239
-3.24302
-2.51729
-2.5621
-2.15724
-2.22497
-2.00011
-2.06571
-1.97289
-2.01985
-2.03959
-2.05662
-2.33433
-2.35666
-1.82925
-1.86186
-1.56763
-1.61689
-1.45347
-1.50117
-1.43372
-1.46785
-1.48221
-1.4946
-1.417
-1.4305
-1.11037
-1.13014
-0.951548
-0.981437
-0.882232
-0.911177
-0.870228
-0.890941
-0.899648
-0.907159
-0.474786
-0.479354
-0.372055
-0.378722
-0.31885
-0.328904
-0.295639
-0.305365
-0.291637
-0.298594
-0.301517
-0.304041
0.474954
0.479513
0.372213
0.378829
0.31899
0.328984
0.295767
0.305453
0.291744
0.298683
0.301609
0.304129
1.41713
1.43063
1.11051
1.13023
0.951671
0.981502
0.882348
0.911252
0.870324
0.89102
0.899731
0.907239
2.33454
2.35684
1.82943
1.86199
1.56779
1.61699
1.45361
1.50127
1.43383
1.46795
1.48231
1.49469
3.21249
3.24313
2.51741
2.56217
2.15735
2.22503
2.00021
2.06578
1.97298
2.01992
2.03967
2.0567
4.03502
4.07356
3.16198
3.21825
2.70975
2.7948
2.5124
2.59478
2.47821
2.53719
2.562
2.5834
4.78894
4.83463
3.75275
3.81951
3.21601
3.31693
2.98177
3.07953
2.94119
3.01117
3.04061
3.066
5.46053
5.51267
4.27905
4.3552
3.66704
3.78215
3.39997
3.51146
3.35371
3.43353
3.4671
3.49606
6.03903
6.09666
4.73237
4.81657
4.05551
4.1828
3.76013
3.88342
3.70896
3.79722
3.83435
3.86637
6.5139
6.5761
5.1045
5.19535
4.37443
4.51176
4.05584
4.18885
4.00066
4.09587
4.13592
4.17046
6.87759
6.94323
5.38948
5.48539
4.61864
4.76362
4.28225
4.42268
4.22398
4.32451
4.36679
4.40325
7.12337
7.19138
5.58209
5.68145
4.78371
4.9339
4.43531
4.58077
4.37497
4.4791
4.52289
4.56066
7.24746
7.31663
5.67932
5.7804
4.86703
5.01982
4.51255
4.66054
4.45115
4.55709
4.60164
4.64007
7.24739
7.31658
5.67928
5.78037
4.867
5.0198
4.51252
4.66053
4.45114
4.55708
4.60163
4.64007
7.12343
7.19143
5.58214
5.68149
4.78374
4.93393
4.43533
4.5808
4.37499
4.47912
4.52291
4.56068
6.8775
6.94316
5.38942
5.48537
4.6186
4.76362
4.28222
4.42268
4.22397
4.32451
4.36679
4.40326
6.51397
6.57615
5.10454
5.19541
4.37446
4.51182
4.05586
4.1889
4.00068
4.09591
4.13595
4.1705
6.03893
6.09658
4.73229
4.81654
4.05546
4.18281
3.76009
3.88344
3.70894
3.79724
3.83435
3.86638
5.46061
5.51273
4.2791
4.35528
3.66708
3.78223
3.39999
3.51153
3.35375
3.43358
3.46714
3.4961
4.78881
4.83453
3.75266
3.81949
3.21594
3.31694
2.98172
3.07955
2.94116
3.01119
3.04062
3.06602
4.03512
4.07364
3.16204
3.21835
2.70979
2.79491
2.51243
2.59487
2.47826
2.53727
2.56206
2.58346
3.21234
3.24301
2.51729
2.56214
2.15726
2.22504
2.00015
2.06579
1.97295
2.01994
2.03967
2.05671
2.33466
2.35694
1.82951
1.86211
1.56785
1.61712
1.45366
1.50138
1.43389
1.46805
1.48238
1.49477
1.41695
1.43049
1.11037
1.13019
0.95157
0.981508
0.882272
0.911264
0.870286
0.891033
0.899727
0.907249
0.475102
0.479635
0.372307
0.378975
0.319061
0.329138
0.295825
0.30558
0.291812
0.29879
0.30169
0.304218
-0.474999
-0.479518
-0.372214
-0.378784
-0.318967
-0.328909
-0.295726
-0.305364
-0.291684
-0.298589
-0.301529
-0.304038
-1.41682
-1.43035
-1.11026
-1.12998
-0.951462
-0.981265
-0.882164
-0.911034
-0.870151
-0.890822
-0.899559
-0.907062
-2.33458
-2.35685
-1.82943
-1.86194
-1.56777
-1.61691
-1.45357
-1.50118
-1.43377
-1.46786
-1.48223
-1.4946
-3.21217
-3.24284
-2.51715
-2.56191
-2.15713
-2.22479
-2.00003
-2.06556
-1.97281
-2.01972
-2.0395
-2.05652
-4.03507
-4.07356
-3.16198
-3.2182
-2.70972
-2.79471
-2.51235
-2.59468
-2.47815
-2.53709
-2.56192
-2.5833
-4.78861
-4.83433
-3.7525
-3.81925
-3.2158
-3.31669
-2.98158
-3.07931
-2.94101
-3.01097
-3.04044
-3.06582
-5.46057
-5.51267
-4.27905
-4.35515
-3.66701
-3.78207
-3.39992
-3.51137
-3.35364
-3.43343
-3.46701
-3.49596
-6.03869
-6.09636
-4.73211
-4.8163
-4.0553
-4.18256
-3.75995
-3.88321
-3.70879
-3.79703
-3.83418
-3.86619
-6.51396
-6.57611
-5.1045
-5.19531
-4.3744
-4.51169
-4.05578
-4.18876
-4.00059
-4.09578
-4.13584
-4.17037
-6.87724
-6.94292
-5.38922
-5.48513
-4.61843
-4.76339
-4.28207
-4.42247
-4.22382
-4.32432
-4.36663
-4.40309
-7.12342
-7.1914
-5.58209
-5.68143
-4.78368
-4.93384
-4.43525
-4.58069
-4.3749
-4.47901
-4.5228
-4.56057
-7.2471
-7.31631
-5.67906
-5.78013
-4.86682
-5.01958
-4.51237
-4.66032
-4.45099
-4.5569
-4.60148
-4.63991
)
;

boundaryField
{
    out
    {
        type            implicitExtrapolation;
    }
    in
    {
        type            implicitExtrapolation;
    }
    frontAndBack
    {
        type            empty;
    }
}


// ************************************************************************* //
