/*--------------------------------*- C++ -*----------------------------------*\
| =========                 |                                                 |
| \\      /  F ield         | foam-extend: Open Source CFD                    |
|  \\    /   O peration     | Version:  3.0                                   |
|   \\  /    A nd           | Web:         http://www.extend-project.de       |
|    \\/     M anipulation  |                                                 |
\*---------------------------------------------------------------------------*/
FoamFile
{
    version     2.0;
    format      ascii;
    class       volSymmTensorField;
    location    "7";
    object      sigma;
}
// * * * * * * * * * * * * * * * * * * * * * * * * * * * * * * * * * * * * * //

dimensions      [0 0 0 0 0 0 0];

internalField   nonuniform List<symmTensor> 
672
(
(-0.1716043747 -0.01039520742 -1.28661129e-19 0.1722693328 -2.557224651e-20 -0.0006649580941)
(-0.1581431281 -0.01202304376 -2.967385848e-19 0.1598068809 -1.597402326e-20 -0.001663752852)
(-0.1391876237 -0.01184624123 -1.916485768e-19 0.1416876729 -6.967334837e-21 -0.002500049148)
(-0.1196387819 -0.01097624932 -7.774200163e-20 0.1228430482 1.48926081e-21 -0.0032042663)
(-0.1012559824 -0.009872438333 -3.158138521e-19 0.1050438928 -3.146100676e-20 -0.003787910409)
(-0.08457117868 -0.008733621639 -3.037174817e-19 0.08880594485 -1.47924116e-19 -0.004234766171)
(-0.06972746048 -0.007644166004 -4.74566401e-19 0.07425140264 -1.556535314e-19 -0.004523942156)
(-0.05676142623 -0.006647663787 -5.89315944e-19 0.06136452655 -4.295746705e-19 -0.004603100317)
(-0.04566251005 -0.005754535792 -6.154282731e-19 0.05008010483 -2.920924182e-19 -0.004417594779)
(-0.03656221647 -0.004983633646 -3.404813479e-19 0.04043059499 -1.579142173e-20 -0.003868378521)
(-0.02955784874 -0.004332659361 -1.047817574e-19 0.03240564729 1.277304273e-19 -0.002847798543)
(-0.02500783228 -0.003792381441 -5.111695606e-20 0.02619628801 -2.149016114e-19 -0.001188455736)
(-0.1686547884 -0.03118810492 -1.065365722e-19 0.1693097681 7.581516298e-21 -0.0006549797143)
(-0.153275747 -0.03574498338 -2.818614382e-19 0.1549147896 6.084657042e-20 -0.00163904261)
(-0.133776828 -0.03513786428 -2.233537983e-19 0.1362391758 1.49250348e-19 -0.002462347831)
(-0.1142675805 -0.032557461 -4.166094835e-20 0.1174225819 -6.057690991e-20 -0.003155001389)
(-0.09616987544 -0.02932206214 -3.033239176e-19 0.09989789142 2.336063672e-20 -0.003728015976)
(-0.07986057459 -0.02600134201 -2.955437995e-19 0.08402614408 -2.575131053e-19 -0.004165569488)
(-0.06541237907 -0.02283933582 -5.717607752e-19 0.06985967418 -3.920921785e-19 -0.004447295111)
(-0.05282200467 -0.01996455457 -9.242968808e-19 0.05734411674 -5.995667679e-19 -0.004522112072)
(-0.0420652992 -0.01741343083 -4.997443527e-19 0.04640214784 -8.125116288e-20 -0.004336848644)
(-0.03325624778 -0.01524928911 -9.925929319e-20 0.03705119073 -1.195338941e-19 -0.003794942943)
(-0.02649086118 -0.01347875804 -3.504215228e-19 0.0292825182 -1.509480979e-19 -0.002791657026)
(-0.02213237111 -0.01211240532 -1.714915408e-19 0.02329637217 -1.793971707e-19 -0.001164001067)
(-0.1628895167 -0.05118862736 -3.176514941e-20 0.1635242337 -5.703967563e-20 -0.0006347169225)
(-0.1439325325 -0.05759235683 -2.148252001e-19 0.1455204888 1.360035504e-19 -0.001587956352)
(-0.1234408927 -0.05617762582 -2.826754817e-19 0.1258252579 2.621922144e-19 -0.0023843652)
(-0.104033495 -0.05181684729 -2.190596925e-19 0.1070864379 6.949148568e-20 -0.003052942945)
(-0.08649676795 -0.04651586207 -3.494586844e-19 0.09010109883 5.175366689e-20 -0.003604330881)
(-0.07091512043 -0.04113534465 -7.079807901e-19 0.07493862794 -1.831977496e-19 -0.004023507513)
(-0.05722825243 -0.03604226211 -1.036840922e-18 0.06151938732 -5.907884218e-20 -0.004291134882)
(-0.04535735461 -0.03142923002 -9.561357755e-19 0.04971584458 -8.578082361e-20 -0.004358489972)
(-0.03525207272 -0.02735154152 -3.347259035e-19 0.03942714549 6.957318357e-21 -0.004175072768)
(-0.02699228165 -0.0239085505 -5.174827083e-19 0.03064129235 -2.76629002e-19 -0.0036490107)
(-0.02066909272 -0.02111566841 -3.720241498e-19 0.02334999323 -2.60082858e-19 -0.002680900515)
(-0.01664947918 -0.0190077028 -6.990244046e-20 0.01776556406 -1.923201015e-19 -0.001116084884)
(-0.1545544665 -0.06993483312 6.04575293e-20 0.1551589395 -6.265069189e-20 -0.0006044729681)
(-0.1308464183 -0.0765243312 -1.871112962e-20 0.132357996 1.612111864e-19 -0.001511577756)
(-0.1090906544 -0.07372627674 -1.895436652e-19 0.111358467 2.623716702e-19 -0.002267812574)
(-0.08988946689 -0.06748194582 -2.102035858e-19 0.09279011275 1.799015951e-19 -0.00290064586)
(-0.07317052493 -0.06022105127 -2.569943355e-19 0.076590737 -5.582390649e-20 -0.003420212066)
(-0.05862384157 -0.05297204421 -4.717831836e-19 0.0624364436 9.210772858e-20 -0.003812602033)
(-0.04600992173 -0.04616816386 -6.525927337e-19 0.05006994123 3.63175188e-19 -0.004060019503)
(-0.03514799519 -0.04003383865 -1.334537425e-18 0.03926513772 3.389162821e-19 -0.004117142529)
(-0.02595186203 -0.03463203199 -7.268386133e-19 0.02988923346 1.078572375e-19 -0.003937371429)
(-0.01845419221 -0.03008466703 -9.117514516e-19 0.02188969923 6.310037521e-19 -0.003435507013)
(-0.01273772072 -0.02641474084 -7.522450418e-19 0.01525748991 2.294472341e-19 -0.002519769192)
(-0.009170646326 -0.02368745955 -1.901887999e-19 0.01021766572 2.832424661e-19 -0.001047019396)
(-0.1439876382 -0.08705053063 3.336536979e-21 0.1445525163 1.380501042e-19 -0.0005648780531)
(-0.115015376 -0.09178357498 8.027280361e-20 0.1164270183 2.219375981e-19 -0.001411642354)
(-0.09196499646 -0.08690123713 -1.741107393e-19 0.09408047346 3.152087763e-19 -0.002115476998)
(-0.07313113953 -0.07865550048 -3.115387664e-19 0.07583301542 1.444016956e-19 -0.002701875885)
(-0.05746099551 -0.06957378346 -4.344509118e-19 0.06064131509 -2.204195863e-20 -0.003180319585)
(-0.04419595752 -0.06070003465 -3.384780441e-19 0.0477342668 2.278438147e-19 -0.003538309285)
(-0.03289322797 -0.05246364128 -1.853926036e-19 0.03665322621 3.044675617e-19 -0.003759998239)
(-0.02325627962 -0.04508083864 -1.044812764e-18 0.02706071337 4.634090347e-19 -0.003804433752)
(-0.01515783105 -0.03860809118 -4.306968787e-19 0.01878778435 4.764555339e-19 -0.003629953291)
(-0.008575159729 -0.03317310172 3.88198104e-19 0.01173502896 4.195665762e-19 -0.003159869227)
(-0.003579765811 -0.0288045669 -7.651884072e-19 0.005891791449 4.650128062e-19 -0.002312025638)
(-0.0005351944433 -0.02560539747 -2.313886858e-19 0.001493217958 2.226218397e-19 -0.0009580235147)
(-0.1315879759 -0.1022660742 3.42097958e-21 0.1321048542 1.790750337e-19 -0.0005168782378)
(-0.09759640916 -0.1029642696 1.148508276e-19 0.0988869728 2.994148233e-19 -0.001290563633)
(-0.07349665636 -0.09526256222 6.452899442e-20 0.07542779301 2.28198685e-19 -0.001931136657)
(-0.05525531319 -0.08490612838 -3.52722636e-19 0.05771702352 1.421296031e-19 -0.002461710331)
(-0.04083414686 -0.07416872725 -2.174840907e-19 0.04372513406 -1.5409259e-19 -0.002890987206)
(-0.02902660062 -0.06394584819 -2.731651999e-19 0.03223471766 2.140323413e-19 -0.003208117037)
(-0.01918785063 -0.05458766521 4.395611155e-19 0.02258741796 3.989908091e-21 -0.003399567332)
(-0.01090642768 -0.04625918384 -4.284098891e-19 0.01433597179 4.656858333e-20 -0.00342954411)
(-0.004014081187 -0.03899534658 -9.907287917e-19 0.007276315739 9.500806358e-20 -0.003262234552)
(0.001569030592 -0.03291118495 -2.102617138e-19 0.001261928412 4.571335829e-19 -0.002830959004)
(0.005783606259 -0.02803875609 8.158554884e-19 -0.003718757689 -1.434532223e-20 -0.002064848571)
(0.008279576691 -0.02452203783 -3.886887445e-19 -0.007426993335 4.035607665e-21 -0.0008525833554)
(-0.1177803039 -0.1154271506 5.757537916e-20 0.1182418547 1.012545196e-19 -0.0004615507799)
(-0.07978307464 -0.1100406965 1.111577332e-19 0.08093419996 2.769905824e-19 -0.001151125319)
(-0.0551573332 -0.09884862041 2.616304493e-19 0.05687646479 5.390146339e-20 -0.001719131592)
(-0.03779664817 -0.08630572013 -1.765353819e-19 0.0399826038 -1.39743702e-19 -0.002185955633)
(-0.02479137042 -0.07409579671 -7.123219654e-19 0.02735076497 -1.386009785e-19 -0.002559394549)
(-0.01454354585 -0.06280932705 -4.574791269e-19 0.01737398579 1.288435838e-19 -0.002830439943)
(-0.006233560946 -0.05264535988 -1.185493717e-19 0.009221682365 -2.997021051e-20 -0.002988121419)
(0.0006491211817 -0.04367649025 7.090367379e-20 0.002353318998 1.942821064e-19 -0.00300244018)
(0.006308137742 -0.03590140494 -1.430331542e-19 -0.003464037541 4.429102566e-19 -0.002844100201)
(0.01087590087 -0.029404437 -5.244574062e-20 -0.008418272982 2.865497541e-19 -0.002457627887)
(0.01430669205 -0.02421938671 -4.667531115e-19 -0.0125219506 -2.267403004e-19 -0.001784741451)
(0.01627568095 -0.02053290246 -6.814890534e-20 -0.01554242474 4.780238191e-19 -0.000733256201)
(-0.1029784922 -0.1264926416 3.542750826e-20 0.1033786427 1.103752153e-19 -0.0004001505731)
(-0.06268052835 -0.1133547768 1.391407157e-19 0.06367704172 1.780941192e-19 -0.0009965133709)
(-0.03829959399 -0.09815980003 1.372341797e-19 0.0397840027 1.547612066e-20 -0.001484408718)
(-0.02216095958 -0.08341205825 1.234019367e-20 0.02404217689 -1.139044414e-19 -0.001881217311)
(-0.01070519955 -0.06992289107 -6.434793261e-19 0.01289892773 2.000430428e-19 -0.002193728181)
(-0.002050150425 -0.05784679163 -7.12202468e-19 0.004465044756 2.125774572e-19 -0.002414894331)
(0.00474796728 -0.04717175094 -7.797292902e-19 -0.002211489485 4.803807564e-19 -0.002536477795)
(0.01026944967 -0.03784361364 -1.037629229e-19 -0.007734746455 4.314547136e-19 -0.002534703216)
(0.01474285547 -0.0298124705 -2.40958585e-19 -0.01235561392 4.457916143e-19 -0.002387241546)
(0.01834243105 -0.02311633366 -2.40148223e-19 -0.01629178845 7.180624227e-19 -0.002050642602)
(0.02103531307 -0.0177890295 5.098465669e-19 -0.01955525097 5.379113993e-19 -0.001480062097)
(0.0225313537 -0.01405758275 -1.927340301e-19 -0.02192755378 2.26668138e-19 -0.0006037999212)
(-0.08755404764 -0.1355202483 -4.904191197e-20 0.08788803635 1.484353941e-19 -0.0003339887077)
(-0.04719283227 -0.1135627763 1.537650456e-19 0.04802292803 1.071751778e-19 -0.0008300957559)
(-0.02401408095 -0.09409049589 1.78897675e-19 0.02524628253 -5.369266793e-20 -0.001232201576)
(-0.009474516143 -0.07719682138 -1.133685999e-19 0.01102899296 1.668263676e-19 -0.001554476819)
(0.0003293227192 -0.06262479511 1.069443952e-19 0.001473283838 2.300754762e-19 -0.001802606557)
(0.007417133784 -0.05000302961 -5.589962518e-19 -0.005445567583 3.772549419e-19 -0.0019715662)
(0.01278788048 -0.03906769038 -2.980404937e-19 -0.01073196876 4.192956057e-19 -0.002055911729)
(0.01705149515 -0.02961458373 -3.193142293e-19 -0.0150131638 5.892626787e-19 -0.002038331359)
(0.0204468393 -0.02153705323 4.021710802e-19 -0.01854316272 9.689104592e-19 -0.001903676574)
(0.02317444631 -0.01481556925 7.570501042e-19 -0.0215534976 3.807586226e-19 -0.001620948713)
(0.02521440703 -0.009482562773 3.357282076e-19 -0.0240552125 -2.297164193e-19 -0.001159194525)
(0.02632110908 -0.005799452759 3.369934653e-19 -0.02585326774 -7.571559523e-20 -0.0004678413376)
(-0.07180945063 -0.1426430382 -1.302104597e-19 0.0720738918 1.22118885e-19 -0.0002644411691)
(-0.03393382311 -0.1115483937 -2.767317454e-20 0.03458919751 5.178448622e-20 -0.0006553744065)
(-0.013016712 -0.08781834534 -2.603519028e-19 0.01398464175 1.364101926e-19 -0.0009679297416)
(-0.0004650288084 -0.06892852806 -1.248644098e-19 0.001677964456 3.092237235e-19 -0.001212935647)
(0.007611963092 -0.05346784837 4.644585659e-20 -0.006217066904 3.697067819e-19 -0.001394896188)
(0.01320088911 -0.04050128937 3.03418939e-19 -0.01169009189 3.022719195e-19 -0.001510797215)
(0.01727591493 -0.02949667999 -1.215586252e-19 -0.01571796472 1.914973844e-19 -0.001557950202)
(0.02042994981 -0.02009042081 1.361980357e-19 -0.01890440713 5.914284721e-19 -0.001525542679)
(0.02289502064 -0.01211567817 8.797458933e-19 -0.02148945515 3.551286056e-19 -0.001405565496)
(0.02487868033 -0.005489688208 9.070029608e-19 -0.02369914274 -4.605377056e-19 -0.00117953759)
(0.02637258408 -0.0002421726487 -8.039622595e-20 -0.02554220575 -2.660025487e-19 -0.0008303783318)
(0.02718276396 0.003337429729 2.21330455e-19 -0.0268539287 -9.152125238e-20 -0.0003288352569)
(-0.05596365562 -0.1480397893 -8.76947768e-20 0.05615652802 4.679406603e-20 -0.0001928723984)
(-0.02317292005 -0.1083119011 -7.768712747e-20 0.02364875581 4.302687455e-20 -0.0004758357593)
(-0.005579966064 -0.08066287723 -1.364863037e-19 0.006276953245 1.651205777e-19 -0.0006969871812)
(0.004610795106 -0.06002293825 8.813071068e-21 -0.003747041971 2.249919364e-19 -0.0008637531353)
(0.01090857389 -0.04386211097 -1.104386865e-19 -0.009929176412 3.634027325e-19 -0.0009793974827)
(0.01509078244 -0.03070135852 3.650019469e-19 -0.01404793691 2.366700887e-19 -0.001042845528)
(0.01802425046 -0.01975040021 1.156722315e-19 -0.01697021115 2.071314609e-19 -0.001054039313)
(0.02023656187 -0.01049234846 3.827076778e-19 -0.01922805334 2.789080835e-19 -0.00100850853)
(0.02193502645 -0.002702449039 4.491263235e-19 -0.0210298874 -1.011670937e-19 -0.0009051390503)
(0.02331406321 0.003764638363 7.581757093e-20 -0.0225764284 -3.079783592e-19 -0.0007376348135)
(0.02437510632 0.008882681285 -1.177298298e-19 -0.02387273411 -3.964056816e-20 -0.0005023722122)
(0.02498118883 0.01234347755 -1.079235312e-20 -0.02479044576 -3.097230647e-20 -0.0001907430714)
(-0.04014649672 -0.1519016209 8.220066832e-20 0.04026710667 -3.329586669e-20 -0.0001206099483)
(-0.01482023649 -0.1048476043 -5.777000117e-20 0.01511509114 -1.102681095e-20 -0.0002948546526)
(-0.001514269737 -0.07392920297 -2.069455239e-19 0.001938833286 1.139587236e-19 -0.0004245635496)
(0.005986904583 -0.05187760415 -2.462656729e-19 -0.005473135018 2.249179103e-19 -0.0005137695644)
(0.01047062662 -0.03519790531 -1.555813845e-19 -0.009906177776 3.502997629e-19 -0.0005644488492)
(0.01334257336 -0.0219429536 1.672967686e-19 -0.01276523598 2.123057912e-19 -0.0005773373814)
(0.01528612343 -0.01110075751 -2.586652945e-19 -0.01473133732 3.185115702e-19 -0.0005547861174)
(0.01671878151 -0.002022545632 5.448190081e-19 -0.01622043767 2.772046807e-19 -0.0004983438454)
(0.01780646653 0.005566464486 3.466617866e-19 -0.01739315481 -1.391470897e-19 -0.0004133117157)
(0.01871102501 0.01186676286 -9.86009215e-20 -0.01840607608 -3.282089317e-19 -0.000304948923)
(0.01944161125 0.01685513576 -6.501891629e-19 -0.01925932784 -3.310257517e-20 -0.000182283405)
(0.01991922044 0.02021542549 1.637658622e-19 -0.01986283188 -1.030960397e-21 -5.638855836e-05)
(-0.0244062409 -0.1544011788 6.55792017e-20 0.02445514875 -2.742819673e-20 -4.890785748e-05)
(-0.008453501324 -0.1020246578 -4.910129724e-20 0.008569110934 -1.064415042e-20 -0.0001156096108)
(-0.0002024239983 -0.06875570424 -1.822237145e-19 0.0003579608171 9.64448842e-20 -0.0001555368188)
(0.00435142304 -0.04571064047 -1.466074905e-19 -0.004182023505 2.059168743e-19 -0.0001693995348)
(0.006999186817 -0.02868669692 -1.7397619e-20 -0.00684132191 2.912496027e-19 -0.0001578649077)
(0.008643687516 -0.01539344715 4.281195336e-20 -0.008520386696 2.546774817e-19 -0.0001233008199)
(0.009723389376 -0.004656417597 2.002611672e-20 -0.00965319586 3.016623453e-19 -7.019351576e-05)
(0.010509263 0.004270257946 2.722530715e-19 -0.01050363857 1.54475868e-19 -5.62442376e-06)
(0.01111190219 0.01169859635 -5.57845364e-20 -0.01117121247 -9.042248447e-20 5.931027737e-05)
(0.01164416664 0.01787106713 -1.738431798e-19 -0.01175293792 -1.987372656e-19 0.0001087712778)
(0.01212129702 0.02276701356 -5.301949647e-19 -0.01224351632 -4.419122047e-20 0.0001222192996)
(0.01251979906 0.02607336785 -3.476553767e-20 -0.01259045949 -2.216159412e-20 7.066043303e-05)
(-0.008726153162 -0.1556649871 6.029898013e-20 0.00870505062 -1.055059451e-20 2.110254206e-05)
(-0.003383042529 -0.1004831876 -3.405969243e-20 0.00332400302 9.242636055e-21 5.90395096e-05)
(-0.0006827944179 -0.06598108125 -1.786060286e-19 0.0005770469711 8.040481657e-20 0.0001057474468)
(0.0007584605578 -0.04241973186 -3.674476452e-20 -0.0009221724338 1.677423445e-19 0.000163711876)
(0.00155762662 -0.02522156088 -5.004077775e-20 -0.001791217112 2.496052695e-19 0.000233590492)
(0.002029333045 -0.01191389354 2.853321583e-20 -0.00234092951 2.550204249e-19 0.0003115964646)
(0.002327016637 -0.001235838851 4.56040434e-20 -0.002718474717 2.680179124e-19 0.0003914580795)
(0.00255101347 0.007610858975 -4.113144638e-20 -0.003012164451 1.607062642e-19 0.0004611509814)
(0.002747063511 0.01495894644 -1.607658612e-19 -0.00325164264 -1.747382777e-20 0.0005045791286)
(0.002967430794 0.02107505439 -3.025426773e-19 -0.003463901045 -1.179675542e-19 0.0004964702506)
(0.00323207744 0.02593971932 -3.597514127e-19 -0.003638243788 -4.217497346e-20 0.0004061663482)
(0.003566626787 0.02925142385 -1.086298641e-19 -0.003755225814 -3.282739687e-20 0.0001885990266)
(0.006950623725 -0.1557553016 5.764518811e-20 -0.007039036375 7.029133373e-21 8.841265055e-05)
(0.001253131284 -0.1005590715 -1.232624816e-20 -0.001479699865 3.180554346e-20 0.0002265685807)
(-0.001770897758 -0.06604762546 -1.573353804e-19 0.001415424881 6.277797863e-20 0.0003554728769)
(-0.003500610756 -0.04247941453 4.772111874e-20 0.003019977287 1.332890967e-19 0.0004806334691)
(-0.00455536234 -0.02527547737 -7.048054214e-21 0.003951344551 2.176053881e-19 0.0006040177893)
(-0.005238892098 -0.01196122581 2.341496898e-20 0.004518227374 2.357482736e-19 0.0007206647234)
(-0.005697137186 -0.001274476832 1.030289851e-20 0.0048742599 2.696774597e-19 0.000822877286)
(-0.006009556014 0.007585171063 -1.278111317e-19 0.005115170145 1.920914489e-19 0.0008943858689)
(-0.006199292699 0.01495244855 -3.191975198e-19 0.005284346733 2.626746045e-20 0.0009149459655)
(-0.006280162925 0.02109755943 -3.877033329e-19 0.005428922922 -6.601632975e-20 0.0008512400026)
(-0.006228464216 0.02600153316 -2.448895989e-19 0.005564383282 -1.051276229e-20 0.0006640809343)
(-0.005978471546 0.02938058146 -1.678578566e-19 0.005683687446 -5.356305021e-20 0.0002947841006)
(0.02269138868 -0.1546607222 6.811550133e-20 -0.0228435796 1.896262554e-20 0.0001521909152)
(0.006374028921 -0.1022444094 2.089885797e-20 -0.006758930893 4.386913605e-20 0.0003849019726)
(-0.002207176883 -0.06895001203 -9.324619221e-20 0.001616619209 5.552557394e-20 0.0005905576735)
(-0.007053893442 -0.04588650572 7.923889295e-20 0.006276417345 9.891345796e-20 0.000777476097)
(-0.009960854127 -0.02884722368 1.009290157e-19 0.00901193655 1.935773387e-19 0.0009489175778)
(-0.01182177307 -0.01553633212 4.918510355e-20 0.01072277405 2.028933451e-19 0.001098999019)
(-0.01306900476 -0.004775682333 1.304755969e-19 0.01185000311 2.871479634e-19 0.00121900165)
(-0.01395501728 0.004186711016 -3.662123195e-19 0.01266588008 2.198533926e-19 0.001289137197)
(-0.01457022395 0.01166856394 -3.94933409e-19 0.01328427203 3.644996823e-20 0.00128595192)
(-0.01499334187 0.01792248575 -2.955946492e-19 0.01382384868 -1.855196717e-20 0.00116949319)
(-0.01519763301 0.02292920372 -1.924443078e-19 0.0143039072 6.396781833e-20 0.0008937258091)
(-0.01508596397 0.02642497267 -3.492840038e-19 0.01469731576 -8.853549325e-20 0.0003886482043)
(0.03854368608 -0.1522983463 7.332674219e-20 -0.03875543924 1.511253678e-20 0.0002117531622)
(0.01283496818 -0.1051889337 6.474561328e-20 -0.01336733583 2.506142013e-20 0.0005323676526)
(-0.0008119506937 -0.07423623701 7.83211801e-20 3.39834994e-06 7.478806073e-20 0.0008085523437)
(-0.008613348693 -0.05216064804 -1.242315612e-20 0.007562151652 6.740643134e-20 0.001051197041)
(-0.01336223895 -0.03546153913 1.925285747e-19 0.01209743181 1.66645568e-19 0.001264807143)
(-0.01645851061 -0.02218377033 -5.530297213e-20 0.01501567301 1.752763956e-19 0.001442837598)
(-0.01858205851 -0.01130989061 -2.295479172e-20 0.0170061363 2.743553293e-19 0.001575922211)
(-0.02013633243 -0.002182035877 -4.449507962e-19 0.01849481323 1.970398428e-19 0.001641519198)
(-0.02127153024 0.005483147969 -1.894329136e-19 0.01965765653 9.283602813e-20 0.001613873706)
(-0.02212319488 0.01190117737 -4.36001991e-19 0.02067528779 1.100908719e-19 0.001447907087)
(-0.02266195298 0.01705185554 -2.884033678e-19 0.02156950981 9.697726853e-20 0.00109244317)
(-0.02276796558 0.02069021616 -3.25727218e-19 0.02229915685 -1.188620388e-19 0.0004688087362)
(0.0545072255 -0.1485264586 -4.833465135e-20 -0.0547738322 -5.837567847e-20 0.0002666066935)
(0.02131339253 -0.1087418869 1.305418553e-19 -0.02198116641 -4.787879941e-20 0.0006677738746)
(0.003367578253 -0.0810603688 2.106397288e-19 -0.004375363175 4.898601903e-20 0.001007784922)
(-0.007131002598 -0.06039981208 1.412696231e-19 0.005831158978 6.181959297e-20 0.001299843619)
(-0.01369988751 -0.04422370072 2.11103193e-19 0.01215023648 9.069404095e-20 0.001549651035)
(-0.01811502255 -0.03104377768 6.436606043e-20 0.01636478008 -2.861782538e-20 0.001750242475)
(-0.02124329895 -0.02006339252 5.614211286e-19 0.01935131813 1.874788733e-19 0.001891980819)
(-0.02360426913 -0.01075508173 -6.780305108e-20 0.02165397603 3.891127494e-19 0.001950293097)
(-0.02539579569 -0.002884049615 -2.049744954e-19 0.02349777261 1.844479039e-19 0.00189802308)
(-0.02679655751 0.003712421954 -9.928603819e-20 0.02511019107 2.163511054e-19 0.001686366442)
(-0.02777518483 0.009013130883 -6.910390686e-20 0.02651453583 2.946117629e-19 0.001260649003)
(-0.02819483061 0.012790017 -3.67382634e-19 0.02765900811 -7.918943704e-20 0.000535822499)
(0.07051219158 -0.1431655204 -9.975580112e-20 -0.07082859452 -1.167814087e-19 0.0003164029434)
(0.03221595356 -0.1120290851 1.155580482e-19 -0.03300627463 -1.454675405e-19 0.0007903210712)
(0.01093720438 -0.0882805168 2.745143047e-19 -0.01212439826 1.432796916e-20 0.001187193879)
(-0.001926800048 -0.06938378362 1.390976419e-19 0.0004045257175 7.62783006e-20 0.00152227433)
(-0.01027789798 -0.05392161664 1.880865371e-20 0.008475515153 3.509502596e-20 0.001802382829)
(-0.0161059549 -0.04095011163 -8.085044231e-22 0.01408559442 -2.140327444e-19 0.002020360484)
(-0.02038922531 -0.02993085216 5.270104076e-19 0.01822260917 -1.029573078e-19 0.002166616141)
(-0.02371946069 -0.02048980973 2.680170534e-19 0.02150422483 3.191800867e-19 0.002215235857)
(-0.02632643318 -0.01245002925 -7.702706919e-20 0.02418797717 4.016065021e-21 0.002138456005)
(-0.02841395741 -0.005711759801 4.63461138e-19 0.0265288584 -1.478024707e-19 0.001885099009)
(-0.02994844893 -0.0002981104885 4.047154306e-19 0.02854994158 4.566648794e-19 0.001398507358)
(-0.03077907069 0.003575698873 -9.718315382e-20 0.03018945275 1.103731459e-19 0.0005896179457)
(0.08640631485 -0.1360266533 4.301870141e-20 -0.08676727573 -7.859288818e-20 0.0003609608848)
(0.0456160682 -0.1140574319 1.328836971e-19 -0.04651569555 -2.237151982e-19 0.0008996273494)
(0.02207424513 -0.09459213173 4.349498835e-19 -0.02342063029 -4.449767322e-20 0.001346385156)
(0.007224306426 -0.07771518592 2.007982699e-19 -0.00894257671 8.560469879e-20 0.001718270284)
(-0.002850741917 -0.06316493328 7.291522905e-20 0.0008276001261 -2.629561376e-20 0.002023141791)
(-0.01017825849 -0.05056292024 -3.699083513e-20 0.007924423778 -2.60393409e-19 0.002253834717)
(-0.01576536071 -0.03964020082 3.261799422e-19 0.01336427804 -4.969066371e-19 0.002401082666)
(-0.0202276486 -0.03018401594 4.007597881e-19 0.01778942428 7.587196472e-20 0.002438224313)
(-0.02380911901 -0.02207901498 -2.255943586e-20 0.02147152991 4.129635045e-19 0.002337589104)
(-0.02671851037 -0.01529194974 -1.938787517e-19 0.02467172997 -1.765343683e-19 0.002046780393)
(-0.02892026476 -0.00984777915 5.440143332e-19 0.02741178291 -1.780020272e-19 0.001508481855)
(-0.03025162128 -0.005951937869 -3.257125825e-19 0.02962007966 1.004406529e-19 0.0006315416149)
(0.101951453 -0.1269419482 3.926850717e-21 -0.1023516692 -1.558941173e-19 0.0004002161819)
(0.06122984765 -0.1138337033 1.254292821e-19 -0.0622254709 -2.602502563e-19 0.0009956232508)
(0.03649514503 -0.09868006987 2.375136592e-19 -0.03798059134 -2.795644894e-19 0.001485446317)
(0.02005732175 -0.08398060905 2.295487641e-19 -0.02194556797 5.432794862e-20 0.001888246221)
(0.008341774927 -0.07054429509 -2.750140456e-19 -0.0105545953 3.7688077e-20 0.002212820376)
(-0.0005448230865 -0.05852152374 -9.396801854e-20 -0.001907326604 -9.707853637e-20 0.00245214969)
(-0.007558038613 -0.04789718587 -3.541868042e-19 0.004960542593 -5.481763825e-19 0.00259749602)
(-0.01328997621 -0.0386118422 3.162101593e-19 0.01066802158 -5.351795908e-19 0.002621954637)
(-0.01798142352 -0.03060988077 6.136992912e-19 0.01548292673 -1.531363851e-19 0.002498496797)
(-0.02182579813 -0.02392126579 6.381005993e-19 0.01965130697 3.443860655e-19 0.002174491164)
(-0.02478467586 -0.01857295948 -3.072457089e-19 0.02319162518 3.384986227e-19 0.001593050686)
(-0.02668198974 -0.01476305369 2.80332786e-19 0.02601933907 1.239814953e-19 0.0006626506655)
(0.116832224 -0.1157955631 -4.371022484e-20 -0.1172664429 -2.381076386e-19 0.000434218894)
(0.07843311258 -0.1104856093 1.05609737e-19 -0.07951163509 -2.60959138e-19 0.001078522505)
(0.05347546666 -0.099373916 -1.658241752e-20 -0.05508037291 -3.864794938e-19 0.001604906252)
(0.0358375536 -0.08691546758 9.943267163e-20 -0.03787076296 -3.532035041e-19 0.002033209362)
(0.02259395437 -0.07479454443 3.788324094e-19 -0.02496701324 1.814704295e-19 0.002373058873)
(0.01213338605 -0.06360120437 1.276013017e-19 -0.01475107241 2.268778331e-19 0.002617686361)
(0.003621592029 -0.05353400746 1.131982072e-19 -0.006380610075 5.67133179e-20 0.002759018047)
(-0.00346860334 -0.04466435979 4.504164747e-19 0.0006983156585 -3.897434549e-19 0.002770287682)
(-0.009359137504 -0.03698892869 6.576553511e-19 0.006733631485 2.057081784e-20 0.002625506019)
(-0.01421041721 -0.03059087238 6.666198025e-19 0.01193786116 1.423047056e-19 0.002272556049)
(-0.01798072793 -0.02549833381 9.659410124e-19 0.01632492785 -5.341673903e-20 0.001655800086)
(-0.02047868067 -0.0219043159 2.062002404e-19 0.01979403853 4.729884667e-19 0.0006846421425)
(0.1306726913 -0.1025500506 -8.080819883e-21 -0.1311357837 -1.747926022e-19 0.0004630923425)
(0.09631714786 -0.103370325 1.649552735e-20 -0.09746587462 -3.003453395e-19 0.001148726759)
(0.07191976159 -0.09578770556 -1.400829163e-19 -0.07362533849 -4.503099379e-19 0.001705576907)
(0.0534338892 -0.08555238416 3.07853767e-20 -0.05558841993 -5.81014153e-19 0.002154530731)
(0.03880606441 -0.07494148765 6.551200722e-19 -0.04131199039 -4.020881612e-19 0.002505925982)
(0.02681571727 -0.0648538421 4.9104187e-19 -0.02956902142 2.013536545e-19 0.002753304146)
(0.01680155064 -0.05564200607 5.303433587e-19 -0.01969086909 5.628986259e-20 0.002889318449)
(0.008332393674 -0.0474741304 5.069436458e-19 -0.01121999509 -2.038820342e-19 0.00288760142)
(0.001217237069 -0.04038730237 1.415980761e-18 -0.003940676626 -4.033248671e-19 0.002723439557)
(-0.004657528401 -0.03450249479 1.030992939e-18 0.002311794006 1.741034213e-19 0.002345734395)
(-0.009246529533 -0.02984794735 -5.286368776e-19 0.007545899366 -3.817201579e-19 0.001700630167)
(-0.01233833866 -0.02661158795 1.939569801e-19 0.01163900655 -1.296535655e-20 0.0006993321132)
(0.1430633452 -0.08726603617 2.664898748e-20 -0.1435503516 2.004948967e-20 0.0004870063786)
(0.1137781125 -0.09215891859 -1.600932128e-19 -0.1149848626 -1.609387447e-19 0.001206750151)
(0.09047459817 -0.0874290998 -3.105383418e-19 -0.09226302578 -3.897904013e-19 0.001788427604)
(0.07143804666 -0.0793374276 1.268811828e-19 -0.07369181028 -4.204357455e-19 0.002253763618)
(0.05560198169 -0.07041713519 2.417908762e-19 -0.05821565716 -9.316353432e-19 0.002613675467)
(0.04219454495 -0.0617187275 7.405756295e-19 -0.04505657292 -3.509733119e-19 0.002862027974)
(0.03075574177 -0.05367672948 9.133155849e-21 -0.03374792602 -4.287600554e-19 0.002992184251)
(0.02096804223 -0.04651453507 7.528421173e-19 -0.02394636066 -3.543221754e-19 0.002978318423)
(0.01267882155 -0.04029505335 4.750850772e-19 -0.01547587925 -7.273401472e-19 0.002797057699)
(0.005828962238 -0.03515836601 -7.106874078e-19 -0.00822757176 -8.356754547e-19 0.002398609522)
(0.0004672087734 -0.03113223074 -7.298222629e-19 -0.002198362182 -3.66940121e-19 0.001731153409)
(-0.003171574551 -0.0283955097 -1.260464133e-20 0.002463300487 -4.175742141e-19 0.0007082740634)
(0.1535913206 -0.07011300815 2.570523159e-20 -0.154097476 1.690911868e-19 0.0005061553701)
(0.1296290118 -0.07688715518 -1.593773934e-19 -0.1308821679 -2.672468375e-20 0.001253156104)
(0.1076709287 -0.07426576967 -9.554059002e-20 -0.1095254191 -1.385571334e-19 0.001854490385)
(0.08831493754 -0.06820119313 -5.85846923e-20 -0.09064746404 -3.922420258e-19 0.002332526501)
(0.0714774114 -0.06113061944 5.504452592e-21 -0.07417604078 -6.222175752e-19 0.002698629374)
(0.05683701852 -0.0540913126 1.718270521e-19 -0.05978397556 -8.487303301e-19 0.002946957041)
(0.04413742241 -0.04752391239 3.374401625e-20 -0.04720893221 -7.909557109e-19 0.003071509799)
(0.03317715479 -0.04166306815 3.953130629e-19 -0.03622417982 -3.825475282e-19 0.003047025028)
(0.02384382085 -0.03658164399 -6.04753346e-19 -0.02669522315 -4.942581699e-19 0.0028514023)
(0.01613386916 -0.03241865442 -9.891130967e-19 -0.01857005534 -5.346592176e-19 0.002436186174)
(0.01010003438 -0.02920025788 -2.545154338e-19 -0.01185160682 -5.810133343e-19 0.001751572444)
(0.00600383008 -0.02708970304 1.04152881e-19 -0.006717377291 1.734506141e-20 0.000713547211)
(0.1618746787 -0.05136875419 -5.990167249e-20 -0.1623953932 9.620644953e-20 0.0005207145296)
(0.1427229358 -0.05796622027 -2.98921069e-19 -0.1440113911 -1.928607691e-20 0.001288455282)
(0.1220810281 -0.05674058268 -3.295375413e-19 -0.1239857093 -1.599601988e-19 0.001904681249)
(0.1025686558 -0.05257554597 -2.670474497e-19 -0.1049608832 -3.040369227e-19 0.002392227411)
(0.08496367801 -0.04748509769 6.114942223e-21 -0.08772643792 -2.881580031e-19 0.002762759906)
(0.06934174489 -0.04233968001 -2.001179136e-19 -0.07235241046 -5.534499747e-19 0.003010665565)
(0.05562694366 -0.03751519869 -1.317370217e-19 -0.05875737978 -5.344307991e-19 0.003130436119)
(0.04372144137 -0.03321621228 5.318401337e-19 -0.04681874903 -6.911963194e-19 0.003097307664)