/*--------------------------------*- C++ -*----------------------------------*\
| =========                 |                                                 |
| \\      /  F ield         | foam-extend: Open Source CFD                    |
|  \\    /   O peration     | Version:  3.0                                   |
|   \\  /    A nd           | Web:         http://www.extend-project.de       |
|    \\/     M anipulation  |                                                 |
\*---------------------------------------------------------------------------*/
FoamFile
{
    version     2.0;
    format      ascii;
    class       volSymmTensorField;
    location    "63";
    object      sigma;
}
// * * * * * * * * * * * * * * * * * * * * * * * * * * * * * * * * * * * * * //

dimensions      [0 0 0 0 0 0 0];

internalField   nonuniform List<symmTensor> 
2688
(
(-0.1787484829 -0.005023085849 1.890472194e-19 0.1788294592 3.996562305e-19 -8.097625547e-05)
(-0.1752476944 -0.00590940348 2.059943289e-20 0.1754670316 2.725751783e-19 -0.0002193372052)
(-0.1680236891 -0.006334253806 -9.130404104e-20 0.1683667667 7.600340743e-19 -0.0003430776635)
(-0.1586772656 -0.006446953408 8.058398017e-20 0.1591318294 3.420261738e-19 -0.0004545638311)
(-0.1487838623 -0.006409938539 2.188959646e-21 0.1493393642 4.490609286e-19 -0.0005555019177)
(-0.1384150282 -0.006255940941 1.325810491e-19 0.1390619153 2.300691922e-19 -0.0006468871111)
(-0.1284521209 -0.006059902513 4.300099467e-21 0.1291815463 3.115673025e-19 -0.0007294254184)
(-0.118579045 -0.00582581198 9.688763907e-20 0.1193823794 1.266662536e-19 -0.0008033343773)
(-0.109347239 -0.005588347375 -2.150652559e-20 0.1102159579 2.557701195e-19 -0.0008687189092)
(-0.1004166392 -0.005348140643 -5.942888484e-20 0.1013419092 -6.343495629e-20 -0.0009252700268)
(-0.09212592193 -0.00511824564 9.927162539e-20 0.0930985822 4.775535507e-19 -0.000972660276)
(-0.08422578377 -0.004902873551 -6.55470929e-20 0.08523592366 7.303714931e-20 -0.001010139893)
(-0.07689544554 -0.004702226573 3.806425485e-19 0.07793244966 1.317061463e-19 -0.00103700412)
(-0.07000486174 -0.004525516689 -8.260688581e-20 0.07105692268 2.553878548e-20 -0.001052060934)
(-0.06360644569 -0.004364657167 9.088740168e-22 0.06466065225 8.208614383e-20 -0.00105420656)
(-0.05768848034 -0.004233638338 2.312157373e-20 0.05873022568 2.044562333e-20 -0.001041745338)
(-0.05220071607 -0.004118864643 -5.577675238e-20 0.05321380311 1.548278827e-19 -0.001013087037)
(-0.0472383072 -0.004038171571 2.293465504e-19 0.04820424045 7.451648321e-20 -0.0009659332485)
(-0.04267101188 -0.003974920192 -2.27009993e-19 0.04356907789 -9.415750979e-20 -0.0008980660039)
(-0.03868193355 -0.003948763286 1.706150053e-19 0.03948839854 1.748099493e-19 -0.0008064649893)
(-0.03508932518 -0.003943446195 7.750391256e-20 0.03577741384 -1.815152462e-19 -0.0006880886561)
(-0.03213407733 -0.00397553381 5.821670277e-20 0.0326731152 -3.418454183e-19 -0.0005390378752)
(-0.02962567384 -0.004034363089 -2.242839315e-20 0.02998084271 8.89991693e-20 -0.000355168871)
(-0.02781072686 -0.004142191152 -9.675815696e-20 0.02794219519 -6.844206302e-19 -0.0001314683278)
(-0.178248835 -0.01470940363 3.912586379e-20 0.1783305291 -4.959690742e-19 -8.169409016e-05)
(-0.1743213745 -0.01732314017 2.862657056e-19 0.1745427156 -3.01766727e-19 -0.0002213411603)
(-0.1668443972 -0.01855012461 8.737952644e-20 0.1671905657 -4.786317952e-19 -0.0003461685752)
(-0.1573663052 -0.01883838638 -1.798860636e-19 0.1578249766 -5.555427326e-20 -0.0004586714179)
(-0.1474047356 -0.01867203749 1.13153816e-19 0.1479652615 -1.589644109e-19 -0.0005605259376)
(-0.1370169861 -0.01814939883 -1.232537652e-19 0.137669734 -3.075557389e-19 -0.0006527479167)
(-0.1270593147 -0.01749355438 2.150929892e-19 0.1277953617 1.265271307e-19 -0.0007360469286)
(-0.1172107533 -0.01671617851 -7.040132359e-20 0.1180213925 -4.511845302e-19 -0.0008106392084)
(-0.1080125753 -0.01592024736 -7.964864993e-20 0.1088892076 5.397590236e-20 -0.0008766323542)
(-0.0991212187 -0.01510700479 2.399119758e-19 0.1000549295 -4.152880842e-19 -0.0009337107979)
(-0.09087288767 -0.01431486858 8.235588894e-20 0.09185443192 -9.505532612e-20 -0.0009815442491)
(-0.08301405283 -0.01355560156 -2.520266673e-20 0.08403342696 -2.797286152e-19 -0.00101937413)
(-0.07572577525 -0.01282915499 -1.940058466e-19 0.07677226319 1.383525559e-19 -0.001046487937)
(-0.06887261996 -0.01216217059 1.71403928e-19 0.06993430422 -6.640965933e-20 -0.001061684266)
(-0.06251146859 -0.01152979644 -6.512268232e-20 0.06357531457 2.126058037e-19 -0.001063845986)
(-0.05662406817 -0.0109728541 4.996777348e-20 0.05767533587 3.575326273e-19 -0.001051267693)
(-0.05116628713 -0.01045023457 3.101268084e-19 0.0521886251 -2.12673383e-19 -0.001022337967)
(-0.04622590201 -0.01001370376 -4.520025989e-19 0.04720064846 4.322322696e-19 -0.0009747464538)
(-0.0416795106 -0.009613815825 3.360102345e-19 0.04258575702 3.601204695e-19 -0.0009062464177)
(-0.03770282143 -0.00930666482 -2.232541501e-20 0.03851662579 -9.370176358e-21 -0.0008138043675)
(-0.03412015802 -0.009045134805 -4.73306028e-19 0.03481450503 1.593604321e-19 -0.0006943470036)
(-0.03116657434 -0.008876786245 1.709849266e-19 0.03171052616 4.049181338e-19 -0.0005439518251)
(-0.02865465658 -0.008773441846 -3.693553655e-19 0.02901309025 2.529560803e-19 -0.0003584336713)
(-0.02682828793 -0.008766002768 2.968655751e-19 0.02696100514 -4.315492308e-20 -0.0001327172071)
(-0.1772616391 -0.02436753383 2.16819282e-19 0.1773438192 3.86786396e-19 -8.218013653e-05)
(-0.1724950231 -0.02859153154 -2.396002086e-20 0.1727176715 5.294513219e-19 -0.0002226484082)
(-0.1645222293 -0.03054806938 5.426267907e-20 0.1648704683 2.337296084e-19 -0.000348238969)
(-0.154788279 -0.03097116383 2.815943846e-19 0.1552496965 1.977729033e-19 -0.000461417517)
(-0.1446964035 -0.03065170951 -1.989300631e-19 0.1452602954 3.125027918e-19 -0.0005638918979)
(-0.1342760345 -0.02974983835 3.111169312e-19 0.1349327026 1.809047827e-19 -0.0006566681056)
(-0.124333623 -0.0286304593 -9.351226262e-20 0.1250740938 2.608619193e-19 -0.0007404707747)
(-0.1145388519 -0.02731141 1.63641889e-20 0.1153543654 2.090158907e-19 -0.0008155134405)
(-0.1054127468 -0.02596155633 -5.033691696e-20 0.1062946526 5.180769897e-19 -0.0008819058109)
(-0.09660505495 -0.02458157987 -2.304084414e-19 0.09754438626 1.885549082e-19 -0.0009393313106)
(-0.08844696388 -0.02323481122 1.679773897e-19 0.08943441854 4.931038433e-19 -0.0009874546576)
(-0.08067681332 -0.02193926057 1.559283315e-19 0.08170232868 6.735762664e-20 -0.001025515363)
(-0.07347912899 -0.02069523261 5.804654331e-19 0.07453192067 -5.48902209e-20 -0.001052791683)
(-0.06670811136 -0.01954526689 -1.477235632e-22 0.06777618902 -6.854211885e-20 -0.001068077658)
(-0.06042919627 -0.01844896284 4.657782196e-19 0.06149944015 -8.694184597e-20 -0.001070243875)
(-0.05461162776 -0.01747224158 -3.223185935e-19 0.05566920507 -7.658753473e-20 -0.00105757731)
(-0.04922300304 -0.01654802427 7.050523512e-21 0.05025145594 1.075104961e-19 -0.001028452898)
(-0.0443369577 -0.01576022345 9.938290072e-19 0.04531750765 -1.068364625e-19 -0.0009805499502)
(-0.03984344173 -0.01502812821 -6.180301272e-19 0.04075504967 5.823757686e-20 -0.0009116079396)
(-0.03590338445 -0.01444272578 3.816009897e-20 0.03672196482 -1.591998599e-20 -0.000818580378)
(-0.03235421363 -0.01392725024 5.484318905e-19 0.03305259301 -9.005104725e-21 -0.0006983793745)
(-0.02941735644 -0.0135591525 3.458788339e-19 0.02996442394 -3.85321624e-19 -0.0005470675009)
(-0.02691550536 -0.0132937368 -5.284760722e-19 0.02727594831 2.692870647e-19 -0.0003604429555)
(-0.025082508 -0.01316998674 -2.236444838e-19 0.02521593518 -5.465862647e-19 -0.0001334271804)
(-0.1757857367 -0.03397984567 6.443963172e-20 0.1758681502 4.36545422e-22 -8.241347709e-05)
(-0.16979455 -0.03962134533 1.804013792e-19 0.170017826 -2.132146928e-19 -0.0002232760352)
(-0.1611000193 -0.04218904907 -5.064146796e-20 0.1614492582 -7.112472245e-19 -0.0003492389038)
(-0.1509956121 -0.04268053562 -1.798905342e-19 0.1514583561 8.372015096e-20 -0.000462743976)
(-0.1407171788 -0.04216941159 1.601404477e-19 0.1412827025 -2.107293892e-19 -0.0005655237146)
(-0.1302531936 -0.04087130213 -2.067534082e-19 0.1309117665 2.342092561e-20 -0.0006585729316)
(-0.1203373248 -0.03928261595 3.249601605e-19 0.1210799513 -5.251144841e-20 -0.0007426264462)
(-0.1106255139 -0.0374249428 5.209243962e-20 0.1114434091 2.56616092e-19 -0.0008178952051)
(-0.1016092139 -0.03552899505 8.081136541e-20 0.1024937037 -4.41962058e-19 -0.0008844897846)
(-0.09292838028 -0.0335930807 1.955688839e-19 0.09387047404 6.647124013e-20 -0.0009420937616)
(-0.08490689046 -0.03170462876 -6.524219358e-20 0.08589725801 2.448785858e-19 -0.0009903675584)
(-0.07727120666 -0.02988583074 -4.792837151e-19 0.07829975797 -4.070194057e-19 -0.001028551312)
(-0.07021095036 -0.02813832544 -4.708017411e-19 0.07126686554 5.509610709e-19 -0.001055915181)
(-0.06356519486 -0.02651803711 3.005935314e-19 0.06463644875 -5.407213903e-19 -0.001071253889)
(-0.05741185861 -0.02497110537 -2.430346335e-19 0.05848528469 1.065402421e-18 -0.001073426077)
(-0.05170206998 -0.02358552061 4.616103871e-19 0.05276279046 -2.005230843e-19 -0.001060720476)
(-0.04642024597 -0.02227114363 3.539485976e-20 0.04745174275 4.939416962e-19 -0.001031496776)
(-0.04162009645 -0.0211403912 -3.114071575e-19 0.04260353498 -4.330394374e-19 -0.0009834385374)
(-0.03720978521 -0.02008494057 6.671424184e-19 0.03812405312 5.435296779e-20 -0.0009142679067)
(-0.03333105048 -0.01922633477 -2.394580485e-19 0.03415199515 1.0348823e-19 -0.0008209446716)
(-0.029836778 -0.01846250064 -9.186817689e-19 0.0305371412 1.776685793e-19 -0.0007003631953)
(-0.02693437553 -0.01789598723 7.060660793e-19 0.02748296834 6.872636271e-20 -0.0005485928124)
(-0.02445271601 -0.01746964766 -3.240428437e-19 0.02481413576 4.59275133e-19 -0.0003614197513)
(-0.02262486872 -0.01722824546 4.60292838e-19 0.02275863877 7.44288076e-20 -0.0001337700435)
(-0.1738199264 -0.04352655 8.968466597e-20 0.1739023274 1.285526277e-19 -8.240098155e-05)
(-0.1662579552 -0.05032467256 -3.869473026e-19 0.1664811838 -1.442017103e-19 -0.000223228578)
(-0.1566403731 -0.05334260406 3.206622429e-19 0.1569895498 -3.162300316e-19 -0.0003491767163)
(-0.1460650393 -0.05381249746 5.08926627e-19 0.1465277005 3.515459551e-19 -0.0004626612465)
(-0.1355521823 -0.05305748556 -1.07668778e-19 0.1361176159 -3.306394753e-19 -0.0005654335535)
(-0.1250377165 -0.0513403497 3.102895533e-19 0.1256961911 5.422130532e-19 -0.000658474571)
(-0.1151613663 -0.0492748293 2.014464628e-19 0.1159038929 -3.372254343e-19 -0.0007425265545)
(-0.1055616892 -0.04688301602 -2.596967924e-19 0.1063794853 4.429009217e-19 -0.000817796159)
(-0.09669181818 -0.04445198466 -2.649191621e-19 0.0975762141 3.546193285e-19 -0.0008843959228)
(-0.08817940417 -0.04197517118 4.968362111e-19 0.08912141248 -2.790929465e-19 -0.0009420083082)
(-0.0803386884 -0.03956302619 5.015050155e-20 0.08132898189 -2.35806922e-19 -0.0009902934919)
(-0.0728811246 -0.03723910359 5.062268093e-19 0.07390961541 -5.489502403e-20 -0.001028490811)
(-0.06600266604 -0.03500768077 2.85076862e-19 0.06705853577 3.752272236e-19 -0.001055869736)
(-0.05952320632 -0.03293474187 4.290083862e-19 0.06059442933 -2.102076955e-19 -0.001071223004)
(-0.05353646221 -0.03095561044 8.93077304e-19 0.0546098716 2.79261122e-19 -0.001073409391)
(-0.04797054511 -0.02917660519 -7.871792528e-19 0.04903125913 -8.443982643e-19 -0.001060714026)
(-0.04283126743 -0.0274878193 1.162693384e-19 0.04386276693 -6.932983593e-19 -0.001031499502)
(-0.03814679737 -0.02602635259 1.916860645e-19 0.03913024209 2.931623453e-19 -0.0009834447269)
(-0.03384894452 -0.02465949237 -7.671393899e-20 0.03476322359 -2.130660955e-19 -0.0009142790723)
(-0.03005391886 -0.0235360557 5.502693219e-19 0.03087487563 6.514766516e-20 -0.0008209567653)
(-0.02663645862 -0.02253114889 4.710292279e-19 0.02733684057 -2.255559123e-19 -0.0007003819472)
(-0.02378245161 -0.02177025754 3.857989405e-19 0.02433106868 5.665428234e-19 -0.0005486170665)
(-0.02133518966 -0.02118509045 1.96036069e-19 0.02169664763 -9.650419322e-19 -0.0003614579718)
(-0.01951716154 -0.0208258754 -8.488818407e-19 0.01965097392 9.812445672e-19 -0.0001338123864)
(-0.1713622146 -0.05298821484 -2.628070577e-19 0.1714443408 7.14165901e-19 -8.212620749e-05)
(-0.1619345297 -0.06061995936 -4.005428247e-19 0.1621570139 4.793672577e-19 -0.0002224842191)
(-0.1512242596 -0.06388975566 -7.250319858e-20 0.1515722876 3.421774607e-20 -0.0003480280709)
(-0.140095702 -0.0642271475 -2.068011398e-19 0.1405568459 2.939091204e-19 -0.0004611438197)
(-0.1293114586 -0.0631641787 1.855741433e-19 0.1298750518 3.49867603e-19 -0.0005635931929)
(-0.1187448258 -0.06100020831 -1.586761531e-19 0.1194011687 -2.169962634e-19 -0.000656342871)
(-0.1089232266 -0.05844895033 3.358101823e-19 0.1096633648 -9.693957874e-21 -0.0007401382144)
(-0.09946468686 -0.05552891334 6.215004444e-19 0.1002798683 6.157729667e-19 -0.000815181488)
(-0.09077645329 -0.05257677361 -3.306914738e-19 0.09165803949 -9.956752019e-19 -0.0008815861951)
(-0.08247170915 -0.04957802996 -7.452025724e-19 0.08341074362 9.961555179e-19 -0.0009390344645)
(-0.07485307397 -0.04666479242 5.140323784e-20 0.07584026043 2.913819774e-19 -0.0009871864645)
(-0.06761426647 -0.04385853586 -1.638015972e-20 0.06863954981 -1.451151611e-19 -0.001025283348)
(-0.06095870531 -0.04116776327 -4.724263455e-19 0.06201129924 1.122635695e-19 -0.00105259393)
(-0.05468354846 -0.0386644283 4.496007376e-20 0.05575146324 -1.398809245e-19 -0.001067914784)
(-0.0489012204 -0.03627635519 -3.529601414e-19 0.04997132373 2.090189775e-19 -0.001070103335)
(-0.04351266625 -0.03412343529 -3.585847105e-19 0.04457011796 -4.922703838e-19 -0.001057451708)
(-0.03854870377 -0.03208044005 3.880551457e-19 0.03957702504 1.514238706e-18 -0.001028321267)
(-0.03400804978 -0.03030370235 3.569561612e-19 0.0349884527 -2.53914368e-19 -0.0009804029159)
(-0.02984894997 -0.02864146636 1.781984364e-19 0.03076037653 6.779351854e-19 -0.0009114265652)
(-0.02616032822 -0.02726345116 -4.73197559e-19 0.02697869248 3.65531113e-19 -0.0008183642645)
(-0.02283791861 -0.0260281993 -2.121375877e-19 0.02353604305 3.318101647e-19 -0.0006981244421)
(-0.02005041352 -0.0250767854 -1.796817586e-19 0.02059720796 1.435325299e-18 -0.0005467944454)
(-0.01764505776 -0.02433503751 9.998940897e-19 0.01800524685 -5.359091963e-19 -0.0003601890857)
(-0.01585066851 -0.02385763257 -6.198459445e-20 0.01598394892 2.780717059e-18 -0.000133280408)
(-0.1684112412 -0.06234308457 5.370937868e-19 0.1684928457 -1.265199016e-18 -8.160456103e-05)
(-0.1568832805 -0.07043428757 -9.539888432e-19 0.1571043426 3.310525383e-20 -0.0002210621005)
(-0.1449486476 -0.07372586163 4.57439715e-19 0.1452944624 -8.838784397e-19 -0.0003458148289)
(-0.1332062237 -0.07380248784 4.929598783e-19 0.1336644402 6.954831005e-19 -0.0004582165551)
(-0.1221265825 -0.07235762056 5.041934064e-23 0.1226866127 -1.205225725e-18 -0.0005600302168)
(-0.1115123135 -0.06971509054 -9.505394336e-20 0.1121645218 4.658525954e-19 -0.0006522082966)
(-0.1017632851 -0.06666827547 6.41101535e-19 0.1024987805 -1.57705705e-19 -0.0007354954342)
(-0.09247474903 -0.06322743327 -3.033125035e-19 0.09328483839 -1.0992694e-18 -0.0008100893577)
(-0.08400158673 -0.05977094319 4.946568995e-19 0.08487769153 -5.971127156e-19 -0.0008761047999)
(-0.07594109684 -0.0562728238 1.504009174e-18 0.07687432023 2.410537962e-19 -0.0009332233873)
(-0.06858237433 -0.05288525634 -8.215637284e-19 0.06956348318 -9.534646516e-19 -0.0009811088539)
(-0.06159949543 -0.04962364929 2.798160133e-19 0.0626184989 5.522849606e-19 -0.001019003465)
(-0.05520401636 -0.04650254507 3.422360131e-19 0.05625019916 2.400667857e-19 -0.001046182798)
(-0.04916772043 -0.04359520536 1.653404953e-19 0.05022916533 9.214503694e-19 -0.001061444902)
(-0.04362393984 -0.04082560966 9.591383285e-19 0.0446875982 -4.368863069e-19 -0.001063658362)
(-0.03844312514 -0.03832212613 -5.805394649e-19 0.03949424203 1.46094429e-18 -0.001051116888)
(-0.03368423345 -0.03594853035 5.402989186e-19 0.0347064328 -6.079291957e-19 -0.001022199354)
(-0.02931261063 -0.03387556646 -7.929184493e-19 0.03028720977 6.479704628e-19 -0.0009745991409)
(-0.02531667626 -0.03193603723 1.136427389e-18 0.02622274764 -3.567051878e-19 -0.0009060713846)
(-0.02175359691 -0.03031735888 1.713260722e-19 0.02256718901 6.777876553e-19 -0.0008135921014)
(-0.01854462854 -0.02886272199 2.025879208e-18 0.01923872999 -5.61043851e-19 -0.0006941014484)
(-0.01583521785 -0.02772940664 -7.296578116e-19 0.01637891169 8.091682978e-19 -0.0005436938393)
(-0.01348503913 -0.02683399609 1.839732309e-18 0.01384325369 5.735400943e-19 -0.0003582145588)
(-0.01172042083 -0.02624252863 -1.266825873e-18 0.01185303703 -6.399976593e-19 -0.0001326162037)
(-0.1649652098 -0.07156892576 3.163052932e-19 0.1650460313 1.414595624e-18 -8.08215305e-05)
(-0.1511719322 -0.07970421265 1.948686654e-19 0.1513908784 5.628069641e-20 -0.0002189461433)
(-0.1379241838 -0.08276288203 -4.854922551e-19 0.1382667035 1.109729175e-18 -0.0003425196434)
(-0.1255318838 -0.08243704202 2.259598532e-19 0.1259857448 -8.154196013e-19 -0.0004538610393)
(-0.1141475261 -0.08052893478 2.409853842e-19 0.1147022501 -8.957444837e-20 -0.0005547239793)
(-0.1034971609 -0.077373317 6.042441629e-20 0.1041432085 8.17830437e-19 -0.0006460476583)
(-0.09384149056 -0.07382072418 -8.009669245e-19 0.09457006129 1.407561236e-19 -0.0007285707279)
(-0.0847515703 -0.06986796102 3.628196792e-19 0.08555405777 4.026552321e-20 -0.0008024874725)
(-0.07652491987 -0.06592633289 -8.199717307e-19 0.07739283121 1.357566003e-18 -0.000867911344)
(-0.06874210844 -0.06195447033 -7.361376333e-20 0.06966663409 -4.55706334e-19 -0.0009245256495)
(-0.06167719113 -0.05812283031 3.489421882e-19 0.06264918721 8.995249621e-19 -0.0009719960809)
(-0.05498330654 -0.05443636603 8.370842609e-19 0.05599287677 -1.756911366e-19 -0.001009570233)
(-0.0488806397 -0.05091764949 -1.406074094e-19 0.04991716816 3.676678455e-19 -0.001036528455)
(-0.04311366587 -0.04763608013 -2.955327609e-19 0.0441653437 -8.913592854e-19 -0.001051677831)
(-0.03783829602 -0.04451593069 3.114654056e-19 0.03889219059 1.037326811e-19 -0.001053894567)
(-0.03289208118 -0.04168819333 3.002788285e-19 0.03393356748 -1.110432815e-18 -0.001041486302)
(-0.02836418738 -0.03901101121 -3.866844259e-20 0.02937703093 9.721550095e-20 -0.001012843553)
(-0.02418442609 -0.0366631908 8.239962014e-19 0.02515010655 -9.325546354e-19 -0.0009656804579)
(-0.02037234851 -0.03446811363 1.646754133e-20 0.02127011833 -3.080197136e-19 -0.0008977698206)
(-0.0169538335 -0.0326240291 -6.454613103e-19 0.01775994992 -6.382522864e-19 -0.0008061164209)
(-0.01387133103 -0.03096511362 3.798222819e-19 0.01455901703 -3.722189523e-19 -0.0006876860032)
(-0.01125720806 -0.02965644536 1.742535649e-18 0.01179582203 5.709994549e-19 -0.0005386139637)
(-0.008966989489 -0.02861262528 4.128077626e-19 0.009321781963 -1.61090149e-18 -0.0003547924735)
(-0.007244035263 -0.02790001237 3.598101256e-19 0.007375307775 1.319675586e-18 -0.000131272512)
(-0.1610235604 -0.08064136797 -6.242107442e-20 0.1611033559 -7.941760257e-19 -7.979549899e-05)
(-0.1448747032 -0.08837728733 -1.296155549e-18 0.1450908649 3.880639844e-19 -0.000216161741)
(-0.1302719934 -0.09093133269 9.342372387e-19 0.1306101673 -2.142039594e-18 -0.0003381738947)
(-0.1172205217 -0.09005235841 -7.674132872e-19 0.1176686356 6.391267081e-19 -0.0004481138227)
(-0.1055380764 -0.08759492623 8.64673374e-19 0.1060857939 -2.854087879e-19 -0.0005477175412)
(-0.09487072488 -0.08389026255 7.752693655e-19 0.09550863512 -1.691201336e-19 -0.0006379102327)
(-0.08533231316 -0.07982189101 1.296675893e-19 0.08605173484 -3.775383679e-19 -0.0007194216754)
(-0.0764693149 -0.07536764099 2.899635277e-19 0.07726175709 -3.984344529e-19 -0.0007924421865)
(-0.06851831548 -0.0709623104 6.817663082e-19 0.06937540014 -7.874309594e-19 -0.0008570846548)
(-0.06104315923 -0.06654497939 4.222062505e-19 0.06195619294 5.323452273e-19 -0.0009130337032)
(-0.05430151333 -0.06230244906 -8.287295954e-19 0.05526147417 -7.987889661e-19 -0.0009599608308)
(-0.04792522507 -0.05822451937 1.75020532e-19 0.04892234315 8.128903203e-20 -0.0009971180824)
(-0.04214311083 -0.05434391058 3.398357899e-19 0.04316690892 1.446308291e-19 -0.001023798086)
(-0.0366714328 -0.05072066534 -3.360186133e-19 0.0377102473 7.016463258e-19 -0.001038814505)
(-0.0316896355 -0.04728362501 1.28088126e-19 0.03273069879 6.466177154e-19 -0.001041063288)
(-0.02700081683 -0.04416052699 -5.536169331e-19 0.02802967765 1.100274339e-18 -0.001028860821)
(-0.02272614965 -0.04120870522 1.667460685e-19 0.02372677621 3.255218329e-19 -0.001000626554)
(-0.01875754987 -0.03861018451 -1.6022069e-18 0.01971163669 6.987533754e-19 -0.0009540868219)
(-0.0151483679 -0.03618149334 1.527548818e-18 0.0160354221 9.782907886e-19 -0.0008870542029)
(-0.01188978347 -0.03413205445 -2.06997354e-19 0.0126863348 4.489966285e-19 -0.0007965513321)
(-0.008948482457 -0.03227992176 1.467667679e-18 0.00962807688 1.078150969e-18 -0.0006795944223)
(-0.006439844983 -0.03081468377 -1.671128713e-18 0.006972189629 -9.005007744e-19 -0.0005323446457)
(-0.00421487564 -0.02961833222 2.650610705e-18 0.004565622729 7.130370806e-19 -0.0003507470895)
(-0.0025353678 -0.02879423818 -7.526608168e-19 0.002665220642 -1.580667129e-18 -0.0001298528415)
(-0.156586044 -0.08953489409 1.998456825e-18 0.1566645566 1.028389497e-19 -7.851259429e-05)
(-0.1380710792 -0.09641261076 -2.392195449e-21 0.1382837742 -8.308250529e-19 -0.0002126950079)
(-0.1221208418 -0.09818164317 -2.227657346e-19 0.1224536057 -1.240922982e-19 -0.0003327639505)
(-0.1084291128 -0.09659467455 5.179528924e-19 0.1088700734 1.275399485e-18 -0.0004409605848)
(-0.0964720019 -0.0934999596 -6.312593404e-19 0.09701099634 -3.614568798e-19 -0.0005389944349)
(-0.08581473618 -0.08921023399 3.440322745e-19 0.08644251244 5.517721051e-19 -0.0006277762626)
(-0.0764207895 -0.08461688942 -6.915031346e-19 0.07712881205 -1.52549408e-19 -0.0007080225558)
(-0.06781264313 -0.07967310604 -5.77668361e-19 0.06859256352 7.853921413e-19 -0.0007799203898)
(-0.06016404354 -0.07482733845 4.498865756e-20 0.06100762315 6.648640581e-19 -0.0008435796128)
(-0.05302280696 -0.06999486007 1.177980981e-19 0.05392149546 7.648549837e-19 -0.0008986885022)
(-0.04662927089 -0.06537676921 3.391159635e-19 0.04757419328 2.484405063e-19 -0.0009449223894)
(-0.04059437286 -0.06094287769 7.769707455e-19 0.04157591533 6.156504375e-19 -0.0009815424659)
(-0.03515531682 -0.05673826141 7.947358899e-19 0.03616316797 1.378253693e-19 -0.001007851151)
(-0.03000006451 -0.05280782478 5.078492902e-19 0.03102274141 -9.347147244e-19 -0.0010226769)
(-0.02533197639 -0.04908965321 1.070937261e-18 0.02635690804 -2.120236379e-19 -0.001024931648)
(-0.02091898302 -0.04570156095 3.781365509e-19 0.02193193639 -1.365229438e-18 -0.001012953367)
(-0.01691541491 -0.04250620781 1.34591969e-19 0.01790060004 -2.068228165e-19 -0.000985185126)
(-0.01317349354 -0.03968152296 1.036701879e-18 0.01411287678 -8.574598505e-19 -0.0009393832385)
(-0.009783076108 -0.037043987 -1.091898308e-18 0.0106564701 -1.93773757e-19 -0.0008733939955)
(-0.006695885006 -0.03480691861 -3.604775027e-19 0.007480165583 -5.665572104e-19 -0.0007842805769)
(-0.003910685186 -0.03277867659 -2.080642952e-19 0.004579791835 -1.960000607e-19 -0.0006691066487)
(-0.001512000093 -0.03116720352 1.337969213e-19 0.002036089859 8.684551893e-19 -0.0005240897664)
(0.0006341470497 -0.02982960783 -1.934845753e-18 -0.0002888993511 -9.743817511e-19 -0.0003452476986)
(0.002271329367 -0.02889664 1.560285082e-18 -0.002143581138 1.699237282e-20 -0.0001277482291)
(-0.1516541186 -0.09822223286 -5.891614823e-19 0.1517311112 4.659408418e-19 -7.699265966e-05)
(-0.1308432598 -0.1037814849 2.365065132e-19 0.1310518348 -1.009867343e-18 -0.0002085750089)
(-0.1136033856 -0.1044849399 -1.741841054e-19 0.1139297131 1.707636942e-18 -0.0003263275261)
(-0.09931899763 -0.1020358146 3.516022796e-19 0.09975144424 -8.978954671e-19 -0.0004324466082)
(-0.08712768432 -0.0982169788 7.081071722e-21 0.08765629345 4.895032451e-19 -0.0005286091349)
(-0.07651558344 -0.09330759352 1.379596315e-18 0.07713129257 -6.388730461e-19 -0.000615709136)
(-0.06729651233 -0.08818158214 2.922720838e-19 0.06799096052 2.266888967e-19 -0.0006944481856)
(-0.05897065548 -0.08276179919 1.027874755e-18 0.05973566431 -7.933852941e-19 -0.0007650088291)
(-0.05164857056 -0.07750041854 2.12296047e-19 0.05247606979 -3.266071236e-19 -0.0008274992351)
(-0.04486364292 -0.07228464964 7.481045645e-19 0.04574525343 -5.92451769e-19 -0.0008816105108)
(-0.03883812574 -0.06732781652 -1.40453263e-18 0.03976515165 -6.406011556e-19 -0.0009270259111)
(-0.03316345231 -0.06257486955 5.851852389e-20 0.03412646691 -1.308712673e-19 -0.0009630145904)
(-0.0280844022 -0.05808548384 -3.949404392e-19 0.02907329819 -7.745157539e-19 -0.0009888959906)
(-0.02326174666 -0.05388355984 -5.282670356e-19 0.02426525758 -2.348261154e-19 -0.001003510926)
(-0.01892215472 -0.04992117955 -2.229084094e-19 0.01992795308 3.821871123e-19 -0.001005798357)
(-0.01479898377 -0.04629950027 -6.347961948e-20 0.01579309734 7.109977712e-19 -0.0009941135745)
(-0.01107970607 -0.04289264256 -4.878836564e-20 0.01204664433 8.026283232e-19 -0.0009669382645)
(-0.007576386596 -0.03986737468 -1.942483959e-19 0.008498439269 -7.673351829e-19 -0.0009220526733)
(-0.004416793684 -0.03704653934 2.043919207e-18 0.005274148509 2.363920486e-18 -0.0008573548246)
(-0.001510316894 -0.03464086725 -3.342773525e-19 0.002280258959 -2.527437657e-19 -0.000769942065)
(0.001107233112 -0.03245494519 2.440987658e-18 -0.0004502880415 1.755110936e-18 -0.0006569450701)
(0.003390017225 -0.03070901936 -8.410253171e-19 -0.002875386453 -1.492756709e-18 -0.0005146307718)
(0.005447424866 -0.02924014833 4.34249765e-19 -0.005108331244 2.388955028e-19 -0.0003390936223)
(0.007033668064 -0.02820790729 -1.372007954e-18 -0.006908128278 -3.776240574e-19 -0.0001255397864)
(-0.1462305832 -0.1066746409 9.88881225e-19 0.146305806 2.870160988e-19 -7.522286093e-05)
(-0.1232748039 -0.1104675897 -5.552029862e-19 0.123478595 5.33713438e-19 -0.0002037911564)
(-0.1048531496 -0.1098334484 7.62573359e-20 0.1051720058 -8.550091992e-20 -0.0003188562278)
(-0.09005219889 -0.1063737638 1.471247782e-19 0.09047476344 3.976430732e-19 -0.0004225645511)
(-0.07768406394 -0.1017480741 -8.640998335e-19 0.07820061711 -3.473401396e-19 -0.0005165531656)
(-0.06716012963 -0.09618731928 5.156423588e-19 0.06776182757 -3.369543124e-19 -0.0006016979388)
(-0.05814954877 -0.09052305567 -4.037179299e-19 0.05882823055 -4.375977442e-19 -0.0006786817847)
(-0.05013288343 -0.08464237586 -4.162808614e-19 0.05088056665 -3.816982909e-19 -0.0007476832239)
(-0.0431588498 -0.07899135378 7.750514836e-19 0.0439676562 1.274168638e-20 -0.0008088064)
(-0.03674870523 -0.07342508207 1.075414366e-18 0.03761045298 5.076756306e-20 -0.0008617477539)
(-0.03110625678 -0.06816700443 1.226757676e-18 0.03201245314 2.439046039e-19 -0.000906196369)
(-0.02580561091 -0.06313252382 1.544028446e-19 0.02674704535 3.878402567e-19 -0.0009414344371)
(-0.02109798675 -0.0583980862 3.766829586e-19 0.02206478247 9.562573809e-19 -0.000966795724)
(-0.01661902047 -0.05396082579 7.229220258e-19 0.01760016248 2.144687982e-19 -0.0009811420059)
(-0.01261726792 -0.04979163882 7.883793996e-19 0.01360070341 1.314212111e-18 -0.0009834354918)
(-0.008793369982 -0.04596805777 3.228561451e-19 0.009765431789 -3.145683654e-19 -0.0009720618075)
(-0.005366590218 -0.04238246401 -6.357411782e-19 0.006312126854 -1.227995226e-18 -0.0009455366356)
(-0.002110265525 -0.0391820569 -8.401825294e-20 0.003011947109 7.612445041e-19 -0.0009016815843)
(0.000810686302 -0.03620494982 5.713557231e-19 2.775578675e-05 -1.153558321e-18 -0.0008384420887)
(0.003528889554 -0.03364846694 -8.411060502e-19 -0.002775919134 -1.033198633e-18 -0.00075297042)
(0.005970434771 -0.0313262001 -6.292793511e-19 -0.005327971339 -1.060198785e-18 -0.0006424634319)
(0.008130926407 -0.02945442883 1.009337801e-18 -0.007627663057 -1.455137293e-18 -0.00050326335)
(0.01008992704 -0.02786849617 -1.537106099e-18 -0.009758366161 5.643455897e-20 -0.000331560882)
(0.01161960369 -0.02673832616 1.570324153e-18 -0.01149690634 -2.145012778e-19 -0.0001226973498)
(-0.1403202398 -0.1148621231 -1.371171203e-19 0.1403934643 5.978327423e-19 -7.322457311e-05)
(-0.115448054 -0.1164667189 5.274330995e-19 0.1156464308 -6.888047689e-19 -0.0001983767732)
(-0.09600067242 -0.1142399306 -6.689823961e-19 0.09631106692 1.416141277e-18 -0.0003103945005)
(-0.08078655786 -0.109631815 8.21967022e-19 0.08119792675 -7.486288347e-19 -0.0004113688899)
(-0.06831508353 -0.1041235912 -5.684907514e-19 0.0688179759 1.512384642e-19 -0.0005028923719)
(-0.057929765 -0.09788405492 -4.106203435e-20 0.05851558454 8.375539734e-19 -0.0005858195422)
(-0.04916412915 -0.09167872559 6.561956018e-19 0.0498249428 3.413751728e-19 -0.0006608136437)
(-0.04148285895 -0.08535383989 -5.698179013e-19 0.04221090651 8.404818809e-19 -0.0007280475585)
(-0.03487566811 -0.07934000495 -7.808696315e-19 0.0356632911 1.666212353e-19 -0.0007876229925)
(-0.02885485851 -0.07345642128 -4.716608126e-19 0.02969409924 8.70818681e-19 -0.0008392407241)
(-0.02360559736 -0.06793461331 -2.945145052e-19 0.02448819704 -9.594809283e-19 -0.0008825996827)
(-0.01868785706 -0.0626560527 5.528655014e-19 0.01960485094 8.536444864e-19 -0.0009169938744)
(-0.01435756132 -0.05771596628 -1.154485503e-19 0.01529933944 -1.492323666e-18 -0.0009417781239)
(-0.01022852471 -0.05307934771 -4.145754756e-19 0.01118435771 -4.002256369e-19 -0.0009558329982)
(-0.006568644063 -0.04874033721 8.978403722e-19 0.007526797887 -8.655503634e-19 -0.0009581538239)
(-0.003049270978 -0.04474649967 1.169877914e-19 0.003996424194 -1.707449545e-18 -0.0009471532156)
(8.151053217e-05 -0.04101443291 9.097666062e-19 0.0008398833384 7.31206325e-19 -0.0009213938706)
(0.003085562674 -0.03766467957 -1.44083822e-19 -0.002206827798 -1.573939219e-18 -0.0008787348752)
(0.005764075226 -0.03455745659 8.932946478e-19 -0.004946890828 1.593307296e-18 -0.0008171843986)