/*--------------------------------*- C++ -*----------------------------------*\
| =========                 |                                                 |
| \\      /  F ield         | foam-extend: Open Source CFD                    |
|  \\    /   O peration     | Version:  3.0                                   |
|   \\  /    A nd           | Web:         http://www.extend-project.de       |
|    \\/     M anipulation  |                                                 |
\*---------------------------------------------------------------------------*/
FoamFile
{
    version     2.0;
    format      ascii;
    class       volScalarField;
    location    "4.1";
    object      p;
}
// * * * * * * * * * * * * * * * * * * * * * * * * * * * * * * * * * * * * * //

dimensions      [0 0 0 0 0 0 0];

internalField   nonuniform List<scalar> 
400
(
1.09584
0.954991
0.941443
0.886666
0.919277
0.898681
0.950349
0.944975
1.00504
1.00561
1.06847
1.06874
1.12936
1.12261
1.17368
1.14987
1.17875
1.1201
1.10097
0.962407
1.23515
1.11794
1.09429
1.03193
1.04643
1.00864
1.03756
1.00966
1.04338
1.01819
1.05241
1.02589
1.05769
1.02607
1.05104
1.00819
1.01689
0.95067
0.9216
0.808597
1.15856
1.05267
1.03714
0.984046
1.0073
0.978073
1.01661
0.99707
1.04152
1.02492
1.07168
1.05414
1.10058
1.07808
1.11887
1.08449
1.1072
1.04813
1.02776
0.924093
1.15172
1.04749
1.03358
0.98352
1.00536
0.977301
1.01044
0.990057
1.02619
1.00787
1.04519
1.02654
1.06458
1.04279
1.07829
1.04655
1.0678
1.01096
0.99014
0.883528
1.08814
0.971296
0.969991
0.926188
0.962267
0.944153
0.990959
0.98101
1.03181
1.02413
1.079
1.07142
1.1313
1.12084
1.18271
1.16074
1.21016
1.15463
1.15254
1.01679
1.05482
0.927773
0.932376
0.893538
0.931575
0.918734
0.961786
0.955568
0.998638
0.994263
1.0397
1.03669
1.08822
1.08504
1.14311
1.13066
1.18341
1.13218
1.13479
0.968912
1.01367
0.87709
0.893326
0.861418
0.909235
0.904831
0.956471
0.958083
1.01133
1.01444
1.07414
1.07903
1.15123
1.15703
1.24407
1.24061
1.32961
1.27861
1.31066
1.09783
0.970567
0.841352
0.861046
0.837411
0.88218
0.882979
0.926404
0.931072
0.972078
0.97776
1.02228
1.03126
1.08731
1.10088
1.17445
1.18335
1.26648
1.22619
1.25922
1.02207
0.9355
0.826453
0.851024
0.838451
0.882478
0.890027
0.933312
0.942508
0.986455
0.995468
1.04777
1.06006
1.13107
1.1495
1.24828
1.26465
1.38498
1.35026
1.42299
1.15772
0.876265
0.807157
0.831964
0.832095
0.867718
0.879442
0.910461
0.920507
0.948024
0.956766
0.987656
1.00067
1.04519
1.06832
1.13738
1.16623
1.25934
1.24656
1.30501
1.0595
0.834724
0.8172
0.840019
0.85627
0.882434
0.900386
0.924319
0.936384
0.960456
0.968664
1.00043
1.01182
1.06361
1.08645
1.17348
1.20751
1.33567
1.3382
1.45158
1.2237
0.757907
0.801162
0.82758
0.859783
0.878574
0.900132
0.911934
0.922785
0.929283
0.933989
0.940867
0.94848
0.965749
0.988005
1.02932
1.07312
1.14754
1.18374
1.25568
1.11231
0.715151
0.822196
0.841705
0.893442
0.899666
0.927999
0.929752
0.941063
0.940083
0.941141
0.943137
0.944586
0.961258
0.977694
1.02827
1.07372
1.18036
1.24174
1.39214
1.31986
0.635402
0.80051
0.834472
0.902124
0.907519
0.938738
0.931584
0.939885
0.923023
0.917809
0.895359
0.888724
0.868392
0.877793
0.873147
0.9218
0.951171
1.05142
1.12029
1.19681
0.612037
0.831107
0.853247
0.940638
0.934495
0.972482
0.955094
0.962424
0.936172
0.925065
0.8938
0.877566
0.84969
0.847892
0.842454
0.88693
0.941722
1.07187
1.24431
1.44126
0.563817
0.817752
0.865367
0.963435
0.961656
0.999819
0.976169
0.978428
0.939316
0.920188
0.868572
0.841414
0.780696
0.765601
0.70588
0.742336
0.707978
0.867027
0.908354
1.29576
0.590232
0.869332
0.900298
1.01345
1.0017
1.0438
1.01015
1.00933
0.960394
0.934238
0.872221
0.834014
0.760939
0.730429
0.658797
0.682064
0.655733
0.837002
0.985378
1.52718
0.637927
0.907349
0.960006
1.07049
1.05913
1.09482
1.05438
1.04589
0.987583
0.953223
0.877952
0.828689
0.733102
0.685161
0.571819
0.571688
0.464772
0.63956
0.616576
1.32518
0.754329
0.99735
1.03193
1.14457
1.12178
1.15395
1.10298
1.08849
1.02144
0.980314
0.896082
0.836992
0.728317
0.66342
0.529351
0.504536
0.375811
0.54307
0.561957
1.40729
1.00215
1.15035
1.17114
1.25528
1.21768
1.23096
1.17124
1.14558
1.07432
1.02615
0.939134
0.871597
0.75693
0.67359
0.522717
0.455269
0.284024
0.36977
0.249733
1.05466
)
;

boundaryField
{
    cavity
    {
        type            implicitExtrapolation;
    }
    lid
    {
        type            implicitExtrapolation;
    }
    frontAndBack
    {
        type            empty;
    }
}


// ************************************************************************* //
