/*--------------------------------*- C++ -*----------------------------------*\
| =========                 |                                                 |
| \\      /  F ield         | foam-extend: Open Source CFD                    |
|  \\    /   O peration     | Version:  3.0                                   |
|   \\  /    A nd           | Web:         http://www.extend-project.de       |
|    \\/     M anipulation  |                                                 |
\*---------------------------------------------------------------------------*/
FoamFile
{
    version     2.0;
    format      ascii;
    class       volVectorField;
    location    "4.1";
    object      s;
}
// * * * * * * * * * * * * * * * * * * * * * * * * * * * * * * * * * * * * * //

dimensions      [0 0 0 0 0 0 0];

internalField   nonuniform List<vector> 
400
(
(-0.00353646 0.00375607 4.11741e-318)
(-0.00561244 0.00551962 7.04303e-318)
(-0.0104664 0.00591432 7.90603e-318)
(-0.0134259 0.00508952 7.92151e-318)
(-0.0170401 0.00425023 7.5972e-318)
(-0.0194683 0.00325798 7.15112e-318)
(-0.0217664 0.00229005 6.63788e-318)
(-0.0232811 0.00136713 6.14942e-318)
(-0.0244066 0.000432521 5.631e-318)
(-0.0249469 -0.00048739 5.1687e-318)
(-0.0249543 -0.00146765 4.67748e-318)
(-0.0244474 -0.00246822 4.24633e-318)
(-0.023235 -0.00357414 3.78794e-318)
(-0.0215496 -0.00467993 3.38209e-318)
(-0.018931 -0.00587603 2.96271e-318)
(-0.016055 -0.00701821 2.57065e-318)
(-0.0119456 -0.00798076 2.18163e-318)
(-0.00840535 -0.00880164 1.75392e-318)
(-0.00322005 -0.00815991 1.27165e-318)
(-0.000974782 -0.00552177 5.59356e-319)
(-0.00346183 0.00290483 4.32581e-318)
(-0.00761292 0.00652125 8.59487e-318)
(-0.0136663 0.00818269 1.05174e-317)
(-0.0184454 0.00820684 1.12354e-317)
(-0.0237132 0.00737652 1.12721e-317)
(-0.0276622 0.00603831 1.10062e-317)
(-0.0313052 0.00443178 1.05051e-317)
(-0.0338029 0.00275306 9.95262e-318)
(-0.0356249 0.000985383 9.28795e-318)
(-0.0364537 -0.000775751 8.64785e-318)
(-0.0363937 -0.00261395 7.93536e-318)
(-0.03543 -0.00444632 7.27441e-318)
(-0.0333812 -0.00634206 6.56099e-318)
(-0.0305504 -0.00813783 5.90687e-318)
(-0.0264645 -0.00981972 5.21469e-318)
(-0.0219748 -0.0110808 4.56077e-318)
(-0.0162371 -0.0116669 3.86124e-318)
(-0.0110234 -0.0111365 3.10513e-318)
(-0.00504434 -0.00868138 2.18415e-318)
(-0.00101699 -0.00389026 9.24244e-319)
(-0.00323792 0.00782385 3.21185e-318)
(-0.00739271 0.0153187 7.10309e-318)
(-0.0135033 0.0180638 9.29742e-318)
(-0.0184177 0.0180209 1.04613e-317)
(-0.0237452 0.0162495 1.09158e-317)
(-0.0277782 0.0136357 1.09659e-317)
(-0.0315181 0.0104321 1.06987e-317)
(-0.0341038 0.00704321 1.02857e-317)
(-0.0360375 0.00342906 9.71257e-318)
(-0.036959 -0.000238204 9.10402e-318)
(-0.0369786 -0.00406622 8.40613e-318)
(-0.0360805 -0.00790552 7.72488e-318)
(-0.0340405 -0.0118365 6.9945e-318)
(-0.0312098 -0.0155346 6.30749e-318)
(-0.0270428 -0.0189828 5.59852e-318)
(-0.0224386 -0.0214991 4.93357e-318)
(-0.0165451 -0.0228373 4.24441e-318)
(-0.0110658 -0.0218353 3.52533e-318)
(-0.00492724 -0.0176862 2.61608e-318)
(-0.000742046 -0.00847741 1.27964e-318)
(-0.00296534 0.0089328 1.71704e-318)
(-0.0063374 0.0184484 4.57891e-318)
(-0.0115902 0.0220519 6.62025e-318)
(-0.0155741 0.0222837 8.00509e-318)
(-0.0201293 0.0201655 8.80985e-318)
(-0.0234254 0.0169991 9.21603e-318)
(-0.026634 0.0130497 9.28148e-318)
(-0.0288086 0.00885238 9.13771e-318)
(-0.0305347 0.00437194 8.80072e-318)
(-0.0314155 -0.000198389 8.36713e-318)
(-0.031575 -0.00497473 7.8268e-318)
(-0.0310054 -0.00979855 7.25613e-318)
(-0.0294226 -0.0147506 6.63033e-318)
(-0.0272335 -0.0194277 6.01096e-318)
(-0.0237297 -0.0237924 5.3605e-318)
(-0.0199349 -0.0268765 4.71704e-318)
(-0.0147061 -0.0284588 4.02152e-318)
(-0.00996703 -0.0266897 3.2551e-318)
(-0.00430761 -0.0211366 2.29198e-318)
(-0.000570659 -0.00925014 9.799e-319)
(-0.00301768 0.0116486 8.64956e-319)
(-0.00535525 0.0235469 2.90597e-318)
(-0.0100672 0.0278375 4.64886e-318)
(-0.0130211 0.0279976 6.01197e-318)
(-0.0168256 0.0253253 6.93448e-318)
(-0.019309 0.0214012 7.50093e-318)
(-0.0219595 0.0165685 7.74713e-318)
(-0.0236973 0.0114164 7.76793e-318)
(-0.0252283 0.00592599 7.58872e-318)
(-0.0261101 0.000278628 7.28869e-318)
(-0.0264792 -0.00564721 6.87124e-318)
(-0.0263453 -0.0117032 6.39901e-318)
(-0.0253275 -0.0179736 5.86158e-318)
(-0.0239292 -0.0239993 5.30472e-318)
(-0.0211662 -0.0297238 4.70515e-318)
(-0.0183167 -0.0339328 4.08652e-318)
(-0.0136336 -0.0363609 3.40848e-318)
(-0.00970607 -0.0345024 2.65568e-318)
(-0.0039185 -0.027878 1.75663e-318)
(-0.000896031 -0.0125812 6.59064e-319)
(-0.00307938 0.0132174 1.82305e-319)
(-0.00432483 0.0263021 1.50617e-318)
(-0.00827499 0.0309275 2.93384e-318)
(-0.0100061 0.0308452 4.20272e-318)
(-0.0128714 0.0278247 5.1689e-318)
(-0.0143865 0.0234474 5.84308e-318)
(-0.0163371 0.0182143 6.23347e-318)
(-0.017535 0.0126425 6.4012e-318)
(-0.0187906 0.0067592 6.37403e-318)
(-0.0196408 0.000664562 6.21092e-318)
(-0.0202292 -0.00576033 5.93068e-318)
(-0.020596 -0.0124428 5.57992e-318)
(-0.0202637 -0.0194693 5.16446e-318)
(-0.0198338 -0.0264181 4.71527e-318)
(-0.0180279 -0.0331946 4.22209e-318)
(-0.0163921 -0.0384673 3.6953e-318)
(-0.012481 -0.0418312 3.10271e-318)
(-0.0096316 -0.0402528 2.42664e-318)
(-0.00375508 -0.0329389 1.61547e-318)
(-0.00147284 -0.0149306 6.20369e-319)
(-0.00300049 0.0150693 5.3285e-320)
(-0.00314398 0.0290475 9.99643e-319)
(-0.00633011 0.0339137 2.13667e-318)
(-0.00693966 0.0334123 3.21411e-318)
(-0.00895934 0.0301187 4.08524e-318)
(-0.0096221 0.0253158 4.72485e-318)
(-0.0109539 0.0198117 5.13202e-318)
(-0.0116757 0.0139184 5.34246e-318)
(-0.0126781 0.00777347 5.38118e-318)
(-0.0134887 0.00133917 5.29016e-318)
(-0.0142564 -0.00546895 5.08981e-318)
(-0.0150641 -0.0127026 4.81509e-318)
(-0.015344 -0.0204207 4.4751e-318)
(-0.0158244 -0.0283357 4.09071e-318)
(-0.0149082 -0.0362409 3.65735e-318)
(-0.0145005 -0.042905 3.17547e-318)
(-0.0112946 -0.0475395 2.6244e-318)
(-0.00965516 -0.0469915 1.98307e-318)
(-0.00351698 -0.0394146 1.23019e-318)
(-0.00223362 -0.0188955 3.78113e-319)
(-0.00253623 0.0160813 -8.01029e-320)
(-0.00182329 0.0302085 5.80922e-319)
(-0.00389417 0.0351402 1.49686e-318)
(-0.00350357 0.0341879 2.41705e-318)
(-0.00457492 0.0308098 3.20116e-318)
(-0.00444679 0.0257916 3.80866e-318)
(-0.00511104 0.0203229 4.22415e-318)
(-0.00535143 0.0144269 4.46863e-318)
(-0.00603635 0.00838914 4.56176e-318)
(-0.00674401 0.00199398 4.53551e-318)
(-0.00760996 -0.0047928 4.41173e-318)
(-0.00876633 -0.0121902 4.21924e-318)
(-0.00960242 -0.0202176 3.97128e-318)
(-0.01092 -0.028808 3.6853e-318)
(-0.01094 -0.0376068 3.36012e-318)
(-0.0117515 -0.0456413 2.99389e-318)
(-0.0094896 -0.0516178 2.56258e-318)
(-0.0090884 -0.0524363 2.03789e-318)
(-0.00316494 -0.0449152 1.37868e-318)
(-0.00268537 -0.0222265 5.29248e-319)
(-0.00183875 0.0164973 6.44657e-320)
(-0.000449879 0.030495 6.34168e-319)
(-0.0012438 0.0354682 1.36882e-318)
(-2.38196e-05 0.0341576 2.10903e-318)
(-0.000152452 0.0308557 2.75507e-318)
(0.000656119 0.0257567 3.26497e-318)
(0.000644745 0.0204836 3.62686e-318)
(0.000867988 0.0147241 3.84941e-318)
(0.000550554 0.0089522 3.94849e-318)
(3.22829e-05 0.00275481 3.94653e-318)
(-0.000803137 -0.00382341 3.86258e-318)
(-0.00214 -0.0111958 3.71823e-318)
(-0.00336854 -0.0193071 3.52678e-318)
(-0.00535369 -0.0283988 3.30025e-318)
(-0.00621609 -0.0378846 3.04014e-318)
(-0.00821413 -0.0472988 2.73923e-318)
(-0.0069879 -0.054593 2.37994e-318)
(-0.0080334 -0.0572658 1.9212e-318)
(-0.00255625 -0.0501413 1.31585e-318)
(-0.0031983 -0.0260763 4.95839e-319)
(-0.000882247 0.0162054 8.45198e-320)
(0.000838311 0.0295966 5.70582e-319)
(0.0015665 0.0344711 1.18948e-318)
(0.00341405 0.0329269 1.81612e-318)
(0.00431188 0.0298268 2.37102e-318)
(0.00570853 0.0248267 2.81969e-318)
(0.00639824 0.0199154 3.14594e-318)
(0.00708859 0.0144793 3.3555e-318)
(0.00722171 0.00916591 3.46036e-318)
(0.00699589 0.0033855 3.48007e-318)
(0.00633588 -0.0027423 3.43208e-318)
(0.005018 -0.00981531 3.3359e-318)
(0.0035704 -0.0177114 3.2063e-318)
(0.00117701 -0.0269959 3.05568e-318)
(-0.000456956 -0.0368821 2.88762e-318)
(-0.00339448 -0.0474593 2.69734e-318)
(-0.00348248 -0.0560267 2.46199e-318)
(-0.0057662 -0.0606372 2.13356e-318)
(-0.00163403 -0.0543879 1.62372e-318)
(-0.00295897 -0.0293044 7.62877e-319)
(7.20676e-05 0.0152028 2.26381e-319)
(0.001965 0.0278794 7.11879e-319)
(0.00419137 0.0325497 1.23747e-318)
(0.0065181 0.0309674 1.74835e-318)
(0.00841458 0.028138 2.19804e-318)
(0.0103225 0.0233801 2.56029e-318)
(0.0117081 0.0189152 2.82692e-318)
(0.0128663 0.013909 2.99952e-318)
(0.0135062 0.00914771 3.08902e-318)
(0.0136715 0.00390525 3.10995e-318)
(0.0133339 -0.00162505 3.07799e-318)
(0.0122379 -0.00819992 3.00813e-318)
(0.0107891 -0.0156168 2.91403e-318)
(0.00823019 -0.0247744 2.80617e-318)
(0.00599983 -0.0346507 2.68912e-318)
(0.00221511 -0.0460343 2.55555e-318)
(0.000761426 -0.055436 2.38643e-318)
(-0.00307935 -0.0619907 2.12609e-318)
(-0.00048374 -0.0566026 1.6694e-318)
(-0.0031884 -0.03168 8.19309e-319)
(0.000862901 0.0137732 2.22893e-319)
(0.00277339 0.0253846 6.88816e-319)
(0.0064312 0.0297754 1.17001e-318)
(0.00912915 0.0282623 1.62445e-318)
(0.0120176 0.025756 2.0143e-318)
(0.0143682 0.0213633 2.3269e-318)
(0.0164453 0.017408 2.55415e-318)
(0.0180525 0.0129245 2.70178e-318)
(0.0192348 0.00878196 2.77981e-318)
(0.0198657 0.00417566 2.80129e-318)
(0.0199788 -0.000652151 2.78167e-318)
(0.0193212 -0.0065589 2.73439e-318)
(0.0181036 -0.0132969 2.67396e-318)
(0.015763 -0.0220183 2.61083e-318)
(0.0131619 -0.0315916 2.54983e-318)
(0.0090555 -0.0433734 2.48764e-318)
(0.00610314 -0.0535034 2.3998e-318)
(0.00131984 -0.0618824 2.23359e-318)
(0.00123318 -0.0581952 1.85228e-318)
(-0.00197185 -0.0341968 1.00395e-318)
(0.00167394 0.0121648 2.59429e-319)
(0.00341419 0.0226402 7.47487e-319)
(0.00825724 0.026471 1.19365e-318)
(0.0111646 0.025142 1.58821e-318)
(0.0148873 0.0229001 1.91171e-318)
(0.0175735 0.0189696 2.16256e-318)
(0.0202448 0.0155289 2.34256e-318)
(0.0222387 0.0116227 2.45693e-318)
(0.0239299 0.00811181 2.51597e-318)
(0.0250394 0.00418829 2.53074e-318)
(0.0256725 0.000115166 2.5136e-318)
(0.0255797 -0.00499758 2.477e-318)
(0.0247943 -0.0108666 2.43266e-318)
(0.0228947 -0.018816 2.38932e-318)
(0.020217 -0.0276149 2.34997e-318)
(0.0159112 -0.0391646 2.30806e-318)
(0.0117058 -0.0491738 2.24077e-318)
(0.00550285 -0.0587249 2.09469e-318)
(0.00307625 -0.0558577 1.73398e-318)
(-0.00211372 -0.0336726 9.3492e-319)
(0.00176336 0.00999288 2.35294e-319)
(0.00361142 0.0193058 7.39083e-319)
(0.00930324 0.0227578 1.1657e-318)
(0.0125064 0.0216414 1.52236e-318)
(0.0169476 0.019727 1.79628e-318)
(0.0199159 0.0163053 2.00237e-318)
(0.023072 0.0133992 2.14459e-318)
(0.0253657 0.0100897 2.23152e-318)
(0.0274896 0.00719992 2.27293e-318)
(0.0290521 0.00395781 2.27931e-318)
(0.0302303 0.000630073 2.2616e-318)
(0.0308289 -0.00364431 2.23088e-318)
(0.0306681 -0.00858005 2.19821e-318)
(0.0296035 -0.0155514 2.17118e-318)
(0.0271963 -0.0233781 2.15144e-318)
(0.0234893 -0.0342697 2.13354e-318)
(0.0181795 -0.0440837 2.0897e-318)
(0.0118894 -0.0546745 1.97355e-318)
(0.00578049 -0.0539758 1.64646e-318)
(0.000687682 -0.0352957 8.99891e-319)
(0.00235428 0.00869737 1.83456e-319)
(0.00360529 0.0163658 7.15965e-319)
(0.00988189 0.0189397 1.12228e-318)
(0.01302 0.0180108 1.43369e-318)
(0.0178723 0.0163111 1.65859e-318)
(0.0208992 0.013464 1.81999e-318)
(0.0243065 0.0110644 1.92861e-318)
(0.0267256 0.00836693 1.99175e-318)
(0.0291156 0.00605244 2.01928e-318)
(0.0309954 0.00346467 2.01948e-318)
(0.0326351 0.000832574 2.00192e-318)
(0.0338526 -0.0025954 1.97564e-318)
(0.0343782 -0.00656027 1.94861e-318)
(0.0341653 -0.0123439 1.92636e-318)
(0.0323455 -0.0188602 1.90806e-318)
(0.0292159 -0.0283938 1.88402e-318)
(0.0234952 -0.0369589 1.82521e-318)
(0.0163698 -0.0471059 1.68547e-318)
(0.00811217 -0.0464162 1.34976e-318)
(0.000345678 -0.0302534 6.76099e-319)
(0.00154652 0.00612996 3.49784e-319)
(0.00331123 0.0129717 8.67555e-319)
(0.00973561 0.0150947 1.1874e-318)
(0.0131482 0.0143856 1.41047e-318)
(0.0182645 0.0129885 1.56144e-318)
(0.0212906 0.010686 1.66622e-318)
(0.024764 0.00879831 1.73267e-318)
(0.0271539 0.00667422 1.76577e-318)
(0.0296335 0.00489642 1.7732e-318)
(0.0317032 0.00289865 1.76053e-318)
(0.0336901 0.000898612 1.73583e-318)
(0.0355109 -0.00174637 1.70622e-318)
(0.0367528 -0.00478391 1.67846e-318)
(0.0376657 -0.00936258 1.65693e-318)
(0.036707 -0.0145267 1.63908e-318)
(0.0351007 -0.0225334 1.61616e-318)
(0.0292533 -0.0299192 1.55716e-318)
(0.0236203 -0.0399299 1.42281e-318)
(0.0114888 -0.0412535 1.11369e-318)
(0.00578112 -0.0313256 5.23408e-319)
(0.00174574 0.00565797 1.92073e-319)
(0.00232341 0.0100807 6.83293e-319)
(0.00860233 0.0112865 9.69036e-319)
(0.0115213 0.0106716 1.15143e-318)
(0.0163319 0.00956331 1.27448e-318)
(0.0189864 0.00790224 1.35835e-318)
(0.0221353 0.0065073 1.41341e-318)
(0.0242412 0.00496399 1.44173e-318)
(0.0265282 0.00364406 1.44983e-318)
(0.0284968 0.0021718 1.44228e-318)
(0.0305644 0.000680892 1.42552e-318)
(0.0325893 -0.00126527 1.40498e-318)
(0.0343279 -0.0035044 1.38612e-318)
(0.0358624 -0.00684893 1.37077e-318)
(0.0358754 -0.0106323 1.35538e-318)
(0.035157 -0.0165223 1.32791e-318)
(0.0303775 -0.0219449 1.25898e-318)
(0.0247472 -0.0293531 1.10861e-318)
(0.0128427 -0.0294792 8.09472e-319)
(0.00402384 -0.0201272 3.06168e-319)
(0.000361694 0.00325509 7.78603e-319)
(0.00194606 0.00738482 1.05376e-318)
(0.0079623 0.0079925 1.12501e-318)
(0.0108754 0.0076069 1.14634e-318)
(0.0154567 0.00675221 1.16868e-318)
(0.0176372 0.00556746 1.18323e-318)
(0.0203885 0.00463099 1.19024e-318)
(0.022049 0.00355967 1.18461e-318)
(0.0240017 0.00268951 1.16812e-318)
(0.0257555 0.001669 1.14272e-318)
(0.0277195 0.000688471 1.11303e-318)
(0.0299235 -0.000649217 1.08259e-318)
(0.0319622 -0.00209412 1.05533e-318)
(0.0343537 -0.00437739 1.03319e-318)
(0.0352054 -0.00679271 1.0135e-318)
(0.0364362 -0.0110019 9.87291e-319)
(0.0324465 -0.014637 9.29451e-319)
(0.0302969 -0.0212839 8.1011e-319)
(0.0154554 -0.0226263 5.76258e-319)
(0.0131833 -0.0222303 1.92216e-319)
(-2.69469e-05 0.00329034 1.03961e-319)
(-6.49354e-06 0.00412904 3.5255e-319)
(0.00433153 0.00435217 4.7166e-319)
(0.00605948 0.00409347 5.40933e-319)
(0.00900999 0.0037277 5.95596e-319)
(0.0103681 0.00324441 6.36119e-319)
(0.0120293 0.00275054 6.65373e-319)
(0.0130519 0.00221004 6.82636e-319)
(0.0142601 0.0016642 6.90343e-319)
(0.0153591 0.00105559 6.90541e-319)
(0.0167365 0.00038997 6.86766e-319)
(0.0181782 -0.00042414 6.81633e-319)
(0.0198674 -0.00137096 6.76603e-319)
(0.0215102 -0.00262235 6.73293e-319)
(0.0228056 -0.00406741 6.68505e-319)
(0.0236403 -0.00599572 6.53698e-319)
(0.0221514 -0.00796885 6.1147e-319)
(0.0197825 -0.00996295 5.17366e-319)
(0.0113654 -0.00989859 3.47728e-319)
(0.00535958 -0.00374218 8.77411e-320)
(-0.000554442 0.00151237 1e-318)
(0.000640665 0.00297026 7.64092e-319)
(0.00420789 0.00255421 6.157e-319)
(0.00504942 0.00245755 5.12509e-319)
(0.00734284 0.00216037 4.69743e-319)
(0.00767043 0.00181156 4.39753e-319)
(0.00878822 0.00167267 4.1835e-319)
(0.00907682 0.00140326 3.9673e-319)
(0.0097813 0.00131836 3.74428e-319)
(0.0103767 0.00108585 3.51271e-319)
(0.0111704 0.00100865 3.28331e-319)
(0.0123259 0.00071762 3.06741e-319)
(0.0133673 0.000619677 2.88105e-319)
(0.0152347 0.000111736 2.73297e-319)
(0.0161138 -1.96824e-05 2.6228e-319)
(0.0185888 -0.00114522 2.53431e-319)
(0.0173363 -0.00124795 2.37315e-319)
(0.0198882 -0.00425508 2.04973e-319)
(0.0103878 -0.00393301 1.33521e-319)
(0.015963 -0.0118565 8.24596e-321)
)
;

boundaryField
{
    cavity
    {
        type            myHeatFlux;
        ThetaWall       uniform 0;
        value           nonuniform List<vector> 
60
(
(0.001 0 0)
(0.001 0 0)
(0.001 0 0)
(0.001 0 0)
(0.001 0 0)
(0.001 0 0)
(0.001 0 0)
(0.001 0 0)
(0.001 0 0)
(0.001 0 0)
(0.001 0 0)
(0.001 0 0)
(0.001 0 0)
(0.001 0 0)
(0.001 0 0)
(0.001 0 0)
(0.001 0 0)
(0.001 0 0)
(0.001 0 0)
(0.001 0 0)
(0 -0.001 0)
(0 -0.001 0)
(0 -0.001 0)
(0 -0.001 0)
(0 -0.001 0)
(0 -0.001 0)
(0 -0.001 0)
(0 -0.001 0)
(0 -0.001 0)
(0 -0.001 0)
(0 -0.001 0)
(0 -0.001 0)
(0 -0.001 0)
(0 -0.001 0)
(0 -0.001 0)
(0 -0.001 0)
(0 -0.001 0)
(0 -0.001 0)
(0 -0.001 0)
(0 -0.001 0)
(-0.001 0 0)
(-0.001 0 0)
(-0.001 0 0)
(-0.001 0 0)
(-0.001 0 0)
(-0.001 0 0)
(-0.001 0 0)
(-0.001 0 0)
(-0.001 0 0)
(-0.001 0 0)
(-0.001 0 0)
(-0.001 0 0)
(-0.001 0 0)
(-0.001 0 0)
(-0.001 0 0)
(-0.001 0 0)
(-0.001 0 0)
(-0.001 0 0)
(-0.001 0 0)
(-0.001 0 0)
)
;
    }
    lid
    {
        type            myHeatFlux;
        ThetaWall       uniform 0;
        value           nonuniform List<vector> 
20
(
(0.000135815 0.0009 0)
(0.000135815 0.0009 0)
(0.000135815 0.0009 0)
(0.000135815 0.0009 0)
(0.000135815 0.0009 0)
(0.000135815 0.0009 0)
(0.000135815 0.0009 0)
(0.000135815 0.0009 0)
(0.000135815 0.0009 0)
(0.000135815 0.0009 0)
(0.000135815 0.0009 0)
(0.000135815 0.0009 0)
(0.000135815 0.0009 0)
(0.000135815 0.0009 0)
(0.000135815 0.0009 0)
(0.000135815 0.0009 0)
(0.000135815 0.0009 0)
(0.000135815 0.0009 0)
(0.000135815 0.0009 0)
(0.000135815 0.0009 0)
)
;
    }
    frontAndBack
    {
        type            empty;
    }
}


// ************************************************************************* //
