/*--------------------------------*- C++ -*----------------------------------*\
| =========                 |                                                 |
| \\      /  F ield         | foam-extend: Open Source CFD                    |
|  \\    /   O peration     | Version:  3.0                                   |
|   \\  /    A nd           | Web:         http://www.extend-project.de       |
|    \\/     M anipulation  |                                                 |
\*---------------------------------------------------------------------------*/
FoamFile
{
    version     2.0;
    format      ascii;
    class       volVectorField;
    location    "4.1";
    object      u;
}
// * * * * * * * * * * * * * * * * * * * * * * * * * * * * * * * * * * * * * //

dimensions      [0 0 0 0 0 0 0];

internalField   nonuniform List<vector> 
400
(
(-0.147733 0.427393 1.01777e-315)
(-0.349384 0.364995 9.14698e-316)
(-0.555919 0.388162 7.85485e-316)
(-0.753959 0.358618 7.27113e-316)
(-0.908513 0.335613 5.95813e-316)
(-1.06508 0.305184 5.70093e-316)
(-1.1767 0.266407 4.44823e-316)
(-1.27947 0.216711 4.38961e-316)
(-1.33977 0.172414 3.23258e-316)
(-1.38484 0.107395 3.30119e-316)
(-1.38567 0.0582963 2.23763e-316)
(-1.36688 -0.0114657 2.39419e-316)
(-1.30642 -0.0642785 1.41209e-316)
(-1.21507 -0.124669 1.62061e-316)
(-1.10051 -0.175173 7.2468e-317)
(-0.932096 -0.213041 9.2038e-317)
(-0.777624 -0.240839 1.63998e-317)
(-0.549698 -0.265998 2.19559e-317)
(-0.357655 -0.231457 -2.99563e-317)
(-0.130375 -0.282439 -5.95636e-317)
(-0.039641 0.385193 4.59571e-316)
(-0.235965 0.312764 4.82601e-316)
(-0.354733 0.28559 4.55093e-316)
(-0.497712 0.232645 4.53232e-316)
(-0.60773 0.186225 4.06999e-316)
(-0.706593 0.145606 3.95726e-316)
(-0.783726 0.0943637 3.40915e-316)
(-0.843823 0.0571857 3.26539e-316)
(-0.881334 0.00531533 2.69405e-316)
(-0.904606 -0.0310185 2.55467e-316)
(-0.90113 -0.0880772 1.99617e-316)
(-0.886294 -0.122798 1.87913e-316)
(-0.842958 -0.190368 1.35041e-316)
(-0.785195 -0.221733 1.25451e-316)
(-0.706377 -0.298823 7.62883e-317)
(-0.599079 -0.32724 6.53075e-317)
(-0.496386 -0.3973 2.01636e-317)
(-0.333534 -0.430987 -2.65044e-318)
(-0.237515 -0.461308 -4.62202e-317)
(-0.0183975 -0.512919 -1.05365e-316)
(-0.0208833 0.820483 4.18522e-316)
(-0.258573 0.824846 4.30003e-316)
(-0.367072 0.766972 4.04018e-316)
(-0.536533 0.72658 3.89799e-316)
(-0.656604 0.636344 3.46921e-316)
(-0.768595 0.557018 3.28282e-316)
(-0.861269 0.459536 2.80106e-316)
(-0.93319 0.350697 2.62408e-316)
(-0.981193 0.251083 2.14238e-316)
(-1.01994 0.125197 1.98475e-316)
(-1.01672 0.0190086 1.51852e-316)
(-1.01868 -0.109425 1.37662e-316)
(-0.963267 -0.226851 9.23922e-317)
(-0.915112 -0.338834 7.82231e-317)
(-0.814709 -0.464478 3.37214e-317)
(-0.694561 -0.536062 1.63092e-317)
(-0.575333 -0.648607 -2.66867e-317)
(-0.358974 -0.660247 -5.14519e-317)
(-0.281633 -0.711338 -8.92465e-317)
(0.0240628 -0.666167 -1.162e-316)
(-0.0435028 0.795155 4.86142e-317)
(-0.204215 0.828525 1.42185e-316)
(-0.316869 0.703526 1.78635e-316)
(-0.401443 0.670022 2.11275e-316)
(-0.502205 0.539193 2.14157e-316)
(-0.540205 0.457685 2.17235e-316)
(-0.608729 0.346667 2.01972e-316)
(-0.628593 0.241156 1.91496e-316)
(-0.66121 0.139414 1.67799e-316)
(-0.676965 0.0240125 1.52076e-316)
(-0.674101 -0.0880862 1.25682e-316)
(-0.687611 -0.203404 1.09129e-316)
(-0.648165 -0.345164 8.34549e-317)
(-0.64889 -0.445515 6.88415e-317)
(-0.572107 -0.627993 4.6656e-317)
(-0.533578 -0.684847 3.68388e-317)
(-0.430528 -0.894139 2.17809e-317)
(-0.30932 -0.86421 2.18763e-317)
(-0.225083 -1.02125 1.99357e-317)
(0.00594559 -0.882981 4.16278e-317)
(-0.116339 1.13867 2.02901e-316)
(-0.232832 1.18399 2.24707e-316)
(-0.429927 1.02153 2.25383e-316)
(-0.482776 0.967297 2.21679e-316)
(-0.631617 0.812859 2.08556e-316)
(-0.660473 0.690338 1.96684e-316)
(-0.756298 0.568543 1.76789e-316)
(-0.787089 0.411108 1.61641e-316)
(-0.832292 0.306941 1.38745e-316)
(-0.874473 0.133085 1.21897e-316)
(-0.870334 0.0247171 9.74731e-317)
(-0.920851 -0.152983 7.92261e-317)
(-0.863532 -0.287949 5.32318e-317)
(-0.905526 -0.449852 3.24688e-317)
(-0.788716 -0.630682 3.60668e-318)
(-0.785755 -0.736183 -2.29586e-317)
(-0.613467 -0.964413 -5.70562e-317)
(-0.506925 -0.946192 -9.52612e-317)
(-0.317921 -1.14866 -1.38089e-316)
(-0.0640916 -0.964318 -1.94177e-316)
(-0.202834 1.24905 -3.06745e-317)
(-0.18308 1.24303 4.45168e-317)
(-0.442672 1.03564 8.31058e-317)
(-0.37773 0.940922 1.14592e-316)
(-0.534265 0.778116 1.26467e-316)
(-0.476591 0.626733 1.32634e-316)
(-0.562902 0.517567 1.28331e-316)
(-0.535731 0.343947 1.21537e-316)
(-0.574049 0.256683 1.08835e-316)
(-0.586911 0.0741552 9.6245e-317)
(-0.586507 -0.027161 8.00902e-317)
(-0.642206 -0.214674 6.57493e-317)
(-0.5973 -0.367357 4.93146e-317)
(-0.690451 -0.547498 3.61564e-317)
(-0.580914 -0.78798 2.22472e-317)
(-0.688674 -0.917889 1.39557e-317)
(-0.488555 -1.26076 6.1495e-318)
(-0.555399 -1.2506 8.66842e-318)
(-0.254065 -1.59637 1.17876e-317)
(-0.195159 -1.37187 3.18314e-317)
(-0.321572 1.59891 1.81805e-316)
(-0.174125 1.47118 1.73519e-316)
(-0.55475 1.25258 1.66681e-316)
(-0.414445 1.0735 1.55677e-316)
(-0.62437 0.927527 1.45847e-316)
(-0.543819 0.718802 1.34499e-316)
(-0.651727 0.634959 1.2194e-316)
(-0.636544 0.41808 1.0935e-316)
(-0.681798 0.363851 9.46831e-317)
(-0.730918 0.141784 8.04924e-317)
(-0.728261 0.086081 6.4065e-317)
(-0.84079 -0.146898 4.80618e-317)
(-0.780876 -0.237556 2.95321e-317)
(-0.950866 -0.479117 1.04495e-317)
(-0.798899 -0.646138 -1.19298e-317)
(-1.00161 -0.86194 -3.79273e-317)
(-0.700565 -1.14638 -6.79905e-317)
(-0.870718 -1.24803 -1.08826e-316)
(-0.359377 -1.60837 -1.53167e-316)
(-0.378092 -1.52043 -2.19896e-316)
(-0.386729 1.82303 -4.73481e-318)
(-0.0861686 1.51794 4.17525e-317)
(-0.517024 1.31793 6.69016e-317)
(-0.271024 1.02619 8.75939e-317)
(-0.4821 0.931687 9.52243e-317)
(-0.330279 0.661175 9.81072e-317)
(-0.425551 0.627549 9.44115e-317)
(-0.356654 0.379556 8.78205e-317)
(-0.394541 0.367174 7.8013e-317)
(-0.402639 0.126894 6.70738e-317)
(-0.405436 0.0997553 5.45978e-317)
(-0.496126 -0.156468 4.22131e-317)
(-0.452853 -0.241692 2.93267e-317)
(-0.640602 -0.530565 1.77101e-317)
(-0.500867 -0.732124 6.63607e-318)
(-0.800682 -1.03574 -1.02254e-318)
(-0.465071 -1.415 -7.30338e-318)
(-0.8658 -1.64652 -5.6429e-318)
(-0.189945 -2.16507 -3.35022e-318)
(-0.572838 -2.21458 1.12463e-317)
(-0.438345 2.11129 2.00947e-316)
(-0.0323035 1.61128 1.68894e-316)
(-0.520305 1.45197 1.51322e-316)
(-0.231811 1.03252 1.32291e-316)
(-0.460963 0.990238 1.19719e-316)
(-0.312268 0.653854 1.06779e-316)
(-0.407461 0.662275 9.52075e-317)
(-0.366462 0.381259 8.34882e-317)
(-0.400329 0.412811 7.14048e-317)
(-0.453829 0.150811 5.91149e-317)
(-0.454379 0.185899 4.60456e-317)
(-0.609948 -0.0991776 3.25616e-317)
(-0.563111 -0.085729 1.797e-317)
(-0.84108 -0.434437 2.019e-318)
(-0.678878 -0.48491 -1.58684e-317)
(-1.09738 -0.915444 -3.82633e-317)
(-0.676318 -1.09976 -6.36922e-317)
(-1.21103 -1.56962 -1.01969e-316)
(-0.311019 -1.9585 -1.43204e-316)
(-0.782911 -2.36819 -2.13106e-316)
(-0.373508 2.30995 2.90664e-317)
(0.0564124 1.60416 5.89405e-317)
(-0.362868 1.52463 7.3193e-317)
(-0.0567362 0.965313 8.51927e-317)
(-0.236372 1.01486 8.70652e-317)
(-0.0605568 0.605177 8.57379e-317)
(-0.122139 0.6832 7.99834e-317)
(-0.0397124 0.370561 7.22308e-317)
(-0.0582797 0.456676 6.26879e-317)
(-0.0553591 0.180344 5.23363e-317)
(-0.0612027 0.259788 4.13519e-317)
(-0.148968 -0.0471516 3.0351e-317)
(-0.129507 -0.00451542 1.94614e-317)
(-0.34472 -0.414151 9.45452e-318)
(-0.22688 -0.468467 5.00192e-319)
(-0.636738 -1.04023 -5.52202e-318)
(-0.248613 -1.29584 -9.42777e-318)
(-0.934298 -2.02022 -5.58355e-318)
(0.0147983 -2.59725 1.37746e-319)
(-0.873686 -3.32447 1.83905e-317)
(-0.296045 2.42309 2.12043e-316)
(0.120868 1.59956 1.6941e-316)
(-0.223909 1.56228 1.46414e-316)
(0.0351308 0.907056 1.23604e-316)
(-0.0984492 0.994634 1.08779e-316)
(0.0272978 0.541286 9.45742e-317)
(-0.00196137 0.643927 8.2597e-317)
(0.0337197 0.319191 7.09335e-317)
(0.0331858 0.431209 5.96195e-317)
(-0.012364 0.154984 4.83619e-317)
(-0.0166299 0.280349 3.69989e-317)
(-0.164661 -0.0315047 2.54972e-317)
(-0.16039 0.105393 1.36623e-317)
(-0.459635 -0.341751 9.57583e-319)
(-0.364805 -0.208441 -1.26034e-317)
(-0.886692 -0.904653 -2.97787e-317)
(-0.492444 -0.83376 -4.84447e-317)
(-1.28154 -1.84895 -7.89046e-317)
(-0.212413 -2.05784 -1.10087e-316)
(-1.05362 -3.23222 -1.68691e-316)
(-0.0991241 2.47407 4.66059e-317)
(0.139977 1.53739 7.47465e-317)
(0.0160613 1.60185 8.34501e-317)
(0.195484 0.847122 9.06631e-317)
(0.174642 1.01952 8.77777e-317)
(0.289414 0.513136 8.27646e-317)
(0.316514 0.67498 7.45617e-317)
(0.383761 0.334947 6.5296e-317)
(0.406676 0.497036 5.52551e-317)
(0.430765 0.222965 4.49798e-317)
(0.423789 0.398017 3.47128e-317)
(0.390703 0.0820029 2.47479e-317)
(0.359864 0.26536 1.53471e-317)
(0.22851 -0.228652 7.02385e-318)
(0.237625 -0.0751424 3.19122e-319)
(-0.0826528 -0.922775 -3.01632e-318)
(0.152282 -0.925327 -2.94231e-318)
(-0.520181 -2.26872 7.19481e-318)
(0.297479 -2.78269 2.19019e-317)
(-0.811386 -4.45353 5.96326e-317)
(0.09108 2.39479 1.99982e-316)
(0.21339 1.4977 1.64705e-316)
(0.261233 1.51682 1.42122e-316)
(0.311568 0.767483 1.19764e-316)
(0.389366 0.916123 1.03874e-316)
(0.418918 0.418286 8.89784e-317)
(0.505269 0.566704 7.63652e-317)
(0.51719 0.243637 6.4477e-317)
(0.569346 0.397535 5.33581e-317)
(0.549987 0.145644 4.26616e-317)
(0.544398 0.324651 3.23443e-317)
(0.463154 0.0315828 2.23094e-317)
(0.399822 0.256028 1.25698e-317)
(0.195866 -0.228869 2.70771e-318)
(0.128275 0.065646 -6.97495e-318)
(-0.305508 -0.831311 -1.87135e-317)
(-0.177572 -0.468799 -3.02237e-317)
(-0.962701 -1.99485 -5.00595e-317)
(-0.156649 -1.85501 -6.8187e-317)
(-1.09988 -3.73074 -1.0279e-316)
(0.265733 2.23077 5.40039e-317)
(0.132876 1.39756 9.75562e-317)
(0.476644 1.51752 1.01061e-316)
(0.444012 0.737361 1.03431e-316)
(0.663743 0.927077 9.47729e-317)
(0.682295 0.413242 8.53129e-317)
(0.82923 0.590844 7.40886e-317)
(0.869431 0.278093 6.28968e-317)
(0.945255 0.4672 5.18742e-317)
(0.998093 0.239616 4.12694e-317)
(0.994871 0.466491 3.1204e-317)
(1.05414 0.197063 2.17944e-317)
(0.96329 0.481887 1.33153e-317)
(1.01283 -0.0090575 6.17292e-318)
(0.84481 0.334943 1.07564e-318)
(0.834461 -0.672263 -3.80184e-320)
(0.685438 -0.37799 3.18827e-318)
(0.463318 -2.27203 1.96264e-317)
(0.590476 -2.62899 4.21439e-317)
(-0.167022 -5.41486 1.02753e-316)
(0.618195 2.09101 1.7058e-316)
(0.249882 1.33274 1.55694e-316)
(0.772764 1.28274 1.3532e-316)
(0.557148 0.622617 1.14356e-316)
(0.880412 0.737157 9.81518e-317)
(0.805811 0.29184 8.31061e-317)
(1.01696 0.428308 7.04716e-317)
(1.00656 0.158368 5.883e-317)
(1.11355 0.30787 4.8236e-317)
(1.13153 0.116116 3.83133e-317)
(1.13106 0.296344 2.90671e-317)
(1.15242 0.0699038 2.03988e-317)
(1.02553 0.308266 1.23893e-317)
(1.00479 -0.119817 4.84476e-318)
(0.731432 0.224862 -1.96087e-318)
(0.564034 -0.694259 -9.55039e-318)
(0.22974 -0.17603 -1.63601e-317)
(-0.288838 -1.93302 -2.8641e-317)
(-0.169681 -1.42115 -3.96751e-317)
(-1.056 -3.50519 -5.93636e-317)
(0.455409 1.61248 1.43592e-316)
(0.157468 1.2822 1.7416e-316)
(0.927549 1.28552 1.53039e-316)
(0.77977 0.651154 1.36201e-316)
(1.23336 0.739092 1.15116e-316)
(1.18034 0.307225 9.69907e-317)
(1.43534 0.439784 8.05349e-317)
(1.44943 0.202456 6.58736e-317)
(1.57069 0.372296 5.26788e-317)
(1.65182 0.222512 4.06151e-317)
(1.66034 0.447562 2.96e-317)
(1.82317 0.270029 1.95553e-317)
(1.69622 0.584935 1.06745e-317)
(1.97032 0.201077 3.27992e-318)
(1.63229 0.650627 -1.87925e-318)
(2.06868 -0.309486 -2.75562e-318)
(1.4001 0.244741 8.95776e-319)
(2.03295 -1.96515 1.93475e-317)
(0.893751 -2.01896 4.34693e-317)
(1.35068 -6.17704 1.10617e-316)
(1.22304 1.6585 1.32339e-316)
(0.245488 1.01353 1.13052e-316)
(1.09367 0.866641 9.8777e-317)
(0.702345 0.41701 8.20373e-317)
(1.16308 0.468665 7.14355e-317)
(1.03872 0.155424 6.0964e-317)
(1.31497 0.249541 5.25224e-317)
(1.29327 0.0701017 4.45433e-317)
(1.42915 0.179306 3.72554e-317)
(1.47151 0.0650814 3.04053e-317)
(1.48356 0.197115 2.40649e-317)
(1.58336 0.0641237 1.82555e-317)
(1.43979 0.236676 1.31121e-317)
(1.58553 -0.0478594 8.52789e-318)
(1.18905 0.19848 4.61771e-318)
(1.32003 -0.503419 1.26861e-319)
(0.584491 -0.111266 -4.71028e-318)
(0.420096 -1.58432 -1.58055e-317)
(-0.181576 -0.986886 -2.95819e-317)
(-1.37156 -2.15686 -6.04604e-317)
(0.27184 0.693262 5.29561e-316)
(0.518548 1.34562 3.91641e-316)
(1.61257 0.972531 2.94465e-316)
(1.55364 0.5903 2.23036e-316)
(2.23383 0.510186 1.74819e-316)
(2.13482 0.199971 1.38178e-316)
(2.47454 0.268386 1.10125e-316)
(2.45685 0.122207 8.67957e-317)
(2.60719 0.251517 6.69079e-317)
(2.7185 0.181828 4.92156e-317)
(2.75035 0.369151 3.32725e-317)
(3.03756 0.292734 1.87016e-317)
(2.92935 0.574641 5.59799e-318)
(3.47358 0.356384 -5.74617e-318)
(3.05702 0.807393 -1.45099e-317)
(4.02512 0.0751459 -1.84727e-317)
(2.81143 0.807675 -1.68913e-317)
(4.58469 -1.44841 5.57168e-319)
(1.41027 -0.825008 2.48128e-317)
(4.42147 -6.92897 8.7232e-317)
(1.85655 1.13541 -1.37459e-316)
(0.205739 0.234217 -1.18701e-316)
(0.756169 0.25613 -7.71719e-317)
(0.391755 0.0540553 -5.24446e-317)
(0.598897 0.123672 -3.32478e-317)
(0.527369 0.0116079 -2.09095e-317)
(0.682858 0.0585498 -1.17354e-317)
(0.669548 -0.00694705 -5.14099e-318)
(0.757528 0.0300775 -1.35868e-320)
(0.764851 -0.0110003 4.13648e-318)
(0.780261 0.0236488 7.74674e-318)
(0.802387 -0.0221345 1.11479e-317)
(0.719562 0.00859776 1.44785e-317)
(0.750278 -0.0879975 1.77008e-317)
(0.500488 -0.0766208 2.04429e-317)
(0.506073 -0.306887 2.10973e-317)
(0.0632292 -0.368547 1.83166e-317)
(-0.276483 -0.726652 4.02671e-318)
(-0.169905 -0.859889 -1.86078e-317)
(-3.11553 1.03559 -7.85585e-317)
(-0.423418 -0.437084 1.4628e-315)
(1.61746 1.89444 8.74048e-316)
(3.57425 0.824533 6.19134e-316)
(3.62841 0.642944 4.4335e-316)
(4.87757 0.409115 3.43763e-316)
(4.61637 0.138147 2.69797e-316)
(5.15067 0.175259 2.14793e-316)
(5.04827 0.0712492 1.68826e-316)
(5.26841 0.186911 1.29253e-316)
(5.45696 0.159902 9.37033e-317)
(5.55349 0.334022 6.12463e-317)
(6.14055 0.315425 3.12133e-317)
(6.12228 0.582691 3.70422e-318)
(7.27871 0.46645 -2.08769e-317)
(6.87128 0.91156 -4.1074e-317)
(8.90094 0.317117 -5.40158e-317)
(6.95978 1.20228 -5.73049e-317)
(10.5663 -1.25646 -3.9776e-317)
(3.32485 0.781765 -1.17151e-317)
(10.5618 -8.31433 5.26376e-317)
)
;

boundaryField
{
    cavity
    {
        type            myImplicitVelocity;
    }
    lid
    {
        type            fixedValue;
        value           uniform (1 0 0);
    }
    frontAndBack
    {
        type            empty;
    }
}


// ************************************************************************* //
