/*--------------------------------*- C++ -*----------------------------------*\
| =========                 |                                                 |
| \\      /  F ield         | foam-extend: Open Source CFD                    |
|  \\    /   O peration     | Version:  3.0                                   |
|   \\  /    A nd           | Web:         http://www.extend-project.de       |
|    \\/     M anipulation  |                                                 |
\*---------------------------------------------------------------------------*/
FoamFile
{
    version     2.0;
    format      ascii;
    class       volScalarField;
    location    "5";
    object      p;
}
// * * * * * * * * * * * * * * * * * * * * * * * * * * * * * * * * * * * * * //

dimensions      [0 0 0 0 0 0 0];

internalField   nonuniform List<scalar> 
728
(
0.0271887
-0.0271796
0.0619209
-0.0621072
-0.0214054
0.0214302
-0.193083
0.192574
-0.0659582
0.0783806
0.0660295
-0.0786023
-0.0686364
-0.0806995
0.0689744
0.0807007
0.00384672
0.095378
-0.0952605
-0.0038257
0.03864
0.11257
-0.112987
-0.0386201
0.0285625
0.169947
-0.168447
-0.0288239
0.00142555
0.10599
-0.105574
-0.00137593
0.0383656
0.122696
-0.123288
-0.0383763
0.0850471
0.0351962
-0.085219
-0.0354186
-0.0420182
0.0943924
0.041944
-0.0946544
-0.0401378
-0.0967646
0.0400355
0.0965848
-0.0749188
-0.123775
0.124832
0.075135
0.227356
0.00558363
-0.227561
-0.00550971
-0.0334411
0.0864612
-0.0864452
0.0334347
-0.0281057
-0.0966242
0.0963386
0.0280539
0.0705305
0.0404193
-0.0706521
-0.0401216
0.0209289
-0.0210692
0.137547
-0.136023
0.074831
0.0351151
-0.0352428
-0.074901
-0.0164206
0.107054
0.016489
-0.107028
0.0910449
-0.0909479
-0.0987496
0.0989098
-0.0106189
0.0697333
0.0107023
-0.0697988
0.0859127
0.244234
-0.0858945
-0.245308
0.0926629
-0.092582
-0.116124
0.115933
0.0721105
0.0839415
-0.0720504
-0.0836847
-0.0298515
0.030042
0.0739621
-0.0744119
0.0429607
-0.0780705
0.0779683
-0.0428206
-0.0118485
0.0822217
0.0119532
-0.0822359
-0.0104292
0.0898903
0.0103597
-0.0898725
-0.0356539
0.0356963
0.0681937
-0.0682831
-0.0314851
0.0769718
-0.0768409
0.031577
-0.0664692
-0.0684183
0.0664942
0.0686273
-0.0657693
0.0658742
-0.0646031
0.0644149
-0.0216658
0.0794354
-0.0797017
0.0217583
-0.0589037
-0.0624943
0.0590673
0.0626247
0.034162
0.114103
-0.113946
-0.0342214
0.0392862
0.0909995
-0.0392387
-0.090913
-0.0336605
0.086849
-0.0869946
0.0334316
0.058091
-0.0579091
0.0512183
-0.0512126
-0.0144955
-0.0984002
0.0145252
0.0983161
-0.187215
-0.0640814
0.189046
0.0641884
-0.019687
-0.137964
0.139206
0.0198959
0.102692
-0.0286116
-0.102436
0.0286216
-0.0679959
0.0680805
-0.0642312
0.0642558
-0.0535024
0.0535972
-0.0417221
0.0416053
0.106609
-0.106219
0.0524208
-0.0520117
-0.0493465
-0.150009
0.150586
0.0495031
0.0453221
0.0986963
-0.0449846
-0.0989839
0.0561291
-0.0940793
0.0938994
-0.0561538
0.0152874
-0.0717777
0.0717553
-0.0152727
-0.0292675
-0.0815883
0.0814443
0.0291432
0.0448721
-0.0777851
-0.0446915
0.0777213
-0.050097
-0.0672982
0.067328
0.0501466
-0.0870391
0.0868466
0.0356911
-0.0357988
-0.0240445
-0.162189
0.161517
0.0238557
-0.027598
-0.0786992
0.0785985
0.0275255
-0.0167059
0.0166862
0.107771
-0.107948
0.0654759
-0.0457422
0.0455283
-0.065234
-0.0106958
0.086764
0.0106604
-0.0867897
0.102866
0.0455775
-0.0454551
-0.102555
0.0298402
-0.0298907
0.148343
-0.149793
0.0913133
-0.177328
-0.0914788
0.177502
-0.0804589
-0.0463055
0.0802685
0.0462301
0.11011
0.150658
-0.110345
-0.150056
-0.0131677
-0.0845031
0.0132331
0.0845339
-0.105292
0.0438451
0.104962
-0.0436016
-0.0871666
-0.0505809
0.0507846
0.0869308
-0.0581585
0.0580463
-0.137248
0.137688
0.085578
-0.00388244
0.00387123
-0.0855256
0.0530818
0.060055
-0.0596599
-0.0529774
0.0310682
0.106243
-0.0307744
-0.106485
0.00133116
0.0983382
-0.0981554
-0.00133607
0.087253
0.0543365
-0.0540572
-0.0865149
-0.0462588
0.0557047
-0.0556668
0.0461611
-0.0750714
0.00278424
0.0750873
-0.00278164
-0.0488994
-0.0653338
0.0653925
0.0488366
0.00922172
-0.00922295
0.12864
-0.128986
-0.0253132
0.0963706
-0.096506
0.0252922
-0.0674237
0.067268
0.159401
-0.159606
-0.0542424
0.054341
-0.087858
0.0875959
-0.136631
-0.098926
0.0989821
0.136824
-0.0794269
0.0792392
-0.108972
0.109107
0.0353849
0.063793
-0.0354159
-0.0638266
0.0351693
-0.0351184
0.0910628
-0.0909134
-0.0736825
0.0736331
-0.141075
0.141208
-0.0056056
0.113041
-0.112742
0.00574292
-0.063369
-0.0944685
0.0636261
0.0944298
0.0823897
0.0806074
-0.0825653
-0.0811733
-0.00383555
0.00386711
0.104033
-0.103849
-0.0554151
-0.0750861
0.0553857
0.075125
0.0333536
0.105791
-0.0332215
-0.105677
0.0214931
0.0804615
-0.0802604
-0.0213862
0.0972601
0.091754
-0.0970692
-0.0918399
-0.0671584
-0.107979
0.107973
0.0674573
-0.0579405
-0.076183
0.057882
0.0761993
0.0924448
-0.024256
-0.092334
0.0242521
0.011299
0.0858315
-0.085828
-0.0113861
-0.0031393
0.0855547
0.00310882
-0.0855292
-0.0146193
-0.0881
0.0147225
0.0881151
-0.0733871
0.115906
0.0731931
-0.115879
-0.174487
0.2013
-0.201771
0.174701
0.0653261
0.251756
-0.0653388
-0.251373
-0.0573372
0.0576989
0.0707002
-0.0710627
0.0155212
-0.015531
0.0972283
-0.0974505
-0.0566753
0.107175
-0.107235
0.0565397
0.00644668
-0.0912158
-0.00643791
0.0913296
-0.00146104
0.0911408
0.00148224
-0.0910677
0.0183659
-0.018473
0.0896697
-0.0897482
0.0185884
-0.0660659
0.0659459
-0.018564
0.0200834
0.0845248
-0.0846201
-0.0202108
0.0438191
-0.0623163
-0.043817
0.0624042
-0.0979422
0.0636061
0.0985382
-0.0639389
-0.115146
0.0199312
-0.0198218
0.115009
0.0350272
-0.0583837
-0.0351235
0.0584153
0.0214473
-0.0214166
-0.110715
0.110797
-0.093202
-0.0262282
0.0931007
0.0262442
0.0164235
0.129232
-0.0163968
-0.129955
-0.103233
0.103142
0.0189864
-0.0190211
0.0822229
0.0698262
-0.0812505
-0.0695054
0.0422928
-0.070619
0.070543
-0.0423683
-0.0804823
-0.0688802
0.0698022
0.0802818
-0.023199
0.0717322
0.023167
-0.0718173
-0.102651
0.102723
0.00845514
-0.00841375
0.113914
0.0178289
-0.0177865
-0.114751
-0.104946
-0.0497942
0.0500624
0.105189
-0.0291524
-0.0687096
0.0291052
0.0686323
0.117536
-0.120294
-0.118099
0.120572
-0.0918271
0.0843
0.0921339
-0.0845539
-0.142006
1.04062e-05
0.1423
0.000184321
-0.076391
0.0764082
0.00831392
-0.00832932
-0.0826802
-0.0455541
0.0825592
0.0454277
0.119476
0.0199285
-0.119052
-0.0199314
0.00394981
0.0742161
-0.00389429
-0.0742743
-0.0528935
-0.0699486
0.0529437
0.0701911
-0.0545024
0.0619757
0.0546391
-0.0618414
0.0874049
0.0546781
-0.0875411
-0.0547164
-0.0792494
0.0586481
-0.058692
0.0792913
-0.0110654
0.0111024
0.137691
-0.136697
-0.00076032
0.117091
0.000853771
-0.116914
0.0738938
-0.0353982
0.035192
-0.0740185
0.0931963
-0.0931156
-0.13096
0.131624
-0.123367
0.124162
-0.0992128
0.0993626
0.0430467
-0.0699019
0.0698761
-0.0432342
-0.0424359
-0.0806301
0.0804729
0.0422858
-0.0178114
-0.122632
0.0180999
0.123091
0.124449
-0.124194
-0.023118
0.0234109
0.0610632
-0.0610566
0.0419391
-0.041997
0.00333515
-0.0835895
0.0836922
-0.00331539
-0.101504
-0.17982
0.179722
0.101811
0.000217387
0.124443
-0.000231725
-0.124667
-0.0552511
0.0551732
-0.0691801
0.0692289
-0.0510745
0.0499244
0.0509545
-0.0499137
0.0352589
0.112631
-0.0353478
-0.112475
-0.0858664
-0.00435567
0.0859864
0.00439824
0.128974
-0.044653
-0.128644
0.0447089
0.114121
0.0363638
-0.0362279
-0.114056
-0.0738411
-0.0493385
0.049196
0.0738215
-0.0572387
-0.0737636
0.0568672
0.0741304
-0.0588632
0.128844
-0.12869
0.0591472
-0.0617848
0.140743
-0.139952
0.0619263
0.0318602
0.107304
-0.107764
-0.0316074
0.169633
-0.126968
-0.169886
0.127165
0.06312
0.0573724
-0.0629397
-0.0573561
0.0357274
0.147964
-0.146753
-0.0355336
0.0414861
0.115344
-0.11466
-0.0410271
-0.006494
0.00650535
-0.0933293
0.0935152
0.111504
0.00888966
-0.111481
-0.0087931
-0.0540185
0.0541068
-0.0591299
0.0592715
0.046938
-0.0720493
-0.0470147
0.072022
0.0563724
0.0605183
-0.0604109
-0.0564865
-0.0148087
0.0148714
0.0946712
-0.0947603
0.0925835
-0.0925605
-0.0734703
0.0733844
-0.0952282
0.0707571
0.0951279
-0.070777
-0.0082717
-0.099287
0.00810009
0.0994822
-0.0966725
0.0967785
0.0603538
-0.0603199
0.00817827
0.108393
-0.107938
-0.00810347
-0.114252
-0.0594696
0.114171
0.0593772
-0.0827692
0.0196114
0.082694
-0.0198002
0.0163511
-0.0985416
0.0984677
-0.016491
0.0854045
0.0263705
-0.0266446
-0.0855329
0.0948182
-0.0260603
0.0260158
-0.0950399
0.0277
0.0887433
-0.0278487
-0.0888757
)
;

boundaryField
{
    insideCircle
    {
        type            zeroGradient;
    }
    outsideCircle
    {
        type            zeroGradient;
    }
    topAndBottom
    {
        type            empty;
    }
}


// ************************************************************************* //
