/*--------------------------------*- C++ -*----------------------------------*\
| =========                 |                                                 |
| \\      /  F ield         | foam-extend: Open Source CFD                    |
|  \\    /   O peration     | Version:  3.0                                   |
|   \\  /    A nd           | Web:         http://www.extend-project.de       |
|    \\/     M anipulation  |                                                 |
\*---------------------------------------------------------------------------*/
FoamFile
{
    version     2.0;
    format      ascii;
    class       volSymmTensorField;
    location    "5";
    object      sigma;
}
// * * * * * * * * * * * * * * * * * * * * * * * * * * * * * * * * * * * * * //

dimensions      [0 0 0 0 0 0 0];

internalField   nonuniform List<symmTensor> 
728
(
(-0.0153971 0.0355541 -4.83705e-19 0.0152858 1.03957e-19 0.000111325)
(0.015418 -0.0355398 6.34357e-19 -0.0153055 1.19383e-19 -0.000112469)
(0.0225948 -0.0413265 -8.1802e-19 -0.0226675 -2.08845e-19 7.26433e-05)
(-0.0226418 0.0414097 3.30246e-19 0.0227154 -1.33399e-19 -7.35709e-05)
(-0.00810841 0.0747332 7.75016e-19 0.008074 9.23388e-20 3.44052e-05)
(0.00818539 -0.07484 1.48832e-19 -0.00814995 2.85897e-19 -3.54375e-05)
(-0.162553 -0.00324814 -5.15755e-19 0.162638 2.94698e-18 -8.44885e-05)
(0.162254 0.0037353 -4.36497e-19 -0.162338 1.42067e-18 8.35515e-05)
(0.00525902 0.0418776 6.18734e-19 -0.00523433 4.60447e-20 -2.46867e-05)
(0.0333413 0.0686501 3.73453e-19 -0.0334609 -4.75211e-19 0.000119588)
(-0.0051341 -0.041896 1.1993e-19 0.00511029 -8.80945e-20 2.38065e-05)
(-0.0331608 -0.0686793 3.50456e-20 0.0332814 -7.1629e-19 -0.000120606)
(0.00551179 0.0401948 1.90519e-19 -0.00548425 -3.39869e-20 -2.75335e-05)
(-0.0272645 -0.0657427 -2.88795e-19 0.0273874 -5.96094e-19 -0.000122884)
(-0.00534866 -0.0402436 2.06269e-19 0.00532191 4.67877e-20 2.67564e-05)
(0.0275013 0.0656146 -1.26027e-19 -0.0276233 -4.63119e-19 0.00012193)
(0.0081987 -0.00682735 3.89263e-19 -0.00814294 -1.82107e-19 -5.57573e-05)
(0.0734385 -0.00311414 -4.21233e-19 -0.0735528 -1.14866e-19 0.000114313)
(-0.0732656 0.00330838 1.16144e-18 0.0733807 -4.14966e-19 -0.000115066)
(-0.00820535 0.00679246 2.28128e-19 0.00815072 2.11342e-20 5.4621e-05)
(-0.00844306 -0.0279289 9.71791e-20 0.00845724 -1.42359e-19 -1.41806e-05)
(0.0889975 0.0491083 1.38494e-19 -0.0891101 -8.20686e-20 0.000112571)
(-0.08911 -0.0490737 -5.62353e-19 0.0892234 3.17527e-19 -0.00011347)
(0.0085345 0.0279472 4.49931e-19 -0.00854749 -2.14187e-19 1.2983e-05)
(-0.00733084 0.111817 8.61366e-19 0.00728981 1.06511e-19 4.10373e-05)
(0.177678 -0.0166208 3.99219e-21 -0.177753 3.09892e-18 7.48215e-05)
(-0.177612 0.0175256 1.58256e-18 0.177687 1.74647e-18 -7.57739e-05)
(0.00739885 -0.111827 6.0001e-19 -0.0073568 4.74642e-19 -4.20473e-05)
(0.00628607 -0.00780253 -5.37223e-19 -0.00623482 -5.40163e-20 -5.12519e-05)
(0.0777758 0.00174042 -2.30862e-19 -0.0778901 -1.49264e-19 0.000114329)
(-0.0775681 -0.00144115 4.70147e-19 0.0776832 -5.13633e-19 -0.0001151)
(-0.00624972 0.00776214 -2.58917e-19 0.00619967 -1.56042e-20 5.00434e-05)
(-0.00689965 -0.0287573 1.47114e-20 0.00691876 -1.22812e-19 -1.91126e-05)
(0.100112 0.0432481 -9.22758e-20 -0.100221 -4.18879e-20 0.000108753)
(-0.100294 -0.0434255 -5.57526e-19 0.100404 2.81469e-19 -0.000109605)
(0.00697455 0.0286915 4.94835e-19 -0.00699254 -2.37876e-19 1.79879e-05)
(0.0512371 0.042092 9.62718e-19 -0.0513698 -9.26169e-20 0.00013263)
(-0.011366 -0.0100836 -4.03958e-19 0.0113762 -3.30594e-19 -1.02656e-05)
(-0.0512919 -0.0421262 6.80088e-19 0.0514254 9.52684e-20 -0.000133519)
(0.0113948 0.0101089 -2.12719e-19 -0.011404 1.96092e-19 9.19754e-06)
(0.0108587 0.0205391 2.36538e-19 -0.0108662 -1.93265e-19 7.51728e-06)
(0.065724 0.0493556 -8.37006e-19 -0.0658467 6.4828e-20 0.000122663)
(-0.0107942 -0.0205262 -5.15178e-19 0.0108028 1.98499e-19 -8.65814e-06)
(-0.0657736 -0.0494572 -1.28696e-18 0.0658972 1.50309e-19 -0.000123554)
(0.0114667 0.0184562 8.36534e-19 -0.0114701 -7.12761e-20 3.42979e-06)
(-0.0553505 -0.0498395 -5.59024e-19 0.0554787 1.99646e-19 -0.000128228)
(-0.0114356 -0.0184755 -4.27529e-19 0.0114401 -7.79301e-20 -4.42017e-06)
(0.055281 0.0497667 -6.58931e-19 -0.0554083 1.44885e-19 0.000127328)
(0.00251246 -0.0694566 -5.10171e-19 -0.00241942 -1.61813e-19 -9.30434e-05)
(-0.0441832 0.0694086 6.93384e-19 0.0442415 -4.13967e-19 -5.82779e-05)
(0.0444753 -0.0696101 -5.76389e-19 -0.0445327 6.21386e-19 5.74194e-05)
(-0.00249054 0.0694286 6.81496e-19 0.00239853 -4.60045e-19 9.20143e-05)
(0.172257 -0.0509672 -1.23446e-18 -0.172323 1.92695e-18 6.61001e-05)
(0.00699562 0.142415 1.1019e-18 -0.00704699 1.06692e-19 5.1375e-05)
(-0.172399 0.0508362 2.84584e-18 0.172467 3.28097e-18 -6.72956e-05)
(-0.0069302 -0.14243 3.95787e-19 0.00698253 5.02341e-19 -5.23327e-05)
(0.016489 -0.0308935 4.4984e-19 -0.0163886 -2.87703e-19 -0.000100461)
(0.0372043 -0.0408742 -7.94925e-19 -0.0372864 -2.01548e-19 8.21006e-05)
(-0.0371862 0.0408476 1.70407e-19 0.0372691 2.79606e-19 -8.29118e-05)
(-0.01656 0.0308014 -2.75011e-19 0.0164608 -1.07525e-19 9.92198e-05)
(0.00633567 0.010872 2.65619e-19 -0.00636049 -2.04882e-19 2.48126e-05)
(-0.0732423 -0.031116 -1.68138e-19 0.0733652 -1.42605e-19 -0.000122867)
(0.0730977 0.0311513 -2.03834e-19 -0.0732197 -1.96693e-19 0.000122016)
(-0.00632551 -0.0109051 -3.59602e-19 0.00635142 -4.76888e-20 -2.5902e-05)
(0.0166033 -0.0428688 -7.92445e-19 -0.0166675 1.89942e-19 6.41819e-05)
(-0.0104919 0.0430168 -2.92902e-19 0.0103765 8.90054e-20 0.000115368)
(-0.0165972 0.0429313 1.38389e-19 0.0166623 -4.6991e-19 -6.50958e-05)
(0.0105715 -0.0429546 -8.68168e-20 -0.010455 2.26307e-19 -0.000116541)
(0.00582653 -0.0607001 -3.48921e-20 -0.00580044 1.56538e-19 -2.60893e-05)
(-0.00573662 0.0606453 1.42723e-18 0.00571154 1.61624e-19 2.5077e-05)
(0.147601 0.0302773 1.27894e-19 -0.147691 2.66909e-19 8.97087e-05)
(-0.147549 -0.0298768 -1.4894e-20 0.14764 5.29044e-19 -9.07911e-05)
(0.0461484 0.0453593 2.56196e-19 -0.0462823 -5.067e-19 0.000133869)
(-0.0125926 -0.0120628 -7.46924e-19 0.0125968 -3.64548e-19 -4.22471e-06)
(0.0126028 0.0120866 3.52955e-20 -0.0126059 2.50554e-20 3.1682e-06)
(-0.0461781 -0.0454177 4.47041e-20 0.0463128 -3.38238e-19 -0.000134777)
(0.002683 0.00919163 1.69089e-19 -0.00271586 -1.12265e-19 3.28609e-05)
(0.0777377 0.0221835 -2.07927e-19 -0.077857 -1.63028e-19 0.000119326)
(-0.00268692 -0.00929664 -2.96996e-19 0.00272082 -2.50854e-20 -3.3908e-05)
(-0.0778903 -0.0219746 -3.44299e-20 0.0780104 -3.22957e-20 -0.000120113)
(0.0318965 0.0966949 -1.24026e-20 -0.0319907 2.27192e-19 9.41499e-05)
(-0.0318926 -0.0965769 -2.39987e-19 0.0319877 4.06624e-20 -9.51417e-05)
(-0.0294386 0.07792 6.97293e-19 0.0294764 5.29003e-20 -3.77434e-05)
(0.0297555 -0.077924 -4.02673e-19 -0.0297923 3.21897e-19 3.67338e-05)
(0.017551 -0.0164784 4.79735e-19 -0.0174622 -3.44634e-19 -8.87371e-05)
(0.0474022 -0.0298752 8.10757e-20 -0.0474998 4.78229e-19 9.76537e-05)
(-0.0175939 0.0164251 -1.69369e-19 0.0175064 2.81323e-19 8.75478e-05)
(-0.0473424 0.0298988 6.82323e-19 0.0474408 1.02463e-19 -9.84316e-05)
(0.0407791 0.168853 7.91961e-19 -0.0408371 -8.88689e-20 5.80552e-05)
(0.171644 -0.0688761 -3.15869e-18 -0.171703 9.14828e-19 5.93175e-05)
(-0.0407472 -0.168857 2.66072e-19 0.0408062 2.31152e-19 -5.90346e-05)
(-0.171349 0.0690659 2.25669e-18 0.171409 2.69297e-18 -6.03178e-05)
(0.0186726 0.0950292 4.67028e-19 -0.0187609 -7.5737e-20 8.8304e-05)
(-0.018705 -0.0949244 4.25902e-19 0.0187943 -2.62267e-19 -8.93112e-05)
(-0.0446666 0.083175 -4.54444e-20 0.0447121 -4.62633e-19 -4.54966e-05)
(0.0448141 -0.0831334 -8.25476e-20 -0.0448585 2.63465e-19 4.44437e-05)
(-0.000129938 -0.0486519 -6.65279e-20 0.000103542 5.78426e-20 2.63954e-05)
(0.0324884 0.0733831 1.65644e-19 -0.0326032 1.56177e-19 0.000114733)
(0.000168618 0.0485822 6.63264e-19 -0.000141203 -9.0698e-20 -2.74153e-05)
(-0.0326451 -0.0734173 7.4108e-19 0.0327608 -5.84055e-19 -0.000115721)
(0.0164147 -0.0322666 8.13725e-19 -0.0163066 2.22197e-21 -0.000108104)
(-0.0163668 0.032385 -1.20618e-18 0.0162598 9.11076e-20 0.000107061)
(0.028108 -0.0403222 -1.05909e-18 -0.0281853 1.19318e-19 7.7341e-05)
(-0.0281496 0.0403983 4.08414e-19 0.0282278 -1.11029e-19 -7.8202e-05)
(-0.0120802 0.0411342 -2.16113e-19 0.0119689 -1.15698e-19 0.000111226)
(-0.0221703 0.0439879 -1.26124e-19 0.0222394 -2.86665e-19 -6.916e-05)
(0.0220411 -0.0439202 -4.46106e-19 -0.0221093 5.77019e-19 6.81969e-05)
(0.0121313 -0.0409893 5.43153e-19 -0.012019 2.29555e-19 -0.000112318)
(0.0167295 -0.0131103 4.32661e-19 -0.0166462 -3.657e-19 -8.33014e-05)
(0.0521946 -0.0259376 1.00911e-20 -0.0522967 -4.23515e-21 0.000102106)
(-0.0167683 0.0130607 -1.49625e-19 0.0166862 2.35773e-19 8.21246e-05)
(-0.0521518 0.025921 8.7534e-19 0.0522547 4.36959e-20 -0.000102905)
(-0.00350014 0.00263469 1.91313e-19 0.0034537 8.24645e-20 4.64377e-05)
(0.0680958 0.00872953 -8.80172e-21 -0.0682175 2.41832e-20 0.000121655)
(0.00348142 -0.00269816 -1.11404e-19 -0.00343387 -2.88812e-19 -4.75541e-05)
(-0.0680094 -0.00858636 2.36199e-19 0.0681318 -3.32058e-19 -0.000122449)
(0.0130647 -0.0396138 6.20554e-19 -0.0129482 3.02014e-19 -0.00011642)
(-0.0130077 0.0396427 -3.73079e-19 0.0128924 1.79224e-19 0.000115307)
(0.0174297 -0.0416908 -3.55815e-19 -0.0174969 -8.41829e-20 6.72335e-05)
(-0.017419 0.0417507 3.41179e-19 0.0174872 -2.62525e-19 -6.81602e-05)
(0.0155706 -0.0338045 4.23911e-19 -0.0154654 -8.69297e-20 -0.000105224)
(0.0310095 -0.0418035 -3.33911e-19 -0.031087 1.80904e-19 7.75471e-05)
(-0.0310492 0.0417547 5.2968e-20 0.0311277 7.16377e-20 -7.84947e-05)
(-0.0156634 0.0336645 -1.21415e-19 0.0155594 -2.16511e-19 0.000103976)
(0.00255055 0.0424819 -7.60423e-21 -0.00251622 -2.93437e-19 -3.43258e-05)
(-0.0182985 -0.0637498 -6.38417e-19 0.0184212 -2.90927e-20 -0.000122741)
(-0.00247834 -0.0425681 1.62793e-19 0.0024449 2.78776e-20 3.34473e-05)
(0.018421 0.0636121 -2.56772e-19 -0.0185428 -1.24947e-19 0.000121814)
(-0.012051 -0.0581858 -3.59666e-23 0.0121787 2.54048e-19 -0.000127721)
(0.0122424 0.0582658 -3.08355e-19 -0.012369 1.34438e-19 0.000126645)
(0.00411312 0.0372527 4.77145e-19 -0.00407614 -3.3418e-19 -3.698e-05)
(-0.00414918 -0.0372425 -5.40001e-19 0.00411302 1.13974e-19 3.61627e-05)
(0.0173876 -0.02518 3.76654e-19 -0.0172935 -2.82106e-19 -9.40539e-05)
(0.0440812 -0.0370161 -1.08353e-18 -0.0441701 -9.01458e-20 8.89483e-05)
(-0.044129 0.0370081 4.10908e-19 0.0442188 4.9725e-19 -8.97945e-05)
(-0.017427 0.0251523 -3.27414e-19 0.017334 5.12726e-20 9.29887e-05)
(-0.00641088 -0.0558101 -3.46194e-21 0.00653707 1.21456e-19 -0.000126194)
(0.00045183 0.0392315 3.53895e-19 -0.000409007 -2.34219e-19 -4.28226e-05)
(0.00661716 0.0559249 -2.85111e-19 -0.00674229 2.58544e-19 0.000125132)
(-0.000462855 -0.0393142 -5.92242e-19 0.000420817 1.19997e-20 4.20377e-05)
(-0.0055346 -0.039531 -5.41368e-20 0.00555144 -1.67604e-19 -1.68443e-05)
(0.11286 0.0495595 -1.59278e-19 -0.112962 -8.67537e-20 0.000102697)
(-0.113049 -0.049181 -7.23286e-19 0.113152 -3.98215e-20 -0.00010359)
(0.005586 0.0395009 6.73381e-19 -0.00560188 -1.99e-19 1.58826e-05)
(-0.0156245 0.0367662 -3.03615e-19 0.0155309 -4.09533e-20 9.36687e-05)
(0.0450683 -0.0464198 -6.03446e-19 -0.0451476 -2.87994e-19 7.93058e-05)
(0.0155897 -0.036784 4.92714e-19 -0.015495 1.04518e-19 -9.47141e-05)
(-0.0449543 0.0463937 1.64443e-19 0.0450344 -7.14152e-19 -8.01323e-05)
(0.0104515 0.00989242 5.18776e-19 -0.010464 3.24935e-19 1.2478e-05)
(0.0554277 0.0405663 2.36943e-19 -0.0555584 1.18563e-19 0.000130783)
(-0.0555038 -0.0405832 -2.62865e-20 0.0556354 2.74337e-19 -0.000131661)
(-0.0104426 -0.00989102 -3.41704e-19 0.010456 -2.58757e-19 -1.34556e-05)
(-0.000669133 -0.0366974 -6.04796e-19 0.000622994 -8.40698e-20 4.61392e-05)
(0.000757015 0.036569 1.96703e-19 -0.000710031 -2.594e-19 -4.69838e-05)
(0.000868754 0.0517714 -2.71396e-19 -0.000996388 4.28088e-19 0.000127634)
(-0.000752641 -0.0517367 -3.93378e-20 0.000881366 3.31354e-19 -0.000128725)
(-0.000525972 0.0036896 8.75565e-20 0.000485948 6.04427e-20 4.00248e-05)
(-0.0689383 -0.0153302 1.38075e-19 0.069062 -2.50445e-19 -0.000123722)
(0.000471385 -0.00373829 -1.08558e-19 -0.000430329 -7.70176e-20 -4.10559e-05)
(0.0689721 0.0154486 2.23894e-19 -0.069095 -1.37318e-19 0.000122903)
(-0.119323 0.075621 -1.82998e-19 0.11939 1.21678e-19 -6.69821e-05)
(0.00475079 -0.0853327 2.51424e-19 -0.00468506 3.98478e-20 -6.5723e-05)
(0.120301 -0.0753698 -5.86737e-19 -0.120367 5.07962e-19 6.6229e-05)
(-0.00492724 0.0851084 1.37488e-18 0.00486261 -5.17191e-19 6.46331e-05)
(0.0113713 -0.066426 3.31826e-21 -0.0113118 4.65655e-20 -5.95897e-05)
(-0.1238 0.0532745 -2.14437e-20 0.123877 -8.72124e-19 -7.6206e-05)
(0.124374 -0.0533177 -9.61151e-19 -0.124449 5.63073e-19 7.5193e-05)
(-0.0114786 0.0665073 1.44208e-18 0.01142 -4.76817e-19 5.86884e-05)
(0.0537867 -0.0425254 -1.63402e-19 -0.0538722 -1.55659e-19 8.55259e-05)
(0.01694 -0.0311102 4.12409e-19 -0.0168515 7.40605e-20 -8.84686e-05)
(-0.0537082 0.0425162 -4.61301e-19 0.0537946 -7.06857e-20 -8.63579e-05)
(-0.0169647 0.0311159 -6.61649e-19 0.0168773 -1.99126e-20 8.73337e-05)
(-0.0167006 -0.0602547 -2.22778e-19 0.0168276 2.28595e-19 -0.000127)
(0.0168215 0.0602469 -2.43527e-19 -0.0169474 8.79706e-20 0.000125936)
(0.00560055 0.0376569 3.44743e-19 -0.00556696 -2.35267e-19 -3.35919e-05)
(-0.00566813 -0.0375715 -4.01666e-19 0.0056355 3.41395e-19 3.2631e-05)
(-0.00256976 0.0378256 2.33148e-19 0.00262148 -3.09255e-19 -5.17271e-05)
(0.00261048 -0.0379122 -5.87817e-19 -0.00266128 -5.69012e-20 5.07955e-05)
(0.00365844 -0.049427 7.73033e-20 -0.00353159 3.4572e-19 -0.000126845)
(-0.00361793 0.049403 -2.46316e-19 0.00349222 4.14477e-19 0.000125716)
(0.055461 -0.0641869 -7.86405e-20 -0.0555273 2.19165e-19 6.63023e-05)
(-0.0553891 0.0639842 3.1171e-19 0.0554564 -3.33036e-19 -6.72932e-05)
(-0.00960745 0.0583534 4.83114e-19 0.00952 -5.85021e-19 8.74492e-05)
(0.0097445 -0.0581375 -2.13145e-19 -0.00965611 1.60262e-20 -8.8393e-05)
(-0.00432391 -0.108397 5.14422e-19 0.00438976 2.96171e-19 -6.58526e-05)
(-0.128004 0.0847632 -1.58341e-19 0.128065 1.30236e-18 -6.11524e-05)
(0.128655 -0.0841388 -6.10074e-19 -0.128715 3.28623e-19 6.05011e-05)
(0.00425158 0.108296 1.63715e-18 -0.00431643 -3.03482e-19 6.48565e-05)
(-0.0110199 -0.0290609 4.05467e-19 0.0110211 -3.28239e-20 -1.11388e-06)
(0.0652393 0.0581772 7.83684e-19 -0.0653588 1.24445e-19 0.000119527)
(0.0111438 0.0289791 5.6858e-19 -0.0111441 -9.51786e-20 2.22761e-07)
(-0.0652176 -0.0582525 -3.69318e-19 0.0653381 1.95956e-19 -0.000120442)
(-0.0100156 -0.0344514 1.51876e-19 0.0100083 -3.78477e-19 7.23459e-06)
(-0.0552525 -0.0647346 1.43642e-19 0.055373 -1.4105e-19 -0.000120537)
(0.055293 0.0646872 6.98182e-19 -0.0554126 -4.40778e-19 0.000119623)
(0.0101323 0.0344692 6.80171e-19 -0.0101241 -9.19142e-20 -8.23504e-06)
(-0.000558426 -0.000391084 -2.23117e-19 0.000598374 -8.47445e-19 -3.99476e-05)
(-0.0615289 -0.0164846 1.74539e-21 0.0616571 -1.1734e-19 -0.00012819)
(0.0615707 0.0165762 -5.70398e-19 -0.0616981 -1.119e-19 0.000127379)
(0.000529602 0.000300056 -4.02762e-19 -0.000568481 1.5276e-19 3.8879e-05)
(0.00972169 0.00552659 -2.82966e-19 -0.00973771 1.27592e-19 1.60155e-05)
(-0.053485 -0.0358716 2.35436e-19 0.0536193 -6.61057e-20 -0.000134372)
(0.0534523 0.0358766 3.90032e-19 -0.0535858 -3.14591e-19 0.000133502)
(-0.00969245 -0.00552884 -7.68764e-19 0.00970956 -1.77496e-19 -1.71125e-05)
(-0.0113185 0.043059 1.28047e-19 0.0112111 -3.05446e-19 0.000107481)
(-0.0255009 0.046503 2.61167e-19 0.0255698 -2.40466e-19 -6.89542e-05)
(0.0112722 -0.0430622 -3.42863e-19 -0.0111636 1.83944e-19 -0.000108556)
(0.0255975 -0.0465105 -2.63641e-19 -0.0256656 4.33015e-19 6.81571e-05)
(0.0122451 0.0252631 -6.62174e-19 -0.0122212 -1.65934e-19 -2.38999e-05)
(-0.0223108 -0.054669 -9.50133e-19 0.0224462 1.00947e-19 -0.000135392)
(0.0224621 0.0546343 -9.46125e-19 -0.0225965 -5.98974e-20 0.000134386)
(-0.012313 -0.0252558 -1.38942e-18 0.01229 -6.48846e-20 2.29504e-05)
(-0.0584771 -0.0423672 -3.66862e-19 0.0586066 8.93315e-20 -0.000129443)
(0.058389 0.042329 -1.43119e-19 -0.0585176 -1.76299e-19 0.000128561)
(-0.0101307 -0.0123256 -3.50941e-19 0.0101434 -1.82985e-19 -1.2753e-05)
(0.0101629 0.0123459 6.54757e-19 -0.0101746 1.34191e-19 1.16582e-05)
(0.00975502 -0.0584304 -1.1365e-19 -0.00970537 1.66988e-19 -4.96509e-05)
(-0.13623 0.0277127 -8.58769e-19 0.136313 1.24728e-18 -8.32014e-05)
(0.136255 -0.0270742 -1.07014e-18 -0.136337 2.54556e-19 8.24404e-05)
(-0.00979274 0.0583321 1.32434e-18 0.00974408 -3.28012e-19 4.86637e-05)
(0.00957243 0.00605366 2.59131e-19 -0.00958893 1.81161e-19 1.65012e-05)
(-0.0548099 -0.0360099 4.82441e-19 0.0549433 2.60659e-19 -0.000133458)
(0.0547616 0.0360155 7.83895e-19 -0.0548942 -1.44836e-19 0.000132589)
(-0.00958907 -0.00611661 -3.70524e-19 0.00960646 -2.43646e-19 -1.73944e-05)
(0.000202353 0.0133463 2.04677e-19 -0.000238612 -1.38141e-19 3.6259e-05)
(-0.000202533 -0.0132915 -3.01694e-19 0.000239913 5.35815e-20 -3.73802e-05)
(0.0879617 0.0175233 -1.98252e-19 -0.0880748 -2.08181e-19 0.000113078)
(-0.0880361 -0.0172015 -1.67547e-19 0.0881501 5.25429e-20 -0.000113922)
(0.010187 -0.041958 -7.25597e-19 -0.0102447 -1.30093e-19 5.76709e-05)
(0.00705907 -0.0472177 1.17924e-19 -0.00693808 1.00659e-19 -0.000120998)
(-0.00694298 0.0472106 -2.75599e-19 0.00682309 2.60283e-19 0.000119892)
(-0.0101111 0.0419248 1.79836e-19 0.0101697 -3.95179e-19 -5.85739e-05)
(-0.00452474 0.00137106 -1.50058e-19 0.00447541 9.93506e-20 4.93362e-05)
(0.066006 0.00600925 -3.52182e-19 -0.0661279 -1.57075e-19 0.00012185)
(0.00453305 -0.00143732 7.38152e-20 -0.00448252 -4.60734e-19 -5.05298e-05)
(-0.0658982 -0.00588178 2.39377e-19 0.0660208 -2.91565e-19 -0.000122634)
(0.0413338 -0.0538065 -1.97917e-19 -0.0414033 5.42677e-19 6.9565e-05)
(-0.0119065 0.0480099 -2.75016e-19 0.0118103 -2.49591e-19 9.62454e-05)
(0.011919 -0.0478717 5.43728e-20 -0.0118217 1.13238e-19 -9.72762e-05)
(-0.0411092 0.0537658 4.70537e-19 0.0411797 -3.49467e-19 -7.04159e-05)
(-0.00073205 -0.0412565 3.93223e-20 0.000757617 -9.63347e-21 -2.55663e-05)
(0.000804691 0.0411575 5.96697e-19 -0.000829227 -3.64833e-20 2.45361e-05)
(0.125843 0.0329956 -5.96273e-19 -0.125941 5.69781e-19 9.78778e-05)
(-0.126365 -0.0327792 -1.54629e-18 0.126464 8.05705e-19 -9.86463e-05)
(0.0618504 -0.120118 -1.34387e-18 -0.0618673 8.63814e-19 1.68836e-05)
(-0.116043 -0.119262 6.89263e-19 0.116127 -2.74274e-19 -8.44164e-05)
(-0.0614448 0.120175 1.7297e-18 0.0614626 -2.7226e-19 -1.7802e-05)
(0.115931 0.119187 1.07434e-19 -0.116015 -7.90916e-19 8.34468e-05)
(-0.0463792 -0.0540601 -9.89576e-19 0.0465089 -2.94524e-19 -0.000129714)
(0.0123765 0.0218895 3.58009e-19 -0.0123711 4.61619e-20 -5.39108e-06)
(0.0463533 0.0539771 -6.74284e-20 -0.0464821 5.55244e-19 0.000128788)
(-0.0123703 -0.0218418 -5.4222e-19 0.0123659 5.64189e-20 4.39872e-06)
(0.0397917 -0.113516 -9.45867e-19 -0.0397892 8.56283e-19 -2.46971e-06)
(0.151838 0.0874652 -8.54347e-19 -0.151923 -3.40835e-19 8.53928e-05)
(-0.0395429 0.113477 6.90296e-19 0.0395413 -2.47126e-19 1.51417e-06)
(-0.151978 -0.0874644 4.44145e-19 0.152064 4.33285e-20 -8.63687e-05)
(0.0161646 -0.0121943 2.22642e-19 -0.0160851 -3.58934e-19 -7.95169e-05)
(-0.055755 0.0238171 5.21823e-19 0.0558597 -2.33833e-20 -0.000104749)
(-0.0161938 0.0121576 -3.25716e-19 0.0161155 1.62392e-19 7.83581e-05)
(0.055853 -0.0237735 -7.54926e-20 -0.055957 -9.38233e-20 0.000104014)
(-0.0803286 -0.0576284 -3.61022e-19 0.0804437 3.53862e-19 -0.000115155)
(-0.009627 -0.0321099 1.74961e-19 0.00963406 -4.2181e-19 -7.05553e-06)
(0.0803562 0.057536 3.10049e-19 -0.0804704 2.43858e-19 0.000114238)
(0.00975076 0.0319726 4.63854e-19 -0.0097568 -2.00471e-19 6.04283e-06)
(-0.0203104 0.0488046 2.45165e-19 0.0203712 -5.59992e-19 -6.08145e-05)
(0.00638926 -0.0504883 -6.57685e-20 -0.00627801 -2.23991e-19 -0.000111252)
(-0.00635287 0.0505816 6.12779e-19 0.00624274 2.16774e-20 0.000110123)
(0.0203417 -0.0487308 -3.51005e-19 -0.0204016 1.31843e-19 5.98544e-05)
(0.00502011 0.0501854 7.11821e-19 -0.00502562 -1.62376e-19 5.51188e-06)
(-0.00495604 -0.0501366 -5.15048e-19 0.00496258 -2.47513e-19 -6.54198e-06)
(-0.103958 -0.0662393 2.17771e-19 0.104062 -6.22175e-20 -0.000104044)
(0.104148 0.0661785 2.38993e-19 -0.104251 3.14827e-20 0.000103074)
(0.0634753 -0.00373878 -1.93882e-19 -0.0635936 -3.24329e-19 0.000118374)
(-0.008887 0.00186844 -1.16128e-19 0.00882773 3.63947e-20 5.92694e-05)
(0.00887132 -0.00193042 4.86919e-20 -0.00881089 -5.64105e-19 -6.04303e-05)
(-0.0633316 0.00381854 9.24836e-19 0.0634508 -3.35182e-19 -0.000119142)
(0.00389832 0.0531172 -2.7547e-19 -0.00402614 3.73251e-19 0.000127828)
(-0.00208898 -0.0366375 -6.2585e-19 0.00204553 -1.16778e-19 4.3455e-05)
(0.00212511 0.0365067 1.85421e-19 -0.00208073 -2.27306e-19 -4.43795e-05)
(-0.00372717 -0.0530661 -8.92007e-20 0.00385608 2.39478e-19 -0.000128909)
(-0.008905 -0.0174218 -4.63804e-19 0.00892228 1.01581e-19 -1.72775e-05)
(0.0744448 0.0415148 -3.95017e-19 -0.0745653 -1.15567e-19 0.000120529)
(0.00889469 0.0172854 1.46825e-19 -0.00891102 -2.33138e-19 1.63253e-05)
(-0.0745892 -0.041539 -6.81516e-19 0.0747106 -3.05234e-19 -0.000121395)
(0.00781004 -0.00476544 4.63131e-19 -0.00775385 -3.17692e-19 -5.61925e-05)
(0.0697619 -0.00183005 -3.28304e-19 -0.0698784 -1.81193e-19 0.000116526)
(-0.0695896 0.00195883 5.67507e-19 0.0697069 -4.34806e-19 -0.000117299)
(-0.00781454 0.00474227 -5.70563e-20 0.00775952 5.72631e-20 5.50229e-05)
(0.0303043 -0.0547321 -6.73604e-19 -0.0303662 4.56672e-19 6.19004e-05)
(-0.00714942 0.0537777 4.26487e-19 0.00704676 -2.72743e-19 0.000102657)
(0.0072606 -0.0536222 6.8587e-22 -0.00715706 2.91534e-20 -0.000103541)
(-0.0297687 0.0546387 4.25504e-19 0.0298313 -2.44641e-19 -6.26402e-05)
(0.0106448 0.0277747 3.31664e-20 -0.0106157 -1.49517e-19 -2.91658e-05)
(0.0170284 0.054935 -5.68617e-19 -0.0171621 5.90268e-19 0.000133664)
(-0.0168673 -0.0549284 -5.34535e-19 0.017002 7.29988e-19 -0.000134694)
(-0.0107322 -0.0277325 -7.42233e-19 0.010704 -9.89364e-20 2.81662e-05)
(-0.0614087 0.00906338 7.25542e-19 0.0615252 2.03807e-19 -0.000116427)
(0.0109864 -0.00324084 1.15389e-19 -0.0109207 -5.5697e-19 -6.56698e-05)
(0.061563 -0.00900533 -1.15494e-19 -0.0616786 -2.94934e-19 0.000115666)
(-0.0110056 0.00317093 -1.39959e-19 0.0109411 1.14523e-19 6.45089e-05)
(0.0123136 0.0254351 4.12956e-20 -0.0122909 -9.24592e-20 -2.26675e-05)
(-0.0241474 -0.0551325 -1.81736e-19 0.0242822 -1.13338e-20 -0.000134729)
(0.0242988 0.0550818 -1.90121e-19 -0.0244325 -1.98589e-19 0.00013373)
(-0.0123914 -0.0254169 -6.76665e-19 0.0123697 4.21694e-20 2.16657e-05)
(0.00309984 -0.0361108 -6.95183e-19 -0.00306396 4.30525e-20 -3.58782e-05)
(-0.00309959 0.0359689 1.62881e-18 0.00306479 -2.43542e-19 3.48029e-05)
(0.123865 0.0126163 -9.88185e-19 -0.123961 4.18112e-19 9.59193e-05)
(-0.123977 -0.0127234 -9.12155e-19 0.124074 1.24482e-18 -9.68973e-05)
(0.0075794 0.00986989 4.72795e-19 -0.00760024 -8.06506e-20 2.08451e-05)
(0.0663233 0.0344299 -1.43038e-19 -0.0664489 -2.77824e-19 0.000125532)
(-0.0664396 -0.0343933 -2.3416e-19 0.066566 -3.73439e-20 -0.000126405)
(-0.00758132 -0.00990236 -3.03209e-19 0.0076032 -7.5785e-20 -2.18874e-05)
(-0.010563 0.0766742 1.10977e-18 0.0105565 -3.42012e-20 6.54257e-06)
(0.0107296 -0.0766731 -1.11436e-18 -0.0107221 3.30911e-19 -7.52869e-06)
(0.134291 0.0718357 6.97355e-20 -0.134383 -3.57758e-19 9.22054e-05)
(-0.134626 -0.0717586 4.91751e-19 0.134719 -9.0619e-19 -9.30933e-05)
(0.0097986 0.0347965 6.29111e-19 -0.00978492 6.36611e-20 -1.36833e-05)
(-0.00966337 -0.0347716 1.92356e-19 0.00965067 -7.34468e-20 1.26961e-05)
(-0.046116 -0.0648055 2.59e-19 0.0462383 -3.68528e-19 -0.000122362)
(0.0461043 0.0648175 3.63097e-19 -0.0462258 -3.89978e-19 0.000121411)
(-0.0689798 -0.106672 5.78566e-20 0.0690735 -2.25184e-19 -9.36803e-05)
(-0.0255273 0.0838905 1.56621e-18 0.0255513 7.65099e-19 -2.39618e-05)
(0.0256752 -0.08367 -1.35751e-18 -0.0256984 -6.54587e-20 2.31241e-05)
(0.0688768 0.106686 2.06173e-19 -0.0689696 -8.34778e-20 9.27227e-05)
(-0.0121777 0.0733668 1.40157e-18 0.0121925 6.65602e-19 -1.47255e-05)
(0.0122929 -0.0732399 -1.31849e-18 -0.0123066 -2.28905e-20 1.37529e-05)
(-0.0818463 -0.0951818 -1.48549e-19 0.0819445 -2.63165e-19 -9.8157e-05)
(0.081721 0.0951837 3.08139e-19 -0.0818182 3.32115e-19 9.71952e-05)
(-0.0137485 -0.0135406 -8.64791e-19 0.0137454 -2.55217e-19 3.04273e-06)
(0.0385491 0.0476605 5.5066e-20 -0.0386851 6.49208e-22 0.000136027)
(0.0137097 0.0135397 -2.32942e-19 -0.0137057 -2.52429e-19 -3.96709e-06)
(-0.038512 -0.0477304 -1.81883e-19 0.0386489 1.79025e-19 -0.000136962)
(-0.0146038 0.0376884 -1.8914e-19 0.0145041 -1.49143e-19 9.97394e-05)
(0.0145654 -0.0377152 6.6316e-19 -0.0144647 8.94965e-21 -0.000100709)
(0.0366484 -0.0457377 -3.51392e-20 -0.0367245 -1.51533e-19 7.61441e-05)
(-0.0366518 0.0456475 1.40849e-19 0.0367288 -2.53721e-19 -7.70573e-05)
(-0.00521769 0.0693122 6.86469e-19 0.00521817 8.11113e-20 -4.86349e-07)
(0.00535917 -0.0692471 -1.01608e-18 -0.00535869 1.84553e-20 -4.86251e-07)
(-0.110213 -0.0798928 3.12e-19 0.11031 -4.0289e-19 -9.77858e-05)
(0.110126 0.0797534 2.99472e-19 -0.110223 2.40668e-19 9.68932e-05)
(-0.00437993 0.0136931 1.35566e-19 0.00433529 -5.29878e-20 4.46405e-05)
(0.0892229 0.00544548 -2.58534e-19 -0.0893328 -1.8833e-19 0.000109835)
(-0.0891057 -0.00533568 -2.6389e-19 0.0892164 -4.10535e-20 -0.000110725)
(0.00434226 -0.0137203 -3.50406e-19 -0.00429663 6.54334e-20 -4.56229e-05)
(-0.00287482 -0.0713093 -4.49336e-19 0.00297411 -8.10183e-20 -9.92953e-05)
(-0.0316482 0.0655486 5.1629e-19 0.0317006 7.63635e-20 -5.23618e-05)
(0.00321405 0.0715355 9.2489e-19 -0.00331228 -3.02193e-19 9.82297e-05)
(0.0319623 -0.0656975 -1.41849e-18 -0.0320138 -3.77892e-19 5.15133e-05)
(0.00846648 -0.055011 -1.59209e-19 -0.00850135 3.81341e-19 3.48698e-05)
(0.0215864 0.0750762 8.6958e-19 -0.0216968 4.38636e-19 0.000110447)
(-0.0082565 0.0549416 5.60889e-19 0.00829219 -1.66177e-20 -3.56902e-05)
(-0.0219343 -0.0750767 1.19771e-19 0.0220458 -3.13386e-19 -0.000111527)
(-0.00687579 0.011273 -1.8423e-19 0.00682576 -1.34914e-20 5.00311e-05)
(0.00689857 -0.0113474 -5.81911e-19 -0.00684743 6.75787e-20 -5.11348e-05)
(0.0834942 -0.0010535 -2.12774e-19 -0.0836048 -1.17285e-19 0.000110589)
(-0.0833507 0.00118626 -2.53816e-19 0.0834621 -5.24304e-19 -0.000111408)
(0.0113993 0.0289843 -1.52759e-19 -0.0113765 -2.34131e-19 -2.27509e-05)
(-0.0268057 -0.0578938 -8.30957e-19 0.0269373 3.3376e-19 -0.000131594)
(-0.0114148 -0.0289953 -7.26952e-19 0.011393 -1.52835e-19 2.1815e-05)
(0.0269363 0.0578283 5.59675e-19 -0.0270669 5.53207e-20 0.000130602)
(-0.0170188 0.0311534 1.4135e-19 0.016939 -2.18999e-19 7.97835e-05)
(0.0654711 -0.0422264 -8.93697e-19 -0.0655585 -3.31434e-19 8.74144e-05)
(0.0169451 -0.0311339 -4.55254e-19 -0.0168643 3.99036e-20 -8.07846e-05)
(-0.0653403 0.0421957 4.85329e-19 0.0654287 6.43207e-19 -8.83329e-05)
(-0.0179353 0.0221095 -2.23867e-19 0.017841 3.19383e-19 9.42914e-05)
(0.0417294 -0.034586 -6.99844e-19 -0.0418202 3.98032e-19 9.07518e-05)
(-0.0416545 0.0346089 5.62246e-19 0.041746 1.44577e-19 -9.15005e-05)
(0.0179168 -0.0221716 5.68447e-19 -0.0178212 -2.21223e-19 -9.55412e-05)
(0.0359745 0.0896005 7.05088e-19 -0.0360751 2.82638e-19 0.000100574)
(0.0164616 -0.0681371 -1.4964e-19 -0.0164937 -2.76807e-19 3.21231e-05)
(-0.0360383 -0.0894671 1.52455e-19 0.0361398 7.27117e-20 -0.000101567)
(-0.0162245 0.0681737 4.3059e-19 0.0162575 4.68578e-19 -3.30353e-05)
(-0.000421146 -0.0779475 -6.00634e-21 0.000508603 -4.84933e-19 -8.74567e-05)
(-0.0535443 0.0772898 5.44828e-19 0.0536012 -4.59541e-19 -5.68491e-05)
(0.0540717 -0.0773261 -8.03194e-19 -0.0541279 1.16024e-19 5.62154e-05)
(0.000440795 0.0779784 8.36387e-19 -0.000527262 -4.35617e-19 8.64671e-05)
(0.0097582 0.0324397 -3.77703e-19 -0.00973346 7.82486e-20 -2.47409e-05)
(-0.0262794 -0.0602508 -7.14556e-19 0.0264084 -4.19138e-20 -0.000129012)
(-0.00975259 -0.0324098 -9.19067e-19 0.00972879 2.25437e-19 2.37988e-05)
(0.0264286 0.0601637 -6.05992e-20 -0.0265566 -2.24787e-19 0.000128024)
(0.0509185 -0.0340913 -1.25326e-18 -0.0510124 -3.23012e-19 9.39781e-05)
(0.0171975 -0.021526 9.42045e-19 -0.0171097 -3.44538e-19 -8.77889e-05)
(-0.0507533 0.034148 9.44664e-19 0.0508481 1.78707e-20 -9.47647e-05)
(-0.0172268 0.0214878 3.05412e-19 0.0171401 9.89227e-20 8.66755e-05)
(0.00297656 -0.000405709 -3.50418e-19 -0.00292888 -6.57043e-19 -4.76784e-05)
(0.0636875 0.00933418 -1.7508e-19 -0.0638117 -3.05286e-19 0.000124236)
(-0.063604 -0.0092297 6.16974e-20 0.063729 -2.09845e-19 -0.000125029)
(-0.00298608 0.000334724 -5.74875e-20 0.00293956 8.79497e-20 4.65291e-05)
(-0.00817666 0.00212523 -7.66932e-20 0.00811952 3.52303e-20 5.71338e-05)
(0.0651101 -0.00221429 -2.30716e-19 -0.0652288 -4.36773e-19 0.000118679)
(0.00815902 -0.00217563 1.17988e-19 -0.00810074 -5.0173e-19 -5.82851e-05)
(-0.0649564 0.00230489 5.67337e-19 0.0650758 -4.46931e-19 -0.00011945)
(0.0165652 -0.0160696 3.52806e-19 -0.0164837 -3.72988e-19 -8.15145e-05)
(-0.0558013 0.0280102 1.2669e-19 0.0559022 -9.37621e-20 -0.000100894)
(-0.0165823 0.0160057 -2.65577e-19 0.016502 9.41147e-20 8.03426e-05)
(0.0559555 -0.0279251 -1.25364e-18 -0.0560556 -5.17909e-20 0.000100141)
(-0.00201391 0.0596848 7.43617e-19 0.00202622 4.34228e-19 -1.23113e-05)
(0.073399 0.0843643 4.07103e-19 -0.0735029 2.45203e-19 0.000103844)
(0.00207142 -0.0596223 -1.3632e-18 -0.00208276 -3.55881e-19 1.13407e-05)
(-0.07339 -0.0843889 2.43769e-19 0.0734948 -1.78272e-19 -0.000104802)
(-0.11643 -0.151188 3.86996e-19 0.116508 -2.23948e-19 -7.8155e-05)
(0.125839 -0.120497 -1.44831e-18 -0.125871 3.85229e-19 3.16113e-05)
(-0.12542 0.120532 1.61497e-18 0.125452 4.80144e-19 -3.25171e-05)
(0.116362 0.151091 9.10045e-19 -0.11644 -8.4763e-19 7.71778e-05)
(0.0412206 -0.148909 -1.252e-18 -0.0412031 5.94538e-19 -1.7532e-05)
(0.183527 0.0456688 9.52341e-19 -0.183609 2.3922e-19 8.21553e-05)
(-0.0410131 0.148858 2.24444e-18 0.0409965 -1.72425e-19 1.65679e-05)
(-0.183536 -0.0457815 6.36563e-19 0.183619 -2.46839e-19 -8.31497e-05)
(-0.000367457 -0.0555589 3.14029e-20 0.000484894 -2.06738e-19 -0.000117437)
(0.000324063 0.0555947 -3.18579e-19 -0.000440269 4.20452e-19 0.000116206)