/*--------------------------------*- C++ -*----------------------------------*\
| =========                 |                                                 |
| \\      /  F ield         | foam-extend: Open Source CFD                    |
|  \\    /   O peration     | Version:  3.0                                   |
|   \\  /    A nd           | Web:         http://www.extend-project.de       |
|    \\/     M anipulation  |                                                 |
\*---------------------------------------------------------------------------*/
FoamFile
{
    version     2.0;
    format      ascii;
    class       volVectorField;
    location    "5";
    object      u;
}
// * * * * * * * * * * * * * * * * * * * * * * * * * * * * * * * * * * * * * //

dimensions      [0 0 0 0 0 0 0];

internalField   nonuniform List<vector> 
728
(
(1.02401 -0.00579256 2.79373e-19)
(1.02378 -0.0056735 2.49846e-19)
(1.0114 0.010417 -1.75376e-18)
(1.01107 0.0110357 -2.44363e-18)
(1.41476 -0.0756592 -1.61922e-18)
(1.41521 -0.0759091 1.99743e-18)
(0.598087 0.00751916 -6.53419e-17)
(0.600789 0.00395257 1.01807e-17)
(1.09823 0.102487 -1.28337e-17)
(1.01367 -0.0896878 4.65787e-18)
(1.10014 0.101955 5.299e-18)
(1.01239 -0.0888302 -3.32268e-18)
(1.07174 0.0965565 -4.86977e-19)
(0.997624 -0.0820732 1.57649e-18)
(1.07388 0.0964873 9.10551e-18)
(0.99697 -0.0800051 -2.76543e-17)
(1.1074 -0.0113841 -6.43346e-18)
(0.974936 0.00352013 -4.54434e-18)
(0.976195 0.00375074 -2.3115e-17)
(1.10673 -0.0113572 3.03156e-18)
(1.17839 0.0709618 8.11616e-18)
(0.951371 -0.0777912 2.80432e-18)
(0.946226 -0.0807764 -2.51591e-18)
(1.17869 0.0708944 4.41402e-19)
(1.78485 0.0793181 -1.01391e-17)
(0.563903 0.214713 4.57235e-17)
(0.563598 0.220753 -7.28658e-17)
(1.78472 0.0788203 -1.06692e-18)
(1.11851 -0.0188899 -6.31278e-18)
(0.955847 0.000859151 4.69799e-18)
(0.957771 0.00118467 2.50595e-17)
(1.1188 -0.0196078 4.39435e-18)
(1.23335 0.0763006 6.9856e-18)
(0.929725 -0.0273439 -2.63451e-18)
(0.927587 -0.0293032 -3.00996e-18)
(1.23416 0.0759402 1.4994e-18)
(0.995298 -0.0213143 2.54289e-17)
(1.05713 0.0164467 4.65422e-18)
(0.995022 -0.0214414 -2.59167e-17)
(1.05698 0.0163271 1.35049e-17)
(1.12132 0.0421712 3.50567e-18)
(1.02155 -0.0785046 -8.1759e-18)
(1.12155 0.0417928 -9.57827e-18)
(1.02043 -0.0786408 3.76873e-17)
(1.0924 0.0368129 -1.31888e-17)
(0.988372 -0.03827 9.64119e-18)
(1.0928 0.0361399 -1.04659e-18)
(0.989346 -0.0374823 -3.09777e-17)
(1.11429 -0.164985 6.96699e-18)
(0.991672 0.137393 -5.84966e-18)
(0.991602 0.136739 -1.11134e-18)
(1.11364 -0.163804 3.27466e-18)
(0.207859 0.234095 -8.34849e-17)
(1.52915 -0.216259 -1.11512e-18)
(0.212673 0.237061 -7.66486e-17)
(1.52889 -0.216617 1.87902e-18)
(1.05495 -0.0321558 8.22043e-19)
(0.999159 0.0255114 1.96682e-18)
(0.998967 0.0255621 2.30142e-18)
(1.05453 -0.0319247 -1.05386e-19)
(1.11634 0.029824 -3.64526e-18)
(0.990528 -0.0490669 1.46068e-18)
(0.991971 -0.0505335 -4.82705e-19)
(1.11741 0.0299745 -1.06221e-18)
(1.01979 0.0366983 -1.65894e-17)
(1.04582 -0.021159 -1.71156e-18)
(1.0196 0.0379907 5.89378e-18)
(1.04717 -0.0211773 1.20654e-17)
(1.47963 0.122609 1.03473e-18)
(1.4799 0.123051 -9.5568e-18)
(0.844959 -0.0810807 2.9248e-17)
(0.844789 -0.079738 -1.02721e-16)
(1.01839 -0.00874903 2.37581e-19)
(1.0526 0.00994859 -2.75751e-18)
(1.05188 0.0103527 2.33124e-18)
(1.01829 -0.0087939 -5.34601e-19)
(1.13227 0.00710808 -3.64911e-18)
(0.983071 -0.0248262 -2.0573e-18)
(1.13319 0.00683126 -3.41193e-19)
(0.982105 -0.0239009 1.13046e-18)
(1.02926 -0.314943 -2.63076e-17)
(1.02934 -0.313636 6.4977e-18)
(1.12031 0.222709 -3.27359e-17)
(1.12119 0.223776 -1.35968e-17)
(1.02866 -0.00317462 -1.4889e-18)
(1.0165 0.00484271 2.18272e-17)
(1.02879 -0.00338854 -1.04568e-18)
(1.01648 0.00497576 -1.34704e-18)
(1.04927 -0.455205 -1.45408e-17)
(0.401418 0.429089 -3.94639e-17)
(1.04894 -0.454733 1.12928e-17)
(0.404777 0.434329 5.44679e-17)
(1.11859 -0.278565 1.10928e-17)
(1.11869 -0.27867 -2.73858e-17)
(1.06368 0.235005 2.41116e-17)
(1.06961 0.23551 4.07779e-17)
(1.09148 0.125173 -3.46051e-18)
(0.988515 -0.123524 -1.66745e-17)
(1.09287 0.126655 -7.17719e-18)
(0.986561 -0.123123 -2.33065e-17)
(1.02705 -0.0209173 -6.53641e-18)
(1.02736 -0.0206094 -2.12052e-17)
(0.995668 0.0148847 -9.65977e-18)
(0.995133 0.014802 -3.38069e-18)
(1.05185 -0.0438033 1.98626e-19)
(1.00937 0.0186015 1.66583e-17)
(1.01119 0.0168045 -1.63883e-18)
(1.05298 -0.0432571 -9.63623e-18)
(1.02121 -0.00895932 -1.50566e-18)
(0.998842 0.0181374 6.17319e-18)
(1.02141 -0.00913767 -9.11708e-19)
(0.99752 0.0180351 -2.35307e-18)
(1.07746 -0.00423665 -2.2953e-19)
(0.992793 -0.00605331 9.40908e-18)
(1.07738 -0.00394268 -4.24136e-18)
(0.993113 -0.00511165 -1.81988e-18)
(1.02525 -0.0251881 -2.81913e-18)
(1.02516 -0.0255906 -3.48654e-20)
(1.00711 0.0124187 8.79516e-18)
(1.00724 0.0129401 -1.49275e-18)
(1.04969 -0.0247191 1.47134e-18)
(1.0131 0.0207686 2.07323e-17)
(1.01266 0.021049 1.35751e-17)
(1.04887 -0.0241501 3.53915e-18)
(1.07799 0.0945649 1.0287e-17)
(1.03753 -0.0742821 1.70857e-17)
(1.08168 0.0957855 2.08245e-17)
(1.03471 -0.0738219 -1.25428e-17)
(1.02118 -0.0513221 -3.78973e-18)
(1.01917 -0.0520986 -5.7076e-18)
(1.03121 0.0403368 -4.21455e-18)
(1.03228 0.0395042 -7.11177e-19)
(1.06531 -0.0204078 5.61442e-18)
(1.01595 0.00561383 -5.3179e-18)
(1.01604 0.00509291 6.06023e-18)
(1.06491 -0.0202559 -4.32966e-18)
(1.05673 -0.042398 -2.45741e-19)
(1.05576 0.0350091 -1.97024e-18)
(1.05605 -0.0428754 -2.82803e-18)
(1.05517 0.0366516 -2.40196e-18)
(1.30646 0.111221 4.42096e-18)
(0.889192 -0.0849024 4.51277e-18)
(0.885087 -0.0836772 -3.50913e-18)
(1.30652 0.111593 4.44312e-18)
(1.08373 -0.0553552 -1.9177e-18)
(1.011 0.0676167 -1.55181e-17)
(1.08264 -0.0562601 -8.68439e-18)
(1.01171 0.0669028 -1.12245e-17)
(1.07348 0.0277179 -6.80712e-18)
(1.00235 -0.0204557 -2.05768e-17)
(1.00191 -0.0203463 1.67595e-17)
(1.07386 0.0269325 2.8322e-18)
(1.00557 0.00806405 5.60342e-19)
(1.00533 0.00789317 3.47798e-19)
(1.01917 -0.028231 -1.35192e-18)
(1.01863 -0.0276735 2.01695e-18)
(1.07082 0.0088788 1.16199e-18)
(1.00122 -0.00640218 -7.84078e-20)
(1.07054 0.0091857 -2.75986e-19)
(1.00222 -0.00701621 3.70079e-18)
(0.751195 0.345814 2.53102e-17)
(1.29548 -0.238888 -2.0262e-18)
(0.74624 0.351789 3.1834e-18)
(1.29631 -0.238335 2.43584e-18)
(1.37177 -0.174421 -2.69795e-18)
(0.788627 0.108073 3.4191e-17)
(0.777166 0.107136 1.63685e-17)
(1.37084 -0.177607 5.83713e-18)
(0.999081 0.0502303 4.59414e-18)
(1.10081 -0.0472805 -7.71192e-18)
(1.00052 0.0501965 5.51165e-17)
(1.10147 -0.0471379 -1.25102e-17)
(1.0269 -0.0595982 -4.83766e-19)
(1.02491 -0.059411 -7.13972e-18)
(1.0629 0.0548958 5.3665e-19)
(1.06307 0.0551192 6.73406e-19)
(1.01753 0.00166648 2.16589e-19)
(1.017 0.00140272 8.33307e-19)
(1.02494 -0.0149997 1.98613e-18)
(1.02543 -0.0154026 -9.97184e-19)
(0.989896 0.128009 1.86294e-17)
(0.990117 0.129441 -6.99014e-18)
(1.17679 -0.140142 4.26829e-18)
(1.17863 -0.139658 -2.98351e-19)
(1.52425 -0.274348 -7.16533e-18)
(0.686589 0.347115 1.91912e-17)
(0.678587 0.35097 -6.30958e-18)
(1.52359 -0.273314 1.37602e-17)
(1.15601 0.0595683 1.79219e-17)
(0.995142 -0.0496666 4.3672e-17)
(1.1564 0.0597672 -4.91076e-18)
(0.994377 -0.051114 -1.73586e-17)
(1.12479 0.084573 7.02397e-18)
(0.994231 -0.0893211 -6.96713e-18)
(0.993349 -0.0890118 1.25917e-17)
(1.12502 0.0853697 -8.45625e-18)
(1.02498 0.00422297 -5.5687e-18)
(1.01037 -0.00127455 -1.31914e-18)
(1.01036 -0.00135461 -1.99408e-17)
(1.02548 0.00410106 3.64836e-18)
(1.02239 0.00331598 9.02033e-18)
(0.991653 -0.00799779 -5.87386e-18)
(0.991687 -0.0079605 3.83794e-18)
(1.02214 0.00333493 6.25423e-18)
(1.06962 -0.0438138 6.47131e-18)
(1.01935 0.0577424 -2.14087e-18)
(1.06916 -0.0423362 1.92482e-17)
(1.02228 0.0581802 1.63946e-18)
(1.01556 0.0134154 2.24801e-17)
(0.99904 -0.0153725 2.83974e-17)
(0.998797 -0.0153323 -2.64147e-17)
(1.01573 0.0133489 -2.13966e-17)
(1.00144 -0.0372231 2.92149e-18)
(1.00182 -0.037335 -8.53447e-18)
(1.09772 0.0307821 1.46988e-18)
(1.09755 0.0309774 -7.36025e-18)
(1.41281 -0.036154 -2.42966e-18)
(0.765435 0.198982 1.32166e-16)
(0.772427 0.199292 1.25533e-18)
(1.41422 -0.0368406 3.32254e-18)
(1.04222 0.0141572 -3.30892e-18)
(0.987924 -0.0099858 -2.14081e-17)
(0.988064 -0.0101577 2.29394e-17)
(1.04195 0.0141568 9.85908e-18)
(1.16015 0.0217524 -1.62461e-18)
(1.1605 0.0222317 1.7341e-18)
(0.985192 -0.0447414 -1.72445e-18)
(0.985055 -0.0412875 2.69353e-18)
(1.0216 0.00725422 -5.03741e-18)
(1.05074 -0.0383896 6.77201e-19)
(1.05042 -0.036872 -3.07785e-18)
(1.02332 0.00893498 4.43862e-18)
(1.05465 0.00308689 2.76614e-18)
(0.998935 -0.00644349 -1.01519e-17)
(1.05444 0.00321557 -6.63645e-19)
(0.998875 -0.00599926 -3.99702e-19)
(1.00535 0.080224 2.97383e-17)
(1.1021 -0.072099 -1.41178e-17)
(1.103 -0.0718317 -4.29061e-18)
(1.00594 0.082226 5.84763e-18)
(1.31786 0.0495415 9.98151e-18)
(1.31741 0.0497572 1.25767e-17)
(0.843893 -0.0812888 2.42394e-17)
(0.837422 -0.0795277 -3.97964e-17)
(1.46038 0.67273 2.24692e-17)
(0.749098 -0.509871 -2.39952e-17)
(1.46161 0.674445 1.71978e-17)
(0.749557 -0.51185 5.76044e-17)
(1.02677 -0.0469291 1.8673e-18)
(1.10285 0.0378272 -5.56323e-19)
(1.02751 -0.0464778 -1.02417e-17)
(1.10321 0.0379654 -1.77885e-18)
(1.39352 0.440715 8.68312e-18)
(0.638915 -0.533729 -3.82444e-17)
(1.39353 0.441438 3.24356e-17)
(0.639715 -0.531925 4.86938e-18)
(1.05081 -0.0138196 -9.2029e-19)
(1.00282 0.00711816 1.2562e-17)
(1.05093 -0.0140511 -6.51761e-19)
(1.00301 0.00708915 2.27203e-18)
(0.989525 -0.0549211 -6.97338e-18)
(1.19916 0.0917374 1.30445e-17)
(0.989731 -0.0526366 -1.76931e-17)
(1.2003 0.0925253 -1.71691e-19)
(1.02044 0.0570869 1.15439e-17)
(1.06365 -0.0603575 2.73454e-18)
(1.06432 -0.0621549 2.11197e-17)
(1.02442 0.0566862 4.17144e-18)
(1.23238 0.230629 5.82745e-18)
(1.23308 0.229906 -4.08419e-18)
(0.843438 -0.173756 1.22524e-20)
(0.842877 -0.174195 -5.21435e-18)
(0.991188 0.00212229 5.77166e-19)
(1.02157 -0.00409039 1.06658e-18)
(1.02136 -0.00423486 -2.60496e-18)
(0.991168 0.00209369 -2.16429e-17)
(1.02457 -0.0301144 -1.09494e-18)
(1.02363 0.0165126 -3.57991e-19)
(1.02458 0.0162546 1.04783e-18)
(1.02488 -0.0296977 8.88334e-19)
(1.14013 0.037502 -5.16167e-18)
(0.969836 -0.0462933 -2.9434e-18)
(1.13937 0.0374526 2.47248e-18)
(0.966828 -0.047585 1.12182e-17)
(1.07564 -0.012209 -4.2325e-18)
(0.968468 0.00839571 -1.28037e-17)
(0.969523 0.00915921 -5.33157e-18)
(1.07566 -0.0123507 3.61404e-18)
(1.03896 0.0777224 -1.64081e-17)
(1.09198 -0.0717795 3.17317e-18)
(1.09442 -0.0718314 2.541e-19)
(1.03905 0.0797861 8.6648e-18)
(1.01399 0.00161269 -3.24412e-19)
(1.01011 -0.012709 -4.60293e-18)
(1.01031 -0.0129173 5.9527e-18)
(1.01466 0.00184807 -2.92849e-19)
(1.00892 0.00369785 -1.2935e-18)
(1.02099 0.00203635 -2.17181e-18)
(1.00881 0.00360526 -2.43771e-19)
(1.02123 0.00202179 6.2933e-20)
(1.03618 0.02405 -2.90622e-18)
(1.00466 -0.0209499 -8.79773e-18)
(1.00434 -0.0204392 1.09486e-17)
(1.03651 0.02412 7.38779e-18)
(1.34363 0.0261108 -2.61539e-19)
(1.34433 0.0251109 1.01762e-18)
(0.924954 -0.0160909 -4.58432e-17)
(0.917113 -0.0189496 4.72407e-17)
(1.09713 0.0135193 -6.37284e-18)
(0.976422 -0.0209438 -1.10853e-18)
(0.975628 -0.0209015 1.96494e-19)
(1.09759 0.0130998 -6.16275e-19)
(1.37217 0.384397 -2.62571e-18)
(1.37269 0.382607 -1.16277e-17)
(0.753085 -0.167175 -3.57392e-17)
(0.751075 -0.165795 1.53557e-17)
(1.12461 0.0735937 -5.51787e-18)
(1.12488 0.0735831 9.84802e-18)
(0.996174 -0.05826 -1.78319e-17)
(0.99833 -0.0592529 4.42138e-18)
(0.883634 -0.346716 -5.30059e-18)
(1.14176 0.275117 -2.34709e-17)
(1.1421 0.274699 -1.1125e-17)
(0.882306 -0.346967 2.84712e-18)
(1.24436 0.199067 -1.2986e-17)
(1.2455 0.200572 -1.34134e-17)
(0.9739 -0.227671 4.56019e-18)
(0.973929 -0.227483 -4.05952e-18)
(1.01916 0.00506044 6.18279e-19)
(1.00361 -0.0024235 -3.1765e-18)
(1.01889 0.00489134 1.70618e-18)
(1.00356 -0.00256517 2.9277e-18)
(1.07632 -0.0427078 -3.08238e-19)
(1.07572 -0.0427967 -1.28022e-17)
(1.00503 0.0458048 2.51149e-17)
(1.00372 0.0446568 1.36773e-18)
(1.22441 0.267819 2.03241e-17)
(1.22461 0.267282 -6.74699e-18)
(0.780936 -0.25344 4.72564e-18)
(0.781937 -0.253656 -2.46379e-17)
(1.16855 -0.0242902 -3.49497e-19)
(0.918472 -0.0176232 4.74168e-19)
(0.921536 -0.0151374 7.84607e-18)
(1.16901 -0.0241829 2.80554e-19)
(1.12564 -0.153047 2.03988e-17)
(1.03812 0.163002 -1.49389e-17)
(1.12437 -0.152528 9.62235e-18)
(1.03882 0.164752 -5.0239e-17)
(1.05469 0.140806 2.09481e-17)
(1.02882 -0.148541 2.26767e-17)
(1.05871 0.138736 -7.92421e-18)
(1.02741 -0.149921 1.67138e-17)
(1.14659 -0.016572 4.86501e-18)
(1.14705 -0.0160915 -4.39763e-18)
(0.946069 9.98526e-05 9.38235e-19)
(0.947465 0.000512354 2.36195e-17)
(1.04752 0.053684 1.00684e-17)
(0.997317 -0.0507181 1.29572e-17)
(1.04659 0.0545675 -3.76722e-18)
(0.996665 -0.0500112 3.57373e-18)
(1.12373 -0.0672469 6.40528e-18)
(0.986693 0.0678657 -1.19337e-17)
(1.12377 -0.0675221 5.44961e-18)
(0.986435 0.0645679 -1.09644e-17)
(1.02508 -0.011729 -4.25154e-19)
(0.998751 0.0138816 -1.40222e-17)
(0.999234 0.0134969 -3.62737e-18)
(1.02525 -0.011448 -2.26884e-18)
(1.02966 -0.219372 3.98294e-19)
(1.07552 0.183469 -1.22207e-18)
(1.03044 -0.218249 -7.15145e-19)
(1.07652 0.181658 5.90626e-18)
(1.13896 -0.189229 -3.53974e-18)
(1.018 0.230499 1.40336e-17)
(1.01656 0.233062 -1.29929e-18)
(1.1385 -0.189585 8.50646e-18)
(1.05983 0.059362 2.11299e-17)
(1.00957 -0.0664975 2.4426e-18)
(1.06009 0.0601596 -1.83893e-17)
(1.00895 -0.0660831 -1.8552e-17)
(1.00155 0.0215976 2.69441e-18)
(1.06289 -0.031797 -1.01263e-17)
(1.00245 0.0214197 -2.89e-17)
(1.0626 -0.0312686 9.25664e-18)
(1.02419 -0.00480081 -4.3338e-18)
(0.994714 -0.0123856 6.76503e-18)
(0.994817 -0.0123754 1.01279e-20)
(1.02436 -0.00510971 2.50094e-18)
(1.05199 -0.00374006 3.21999e-18)
(0.99679 -0.00624621 9.28466e-19)
(1.05202 -0.00382586 -1.71668e-18)
(0.996769 -0.00606775 3.44264e-18)
(1.06437 -0.0262465 2.75044e-19)
(0.993485 -0.00594771 2.2445e-17)
(1.06349 -0.0264759 -5.42278e-19)
(0.994256 -0.00592954 -4.24519e-17)
(1.16065 0.186583 -4.45406e-18)
(0.96008 -0.193578 7.82837e-18)
(1.16132 0.186655 -2.42932e-17)
(0.960963 -0.193373 3.5486e-17)
(0.805656 -0.528275 1.79201e-17)
(0.598038 0.662128 3.39458e-18)
(0.598499 0.664857 8.39936e-19)
(0.805499 -0.528854 -1.73951e-17)
(1.52857 0.229032 -2.93618e-18)
(0.20599 -0.256038 7.59556e-17)
(1.5286 0.228397 -3.2781e-17)
(0.206591 -0.253938 2.2465e-17)
(1.05475 -0.0748375 -1.45864e-18)
(1.05479 -0.074326 -5.69452e-18)
(1.0431 0.0537064 8.9298e-19)
(1.04327 0.0519967 -2.01123e-17)
(1.1199 -0.000388845 1.71362e-18)
(1.12006 -0.00139602 -1.31007e-18)
(1.00165 -0.0342022 -5.3631e-18)
(1.00152 -0.0333831 1.76042e-18)
(1.17586 0.153438 -8.69641e-19)
(0.935465 -0.191768 -3.77947e-18)
(0.936392 -0.190034 -2.41659e-17)
(1.17636 0.152693 4.69299e-18)
(1.05816 -0.00966456 -1.66526e-18)
(1.00299 0.0210785 -3.25369e-17)
(1.05834 -0.00996627 -5.78128e-19)
(1.00227 0.021293 3.49987e-17)
(1.06866 -0.0112509 4.73323e-18)
(0.979462 0.00932194 4.81544e-18)
(1.0687 -0.011373 -3.597e-18)
(0.979964 0.00910515 -5.34825e-18)
(1.07869 -0.000404255 -2.72822e-18)
(1.07905 -0.000546313 -2.00803e-18)
(1.01125 -0.00667977 2.85419e-19)
(1.01105 -0.00611931 8.45286e-18)
(1.0248 -0.00374726 -6.23002e-19)
(1.01312 0.00542228 -3.43802e-18)
(1.0131 0.00559786 -2.17388e-18)
(1.02515 -0.00384755 -2.5522e-18)
(1.02291 0.00335435 -2.39528e-17)
(1.01076 -0.000929335 -2.6993e-18)
(1.01067 -0.000921108 7.08738e-18)
(1.02333 0.00350034 -5.40583e-18)
(1.02108 -0.0256224 -1.37928e-18)
(1.00696 0.0145705 6.89398e-19)
(1.02027 -0.0258444 1.30228e-18)
(1.00622 0.0148763 1.2367e-18)
(1.02659 0.116445 3.45248e-17)
(1.08051 -0.0995135 3.79455e-18)
(1.02601 0.115476 1.42974e-17)
(1.08511 -0.0999787 -1.76731e-18)
(0.957722 -0.0420777 6.71507e-18)
(1.1793 0.0176719 8.78182e-19)
(1.17857 0.017112 -1.76756e-19)
(0.961196 -0.0419372 -3.46906e-18)
(1.01888 -0.0119951 -3.36264e-19)
(1.01227 0.0113649 -7.3445e-19)
(1.01883 -0.0118081 1.40508e-18)
(1.01211 0.01101 2.17658e-18)
(1.15264 -0.0490363 -1.81706e-18)
(1.15195 -0.0493345 4.02881e-18)
(0.96352 0.0535518 -2.33061e-17)
(0.966903 0.053642 -2.82587e-18)
(1.00415 0.0475063 1.33972e-17)
(1.08399 -0.0352908 -6.80555e-18)
(1.00291 0.0462909 3.04303e-17)
(1.08441 -0.0355576 -2.22127e-18)
(1.23163 -0.0014328 1.49428e-18)
(0.910826 0.00861151 -4.14474e-18)
(1.23206 -0.00162024 -3.26621e-18)
(0.906587 0.00722975 7.80356e-18)
(0.974306 0.0293532 -8.65266e-18)
(0.97823 0.0273001 -1.63631e-18)
(1.11719 -0.0490135 -3.51838e-18)
(1.11763 -0.0495004 -1.27802e-19)
(1.02548 0.0905849 1.22438e-19)
(1.02497 -0.0893752 -2.57192e-17)
(1.02553 0.0879441 1.99444e-17)
(1.02941 -0.0882168 -1.2899e-17)
(1.02068 0.0145651 -4.45663e-20)
(1.00453 -0.00668983 6.13559e-18)
(1.00444 -0.00648613 -7.37861e-18)
(1.02072 0.0145453 4.79543e-18)
(1.06906 0.126425 -1.05654e-17)
(1.05046 -0.109109 -6.9231e-18)
(1.04679 -0.10705 4.2777e-17)
(1.06582 0.129204 -2.58324e-17)
(1.01689 0.00323829 -1.23792e-18)
(0.996945 -0.000311147 9.48955e-18)
(1.01744 0.00326398 -6.18512e-18)
(0.996963 -0.000299791 -1.14115e-17)
(0.989009 0.0139728 -3.46352e-18)
(0.986144 0.0164322 7.35025e-19)
(1.13049 -0.0285553 -3.19631e-18)
(1.13081 -0.0294026 9.84198e-19)
(0.95422 -0.00224067 -3.94081e-18)
(1.22753 0.0392865 3.27995e-18)
(1.22731 0.0384914 -4.88046e-19)
(0.950083 -0.00435613 7.22364e-18)
(1.00407 0.0908544 9.51569e-18)
(1.12483 -0.105129 -3.93602e-18)
(1.12347 -0.106052 -1.03394e-17)
(1.00539 0.0901953 2.60368e-17)
(1.01095 0.00370005 5.90471e-18)
(1.00449 -0.0162946 -9.47723e-18)
(1.01071 0.00337649 -4.20641e-18)
(1.00451 -0.016185 9.39181e-18)
(1.27408 0.310085 -3.63505e-17)
(0.954927 -0.514447 3.99044e-18)
(1.26885 0.304761 -6.29904e-17)
(0.953509 -0.515838 -2.69294e-17)
(1.04632 0.139198 -9.4255e-18)
(1.03179 -0.216378 5.95463e-18)
(1.0458 0.140264 4.44843e-17)
(1.02704 -0.214785 -2.69829e-18)
(0.789513 -9.97638e-05 1.77656e-17)
(1.32292 -0.0835227 -5.38096e-18)
(0.789389 -0.000600616 -2.403e-17)
(1.32233 -0.0842379 -3.10991e-18)
(0.997409 0.00147663 9.86698e-18)
(0.997426 0.00152927 1.0942e-18)
(1.01188 0.000750744 -2.52861e-18)
(1.01224 0.000834868 2.35636e-19)
(0.997333 -0.0327631 5.47265e-17)
(1.06663 0.0292477 2.31388e-18)
(0.997939 -0.0317293 -6.48367e-19)
(1.06643 0.0295229 -4.75033e-18)
(0.919185 0.0485391 -5.16119e-18)
(1.15511 -0.0722939 -4.23802e-18)
(0.920864 0.0467303 1.25295e-18)
(1.15448 -0.0722188 3.59098e-18)
(1.01408 -0.00525002 1.13904e-18)
(1.00027 0.00771104 2.21932e-18)
(1.01375 -0.0051478 -2.58025e-18)
(1.00027 0.00722347 -1.2993e-17)
(1.01486 -0.0482248 1.61229e-19)
(1.02516 0.0425279 2.4496e-18)
(1.01613 -0.0461819 -3.6182e-18)
(1.02305 0.0428223 -4.56494e-18)
(1.0209 -0.0286676 1.31102e-18)
(1.03997 0.0389163 -2.23073e-18)
(1.02058 -0.0276956 -1.91402e-18)
(1.04162 0.0393628 2.25632e-18)
(0.990959 -0.0609792 -5.57285e-18)
(1.09031 0.0567445 -2.01354e-18)
(0.989959 -0.0618835 -1.36587e-17)
(1.09056 0.0556859 -3.45893e-18)
(0.997651 -0.0740574 -4.30433e-18)
(1.07969 0.0800869 7.12724e-18)
(1.07924 0.078327 -1.0133e-17)
(0.99715 -0.0731891 1.5089e-17)
(1.26418 -0.0383447 -5.00732e-18)
(1.26343 -0.0396941 -6.02513e-18)
(0.869864 0.0221709 3.47077e-17)
(0.875591 0.0224823 -4.59172e-18)
(1.22746 -0.0298885 -3.01894e-18)
(0.88929 0.00582376 6.03249e-18)
(1.22677 -0.0304211 -2.14346e-18)
(0.892882 0.00882045 -6.61017e-20)
(1.00516 -0.0108124 -2.20161e-17)
(1.02307 0.005188 1.4835e-18)
(1.02314 0.00494488 -3.36829e-19)
(1.00518 -0.0109322 2.18074e-17)
(1.15312 -0.345113 8.5906e-18)
(1.15228 -0.343102 -2.32741e-17)
(1.04243 0.295696 -1.63654e-18)
(1.04175 0.298179 6.18136e-19)
(1.14352 0.452913 2.86707e-17)
(1.1461 0.452947 -9.6148e-18)
(1.15119 -0.407375 -5.00663e-18)
(1.15003 -0.408899 2.96368e-17)
(1.03274 0.0154701 2.4095e-18)
(1.00958 -0.0276313 -1.67418e-17)
(1.00947 -0.0270373 1.00868e-17)
(1.03268 0.0155268 -1.24051e-18)
(1.05012 0.0273038 1.40772e-18)
(1.00934 -0.0236172 -5.51611e-18)
(1.0097 -0.0231444 1.53021e-18)
(1.05044 0.0271793 -1.42703e-17)
(1.23629 -0.0921871 -6.94093e-19)
(0.886867 0.0703457 -1.80205e-17)
(1.23533 -0.0946939 -5.75632e-18)
(0.884425 0.0658591 1.14354e-17)
(0.948546 0.0593319 -1.46606e-17)
(0.949045 0.0627881 2.48464e-17)
(1.20065 -0.0646234 -1.89317e-18)
(1.19991 -0.0648732 -6.17972e-19)
(1.00205 -0.00458104 2.16354e-18)
(1.0021 -0.00474759 -1.60434e-18)
(1.01445 0.0072862 5.80127e-18)
(1.01408 0.00715067 1.39132e-18)
(1.02514 -0.00527525 6.66005e-19)
(0.991712 0.0044904 -1.14268e-18)
(0.99097 0.00506375 1.16284e-17)
(1.02482 -0.00522109 -2.95499e-18)
(1.1857 -0.560607 1.18254e-17)
(0.789919 0.484165 -1.90958e-17)
(0.793562 0.489056 -1.83056e-17)
(1.18459 -0.560288 9.72333e-18)
(1.16814 -0.0229214 3.75671e-18)
(0.885129 0.000250248 8.0767e-19)
(1.16728 -0.0232329 -4.42905e-19)
(0.890025 0.00107861 2.69605e-18)
(1.04131 0.0379013 1.21e-17)
(1.04004 0.0382452 1.0894e-18)
(1.00263 -0.0421807 1.99439e-17)
(1.0019 -0.0414916 2.38291e-17)
(1.00338 0.00430168 -9.67531e-20)
(1.01038 -0.017102 -1.25885e-18)
(1.00396 0.00485757 3.46929e-19)
(1.01021 -0.016616 2.09221e-18)
(1.15134 -0.0861299 -2.21291e-18)
(0.982142 0.0683064 2.2341e-17)
(1.15146 -0.0858704 -1.04904e-18)
(0.982163 0.0696609 5.05609e-18)
(1.0009 0.00607306 2.1987e-17)
(1.05315 -0.00753919 4.36181e-18)
(1.0003 0.00635281 -2.32635e-17)
(1.05329 -0.00752733 -6.41884e-18)
(0.944749 0.116999 6.49884e-18)
(1.1898 -0.114836 2.17958e-18)
(0.947294 0.117947 -5.08055e-18)
(1.18815 -0.11519 2.95009e-18)
(0.950641 0.0755453 5.87793e-18)
(1.18407 -0.104758 1.43503e-18)
(1.18613 -0.105851 -5.98827e-18)
(0.952604 0.0788572 5.12981e-17)
(1.01923 -0.0317835 2.1333e-17)
(1.07911 0.0306595 4.03737e-18)
(1.07897 0.0309911 -5.14872e-18)
(1.01887 -0.0308252 3.61657e-18)
(1.03871 -0.0657398 -1.17956e-18)
(1.00896 0.0469579 -5.37793e-18)
(1.03973 -0.0651068 -3.99015e-18)
(1.00771 0.0484894 -2.41615e-18)
(1.29727 -0.271476 3.01458e-18)
(0.954641 0.351533 -1.47191e-18)
(0.953967 0.349556 3.19168e-17)
(1.29913 -0.272119 7.88517e-19)
(1.22548 -0.193249 -8.44732e-18)
(0.900239 0.243907 -2.00275e-17)
(0.902246 0.241225 7.18849e-18)
(1.22472 -0.193039 3.64687e-18)
(1.16181 0.0564822 -1.29192e-18)
(0.963015 -0.0609813 -4.87565e-18)
(0.961075 -0.0622341 8.68413e-18)
(1.16206 0.0562002 1.00051e-18)
(0.796528 0.753114 2.03469e-17)
(1.3689 -0.653648 8.95427e-18)
(0.798872 0.75775 1.5248e-18)
(1.36953 -0.65388 -2.41253e-17)
(1.02182 -0.0415594 -1.21307e-17)
(1.0232 0.0345127 1.63078e-18)
(1.02303 -0.0415292 -1.45629e-17)
(1.02403 0.0354345 -1.94851e-17)
(1.27641 -0.102322 5.76489e-19)
(0.839677 0.14883 -3.57084e-17)
(0.842 0.146112 -2.61882e-17)
(1.27868 -0.101539 1.14959e-18)
(1.2397 -0.14388 1.6409e-18)
(0.945422 0.16207 1.35112e-17)
(0.945738 0.160206 -3.31937e-18)
(1.24192 -0.145687 3.54435e-18)
(1.08218 -0.0180802 -4.62296e-19)
(1.08164 -0.017974 -4.22837e-18)
(1.00011 0.00579582 -8.71594e-18)
(0.999078 0.00736009 1.04133e-17)
(0.954899 0.0391611 -2.46339e-18)
(1.18957 -0.0352519 4.50505e-18)
(0.958733 0.0407985 7.88446e-19)
(1.18832 -0.0362971 1.68454e-18)
(1.01033 0.0196762 -1.98274e-18)
(1.01106 0.0199171 5.9101e-19)
(1.00584 -0.0199179 4.72747e-18)
(1.00555 -0.0203405 -4.5014e-18)
(1.04606 0.022705 7.58489e-18)
(1.01153 -0.0223141 -1.38619e-17)
(1.04571 0.0225761 -8.70449e-18)
(1.01136 -0.0216193 -2.72636e-18)
(1.03152 0.0221029 5.10198e-19)
(1.01362 -0.0328172 -2.84862e-18)
(1.0142 -0.0322036 -8.13332e-19)
(1.03156 0.0222744 -2.91799e-18)
(1.08171 -0.0193113 -3.27446e-18)
(1.08108 -0.020026 -2.48323e-18)
(1.00818 0.021727 -6.24658e-18)
(1.00544 0.0210701 -9.83854e-19)
(1.0344 -0.178295 -1.09734e-19)
(1.03592 -0.178308 -4.95375e-19)
(1.14928 0.147888 1.80482e-18)
(1.14817 0.148662 -1.40219e-17)
(1.02792 -0.155958 -5.49655e-18)
(1.10246 0.111724 -1.96556e-17)
(1.02736 -0.155226 -2.42011e-18)
(1.10295 0.111797 8.21112e-18)
(1.10478 -0.0241979 -2.08413e-19)
(0.983439 0.00749811 9.73665e-18)
(1.10441 -0.0236909 -3.11223e-18)
(0.980779 0.0082377 1.22811e-18)
(1.00277 -0.160849 -1.68739e-18)
(1.00152 -0.160692 6.91157e-18)
(1.12783 0.102569 -1.50439e-17)
(1.12815 0.103179 1.8262e-18)
(1.14542 -0.0410059 3.92919e-18)
(0.958646 0.0154572 -7.65739e-19)
(0.961286 0.0152716 -1.24854e-17)
(1.14548 -0.0414328 -4.01646e-18)
(0.944671 -0.160852 -3.21596e-17)
(1.13315 0.119474 4.56523e-18)
(0.943428 -0.159863 -1.59768e-17)
(1.13322 0.118515 -2.29547e-17)
(1.007 0.00161675 -1.09467e-17)
(1.05074 0.00384338 -1.10719e-17)
(1.00697 0.00123857 3.64209e-17)
(1.05134 0.00404532 -8.56676e-18)
(1.09691 -0.0323117 -5.11933e-18)
(0.998382 0.0373684 -1.62381e-17)
(1.00104 0.0358798 -9.68176e-18)
(1.09677 -0.0319554 -2.73608e-18)
(0.982831 -0.0128406 8.35497e-18)
(1.0587 0.0163563 1.4475e-18)
(1.05871 0.0167526 -2.23535e-18)
(0.982607 -0.012621 5.17333e-18)
(0.980322 -0.0287917 -4.40004e-18)
(1.07822 0.0162501 -9.94669e-18)
(1.07832 0.0158375 -2.81617e-18)
(0.97996 -0.0285287 2.25961e-18)
(1.07162 0.0185079 -2.60468e-19)
(0.9831 -0.0325764 -2.01581e-17)
(1.07179 0.0191545 -5.81464e-18)
(0.982784 -0.0325655 4.59147e-18)
)
;

boundaryField
{
    insideCircle
    {
        type            fixedValue;
        value           uniform (0 0 0);
    }
    outsideCircle
    {
        type            fixedValue;
        value           uniform (1 0 0);
    }
    topAndBottom
    {
        type            empty;
    }
}


// ************************************************************************* //
