/*--------------------------------*- C++ -*----------------------------------*\
| =========                 |                                                 |
| \\      /  F ield         | foam-extend: Open Source CFD                    |
|  \\    /   O peration     | Version:  3.0                                   |
|   \\  /    A nd           | Web:         http://www.extend-project.de       |
|    \\/     M anipulation  |                                                 |
\*---------------------------------------------------------------------------*/
FoamFile
{
    version     2.0;
    format      ascii;
    class       volScalarField;
    location    "4";
    object      p;
}
// * * * * * * * * * * * * * * * * * * * * * * * * * * * * * * * * * * * * * //

dimensions      [0 0 0 0 0 0 0];

internalField   nonuniform List<scalar> 
400
(
1.0913
0.957212
0.943982
0.890659
0.922212
0.901236
0.951871
0.945304
1.00456
1.00361
1.06574
1.06451
1.12435
1.11651
1.16672
1.14275
1.17099
1.11401
1.09567
0.963416
1.22147
1.10932
1.08721
1.02728
1.04225
1.00533
1.03463
1.00671
1.04093
1.01534
1.05018
1.02336
1.05585
1.02446
1.0502
1.00853
1.01823
0.954601
0.927487
0.818961
1.14957
1.04814
1.03336
0.981852
1.00506
0.976068
1.01457
0.994587
1.03913
1.02181
1.06868
1.05049
1.09695
1.07422
1.11492
1.08113
1.10394
1.04681
1.02758
0.927955
1.14183
1.04117
1.02834
0.979578
1.00192
0.97405
1.00783
0.987069
1.02404
1.0051
1.04332
1.02406
1.06288
1.0408
1.07687
1.04554
1.06741
1.01225
0.992988
0.889937
1.08171
0.968766
0.967741
0.924795
0.960706
0.942318
0.989174
0.97846
1.02944
1.02079
1.07571
1.06716
1.12666
1.1155
1.17648
1.15452
1.20294
1.14903
1.14728
1.01669
1.0486
0.925196
0.930125
0.891778
0.930051
0.91671
0.96046
0.953325
0.997386
0.991875
1.03824
1.03401
1.08603
1.08173
1.1396
1.12661
1.17868
1.12874
1.13177
0.972234
1.00937
0.876049
0.892248
0.860487
0.908329
0.903191
0.955249
0.955786
1.00954
1.01139
1.07123
1.07478
1.14627
1.15081
1.23599
1.23183
1.31819
1.26868
1.29963
1.09532
0.967321
0.839996
0.859889
0.835978
0.881384
0.881283
0.925922
0.929406
0.971891
0.976175
1.02199
1.02937
1.086
1.09783
1.17081
1.17833
1.25981
1.22034
1.25284
1.02469
0.933718
0.824837
0.849692
0.836415
0.881359
0.887911
0.932479
0.940515
0.985713
0.993427
1.04643
1.05726
1.1278
1.14462
1.24117
1.2562
1.37265
1.33888
1.40888
1.1539
0.87644
0.80545
0.830682
0.829663
0.866769
0.877402
0.910481
0.919342
0.949148
0.956556
0.989522
1.00095
1.04674
1.06791
1.1368
1.1636
1.25493
1.24191
1.29917
1.06256
0.835855
0.814435
0.838053
0.852685
0.880841
0.897631
0.923884
0.934874
0.961212
0.968339
1.00184
1.012
1.06426
1.08555
1.17089
1.20311
1.32693
1.32911
1.43779
1.21894
0.761263
0.799149
0.826036
0.856285
0.877281
0.897624
0.912312
0.92213
0.931846
0.935557
0.945606
0.952058
0.971869
0.992445
1.0349
1.07625
1.1498
1.18397
1.2544
1.11643
0.71844
0.8187
0.839389
0.88876
0.897734
0.924752
0.929694
0.940098
0.942445
0.942852
0.947917
0.94875
0.967503
0.982926
1.03343
1.07694
1.17996
1.23902
1.38257
1.31443
0.640421
0.798395
0.832683
0.897825
0.905801
0.935681
0.932028
0.939509
0.926743
0.921064
0.903005
0.896006
0.879864
0.888429
0.886966
0.933348
0.963869
1.05989
1.12771
1.20205
0.615871
0.827227
0.850677
0.935239
0.932126
0.96864
0.955017
0.961644
0.939673
0.928471
0.901707
0.885748
0.861992
0.860242
0.857331
0.900375
0.953845
1.07945
1.2437
1.43536
0.568075
0.814921
0.862827
0.958104
0.959025
0.99573
0.975991
0.977666
0.943383
0.924402
0.878318
0.851814
0.797011
0.782441
0.728355
0.76358
0.733288
0.886286
0.928256
1.30156
0.592269
0.864677
0.896795
1.00695
0.998173
1.0387
1.00917
1.00787
0.963983
0.938305
0.882061
0.845118
0.77823
0.749223
0.683298
0.706522
0.682879
0.858149
0.99953
1.52235
0.63825
0.902101
0.955342
1.06302
1.05447
1.08869
1.05249
1.04369
0.990741
0.957088
0.888188
0.840573
0.75232
0.706553
0.601177
0.601913
0.502325
0.671106
0.651765
1.33218
0.751202
0.990106
1.02567
1.13547
1.11567
1.14638
1.09985
1.08518
1.02368
0.983493
0.905874
0.848872
0.747957
0.686102
0.560719
0.53821
0.417333
0.57962
0.598119
1.41025
0.994651
1.13972
1.16179
1.24358
1.20922
1.22145
1.1663
1.14073
1.07505
1.02799
0.947607
0.882419
0.7757
0.696111
0.554642
0.491264
0.329909
0.414005
0.300804
1.07052
)
;

boundaryField
{
    cavity
    {
        type            implicitExtrapolation;
    }
    lid
    {
        type            implicitExtrapolation;
    }
    frontAndBack
    {
        type            empty;
    }
}


// ************************************************************************* //
