/*--------------------------------*- C++ -*----------------------------------*\
| =========                 |                                                 |
| \\      /  F ield         | foam-extend: Open Source CFD                    |
|  \\    /   O peration     | Version:  3.0                                   |
|   \\  /    A nd           | Web:         http://www.extend-project.de       |
|    \\/     M anipulation  |                                                 |
\*---------------------------------------------------------------------------*/
FoamFile
{
    version     2.0;
    format      ascii;
    class       volSymmTensorField;
    location    "4";
    object      sigma;
}
// * * * * * * * * * * * * * * * * * * * * * * * * * * * * * * * * * * * * * //

dimensions      [0 0 0 0 0 0 0];

internalField   nonuniform List<symmTensor> 
400
(
(0.0864846 -0.0304122 6.62826e-317 -0.114731 9.00078e-317 0.028246)
(0.170733 -0.0508667 7.29486e-317 -0.114341 1.05237e-316 -0.0563921)
(0.210549 -0.072803 7.28074e-317 -0.110695 1.02753e-316 -0.0998543)
(0.2193 -0.0903922 7.10535e-317 -0.101916 9.48598e-317 -0.117383)
(0.209204 -0.106535 6.66596e-317 -0.0902934 8.33967e-317 -0.118911)
(0.187181 -0.12186 6.22424e-317 -0.0772263 7.39298e-317 -0.109955)
(0.15565 -0.134358 5.71948e-317 -0.0621153 6.31698e-317 -0.0935346)
(0.118275 -0.145582 5.24565e-317 -0.0462399 5.57593e-317 -0.0720354)
(0.0760706 -0.153216 4.78529e-317 -0.0292843 4.72126e-317 -0.0467863)
(0.0307954 -0.158064 4.36399e-317 -0.011589 4.20285e-317 -0.0192064)
(-0.0164106 -0.158981 3.97994e-317 0.00675925 3.54908e-317 0.00965138)
(-0.0637535 -0.156227 3.63566e-317 0.0253699 3.20852e-317 0.0383836)
(-0.110323 -0.150202 3.3363e-317 0.0445219 2.71036e-317 0.0658007)
(-0.152375 -0.140545 3.06461e-317 0.0624647 2.49984e-317 0.0899105)
(-0.189693 -0.129228 2.84888e-317 0.0806 2.12161e-317 0.109093)
(-0.215146 -0.114876 2.61474e-317 0.0950463 1.99567e-317 0.120099)
(-0.227967 -0.0994615 2.46501e-317 0.108133 1.72194e-317 0.119834)
(-0.217918 -0.0821908 2.18547e-317 0.115646 1.62974e-317 0.102272)
(-0.175491 -0.0596709 1.99782e-317 0.117399 1.43845e-317 0.0580919)
(-0.0873785 -0.0377962 1.42371e-317 0.114683 1.24398e-317 -0.0273046)
(0.0664571 -0.0110846 1.50749e-317 -0.156804 4.39097e-317 0.090347)
(0.144053 -0.0166805 2.56268e-317 -0.168995 7.18572e-317 0.0249425)
(0.177294 -0.0256276 3.27105e-317 -0.164137 7.88536e-317 -0.0131578)
(0.186338 -0.0332545 3.71585e-317 -0.153149 7.70292e-317 -0.033189)
(0.176682 -0.0416701 3.92849e-317 -0.135043 7.00326e-317 -0.0416385)
(0.156731 -0.0501685 4.00172e-317 -0.114298 6.30431e-317 -0.0424334)
(0.129435 -0.0573961 3.95934e-317 -0.091275 5.45739e-317 -0.0381604)
(0.0975232 -0.0636316 3.85223e-317 -0.0670073 4.81763e-317 -0.0305159)
(0.0627075 -0.0674606 3.69824e-317 -0.0421077 4.09927e-317 -0.0205998)
(0.0255755 -0.0688245 3.52225e-317 -0.0161949 3.62001e-317 -0.00938053)
(-0.0126167 -0.0678064 3.338e-317 0.0101392 3.06207e-317 0.00247748)
(-0.0513841 -0.0637733 3.15731e-317 0.0372763 2.73523e-317 0.0141077)
(-0.0896838 -0.0586421 2.99274e-317 0.0649114 2.31772e-317 0.0247724)
(-0.125404 -0.0513237 2.84493e-317 0.0920545 2.11677e-317 0.03335)
(-0.157556 -0.0449678 2.73716e-317 0.118972 1.81901e-317 0.0385848)
(-0.180499 -0.0384988 2.6442e-317 0.141901 1.72146e-317 0.0385983)
(-0.192827 -0.0338192 2.62857e-317 0.162059 1.54855e-317 0.0307679)
(-0.182707 -0.0315481 2.59841e-317 0.17149 1.56638e-317 0.0112174)
(-0.147676 -0.0272506 2.68045e-317 0.173805 1.63356e-317 -0.0261291)
(-0.0664946 -0.0272331 2.61371e-317 0.156353 2.00858e-317 -0.0898584)
(0.0616078 -0.0106122 -4.70848e-318 -0.178469 1.99062e-317 0.116861)
(0.134804 0.00118306 4.78346e-318 -0.193781 4.70835e-317 0.0589765)
(0.163255 0.00847707 1.32948e-317 -0.18656 5.71847e-317 0.0233045)
(0.171418 0.0101388 1.98704e-317 -0.173871 5.88096e-317 0.00245259)
(0.160774 0.0100882 2.42888e-317 -0.151944 5.5561e-317 -0.00883079)
(0.1422 0.00613826 2.71664e-317 -0.128383 5.10525e-317 -0.013817)
(0.117639 0.00347285 2.86633e-317 -0.102902 4.52866e-317 -0.0147367)
(0.0893955 5.78433e-05 2.9282e-317 -0.0763426 4.02783e-317 -0.0130529)
(0.0597589 -0.000704603 2.92281e-317 -0.0500577 3.49186e-317 -0.00970117)
(0.027518 0.00023191 2.87759e-317 -0.02204 3.07608e-317 -0.00547801)
(-0.00510676 0.00328919 2.809e-317 0.00599195 2.63881e-317 -0.000885187)
(-0.0396624 0.00888637 2.73112e-317 0.0362348 2.32219e-317 0.00342766)
(-0.0743928 0.0141004 2.65642e-317 0.0674761 1.97714e-317 0.00691676)
(-0.108425 0.0208012 2.58682e-317 0.0996673 1.74024e-317 0.00875765)
(-0.140979 0.0230106 2.53711e-317 0.13305 1.4649e-317 0.00792903)
(-0.165082 0.0238912 2.48367e-317 0.162106 1.27922e-317 0.00297653)
(-0.181838 0.0166575 2.4566e-317 0.190152 1.06402e-317 -0.00831352)
(-0.173187 0.00466556 2.38229e-317 0.202169 9.39284e-318 -0.0289819)
(-0.143542 -0.0137759 2.31265e-317 0.20733 9.29374e-318 -0.0637878)
(-0.062898 -0.037862 2.17778e-317 0.182045 1.30369e-317 -0.119147)
(0.0567919 -0.000326318 -2.33838e-317 -0.197554 -3.76167e-319 0.140762)
(0.119861 0.0228724 -1.42695e-317 -0.200105 2.57797e-317 0.0802441)
(0.141228 0.0406859 -4.32889e-318 -0.18369 3.75207e-317 0.0424616)
(0.14388 0.044969 3.96926e-318 -0.163484 4.17861e-317 0.0196038)
(0.132343 0.0479462 1.05753e-317 -0.138618 4.14019e-317 0.00627493)
(0.114732 0.0436123 1.53806e-317 -0.113769 3.92819e-317 -0.000962447)
(0.0949731 0.0413454 1.8718e-317 -0.0906448 3.56971e-317 -0.00432827)
(0.0726238 0.0379495 2.08712e-317 -0.0672746 3.2259e-317 -0.00534915)
(0.0513742 0.0379107 2.21301e-317 -0.0464866 2.8355e-317 -0.00488763)
(0.0274654 0.0404995 2.27404e-317 -0.0237049 2.51575e-317 -0.00376047)
(0.00435142 0.0455394 2.28962e-317 -0.00198828 2.17653e-317 -0.00236314)
(-0.0222998 0.0544778 2.27451e-317 0.0236466 1.92095e-317 -0.00134683)
(-0.0492364 0.0624124 2.23945e-317 0.0503767 1.65141e-317 -0.00114027)
(-0.0789769 0.072998 2.18887e-317 0.0815557 1.4677e-317 -0.00257884)
(-0.108597 0.0761831 2.12593e-317 0.115201 1.27581e-317 -0.00660402)
(-0.134686 0.0781762 2.04192e-317 0.149427 1.17627e-317 -0.0147408)
(-0.155436 0.064642 1.93217e-317 0.184665 1.0939e-317 -0.0292289)
(-0.154527 0.0445037 1.7753e-317 0.207829 1.12618e-317 -0.0533021)
(-0.133385 0.00584576 1.56072e-317 0.22525 1.22083e-317 -0.0918653)
(-0.0598544 -0.0422074 1.30697e-317 0.211279 1.35583e-317 -0.151425)
(0.0610656 0.0230187 -1.67618e-317 -0.233945 -3.76818e-318 0.172879)
(0.117136 0.049289 -1.16158e-317 -0.217815 1.40178e-317 0.10068)
(0.133023 0.0704611 -4.72454e-318 -0.189711 2.3816e-317 0.0566879)
(0.129176 0.0725264 1.69218e-318 -0.159468 2.85139e-317 0.0302926)
(0.117078 0.0745814 7.05932e-318 -0.131763 2.9724e-317 0.0146852)
(0.0993995 0.0673278 1.1287e-317 -0.105138 2.9157e-317 0.00573873)
(0.0839549 0.0636545 1.43979e-317 -0.0848323 2.73215e-317 0.000877462)
(0.0658332 0.0586608 1.66199e-317 -0.0642418 2.51414e-317 -0.00159136)
(0.0514755 0.0584766 1.81151e-317 -0.0488522 2.25644e-317 -0.00262326)
(0.0335095 0.0614227 1.90808e-317 -0.0304572 2.01777e-317 -0.00305233)
(0.017606 0.0681916 1.96714e-317 -0.0142881 1.77061e-317 -0.00331795)
(-0.00396716 0.079736 2.00216e-317 0.00801685 1.56092e-317 -0.00404969)
(-0.0259469 0.0911648 2.02478e-317 0.0317023 1.35415e-317 -0.00575541)
(-0.0544566 0.106412 2.04116e-317 0.0637413 1.19298e-317 -0.00928475)
(-0.0844593 0.113268 2.06111e-317 0.100261 1.04497e-317 -0.0158013)
(-0.11602 0.120101 2.0779e-317 0.143065 9.55113e-318 -0.0270455)
(-0.144545 0.105789 2.10463e-317 0.190458 9.05829e-318 -0.045913)
(-0.155047 0.0853443 2.11382e-317 0.231604 9.51332e-318 -0.0765569)
(-0.143514 0.0344081 2.12473e-317 0.26944 1.11937e-317 -0.125926)
(-0.0713967 -0.0260171 2.09922e-317 0.275488 1.54247e-317 -0.204092)
(0.0613879 0.068542 -1.7802e-317 -0.266006 -7.09593e-318 0.204618)
(0.104663 0.0862038 -1.38771e-317 -0.223085 6.38716e-318 0.118422)
(0.113974 0.100545 -7.95146e-318 -0.181101 1.44199e-317 0.0671275)
(0.10206 0.0929458 -2.16789e-318 -0.138995 1.89719e-317 0.0369351)
(0.0901516 0.0879976 3.04341e-318 -0.109471 2.08913e-317 0.0193191)
(0.0730304 0.0741778 7.25938e-318 -0.082197 2.12883e-317 0.00916666)
(0.0631846 0.0657959 1.05505e-317 -0.0666834 2.0532e-317 0.00349883)
(0.0509523 0.0577487 1.29851e-317 -0.0512746 1.92912e-317 0.000322349)
(0.0452558 0.055884 1.47232e-317 -0.0438966 1.76048e-317 -0.0013592)
(0.0356337 0.0592786 1.59108e-317 -0.0331191 1.59073e-317 -0.00251466)
(0.0296414 0.0678773 1.66855e-317 -0.0260974 1.40736e-317 -0.00354405)
(0.0162128 0.0838186 1.71606e-317 -0.0110081 1.24365e-317 -0.00520472)
(0.00320461 0.10093 1.74222e-317 0.00478934 1.08177e-317 -0.00799395)
(-0.0209136 0.124888 1.75303e-317 0.0338991 9.53562e-318 -0.0129855)
(-0.0463318 0.140346 1.75092e-317 0.0678502 8.44402e-318 -0.0215184)
(-0.0819858 0.158797 1.73781e-317 0.11788 7.92022e-318 -0.0358943)
(-0.114382 0.151553 1.70762e-317 0.174214 7.94197e-318 -0.0598318)
(-0.139973 0.139688 1.66208e-317 0.239095 8.98227e-318 -0.0991219)
(-0.138856 0.0854812 1.58348e-317 0.30233 1.10379e-317 -0.163474)
(-0.0781207 0.0195349 1.4702e-317 0.34541 1.38992e-317 -0.267289)
(0.063918 0.133926 -5.63422e-318 -0.294727 -2.6856e-318 0.230809)
(0.0943198 0.131345 -4.75375e-318 -0.224926 3.61849e-318 0.130606)
(0.099469 0.128775 -1.98109e-318 -0.172547 8.77288e-318 0.0730778)
(0.0799619 0.107224 1.36644e-318 -0.120088 1.23176e-317 0.0401259)
(0.0700176 0.0910463 4.59544e-318 -0.0913242 1.42877e-317 0.0213067)
(0.0534164 0.0693465 7.48143e-318 -0.06401 1.51274e-317 0.0105936)
(0.0494091 0.0546257 9.84289e-318 -0.0540242 1.50704e-317 0.00461508)
(0.0421807 0.0423775 1.17207e-317 -0.0433701 1.44898e-317 0.0011894)
(0.044376 0.0377474 1.31451e-317 -0.0436126 1.34932e-317 -0.000763357)
(0.0418076 0.0396432 1.42092e-317 -0.0395702 1.23354e-317 -0.00223746)
(0.0445794 0.0490047 1.50006e-317 -0.040889 1.10274e-317 -0.00369042)
(0.0380889 0.0667695 1.56132e-317 -0.0322053 9.75729e-318 -0.00588356)
(0.0328741 0.0892355 1.61423e-317 -0.0234274 8.50047e-318 -0.00944672)
(0.0121632 0.12011 1.66618e-317 0.00337296 7.43782e-318 -0.0155361)
(-0.0100225 0.146698 1.72835e-317 0.0358871 6.57726e-318 -0.0258646)
(-0.0512089 0.179035 1.8023e-317 0.094394 6.16956e-318 -0.0431851)
(-0.089704 0.187735 1.9042e-317 0.162101 6.36502e-318 -0.0723968)
(-0.133616 0.196197 2.01853e-317 0.254794 7.61649e-318 -0.121179)
(-0.14537 0.156832 2.15882e-317 0.348743 1.04852e-317 -0.203373)
(-0.0954229 0.111148 2.2638e-317 0.436706 1.63573e-317 -0.341283)
(0.0574055 0.210649 -4.66401e-318 -0.294148 -1.69738e-318 0.236743)
(0.0726365 0.179627 -3.8617e-318 -0.203929 2.20552e-318 0.131292)
(0.0742831 0.152493 -1.50386e-318 -0.146469 5.57838e-318 0.0721858)
(0.0492225 0.114209 1.29929e-318 -0.0883161 8.22535e-318 0.0390937)
(0.0416943 0.0834853 4.1653e-318 -0.0623417 9.93302e-318 0.0206474)
(0.0267884 0.0533386 6.68713e-318 -0.0371162 1.08637e-317 0.0103278)
(0.0280669 0.0307747 8.80677e-318 -0.032771 1.11115e-317 0.00470412)
(0.0264342 0.0143674 1.04794e-317 -0.0279229 1.08943e-317 0.00148862)
(0.0358574 0.00615726 1.1758e-317 -0.0355469 1.02948e-317 -0.00031047)
(0.0411112 0.00697313 1.27041e-317 -0.0393503 9.4833e-318 -0.00176093)
(0.0528115 0.0168788 1.33925e-317 -0.0495821 8.49235e-318 -0.00322936)
(0.0549796 0.0376152 1.38953e-317 -0.049384 7.45353e-318 -0.00559552)
(0.0596986 0.0663644 1.42763e-317 -0.050258 6.37834e-318 -0.00944066)
(0.0456426 0.106746 1.45965e-317 -0.0294869 5.40453e-318 -0.0161556)
(0.0320059 0.147761 1.49007e-317 -0.00442387 4.58718e-318 -0.0275821)
(-0.0104529 0.198894 1.52552e-317 0.0575375 4.16068e-318 -0.0470846)
(-0.0466479 0.23092 1.56622e-317 0.127065 4.35152e-318 -0.0804168)
(-0.107032 0.267185 1.62116e-317 0.244271 5.68021e-318 -0.137239)
(-0.125862 0.254344 1.67792e-317 0.360707 8.68447e-318 -0.234845)
(-0.0974404 0.235726 1.71305e-317 0.498942 1.40404e-317 -0.401502)
(0.048443 0.284791 4.47429e-318 -0.266976 2.56644e-318 0.218533)
(0.0499215 0.223944 3.60354e-318 -0.168001 2.30992e-318 0.11808)
(0.049965 0.168898 3.95939e-318 -0.113467 3.69886e-318 0.0635016)
(0.0221013 0.115175 5.11189e-318 -0.0557855 5.32657e-318 0.0336842)
(0.0182318 0.0689027 6.49647e-318 -0.0357135 6.66368e-318 0.0174817)
(0.00557169 0.03098 7.94962e-318 -0.0141699 7.56682e-318 0.0085982)
(0.0118975 0.000102068 9.23995e-318 -0.0157997 8.00184e-318 0.00390218)
(0.0151108 -0.0211345 1.03395e-317 -0.0163771 8.04628e-318 0.00126622)
(0.0308432 -0.0338208 1.12143e-317 -0.0306802 7.74946e-318 -0.000162931)
(0.0427774 -0.0363502 1.18962e-317 -0.0414043 7.21194e-318 -0.00137309)
(0.0623787 -0.0275702 1.24248e-317 -0.0596744 6.47723e-318 -0.00270426)
(0.0723353 -0.00789666 1.28536e-317 -0.0673444 5.63332e-318 -0.00499095)
(0.0861022 0.0252147 1.32524e-317 -0.0772286 4.715e-318 -0.0088736)
(0.0785699 0.0699457 1.36851e-317 -0.0628316 3.81801e-318 -0.0157383)
(0.0724195 0.125465 1.42675e-317 -0.0447792 3.01695e-318 -0.0276403)
(0.0291685 0.192149 1.50519e-317 0.0189867 2.50343e-318 -0.0481552)
(-0.00732635 0.254435 1.62606e-317 0.0911489 2.54304e-318 -0.0838225)
(-0.0843232 0.324922 1.78199e-317 0.229969 3.68944e-318 -0.145646)
(-0.115882 0.35835 2.00192e-317 0.370259 6.9277e-318 -0.254377)
(-0.108071 0.395331 2.2213e-317 0.554163 1.43976e-317 -0.446092)
(0.0300245 0.345449 3.43259e-318 -0.200742 3.10954e-318 0.170718)
(0.0199364 0.256587 3.35771e-318 -0.109953 2.34635e-318 0.0900169)
(0.0175135 0.175055 4.17342e-318 -0.0647156 2.74033e-318 0.0472021)
(-0.00909362 0.108427 5.39076e-318 -0.0152317 3.6612e-318 0.0243253)
(-0.010658 0.0474733 6.78491e-318 -0.00160037 4.62157e-318 0.0122583)
(-0.0196685 0.00322109 8.04848e-318 0.013877 5.38839e-318 0.00579148)
(-0.0103026 -0.0358458 9.13691e-318 0.00772733 5.85079e-318 0.00257525)
(-0.00232487 -0.0611779 9.99782e-318 0.00149305 6.00402e-318 0.000831828)
(0.017358 -0.0785543 1.06512e-317 -0.017389 5.86163e-318 3.10526e-05)
(0.0354173 -0.0838599 1.1123e-317 -0.0346674 5.47911e-318 -0.000749965)
(0.0606819 -0.0765428 1.145e-317 -0.0590061 4.88838e-318 -0.00167575)
(0.0786034 -0.057054 1.16684e-317 -0.0749761 4.14644e-318 -0.00362733)
(0.100636 -0.0196638 1.18157e-317 -0.0935441 3.28396e-318 -0.00709198)
(0.102266 0.0313157 1.19293e-317 -0.0887094 2.36635e-318 -0.0135564)
(0.10689 0.102497 1.20485e-317 -0.0819815 1.46172e-318 -0.0249084)
(0.0696034 0.188379 1.22387e-317 -0.0246895 7.35827e-319 -0.0449139)
(0.0432357 0.284658 1.25473e-317 0.0368483 4.57441e-319 -0.080084)
(-0.0410215 0.393465 1.31228e-317 0.18312 1.21038e-318 -0.142098)
(-0.0717294 0.47828 1.40284e-317 0.324353 3.96712e-318 -0.252624)
(-0.0910453 0.566026 1.52513e-317 0.540177 1.0408e-317 -0.449131)
(0.00949272 0.377989 8.65101e-318 -0.109451 5.37925e-318 0.0999586)
(-0.0102741 0.272714 7.83254e-318 -0.0398936 2.47301e-318 0.0501677)
(-0.0141576 0.170852 7.66207e-318 -0.0109125 1.8315e-318 0.0250701)
(-0.0367043 0.0963026 8.05032e-318 0.0245941 2.16278e-318 0.0121102)
(-0.0355276 0.0233767 8.57958e-318 0.029906 2.88763e-318 0.0056216)
(-0.0402338 -0.0257925 9.17705e-318 0.0379708 3.61014e-318 0.00226297)
(-0.0281839 -0.0719447 9.69077e-318 0.0273406 4.14203e-318 0.000843323)
(-0.0159793 -0.10145 1.01149e-317 0.015814 4.41278e-318 0.000165236)
(0.00691465 -0.123521 1.04238e-317 -0.00698038 4.40972e-318 6.57227e-05)
(0.0300248 -0.133148 1.06314e-317 -0.0298347 4.16399e-318 -0.000190087)
(0.0601755 -0.128795 1.07509e-317 -0.0595226 3.70314e-318 -0.000652924)
(0.085128 -0.113487 1.08036e-317 -0.0830289 3.06878e-318 -0.00209911)
(0.114912 -0.0750653 1.08228e-317 -0.109953 2.28864e-318 -0.00495914)
(0.125762 -0.0253281 1.08349e-317 -0.115206 1.40768e-318 -0.0105557)
(0.140466 0.0576747 1.09186e-317 -0.119821 4.77203e-319 -0.0206453)
(0.110631 0.152351 1.11011e-317 -0.0720131 -3.82184e-319 -0.038618)
(0.0905915 0.282639 1.15996e-317 -0.0199627 -9.3997e-319 -0.0706289)
(0.000247434 0.423456 1.23945e-317 0.127481 -6.96771e-319 -0.127728)
(-0.0423851 0.571937 1.39492e-317 0.274024 1.50061e-318 -0.231639)
(-0.0897768 0.730957 1.61225e-317 0.512807 8.16153e-318 -0.42303)
(-0.0155145 0.382707 5.66933e-318 0.0032509 4.76843e-318 0.0122636)
(-0.0414825 0.267309 6.23256e-318 0.0383369 2.1718e-318 0.00314559)
(-0.0507825 0.153459 7.2158e-318 0.0508169 1.15647e-318 -3.44232e-05)
(-0.0655443 0.075765 8.10477e-318 0.0668006 1.20564e-318 -0.00125629)
(-0.0638632 -0.00528189 8.89937e-318 0.0652913 1.78943e-318 -0.00142806)
(-0.0627234 -0.0571513 9.43578e-318 0.0641117 2.46634e-318 -0.00138834)
(-0.0498171 -0.108918 9.80339e-318 0.050716 3.01227e-318 -0.000898974)
(-0.0336462 -0.141398 1.00141e-317 0.034117 3.32821e-318 -0.000470888)
(-0.0102129 -0.167541 1.011e-317 0.0100244 3.39173e-318 0.000188493)
(0.0164786 -0.180611 1.011e-317 -0.0169793 3.22009e-318 0.000500708)
(0.0477238 -0.179226 1.00262e-317 -0.0483517 2.83524e-318 0.000627921)
(0.0782288 -0.167178 9.86377e-318 -0.0780424 2.26679e-318 -0.000186406)
(0.111758 -0.128393 9.62239e-318 -0.109621 1.53336e-318 -0.00213633)
(0.132755 -0.0781126 9.29456e-318 -0.126278 6.60813e-319 -0.00647772)
(0.156336 0.0157149 8.8733e-318 -0.141879 -3.16859e-319 -0.0144564)
(0.141337 0.123185 8.36507e-318 -0.112304 -1.31693e-318 -0.0290328)
(0.135871 0.286507 7.76544e-318 -0.0808566 -2.15192e-318 -0.0550144)
(0.0563137 0.463943 7.21786e-318 0.0455018 -2.41412e-318 -0.101816)
(0.0243235 0.671647 6.82498e-318 0.163052 -1.16555e-318 -0.187375)
(-0.0456235 0.88636 7.28256e-318 0.389857 3.22237e-318 -0.344233)
(-0.0414158 0.353624 8.35473e-318 0.121598 5.11963e-318 -0.0801823)
(-0.0715992 0.243613 8.78987e-318 0.11652 1.14866e-318 -0.0449211)
(-0.083387 0.1277 9.47419e-318 0.108245 -1.50053e-319 -0.0248579)
(-0.0896547 0.0499792 9.95711e-318 0.103738 -8.36552e-320 -0.0140832)
(-0.0868367 -0.0345343 1.01784e-317 0.0948665 6.30457e-319 -0.00802978)
(-0.079696 -0.0880556 1.02341e-317 0.0844593 1.43892e-318 -0.00476332)
(-0.0659536 -0.14266 1.01654e-317 0.0684767 2.08987e-318 -0.00252309)
(-0.0462428 -0.177129 1.00379e-317 0.0473393 2.49248e-318 -0.00109653)
(-0.0226356 -0.205905 9.86276e-318 0.0224088 2.63432e-318 0.000226799)
(0.0065791 -0.222239 9.64905e-318 -0.0076503 2.53929e-318 0.0010712)
(0.0385657 -0.22438 9.3888e-318 -0.0403018 2.23708e-318 0.00173613)
(0.0734169 -0.217856 9.071e-318 -0.0750037 1.75691e-318 0.00158685)
(0.11097 -0.182439 8.68484e-318 -0.11153 1.11679e-318 0.000560664)
(0.141711 -0.139029 8.20865e-318 -0.139383 3.36474e-319 -0.00232765)
(0.175116 -0.0422506 7.653e-318 -0.167216 -5.62074e-319 -0.00789938)
(0.175885 0.0618184 6.97981e-318 -0.157691 -1.53112e-318 -0.0181941)
(0.18251 0.24814 6.29529e-318 -0.146083 -2.4426e-318 -0.036427)
(0.111696 0.438196 5.56679e-318 -0.042687 -3.05639e-318 -0.0690086)
(0.0699442 0.703642 5.14709e-318 0.0595375 -2.57739e-318 -0.129482)
(-0.0374499 0.975696 5.63688e-318 0.285464 5.20582e-319 -0.248014)
(-0.0628742 0.295084 5.8378e-318 0.228428 4.16867e-318 -0.165554)
(-0.0980941 0.195865 7.66078e-318 0.185709 3.11508e-319 -0.0876152)
(-0.117833 0.0876571 9.53627e-318 0.163838 -9.38003e-319 -0.0460055)
(-0.113092 0.0156673 1.0314e-317 0.137675 -6.77394e-319 -0.0245824)
(-0.109605 -0.0675807 1.0594e-317 0.122872 1.53141e-319 -0.0132672)
(-0.095035 -0.119949 1.04597e-317 0.102407 1.01165e-318 -0.00737207)
(-0.0809044 -0.174999 1.01828e-317 0.0846533 1.66498e-318 -0.00374885)
(-0.0582164 -0.209735 9.84071e-318 0.0597622 2.05752e-318 -0.00154572)
(-0.0365857 -0.239663 9.4818e-318 0.0362655 2.19668e-318 0.000320208)
(-0.00701948 -0.258053 9.10841e-318 0.00541082 2.11645e-318 0.00160867)
(0.0214241 -0.26312 8.7042e-318 -0.0242151 1.84887e-318 0.00279101)
(0.0575562 -0.261181 8.24064e-318 -0.0608286 1.42078e-318 0.00327237)
(0.0925716 -0.229846 7.68125e-318 -0.095798 8.48602e-319 0.0032264)
(0.131036 -0.191793 6.97513e-318 -0.132854 1.42177e-319 0.00181762)
(0.166872 -0.0945386 6.06223e-318 -0.165751 -6.79474e-319 -0.00112045)
(0.18816 0.0110138 4.88392e-318 -0.181359 -1.59136e-318 -0.00680026)
(0.206705 0.216081 3.32808e-318 -0.190587 -2.49366e-318 -0.0161178)
(0.16826 0.430353 1.4897e-318 -0.136573 -3.25592e-318 -0.031687)
(0.145433 0.745047 -7.67067e-319 -0.0873182 -3.44159e-318 -0.0581144)
(0.037831 1.06664 -2.19975e-318 0.0670634 -2.74272e-318 -0.104894)
(-0.0895126 0.223321 9.89153e-318 0.326078 2.87317e-318 -0.236566)
(-0.11821 0.138017 1.09489e-317 0.237999 -2.34124e-318 -0.119789)
(-0.140136 0.0428313 1.19433e-317 0.200957 -3.05116e-318 -0.0608207)
(-0.125885 -0.0263587 1.19042e-317 0.15743 -2.04653e-318 -0.0315456)
(-0.121629 -0.103771 1.14017e-317 0.138231 -7.46909e-319 -0.0166017)
(-0.100823 -0.153982 1.07396e-317 0.109831 3.72471e-319 -0.00900787)
(-0.0866488 -0.205511 1.00727e-317 0.0911757 1.14572e-318 -0.00452684)
(-0.0618157 -0.238256 9.47622e-318 0.0636676 1.6005e-318 -0.00185183)
(-0.0424375 -0.266765 8.94133e-318 0.0420897 1.78655e-318 0.000347822)
(-0.0136262 -0.285325 8.44596e-318 0.0116834 1.7626e-318 0.00194284)
(0.0113693 -0.292691 7.95121e-318 -0.014864 1.57116e-318 0.00349466)
(0.047331 -0.29509 7.41501e-318 -0.0518262 1.24421e-318 0.00449517)
(0.0810166 -0.27075 6.79423e-318 -0.0862588 8.01266e-319 0.00524221)
(0.125714 -0.242629 6.03325e-318 -0.130856 2.55056e-319 0.00514211)
(0.167497 -0.154885 5.09419e-318 -0.171981 -3.7924e-319 0.00448384)
(0.207667 -0.065155 3.90395e-318 -0.210726 -1.08535e-318 0.00305825)
(0.24184 0.138121 2.46092e-318 -0.243909 -1.80414e-318 0.00206882)
(0.225247 0.333448 7.28401e-319 -0.228618 -2.52116e-318 0.00337113)
(0.201097 0.674058 -1.21575e-318 -0.211753 -3.04713e-318 0.010656)
(0.0404714 1.0024 -2.55741e-318 -0.062199 -3.43307e-318 0.0217276)
(-0.0978671 0.114034 1.22838e-317 0.373491 4.69006e-318 -0.275624)
(-0.136969 0.0578798 1.30225e-317 0.272807 -1.14921e-318 -0.135837)
(-0.160692 -0.0123121 1.35176e-317 0.227856 -2.03145e-318 -0.0671647)
(-0.135777 -0.0701578 1.27101e-317 0.169868 -1.01864e-318 -0.0340907)
(-0.127033 -0.136569 1.16578e-317 0.144709 1.01031e-319 -0.0176762)
(-0.0992959 -0.181465 1.05771e-317 0.108793 9.79312e-319 -0.00949685)
(-0.0844975 -0.226691 9.64722e-318 0.0892562 1.51478e-318 -0.00475863)
(-0.0588006 -0.255772 8.87857e-318 0.0607511 1.77314e-318 -0.00195053)
(-0.0432697 -0.281056 8.2362e-318 0.0428996 1.81596e-318 0.000370063)
(-0.0176425 -0.298482 7.67201e-318 0.0155391 1.6988e-318 0.00210334)
(0.000258102 -0.306972 7.13132e-318 -0.00414739 1.46005e-318 0.00388929)
(0.0322495 -0.312365 6.55913e-318 -0.03749 1.12554e-318 0.00524051)
(0.0573563 -0.294938 5.89756e-318 -0.0639638 7.11114e-319 0.00660748)
(0.103171 -0.274939 5.07854e-318 -0.110673 2.27532e-319 0.00750186)
(0.137903 -0.199176 4.02189e-318 -0.146581 -3.06202e-319 0.00867815)
(0.195929 -0.119773 2.66068e-318 -0.206504 -8.73335e-319 0.0105747)
(0.230001 0.0758258 8.4046e-319 -0.246473 -1.41129e-318 0.0164724)
(0.264171 0.275132 -1.33946e-318 -0.296625 -1.919e-318 0.0324542)
(0.256454 0.636453 -4.19152e-318 -0.330975 -2.45612e-318 0.0745206)
(0.151991 1.01306 -6.65501e-318 -0.32893 -3.8598e-318 0.176939)
(-0.120198 0.0394805 1.90503e-317 0.407391 7.49498e-321 -0.287193)
(-0.127095 -0.0232537 1.71009e-317 0.261182 -5.86024e-318 -0.134087)
(-0.153172 -0.0787811 1.50121e-317 0.217538 -5.15529e-318 -0.0643664)
(-0.12096 -0.133526 1.28956e-317 0.153094 -2.90764e-318 -0.0321344)
(-0.112404 -0.188036 1.10301e-317 0.128931 -1.20143e-318 -0.016527)
(-0.0820332 -0.225266 9.60942e-318 0.0909254 -2.05778e-320 -0.00889218)
(-0.0685176 -0.2612 8.5174e-318 0.0729991 6.79138e-319 -0.00448157)
(-0.0439173 -0.283837 7.7007e-318 0.0457917 1.06479e-318 -0.00187439)
(-0.0322613 -0.303754 7.05432e-318 0.0319311 1.23276e-318 0.000330191)
(-0.0106922 -0.318097 6.51044e-318 0.00867768 1.25597e-318 0.00201448)
(0.00139731 -0.326503 6.00286e-318 -0.00522475 1.1786e-318 0.00382743)
(0.0283723 -0.333783 5.47509e-318 -0.0336895 1.03028e-318 0.00531718)
(0.0476286 -0.324155 4.87501e-318 -0.0546167 8.29037e-319 0.00698811)
(0.0916975 -0.314073 4.14636e-318 -0.100157 5.84717e-319 0.00845988)
(0.12545 -0.258032 3.24564e-318 -0.136124 3.11642e-319 0.010674)
(0.193316 -0.202444 2.12535e-318 -0.207821 1.72824e-320 0.0145049)
(0.241038 -0.0392199 7.75866e-319 -0.265377 -2.81909e-319 0.024339)
(0.296236 0.107938 -7.75614e-319 -0.345556 -6.31297e-319 0.0493199)
(0.3087 0.438933 -2.50504e-318 -0.422043 -1.21605e-318 0.113343)
(0.125373 0.721633 -4.0908e-318 -0.384491 -2.75401e-318 0.259118)
(-0.103612 -0.103905 2.49296e-317 0.348956 1.14847e-317 -0.245344)
(-0.135065 -0.116186 2.07736e-317 0.247052 3.48987e-318 -0.111987)
(-0.140304 -0.126628 1.62382e-317 0.193032 1.86989e-318 -0.0527286)
(-0.102678 -0.166367 1.27887e-317 0.128772 2.12985e-318 -0.0260935)
(-0.0861065 -0.1979 1.02397e-317 0.0995202 2.4088e-318 -0.0134136)
(-0.0526915 -0.226541 8.5296e-318 0.0599896 2.516e-318 -0.00729806)
(-0.0404929 -0.24936 7.33375e-318 0.0442164 2.4473e-318 -0.00372351)
(-0.0183768 -0.265613 6.49952e-318 0.0199878 2.26023e-318 -0.00161091)
(-0.0122622 -0.278464 5.87481e-318 0.0120071 1.99811e-318 0.000255152)
(0.00360167 -0.288039 5.37393e-318 -0.00529575 1.68847e-318 0.00169408)
(0.00721027 -0.294556 4.92303e-318 -0.0105368 1.35001e-318 0.00332648)
(0.0264137 -0.299118 4.46577e-318 -0.0311253 9.93694e-319 0.00471161)
(0.0336037 -0.295132 3.94771e-318 -0.0399849 6.31159e-319 0.00638117)
(0.0703279 -0.287087 3.31107e-318 -0.0783001 2.70135e-319 0.00797217)
(0.0877484 -0.251087 2.49204e-318 -0.0982201 -6.69706e-320 0.0104717)
(0.160588 -0.206941 1.44927e-318 -0.1753 -3.5802e-319 0.0147117)
(0.187785 -0.0860019 7.43717e-320 -0.213061 -5.5777e-319 0.0252752)
(0.299458 0.0464645 -1.48381e-318 -0.351639 -6.41144e-319 0.0521809)
(0.297377 0.33372 -3.42753e-318 -0.424224 -8.29996e-319 0.126847)
(0.282192 0.690713 -5.27804e-318 -0.621427 -1.92496e-318 0.339235)
(-0.091773 -0.14073 2.1077e-317 0.26441 -6.04806e-318 -0.172637)
(-0.0486239 -0.206738 1.60592e-317 0.122783 -7.85702e-318 -0.0741589)
(-0.0666544 -0.230172 1.11091e-317 0.100957 -5.75102e-318 -0.0343028)
(-0.0343149 -0.259984 8.27883e-318 0.0512932 -3.38964e-318 -0.0169782)
(-0.0255507 -0.286022 6.3846e-318 0.0343423 -2.00011e-318 -0.00879157)
(-0.00204972 -0.300483 5.24779e-318 0.00694541 -1.0966e-318 -0.00489569)
(0.00578815 -0.314854 4.48618e-318 -0.00324694 -5.3281e-319 -0.00254122)
(0.0206537 -0.322486 3.97592e-318 -0.0194953 -1.52642e-319 -0.00115833)
(0.0237932 -0.329882 3.59726e-318 -0.0239439 1.13749e-319 0.000150645)
(0.0335291 -0.336217 3.29216e-318 -0.0346802 3.0927e-319 0.00115111)
(0.034359 -0.341144 3.01227e-318 -0.0367193 4.61255e-319 0.00236029)
(0.0459954 -0.348252 2.72294e-318 -0.0493829 5.85458e-319 0.00338746)
(0.0492943 -0.349261 2.39453e-318 -0.0539924 6.92393e-319 0.00469805)
(0.0737936 -0.353522 1.99834e-318 -0.0797549 7.85974e-319 0.00596127)
(0.086453 -0.337126 1.51865e-318 -0.0944187 8.63938e-319 0.00796571)
(0.139262 -0.324384 9.50068e-319 -0.150479 9.17633e-319 0.0112171)
(0.17103 -0.250705 3.32536e-319 -0.190202 9.13868e-319 0.0191718)
(0.251134 -0.195319 -2.69681e-319 -0.290636 8.01508e-319 0.0395015)
(0.303703 0.00554763 -6.73253e-319 -0.401938 4.18508e-319 0.0982341)
(0.158842 0.105006 -1.13905e-318 -0.423361 -6.09148e-319 0.264518)
(0.00414048 -0.311226 2.03005e-317 0.0457782 2.6154e-317 -0.0499187)
(-0.0364221 -0.278274 1.49124e-317 0.061471 1.52571e-317 -0.0250489)
(-0.00301047 -0.212362 8.90237e-318 0.014901 1.06441e-317 -0.0118905)
(0.0233605 -0.226997 5.98912e-318 -0.017349 7.90098e-318 -0.00601146)
(0.0357463 -0.208657 4.17302e-318 -0.0325682 6.40549e-318 -0.00317808)
(0.0570652 -0.219175 3.23313e-318 -0.0552134 5.26668e-318 -0.00185181)
(0.0586355 -0.213493 2.64674e-318 -0.0576499 4.37716e-318 -0.000985615)
(0.0684852 -0.217695 2.28822e-318 -0.067993 3.5928e-318 -0.000492191)
(0.0648795 -0.21523 2.03878e-318 -0.064918 2.88697e-318 3.84803e-05)
(0.0690055 -0.21358 1.85326e-318 -0.0694281 2.23237e-318 0.000422637)
(0.0622692 -0.212281 1.69647e-318 -0.06321 1.62297e-318 0.000940772)
(0.0663331 -0.20377 1.54457e-318 -0.067693 1.05604e-318 0.00135987)
(0.057684 -0.202813 1.37472e-318 -0.0596265 5.38754e-319 0.00194255)
(0.0702864 -0.183808 1.16062e-318 -0.0727644 8.14418e-320 0.002478)
(0.06142 -0.182336 8.70035e-319 -0.0647633 -2.92373e-319 0.00334329)
(0.103615 -0.145688 4.81674e-319 -0.10823 -5.55434e-319 0.00461464)
(0.0950655 -0.143565 -7.01227e-320 -0.102735 -6.84933e-319 0.00766959)
(0.214978 -0.0788446 -6.57389e-319 -0.230427 -6.37256e-319 0.0154487)
(0.182746 -0.0702155 -1.36443e-318 -0.224485 -6.08714e-319 0.0417392)
(0.349134 0.157573 -1.99903e-318 -0.512096 -9.08078e-319 0.162962)
)
;

boundaryField
{
    cavity
    {
        type            mySigma;
    }
    lid
    {
        type            fixedValue;
        value           uniform (0.1 -0.3 0 -0.1 0 0);
    }
    frontAndBack
    {
        type            empty;
    }
}


// ************************************************************************* //
