/*--------------------------------*- C++ -*----------------------------------*\
| =========                 |                                                 |
| \\      /  F ield         | foam-extend: Open Source CFD                    |
|  \\    /   O peration     | Version:  3.0                                   |
|   \\  /    A nd           | Web:         http://www.extend-project.de       |
|    \\/     M anipulation  |                                                 |
\*---------------------------------------------------------------------------*/
FoamFile
{
    version     2.0;
    format      ascii;
    class       volScalarField;
    location    "2";
    object      p;
}
// * * * * * * * * * * * * * * * * * * * * * * * * * * * * * * * * * * * * * //

dimensions      [0 0 0 0 0 0 0];

internalField   nonuniform List<scalar> 
576
(
-5.04436
0.761649
-3.23588
-1.25778
-1.62081
-1.34905
-1.2801
-1.195
-1.13857
-1.09795
-1.07596
-1.06131
-4.95904
0.750354
-3.18391
-1.24101
-1.59686
-1.32959
-1.26144
-1.17763
-1.12185
-1.0815
-1.05935
-1.04453
-4.7893
0.725328
-3.07602
-1.20081
-1.5439
-1.28562
-1.21979
-1.13891
-1.08494
-1.04571
-1.02406
-1.00958
-4.53628
0.687628
-2.91464
-1.13856
-1.46364
-1.21933
-1.15726
-1.08073
-1.02947
-0.992014
-0.971199
-0.957299
-4.20554
0.63755
-2.7035
-1.05719
-1.35879
-1.13264
-1.07533
-1.00437
-0.956593
-0.921474
-0.901763
-0.888597
-3.80263
0.576224
-2.44585
-0.957661
-1.23073
-1.02666
-0.975085
-0.910856
-0.867326
-0.835106
-0.816823
-0.804591
-3.33448
0.504846
-2.14629
-0.841781
-1.08166
-0.90315
-0.858116
-0.801651
-0.763077
-0.734293
-0.717756
-0.706663
-2.80924
0.424711
-1.81007
-0.711581
-0.914162
-0.764206
-0.726405
-0.678596
-0.64559
-0.62072
-0.606218
-0.596455
-2.23591
0.337319
-1.44291
-0.569232
-0.731053
-0.612175
-0.582194
-0.543796
-0.516879
-0.496334
-0.484117
-0.475854
-1.62433
0.244228
-1.05104
-0.417102
-0.535404
-0.449619
-0.427938
-0.399569
-0.37917
-0.363288
-0.353562
-0.346941
-0.985024
0.147008
-0.641162
-0.257783
-0.330543
-0.279307
-0.266279
-0.248401
-0.234848
-0.22389
-0.216818
-0.211954
-0.32902
0.0472566
-0.220326
-0.0940336
-0.119995
-0.104171
-0.100004
-0.0929063
-0.0864152
-0.0805607
-0.0762611
-0.0732393
0.332405
-0.0533895
0.204215
0.0712985
0.0925995
0.0727617
0.0680136
0.0642249
0.0635556
0.0642149
0.0656713
0.0667966
0.987926
-0.153249
0.625162
0.235346
0.303571
0.248434
0.234872
0.220277
0.212472
0.207932
0.206523
0.20573
1.62635
-0.250622
1.0353
0.395284
0.509291
0.419821
0.397696
0.372562
0.357765
0.34811
0.343864
0.341164
2.23679
-0.343831
1.42761
0.548373
0.706234
0.583983
0.553692
0.518462
0.496937
0.482339
0.47533
0.470769
2.80886
-0.431256
1.7954
0.692006
0.891036
0.738113
0.700188
0.655476
0.6276
0.608315
0.598666
0.592321
3.3328
-0.511373
2.13241
0.823739
1.06054
0.879578
0.834681
0.781261
0.747518
0.723879
0.711757
0.703737
3.79968
-0.58279
2.43288
0.941334
1.21187
1.00597
0.954873
0.893666
0.854637
0.827053
0.812667
0.803111
4.20153
-0.644264
2.69169
1.04279
1.34244
1.11512
1.05871
0.990769
0.947127
0.916071
0.899669
0.888742
4.53149
-0.694731
2.90442
1.12639
1.45002
1.20519
1.14442
1.07091
1.0234
0.98941
0.971275
0.959163
4.78392
-0.73332
3.06745
1.19069
1.53277
1.27462
1.21054
1.13272
1.08216
1.04581
1.02626
1.01317
4.95449
-0.759364
3.17798
1.23462
1.58929
1.32223
1.25594
1.17514
1.1224
1.08432
1.06367
1.04983
5.04031
-0.772414
3.23413
1.25741
1.61861
1.3472
1.27985
1.19745
1.14342
1.10426
1.08288
1.06853
5.03989
-0.772247
3.23494
1.25869
1.62022
1.34912
1.28184
1.19926
1.14488
1.1053
1.08356
1.06893
4.95325
-0.758862
3.1804
1.23841
1.59411
1.32794
1.26189
1.18054
1.12673
1.08743
1.06568
1.05104
4.78187
-0.73249
3.07144
1.19695
1.5407
1.28404
1.22034
1.14161
1.0893
1.05094
1.02957
1.01516
4.52868
-0.693582
2.90992
1.13499
1.46093
1.21815
1.1579
1.08314
1.03323
0.996462
0.975839
0.961908
4.19802
-0.642805
2.6986
1.0536
1.35614
1.1314
1.07564
1.00613
0.959465
0.924932
0.905409
0.892199
3.79555
-0.58103
2.4411
0.954167
1.22813
1.02527
0.974947
0.911888
0.869276
0.83757
0.819485
0.807226
3.32814
-0.509317
2.14182
0.838383
1.07907
0.901574
0.857547
0.802019
0.764195
0.735865
0.719531
0.708437
2.8038
-0.428895
1.80587
0.708221
0.911517
0.762404
0.725431
0.678388
0.646007
0.621544
0.607247
0.597511
2.23149
-0.341146
1.43899
0.565898
0.728311
0.61013
0.580839
0.543091
0.516716
0.496547
0.484538
0.476332
1.62101
-0.247574
1.04745
0.413843
0.532582
0.447343
0.426228
0.398422
0.378512
0.362992
0.353486
0.346955
0.982802
-0.149782
0.637969
0.254658
0.327681
0.276823
0.264228
0.246837
0.23374
0.223143
0.216315
0.211577
0.327768
-0.0494447
0.217547
0.091076
0.117131
0.101501
0.0976176
0.0909231
0.0848657
0.0793814
0.0753583
0.0725038
-0.332894
0.0517239
-0.206599
-0.0740757
-0.0954222
-0.0755802
-0.0707175
-0.0666272
-0.06555
-0.0658258
-0.0669695
-0.0678874
-0.987901
0.151995
-0.627182
-0.237928
-0.306273
-0.251314
-0.237818
-0.22305
-0.214881
-0.209954
-0.208205
-0.207181
-1.62607
0.249655
-1.03697
-0.397626
-0.51173
-0.422589
-0.400707
-0.375549
-0.360465
-0.350446
-0.345855
-0.342936
-2.23651
0.343025
-1.42893
-0.550393
-0.708207
-0.586381
-0.556467
-0.52136
-0.499656
-0.484753
-0.477428
-0.472701
-2.80882
0.430486
-1.79636
-0.693608
-0.892333
-0.739862
-0.702363
-0.657867
-0.629921
-0.610417
-0.600507
-0.594056
-3.33321
0.510492
-2.13303
-0.824866
-1.06103
-0.880512
-0.835972
-0.782747
-0.74899
-0.725212
-0.712887
-0.704776
-3.80071
0.5816
-2.43322
-0.942013
-1.21154
-1.00614
-0.955237
-0.894068
-0.854985
-0.827294
-0.812746
-0.803057
-4.2033
0.642499
-2.69176
-1.0431
-1.34139
-1.11476
-1.05833
-0.99017
-0.946348
-0.915175
-0.898652
-0.88759
-4.534
0.692013
-2.90394
-1.1263
-1.44828
-1.20437
-1.14339
-1.06933
-1.02146
-0.987314
-0.969137
-0.95712
-4.78704
0.729392
-3.06592
-1.18986
-1.53047
-1.27321
-1.20861
-1.12984
-1.07866
-1.04206
-1.02246
-1.00962
-4.95815
0.753099
-3.17433
-1.23198
-1.5868
-1.32074
-1.2535
-1.17108
-1.11729
-1.07881
-1.05816
-1.04456
-5.04507
0.766586
-3.23392
-1.25612
-1.61779
-1.34601
-1.27712
-1.19268
-1.13736
-1.09781
-1.07686
-1.06363
)
;

boundaryField
{
    out
    {
        type            implicitExtrapolation;
    }
    in
    {
        type            implicitExtrapolation;
    }
    frontAndBack
    {
        type            empty;
    }
}


// ************************************************************************* //
