/*--------------------------------*- C++ -*----------------------------------*\
| =========                 |                                                 |
| \\      /  F ield         | foam-extend: Open Source CFD                    |
|  \\    /   O peration     | Version:  3.0                                   |
|   \\  /    A nd           | Web:         http://www.extend-project.de       |
|    \\/     M anipulation  |                                                 |
\*---------------------------------------------------------------------------*/
FoamFile
{
    version     2.0;
    format      ascii;
    class       volVectorField;
    location    "9";
    object      s;
}
// * * * * * * * * * * * * * * * * * * * * * * * * * * * * * * * * * * * * * //

dimensions      [0 1 -1 0 0 0 0];

internalField   nonuniform List<vector> 
3012
(
(-2.16841 0.143002 0)
(-1.78081 -0.190588 0)
(-2.52871 0.191052 0)
(-1.69211 0.188534 0)
(-3.09596 0.437174 0)
(-2.09245 0.245165 0)
(-2.99848 -0.241931 0)
(-2.79081 0.131202 0)
(-1.96051 0.261299 0)
(-2.14764 -0.349128 0)
(-1.84008 -0.0374456 0)
(-2.19423 0.493198 0)
(-1.22575 -0.0897167 0)
(-1.93937 0.0943411 0)
(-2.19561 0.0908948 0)
(-1.18068 0.166879 0)
(-3.08243 0.381861 0)
(-2.11209 0.300883 0)
(-2.92534 -0.280101 0)
(-2.80183 0.131345 0)
(-1.24142 0.465619 0)
(-1.61348 -0.205251 0)
(-1.8273 -0.324936 0)
(-1.1826 0.322827 0)
(-2.6189 0.0675852 0)
(-1.9225 -0.0897885 0)
(-1.8946 0.32168 0)
(-2.20302 0.0744326 0)
(-1.81974 0.350152 0)
(-2.02294 0.444834 0)
(-1.32445 -0.12192 0)
(-1.48729 -0.390915 0)
(-1.26301 -0.0984305 0)
(-2.04057 0.403561 0)
(-1.83332 0.325558 0)
(-1.40558 -0.363822 0)
(-2.04168 -0.129643 0)
(-2.66273 0.0850852 0)
(-2.21678 0.0769786 0)
(-2.00258 0.315216 0)
(-1.11815 -0.0755754 0)
(-2.10741 0.0838486 0)
(-1.07357 0.159405 0)
(-1.87245 0.0885294 0)
(-1.24629 -0.0551899 0)
(-1.37183 -0.32298 0)
(-1.87123 0.291938 0)
(-2.0914 0.357482 0)
(-1.21516 -0.321329 0)
(-1.96767 0.3524 0)
(-1.77451 0.300855 0)
(-1.10376 -0.0818406 0)
(-2.15658 0.142376 0)
(-1.71428 -0.177945 0)
(-1.63054 0.189233 0)
(-2.50646 0.182748 0)
(-2.66832 -0.281979 0)
(-2.18837 0.465666 0)
(-3.0155 0.295673 0)
(-2.80809 0.115506 0)
(-2.6929 -0.311011 0)
(-2.16726 0.416147 0)
(-3.00297 0.31826 0)
(-2.83343 0.10341 0)
(-1.25457 -0.0414583 0)
(-1.95596 0.0514699 0)
(-2.22367 0.031455 0)
(-1.22535 0.214982 0)
(-2.07207 -0.122471 0)
(-1.15211 0.320317 0)
(-1.15043 0.119383 0)
(-1.83192 -0.0656914 0)
(-1.74861 0.502682 0)
(-1.50773 -0.445209 0)
(-1.32284 -0.211285 0)
(-1.59943 0.396345 0)
(-1.64524 0.378975 0)
(-1.80435 0.460142 0)
(-1.35876 -0.42355 0)
(-1.20252 -0.190097 0)
(-1.34476 -0.0357265 0)
(-2.00337 0.0461616 0)
(-1.31975 0.238828 0)
(-2.29141 0.0219151 0)
(-2.05376 -0.0185817 0)
(-1.05926 0.238589 0)
(-1.0826 0.030269 0)
(-1.82437 0.00873172 0)
(-1.17184 -0.134362 0)
(-1.94224 0.415228 0)
(-1.75491 0.345013 0)
(-1.30777 -0.380416 0)
(-2.2022 -0.343833 0)
(-1.96362 0.249216 0)
(-1.87714 -0.0339744 0)
(-2.19624 0.497672 0)
(-2.13863 0.0558582 0)
(-2.26903 0.429173 0)
(-2.10854 0.0174075 0)
(-2.61378 -0.144534 0)
(-2.04656 -0.138746 0)
(-1.13336 0.328276 0)
(-1.12972 0.134382 0)
(-1.8116 -0.0792655 0)
(-1.71025 0.508268 0)
(-1.31291 -0.219886 0)
(-1.4988 -0.449768 0)
(-1.56758 0.402259 0)
(-1.7485 -0.366532 0)
(-1.20928 0.347125 0)
(-1.54568 -0.231612 0)
(-1.28263 0.481514 0)
(-1.90021 0.238874 0)
(-2.13183 0.283371 0)
(-1.29608 -0.261821 0)
(-1.19752 0.00455452 0)
(-1.46246 -0.451347 0)
(-1.28665 -0.256973 0)
(-1.48473 0.53491 0)
(-1.37222 0.422966 0)
(-1.69098 -0.160544 0)
(-1.04194 0.229293 0)
(-1.05815 0.362686 0)
(-1.89261 -0.237418 0)
(-2.43281 -0.148573 0)
(-2.26342 0.0338885 0)
(-2.74293 0.187726 0)
(-2.24751 0.376265 0)
(-2.98421 0.105708 0)
(-2.59956 0.737379 0)
(-2.95415 0.0849004 0)
(-2.3787 -0.294515 0)
(-2.51053 -0.142336 0)
(-2.24584 0.0278639 0)
(-2.35679 0.425434 0)
(-2.77909 0.153109 0)
(-2.97916 0.1418 0)
(-3.01285 0.122322 0)
(-2.51869 0.757896 0)
(-2.44141 -0.343072 0)
(-2.60886 0.102662 0)
(-1.81933 0.290015 0)
(-2.19805 0.0895886 0)
(-1.86779 -0.117984 0)
(-2.96924 0.233598 0)
(-2.32703 0.541209 0)
(-2.50128 -0.282304 0)
(-2.85512 0.0464894 0)
(-2.90782 0.246388 0)
(-2.31016 0.550972 0)
(-2.42512 -0.209413 0)
(-2.78372 0.021034 0)
(-1.02379 -0.0363488 0)
(-1.7671 0.252861 0)
(-1.1111 -0.265207 0)
(-1.96519 0.28956 0)
(-1.25577 -0.337364 0)
(-1.97984 0.372861 0)
(-1.78414 0.314375 0)
(-1.13569 -0.0922011 0)
(-1.6936 -0.389637 0)
(-1.49683 -0.2419 0)
(-1.32934 0.500329 0)
(-1.24581 0.369464 0)
(-2.22796 0.0759831 0)
(-2.31922 -0.127345 0)
(-2.73914 0.0623901 0)
(-2.30967 0.374569 0)
(-1.27663 -0.11706 0)
(-2.01613 0.425524 0)
(-1.81432 0.341537 0)
(-1.42768 -0.381715 0)
(-2.83763 0.33687 0)
(-2.73367 -0.0257324 0)
(-2.4322 -0.170992 0)
(-2.18947 0.408734 0)
(-2.36195 -0.0582033 0)
(-2.80046 0.313065 0)
(-2.25094 0.396108 0)
(-2.65361 -0.0977232 0)
(-2.22009 0.0806902 0)
(-2.34663 -0.160122 0)
(-2.75218 0.086205 0)
(-2.3142 0.374278 0)
(-1.57971 0.50408 0)
(-1.78562 -0.173527 0)
(-1.48125 0.29901 0)
(-2.06358 -0.34107 0)
(-1.53292 0.331581 0)
(-1.99262 -0.382209 0)
(-1.65301 0.52275 0)
(-1.72614 -0.188651 0)
(-1.73026 -0.379089 0)
(-1.52781 -0.235672 0)
(-1.31997 0.497719 0)
(-1.23979 0.362762 0)
(-1.58927 -0.387933 0)
(-2.08793 0.446489 0)
(-1.86988 0.338732 0)
(-1.41459 -0.102799 0)
(-1.2449 -0.0156525 0)
(-1.94157 0.0354349 0)
(-1.22051 0.233077 0)
(-2.20577 0.00975926 0)
(-1.25334 -0.110319 0)
(-2.211 0.113597 0)
(-1.95199 0.110598 0)
(-1.20192 0.152312 0)
(-1.04985 -0.211039 0)
(-1.95581 0.229419 0)
(-0.981593 0.0114739 0)
(-1.75696 0.204417 0)
(-1.06052 0.245237 0)
(-1.69118 -0.163127 0)
(-1.90061 -0.243473 0)
(-1.07854 0.390344 0)
(-2.28766 -0.0080359 0)
(-1.32971 0.262581 0)
(-1.3457 -0.00655699 0)
(-1.99764 0.0254656 0)
(-1.495 -0.463059 0)
(-1.37522 0.420966 0)
(-1.31483 -0.267435 0)
(-1.48879 0.535908 0)
(-1.32908 -0.135987 0)
(-1.79095 0.355784 0)
(-1.49506 -0.400349 0)
(-1.9854 0.452653 0)
(-1.10888 0.241875 0)
(-1.70004 -0.153543 0)
(-1.13555 0.393104 0)
(-1.91418 -0.240102 0)
(-1.35665 -0.250928 0)
(-1.51409 0.522853 0)
(-1.39928 0.406044 0)
(-1.54043 -0.447669 0)
(-2.05596 0.462546 0)
(-1.61481 -0.398493 0)
(-1.4312 -0.117545 0)
(-1.84586 0.348371 0)
(-1.24571 0.460362 0)
(-1.64323 -0.195368 0)
(-1.86176 -0.313083 0)
(-1.18959 0.311326 0)
(-1.2151 0.339012 0)
(-1.7976 -0.349483 0)
(-1.2846 0.480575 0)
(-1.58643 -0.218593 0)
(-1.62259 0.509694 0)
(-1.79266 -0.169571 0)
(-1.51703 0.301031 0)
(-2.07486 -0.345199 0)
(-1.54783 0.316938 0)
(-1.66697 0.517963 0)
(-2.03956 -0.371592 0)
(-1.7629 -0.179861 0)
(-2.47702 -0.240991 0)
(-1.95844 0.141178 0)
(-2.05118 -0.00995795 0)
(-2.13085 0.492351 0)
(-1.10484 -0.151457 0)
(-1.68794 0.350491 0)
(-1.23369 -0.381879 0)
(-1.85656 0.413686 0)
(-1.0434 -0.0628288 0)
(-2.02705 0.079159 0)
(-1.00121 0.153547 0)
(-1.80984 0.0835826 0)
(-1.71926 0.513374 0)
(-1.59372 0.301393 0)
(-1.79303 -0.16497 0)
(-2.08223 -0.362681 0)
(-1.15458 -0.0773204 0)
(-2.12485 0.0860181 0)
(-1.10921 0.160779 0)
(-1.88608 0.09038 0)
(-1.22173 -0.0633962 0)
(-1.93776 0.0740019 0)
(-2.19626 0.0643187 0)
(-1.18264 0.188876 0)
(-2.19283 0.108683 0)
(-1.83727 -0.174324 0)
(-1.77141 0.22995 0)
(-2.5839 0.137206 0)
(-1.01067 -0.021545 0)
(-1.96679 0.272328 0)
(-1.76696 0.238379 0)
(-1.09226 -0.248376 0)
(-2.71354 -0.117833 0)
(-2.20637 0.0350852 0)
(-2.64962 0.480488 0)
(-2.79423 0.0763295 0)
(-2.83582 -0.145969 0)
(-2.80858 0.485646 0)
(-2.18351 0.0659186 0)
(-2.81372 0.07147 0)
(-1.21341 -0.0567232 0)
(-1.86254 0.290245 0)
(-1.33406 -0.321125 0)
(-2.08039 0.351555 0)
(-1.76926 0.52344 0)
(-1.63465 0.309792 0)
(-1.78986 -0.159523 0)
(-2.0816 -0.367695 0)
(-1.28485 -0.277627 0)
(-1.8767 0.257864 0)
(-2.10089 0.307168 0)
(-1.18052 -0.016212 0)
(-2.18717 0.104998 0)
(-1.84283 -0.145745 0)
(-1.77895 0.250075 0)
(-2.5783 0.133857 0)
(-2.4785 -0.222242 0)
(-1.92093 0.126434 0)
(-2.05811 -0.0213164 0)
(-2.06634 0.4724 0)
(-1.82207 -0.420499 0)
(-1.60758 0.532501 0)
(-1.48586 0.373633 0)
(-1.58982 -0.221922 0)
(-1.08358 0.00161182 0)
(-2.06645 0.00792388 0)
(-1.836 0.0293091 0)
(-1.0553 0.216222 0)
(-1.33761 0.284866 0)
(-1.76445 -0.17339 0)
(-1.4072 0.473803 0)
(-2.0209 -0.307507 0)
(-2.13377 0.0159881 0)
(-2.13668 0.427217 0)
(-2.003 0.0377323 0)
(-2.5893 -0.161342 0)
(-2.07678 -0.0419356 0)
(-1.11191 0.0431472 0)
(-1.09361 0.255233 0)
(-1.84088 -0.00799163 0)
(-1.81217 0.473225 0)
(-1.6518 0.384485 0)
(-1.40545 -0.425926 0)
(-1.24038 -0.189734 0)
(-1.83718 0.451755 0)
(-1.67235 0.373596 0)
(-1.33764 -0.413892 0)
(-1.18595 -0.177734 0)
(-1.2237 -0.219037 0)
(-1.7133 0.486346 0)
(-1.56974 0.397053 0)
(-1.39287 -0.445831 0)
(-1.06357 0.0931512 0)
(-2.01526 -0.0849455 0)
(-1.05279 0.286649 0)
(-1.79028 -0.0429751 0)
(-1.04106 -0.188156 0)
(-1.96334 0.211278 0)
(-0.972576 0.0356775 0)
(-1.76344 0.188553 0)
(-1.00749 -0.0714799 0)
(-1.72312 0.276909 0)
(-1.9077 0.316656 0)
(-1.10039 -0.292693 0)
(-1.25028 -0.213047 0)
(-1.72452 0.488088 0)
(-1.42291 -0.441136 0)
(-1.57992 0.395102 0)
(-1.08976 0.0963073 0)
(-2.02896 -0.0931276 0)
(-1.80097 -0.0477882 0)
(-1.08164 0.291381 0)
(-1.80646 0.348676 0)
(-1.82575 -0.411355 0)
(-1.59471 -0.136174 0)
(-2.00212 0.50543 0)
(-1.86211 0.340158 0)
(-1.82193 -0.407283 0)
(-2.07541 0.492827 0)
(-1.59661 -0.116174 0)
(-2.11833 -0.258304 0)
(-1.42145 0.443699 0)
(-1.84384 -0.138747 0)
(-1.36338 0.231491 0)
(-1.58535 -0.202513 0)
(-1.589 0.374315 0)
(-1.73227 0.534916 0)
(-1.82159 -0.42633 0)
(-1.26751 -0.0403349 0)
(-1.8961 0.278491 0)
(-2.12433 0.342849 0)
(-1.39063 -0.314407 0)
(-1.82016 0.522895 0)
(-1.87119 -0.130514 0)
(-1.68423 0.279374 0)
(-2.19245 -0.337137 0)
(-1.86725 0.508021 0)
(-1.90892 -0.1088 0)
(-1.7277 0.248763 0)
(-2.24647 -0.318777 0)
(-1.60989 -0.221741 0)
(-1.41299 0.503167 0)
(-1.3245 0.349237 0)
(-1.83389 -0.37777 0)
(-1.48781 0.370901 0)
(-1.45867 0.104397 0)
(-1.99362 -0.050291 0)
(-2.30566 -0.131682 0)
(-1.25358 -0.160305 0)
(-1.93458 0.15207 0)
(-1.18675 0.103329 0)
(-2.18409 0.168561 0)
(-2.24959 -0.247151 0)
(-2.23464 0.118706 0)
(-2.63396 0.301255 0)
(-2.02343 0.210638 0)
(-1.50071 0.353681 0)
(-2.02973 -0.024317 0)
(-1.48314 0.0721105 0)
(-2.35129 -0.0917935 0)
(-2.48346 0.506658 0)
(-2.82034 0.151301 0)
(-2.29526 -0.0921765 0)
(-2.74686 -0.074138 0)
(-1.36862 -0.231258 0)
(-1.52107 0.407275 0)
(-1.56167 -0.454461 0)
(-1.65587 0.525318 0)
(-1.16023 -0.37073 0)
(-1.67039 0.353817 0)
(-1.03983 -0.146303 0)
(-1.83216 0.411311 0)
(-1.77966 0.0969607 0)
(-1.98976 0.0971547 0)
(-0.945974 0.120639 0)
(-0.98846 -0.0907754 0)
(-1.79143 -0.115982 0)
(-1.15387 0.185145 0)
(-1.17174 0.369192 0)
(-2.02683 -0.192685 0)
(-1.99992 -0.0858424 0)
(-1.72111 0.449102 0)
(-2.35298 -0.227102 0)
(-1.63615 0.162414 0)
(-2.02662 -0.066994 0)
(-1.71217 0.437511 0)
(-2.38517 -0.195814 0)
(-1.63776 0.140258 0)
(-1.45552 -0.448612 0)
(-1.27022 -0.248915 0)
(-1.52275 0.52518 0)
(-1.40649 0.421681 0)
(-2.45858 -0.178108 0)
(-1.83003 0.438588 0)
(-2.07208 -0.0435948 0)
(-1.7442 0.111465 0)
(-1.06099 0.350085 0)
(-1.04121 0.202209 0)
(-1.7052 -0.141867 0)
(-1.9107 -0.214455 0)
(-2.1618 0.966331 0)
(-3.09165 -0.88097 0)
(-3.68631 0.0334095 0)
(-2.99898 0.485144 0)
(-2.10438 -0.249856 0)
(-1.37499 0.437085 0)
(-1.32413 0.229948 0)
(-1.83515 -0.137705 0)
(-1.91833 0.304884 0)
(-0.999662 -0.0536734 0)
(-1.08886 -0.27417 0)
(-1.72994 0.266592 0)
(-2.15218 0.274449 0)
(-2.68815 0.310293 0)
(-2.26723 0.0468903 0)
(-2.45762 -0.209718 0)
(-1.75038 0.419566 0)
(-2.43916 -0.165801 0)
(-2.06422 -0.0471389 0)
(-1.68262 0.104203 0)
(-1.45831 0.515955 0)
(-1.60304 -0.225651 0)
(-1.36146 0.3602 0)
(-1.82969 -0.392353 0)
(-1.55024 -0.213989 0)
(-1.57321 0.383656 0)
(-1.71571 0.53602 0)
(-1.77759 -0.437394 0)
(-1.30477 -0.0532171 0)
(-1.98036 0.0633152 0)
(-1.27254 0.213518 0)
(-2.25621 0.0465658 0)
(-2.15502 0.609714 0)
(-2.98171 -0.413165 0)
(-3.3278 0.279903 0)
(-2.86827 0.284804 0)
(-1.78591 -0.426551 0)
(-1.62165 0.535472 0)
(-1.4963 0.381964 0)
(-1.55918 -0.222895 0)
(-1.31029 0.268413 0)
(-1.77314 -0.167816 0)
(-1.37332 0.45721 0)
(-2.02781 -0.292888 0)
(-1.48564 0.00138134 0)
(-2.28328 0.356145 0)
(-1.63305 -0.320293 0)
(-2.01341 0.265761 0)
(-1.20341 -0.121783 0)
(-1.96551 0.408686 0)
(-1.77416 0.336891 0)
(-1.34157 -0.372423 0)
(-2.15347 0.124868 0)
(-2.77899 0.471309 0)
(-2.74303 -0.143581 0)
(-2.78206 0.0699165 0)
(-1.15166 0.32081 0)
(-1.8115 -0.316603 0)
(-1.20506 0.459143 0)
(-1.60228 -0.202819 0)
(-2.28751 0.378308 0)
(-1.51912 -0.00764675 0)
(-1.68043 -0.334742 0)
(-2.01616 0.275981 0)
(-1.2909 0.388491 0)
(-1.62947 -0.427537 0)
(-1.43951 -0.2614 0)
(-1.38795 0.513724 0)
(-1.30586 0.385488 0)
(-1.66082 -0.420628 0)
(-1.46504 -0.253786 0)
(-1.40326 0.515264 0)
(-2.25054 0.22824 0)
(-1.29113 0.0722416 0)
(-1.9858 0.192285 0)
(-1.3774 -0.217486 0)
(-3.24826 0.10648 0)
(-2.97783 0.813773 0)
(-2.22915 -0.254202 0)
(-2.88825 -0.00295648 0)
(-1.76253 0.535339 0)
(-1.70972 -0.440913 0)
(-1.6111 0.393914 0)
(-1.49236 -0.206533 0)
(-2.18481 0.349218 0)
(-1.33521 -0.0243403 0)
(-1.46591 -0.315598 0)
(-1.94176 0.277249 0)
(-1.31786 0.0639773 0)
(-1.41259 -0.230168 0)
(-1.99574 0.20414 0)
(-2.26234 0.247804 0)
(-1.04674 -0.0384891 0)
(-1.77433 0.258608 0)
(-1.973 0.297481 0)
(-1.13777 -0.269463 0)
(-1.80558 0.529455 0)
(-1.72004 -0.437665 0)
(-1.50228 -0.196315 0)
(-1.64721 0.387443 0)
(-1.28683 0.18331 0)
(-1.32198 0.396565 0)
(-1.86354 -0.11433 0)
(-2.13033 -0.208458 0)
(-1.30976 0.166151 0)
(-1.34174 0.387982 0)
(-1.88712 -0.100185 0)
(-2.16082 -0.190465 0)
(-1.3655 0.0784463 0)
(-2.01811 0.199073 0)
(-1.46205 -0.224992 0)
(-2.29362 0.245591 0)
(-1.52505 -0.452619 0)
(-1.52548 0.407525 0)
(-1.33539 -0.228165 0)
(-1.66016 0.519408 0)
(-2.19499 0.354213 0)
(-1.50509 -0.322766 0)
(-1.36933 -0.0278313 0)
(-1.9497 0.277851 0)
(-1.23457 -0.135335 0)
(-1.92969 0.136487 0)
(-1.17346 0.123617 0)
(-2.17855 0.147694 0)
(-1.78953 -0.105899 0)
(-1.13137 0.167358 0)
(-1.14315 0.350921 0)
(-2.0211 -0.175448 0)
(-1.92524 -0.332452 0)
(-3.76523 -0.000471249 0)
(-3.56442 0.819794 0)
(-2.72077 -0.160221 0)
(-1.38559 0.103992 0)
(-1.47445 -0.205991 0)
(-2.04179 0.181082 0)
(-2.32845 0.220653 0)
(-2.1828 0.406493 0)
(-1.61775 -0.364533 0)
(-1.94036 0.305093 0)
(-1.45298 -0.0613321 0)
(-1.78768 -0.0729258 0)
(-2.14154 0.507801 0)
(-1.91693 0.294592 0)
(-2.07657 -0.376847 0)
(-3.08107 0.0122894 0)
(-2.84714 0.684533 0)
(-2.23657 -0.164269 0)
(-2.8636 0.0476917 0)
(-2.21968 0.112804 0)
(-2.51925 -0.114242 0)
(-2.79188 0.0363755 0)
(-2.57518 0.436264 0)
(-1.99393 0.291622 0)
(-1.76898 -0.359673 0)
(-2.25657 0.416543 0)
(-1.58122 -0.0313591 0)
(-1.2768 -0.0777735 0)
(-2.07485 0.391413 0)
(-1.41638 -0.348091 0)
(-1.86008 0.315006 0)
(-2.16266 0.191572 0)
(-2.00156 -0.284897 0)
(-1.81518 0.11464 0)
(-2.50694 0.328696 0)
(-1.09009 -0.226474 0)
(-1.7807 0.22268 0)
(-1.01215 0.00139909 0)
(-1.98476 0.253442 0)
(-1.16007 -0.354355 0)
(-1.68874 0.34514 0)
(-1.85757 0.402627 0)
(-1.04218 -0.129428 0)
(-2.15286 0.195425 0)
(-2.04212 -0.30073 0)
(-2.49795 0.349051 0)
(-1.83753 0.105911 0)
(-1.10488 -0.21569 0)
(-2.00318 0.239168 0)
(-1.79637 0.210742 0)
(-1.02876 0.0158056 0)
(-1.78625 0.111941 0)
(-0.958329 0.105631 0)
(-1.99634 0.115685 0)
(-1.00536 -0.112387 0)
(-2.18493 0.39744 0)
(-1.42577 -0.0473294 0)
(-1.58365 -0.3468 0)
(-1.94269 0.301764 0)
(-2.58797 0.398879 0)
(-2.74009 -0.0577431 0)
(-2.17697 0.17536 0)
(-2.38022 -0.108676 0)
(-1.97643 0.302802 0)
(-1.72282 -0.365167 0)
(-1.5401 -0.0439678 0)
(-2.23201 0.422227 0)
(-2.13446 0.410018 0)
(-2.19976 0.0554834 0)
(-2.08724 -0.043057 0)
(-2.68298 -0.0207292 0)
(-2.13384 0.549276 0)
(-2.6407 -0.306343 0)
(-3.05114 0.321615 0)
(-2.78764 0.1342 0)
(-2.69483 0.277338 0)
(-2.14098 0.299444 0)
(-2.40607 -0.193907 0)
(-2.26264 0.0505669 0)
(-2.28181 0.395495 0)
(-2.28957 0.0117534 0)
(-2.76831 0.217101 0)
(-2.51733 -0.138975 0)
(-2.05839 -0.0619603 0)
(-2.08071 0.381334 0)
(-2.66822 0.00777871 0)
(-2.2031 0.0598586 0)
(-1.08485 -0.119055 0)
(-1.72444 0.334064 0)
(-1.20483 -0.351947 0)
(-1.90397 0.391569 0)
(-1.10556 -0.132688 0)
(-1.90249 0.401979 0)
(-1.72373 0.340523 0)
(-1.23088 -0.368542 0)
(-3.19842 -0.759716 0)
(-2.04807 0.982711 0)
(-3.68246 0.072179 0)
(-2.87712 0.547056 0)
(-1.85755 0.331614 0)
(-2.07147 0.426404 0)
(-1.3631 -0.101788 0)
(-1.52462 -0.380024 0)
(-2.33294 0.324413 0)
(-2.04869 0.242568 0)
(-1.63457 -0.296576 0)
(-1.49846 0.0320013 0)
(-1.11153 0.360872 0)
(-1.09542 0.196465 0)
(-1.74074 -0.130774 0)
(-1.95843 -0.20523 0)
(-1.95366 -0.225732 0)
(-1.13715 0.382031 0)
(-1.7334 -0.143063 0)
(-1.11412 0.220183 0)
(-1.57518 0.52267 0)
(-1.50527 -0.452181 0)
(-1.45392 0.412393 0)
(-1.31734 -0.237986 0)
(-3.7109 0.222044 0)
(-1.96266 -0.397065 0)
(-3.45112 1.05851 0)
(-2.75529 -0.166326 0)
(-1.19868 -0.331436 0)
(-1.94067 0.368301 0)
(-1.7528 0.315376 0)
(-1.08492 -0.0959433 0)
(-1.55944 0.528783 0)
(-1.43918 0.411829 0)
(-1.35113 -0.244668 0)
(-1.53916 -0.453608 0)
(-1.92448 0.244113 0)
(-0.967785 -0.00763338 0)
(-1.04047 -0.222259 0)
(-1.72905 0.215684 0)
(-1.55881 0.520997 0)
(-1.4733 -0.451618 0)
(-1.44036 0.415754 0)
(-1.28544 -0.238986 0)
(-1.08075 0.347935 0)
(-1.72917 -0.131469 0)
(-1.06725 0.189859 0)
(-1.94063 -0.201973 0)
(-1.25086 0.340467 0)
(-1.82089 -0.356881 0)
(-1.32572 0.488142 0)
(-1.60386 -0.21847 0)
(-2.20769 0.079616 0)
(-2.33337 -0.0882279 0)
(-2.74912 0.030411 0)
(-2.359 0.43327 0)
(-1.5542 0.115993 0)
(-2.42339 0.241486 0)
(-1.65907 -0.230121 0)
(-2.10766 0.182826 0)
(-2.21573 0.117239 0)
(-1.95046 -0.187118 0)
(-2.61541 0.177549 0)
(-1.85409 0.234391 0)
(-1.95506 -0.029755 0)
(-1.94314 0.210898 0)
(-2.32169 -0.311 0)
(-2.15321 0.499451 0)
(-2.03119 -0.173606 0)
(-2.22761 0.0994211 0)
(-2.64633 0.155937 0)
(-1.9401 0.264353 0)
(-2.08866 -0.159885 0)
(-2.23175 0.0870759 0)
(-2.67574 0.113191 0)
(-2.03113 0.292902 0)
(-1.88609 0.104084 0)
(-2.11371 -0.309239 0)
(-2.51093 0.355021 0)
(-2.16019 0.179224 0)
(-1.75586 0.512915 0)
(-1.60454 0.398143 0)
(-1.55741 -0.451231 0)
(-1.36505 -0.214544 0)
(-2.19763 -0.243447 0)
(-1.50157 0.441884 0)
(-1.43848 0.207139 0)
(-1.90079 -0.120461 0)
(-2.0035 -0.0131823 0)
(-1.97698 0.174481 0)
(-2.39942 -0.284134 0)
(-2.1812 0.492842 0)
(-1.82781 0.533808 0)
(-1.66885 0.361123 0)
(-1.63363 -0.180243 0)
(-1.88354 -0.420086 0)
(-1.92858 -0.119453 0)
(-1.7113 0.485625 0)
(-2.25844 -0.286394 0)
(-1.60955 0.227963 0)
(-2.09323 -0.142332 0)
(-1.18171 0.137811 0)
(-1.18993 0.343131 0)
(-1.84528 -0.0776437 0)
(-2.43623 0.272399 0)
(-1.58967 0.100155 0)
(-1.71235 -0.254301 0)
(-2.11739 0.19842 0)
(-2.32558 0.306147 0)
(-1.58596 -0.283988 0)
(-2.04253 0.234571 0)
(-1.46117 0.0404864 0)
(-1.44461 0.176945 0)
(-1.49904 0.426612 0)
(-1.94084 -0.101643 0)
(-2.24787 -0.213737 0)
(-1.69811 0.29215 0)
(-0.996471 -0.085088 0)
(-1.87578 0.33524 0)
(-1.09302 -0.301096 0)
(-1.01411 -0.17511 0)
(-0.949825 0.0549149 0)
(-1.94678 0.18873 0)
(-1.74949 0.171678 0)
(-1.87158 -0.426651 0)
(-1.71602 0.364621 0)
(-1.62295 -0.172498 0)
(-1.8891 0.535923 0)
(-1.70838 0.495786 0)
(-1.89468 -0.132538 0)
(-2.2134 -0.30802 0)
(-1.60011 0.250572 0)
(-1.32514 0.0213264 0)
(-2.23441 0.30227 0)
(-1.43873 -0.274334 0)
(-1.97677 0.243448 0)
(-1.9195 0.243449 0)
(-2.15696 0.293804 0)
(-1.34529 -0.267059 0)
(-1.24058 0.00613571 0)
(-2.23592 0.11101 0)
(-1.9698 0.108049 0)
(-1.29374 -0.109231 0)
(-1.24354 0.159454 0)
(-1.65991 0.354281 0)
(-1.92055 -0.419541 0)
(-1.81715 0.534776 0)
(-1.6631 -0.182199 0)
(-1.25006 0.254267 0)
(-1.29935 0.435364 0)
(-2.00815 -0.267752 0)
(-1.76379 -0.157916 0)
(-1.45623 0.406707 0)
(-1.18215 -0.228636 0)
(-1.57337 0.49045 0)
(-1.3552 -0.444064 0)
(-2.68366 0.360203 0)
(-2.29556 -0.00234052 0)
(-2.14057 0.290061 0)
(-2.5552 -0.156841 0)
(-1.49737 -0.230672 0)
(-1.6076 0.531544 0)
(-1.70961 -0.436782 0)
(-1.48194 0.391259 0)
(-2.13803 0.24377 0)
(-2.65763 -0.115722 0)
(-2.64472 0.392651 0)
(-2.32705 -0.0620784 0)
(-2.6234 0.351412 0)
(-2.08298 0.219805 0)
(-2.23926 0.0834532 0)
(-2.3997 -0.23242 0)
(-1.90933 -0.132909 0)
(-1.00015 0.133517 0)
(-1.70773 -0.084222 0)
(-0.996872 0.296175 0)
(-2.46005 0.370263 0)
(-2.23841 0.0508825 0)
(-2.52927 -0.18925 0)
(-2.79101 0.0948047 0)
(-2.71468 0.390252 0)
(-2.16508 0.300466 0)
(-2.34555 -0.0663234 0)
(-2.67178 -0.110777 0)
(-2.13369 0.254824 0)
(-2.63128 0.409503 0)
(-2.67566 -0.093326 0)
(-2.32377 -0.0676861 0)
(-2.06135 0.259754 0)
(-1.87022 -0.346047 0)
(-2.35343 0.397997 0)
(-1.6731 0.00926985 0)
(-1.57884 0.388694 0)
(-1.18379 -0.212189 0)
(-1.7235 0.469774 0)
(-1.34256 -0.436288 0)
(-1.02272 0.260544 0)
(-1.78016 -0.0186516 0)
(-2.00028 -0.0517734 0)
(-1.04034 0.0663546 0)
(-2.24133 0.105219 0)
(-2.18603 -0.182794 0)
(-2.68383 0.202709 0)
(-2.05237 0.297466 0)
(-1.94869 -0.307322 0)
(-1.31815 0.458191 0)
(-1.71226 -0.183999 0)
(-1.25738 0.289389 0)
(-1.53289 0.528985 0)
(-1.52234 -0.233295 0)
(-1.4206 0.385153 0)
(-1.73678 -0.421276 0)
(-2.26064 0.0847147 0)
(-2.29207 -0.190367 0)
(-2.11545 0.301467 0)
(-2.70861 0.224817 0)
(-1.40392 0.110285 0)
(-1.97859 -0.0549678 0)
(-1.42818 0.368864 0)
(-2.28203 -0.1329 0)
(-1.9629 -0.0989852 0)
(-1.63958 0.444212 0)
(-2.29266 -0.23579 0)
(-1.56199 0.179101 0)
(-1.77769 0.365601 0)
(-1.96799 0.514432 0)
(-1.55209 -0.157377 0)
(-1.77571 -0.427817 0)
(-1.98779 -0.291592 0)
(-1.3251 0.447641 0)
(-1.26704 0.270652 0)
(-1.74477 -0.171831 0)
(-1.52281 -0.229018 0)
(-1.73973 -0.426108 0)
(-1.45972 0.388091 0)
(-1.57873 0.533474 0)
(-1.88022 0.465524 0)
(-2.02573 -0.0585125 0)
(-1.7719 0.154087 0)
(-2.40878 -0.225984 0)
(-1.7008 0.521381 0)
(-1.38682 -0.22306 0)
(-1.55891 0.401685 0)
(-1.58232 -0.451332 0)
(-1.10975 -0.0155416 0)
(-1.86211 0.043941 0)
(-2.09884 0.0265185 0)
(-1.07809 0.208528 0)
(-2.30753 0.0946784 0)
(-2.01956 0.0968434 0)
(-1.3252 0.185858 0)
(-1.37176 -0.100813 0)
(-1.93186 -0.110386 0)
(-1.63667 0.460273 0)
(-1.55433 0.20666 0)
(-2.25272 -0.253725 0)
(-1.70299 0.526398 0)
(-1.42487 -0.221321 0)
(-1.56079 0.399545 0)
(-1.62709 -0.4489 0)
(-1.20347 -0.286954 0)
(-1.10288 -0.0427304 0)
(-2.01804 0.31437 0)
(-1.81172 0.269731 0)
(-1.54685 0.343449 0)
(-1.69887 -0.191819 0)
(-1.96134 -0.390906 0)
(-1.67111 0.529447 0)
(-1.09189 -0.0579881 0)
(-1.19724 -0.29721 0)
(-1.98709 0.33538 0)
(-1.78816 0.286882 0)
(-1.19932 0.365334 0)
(-1.81712 -0.104016 0)
(-1.18249 0.1717 0)
(-2.06051 -0.179215 0)
(-2.0931 0.239524 0)
(-1.90234 -0.324589 0)
(-1.70884 0.0433137 0)
(-2.39904 0.375686 0)
(-2.19479 -0.256409 0)
(-1.52727 0.464651 0)
(-1.458 0.228287 0)
(-1.89267 -0.125369 0)
(-1.41285 -0.138183 0)
(-1.59698 -0.407561 0)
(-1.99796 0.470252 0)
(-1.80132 0.357173 0)
(-1.54467 0.496718 0)
(-1.80333 -0.164881 0)
(-1.45571 0.288426 0)
(-2.08278 -0.320714 0)
(-1.6079 0.390198 0)
(-1.75835 0.470359 0)
(-1.1755 -0.201611 0)
(-1.33198 -0.428199 0)
(-1.89022 -0.418484 0)
(-1.75001 0.352702 0)
(-1.63964 -0.157537 0)
(-1.9303 0.526274 0)
(-1.52861 0.414394 0)
(-1.96207 -0.0858188 0)
(-1.47651 0.156703 0)
(-2.27705 -0.194751 0)
(-1.23838 0.382108 0)
(-1.82226 -0.113415 0)
(-1.21374 0.18595 0)
(-2.07099 -0.19701 0)
(-1.883 0.44521 0)
(-1.35104 -0.409422 0)
(-1.20071 -0.166834 0)
(-1.70837 0.36627 0)
(-1.7973 -0.00489577 0)
(-2.01988 -0.0348624 0)
(-1.02394 0.241553 0)
(-1.04457 0.0409671 0)
(-2.24626 -0.0309491 0)
(-1.29917 0.275255 0)
(-1.30979 0.0197139 0)
(-1.96715 0.00866133 0)
(-2.50812 -0.196746 0)
(-2.22432 0.0659258 0)
(-2.08873 0.191237 0)
(-2.55029 0.421257 0)
(-2.58671 -0.136493 0)
(-2.1505 0.289049 0)
(-2.29203 0.00228904 0)
(-2.65888 0.384969 0)
(-2.27982 -0.0829685 0)
(-1.36449 0.0577523 0)
(-1.37147 0.318884 0)
(-1.98569 -0.0248441 0)
(-1.20875 -0.248731 0)
(-2.07179 0.26936 0)
(-1.11892 0.0021013 0)
(-1.85213 0.232324 0)
(-1.3635 0.400083 0)
(-1.40926 -0.259327 0)
(-1.59917 -0.444708 0)
(-1.47311 0.52415 0)
(-1.27875 -0.322701 0)
(-1.80743 0.301958 0)
(-2.00848 0.359892 0)
(-1.16012 -0.0740265 0)
(-2.23972 0.0945108 0)
(-2.68492 0.185222 0)
(-2.17934 -0.169107 0)
(-2.05456 0.303464 0)
(-2.4499 -0.155603 0)
(-2.33529 0.390971 0)
(-2.23989 0.0532363 0)
(-2.76298 0.139829 0)
(-1.32523 -0.338072 0)
(-2.02488 0.37647 0)
(-1.19796 -0.0826303 0)
(-1.81999 0.311638 0)
(-1.17041 0.41923 0)
(-1.70132 -0.161843 0)
(-1.13575 0.263425 0)
(-1.92218 -0.256149 0)
(-1.67039 -0.175239 0)
(-1.18081 0.430643 0)
(-1.88707 -0.276121 0)
(-1.13985 0.28127 0)
(-1.3976 0.403835 0)
(-1.5864 -0.453113 0)
(-1.51366 0.526467 0)
(-1.39637 -0.257748 0)
(-1.30136 0.0357196 0)
(-2.22823 0.279027 0)
(-1.40554 -0.254525 0)
(-1.97188 0.227958 0)
(-1.66147 0.369563 0)
(-1.82385 0.441785 0)
(-1.1458 -0.17707 0)
(-1.28927 -0.407459 0)
(-2.42451 0.492626 0)
(-2.7567 -0.0881093 0)
(-2.31446 -0.118834 0)
(-2.83627 0.192207 0)
(-1.69136 0.355373 0)
(-1.13481 -0.16288 0)
(-1.86128 0.422676 0)
(-1.27079 -0.397753 0)
(-1.8038 -0.377308 0)
(-1.28485 0.354119 0)
(-1.58649 -0.227703 0)
(-1.36907 0.501741 0)
(-1.78794 0.506025 0)
(-1.63186 0.391038 0)
(-1.56996 -0.442822 0)
(-1.37817 -0.203049 0)
(-1.73869 -0.358857 0)
(-1.17687 0.34666 0)
(-1.24476 0.478012 0)
(-1.5384 -0.231112 0)
(-2.03818 0.0269769 0)
(-1.02032 0.197923 0)
(-1.81557 0.0435024 0)
(-1.05251 -0.0136392 0)
(-1.02182 0.176472 0)
(-2.04914 0.0621112 0)
(-1.06132 -0.0414913 0)
(-1.82585 0.070535 0)
(-2.11369 -0.129661 0)
(-1.86135 -0.0669122 0)
(-1.20599 0.124023 0)
(-1.21268 0.334629 0)
(-1.6695 -0.397375 0)
(-1.47673 -0.250454 0)
(-1.31318 0.503281 0)
(-1.23006 0.375514 0)
(-1.81764 0.116706 0)
(-1.05727 -0.112092 0)
(-1.00493 0.113329 0)
(-2.03523 0.121226 0)
(-1.06185 -0.0899278 0)
(-2.04861 0.0987561 0)
(-1.01487 0.1346 0)
(-1.82719 0.0990378 0)
(-2.31586 0.125155 0)
(-2.02745 0.117036 0)
(-1.33506 0.169279 0)
(-1.39119 -0.124277 0)
(-1.69307 -0.41585 0)
(-1.4876 -0.142456 0)
(-1.99929 0.498169 0)
(-1.80244 0.365573 0)
(-2.07685 0.20387 0)
(-1.91992 0.0472388 0)
(-2.24267 -0.31111 0)
(-2.35879 0.456894 0)
(-1.36553 0.328975 0)
(-1.91893 -0.362806 0)
(-1.45414 0.499117 0)
(-1.67809 -0.205856 0)
(-1.63894 0.372559 0)
(-1.79654 0.443015 0)
(-1.26985 -0.413741 0)
(-1.12898 -0.186893 0)
(-1.79797 0.0400523 0)
(-2.01632 0.0235648 0)
(-1.0278 -0.00404882 0)
(-0.996438 0.201753 0)
(-2.11343 0.195651 0)
(-2.42134 0.443295 0)
(-1.92929 0.0744697 0)
(-2.24212 -0.308342 0)
(-1.36889 0.316715 0)
(-1.96434 -0.348505 0)
(-1.45401 0.495831 0)
(-1.71456 -0.195994 0)
(-1.74104 -0.412906 0)
(-1.5306 -0.242236 0)
(-1.44531 0.519069 0)
(-1.34543 0.377523 0)
(-2.49498 -0.146948 0)
(-1.87151 0.429911 0)
(-2.09735 -0.0200259 0)
(-1.7909 0.0873004 0)
(-2.14182 0.433368 0)
(-1.6287 -0.375637 0)
(-1.91085 0.323072 0)
(-1.4526 -0.0794109 0)
(-2.58972 0.391793 0)
(-2.70851 -0.0684706 0)
(-2.15254 0.187027 0)
(-2.3617 -0.101919 0)
(-2.06641 0.220138 0)
(-1.15084 -0.202481 0)
(-1.07525 0.0412818 0)
(-1.84611 0.194525 0)
(-1.36628 0.0830507 0)
(-2.26486 -0.101959 0)
(-1.37769 0.337535 0)
(-1.97136 -0.0384044 0)
(-1.10456 0.0984159 0)
(-1.87823 0.147638 0)
(-1.16718 -0.146819 0)
(-2.11023 0.161021 0)
(-1.71078 -0.42265 0)
(-1.50222 -0.152691 0)
(-1.9703 0.500704 0)
(-1.77935 0.365849 0)
(-1.13158 0.121522 0)
(-1.89885 0.12922 0)
(-1.18948 -0.126622 0)
(-2.13786 0.137748 0)
(-2.03321 -0.0113305 0)
(-1.47285 0.326881 0)
(-1.46459 0.0442751 0)
(-2.34969 -0.0688681 0)
(-2.0901 0.485257 0)
(-1.56533 -0.10612 0)
(-1.87334 0.341068 0)
(-1.78077 -0.399231 0)
(-1.34615 -0.35631 0)
(-1.21309 -0.0999434 0)
(-2.00895 0.387519 0)
(-1.80817 0.319354 0)
(-1.95132 0.156338 0)
(-2.56172 0.343549 0)
(-2.19636 -0.272435 0)
(-2.19612 0.148554 0)
(-2.52121 -0.199788 0)
(-2.08428 0.152002 0)
(-2.48041 0.434379 0)
(-2.18916 0.0671908 0)
(-2.13925 0.10936 0)
(-1.1316 0.144696 0)
(-1.18242 -0.0998483 0)
(-1.89872 0.108472 0)
(-2.54546 0.371254 0)
(-2.02087 0.14098 0)
(-2.31618 -0.28601 0)
(-2.18641 0.128429 0)
(-1.17766 -0.227177 0)
(-1.6151 0.489321 0)
(-1.49019 0.404946 0)
(-1.34439 -0.44298 0)
(-1.04532 -0.0755024 0)
(-1.93157 0.336556 0)
(-1.14673 -0.303461 0)
(-1.74385 0.29096 0)
(-1.05531 -0.0906742 0)
(-1.92814 0.353776 0)
(-1.74202 0.305148 0)
(-1.1624 -0.32152 0)
(-2.00458 0.19452 0)
(-1.07006 -0.179261 0)
(-1.00304 0.0530331 0)
(-1.79631 0.175475 0)
(-2.01855 0.173795 0)
(-1.00168 0.0708012 0)
(-1.80641 0.158688 0)
(-1.06399 -0.160885 0)
(-1.08628 -0.164163 0)
(-1.67785 0.361343 0)
(-1.21531 -0.393842 0)
(-1.84493 0.42479 0)
(-2.01267 -0.256486 0)
(-2.191 0.179267 0)
(-2.5525 0.309113 0)
(-1.83593 0.156133 0)
(-1.93419 -0.111506 0)
(-1.00275 0.112694 0)
(-1.72736 -0.0667759 0)
(-0.997804 0.285959 0)
(-0.975884 0.15672 0)
(-2.02465 0.0749907 0)
(-1.01674 -0.0588509 0)
(-1.808 0.0799692 0)
(-1.46677 0.519916 0)
(-1.56412 -0.230289 0)
(-1.36682 0.371007 0)
(-1.78322 -0.40131 0)
(-1.94744 0.47934 0)
(-2.0196 -0.0579918 0)
(-1.81419 0.16529 0)
(-2.40938 -0.251691 0)
(-2.17965 0.0640537 0)
(-2.16827 -0.0537843 0)
(-2.30961 0.388929 0)
(-2.68198 -0.110243 0)
(-1.78121 0.0600247 0)
(-1.99394 0.0493486 0)
(-0.996255 -0.0156583 0)
(-0.959475 0.188139 0)
(-1.78897 0.4293 0)
(-1.08947 -0.190017 0)
(-1.22146 -0.414757 0)
(-1.63153 0.36552 0)
(-2.5646 -0.187113 0)
(-2.10028 0.155776 0)
(-2.49286 0.428327 0)
(-2.20436 0.0335897 0)
(-2.64252 0.276465 0)
(-2.21896 -0.22808 0)
(-2.23223 0.113349 0)
(-2.01574 0.232481 0)
(-2.16104 0.394874 0)
(-1.92595 0.305056 0)
(-1.53769 -0.344389 0)
(-1.38543 -0.0532747 0)
(-1.36268 0.483979 0)
(-1.66254 -0.205315 0)
(-1.28778 0.322674 0)
(-1.89348 -0.345015 0)
(-2.03748 0.26907 0)
(-1.08056 -0.00447978 0)
(-1.16797 -0.24721 0)
(-1.82445 0.234132 0)
(-2.0581 0.195363 0)
(-1.05388 0.0525205 0)
(-1.1222 -0.188623 0)
(-1.83877 0.175394 0)
(-1.40735 0.497223 0)
(-1.65175 -0.211329 0)
(-1.32358 0.335088 0)
(-1.88443 -0.361563 0)
(-1.69696 -0.186865 0)
(-1.28451 0.456144 0)
(-1.92819 -0.306364 0)
(-1.22731 0.292593 0)
(-2.18663 0.136588 0)
(-2.76702 0.00381995 0)
(-2.46674 -0.125146 0)
(-2.58002 0.420998 0)
(-2.01538 0.521893 0)
(-1.78414 -0.10878 0)
(-1.82401 0.305984 0)
(-2.07853 -0.379596 0)
(-2.05536 0.523901 0)
(-1.76474 -0.103348 0)
(-1.85232 0.311362 0)
(-2.05545 -0.385851 0)
(-1.75349 0.332139 0)
(-1.13959 -0.12011 0)
(-1.93963 0.394929 0)
(-1.26638 -0.361538 0)
(-1.61609 -0.0618869 0)