/*--------------------------------*- C++ -*----------------------------------*\
| =========                 |                                                 |
| \\      /  F ield         | foam-extend: Open Source CFD                    |
|  \\    /   O peration     | Version:  3.0                                   |
|   \\  /    A nd           | Web:         http://www.extend-project.de       |
|    \\/     M anipulation  |                                                 |
\*---------------------------------------------------------------------------*/
FoamFile
{
    version     2.0;
    format      ascii;
    class       volScalarField;
    location    "45";
    object      p;
}
// * * * * * * * * * * * * * * * * * * * * * * * * * * * * * * * * * * * * * //

dimensions      [0 0 0 0 0 0 0];

internalField   nonuniform List<scalar> 
7680
(
-0.234668
-0.222658
-0.213768
-0.204372
-0.197577
-0.190112
-0.184876
-0.17888
-0.174833
-0.16998
-0.166855
-0.162908
-0.160508
-0.157287
-0.155461
-0.152827
-0.151456
-0.149297
-0.148283
-0.146506
-0.145767
-0.144293
-0.143757
-0.142516
-0.142117
-0.141048
-0.140723
-0.139764
-0.139455
-0.138549
-0.138193
-0.137282
-0.136818
-0.135845
-0.135208
-0.134114
-0.133241
-0.131971
-0.1308
-0.129314
-0.234427
-0.222429
-0.213548
-0.204161
-0.197374
-0.189916
-0.184685
-0.178695
-0.174651
-0.169804
-0.166681
-0.162739
-0.16034
-0.157123
-0.155299
-0.152668
-0.151297
-0.149141
-0.148127
-0.146352
-0.145613
-0.144141
-0.143605
-0.142366
-0.141966
-0.140898
-0.140573
-0.139615
-0.139305
-0.138399
-0.138042
-0.13713
-0.136664
-0.135688
-0.135048
-0.133949
-0.133072
-0.131795
-0.130622
-0.12913
-0.233912
-0.221941
-0.213079
-0.203713
-0.19694
-0.189498
-0.18428
-0.178302
-0.174268
-0.169431
-0.166316
-0.162382
-0.159989
-0.156779
-0.154959
-0.152333
-0.150967
-0.148814
-0.147804
-0.146032
-0.145296
-0.143826
-0.143292
-0.142055
-0.141657
-0.14059
-0.140267
-0.13931
-0.139002
-0.138096
-0.137741
-0.136828
-0.136363
-0.135385
-0.134744
-0.133639
-0.132757
-0.13147
-0.130283
-0.128783
-0.233173
-0.221239
-0.212405
-0.203068
-0.196317
-0.188898
-0.183696
-0.177738
-0.173716
-0.168894
-0.165788
-0.161867
-0.159481
-0.156281
-0.154467
-0.15185
-0.150487
-0.148341
-0.147333
-0.145568
-0.144833
-0.143369
-0.142836
-0.141604
-0.141207
-0.140144
-0.139822
-0.138869
-0.138561
-0.137659
-0.137305
-0.136395
-0.135932
-0.134955
-0.134316
-0.133212
-0.13233
-0.131038
-0.129847
-0.128332
-0.232155
-0.220273
-0.211478
-0.202182
-0.19546
-0.188074
-0.182895
-0.176962
-0.172958
-0.168157
-0.165066
-0.161161
-0.158787
-0.155601
-0.153794
-0.151188
-0.149832
-0.147696
-0.146693
-0.144935
-0.144204
-0.142746
-0.142216
-0.140989
-0.140595
-0.139537
-0.139218
-0.138268
-0.137964
-0.137066
-0.136716
-0.135811
-0.135353
-0.13438
-0.133749
-0.132647
-0.131773
-0.13048
-0.129297
-0.127763
-0.23092
-0.219101
-0.210352
-0.201106
-0.194419
-0.187073
-0.181921
-0.17602
-0.172037
-0.167261
-0.164186
-0.160302
-0.15794
-0.154771
-0.152974
-0.150382
-0.149032
-0.146908
-0.14591
-0.144162
-0.143434
-0.141985
-0.141457
-0.140238
-0.139846
-0.138794
-0.138477
-0.137534
-0.137233
-0.136341
-0.135995
-0.135096
-0.134643
-0.133677
-0.133052
-0.131955
-0.131086
-0.129793
-0.128604
-0.127052
-0.229404
-0.217663
-0.208971
-0.199786
-0.193144
-0.185845
-0.180727
-0.174865
-0.170908
-0.166164
-0.163109
-0.159251
-0.156905
-0.153756
-0.151972
-0.149397
-0.148056
-0.145946
-0.144955
-0.143218
-0.142496
-0.141056
-0.140533
-0.139321
-0.138933
-0.137888
-0.137576
-0.136639
-0.136342
-0.135457
-0.135117
-0.134225
-0.133782
-0.132822
-0.132209
-0.131118
-0.130264
-0.12897
-0.127791
-0.126204
-0.227679
-0.216025
-0.207399
-0.198282
-0.19169
-0.184446
-0.179367
-0.173548
-0.169621
-0.164913
-0.161881
-0.158052
-0.155723
-0.152598
-0.150826
-0.148271
-0.146941
-0.144846
-0.143863
-0.142139
-0.141423
-0.139993
-0.139474
-0.138273
-0.137888
-0.136852
-0.136542
-0.135613
-0.13532
-0.134443
-0.134108
-0.133224
-0.132786
-0.131836
-0.13123
-0.130147
-0.129298
-0.128007
-0.126823
-0.125227
-0.225671
-0.21412
-0.205571
-0.196534
-0.19
-0.182821
-0.177786
-0.172019
-0.168127
-0.16346
-0.160455
-0.15666
-0.154352
-0.151255
-0.149499
-0.146966
-0.145648
-0.143571
-0.142597
-0.140888
-0.140179
-0.138762
-0.138248
-0.137057
-0.136677
-0.13565
-0.135344
-0.134424
-0.134136
-0.133266
-0.132938
-0.132062
-0.131633
-0.13069
-0.130096
-0.129019
-0.128183
-0.126891
-0.125717
-0.124096
-0.223462
-0.212024
-0.203558
-0.19461
-0.18814
-0.18103
-0.176045
-0.170335
-0.16648
-0.161859
-0.158883
-0.155125
-0.152839
-0.149773
-0.148034
-0.145526
-0.14422
-0.142165
-0.1412
-0.139508
-0.138805
-0.137403
-0.136894
-0.135715
-0.135338
-0.134322
-0.134019
-0.133109
-0.132823
-0.131963
-0.131638
-0.130772
-0.130347
-0.129414
-0.128825
-0.127756
-0.126924
-0.12564
-0.124465
-0.122851
-0.220971
-0.209661
-0.20129
-0.192442
-0.186044
-0.179014
-0.174084
-0.168437
-0.164626
-0.160057
-0.157114
-0.153398
-0.151138
-0.148106
-0.146386
-0.143906
-0.142616
-0.140582
-0.139629
-0.137955
-0.137261
-0.135874
-0.135371
-0.134205
-0.133833
-0.132827
-0.132529
-0.131628
-0.131347
-0.130496
-0.130176
-0.129318
-0.1289
-0.127975
-0.127394
-0.126333
-0.125511
-0.124233
-0.123069
-0.121459
-0.218289
-0.207116
-0.198846
-0.190105
-0.183785
-0.17684
-0.17197
-0.166392
-0.162627
-0.158113
-0.155206
-0.151535
-0.149302
-0.146306
-0.144608
-0.142158
-0.140883
-0.138875
-0.137932
-0.13628
-0.135593
-0.134223
-0.133726
-0.132574
-0.132206
-0.131213
-0.130917
-0.130027
-0.129748
-0.128907
-0.128589
-0.127741
-0.127326
-0.12641
-0.125832
-0.124783
-0.123965
-0.122702
-0.121547
-0.119963
-0.215325
-0.204304
-0.196147
-0.187525
-0.181291
-0.174441
-0.169637
-0.164135
-0.160421
-0.155969
-0.153101
-0.14948
-0.147278
-0.144323
-0.142648
-0.140231
-0.138973
-0.136992
-0.136062
-0.134432
-0.133755
-0.132403
-0.131913
-0.130776
-0.130413
-0.129433
-0.129141
-0.128262
-0.127986
-0.127155
-0.126841
-0.126001
-0.12559
-0.124684
-0.124112
-0.123074
-0.122265
-0.121018
-0.119881
-0.118327
-0.212181
-0.201321
-0.193282
-0.184786
-0.178643
-0.171892
-0.167159
-0.161737
-0.158077
-0.15369
-0.150864
-0.147296
-0.145126
-0.142214
-0.140563
-0.138182
-0.136942
-0.13499
-0.134074
-0.132468
-0.1318
-0.130468
-0.129985
-0.128864
-0.128505
-0.127539
-0.12725
-0.126383
-0.126109
-0.125289
-0.124976
-0.124147
-0.123737
-0.122843
-0.122274
-0.121251
-0.120449
-0.119225
-0.118106
-0.116595
-0.208757
-0.198073
-0.190164
-0.181806
-0.175762
-0.169121
-0.164464
-0.15913
-0.15553
-0.151213
-0.148433
-0.144922
-0.142787
-0.139923
-0.138299
-0.135956
-0.134736
-0.132815
-0.131914
-0.130333
-0.129676
-0.128365
-0.127889
-0.126786
-0.126433
-0.125481
-0.125196
-0.124341
-0.124071
-0.123261
-0.122951
-0.122134
-0.121727
-0.120845
-0.120281
-0.119274
-0.118483
-0.117285
-0.116189
-0.114725
-0.205164
-0.194663
-0.186891
-0.178676
-0.172736
-0.166209
-0.161632
-0.15639
-0.152851
-0.148609
-0.145877
-0.142427
-0.140329
-0.137513
-0.135917
-0.133615
-0.132416
-0.130528
-0.129642
-0.128089
-0.127443
-0.126154
-0.125686
-0.124601
-0.124253
-0.123317
-0.123035
-0.122195
-0.121926
-0.121129
-0.120821
-0.120016
-0.119611
-0.118743
-0.118184
-0.117195
-0.116416
-0.115247
-0.114176
-0.112764
-0.201296
-0.190994
-0.183368
-0.175309
-0.169481
-0.163077
-0.158587
-0.153444
-0.149972
-0.14581
-0.14313
-0.139745
-0.137686
-0.134924
-0.133358
-0.131099
-0.129923
-0.12807
-0.127201
-0.125676
-0.125043
-0.123778
-0.123318
-0.122253
-0.121911
-0.120992
-0.120714
-0.119888
-0.119623
-0.11884
-0.118534
-0.117742
-0.117342
-0.11649
-0.115937
-0.114969
-0.114204
-0.113065
-0.112022
-0.110663
-0.197269
-0.187173
-0.179699
-0.171801
-0.16609
-0.159814
-0.155414
-0.150373
-0.146971
-0.142892
-0.140266
-0.136948
-0.134931
-0.132224
-0.130689
-0.128476
-0.127323
-0.125508
-0.124656
-0.123162
-0.122541
-0.121301
-0.12085
-0.119806
-0.11947
-0.118569
-0.118295
-0.117485
-0.117223
-0.116455
-0.116153
-0.115376
-0.11498
-0.114145
-0.1136
-0.112654
-0.111903
-0.110796
-0.109781
-0.108472
-0.192972
-0.183096
-0.175786
-0.168061
-0.162474
-0.156336
-0.152031
-0.147101
-0.143773
-0.139783
-0.137214
-0.133969
-0.131996
-0.129348
-0.127847
-0.125681
-0.124554
-0.122778
-0.121944
-0.120483
-0.119875
-0.118662
-0.118221
-0.117199
-0.11687
-0.115987
-0.115719
-0.114926
-0.114669
-0.113916
-0.113619
-0.112859
-0.11247
-0.111652
-0.111118
-0.110195
-0.109461
-0.108387
-0.107401
-0.10614
-0.188529
-0.178881
-0.171739
-0.164191
-0.158733
-0.152736
-0.14853
-0.143713
-0.140462
-0.136564
-0.134054
-0.130884
-0.128956
-0.126369
-0.124903
-0.122787
-0.121686
-0.119951
-0.119137
-0.117709
-0.117115
-0.11593
-0.115499
-0.114501
-0.114179
-0.113317
-0.113054
-0.112279
-0.112027
-0.111292
-0.111
-0.110258
-0.109876
-0.109079
-0.108556
-0.107658
-0.106941
-0.105898
-0.10494
-0.103722
-0.183822
-0.174415
-0.167452
-0.160093
-0.154772
-0.148925
-0.144825
-0.140128
-0.136959
-0.133158
-0.130711
-0.12762
-0.125741
-0.123218
-0.121789
-0.119726
-0.118652
-0.116961
-0.116167
-0.114774
-0.114195
-0.11304
-0.112619
-0.111646
-0.111332
-0.110492
-0.110236
-0.10948
-0.109234
-0.108517
-0.108233
-0.10751
-0.107139
-0.106363
-0.105854
-0.104981
-0.104284
-0.103272
-0.102342
-0.101161
-0.178982
-0.169823
-0.163043
-0.155877
-0.150696
-0.145003
-0.141011
-0.136438
-0.133352
-0.129652
-0.127269
-0.124259
-0.122429
-0.119974
-0.118582
-0.116574
-0.115528
-0.113882
-0.113109
-0.111753
-0.11119
-0.110065
-0.109656
-0.108709
-0.108403
-0.107585
-0.107336
-0.106601
-0.106362
-0.105665
-0.10539
-0.104687
-0.104327
-0.103574
-0.10308
-0.102232
-0.101557
-0.100573
-0.0996701
-0.0985209
-0.173885
-0.164987
-0.158401
-0.151441
-0.146407
-0.140877
-0.136998
-0.132556
-0.129558
-0.125963
-0.123649
-0.120725
-0.118947
-0.116562
-0.11521
-0.113259
-0.112243
-0.110643
-0.109893
-0.108576
-0.108028
-0.106936
-0.106538
-0.105619
-0.105322
-0.104528
-0.104287
-0.103574
-0.103343
-0.102667
-0.102401
-0.101721
-0.101373
-0.100644
-0.100168
-0.0993471
-0.0986936
-0.0977392
-0.0968626
-0.095741
-0.168669
-0.160038
-0.153649
-0.146897
-0.142014
-0.13665
-0.132888
-0.128579
-0.125671
-0.122184
-0.119939
-0.117103
-0.115379
-0.113065
-0.111754
-0.109861
-0.108877
-0.107325
-0.106597
-0.105321
-0.10479
-0.103731
-0.103346
-0.102454
-0.102167
-0.101398
-0.101165
-0.100475
-0.100252
-0.099599
-0.0993433
-0.0986858
-0.0983523
-0.0976482
-0.0971904
-0.0963966
-0.0957666
-0.0948395
-0.0939889
-0.0928895
-0.163203
-0.154853
-0.148672
-0.142139
-0.137416
-0.132225
-0.128585
-0.124417
-0.121603
-0.118229
-0.116057
-0.113313
-0.111645
-0.109407
-0.108138
-0.106307
-0.105354
-0.103853
-0.103149
-0.101914
-0.101401
-0.100376
-0.100004
-0.099142
-0.0988651
-0.0981217
-0.0978973
-0.0972309
-0.0970173
-0.0963877
-0.0961429
-0.0955098
-0.0951909
-0.0945132
-0.0940749
-0.0933097
-0.0927039
-0.0918059
-0.0909814
-0.0899041
-0.157633
-0.149567
-0.143597
-0.137287
-0.132724
-0.127711
-0.124196
-0.120169
-0.117452
-0.114193
-0.112095
-0.109446
-0.107835
-0.105673
-0.104447
-0.102679
-0.101759
-0.10031
-0.0996301
-0.0984377
-0.0979424
-0.0969538
-0.0965948
-0.0957633
-0.0954968
-0.09478
-0.0945647
-0.0939228
-0.0937187
-0.0931129
-0.0928799
-0.0922713
-0.091968
-0.0913165
-0.090899
-0.0901619
-0.0895819
-0.0887117
-0.0879147
-0.0868563
-0.151823
-0.144056
-0.138306
-0.132229
-0.127836
-0.123008
-0.119622
-0.115744
-0.113127
-0.109989
-0.107969
-0.105417
-0.103865
-0.101783
-0.100603
-0.0989004
-0.0980144
-0.096619
-0.0959643
-0.0948161
-0.0943394
-0.0933876
-0.0930424
-0.0922423
-0.0919864
-0.0912972
-0.091091
-0.0904744
-0.0902797
-0.0896986
-0.0894768
-0.0888938
-0.0886054
-0.0879817
-0.087584
-0.0868774
-0.0863223
-0.0854837
-0.0847143
-0.0836814
-0.145922
-0.138456
-0.13293
-0.127089
-0.122866
-0.118226
-0.114972
-0.111245
-0.10873
-0.105714
-0.103772
-0.101319
-0.0998284
-0.0978276
-0.0966936
-0.0950576
-0.0942064
-0.0928657
-0.0922368
-0.0911339
-0.0906762
-0.0897622
-0.0894311
-0.088663
-0.088418
-0.0877568
-0.0875601
-0.0869691
-0.086784
-0.0862275
-0.0860174
-0.0854595
-0.0851865
-0.0845897
-0.0842128
-0.0835353
-0.0830072
-0.082199
-0.0814608
-0.0804515
-0.139792
-0.132641
-0.127348
-0.121753
-0.117708
-0.113263
-0.110146
-0.106576
-0.104167
-0.101278
-0.0994178
-0.0970686
-0.0956404
-0.0937238
-0.0926376
-0.0910705
-0.0902553
-0.0889711
-0.0883689
-0.0873126
-0.0868745
-0.0859993
-0.0856827
-0.0849475
-0.0847135
-0.0840811
-0.0838936
-0.0833287
-0.0831527
-0.0826214
-0.0824218
-0.0818897
-0.0816302
-0.0810613
-0.0807025
-0.0800564
-0.079552
-0.0787794
-0.0780708
-0.0771002
-0.133585
-0.126752
-0.121693
-0.116347
-0.112481
-0.108234
-0.105255
-0.101844
-0.0995417
-0.0967813
-0.095004
-0.0927594
-0.0913948
-0.0895637
-0.0885259
-0.0870289
-0.0862502
-0.0850235
-0.0844484
-0.0834396
-0.0830215
-0.0821859
-0.0818839
-0.0811822
-0.0809595
-0.0803561
-0.080178
-0.0796393
-0.0794725
-0.078966
-0.078777
-0.0782698
-0.0780241
-0.0774815
-0.0771416
-0.0765249
-0.0760466
-0.0753076
-0.0746343
-0.0736982
-0.127162
-0.120658
-0.115844
-0.110756
-0.107076
-0.103034
-0.100199
-0.0969516
-0.0947603
-0.0921329
-0.0904412
-0.0883047
-0.0870059
-0.085263
-0.0842754
-0.0828505
-0.0821095
-0.080942
-0.0803949
-0.0794349
-0.0790372
-0.0782422
-0.0779552
-0.0772878
-0.0770762
-0.0765025
-0.0763335
-0.0758216
-0.0756632
-0.0751819
-0.0750022
-0.0745203
-0.074286
-0.0737704
-0.0734455
-0.0728597
-0.0724021
-0.0717015
-0.0710582
-0.0701784
-0.120677
-0.114505
-0.109936
-0.105107
-0.101615
-0.0977784
-0.0950881
-0.0920068
-0.0899274
-0.0874343
-0.0858291
-0.0838018
-0.0825695
-0.0809159
-0.0799789
-0.0786272
-0.0779243
-0.0768168
-0.076298
-0.0753876
-0.0750106
-0.0742568
-0.0739849
-0.0733522
-0.073152
-0.0726083
-0.0724484
-0.0719632
-0.0718134
-0.071357
-0.0711867
-0.0707293
-0.0705069
-0.0700169
-0.0697082
-0.0691513
-0.0687175
-0.0680525
-0.0674468
-0.0666135
-0.113988
-0.108159
-0.103844
-0.0992836
-0.0959859
-0.0923625
-0.0898217
-0.0869116
-0.0849477
-0.082593
-0.081077
-0.0791624
-0.0779986
-0.0764368
-0.075552
-0.0742754
-0.0736117
-0.0725659
-0.0720761
-0.0712164
-0.0708607
-0.070149
-0.0698925
-0.0692954
-0.0691065
-0.0685934
-0.0684426
-0.0679846
-0.0678429
-0.067412
-0.0672502
-0.0668179
-0.0666056
-0.066142
-0.0658463
-0.0653191
-0.0649034
-0.0642768
-0.0636994
-0.0629321
-0.107252
-0.101767
-0.0977068
-0.0934159
-0.090313
-0.0869039
-0.0845133
-0.0817753
-0.0799277
-0.0777124
-0.0762862
-0.074485
-0.0733903
-0.0719212
-0.071089
-0.0698882
-0.0692641
-0.0682806
-0.0678202
-0.0670119
-0.0666775
-0.0660085
-0.0657676
-0.0652063
-0.065029
-0.0645467
-0.064405
-0.0639745
-0.063841
-0.0634357
-0.0632827
-0.0628754
-0.062674
-0.0622365
-0.0619558
-0.0614581
-0.0610652
-0.0604759
-0.0599364
-0.0592254
-0.100326
-0.0951962
-0.091399
-0.087386
-0.0844841
-0.0812957
-0.0790599
-0.0764991
-0.074771
-0.0726991
-0.0713652
-0.0696806
-0.0686568
-0.0672828
-0.0665046
-0.0653816
-0.064798
-0.0638783
-0.0634479
-0.0626921
-0.0623797
-0.0617542
-0.0615292
-0.0610046
-0.060839
-0.0603882
-0.0602558
-0.0598534
-0.0597283
-0.0593492
-0.0592053
-0.0588239
-0.0586336
-0.0582236
-0.0579576
-0.057491
-0.0571186
-0.0565679
-0.0560588
-0.0554075
-0.0933671
-0.0885932
-0.0850594
-0.0813246
-0.078624
-0.0756568
-0.0735762
-0.0711932
-0.0695852
-0.0676573
-0.0664162
-0.0648487
-0.0638962
-0.0626179
-0.061894
-0.0608494
-0.0603066
-0.0594512
-0.059051
-0.0583482
-0.0580578
-0.0574764
-0.0572673
-0.0567797
-0.0566259
-0.056207
-0.0560839
-0.0557099
-0.0555934
-0.0552409
-0.0551063
-0.0547516
-0.0545732
-0.0541917
-0.0539423
-0.0535086
-0.0531605
-0.0526509
-0.0521787
-0.0515847
-0.0862332
-0.0818254
-0.0785624
-0.0751138
-0.0726201
-0.0698802
-0.067959
-0.0657585
-0.0642736
-0.0624933
-0.0613473
-0.0598999
-0.0590204
-0.05784
-0.0571717
-0.0562071
-0.0557061
-0.0549164
-0.0545471
-0.0538983
-0.0536305
-0.0530939
-0.0529011
-0.0524513
-0.0523096
-0.0519233
-0.05181
-0.0514651
-0.0513579
-0.0510329
-0.0509089
-0.0505821
-0.0504177
-0.0500666
-0.0498372
-0.0494393
-0.0491211
-0.0486565
-0.0482298
-0.0476913
-0.0790822
-0.0750397
-0.0720472
-0.0688847
-0.0665979
-0.0640853
-0.0623235
-0.0603057
-0.0589442
-0.0573118
-0.0562611
-0.0549341
-0.0541278
-0.0530458
-0.0524332
-0.0515491
-0.05109
-0.0503663
-0.050028
-0.0494336
-0.0491884
-0.048697
-0.0485206
-0.0481088
-0.0479792
-0.0476257
-0.0475222
-0.0472068
-0.0471087
-0.0468118
-0.0466983
-0.0464
-0.0462494
-0.0459297
-0.0457197
-0.0453585
-0.0450673
-0.0446472
-0.0442566
-0.043772
-0.0717713
-0.0681038
-0.0653889
-0.0625196
-0.0604448
-0.0581651
-0.0565666
-0.0547358
-0.0535004
-0.0520193
-0.051066
-0.049862
-0.0491305
-0.0481488
-0.0475931
-0.0467911
-0.0463748
-0.0457183
-0.0454117
-0.0448726
-0.0446505
-0.044205
-0.0440455
-0.0436723
-0.0435554
-0.0432353
-0.0431422
-0.0428569
-0.042769
-0.0425008
-0.0423995
-0.0421306
-0.0419966
-0.0417093
-0.0415231
-0.0411996
-0.0409425
-0.0405662
-0.0402223
-0.0397776
-0.0644583
-0.0611645
-0.0587262
-0.0561493
-0.054286
-0.0522388
-0.0508033
-0.0491594
-0.0480501
-0.0467203
-0.0458644
-0.0447834
-0.0441269
-0.0432456
-0.0427469
-0.0420272
-0.0416537
-0.0410647
-0.0407897
-0.0403062
-0.0401072
-0.0397078
-0.039565
-0.0392307
-0.0391263
-0.0388398
-0.0387568
-0.0385019
-0.0384237
-0.0381846
-0.0380946
-0.0378556
-0.0377366
-0.0374821
-0.0373167
-0.037031
-0.036802
-0.0364694
-0.0361603
-0.0357664
-0.0570017
-0.0540903
-0.051935
-0.0496571
-0.04801
-0.0462003
-0.0449313
-0.043478
-0.0424975
-0.0413219
-0.0405653
-0.0396098
-0.0390295
-0.0382506
-0.0378099
-0.0371737
-0.0368438
-0.0363234
-0.0360806
-0.0356536
-0.0354782
-0.0351256
-0.035
-0.0347051
-0.0346136
-0.0343613
-0.0342891
-0.034065
-0.0339975
-0.0337879
-0.0337108
-0.0335018
-0.0334004
-0.0331784
-0.0330376
-0.0327884
-0.0325929
-0.0323005
-0.032034
-0.0316751
-0.049558
-0.0470269
-0.0451532
-0.043173
-0.0417411
-0.0401679
-0.039065
-0.0378018
-0.0369496
-0.0359279
-0.0352705
-0.0344402
-0.033936
-0.0332594
-0.0328767
-0.0323242
-0.0320378
-0.031586
-0.0313755
-0.031005
-0.0308529
-0.0305473
-0.0304387
-0.0301833
-0.0301045
-0.0298864
-0.0298244
-0.0296312
-0.0295736
-0.0293935
-0.0293278
-0.029149
-0.0290626
-0.0288734
-0.0287531
-0.0285408
-0.0283724
-0.0281219
-0.0278892
-0.0275786
-0.0419877
-0.0398447
-0.0382582
-0.0365815
-0.0353691
-0.034037
-0.033103
-0.0320334
-0.0313118
-0.0304467
-0.0298901
-0.0291871
-0.0287604
-0.0281875
-0.0278637
-0.0273961
-0.0271539
-0.0267717
-0.0265939
-0.0262806
-0.0261525
-0.0258942
-0.0258031
-0.0255877
-0.025522
-0.0253384
-0.0252873
-0.0251252
-0.0250784
-0.0249278
-0.024875
-0.024726
-0.0246567
-0.0244993
-0.0244023
-0.0242251
-0.024088
-0.0238762
-0.0236832
-0.0234125
-0.0344452
-0.0326875
-0.0313863
-0.0300112
-0.0290168
-0.0279244
-0.0271586
-0.0262815
-0.02569
-0.0249808
-0.0245246
-0.0239485
-0.0235989
-0.0231296
-0.0228645
-0.0224817
-0.0222836
-0.0219708
-0.0218256
-0.0215695
-0.0214651
-0.0212543
-0.0211803
-0.0210048
-0.0209518
-0.0208027
-0.0207618
-0.0206308
-0.0205936
-0.0204726
-0.0204307
-0.0203116
-0.0202565
-0.0201311
-0.0200536
-0.0199122
-0.0198013
-0.0196309
-0.0194724
-0.0192515
-0.0267936
-0.0254281
-0.0244172
-0.0233487
-0.0225761
-0.0217273
-0.0211323
-0.0204508
-0.0199913
-0.0194403
-0.019086
-0.0186385
-0.0183671
-0.0180027
-0.0177971
-0.0175
-0.0173466
-0.0171041
-0.0169918
-0.0167935
-0.0167132
-0.0165503
-0.0164938
-0.0163586
-0.0163187
-0.0162043
-0.0161743
-0.0160743
-0.0160476
-0.0159558
-0.0159262
-0.0158364
-0.0157972
-0.0157029
-0.015647
-0.0155401
-0.0154587
-0.0153279
-0.0152085
-0.0150343
-0.0191846
-0.0182077
-0.0174845
-0.0167202
-0.0161676
-0.0155606
-0.0151352
-0.014648
-0.0143196
-0.0139258
-0.0136729
-0.0133533
-0.0131598
-0.0128998
-0.0127534
-0.0125417
-0.0124327
-0.0122602
-0.0121808
-0.0120401
-0.0119836
-0.0118685
-0.0118291
-0.0117341
-0.0117068
-0.0116271
-0.011607
-0.011538
-0.0115206
-0.011458
-0.0114387
-0.0113782
-0.0113524
-0.0112894
-0.0112518
-0.0111803
-0.0111244
-0.0110357
-0.0109524
-0.0108319
-0.0114844
-0.0109021
-0.010471
-0.0100153
-0.00968585
-0.00932391
-0.00907031
-0.0087799
-0.00858428
-0.00834974
-0.00819927
-0.00800912
-0.00789425
-0.00773981
-0.00765322
-0.00752776
-0.00746368
-0.00736184
-0.00731558
-0.00723297
-0.00720063
-0.00713358
-0.00711179
-0.00705712
-0.00704287
-0.00699776
-0.00698828
-0.00695013
-0.00694281
-0.00690913
-0.00690135
-0.00686963
-0.00685869
-0.0068261
-0.0068089
-0.00677175
-0.0067443
-0.00669672
-0.00665329
-0.00658408
-0.00384137
-0.00364942
-0.00350726
-0.00335708
-0.00324857
-0.00312945
-0.00304617
-0.00295086
-0.00288696
-0.00281035
-0.00276162
-0.00269994
-0.00266322
-0.00261362
-0.00258648
-0.00254676
-0.00252729
-0.00249571
-0.00248238
-0.00245756
-0.0024491
-0.00242992
-0.00242529
-0.0024108
-0.00240908
-0.0023985
-0.00239886
-0.00239148
-0.00239313
-0.0023883
-0.00239045
-0.00238749
-0.00238929
-0.00238735
-0.00238777
-0.00238551
-0.00238319
-0.00237818
-0.00237134
-0.00235925
0.00387428
0.00367092
0.00352049
0.00336154
0.00324653
0.00312012
0.00303124
0.0029294
0.00286027
0.00277741
0.00272348
0.00265552
0.00261345
0.00255733
0.00252458
0.00247791
0.00245245
0.00241329
0.00239344
0.00236014
0.00234446
0.00231556
0.00230273
0.00227693
0.00226574
0.00224177
0.00223107
0.00220776
0.0021964
0.00217258
0.00215948
0.00213401
0.00211804
0.0020898
0.0020698
0.00203776
0.00201222
0.00197564
0.00194223
0.00190138
0.0115187
0.010925
0.0104855
0.0100211
0.00968507
0.00931583
0.00905662
0.00875968
0.00855883
0.00831804
0.00816238
0.00796596
0.00784576
0.00768482
0.00759264
0.00746026
0.00739022
0.00728083
0.00722811
0.00713707
0.00709755
0.00702086
0.00699093
0.00692505
0.0069014
0.00684307
0.00682261
0.00676874
0.00674851
0.00669612
0.00667317
0.00661928
0.00659065
0.00653219
0.00649463
0.00642828
0.00637776
0.00629945
0.00623006
0.00613261
0.0192167
0.0182287
0.0174974
0.0167246
0.0161656
0.0155515
0.0151205
0.0146269
0.0142934
0.0138935
0.0136355
0.0133097
0.0131109
0.0128446
0.0126927
0.0124741
0.0123593
0.0121794
0.0120936
0.0119446
0.0118811
0.0117565
0.0117093
0.0116033
0.0115668
0.0114741
0.0114435
0.0113591
0.0113294
0.0112484
0.0112147
0.0111325
0.0110899
0.0110012
0.0109442
0.0108436
0.0107654
0.0106457
0.0105366
0.0103865
0.0268297
0.025453
0.0244339
0.0233569
0.0225779
0.0217219
0.0211214
0.0204335
0.0199688
0.0194117
0.0190523
0.0185987
0.0183221
0.0179514
0.0177403
0.0174365
0.0172773
0.0170275
0.016909
0.0167026
0.0166153
0.0164432
0.0163789
0.0162331
0.0161843
0.0160574
0.016017
0.0159023
0.0158635
0.0157542
0.0157104
0.0155998
0.015544
0.0154252
0.0153498
0.015215
0.015111
0.0149506
0.0148058
0.0146041
0.0344772
0.0327089
0.0313999
0.0300166
0.0290161
0.0279169
0.0271457
0.0262626
0.0256661
0.024951
0.0244899
0.0239079
0.0235532
0.0230778
0.0228074
0.022418
0.0222144
0.0218946
0.0217433
0.0214793
0.0213683
0.0211486
0.0210672
0.0208815
0.0208201
0.0206591
0.0206086
0.0204635
0.0204153
0.0202775
0.0202229
0.0200839
0.0200139
0.0198646
0.0197695
0.0196
0.0194683
0.0192666
0.0190834
0.0188311
0.0420262
0.0398725
0.0382782
0.0365932
0.0353746
0.0340356
0.0330963
0.0320205
0.031294
0.030423
0.0298615
0.0291527
0.028721
0.0281421
0.0278131
0.0273391
0.0270915
0.0267024
0.0265187
0.0261978
0.0260633
0.0257965
0.0256982
0.0254731
0.0253993
0.0252045
0.0251442
0.0249689
0.0249116
0.0247455
0.0246804
0.024513
0.0244292
0.0242494
0.0241347
0.0239304
0.0237708
0.0235279
0.0233056
0.0230051
0.0495903
0.0470493
0.0451684
0.0431805
0.0417429
0.0401633
0.0390554
0.0377864
0.0369295
0.0359023
0.0352403
0.0344044
0.0338955
0.0332131
0.0328255
0.032267
0.0319754
0.0315171
0.0313009
0.0309232
0.0307652
0.0304514
0.0303362
0.0300717
0.0299854
0.0297568
0.0296866
0.0294812
0.0294145
0.0292201
0.0291441
0.0289483
0.0288501
0.0286398
0.0285051
0.0282662
0.028079
0.0277953
0.0275365
0.0271877
0.0570431
0.0541217
0.051959
0.0496734
0.0480204
0.0462042
0.0449302
0.0434711
0.0424859
0.0413048
0.0405436
0.0395827
0.0389977
0.0382131
0.0377676
0.0371256
0.0367907
0.036264
0.0360159
0.035582
0.0354007
0.0350406
0.0349086
0.0346052
0.0345067
0.0342446
0.0341646
0.0339295
0.0338535
0.0336311
0.0335445
0.0333206
0.0332081
0.0329677
0.032813
0.03254
0.0323247
0.0320015
0.0317046
0.0313129
0.0644914
0.0611887
0.0587438
0.05616
0.0542914
0.0522384
0.0507983
0.0491491
0.0480355
0.0467006
0.0458405
0.0447544
0.0440935
0.0432071
0.0427038
0.0419786
0.0416004
0.0410056
0.0407256
0.0402357
0.0400314
0.0396249
0.0394763
0.0391341
0.0390234
0.0387281
0.0386383
0.0383735
0.0382882
0.0380379
0.0379405
0.0376886
0.037562
0.0372916
0.0371174
0.0368105
0.0365686
0.036206
0.0358742
0.0354354
0.0718161
0.0681395
0.0654178
0.0625414
0.0604611
0.0581755
0.0565723
0.0547362
0.0534965
0.0520104
0.0510528
0.0498438
0.0491081
0.0481214
0.0475613
0.046754
0.0463332
0.0456712
0.0453598
0.0448148
0.0445876
0.0441355
0.0439705
0.0435901
0.0434673
0.0431392
0.0430397
0.0427457
0.0426512
0.0423735
0.0422656
0.0419862
0.0418456
0.041546
0.0413523
0.0410129
0.0407439
0.040344
0.0399762
0.0394962
0.0791166
0.0750664
0.0720681
0.0688995
0.0666079
0.0640902
0.0623243
0.0603018
0.0589364
0.0572995
0.056245
0.0549135
0.0541033
0.0530167
0.0524001
0.0515112
0.051048
0.0503193
0.0499766
0.0493768
0.049127
0.0486296
0.0484483
0.0480299
0.0478951
0.0475344
0.0474254
0.0471023
0.0469989
0.0466938
0.0465756
0.0462689
0.0461147
0.045786
0.0455737
0.0452016
0.0449073
0.0444694
0.0440679
0.0435416
0.0862817
0.0818659
0.0785968
0.075142
0.0726434
0.0698981
0.0679726
0.0657674
0.0642786
0.0624938
0.061344
0.0598922
0.0590089
0.0578242
0.057152
0.0561829
0.055678
0.0548836
0.0545102
0.0538565
0.0535844
0.0530424
0.052845
0.0523893
0.0522427
0.0518499
0.0517315
0.0513799
0.0512675
0.0509358
0.0508073
0.050474
0.0503065
0.0499497
0.0497188
0.0493154
0.0489956
0.0485215
0.0480857
0.0475167
0.0934032
0.0886229
0.0850841
0.0813443
0.0786396
0.075668
0.0735838
0.0711968
0.0695854
0.0676536
0.0664091
0.0648379
0.063882
0.0625998
0.0618725
0.0608239
0.0602777
0.0594182
0.0590144
0.0583072
0.058013
0.0574268
0.0572136
0.0567208
0.0565626
0.0561381
0.0560104
0.0556305
0.0555095
0.0551512
0.0550129
0.0546531
0.0544727
0.0540877
0.0538392
0.0534042
0.05306
0.0525487
0.0520795
0.0514648
0.100378
0.095242
0.0914396
0.0874211
0.0845149
0.0813219
0.0790823
0.0765174
0.0747859
0.0727101
0.071373
0.0696846
0.0686576
0.0672799
0.0664985
0.0653718
0.0647851
0.0638616
0.0634279
0.0626682
0.0623524
0.0617228
0.061494
0.0609648
0.0607952
0.0603395
0.0602027
0.0597951
0.0596655
0.0592813
0.0591332
0.0587477
0.0585546
0.0581424
0.0578763
0.0574109
0.0570422
0.0564952
0.0559925
0.0553339
0.10729
0.1018
0.097736
0.093441
0.0903348
0.0869221
0.0845285
0.0817873
0.0799368
0.0777183
0.0762893
0.0744851
0.0733876
0.0719154
0.0710805
0.0698766
0.0692498
0.0682632
0.0678
0.0669884
0.0666512
0.0659787
0.0657345
0.0651695
0.0649886
0.0645021
0.0643564
0.0639214
0.0637835
0.0633736
0.0632161
0.062805
0.0625995
0.0621601
0.0618769
0.0613806
0.0609881
0.0604046
0.0598688
0.0591648
0.114045
0.10821
0.103891
0.0993261
0.0960248
0.0923976
0.0898536
0.0869401
0.0849733
0.0826154
0.0810967
0.079179
0.0780126
0.076448
0.0755606
0.0742812
0.0736151
0.0725666
0.0720744
0.0712121
0.0708538
0.0701393
0.0698801
0.0692799
0.0690879
0.0685713
0.0684167
0.067955
0.0678088
0.0673739
0.0672071
0.066771
0.0665534
0.0660874
0.0657874
0.0652613
0.0648451
0.0642261
0.0636574
0.0629095
0.120718
0.114542
0.10997
0.105138
0.101643
0.0978042
0.0951116
0.0920278
0.0899461
0.0874506
0.0858432
0.0838136
0.0825792
0.0809233
0.0799844
0.0786305
0.0779257
0.0768162
0.0762956
0.0753831
0.0750043
0.0742484
0.0739744
0.0733395
0.0731367
0.0725904
0.0724272
0.071939
0.0717849
0.0713252
0.0711492
0.0706883
0.0704587
0.0699664
0.0696496
0.0690935
0.0686538
0.0679991
0.0673976
0.0666053
0.127224
0.120716
0.115898
0.110806
0.107124
0.103078
0.10024
0.0969907
0.0947971
0.0921672
0.0904734
0.0883346
0.0870338
0.0852889
0.0842995
0.0828728
0.0821302
0.0809612
0.0804126
0.0794512
0.0790522
0.0782558
0.0779673
0.0772985
0.0770851
0.0765097
0.0763381
0.0758241
0.075662
0.0751781
0.0749932
0.0745082
0.0742668
0.0737487
0.0734155
0.0728302
0.0723674
0.0716779
0.0710443
0.0702089
0.133628
0.126793
0.121732
0.116385
0.112517
0.108268
0.105287
0.101874
0.0995704
0.0968085
0.0950295
0.0927834
0.0914174
0.0895849
0.0885459
0.0870477
0.086268
0.0850405
0.0844646
0.0834552
0.0830364
0.0822003
0.0818976
0.0811955
0.0809717
0.0803677
0.0801879
0.0796484
0.0794786
0.0789709
0.078777
0.0782681
0.0780151
0.0774713
0.0771219
0.0765074
0.0760217
0.0752973
0.0746318
0.0737536
0.139858
0.132704
0.127408
0.121812
0.117764
0.113317
0.110198
0.106626
0.104215
0.101324
0.0994627
0.097112
0.0956825
0.0937647
0.0926775
0.0911096
0.0902937
0.0890091
0.0884065
0.0873502
0.0869121
0.0860373
0.0857206
0.0849861
0.0847521
0.0841203
0.0839324
0.083368
0.0831907
0.0826596
0.0824571
0.0819248
0.0816604
0.0810916
0.0807263
0.0800833
0.0795752
0.078817
0.0781204
0.0772008
0.145967
0.138501
0.132974
0.127133
0.122909
0.118268
0.115013
0.111285
0.108768
0.105752
0.103809
0.101356
0.0998641
0.0978629
0.0967284
0.0950923
0.094241
0.0929006
0.092272
0.0911698
0.0907128
0.0898001
0.0894699
0.0887036
0.0884596
0.0878006
0.0876047
0.0870161
0.0868312
0.0862772
0.0860661
0.0855108
0.085235
0.0846415
0.0842603
0.0835892
0.0830588
0.0822671
0.0815397
0.0805791
0.151893
0.144125
0.138373
0.132296
0.1279
0.123071
0.119684
0.115805
0.113187
0.110048
0.108026
0.105474
0.103921
0.101839
0.100659
0.0989562
0.0980705
0.0966758
0.0960218
0.0948751
0.0943997
0.09345
0.0931066
0.0923094
0.0920557
0.0913701
0.0911665
0.0905541
0.090362
0.0897856
0.0895662
0.0889884
0.0887016
0.0880838
0.0876872
0.0869887
0.0864367
0.0856125
0.0848553
0.0838552
0.157681
0.149616
0.143646
0.137337
0.132774
0.127761
0.124245
0.120219
0.117501
0.114242
0.112144
0.109494
0.107883
0.105722
0.104496
0.102729
0.10181
0.100363
0.099684
0.0984938
0.0980005
0.097015
0.0966587
0.0958314
0.0955682
0.0948567
0.0946455
0.09401
0.0938107
0.0932124
0.0929846
0.0923848
0.0920869
0.0914454
0.0910334
0.0903078
0.0897343
0.0888782
0.0880915
0.0870527
0.163278
0.154928
0.148746
0.142213
0.137489
0.132298
0.128657
0.124488
0.121674
0.1183