/*--------------------------------*- C++ -*----------------------------------*\
| =========                 |                                                 |
| \\      /  F ield         | foam-extend: Open Source CFD                    |
|  \\    /   O peration     | Version:  3.0                                   |
|   \\  /    A nd           | Web:         http://www.extend-project.de       |
|    \\/     M anipulation  |                                                 |
\*---------------------------------------------------------------------------*/
FoamFile
{
    version     2.0;
    format      ascii;
    class       volSymmTensorField;
    location    "45";
    object      sigma;
}
// * * * * * * * * * * * * * * * * * * * * * * * * * * * * * * * * * * * * * //

dimensions      [0 0 0 0 0 0 0];

internalField   nonuniform List<symmTensor> 
7680
(
(-0.180099 -0.00248144 -1.3275e-20 0.180097 7.44323e-21 1.85525e-06)
(-0.179377 -0.00287791 4.66021e-20 0.179372 1.3541e-19 5.28103e-06)
(-0.176637 -0.00312755 2.12591e-21 0.176629 -6.43038e-20 8.51634e-06)
(-0.172439 -0.00326588 -3.37103e-21 0.172428 7.00192e-20 1.15742e-05)
(-0.167407 -0.0033272 1.26118e-20 0.167393 -1.05464e-20 1.44649e-05)
(-0.161738 -0.00332779 -7.04398e-21 0.161721 2.35873e-20 1.71958e-05)
(-0.155793 -0.00328608 2.39718e-20 0.155773 -4.86363e-20 1.97726e-05)
(-0.149623 -0.00321067 9.13472e-21 0.149601 -2.27134e-20 2.2199e-05)
(-0.143442 -0.00311144 8.22098e-21 0.143418 -7.52189e-20 2.44771e-05)
(-0.137247 -0.00299308 1.64014e-20 0.13722 -1.26788e-20 2.66073e-05)
(-0.131167 -0.0028611 -3.38775e-20 0.131138 -9.61642e-20 2.85885e-05)
(-0.125178 -0.002718 1.84997e-20 0.125147 3.84275e-20 3.04182e-05)
(-0.11936 -0.00256696 3.78467e-21 0.119328 -8.29039e-20 3.20925e-05)
(-0.113685 -0.00240924 -3.0688e-20 0.113651 4.14804e-20 3.3606e-05)
(-0.108202 -0.00224669 -2.55398e-20 0.108167 6.65145e-21 3.49527e-05)
(-0.102884 -0.00207991 6.10604e-21 0.102848 9.33577e-20 3.61249e-05)
(-0.0977639 -0.00190998 -9.26866e-21 0.0977268 -7.98739e-20 3.71151e-05)
(-0.0928167 -0.0017371 -5.94386e-21 0.0927788 1.82051e-19 3.79147e-05)
(-0.0880622 -0.00156187 2.38614e-20 0.0880237 -9.435e-20 3.85159e-05)
(-0.0834827 -0.00138429 -8.55673e-21 0.0834438 1.66511e-19 3.89108e-05)
(-0.0790883 -0.00120468 -2.98699e-20 0.0790492 -4.7888e-20 3.90931e-05)
(-0.0748679 -0.00102284 -3.1376e-20 0.0748288 1.40361e-19 3.90572e-05)
(-0.0708245 -0.000838996 -3.76573e-20 0.0707857 -1.73885e-20 3.88e-05)
(-0.0669536 -0.00065275 -2.22251e-20 0.0669153 1.8244e-19 3.83195e-05)
(-0.0632529 -0.000464347 -5.76566e-21 0.0632152 -2.85587e-20 3.76165e-05)
(-0.0597243 -0.00027321 -5.98558e-20 0.0596876 1.47583e-19 3.66925e-05)
(-0.0563608 -7.96878e-05 5.63139e-21 0.0563252 7.91443e-20 3.55513e-05)
(-0.0531711 0.000116865 -5.89259e-21 0.0531369 1.21551e-19 3.41964e-05)
(-0.0501439 0.00031602 1.37622e-20 0.0501113 7.18061e-20 3.26323e-05)
(-0.0472949 0.000518125 -4.29593e-20 0.0472641 4.14546e-20 3.08615e-05)
(-0.0446084 0.000722781 -1.10373e-20 0.0445795 3.15356e-20 2.88867e-05)
(-0.042107 0.000929702 -2.84381e-20 0.0420803 -1.20664e-20 2.67077e-05)
(-0.0397723 0.00113735 1.67398e-20 0.039748 1.14173e-20 2.43245e-05)
(-0.0376276 0.00134772 -4.68671e-20 0.0376058 -1.84017e-20 2.17345e-05)
(-0.0356685 0.00154893 2.94727e-21 0.0356496 6.5381e-21 1.89371e-05)
(-0.0338799 0.00176269 -7.00696e-20 0.033864 1.2516e-20 1.59308e-05)
(-0.0323422 0.00193122 2.56928e-21 0.0323295 -1.05202e-19 1.27192e-05)
(-0.0308944 0.0021745 -2.46009e-21 0.0308851 3.00388e-20 9.30661e-06)
(-0.0298071 0.00220832 -2.48184e-20 0.0298014 -7.15218e-20 5.70678e-06)
(-0.0287322 0.00254107 1.01078e-20 0.0287303 -6.34555e-20 1.93355e-06)
(-0.179989 -0.00788876 2.17379e-20 0.179988 -1.30348e-21 1.85287e-06)
(-0.179158 -0.00910234 -3.33431e-20 0.179153 6.01541e-20 5.27482e-06)
(-0.176341 -0.00988749 -3.08616e-20 0.176333 -4.86359e-21 8.50651e-06)
(-0.172089 -0.0103467 4.134e-20 0.172078 -2.11838e-20 1.1561e-05)
(-0.16702 -0.0105824 -1.16303e-20 0.167005 -3.68748e-20 1.44486e-05)
(-0.161327 -0.0106436 -5.51514e-21 0.16131 5.50296e-20 1.71768e-05)
(-0.155367 -0.0105847 -3.04559e-20 0.155347 4.99926e-20 1.97513e-05)
(-0.14919 -0.0104318 -1.77623e-20 0.149168 2.73541e-20 2.21758e-05)
(-0.143008 -0.0102142 -5.08079e-21 0.142984 1.35962e-19 2.44525e-05)
(-0.136816 -0.00994617 9.03442e-21 0.136789 1.18369e-19 2.65818e-05)
(-0.130742 -0.00964413 4.93763e-20 0.130714 -1.95787e-20 2.85626e-05)
(-0.124762 -0.00931602 4.96311e-21 0.124731 7.12186e-20 3.03924e-05)
(-0.118955 -0.00897124 2.0999e-20 0.118923 -7.17678e-20 3.20672e-05)
(-0.113292 -0.00861417 4.90124e-20 0.113258 6.2255e-20 3.35818e-05)
(-0.107823 -0.00825026 3.03738e-20 0.107788 -1.44018e-19 3.49299e-05)
(-0.10252 -0.00788201 -6.58299e-20 0.102483 -1.77272e-20 3.6104e-05)
(-0.0974139 -0.0075124 6.7574e-20 0.0973769 8.2493e-21 3.70965e-05)
(-0.0924822 -0.00714306 -1.80264e-20 0.0924443 -5.46515e-20 3.78988e-05)
(-0.0877436 -0.00677536 -1.328e-20 0.0877051 9.98667e-20 3.85029e-05)
(-0.0831801 -0.00641053 9.17208e-21 0.0831412 -4.65627e-20 3.89009e-05)
(-0.078802 -0.00604889 -6.17086e-20 0.0787629 1.81425e-20 3.90863e-05)
(-0.0745978 -0.00569154 2.99947e-20 0.0745588 -8.07333e-20 3.90535e-05)
(-0.0705708 -0.00533806 -2.14022e-21 0.070532 5.08165e-20 3.87993e-05)
(-0.0667162 -0.00498954 1.17294e-21 0.0666778 -1.33829e-19 3.83215e-05)
(-0.0630317 -0.00464511 -8.81025e-20 0.062994 3.04389e-21 3.7621e-05)
(-0.0595191 -0.00430589 7.34915e-20 0.0594824 -7.81577e-20 3.66993e-05)
(-0.0561716 -0.00397069 -3.78387e-20 0.056136 1.18249e-20 3.55601e-05)
(-0.0529975 -0.00364089 -7.67165e-21 0.0529633 -4.13988e-20 3.4207e-05)
(-0.0499861 -0.00331493 -7.18486e-20 0.0499534 -5.09712e-20 3.26445e-05)
(-0.0471521 -0.00299485 -4.46599e-20 0.0471213 2.39296e-20 3.08754e-05)
(-0.0444817 -0.00267889 -4.47181e-20 0.0444528 -1.38024e-20 2.89023e-05)
(-0.041995 -0.00236908 -3.98548e-20 0.0419683 5.28762e-21 2.67252e-05)
(-0.0396785 -0.00206741 2.67538e-20 0.0396541 -1.25945e-21 2.43438e-05)
(-0.0375487 -0.0017659 2.15224e-20 0.037527 -5.98617e-20 2.17558e-05)
(-0.0356129 -0.00149423 2.59915e-21 0.0355939 3.83253e-20 1.89599e-05)
(-0.0338437 -0.00118906 -1.20605e-19 0.0338277 -6.20352e-22 1.59544e-05)
(-0.03233 -0.000984919 -5.37666e-20 0.0323173 8.37897e-21 1.27422e-05)
(-0.0309251 -0.000642702 3.11067e-20 0.0309158 3.2e-20 9.32666e-06)
(-0.0298329 -0.000593826 -1.19651e-19 0.0298272 -2.4678e-20 5.72031e-06)
(-0.0288419 -0.000224177 2.231e-20 0.02884 4.10871e-20 1.93735e-06)
(-0.17975 -0.0132991 2.95269e-20 0.179748 -2.75184e-20 1.84694e-06)
(-0.178701 -0.0153116 5.34664e-20 0.178696 6.84799e-20 5.25674e-06)
(-0.175728 -0.0166191 -1.47892e-20 0.175719 -1.90114e-19 8.47715e-06)
(-0.171366 -0.0173899 -2.87083e-20 0.171355 1.53081e-19 1.15214e-05)
(-0.166221 -0.017793 7.4601e-20 0.166207 -1.11997e-19 1.43998e-05)
(-0.160478 -0.0179101 5.41081e-20 0.160461 -1.14028e-20 1.71198e-05)
(-0.154487 -0.0178307 2.26159e-20 0.154468 -9.88318e-20 1.9687e-05)
(-0.148294 -0.0175982 6.65602e-20 0.148272 1.06515e-20 2.21051e-05)
(-0.142106 -0.0172608 8.39585e-20 0.142082 -5.09849e-21 2.43761e-05)
(-0.135917 -0.0168425 -8.5039e-20 0.13589 -1.14815e-20 2.65004e-05)
(-0.129852 -0.0163703 -5.39316e-20 0.129824 -1.47715e-19 2.8477e-05)
(-0.123886 -0.0158574 -2.5255e-20 0.123855 6.71941e-20 3.0303e-05)
(-0.118096 -0.0153194 3.99665e-21 0.118064 -4.8085e-20 3.19749e-05)
(-0.112453 -0.0147638 -8.89628e-20 0.11242 4.69535e-20 3.3487e-05)
(-0.107007 -0.0141995 -9.4466e-20 0.106972 8.90598e-20 3.48333e-05)
(-0.101727 -0.013631 1.17894e-19 0.101691 8.96903e-20 3.60063e-05)
(-0.0966463 -0.0130629 -3.13595e-20 0.0966093 7.35672e-20 3.69985e-05)
(-0.0917401 -0.0124985 5.75718e-20 0.0917022 1.51003e-19 3.78011e-05)
(-0.0870273 -0.0119397 6.33577e-20 0.0869889 -1.41281e-19 3.84064e-05)
(-0.0824899 -0.0113891 -9.28206e-20 0.0824511 1.22788e-19 3.88065e-05)
(-0.0781379 -0.010847 -4.95692e-20 0.0780989 -3.39423e-20 3.8995e-05)
(-0.0739598 -0.0103157 -1.89043e-20 0.0739208 1.26321e-19 3.89662e-05)
(-0.0699585 -0.00979424 -7.25011e-20 0.0699198 -1.39656e-20 3.8717e-05)
(-0.0661295 -0.00928513 -7.57919e-20 0.0660912 6.50025e-20 3.82451e-05)
(-0.06247 -0.00878657 3.9685e-20 0.0624324 1.83195e-19 3.75512e-05)
(-0.0589821 -0.00830108 -5.44464e-20 0.0589455 1.10296e-19 3.66366e-05)
(-0.0556586 -0.00782643 5.17149e-20 0.0556231 1.77795e-19 3.5505e-05)
(-0.0525083 -0.00736526 -6.11514e-20 0.0524741 4.98252e-20 3.41595e-05)
(-0.0495195 -0.00691515 7.86961e-20 0.0494869 1.40684e-19 3.26045e-05)
(-0.0467082 -0.00647868 5.13783e-21 0.0466774 3.6444e-21 3.08426e-05)
(-0.0440591 -0.00605432 -2.57974e-20 0.0440302 5.93113e-20 2.88763e-05)
(-0.0415937 -0.00564195 -1.46597e-20 0.041567 9.10027e-20 2.67056e-05)
(-0.0392972 -0.00524885 -7.31638e-20 0.0392729 1.64075e-19 2.43303e-05)
(-0.0371872 -0.00485486 1.16054e-20 0.0371654 -2.8252e-19 2.17481e-05)
(-0.0352722 -0.00451207 5.64034e-20 0.0352532 1.97663e-19 1.89581e-05)
(-0.0335194 -0.00412213 -9.23937e-20 0.0335034 -1.06793e-19 1.59584e-05)
(-0.0320347 -0.00386514 2.3565e-20 0.0320219 8.62432e-21 1.27517e-05)
(-0.0306475 -0.00346402 -5.09454e-20 0.0306382 1.03762e-19 9.34046e-06)
(-0.0295905 -0.00336557 -1.74075e-20 0.0295847 -4.55031e-20 5.73575e-06)
(-0.0286668 -0.00297051 -2.35573e-20 0.0286649 1.5595e-19 1.94773e-06)
(-0.179379 -0.0187108 7.2961e-20 0.179377 4.87175e-20 1.83775e-06)
(-0.178007 -0.0214937 -9.34411e-20 0.178002 1.35984e-20 5.23145e-06)
(-0.1748 -0.0233024 -1.10656e-20 0.174792 2.68004e-19 8.43688e-06)
(-0.170276 -0.0243694 1.29798e-19 0.170265 -2.56652e-19 1.14674e-05)
(-0.165017 -0.0249288 -1.21872e-19 0.165003 5.92893e-20 1.43332e-05)
(-0.159199 -0.0250939 7.37468e-21 0.159182 6.9413e-20 1.70418e-05)
(-0.153161 -0.0249886 -2.07992e-20 0.153141 6.88306e-20 1.95987e-05)
(-0.146942 -0.0246728 5.09985e-20 0.14692 -2.62347e-20 2.20076e-05)
(-0.140745 -0.0242135 1.54398e-20 0.14072 -1.08966e-19 2.42703e-05)
(-0.134558 -0.0236439 -6.96206e-20 0.134531 -5.59897e-20 2.63872e-05)
(-0.128505 -0.0230012 9.25087e-20 0.128476 4.97036e-20 2.83573e-05)
(-0.122557 -0.022304 7.59171e-20 0.122527 1.20144e-20 3.01777e-05)
(-0.116792 -0.0215738 3.00719e-20 0.11676 -1.62319e-19 3.18446e-05)
(-0.111177 -0.0208209 1.48408e-19 0.111144 1.1875e-19 3.33527e-05)
(-0.105761 -0.0200577 6.53892e-20 0.105727 -1.28239e-21 3.46959e-05)
(-0.100515 -0.0192905 -1.15493e-19 0.100479 3.19675e-19 3.58666e-05)
(-0.0954682 -0.018526 1.71759e-19 0.0954313 -1.95945e-19 3.68573e-05)
(-0.090597 -0.0177683 -2.25077e-19 0.0905593 2.14914e-19 3.76594e-05)
(-0.0859199 -0.0170205 -1.60751e-20 0.0858817 -1.27855e-19 3.82652e-05)
(-0.0814183 -0.0162862 1.0149e-19 0.0813796 1.26395e-19 3.86668e-05)
(-0.0771021 -0.0155656 -5.28764e-20 0.0770632 -1.27463e-19 3.88579e-05)
(-0.0729593 -0.0148624 5.27525e-20 0.0729204 -6.18616e-22 3.88328e-05)
(-0.0689931 -0.0141749 -5.74003e-20 0.0689545 3.02907e-20 3.85883e-05)
(-0.0651982 -0.0135072 1.62641e-19 0.0651601 1.60803e-19 3.81222e-05)
(-0.0615724 -0.0128562 -1.20864e-20 0.061535 -1.03828e-19 3.74349e-05)
(-0.0581173 -0.0122264 7.62209e-20 0.0580808 8.15433e-20 3.65276e-05)
(-0.0548256 -0.0116136 -7.05519e-20 0.0547902 2.56391e-20 3.54038e-05)
(-0.0517061 -0.011023 -4.87478e-20 0.0516721 1.05181e-19 3.40665e-05)
(-0.0487471 -0.0104498 -9.4403e-20 0.0487146 -1.29563e-19 3.25197e-05)
(-0.0459646 -0.00989926 -1.30942e-19 0.0459338 1.09749e-19 3.07661e-05)
(-0.0433425 -0.00936758 6.217e-20 0.0433137 -5.67898e-21 2.88078e-05)
(-0.0409042 -0.00885622 1.09797e-19 0.0408776 4.92438e-20 2.6645e-05)
(-0.0386308 -0.00837438 -3.65429e-19 0.0386065 1.327e-19 2.42774e-05)
(-0.0365491 -0.00789133 9.53738e-21 0.0365274 -1.70499e-20 2.17031e-05)
(-0.0346481 -0.00748762 2.18327e-19 0.0346292 1.20999e-19 1.89208e-05)
(-0.032935 -0.00700002 -3.34135e-19 0.0329191 4.54167e-20 1.59291e-05)
(-0.0314455 -0.00672353 1.79368e-19 0.0314328 8.90024e-20 1.27302e-05)
(-0.030124 -0.00619927 -1.77682e-20 0.0301147 9.47214e-20 9.32652e-06)
(-0.0290467 -0.0060871 -5.16443e-20 0.0290409 -9.33143e-20 5.72795e-06)
(-0.0281988 -0.00561145 -4.49619e-20 0.0281969 -1.65071e-19 1.94466e-06)
(-0.178875 -0.0241257 4.91236e-20 0.178874 -1.19023e-19 1.82753e-06)
(-0.177077 -0.0276382 2.15876e-19 0.177072 -2.20682e-19 5.20147e-06)
(-0.173564 -0.0299183 -1.12215e-19 0.173555 -2.98329e-19 8.38844e-06)
(-0.168824 -0.0312599 -1.42905e-19 0.168813 -2.00516e-20 1.14019e-05)
(-0.163415 -0.03196 2.71139e-19 0.163401 3.64409e-20 1.4252e-05)
(-0.157498 -0.0321621 8.36722e-20 0.157481 -1.65953e-19 1.69462e-05)
(-0.151397 -0.0320231 -1.85564e-20 0.151377 -1.54004e-19 1.94901e-05)
(-0.145143 -0.031619 -6.31053e-20 0.145121 9.01999e-20 2.18871e-05)
(-0.138932 -0.0310346 6.35952e-20 0.138908 5.78535e-20 2.41391e-05)
(-0.132748 -0.030312 -8.11197e-21 0.132722 1.16807e-19 2.62464e-05)
(-0.12671 -0.0294984 9.68338e-21 0.126682 -1.91961e-19 2.82079e-05)
(-0.120786 -0.0286173 -1.96413e-19 0.120756 1.27447e-19 3.00208e-05)
(-0.115052 -0.0276958 8.58045e-20 0.11502 -1.23167e-19 3.16814e-05)
(-0.109473 -0.0267473 1.67581e-20 0.10944 1.93894e-19 3.31842e-05)
(-0.104096 -0.0257872 1.17016e-19 0.104062 -5.75389e-21 3.45231e-05)
(-0.0988918 -0.0248237 -3.2548e-20 0.0988561 1.86278e-19 3.56907e-05)
(-0.0938891 -0.023865 -7.12594e-20 0.0938524 -2.74576e-19 3.66794e-05)
(-0.0890627 -0.0229168 1.45978e-19 0.0890252 1.05552e-19 3.74807e-05)
(-0.084431 -0.0219826 -6.76384e-20 0.0843929 5.49803e-20 3.80869e-05)
(-0.0799747 -0.0210674 -6.06654e-20 0.0799362 -3.98657e-20 3.84901e-05)
(-0.0757038 -0.0201711 -1.99797e-19 0.0756651 2.14382e-19 3.86842e-05)
(-0.0716056 -0.0192989 1.13976e-19 0.0715669 1.86557e-19 3.86632e-05)
(-0.0676834 -0.0184482 6.76259e-20 0.0676449 9.91359e-20 3.84242e-05)
(-0.0639316 -0.0176248 -1.4774e-19 0.0638936 -1.75461e-19 3.79647e-05)
(-0.0603477 -0.0168243 -5.54942e-20 0.0603104 2.82339e-19 3.72851e-05)
(-0.0569334 -0.0160529 1.16666e-19 0.056897 -3.81923e-20 3.63866e-05)
(-0.053681 -0.0153052 1.12864e-19 0.0536458 1.446e-19 3.52722e-05)
(-0.0505997 -0.0145879 -1.85005e-19 0.0505658 6.16565e-20 3.39449e-05)
(-0.0476769 -0.0138947 6.59634e-20 0.0476444 3.01871e-19 3.24084e-05)
(-0.0449296 -0.0132326 1.24669e-19 0.0448989 2.15715e-19 3.06652e-05)
(-0.0423399 -0.0125963 -1.22659e-19 0.0423112 2.67957e-19 2.87174e-05)
(-0.0399349 -0.0119879 2.32168e-19 0.0399084 -5.98185e-20 2.65651e-05)
(-0.037688 -0.011417 -1.01568e-19 0.0376638 1.73993e-19 2.4208e-05)
(-0.0356424 -0.0108503 -9.3628e-20 0.0356208 1.27096e-19 2.16441e-05)
(-0.0337539 -0.0103719 1.78875e-19 0.033735 2.89833e-19 1.88724e-05)
(-0.0320932 -0.00981871 -9.08778e-20 0.0320773 -7.20809e-20 1.58915e-05)
(-0.0305839 -0.00947043 6.48503e-20 0.0305712 1.16105e-20 1.27034e-05)
(-0.0293404 -0.00891957 -2.1366e-19 0.029331 6.21791e-20 9.31082e-06)
(-0.0282104 -0.00872771 -3.57411e-19 0.0282047 -3.90506e-20 5.72201e-06)
(-0.0274196 -0.00823897 1.05034e-19 0.0274176 1.09756e-19 1.94644e-06)
(-0.178238 -0.0295422 2.72644e-20 0.178236 5.20495e-20 1.81403e-06)
(-0.175915 -0.0337337 -2.12206e-19 0.17591 3.05531e-19 5.16417e-06)
(-0.172024 -0.0364478 1.73855e-19 0.172015 -7.36958e-20 8.32894e-06)
(-0.16702 -0.0380369 2.07303e-19 0.167009 3.47632e-19 1.13218e-05)
(-0.161427 -0.038858 -2.05046e-19 0.161412 -2.42996e-20 1.41528e-05)
(-0.155386 -0.039083 -6.5364e-20 0.15537 -8.91593e-20 1.68296e-05)
(-0.149208 -0.0389007 1.35461e-19 0.149188 1.07073e-19 1.93574e-05)
(-0.142911 -0.0384018 2.04584e-19 0.14289 -9.55121e-20 2.17397e-05)
(-0.136684 -0.0376885 4.57407e-20 0.13666 -1.13222e-19 2.39784e-05)
(-0.130503 -0.0368108 -2.58929e-19 0.130477 1.37114e-19 2.60736e-05)
(-0.124483 -0.0358257 8.13642e-20 0.124455 2.21588e-19 2.80243e-05)
(-0.118588 -0.0347611 1.11175e-19 0.118558 1.05065e-19 2.98278e-05)
(-0.112891 -0.0336499 2.96354e-20 0.112859 4.53626e-21 3.14801e-05)
(-0.107355 -0.0325076 3.00529e-19 0.107322 -2.19864e-19 3.29759e-05)
(-0.102026 -0.0313531 7.33847e-20 0.101992 3.71507e-20 3.43091e-05)
(-0.0968725 -0.030196 -2.37456e-19 0.096837 -1.09873e-19 3.54722e-05)
(-0.0919228 -0.0290463 8.26769e-21 0.0918864 2.05943e-19 3.64578e-05)
(-0.0871504 -0.0279107 5.25242e-20 0.0871131 1.73861e-19 3.72573e-05)
(-0.0825735 -0.0267935 -1.1693e-19 0.0825356 7.07016e-20 3.78631e-05)
(-0.0781718 -0.0257006 2.40681e-19 0.0781335 2.06941e-19 3.82674e-05)
(-0.0739554 -0.0246319 1.10925e-19 0.0739169 2.37338e-19 3.84637e-05)
(-0.0699107 -0.0235939 -8.0126e-20 0.0698723 1.72027e-19 3.84467e-05)
(-0.0660414 -0.0225832 -3.1342e-19 0.0660031 -1.70766e-19 3.82128e-05)
(-0.062341 -0.0216071 3.16279e-19 0.0623032 2.3655e-19 3.77598e-05)
(-0.0588075 -0.0206599 1.02384e-19 0.0587704 9.30446e-20 3.7088e-05)
(-0.0554418 -0.0197499 -1.15128e-19 0.0554056 2.98261e-19 3.61984e-05)
(-0.0522366 -0.0188694 1.18692e-19 0.0522015 -1.1486e-19 3.50938e-05)
(-0.0492006 -0.0180283 1.31357e-19 0.0491668 1.33779e-19 3.37771e-05)
(-0.0463209 -0.0172169 5.435e-20 0.0462887 -8.45837e-20 3.22518e-05)
(-0.0436154 -0.0164465 -6.63808e-20 0.0435849 -1.0124e-19 3.05203e-05)
(-0.0410638 -0.0157067 -1.18521e-19 0.0410352 -5.51508e-19 2.85843e-05)
(-0.038697 -0.015006 -1.83966e-20 0.0386706 2.08159e-20 2.64441e-05)
(-0.0364798 -0.0143461 -2.11954e-20 0.0364557 -3.06287e-19 2.40991e-05)
(-0.0344717 -0.0137033 1.1808e-19 0.0344502 6.17243e-20 2.15478e-05)
(-0.0325957 -0.0131496 1.23792e-19 0.0325769 -2.94735e-19 1.87889e-05)
(-0.0309814 -0.012533 -6.08413e-19 0.0309656 -1.52715e-19 1.58216e-05)
(-0.0294577 -0.0121249 3.82905e-19 0.0294451 -1.65208e-19 1.26474e-05)
(-0.0282732 -0.0115162 1.26353e-21 0.0282639 -4.91866e-20 9.26977e-06)
(-0.0271243 -0.0112829 -2.56261e-21 0.0271186 -4.92305e-19 5.69631e-06)
(-0.0263705 -0.0107739 -2.28956e-19 0.0263685 1.06004e-19 1.93699e-06)
(-0.177463 -0.0349613 2.08533e-19 0.177461 -8.63042e-20 1.79968e-06)
(-0.174523 -0.03977 1.2256e-19 0.174518 6.7993e-20 5.1224e-06)
(-0.170188 -0.0428725 -1.82562e-19 0.17018 1.20152e-21 8.26148e-06)
(-0.164873 -0.0446765 4.42362e-21 0.164862 -2.86144e-19 1.12304e-05)
(-0.159063 -0.0455947 2.6801e-20 0.159049 1.46178e-19 1.40393e-05)
(-0.152879 -0.0458259 3.50559e-21 0.152862 4.59817e-19 1.66956e-05)
(-0.146609 -0.0455884 -6.57443e-20 0.14659 2.22803e-20 1.92046e-05)
(-0.140263 -0.044987 -2.22569e-19 0.140242 1.56223e-19 2.15696e-05)
(-0.134016 -0.0441399 2.86343e-19 0.133992 -1.31556e-20 2.37926e-05)
(-0.127839 -0.0431046 2.30638e-19 0.127813 1.12704e-19 2.58736e-05)
(-0.121839 -0.0419473 -6.01221e-20 0.121812 -3.57788e-22 2.78116e-05)
(-0.115979 -0.0406998 -3.57834e-19 0.115949 1.80923e-19 2.96037e-05)
(-0.110325 -0.0394003 -1.9158e-19 0.110294 6.13318e-21 3.12462e-05)
(-0.10484 -0.0380666 -3.23524e-20 0.104808 3.32541e-19 3.27337e-05)
(-0.0995678 -0.0367206 3.32773e-19 0.0995337 -1.67351e-19 3.40602e-05)
(-0.0944733 -0.0353732 1.18154e-19 0.0944381 6.31297e-21 3.52181e-05)
(-0.0895855 -0.034036 1.06423e-19 0.0895493 5.63257e-21 3.61999e-05)
(-0.0848761 -0.0327169 8.00735e-20 0.0848391 -2.42246e-21 3.69973e-05)
(-0.080363 -0.0314204 -1.95434e-20 0.0803254 -1.3744e-19 3.76026e-05)
(-0.0760249 -0.0301539 1.05107e-19 0.0759869 -2.02436e-19 3.80078e-05)
(-0.0718718 -0.0289169 -1.11185e-19 0.0718336 -6.88011e-21 3.82069e-05)
(-0.0678892 -0.0277169 -6.51172e-20 0.067851 -3.20501e-19 3.8194e-05)
(-0.0640811 -0.0265502 5.27209e-21 0.0640431 1.97939e-19 3.7966e-05)
(-0.0604401 -0.0254252 5.03955e-20 0.0604025 -1.25704e-19 3.75205e-05)
(-0.0569645 -0.024335 1.67748e-19 0.0569276 -1.23481e-19 3.68576e-05)
(-0.0536546 -0.02329 -2.92146e-20 0.0536186 -6.328e-20 3.59782e-05)
(-0.0505032 -0.0222804 -9.20019e-20 0.0504684 -1.88358e-20 3.48851e-05)
(-0.0475186 -0.0213186 -2.47187e-20 0.047485 -3.22065e-19 3.35809e-05)
(-0.0446881 -0.0203922 -2.12054e-19 0.044656 6.25869e-19 3.2069e-05)
(-0.042029 -0.019516 -2.61489e-19 0.0419986 -4.74244e-20 3.03515e-05)
(-0.0395208 -0.0186754 -1.17255e-19 0.0394924 3.456e-19 2.84301e-05)
(-0.0371954 -0.017885 4.40982e-19 0.0371691 1.47358e-19 2.63049e-05)
(-0.0350141 -0.0171373 -4.15775e-20 0.0349901 -2.13508e-19 2.39754e-05)
(-0.0330446 -0.0164245 -1.25654e-19 0.0330232 2.46913e-19 2.14399e-05)
(-0.0311897 -0.0157905 1.33768e-19 0.031171 -1.82332e-19 1.86973e-05)
(-0.0296206 -0.0151362 -2.98463e-20 0.0296049 -4.06693e-20 1.57473e-05)
(-0.0280835 -0.0146424 2.3987e-20 0.0280709 1.3493e-20 1.25909e-05)
(-0.0269666 -0.0140453 -5.20469e-19 0.0269573 -1.10988e-19 9.23239e-06)
(-0.0257537 -0.0137242 -2.21068e-19 0.025748 -1.38327e-19 5.67757e-06)
(-0.0250812 -0.0132425 2.48521e-19 0.0250793 5.72007e-19 1.93551e-06)
(-0.176548 -0.040381 9.89104e-20 0.176547 1.28175e-19 1.782e-06)
(-0.172906 -0.0457363 -2.49082e-20 0.172901 -8.79684e-20 5.07327e-06)
(-0.168066 -0.0491752 -1.68461e-20 0.168057 9.47792e-20 8.18294e-06)
(-0.162397 -0.0511562 1.40637e-19 0.162386 7.10758e-19 1.11244e-05)
(-0.15634 -0.0521442 2.31087e-19 0.156327 5.16718e-20 1.39078e-05)
(-0.149993 -0.0523621 -1.73833e-22 0.149977 -4.47949e-19 1.65405e-05)
(-0.143621 -0.052056 8.28078e-21 0.143602 -7.94158e-20 1.90276e-05)
(-0.137218 -0.051343 1.67842e-19 0.137197 -1.58002e-19 2.13725e-05)
(-0.130949 -0.0503566 -7.06752e-20 0.130926 -3.78276e-20 2.35771e-05)
(-0.124776 -0.0491608 -1.26278e-19 0.124751 -1.56021e-19 2.56414e-05)
(-0.118801 -0.0478304 2.91372e-19 0.118774 -1.2509e-19 2.75642e-05)
(-0.11298 -0.0464006 2.43529e-19 0.11295 -2.63133e-19 2.9343e-05)
(-0.107377 -0.0449147 6.86707e-20 0.107346 9.64702e-20 3.09737e-05)
(-0.101949 -0.0433922 7.87815e-20 0.101917 -5.27002e-20 3.24512e-05)
(-0.096741 -0.0418581 -1.39829e-19 0.0967072 -3.75385e-19 3.37692e-05)
(-0.0917141 -0.0403242 -1.11361e-19 0.0916792 5.72135e-20 3.49204e-05)
(-0.0868969 -0.0388037 1.22694e-19 0.086861 -3.02238e-19 3.58972e-05)
(-0.0822591 -0.0373053 -2.37398e-20 0.0822224 2.36632e-20 3.66913e-05)
(-0.0778187 -0.0358342 -1.9394e-19 0.0777814 -4.61217e-19 3.7295e-05)
(-0.0735526 -0.0343984 3.73624e-19 0.0735149 4.81861e-20 3.77005e-05)
(-0.0694713 -0.0329975 1.01814e-19 0.0694334 -7.87958e-20 3.79015e-05)
(-0.0655591 -0.0316401 6.97946e-20 0.0655212 4.18925e-20 3.78924e-05)
(-0.0618203 -0.0303215 -2.01456e-19 0.0617826 1.70997e-19 3.76698e-05)
(-0.0582464 -0.0290519 1.35381e-20 0.0582092 6.57401e-20 3.72315e-05)
(-0.0548364 -0.0278228 1.34624e-19 0.0547999 1.437e-19 3.65774e-05)
(-0.0515894 -0.0266467 1.81206e-19 0.0515537 -3.12927e-19 3.57085e-05)
(-0.0484991 -0.0255115 -2.63904e-19 0.0484644 2.43031e-19 3.46272e-05)
(-0.0455723 -0.024433 9.28218e-19 0.045539 -5.52542e-19 3.33363e-05)
(-0.0427972 -0.0233947 3.2126e-19 0.0427654 4.92245e-19 3.18387e-05)
(-0.0401902 -0.0224169 -2.39641e-19 0.04016 -5.72568e-19 3.01366e-05)
(-0.0377306 -0.0214783 -2.62945e-19 0.0377024 4.96344e-19 2.82314e-05)
(-0.0354504 -0.0206029 -5.89956e-19 0.0354243 -5.08729e-20 2.61233e-05)
(-0.0333085 -0.0197695 7.67076e-20 0.0332847 2.01502e-19 2.38115e-05)
(-0.0313772 -0.0189923 1.16234e-19 0.0313559 2.80473e-19 2.12947e-05)
(-0.029547 -0.0182794 -3.41664e-19 0.0295285 1.58016e-19 1.85714e-05)
(-0.0280127 -0.0175902 -4.02035e-19 0.0279971 1.87115e-20 1.5642e-05)
(-0.0264779 -0.0170191 3.48771e-19 0.0264654 2.99966e-19 1.25071e-05)
(-0.025399 -0.0164201 -1.91133e-19 0.0253898 2.87275e-19 9.1716e-06)
(-0.0241711 -0.0160466 6.15153e-19 0.0241654 -1.87843e-19 5.64032e-06)
(-0.0235244 -0.0155795 -4.93722e-19 0.0235225 1.14595e-19 1.92231e-06)
(-0.175491 -0.0458015 1.22083e-19 0.17549 -9.15325e-20 1.7636e-06)
(-0.171068 -0.0516228 1.33327e-19 0.171063 -6.77871e-20 5.01987e-06)
(-0.165667 -0.0553391 2.38967e-19 0.165659 -6.71267e-20 8.09665e-06)
(-0.159606 -0.0574545 1.24394e-19 0.159595 -7.02555e-19 1.10074e-05)
(-0.153276 -0.0584811 -4.66078e-19 0.153262 -4.91397e-19 1.37622e-05)
(-0.146748 -0.0586638 -2.31624e-20 0.146732 1.85255e-19 1.63682e-05)
(-0.140262 -0.0582737 3.08858e-20 0.140244 2.46192e-19 1.88308e-05)
(-0.133798 -0.0574391 -1.60284e-19 0.133777 3.75097e-20 2.1153e-05)
(-0.127506 -0.0563072 2.44412e-19 0.127483 3.38098e-19 2.33367e-05)
(-0.121339 -0.0549476 2.62678e-19 0.121313 -4.52269e-19 2.53821e-05)
(-0.115392 -0.053443 -3.19879e-19 0.115365 3.18237e-19 2.72879e-05)
(-0.109614 -0.0518317 -6.24033e-20 0.109585 -2.6703e-19 2.90514e-05)
(-0.104068 -0.0501614 -1.07986e-20 0.104037 8.38534e-20 3.06688e-05)
(-0.0987057 -0.0484532 -2.67764e-19 0.0986735 -5.88242e-20 3.21348e-05)
(-0.0935688 -0.0467346 3.1923e-19 0.0935353 2.49494e-19 3.34433e-05)
(-0.0886176 -0.0450185 1.89184e-19 0.0885831 -1.84697e-19 3.45869e-05)
(-0.0838791 -0.0433194 -9.71825e-20 0.0838435 4.37338e-19 3.55581e-05)
(-0.0793212 -0.0416466 7.72283e-20 0.0792849 -2.28241e-19 3.63485e-05)
(-0.0749616 -0.0400058 -2.48994e-19 0.0749247 2.49787e-19 3.69504e-05)
(-0.0707758 -0.0384059 3.10032e-19 0.0707384 6.35681e-21 3.73559e-05)
(-0.0667743 -0.0368461 -2.5049e-20 0.0667368 -2.00958e-19 3.7559e-05)
(-0.0629401 -0.0353363 1.61752e-19 0.0629025 -5.76886e-20 3.7554e-05)
(-0.059278 -0.0338708 1.49459e-19 0.0592407 -1.48851e-19 3.73374e-05)
(-0.0557783 -0.0324612 -5.93565e-20 0.0557414 -2.80974e-20 3.6907e-05)
(-0.0524408 -0.0310977 -3.34159e-19 0.0524045 1.9925e-19 3.62629e-05)
(-0.0492628 -0.0297947 2.55114e-19 0.0492274 -5.43847e-19 3.54056e-05)
(-0.0462395 -0.028538 -5.80677e-19 0.0462051 1.50767e-19 3.43379e-05)
(-0.0433757 -0.0273463 -1.0697e-19 0.0433427 1.83621e-19 3.3062e-05)
(-0.0406614 -0.0261998 2.35198e-19 0.0406299 4.02439e-20 3.15811e-05)
(-0.0381102 -0.0251233 -9.04981e-20 0.0380803 -2.81847e-19 2.9897e-05)
(-0.0357043 -0.0240897 6.27287e-19 0.0356763 1.79942e-19 2.80111e-05)
(-0.0334714 -0.023132 1.93597e-19 0.0334455 -2.70026e-19 2.59234e-05)
(-0.0313751 -0.0222158 -5.32824e-20 0.0313515 5.99523e-19 2.3633e-05)
(-0.0294806 -0.0213788 2.84937e-19 0.0294595 -7.52678e-19 2.11388e-05)
(-0.0276861 -0.0205891 -1.6677e-19 0.0276677 5.44507e-19 1.84391e-05)
(-0.0261783 -0.0198782 3.64909e-20 0.0261627 -1.82819e-19 1.55346e-05)
(-0.0246611 -0.0192249 2.4745e-19 0.0246486 4.95636e-19 1.24257e-05)
(-0.0236118 -0.0186556 -9.55515e-19 0.0236027 -3.54173e-19 9.11731e-06)
(-0.0223635 -0.0182054 -3.58815e-19 0.0223579 1.53806e-19 5.61251e-06)
(-0.0217827 -0.0177876 4.6027e-19 0.0217807 3.67333e-19 1.91808e-06)
(-0.174289 -0.0512201 -8.74532e-20 0.174287 6.61647e-19 1.74178e-06)
(-0.169015 -0.0574197 -1.53101e-19 0.16901 2.96569e-19 4.95903e-06)
(-0.163003 -0.0613486 -3.59229e-19 0.162995 8.55864e-20 7.9992e-06)
(-0.156516 -0.0635515 2.9654e-21 0.156505 5.11643e-19 1.08757e-05)
(-0.14989 -0.0645828 5.654e-19 0.149876 6.60889e-19 1.35984e-05)
(-0.143167 -0.0647062 1.94585e-19 0.14315 2.47217e-19 1.61747e-05)
(-0.136558 -0.0642155 -3.64359e-20 0.13654 -1.14383e-19 1.86095e-05)
(-0.130028 -0.063248 2.52206e-19 0.130007 -3.09439e-19 2.09062e-05)
(-0.123712 -0.0619637 -3.96406e-19 0.123689 -2.93116e-19 2.30664e-05)
(-0.117553 -0.0604368 -1.7665e-19 0.117528 2.21355e-19 2.50902e-05)
(-0.111637 -0.0587571 3.42403e-19 0.11161 4.85319e-19 2.69765e-05)
(-0.105909 -0.056965 -1.92885e-19 0.10588 4.22713e-19 2.87225e-05)
(-0.100425 -0.0551126 2.10747e-19 0.100395 2.87454e-19 3.03246e-05)
(-0.095135 -0.053222 4.43539e-20 0.0951032 2.73306e-19 3.17773e-05)
(-0.0900771 -0.0513232 -4.45775e-19 0.090044 5.7573e-20 3.30745e-05)
(-0.0852092 -0.0494296 1.56019e-19 0.085175 -9.71514e-20 3.42089e-05)
(-0.0805572 -0.0475569 6.40347e-20 0.080522 2.08351e-21 3.5173e-05)
(-0.0760871 -0.045715 -9.29066e-20 0.0760511 -2.92288e-19 3.59583e-05)
(-0.0718161 -0.0439102 -8.64185e-20 0.0717796 -2.27526e-19 3.65572e-05)
(-0.0677181 -0.0421517 -1.89443e-19 0.0676811 3.79318e-19 3.69619e-05)
(-0.0638041 -0.0404388 3.78761e-20 0.0637669 1.83195e-20 3.71662e-05)
(-0.060055 -0.0387819 -3.56694e-20 0.0600179 3.52058e-19 3.71645e-05)
(-0.056477 -0.0371749 -6.09598e-20 0.0564401 -9.78859e-20 3.69533e-05)
(-0.0530581 -0.0356306 4.79356e-19 0.0530215 1.1271e-19 3.65305e-05)
(-0.0497996 -0.0341378 -4.66339e-19 0.0497637 2.43827e-19 3.5896e-05)
(-0.0466968 -0.0327128 8.30474e-20 0.0466617 -1.11277e-19 3.50505e-05)
(-0.0437465 -0.0313395 4.49016e-19 0.0437125 5.94107e-19 3.39966e-05)
(-0.0409512 -0.0300393 4.93195e-19 0.0409184 1.74004e-19 3.27365e-05)
(-0.0383028 -0.0287891 -1.52392e-19 0.0382715 4.20925e-19 3.12732e-05)
(-0.0358118 -0.0276184 -5.16017e-19 0.0357822 4.78216e-19 2.96085e-05)
(-0.0334637 -0.0264943 -2.25022e-19 0.033436 8.04231e-20 2.77435e-05)
(-0.0312811 -0.0254585 4.7179e-20 0.0312554 -1.99094e-20 2.56784e-05)
(-0.0292336 -0.0244642 -3.1381e-19 0.0292102 -5.58583e-21 2.3412e-05)
(-0.0273762 -0.0235705 1.31559e-19 0.0273553 -2.144e-19 2.09433e-05)
(-0.0256224 -0.0227099 3.97779e-19 0.0256041 2.97562e-19 1.82705e-05)
(-0.0241342 -0.0219758 -4.26168e-19 0.0241188 -3.52018e-19 1.53943e-05)
(-0.0226505 -0.0212522 6.72472e-19 0.0226381 4.00282e-20 1.23149e-05)
(-0.0216091 -0.0206996 -2.13492e-19 0.0216 -1.27863e-19 9.03709e-06)
(-0.0203752 -0.0201983 9.75476e-19 0.0203697 5.32475e-19 5.56324e-06)
(-0.0198139 -0.0198022 -5.77853e-19 0.019812 -3.27063e-19 1.90011e-06)
(-0.172936 -0.056636 6.43977e-20 0.172934 -4.27626e-19 1.71937e-06)
(-0.166752 -0.0631179 -1.26689e-21 0.166747 -5.24364e-19 4.89408e-06)
(-0.160087 -0.0671891 2.15842e-19 0.160079 1.9842e-19 7.89421e-06)
(-0.153144 -0.0694287 1.17168e-19 0.153134 -3.01479e-20 1.07331e-05)
(-0.146202 -0.0704278 -7.53049e-19 0.146189 -1.0634e-19 1.34208e-05)
(-0.139272 -0.0704657 -2.00359e-20 0.139256 -8.27553e-19 1.59643e-05)
(-0.132534 -0.0698562 -2.69634e-19 0.132516 -3.41815e-20 1.83687e-05)
(-0.125936 -0.0687439 -1.26186e-19 0.125915 -2.58043e-19 2.06371e-05)
(-0.119596 -0.0672998 5.48677e-19 0.119573 6.06674e-19 2.27714e-05)
(-0.113446 -0.0656017 5.65008e-19 0.113422 -5.65763e-21 2.47715e-05)
(-0.107567 -0.0637457 -5.05388e-20 0.10754 -3.69119e-20 2.66363e-05)
(-0.101893 -0.0617738 6.58117e-20 0.101864 -7.7751e-19 2.83632e-05)
(-0.0964773 -0.0597417 -2.07353e-19 0.0964473 1.3357e-19 2.99483e-05)
(-0.0912659 -0.0576724 -4.31288e-20 0.0912345 -6.81449e-19 3.13863e-05)
(-0.0862939 -0.0555979 1.05059e-19 0.0862613 -9.33743e-20 3.26712e-05)
(-0.0815166 -0.0535318 -3.77932e-21 0.0814828 -1.30835e-19 3.37955e-05)
(-0.0769585 -0.0514912 -1.33467e-19 0.0769237 1.6465e-19 3.47517e-05)