/*--------------------------------*- C++ -*----------------------------------*\
| =========                 |                                                 |
| \\      /  F ield         | foam-extend: Open Source CFD                    |
|  \\    /   O peration     | Version:  3.0                                   |
|   \\  /    A nd           | Web:         http://www.extend-project.de       |
|    \\/     M anipulation  |                                                 |
\*---------------------------------------------------------------------------*/
FoamFile
{
    version     2.0;
    format      ascii;
    class       volVectorField;
    location    "45";
    object      u;
}
// * * * * * * * * * * * * * * * * * * * * * * * * * * * * * * * * * * * * * //

dimensions      [0 0 0 0 0 0 0];

internalField   nonuniform List<vector> 
7680
(
(0.122938 -0.0351885 4.47775e-17)
(0.153045 -0.0301163 5.22581e-17)
(0.337103 -0.0283442 -4.73861e-17)
(0.347096 -0.0244526 4.21098e-17)
(0.490297 -0.0236058 -2.63799e-17)
(0.489972 -0.0205486 2.42848e-17)
(0.603711 -0.0201559 -1.2653e-17)
(0.597349 -0.0178155 -7.89549e-18)
(0.689945 -0.0176103 -2.15879e-17)
(0.679552 -0.0158511 -1.28239e-17)
(0.756862 -0.0157399 -2.50042e-17)
(0.743526 -0.0144269 3.08255e-17)
(0.809619 -0.0143758 -4.04571e-17)
(0.794017 -0.0134033 3.47014e-17)
(0.851748 -0.013393 -1.72143e-17)
(0.834315 -0.0126855 4.70078e-17)
(0.885741 -0.012702 -3.82724e-17)
(0.866744 -0.0122057 6.48362e-17)
(0.913396 -0.0122409 -4.50141e-17)
(0.892984 -0.0119151 5.3469e-17)
(0.936028 -0.0119676 -5.06127e-17)
(0.914266 -0.011778 5.40639e-17)
(0.954612 -0.0118526 -4.5104e-17)
(0.931509 -0.0117684 6.28237e-17)
(0.969881 -0.0118739 -4.59675e-17)
(0.945407 -0.0118692 4.65358e-17)
(0.982395 -0.0120167 -2.36867e-17)
(0.956488 -0.0120786 3.26358e-17)
(0.992592 -0.0122793 -2.37058e-17)
(0.965155 -0.0124202 1.76179e-17)
(1.00082 -0.0126993 -1.3673e-17)
(0.971729 -0.0129258 1.17795e-17)
(1.00726 -0.0134642 -8.27363e-18)
(0.976632 -0.0134234 5.1493e-18)
(1.01157 -0.0152193 1.03087e-17)
(0.981087 -0.0128856 -7.00297e-18)
(1.01201 -0.0196204 2.29399e-17)
(0.987885 -0.00668433 -2.01172e-17)
(1.00691 -0.035056 2.48015e-17)
(0.997493 0.0173921 -1.92636e-17)
(0.127311 -0.100391 -4.84547e-17)
(0.156755 -0.0857986 -7.26168e-17)
(0.340722 -0.0800789 5.73397e-17)
(0.350152 -0.0680283 -4.9749e-17)
(0.493384 -0.0650639 1.15246e-18)
(0.492597 -0.0553877 1.0171e-18)
(0.606398 -0.0536599 1.62217e-17)
(0.599662 -0.0461511 3.46477e-17)
(0.692329 -0.0449603 4.74991e-17)
(0.681629 -0.039196 5.21838e-17)
(0.759013 -0.0382808 1.98535e-17)
(0.745422 -0.0338381 -6.09625e-18)
(0.811585 -0.0330982 2.22213e-17)
(0.795764 -0.0296486 -1.23716e-17)
(0.853557 -0.0290293 -2.64558e-17)
(0.835932 -0.0263434 -4.6638e-17)
(0.887408 -0.025802 4.74666e-17)
(0.868241 -0.0237232 -1.0314e-16)
(0.914923 -0.0232244 8.21963e-17)
(0.894361 -0.0216422 -9.46861e-17)
(0.93741 -0.0211605 6.65219e-17)
(0.915517 -0.0199937 -7.84485e-17)
(0.955836 -0.0195128 4.98535e-17)
(0.932622 -0.0187014 -9.2628e-17)
(0.970924 -0.0182121 4.20252e-17)
(0.94636 -0.0177155 -5.22195e-17)
(0.983214 -0.0172067 -1.96042e-18)
(0.957247 -0.0170087 -2.70624e-17)
(0.993113 -0.0164509 -1.06528e-17)
(0.965676 -0.0165555 2.66782e-18)
(1.00092 -0.0159126 -8.9635e-18)
(0.971996 -0.0162157 7.8634e-18)
(1.00681 -0.0157722 -2.03277e-18)
(0.976768 -0.0152073 -6.65587e-18)
(1.01051 -0.0173643 -6.22197e-18)
(0.981306 -0.0108523 -1.10941e-17)
(1.01121 -0.0250146 1.44905e-17)
(0.987098 0.00276451 -3.47159e-18)
(1.00977 -0.0481541 -1.03896e-17)
(0.991931 0.0283099 3.02011e-17)
(0.135908 -0.165105 4.49599e-17)
(0.164063 -0.140406 6.36574e-17)
(0.347373 -0.130855 -1.08341e-16)
(0.355758 -0.110531 1.08929e-16)
(0.498573 -0.105548 -3.0662e-17)
(0.496971 -0.0893831 -5.22507e-18)
(0.610481 -0.0864192 -6.66614e-17)
(0.603129 -0.0738961 -1.11586e-17)
(0.695564 -0.0717918 -9.88764e-17)
(0.684407 -0.0621711 -6.91074e-17)
(0.761593 -0.0604958 -3.84364e-17)
(0.747662 -0.0530757 4.42782e-18)
(0.813653 -0.0516619 -1.40979e-17)
(0.797583 -0.0459028 1.11185e-18)
(0.855228 -0.0446534 6.86103e-17)
(0.837422 -0.0401765 6.54852e-17)
(0.888774 -0.0390139 -4.7062e-17)
(0.869476 -0.0355565 1.39491e-16)
(0.916062 -0.0344186 -1.25944e-16)
(0.895404 -0.0317912 1.18392e-16)
(0.938388 -0.0306336 -7.97241e-17)
(0.91642 -0.028691 1.22787e-16)
(0.956713 -0.0274858 -8.73484e-17)
(0.933429 -0.0261105 1.45032e-16)
(0.971752 -0.0248423 -5.30126e-17)
(0.947109 -0.023939 1.03734e-16)
(0.984046 -0.0225996 -1.63282e-17)
(0.957972 -0.0221009 5.96983e-17)
(0.994002 -0.0206905 9.552e-18)
(0.96641 -0.0205557 7.2868e-18)
(1.00192 -0.0191592 6.94686e-19)
(0.972764 -0.0192042 1.45583e-17)
(1.00789 -0.018498 1.44554e-18)
(0.977594 -0.0173879 5.73286e-18)
(1.01139 -0.0203572 7.80279e-18)
(0.98241 -0.0132158 -1.04993e-17)
(1.01064 -0.0269148 1.61801e-17)
(0.989218 -0.00367137 -2.10454e-17)
(1.00647 -0.0421507 2.90288e-17)
(0.994175 0.0179645 -3.01234e-17)
(0.148758 -0.229186 -8.29769e-18)
(0.174983 -0.195066 -1.10242e-16)
(0.357692 -0.181627 2.69041e-16)
(0.36445 -0.153281 -2.43998e-16)
(0.507013 -0.14621 9.24053e-17)
(0.504091 -0.123549 2.01703e-17)
(0.617483 -0.119267 9.87697e-17)
(0.609088 -0.101673 2.22893e-17)
(0.701458 -0.0985948 5.86355e-17)
(0.689477 -0.0850453 5.30614e-17)
(0.766623 -0.0825752 1.01876e-16)
(0.752035 -0.0720885 -4.45464e-17)
(0.817999 -0.0699932 1.92918e-17)
(0.801394 -0.0618129 -9.10845e-18)
(0.859016 -0.0599595 -8.09049e-17)
(0.84077 -0.0535569 -2.37342e-17)
(0.892095 -0.0518383 6.64322e-18)
(0.872434 -0.0468502 -1.49762e-16)
(0.918982 -0.0451766 1.65582e-16)
(0.898027 -0.0413464 -1.56117e-16)
(0.940958 -0.0396475 9.05615e-17)
(0.918748 -0.0367859 -1.42282e-16)
(0.95897 -0.0350111 7.98527e-17)
(0.935492 -0.0329747 -1.02571e-16)
(0.973729 -0.0310876 -1.80499e-17)
(0.948932 -0.0297713 -6.35127e-17)
(0.985772 -0.027737 -4.55039e-17)
(0.959575 -0.0270747 -1.28734e-17)
(0.995506 -0.0248456 -6.6843e-17)
(0.967802 -0.0247817 3.12182e-17)
(1.00323 -0.0223794 -2.293e-17)
(0.973909 -0.0225423 1.47625e-18)
(1.0091 -0.0208391 -6.24097e-17)
(0.978266 -0.018795 1.10453e-16)
(1.01285 -0.0227694 -9.02723e-17)
(0.981815 -0.00944655 4.25741e-17)
(1.01352 -0.0332867 1.92614e-17)
(0.985922 0.00876979 -3.09959e-17)
(1.01228 -0.055563 1.85332e-17)
(0.988463 0.0262259 -4.07637e-17)
(0.165725 -0.292236 -3.09847e-17)
(0.189393 -0.248322 1.88084e-17)
(0.370957 -0.231159 -4.28526e-16)
(0.375604 -0.194749 3.45048e-16)
(0.517495 -0.185718 -1.17397e-16)
(0.512914 -0.156725 -7.65536e-17)
(0.625858 -0.151243 -1.56921e-16)
(0.616192 -0.128755 2.29512e-17)
(0.708219 -0.124789 -3.92216e-17)
(0.695274 -0.107476 -2.90819e-17)
(0.772131 -0.104266 -1.1866e-16)
(0.756812 -0.0908724 2.72909e-17)
(0.822525 -0.0881201 4.70926e-17)
(0.805365 -0.0776814 -2.48207e-17)
(0.862764 -0.0752132 1.22358e-16)
(0.844096 -0.0670553 -6.79424e-17)
(0.895224 -0.0647306 7.35628e-17)
(0.875242 -0.0583877 3.45011e-17)
(0.921615 -0.0560901 -5.09723e-17)
(0.900413 -0.0512298 6.03067e-17)
(0.94319 -0.04887 2.80811e-18)
(0.920787 -0.0452425 1.50749e-16)
(0.960878 -0.0427568 -8.0195e-17)
(0.937239 -0.0401658 7.59516e-17)
(0.975371 -0.0375094 5.03139e-17)
(0.950423 -0.0358013 7.68011e-17)
(0.987188 -0.0329382 1.54202e-17)
(0.960824 -0.0320052 2.50259e-17)
(0.996725 -0.0289077 1.08403e-16)
(0.968801 -0.0286661 -2.97622e-17)
(1.0043 -0.0254462 4.72663e-17)
(0.974616 -0.0255023 1.66596e-17)
(1.01023 -0.0232834 -2.70379e-17)
(0.978462 -0.0212121 2.54158e-17)
(1.01493 -0.0249567 1.57091e-17)
(0.980578 -0.0128957 -3.32988e-17)
(1.01876 -0.0328721 1.1815e-17)
(0.981181 -0.000348063 -3.92391e-17)
(1.02283 -0.0453615 4.68545e-17)
(0.978917 0.0127559 3.86729e-17)
(0.186831 -0.354098 9.85123e-17)
(0.207321 -0.30104 1.34779e-16)
(0.387765 -0.280113 4.80221e-16)
(0.389748 -0.235956 -2.54953e-16)
(0.531109 -0.224901 9.98267e-17)
(0.52438 -0.189645 1.10259e-16)
(0.637033 -0.182884 2.1169e-16)
(0.625678 -0.155508 -7.20351e-17)
(0.717509 -0.150598 7.80146e-18)
(0.703244 -0.129499 2.27881e-18)
(0.779951 -0.125517 2.64669e-16)
(0.76359 -0.109171 -1.35383e-16)
(0.829178 -0.105757 8.94985e-17)
(0.811183 -0.0929922 -1.37829e-16)
(0.868474 -0.0899357 -3.46176e-17)
(0.849131 -0.0799335 -9.99941e-17)
(0.900154 -0.0770638 1.45075e-16)
(0.879627 -0.0692624 -1.5111e-16)
(0.925892 -0.0664344 1.38394e-16)
(0.904254 -0.0604373 -8.27989e-17)
(0.946916 -0.0575348 1.67832e-17)
(0.92417 -0.0530506 -1.60057e-16)
(0.964141 -0.0499847 3.69831e-17)
(0.940238 -0.0467937 2.2836e-17)
(0.978256 -0.0434928 -1.46955e-16)
(0.953107 -0.0414345 3.08823e-17)
(0.989792 -0.0378253 -9.77628e-17)
(0.963265 -0.0368014 1.29686e-17)
(0.999166 -0.0327886 -1.6018e-16)
(0.971064 -0.0327371 1.74715e-17)
(1.00674 -0.0283066 -1.54531e-16)
(0.976676 -0.0288364 7.84644e-17)
(1.01292 -0.0249659 -1.29248e-16)
(0.979903 -0.0234509 1.07003e-16)
(1.01841 -0.0255252 -1.82273e-16)
(0.980074 -0.01271 8.50521e-17)
(1.02396 -0.0344541 1.05965e-17)
(0.977359 0.00498321 -5.5429e-17)
(1.02946 -0.0526958 -6.38419e-18)
(0.974401 0.0200238 -7.53465e-17)
(0.211885 -0.414403 -1.16741e-16)
(0.228591 -0.352015 -2.79892e-16)
(0.407427 -0.327537 -3.72439e-16)
(0.406272 -0.275667 7.39147e-17)
(0.546717 -0.262745 -7.87709e-17)
(0.53751 -0.221424 3.75388e-17)
(0.649565 -0.213518 -2.43678e-16)
(0.636305 -0.181455 1.50389e-16)
(0.727682 -0.175697 2.61784e-17)
(0.711964 -0.150993 -8.37981e-17)
(0.788293 -0.146304 -2.30251e-16)
(0.770821 -0.127171 6.85404e-17)
(0.83608 -0.123128 1.62876e-17)
(0.817232 -0.108197 1.83366e-16)
(0.874227 -0.104551 4.5136e-17)
(0.854227 -0.0928644 5.44154e-18)
(0.904979 -0.0894142 -4.16057e-17)
(0.883948 -0.0803125 -2.13145e-18)
(0.929956 -0.0768874 -6.83478e-17)
(0.907931 -0.0699042 -7.81804e-18)
(0.950347 -0.0663685 -2.44379e-17)
(0.927303 -0.0611593 6.95165e-17)
(0.967032 -0.0574089 2.63603e-17)
(0.942898 -0.0537122 -2.28277e-17)
(0.980675 -0.0496633 7.90728e-17)
(0.955338 -0.0472884 -5.6222e-17)
(0.991775 -0.042856 1.13187e-16)
(0.965083 -0.0416935 -5.4097e-17)
(1.00072 -0.0367686 2.23668e-16)
(0.97246 -0.036787 -3.92504e-17)
(1.00787 -0.0313267 2.70905e-16)
(0.977629 -0.0322698 -6.56506e-17)
(1.01377 -0.0270941 7.45845e-17)
(0.980317 -0.0268391 -1.01163e-17)
(1.01967 -0.0263834 1.15945e-16)
(0.979296 -0.0175967 -7.30754e-17)
(1.02777 -0.0317327 7.6658e-17)
(0.972986 -0.00443895 -8.11126e-17)
(1.03917 -0.0419642 1.93979e-16)
(0.962671 0.00645303 -1.83094e-17)
(0.240883 -0.47299 2.48325e-16)
(0.253222 -0.401904 1.71798e-16)
(0.430441 -0.37385 4.31919e-16)
(0.425628 -0.314637 1.7536e-16)
(0.565277 -0.29979 3.40569e-17)
(0.553129 -0.252543 -2.56624e-16)
(0.664723 -0.243422 2.42012e-16)
(0.64916 -0.206735 -2.50943e-16)
(0.740215 -0.200079 4.32097e-17)
(0.722701 -0.171795 -2.48694e-17)
(0.798775 -0.166373 2.8658e-16)
(0.779892 -0.144451 -2.9443e-16)
(0.844937 -0.139778 1.30771e-16)
(0.824967 -0.122652 -3.62772e-16)
(0.881771 -0.118444 5.52351e-17)
(0.860874 -0.105021 -1.10571e-16)
(0.911445 -0.101047 1.32065e-16)
(0.889697 -0.0905765 -1.32848e-16)
(0.935526 -0.0866361 1.32342e-16)
(0.912935 -0.078592 1.21948e-17)
(0.955167 -0.0745229 -2.55596e-17)
(0.931686 -0.0685211 1.78517e-18)
(0.971228 -0.0641922 -6.51471e-17)
(0.946765 -0.0599486 1.00208e-16)
(0.984362 -0.0552451 -8.72469e-17)
(0.958786 -0.0525621 3.33942e-17)
(0.995076 -0.047354 -1.16081e-16)
(0.968209 -0.0461347 1.25303e-16)
(1.00377 -0.0402359 -3.89321e-16)
(0.975356 -0.040494 5.47986e-17)
(1.01084 -0.0337117 -2.66633e-16)
(0.98033 -0.0353333 8.32811e-17)
(1.01681 -0.0281329 -4.41772e-17)
(0.982622 -0.0295042 6.70212e-18)
(1.02308 -0.0254531 -1.01519e-16)
(0.980372 -0.0204333 8.41719e-17)
(1.03215 -0.0286703 3.82828e-18)
(0.971426 -0.00678421 -4.50066e-17)
(1.04494 -0.0401777 1.4881e-17)
(0.958903 0.00885898 -2.52229e-16)
(0.2736 -0.529515 -2.7688e-16)
(0.280988 -0.449712 -2.27632e-16)
(0.456162 -0.418342 -4.12396e-16)
(0.447236 -0.351901 -5.83535e-16)
(0.585739 -0.335311 -1.13648e-16)
(0.570338 -0.282373 4.27203e-16)
(0.681194 -0.272181 -1.92061e-16)
(0.663124 -0.231094 3.05821e-16)
(0.753623 -0.223644 4.58266e-17)
(0.734193 -0.191976 -1.19377e-16)
(0.809804 -0.18589 -9.9578e-17)
(0.78945 -0.161352 2.17457e-16)
(0.85409 -0.156088 -3.31805e-17)
(0.832984 -0.136928 2.43289e-16)
(0.889423 -0.132167 1.887e-16)
(0.867647 -0.117163 -1.24182e-16)
(0.917875 -0.112644 1.68985e-16)
(0.895449 -0.100955 -1.13994e-16)
(0.940944 -0.0964554 1.22999e-16)
(0.917836 -0.0874922 -6.7732e-17)
(0.959731 -0.0828294 -5.14772e-18)
(0.935863 -0.076163 2.79526e-17)
(0.975056 -0.0711895 -5.01062e-17)
(0.950313 -0.0665061 -3.10987e-17)
(0.987536 -0.0610906 2.46851e-17)
(0.961772 -0.0581798 4.64072e-17)
(0.997646 -0.0521708 -6.75173e-17)
(0.970678 -0.0509505 2.74506e-16)
(1.00576 -0.0441198 2.1844e-17)
(0.977342 -0.0446732 1.95605e-16)
(1.01223 -0.0367128 7.99884e-17)
(0.981881 -0.0391511 -5.47781e-17)
(1.01763 -0.030096 7.96176e-17)
(0.983825 -0.0336237 -9.45746e-17)
(1.02345 -0.0254134 9.79298e-17)
(0.981154 -0.0264494 -8.47854e-17)
(1.03282 -0.0241877 8.16649e-17)
(0.970435 -0.0164792 -1.96324e-16)
(1.04833 -0.0296531 3.49568e-16)
(0.952243 -0.00224896 -8.90183e-17)
(0.309993 -0.583824 5.62825e-16)
(0.3119 -0.495928 2.94601e-16)
(0.484992 -0.461232 5.28924e-16)
(0.471478 -0.387978 8.71397e-16)
(0.608932 -0.369595 3.16459e-16)
(0.589847 -0.311167 -4.2675e-16)
(0.700083 -0.299845 9.40391e-17)
(0.679132 -0.254477 -3.6686e-16)
(0.769189 -0.246191 -1.68865e-16)
(0.74752 -0.211209 3.23819e-16)
(0.822777 -0.204441 5.12127e-17)
(0.800669 -0.177322 -1.08905e-16)
(0.865006 -0.171472 1.16522e-16)
(0.842513 -0.150282 -3.21938e-16)
(0.89868 -0.144997 -5.30768e-17)
(0.875801 -0.128388 3.88166e-17)
(0.925773 -0.123377 -1.52349e-16)
(0.902472 -0.110427 9.24218e-18)
(0.947712 -0.10544 -9.75036e-17)
(0.923919 -0.0955003 9.91882e-17)
(0.965552 -0.0903293 2.32198e-17)
(0.94116 -0.0829356 4.96514e-17)
(0.980079 -0.0774071 1.10037e-17)
(0.954952 -0.0722224 1.16288e-16)
(0.991891 -0.0661751 -2.02541e-16)
(0.965862 -0.0629806 2.60524e-16)
(1.00145 -0.0562202 -1.91799e-16)
(0.974316 -0.0549444 1.31582e-17)
(1.00911 -0.0471739 -3.12419e-16)
(0.980612 -0.0479481 1.50971e-16)
(1.0152 -0.0387257 -2.60876e-16)
(0.984852 -0.0418419 2.44941e-16)
(1.02021 -0.0308086 -3.17153e-16)
(0.986561 -0.0362261 3.64965e-16)
(1.02545 -0.0239544 -3.37518e-16)
(0.983714 -0.0303643 2.20227e-16)
(1.03395 -0.0191566 -1.44252e-16)
(0.972398 -0.0224488 4.87535e-17)
(1.04923 -0.0226013 -4.64431e-17)
(0.951881 -0.00458904 -3.13591e-16)
(0.349815 -0.635601 -9.40204e-16)
(0.345691 -0.539745 -5.6521e-16)
(0.51633 -0.50202 -4.81642e-16)
(0.4978 -0.422147 -1.03139e-15)
(0.633896 -0.402175 -3.88095e-16)
(0.610842 -0.338529 2.15385e-16)
(0.720209 -0.326227 -9.57946e-17)
(0.696194 -0.276823 4.66946e-16)
(0.7856 -0.267811 2.46469e-16)
(0.761582 -0.229724 -3.61724e-16)
(0.836299 -0.222349 -1.56107e-16)
(0.812384 -0.192829 -1.27771e-16)
(0.876248 -0.186437 -2.98531e-17)
(0.852357 -0.163382 6.73123e-17)
(0.908093 -0.157589 1.10979e-16)
(0.884129 -0.139531 -9.29882e-17)
(0.933691 -0.134022 2.25241e-16)
(0.909554 -0.119956 -7.13007e-17)
(0.954388 -0.114458 2.9188e-16)
(0.92996 -0.103682 -3.07114e-16)
(0.971174 -0.0979678 6.57077e-17)
(0.946319 -0.0899786 -1.3237e-16)
(0.984789 -0.0838585 -2.03548e-17)
(0.959348 -0.0782965 -1.45237e-17)
(0.995791 -0.0715911 -1.11812e-16)
(0.96959 -0.0682333 1.24396e-16)
(1.00461 -0.0607215 -2.12375e-16)
(0.977454 -0.0595182 3.63327e-16)
(1.01156 -0.0508498 -1.34137e-16)
(0.983239 -0.0520025 5.64305e-18)
(1.01696 -0.0415997 6.16645e-17)
(0.987082 -0.0456129 -1.28534e-17)
(1.0212 -0.0326508 1.68548e-17)
(0.988639 -0.0402857 -2.43167e-17)
(1.02536 -0.023673 4.69697e-17)
(0.986143 -0.0361529 -1.9639e-17)
(1.03227 -0.0144047 1.51241e-16)
(0.975142 -0.0312329 -1.70997e-16)
(1.04702 -0.0129524 3.3001e-16)
(0.951881 -0.0129554 -2.26751e-17)
(0.392981 -0.684703 8.50119e-16)
(0.382353 -0.581501 5.73455e-16)
(0.550487 -0.540761 4.46561e-16)
(0.526513 -0.454722 8.98971e-16)
(0.66133 -0.433121 2.4219e-16)
(0.63391 -0.364514 2.51021e-16)
(0.74251 -0.351186 -5.13665e-17)
(0.715088 -0.297917 -2.00456e-16)
(0.803941 -0.288145 -3.56323e-16)
(0.777278 -0.247066 4.08956e-16)
(0.851548 -0.239071 2.77678e-17)
(0.825566 -0.207221 4.55348e-16)
(0.889046 -0.200296 -1.96462e-17)
(0.863525 -0.175409 1.2809e-16)
(0.918915 -0.169138 4.95715e-17)
(0.893659 -0.149633 1.69512e-16)
(0.942892 -0.143674 -2.66749e-16)
(0.917735 -0.128469 1.45147e-16)
(0.962239 -0.122525 -2.64469e-16)
(0.937018 -0.110867 3.93813e-16)
(0.977888 -0.104688 -1.19151e-16)
(0.952432 -0.0960377 1.28608e-16)
(0.990533 -0.0894113 1.55442e-17)
(0.964659 -0.0833878 1.97909e-16)
(1.0007 -0.0761105 -1.896e-16)
(0.974213 -0.072479 1.83406e-16)
(1.00877 -0.0642978 -1.44656e-16)
(0.981483 -0.0630134 -1.46781e-17)
(1.01505 -0.0535291 -1.47628e-16)
(0.986754 -0.0548305 1.72341e-16)
(1.01978 -0.0433684 -1.76549e-16)
(0.990171 -0.0479117 3.56354e-17)
(1.02321 -0.0333264 -4.29107e-17)
(0.991544 -0.0425362 2.1777e-16)
(1.02605 -0.0224929 -3.56427e-16)
(0.989594 -0.0397226 2.18076e-16)
(1.03058 -0.00982739 -2.06469e-16)
(0.97994 -0.0372161 1.02856e-16)
(1.04304 -0.00545642 -2.43969e-16)
(0.956051 -0.0168721 -1.95851e-16)
(0.439227 -0.730844 -3.29897e-16)
(0.421596 -0.62057 -3.50481e-16)
(0.586906 -0.577139 -4.35302e-16)
(0.557103 -0.485203 -6.09576e-16)
(0.690369 -0.462193 -4.31314e-16)
(0.65833 -0.38893 -4.4757e-16)
(0.765945 -0.374732 2.59559e-17)
(0.734952 -0.317859 1.19776e-16)
(0.823069 -0.307443 2.90052e-17)
(0.793668 -0.263591 -2.69487e-17)
(0.867326 -0.255055 -1.38203e-16)
(0.839234 -0.221063 -5.50733e-16)
(0.902179 -0.213655 -1.21334e-16)
(0.875021 -0.187103 -3.97162e-16)
(0.929921 -0.180381 -4.87167e-17)
(0.903394 -0.159582 -4.62141e-16)
(0.952159 -0.15318 3.85555e-16)
(0.926023 -0.136982 -4.41693e-16)
(0.970058 -0.130582 3.74604e-16)
(0.944098 -0.118183 -5.91779e-16)
(0.984477 -0.11152 2.11708e-16)
(0.958488 -0.102346 -1.9448e-16)
(0.996057 -0.0951935 -2.39203e-17)
(0.969836 -0.0888434 -2.47327e-17)
(1.00528 -0.0809806 -7.07877e-17)
(0.978627 -0.0772157 2.75114e-16)
(1.01249 -0.0683649 -1.90057e-16)
(0.985238 -0.0671543 2.34921e-16)
(1.01797 -0.0568695 6.90241e-17)
(0.989952 -0.0584981 -5.70188e-17)
(1.02189 -0.0459958 1.59005e-16)
(0.992955 -0.0512598 -2.41686e-17)
(1.02442 -0.0350519 1.37541e-17)
(0.994238 -0.045929 -1.32572e-16)
(1.02583 -0.0224859 3.6767e-16)
(0.993071 -0.0441403 -3.49774e-16)
(1.02768 -0.00636488 3.49432e-16)
(0.985231 -0.0435122 -2.96382e-16)
(1.03737 0.00159617 3.87629e-16)
(0.961268 -0.0222982 2.37946e-17)
(0.48843 -0.773898 2.07668e-16)
(0.463377 -0.657158 3.031e-16)
(0.625806 -0.611075 3.52406e-16)
(0.589794 -0.513726 4.97128e-16)
(0.721577 -0.489279 5.81937e-16)
(0.684565 -0.41167 4.35683e-16)
(0.791282 -0.396566 4.98275e-17)
(0.756413 -0.336309 2.13406e-16)
(0.843878 -0.325221 -5.18254e-18)
(0.811471 -0.27875 5.86366e-17)
(0.8846 -0.269667 1.37849e-16)
(0.854163 -0.233634 5.45637e-16)
(0.91665 -0.225756 3.94765e-16)
(0.887646 -0.197598 5.45017e-16)
(0.942131 -0.190455 4.87958e-17)
(0.914145 -0.168386 6.44338e-16)
(0.962514 -0.161589 -5.1077e-16)
(0.935228 -0.144389 6.80252e-16)
(0.978864 -0.137598 -2.993e-16)
(0.952012 -0.124418 5.03961e-16)
(0.99197 -0.117351 -1.51489e-16)
(0.96531 -0.107586 1.70726e-16)
(1.00242 -0.0999968 -1.03456e-16)
(0.975721 -0.0932222 8.40135e-17)
(1.01064 -0.0848766 2.40272e-17)
(0.983698 -0.080838 -3.10553e-16)
(1.01696 -0.0714398 2.46679e-16)
(0.989589 -0.0701028 -3.15951e-16)
(1.02158 -0.0591804 5.78294e-17)
(0.993668 -0.0608469 -2.06313e-16)
(1.02462 -0.0475652 6.71377e-17)
(0.996145 -0.0531177 -2.21364e-16)
(1.02612 -0.0358071 1.3275e-16)
(0.99722 -0.0476102 1.65031e-17)
(1.02592 -0.0220062 -1.7696e-16)
(0.996856 -0.0464963 2.93018e-16)
(1.02481 -0.00369246 -2.63369e-16)
(0.991381 -0.0473084 2.09244e-16)
(1.03097 0.00642323 -1.55517e-16)
(0.968638 -0.0250432 -2.32302e-16)
(0.540308 -0.813612 -6.58804e-16)
(0.507405 -0.690805 -9.90054e-17)
(0.666684 -0.642413 -4.93352e-16)
(0.624131 -0.53999 -3.57757e-16)
(0.754194 -0.514337 -5.65226e-16)
(0.711992 -0.432713 -3.82219e-16)
(0.817621 -0.416866 -2.97623e-16)
(0.778738 -0.3535 -1.38815e-16)
(0.865392 -0.34186 -5.77694e-16)
(0.829903 -0.292996 2.5453e-16)
(0.902359 -0.283451 -4.1387e-16)
(0.869545 -0.245568 -3.29505e-16)
(0.931442 -0.237276 -7.91086e-16)
(0.900593 -0.207682 -5.33807e-16)
(0.954539 -0.20015 -2.24148e-16)
(0.925118 -0.176967 -3.76425e-16)
(0.972969 -0.169787 4.32124e-16)
(0.944578 -0.151732 -6.55022e-16)
(0.987693 -0.14455 4.76323e-16)
(0.960008 -0.130731 -6.17418e-16)
(0.999419 -0.123248 3.40194e-16)
(0.972161 -0.113031 -2.96906e-16)
(1.00867 -0.104992 2.11341e-16)
(0.98159 -0.0979322 -1.10655e-16)
(1.01584 -0.0890892 9.8938e-17)
(0.988718 -0.0849229 9.69595e-17)
(1.0212 -0.0749629 4.31312e-17)
(0.993875 -0.0736562 2.92283e-17)
(1.02492 -0.0620782 2.28236e-16)
(0.997332 -0.0639488 -2.83089e-17)
(1.02708 -0.0498584 2.05983e-16)
(0.999327 -0.0558395 -1.14746e-16)
(1.02759 -0.0374098 2.42178e-16)
(1.00023 -0.0500792 -2.11774e-16)
(1.02591 -0.0225386 2.31237e-16)
(1.00062 -0.0490676 -2.60732e-16)
(1.02194 -0.00238028 1.69141e-16)
(0.99742 -0.0503083 -2.15163e-16)
(1.02448 0.00966861 9.43729e-17)
(0.976316 -0.027357 -3.70548e-17)
(0.594708 -0.849882 8.31639e-16)
(0.553587 -0.721603 1.17176e-16)
(0.709662 -0.670969 3.69281e-16)
(0.660242 -0.56398 5.45596e-16)
(0.788644 -0.537107 3.82023e-16)
(0.740949 -0.451826 6.0554e-16)
(0.845567 -0.435208 1.74864e-16)
(0.802404 -0.368994 3.38151e-16)
(0.888321 -0.356785 4.80589e-16)
(0.849517 -0.305717 -6.93567e-17)
(0.921371 -0.295706 2.15952e-16)
(0.885973 -0.256105 4.61863e-16)
(0.947349 -0.247415 7.46783e-16)
(0.914467 -0.216467 6.63726e-16)
(0.967939 -0.20858 2.51249e-16)
(0.936914 -0.184324 1.86256e-16)
(0.98431 -0.176812 -4.57771e-16)
(0.954657 -0.157907 5.66701e-16)
(0.997312 -0.150398 -4.61952e-16)
(0.968651 -0.135912 2.92376e-16)
(1.00757 -0.128095 -1.34456e-17)
(0.979582 -0.117363 3.81032e-17)
(1.01556 -0.108972 6.8292e-17)
(0.987958 -0.101527 -1.34804e-16)
(1.0216 -0.0923056 1.09929e-16)
(0.994162 -0.0878645 -3.57527e-16)
(1.02593 -0.0774955 2.14289e-16)
(0.9985 -0.0760122 -3.68333e-16)
(1.02868 -0.0639892 5.70515e-17)
(1.00123 -0.0657772 -2.38292e-16)
(1.02987 -0.0511974 9.94492e-17)
(1.00262 -0.0572038 -2.06955e-16)
(1.02929 -0.0382162 1.07504e-16)
(1.00321 -0.0510824 -3.69211e-16)
(1.02611 -0.0228099 2.71566e-16)
(1.0042 -0.0499141 -1.20029e-16)
(1.01948 -0.00200795 -1.05567e-17)
(1.00328 -0.0512102 2.28692e-16)
(1.01843 0.0108057 -1.34324e-16)
(0.984401 -0.027859 2.24245e-16)
(0.651331 -0.882488 -8.7633e-16)
(0.601652 -0.749247 1.59442e-16)
(0.754301 -0.696725 -7.21378e-16)
(0.69774 -0.58557 -2.95047e-16)
(0.824281 -0.557716 -7.39245e-16)
(0.770915 -0.46913 -2.82219e-16)
(0.874358 -0.451907 -2.19434e-16)
(0.826806 -0.383134 -5.0072e-17)
(0.911849 -0.370475 -7.88244e-16)
(0.869673 -0.317436 3.95469e-16)
(0.940803 -0.307047 -3.64699e-16)
(0.902802 -0.265924 -3.71983e-16)
(0.963543 -0.256894 -6.44933e-16)
(0.928639 -0.224764 -7.89433e-16)
(0.98153 -0.216557 -2.87496e-16)
(0.948932 -0.191383 -1.4914e-16)
(0.995771 -0.183556 3.91947e-16)
(0.964906 -0.163947 -4.35435e-16)
(1.007 -0.156116 3.11195e-16)
(0.977424 -0.141102 -2.66333e-16)
(1.01576 -0.132944 2.00337e-16)
(0.987107 -0.121835 -2.57284e-16)
(1.02245 -0.113076 8.98775e-17)
(0.994415 -0.105386 -9.77962e-17)
(1.02735 -0.0957628 2.39438e-16)
(0.999694 -0.0911943 -1.954e-17)
(1.03065 -0.0803813 1.96518e-16)
(1.00323 -0.078877 2.97604e-17)
(1.03243 -0.0663578 3.70852e-16)
(1.00526 -0.0682214 -2.03701e-16)
(1.03268 -0.0530827 4.52974e-16)
(1.00608 -0.0592363 -2.8799e-16)
(1.03113 -0.0396426 4.16441e-16)
(1.00632 -0.0526293 -1.01312e-16)
(1.02664 -0.0238408 3.21695e-16)
(1.00763 -0.0507519 -5.24226e-16)
(1.01775 -0.00277985 4.58833e-16)
(1.00844 -0.0511743 -5.00173e-16)
(1.01345 0.0104236 1.80729e-16)
(0.991748 -0.0275806 -1.71108e-16)
(0.709997 -0.911352 9.05745e-16)
(0.651443 -0.773732 1.79105e-16)
(0.800622 -0.719416 3.20593e-16)
(0.736652 -0.604621 6.91013e-16)
(0.861385 -0.575786 7.63765e-16)
(0.8021 -0.484293 3.42889e-16)
(0.904438 -0.466449 -5.33566e-17)
(0.852277 -0.395412 1.67988e-16)
(0.936512 -0.382293 5.63327e-16)
(0.890767 -0.327502 -2.77159e-16)
(0.961237 -0.316739 3.08941e-16)
(0.920456 -0.274249 3.83976e-16)
(0.980624 -0.2649 5.48643e-16)
(0.943535 -0.23169 5.21655e-16)
(0.995902 -0.223201 4.63452e-16)
(0.961581 -0.197168 5.9641e-17)
(1.00792 -0.189079 -2.14479e-16)
(0.975697 -0.168785 1.80125e-16)
(1.01728 -0.1607 -3.82529e-17)
(0.986658 -0.145142 1.1716e-17)
(1.02445 -0.136729 6.57873e-17)
(0.995015 -0.12519 -9.74965e-17)
(1.02976 -0.116169 2.5334e-16)
(1.00117 -0.108141 -4.01856e-16)
(1.03344 -0.0982468 1.82941e-16)
(1.00544 -0.0934125 -4.09371e-16)
(1.03563 -0.0823241 7.09198e-17)
(1.00808 -0.0806076 -3.0522e-16)
(1.03638 -0.0678168 -2.03009e-17)
(1.00932 -0.0695031 -1.84583e-16)
(1.03562 -0.05412 -1.99305e-16)
(1.00945 -0.0600904 3.44824e-17)
(1.03304 -0.0403805 -1.84745e-16)
(1.00921 -0.0529872 -2.09724e-16)
(1.0274 -0.0246179 4.25075e-17)
(1.01058 -0.0503047 2.37647e-16)
(1.01674 -0.00419634 -1.37984e-16)
(1.01274 -0.0497108 3.18007e-16)
(1.00974 0.00860695 -2.24292e-16)
(0.998262 -0.0263207 3.05659e-16)
(0.770396 -0.936292 -9.2026e-16)
(0.702725 -0.794895 -5.09007e-16)
(0.848259 -0.739144 -4.47714e-16)
(0.776673 -0.621162 -2.96616e-16)
(0.899433 -0.591586 -1.19089e-15)
(0.834092 -0.497557 -1.61228e-16)
(0.935187 -0.479257 -1.84806e-16)
(0.878338 -0.406254 -1.33036e-17)
(0.961649 -0.392796 -4.97238e-16)
(0.912299 -0.336491 2.1075e-16)
(0.982004 -0.325441 -7.87276e-17)
(0.938439 -0.28178 -6.01431e-16)
(0.997938 -0.272173 -2.59539e-16)
(0.958685 -0.238054 -4.25076e-16)
(1.01044 -0.229319 -2.28615e-16)
(0.974435 -0.20258 -1.38475e-16)
(1.02019 -0.194249 4.25228e-16)
(0.986664 -0.173413 -3.53016e-16)
(1.02766 -0.165077 3.75295e-16)
(0.996052 -0.149113 -4.62093e-16)
(1.03324 -0.140434 2.89868e-16)
(1.00308 -0.128603 -1.66981e-16)
(1.03717 -0.119296 5.43366e-17)
(1.00811 -0.111072 7.51705e-17)
(1.03965 -0.100869 2.24098e-16)
(1.01139 -0.0959192 1.27247e-16)
(1.04075 -0.0844985 1.35525e-16)
(1.01316 -0.0827305 1.30413e-16)
(1.0405 -0.0695861 1.29797e-16)
(1.01365 -0.0712625 1.76934e-16)
(1.03879 -0.0555254 2.24359e-16)
(1.01312 -0.0614585 -5.20132e-17)
(1.03529 -0.0415203 2.2091e-16)
(1.01231 -0.0537701 1.98824e-16)
(1.02869 -0.025847 1.11615e-16)
(1.01335 -0.049924 -4.3905e-16)
(1.01673 -0.00622566 4.38919e-16)
(1.01604 -0.0477543 -3.98948e-16)
(1.00761 0.00603968 2.13712e-16)
(1.00334 -0.024747 -2.82265e-16)
(0.832326 -0.957254 1.147e-15)
(0.755272 -0.812651 9.86859e-16)
(0.897132 -0.755587 3.71085e-16)
(0.817721 -0.634954 3.32702e-16)
(0.938559 -0.604652 9.67884e-16)
(0.866974 -0.508514 1.31067e-16)
(0.966892 -0.489752 2.59276e-16)
(0.905182 -0.415108 1.5644e-16)
(0.987631 -0.401308 2.32248e-16)
(0.934521 -0.343732 -1.33636e-16)
(1.00352 -0.332405 -6.39244e-19)
(0.957026 -0.287751 4.54076e-16)
(1.01591 -0.277909 3.22472e-16)
(0.974356 -0.243004 3.02361e-16)
(1.02555 -0.234063 4.12442e-17)
(0.987731 -0.206696 5.10292e-17)
(1.03294 -0.198177 -3.82288e-16)
(0.997996 -0.176835 1.53486e-16)
(1.03845 -0.168321 -5.26573e-17)
(1.00574 -0.151947 1.21854e-16)
(1.04234 -0.143095 3.08865e-17)
(1.01136 -0.13093 -6.24058e-17)
(1.04482 -0.12145 1.59546e-16)
(1.01516 -0.112949 -2.3568e-16)
(1.04601 -0.102577 -7.42098e-18)
(1.01737 -0.0973892 -3.68429e-16)
(1.04596 -0.0858084 1.42981e-16)
(1.0182 -0.0838226 -3.6085e-16)
(1.04464 -0.0705413 1.22853e-16)
(1.01783 -0.0719972 -3.96392e-16)
(1.04193 -0.0561823 -8.63838e-17)
(1.01655 -0.0618296 -6.78267e-17)
(1.03751 -0.0420306 -2.43601e-16)
(1.01507 -0.0536256 -2.24352e-16)
(1.03015 -0.0267048 -2.21325e-16)
(1.01554 -0.0487298 2.06816e-16)
(1.01748 -0.00834362 -2.71443e-16)
(1.01828 -0.0452005 1.86169e-16)
(1.007 0.003071 -1.46277e-16)
(1.007 -0.023087 3.98686e-16)
(0.895468 -0.9741 -1.28171e-15)
(0.808897 -0.826966 -9.79497e-16)
(0.946953 -0.768944 -6.386e-16)
(0.859582 -0.646156 1.32691e-17)
(0.978368 -0.615368 -8.5937e-16)
(0.900445 -0.517505 1.24946e-16)
(0.999072 -0.498445 -4.92752e-16)
(0.932454 -0.422463 -1.26757e-16)
(1.01394 -0.40844 -5.28114e-17)
(0.957058 -0.349833 1.94928e-16)
(1.02526 -0.338316 6.02046e-17)
(0.975853 -0.292864 -2.54081e-16)
(1.03404 -0.282848 -1.39332e-16)
(0.990221 -0.247322 -5.46407e-16)
(1.04078 -0.238215 1.39863e-16)
(1.00119 -0.210366 -6.06598e-17)
(1.0458 -0.201679 3.9005e-16)
(1.00949 -0.179967 -3.31597e-16)
(1.04934 -0.171278 1.97433e-16)
(1.01559 -0.154626 -2.3973e-16)
(1.05157 -0.145586 8.27989e-17)
(1.01983 -0.13322 -1.47291e-17)
(1.05262 -0.123538 -1.65157e-16)
(1.02245 -0.1149 2.25242e-17)
(1.05257 -0.104308 3.08693e-16)
(1.02363 -0.0990342 2.66456e-17)
(1.05141 -0.0872182 8.62127e-17)
(1.02355 -0.085185 1.59955e-16)
(1.04908 -0.0716587 4.11174e-17)
(1.02239 -0.0730839 1.8348e-16)
(1.04544 -0.0570433 1.03084e-16)
(1.02039 -0.0626027 2.3834e-16)
(1.04017 -0.0427494 1.04967e-16)
(1.01815 -0.0538708 3.75915e-16)
(1.03217 -0.027705 2.42531e-16)
(1.01768 -0.0478225 -9.31675e-17)
(1.01911 -0.0104341 2.20021e-16)
(1.01967 -0.0428154 -7.99678e-17)
(1.00781 0.000354268 -5.88637e-18)
(1.00914 -0.0218023 -2.10335e-16)
(0.959602 -0.986803 1.27644e-15)
(0.8633 -0.837694 9.11033e-16)
(0.997542 -0.77886 5.24006e-16)
(0.902063 -0.654457 1.55593e-16)
(1.01885 -0.62321 4.12917e-16)
(0.934463 -0.524073 -2.17959e-18)
(1.03186 -0.504717 4.19354e-16)
(0.960216 -0.427744 8.38535e-17)
(1.04081 -0.413502 -7.48961e-17)
(0.980031 -0.354126 -1.6547e-16)
(1.0475 -0.342433 1.39828e-16)
(0.995061 -0.296378 -3.8845e-17)
(1.05261 -0.286216 -5.22088e-17)
(1.00641 -0.250211 7.32745e-16)
(1.05638 -0.240978 -4.00337e-16)
(1.01492 -0.212742 1.56942e-16)
(1.05896 -0.203945 -1.59217e-16)
(1.02118 -0.181915 3.11572e-17)
(1.06045 -0.173127 1.98268e-16)
(1.02557 -0.156211 -1.04829e-16)
(1.06095 -0.147078 9.3194e-17)
(1.02835 -0.134486 5.73253e-17)
(1.0605 -0.124718 1.08894e-16)
(1.0297 -0.11588 -2.0956e-16)
(1.05912 -0.105211 1.31887e-16)
(1.02978 -0.099749 -3.08364e-16)
(1.05678 -0.087869 3.62563e-17)
(1.02871 -0.0856454 2.16504e-17)
(1.05337 -0.0720784 -3.67087e-16)
(1.02668 -0.0732945 6.69705e-17)
(1.04875 -0.0572645 -2.02638e-16)