/*--------------------------------*- C++ -*----------------------------------*\
| =========                 |                                                 |
| \\      /  F ield         | foam-extend: Open Source CFD                    |
|  \\    /   O peration     | Version:  3.0                                   |
|   \\  /    A nd           | Web:         http://www.extend-project.de       |
|    \\/     M anipulation  |                                                 |
\*---------------------------------------------------------------------------*/
FoamFile
{
    version     2.0;
    format      ascii;
    class       volScalarField;
    location    "6";
    object      p;
}
// * * * * * * * * * * * * * * * * * * * * * * * * * * * * * * * * * * * * * //

dimensions      [0 0 0 0 0 0 0];

internalField   nonuniform List<scalar> 
400
(
0.834311
0.831153
0.830328
0.829871
0.832287
0.834439
0.839034
0.84297
0.848853
0.853714
0.860035
0.864953
0.870843
0.874927
0.879468
0.881799
0.884044
0.883811
0.883049
0.880541
0.838791
0.835103
0.834714
0.834087
0.83622
0.837809
0.841753
0.84493
0.850019
0.854056
0.859561
0.863686
0.868842
0.872275
0.876316
0.878329
0.88059
0.880627
0.880791
0.878189
0.838892
0.834906
0.834397
0.833729
0.835873
0.837408
0.841336
0.844379
0.849421
0.85328
0.85877
0.862734
0.867995
0.871336
0.875678
0.877653
0.880385
0.880169
0.880516
0.876731
0.839895
0.835668
0.83527
0.834545
0.836717
0.838163
0.841989
0.844865
0.849709
0.853358
0.858629
0.862403
0.867503
0.87074
0.87505
0.877028
0.879871
0.879641
0.880077
0.875787
0.837357
0.83311
0.832805
0.832216
0.834638
0.836304
0.840441
0.843539
0.848706
0.852558
0.85817
0.862144
0.86763
0.871066
0.8758
0.877911
0.881101
0.88077
0.881216
0.876519
0.836255
0.832085
0.831982
0.831568
0.834185
0.836036
0.840309
0.843552
0.848786
0.852745
0.858387
0.862462
0.867983
0.871539
0.876338
0.878577
0.881837
0.881575
0.882038
0.877318
0.832041
0.828132
0.828432
0.828371
0.831444
0.833681
0.838422
0.842043
0.847735
0.852048
0.858144
0.862554
0.868539
0.872412
0.877671
0.880173
0.883828
0.883711
0.884421
0.879768
0.829811
0.826277
0.826931
0.827256
0.830612
0.833185
0.838122
0.842008
0.847813
0.852335
0.858489
0.863087
0.869118
0.873192
0.87852
0.881256
0.885024
0.885181
0.886075
0.881776
0.824605
0.821627
0.822963
0.823844
0.82781
0.830866
0.836324
0.840617
0.846874
0.851747
0.858323
0.863252
0.869715
0.874136
0.879933
0.883044
0.887319
0.887878
0.889297
0.885437
0.821996
0.819721
0.821541
0.822992
0.827255
0.830718
0.83631
0.840862
0.847126
0.852162
0.858672
0.863738
0.870127
0.874733
0.880519
0.883935
0.888336
0.889385
0.891146
0.888029
0.816333
0.814965
0.817734
0.819932
0.824906
0.828887
0.834961
0.839847
0.846443
0.851709
0.858491
0.863775
0.870469
0.875367
0.881577
0.885437
0.890443
0.892138
0.8947
0.892416
0.814105
0.813826
0.817157
0.82008
0.825275
0.829648
0.835678
0.8407
0.847066
0.852321
0.85878
0.864024
0.870398
0.875355
0.88136
0.885518
0.89057
0.892942
0.895945
0.89485
0.808569
0.809614
0.814185
0.818032
0.823975
0.828815
0.835179
0.840346
0.846799
0.852041
0.858501
0.863726
0.870166
0.875251
0.881541
0.886134
0.891846
0.89509
0.899201
0.899387
0.807735
0.810315
0.815417
0.820079
0.826027
0.831116
0.837115
0.842153
0.848012
0.852932
0.858689
0.863563
0.869306
0.874181
0.879927
0.884672
0.890198
0.89423
0.898776
0.900662
0.803162
0.807566
0.814245
0.819946
0.826547
0.831896
0.837914
0.842759
0.848318
0.852851
0.858212
0.862699
0.868132
0.872822
0.878565
0.883591
0.889725
0.894804
0.900835
0.904527
0.805345
0.811785
0.818667
0.825057
0.831171
0.836391
0.841534
0.84581
0.850299
0.854073
0.858276
0.861972
0.866235
0.870268
0.874952
0.879736
0.885186
0.890932
0.897132
0.903106
0.803193
0.812167
0.820851
0.828115
0.834439
0.839414
0.84402
0.847588
0.851263
0.854174
0.857495
0.860335
0.863788
0.867144
0.871307
0.875932
0.881613
0.88836
0.896322
0.904891
0.811591
0.822825
0.830463
0.837558
0.842381
0.846443
0.849484
0.851887
0.854012
0.855675
0.857437
0.859
0.860837
0.862943
0.865418
0.869007
0.87306
0.879595
0.886616
0.897773
0.815437
0.830028
0.83835
0.845233
0.849055
0.85196
0.853679
0.854776
0.855564
0.855917
0.856354
0.856611
0.857123
0.857953
0.859156
0.861704
0.864857
0.871421
0.879091
0.893934
0.839932
0.850707
0.854456
0.858571
0.859548
0.86046
0.860116
0.859535
0.858567
0.857339
0.856092
0.854742
0.853482
0.852577
0.85173
0.852261
0.852704
0.856637
0.860104
0.871513
)
;

boundaryField
{
    cavity
    {
        type            implicitExtrapolation;
    }
    lid
    {
        type            implicitExtrapolation;
    }
    frontAndBack
    {
        type            empty;
    }
}


// ************************************************************************* //
