/*--------------------------------*- C++ -*----------------------------------*\
| =========                 |                                                 |
| \\      /  F ield         | OpenFOAM: The Open Source CFD Toolbox           |
|  \\    /   O peration     | Version:  2.2.0                                 |
|   \\  /    A nd           | Web:      www.OpenFOAM.org                      |
|    \\/     M anipulation  |                                                 |
\*---------------------------------------------------------------------------*/
FoamFile
{
    version     2.0;
    format      ascii;
    class       volVectorField;
    location    "5";
    object      s;
}
// * * * * * * * * * * * * * * * * * * * * * * * * * * * * * * * * * * * * * //

dimensions      [0 1 -1 0 0 0 0];

internalField   nonuniform List<vector> 
1600
(
(1.7187 0.0670215 0)
(1.45865 0.0570797 0)
(1.26603 0.0495252 0)
(1.11827 0.0437492 0)
(1.00119 0.0391625 0)
(0.906199 0.0354432 0)
(0.827588 0.0323672 0)
(0.761463 0.0297827 0)
(0.705075 0.0275823 0)
(0.656421 0.025688 0)
(0.614016 0.0240423 0)
(0.576729 0.0226018 0)
(0.54369 0.0213338 0)
(0.514214 0.0202134 0)
(0.487758 0.0192216 0)
(0.463887 0.0183454 0)
(0.442242 0.0175702 0)
(0.422554 0.0169079 0)
(0.404559 0.016291 0)
(0.388022 0.0158954 0)
(1.70815 0.202163 0)
(1.4497 0.171544 0)
(1.25823 0.148905 0)
(1.11138 0.13154 0)
(0.995021 0.117784 0)
(0.900612 0.106625 0)
(0.822486 0.0973942 0)
(0.756772 0.0896325 0)
(0.700734 0.083017 0)
(0.652385 0.0773126 0)
(0.610247 0.0723442 0)
(0.573198 0.067979 0)
(0.540373 0.0641139 0)
(0.511093 0.0606677 0)
(0.484819 0.0575752 0)
(0.461121 0.0547826 0)
(0.439641 0.0522458 0)
(0.420114 0.0499188 0)
(0.402278 0.0477969 0)
(0.385908 0.0457315 0)
(1.68698 0.335808 0)
(1.43171 0.284939 0)
(1.24266 0.247355 0)
(1.09762 0.218519 0)
(0.982706 0.195679 0)
(0.889464 0.177149 0)
(0.812306 0.161819 0)
(0.747407 0.148927 0)
(0.692064 0.137936 0)
(0.644316 0.128456 0)
(0.602702 0.120196 0)
(0.566114 0.112933 0)
(0.533696 0.106497 0)
(0.504776 0.100753 0)
(0.478819 0.0955903 0)
(0.455399 0.0909215 0)
(0.434144 0.0866696 0)
(0.414842 0.0827794 0)
(0.397038 0.0791871 0)
(0.380937 0.0758318 0)
(1.65542 0.467184 0)
(1.40493 0.396568 0)
(1.21942 0.344269 0)
(1.07709 0.304151 0)
(0.964324 0.272366 0)
(0.872825 0.24658 0)
(0.79711 0.225245 0)
(0.733425 0.207302 0)
(0.679119 0.192004 0)
(0.632265 0.178807 0)
(0.591431 0.167306 0)
(0.555528 0.157193 0)
(0.523715 0.148232 0)
(0.495332 0.140234 0)
(0.469851 0.13305 0)
(0.446852 0.126561 0)
(0.425967 0.120661 0)
(0.406976 0.115294 0)
(0.389452 0.110332 0)
(0.373547 0.105856 0)
(1.61369 0.595751 0)
(1.3695 0.505757 0)
(1.18866 0.439066 0)
(1.04992 0.38791 0)
(0.939987 0.347376 0)
(0.850796 0.314492 0)
(0.77699 0.287283 0)
(0.714912 0.264399 0)
(0.661976 0.244887 0)
(0.616306 0.228054 0)
(0.576502 0.213384 0)
(0.541505 0.200486 0)
(0.510495 0.189056 0)
(0.482826 0.178857 0)
(0.457986 0.169698 0)
(0.435564 0.161431 0)
(0.415207 0.153924 0)
(0.396693 0.147102 0)
(0.379645 0.140815 0)
(0.364139 0.135129 0)
(1.56201 0.720699 0)
(1.32562 0.61184 0)
(1.15056 0.531161 0)
(1.01626 0.46928 0)
(0.909845 0.420247 0)
(0.82351 0.380466 0)
(0.752069 0.34755 0)
(0.69198 0.319866 0)
(0.640742 0.29626 0)
(0.596536 0.275896 0)
(0.55801 0.258148 0)
(0.524136 0.242544 0)
(0.49412 0.228717 0)
(0.46734 0.21638 0)
(0.443298 0.205305 0)
(0.421598 0.195308 0)
(0.4019 0.186234 0)
(0.383985 0.177984 0)
(0.367512 0.17039 0)
(0.352502 0.16349 0)
(1.50068 0.84123 0)
(1.27356 0.714161 0)
(1.10535 0.619989 0)
(0.976318 0.547762 0)
(0.874081 0.490529 0)
(0.791135 0.444096 0)
(0.722499 0.405675 0)
(0.66477 0.373361 0)
(0.615545 0.345808 0)
(0.573077 0.322037 0)
(0.536066 0.301321 0)
(0.503524 0.283106 0)
(0.47469 0.266967 0)
(0.448965 0.252568 0)
(0.425872 0.239641 0)
(0.405029 0.227974 0)
(0.386114 0.217385 0)
(0.368908 0.207752 0)
(0.353102 0.198895 0)
(0.338674 0.190825 0)
(1.43007 0.956587 0)
(1.21363 0.812087 0)
(1.05331 0.705 0)
(0.930347 0.62287 0)
(0.832915 0.55779 0)
(0.753869 0.504991 0)
(0.688462 0.461301 0)
(0.633449 0.424555 0)
(0.586541 0.393223 0)
(0.546073 0.366192 0)
(0.510805 0.342635 0)
(0.479797 0.321923 0)
(0.452323 0.30357 0)
(0.427812 0.287196 0)
(0.40581 0.272497 0)
(0.385953 0.25923 0)
(0.367935 0.247188 0)
(0.351542 0.236231 0)
(0.336494 0.226165 0)
(0.322737 0.216973 0)
(1.35063 1.06605 0)
(1.1462 0.905014 0)
(0.994768 0.785669 0)
(0.878625 0.694142 0)
(0.786599 0.621614 0)
(0.711941 0.562773 0)
(0.650165 0.514084 0)
(0.598209 0.473133 0)
(0.553907 0.438215 0)
(0.515688 0.40809 0)
(0.482382 0.381836 0)
(0.453099 0.358753 0)
(0.427154 0.338299 0)
(0.404009 0.320051 0)
(0.383233 0.303669 0)
(0.364483 0.288882 0)
(0.347471 0.275462 0)
(0.331991 0.263248 0)
(0.31779 0.252034 0)
(0.304791 0.241778 0)
(1.26284 1.16895 0)
(1.07167 0.992365 0)
(0.93007 0.861499 0)
(0.821468 0.761138 0)
(0.735416 0.681608 0)
(0.665607 0.617088 0)
(0.607845 0.563698 0)
(0.559265 0.518794 0)
(0.517843 0.480504 0)
(0.482109 0.447471 0)
(0.450969 0.418682 0)
(0.423593 0.39337 0)
(0.399337 0.370941 0)
(0.377699 0.35093 0)
(0.358277 0.332966 0)
(0.34075 0.316751 0)
(0.324848 0.302035 0)
(0.310376 0.288639 0)
(0.297107 0.276347 0)
(0.284946 0.26509 0)
(1.16724 1.26465 0)
(0.990526 1.0736 0)
(0.85962 0.932019 0)
(0.759228 0.823442 0)
(0.679683 0.737402 0)
(0.615153 0.667598 0)
(0.56176 0.609837 0)
(0.516856 0.561256 0)
(0.47857 0.519831 0)
(0.445542 0.484092 0)
(0.416761 0.452945 0)
(0.391459 0.42556 0)
(0.369042 0.401294 0)
(0.349044 0.379644 0)
(0.331096 0.360208 0)
(0.314899 0.342664 0)
(0.300204 0.326743 0)
(0.286829 0.312248 0)
(0.274571 0.298954 0)
(0.263325 0.286765 0)
(1.06442 1.35255 0)
(0.903249 1.14822 0)
(0.78385 0.996795 0)
(0.692288 0.880672 0)
(0.61974 0.788649 0)
(0.560889 0.713994 0)
(0.512195 0.652217 0)
(0.471244 0.600258 0)
(0.43633 0.555952 0)
(0.406211 0.517728 0)
(0.379966 0.484415 0)
(0.356894 0.455125 0)
(0.336454 0.429171 0)
(0.318221 0.406015 0)
(0.301856 0.385226 0)
(0.287088 0.366462 0)
(0.273691 0.349434 0)
(0.261495 0.333929 0)
(0.250323 0.319715 0)
(0.240064 0.30667 0)
(0.95502 1.43211 0)
(0.81038 1.21576 0)
(0.703227 1.05543 0)
(0.621061 0.932472 0)
(0.555958 0.835035 0)
(0.503148 0.755987 0)
(0.459454 0.690575 0)
(0.422709 0.635558 0)
(0.391381 0.588645 0)
(0.364358 0.548171 0)
(0.340811 0.512897 0)
(0.320112 0.481882 0)
(0.301775 0.4544 0)
(0.285418 0.42988 0)
(0.270738 0.407868 0)
(0.25749 0.387999 0)
(0.245473 0.369969 0)
(0.234532 0.35355 0)
(0.224513 0.338504 0)
(0.215305 0.324683 0)
(0.839707 1.50285 0)
(0.712493 1.27581 0)
(0.618248 1.10755 0)
(0.545985 0.978522 0)
(0.488729 0.876272 0)
(0.442286 0.793319 0)
(0.403862 0.724675 0)
(0.371549 0.66694 0)
(0.344002 0.617708 0)
(0.320241 0.575233 0)
(0.299537 0.538215 0)
(0.281338 0.505666 0)
(0.265217 0.476825 0)
(0.250837 0.451093 0)
(0.237932 0.427992 0)
(0.226287 0.407141 0)
(0.215724 0.38822 0)
(0.206106 0.370988 0)
(0.197302 0.355203 0)
(0.189204 0.340692 0)
(0.719194 1.56431 0)
(0.610192 1.32799 0)
(0.529438 1.15284 0)
(0.467523 1.01854 0)
(0.418468 0.912106 0)
(0.378679 0.825759 0)
(0.345761 0.754307 0)
(0.31808 0.694208 0)
(0.294483 0.642961 0)
(0.27413 0.598747 0)
(0.256398 0.560213 0)
(0.240811 0.526331 0)
(0.227005 0.496309 0)
(0.214692 0.469522 0)
(0.203642 0.445475 0)
(0.193671 0.423769 0)
(0.184628 0.404075 0)
(0.176393 0.386136 0)
(0.168857 0.36971 0)
(0.161921 0.354598 0)
(0.594224 1.61613 0)
(0.504107 1.37198 0)
(0.437343 1.19103 0)
(0.386159 1.05228 0)
(0.345608 0.942316 0)
(0.312718 0.853108 0)
(0.285509 0.779287 0)
(0.262631 0.717196 0)
(0.243129 0.664249 0)
(0.22631 0.618568 0)
(0.211658 0.578755 0)
(0.198781 0.543748 0)
(0.187375 0.512729 0)
(0.177204 0.485053 0)
(0.168078 0.460207 0)
(0.159843 0.437781 0)
(0.152376 0.417433 0)
(0.145576 0.398899 0)
(0.139354 0.381931 0)
(0.133625 0.366314 0)
(0.465564 1.65798 0)
(0.394893 1.40751 0)
(0.342532 1.22187 0)
(0.302396 1.07952 0)
(0.270598 0.966715 0)
(0.24481 0.875195 0)
(0.223478 0.799461 0)
(0.205544 0.735761 0)
(0.190257 0.681441 0)
(0.177076 0.634574 0)
(0.165594 0.593727 0)
(0.155505 0.557811 0)
(0.14657 0.525985 0)
(0.138604 0.497589 0)
(0.131459 0.472097 0)
(0.125013 0.449087 0)
(0.119168 0.428211 0)
(0.113848 0.409196 0)
(0.10898 0.391792 0)
(0.104497 0.375764 0)
(0.334014 1.6896 0)
(0.283224 1.43435 0)
(0.245591 1.24518 0)
(0.216749 1.10011 0)
(0.193901 0.985153 0)
(0.175374 0.891887 0)
(0.16005 0.814707 0)
(0.147169 0.749789 0)
(0.136193 0.694431 0)
(0.126729 0.646668 0)
(0.118488 0.605038 0)
(0.111249 0.568433 0)
(0.10484 0.535996 0)
(0.0991286 0.507053 0)
(0.0940073 0.48107 0)
(0.0893902 0.457616 0)
(0.0852056 0.436337 0)
(0.0813977 0.416957 0)
(0.0779134 0.399222 0)
(0.0747014 0.382894 0)
(0.200365 1.7108 0)
(0.169793 1.45235 0)
(0.147118 1.2608 0)
(0.129748 1.11392 0)
(0.11599 0.997517 0)
(0.104837 0.903079 0)
(0.0956168 0.824929 0)
(0.0878689 0.759195 0)
(0.081269 0.70314 0)
(0.0755815 0.654774 0)
(0.0706312 0.612619 0)
(0.0662851 0.575551 0)
(0.0624407 0.542701 0)
(0.0590176 0.513389 0)
(0.0559519 0.487072 0)
(0.0531927 0.463316 0)
(0.0506973 0.441762 0)
(0.048435 0.422131 0)
(0.0463684 0.404173 0)
(0.0444815 0.387624 0)
(0.065478 1.72142 0)
(0.0552997 1.46138 0)
(0.0477222 1.26866 0)
(0.0419284 1.12086 0)
(0.0373452 1.00373 0)
(0.0336362 0.908703 0)
(0.030575 0.830065 0)
(0.0280075 0.76392 0)
(0.0258247 0.707514 0)
(0.0239477 0.658846 0)
(0.0223179 0.616425 0)
(0.020891 0.579122 0)
(0.0196328 0.546063 0)
(0.0185172 0.516561 0)
(0.0175234 0.49007 0)
(0.0166357 0.466151 0)
(0.0158401 0.444436 0)
(0.0151343 0.424655 0)
(0.0144863 0.406514 0)
(0.0139665 0.389835 0)
(-0.0696748 1.72147 0)
(-0.059543 1.4614 0)
(-0.0519775 1.26869 0)
(-0.0461668 1.12089 0)
(-0.0415478 1.00376 0)
(-0.0377911 0.908725 0)
(-0.0346741 0.830084 0)
(-0.0320454 0.763936 0)
(-0.0297978 0.707528 0)
(-0.0278533 0.658857 0)
(-0.0261537 0.616434 0)
(-0.024655 0.579128 0)
(-0.0233232 0.546064 0)
(-0.0221316 0.516557 0)
(-0.0210589 0.490058 0)
(-0.0200884 0.46613 0)
(-0.0192052 0.444397 0)
(-0.0184029 0.424616 0)
(-0.0176584 0.406405 0)
(-0.0169992 0.389789 0)
(-0.204462 1.71095 0)
(-0.174048 1.45248 0)
(-0.151381 1.26091 0)
(-0.133999 1.11401 0)
(-0.120205 0.997595 0)
(-0.109005 0.903145 0)
(-0.0997281 0.824986 0)
(-0.0919189 0.759243 0)
(-0.0852543 0.703181 0)
(-0.0794997 0.654809 0)
(-0.0744806 0.612648 0)
(-0.0700647 0.575574 0)
(-0.06615 0.542718 0)
(-0.0626568 0.513398 0)
(-0.0595216 0.487072 0)
(-0.0566945 0.463303 0)
(-0.0541324 0.441731 0)
(-0.0518121 0.422072 0)
(-0.0496761 0.404081 0)
(-0.0477862 0.387466 0)
(-0.33816 1.68989 0)
(-0.287515 1.43459 0)
(-0.249884 1.24536 0)
(-0.221028 1.10027 0)
(-0.198142 0.985281 0)
(-0.179566 0.891996 0)
(-0.164186 0.8148 0)
(-0.151243 0.749869 0)
(-0.140202 0.694499 0)
(-0.130671 0.646725 0)
(-0.122361 0.605087 0)
(-0.115052 0.568473 0)
(-0.108574 0.536027 0)
(-0.102793 0.507076 0)
(-0.0976025 0.481084 0)
(-0.0929183 0.457621 0)
(-0.0886692 0.436336 0)
(-0.0848003 0.416942 0)
(-0.0812584 0.399225 0)
(-0.0779989 0.382854 0)
(-0.469789 1.65839 0)
(-0.399239 1.40785 0)
(-0.34687 1.22212 0)
(-0.306717 1.07974 0)
(-0.274878 0.966891 0)
(-0.249039 0.875345 0)
(-0.22765 0.799589 0)
(-0.209652 0.735869 0)
(-0.194301 0.681534 0)
(-0.181051 0.634653 0)
(-0.1695 0.593794 0)
(-0.159342 0.557868 0)
(-0.150338 0.526032 0)
(-0.142303 0.497627 0)
(-0.135089 0.472129 0)
(-0.128575 0.449113 0)
(-0.122665 0.428236 0)
(-0.117277 0.409209 0)
(-0.112349 0.391838 0)
(-0.107791 0.375754 0)
(-0.598542 1.61664 0)
(-0.508528 1.37241 0)
(-0.441742 1.19135 0)
(-0.390536 1.05254 0)
(-0.349939 0.942536 0)
(-0.316996 0.853293 0)
(-0.289728 0.779444 0)
(-0.266786 0.71733 0)
(-0.247217 0.664363 0)
(-0.23033 0.618665 0)
(-0.215608 0.578837 0)
(-0.20266 0.543818 0)
(-0.191184 0.512788 0)
(-0.180942 0.485103 0)
(-0.171745 0.460251 0)
(-0.163441 0.43782 0)
(-0.155904 0.417473 0)
(-0.149031 0.398927 0)
(-0.142749 0.381999 0)
(-0.136929 0.366309 0)
(-0.723616 1.5649 0)
(-0.614702 1.32849 0)
(-0.53391 1.15322 0)
(-0.471968 1.01885 0)
(-0.422863 0.912364 0)
(-0.383017 0.825977 0)
(-0.350037 0.75449 0)
(-0.322291 0.694364 0)
(-0.298626 0.643093 0)
(-0.278203 0.598858 0)
(-0.2604 0.560306 0)
(-0.244742 0.52641 0)
(-0.230863 0.496375 0)
(-0.218477 0.469579 0)
(-0.207355 0.445524 0)
(-0.197311 0.423813 0)
(-0.188196 0.404119 0)
(-0.179882 0.386165 0)
(-0.172289 0.369781 0)
(-0.165247 0.354585 0)
(-0.844244 1.5035 0)
(-0.717105 1.27637 0)
(-0.622805 1.10797 0)
(-0.550509 0.978875 0)
(-0.493198 0.876562 0)
(-0.446695 0.793562 0)
(-0.408207 0.724879 0)
(-0.375827 0.667111 0)
(-0.34821 0.617852 0)
(-0.324377 0.575353 0)
(-0.303601 0.538314 0)
(-0.285329 0.505748 0)
(-0.269133 0.476893 0)
(-0.254679 0.451149 0)
(-0.241698 0.428039 0)
(-0.229977 0.40718 0)
(-0.219341 0.388259 0)
(-0.209639 0.371009 0)
(-0.200781 0.355268 0)
(-0.192562 0.340663 0)
(-0.95968 1.43283 0)
(-0.815105 1.21637 0)
(-0.707879 1.05588 0)
(-0.625674 0.932855 0)
(-0.56051 0.835349 0)
(-0.507637 0.756249 0)
(-0.463876 0.690794 0)
(-0.427062 0.63574 0)
(-0.395663 0.588795 0)
(-0.368567 0.548293 0)
(-0.344946 0.512996 0)
(-0.324172 0.481961 0)
(-0.305758 0.454462 0)
(-0.289324 0.429928 0)
(-0.274567 0.407904 0)
(-0.261241 0.388025 0)
(-0.249149 0.369993 0)
(-0.238119 0.353553 0)
(-0.228051 0.338553 0)
(-0.218705 0.324629 0)
(-1.06921 1.35331 0)
(-0.908095 1.14887 0)
(-0.788605 0.997278 0)
(-0.696998 0.881077 0)
(-0.624384 0.78898 0)
(-0.565466 0.714268 0)
(-0.516704 0.652443 0)
(-0.475681 0.600443 0)
(-0.440694 0.556102 0)
(-0.410501 0.517847 0)
(-0.384181 0.484507 0)
(-0.361032 0.455193 0)
(-0.340514 0.42922 0)
(-0.322202 0.406046 0)
(-0.305758 0.385245 0)
(-0.290909 0.366468 0)
(-0.277435 0.349436 0)
(-0.265146 0.333907 0)
(-0.25393 0.319739 0)
(-0.243515 0.306585 0)
(-1.17217 1.26544 0)
(-0.995503 1.07427 0)
(-0.864485 0.93252 0)
(-0.764043 0.823861 0)
(-0.684425 0.737741 0)
(-0.619827 0.667877 0)
(-0.566363 0.610064 0)
(-0.521386 0.561437 0)
(-0.483025 0.519973 0)
(-0.449922 0.4842 0)
(-0.421063 0.453023 0)
(-0.395683 0.425611 0)
(-0.373187 0.401322 0)
(-0.353109 0.379652 0)
(-0.33508 0.3602 0)
(-0.3188 0.342641 0)
(-0.304027 0.326714 0)
(-0.290553 0.312193 0)
(-0.278258 0.298945 0)
(-0.266837 0.286642 0)
(-1.26791 1.16976 0)
(-1.07679 0.993045 0)
(-0.935052 0.862007 0)
(-0.826394 0.76156 0)
(-0.740265 0.681948 0)
(-0.670383 0.617363 0)
(-0.612547 0.563917 0)
(-0.563893 0.518964 0)
(-0.522396 0.480632 0)
(-0.486586 0.447561 0)
(-0.455368 0.418738 0)
(-0.427912 0.393396 0)
(-0.403576 0.370942 0)
(-0.381857 0.350909 0)
(-0.362353 0.332925 0)
(-0.344741 0.316693 0)
(-0.32876 0.301969 0)
(-0.314185 0.288544 0)
(-0.300884 0.276298 0)
(-0.288528 0.264923 0)
(-1.35584 1.06686 0)
(-1.15145 0.90569 0)
(-0.999871 0.786174 0)
(-0.883667 0.694559 0)
(-0.791557 0.621945 0)
(-0.716824 0.563037 0)
(-0.654973 0.514289 0)
(-0.602941 0.473286 0)
(-0.558564 0.438321 0)
(-0.520268 0.408155 0)
(-0.486883 0.381864 0)
(-0.457521 0.358748 0)
(-0.431495 0.338266 0)
(-0.408267 0.319992 0)
(-0.387409 0.303589 0)
(-0.368574 0.288782 0)
(-0.351483 0.275352 0)
(-0.335895 0.263108 0)
(-0.32167 0.251938 0)
(-0.308454 0.241563 0)
(-1.43543 0.957382 0)
(-1.21903 0.812747 0)
(-1.05854 0.70549 0)
(-0.935508 0.62327 0)
(-0.837987 0.558103 0)
(-0.758863 0.505235 0)
(-0.693379 0.461484 0)
(-0.63829 0.424683 0)
(-0.591307 0.393302 0)
(-0.550761 0.366226 0)
(-0.515415 0.342629 0)
(-0.484328 0.321881 0)
(-0.456773 0.303496 0)
(-0.43218 0.287094 0)
(-0.410095 0.272371 0)
(-0.390152 0.259082 0)
(-0.372055 0.247028 0)
(-0.35555 0.236039 0)
(-0.340489 0.226015 0)
(-0.326494 0.216704 0)
(-1.50619 0.842 0)
(-1.27911 0.714789 0)
(-1.1107 0.620452 0)
(-0.9816 0.548135 0)
(-0.879267 0.490815 0)
(-0.796241 0.444313 0)
(-0.727527 0.405828 0)
(-0.669723 0.373457 0)
(-0.620422 0.345852 0)
(-0.577878 0.322034 0)
(-0.54079 0.301274 0)
(-0.50817 0.283021 0)
(-0.479255 0.266847 0)
(-0.453448 0.252417 0)
(-0.430272 0.239464 0)
(-0.409344 0.227773 0)
(-0.390353 0.21717 0)
(-0.373031 0.207505 0)
(-0.357224 0.198688 0)
(-0.342536 0.190499 0)
(-1.56767 0.721427 0)
(-1.33132 0.612421 0)
(-1.15603 0.531586 0)
(-1.02166 0.469616 0)
(-0.915144 0.420497 0)
(-0.828728 0.380646 0)
(-0.757208 0.347667 0)
(-0.697044 0.319924 0)
(-0.645732 0.296265 0)
(-0.601452 0.27585 0)
(-0.56285 0.258057 0)
(-0.528899 0.24241 0)
(-0.498805 0.228545 0)
(-0.471944 0.216175 0)
(-0.44782 0.205071 0)
(-0.426035 0.19505 0)
(-0.406265 0.185962 0)
(-0.388232 0.177679 0)
(-0.371776 0.170124 0)
(-0.356483 0.163108 0)
(-1.61951 0.59641 0)
(-1.37534 0.506276 0)
(-1.19425 0.439439 0)
(-1.05543 0.388197 0)
(-0.945397 0.347582 0)
(-0.856122 0.314629 0)
(-0.782238 0.287357 0)
(-0.720086 0.264415 0)
(-0.667079 0.244848 0)
(-0.621338 0.227962 0)
(-0.581462 0.213243 0)
(-0.546391 0.200299 0)
(-0.515303 0.188828 0)
(-0.487554 0.178593 0)
(-0.462633 0.169405 0)
(-0.440125 0.161114 0)
(-0.419697 0.153595 0)
(-0.401064 0.146744 0)
(-0.384058 0.140497 0)
(-0.368252 0.134698 0)
(-1.66138 0.467726 0)
(-1.41091 0.397006 0)
(-1.22513 0.344578 0)
(-1.08272 0.30438 0)
(-0.969837 0.272519 0)
(-0.878254 0.246667 0)
(-0.802461 0.225272 0)
(-0.738705 0.207271 0)
(-0.684331 0.191918 0)
(-0.637412 0.178667 0)
(-0.59651 0.167113 0)
(-0.560537 0.156951 0)
(-0.52865 0.147943 0)
(-0.500188 0.139904 0)
(-0.474624 0.132687 0)
(-0.451534 0.126173 0)
(-0.430575 0.120267 0)
(-0.411454 0.114886 0)
(-0.393999 0.109984 0)
(-0.377776 0.105435 0)
(-1.69304 0.336173 0)
(-1.4378 0.285283 0)
(-1.24848 0.247588 0)
(-1.10335 0.218679 0)
(-0.988313 0.195769 0)
(-0.894986 0.17718 0)
(-0.817752 0.161794 0)
(-0.752785 0.148848 0)
(-0.697381 0.137804 0)
(-0.649574 0.128269 0)
(-0.607901 0.119954 0)
(-0.571251 0.112637 0)
(-0.538765 0.106147 0)
(-0.50977 0.100352 0)
(-0.483726 0.0951457 0)
(-0.460202 0.0904445 0)
(-0.438845 0.086181 0)
(-0.419356 0.082298 0)
(-0.401559 0.0787657 0)
(-0.385009 0.0754917 0)
(-1.71431 0.202568 0)
(-1.45587 0.17179 0)
(-1.26414 0.149061 0)
(-1.11719 0.131621 0)
(-1.00071 0.117806 0)
(-0.906213 0.106596 0)
(-0.828013 0.0973162 0)
(-0.762236 0.0895064 0)
(-0.706144 0.0828413 0)
(-0.657746 0.0770845 0)
(-0.615561 0.0720602 0)
(-0.578464 0.067635 0)
(-0.545586 0.0637057 0)
(-0.516243 0.0601918 0)
(-0.48989 0.0570295 0)
(-0.466087 0.054168 0)
(-0.444475 0.0515683 0)
(-0.424744 0.0491951 0)
(-0.406714 0.0470411 0)
(-0.389916 0.0450495 0)
(-1.7251 0.067787 0)
(-1.465 0.0572161 0)
(-1.27203 0.0496036 0)
(-1.12416 0.0437407 0)
(-1.00695 0.0391094 0)
(-0.911863 0.0353495 0)
(-0.833178 0.0322357 0)
(-0.766997 0.0296125 0)
(-0.710563 0.0273703 0)
(-0.661873 0.0254294 0)
(-0.619437 0.0237304 0)
(-0.582125 0.0222278 0)
(-0.54906 0.0208859 0)
(-0.519557 0.0196764 0)
(-0.493068 0.0185763 0)
(-0.46915 0.0175655 0)
(-0.447449 0.0166324 0)
(-0.427642 0.0157451 0)
(-0.409566 0.014955 0)
(-0.392754 0.0140818 0)
(-1.72527 -0.0676714 0)
(-1.46516 -0.0577563 0)
(-1.27209 -0.0501914 0)
(-1.12421 -0.0444229 0)
(-1.00698 -0.039837 0)
(-0.911897 -0.0361197 0)
(-0.833213 -0.0330456 0)
(-0.767035 -0.0304633 0)
(-0.710606 -0.0282657 0)
(-0.661925 -0.0263746 0)
(-0.619501 -0.0247324 0)
(-0.582204 -0.0232955 0)
(-0.549161 -0.0220307 0)
(-0.519687 -0.0209125 0)
(-0.493241 -0.0199212 0)
(-0.469376 -0.0190421 0)
(-0.447769 -0.0182627 0)
(-0.428016 -0.0175821 0)
(-0.410227 -0.0169621 0)
(-0.39329 -0.0165131 0)
(-1.7147 -0.203007 0)
(-1.4562 -0.17241 0)
(-1.26429 -0.149704 0)
(-1.11732 -0.132323 0)
(-1.00081 -0.118544 0)
(-0.906311 -0.107369 0)
(-0.828113 -0.0981243 0)
(-0.762346 -0.0903506 0)
(-0.706269 -0.0837242 0)
(-0.657892 -0.0780097 0)
(-0.615736 -0.0730317 0)
(-0.578677 -0.0686572 0)
(-0.545848 -0.0647829 0)
(-0.516569 -0.0613276 0)
(-0.4903 -0.0582262 0)
(-0.466602 -0.0554243 0)
(-0.445149 -0.0528825 0)
(-0.425548 -0.0505448 0)
(-0.407906 -0.0484383 0)
(-0.391088 -0.0463724 0)
(-1.69346 -0.336907 0)
(-1.43817 -0.285985 0)
(-1.24868 -0.248287 0)
(-1.10353 -0.219408 0)
(-0.988467 -0.196521 0)
(-0.895137 -0.177958 0)
(-0.817909 -0.162598 0)
(-0.752957 -0.14968 0)
(-0.697575 -0.138666 0)
(-0.649799 -0.129162 0)
(-0.608165 -0.120879 0)
(-0.571564 -0.113594 0)
(-0.53914 -0.107137 0)
(-0.510217 -0.101371 0)
(-0.484261 -0.0961882 0)
(-0.460836 -0.0915 0)
(-0.439609 -0.087239 0)
(-0.420209 -0.0833237 0)
(-0.402651 -0.0797779 0)
(-0.38608 -0.0763575 0)
(-1.66176 -0.468568 0)
(-1.41128 -0.397772 0)
(-1.22536 -0.345324 0)
(-1.08294 -0.305135 0)
(-0.970029 -0.273284 0)
(-0.878447 -0.247449 0)
(-0.802663 -0.22607 0)
(-0.738926 -0.208088 0)
(-0.684579 -0.192753 0)
(-0.637694 -0.17952 0)
(-0.596836 -0.167985 0)
(-0.560915 -0.157838 0)
(-0.529089 -0.148842 0)
(-0.500696 -0.14081 0)
(-0.47521 -0.133593 0)
(-0.452203 -0.127069 0)
(-0.431342 -0.121148 0)
(-0.41228 -0.115728 0)
(-0.394983 -0.11082 0)
(-0.378694 -0.106167 0)
(-1.61983 -0.597313 0)
(-1.37569 -0.507087 0)
(-1.19449 -0.440219 0)
(-1.05567 -0.388973 0)
(-0.945614 -0.348358 0)
(-0.856344 -0.315411 0)
(-0.782472 -0.288147 0)
(-0.720341 -0.265213 0)
(-0.667363 -0.245654 0)
(-0.621657 -0.228776 0)
(-0.581824 -0.214062 0)
(-0.546801 -0.201119 0)
(-0.515768 -0.189645 0)
(-0.488078 -0.179401 0)
(-0.463219 -0.170199 0)
(-0.440774 -0.161885 0)
(-0.420415 -0.154342 0)
(-0.401816 -0.147446 0)
(-0.384914 -0.14119 0)
(-0.369051 -0.135297 0)
(-1.56794 -0.722346 0)
(-1.33163 -0.613258 0)
(-1.15627 -0.532387 0)
(-1.0219 -0.470406 0)
(-0.915375 -0.421279 0)
(-0.828966 -0.381427 0)
(-0.757461 -0.348446 0)
(-0.69732 -0.320703 0)
(-0.646036 -0.297043 0)
(-0.601789 -0.276625 0)
(-0.563226 -0.258826 0)
(-0.529318 -0.24317 0)
(-0.499269 -0.229292 0)
(-0.472455 -0.216904 0)
(-0.448379 -0.205778 0)
(-0.426638 -0.195729 0)
(-0.406915 -0.186614 0)
(-0.388902 -0.178289 0)
(-0.372516 -0.170727 0)
(-0.357172 -0.163632 0)
(-1.50641 -0.842916 0)
(-1.27938 -0.715636 0)
(-1.11093 -0.621264 0)
(-0.981835 -0.548932 0)
(-0.879501 -0.491599 0)
(-0.796486 -0.445088 0)
(-0.727789 -0.406596 0)
(-0.670006 -0.374217 0)
(-0.620732 -0.346603 0)
(-0.578218 -0.322774 0)
(-0.541163 -0.302001 0)
(-0.508578 -0.28373 0)
(-0.4797 -0.267536 0)
(-0.45393 -0.253082 0)
(-0.430789 -0.240103 0)
(-0.409891 -0.228383 0)
(-0.390931 -0.217752 0)
(-0.373619 -0.208047 0)
(-0.357859 -0.199224 0)
(-0.343129 -0.190966 0)
(-1.43561 -0.958283 0)
(-1.21927 -0.813593 0)
(-1.05875 -0.706304 0)
(-0.935734 -0.624067 0)
(-0.838217 -0.558884 0)
(-0.759107 -0.506002 0)
(-0.693639 -0.462239 0)
(-0.638571 -0.425425 0)
(-0.591611 -0.394029 0)
(-0.551092 -0.366936 0)
(-0.515773 -0.343319 0)
(-0.484715 -0.322548 0)
(-0.457187 -0.304139 0)
(-0.432621 -0.28771 0)
(-0.41056 -0.272958 0)
(-0.390638 -0.259638 0)
(-0.372561 -0.247557 0)
(-0.35606 -0.236532 0)
(-0.341029 -0.2265 0)
(-0.327 -0.217127 0)
(-1.35599 -1.06774 0)
(-1.15166 -0.906527 0)
(-1.00007 -0.786984 0)
(-0.88388 -0.695351 0)
(-0.791779 -0.62272 0)
(-0.71706 -0.563795 0)
(-0.655225 -0.51503 0)
(-0.603212 -0.47401 0)
(-0.558855 -0.439026 0)
(-0.52058 -0.408839 0)
(-0.487217 -0.382524 0)
(-0.457877 -0.359383 0)
(-0.431872 -0.338873 0)
(-0.408662 -0.32057 0)
(-0.38782 -0.304136 0)
(-0.368998 -0.289299 0)
(-0.351919 -0.275841 0)
(-0.336331 -0.263562 0)
(-0.322124 -0.252382 0)
(-0.308881 -0.241952 0)
(-1.26803 -1.17061 0)
(-1.07697 -0.993868 0)
(-0.935233 -0.862808 0)
(-0.826593 -0.762344 0)
(-0.740475 -0.682714 0)
(-0.670608 -0.618111 0)
(-0.612786 -0.564647 0)
(-0.564148 -0.519673 0)
(-0.522668 -0.481319 0)
(-0.486874 -0.448223 0)
(-0.455673 -0.419375 0)
(-0.428232 -0.394005 0)
(-0.40391 -0.371521 0)
(-0.382203 -0.351458 0)
(-0.362709 -0.333444 0)
(-0.345104 -0.31718 0)
(-0.329129 -0.302428 0)
(-0.314552 -0.288971 0)
(-0.301259 -0.27671 0)
(-0.288882 -0.265287 0)
(-1.17228 -1.26626 0)
(-0.995668 -1.07508 0)
(-0.864653 -0.93331 0)
(-0.764228 -0.824635 0)
(-0.684622 -0.738498 0)
(-0.620037 -0.668615 0)
(-0.566585 -0.610782 0)
(-0.521621 -0.562133 0)
(-0.483274 -0.520646 0)
(-0.450182 -0.484846 0)
(-0.421335 -0.453642 0)
(-0.395965 -0.426201 0)
(-0.373477 -0.401882 0)
(-0.353406 -0.380181 0)
(-0.335382 -0.360698 0)
(-0.319104 -0.343108 0)
(-0.304332 -0.327152 0)
(-0.290855 -0.312599 0)
(-0.278559 -0.299332 0)
(-0.267124 -0.286987 0)
(-1.06932 -1.35411 0)
(-0.908245 -1.14966 0)
(-0.788762 -0.998057 0)
(-0.69717 -0.881841 0)
(-0.624567 -0.789728 0)
(-0.56566 -0.714997 0)
(-0.516908 -0.653151 0)
(-0.475896 -0.601129 0)
(-0.440917 -0.556763 0)
(-0.410732 -0.518482 0)
(-0.384418 -0.485114 0)
(-0.361275 -0.455771 0)
(-0.340761 -0.429767 0)
(-0.32245 -0.406563 0)
(-0.306007 -0.38573 0)
(-0.291157 -0.366922 0)
(-0.27768 -0.34986 0)
(-0.265386 -0.3343 0)
(-0.254165 -0.32011 0)
(-0.243738 -0.306917 0)
(-0.959783 -1.43361 0)
(-0.815244 -1.21715 0)
(-0.708027 -1.05665 0)
(-0.625834 -0.93361 0)
(-0.560679 -0.836089 0)
(-0.507815 -0.75697 0)
(-0.464062 -0.691494 0)
(-0.427254 -0.636418 0)
(-0.395861 -0.589449 0)
(-0.368768 -0.548922 0)
(-0.34515 -0.513597 0)
(-0.324376 -0.482533 0)
(-0.305962 -0.455004 0)
(-0.289526 -0.430439 0)
(-0.274765 -0.408385 0)
(-0.261434 -0.388474 0)
(-0.249335 -0.370411 0)
(-0.2383 -0.353941 0)
(-0.228224 -0.338914 0)
(-0.218869 -0.324956 0)
(-0.844354 -1.50426 0)
(-0.717239 -1.27714 0)
(-0.622947 -1.10873 0)
(-0.550658 -0.979622 0)
(-0.493354 -0.877295 0)
(-0.446858 -0.794278 0)
(-0.408374 -0.725575 0)
(-0.375997 -0.667785 0)
(-0.348382 -0.618503 0)
(-0.32455 -0.575979 0)
(-0.303772 -0.538914 0)
(-0.285496 -0.506321 0)
(-0.269296 -0.477437 0)
(-0.254835 -0.451663 0)
(-0.241848 -0.428523 0)
(-0.230119 -0.407632 0)
(-0.219474 -0.38868 0)
(-0.209764 -0.3714 0)
(-0.200896 -0.355629 0)
(-0.192669 -0.340992 0)
(-0.72374 -1.56565 0)
(-0.614833 -1.32925 0)
(-0.534047 -1.15397 0)
(-0.472108 -1.0196 0)
(-0.423007 -0.913094 0)
(-0.383165 -0.826689 0)
(-0.350187 -0.755184 0)
(-0.322441 -0.695037 0)
(-0.298774 -0.643744 0)
(-0.278349 -0.599486 0)
(-0.26054 -0.56091 0)
(-0.244876 -0.526989 0)
(-0.230989 -0.496927 0)
(-0.218593 -0.470103 0)
(-0.207459 -0.44602 0)
(-0.197404 -0.424278 0)
(-0.188277 -0.404553 0)
(-0.179954 -0.38657 0)
(-0.172347 -0.370151 0)
(-0.165298 -0.354926 0)
(-0.598684 -1.61738 0)
(-0.508659 -1.37317 0)
(-0.441874 -1.1921 0)
(-0.390667 -1.05328 0)
(-0.350072 -0.943264 0)
(-0.317129 -0.854005 0)
(-0.28986 -0.780138 0)
(-0.266916 -0.718004 0)
(-0.247344 -0.665018 0)
(-0.230451 -0.619299 0)
(-0.215721 -0.57945 0)
(-0.202764 -0.544409 0)
(-0.191277 -0.513355 0)
(-0.181022 -0.485646 0)
(-0.17181 -0.460768 0)
(-0.163491 -0.438309 0)
(-0.155939 -0.417932 0)
(-0.149052 -0.399358 0)
(-0.142756 -0.382393 0)
(-0.136926 -0.366671 0)
(-0.469962 -1.65914 0)
(-0.39937 -1.40862 0)
(-0.346999 -1.22288 0)
(-0.306839 -1.08048 0)
(-0.274998 -0.96762 0)
(-0.249158 -0.876057 0)
(-0.227766 -0.800284 0)
(-0.209765 -0.736547 0)
(-0.194408 -0.682194 0)
(-0.181152 -0.635296 0)
(-0.169592 -0.594419 0)
(-0.159421 -0.558474 0)
(-0.150403 -0.52662 0)
(-0.142352 -0.498196 0)
(-0.13512 -0.472676 0)
(-0.128587 -0.449638 0)
(-0.122655 -0.428735 0)
(-0.117246 -0.409683 0)
(-0.112298 -0.392275 0)
(-0.10772 -0.376158 0)
(-0.338362 -1.69067 0)
(-0.287642 -1.43539 0)
(-0.250004 -1.24612 0)
(-0.221139 -1.10102 0)
(-0.19825 -0.986013 0)
(-0.179671 -0.89271 0)
(-0.164287 -0.815497 0)
(-0.151341 -0.75055 0)
(-0.140293 -0.695165 0)
(-0.130755 -0.647377 0)
(-0.122435 -0.605725 0)
(-0.115114 -0.569098 0)
(-0.108622 -0.53664 0)
(-0.102824 -0.507677 0)
(-0.0976146 -0.481673 0)
(-0.092908 -0.458198 0)
(-0.0886339 -0.436898 0)
(-0.0847361 -0.417485 0)
(-0.0811686 -0.399744 0)
(-0.0778721 -0.383323 0)
(-0.204698 -1.71178 0)
(-0.174161 -1.45331 0)
(-0.15149 -1.26169 0)
(-0.134096 -1.11477 0)
(-0.120299 -0.998328 0)
(-0.109096 -0.903861 0)
(-0.0998159 -0.825685 0)
(-0.0920026 -0.759929 0)
(-0.0853326 -0.703853 0)
(-0.0795711 -0.65547 0)
(-0.0745433 -0.613298 0)
(-0.0701168 -0.576216 0)
(-0.0661891 -0.543353 0)
(-0.0626799 -0.514029 0)
(-0.0595254 -0.487701 0)
(-0.0566742 -0.463933 0)
(-0.0540844 -0.442366 0)
(-0.0517223 -0.422713 0)
(-0.0495601 -0.404741 0)
(-0.0475665 -0.388125 0)
(-0.0698147 -1.72235 0)
(-0.0596292 -1.46227 0)
(-0.0520623 -1.26947 0)
(-0.0462465 -1.12165 0)
(-0.0416263 -1.00449 0)
(-0.0378679 -0.909442 0)
(-0.0347488 -0.830785 0)
(-0.0321172 -0.764624 0)
(-0.0298657 -0.708204 0)
(-0.0279163 -0.659523 0)
(-0.0262108 -0.617093 0)
(-0.0247053 -0.579783 0)
(-0.0233658 -0.546719 0)
(-0.0221653 -0.517215 0)
(-0.0210828 -0.490726 0)
(-0.020101 -0.466811 0)
(-0.0192061 -0.44511 0)
(-0.0183848 -0.425333 0)
(-0.0176335 -0.407245 0)
(-0.0169239 -0.390543 0)
(1.71858 -0.0681785 0)
(1.70795 -0.202634 0)
(1.68689 -0.33605 0)
(1.65543 -0.467557 0)
(1.61375 -0.596211 0)
(1.56209 -0.72122 0)
(1.50077 -0.841795 0)
(1.43017 -0.957188 0)
(1.35073 -1.06669 0)
(1.26293 -1.16961 0)
(1.16733 -1.26533 0)
(1.0645 -1.35325 0)
(0.955092 -1.43283 0)
(0.839769 -1.50358 0)
(0.719246 -1.56507 0)
(0.594267 -1.6169 0)
(0.465602 -1.65877 0)
(0.334041 -1.69041 0)
(0.200405 -1.71163 0)
(0.0655002 -1.7223 0)
(1.45853 -0.0577027 0)
(1.4495 -0.1721 0)
(1.43162 -0.285458 0)
(1.40491 -0.397087 0)
(1.36952 -0.506292 0)
(1.32567 -0.612397 0)
(1.27363 -0.714742 0)
(1.2137 -0.812694 0)
(1.14627 -0.905645 0)
(1.07175 -0.993019 0)
(0.990598 -1.07428 0)
(0.903314 -1.14892 0)
(0.810438 -1.21648 0)
(0.712541 -1.27654 0)
(0.610229 -1.32874 0)
(0.504132 -1.37275 0)
(0.394904 -1.40829 0)
(0.28322 -1.43516 0)
(0.169768 -1.45317 0)
(0.0552495 -1.46223 0)
(1.26601 -0.0501335 0)
(1.2582 -0.149462 0)
(1.24263 -0.247884 0)
(1.21941 -0.344797 0)
(1.18867 -0.439602 0)
(1.15058 -0.531714 0)
(1.10538 -0.62056 0)
(1.05335 -0.705591 0)
(0.99481 -0.786281 0)
(0.930113 -0.86213 0)
(0.859661 -0.932669 0)
(0.783887 -0.997463 0)
(0.703259 -1.05611 0)
(0.618273 -1.10825 0)
(0.529454 -1.15356 0)
(0.43735 -1.19176 0)
(0.342528 -1.22262 0)
(0.245573 -1.24593 0)
(0.147084 -1.26157 0)
(0.0476676 -1.26943 0)
(1.11825 -0.0443061 0)
(1.11135 -0.132085 0)
(1.0976 -0.219057 0)
(1.07708 -0.304688 0)
(1.04991 -0.388453 0)
(1.01626 -0.469835 0)
(0.976335 -0.548331 0)
(0.93037 -0.623457 0)
(0.878651 -0.694746 0)
(0.821496 -0.76176 0)
(0.759255 -0.824082 0)
(0.692312 -0.881328 0)
(0.621081 -0.933144 0)
(0.545998 -0.97921 0)
(0.467529 -1.01924 0)
(0.386155 -1.05299 0)
(0.30238 -1.08025 0)
(0.216721 -1.10085 0)
(0.129704 -1.11467 0)
(0.0418679 -1.12162 0)
(1.00119 -0.0396988 0)