/*--------------------------------*- C++ -*----------------------------------*\
| =========                 |                                                 |
| \\      /  F ield         | OpenFOAM: The Open Source CFD Toolbox           |
|  \\    /   O peration     | Version:  2.2.0                                 |
|   \\  /    A nd           | Web:      www.OpenFOAM.org                      |
|    \\/     M anipulation  |                                                 |
\*---------------------------------------------------------------------------*/
FoamFile
{
    version     2.0;
    format      ascii;
    class       volScalarField;
    location    "5";
    object      Theta;
}
// * * * * * * * * * * * * * * * * * * * * * * * * * * * * * * * * * * * * * //

dimensions      [0 2 -2 0 0 0 0];

internalField   nonuniform List<scalar> 
1600
(
2.08695
1.91668
1.86372
1.80406
1.75733
1.71669
1.6804
1.64768
1.61776
1.59015
1.56451
1.54053
1.51798
1.49668
1.47642
1.45716
1.43821
1.4209
1.40252
1.3809
2.08636
1.91644
1.86398
1.80409
1.75739
1.71671
1.68041
1.64768
1.61774
1.59012
1.56446
1.54047
1.51792
1.49661
1.47636
1.45709
1.43821
1.42091
1.40267
1.38157
2.05881
1.91773
1.86279
1.80415
1.75738
1.71673
1.68042
1.64768
1.61773
1.59011
1.56447
1.54051
1.51804
1.49689
1.47686
1.45822
1.43905
1.42647
1.39775
1.4082
2.06099
1.91772
1.86309
1.80424
1.75744
1.71677
1.68044
1.64768
1.61771
1.59008
1.56441
1.54043
1.51791
1.4967
1.47659
1.45781
1.4387
1.42546
1.39882
1.40608
2.06595
1.91743
1.86332
1.80427
1.7575
1.7168
1.68045
1.64767
1.61769
1.59005
1.56437
1.54038
1.51788
1.49668
1.4766
1.4578
1.4388
1.42488
1.39949
1.4013
2.06882
1.91705
1.86376
1.80431
1.75759
1.71683
1.68047
1.64767
1.61767
1.59
1.5643
1.5403
1.51776
1.49652
1.4764
1.45752
1.43859
1.4241
1.40016
1.39855
2.07112
1.91664
1.86418
1.80436
1.75767
1.71687
1.68048
1.64766
1.61764
1.58995
1.56424
1.54021
1.51766
1.4964
1.47626
1.45732
1.43847
1.42355
1.40071
1.39636
2.07302
1.91626
1.86459
1.8044
1.75776
1.7169
1.68049
1.64765
1.61761
1.5899
1.56417
1.54012
1.51754
1.49626
1.4761
1.45712
1.43833
1.42305
1.40115
1.39454
2.07461
1.91591
1.86495
1.80445
1.75784
1.71694
1.68051
1.64764
1.61758
1.58985
1.5641
1.54003
1.51744
1.49613
1.47596
1.45694
1.4382
1.42263
1.40152
1.393
2.07599
1.91559
1.86527
1.80449
1.75791
1.71697
1.68052
1.64763
1.61755
1.5898
1.56403
1.53995
1.51734
1.49602
1.47582
1.45677
1.43809
1.42226
1.40185
1.39166
2.07719
1.9153
1.86554
1.80453
1.75797
1.71699
1.68052
1.64761
1.61752
1.58976
1.56397
1.53987
1.51724
1.49591
1.4757
1.45663
1.43798
1.42193
1.40214
1.39048
2.07824
1.91504
1.86577
1.80456
1.75802
1.71701
1.68052
1.6476
1.61748
1.58971
1.56391
1.5398
1.51716
1.49581
1.47559
1.4565
1.43789
1.42165
1.40239
1.38943
2.07915
1.91482
1.86596
1.80458
1.75806
1.71702
1.68052
1.64758
1.61745
1.58967
1.56385
1.53973
1.51708
1.49572
1.4755
1.45638
1.4378
1.4214
1.40261
1.38849
2.07994
1.91462
1.86611
1.8046
1.75809
1.71703
1.68052
1.64756
1.61743
1.58963
1.5638
1.53967
1.51701
1.49564
1.47541
1.45628
1.43773
1.42119
1.40279
1.38766
2.08064
1.91445
1.86621
1.80461
1.7581
1.71703
1.68051
1.64754
1.6174
1.58959
1.56376
1.53962
1.51695
1.49557
1.47534
1.45619
1.43766
1.42101
1.40293
1.38691
2.0811
1.91431
1.86626
1.80461
1.75811
1.71703
1.6805
1.64752
1.61737
1.58956
1.56372
1.53957
1.5169
1.49552
1.47528
1.45613
1.43761
1.42089
1.40307
1.38638
2.08184
1.91424
1.86627
1.80462
1.7581
1.71702
1.68048
1.6475
1.61734
1.58953
1.56368
1.53953
1.51685
1.49547
1.47522
1.45606
1.43752
1.42071
1.40307
1.38557
2.0812
1.9142
1.86618
1.80461
1.75809
1.71701
1.68047
1.64748
1.61732
1.5895
1.56365
1.5395
1.51683
1.49545
1.47522
1.45608
1.43757
1.42086
1.40321
1.38607
2.08378
1.91422
1.86609
1.80462
1.75806
1.717
1.68045
1.64746
1.61729
1.58947
1.56363
1.53948
1.51681
1.49544
1.47521
1.45607
1.43749
1.42059
1.40305
1.38346
2.078
1.91451
1.86585
1.80465
1.75804
1.71699
1.68043
1.64744
1.61727
1.58944
1.56359
1.53944
1.51676
1.49539
1.47514
1.45606
1.43738
1.42134
1.40233
1.3889
2.06427
1.91486
1.86513
1.80462
1.75801
1.71698
1.68042
1.64742
1.61724
1.58942
1.56358
1.53947
1.51687
1.49564
1.4756
1.45694
1.43826
1.42459
1.40039
1.40204
2.08464
1.91386
1.86638
1.80465
1.7581
1.71699
1.68041
1.64739
1.61719
1.58934
1.56346
1.53928
1.51657
1.49514
1.47483
1.45558
1.43697
1.41983
1.40307
1.38231
2.08554
1.91313
1.86668
1.80461
1.75814
1.71699
1.6804
1.64736
1.61715
1.58928
1.5634
1.53921
1.51652
1.49512
1.47489
1.45572
1.43738
1.41995
1.40433
1.38139
2.08772
1.91271
1.86714
1.80462
1.7582
1.717
1.68039
1.64733
1.6171
1.58922
1.56331
1.5391
1.51636
1.49491
1.47461
1.45532
1.43696
1.41913
1.40444
1.37923
2.08843
1.91234
1.86739
1.80463
1.75824
1.717
1.68038
1.6473
1.61706
1.58916
1.56323
1.53901
1.51626
1.4948
1.4745
1.45521
1.4369
1.41894
1.40476
1.37847
2.08908
1.91209
1.86757
1.80465
1.75827
1.71701
1.68036
1.64728
1.61702
1.5891
1.56317
1.53893
1.51617
1.4947
1.47439
1.45508
1.43679
1.41873
1.40488
1.37776
2.08953
1.91191
1.86769
1.80466
1.75829
1.71701
1.68035
1.64725
1.61698
1.58906
1.56311
1.53886
1.51609
1.49462
1.4743
1.45499
1.43672
1.41859
1.40498
1.37724
2.08985
1.91177
1.86776
1.80467
1.75831
1.71701
1.68034
1.64723
1.61695
1.58902
1.56306
1.53881
1.51603
1.49455
1.47423
1.45492
1.43666
1.41849
1.40505
1.37685
2.09006
1.91168
1.86779
1.80469
1.75832
1.71701
1.68033
1.64721
1.61692
1.58898
1.56302
1.53876
1.51598
1.4945
1.47418
1.45487
1.43661
1.41843
1.4051
1.37654
2.09019
1.91161
1.86781
1.8047
1.75832
1.71701
1.68033
1.6472
1.6169
1.58895
1.56298
1.53872
1.51593
1.49445
1.47413
1.45483
1.43657
1.41839
1.40512
1.37633
2.09026
1.91157
1.86781
1.80472
1.75833
1.71702
1.68032
1.64718
1.61687
1.58892
1.56294
1.53868
1.51589
1.49441
1.47409
1.45479
1.43653
1.41837
1.40513
1.37618
2.09027
1.91154
1.8678
1.80474
1.75834
1.71702
1.68031
1.64717
1.61685
1.58889
1.56291
1.53864
1.51585
1.49437
1.47406
1.45477
1.4365
1.41837
1.40512
1.37609
2.09024
1.91153
1.8678
1.80477
1.75835
1.71703
1.68031
1.64715
1.61683
1.58886
1.56287
1.5386
1.51581
1.49433
1.47402
1.45474
1.43647
1.41837
1.4051
1.37605
2.09018
1.91153
1.86781
1.80481
1.75838
1.71705
1.68031
1.64714
1.6168
1.58882
1.56283
1.53855
1.51576
1.49429
1.47398
1.45471
1.43644
1.41839
1.40508
1.37604
2.09009
1.91152
1.86786
1.80487
1.75842
1.71707
1.68032
1.64713
1.61678
1.58878
1.56278
1.5385
1.5157
1.49423
1.47392
1.45467
1.4364
1.4184
1.40506
1.37608
2.0901
1.91149
1.86796
1.80494
1.75847
1.7171
1.68033
1.64712
1.61675
1.58874
1.56272
1.53842
1.51562
1.49415
1.47384
1.4546
1.43633
1.41839
1.40502
1.37605
2.08982
1.91141
1.86817
1.80502
1.75855
1.71714
1.68034
1.64711
1.61671
1.58868
1.56264
1.53833
1.51551
1.49402
1.47372
1.45449
1.43624
1.41837
1.40502
1.37632
2.09008
1.91118
1.86851
1.80511
1.75866
1.71719
1.68036
1.64709
1.61667
1.58861
1.56255
1.53821
1.51538
1.49388
1.47358
1.45437
1.43616
1.41831
1.40515
1.37611
2.09074
1.91087
1.86924
1.80522
1.75881
1.71725
1.68038
1.64708
1.61662
1.58852
1.56241
1.53802
1.51511
1.49352
1.47311
1.45375
1.43547
1.41741
1.40462
1.37557
2.08686
1.91008
1.86979
1.80523
1.75896
1.7173
1.6804
1.64706
1.61657
1.58845
1.56232
1.53792
1.51503
1.49349
1.47319
1.45398
1.43613
1.41818
1.4059
1.37946
2.12926
1.90787
1.87257
1.80529
1.75922
1.71736
1.68043
1.64704
1.61651
1.58833
1.56211
1.53756
1.51445
1.49254
1.47178
1.45138
1.43389
1.40873
1.41049
1.33873
2.12883
1.90734
1.87278
1.8053
1.75928
1.71739
1.68044
1.64704
1.61649
1.5883
1.56209
1.53755
1.51446
1.49261
1.47188
1.45171
1.43387
1.40976
1.41045
1.33919
2.1094
1.90752
1.87226
1.8053
1.75927
1.71739
1.68044
1.64704
1.6165
1.5883
1.56209
1.53757
1.51452
1.49275
1.47219
1.4524
1.43496
1.413
1.41071
1.35787
2.10727
1.90827
1.87162
1.80529
1.75919
1.71738
1.68044
1.64706
1.61652
1.58835
1.56217
1.53769
1.51469
1.49298
1.47246
1.45275
1.43498
1.4138
1.40849
1.35988
2.1027
1.9088
1.87097
1.80526
1.75909
1.71735
1.68043
1.64707
1.61656
1.58841
1.56225
1.5378
1.51483
1.49317
1.47271
1.45313
1.43532
1.41493
1.40805
1.36421
2.09991
1.90933
1.87034
1.8052
1.75898
1.71732
1.68042
1.64709
1.6166
1.58848
1.56235
1.53794
1.51501
1.4934
1.47298
1.45348
1.43559
1.41572
1.40741
1.36684
2.09771
1.90979
1.8698
1.80514
1.75887
1.71727
1.68041
1.6471
1.61664
1.58855
1.56245
1.53806
1.51517
1.49359
1.4732
1.45376
1.43579
1.41632
1.40692
1.36891
2.09587
1.91019
1.86933
1.80507
1.75876
1.71723
1.68039
1.64712
1.61669
1.58862
1.56254
1.53818
1.51532
1.49376
1.4734
1.454
1.43597
1.41683
1.40651
1.37065
2.09433
1.91054
1.86892
1.805
1.75867
1.71719
1.68038
1.64713
1.61673
1.58868
1.56263
1.53829
1.51545
1.49392
1.47357
1.4542
1.43611
1.41726
1.40614
1.37212
2.09299
1.91086
1.86858
1.80494
1.75858
1.71715
1.68037
1.64715
1.61677
1.58874
1.56271
1.5384
1.51557
1.49406
1.47372
1.45438
1.43624
1.41763
1.40582
1.37342
2.09181
1.91114
1.86827
1.80488
1.7585
1.71711
1.68036
1.64716
1.6168
1.5888
1.56279
1.53849
1.51568
1.49418
1.47385
1.45454
1.43634
1.41795
1.40552
1.37458
2.09075
1.91141
1.86801
1.80484
1.75844
1.71708
1.68035
1.64718
1.61684
1.58885
1.56286
1.53857
1.51578
1.49429
1.47397
1.45468
1.43644
1.41824
1.40525
1.37563
2.08979
1.91166
1.86779
1.8048
1.75838
1.71706
1.68034
1.64719
1.61687
1.5889
1.56292
1.53865
1.51586
1.49439
1.47408
1.4548
1.43652
1.4185
1.405
1.3766
2.08892
1.9119
1.86759
1.80477
1.75833
1.71704
1.68034
1.64721
1.6169
1.58895
1.56298
1.53872
1.51595
1.49448
1.47417
1.45491
1.4366
1.41873
1.40477
1.37749
2.08807
1.91213
1.86742
1.80475
1.7583
1.71703
1.68035
1.64723
1.61693
1.58899
1.56304
1.53879
1.51602
1.49456
1.47427
1.45502
1.43668
1.41896
1.40456
1.37838
2.08746
1.91236
1.86727
1.80473
1.75827
1.71702
1.68035
1.64724
1.61696
1.58904
1.56309
1.53885
1.51609
1.49464
1.47434
1.45511
1.43672
1.41913
1.40431
1.37905
2.08633
1.91256
1.86713
1.80472
1.75824
1.71702
1.68036
1.64726
1.617
1.58908
1.56314
1.53891
1.51617
1.49473
1.47444
1.45523
1.43684
1.41942
1.40418
1.38023
2.08639
1.91275
1.86706
1.80472
1.75823
1.71702
1.68037
1.64729
1.61703
1.58912
1.56319
1.53896
1.51622
1.49478
1.47448
1.45526
1.43682
1.41945
1.40396
1.38026
2.08509
1.91299
1.86693
1.80471
1.75822
1.71702
1.68038
1.64731
1.61706
1.58916
1.56324
1.53903
1.51629
1.49486
1.47458
1.45538
1.43688
1.41976
1.4034
1.38161
2.08293
1.91299
1.86688
1.80469
1.75822
1.71703
1.6804
1.64733
1.61709
1.5892
1.56329
1.53908
1.51637
1.49496
1.47472
1.45558
1.43725
1.42015
1.40413
1.38379
2.03762
2.0421
2.06129
2.06404
2.06871
2.07163
2.07392
2.07581
2.07738
2.07871
2.07987
2.08087
2.08175
2.08252
2.08322
2.08381
2.08431
2.08508
2.08432
2.08718
1.91874
1.91911
1.91863
1.91777
1.91713
1.91654
1.91604
1.91561
1.91525
1.91493
1.91465
1.9144
1.91417
1.91396
1.91377
1.91359
1.91341
1.91327
1.91313
1.91296
1.86102
1.86112
1.8618
1.86256
1.86328
1.86395
1.86451
1.86499
1.86539
1.86572
1.866
1.86623
1.86642
1.86658
1.8667
1.8668
1.86687
1.86695
1.86692
1.86708
1.80402
1.80406
1.80408
1.80411
1.80415
1.80422
1.80429
1.80437
1.80444
1.80451
1.80456
1.80461
1.80464
1.80467
1.80469
1.8047
1.8047
1.8047
1.80469
1.80469
1.75713
1.75714
1.75719
1.7573
1.75742
1.75755
1.75767
1.75778
1.75788
1.75796
1.75803
1.75809
1.75814
1.75817
1.7582
1.75822
1.75823
1.75823
1.75823
1.75823
1.71666
1.71666
1.71667
1.7167
1.71674
1.71679
1.71684
1.71688
1.71692
1.71696
1.71699
1.71702
1.71704
1.71705
1.71706
1.71706
1.71706
1.71705
1.71704
1.71703
1.68039
1.68039
1.68039
1.6804
1.68042
1.68043
1.68044
1.68046
1.68047
1.68048
1.68049
1.68049
1.68049
1.68049
1.68048
1.68047
1.68046
1.68044
1.68043
1.68041
1.6477
1.64769
1.64769
1.64767
1.64765
1.64763
1.64761
1.64759
1.64758
1.64756
1.64754
1.64752
1.6475
1.64748
1.64746
1.64744
1.64742
1.6474
1.64738
1.64735
1.6178
1.61779
1.61777
1.61773
1.61769
1.61764
1.61759
1.61754
1.61749
1.61745
1.61741
1.61737
1.61734
1.6173
1.61727
1.61724
1.61721
1.61718
1.61715
1.61712
1.59024
1.59023
1.5902
1.59013
1.59006
1.58997
1.58989
1.58982
1.58975
1.58968
1.58962
1.58956
1.58951
1.58946
1.58942
1.58938
1.58934
1.5893
1.58927
1.58923
1.56467
1.56464
1.5646
1.5645
1.56439
1.56428
1.56417
1.56406
1.56397
1.56388
1.5638
1.56373
1.56366
1.5636
1.56355
1.5635
1.56345
1.5634
1.56337
1.56332
1.54082
1.54077
1.54071
1.54056
1.54042
1.54027
1.54012
1.53999
1.53987
1.53976
1.53967
1.53958
1.5395
1.53943
1.53937
1.53931
1.53926
1.5392
1.53917
1.53911
1.5185
1.5184
1.5183
1.5181
1.51792
1.51772
1.51755
1.51739
1.51724
1.51712
1.517
1.5169
1.51681
1.51673
1.51666
1.5166
1.51654
1.51648
1.51646
1.51638
1.49757
1.49738
1.49721
1.49694
1.49671
1.49647
1.49626
1.49607
1.49591
1.49576
1.49564
1.49552
1.49542
1.49533
1.49526
1.49518
1.49513
1.49505
1.49505
1.49494
1.4778
1.47753
1.47721
1.4769
1.47661
1.47632
1.47609
1.47588
1.4757
1.47554
1.4754
1.47528
1.47517
1.47508
1.47499
1.47492
1.47486
1.47477
1.4748
1.47464
1.45981
1.45924
1.45856
1.45815
1.45774
1.45737
1.45708
1.45683
1.45661
1.45643
1.45627
1.45613
1.45601
1.4559
1.45581
1.45572
1.45566
1.45555
1.45562
1.45538
1.44049
1.44016
1.43921
1.43913
1.43878
1.43849
1.43828
1.43809
1.43793
1.4378
1.43769
1.43758
1.43749
1.43741
1.43733
1.43726
1.43722
1.4371
1.43723
1.43703
1.43138
1.42961
1.4264
1.42546
1.42429
1.42347
1.42285
1.42233
1.4219
1.42153
1.42122
1.42094
1.42071
1.4205
1.42032
1.42015
1.42005
1.41981
1.42003
1.41924
1.39713
1.39695
1.39739
1.39958
1.40012
1.40079
1.40129
1.40171
1.40207
1.40238
1.40265
1.40289
1.4031
1.40328
1.40344
1.40357
1.40372
1.40378
1.40394
1.4045
1.42831
1.42398
1.4055
1.40288
1.39845
1.39567
1.39349
1.39168
1.39016
1.38885
1.38769
1.38667
1.38575
1.38492
1.38417
1.3835
1.38291
1.38206
1.38267
1.3798
)
;

boundaryField
{
    up
    {
        type            myTemperature;
        value           nonuniform List<scalar> 
80
(
1.3809
1.3812
1.38075
1.38052
1.38076
1.38095
1.38113
1.3813
1.38145
1.38161
1.38175
1.38189
1.38202
1.38214
1.38226
1.38237
1.38248
1.38257
1.38266
1.38247
1.38247
1.38284
1.38321
1.3834
1.38355
1.38369
1.38381
1.38392
1.38402
1.38411
1.3842
1.38428
1.38436
1.38443
1.38451
1.3846
1.38469
1.38481
1.38493
1.38546
1.38648
1.38668
1.38617
1.38588
1.38562
1.38541
1.38522
1.38504
1.38487
1.38471
1.38456
1.38442
1.38428
1.38414
1.38401
1.38388
1.38375
1.38362
1.38349
1.38335
1.37978
1.37968
1.38026
1.3806
1.3809
1.38116
1.38138
1.38159
1.38178
1.38196
1.38213
1.38229
1.38244
1.38258
1.38271
1.38284
1.38297
1.38308
1.38319
1.38329
)
;
    }
    hole
    {
        type            myTemperature;
        value           nonuniform List<scalar> 
80
(
2.08683
2.08665
2.08718
2.08739
2.08716
2.08698
2.08681
2.08665
2.08649
2.08631
2.08614
2.08595
2.08576
2.08556
2.08536
2.08515
2.08494
2.08472
2.0845
2.08456
2.08447
2.08398
2.08354
2.08328
2.08304
2.08282
2.0826
2.08239
2.0822
2.08201
2.08183
2.08166
2.0815
2.08136
2.08123
2.08112
2.08103
2.08095
2.08092
2.08053
2.07962
2.07945
2.07994
2.08019
2.08037
2.08053
2.08068
2.08083
2.08099
2.08116
2.08133
2.08152
2.08171
2.08191
2.08212
2.08234
2.08256
2.08279
2.08303
2.08327
2.08786
2.08794
2.08737
2.08705
2.0868
2.08659
2.08638
2.08617
2.08596
2.08575
2.08553
2.08531
2.08508
2.08485
2.08462
2.08438
2.08414
2.08391
2.08367
2.08345
)
;
    }
    frontAndBack
    {
        type            empty;
    }
}


// ************************************************************************* //
