/*--------------------------------*- C++ -*----------------------------------*\
| =========                 |                                                 |
| \\      /  F ield         | foam-extend: Open Source CFD                    |
|  \\    /   O peration     | Version:  3.0                                   |
|   \\  /    A nd           | Web:         http://www.extend-project.de       |
|    \\/     M anipulation  |                                                 |
\*---------------------------------------------------------------------------*/
FoamFile
{
    version     2.0;
    format      ascii;
    class       volVectorField;
    location    "40";
    object      s;
}
// * * * * * * * * * * * * * * * * * * * * * * * * * * * * * * * * * * * * * //

dimensions      [0 1 -1 0 0 0 0];

internalField   nonuniform List<vector> 
20480
(
(1.50645 0.014799 -3.24219e-20)
(1.44056 0.014152 -2.89518e-20)
(1.38019 0.0135593 -2.99563e-20)
(1.32467 0.0130142 -2.82699e-20)
(1.27344 0.0125113 -2.76554e-20)
(1.22603 0.0120458 -3.02013e-20)
(1.18202 0.0116137 -3.67359e-20)
(1.14106 0.0112115 -4.12181e-20)
(1.10284 0.0108363 -4.33236e-20)
(1.0671 0.0104854 -4.8466e-20)
(1.0336 0.0101566 -5.07407e-20)
(1.00214 0.00984772 -5.44149e-20)
(0.972537 0.00955711 -6.08421e-20)
(0.944632 0.00928319 -6.23705e-20)
(0.918284 0.00902454 -6.07204e-20)
(0.893366 0.00877994 -5.69698e-20)
(0.869764 0.00854826 -5.73877e-20)
(0.847377 0.0083285 -5.6545e-20)
(0.826112 0.00811978 -5.57432e-20)
(0.805889 0.00792128 -5.66371e-20)
(0.786632 0.00773227 -5.49028e-20)
(0.768274 0.00755208 -5.26806e-20)
(0.750753 0.00738011 -5.00112e-20)
(0.734013 0.00721581 -4.55337e-20)
(0.718004 0.00705868 -3.87775e-20)
(0.702677 0.00690826 -3.81035e-20)
(0.687991 0.00676413 -3.47172e-20)
(0.673907 0.00662591 -3.14894e-20)
(0.660387 0.00649323 -2.90778e-20)
(0.647399 0.00636578 -2.37546e-20)
(0.634913 0.00624324 -2.30317e-20)
(0.622898 0.00612535 -2.35024e-20)
(0.61133 0.00601183 -2.53272e-20)
(0.600184 0.00590246 -2.34616e-20)
(0.589436 0.00579701 -2.07916e-20)
(0.579067 0.00569527 -1.58753e-20)
(0.569056 0.00559705 -1.38844e-20)
(0.559386 0.00550218 -1.47485e-20)
(0.550039 0.00541047 -1.35538e-20)
(0.540999 0.00532179 -1.10852e-20)
(0.532251 0.00523597 -1.10571e-20)
(0.523781 0.00515289 -7.91075e-21)
(0.515577 0.00507242 -1.2063e-20)
(0.507626 0.00499443 -1.09367e-20)
(0.499917 0.00491881 -1.09957e-20)
(0.492438 0.00484546 -9.67235e-21)
(0.485179 0.00477428 -7.60248e-21)
(0.478132 0.00470516 -7.42265e-21)
(0.471286 0.00463803 -8.32874e-21)
(0.464633 0.0045728 -9.68471e-21)
(0.458166 0.00450939 -7.66784e-21)
(0.451876 0.00444772 -5.80964e-21)
(0.445756 0.00438773 -8.49035e-21)
(0.4398 0.00432934 -9.55526e-21)
(0.434002 0.0042725 -9.20876e-21)
(0.428354 0.00421714 -1.01927e-20)
(0.422851 0.00416321 -8.46222e-21)
(0.417487 0.00411066 -1.42817e-20)
(0.412258 0.00405942 -1.69397e-20)
(0.407159 0.00400946 -1.96956e-20)
(0.402184 0.00396073 -2.07891e-20)
(0.397329 0.00391318 -1.89326e-20)
(0.39259 0.00386677 -1.35592e-20)
(0.387963 0.00382147 -5.17517e-21)
(1.50586 0.0443732 -5.98766e-20)
(1.44 0.0424328 -3.17762e-20)
(1.37965 0.0406548 -2.27135e-20)
(1.32416 0.0390199 -1.88783e-20)
(1.27295 0.0375113 -1.72638e-20)
(1.22556 0.036115 -2.65254e-20)
(1.18157 0.0348189 -3.19217e-20)
(1.14062 0.0336126 -3.72869e-20)
(1.10242 0.0324871 -4.53395e-20)
(1.06669 0.0314345 -4.51704e-20)
(1.0332 0.030448 -4.80844e-20)
(1.00175 0.0295215 -5.89446e-20)
(0.972161 0.0286498 -6.34077e-20)
(0.944268 0.027828 -6.45867e-20)
(0.91793 0.0270521 -6.3168e-20)
(0.893021 0.0263183 -6.22386e-20)
(0.869428 0.0256233 -6.17323e-20)
(0.84705 0.024964 -5.69591e-20)
(0.825794 0.0243379 -6.33954e-20)
(0.805578 0.0237423 -6.03682e-20)
(0.786329 0.0231753 -5.64121e-20)
(0.767978 0.0226347 -5.66909e-20)
(0.750464 0.0221188 -5.23923e-20)
(0.73373 0.0216258 -4.60384e-20)
(0.717727 0.0211544 -3.45275e-20)
(0.702406 0.0207031 -3.65307e-20)
(0.687726 0.0202707 -4.30723e-20)
(0.673647 0.0198559 -2.90573e-20)
(0.660133 0.0194578 -2.13348e-20)
(0.64715 0.0190754 -1.72325e-20)
(0.634668 0.0187077 -2.10503e-20)
(0.622658 0.018354 -2.73566e-20)
(0.611094 0.0180134 -2.63249e-20)
(0.599952 0.0176852 -2.63073e-20)
(0.589209 0.0173687 -2.00447e-20)
(0.578844 0.0170634 -1.17006e-20)
(0.568837 0.0167687 -1.55717e-20)
(0.55917 0.0164839 -1.4233e-20)
(0.549826 0.0162087 -1.4284e-20)
(0.54079 0.0159426 -1.32462e-20)
(0.532045 0.015685 -8.71565e-21)
(0.523579 0.0154357 -2.91492e-21)
(0.515378 0.0151941 -1.22495e-20)
(0.50743 0.0149601 -1.40296e-20)
(0.499724 0.0147331 -1.17408e-20)
(0.492248 0.0145129 -1.01661e-20)
(0.484992 0.0142992 -4.72144e-21)
(0.477947 0.0140918 -1.11435e-20)
(0.471104 0.0138902 -5.03879e-21)
(0.464454 0.0136944 -3.03242e-21)
(0.457989 0.013504 -3.8464e-21)
(0.451701 0.0133189 -3.83784e-21)
(0.445584 0.0131387 -9.01008e-21)
(0.439631 0.0129634 -1.1121e-20)
(0.433834 0.0127927 -2.46502e-21)
(0.428188 0.0126265 -2.75825e-21)
(0.422687 0.0124645 -3.5301e-21)
(0.417326 0.0123067 -1.13699e-20)
(0.412099 0.0121528 -1.56154e-20)
(0.407002 0.0120027 -2.33672e-20)
(0.402029 0.0118563 -2.83279e-20)
(0.397176 0.0117135 -2.76065e-20)
(0.392438 0.011574 -1.64213e-20)
(0.387813 0.0114379 -7.97405e-21)
(1.5047 0.0739303 -1.13966e-19)
(1.43889 0.0706972 -2.63749e-20)
(1.37859 0.0677347 -1.32208e-20)
(1.32314 0.0650105 -7.80357e-21)
(1.27197 0.0624968 -6.53361e-21)
(1.22461 0.0601703 -1.87657e-20)
(1.18065 0.0580107 -2.70643e-20)
(1.13974 0.0560007 -3.50759e-20)
(1.10157 0.0541253 -2.83386e-20)
(1.06586 0.0523715 -4.35376e-20)
(1.0324 0.0507277 -4.50745e-20)
(1.00098 0.0491839 -5.73397e-20)
(0.971412 0.0477314 -6.74012e-20)
(0.94354 0.0463621 -5.60032e-20)
(0.917222 0.0450693 -6.54066e-20)
(0.892332 0.0438466 -6.10842e-20)
(0.868758 0.0426885 -6.21865e-20)
(0.846396 0.04159 -6.37353e-20)
(0.825157 0.0405466 -6.37251e-20)
(0.804957 0.0395543 -6.47729e-20)
(0.785722 0.0386094 -5.51144e-20)
(0.767385 0.0377086 -5.71963e-20)
(0.749885 0.0368489 -4.95157e-20)
(0.733164 0.0360275 -3.66788e-20)
(0.717173 0.035242 -4.07268e-20)
(0.701864 0.0344899 -3.81949e-20)
(0.687196 0.0337694 -3.32096e-20)
(0.673127 0.0330783 -1.37159e-20)
(0.659623 0.0324149 -1.76491e-20)
(0.64665 0.0317777 -1.77971e-20)
(0.634178 0.031165 -1.62738e-20)
(0.622177 0.0305755 -1.58036e-20)
(0.610623 0.0300079 -2.76942e-21)
(0.599489 0.029461 -5.04263e-21)
(0.588754 0.0289337 -6.19231e-21)
(0.578397 0.028425 -8.49728e-21)
(0.568398 0.0279338 3.61644e-22)
(0.558739 0.0274594 4.47761e-21)
(0.549402 0.0270007 -2.50691e-23)
(0.540373 0.0265572 -3.80523e-21)
(0.531635 0.026128 8.36509e-21)
(0.523175 0.0257125 1.66836e-20)
(0.514981 0.02531 1.00636e-20)
(0.507039 0.0249199 -6.50844e-21)
(0.499338 0.0245417 -1.13525e-20)
(0.491868 0.0241748 7.31783e-23)
(0.484618 0.0238187 -7.16232e-21)
(0.477578 0.0234729 -2.16765e-21)
(0.47074 0.0231371 5.84226e-21)
(0.464095 0.0228107 1.80641e-20)
(0.457635 0.0224934 1.64872e-20)
(0.451353 0.0221849 -3.34937e-22)
(0.445241 0.0218847 2.51605e-21)
(0.439291 0.0215925 8.45791e-22)
(0.433499 0.0213081 5.24047e-21)
(0.427858 0.021031 1.51483e-20)
(0.422361 0.0207611 8.60644e-21)
(0.417004 0.020498 2.06769e-21)
(0.411781 0.0202415 -5.5125e-21)
(0.406688 0.0199914 -1.47133e-20)
(0.401718 0.0197474 -3.1211e-20)
(0.396869 0.0195093 -3.50819e-20)
(0.392135 0.0192768 -4.1473e-20)
(0.387514 0.0190499 -3.20824e-20)
(1.50296 0.103459 -1.02099e-19)
(1.43723 0.0989344 9.50714e-21)
(1.377 0.0947885 1.66762e-20)
(1.32161 0.0909761 6.62384e-21)
(1.2705 0.0874583 5.22885e-21)
(1.2232 0.0842024 -1.70486e-20)
(1.17929 0.0811801 -1.69675e-20)
(1.13842 0.0783672 -1.62689e-20)
(1.10029 0.0757427 -2.00854e-20)
(1.06463 0.0732882 -4.12218e-20)
(1.03121 0.0709878 -4.3449e-20)
(0.999821 0.0688274 -5.06937e-20)
(0.970287 0.0667946 -5.13867e-20)
(0.942447 0.0648784 -5.57985e-20)
(0.91616 0.0630691 -4.99265e-20)
(0.8913 0.0613579 -5.71325e-20)
(0.867752 0.0597372 -6.23938e-20)
(0.845417 0.0581998 -4.56812e-20)
(0.824202 0.0567396 -5.041e-20)
(0.804025 0.0553509 -6.29436e-20)
(0.784813 0.0540286 -4.59767e-20)
(0.766497 0.0527679 -3.73568e-20)
(0.749017 0.0515648 -3.68035e-20)
(0.732316 0.0504153 -4.23318e-20)
(0.716343 0.0493159 -5.21948e-20)
(0.701052 0.0482635 -4.20193e-20)
(0.6864 0.047255 -2.18113e-20)
(0.672348 0.0462879 -3.59304e-20)
(0.65886 0.0453595 -1.74926e-20)
(0.645902 0.0444677 -3.51435e-20)
(0.633444 0.0436103 -1.04354e-20)
(0.621457 0.0427853 -2.49304e-21)
(0.609916 0.0419909 -8.98854e-21)
(0.598795 0.0412256 -7.95484e-22)
(0.588073 0.0404876 -6.82423e-21)
(0.577728 0.0397756 1.28486e-20)
(0.56774 0.0390882 6.05224e-21)
(0.558092 0.0384242 -1.43989e-20)
(0.548766 0.0377823 -3.18208e-21)
(0.539747 0.0371616 -6.89157e-22)
(0.531019 0.036561 -2.98109e-21)
(0.52257 0.0359794 8.04034e-21)
(0.514384 0.0354161 -2.95954e-21)
(0.506452 0.0348702 -5.04662e-22)
(0.49876 0.0343408 -3.51737e-21)
(0.491298 0.0338273 -1.00982e-20)
(0.484057 0.0333289 -1.36469e-20)
(0.477025 0.032845 1.88863e-20)
(0.470195 0.032375 8.41096e-21)
(0.463558 0.0319182 1.15473e-20)
(0.457106 0.0314742 1.29972e-20)
(0.45083 0.0310423 1.79244e-20)
(0.444725 0.0306222 5.14391e-21)
(0.438783 0.0302133 -3.19808e-22)
(0.432997 0.0298152 1.90176e-20)
(0.427362 0.0294274 1.41099e-20)
(0.421872 0.0290496 2.08716e-21)
(0.416521 0.0286814 -7.51071e-22)
(0.411304 0.0283224 8.82314e-21)
(0.406217 0.0279723 -6.48817e-21)
(0.401253 0.0276308 -4.71178e-20)
(0.396409 0.0272975 -5.51836e-20)
(0.391681 0.0269722 -8.98844e-20)
(0.387065 0.0266546 -2.09765e-19)
(1.50064 0.132948 -9.04223e-21)
(1.43501 0.127133 4.76053e-20)
(1.37487 0.121806 3.15644e-20)
(1.31957 0.116907 1.90481e-20)
(1.26854 0.112386 2.24839e-20)
(1.22131 0.108202 3.9678e-21)
(1.17747 0.104318 -1.23042e-20)
(1.13666 0.100704 -1.7323e-20)
(1.09859 0.0973309 -1.11674e-20)
(1.06299 0.0941767 -1.78368e-20)
(1.02962 0.0912206 -3.98143e-20)
(0.998277 0.0884443 -2.35485e-20)
(0.968789 0.085832 -5.73389e-20)
(0.940992 0.0833696 -6.04291e-20)
(0.914746 0.0810445 -5.24729e-20)
(0.889923 0.0788456 -5.4126e-20)
(0.866412 0.0767628 -6.22255e-20)
(0.844111 0.0747873 -5.39483e-20)
(0.822929 0.0729108 -4.52157e-20)
(0.802784 0.0711263 -5.35894e-20)
(0.783601 0.0694269 -4.49631e-20)
(0.765313 0.0678069 -5.28167e-20)
(0.74786 0.0662608 -6.10399e-20)
(0.731185 0.0647836 -4.45105e-20)
(0.715236 0.0633709 -2.30468e-20)
(0.699969 0.0620184 -2.59512e-20)
(0.68534 0.0607225 -9.48048e-21)
(0.67131 0.0594797 -2.92589e-20)
(0.657842 0.0582867 -4.26243e-20)
(0.644904 0.0571406 -3.44047e-20)
(0.632465 0.0560387 -1.80844e-20)
(0.620497 0.0549785 -4.51214e-21)
(0.608974 0.0539577 -3.39506e-22)
(0.59787 0.0529742 -1.13254e-20)
(0.587164 0.0520258 -6.68251e-21)
(0.576835 0.0511108 2.64921e-21)
(0.566863 0.0502275 -2.64321e-21)
(0.55723 0.0493742 -9.85034e-21)
(0.547919 0.0485494 5.54142e-21)
(0.538913 0.0477517 -2.40708e-20)
(0.530199 0.0469798 -4.47578e-22)
(0.521762 0.0462325 -8.46276e-22)
(0.51359 0.0455086 -2.58372e-21)
(0.505669 0.044807 -1.99574e-20)
(0.49799 0.0441267 -2.43277e-20)
(0.490539 0.0434668 -2.53699e-20)
(0.483309 0.0428263 -1.42667e-20)
(0.476288 0.0422045 1.1406e-20)
(0.469469 0.0416004 2.12744e-20)
(0.462842 0.0410135 4.42749e-20)
(0.4564 0.0404428 3.87988e-20)
(0.450134 0.0398878 3.59989e-20)
(0.444038 0.0393479 2.94329e-20)
(0.438105 0.0388224 1.85402e-20)
(0.432328 0.0383108 1.16028e-20)
(0.426702 0.0378124 -7.94869e-21)
(0.421221 0.0373269 1.20542e-20)
(0.415878 0.0368537 4.27068e-21)
(0.410669 0.0363924 7.8251e-21)
(0.405589 0.0359425 -1.0129e-20)
(0.400633 0.0355036 -3.05994e-20)
(0.395797 0.0350752 -4.73955e-21)
(0.391076 0.0346572 -2.22041e-20)
(0.386467 0.034249 -2.97987e-20)
(1.49774 0.162385 5.24209e-20)
(1.43223 0.155283 8.18843e-20)
(1.37221 0.148776 6.46118e-20)
(1.31702 0.142792 4.7046e-20)
(1.26609 0.13727 2.56304e-20)
(1.21895 0.13216 2.45417e-20)
(1.17519 0.127416 9.94627e-21)
(1.13447 0.123001 -6.45657e-22)
(1.09647 0.118882 -8.81032e-21)
(1.06093 0.115029 1.25621e-22)
(1.02763 0.111418 -3.97934e-20)
(0.996348 0.108027 -3.35164e-20)
(0.966917 0.104836 -5.29856e-20)
(0.939174 0.101829 -4.62093e-20)
(0.912978 0.0989888 -2.58228e-20)
(0.888204 0.0963029 -4.76936e-20)
(0.864738 0.0937589 -7.11155e-20)
(0.84248 0.0913459 -3.68791e-20)
(0.821339 0.0890539 -4.25853e-20)
(0.801232 0.0868742 -6.83919e-20)
(0.782087 0.0847986 -5.96615e-20)
(0.763835 0.0828198 -6.77727e-20)
(0.746415 0.0809313 -4.83133e-20)
(0.729772 0.079127 -5.08603e-20)
(0.713854 0.0774014 -3.12084e-20)
(0.698617 0.0757495 -2.64023e-20)
(0.684016 0.0741666 -2.34515e-20)
(0.670012 0.0726485 -5.76885e-20)
(0.656571 0.0711913 -5.85483e-20)
(0.643658 0.0697914 -4.21222e-20)
(0.631243 0.0684456 -2.34525e-20)
(0.619298 0.0671506 -2.75802e-20)
(0.607797 0.0659038 -3.70356e-20)
(0.596715 0.0647024 -8.41625e-21)
(0.58603 0.063544 -1.23309e-20)
(0.575721 0.0624264 -2.15037e-20)
(0.565768 0.0613475 -4.11611e-20)
(0.556153 0.0603052 -2.82886e-21)
(0.54686 0.0592977 1.07461e-20)
(0.537872 0.0583234 1.01911e-20)
(0.529175 0.0573805 3.60743e-21)
(0.520754 0.0564677 2.62255e-20)
(0.512597 0.0555835 -1.15878e-20)
(0.504692 0.0547265 8.67759e-21)
(0.497027 0.0538956 -1.5927e-20)
(0.489591 0.0530895 -2.67152e-20)
(0.482375 0.0523072 2.90388e-20)
(0.475368 0.0515477 3.18214e-20)
(0.468562 0.0508098 8.51407e-21)
(0.461948 0.0500929 2.35368e-20)
(0.455518 0.0493958 2.31501e-20)
(0.449264 0.048718 2.54179e-20)
(0.44318 0.0480584 2.63244e-20)
(0.437258 0.0474165 2.914e-20)
(0.431493 0.0467916 3.25556e-20)
(0.425878 0.0461829 -7.85494e-21)
(0.420406 0.0455899 1.10678e-20)
(0.415074 0.0450119 2.01351e-20)
(0.409875 0.0444483 2.17472e-20)
(0.404805 0.0438988 3.15345e-20)
(0.399859 0.0433626 2.00565e-20)
(0.395032 0.0428395 4.40689e-21)
(0.390321 0.0423288 -1.99159e-20)
(0.38572 0.0418302 -3.74793e-20)
(1.49426 0.19176 1.31433e-19)
(1.42891 0.183374 1.39177e-19)
(1.36903 0.175689 1.21355e-19)
(1.31396 0.168622 9.06099e-20)
(1.26315 0.162102 4.34977e-20)
(1.21612 0.156067 2.86095e-20)
(1.17246 0.150465 1.0301e-20)
(1.13183 0.145251 -5.96539e-21)
(1.09392 0.140386 9.47276e-21)
(1.05847 0.135837 2.83917e-21)
(1.02524 0.131573 -7.31954e-22)
(0.994035 0.127568 -2.10519e-20)
(0.964672 0.1238 -2.46372e-20)
(0.936993 0.120249 -1.44846e-20)
(0.910859 0.116895 -5.17393e-20)
(0.886142 0.113723 -4.01421e-20)
(0.86273 0.110719 -6.1254e-20)
(0.840524 0.107869 -7.40478e-20)
(0.819432 0.105163 -5.34528e-20)
(0.799372 0.102589 -7.86113e-20)
(0.780271 0.100137 -6.30234e-20)
(0.762061 0.0978007 -1.02478e-19)
(0.744682 0.0955706 -7.4972e-20)
(0.728077 0.0934399 -4.66401e-20)
(0.712197 0.0914021 -2.77063e-20)
(0.696995 0.0894513 -2.53668e-20)
(0.682428 0.087582 -4.21385e-21)
(0.668457 0.0857893 -2.77404e-20)
(0.655047 0.0840685 -3.12519e-20)
(0.642164 0.0824154 -2.21249e-20)
(0.629778 0.080826 -3.58866e-20)
(0.617861 0.0792968 -4.47924e-20)
(0.606386 0.0778244 -2.32194e-20)
(0.59533 0.0764056 -3.13125e-20)
(0.584669 0.0750377 2.02847e-20)
(0.574384 0.0737179 7.72501e-23)
(0.564454 0.0724437 7.70984e-21)
(0.554862 0.0712129 3.9092e-21)
(0.54559 0.0700232 -3.07451e-20)
(0.536623 0.0688725 1.98245e-20)
(0.527946 0.0677591 -1.95977e-21)
(0.519545 0.0666811 -2.37377e-20)
(0.511407 0.0656369 -8.83537e-21)
(0.50352 0.0646249 6.98272e-21)
(0.495873 0.0636437 5.06138e-21)
(0.488455 0.0626918 -3.2701e-21)
(0.481255 0.061768 2.45322e-20)
(0.474264 0.060871 2.96693e-20)
(0.467474 0.0599997 -4.37431e-21)
(0.460875 0.059153 3.24309e-20)
(0.45446 0.0583298 3.85033e-20)
(0.448221 0.0575293 5.41349e-20)
(0.442151 0.0567504 1.91808e-20)
(0.436243 0.0559924 3.8389e-20)
(0.430491 0.0552544 2.76676e-21)
(0.424889 0.0545356 7.95502e-21)
(0.41943 0.0538352 3.26932e-20)
(0.41411 0.0531526 5.37264e-20)
(0.408924 0.0524872 5.35965e-20)
(0.403865 0.0518381 8.84559e-20)
(0.398931 0.051205 8.1939e-20)
(0.394115 0.0505872 3.71406e-20)
(0.389414 0.0499841 -3.52951e-20)
(0.384825 0.0493952 -3.03269e-19)
(1.49021 0.221061 2.95686e-19)
(1.42503 0.211393 1.9707e-19)
(1.36531 0.202534 1.43575e-19)
(1.31039 0.194388 9.9808e-20)
(1.25972 0.186871 5.33871e-20)
(1.21282 0.179914 3.3803e-20)
(1.16928 0.173456 1.02328e-20)
(1.12876 0.167445 -1.08464e-20)
(1.09096 0.161837 2.43155e-20)
(1.0556 0.156592 4.49132e-21)
(1.02246 0.151677 -1.17441e-20)
(0.991339 0.14706 -3.73935e-21)
(0.962055 0.142717 -2.61559e-20)
(0.934452 0.138622 -3.27333e-20)
(0.908388 0.134756 -5.26845e-20)
(0.883738 0.131099 -4.02183e-20)
(0.86039 0.127636 -5.54976e-20)
(0.838244 0.124351 -5.33446e-20)
(0.817209 0.121231 -6.23352e-20)
(0.797204 0.118263 -8.8302e-20)
(0.778155 0.115438 -8.29475e-20)
(0.759994 0.112744 -4.80207e-20)
(0.742662 0.110173 -4.76075e-20)
(0.726102 0.107717 -6.37646e-20)
(0.710265 0.105368 -1.09643e-20)
(0.695104 0.103119 -4.04645e-20)
(0.680577 0.100964 -3.59417e-21)
(0.666644 0.0988971 -1.56937e-20)
(0.65327 0.0969133 -1.63796e-20)
(0.640422 0.0950075 -3.99252e-20)
(0.62807 0.0931753 -5.31446e-20)
(0.616185 0.0914124 -3.32583e-20)
(0.604741 0.089715 -3.85101e-20)
(0.593715 0.0880794 2.11006e-21)
(0.583083 0.0865025 1.13686e-20)
(0.572826 0.084981 -1.28732e-20)
(0.562923 0.0835121 6.42892e-21)
(0.553357 0.0820932 -1.32016e-20)
(0.54411 0.0807216 7.84423e-21)
(0.535167 0.0793952 -9.2527e-22)
(0.526514 0.0781116 -6.75925e-21)
(0.518136 0.0768689 6.11358e-21)
(0.51002 0.0756651 -7.90724e-21)
(0.502155 0.0744985 -3.50384e-20)
(0.494528 0.0733673 -3.25566e-20)
(0.48713 0.0722699 2.76863e-20)
(0.479949 0.0712049 -1.06935e-20)
(0.472978 0.0701708 2.89662e-20)
(0.466206 0.0691663 6.46826e-20)
(0.459625 0.0681902 2.81564e-20)
(0.453227 0.0672413 3.45815e-20)
(0.447005 0.0663184 4.1027e-20)
(0.440951 0.0654206 4.60626e-20)
(0.43506 0.0645467 1.87555e-20)
(0.429323 0.0636959 3.24606e-20)
(0.423736 0.0628672 5.38016e-20)
(0.418293 0.0620598 6.23269e-20)
(0.412987 0.0612729 6.19005e-20)
(0.407814 0.0605057 7.48239e-20)
(0.40277 0.0597575 9.52471e-20)
(0.397848 0.0590276 1.66387e-19)
(0.393046 0.0583153 2.22021e-19)
(0.388358 0.0576201 3.27984e-19)
(0.383781 0.0569412 4.82923e-19)
(1.48558 0.250277 3.06752e-19)
(1.42061 0.239331 2.46583e-19)
(1.36107 0.229301 1.64128e-19)
(1.30633 0.220078 1.10082e-19)
(1.25581 0.211568 6.65616e-20)
(1.20905 0.203691 3.0095e-20)
(1.16565 0.19638 -6.9377e-22)
(1.12526 0.189575 -1.25106e-20)
(1.08757 0.183225 -7.46026e-21)
(1.05232 0.177287 1.62439e-20)
(1.01929 0.171722 -9.57471e-21)
(0.98826 0.166496 -4.3374e-20)
(0.959068 0.161578 -3.44829e-20)
(0.93155 0.156942 -4.45554e-20)
(0.905567 0.152565 -6.96417e-20)
(0.880994 0.148425 -5.05664e-20)
(0.857718 0.144504 -5.92783e-20)
(0.835641 0.140785 -5.20043e-20)
(0.814671 0.137252 -6.05845e-20)
(0.794728 0.133893 -9.15785e-20)
(0.775738 0.130694 -9.63759e-20)
(0.757634 0.127644 -5.12909e-20)
(0.740356 0.124733 -6.29918e-20)
(0.723848 0.121952 -5.05874e-20)
(0.70806 0.119292 -4.17801e-20)
(0.692945 0.116746 -5.44332e-20)
(0.678463 0.114307 -1.85711e-20)
(0.664573 0.111967 -1.40282e-20)
(0.651241 0.109721 -3.9091e-20)
(0.638433 0.107563 -6.76745e-20)
(0.626119 0.105489 -4.37484e-20)
(0.614271 0.103493 -5.65424e-20)
(0.602863 0.101571 -4.33458e-20)
(0.591871 0.0997193 8.10879e-21)
(0.581273 0.0979339 -2.04856e-20)
(0.571047 0.0962113 -1.57525e-20)
(0.561175 0.0945483 -9.7573e-21)
(0.551638 0.0929418 -1.91585e-20)
(0.54242 0.091389 -4.46634e-20)
(0.533505 0.0898872 -2.56927e-20)
(0.524879 0.088434 2.79985e-20)
(0.516527 0.087027 9.12772e-21)
(0.508436 0.0856641 1.41159e-20)
(0.500595 0.0843433 1.30408e-20)
(0.492992 0.0830625 -2.91183e-20)
(0.485617 0.0818201 1.77335e-20)
(0.478459 0.0806143 2.66651e-20)
(0.471509 0.0794436 3.34684e-20)
(0.464758 0.0783064 5.44509e-20)
(0.458197 0.0772012 1.33054e-20)
(0.45182 0.0761269 3.04786e-20)
(0.445617 0.075082 3.06875e-20)
(0.439582 0.0740655 -5.29577e-21)
(0.433709 0.0730761 5.9365e-20)
(0.42799 0.0721128 4.47526e-20)
(0.42242 0.0711746 5.34765e-20)
(0.416993 0.0702605 1.12826e-19)
(0.411704 0.0693696 1.13856e-19)
(0.406548 0.068501 1.53533e-19)
(0.401519 0.0676539 2.02761e-19)
(0.396613 0.0668275 2.1139e-19)
(0.391825 0.0660211 3.49132e-19)
(0.387152 0.0652339 5.54831e-19)
(0.382589 0.0644653 9.10386e-19)
(1.48038 0.279396 4.03077e-19)
(1.41564 0.267177 2.92164e-19)
(1.35631 0.25598 1.50976e-19)
(1.30175 0.245684 1.18334e-19)
(1.25141 0.236183 7.83287e-20)
(1.20482 0.22739 6.58452e-20)
(1.16157 0.219228 2.46141e-20)
(1.12132 0.211631 -8.94776e-21)
(1.08376 0.204543 -1.31691e-20)
(1.04864 0.197914 1.62601e-21)
(1.01572 0.191701 1.89336e-20)
(0.984801 0.185867 -7.61342e-21)
(0.955711 0.180377 -1.06805e-20)
(0.928289 0.175202 -9.95876e-22)
(0.902397 0.170315 -3.50756e-20)
(0.87791 0.165694 -2.1678e-20)
(0.854716 0.161316 -2.12166e-20)
(0.832716 0.157165 -6.70718e-20)
(0.81182 0.153221 -7.08562e-20)
(0.791946 0.14947 -5.83568e-20)
(0.773023 0.145899 -9.02047e-20)
(0.754982 0.142494 -1.49487e-20)
(0.737764 0.139245 -4.08701e-20)
(0.721314 0.13614 -3.48272e-20)
(0.705581 0.133171 -5.51994e-20)
(0.69052 0.130329 -5.23226e-20)
(0.676088 0.127605 -6.48664e-20)
(0.662247 0.124993 -4.39618e-20)
(0.648961 0.122486 -5.76833e-20)
(0.636198 0.120077 -2.67204e-20)
(0.623927 0.117761 -5.74954e-20)
(0.612121 0.115533 -4.63853e-20)
(0.600753 0.113388 -2.97858e-20)
(0.589799 0.111321 -1.95811e-20)
(0.579238 0.109328 -2.85283e-20)
(0.569048 0.107405 -2.03317e-20)
(0.55921 0.105548 -6.05869e-21)
(0.549707 0.103755 -6.87051e-20)
(0.540522 0.102021 -2.64026e-20)
(0.531638 0.100345 -3.47346e-20)
(0.523041 0.0987222 -3.2859e-20)
(0.514718 0.0971516 -2.39983e-20)
(0.506656 0.0956301 4.56283e-20)
(0.498843 0.0941556 -9.56243e-21)
(0.491266 0.0927258 -3.61002e-20)
(0.483917 0.0913388 1.87191e-21)
(0.476784 0.0899927 -2.9007e-21)
(0.469858 0.0886857 1.17351e-20)
(0.463131 0.0874162 9.03058e-20)
(0.456593 0.0861825 3.0636e-20)
(0.450238 0.0849831 -1.26497e-20)
(0.444057 0.0838167 2.23512e-20)
(0.438043 0.0826818 2.56048e-20)
(0.43219 0.0815773 4.78777e-20)
(0.426492 0.0805019 7.99454e-20)
(0.420941 0.0794546 8.64082e-20)
(0.415534 0.0784341 7.19868e-20)
(0.410263 0.0774395 1.48623e-19)
(0.405125 0.0764698 2.07613e-19)
(0.400113 0.0755242 1.8215e-19)
(0.395224 0.0746016 1.53148e-19)
(0.390453 0.0737013 2.91501e-19)
(0.385796 0.0728225 2.89358e-19)
(0.381249 0.0719645 2.79195e-19)
(1.47461 0.308408 6.63986e-19)
(1.41012 0.294919 3.44975e-19)
(1.35102 0.28256 1.9005e-19)
(1.29668 0.271195 9.00581e-20)
(1.24654 0.260708 8.32856e-20)
(1.20012 0.251001 6.91828e-20)
(1.15704 0.241992 6.36298e-21)
(1.11695 0.233606 -1.45822e-20)
(1.07954 0.225782 3.98093e-20)
(1.04455 0.218465 8.03523e-21)
(1.01176 0.211607 1.91763e-20)
(0.980962 0.205166 1.85731e-20)
(0.951985 0.199106 7.44792e-21)
(0.92467 0.193394 -8.87175e-21)
(0.898879 0.188 7.46448e-22)
(0.874487 0.182898 -3.59672e-20)
(0.851384 0.178067 -7.94117e-21)
(0.82947 0.173484 -5.47596e-20)
(0.808655 0.16913 -3.88837e-20)
(0.788859 0.16499 -4.95839e-20)
(0.770009 0.161048 -4.91961e-20)
(0.752039 0.15729 -1.69864e-20)
(0.734888 0.153703 -4.25287e-20)
(0.718502 0.150276 -5.48866e-20)
(0.70283 0.146999 -3.04467e-20)
(0.687828 0.143861 -3.71087e-20)
(0.673452 0.140855 -8.27251e-20)
(0.659665 0.137971 -4.241e-20)
(0.646431 0.135204 -5.98131e-20)
(0.633718 0.132545 -4.52839e-20)
(0.621495 0.129989 -5.34217e-20)
(0.609734 0.127529 -4.24456e-20)
(0.598411 0.125161 -9.63066e-21)
(0.5875 0.122879 -2.53555e-20)
(0.57698 0.120679 -5.71864e-20)
(0.566829 0.118556 -3.2738e-20)
(0.55703 0.116507 -3.18452e-20)
(0.547564 0.114527 -6.12203e-20)
(0.538414 0.112614 -4.72274e-21)
(0.529565 0.110763 8.3515e-21)
(0.521002 0.108972 -3.69462e-20)
(0.512712 0.107239 -1.55126e-20)
(0.504681 0.105559 -3.3894e-22)
(0.496898 0.103932 -7.65322e-21)
(0.489351 0.102353 -1.16288e-20)
(0.48203 0.100822 -1.07964e-20)
(0.474925 0.0993364 3.49158e-21)
(0.468026 0.0978937 1.35663e-20)
(0.461325 0.0964923 2.81099e-20)
(0.454813 0.0951305 1.87386e-20)
(0.448482 0.0938066 6.79963e-21)
(0.442326 0.092519 5.3703e-21)
(0.436335 0.0912663 1.61998e-20)
(0.430505 0.0900471 8.85419e-20)
(0.424829 0.08886 9.69421e-20)
(0.4193 0.0877039 1.76773e-20)
(0.413914 0.0865774 4.44223e-20)
(0.408664 0.0854796 1.47932e-19)
(0.403545 0.0844092 1.64696e-19)
(0.398553 0.0833653 1.73607e-19)
(0.393683 0.0823469 2.01707e-19)
(0.388931 0.0813532 2.92247e-19)
(0.384292 0.0803831 4.35439e-19)
(0.379763 0.079436 8.66979e-19)
(1.46827 0.3373 7.73615e-19)
(1.40406 0.322548 3.66917e-19)
(1.34521 0.309031 2.0895e-19)
(1.2911 0.296601 1.27148e-19)
(1.24118 0.285132 5.05725e-20)
(1.19496 0.274516 2.55574e-20)
(1.15207 0.264662 -2.97802e-21)
(1.11215 0.255491 -1.90951e-21)
(1.07489 0.246934 1.33577e-20)
(1.04006 0.238931 -2.33015e-20)
(1.00741 0.231431 1.34244e-21)
(0.976745 0.224387 3.10116e-21)
(0.947892 0.217759 -1.8951e-20)
(0.920695 0.211511 -5.27752e-20)
(0.895015 0.205612 -6.26641e-20)
(0.870728 0.200033 -3.42256e-20)
(0.847724 0.194748 -2.9365e-20)
(0.825904 0.189736 -2.74475e-20)
(0.805178 0.184975 -4.32636e-20)
(0.785468 0.180447 -4.78754e-20)
(0.766699 0.176135 -2.99398e-20)
(0.748806 0.172025 2.17663e-20)
(0.731728 0.168102 -5.36513e-20)
(0.715413 0.164354 -4.77049e-20)
(0.699809 0.16077 -3.78069e-20)
(0.684871 0.157338 -4.58389e-20)
(0.670557 0.15405 -5.95094e-20)
(0.656829 0.150897 -4.678e-20)
(0.643652 0.14787 -3.25658e-20)
(0.630993 0.144962 -4.13525e-20)
(0.618823 0.142166 -6.92054e-20)
(0.607113 0.139476 -6.24799e-20)
(0.595838 0.136886 -5.96228e-20)
(0.584974 0.13439 -1.09465e-20)
(0.574499 0.131984 -2.56765e-20)
(0.564392 0.129662 -1.61104e-20)
(0.554635 0.127421 -1.83061e-20)
(0.54521 0.125256 -3.82678e-20)
(0.536099 0.123163 -5.6547e-20)
(0.527288 0.121139 2.32552e-21)
(0.518762 0.119181 -4.18229e-21)
(0.510507 0.117284 2.04479e-21)
(0.502511 0.115448 -1.1076e-20)
(0.494762 0.113667 -1.10203e-20)
(0.487247 0.111941 4.83812e-21)
(0.479958 0.110267 -4.68409e-20)
(0.472883 0.108642 1.70428e-20)
(0.466014 0.107064 6.92136e-21)
(0.459342 0.105531 1.08365e-20)
(0.452858 0.104042 1.2119e-20)
(0.446554 0.102594 5.5341e-21)
(0.440424 0.101186 -3.68073e-20)
(0.434459 0.0998156 2.29339e-20)
(0.428654 0.0984822 1.17627e-19)
(0.423002 0.0971839 1.24764e-20)
(0.417497 0.0959194 9.36775e-21)
(0.412134 0.0946874 1.36349e-19)
(0.406906 0.0934867 4.89042e-20)
(0.40181 0.092316 1.40906e-19)
(0.39684 0.0911743 1.16387e-19)
(0.391991 0.0900605 8.74747e-20)
(0.387259 0.0889736 1.50407e-19)
(0.38264 0.0879127 1.02758e-19)
(0.37813 0.0868768 4.79942e-20)
(1.46137 0.366063 7.5211e-19)
(1.39745 0.350053 3.41377e-19)
(1.33889 0.335383 1.74699e-19)
(1.28503 0.321893 4.78429e-20)
(1.23534 0.309445 -3.45685e-20)
(1.18934 0.297924 -3.72763e-20)
(1.14665 0.28723 -4.19841e-20)
(1.10691 0.277277 -1.53285e-20)
(1.06984 0.26799 -8.2357e-20)
(1.03517 0.259305 -9.91823e-20)
(1.00267 0.251165 -9.86348e-20)
(0.972151 0.24352 -9.50795e-20)
(0.943434 0.236327 -8.70522e-20)
(0.916365 0.229547 -5.94634e-20)
(0.890805 0.223145 -2.25849e-20)
(0.866633 0.21709 -9.50258e-20)
(0.843737 0.211355 -9.98953e-20)
(0.822019 0.205915 -1.44203e-19)
(0.801391 0.200748 -5.43555e-20)
(0.781773 0.195834 -7.94638e-21)
(0.763093 0.191154 1.93142e-20)
(0.745284 0.186694 -1.3528e-20)
(0.728287 0.182436 -1.36932e-20)
(0.712048 0.178369 -4.37428e-20)
(0.696517 0.174478 -3.06786e-20)
(0.68165 0.170754 -4.96265e-20)
(0.667403 0.167186 -5.98553e-20)
(0.65374 0.163763 -5.33059e-20)
(0.640625 0.160478 -4.33204e-20)
(0.628026 0.157322 -7.82106e-20)
(0.615912 0.154288 -5.93317e-20)
(0.604258 0.151369 -7.84854e-20)
(0.593035 0.148558 -3.71825e-20)
(0.582223 0.14585 -4.99073e-20)
(0.571797 0.143238 -2.33287e-20)
(0.561738 0.140719 1.50724e-20)
(0.552027 0.138286 1.83765e-20)
(0.542646 0.135936 -1.7155e-20)
(0.533578 0.133665 -8.37638e-20)
(0.524808 0.131468 -4.48364e-20)
(0.516322 0.129343 9.8098e-21)
(0.508106 0.127285 4.91368e-20)
(0.500148 0.125292 -4.23611e-20)
(0.492434 0.12336 -4.02049e-20)
(0.484956 0.121486 -3.78252e-21)
(0.4777 0.119669 -2.12351e-21)
(0.470659 0.117905 1.96329e-20)
(0.463822 0.116193 -2.52745e-20)
(0.457181 0.114529 -1.54614e-21)
(0.450728 0.112913 2.08031e-20)
(0.444454 0.111342 7.60843e-20)
(0.438352 0.109813 3.17948e-21)
(0.432416 0.108326 -4.8014e-20)
(0.426638 0.106879 -1.37595e-20)
(0.421013 0.10547 2.40192e-21)
(0.415534 0.104098 2.00002e-21)
(0.410195 0.102761 1.25255e-19)
(0.404993 0.101458 1.26951e-19)
(0.39992 0.100187 9.6251e-20)
(0.394973 0.0989482 7.123e-20)
(0.390147 0.0977394 4.34666e-20)
(0.385437 0.0965598 -1.04606e-20)
(0.38084 0.0954084 -2.08841e-19)
(0.376351 0.0942842 -6.53549e-19)
(1.4539 0.394684 5.9256e-19)
(1.39031 0.377423 2.69346e-19)
(1.33204 0.361606 1.33094e-19)
(1.27846 0.347061 3.62612e-20)
(1.22902 0.33364 -6.04577e-20)
(1.18327 0.321218 -3.83731e-20)
(1.14079 0.309688 1.38313e-20)
(1.10126 0.298956 -1.9691e-20)
(1.06437 0.288943 -8.56983e-20)
(1.02988 0.279579 -1.14419e-19)
(0.997545 0.270803 -8.60477e-20)
(0.967182 0.26256 -1.02479e-19)
(0.938612 0.254805 -9.30278e-20)
(0.911681 0.247494 -9.51336e-20)
(0.886252 0.240591 -7.53867e-20)
(0.862203 0.234063 -9.0971e-20)
(0.839424 0.227879 -4.69877e-20)
(0.817818 0.222014 -8.21439e-20)
(0.797296 0.216443 -4.04517e-20)
(0.777778 0.211145 -9.64096e-21)
(0.759193 0.2061 1.43357e-21)
(0.741475 0.20129 -1.6779e-20)
(0.724565 0.1967 -6.48121e-21)
(0.708409 0.192314 -7.30643e-20)
(0.692957 0.18812 -1.11328e-19)
(0.678166 0.184105 -6.05468e-20)
(0.663992 0.180257 -7.49971e-20)
(0.650399 0.176567 -6.31735e-20)
(0.637351 0.173025 -1.08923e-20)
(0.624816 0.169623 -4.77744e-20)
(0.612764 0.166351 -1.00936e-20)
(0.601169 0.163204 -3.64202e-20)
(0.590004 0.160173 -7.94008e-20)
(0.579247 0.157253 -8.62168e-21)
(0.568874 0.154437 -3.59048e-20)
(0.558867 0.15172 -3.89753e-20)
(0.549205 0.149098 -2.42055e-20)
(0.539872 0.146564 -8.38401e-20)
(0.530851 0.144115 8.35629e-21)
(0.522126 0.141747 1.72213e-20)
(0.513683 0.139455 4.47521e-20)
(0.505509 0.137236 2.53747e-20)
(0.497591 0.135087 5.4221e-20)
(0.489918 0.133004 1.18674e-20)
(0.482477 0.130984 4.46783e-20)
(0.475259 0.129025 7.68119e-21)
(0.468253 0.127123 2.7324e-22)
(0.461452 0.125277 -3.99857e-20)
(0.454845 0.123484 -1.19578e-20)
(0.448424 0.121741 1.08879e-19)
(0.442182 0.120046 1.12721e-19)
(0.436112 0.118399 2.56257e-21)
(0.430206 0.116795 -3.13987e-21)
(0.424457 0.115235 4.12241e-20)
(0.418861 0.113716 2.88219e-20)