/*--------------------------------*- C++ -*----------------------------------*\
| =========                 |                                                 |
| \\      /  F ield         | foam-extend: Open Source CFD                    |
|  \\    /   O peration     | Version:  3.0                                   |
|   \\  /    A nd           | Web:         http://www.extend-project.de       |
|    \\/     M anipulation  |                                                 |
\*---------------------------------------------------------------------------*/
FoamFile
{
    version     2.0;
    format      ascii;
    class       volScalarField;
    location    "33";
    object      p;
}
// * * * * * * * * * * * * * * * * * * * * * * * * * * * * * * * * * * * * * //

dimensions      [0 0 0 0 0 0 0];

internalField   nonuniform List<scalar> 
2688
(
-0.2356837898
-0.2163227925
-0.2046953686
-0.1915804785
-0.184174103
-0.1750164141
-0.1702991006
-0.1638097339
-0.1608812559
-0.156257805
-0.1545348395
-0.1512320251
-0.1502993467
-0.1479128473
-0.1474443136
-0.145645262
-0.1453569516
-0.1438507637
-0.1434696045
-0.1419667609
-0.1412064988
-0.1393988539
-0.1379387007
-0.1354770734
-0.2349431632
-0.2156430315
-0.2040522086
-0.1909785203
-0.1835953844
-0.1744664488
-0.1697639304
-0.1632949319
-0.1603756323
-0.1557666908
-0.15404912
-0.1507566687
-0.1498269033
-0.1474478891
-0.1469808072
-0.145187393
-0.1448999629
-0.1433984932
-0.1430185096
-0.1415203832
-0.1407624908
-0.1389605144
-0.1375049377
-0.1350510465
-0.2334613065
-0.2142829509
-0.2027652489
-0.1897740439
-0.1824375038
-0.1733661644
-0.168693332
-0.1622651512
-0.159364289
-0.1547844317
-0.1530777183
-0.149806048
-0.1488821709
-0.1465181764
-0.1460540624
-0.144271973
-0.1439863762
-0.1424943908
-0.1421168267
-0.1406281617
-0.1398750645
-0.1380844542
-0.1366380724
-0.134199654
-0.2312471335
-0.2122506285
-0.2008421466
-0.1879741223
-0.1807071356
-0.1717218054
-0.1670932647
-0.1607260281
-0.1578526544
-0.1533162143
-0.1516256662
-0.1483850083
-0.1474698734
-0.1451282854
-0.1446685533
-0.1429033531
-0.1426204432
-0.1411425963
-0.1407685895
-0.1392940342
-0.1385480585
-0.1367744307
-0.1353417554
-0.1329264628
-0.2283030973
-0.2095484761
-0.1982852656
-0.1855810925
-0.1784066514
-0.169535734
-0.1649661466
-0.158679988
-0.1558432202
-0.151364548
-0.1496955464
-0.1464961595
-0.1455926993
-0.1432809373
-0.1428270816
-0.14108437
-0.1408050841
-0.1393460661
-0.1389768399
-0.1375210675
-0.1367846011
-0.1350335623
-0.1336191345
-0.1312345893
-0.2246430245
-0.2061890404
-0.1951063758
-0.1826058454
-0.1755463967
-0.1668176706
-0.1623213168
-0.156135914
-0.1533446008
-0.1489377092
-0.1472954422
-0.144147329
-0.1432583316
-0.1409836157
-0.1405370157
-0.1388222304
-0.1385474009
-0.1371117621
-0.1367484315
-0.1353159868
-0.1345913041
-0.1328683343
-0.1314765693
-0.1291302526
-0.2202738352
-0.2021788067
-0.1913117247
-0.1790543514
-0.1721322337
-0.1635732966
-0.1591644212
-0.153099337
-0.1503623376
-0.1460411714
-0.1444308692
-0.1413439985
-0.1404723149
-0.1382418555
-0.1378039646
-0.1361225467
-0.135853085
-0.134445384
-0.1340891398
-0.1326845655
-0.1319739906
-0.1302845383
-0.1289198499
-0.1266191658
-0.2152139062
-0.1975345114
-0.1869170331
-0.1749412009
-0.1681780667
-0.1598157141
-0.155508092
-0.1495823077
-0.1469081568
-0.1426862322
-0.1411128978
-0.1380969171
-0.137245235
-0.1350659949
-0.1346381411
-0.1329953332
-0.1327320398
-0.1313566643
-0.1310085817
-0.1296362619
-0.1289419876
-0.127291339
-0.1259579864
-0.1237101513
-0.2094744963
-0.1922666188
-0.1819323222
-0.1702758948
-0.1636931507
-0.1555538286
-0.1513611105
-0.1455933735
-0.1429905622
-0.1388812435
-0.1373498911
-0.1344143554
-0.1335854094
-0.1314643005
-0.1310478786
-0.1294488967
-0.1291926463
-0.1278539656
-0.1275151869
-0.1261794769
-0.1255037319
-0.1238971103
-0.1225993244
-0.1204114334
-0.2030783526
-0.1863958769
-0.1763771042
-0.1650765738
-0.1586948044
-0.1508039872
-0.1467392679
-0.1411476228
-0.1386242636
-0.1346403994
-0.1331557835
-0.1303098629
-0.1295062065
-0.1274498464
-0.1270461173
-0.1254959436
-0.1252474948
-0.1239496777
-0.1236212223
-0.1223262882
-0.1216711551
-0.1201135851
-0.1188554136
-0.116734328
-0.1960408905
-0.1799365629
-0.1702650102
-0.1593561161
-0.1531955278
-0.1455781789
-0.1416543449
-0.1362564888
-0.1338205984
-0.1299748054
-0.1285416612
-0.1257943775
-0.1250185941
-0.1230335098
-0.1226437928
-0.1211473536
-0.1209075343
-0.1196547073
-0.1193376544
-0.1180876085
-0.1174551922
-0.1159516054
-0.1147370429
-0.1126894594
-0.1883889775
-0.1729132108
-0.1636191347
-0.1531360164
-0.1472158656
-0.1398958159
-0.1361251157
-0.1309379285
-0.1285970939
-0.12490139
-0.1235241631
-0.1208840926
-0.1201385688
-0.1182309493
-0.117856422
-0.1164183761
-0.1161878943
-0.1149839549
-0.1146792555
-0.1134779921
-0.1128702382
-0.111425334
-0.1102581655
-0.1082905037
-0.1801419492
-0.1653436941
-0.1564565107
-0.1464323363
-0.1407713772
-0.133771795
-0.1301661901
-0.1252060975
-0.1229677614
-0.1194338581
-0.1181169457
-0.1155924638
-0.1148795997
-0.1130555049
-0.1126973939
-0.1113223159
-0.1111019425
-0.109950723
-0.1096593816
-0.1085107195
-0.1079295847
-0.1065479411
-0.1054318758
-0.1035503499
-0.1713305072
-0.1572560651
-0.1488035623
-0.1392696869
-0.1338856034
-0.1272283748
-0.1237991123
-0.1190816149
-0.1169527425
-0.113591675
-0.1123391569
-0.1099381379
-0.1092601229
-0.1075252346
-0.1071846199
-0.1058767867
-0.1056671705
-0.1045722481
-0.1042951358
-0.1032026489
-0.1026499162
-0.1013358474
-0.1002743585
-0.09848486505
-0.161977615
-0.1486715268
-0.1406804733
-0.1316670785
-0.1265769382
-0.1202831472
-0.1170411144
-0.1125811618
-0.110568529
-0.1073909575
-0.1062068385
-0.1039369063
-0.103295927
-0.1016557616
-0.1013337605
-0.1000973367
-0.09989918011
-0.09886404487
-0.09860207763
-0.09756924418
-0.09704669823
-0.09580437293
-0.09480084021
-0.0931090339
-0.1521174621
-0.1396213369
-0.1321167017
-0.1236519618
-0.1188716526
-0.1129609632
-0.1099162628
-0.1057277806
-0.103837642
-0.1008534787
-0.09974142093
-0.09760964828
-0.09700766912
-0.09546733007
-0.09516491165
-0.09400373889
-0.09381762502
-0.09284549
-0.09259945126
-0.0916294803
-0.09113872267
-0.08997201488
-0.08902955635
-0.08744073576
-0.1417763088
-0.1301297211
-0.1231352899
-0.1152460235
-0.1107907135
-0.1052818621
-0.1024441718
-0.0985404465
-0.09677882736
-0.09399754793
-0.09296111401
-0.09097427809
-0.09041324493
-0.08897763574
-0.08869579438
-0.08761357405
-0.08744012639
-0.08653409304
-0.08630479408
-0.08540077748
-0.08494339136
-0.0838560074
-0.08297762715
-0.08149681687
-0.1309914592
-0.1202307942
-0.1137683999
-0.1064792433
-0.1023628228
-0.09727300223
-0.09465115232
-0.09104435759
-0.08941672239
-0.08684699096
-0.08588937845
-0.08405366068
-0.08353528732
-0.08220886844
-0.08194844882
-0.08094853924
-0.08078826746
-0.07995114581
-0.07973927471
-0.07890401934
-0.07848140999
-0.07747673694
-0.07666516404
-0.07529699763
-0.1197920783
-0.109951452
-0.1040416015
-0.09737567558
-0.09361122391
-0.08895658917
-0.08655892736
-0.08326052111
-0.08177206947
-0.0794220589
-0.07854634428
-0.07686759092
-0.0763935597
-0.07518056119
-0.07494242449
-0.07402801802
-0.07388146122
-0.07311592425
-0.07292217774
-0.07215834665
-0.07177187256
-0.07085310416
-0.07011092265
-0.06885973088
-0.1082181682
-0.09932828416
-0.09398939814
-0.08796748922
-0.08456672278
-0.08036177796
-0.07819574948
-0.07521599962
-0.07387133621
-0.07174835263
-0.07095722784
-0.06944065017
-0.06901240116
-0.06791658261
-0.06770143599
-0.06687536354
-0.0667429479
-0.06605136641
-0.06587632506
-0.06518628906
-0.06483714046
-0.06400713755
-0.06333665647
-0.06220635053
-0.09630138467
-0.08839047224
-0.08363952261
-0.07828076508
-0.0752545119
-0.07151262879
-0.0695851475
-0.06693354007
-0.06573697433
-0.06384778582
-0.06314380354
-0.06179424458
-0.06141317707
-0.06043804411
-0.06024660756
-0.05951151501
-0.05939369302
-0.05877828041
-0.05862252383
-0.05800848451
-0.05769778343
-0.05695918485
-0.05636253604
-0.0553566973
-0.08408397941
-0.0771766693
-0.07302842985
-0.06834949658
-0.0657071502
-0.0624399602
-0.06075699191
-0.05844175887
-0.0573969772
-0.0557474392
-0.05513275111
-0.05395438536
-0.05362164638
-0.0527702086
-0.05260304077
-0.05196119332
-0.05185829874
-0.05132095345
-0.05118494153
-0.05064880132
-0.05037750149
-0.04973260613
-0.0492116462
-0.04833341518
-0.07159963895
-0.0657179246
-0.06218562174
-0.05820142215
-0.05595142448
-0.05316934956
-0.05173628814
-0.04976482531
-0.04887519327
-0.0474705848
-0.04694718821
-0.04594379554
-0.04566048438
-0.04493548036
-0.04479315192
-0.04424661818
-0.04415901327
-0.04370146503
-0.04358565756
-0.04312913298
-0.0428981126
-0.04234897305
-0.04190536061
-0.04115752402
-0.05889239219
-0.05405451932
-0.0511490922
-0.04787197416
-0.0460212763
-0.04373292747
-0.04255418339
-0.04093258244
-0.04020082122
-0.03904547267
-0.03861495152
-0.03778961645
-0.03755657237
-0.03696022299
-0.03684313707
-0.03639358643
-0.03632150778
-0.03594515587
-0.03584988402
-0.03547438103
-0.03528434066
-0.03483266168
-0.03446777194
-0.0338526598
-0.04599748106
-0.04221893022
-0.03994969475
-0.03739015691
-0.03594470987
-0.03415742954
-0.03323680982
-0.03197028412
-0.03139877369
-0.0304964093
-0.03016018072
-0.0295155729
-0.02933358119
-0.02886782378
-0.02877639358
-0.02842529198
-0.02836900587
-0.02807507641
-0.02800067426
-0.02770740624
-0.02755897165
-0.02720619771
-0.0269212004
-0.02644077065
-0.03296020837
-0.03025260983
-0.02862653159
-0.02679243949
-0.02575666328
-0.02447593253
-0.02381623578
-0.02290865918
-0.02249912058
-0.02185249061
-0.02161155048
-0.02114962535
-0.02101920717
-0.02068544608
-0.02061991516
-0.02036831532
-0.02032795997
-0.02011733468
-0.02006400197
-0.01985385818
-0.01974746749
-0.01949468395
-0.01929045218
-0.01894619378
-0.0198168704
-0.01818900221
-0.01721137152
-0.01610868353
-0.01548596471
-0.01471595534
-0.01431935485
-0.01377369387
-0.01352749234
-0.01313872004
-0.01299388797
-0.01271617159
-0.01263778822
-0.01243713473
-0.01239775274
-0.01224649855
-0.01222223912
-0.01209562474
-0.01206356343
-0.01193724005
-0.01187325774
-0.01172128602
-0.01159848769
-0.0113915066
-0.006613539287
-0.006070263885
-0.005743982754
-0.005375980713
-0.005168151097
-0.004911143842
-0.004778790125
-0.004596650845
-0.004514484741
-0.004384704908
-0.004336375546
-0.004243669337
-0.004217517168
-0.004150541813
-0.004137390191
-0.004086905497
-0.004078781364
-0.004036531877
-0.004025809757
-0.003983668097
-0.003962265801
-0.003911556205
-0.003870551111
-0.003801475304
0.006612954149
0.006069668419
0.00574339978
0.005375370605
0.005167529941
0.004910584696
0.004778178291
0.00459611225
0.004513908557
0.004384199439
0.0043358134
0.004243145723
0.004216934746
0.004149960941
0.004136799176
0.004086304018
0.004078231417
0.004035938808
0.004025255843
0.003983046323
0.003961771649
0.003911030239
0.003870085432
0.003801015012
0.01981628974
0.01818841098
0.01721079257
0.01610807738
0.01548534734
0.01471539964
0.01431874637
0.01377315824
0.01352691895
0.01313821694
0.01299332803
0.01271564974
0.01263720722
0.01243655479
0.01239716184
0.01224589665
0.01222168741
0.01209502976
0.01206300618
0.01193661562
0.01187275983
0.01172075766
0.01159801968
0.01139104447
0.03295962302
0.03025201474
0.02862594935
0.02679183076
0.02575604408
0.0244753751
0.02381562665
0.02290812292
0.02249854751
0.02185198793
0.02161099198
0.02114910548
0.02101862938
0.02068487057
0.0206193301
0.02036772082
0.02032741714
0.02011674976
0.02006345628
0.01985324512
0.01974698059
0.01949416457
0.01928999144
0.01894573829
0.04599690906
0.04221834781
0.03994912458
0.0373895601
0.03594410211
0.03415688258
0.03323621091
0.03196975695
0.03139820923
0.03049591399
0.03015962915
0.02951505875
0.02933300819
0.0288672518
0.02877580983
0.02842469755
0.02836845951
0.02807448791
0.02800012143
0.02770678829
0.02755847728
0.0272056748
0.02692073685
0.02644031366
0.05889181109
0.05405392948
0.0511485157
0.04787137238
0.04602066499
0.04373237703
0.04255358302
0.04093205374
0.04020025702
0.03904497765
0.03861440213
0.03778910521
0.03755600444
0.03695965788
0.03684256245
0.03639300332
0.03632097487
0.03594458224
0.03584934788
0.03547377894
0.03528386046
0.03483214944
0.03446731539
0.03385220889
0.07159907984
0.06571735572
0.0621850653
0.05820084031
0.05595083243
0.05316881696
0.0517357053
0.04976431241
0.04887464415
0.04747010301
0.04694665139
0.04594329525
0.04565992614
0.04493492351
0.04479258255
0.04424603919
0.04415847969
0.04370089152
0.04358511743
0.04312853078
0.04289762963
0.04234846344
0.04190490858
0.04115707918
0.08408340741
0.07717609002
0.07302786458
0.0683489078
0.06570655315
0.06243942245
0.06075640669
0.05844124318
0.05739642769
0.05574695667
0.05513221605
0.05395388724
0.05362109284
0.05276965795
0.05260247972
0.05196062437
0.05185777656
0.05132039225
0.05118441434
0.05064821082
0.05037702656
0.04973210126
0.04921119418
0.04833296977
0.09630084276
0.0883899218
0.08363898515
0.0782802042
0.07525394205
0.07151211659
0.0695845876
0.06693304766
0.06573644722
0.06384732351
0.06314328801
0.06179376434
0.0614126403
0.06043750927
0.0602460594
0.05951095859
0.05939317877
0.05877772888
0.05862200312
0.05800790486
0.05769731714
0.05695869306
0.05636209903
0.05535626789
0.1082176106
0.09932772138
0.0939888503
0.08796692026
0.08456614713
0.08036125937
0.07819518646
0.075215503
0.07387080768
0.07174788784
0.07095671263
0.06944016993
0.06901186674
0.06791605076
0.06770089191
0.06687481204
0.06674243813
0.06605082015
0.06587580865
0.0651857138
0.06483667405
0.06400664498
0.0633362156
0.06220591751
0.119791558
0.1099509251
0.1040410886
0.09737514205
0.09361068317
0.08895610388
0.08655839771
0.08326005578
0.08177157138
0.07942162231
0.07854585674
0.07686713696
0.076393051
0.07518005482
0.07494190378
0.07402749028
0.07388097151
0.07311539987
0.07292168097
0.07215779388
0.07177142547
0.07085263208
0.07011050136
0.06885931747
0.1309909219
0.1202302546
0.1137678765
0.1064787019
0.1023622766
0.09727251033
0.09465061959
0.09104388716
0.08941622209
0.08684655011
0.08588888959
0.08405320422
0.08353477825
0.08220836158
0.08194792768
0.08094801162
0.08078777617
0.07995062194
0.07973877767
0.07890346983
0.07848096396
0.0774762692
0.07666474855
0.07529659098
0.1417758143
0.1301292231
0.1231348073
0.115245524
0.1107902091
0.1052814106
0.1024436801
0.09854001518
0.09677836553
0.09399714344
0.09296066123
0.09097385655
0.09041277075
0.08897716394
0.08869530685
0.0876130804
0.08743966556
0.08653360023
0.08630432478
0.08540025569
0.0849429659
0.083855558
0.08297722385
0.08149642171
0.1521169516
0.1396208277
0.1321162105
0.1236514564
0.1188711451
0.1129605065
0.1099157696
0.1057273446
0.1038371783
0.1008530692
0.09974096619
0.0976092228
0.09700719334
0.09546685619
0.09516442219
0.09400324424
0.0938171621
0.0928449991
0.09259898586
0.09162896927
0.09113831025
0.08997158427
0.08902917749
0.08744036584
0.1619771504
0.1486710631
0.1406800271
0.1316666199
0.1265764775
0.1202827366
0.1170406682
0.1125807714
0.1105681106
0.1073905913
0.1062064269
0.1039365229
0.1032954933
0.1016553298
0.1013333114
0.100096882
0.09989875221
0.0988635881
0.09860163981
0.09756875875
0.09704629895
0.09580395211
0.09480046085
0.09310866264
0.17133003
0.1572555938
0.1488031116
0.1392692265
0.1338851439
0.1272279625
0.1237986683
0.1190812223
0.1169523246
0.1135913048
0.1123387446
0.1099377508
0.1092596886
0.1075248014
0.1071841704
0.1058763328
0.1056667438
0.1045717972
0.1042947085
0.1032021813
0.102649539
0.1013354538
0.1002740119
0.09848452639
0.1801415183
0.1653432695
0.1564561063
0.1464319249
0.1407709671
0.1337714315
0.1301657965
0.1252057541
0.1229673926
0.1194335354
0.1181165807
0.1155921228
0.114879211
0.113055117
0.1126969869
0.1113219037
0.1111015506
0.1099503059
0.1096589791
0.1085102757
0.1079292166
0.1065475546
0.1054315262
0.1035500075
0.1883885402
0.1729127851
0.1636187324
0.1531356098
0.1472154636
0.1398954566
0.1361247304
0.1309375876
0.1285967305
0.1249010665
0.1235238007
0.1208837501
0.120138182
0.1182305617
0.1178560172
0.1164179665
0.1161875063
0.1149835454
0.1146788655
0.1134775666
0.1128698907
0.1114249714
0.1102578425
0.1082901868
0.1960404962
0.1799361815
0.1702646523
0.159355757
0.153195174
0.1455778675
0.1416540091
0.1362561967
0.1338202836
0.129974529
0.1285413456
0.1257940806
0.1250182519
0.1230331665
0.1226434284
0.1211469839
0.1209071785
0.1196543307
0.119337289
0.1180872089
0.1174548574
0.1159512557
0.1147367249
0.1126891469
0.2030779613
0.1863955036
0.1763767578
0.1650762285
0.1586944676
0.150803688
0.1467389485
0.14114734
0.1386239608
0.1346401276
0.1331554758
0.1303095684
0.1295058703
0.1274495061
0.1270457582
0.1254955785
0.1252471452
0.1239493104
0.1236208708
0.1223259072
0.1216708396
0.1201132569
0.1188551182
0.1167340366
0.2094741405
0.1922662833
0.1819320143
0.1702755916
0.1636928567
0.1555535719
0.1513608351
0.1455931338
0.1429903023
0.1388810132
0.1373496244
0.1344141009
0.133585112
0.1314639988
0.131047554
0.1294485667
0.1291923245
0.1278536287
0.1275148586
0.1261791219
0.12550343
0.1238967968
0.1225990366
0.1204111487
0.2152135661
0.197534196
0.1869167484
0.1749409225
0.1681778008
0.1598154795
0.1555078428
0.1495820859
0.1469079175
0.1426860137
0.1411126462
0.1380966706
0.1372449494
0.1350657011
0.1346378272
0.1329950127
0.1327317305
0.1313563427
0.131008274
0.1296359305
0.1289417092
0.1272910505
0.1259577241
0.1237098903
0.2202735192
0.2021785181
0.191311469
0.1790541057
0.172132001
0.1635730945
0.1591642059
0.1530991481
0.1503621307
0.1460409841
0.1444306483
0.1413437823
0.1404720584
0.1382415917
0.1378036773
0.1361222552
0.1358527988
0.1344450894
0.1340888511
0.1326842548
0.1319737193
0.1302842585
0.1289195888
0.126618905
0.2246427407
0.2061887868
0.1951061575
0.1826056376
0.1755462051
0.1668175024
0.1623211394
0.1561357537
0.1533444249
0.1489375432
0.1472952459
0.1441471295
0.1432580961
0.1409833687
0.1405367494
0.1388219593
0.1385471392
0.1371114945
0.136748174
0.1353157084
0.1345910639
0.132868087
0.1314763403
0.1291300219
0.2283028229
0.2095482337
0.1982850644
0.1855809045
0.1784064799
0.1695355854
0.1649659896
0.1586798475
0.1558430639
0.1513644011
0.1496953694
0.1464959802
0.1455924841
0.1432807133
0.1428268367
0.1410841245
0.1408048425
0.139345822
0.1389765955
0.1375208031
0.1367843595
0.1350333168
0.133618899
0.1312343518
0.2312469107
0.2122504404
0.200841999
0.1879739857
0.1807070183
0.1717217025
0.1670931573
0.1607259271
0.1578525405
0.1533160996
0.1516255252
0.1483848572
0.1474696914
0.1451280907
0.1446683425
0.142903141
0.1426202391
0.1411423912
0.1407683879
0.139293814
0.1385478591
0.1367742312
0.1353415662
0.1329262693
0.2334610764
0.2142827509
0.2027651033
0.1897739097
0.1824373883
0.1733660629
0.1686932256
0.1622650513
0.1593641762
0.1547843192
0.1530775809
0.149805903
0.1488819968
0.1465179939
0.1460538631
0.1442717764
0.1439861814
0.1424941978
0.1421166266
0.1406279455
0.1398748552
0.1380842511
0.1366378726
0.134199449
0.2349430219
0.2156429268
0.204052141
0.1909784566
0.1835953404
0.1744664065
0.1697638856
0.1632948822
0.160375572
0.1557666201
0.1540490283
0.1507565617
0.1498267723
0.147447745
0.1469806496
0.1451872347
0.1448998086
0.1433983421
0.1430183592
0.1415202203
0.1407623358
0.138960361
0.1375047941
0.1350508924
0.235683415
0.2163225315
0.204695247
0.191580392
0.1841740352
0.1750163567
0.1702990419
0.1638096738
0.1608811875
0.1562577309
0.1545347496
0.1512319263
0.150299229
0.1479127228
0.1474441747
0.1456451245
0.1453568082
0.1438506242
0.1434694569
0.1419666081
0.1412063421
0.1393986946
0.1379385447
0.1354769094
0.2356845954
0.2163235845
0.2046962144
0.1915812674
0.184174849
0.1750170984
0.1702997383
0.1638103129
0.160881791
0.156258288
0.1545352784
0.1512324177
0.1502996972
0.1479131608
0.1474445919
0.1456455169
0.1453571811
0.1438509774
0.1434697934
0.1419669293
0.1412066459
0.1393989849
0.1379388206
0.1354771732
0.2349418893
0.2156419235
0.2040512226
0.1909776339
0.1835945813
0.1744657132
0.1697632442
0.1632942903
0.1603750206
0.1557661073
0.1540485506
0.1507561171
0.149826358
0.1474473604
0.1469802874
0.145186898
0.1448994863
0.1433980434
0.1430180736
0.1415199567
0.140762076
0.1389601174
0.1375045585
0.1350506681
0.2334623043
0.2142838532
0.2027661194
0.1897748375
0.1824382566
0.1733668528
0.1686939768
0.1622657374
0.1593648314
0.1547849203
0.1530781607
0.149806441
0.1488825188
0.1465184851
0.1460543353
0.1442722243
0.1439866046
0.1424946052
0.1421170136
0.1406283235
0.1398752021
0.1380845872
0.1366381878
0.1341997514
0.2312458256
0.2122494863
0.2008411293
0.1879732153
0.1807063137
0.1717210572
0.1670925708
0.1607253822
0.1578520409
0.1533156308
0.1516250982
0.148384459
0.1474693304
0.145127759
0.144668035
0.1429028595
0.142619967
0.1411421468
0.1407681531
0.139293608
0.1385476436
0.1367740348
0.1353413715
0.1329260851
0.2283040976
0.2095493845
0.1982861284
0.1855818838
0.1784074017
0.1695364225
0.1649667944
0.1586805796
0.1558437699
0.1513650454
0.1496959991
0.1464965639
0.1455930588
0.1432812568
0.1428273628
0.1410846268
0.140805315
0.1393462824
0.1389770315
0.1375212364
0.1367847477
0.1350336969
0.1336192516
0.1312346908
0.224641702
0.206187881
0.1951053355
0.1826049185
0.1755455539
0.1668169044
0.1623206066
0.1561352548
0.1533439761
0.1489371177
0.1472948688
0.144146777
0.1432577875
0.140983089
0.1405364953
0.1388217321
0.1385469165
0.1371113039
0.1367479896
0.1353155599
0.1345908929
0.1328679382
0.1314761874
0.1291298787
0.2202748392
0.202179716
0.1913125795
0.179055135
0.1721329747
0.1635739773
0.1591650627
0.1530999248
0.1503628857
0.1460416702
0.1444313262
0.1413444102
0.1404726839
0.1382421858
0.1378042554
0.1361228101
0.1358533185
0.1344456008
0.1340893338
0.1326847412
0.1319741467
0.1302846803
0.1289199763
0.1266192784
0.2152125725
0.1975333368
0.1869159725
0.1749402531
0.1681772013
0.1598149271
0.1555073621
0.1495816318
0.146907518
0.1426856302
0.1411123175
0.1380963624
0.1372446916
0.1350654719
0.134637625
0.1329948384
0.1327315557
0.1313562046
0.1310081387
0.1296358382
0.1289415819
0.1272909489
0.1259576126
0.1237097879
0.2094755041
0.1922675262
0.1819331692
0.1702766687
0.16369388
0.1555544984
0.1513617417
0.1455939529
0.1429911042
0.138881739
0.1373503483
0.1344147708
0.1335857858
0.131464641
0.1310481814
0.1294491718
0.1291928893
0.1278541892
0.1275153862
0.1261796595
0.1255038953
0.1238972593
0.1225994583
0.1204115557
0.2030770105
0.1863946888
0.176376026
0.1650756064
0.1586939174
0.1508031794
0.1467385175
0.1411469286
0.1386236085
0.1346397843
0.1331551935
0.1303093026
0.1295056611
0.1274493253
0.1270456056
0.1254954547
0.1252470158
0.123949222
0.1236207816
0.1223258679
0.1216707527
0.120113199
0.1188550447
0.1167339718
0.1960419008
0.1799374671
0.1702658493
0.1593568793
0.1531962442
0.1455788353
0.1416549625
0.1362570559
0.1338211296
0.1299752922
0.1285421126
0.1257947901
0.1250189712
0.1230338542
0.1226441024
0.1211476369
0.1209077861
0.1196549385
0.1193378602
0.1180877971
0.1174553611
0.1159517599
0.1147371827
0.1126895894
0.1883876295
0.172912012
0.1636180419
0.153135032
0.1472149597
0.1398949889
0.136124346
0.1309372164
0.1285964224
0.1249007611
0.1235235619
0.1208835242
0.1201380184
0.1182304261
0.1178559107
0.1164178896
0.1161874187
0.1149835025
0.1146788175
0.1134775747
0.1128698386
0.1114249511
0.1102578004
0.108290153
0.1801429612
0.1653445947
0.1564573424
0.1464330891
0.1407720809
0.1337724377
0.1301667935
0.1252066507
0.1229682796
0.1194343335
0.1181173878
0.1155928692
0.1148799726
0.1130558472
0.1126977044
0.1113226019
0.1111021991
0.1099509594
0.1096595931
0.108510914
0.1079297595
0.106548102
0.1054320225
0.1035504882
0.1713291562
0.157254859
0.1488024589
0.1392686896
0.1338846825
0.1272275324
0.1237983268
0.119080888
0.1169520572
0.1135910342
0.1123385458
0.1099375616
0.1092595666
0.1075247072
0.1071841057
0.1058762982
0.1056666934
0.1045717946
0.1042946962
0.1032022303
0.1026495154
0.1013354643
0.1002739943
0.09848451677
0.1619786282
0.1486724245
0.1406812988
0.1316678225
0.1265776311
0.1202837779
0.1170417051
0.1125817022
0.1105690351
0.1073914214
0.1062072708
0.1039373033
0.1032962938
0.1016560995
0.1013340693
0.1000976224
0.09989943903
0.09886428488
0.09860229453
0.09756944474
0.09704688018
0.09580454153
0.09480099498
0.09310918084
0.1521161109
0.1396201271
0.1321155918
0.1236509561
0.1188707218
0.1129601103
0.1099154665
0.1057270435
0.1038369474
0.1008528297
0.09974080295
0.09760906622
0.09700710837
0.09546679875
0.09516439447
0.09400324715
0.09381714406
0.09284503181
0.09259900445
0.09162905388
0.09113831082
0.0899716212
0.08902918046
0.08744037658
0.1417773234
0.130130617
0.1231361111
0.115246761
0.1107913983
0.1052824835
0.1024447527
0.09854097672
0.09677932366
0.09399800249
0.09296153822
0.09097466776
0.09041360622
0.08897796918
0.08869610116
0.08761385889
0.08744038694
0.08653433586
0.08630501586
0.08540098399
0.08494358063
0.08385618381
0.08297779034
0.08149697182
0.13099011
0.120229584
0.1137672875
0.1064782335
0.1023618866
0.09727214364
0.09465035007
0.09104361494
0.08941602279
0.08684633774
0.08588875724
0.08405307608
0.08353472529
0.08220833613
0.08194793186
0.08094804724
0.08078778622
0.07995068583
0.07973882354
0.07890358665
0.07848098717
0.07747633133
0.07666477219
0.07529662227
0.1197930944
0.1099523473
0.1040424202
0.09737640894
0.09361190331
0.08895720426
0.08655950138
0.08326104423
0.08177255891
0.07942250675
0.07854676266
0.07686797518
0.07639391702
0.07518089116
0.07494272962
0.0740283017
0.07388172237
0.07311616833
0.07292240214
0.07215855674
0.07177206634
0.07085328577
0.07011109148
0.06885989072
0.1082168229
0.0993270759
0.09398828618
0.08796647873
0.08456578502
0.08036091743
0.07819494501
0.07521525499
0.07387063484
0.07174769817
0.07095660604
0.06944006565
0.06901184051
0.06791605234
0.06770092289
0.06687487562
0.06674247224
0.06605091142
0.06587587889
0.06518586001
0.0648367193
0.06400673202
0.06333626118
0.06220597066
0.0963024023
0.0883913678
0.08364034025
0.07828149626
0.0752551882
0.07151324014
0.06958571737
0.06693405882
0.06573745948
0.06384822945
0.06314421825
0.06179462538
0.06141353188
0.06043837163
0.06024691132
0.05951179714
0.05939395347
0.05877852367
0.0586227478
0.05800869447
0.05769797723
0.05695936689
0.05636270528
0.05535685684
0.08408263869
0.07717546441
0.07302732016
0.06834848758
0.06570621321
0.06243910017
0.06075618752
0.0584410144
0.05739627581
0.05574678504
0.05513212985
0.05395380201
0.05362108784
0.0527696813
0.0526025322
0.05196071082
0.05185783041
0.05132050642
0.05118450527
0.05064838218
0.05037709152
0.0497322106
0.04921126029
0.04833304336
0.07160065806
0.06571882092
0.06218643925
0.05820215251
0.0559520993
0.05316995904
0.05173685581
0.04976534173
0.04887567607
0.04747102618
0.04694760093
0.04594417446
0.04566083786
0.04493580638
0.04479345478
0.04424689884
0.04415927267
0.04370170647
0.0435858799
0.04312934066
0.04289830417
0.0423491524
0.04190552698
0.04115768
0.05889105603
0.05405331823
0.05114798552
0.04787096766
0.04602034117
0.04373206906
0.04255338006
0.04093183897
0.04020012036
0.03904481919
0.03861433076
0.03778903402
0.03755601499
0.03695969748
0.03684263086
0.03639310705
0.0363210436
0.03594471387
0.03584945466
0.03547396936
0.03528394062
0.03483227551
0.03446739718
0.03385229794
0.0459985014
0.04221982743
0.03995051259
0.03739088722
0.03594538419
0.03415803831
0.03323737651
0.03197079956
0.03139925539
0.03049684973
0.03016059257
0.0295159511
0.0293339342
0.02886814921
0.02877669621
0.02842557186
0.02836926499
0.0280753166
0.02800089599
0.02770761208
0.02755916198
0.0272063746
0.02692136446
0.02644092353
0.03295887601
0.03025141208
0.02862542772
0.02679143548
0.0257557301
0.02447507589
0.02381543365
0.02290791679
0.02249842021
0.02185183766
0.02161092978
0.02114904318
0.02101864973
0.02068492075
0.02061940886
0.02036783611
0.02032749597
0.02011689329
0.02006357412
0.01985344837
0.01974707134
0.01949430159
0.01929008375
0.01894583747
0.01981789157
0.01818990012
0.01721218974
0.01610941406
0.01548663895
0.014716564
0.01431992118
0.01377420908
0.01352797364
0.01313916031
0.01299429957
0.01271654977
0.0126381412
0.01243746021
0.01239805558
0.0122467784
0.01222249869
0.01209586469
0.01206378582
0.01193744538
0.01187344854
0.01172146201
0.01159865137
0.01139165838
0.00661220942
0.006069068426
0.005742880862
0.005374978534
0.005167219355
0.004910288548
0.004777988855
0.004595909289
0.004513784692
0.004384052315
0.004335754745
0.004243087176
0.004216959277
0.004150016098
0.004136883035
0.004086425403
0.004078316199
0.004036089296
0.004025381087
0.003983257396
0.003961870016
0.003911174179
0.003870184926
0.003801120878
-0.006611932634
-0.006068770132
-0.005742581327
-0.005374639828
-0.005166855659
-0.004909975892
-0.004777612023
-0.004595596892
-0.004513427325
-0.004383758927
-0.004335401822
-0.004242767215
-0.004216581728
-0.004149635116
-0.004136496173
-0.00408602386
-0.004077971398
-0.00403569864
-0.004025032615
-0.003982840863
-0.003961579892
-0.003910854187
-0.003869921072
-0.003800862895
-0.01981761866
-0.0181896055
-0.01721189364
-0.01610907869
-0.01548627844
-0.01471625421
-0.01431954722
-0.01377389925
-0.01352761877
-0.01313886914
-0.01299394875
-0.01271623162
-0.0126377651
-0.01243708031
-0.01239766897
-0.01224637667
-0.01222215243
-0.0120954724
-0.01206343445
-0.01193702638
-0.01187315498
-0.01172113945
-0.011598385
-0.01139139808
-0.03295860157
-0.0302511164
-0.02862513082
-0.02679109974
-0.02575536966
-0.02447476595
-0.02381506023
-0.02290760711
-0.0224980661
-0.02185154686
-0.02161058025
-0.02114872637
-0.02101827632
-0.02068454419
-0.0206190271
-0.0203674402
-0.020327157
-0.02011650927
-0.02006323265
-0.01985303939
-0.01974678818
-0.01949398806
-0.01928982616
-0.01894558511
-0.04599823856
-0.0422195427
-0.03995022593
-0.03739056144
-0.03594503331
-0.03415773698
-0.0332370117
-0.0319704976
-0.03139890883
-0.03049656567
-0.03016024949
-0.02951563998
-0.0293335655
-0.02886777647
-0.0287763159
-0.0284251764
-0.02836892283
-0.0280749293
-0.02800054781
-0.02770719803
-0.02755887134
-0.0272060563
-0.02692110273
-0.0264406676
-0.05889078995
-0.05405303119
-0.05114769701
-0.04787064085
-0.04601999008