/*--------------------------------*- C++ -*----------------------------------*\
| =========                 |                                                 |
| \\      /  F ield         | foam-extend: Open Source CFD                    |
|  \\    /   O peration     | Version:  3.0                                   |
|   \\  /    A nd           | Web:         http://www.extend-project.de       |
|    \\/     M anipulation  |                                                 |
\*---------------------------------------------------------------------------*/
FoamFile
{
    version     2.0;
    format      ascii;
    class       volScalarField;
    location    "19";
    object      p;
}
// * * * * * * * * * * * * * * * * * * * * * * * * * * * * * * * * * * * * * //

dimensions      [0 0 0 0 0 0 0];

internalField   nonuniform List<scalar> 
168
(
-0.253278
-0.193314
-0.197369
-0.177474
-0.187601
-0.178118
-0.240553
-0.1836
-0.187451
-0.168556
-0.178174
-0.169164
-0.215795
-0.164696
-0.168148
-0.151192
-0.159816
-0.151727
-0.180199
-0.137527
-0.140412
-0.126245
-0.133448
-0.126689
-0.13558
-0.103468
-0.105635
-0.0949715
-0.100384
-0.0952891
-0.0841574
-0.0642202
-0.0655696
-0.0589411
-0.0623047
-0.0591373
-0.0285194
-0.0217551
-0.0222091
-0.0199558
-0.0210861
-0.0199953
0.0285526
0.0218018
0.0222531
0.0200242
0.0211636
0.0201059
0.0841872
0.0642594
0.0656058
0.0589942
0.0623624
0.0592287
0.135613
0.103508
0.105672
0.0950187
0.100441
0.095361
0.180224
0.137548
0.140427
0.126255
0.133448
0.126701
0.215822
0.164719
0.16817
0.151199
0.159831
0.151736
0.240572
0.183607
0.187452
0.168537
0.178145
0.169121
0.253292
0.193314
0.197363
0.17745
0.187564
0.178068
0.253264
0.193309
0.197362
0.177471
0.187603
0.17811
0.240588
0.183631
0.187478
0.168585
0.178195
0.169197
0.215793
0.164722
0.168174
0.151249
0.15988
0.151804
0.180241
0.13758
0.140466
0.126326
0.133537
0.126804
0.135587
0.103501
0.105669
0.0950427
0.100458
0.0953837
0.0842004
0.0642722
0.0656214
0.0590158
0.0623863
0.0592336
0.0285221
0.0217735
0.0222285
0.0199927
0.0211262
0.0200481
-0.0285202
-0.0217735
-0.0222316
-0.020002
-0.0211475
-0.0200966
-0.0841972
-0.0642702
-0.0656194
-0.0590203
-0.0623944
-0.0592618
-0.135592
-0.103504
-0.105679
-0.0950508
-0.100482
-0.0954281
-0.180243
-0.137581
-0.140468
-0.126331
-0.133545
-0.126816
-0.215802
-0.164724
-0.168183
-0.151253
-0.15989
-0.151827
-0.24059
-0.183635
-0.187486
-0.168604
-0.178225
-0.169227
-0.253264
-0.193308
-0.197363
-0.177482
-0.187608
-0.178132
)
;

boundaryField
{
    out
    {
        type            implicitExtrapolation;
    }
    in
    {
        type            implicitExtrapolation;
    }
    frontAndBack
    {
        type            empty;
    }
}


// ************************************************************************* //
