/*--------------------------------*- C++ -*----------------------------------*\
| =========                 |                                                 |
| \\      /  F ield         | foam-extend: Open Source CFD                    |
|  \\    /   O peration     | Version:  3.0                                   |
|   \\  /    A nd           | Web:         http://www.extend-project.de       |
|    \\/     M anipulation  |                                                 |
\*---------------------------------------------------------------------------*/
FoamFile
{
    version     2.0;
    format      ascii;
    class       volVectorField;
    location    "5";
    object      u;
}
// * * * * * * * * * * * * * * * * * * * * * * * * * * * * * * * * * * * * * //

dimensions      [0 0 0 0 0 0 0];

internalField   nonuniform List<vector> 
2688
(
(0.1236393123 -0.05214834027 1.544699466e-18)
(0.2949677617 -0.0426684013 -3.430061063e-18)
(0.432645861 -0.03538041087 -1.267978488e-18)
(0.5347577341 -0.02959927819 2.18188137e-18)
(0.6212158234 -0.02501771897 -5.168743388e-19)
(0.6857978173 -0.02129156131 2.420975818e-20)
(0.7432424608 -0.0182487778 -1.343742003e-18)
(0.7859224841 -0.01572413901 -3.679317784e-18)
(0.8257197702 -0.01359989843 -2.713067604e-18)
(0.8548195787 -0.01180959362 -1.147667529e-18)
(0.8831988599 -0.0102621212 -8.841771449e-19)
(0.9034287398 -0.008937692977 -7.969062058e-19)
(0.9240165067 -0.007762079363 -3.749250264e-19)
(0.9381360415 -0.006739903318 -5.537532963e-18)
(0.9531671502 -0.005808636954 1.856361595e-18)
(0.9628028626 -0.004988443196 3.466607266e-18)
(0.9737418706 -0.004217912034 2.000489808e-18)
(0.9798439909 -0.003534476292 1.069661525e-18)
(0.9877032772 -0.002861199882 4.016416467e-18)
(0.9908509897 -0.002264956678 2.658638113e-18)
(0.9963399095 -0.001640629387 -1.796802131e-19)
(0.9969413386 -0.001102251821 -1.31627643e-18)
(1.000510669 -0.0004973089989 -3.889338834e-20)
(0.9989036735 -7.140411911e-05 -1.935054732e-18)
(0.1353154232 -0.1557670489 3.742431322e-18)
(0.3045209493 -0.1274570356 -9.17313691e-20)
(0.4405626583 -0.1056784059 -8.735513024e-18)
(0.5413844532 -0.08841305376 -1.670579976e-18)
(0.6268174978 -0.07472194781 -2.446992598e-18)
(0.6905680335 -0.06359546273 9.600579059e-19)
(0.7473312673 -0.05450340308 -1.898994673e-18)
(0.7894448643 -0.04696288116 -7.321413674e-19)
(0.8287650614 -0.04061705278 4.172386131e-18)
(0.8574636976 -0.03526976457 5.101304805e-18)
(0.8854961289 -0.03064731401 -1.844756054e-18)
(0.9054295203 -0.02669215219 -3.743284851e-18)
(0.9257538449 -0.0231826726 3.276790202e-19)
(0.9396444263 -0.02013105382 -2.534478973e-18)
(0.9544666727 -0.01735050084 -2.33846116e-18)
(0.9639183853 -0.01489803474 -6.440581249e-21)
(0.9746844949 -0.01259224459 -4.031154372e-18)
(0.9806339414 -0.01054559245 -4.362204669e-18)
(0.9883435051 -0.008534877399 6.753468703e-18)
(0.9913592602 -0.006759297779 -1.251636805e-17)
(0.9967078229 -0.0049011257 6.381495994e-18)
(0.9971865874 -0.003287740946 7.389370938e-19)
(1.000620138 -0.00147706219 5.333331063e-18)
(0.9989194739 -0.0002054546211 5.15640274e-18)
(0.158521502 -0.2574254594 6.584419813e-18)
(0.3235038448 -0.2106363443 -1.560838804e-18)
(0.4562996186 -0.174648661 -4.568508691e-18)
(0.5545532695 -0.1461178885 -8.036122999e-19)
(0.6379482671 -0.1234905803 -2.592202207e-18)
(0.7000446703 -0.1051019237 4.829384572e-18)
(0.75545261 -0.09007119929 -4.815136832e-18)
(0.796442136 -0.07760972708 5.918306818e-18)
(0.8348163909 -0.06712282501 -5.240972715e-18)
(0.8627186731 -0.05828663723 8.507901763e-18)
(0.8900625773 -0.05064701114 5.517471928e-18)
(0.9094067015 -0.04411036815 3.470972516e-18)
(0.9292078066 -0.03831056546 4.677950016e-18)
(0.9426431429 -0.03326799027 -6.357362279e-18)
(0.9570507153 -0.02867380881 4.509454158e-18)
(0.9661368486 -0.02462137955 -1.031159581e-17)
(0.9765601465 -0.02081060651 2.106943186e-17)
(0.982205682 -0.0174265825 -1.722418669e-17)
(0.9896168158 -0.01410149322 -1.341331627e-17)
(0.9923678903 -0.01116534987 1.297511804e-17)
(0.99743801 -0.008095641488 3.495813147e-18)
(0.9976754136 -0.005430350829 -1.978957091e-17)
(1.000839786 -0.002440053649 -7.712273991e-18)
(0.998950246 -0.0003366361346 1.172307601e-17)
(0.1929613367 -0.3558484746 2.924872295e-19)
(0.3516829224 -0.2911696904 -5.003021939e-18)
(0.4796650729 -0.2414233602 -5.315956755e-18)
(0.5741031757 -0.2019860762 5.089460986e-19)
(0.6544714272 -0.1707060804 -7.186730023e-18)
(0.7141076877 -0.1452867973 4.293268465e-18)
(0.7675044252 -0.1245069323 -6.386926829e-18)
(0.8068267116 -0.1072804929 -1.263449014e-18)
(0.8437977028 -0.09278431265 -3.200117237e-18)
(0.8705177791 -0.08057011713 -5.318991216e-18)
(0.8968392595 -0.070009689 -1.574685236e-17)
(0.9153087692 -0.06097375769 -5.505010176e-18)
(0.9343335656 -0.05295662744 1.190319289e-17)
(0.947094066 -0.04598618844 2.017982109e-18)
(0.960886575 -0.03963596722 2.395950123e-18)
(0.9694303083 -0.03403430551 -8.801240994e-18)
(0.9793435199 -0.02876690358 -1.25276291e-17)
(0.9845364995 -0.02408872683 5.73570582e-18)
(0.9915029826 -0.01949236718 -3.328453485e-18)
(0.993861828 -0.01543273477 -1.936019945e-17)
(0.998521089 -0.01118984838 1.041574031e-17)
(0.9984020033 -0.007505443302 1.903353466e-17)
(1.001166349 -0.003371973524 -1.94259979e-17)
(0.9989947774 -0.0004637685798 2.268140328e-17)
(0.2382039677 -0.4497944536 -4.278036633e-19)
(0.3887008156 -0.3680388323 5.976975463e-18)
(0.5103594769 -0.3051621956 1.092502788e-17)
(0.5997849203 -0.2553142108 1.048895472e-18)
(0.6761761161 -0.2157754394 -1.162117005e-18)
(0.732581111 -0.1836447579 1.400486694e-18)
(0.7833351654 -0.1573767056 -5.212689962e-18)
(0.8204676605 -0.1356021434 -6.151242971e-18)
(0.8555955893 -0.1172788207 -7.932151672e-19)
(0.8807630765 -0.1018403188 1.44513929e-17)
(0.90574179 -0.08849163231 -6.367659905e-19)
(0.9230624161 -0.07706999873 6.407843004e-18)
(0.9410676806 -0.06693616135 -4.648932127e-18)
(0.9529417176 -0.05812564608 9.924604864e-18)
(0.9659267655 -0.05009932932 -2.818820418e-17)
(0.9737581575 -0.04301923823 -8.727381493e-18)
(0.983001914 -0.03636149846 2.182485789e-17)
(0.9876000453 -0.03044794962 2.18162423e-18)
(0.9939823616 -0.02463741125 1.170610862e-17)
(0.9958244862 -0.01950465892 1.014737583e-17)
(0.9999441689 -0.01414131852 -1.170662282e-18)
(0.999356029 -0.009485021671 6.287254388e-18)
(1.001595209 -0.00426089898 -3.07639027e-17)
(0.9990532656 -0.0005845354874 3.457338534e-17)
(0.2936806179 -0.538085412 -1.623783832e-17)
(0.4340945416 -0.4402818715 1.107363543e-19)
(0.5479990931 -0.3650640025 3.288199513e-18)
(0.6312764639 -0.305432206 -4.708265914e-19)
(0.7027906258 -0.2581312745 -1.079458485e-17)
(0.7552323431 -0.2196935979 1.685593618e-18)
(0.8027462741 -0.1882679732 2.087308322e-18)
(0.8371932495 -0.1622189474 -2.727385531e-17)
(0.8700612144 -0.1402988538 -1.637935804e-17)
(0.8933245935 -0.1218299685 2.574734603e-18)
(0.9166566388 -0.1058609849 -1.414776727e-18)
(0.9325684091 -0.09219716723 3.291937077e-18)
(0.9493234344 -0.08007411611 -1.914967019e-19)
(0.9601106366 -0.06953413187 1.622122569e-17)
(0.9721054317 -0.05993269911 -9.348348022e-18)
(0.979063447 -0.05146316696 3.723052655e-17)
(0.9874858622 -0.04349921001 1.530251702e-17)
(0.9913546081 -0.03642502531 3.448177684e-19)
(0.9970202797 -0.02947405501 -9.908894759e-18)
(0.9982294177 -0.02333305687 1.238344272e-18)
(1.001688068 -0.01691654192 4.43841672e-18)
(1.000525726 -0.01134619133 2.216519093e-17)
(1.002120744 -0.005096733199 1.669551486e-17)
(0.9991248906 -0.0006982593226 -2.846055907e-17)
(0.3586937117 -0.6196081762 -8.223322195e-18)
(0.487290406 -0.5069868757 -6.953521549e-18)
(0.592107732 -0.4203747346 1.415962259e-17)
(0.6681803442 -0.351708722 -1.108906289e-17)
(0.7339790237 -0.297241128 -8.716005035e-18)
(0.7817769047 -0.2529796503 1.017844049e-17)
(0.8254935073 -0.2167917651 9.718897927e-19)
(0.8567936135 -0.1867958631 -6.344683558e-18)
(0.8870131294 -0.1615545167 3.478814719e-17)
(0.9080453731 -0.1402874542 -2.212877976e-17)
(0.9294478895 -0.1218988062 -6.068543711e-18)
(0.9437088047 -0.1061646134 1.200632089e-17)
(0.9589989748 -0.09220463556 -3.268342166e-18)
(0.9685126501 -0.08006774003 2.062104603e-19)
(0.9793474039 -0.06901174127 -1.744358408e-17)
(0.985281974 -0.05925928359 -1.588026323e-17)
(0.9927422538 -0.05008897883 -2.347953571e-17)
(0.9957558864 -0.04194317734 -4.368666676e-18)
(1.000581714 -0.03393892621 -5.02400935e-18)
(1.001048268 -0.02686725107 -8.949333761e-18)
(1.003731966 -0.01947816745 -2.599105996e-17)
(1.001896251 -0.01306383396 -2.83322412e-17)
(1.002736364 -0.0058676553 -1.968352322e-17)
(0.9992086669 -0.0008027348524 -4.128229088e-17)
(0.4324261363 -0.6933400095 -2.206019704e-18)
(0.5476215456 -0.5673175644 -9.261800911e-18)
(0.6421326556 -0.4703994604 -5.818628173e-18)
(0.7100339562 -0.3935627354 3.91158982e-18)
(0.7693507086 -0.3326130916 6.736224535e-18)
(0.8118815131 -0.2830847189 -1.523153464e-17)
(0.8512916434 -0.2425896814 -2.4646089e-18)
(0.8790223965 -0.2090241233 7.367216106e-18)
(0.9062382381 -0.1807789139 2.672639989e-18)
(0.9247398158 -0.1569810284 8.401558171e-18)
(0.9439539505 -0.1364040218 9.523700929e-18)
(0.9563424845 -0.1187972568 -7.109515493e-18)
(0.9699712446 -0.1031759944 -1.630456405e-17)
(0.9780406411 -0.08959472211 3.872804817e-18)
(0.9875596378 -0.07722327786 2.166778774e-17)
(0.9923336872 -0.06631044628 -5.479904403e-18)
(0.9987026027 -0.05604930157 2.255224779e-17)
(1.000746814 -0.04693436845 3.46683031e-18)
(1.004620008 -0.03797791072 2.652122424e-18)
(1.004244987 -0.03006471521 3.901242098e-18)
(1.006049688 -0.02179632327 5.388311436e-17)
(1.00345064 -0.01461828169 -2.27976764e-17)
(1.003434553 -0.00656566521 -1.087906694e-17)
(0.9993038116 -0.0008976699251 -2.318005029e-17)
(0.5139500166 -0.7583517416 -1.997314591e-17)
(0.6143274293 -0.6205129978 -1.664434772e-17)
(0.6974432605 -0.5145082836 4.266957686e-18)
(0.7563099992 -0.4304668999 1.59783427e-17)
(0.8084599837 -0.3638021634 1.262604876e-17)
(0.8451675682 -0.3096296048 -1.429946498e-17)
(0.8798160236 -0.2653368478 -8.402400708e-18)
(0.903600481 -0.2286236421 1.383426044e-17)
(0.9274951863 -0.1977297177 -3.247772666e-18)
(0.9431988815 -0.1717001892 -4.17749119e-18)
(0.9599934443 -0.1491934808 -7.667171145e-18)
(0.9703118525 -0.1299355261 2.198820606e-17)
(0.9821037767 -0.1128492888 -1.596448645e-17)
(0.9885762822 -0.09799441511 -1.457772149e-18)
(0.9966406867 -0.08446287057 -9.207005706e-18)
(1.000131462 -0.07252683016 -6.236513237e-18)
(1.00529389 -0.0613035118 -1.358708833e-17)
(1.006265888 -0.05133404661 2.165557057e-17)
(1.009085872 -0.04153774442 2.017754735e-17)
(1.007779842 -0.03288285449 -3.385021718e-18)
(1.008612541 -0.0238391659 -1.156980627e-17)
(1.005169005 -0.01598785798 8.892995325e-18)
(1.004206147 -0.007180047472 3.388335037e-17)
(0.9994086537 -0.0009805748247 -4.970461892e-17)
(0.6022407121 -0.8138276248 1.086632468e-17)
(0.6865706656 -0.6659059864 -2.204909957e-17)
(0.7573452998 -0.5521472594 4.13083586e-17)
(0.8064274994 -0.4619581064 -1.37870048e-17)
(0.8508158885 -0.3904163813 1.105321166e-17)
(0.8812165955 -0.3322811045 -1.25650668e-17)
(0.9107081087 -0.2847476037 -6.387041277e-18)
(0.9302183017 -0.2453485431 2.677304677e-18)
(0.9505161348 -0.212194414 8.827466467e-18)
(0.963189403 -0.1842606046 -1.571600453e-17)
(0.9773634914 -0.1601073058 7.336736881e-18)
(0.9854397914 -0.1394403528 4.118422269e-18)
(0.9952423421 -0.1211041339 -1.934916353e-17)
(0.9999854338 -0.105162444 -1.121282311e-17)
(1.006474431 -0.0906410922 -4.875665084e-18)
(1.008575645 -0.07783185284 -2.368086156e-17)
(1.012431376 -0.06578760757 9.645500225e-18)
(1.012242668 -0.05508881626 -3.555537635e-17)
(1.013922032 -0.04457605148 -4.266185288e-18)
(1.011608424 -0.03528827346 -1.719014553e-19)
(1.011388469 -0.02558337957 2.332774195e-17)
(1.00703068 -0.01715749417 -3.05280233e-17)
(1.005042428 -0.007705331879 3.039836534e-17)
(0.9995226986 -0.001052162399 2.529185818e-17)
(0.6961871598 -0.859068587 1.193555346e-17)
(0.763441417 -0.7029242108 8.679514706e-18)
(0.8210843523 -0.5828423444 1.590348502e-17)
(0.8597553532 -0.4876394729 -1.411334098e-17)
(0.895885029 -0.412120744 1.0111601e-17)
(0.9195751095 -0.3507536832 -6.578187404e-18)
(0.9435792556 -0.3005773602 -1.357222428e-17)
(0.9585415752 -0.2589877775 -1.032041758e-17)
(0.9750120697 -0.223990371 -1.217963047e-17)
(0.9844609528 -0.1945034558 -2.978046842e-17)
(0.9958467 -0.1690072383 -1.36903455e-17)
(1.001537343 -0.1471911455 1.331130771e-17)
(1.009223116 -0.1278354284 -2.382650457e-22)
(1.012125954 -0.1110074098 2.864118165e-17)
(1.016938667 -0.09567869852 2.649652768e-17)
(1.017561077 -0.08215736967 2.009947221e-17)
(1.020026436 -0.06944339061 -5.040292137e-18)
(1.018602227 -0.05814986134 5.776233757e-17)
(1.01906792 -0.04705254037 -1.626217657e-17)
(1.015681663 -0.03724883433 -5.535115214e-18)
(1.014341603 -0.02700463083 -1.895287263e-17)
(1.00901056 -0.01811028525 -7.273501853e-17)
(1.005931278 -0.008132521272 1.899074942e-17)
(0.9996432571 -0.001109500972 -8.872658461e-18)
(0.7946086418 -0.8935069417 9.913722691e-18)
(0.8439740684 -0.7311034012 -2.499889621e-18)
(0.8878597844 -0.6062082121 7.828694527e-18)
(0.9156235791 -0.5071889074 -1.537721911e-17)
(0.9431011267 -0.4286427128 5.503700349e-18)
(0.9597606857 -0.3648157687 2.010824101e-17)
(0.978016016 -0.3126276055 -5.042612098e-18)
(0.9882135018 -0.2693706671 3.000890079e-17)
(1.000674303 -0.2329701338 2.902001721e-17)
(1.006744953 -0.2023010204 1.819799554e-17)
(1.01520952 -0.1757826088 -9.816156653e-18)
(1.018400739 -0.1530917702 1.708575024e-18)
(1.0238689 -0.1329600933 -8.473069083e-18)
(1.024843863 -0.115457347 4.453701622e-19)
(1.027900448 -0.0995141731 -3.34531744e-17)
(1.026973846 -0.08545067775 -6.215808054e-17)
(1.027982612 -0.07222695266 -1.282263192e-17)
(1.02526455 -0.06048045754 -3.013450226e-18)
(1.024458863 -0.04893821498 -2.854483115e-17)
(1.01994961 -0.03874162415 -3.250041654e-17)
(1.017436232 -0.02808710357 3.747949994e-17)
(1.011085986 -0.01883611822 -1.664196621e-18)
(1.006863541 -0.008458389145 4.032039115e-17)
(0.9997703347 -0.001153857434 1.022191693e-18)
(0.8962667291 -0.9167085816 7.495962674e-18)
(0.9271549093 -0.7500881448 -9.012145862e-18)
(0.9568310375 -0.6219504197 9.097842077e-19)
(0.973329022 -0.5203598004 -1.865000593e-17)
(0.9918699635 -0.4397740868 1.048795395e-18)
(1.001267995 -0.3742897494 9.565986233e-18)
(1.01358542 -0.3207461471 -1.004250395e-17)
(1.018861556 -0.2763656788 -1.537325359e-17)
(1.027180763 -0.2390197717 2.909947186e-18)
(1.029762233 -0.2075540202 1.452712477e-19)
(1.03520952 -0.1803468385 6.541387002e-18)
(1.035819184 -0.157066561 -3.894926912e-18)
(1.03899677 -0.1364119997 -3.545228683e-17)
(1.037980396 -0.1184546754 3.628529652e-17)
(1.039223054 -0.1020974168 -1.255324229e-17)
(1.036696254 -0.0876687472 3.543533403e-17)
(1.036200435 -0.07410143067 9.028785461e-18)
(1.03214547 -0.06204992514 3.003214105e-17)
(1.030026446 -0.05020776576 3.355940015e-17)
(1.024356684 -0.03974677843 1.673170341e-18)
(1.020631403 -0.02881579868 4.713489351e-18)
(1.013228137 -0.01932468493 7.399457805e-18)
(1.007825266 -0.008677331377 1.197372106e-19)
(0.9999007696 -0.001183156238 -2.934697526e-17)
(0.9998836594 -0.9283825607 1.400440941e-18)
(1.011938677 -0.7596405697 -5.424058751e-18)
(1.027131445 -0.6298715326 -1.854770693e-17)
(1.03214645 -0.5269872397 7.974027708e-18)
(1.041578565 -0.4453753354 1.26032175e-18)
(1.043574963 -0.3790572671 -1.044079185e-18)
(1.049840022 -0.3248315861 3.145755259e-18)
(1.050099734 -0.279885872 9.423080269e-18)
(1.054197541 -0.2420643031 -3.286344565e-19)
(1.053222398 -0.2101977366 -1.331630768e-17)
(1.0555943 -0.1826440381 -3.444558062e-18)
(1.05357256 -0.1590671375 -8.87701799e-18)
(1.054415498 -0.1381495566 1.211600621e-17)
(1.05136945 -0.1199634332 -1.271339322e-17)
(1.050763303 -0.1033978975 9.152135372e-18)
(1.046605683 -0.08878533078 -1.480481683e-17)
(1.044576377 -0.0750451107 -6.077290356e-18)
(1.039159196 -0.0628398199 -2.88212794e-18)
(1.035701663 -0.05084666047 -3.219449333e-17)
(1.028849597 -0.04025243114 1.252784122e-17)
(1.023889065 -0.02918240691 8.41569135e-19)
(1.015412695 -0.01957034369 2.186421772e-18)
(1.008806249 -0.008787318408 1.987945638e-18)
(1.000034146 -0.001197820777 3.364484754e-19)
(1.104155785 -0.928381398 -2.129410865e-18)
(1.097258517 -0.7596398102 -2.193975281e-18)
(1.097876378 -0.6298714515 -2.168581873e-17)
(1.091335869 -0.5269871906 1.091821294e-17)
(1.091601593 -0.4453755026 1.660135538e-18)
(1.086149715 -0.3790574978 4.040255162e-18)
(1.086324112 -0.3248317062 -2.478538116e-18)
(1.081535831 -0.2798857922 7.876016887e-18)
(1.081385496 -0.2420641661 -4.44158102e-18)
(1.076831375 -0.210197393 -1.533443389e-17)
(1.076108374 -0.1826436197 -1.676904806e-17)
(1.071438643 -0.1590665465 5.417845703e-18)
(1.069932081 -0.1381489139 1.670835632e-17)
(1.06484347 -0.1199627569 -2.087989014e-17)
(1.062376723 -0.1033971781 -1.603920829e-17)
(1.056577752 -0.0887846868 1.463958504e-17)
(1.053005097 -0.07504430452 -2.116986158e-18)
(1.046216649 -0.06283910759 -5.335723716e-19)
(1.04141199 -0.05084577809 -6.533171699e-18)
(1.033369774 -0.04025193076 -1.607742508e-17)
(1.027166337 -0.0291820459 -5.57075853e-18)
(1.017610033 -0.01957014876 -2.671157554e-18)
(1.009792855 -0.008786947188 -2.681090545e-17)
(1.000168082 -0.001197585811 2.525792564e-17)
(1.207772405 -0.9167056196 -5.438086627e-18)
(1.18204203 -0.7500864563 5.886039185e-18)
(1.16817667 -0.6219505711 -1.502430331e-17)
(1.150153211 -0.5203602727 -5.260570383e-18)
(1.141310175 -0.4397750813 -1.140977898e-18)
(1.128456715 -0.3742912804 -4.083288172e-18)
(1.122578732 -0.3207473451 2.664469928e-18)
(1.112774015 -0.2763666311 -1.878021106e-17)
(1.108402288 -0.23902066 -1.981406951e-17)
(1.100291539 -0.2075545552 6.341294326e-19)
(1.096493172 -0.1803473222 2.453701761e-17)
(1.089192017 -0.1570666248 1.318715652e-18)
(1.085350836 -0.1364121024 4.301952835e-18)
(1.078232534 -0.1184545537 -2.873259533e-18)
(1.073917006 -0.1020973336 1.294944207e-18)
(1.066487186 -0.08766846783 2.002003853e-17)
(1.061381018 -0.07410074777 5.009554973e-18)
(1.05323024 -0.06204876395 1.723382587e-17)
(1.047086962 -0.05020604011 8.003964918e-18)
(1.037862313 -0.03974538433 2.97453151e-17)
(1.030423578 -0.02881474598 4.419963218e-18)
(1.019794088 -0.01932367428 1.572502984e-17)
(1.010773346 -0.008675888675 -5.808183655e-18)
(1.000301101 -0.001182089022 -1.570856902e-17)
(1.309429967 -0.8935016912 -3.928152832e-18)
(1.265222575 -0.7311001542 8.082531634e-18)
(1.237147857 -0.6062081333 -6.047187436e-18)
(1.207858626 -0.5071892028 3.101668459e-18)
(1.190079061 -0.4286439411 -4.162163471e-19)
(1.169964088 -0.3648176302 1.403207376e-18)
(1.158148114 -0.3126289046 1.0007531e-17)
(1.143421918 -0.2693713213 1.143887841e-17)
(1.134908541 -0.2329706136 1.624575226e-17)
(1.123308501 -0.2023007456 1.870216413e-17)
(1.116492808 -0.1757821399 6.145817635e-18)
(1.106610015 -0.1530905441 -1.059679046e-17)
(1.100478229 -0.1329588055 3.987454936e-19)
(1.091368567 -0.1154557668 -8.169731041e-18)
(1.08523907 -0.09951254925 -1.904906681e-17)
(1.076209058 -0.08544901042 -1.862426623e-17)
(1.069598205 -0.07222457443 -8.624126618e-18)
(1.060110592 -0.06047778398 -3.172462608e-17)
(1.052653985 -0.04893462706 7.642808871e-18)
(1.042269192 -0.03873907424 -2.661180316e-17)
(1.033618789 -0.02808510068 -2.061056333e-18)
(1.021936501 -0.01883444226 2.715395071e-18)
(1.011735288 -0.008455931686 -2.128034455e-17)
(1.000431733 -0.001152087748 4.686546342e-17)
(1.407850495 -0.8590617052 -1.270842254e-18)
(1.345754448 -0.7029200919 1.368216388e-17)
(1.303922922 -0.5828424228 2.837078116e-18)
(1.263726581 -0.4876401904 -3.12216312e-20)
(1.237295087 -0.4121226016 -3.556997903e-18)
(1.210149737 -0.3507565809 -1.411302413e-17)
(1.192584882 -0.3005794293 5.769337884e-18)
(1.173093795 -0.2589891391 -8.812379932e-18)
(1.160570729 -0.2239915405 -1.023565807e-17)
(1.145592397 -0.1945037292 -9.990764643e-18)
(1.135855576 -0.1690073393 5.233752379e-18)
(1.123473294 -0.1471902559 -1.187753873e-17)
(1.115123985 -0.1278345598 2.419130034e-18)
(1.104086401 -0.1110060751 -9.634641898e-18)
(1.096200852 -0.09567740673 4.208634196e-17)
(1.085621739 -0.08215583244 2.023568145e-17)
(1.077554216 -0.06944099828 1.716943846e-17)
(1.066772471 -0.05814680645 -1.258297526e-18)
(1.058044254 -0.04704837592 4.910355977e-18)
(1.04653626 -0.03724585389 -4.497647599e-18)
(1.036712524 -0.02700249556 -1.573178109e-17)
(1.024010879 -0.01810843015 -6.158877264e-18)
(1.012666505 -0.008129685978 -4.084633967e-17)
(1.000558076 -0.001107509383 3.789685626e-19)
(1.501795973 -0.8138185808 -2.559923125e-18)
(1.422624671 -0.6659002982 2.009628694e-18)
(1.36766186 -0.5521470008 1.294228901e-17)
(1.317054389 -0.4619585162 -3.904733219e-18)
(1.282364344 -0.3904182713 -7.215005159e-18)
(1.248508369 -0.3322840378 -3.975199294e-18)
(1.225455956 -0.2847494544 6.605507732e-18)
(1.201416703 -0.245349297 -3.778815254e-18)
(1.185066165 -0.2121948807 -7.525922899e-18)
(1.166863205 -0.1842598171 1.9728518e-17)
(1.154337946 -0.1601062251 -5.953406623e-18)
(1.139569842 -0.139437973 -1.416816145e-17)
(1.129103692 -0.1211016812 2.083185079e-17)
(1.11622581 -0.1051594564 7.138667172e-19)
(1.106663899 -0.09063807743 -2.013134462e-17)
(1.094606014 -0.07782875285 7.644706065e-18)
(1.08514795 -0.06578341747 -1.631988764e-17)
(1.073130836 -0.05508418671 -2.798519412e-17)
(1.063188908 -0.04457001825 1.917215458e-19)
(1.050608852 -0.0352840354 1.576041245e-18)
(1.039665352 -0.02558000999 1.234718316e-17)
(1.025990751 -0.017154587 2.219802861e-17)
(1.013555346 -0.007701076337 3.148195257e-18)
(1.000678707 -0.001049136227 -1.551235107e-17)
(1.590085271 -0.7583413988 -9.217244546e-18)
(1.494866738 -0.6205066247 2.282583017e-18)
(1.427563337 -0.5145081286 -2.556218389e-18)
(1.367171511 -0.4304676789 6.024091093e-18)
(1.324720206 -0.3638044375 -5.213769984e-18)
(1.284557587 -0.3096331989 1.648687378e-18)
(1.25634807 -0.265339018 5.625242084e-18)
(1.228034401 -0.228624632 -6.632596346e-18)
(1.208086947 -0.1977304079 -8.037697046e-19)
(1.186853435 -0.1716995091 4.942194918e-18)
(1.171707767 -0.1491925412 -6.580343087e-18)
(1.154697449 -0.1299330812 6.510614056e-19)
(1.142242071 -0.1128468452 3.343228442e-18)
(1.127634716 -0.09799129368 -1.057628308e-17)
(1.116497529 -0.08445984336 3.26711067e-18)
(1.103049972 -0.07252365958 4.858154453e-18)
(1.092285125 -0.06129932715 1.06813867e-17)
(1.079107014 -0.05132939922 6.496739106e-18)
(1.068024309 -0.04153178174 -9.161685593e-18)
(1.054436706 -0.03287895664 -1.865181998e-18)
(1.04244072 -0.02383632401 -1.111438265e-17)
(1.02785175 -0.01598538346 5.793286834e-18)
(1.014390873 -0.007175977198 -6.728029206e-18)
(1.000792273 -0.0009777312865 3.399580102e-18)
(1.671607883 -0.6933277691 9.696100719e-19)
(1.561572035 -0.5673096798 1.568311903e-18)
(1.48287386 -0.4703989395 -3.680048886e-18)
(1.413447589 -0.3935632062 -1.80591294e-19)
(1.363829822 -0.3326152818 -2.670618799e-19)
(1.317843965 -0.2830880651 -4.288255422e-18)
(1.284872495 -0.2425912993 2.820930324e-18)
(1.25261204 -0.2090242183 6.695716539e-18)
(1.229343223 -0.1807786658 -6.821930085e-18)
(1.205311453 -0.1569791563 6.749982154e-18)
(1.187746063 -0.1364018174 3.87193995e-18)
(1.168665382 -0.1187933029 -1.084191641e-17)
(1.154373083 -0.1031719684 1.84596562e-18)
(1.138168787 -0.08958997629 9.695131585e-18)
(1.125576923 -0.07721860969 8.37830358e-19)
(1.110846178 -0.06630586104 -9.691534286e-19)
(1.098874656 -0.05604365535 1.07169152e-17)
(1.08462455 -0.04692862082 1.60068747e-18)
(1.072488563 -0.03797069113 1.881980204e-19)
(1.057970681 -0.03005999392 -3.291600977e-18)
(1.045002969 -0.02179236828 2.209343639e-17)
(1.029569679 -0.01461484075 1.654408853e-17)
(1.015161982 -0.006560283053 2.547237278e-17)
(1.000896842 -0.0008939490767 -4.093232318e-18)
(1.745338792 -0.6195953036 3.93386996e-19)
(1.621901791 -0.5069786826 2.500648152e-18)
(1.532898036 -0.4203743192 -2.53670456e-18)
(1.455300774 -0.3517096627 -1.223274335e-18)
(1.399201591 -0.2972435006 -3.430790397e-18)
(1.347949052 -0.2529832545 5.156753752e-18)
(1.310670853 -0.2167932151 2.9399288e-18)
(1.27484079 -0.1867957012 4.965912066e-18)
(1.248568196 -0.1615540748 5.874696376e-18)
(1.222005578 -0.1402853479 -1.630622559e-18)
(1.202251904 -0.1218964637 6.310166994e-18)
(1.181298717 -0.1061603723 1.186566308e-18)
(1.165345237 -0.09220042102 -8.65906846e-18)
(1.14769664 -0.08006273053 -5.433153431e-19)
(1.133789268 -0.0690070384 -5.95658147e-18)
(1.117897977 -0.05925482434 1.331261544e-18)
(1.104835112 -0.05008384878 -1.691310914e-17)
(1.089615416 -0.04193822489 -1.248895166e-18)
(1.076526726 -0.03393271453 -1.417484177e-18)
(1.061167503 -0.02686351477 -2.029411723e-18)
(1.047320914 -0.01947487871 -7.061929535e-18)
(1.031124065 -0.01306090452 -6.901403402e-18)
(1.015859948 -0.005862505797 -6.512898297e-18)
(1.000991945 -0.0007991646916 -2.370782322e-18)
(1.810350691 -0.5380712259 -9.868919538e-19)
(1.675097281 -0.4402721348 8.667280879e-19)
(1.577006624 -0.36506323 -3.606819267e-18)
(1.492204609 -0.3054329884 2.162576436e-18)
(1.430390402 -0.258133531 -2.700048342e-18)
(1.374494011 -0.219696669 1.87469222e-18)
(1.333418247 -0.1882684721 2.490969561e-18)
(1.294440692 -0.1622176109 -4.038462707e-18)
(1.265519394 -0.1402973252 -5.541800878e-18)
(1.236725207 -0.1218267292 -9.192186155e-19)
(1.215041867 -0.105857537 2.403369425e-18)
(1.192437599 -0.09219170894 1.154640305e-18)
(1.175019235 -0.08006868773 7.002855829e-18)
(1.156097138 -0.06952797673 -2.144121728e-18)
(1.141029724 -0.05992697363 3.879110636e-18)
(1.124115165 -0.05145804276 5.150979597e-18)
(1.110089982 -0.04349358093 1.299567437e-18)
(1.09401539 -0.03641993604 -3.820326027e-20)
(1.080086654 -0.029467472 -3.84858059e-18)
(1.063985594 -0.0233288134 -6.234154154e-20)
(1.049364088 -0.01691201778 -3.540716518e-18)
(1.03249394 -0.01134246454 1.625671668e-17)
(1.016474741 -0.005090665621 1.966865062e-18)
(1.0010753 -0.0006942172458 7.759038023e-18)
(1.865826082 -0.4497807254 2.707629693e-18)
(1.720489561 -0.3680290861 3.42537709e-18)
(1.614645075 -0.3051613407 5.435713596e-19)
(1.523695144 -0.2553154884 1.710619625e-18)
(1.457004356 -0.2157775204 2.92477048e-18)
(1.397145328 -0.1836474953 5.163294088e-19)
(1.352829163 -0.1573763807 -2.003121945e-18)
(1.311165797 -0.1355998835 -7.556959593e-19)
(1.279984483 -0.1172766174 2.922801708e-18)
(1.249286056 -0.1018365116 6.973882534e-19)
(1.225956287 -0.08848785871 4.472475679e-18)
(1.201943119 -0.07706418746 -1.342528561e-18)
(1.183274928 -0.06693056735 -5.612398428e-19)
(1.163266129 -0.05811936212 -4.393638414e-18)
(1.147208955 -0.05009380579 1.285065079e-18)
(1.12942119 -0.04301459851 3.940236095e-18)
(1.114574857 -0.03635686222 2.973799735e-19)
(1.097770721 -0.03044409819 6.716771959e-19)
(1.083125129 -0.02463215139 2.580377258e-18)
(1.066391099 -0.01950111762 2.480583407e-18)
(1.051108356 -0.01413683609 -1.322356992e-18)
(1.033663707 -0.009481619797 -4.269181699e-18)
(1.01700006 -0.004255103278 2.515152277e-18)
(1.00114708 -0.0005806963856 2.599454311e-18)
(1.911067305 -0.3558341518 2.605278179e-18)
(1.7575078 -0.2911579053 -9.285144409e-19)
(1.645339931 -0.2414219191 -4.55680342e-19)
(1.549376209 -0.2019871713 1.137673923e-18)
(1.47870841 -0.170707933 2.086415396e-18)
(1.415617774 -0.1452886481 -1.821592506e-18)
(1.368658859 -0.1245050257 1.224096861e-19)
(1.324805124 -0.1072766254 -1.275006687e-19)
(1.291780584 -0.09278081968 9.39047053e-19)
(1.25952918 -0.08056527139 -1.632439307e-18)
(1.234856563 -0.07000503187 -1.184654758e-18)
(1.20969439 -0.06096712095 9.149683509e-19)
(1.190006805 -0.052950334 3.675041072e-19)
(1.169111801 -0.04597943379 -9.246336732e-19)
(1.152247375 -0.0396302147 4.049150241e-18)
(1.133747551 -0.034029787 -2.966666108e-18)
(1.118231497 -0.02876245803 -3.416607764e-18)
(1.100832422 -0.02408502077 2.108358593e-18)
(1.085602161 -0.01948667818 3.184399583e-19)
(1.068351962 -0.01542793287 4.007699006e-19)
(1.05253 -0.01118357542 -1.784623479e-18)
(1.03461686 -0.007501424566 3.573067682e-18)
(1.017427734 -0.003365788517 -3.586833058e-18)
(1.001205055 -0.0004598138369 -3.243365995e-18)
(1.945505452 -0.2574128513 2.687280571e-18)
(1.785686465 -0.2106253845 -3.912070795e-20)
(1.668705313 -0.1746465115 -2.798649424e-19)
(1.56892501 -0.146118848 7.54222296e-19)
(1.495229987 -0.1234916318 1.253012401e-18)
(1.429679451 -0.1051027994 2.394893466e-19)
(1.380708943 -0.09006801006 8.695726922e-19)
(1.335187863 -0.07760443365 -4.454777992e-19)
(1.300760394 -0.06711836286 6.126809593e-19)
(1.267326839 -0.05828104547 -5.670033856e-19)
(1.241632211 -0.05064201614 2.133603558e-18)
(1.215595392 -0.04410355985 2.724139905e-19)
(1.195132012 -0.03830442775 1.770238323e-19)
(1.173562407 -0.03326150607 1.866945395e-18)
(1.156083621 -0.02866849542 1.601860917e-18)
(1.137041742 -0.02461727862 -3.981549477e-19)
(1.121015924 -0.02080663529 -8.249314107e-19)
(1.103163935 -0.017423328 -3.325136237e-19)
(1.087488605 -0.01409641996 9.547749024e-19)
(1.069845523 -0.01116091009 -8.580160047e-19)
(1.053613109 -0.008089833083 -1.514829982e-18)
(1.03534332 -0.005426961932 -1.285450496e-18)
(1.017754037 -0.002434316603 1.141045909e-18)
(1.001249879 -0.0003332079164 -2.546998944e-18)
(1.968707435 -0.1557546004 1.553834153e-18)
(1.804671216 -0.1274442017 3.559145727e-19)
(1.684447277 -0.1056749384 -6.521910393e-19)
(1.582095554 -0.08841302753 1.732682485e-19)
(1.506360956 -0.07472244718 8.961261017e-19)
(1.439153106 -0.06359521218 3.880332574e-19)
(1.388827185 -0.05449840049 6.748716575e-19)
(1.342182697 -0.04695630454 -1.098451187e-19)
(1.306809906 -0.04061188649 1.073801198e-18)
(1.272579843 -0.03526385904 1.891494992e-20)
(1.24619652 -0.03064213672 6.099829323e-19)
(1.219570384 -0.02668530294 6.795165215e-19)
(1.198584212 -0.02317675317 3.121690433e-19)
(1.176560121 -0.0201251808 3.514631547e-19)
(1.158667338 -0.01734609711 1.085939531e-18)
(1.139260295 -0.01489501481 -7.757561659e-20)
(1.122890925 -0.01258895353 -9.663069915e-19)
(1.104733786 -0.01054237708 -5.323713922e-19)
(1.088758489 -0.008528755046 3.157626678e-19)
(1.070850789 -0.006753486457 -1.408264356e-18)