/*--------------------------------*- C++ -*----------------------------------*\
| =========                 |                                                 |
| \\      /  F ield         | foam-extend: Open Source CFD                    |
|  \\    /   O peration     | Version:  3.0                                   |
|   \\  /    A nd           | Web:         http://www.extend-project.de       |
|    \\/     M anipulation  |                                                 |
\*---------------------------------------------------------------------------*/
FoamFile
{
    version     2.0;
    format      ascii;
    class       volSymmTensorField;
    location    "10";
    object      sigma;
}
// * * * * * * * * * * * * * * * * * * * * * * * * * * * * * * * * * * * * * //

dimensions      [0 0 0 0 0 0 0];

internalField   nonuniform List<symmTensor> 
728
(
(-0.0153023 0.0355924 -4.89443e-19 0.0153015 1.03154e-19 8.37331e-07)
(0.0153234 -0.0355775 6.39003e-19 -0.0153224 1.23781e-19 -9.27048e-07)
(0.0226949 -0.0413176 -8.17216e-19 -0.022696 -2.07703e-19 1.04873e-06)
(-0.0227419 0.0414019 3.30812e-19 0.0227431 -1.36045e-19 -1.13712e-06)
(-0.00807083 0.0747747 7.70905e-19 0.00807079 8.94986e-20 3.4478e-08)
(0.00814769 -0.0748809 1.50931e-19 -0.00814757 2.87423e-19 -1.23814e-07)
(-0.162626 -0.0032407 -5.22089e-19 0.162627 2.94107e-18 -1.00407e-06)
(0.162328 0.00372911 -4.36707e-19 -0.162329 1.41342e-18 9.16157e-07)
(0.00522515 0.0419109 6.13203e-19 -0.00522447 4.04021e-20 -6.74552e-07)
(0.0333951 0.0686664 3.74588e-19 -0.0333962 -4.70313e-19 1.08693e-06)
(-0.00510066 -0.0419298 1.16934e-19 0.00510007 -8.48076e-20 5.86086e-07)
(-0.0332136 -0.0686969 2.90037e-20 0.0332148 -7.02937e-19 -1.17528e-06)
(0.00547066 0.0402241 1.86171e-19 -0.00546995 -3.96368e-20 -7.11856e-07)
(-0.0273217 -0.0657616 -2.92863e-19 0.0273229 -5.82577e-19 -1.19136e-06)
(-0.005308 -0.0402734 2.02159e-19 0.00530737 5.16364e-20 6.24118e-07)
(0.0275598 0.0656319 -1.25801e-19 -0.0275609 -4.57718e-19 1.10401e-06)
(0.00817809 -0.00685581 3.8689e-19 -0.00817785 -1.85128e-19 -2.4083e-07)
(0.0735306 -0.00307192 -4.17996e-19 -0.0735319 -1.15221e-19 1.30626e-06)
(-0.0733574 0.0032669 1.15898e-18 0.0733588 -4.10384e-19 -1.3936e-06)
(-0.00818481 0.00682236 2.25432e-19 0.00818466 1.789e-20 1.4982e-07)
(-0.00847681 -0.0279638 9.73717e-20 0.00847663 -1.39276e-19 1.79165e-07)
(0.089072 0.0491364 1.34667e-19 -0.0890731 -8.52368e-20 1.14387e-06)
(-0.0891847 -0.0491023 -5.64548e-19 0.0891859 3.16213e-19 -1.23226e-06)
(0.00856682 0.0279821 4.48192e-19 -0.00856655 -2.17361e-19 -2.70646e-07)
(-0.00729963 0.111853 8.57002e-19 0.0072995 1.043e-19 1.28391e-07)
(0.177732 -0.0166207 2.79894e-21 -0.177733 3.08639e-18 8.53421e-07)
(-0.177665 0.0175275 1.57404e-18 0.177666 1.74608e-18 -9.42281e-07)
(0.0073676 -0.111862 6.01221e-19 -0.00736738 4.73906e-19 -2.17375e-07)
(0.00626712 -0.007823 -5.37394e-19 -0.00626693 -5.6417e-20 -1.9527e-07)
(0.0778654 0.00178418 -2.27879e-19 -0.0778667 -1.51007e-19 1.29255e-06)
(-0.0776576 -0.00148368 4.70088e-19 0.077659 -5.09557e-19 -1.38032e-06)
(-0.00623096 0.00778373 -2.60022e-19 0.00623086 -1.79644e-20 1.03431e-07)
(-0.00694137 -0.0287869 1.61717e-20 0.00694125 -1.21251e-19 1.177e-07)
(0.100196 0.0432762 -9.25757e-20 -0.100197 -4.45271e-20 1.12288e-06)
(-0.100378 -0.0434536 -5.60407e-19 0.100379 2.82723e-19 -1.20996e-06)
(0.00701483 0.0287213 4.92599e-19 -0.00701462 -2.40107e-19 -2.08532e-07)
(0.0512985 0.0421161 9.60124e-19 -0.0512998 -9.49948e-20 1.3445e-06)
(-0.0113348 -0.010132 -4.06294e-19 0.0113345 -3.26212e-19 2.81876e-07)
(-0.051354 -0.0421508 6.81514e-19 0.0513555 9.60596e-20 -1.43246e-06)
(0.0113626 0.010158 -2.16741e-19 -0.0113622 1.97578e-19 -3.72583e-07)
(0.0108593 0.0205697 2.351e-19 -0.0108589 -1.97924e-19 -3.56239e-07)
(0.0657692 0.0493784 -8.25394e-19 -0.0657705 5.92895e-20 1.22781e-06)
(-0.010796 -0.0205571 -5.15385e-19 0.0107957 2.0388e-19 2.65227e-07)
(-0.0658196 -0.0494814 -1.27821e-18 0.065821 1.4844e-19 -1.31581e-06)
(0.0114526 0.0184882 8.33338e-19 -0.0114522 -7.42411e-20 -4.12699e-07)
(-0.0553949 -0.049861 -5.48001e-19 0.0553962 1.95521e-19 -1.35044e-06)
(-0.0114226 -0.0185073 -4.30229e-19 0.0114223 -7.41086e-20 3.22986e-07)
(0.0553242 0.0497865 -6.49228e-19 -0.0553255 1.40303e-19 1.26244e-06)
(0.00248619 -0.0694696 -5.0535e-19 -0.00248539 -1.56861e-19 -7.91712e-07)
(-0.0442321 0.0694425 6.89507e-19 0.0442331 -4.17143e-19 -9.32418e-07)
(0.0445234 -0.0696445 -5.77079e-19 -0.0445242 6.15696e-19 8.44348e-07)
(-0.00246495 0.069441 6.80664e-19 0.00246425 -4.53651e-19 7.02686e-07)
(0.172295 -0.0509598 -1.23191e-18 -0.172295 1.919e-18 7.97962e-07)
(0.00704134 0.142439 1.09618e-18 -0.0070416 1.02542e-19 2.59412e-07)
(-0.172438 0.0508312 2.83433e-18 0.172438 3.2827e-18 -8.87878e-07)
(-0.00697577 -0.142452 3.9829e-19 0.00697611 4.99708e-19 -3.47718e-07)
(0.0164251 -0.0309248 4.52427e-19 -0.0164243 -2.82434e-19 -7.85462e-07)
(0.0372992 -0.0408662 -7.91653e-19 -0.0373003 -1.99467e-19 1.11219e-06)
(-0.0372817 0.0408403 1.76941e-19 0.0372829 2.71044e-19 -1.19984e-06)
(-0.016496 0.030833 -2.75622e-19 0.0164954 -1.09757e-19 6.93978e-07)
(0.00634137 0.0108979 2.66905e-19 -0.00634119 -2.07148e-19 -1.78868e-07)
(-0.0732952 -0.0311527 -1.60109e-19 0.0732966 -1.42806e-19 -1.37021e-06)
(0.0731487 0.0311876 -1.97394e-19 -0.07315 -1.99835e-19 1.28256e-06)
(-0.00633235 -0.0109303 -3.59721e-19 0.00633226 -4.57744e-20 8.83784e-08)
(0.016697 -0.042874 -7.96968e-19 -0.016698 1.89865e-19 9.79299e-07)
(-0.0104149 0.0430439 -2.917e-19 0.010414 9.28678e-20 9.07982e-07)
(-0.0166907 0.0429374 1.41927e-19 0.0166918 -4.75636e-19 -1.06778e-06)
(0.010495 -0.0429812 -8.25091e-20 -0.010494 2.24642e-19 -9.97869e-07)
(0.00579967 -0.0607445 -3.43229e-20 -0.00579966 1.56859e-19 -1.05808e-08)
(-0.00571003 0.0606905 1.42358e-18 0.00571011 1.59778e-19 -7.86103e-08)
(0.147697 0.0302655 1.26534e-19 -0.147698 2.63722e-19 9.50206e-07)
(-0.147643 -0.0298646 -2.11835e-20 0.147644 5.28904e-19 -1.04007e-06)
(0.0462148 0.0453771 2.6111e-19 -0.0462161 -5.05321e-19 1.3395e-06)
(-0.012553 -0.0121113 -7.49074e-19 0.0125526 -3.60448e-19 3.48062e-07)
(0.012562 0.0121359 3.12159e-20 -0.0125615 2.56317e-20 -4.3878e-07)
(-0.046245 -0.0454362 4.91501e-20 0.0462464 -3.32218e-19 -1.42758e-06)
(0.00269394 0.0092123 1.71838e-19 -0.00269385 -1.13486e-19 -8.85397e-08)
(0.0778015 0.0222258 -2.03831e-19 -0.0778028 -1.66514e-19 1.28354e-06)
(-0.00269902 -0.00931628 -2.95351e-19 0.00269903 -2.36494e-20 -1.69045e-09)
(-0.0779558 -0.0220163 -2.73547e-20 0.0779571 -3.38916e-20 -1.3708e-06)
(0.0319658 0.0967046 -1.01116e-20 -0.0319666 2.22697e-19 7.87268e-07)
(-0.0319613 -0.0965875 -2.35678e-19 0.0319622 4.06157e-20 -8.76045e-07)
(-0.0294602 0.0779527 6.88684e-19 0.0294609 4.77216e-20 -7.29915e-07)
(0.0297755 -0.0779557 -4.01381e-19 -0.0297761 3.17858e-19 6.40287e-07)
(0.0174832 -0.0165433 4.76832e-19 -0.0174826 -3.40429e-19 -6.16496e-07)
(0.0474928 -0.0298505 7.95943e-20 -0.047494 4.73387e-19 1.2263e-06)
(-0.0175263 0.0164907 -1.69192e-19 0.0175258 2.76943e-19 5.25616e-07)
(-0.0474335 0.029875 6.79325e-19 0.0474349 9.86749e-20 -1.31328e-06)
(0.0408189 0.16886 7.87106e-19 -0.0408192 -9.30173e-20 3.49099e-07)
(0.171674 -0.0688681 -3.14865e-18 -0.171675 9.11148e-19 7.51558e-07)
(-0.0407869 -0.168865 2.68732e-19 0.0407873 2.281e-19 -4.37668e-07)
(-0.171379 0.0690605 2.24833e-18 0.17138 2.69324e-18 -8.40289e-07)
(0.0187408 0.0950397 4.71105e-19 -0.0187415 -7.7998e-20 7.0625e-07)
(-0.0187731 -0.0949359 4.27751e-19 0.0187739 -2.60216e-19 -7.95226e-07)
(-0.0446928 0.0832077 -5.24354e-20 0.0446936 -4.65539e-19 -7.91905e-07)
(0.0448384 -0.0831654 -8.13309e-20 -0.0448392 2.59717e-19 7.02082e-07)
(-9.94508e-05 -0.0486867 -6.81921e-20 9.88525e-05 5.65874e-20 5.98337e-07)
(0.0325353 0.0733982 1.68134e-19 -0.0325364 1.51479e-19 1.02959e-06)
(0.000137009 0.0486165 6.56508e-19 -0.000136321 -9.70797e-20 -6.88322e-07)
(-0.0326913 -0.0734333 7.31213e-19 0.0326924 -5.74894e-19 -1.11861e-06)
(0.016329 -0.0323066 8.15506e-19 -0.0163281 6.30074e-21 -8.70858e-07)
(-0.016281 0.0324255 -1.20197e-18 0.0162802 9.08809e-20 7.82456e-07)
(0.0282066 -0.0403095 -1.05552e-18 -0.0282076 1.17965e-19 1.08488e-06)
(-0.0282485 0.0403868 4.08876e-19 0.0282496 -1.14823e-19 -1.17279e-06)
(-0.0120093 0.0411609 -2.16495e-19 0.0120085 -1.1196e-19 8.56416e-07)
(-0.0222626 0.043993 -1.21098e-19 0.0222637 -2.92163e-19 -1.09803e-06)
(0.0221331 -0.0439243 -4.52277e-19 -0.0221341 5.7226e-19 1.0093e-06)
(0.0120606 -0.0410155 5.45907e-19 -0.0120596 2.26489e-19 -9.45292e-07)
(0.0166724 -0.0131761 4.30309e-19 -0.0166718 -3.6315e-19 -5.50225e-07)
(0.0522854 -0.0259102 6.40447e-21 -0.0522867 -3.10523e-21 1.25789e-06)
(-0.0167113 0.0131274 -1.49399e-19 0.0167108 2.30999e-19 4.59349e-07)
(-0.0522433 0.0258943 8.72527e-19 0.0522446 3.88379e-20 -1.34499e-06)
(-0.0034919 0.00268352 1.91323e-19 0.00349186 8.15634e-20 4.30954e-08)
(0.0681773 0.00877755 -9.55184e-21 -0.0681787 2.49542e-20 1.35298e-06)
(0.00347245 -0.00274562 -1.12943e-19 -0.00347232 -2.85577e-19 -1.34002e-07)
(-0.0680907 -0.00863313 2.39851e-19 0.0680921 -3.2596e-19 -1.44035e-06)
(0.0129716 -0.0396447 6.25587e-19 -0.0129706 3.02761e-19 -9.85912e-07)
(-0.0129141 0.0396743 -3.76688e-19 0.0129132 1.80752e-19 8.96545e-07)
(0.0175293 -0.0416882 -3.58185e-19 -0.0175303 -8.24716e-20 1.00908e-06)
(-0.0175184 0.041749 3.4343e-19 0.0175195 -2.66258e-19 -1.09765e-06)
(0.0155011 -0.0338352 4.25615e-19 -0.0155003 -8.43253e-20 -8.49162e-07)
(0.0311053 -0.0417979 -3.33284e-19 -0.0311064 1.78132e-19 1.08393e-06)
(-0.0311458 0.0417497 5.81478e-20 0.031147 6.45255e-20 -1.17286e-06)
(-0.0155936 0.0336958 -1.19533e-19 0.0155928 -2.13283e-19 7.57442e-07)
(0.00250187 0.0425102 -1.09467e-20 -0.00250109 -3.00163e-19 -7.8059e-07)
(-0.0183583 -0.0637721 -6.38466e-19 0.0183595 -2.34385e-20 -1.16805e-06)
(-0.00243066 -0.042597 1.59848e-19 0.00242997 3.1743e-20 6.91461e-07)
(0.0184827 0.0636336 -2.52808e-19 -0.0184837 -1.2474e-19 1.08068e-06)
(-0.0121237 -0.058209 -3.4472e-21 0.012125 2.56283e-19 -1.21229e-06)
(0.0123169 0.0582895 -3.03475e-19 -0.0123181 1.33494e-19 1.12347e-06)
(0.00404861 0.0372801 4.7427e-19 -0.00404778 -3.39363e-19 -8.24028e-07)
(-0.0040856 -0.0372708 -5.41483e-19 0.00408486 1.18049e-19 7.35762e-07)
(0.0173264 -0.0252167 3.78222e-19 -0.0173257 -2.76898e-19 -7.00921e-07)
(0.0441778 -0.0369995 -1.07449e-18 -0.0441789 -8.86543e-20 1.16188e-06)
(-0.0442261 0.0369925 4.16185e-19 0.0442274 4.88318e-19 -1.24946e-06)
(-0.0173655 0.0251896 -3.24133e-19 0.0173649 4.881e-20 6.11303e-07)
(-0.0064846 -0.0558356 -4.71816e-21 0.00648578 1.25385e-19 -1.17934e-06)
(0.00037959 0.0392544 3.51791e-19 -0.00037871 -2.41018e-19 -8.79875e-07)
(0.00669227 0.0559512 -2.8006e-19 -0.00669336 2.57255e-19 1.09103e-06)
(-0.000391527 -0.039338 -5.94536e-19 0.000390736 1.61553e-20 7.91811e-07)
(-0.00557008 -0.0395707 -5.48584e-20 0.00556996 -1.69272e-19 1.2243e-07)
(0.112962 0.0495785 -1.57821e-19 -0.112963 -8.86524e-20 1.04953e-06)
(-0.11315 -0.0492004 -7.25507e-19 0.113151 -3.56692e-20 -1.13832e-06)
(0.00562064 0.0395413 6.69581e-19 -0.00562043 -2.00434e-19 -2.11223e-07)
(-0.0155805 0.0367856 -3.0377e-19 0.0155798 -4.38228e-20 6.49883e-07)
(0.0451561 -0.0464242 -6.07523e-19 -0.0451572 -2.86377e-19 1.06877e-06)
(0.0155457 -0.0368025 4.87199e-19 -0.015545 1.01414e-19 -7.39406e-07)
(-0.0450424 0.0463986 1.7004e-19 0.0450436 -7.105e-19 -1.15642e-06)
(0.0104285 0.00993692 5.15525e-19 -0.0104282 3.26495e-19 -3.3335e-07)
(0.0554824 0.0405954 2.35632e-19 -0.0554838 1.13605e-19 1.33749e-06)
(-0.0555597 -0.040613 -2.09613e-20 0.0555611 2.708e-19 -1.42546e-06)
(-0.0104204 -0.00993482 -3.43713e-19 0.0104202 -2.54509e-19 2.4374e-07)
(-0.000573925 -0.0367176 -6.07441e-19 0.00057309 -8.07882e-20 8.34774e-07)
(0.000661666 0.0365895 1.96259e-19 -0.000660743 -2.63804e-19 -9.23197e-07)
(0.000967768 0.0517897 -2.68823e-19 -0.00096886 4.26148e-19 1.0924e-06)
(-0.000850894 -0.0517548 -3.40625e-20 0.000852075 3.3314e-19 -1.18128e-06)
(-0.000520977 0.00373166 8.78242e-20 0.000521003 5.90221e-20 -2.59607e-08)
(-0.0690124 -0.0153772 1.42562e-19 0.0690138 -2.45924e-19 -1.43384e-06)
(0.000465652 -0.00377906 -1.1021e-19 -0.000465588 -7.39822e-20 -6.39167e-08)
(0.0690458 0.0154967 2.22319e-19 -0.0690472 -1.3638e-19 1.34632e-06)
(-0.11937 0.0756393 -1.90438e-19 0.119371 1.26862e-19 -9.3148e-07)
(0.00467937 -0.0853694 2.52183e-19 -0.00467888 4.33124e-20 -4.85725e-07)
(0.120347 -0.0753864 -5.8619e-19 -0.120348 5.04722e-19 8.43947e-07)
(-0.00485644 0.085145 1.37296e-18 0.00485605 -5.16118e-19 3.95436e-07)
(0.0113108 -0.0664584 4.40006e-21 -0.0113105 4.94365e-20 -3.96811e-07)
(-0.123862 0.0532922 -2.66752e-20 0.123863 -8.58117e-19 -1.00503e-06)
(0.124434 -0.053335 -9.5723e-19 -0.124435 5.598e-19 9.15564e-07)
(-0.0114189 0.0665398 1.44038e-18 0.0114186 -4.7375e-19 3.09135e-07)
(0.0538788 -0.0425266 -1.69679e-19 -0.0538799 -1.55603e-19 1.1135e-06)
(0.0169003 -0.0311289 4.06346e-19 -0.0168996 7.02151e-20 -6.58601e-07)
(-0.0538007 0.042518 -4.56307e-19 0.0538019 -7.12601e-20 -1.20111e-06)
(-0.0169249 0.0311352 -6.55023e-19 0.0169244 -2.27097e-20 5.68113e-07)
(-0.0167692 -0.0602765 -2.24717e-19 0.0167705 2.32681e-19 -1.21852e-06)
(0.0168922 0.0602685 -2.40473e-19 -0.0168933 8.683e-20 1.12939e-06)
(0.00554403 0.0376854 3.41762e-19 -0.00554324 -2.41102e-19 -7.88804e-07)
(-0.00561268 -0.0376008 -4.03163e-19 0.00561198 3.44629e-19 6.99149e-07)
(-0.00267029 0.0378407 2.32706e-19 0.00267125 -3.13585e-19 -9.64415e-07)
(0.00271093 -0.0379272 -5.90592e-19 -0.0027118 -5.4115e-20 8.7535e-07)
(0.00355569 -0.0494482 8.33856e-20 -0.00355455 3.4776e-19 -1.1459e-06)
(-0.00351463 0.0494243 -2.45595e-19 0.00351357 4.1278e-19 1.05635e-06)
(0.0555238 -0.0642213 -8.0822e-20 -0.0555248 2.15902e-19 9.21485e-07)
(-0.0554526 0.0640177 3.1175e-19 0.0554536 -3.35121e-19 -1.01051e-06)
(-0.00958079 0.0583647 4.84828e-19 0.00958016 -5.77879e-19 6.30846e-07)
(0.00971703 -0.0581488 -2.11297e-19 -0.00971631 1.93098e-20 -7.18656e-07)
(-0.0044048 -0.108433 5.15938e-19 0.00440531 2.96767e-19 -5.05396e-07)
(-0.128039 0.0847735 -1.70897e-19 0.12804 1.30561e-18 -8.74697e-07)
(0.12869 -0.0841469 -6.10373e-19 -0.12869 3.27793e-19 7.88422e-07)
(0.00433251 0.108333 1.63272e-18 -0.00433293 -3.062e-19 4.16458e-07)
(-0.0110236 -0.0290954 4.05755e-19 0.0110233 -2.87984e-20 3.3283e-07)
(0.0652939 0.0581982 7.80231e-19 -0.0652951 1.19026e-19 1.17095e-06)
(0.0111466 0.0290133 5.65359e-19 -0.0111462 -1.00432e-19 -4.2123e-07)
(-0.065272 -0.0582745 -3.6707e-19 0.0652733 1.95137e-19 -1.25926e-06)
(-0.0100082 -0.0344864 1.51764e-19 0.0100078 -3.75104e-19 4.18037e-07)
(-0.0553059 -0.064755 1.37771e-19 0.0553072 -1.37537e-19 -1.23108e-06)
(0.0553469 0.0647067 6.9263e-19 -0.0553481 -4.38032e-19 1.14294e-06)
(0.0101239 0.0345038 6.75938e-19 -0.0101234 -9.74654e-20 -5.07665e-07)
(-0.000556924 -0.000465095 -2.27677e-19 0.000556961 -8.44366e-19 -3.74203e-08)
(-0.0616082 -0.0165127 3.57132e-21 0.0616097 -1.12923e-19 -1.47069e-06)
(0.0616497 0.0166049 -5.69828e-19 -0.0616511 -1.12204e-19 1.38334e-06)
(0.000527153 0.000374904 -4.03201e-19 -0.0005271 1.52065e-19 -5.29262e-08)
(0.0096887 0.00559145 -2.85009e-19 -0.0096884 1.28327e-19 -3.05915e-07)
(-0.05356 -0.0358923 2.37894e-19 0.0535615 -6.22948e-20 -1.46547e-06)
(0.0535269 0.0358974 3.9097e-19 -0.0535283 -3.10197e-19 1.37763e-06)
(-0.00966046 -0.00559328 -7.6831e-19 0.00966024 -1.72509e-19 2.14893e-07)
(-0.0112604 0.0430828 1.19615e-19 0.0112596 -3.00553e-19 8.20382e-07)
(-0.0255863 0.0465116 2.63235e-19 0.0255874 -2.46446e-19 -1.08576e-06)
(0.0112142 -0.0430854 -3.39662e-19 -0.0112133 1.80708e-19 -9.09816e-07)
(0.0256825 -0.0465186 -2.69659e-19 -0.0256835 4.30331e-19 9.98169e-07)
(0.0121709 0.0253063 -6.62617e-19 -0.0121702 -1.69172e-19 -7.14255e-07)
(-0.0224024 -0.0546786 -9.44605e-19 0.0224037 1.03901e-19 -1.33559e-06)
(0.0225548 0.0546432 -9.38054e-19 -0.022556 -5.50862e-20 1.2471e-06)
(-0.012239 -0.0252992 -1.38829e-18 0.0122383 -6.23737e-20 6.2463e-07)
(-0.0585252 -0.0423967 -3.55063e-19 0.0585266 8.61293e-20 -1.39684e-06)
(0.0584355 0.0423575 -1.36884e-19 -0.0584368 -1.78093e-19 1.30891e-06)
(-0.0101174 -0.0123622 -3.53304e-19 0.0101171 -1.80135e-19 2.43219e-07)
(0.0101486 0.0123831 6.52572e-19 -0.0101482 1.34211e-19 -3.34056e-07)
(0.00969873 -0.0584618 -1.1143e-19 -0.00969845 1.69647e-19 -2.73275e-07)
(-0.136302 0.0277239 -8.65458e-19 0.136303 1.25497e-18 -1.04248e-06)
(0.136327 -0.0270849 -1.06597e-18 -0.136328 2.53649e-19 9.55392e-07)
(-0.00973707 0.0583639 1.32097e-18 0.00973689 -3.27469e-19 1.84413e-07)
(0.00954383 0.00611412 2.56542e-19 -0.00954353 1.82576e-19 -2.98745e-07)
(-0.0548788 -0.0360355 4.83303e-19 0.0548803 2.59103e-19 -1.46162e-06)
(0.0548299 0.0360411 7.80852e-19 -0.0548313 -1.44013e-19 1.37371e-06)
(-0.00956135 -0.00617627 -3.70053e-19 0.00956114 -2.38743e-19 2.09914e-07)
(0.000225078 0.0133553 2.06619e-19 -0.000225043 -1.39024e-19 -3.42652e-08)
(-0.000226009 -0.0132998 -2.98418e-19 0.000226065 5.63932e-20 -5.61344e-08)
(0.0880346 0.0175602 -1.97851e-19 -0.0880359 -2.11408e-19 1.22895e-06)
(-0.0881114 -0.0172374 -1.62746e-19 0.0881127 5.12066e-20 -1.31716e-06)
(0.0102793 -0.0419692 -7.28224e-19 -0.0102802 -1.26509e-19 9.28872e-07)
(0.00697989 -0.0472441 1.19445e-19 -0.00697883 1.02541e-19 -1.06571e-06)
(-0.00686286 0.0472376 -2.73124e-19 0.00686189 2.62738e-19 9.76439e-07)
(-0.0102029 0.0419359 1.81194e-19 0.0102039 -4.02165e-19 -1.01751e-06)
(-0.00451438 0.00143172 -1.50863e-19 0.0045143 9.94675e-20 7.18359e-08)
(0.0660894 0.00605362 -3.5287e-19 -0.0660908 -1.5422e-19 1.36675e-06)
(0.00452179 -0.00149677 7.22223e-20 -0.00452162 -4.55292e-19 -1.63605e-07)
(-0.0659814 -0.00592491 2.42858e-19 0.0659829 -2.86289e-19 -1.45409e-06)
(0.0414117 -0.0538242 -1.98604e-19 -0.0414127 5.36985e-19 9.80437e-07)
(-0.0118752 0.0480281 -2.77968e-19 0.0118745 -2.45562e-19 7.07135e-07)
(0.0118874 -0.0478888 5.40015e-20 -0.0118866 1.13792e-19 -7.96144e-07)
(-0.0411871 0.0537837 4.69357e-19 0.0411882 -3.51571e-19 -1.06854e-06)
(-0.000775647 -0.0412903 4.19029e-20 0.000775628 -8.99861e-21 1.95432e-08)
(0.000847618 0.041192 5.91431e-19 -0.000847509 -3.76398e-20 -1.09074e-07)
(0.125944 0.0330014 -5.9219e-19 -0.125945 5.62973e-19 1.02902e-06)
(-0.126465 -0.0327846 -1.54572e-18 0.126466 8.06971e-19 -1.11567e-06)
(0.0618708 -0.120149 -1.34218e-18 -0.0618712 8.6418e-19 4.05255e-07)
(-0.116129 -0.119257 6.88787e-19 0.116129 -2.74545e-19 -8.30637e-07)
(-0.0614653 0.120207 1.72067e-18 0.0614658 -2.73451e-19 -4.93487e-07)
(0.116018 0.119182 1.09599e-19 -0.116019 -7.94373e-19 7.4213e-07)
(-0.0464313 -0.0540742 -9.70786e-19 0.0464327 -2.85351e-19 -1.33634e-06)
(0.0123507 0.0219215 3.52505e-19 -0.0123501 4.35398e-20 -5.07401e-07)
(0.0464049 0.0539894 -6.26114e-20 -0.0464062 5.48148e-19 1.24825e-06)
(-0.0123453 -0.0218737 -5.438e-19 0.0123449 6.14736e-20 4.17615e-07)
(0.0398067 -0.11355 -9.45802e-19 -0.0398069 8.56513e-19 2.16916e-07)
(0.151919 0.087452 -8.49025e-19 -0.15192 -3.43881e-19 8.26267e-07)
(-0.039558 0.113513 6.85863e-19 0.0395583 -2.47834e-19 -3.05525e-07)
(-0.152058 -0.0874507 4.44381e-19 0.152059 4.14118e-20 -9.14899e-07)
(0.016114 -0.0122499 2.21697e-19 -0.0161135 -3.54704e-19 -5.08644e-07)
(-0.0558479 0.0237868 5.24494e-19 0.0558493 -2.81605e-20 -1.35541e-06)
(-0.0161432 0.0122142 -3.2502e-19 0.0161428 1.60221e-19 4.17815e-07)
(0.0559454 -0.0237425 -7.91872e-20 -0.0559466 -9.20911e-20 1.26866e-06)
(-0.0804004 -0.0576583 -3.63212e-19 0.0804017 3.51606e-19 -1.22787e-06)
(-0.00964866 -0.0321493 1.74421e-19 0.0096484 -4.2086e-19 2.56867e-07)
(0.0804283 0.0575654 3.02548e-19 -0.0804294 2.36292e-19 1.13952e-06)
(0.00977107 0.0320119 4.61622e-19 -0.00977072 -2.04058e-19 -3.46656e-07)
(-0.0203864 0.0488225 2.43955e-19 0.0203874 -5.6483e-19 -1.01122e-06)
(0.00633982 -0.0505104 -6.73028e-20 -0.00633886 -2.17823e-19 -9.63088e-07)
(-0.00630303 0.0506047 6.04216e-19 0.00630216 2.16976e-20 8.73237e-07)
(0.0204182 -0.0487484 -3.54866e-19 -0.0204191 1.32529e-19 9.22542e-07)
(0.00503972 0.0502313 7.08208e-19 -0.00503941 -1.63876e-19 -3.18012e-07)
(-0.00497674 -0.0501815 -5.17078e-19 0.00497651 -2.50126e-19 2.28428e-07)
(-0.104061 -0.0662558 2.11318e-19 0.104062 -5.9494e-20 -1.10892e-06)
(0.104253 0.0661943 2.3721e-19 -0.104254 2.89089e-20 1.0203e-06)
(0.0635645 -0.0037037 -1.9375e-19 -0.0635659 -3.20327e-19 1.35793e-06)
(-0.00886333 0.0019426 -1.16164e-19 0.00886314 3.58409e-20 1.81431e-07)
(0.00884681 -0.00200346 4.84372e-20 -0.00884653 -5.58725e-19 -2.72567e-07)
(-0.0634206 0.00378434 9.28651e-19 0.063422 -3.34101e-19 -1.445e-06)
(0.00398949 0.0531374 -2.70964e-19 -0.0039906 3.71534e-19 1.10823e-06)
(-0.00200166 -0.0366593 -6.2831e-19 0.00200085 -1.13173e-19 8.11719e-07)
(0.00203715 0.0365283 1.84919e-19 -0.00203625 -2.32426e-19 -9.00995e-07)
(-0.00381733 -0.0530859 -8.61691e-20 0.00381853 2.4298e-19 -1.19694e-06)
(-0.00891727 -0.017449 -4.63663e-19 0.00891709 1.05519e-19 1.71957e-07)
(0.0744953 0.0415435 -3.89938e-19 -0.0744965 -1.22328e-19 1.24001e-06)
(0.00890565 0.0173124 1.46647e-19 -0.00890539 -2.36846e-19 -2.61078e-07)
(-0.0746413 -0.0415688 -6.75439e-19 0.0746426 -3.03002e-19 -1.32808e-06)
(0.00779147 -0.0048057 4.61765e-19 -0.00779124 -3.16791e-19 -2.38623e-07)
(0.0698526 -0.00178464 -3.2826e-19 -0.0698539 -1.7842e-19 1.33444e-06)
(-0.0696797 0.00191425 5.69667e-19 0.0696811 -4.29451e-19 -1.4219e-06)
(-0.00779635 0.0047839 -5.89642e-20 0.00779621 5.44149e-20 1.47242e-07)
(0.0303776 -0.0547555 -6.74905e-19 -0.0303785 4.5243e-19 9.21736e-07)
(-0.00711541 0.0537968 4.11855e-19 0.00711462 -2.68204e-19 7.95234e-07)
(0.00722678 -0.0536401 -1.25317e-22 -0.0072259 3.12386e-20 -8.82392e-07)
(-0.0298413 0.054662 4.23828e-19 0.0298423 -2.49776e-19 -1.00916e-06)
(0.0105625 0.027815 3.08237e-20 -0.0105618 -1.52913e-19 -7.64551e-07)
(0.0171271 0.0549442 -5.6751e-19 -0.0171283 5.84604e-19 1.2206e-06)
(-0.0169649 -0.0549378 -5.29509e-19 0.0169662 7.22185e-19 -1.30922e-06)
(-0.0106495 -0.0277731 -7.4359e-19 0.0106488 -9.55297e-20 6.74463e-07)
(-0.0614968 0.00903464 7.29155e-19 0.0614982 1.96511e-19 -1.43248e-06)
(0.0109541 -0.00331712 1.15368e-19 -0.0109538 -5.53106e-19 -3.32929e-07)
(0.0616512 -0.0089759 -1.157e-19 -0.0616525 -2.91844e-19 1.34552e-06)
(-0.0109741 0.00324832 -1.39418e-19 0.0109738 1.12142e-19 2.41878e-07)
(0.0122465 0.0254759 4.09621e-20 -0.0122458 -9.51316e-20 -7.01841e-07)
(-0.0242323 -0.0551444 -1.76524e-19 0.0242336 -4.62269e-21 -1.3375e-06)
(0.024385 0.0550928 -1.79925e-19 -0.0243863 -1.91735e-19 1.24896e-06)
(-0.0123252 -0.0254576 -6.7541e-19 0.0123246 4.49447e-20 6.11619e-07)
(0.00305221 -0.0361292 -6.91107e-19 -0.00305212 4.40176e-20 -9.16404e-08)
(-0.00305298 0.0359877 1.62537e-18 0.00305298 -2.42065e-19 1.62528e-09)
(0.123953 0.0126251 -9.85442e-19 -0.123954 4.12755e-19 1.04419e-06)
(-0.124066 -0.0127314 -9.15186e-19 0.124067 1.24559e-18 -1.1322e-06)
(0.00757654 0.00990329 4.73144e-19 -0.00757631 -8.16599e-20 -2.30761e-07)
(0.0663723 0.0344661 -1.35718e-19 -0.0663736 -2.78582e-19 1.30824e-06)
(-0.0664904 -0.03443 -2.23664e-19 0.0664918 -3.8926e-20 -1.3962e-06)
(-0.00757945 -0.00993491 -3.04254e-19 0.00757931 -7.31704e-20 1.40625e-07)
(-0.0105661 0.0767205 1.10576e-18 0.0105664 -3.57651e-20 -2.74839e-07)
(0.0107325 -0.0767183 -1.11604e-18 -0.0107327 3.31022e-19 1.85826e-07)
(0.134401 0.0718268 6.86324e-20 -0.134402 -3.58598e-19 9.12177e-07)
(-0.134734 -0.0717496 4.87758e-19 0.134735 -9.02449e-19 -1.00031e-06)
(0.0097786 0.034829 6.24408e-19 -0.00977803 5.7682e-20 -5.69799e-07)
(-0.00964418 -0.0348045 1.91e-19 0.0096437 -6.86634e-20 4.80155e-07)
(-0.0461689 -0.0648205 2.52473e-19 0.0461702 -3.6107e-19 -1.23291e-06)
(0.046158 0.0648313 3.6159e-19 -0.0461591 -3.85889e-19 1.14428e-06)
(-0.0690805 -0.106679 5.94449e-20 0.0690814 -2.26114e-19 -9.06081e-07)
(-0.0255479 0.0839298 1.55454e-18 0.0255485 7.6009e-19 -5.8694e-07)
(0.025695 -0.083708 -1.35375e-18 -0.0256955 -6.53067e-20 4.99446e-07)
(0.0689786 0.106692 2.06907e-19 -0.0689794 -8.84622e-20 8.17394e-07)
(-0.0121895 0.0734109 1.39339e-18 0.01219 6.61919e-19 -5.06965e-07)
(0.0123036 -0.0732827 -1.31611e-18 -0.012304 -2.38572e-20 4.17955e-07)
(-0.0819495 -0.0951914 -1.47504e-19 0.0819505 -2.62522e-19 -9.80877e-07)
(0.0818255 0.0951928 3.06961e-19 -0.0818264 3.25492e-19 8.9205e-07)
(-0.013693 -0.0135965 -8.6543e-19 0.0136926 -2.51705e-19 4.27635e-07)
(0.0386331 0.0476694 5.21313e-20 -0.0386345 -6.32569e-21 1.33195e-06)
(0.0136539 0.0135953 -2.34387e-19 -0.0136534 -2.5399e-19 -5.16928e-07)
(-0.0385959 -0.0477396 -1.84032e-19 0.0385973 1.73314e-19 -1.42008e-06)
(-0.0145506 0.0377109 -1.95912e-19 0.0145499 -1.50269e-19 7.22656e-07)
(0.0145125 -0.0377371 6.65478e-19 -0.0145117 6.44524e-21 -8.11297e-07)
(0.0367358 -0.0457414 -4.0479e-20 -0.0367369 -1.49871e-19 1.05942e-06)
(-0.0367397 0.0456513 1.46709e-19 0.0367409 -2.56903e-19 -1.14793e-06)
(-0.0052196 0.0693599 6.81992e-19 0.00521996 7.91554e-20 -3.60853e-07)
(0.00536048 -0.0692936 -1.01724e-18 -0.00536075 1.73637e-20 2.71906e-07)
(-0.110325 -0.0798973 3.08226e-19 0.110326 -4.01093e-19 -1.02437e-06)
(0.11024 0.0797575 2.96649e-19 -0.110241 2.35849e-19 9.36546e-07)
(-0.00435434 0.0136994 1.3629e-19 0.00435428 -5.259e-20 6.08834e-08)
(0.0893055 0.00547855 -2.58005e-19 -0.0893067 -1.91385e-19 1.22423e-06)
(-0.0891898 -0.00536753 -2.5704e-19 0.0891911 -4.17902e-20 -1.31234e-06)
(0.00431627 -0.0137258 -3.46929e-19 -0.00431612 6.93833e-20 -1.49945e-07)
(-0.00289958 -0.0713234 -4.48696e-19 0.00290045 -7.58155e-20 -8.74599e-07)
(-0.031694 0.065579 5.12081e-19 0.0316948 7.02654e-20 -8.93177e-07)
(0.00323873 0.0715489 9.20862e-19 -0.00323952 -2.96287e-19 7.8628e-07)
(0.0320075 -0.0657281 -1.41701e-18 -0.0320083 -3.78613e-19 8.05015e-07)
(0.00850319 -0.0550411 -1.58639e-19 -0.00850386 3.78915e-19 6.71881e-07)
(0.0216257 0.0750921 8.6792e-19 -0.0216267 4.31224e-19 9.58918e-07)
(-0.00829402 0.0549719 5.52973e-19 0.00829478 -2.3827e-20 -7.59885e-07)
(-0.0219734 -0.0750935 1.11688e-19 0.0219744 -3.06692e-19 -1.04913e-06)
(-0.00685164 0.011285 -1.86343e-19 0.00685153 -1.23613e-20 1.14172e-07)
(0.00687425 -0.0113583 -5.81049e-19 -0.00687405 6.97647e-20 -2.04896e-07)
(0.0835832 -0.00101979 -2.12033e-19 -0.0835844 -1.20298e-19 1.25251e-06)
(-0.0834404 0.00115347 -2.46025e-19 0.0834417 -5.20206e-19 -1.34014e-06)
(0.0113487 0.0290171 -1.5508e-19 -0.011348 -2.36879e-19 -6.92098e-07)
(-0.0268771 -0.057909 -8.23338e-19 0.0268784 3.36036e-19 -1.30154e-06)
(-0.0113653 -0.0290283 -7.27118e-19 0.0113647 -1.46599e-19 6.0252e-07)
(0.0270093 0.0578422 5.55333e-19 -0.0270105 5.65247e-20 1.21309e-06)
(-0.0169888 0.0311649 1.47061e-19 0.0169883 -2.17698e-19 4.86487e-07)
(0.065562 -0.0422333 -8.92954e-19 -0.0655632 -3.29617e-19 1.10843e-06)
(0.0169149 -0.0311447 -4.56719e-19 -0.0169144 4.12103e-20 -5.75613e-07)
(-0.0654316 0.0422031 4.87479e-19 0.0654328 6.35747e-19 -1.1967e-06)
(-0.017863 0.0221627 -2.21093e-19 0.0178623 3.16064e-19 6.15415e-07)
(0.0418246 -0.0345634 -6.992e-19 -0.0418258 3.93902e-19 1.18102e-06)
(-0.0417502 0.0345874 5.62342e-19 0.0417515 1.39671e-19 -1.26804e-06)
(0.0178443 -0.0222241 5.67106e-19 -0.0178436 -2.1575e-19 -7.06845e-07)
(0.0360347 0.0896101 7.02517e-19 -0.0360355 2.7817e-19 8.69375e-07)
(0.0164803 -0.068169 -1.49503e-19 -0.0164809 -2.77612e-19 6.15245e-07)
(-0.0360979 -0.0894776 1.53941e-19 0.0360989 7.36192e-20 -9.58403e-07)
(-0.0162449 0.0682064 4.23287e-19 0.0162456 4.60176e-19 -7.03856e-07)
(-0.000465849 -0.0779593 -4.33189e-21 0.000466591 -4.78471e-19 -7.4201e-07)
(-0.0535844 0.0773254 5.3991e-19 0.0535853 -4.6291e-19 -9.02151e-07)
(0.0541104 -0.0773624 -8.01672e-19 -0.0541112 1.12761e-19 8.15945e-07)
(0.000484939 0.077989 8.36443e-19 -0.000485593 -4.31464e-19 6.53318e-07)
(0.00970936 0.0324692 -3.80117e-19 -0.00970866 7.33424e-20 -7.04373e-07)
(-0.026347 -0.0602671 -7.08195e-19 0.0263483 -3.14338e-20 -1.26786e-06)
(-0.00970474 -0.0324398 -9.19381e-19 0.00970412 2.30448e-19 6.14822e-07)
(0.0264976 0.0601785 -6.11268e-20 -0.0264988 -2.20515e-19 1.17955e-06)
(0.0510133 -0.0340732 -1.2432e-18 -0.0510145 -3.16911e-19 1.19382e-06)
(0.0171426 -0.0215616 9.40013e-19 -0.0171419 -3.39842e-19 -6.23019e-07)
(-0.0508486 0.0341307 9.49038e-19 0.0508499 1.43662e-20 -1.28112e-06)
(-0.0171717 0.0215242 3.04268e-19 0.0171712 9.67204e-20 5.32781e-07)
(0.00296724 -0.000476413 -3.53065e-19 -0.00296711 -6.517e-19 -1.26249e-07)
(0.0637685 0.00937008 -1.75301e-19 -0.0637698 -3.01461e-19 1.38022e-06)
(-0.0636852 -0.00926459 6.52583e-20 0.0636867 -2.05282e-19 -1.46754e-06)
(-0.00297778 0.000406296 -5.8715e-20 0.00297775 8.76429e-20 3.50158e-08)
(-0.00815733 0.0021909 -7.8004e-20 0.00815717 3.54295e-20 1.60537e-07)
(0.0652006 -0.0021739 -2.30338e-19 -0.065202 -4.30876e-19 1.35974e-06)
(0.00813896 -0.00224004 1.1776e-19 -0.00813871 -4.96117e-19 -2.51707e-07)
(-0.0650464 0.00226541 5.70335e-19 0.0650478 -4.42609e-19 -1.44698e-06)
(0.016515 -0.0161103 3.50943e-19 -0.0165145 -3.66692e-19 -5.42158e-07)
(-0.0558959 0.0279855 1.34246e-19 0.0558972 -9.63127e-20 -1.32549e-06)
(-0.016532 0.0160475 -2.67317e-19 0.0165316 9.44273e-20 4.51082e-07)
(0.0560494 -0.0278996 -1.24925e-18 -0.0560507 -4.79217e-20 1.23843e-06)
(-0.00201635 0.0597277 7.36916e-19 0.00201685 4.30863e-19 -5.02275e-07)
(0.0734882 0.0843813 4.06704e-19 -0.0734892 2.40015e-19 9.68876e-07)
(0.00207234 -0.0596642 -1.35945e-18 -0.00207276 -3.58111e-19 4.13169e-07)
(-0.0734782 -0.0844064 2.36678e-19 0.0734793 -1.74912e-19 -1.05744e-06)
(-0.11648 -0.151177 3.86534e-19 0.116481 -2.23366e-19 -7.20351e-07)
(0.125849 -0.120512 -1.4448e-18 -0.125849 3.85694e-19 5.33588e-07)
(-0.12543 0.120549 1.60567e-18 0.125431 4.7691e-19 -6.21711e-07)
(0.116413 0.15108 9.05327e-19 -0.116414 -8.50424e-19 6.31759e-07)
(0.0412218 -0.148932 -1.25178e-18 -0.0412218 5.93656e-19 5.37344e-08)
(0.183588 0.0456611 9.51619e-19 -0.183589 2.35421e-19 8.4517e-07)
(-0.0410143 0.148882 2.24062e-18 0.0410145 -1.74263e-19 -1.42367e-07)
(-0.183596 -0.0457728 6.36056e-19 0.183596 -2.48309e-19 -9.33654e-07)
(-0.000423137 -0.0555838 2.92941e-20 0.000424193 -1.98035e-19 -1.05571e-06)
(0.000380555 0.055621 -3.1472e-19 -0.00038152 4.17071e-19 9.64627e-07)