/*--------------------------------*- C++ -*----------------------------------*\
| =========                 |                                                 |
| \\      /  F ield         | foam-extend: Open Source CFD                    |
|  \\    /   O peration     | Version:  3.0                                   |
|   \\  /    A nd           | Web:         http://www.extend-project.de       |
|    \\/     M anipulation  |                                                 |
\*---------------------------------------------------------------------------*/
FoamFile
{
    version     2.0;
    format      ascii;
    class       volVectorField;
    location    "10";
    object      u;
}
// * * * * * * * * * * * * * * * * * * * * * * * * * * * * * * * * * * * * * //

dimensions      [0 0 0 0 0 0 0];

internalField   nonuniform List<vector> 
728
(
(1.02381 -0.00565901 3.86848e-19)
(1.02357 -0.00554295 3.06995e-19)
(1.01139 0.0103811 -1.72411e-18)
(1.01106 0.0110009 -2.51338e-18)
(1.41452 -0.0752484 -1.54245e-18)
(1.41496 -0.075497 2.04947e-18)
(0.597999 0.0078816 -6.53847e-17)
(0.600709 0.00435064 1.0147e-17)
(1.09821 0.102404 -1.2837e-17)
(1.01358 -0.0896576 4.62693e-18)
(1.10013 0.101869 5.41736e-18)
(1.0123 -0.0888073 -3.28964e-18)
(1.07173 0.0965082 -4.80138e-19)
(0.997474 -0.0820115 1.52844e-18)
(1.07387 0.0964432 9.15156e-18)
(0.996823 -0.0799331 -2.73196e-17)
(1.10719 -0.01146 -6.38874e-18)
(0.974819 0.00327323 -4.47696e-18)
(0.976097 0.00350018 -2.29676e-17)
(1.10651 -0.0114383 3.04995e-18)
(1.17837 0.0711001 8.25216e-18)
(0.951762 -0.0778655 2.87581e-18)
(0.946596 -0.0808661 -2.49536e-18)
(1.17867 0.0710276 4.52458e-19)
(1.78415 0.0796151 -1.01003e-17)
(0.563879 0.214949 4.56042e-17)
(0.563569 0.220985 -7.29388e-17)
(1.78401 0.0791148 -9.68487e-19)
(1.11833 -0.0189905 -6.48285e-18)
(0.955643 0.000542644 4.63419e-18)
(0.957597 0.000876862 2.47259e-17)
(1.11861 -0.0197103 4.56132e-18)
(1.23357 0.0766073 7.14388e-18)
(0.930035 -0.0272922 -2.60825e-18)
(0.927871 -0.0292665 -3.03168e-18)
(1.2344 0.0762364 1.52752e-18)
(0.995271 -0.0212119 2.52592e-17)
(1.0569 0.016307 4.68954e-18)
(0.994997 -0.0213356 -2.56997e-17)
(1.05675 0.0161898 1.34971e-17)
(1.12127 0.0420232 3.45193e-18)
(1.02184 -0.0787025 -8.38808e-18)
(1.1215 0.0416414 -9.59632e-18)
(1.02072 -0.0788568 3.74764e-17)
(1.09232 0.0366947 -1.32932e-17)
(0.988516 -0.0382021 9.74611e-18)
(1.09273 0.0360214 -1.10153e-18)
(0.989504 -0.0374035 -3.07321e-17)
(1.11449 -0.165183 6.92517e-18)
(0.991562 0.137412 -5.78114e-18)
(0.991488 0.13676 -1.07175e-18)
(1.11382 -0.164012 3.21736e-18)
(0.207805 0.234359 -8.31154e-17)
(1.52839 -0.216086 -1.11079e-18)
(0.212619 0.237309 -7.66811e-17)
(1.52814 -0.216444 1.94675e-18)
(1.05482 -0.0320494 9.12562e-19)
(0.999085 0.0253539 1.79126e-18)
(0.998889 0.0254116 2.32982e-18)
(1.0544 -0.0318134 -9.32752e-20)
(1.11622 0.0297919 -3.69133e-18)
(0.990682 -0.0494023 1.51341e-18)
(0.992134 -0.0508827 -5.54833e-19)
(1.1173 0.0299441 -1.0418e-18)
(1.01974 0.0365716 -1.6435e-17)
(1.04576 -0.0210253 -1.75409e-18)
(1.01956 0.0378816 5.95309e-18)
(1.0471 -0.0210422 1.19024e-17)
(1.47939 0.12309 1.11689e-18)
(1.47967 0.12353 -9.57551e-18)
(0.844877 -0.0806906 2.90749e-17)
(0.844693 -0.0793723 -1.02413e-16)
(1.0183 -0.00870693 3.05208e-19)
(1.05243 0.00986573 -2.76651e-18)
(1.05171 0.0102681 2.36327e-18)
(1.01821 -0.00874306 -6.19479e-19)
(1.13216 0.00707402 -3.69731e-18)
(0.983207 -0.0251934 -2.09636e-18)
(1.1331 0.00679672 -2.95935e-19)
(0.982232 -0.0242538 1.21477e-18)
(1.0296 -0.315464 -2.61784e-17)
(1.02967 -0.314151 6.56445e-18)
(1.12041 0.22272 -3.25218e-17)
(1.12131 0.223803 -1.34937e-17)
(1.02844 -0.00304861 -1.48784e-18)
(1.01655 0.00488045 2.16067e-17)
(1.02858 -0.00326746 -1.01849e-18)
(1.01653 0.0050145 -1.4355e-18)
(1.04855 -0.454767 -1.44843e-17)
(0.401364 0.429131 -3.93031e-17)
(1.04822 -0.454298 1.12922e-17)
(0.404732 0.434375 5.42289e-17)
(1.119 -0.278917 1.09252e-17)
(1.11909 -0.279015 -2.70999e-17)
(1.06373 0.235066 2.41599e-17)
(1.06968 0.235585 4.06662e-17)
(1.09129 0.125108 -3.34938e-18)
(0.988439 -0.123674 -1.6551e-17)
(1.09271 0.126599 -7.21485e-18)
(0.986481 -0.123287 -2.31627e-17)
(1.02683 -0.0208027 -6.39047e-18)
(1.02714 -0.0204982 -2.07878e-17)
(0.995685 0.0148397 -9.61278e-18)
(0.995149 0.0147568 -3.4536e-18)
(1.05179 -0.0437321 9.12967e-20)
(1.00928 0.0184785 1.66627e-17)
(1.0111 0.0166631 -1.61876e-18)
(1.05291 -0.043182 -9.47369e-18)
(1.02096 -0.00893852 -1.53947e-18)
(0.998882 0.0182215 6.14218e-18)
(1.02117 -0.00911706 -8.61872e-19)
(0.997555 0.0181173 -2.44527e-18)
(1.07718 -0.00425052 -2.90584e-19)
(0.992826 -0.00610491 9.39072e-18)
(1.0771 -0.00395354 -4.14079e-18)
(0.993144 -0.00515306 -1.80997e-18)
(1.02507 -0.0250288 -2.67644e-18)
(1.02499 -0.0254324 5.19608e-20)
(1.00706 0.0123666 8.76654e-18)
(1.0072 0.0128898 -1.52867e-18)
(1.04953 -0.0246335 1.44701e-18)
(1.01306 0.0205805 2.03878e-17)
(1.01262 0.02087 1.34464e-17)
(1.04871 -0.024067 3.35922e-18)
(1.078 0.094515 1.02756e-17)
(1.03738 -0.0742355 1.68828e-17)
(1.0817 0.0957475 2.07447e-17)
(1.03453 -0.0737681 -1.23841e-17)
(1.02107 -0.0512494 -3.74168e-18)
(1.01905 -0.0520328 -5.69741e-18)
(1.03114 0.0402095 -4.24701e-18)
(1.03221 0.0393745 -6.8089e-19)
(1.06513 -0.0203214 5.60533e-18)
(1.01592 0.00540509 -5.39445e-18)
(1.01601 0.00489082 6.02145e-18)
(1.06473 -0.0201678 -4.40551e-18)
(1.05663 -0.0422985 -2.69002e-19)
(1.0557 0.0348357 -1.99582e-18)
(1.05596 -0.0427732 -2.91932e-18)
(1.0551 0.0364781 -2.37111e-18)
(1.3065 0.111631 4.49603e-18)
(0.889483 -0.0851342 4.4157e-18)
(0.88536 -0.0839034 -3.55081e-18)
(1.30657 0.111995 4.46816e-18)
(1.08367 -0.0551953 -1.63758e-18)
(1.01098 0.0675597 -1.5322e-17)
(1.08258 -0.0561059 -8.6475e-18)
(1.01168 0.0668454 -1.0984e-17)
(1.07324 0.0275764 -6.85154e-18)
(1.00232 -0.020481 -2.02319e-17)
(1.00188 -0.0203621 1.65522e-17)
(1.07362 0.0267901 2.89263e-18)
(1.00546 0.00799708 5.64589e-19)
(1.00522 0.00782892 3.1802e-19)
(1.01907 -0.0280701 -1.31644e-18)
(1.01852 -0.0275104 2.03834e-18)
(1.07066 0.00891895 1.13723e-18)
(1.00132 -0.0064813 -1.39387e-19)
(1.07039 0.00922327 -1.97187e-19)
(1.00234 -0.00711013 3.77092e-18)
(0.750855 0.346106 2.55868e-17)
(1.29579 -0.239055 -2.04471e-18)
(0.745914 0.352136 3.11765e-18)
(1.29663 -0.238505 2.32142e-18)
(1.37213 -0.174445 -2.75286e-18)
(0.788235 0.108299 3.4328e-17)
(0.77677 0.107412 1.62384e-17)
(1.37121 -0.177628 5.68364e-18)
(0.999069 0.0501177 4.6078e-18)
(1.10071 -0.0471968 -7.78482e-18)
(1.00051 0.0500826 5.47056e-17)
(1.10138 -0.0470483 -1.22642e-17)
(1.02677 -0.059502 -5.12581e-19)
(1.02474 -0.0593057 -7.0784e-18)
(1.06284 0.0548653 4.98164e-19)
(1.06302 0.0550984 6.91478e-19)
(1.01748 0.00157986 1.87553e-19)
(1.01695 0.00131891 8.31737e-19)
(1.02479 -0.0148757 2.03104e-18)
(1.02529 -0.0152805 -9.36139e-19)
(0.989778 0.127896 1.85519e-17)
(0.989996 0.129342 -6.89437e-18)
(1.17702 -0.140243 4.23082e-18)
(1.17887 -0.139757 -2.72405e-19)
(1.52395 -0.274336 -7.1121e-18)
(0.686207 0.347274 1.94083e-17)
(0.678203 0.351146 -6.29066e-18)
(1.5233 -0.273299 1.36076e-17)
(1.15606 0.0594449 1.80148e-17)
(0.995536 -0.0495397 4.30788e-17)
(1.15645 0.059647 -4.9234e-18)
(0.994761 -0.0510031 -1.70896e-17)
(1.12471 0.0845036 7.11959e-18)
(0.994543 -0.0893074 -6.84813e-18)
(0.993667 -0.0889865 1.23638e-17)
(1.12495 0.085303 -8.44127e-18)
(1.02482 0.0042184 -5.53296e-18)
(1.01036 -0.00113791 -1.32119e-18)
(1.01035 -0.00121429 -1.9677e-17)
(1.02532 0.00409947 3.72505e-18)
(1.02227 0.00327631 9.03373e-18)
(0.991601 -0.00786911 -5.76908e-18)
(0.991633 -0.00783064 3.78549e-18)
(1.02201 0.00329146 6.30249e-18)
(1.06961 -0.0437045 6.36475e-18)
(1.01927 0.0576561 -1.99588e-18)
(1.06915 -0.0422208 1.88926e-17)
(1.02222 0.0580928 1.70802e-18)
(1.01547 0.0133848 2.23839e-17)
(0.998972 -0.0152563 2.78937e-17)
(0.998732 -0.0152202 -2.60085e-17)
(1.01563 0.013312 -2.1312e-17)
(1.00147 -0.0372991 3.001e-18)
(1.00185 -0.0374224 -8.42793e-18)
(1.09759 0.0306134 1.51424e-18)
(1.0974 0.0308106 -7.46473e-18)
(1.41313 -0.0364496 -2.50106e-18)
(0.765248 0.199198 1.31661e-16)
(0.772258 0.199558 1.23212e-18)
(1.41455 -0.0371458 3.21956e-18)
(1.04202 0.014084 -3.31465e-18)
(0.987873 -0.00988421 -2.1138e-17)
(0.988011 -0.0100565 2.26755e-17)
(1.04175 0.014084 9.91238e-18)
(1.16012 0.0216982 -1.65529e-18)
(1.16049 0.0221813 1.73802e-18)
(0.985319 -0.0451451 -1.73856e-18)
(0.985177 -0.0416789 2.77997e-18)
(1.02152 0.00710257 -5.04915e-18)
(1.05063 -0.0383431 6.61089e-19)
(1.05031 -0.0368216 -3.10628e-18)
(1.02326 0.00879576 4.45587e-18)
(1.05445 0.0031395 2.78111e-18)
(0.998994 -0.00648966 -1.00254e-17)
(1.05424 0.00327011 -5.55787e-19)
(0.998928 -0.00603609 -3.96412e-19)
(1.00531 0.0800461 2.95913e-17)
(1.1021 -0.0719758 -1.36712e-17)
(1.10301 -0.0717135 -4.25869e-18)
(1.00589 0.0820679 5.91003e-18)
(1.31801 0.0500111 1.00843e-17)
(1.31756 0.0502245 1.25934e-17)
(0.84396 -0.0814712 2.40328e-17)
(0.837447 -0.0797078 -3.95857e-17)
(1.46024 0.672498 2.24447e-17)
(0.748467 -0.509576 -2.38931e-17)
(1.46146 0.674216 1.70407e-17)
(0.74892 -0.511558 5.73425e-17)
(1.02682 -0.0468938 2.29245e-18)
(1.10272 0.0377102 -6.46211e-19)
(1.02757 -0.0464289 -1.03049e-17)
(1.1031 0.0378479 -1.86086e-18)
(1.39326 0.440896 8.71785e-18)
(0.638395 -0.533212 -3.80691e-17)
(1.39327 0.441623 3.24038e-17)
(0.639203 -0.531408 4.83701e-18)
(1.05055 -0.0138363 -1.06642e-18)
(1.00283 0.00709876 1.2327e-17)
(1.05067 -0.0140654 -5.11418e-19)
(1.00302 0.00707385 2.39614e-18)
(0.989928 -0.0549173 -6.8667e-18)
(1.19917 0.0916419 1.31219e-17)
(0.990144 -0.0526139 -1.74643e-17)
(1.20031 0.0924314 -1.76297e-19)
(1.02036 0.0569643 1.14716e-17)
(1.06362 -0.0603037 2.62172e-18)
(1.06429 -0.0621108 2.07375e-17)
(1.02436 0.0565538 4.24031e-18)
(1.23243 0.230946 5.84178e-18)
(1.23314 0.230229 -4.12743e-18)
(0.843544 -0.174162 -3.21533e-20)
(0.842986 -0.174608 -5.19948e-18)
(0.991176 0.00224361 5.67682e-19)
(1.02142 -0.00409168 1.08626e-18)
(1.02121 -0.00423289 -2.61431e-18)
(0.991155 0.00221556 -2.13728e-17)
(1.02448 -0.0299464 -1.12651e-18)
(1.0235 0.0163921 -3.54014e-19)
(1.02445 0.0161416 1.02551e-18)
(1.02479 -0.0295283 8.9947e-19)
(1.14011 0.037466 -5.20438e-18)
(0.970087 -0.0464275 -3.07187e-18)
(1.13933 0.0374121 2.45597e-18)
(0.967056 -0.0477373 1.12789e-17)
(1.07537 -0.0122882 -4.16637e-18)
(0.96834 0.00834043 -1.26152e-17)
(0.969412 0.00910608 -5.23994e-18)
(1.07539 -0.0124345 3.64909e-18)
(1.03888 0.0775834 -1.61847e-17)
(1.09196 -0.0716911 3.43537e-18)
(1.09441 -0.0717455 1.39485e-19)
(1.03897 0.0796668 8.68049e-18)
(1.01392 0.00156913 -3.26805e-19)
(1.01004 -0.0126139 -4.46631e-18)
(1.01025 -0.0128205 5.84519e-18)
(1.01457 0.00179639 -2.90732e-19)
(1.00895 0.00382089 -1.29785e-18)
(1.02086 0.00205001 -2.19762e-18)
(1.00884 0.00372957 -2.4661e-19)
(1.02111 0.00203428 1.03699e-19)
(1.03599 0.0239573 -2.84502e-18)
(1.00457 -0.02081 -8.69191e-18)
(1.00425 -0.0202983 1.06648e-17)
(1.03632 0.0240263 7.29411e-18)
(1.3441 0.0260867 -3.12197e-19)
(1.3448 0.0250757 8.77986e-19)
(0.925061 -0.016191 -4.55553e-17)
(0.917155 -0.0190646 4.70957e-17)
(1.09702 0.013523 -6.45259e-18)
(0.9764 -0.0211126 -1.08791e-18)
(0.975602 -0.0210543 2.39899e-19)
(1.09749 0.0131042 -5.81742e-19)
(1.372 0.38457 -2.64572e-18)
(1.37253 0.38278 -1.16777e-17)
(0.752621 -0.166962 -3.54994e-17)
(0.750614 -0.165593 1.51944e-17)
(1.1246 0.0735623 -5.52792e-18)
(1.12487 0.0735513 9.92174e-18)
(0.996264 -0.0581132 -1.75444e-17)
(0.998434 -0.0590988 4.29775e-18)
(0.883683 -0.347091 -5.27381e-18)
(1.14193 0.275115 -2.35474e-17)
(1.14228 0.274711 -1.12136e-17)
(0.882357 -0.347346 2.8651e-18)
(1.24434 0.199168 -1.30944e-17)
(1.24549 0.200687 -1.35456e-17)
(0.974053 -0.227923 4.48912e-18)
(0.974091 -0.227737 -4.0313e-18)
(1.01909 0.00503759 6.17589e-19)
(1.00358 -0.0023434 -3.0328e-18)
(1.01884 0.00487276 1.71851e-18)
(1.00353 -0.0024799 2.79844e-18)
(1.07627 -0.0426429 -1.0582e-19)
(1.07567 -0.0427326 -1.25141e-17)
(1.00498 0.0457009 2.49591e-17)
(1.00367 0.0445513 1.50423e-18)
(1.22447 0.268214 2.02706e-17)
(1.22467 0.267685 -6.82845e-18)
(0.780917 -0.253628 4.61195e-18)
(0.781925 -0.253842 -2.44402e-17)
(1.16853 -0.0243988 -2.93244e-19)
(0.918256 -0.0179696 4.36274e-19)
(0.921349 -0.015474 7.85851e-18)
(1.16899 -0.0242931 2.25579e-19)
(1.12573 -0.153227 2.01437e-17)
(1.03794 0.16301 -1.48187e-17)
(1.12445 -0.152722 9.57035e-18)
(1.03862 0.164761 -4.99792e-17)
(1.05456 0.140652 2.08897e-17)
(1.02871 -0.148764 2.22507e-17)
(1.05861 0.138586 -7.90979e-18)
(1.0273 -0.150145 1.64865e-17)
(1.14648 -0.0166743 4.99949e-18)
(1.14696 -0.0161941 -4.56065e-18)
(0.945867 -0.000297069 9.14211e-19)
(0.947294 0.000123687 2.34164e-17)
(1.04737 0.0537091 1.00574e-17)
(0.997243 -0.0505901 1.27652e-17)
(1.04645 0.0546 -3.76511e-18)
(0.996579 -0.049867 3.55973e-18)
(1.1238 -0.0672966 6.19655e-18)
(0.986655 0.0677591 -1.18274e-17)
(1.12383 -0.0675785 5.16839e-18)
(0.986391 0.0644551 -1.08275e-17)
(1.02485 -0.0116555 -4.35829e-19)
(0.998803 0.0138976 -1.37709e-17)
(0.999284 0.0135118 -3.67681e-18)
(1.02502 -0.0113731 -2.21881e-18)
(1.03005 -0.219908 3.89357e-19)
(1.07549 0.183426 -1.13806e-18)
(1.03081 -0.218777 -7.01869e-19)
(1.07649 0.181601 5.94559e-18)
(1.13932 -0.18964 -3.4677e-18)
(1.01794 0.230682 1.40314e-17)
(1.0165 0.233257 -1.29986e-18)
(1.13883 -0.190001 8.41507e-18)
(1.05972 0.0593652 2.10686e-17)
(1.00947 -0.0663796 2.50297e-18)
(1.05999 0.0601702 -1.83121e-17)
(1.00883 -0.0659481 -1.83609e-17)
(1.00156 0.0214129 2.51592e-18)
(1.06272 -0.031788 -9.90371e-18)
(1.00247 0.0212409 -2.86121e-17)
(1.06242 -0.0312576 8.95839e-18)
(1.02403 -0.00476929 -4.35151e-18)
(0.994732 -0.0122465 6.69577e-18)
(0.994832 -0.0122393 1.65442e-20)
(1.0242 -0.0050789 2.51172e-18)
(1.05173 -0.00373374 3.19156e-18)
(0.996758 -0.0062585 9.28981e-19)
(1.05176 -0.00381484 -1.67111e-18)
(0.996739 -0.0060755 3.45566e-18)
(1.06412 -0.026204 1.7861e-19)
(0.993489 -0.00614206 2.22522e-17)
(1.06324 -0.0264296 -4.39729e-19)
(0.994266 -0.00613091 -4.20252e-17)
(1.16061 0.186601 -4.51998e-18)
(0.960394 -0.194032 7.75701e-18)
(1.16128 0.186683 -2.43751e-17)
(0.961267 -0.19382 3.51143e-17)
(0.804934 -0.527819 1.78633e-17)
(0.597846 0.661998 3.41364e-18)
(0.598309 0.66473 7.48975e-19)
(0.80477 -0.528395 -1.73335e-17)
(1.52812 0.228963 -2.93921e-18)
(0.205864 -0.255817 7.57142e-17)
(1.52814 0.228326 -3.28261e-17)
(0.206462 -0.253715 2.23519e-17)
(1.05465 -0.0748671 -1.44147e-18)
(1.05469 -0.0743614 -5.79526e-18)
(1.04302 0.0535905 9.41743e-19)
(1.04319 0.0518726 -1.99596e-17)
(1.11974 -0.00042879 1.73511e-18)
(1.11989 -0.00143765 -1.28131e-18)
(1.00174 -0.0345867 -5.33511e-18)
(1.0016 -0.0337497 1.74723e-18)
(1.17583 0.153505 -8.89582e-19)
(0.935678 -0.192263 -3.76369e-18)
(0.936601 -0.190515 -2.4084e-17)
(1.17633 0.152767 4.55164e-18)
(1.05785 -0.00961158 -1.89285e-18)
(1.00302 0.0210724 -3.21465e-17)
(1.05803 -0.0099122 -3.73335e-19)
(1.0023 0.0212933 3.45773e-17)
(1.06833 -0.0113173 4.65567e-18)
(0.979324 0.00934486 4.74376e-18)
(1.06836 -0.0114349 -3.55953e-18)
(0.979839 0.00912139 -5.20279e-18)
(1.07844 -0.000421906 -2.69376e-18)
(1.07881 -0.000561813 -2.01099e-18)
(1.01123 -0.00669146 3.97018e-19)
(1.01103 -0.0061217 8.27395e-18)
(1.02458 -0.00362445 -7.68196e-19)
(1.01315 0.00544081 -3.49118e-18)
(1.01313 0.00561821 -2.08558e-18)
(1.02493 -0.00372094 -2.51205e-18)
(1.02275 0.00329865 -2.41257e-17)
(1.01074 -0.00077331 -2.7416e-18)
(1.01065 -0.000768298 6.92854e-18)
(1.02318 0.00344072 -5.394e-18)
(1.02092 -0.0254902 -1.33668e-18)
(1.00691 0.0144759 6.69359e-19)
(1.0201 -0.025713 1.34997e-18)
(1.00617 0.0147856 1.22637e-18)
(1.02643 0.116533 3.44902e-17)
(1.08043 -0.0994792 3.95538e-18)
(1.02585 0.115574 1.42892e-17)
(1.08506 -0.0999474 -1.85025e-18)
(0.957891 -0.0423472 6.80002e-18)
(1.17941 0.0175522 8.55939e-19)
(1.17868 0.0169888 -2.04534e-19)
(0.961394 -0.0421864 -3.47549e-18)
(1.01873 -0.0118689 -2.72139e-19)
(1.01224 0.0113216 -7.80337e-19)
(1.01867 -0.0116818 1.47439e-18)
(1.01209 0.0109679 2.15934e-18)
(1.1527 -0.0490586 -1.82575e-18)
(1.15201 -0.0493642 3.86474e-18)
(0.963397 0.0534116 -2.30352e-17)
(0.966793 0.0535037 -2.73308e-18)
(1.00418 0.0473894 1.32375e-17)
(1.08384 -0.0351906 -6.76804e-18)
(1.00294 0.0461677 3.00809e-17)
(1.08427 -0.0354566 -2.18159e-18)
(1.23203 -0.00147749 1.52118e-18)
(0.910888 0.00862464 -4.05817e-18)
(1.23246 -0.00167017 -3.27559e-18)
(0.906604 0.00723108 7.82318e-18)
(0.974223 0.0291559 -8.47773e-18)
(0.978164 0.0270956 -1.58935e-18)
(1.11712 -0.0490206 -3.54226e-18)
(1.11757 -0.0495104 -1.8026e-19)
(1.02539 0.0906537 9.94176e-20)
(1.02471 -0.0894352 -2.55934e-17)
(1.02545 0.087988 1.99071e-17)
(1.02919 -0.0882711 -1.26062e-17)
(1.02059 0.0145165 -3.32689e-20)
(1.00448 -0.0065851 6.10874e-18)
(1.00439 -0.0063864 -7.29835e-18)
(1.02065 0.0145026 4.78925e-18)
(1.069 0.12644 -1.03851e-17)
(1.05028 -0.109225 -6.88668e-18)
(1.04656 -0.107164 4.21342e-17)
(1.06573 0.129235 -2.57207e-17)
(1.0168 0.0032262 -1.2164e-18)
(0.99691 -0.000178247 9.38262e-18)
(1.01734 0.00325147 -6.21058e-18)
(0.996928 -0.000169191 -1.12922e-17)
(0.988943 0.0137458 -3.37197e-18)
(0.98607 0.0162064 7.5549e-19)
(1.13042 -0.0285733 -3.2645e-18)
(1.13074 -0.0294267 9.7017e-19)
(0.954413 -0.00227498 -3.87457e-18)
(1.2279 0.0392997 3.32412e-18)
(1.22768 0.0384976 -5.0525e-19)
(0.950239 -0.00441332 7.27695e-18)
(1.00405 0.0907138 9.54525e-18)
(1.12496 -0.105221 -3.90677e-18)
(1.12359 -0.106149 -1.01833e-17)
(1.00539 0.0900382 2.58731e-17)
(1.0109 0.00366188 5.92149e-18)
(1.00444 -0.0161685 -9.4493e-18)
(1.01063 0.00333471 -4.20671e-18)
(1.00446 -0.0160572 9.35383e-18)
(1.27403 0.310076 -3.63337e-17)
(0.954842 -0.514387 3.94945e-18)
(1.2688 0.304744 -6.2922e-17)
(0.95343 -0.515784 -2.6819e-17)
(1.04622 0.139067 -9.42681e-18)
(1.03176 -0.216787 5.8988e-18)
(1.04569 0.140131 4.43185e-17)
(1.02703 -0.215186 -2.73033e-18)
(0.789449 -0.000253768 1.77318e-17)
(1.32337 -0.0837124 -5.46796e-18)
(0.789343 -0.000747145 -2.38574e-17)
(1.32277 -0.0844389 -3.25784e-18)
(0.997418 0.00161963 9.78249e-18)
(0.997436 0.00167368 1.05954e-18)
(1.01181 0.000748623 -2.55601e-18)
(1.01217 0.000831843 2.46872e-19)
(0.997319 -0.0326757 5.41095e-17)
(1.06656 0.029183 2.27232e-18)
(0.99793 -0.0316228 -7.6276e-19)
(1.06637 0.0294629 -4.8207e-18)
(0.918895 0.0483442 -5.07057e-18)
(1.15528 -0.0723206 -4.23846e-18)
(0.920589 0.0465467 1.2869e-18)
(1.15464 -0.0722592 3.48802e-18)
(1.01395 -0.00523086 1.08461e-18)
(1.0003 0.00782548 2.16634e-18)
(1.01362 -0.00512805 -2.51451e-18)
(1.0003 0.00733631 -1.28847e-17)
(1.01475 -0.048179 1.63829e-19)
(1.02508 0.0424773 2.45242e-18)
(1.01603 -0.0461344 -3.66161e-18)
(1.02295 0.0427723 -4.57238e-18)
(1.02078 -0.0284925 1.26286e-18)
(1.03987 0.0387963 -2.23252e-18)
(1.02047 -0.0275153 -1.98566e-18)
(1.04153 0.0392521 2.23022e-18)
(0.991009 -0.0608254 -5.62368e-18)
(1.09019 0.0566966 -2.01462e-18)
(0.989999 -0.0617369 -1.31808e-17)
(1.09043 0.0556325 -3.51071e-18)
(0.997553 -0.0739248 -4.04846e-18)
(1.07956 0.0800668 7.08765e-18)
(1.0791 0.0783003 -1.00763e-17)
(0.997057 -0.0730452 1.48945e-17)
(1.26453 -0.0385397 -4.93328e-18)
(1.26377 -0.0398868 -5.92148e-18)
(0.869696 0.021911 3.45055e-17)
(0.875446 0.0222453 -4.45107e-18)
(1.22782 -0.0299662 -2.86924e-18)
(0.889035 0.00572301 5.97209e-18)
(1.22713 -0.0305068 -2.09681e-18)
(0.892653 0.00873564 -1.1362e-20)
(1.0051 -0.0107151 -2.15137e-17)
(1.02299 0.00515865 1.50773e-18)
(1.02304 0.00491333 -3.48318e-19)
(1.00512 -0.0108319 2.12991e-17)
(1.15349 -0.345388 8.39179e-18)
(1.15263 -0.343365 -2.31085e-17)
(1.04242 0.295821 -1.53354e-18)
(1.04176 0.298328 6.02159e-19)
(1.14347 0.452888 2.86168e-17)
(1.14606 0.452928 -9.62464e-18)
(1.15111 -0.40743 -4.97883e-18)
(1.14996 -0.40896 2.93679e-17)
(1.03253 0.0153932 2.38998e-18)
(1.00951 -0.0274789 -1.63178e-17)
(1.0094 -0.0268851 9.83737e-18)
(1.03248 0.015451 -1.19814e-18)
(1.04991 0.0272056 1.43363e-18)
(1.00932 -0.0234572 -5.53521e-18)
(1.00968 -0.0229818 1.46021e-18)
(1.05023 0.027084 -1.42572e-17)
(1.23663 -0.092316 -6.39542e-19)
(0.886602 0.0701218 -1.77452e-17)
(1.23566 -0.0948049 -5.61202e-18)
(0.884153 0.0655994 1.13902e-17)
(0.948284 0.0590198 -1.45408e-17)
(0.948793 0.0625144 2.47124e-17)
(1.20088 -0.0646982 -1.86213e-18)
(1.20014 -0.0649384 -5.86747e-19)
(1.002 -0.00449824 2.24124e-18)
(1.00205 -0.00465845 -1.68417e-18)
(1.01439 0.00725935 5.7773e-18)
(1.01403 0.00713204 1.38972e-18)
(1.02497 -0.00527205 6.96033e-19)
(0.991734 0.0045973 -1.19779e-18)
(0.990988 0.00517363 1.15225e-17)
(1.02465 -0.0052191 -2.98184e-18)
(1.18548 -0.560349 1.17604e-17)
(0.789607 0.484155 -1.89371e-17)
(0.793256 0.48905 -1.83293e-17)
(1.18438 -0.560027 9.58119e-18)
(1.16831 -0.0229633 3.78867e-18)
(0.884808 2.79162e-05 8.02954e-19)
(1.16745 -0.023283 -4.52522e-19)
(0.889738 0.000868024 2.70929e-18)
(1.0411 0.0378087 1.20138e-17)
(1.03984 0.0381561 1.06093e-18)
(1.00253 -0.0420378 1.9761e-17)
(1.00179 -0.0413412 2.34501e-17)
(1.00333 0.00426846 -1.01774e-19)
(1.01032 -0.0170175 -1.21317e-18)
(1.00392 0.0048192 3.45643e-19)
(1.01015 -0.0165255 2.08199e-18)
(1.15143 -0.0861965 -2.29743e-18)
(0.982088 0.0680534 2.22054e-17)
(1.15156 -0.0859419 -1.12695e-18)
(0.982102 0.0694332 5.02967e-18)
(1.00092 0.00607054 2.17299e-17)
(1.05285 -0.00753859 4.26255e-18)
(1.00033 0.00635775 -2.30356e-17)
(1.05299 -0.00752488 -6.34237e-18)
(0.944509 0.116868 6.47485e-18)
(1.19007 -0.114988 2.13979e-18)
(0.94707 0.117831 -5.01334e-18)
(1.18841 -0.115334 2.90279e-18)
(0.950437 0.0752436 5.85483e-18)
(1.18427 -0.104851 1.39881e-18)
(1.18634 -0.105954 -5.90991e-18)
(0.952414 0.07859 5.09853e-17)
(1.01913 -0.031653 2.09952e-17)
(1.079 0.0306043 4.04492e-18)
(1.07888 0.0309433 -5.18901e-18)
(1.01877 -0.0306757 3.52244e-18)
(1.03863 -0.0658059 -1.17001e-18)
(1.00891 0.0468446 -5.31768e-18)
(1.03964 -0.0651726 -4.0864e-18)
(1.00763 0.0483874 -2.3757e-18)
(1.29761 -0.271732 2.95169e-18)
(0.954449 0.351828 -1.47309e-18)
(0.953776 0.349808 3.19933e-17)
(1.29948 -0.272386 7.15416e-19)
(1.22584 -0.193532 -8.44811e-18)
(0.900023 0.244145 -1.99237e-17)
(0.902043 0.241442 7.2498e-18)
(1.22505 -0.193318 3.6195e-18)
(1.16183 0.0564754 -1.32379e-18)
(0.963293 -0.0612237 -4.86943e-18)
(0.96133 -0.0625013 8.74489e-18)
(1.16208 0.0561899 9.92088e-19)
(0.796296 0.753121 2.03387e-17)
(1.36791 -0.65303 8.91109e-18)
(0.798641 0.757765 1.43762e-18)
(1.36853 -0.653255 -2.40531e-17)
(1.0217 -0.0414159 -1.19469e-17)
(1.02303 0.0343622 1.63487e-18)
(1.02291 -0.0413848 -1.42005e-17)
(1.02385 0.0352878 -1.94159e-17)
(1.27681 -0.102466 6.16655e-19)
(0.83926 0.148923 -3.55376e-17)
(0.841606 0.146198 -2.58257e-17)
(1.2791 -0.101696 1.13547e-18)
(1.24011 -0.144087 1.64714e-18)
(0.945253 0.162163 1.34926e-17)
(0.94558 0.160298 -3.17513e-18)
(1.24234 -0.145903 3.45856e-18)
(1.0819 -0.0180533 -3.82526e-19)
(1.08136 -0.0179478 -4.25887e-18)
(1.00015 0.00560899 -8.64351e-18)
(0.999118 0.00717808 1.02916e-17)
(0.954605 0.038927 -2.41243e-18)
(1.18971 -0.0352636 4.36081e-18)
(0.958461 0.0405771 8.25147e-19)
(1.18846 -0.0363186 1.64797e-18)
(1.01025 0.0196181 -1.98326e-18)
(1.01096 0.0198438 6.06351e-19)
(1.00574 -0.019806 4.74035e-18)
(1.00545 -0.0202353 -4.33764e-18)
(1.04587 0.0226057 7.49936e-18)
(1.01141 -0.0221689 -1.352e-17)
(1.04553 0.0224767 -8.59731e-18)
(1.01125 -0.0214701 -2.85854e-18)
(1.03136 0.0219834 5.27223e-19)
(1.01351 -0.0326719 -2.73036e-18)
(1.01409 -0.0320532 -6.17894e-19)
(1.0314 0.0221681 -2.91848e-18)
(1.08146 -0.0192349 -3.15748e-18)
(1.08082 -0.0199516 -2.46812e-18)
(1.00823 0.0215468 -6.14108e-18)
(1.00548 0.0208914 -9.44134e-19)
(1.03482 -0.178786 -1.04842e-19)
(1.03632 -0.178791 -6.09405e-19)
(1.14921 0.147865 1.82647e-18)
(1.14809 0.148647 -1.39523e-17)
(1.02834 -0.156287 -5.52887e-18)
(1.10229 0.111665 -1.95248e-17)
(1.02779 -0.155553 -2.35653e-18)
(1.1028 0.111735 8.18149e-18)
(1.10458 -0.0242217 -1.44273e-19)
(0.983402 0.00723644 9.60421e-18)
(1.10421 -0.0237133 -3.14155e-18)
(0.980736 0.00797833 1.25054e-18)
(1.00311 -0.161192 -1.72139e-18)
(1.00187 -0.161032 6.91882e-18)
(1.12765 0.102527 -1.49761e-17)
(1.12799 0.103139 1.8253e-18)
(1.14538 -0.041035 3.83216e-18)
(0.958391 0.0151231 -7.48388e-19)
(0.961054 0.0149495 -1.23513e-17)
(1.14545 -0.0414677 -4.02571e-18)
(0.944961 -0.161224 -3.19495e-17)
(1.13301 0.11944 4.53466e-18)
(0.943722 -0.160231 -1.57459e-17)
(1.13308 0.118483 -2.29821e-17)
(1.00693 0.00166868 -1.09439e-17)
(1.05056 0.00377838 -1.12155e-17)
(1.00691 0.0012858 3.60141e-17)
(1.05115 0.00397693 -8.58804e-18)
(1.0967 -0.032233 -5.04703e-18)
(0.998389 0.0372206 -1.60687e-17)
(1.00106 0.0357224 -9.6572e-18)
(1.09657 -0.0318767 -2.72023e-18)
(0.9828 -0.0127758 8.29889e-18)
(1.05845 0.0163149 1.42305e-18)
(1.05846 0.0167045 -2.26751e-18)
(0.982574 -0.012554 5.07746e-18)
(0.980292 -0.0288338 -4.18603e-18)
(1.07796 0.0162427 -1.00056e-17)
(1.07805 0.0158357 -2.74676e-18)
(0.979925 -0.0285617 2.15727e-18)
(1.07129 0.0184593 -2.16004e-19)
(0.983079 -0.0325575 -1.97398e-17)
(1.07146 0.0190985 -5.86562e-18)
(0.982761 -0.0325413 4.39287e-18)
)
;

boundaryField
{
    insideCircle
    {
        type            fixedValue;
        value           uniform (0 0 0);
    }
    outsideCircle
    {
        type            fixedValue;
        value           uniform (1 0 0);
    }
    topAndBottom
    {
        type            empty;
    }
}


// ************************************************************************* //
