/*--------------------------------*- C++ -*----------------------------------*\
| =========                 |                                                 |
| \\      /  F ield         | foam-extend: Open Source CFD                    |
|  \\    /   O peration     | Version:  3.0                                   |
|   \\  /    A nd           | Web:         http://www.extend-project.de       |
|    \\/     M anipulation  |                                                 |
\*---------------------------------------------------------------------------*/
FoamFile
{
    version     2.0;
    format      ascii;
    class       volScalarField;
    location    "74";
    object      p;
}
// * * * * * * * * * * * * * * * * * * * * * * * * * * * * * * * * * * * * * //

dimensions      [0 0 0 0 0 0 0];

internalField   nonuniform List<scalar> 
2688
(
-0.2321523938
-0.2129130102
-0.2013874843
-0.1882259299
-0.1809621087
-0.171619646
-0.1670871773
-0.1603128099
-0.1575975115
-0.1526233662
-0.1511252406
-0.147435437
-0.1467234798
-0.1439390259
-0.143672601
-0.1414876043
-0.1413689751
-0.1395110737
-0.139253207
-0.1374555616
-0.1367573852
-0.1347357993
-0.1332604083
-0.1306914199
-0.2314044336
-0.2122264972
-0.2007377458
-0.1876180563
-0.1803770197
-0.1710640396
-0.166545434
-0.159792214
-0.1570848175
-0.1521259637
-0.1506316958
-0.1469529867
-0.1462422379
-0.1434659054
-0.143199152
-0.1410202907
-0.1409007908
-0.1390479373
-0.1387896801
-0.1369969204
-0.13629995
-0.1342840543
-0.1328126818
-0.1302513711
-0.2299388031
-0.2108814411
-0.1994646741
-0.1864273131
-0.1792315847
-0.1699768921
-0.1654864718
-0.1587753709
-0.1560847665
-0.1511566807
-0.1496715744
-0.1460155269
-0.1453090144
-0.1425496145
-0.1422842917
-0.1401185403
-0.1399994997
-0.1381576271
-0.1379006178
-0.1361183837
-0.1354252746
-0.1334212954
-0.131958474
-0.1294128889
-0.2277406352
-0.2088649196
-0.1975568357
-0.1846436163
-0.1775161493
-0.1683494332
-0.1639013401
-0.1572538741
-0.1545883282
-0.149706792
-0.1482351352
-0.1446134223
-0.1439128229
-0.1411791254
-0.1409154067
-0.1387696154
-0.1386507072
-0.1368256267
-0.1365700447
-0.1348039608
-0.1341165048
-0.1321307633
-0.1306811285
-0.1281590829
-0.2248337906
-0.2061980995
-0.1950335577
-0.1822843359
-0.1752471666
-0.1661966518
-0.161804726
-0.155241309
-0.1526092233
-0.1477891845
-0.1463357759
-0.1427594616
-0.1420672877
-0.1393676339
-0.1391067718
-0.1369874953
-0.136869581
-0.1350668864
-0.1348139888
-0.1330694858
-0.1323900911
-0.1304286997
-0.1289966368
-0.1265059016
-0.221212817
-0.2028766939
-0.1918915451
-0.1793471998
-0.1724229638
-0.1635178021
-0.1591961921
-0.152738089
-0.1501479537
-0.1454051419
-0.1439746551
-0.1404555054
-0.1397739295
-0.1371172712
-0.1368599827
-0.1347742864
-0.13465756
-0.1328832593
-0.1326336466
-0.1309164827
-0.1302471773
-0.1283164805
-0.1269065919
-0.1244550032
-0.2169014236
-0.1989217524
-0.1881498499
-0.1758490927
-0.169059003
-0.1603264823
-0.1560883125
-0.1497551243
-0.1472146891
-0.1425633198
-0.1411599285
-0.1377083311
-0.1370392544
-0.1344333078
-0.1341802558
-0.132134135
-0.1320189206
-0.1302781538
-0.1300326619
-0.1283479731
-0.1276909608
-0.1257969318
-0.1244136976
-0.122008706
-0.2119030972
-0.1943371511
-0.1838131057
-0.1717953905
-0.1651614851
-0.1566298774
-0.1524891272
-0.146301619
-0.1438195063
-0.1392750847
-0.137903812
-0.134531506
-0.1338775944
-0.1313314105
-0.1310838683
-0.1290845363
-0.1289715466
-0.1272704389
-0.1270300166
-0.1253835863
-0.1247408904
-0.1228897742
-0.1215372834
-0.1191864952
-0.2062414728
-0.1891439227
-0.1789001308
-0.1672025261
-0.1607449272
-0.152440227
-0.1484091445
-0.1423858457
-0.139969054
-0.1355448691
-0.1342092066
-0.1309257528
-0.1302882657
-0.1278088114
-0.127566834
-0.1256196091
-0.1255086121
-0.1238517073
-0.1236167549
-0.12201323
-0.1213869156
-0.1195843816
-0.1182675497
-0.1159785227
-0.1999285184
-0.1833536559
-0.1734230732
-0.1620831216
-0.1558229891
-0.1477722367
-0.1438644431
-0.1380253571
-0.1356825164
-0.1313936519
-0.1300988904
-0.1269158525
-0.126297897
-0.1238942088
-0.1236595976
-0.121771745
-0.1216639633
-0.1200573848
-0.119829192
-0.1182741636
-0.1176661948
-0.1159180151
-0.1146401927
-0.112420025
-0.1929880117
-0.1769875858
-0.1674007328
-0.1564533847
-0.1504095057
-0.1426370752
-0.1388638096
-0.1332261688
-0.1309634677
-0.1268221326
-0.1255710725
-0.1224970817
-0.1218992956
-0.1195775197
-0.1193497493
-0.1175258458
-0.117420498
-0.1158680913
-0.1156465423
-0.1141439382
-0.1135558811
-0.111866907
-0.1106324264
-0.1084877148
-0.1854396307
-0.1700642977
-0.1608520687
-0.1503324897
-0.1445248637
-0.1370562145
-0.1334305337
-0.1280133076
-0.1258392262
-0.1218598653
-0.1206579414
-0.117704212
-0.1171300495
-0.114899077
-0.1146804194
-0.1129277019
-0.1128265168
-0.1113343886
-0.1111212043
-0.1096764806
-0.1091105237
-0.1074861913
-0.1062982863
-0.1042360142
-0.1773077197
-0.1626056211
-0.1537962719
-0.1437368482
-0.1381827127
-0.1310403052
-0.1275723409
-0.122391277
-0.1203111741
-0.1165048043
-0.1153541576
-0.1125283342
-0.1119778709
-0.1098430114
-0.1096324304
-0.1079547579
-0.1078564753
-0.1064278539
-0.1062224701
-0.104839016
-0.1042962993
-0.1027409433
-0.101603512
-0.09962944307
-0.1686186044
-0.1546361651
-0.146258141
-0.136691224
-0.131409136
-0.1246165088
-0.1213185331
-0.1163912897
-0.1144133131
-0.1107935064
-0.1096995604
-0.1070123104
-0.1064892176
-0.1044590592
-0.1042591935
-0.1026636797
-0.102570463
-0.1012114622
-0.1010160065
-0.09969936702
-0.09918234508
-0.09770145784
-0.09661771765
-0.0947385732
-0.159397791
-0.1461788932
-0.1382578305
-0.1292128298
-0.124218295
-0.1177957358
-0.1146767062
-0.1100173922
-0.1081460833
-0.1047225858
-0.1036868843
-0.1011448409
-0.1006487224
-0.09872775677
-0.09853716547
-0.09702701456
-0.09693724348
-0.0956506015
-0.09546420557
-0.09421745765
-0.09372706855
-0.09232476769
-0.09129855353
-0.08951932394
-0.1496769458
-0.1372632504
-0.1298247856
-0.1213308351
-0.116640694
-0.1106094962
-0.1076806752
-0.1033053627
-0.1015483408
-0.09833360809
-0.0973613852
-0.09497444481
-0.09450902081
-0.09270532133
-0.09252684558
-0.09110885178
-0.09102496249
-0.0898166403
-0.08964168558
-0.08847038764
-0.0880092134
-0.08669111028
-0.08572550285
-0.08405283966
-0.1394834516
-0.1279139761
-0.1209808065
-0.1130639665
-0.1086918413
-0.1030698949
-0.1003390264
-0.0962600624
-0.09462108795
-0.09162354387
-0.09071583374
-0.08848961747
-0.08805413887
-0.08637140961
-0.08620333476
-0.08488008512
-0.08480021904
-0.0836724757
-0.08350788445
-0.08241473663
-0.08198357804
-0.08075338172
-0.07985218868
-0.07828993146
-0.1288528428
-0.1181640149
-0.1117586413
-0.1044444644
-0.1004052213
-0.09521127427
-0.09268839199
-0.08891999966
-0.08740596532
-0.08463670557
-0.08379836102
-0.08174175222
-0.08133978984
-0.07978532942
-0.07963048294
-0.07840814855
-0.07833477133
-0.07729303875
-0.07714116514
-0.07613128545
-0.07573251746
-0.07459557723
-0.07376137725
-0.07231657951
-0.1178151324
-0.1080405572
-0.1021824583
-0.09549332548
-0.09179857974
-0.08704793269
-0.08473954884
-0.08129221763
-0.07990615952
-0.07737225942
-0.07660391623
-0.07472154598
-0.07435214588
-0.07292891507
-0.0727854683
-0.07166604333
-0.07159719335
-0.07064318454
-0.07050280979
-0.06957826828
-0.06921252191
-0.0681716684
-0.06740811049
-0.0660830468
-0.1064081704
-0.09757864258
-0.09228689629
-0.08624446041
-0.08290687103
-0.07861545818
-0.07653017465
-0.07341603904
-0.07216393228
-0.06987489987
-0.06918083733
-0.06748034403
-0.06714672171
-0.06586098877
-0.06573152628
-0.06472025008
-0.06465815829
-0.06379636868
-0.06366950104
-0.06283443278
-0.06250347107
-0.06156324035
-0.06087192773
-0.05967427938
-0.09466531564
-0.08680854838
-0.08209917506
-0.07672185405
-0.0737509311
-0.06993130466
-0.06807439957
-0.06530202084
-0.0641862482
-0.06214780664
-0.06152839239
-0.06001346365
-0.05971463632
-0.05856869436
-0.05845147579
-0.05754982155
-0.05749262344
-0.05672423825
-0.05660967859
-0.05586542432
-0.05556978852
-0.05473190049
-0.05411628401
-0.05304670991
-0.08262520062
-0.07576602218
-0.07165443341
-0.06695971239
-0.06436570663
-0.06103075781
-0.0594092223
-0.05698843934
-0.05601388617
-0.05423375991
-0.05369252274
-0.05236936117
-0.05210800229
-0.05110690252
-0.0510040728
-0.05021616417
-0.05016565077
-0.04949403385
-0.04939322459
-0.04874268898
-0.04848326717
-0.04775107466
-0.04721143465
-0.04627751488
-0.07032511203
-0.06448494466
-0.06098350604
-0.0569856055
-0.05477584461
-0.05193524972
-0.05055313506
-0.04849053093
-0.04765900192
-0.04614157397
-0.04567874879
-0.0445501615
-0.04432544831
-0.04347092087
-0.04338106273
-0.04270799393
-0.04266266783
-0.0420886637
-0.0420007152
-0.04144476765
-0.04122229349
-0.04059677103
-0.04013657337
-0.0393381969
-0.05780304874
-0.05300048947
-0.05012075077
-0.04683277316
-0.04501493668
-0.04267835924
-0.0415408987
-0.03984385031
-0.03915899688
-0.03791005469
-0.0375282717
-0.03659889132
-0.03641280448
-0.03570859014
-0.03563326816
-0.0350780343
-0.0350391426
-0.03456509929
-0.03449085745
-0.03403140955
-0.0338459576
-0.03332931864
-0.03294756054
-0.03229029048
-0.0451005997
-0.0413504672
-0.03910098599
-0.03653277203
-0.03511194643
-0.03328608835
-0.03239611528
-0.03106919084
-0.03053230553
-0.0295549058
-0.02925438566
-0.02852619522
-0.02837823998
-0.0278256016
-0.0277639331
-0.0273273935
-0.02729404384
-0.02692069872
-0.02685980543
-0.02649767427
-0.02635030459
-0.02594352033
-0.02564369499
-0.02512815429
-0.03225391137
-0.02956837505
-0.02795669461
-0.02611680472
-0.02509797815
-0.02378913963
-0.02315002042
-0.02219801382
-0.02181140695
-0.02110929213
-0.02089165647
-0.02036763311
-0.02025898866
-0.01986032088
-0.0198132029
-0.01949729286
-0.01947017796
-0.01919912026
-0.01915201748
-0.01888862161
-0.01877924246
-0.01848386228
-0.01826497024
-0.01789356823
-0.01930897332
-0.01769603249
-0.01672679467
-0.01562056171
-0.01500653546
-0.01421837205
-0.01383172477
-0.01325715902
-0.01302165268
-0.01259655434
-0.01246208643
-0.01214341339
-0.01207401962
-0.01183015546
-0.01179735904
-0.01160274403
-0.01158164986
-0.01141355938
-0.01138028137
-0.01121649358
-0.01114575406
-0.01096294357
-0.01082671583
-0.01060044225
-0.006299132871
-0.005764397956
-0.005441046541
-0.005072386954
-0.004865383679
-0.004600748349
-0.004468007638
-0.004273020924
-0.004189521711
-0.004043073771
-0.003992322742
-0.003880269127
-0.003850439844
-0.003762392546
-0.003744097139
-0.003671644926
-0.003656726181
-0.003592463028
-0.003573303174
-0.003510129621
-0.003478757509
-0.00340972887
-0.003357725206
-0.0032776217
0.006725441785
0.006180905951
0.005857706023
0.005488040346
0.005287535047
0.005028079746
0.004906520426
0.004721479358
0.004652612873
0.004520022712
0.004486692155
0.004391761019
0.004381627037
0.00431348829
0.004316842125
0.004266744453
0.004275050505
0.004235071502
0.004239855248
0.004201946569
0.004194316323
0.004149089012
0.004118490123
0.004052394802
0.01973484036
0.01811204635
0.01714299068
0.01603577062
0.01542832549
0.01464540409
0.01427005936
0.01370552957
0.0134848074
0.01307367066
0.01295679332
0.01265533594
0.01260580545
0.01238189003
0.01237087291
0.01219853334
0.01220070284
0.01205662091
0.01204717012
0.01190817071
0.01186085596
0.01170156637
0.01158638289
0.01137590298
0.03267527008
0.02998009918
0.02836851341
0.0265275848
0.02551504758
0.02421121164
0.02358293509
0.02264056942
0.02226812651
0.02157943573
0.02137860692
0.02087112512
0.0207813967
0.02040186633
0.02037543457
0.02008083647
0.02007581221
0.01982760899
0.01980326006
0.01956328805
0.01947675642
0.01920360875
0.01900629294
0.01865054434
0.04552057264
0.04176065731
0.03951136292
0.03694216829
0.03552787653
0.03370720418
0.03282842945
0.03151141347
0.03098913845
0.0300254761
0.02974226977
0.02903092013
0.0289023954
0.02836907732
0.02832852552
0.02791320817
0.02790215422
0.02755112179
0.02751275617
0.02717302578
0.02704753559
0.02666222392
0.02638215234
0.02588553442
0.0582142008
0.05340227869
0.0505225577
0.04723350031
0.04542163764
0.04308978806
0.04196264784
0.04027475724
0.03960333895
0.03836712341
0.03800118507
0.03708740152
0.03691899684
0.0362326555
0.03617647831
0.03564084599
0.03562220753
0.03516870371
0.03511524034
0.03467631827
0.03451203913
0.034015305
0.03365471576
0.03301627443
0.07073376019
0.06488401034
0.06138274314
0.05738386271
0.05518046646
0.05234489466
0.05097366654
0.04892065192
0.04810327257
0.04659909058
0.04615293583
0.04504048424
0.04483432635
0.0439981231
0.04392822297
0.04327497221
0.04325049352
0.04269687859
0.04262986452
0.04209400061
0.04189210851
0.04128661113
0.04084618386
0.0400711346
0.08302109188
0.07615291952
0.07204126206
0.06734542157
0.06475699523
0.06142643067
0.05981456072
0.05740232939
0.05644031009
0.05467205201
0.05414549597
0.05283681526
0.0525916941
0.05160707774
0.0515216682
0.050751685
0.05071949503
0.05006650445
0.04998458442
0.04935271975
0.04911314465
0.04840016022
0.04788189761
0.04697039331
0.09505731435
0.08719129985
0.08248207233
0.07710377689
0.07413894539
0.07032409364
0.06847758964
0.06571433025
0.06461202347
0.06258614751
0.06198250896
0.06048283308
0.06020144353
0.05907275682
0.05897416968
0.05809113281
0.05805334636
0.05730418057
0.05720929856
0.05648438196
0.05620883924
0.05539149821
0.05479687448
0.0537540499
0.1067840052
0.09794594196
0.09265404389
0.08661046154
0.08327800935
0.0789905983
0.07691424741
0.07380798843
0.07256743033
0.07028933671
0.06960872997
0.06792157711
0.06760274971
0.06633222249
0.06621858141
0.06522396198
0.06517859545
0.06433446571
0.06422521582
0.06340865381
0.06309713264
0.06217736185
0.06150859555
0.06033620894
0.1181853468
0.1084019959
0.1025440177
0.09585393125
0.09216492114
0.08741873632
0.08512013215
0.08168133537
0.0803078986
0.07778574997
0.07703213366
0.07516403113
0.07481084856
0.07340381817
0.07327768499
0.07217594069
0.07212525352
0.07118997749
0.07106841642
0.07016362553
0.06981795421
0.06879913307
0.06805781778
0.06676054087
0.1292041296
0.1185073072
0.1121017138
0.104786386
0.1007518172
0.09556147494
0.09304675881
0.0892855371
0.08778204761
0.08502277389
0.08419668586
0.08215229519
0.08176378946
0.08022336473
0.08008295554
0.07887626807
0.07881835482
0.07779377543
0.07765865299
0.07666770065
0.0762882165
0.07517314698
0.07436221705
0.07294351204
0.1398270165
0.1282493703
0.121316306
0.113398557
0.1090317482
0.1034139053
0.1006920903
0.09662098551
0.09499367142
0.09200695192
0.09111281899
0.08889977228
0.08847923231
0.08681155472
0.08665947426
0.0853528941
0.08528997926
0.08418037212
0.08403371399
0.0829604085
0.082549009
0.08134144027
0.0804627892
0.07892741634
0.1499995326
0.1375784601
0.1301397303
0.1216446537
0.1169587219
0.1109307327
0.1080093054
0.1036404453
0.101892979
0.09868726486
0.0977261545
0.09535029486
0.09489709499
0.09310622459
0.09294093853
0.09153745202
0.09146785611
0.09027579567
0.09011660019
0.0889637413
0.08852105211
0.08722458301
0.08628147392
0.0846338617
0.1597101844
0.1464838482
0.1385628902
0.1295170537
0.1245273663
0.1181085181
0.1149977315
0.1103455257
0.1084848233
0.105071114
0.1040477556
0.1015176329
0.1010351012
0.09912780558
0.09895179853
0.0974568861
0.09738265764
0.09611274353
0.09594292532
0.09471462726
0.09424266209
0.0928614062
0.0918562659
0.09010155526
0.1689087074
0.1549195787
0.1465412706
0.1369732836
0.1316949462
0.1249051389
0.1216137885
0.1166922724
0.1147228824
0.1111111055
0.1100271738
0.1073498123
0.1068377746
0.1048190934
0.1046312041
0.103048695
0.1029684968
0.1016240571
0.1014429398
0.1001427054
0.09964236477
0.09818061512
0.09711688087
0.09526033974
0.1775848289
0.1628761413
0.154066912
0.1440067559
0.1384569564
0.1313178413
0.1278572356
0.1226824636
0.120611829
0.1168141092
0.1156744873
0.1128591805
0.1123208624
0.1101980337
0.1100004926
0.1083361635
0.1082517486
0.1068376004
0.106646895
0.1052790652
0.1047524222
0.1032145866
0.1020951828
0.1001421778
0.1856938571
0.1703125879
0.1611000798
0.150579517
0.144775187
0.1373089761
0.133689152
0.1282769201
0.1261104639
0.1221381182
0.1209451304
0.1180000383
0.1174357858
0.1152148078
0.1150069067
0.1132654163
0.1131758666
0.1116960685
0.1114954835
0.1100642209
0.1095124844
0.1079035085
0.1067320605
0.1046888416
0.1932261903
0.1772201288
0.1676334245
0.1566854754
0.150645381
0.1428758029
0.1391089402
0.1334767195
0.1312222642
0.1270883568
0.1258469159
0.1227819211
0.1221947492
0.1198832036
0.1196668232
0.1178541448
0.1177608339
0.1162203504
0.1160113226
0.114521154
0.1139464022
0.1122709614
0.1110508553
0.1089228996
0.2001438867
0.1835639023
0.1736330632
0.1622922393
0.1560349433
0.1479862484
0.1440835276
0.1382486878
0.1359124954
0.1316296038
0.1303426873
0.1271669945
0.1265577945
0.1241625685
0.1239374853
0.1220590466
0.1219615027
0.1203650635
0.1201477036
0.118603395
0.1180071552
0.1162708132
0.1150058746
0.112800459
0.2064375886
0.1893354455
0.1790918392
0.1673937888
0.1609393825
0.1526370744
0.1486113673
0.1425925682
0.1401827111
0.135764665
0.1344371205
0.1311610698
0.1305325758
0.1280614971
0.1278291898
0.1258910927
0.1257902721
0.1241429515
0.123918397
0.122324658
0.1217090045
0.1199167373
0.1186108271
0.1163335854
0.2120770585
0.1945068609
0.1839825908
0.1719641333
0.1653325865
0.1568026456
0.1526661481
0.1464821099
0.1440056217
0.1394660915
0.138101518
0.1347352255
0.1340888586
0.1315495901
0.1313103061
0.129318643
0.1292144972
0.1275215943
0.1272903224
0.1256524227
0.1250191592
0.1231770541
0.1218341682
0.1194932652
0.2170529008
0.1990697492
0.1882980714
0.1759970417
0.1692095104
0.1604788997
0.1562450039
0.1499153485
0.1473804412
0.1427338614
0.1413369757
0.1378911284
0.1372293098
0.134629852
0.134384659
0.1323456144
0.1322386879
0.1305053613
0.130268223
0.1285910568
0.12794227
0.1260556641
0.1246801624
0.1222816526
0.2213432795
0.2030038259
0.192018482
0.1794735364
0.1725511478
0.1636472398
0.1593290033
0.152873548
0.1502879322
0.1455488666
0.1441238282
0.1406092871
0.1399339204
0.1372825645
0.1370321332
0.1349523253
0.1348429338
0.1330749116
0.1328326735
0.1311218573
0.1304595367
0.128534838
0.1271307957
0.1246832935
0.224938645
0.2063006359
0.1951363521
0.1823870435
0.1753517528
0.1663026444
0.1619138153
0.1553529188
0.1527248533
0.1479081917
0.1464595468
0.142887254
0.1422004475
0.1395053146
0.1392503292
0.137135992
0.1370243068
0.1352267988
0.1349800539
0.1332406279
0.1325668677
0.1306097942
0.1291820356
0.1266925193
0.2278259936
0.2089479165
0.1976396478
0.1847259755
0.1775997977
0.1684338925
0.1639882163
0.1573425165
0.1546802747
0.1498012511
0.1483336393
0.1447150116
0.1440190874
0.1412889295
0.1410304228
0.1388885473
0.1387751846
0.1369541978
0.1367039392
0.1349416903
0.1342586139
0.1322756174
0.1308282424
0.1283050894
0.229995661
0.2109371793
0.1995206863
0.1864834317
0.1792888518
0.1700350463
0.1655464676
0.1588368364
0.1561486431
0.151222462
0.1497402379
0.1460863947
0.1453831711
0.1426261958
0.1423645201
0.1402013746
0.1400861874
0.138246951
0.1379935221
0.136213557
0.1355231331
0.1335202173
0.1320581489
0.1295094972
0.2314436481
0.2122643557
0.2007753666
0.1876553619
0.1804149981
0.1711023504
0.1665851157
0.1598327198
0.1571272849
0.1521696136
0.1506778071
0.1470005209
0.1462926701
0.143517918
0.1432544135
0.1410772153
0.1409610868
0.1391097669
0.1388544125
0.1370625775
0.1363672408
0.1343507464
0.132878527
0.1303123211
0.2321603599
0.2129210769
0.2013959378
0.188234687
0.1809712817
0.1716291459
0.1670972406
0.1603232387
0.15760868
0.1526348996
0.1511376614
0.1474481595
0.1467372428
0.1439529906
0.1436877387
0.1415028067
0.1413853303
0.1395272045
0.1392700024
0.1374714794
0.1367728039
0.1347489044
0.1332707393
0.1306956018
0.2321507248
0.2129114142
0.2013861778
0.1882248273
0.1809613086
0.1716190132
0.1670869888
0.1603127787
0.1575981094
0.1526240793
0.1511267378
0.1474369459
0.1467259201
0.1439413255
0.1436759285
0.1414905698
0.1413728711
0.1395141806
0.1392566476
0.1374573447
0.1367582243
0.1347332774
0.1332545875
0.1306782645
0.2314055227
0.2122273833
0.2007385245
0.187618784
0.1803778775
0.171064885
0.1665466134
0.1597934096
0.1570865695
0.1521277053
0.1506341955
0.1469553769
0.1462455772
0.1434689715
0.1432032998
0.141023919
0.1409054143
0.1390515691
0.1387936317
0.1369989465
0.1363007739
0.1342813277
0.1328060556
0.1302378837
0.2299383124
0.2108809367
0.1994643803
0.1864271901
0.1792318363
0.1699773604
0.165487499
0.1587766328
0.1560868042
0.1511589179
0.1496747766
0.1460188099
0.1453134184
0.1425539031
0.1422897798
0.1401236208
0.140005634
0.1381628147
0.1379061551
0.1361219353
0.1354277359
0.1334199845
0.1319536098
0.12940047
0.2277406468
0.208864826
0.1975567172
0.1846434702
0.1775161036
0.168349361
0.1639015133
0.1572540178
0.1545888887
0.1497072791
0.1482362077
0.1446143072
0.1439144507
0.1411803785
0.1409175041
0.1387710639
0.1386528956
0.1368266741
0.1365711749
0.1348030456
0.1341142585
0.1321250382
0.1306716578
0.1281433942
0.2248342208
0.2061984453
0.1950341306
0.1822850466
0.1752483229
0.1661980334
0.1618067637
0.1552436126
0.1526124013
0.1477926014
0.1463402578
0.142764062
0.1420730936
0.1393733397
0.1391137244
0.1369940191
0.1368771604
0.1350734799
0.1348209208
0.1330744704
0.1323940699
0.1304292445
0.1289940265
0.1264968619
0.2212118247
0.2028756959
0.1918905352
0.1793461685
0.1724219587
0.1635167361
0.1591952251
0.152737026
0.1501470923
0.1454041207
0.1439739459
0.1404545157
0.1397733558
0.1371162311
0.1368594178
0.1347729972
0.134656641
0.132881193
0.1326314067
0.1309123948
0.1302418406
0.1283082999
0.1268954187
0.1244390327
0.2169026294
0.198922818
0.1881511373
0.1758504849
0.1690608677
0.1603285698
0.1560910926
0.1497581825
0.1472186496
0.1425675423
0.1411652303
0.1377137871
0.1370459073
0.1344399073
0.1341880635
0.132141572
0.1320273564
0.130285701
0.1300405406
0.1283541555
0.1276963294
0.1257995459
0.1244138147
0.122004195
0.2119011678
0.194335316
0.183811243
0.1717935052
0.1651595207
0.1566278027
0.1524869643
0.1462992762
0.1438170975
0.1392724177
0.1379011174
0.134528444
0.1338745503
0.1313278521
0.131080358
0.1290803195
0.1289673097
0.127265171
0.1270243664
0.1253763797
0.124732665
0.1228793911
0.1215249228
0.1191711886
0.2062432814
0.1891455481
0.1789019597
0.1672044273
0.1607472931
0.152442799
0.148412394
0.1423893666
0.1399734417
0.1355495287
0.1342148859
0.1309316314
0.1302952613
0.1278158562
0.1275750059
0.1256275885
0.1255175536
0.1238600189
0.1236254894
0.1220206215
0.1213938098
0.119589109
0.1182703817
0.1159784295
0.1999257701
0.1833510928
0.1734204522
0.16208047
0.1558201366
0.147769213
0.1438611229
0.1380217636
0.1356785629
0.1313893412
0.1300941802
0.12691071
0.1262923451
0.1238881625
0.1236531678
0.1217647667
0.1216566252
0.1200493466
0.1198206751
0.1182645956
0.1176559167
0.115906288
0.1146272504
0.1124055344
0.1929902269
0.1769895916
0.1674029162
0.1564556094
0.1504121605
0.1426399074
0.1388672615
0.1332298682
0.1309679426
0.1268268769
0.1255767111
0.1225029722
0.1219061611
0.1195845955
0.1193578434
0.1175340866
0.1174297209
0.1158772728
0.1156564398
0.1141533801
0.1135655455
0.1118756267
0.1106404453
0.1084946983
0.1854362373
0.1700611659
0.1608488426
0.1503292196
0.1445212702
0.1370523859
0.133426202
0.1280086096
0.1258338753
0.1218540638
0.1206513656
0.1176971571
0.1171221529
0.1148907596
0.114671297
0.1129183353
0.1128165152
0.1113243661
0.1111107881
0.1096662124
0.1091002517
0.1074762093
0.1062885871
0.1042265976
0.1773101341
0.1626078195
0.1537986195
0.1437392108
0.1381854522
0.1310431864
0.1275757522
0.1223948978
0.1203154349
0.1165093125
0.1153593782
0.11253384
0.1119841446
0.1098496568
0.1096399249
0.1079628143
0.1078655111
0.106437715
0.1062334224
0.1048510738
0.10430962
0.1027556424
0.1016194431
0.0996466317
0.1686147911
0.1546326697
0.1462545171
0.1366875403
0.1314050228
0.1246121026
0.1213134439
0.1163857501
0.1144068588
0.1107865121
0.109691443
0.107003656
0.1064793012
0.1044487674
0.1042476668
0.1026521916
0.1025580443
0.101199772
0.1010040202
0.09968905611
0.09917291606
0.09769476236
0.09661337483
0.0947368637
0.1594001964
0.1461810959
0.1382601574
0.1292151533
0.1242209345
0.1177984804
0.1146798756
0.1100207224
0.1081498934
0.1047265934
0.1036913834
0.1011495974
0.1006539742
0.09873342484
0.09854340297
0.09703403857
0.09694507123
0.09565986773
0.09547471075
0.09423039813
0.09374210903
0.09234349492
0.09132046657
0.08954521964
0.1496729767
0.137259631
0.1298210136
0.1213269887
0.1166363457
0.1106048125
0.1076751811
0.1032993535
0.1015412202
0.09832586386
0.09735223581
0.09496466382
0.09449760337
0.09269344702
0.09251329386
0.09109533389
0.09101009302
0.08980271538
0.0896272743
0.08845835959
0.0879985028
0.08668469711
0.08572304769
0.08405549221
0.139485646
0.1279160002
0.1209829395
0.1130660896
0.1086942243
0.103072353
0.1003418082
0.09626295512
0.09462430488
0.09162688555
0.09071944313
0.08849337984
0.08805809211
0.08637563133
0.08620774062
0.0848850852
0.08480559566
0.08367910179
0.08351540902
0.08242470044
0.08199567996
0.08076990774
0.07987283651
0.07831736567
0.1288490029
0.1181605291
0.1117549955
0.1044407349
0.1004009656
0.09520666599
0.0926829227
0.08891398531
0.08739874684
0.08462880661
0.08378889862
0.08173154835
0.08132769725
0.07977257317
0.07961567556
0.07839300746
0.07831777935
0.07727639851
0.0771234866
0.07611521531
0.07571740135
0.07458435254
0.07375446945
0.07231676365
0.1178169262
0.1080422314
0.1021842406
0.09549510634
0.0918005805
0.08704999388
0.08474185706
0.08129460195
0.07990875031
0.07737490819
0.07660666048
0.0747243107
0.07435484882
0.07293162048
0.07278798539
0.07166864081
0.07159963219
0.07064596036
0.07050577646
0.06958231183
0.06921791929
0.06818031789
0.06742042948
0.06610423042
0.1064047442
0.09757554697
0.09228365365
0.08624113317
0.0829030503
0.07861130117
0.07652520014
0.07341054285
0.07215727659
0.06986757341
0.06917197557
0.06747069589
0.06713516399
0.06584858952
0.06571695138
0.06470489208
0.06464064695
0.06377827962
0.06364982886
0.06281478714
0.06248400548
0.06154587392
0.06085815504
0.05966833151
0.09466653772
0.0868097179
0.08210046807
0.07672317117
0.07375245032
0.06993289196
0.06807619506
0.06530389032
0.0641882717
0.06214986928
0.06153048379
0.06001551068
0.05971652493
0.05857040795
0.05845283385
0.05755084317
0.05749317399
0.05672426786
0.0566093351
0.05586466578
0.05556945237
0.05473300982
0.05411982326
0.05305941235
0.08262244988
0.07576355213
0.07165184898
0.06695705191
0.06436264167
0.06102740997
0.05940519796
0.05698398254
0.05600846597
0.05422778122
0.053685261
0.05236142362
0.05209845178
0.05109657024
0.0509918674
0.05020309294
0.05015065487
0.04947808057
0.04937571343
0.04872433001
0.04846473477
0.0477332544
0.04719632718
0.04626931839
0.07032561503
0.06448547551
0.06098419002
0.05698635447
0.05477679923
0.05193630315
0.05055439697
0.04849190498
0.04766054972
0.04614321658
0.04568048093
0.04455192568
0.04432717075
0.04347255934
0.04338251418
0.0427091916
0.04266357013
0.04208906047
0.04200080084
0.04144424743
0.04122189904
0.04059709518
0.04013829666
0.03934699021
0.05780119194
0.0529988399
0.05011903397
0.04683099597
0.04501288967
0.04267611455
0.04153820056
0.03984086988
0.03915538184
0.03790609845
0.03752349056
0.0365937258
0.03640663297
0.03570201639
0.03562557616
0.03506996857
0.03503000487
0.03455563584
0.03448064254
0.03402105976
0.03383591165
0.03332023928
0.03294084313
0.03228828597
0.04510026507
0.04135024993
0.03910095945
0.0365328615
0.03511225768
0.03328654472
0.03239680576
0.03107006139
0.03053342022
0.0295562322
0.02925595813
0.02852800284
0.02838029325
0.02782791876
0.0277665182
0.02733030927
0.02729728814
0.02692437309
0.0268638725
0.02650240596
0.02635569577
0.02595036504
0.02565170636
0.0251394449
0.03225310667
0.02956768499
0.02795598991
0.02611605696
0.02509712085
0.02378818704
0.02314888581
0.02219678216
0.02180994868
0.0211077717
0.02088989272
0.02036588294
0.02025702527
0.01985851908
0.01981130387
0.01949582923
0.01946884135
0.01919861745
0.01915193707
0.0188899067
0.01878152704
0.01848812312
0.01827101797
0.01790110307
0.01930771628
0.01769498596
0.0167259754
0.01561991146
0.01500612121
0.01421815031
0.01383176285
0.01325744805
0.01302226195
0.0125975023
0.01246345439
0.01214524476
0.012076422
0.01183321873
0.0118012147
0.01160759014
0.01158756158
0.01142091454
0.01138891003
0.01122706042
0.01115781282
0.01097704061
0.01084226336
0.01061548206
0.00629946761
0.005764740863
0.005441422015
0.005072730992
0.004865778739
0.004601147311
0.004468499663
0.004273597108
0.004190283687
0.004044043449
0.003993632228
0.003881965686
0.00385270806
0.003765320179
0.003747916435
0.003676536537
0.003662853831
0.00360016586
0.003582373075
0.00352118084
0.003490919346
0.003423462891
0.003371365748
0.003288732417
-0.006727667413
-0.006182830302
-0.005859377227
-0.005489496686
-0.005288758888
-0.005029079134
-0.004907262676
-0.004721928274
-0.00465271154
-0.004519706114
-0.004485856113
-0.004390325378
-0.004379414299
-0.004310396359
-0.004312623617
-0.004261237558
-0.004268045917
-0.004226337233
-0.004229467107
-0.004189670993
-0.004180604963
-0.004134550196
-0.004103763956
-0.004042218457
-0.01973335283
-0.01811066503
-0.01714154522
-0.0160343576
-0.01542672545
-0.01464372402
-0.01426805178
-0.01370329811
-0.01348204698
-0.01307050609
-0.01295282183
-0.01265073445
-0.01260003451
-0.01237519779
-0.01236258607
-0.01218896548
-0.01218918958
-0.01204354539
-0.01203224792
-0.01189182717
-0.01184361034
-0.0116842711
-0.01157072153
-0.01136504455
-0.03267846744
-0.02998291261
-0.02837106614
-0.02652989148
-0.0255171551
-0.02421309092
-0.02358460994
-0.02264195957
-0.02226922123
-0.02158012758
-0.02137882036
-0.02087075588
-0.02078026769
-0.02039990167
-0.02037234751
-0.02007660071
-0.02007012859
-0.0198205903
-0.01979483111
-0.01955389011
-0.019466645
-0.01919434306
-0.01899839359
-0.01864929992
-0.04551798875
-0.04175829554
-0.03950892812
-0.03693978378
-0.03552521211
-0.03370442025
-0.03282515658
-0.03150784213
-0.03098481527
-0.03002065926
-0.02973636993
-0.0290243151
-0.02889431099
-0.02836006136
-0.02831761456
-0.02790115816
-0.02788794781
-0.02753578297
-0.02749556724
-0.02715528211
-0.0270292209
-0.02664508119
-0.02636733245
-0.02587593993
-0.05821832652
-0.05340595058
-0.05052598342
-0.04723666743