/*--------------------------------*- C++ -*----------------------------------*\
| =========                 |                                                 |
| \\      /  F ield         | foam-extend: Open Source CFD                    |
|  \\    /   O peration     | Version:  3.0                                   |
|   \\  /    A nd           | Web:         http://www.extend-project.de       |
|    \\/     M anipulation  |                                                 |
\*---------------------------------------------------------------------------*/
FoamFile
{
    version     2.0;
    format      ascii;
    class       volSymmTensorField;
    location    "74";
    object      sigma;
}
// * * * * * * * * * * * * * * * * * * * * * * * * * * * * * * * * * * * * * //

dimensions      [0 0 0 0 0 0 0];

internalField   nonuniform List<symmTensor> 
2688
(
(-0.1781688547 -0.004841643941 2.004144195e-19 0.178221763 4.157597282e-19 -5.290828489e-05)
(-0.1746983094 -0.005709510196 9.582585124e-21 0.1748420225 2.960270151e-19 -0.0001437131246)
(-0.167452066 -0.006109739516 -8.948074308e-20 0.1676771959 7.709426834e-19 -0.0002251299374)
(-0.1581071751 -0.006192637914 8.033421794e-20 0.1584056821 3.635722504e-19 -0.0002985070791)
(-0.1481960407 -0.006122403177 -5.239345291e-21 0.1485608302 4.578574894e-19 -0.0003647894463)
(-0.1378095333 -0.005929471732 1.396956665e-19 0.1382340388 2.436176092e-19 -0.0004245055065)
(-0.1278312584 -0.00569178751 -6.182819242e-21 0.1283092502 3.216785492e-19 -0.0004779918019)
(-0.1179293907 -0.005410061525 1.032649166e-19 0.1184547286 1.303928258e-19 -0.0005253379147)
(-0.10868204 -0.005121764476 -2.610956954e-20 0.1092485404 2.679569375e-19 -0.0005665004465)
(-0.09971818555 -0.00482475132 -6.05842923e-20 0.1003194845 -6.519348809e-20 -0.0006012989007)
(-0.09140995576 -0.004533766926 1.044430976e-19 0.09203937156 4.873596606e-19 -0.0006294157987)
(-0.08347707485 -0.004251430349 -7.390179797e-20 0.08412754287 7.152233045e-20 -0.0006504680165)
(-0.07612683213 -0.003978274479 3.918859559e-19 0.07679074269 1.32927522e-19 -0.000663910561)
(-0.06920745528 -0.003723176657 -9.103255328e-20 0.06987664497 2.733877768e-20 -0.0006691896941)
(-0.06278783616 -0.003477253165 9.031360231e-21 0.06345338801 7.400866987e-20 -0.0006655518436)
(-0.05684752502 -0.003255117339 2.244840528e-20 0.0574998095 2.33592194e-20 -0.0006522844836)
(-0.05133967258 -0.003041729202 -5.669408595e-20 0.051968106 1.403811422e-19 -0.0006284334208)
(-0.04636356956 -0.002855903524 2.372846694e-19 0.04695669501 7.327941351e-20 -0.0005931254584)
(-0.04178071495 -0.002679584079 -2.342608605e-19 0.04232592484 -1.104878337e-19 -0.0005452098842)
(-0.03778884462 -0.002532924514 1.792421407e-19 0.03827248155 1.62269067e-19 -0.0004836369336)
(-0.03418958197 -0.002399227775 7.163164201e-20 0.03459664621 -1.884905434e-19 -0.0004070642345)
(-0.03124455981 -0.002295007549 6.221047627e-20 0.03155879517 -3.780409998e-19 -0.000314235366)
(-0.02874408754 -0.002212369761 -2.357228091e-20 0.02894771196 1.065269405e-19 -0.0002036244211)
(-0.02695716264 -0.002154641668 -9.954763025e-20 0.02703088738 -7.525011302e-19 -7.372474815e-05)
(-0.177686345 -0.01447408168 3.741189917e-20 0.1777395967 -5.087733564e-19 -5.325167536e-05)
(-0.1737906071 -0.01707219282 2.887716333e-19 0.1739352941 -3.224666926e-19 -0.0001446869828)
(-0.1662935179 -0.01827579978 9.213577068e-20 0.1665201421 -4.866070839e-19 -0.0002266242147)
(-0.1568200089 -0.01853465672 -1.851738308e-19 0.1571205191 -7.609897651e-20 -0.0003005102355)
(-0.1468436852 -0.01833741896 1.23688176e-19 0.1472109263 -1.631159839e-19 -0.0003672411081)
(-0.1364423683 -0.01777543881 -1.338143507e-19 0.1368697278 -3.226773317e-19 -0.0004273595225)
(-0.1264731967 -0.01708079943 2.256641484e-19 0.1269544035 1.243508178e-19 -0.0004812068177)
(-0.1166007765 -0.01625576851 -7.788686348e-20 0.1171296476 -4.605970499e-19 -0.0005288711114)
(-0.1073919408 -0.01541208729 -7.54430366e-20 0.1079622515 5.430295938e-20 -0.000570310734)
(-0.09847304338 -0.0145433001 2.403593419e-19 0.09907838491 -4.236446658e-19 -0.0006053415232)
(-0.09021318715 -0.01369347925 7.718273865e-20 0.09084683419 -8.79280357e-20 -0.0006336470419)
(-0.08232817236 -0.01287038826 -1.944738377e-20 0.08298301031 -2.918639956e-19 -0.0006548379509)
(-0.07502713104 -0.01207562379 -2.051788402e-19 0.0756955003 1.557043655e-19 -0.0006683692626)
(-0.06815270683 -0.0113357037 1.768750777e-19 0.06882638587 -8.189549266e-20 -0.0006736790429)
(-0.06177865742 -0.01062396536 -7.313648115e-20 0.0624486703 2.361481374e-19 -0.0006700128788)
(-0.05587750585 -0.009984107876 4.786447168e-20 0.05653415459 3.453671367e-19 -0.00065664874)
(-0.05040908086 -0.00937097473 3.099388036e-19 0.05104171178 -1.897593333e-19 -0.000632630919)
(-0.04546475518 -0.008840820915 -4.637287277e-19 0.04606183112 4.325978066e-19 -0.0005970759414)
(-0.04091332884 -0.008339386028 3.407787553e-19 0.04146215959 3.736463109e-19 -0.0005488307479)
(-0.03694484121 -0.00792718474 -3.309490435e-20 0.0374316757 1.384239163e-20 -0.0004868344905)
(-0.03336704483 -0.007553474453 -4.744114478e-19 0.03377678568 1.534535463e-19 -0.0004097408576)
(-0.03043626515 -0.007268949996 1.689452115e-19 0.03075254713 4.603268317e-19 -0.0003162819842)
(-0.02794458726 -0.007046302059 -3.767737361e-19 0.02814951684 2.131837217e-19 -0.0002049295736)
(-0.02616195472 -0.006903021418 3.046781618e-19 0.02623613122 4.966709189e-20 -7.417650365e-05)
(-0.1767225167 -0.02408091283 2.232377789e-19 0.1767759631 3.962191849e-19 -5.34464128e-05)
(-0.1719886259 -0.0282915953 -3.4739946e-20 0.1721338267 5.481283528e-19 -0.0001452007745)
(-0.1639970693 -0.03022606842 5.756079837e-20 0.1642245067 2.36877338e-19 -0.0002274374334)
(-0.1542704831 -0.03062041336 2.800170031e-19 0.1545720549 2.180953846e-19 -0.0003015717521)
(-0.1441659574 -0.03027255308 -2.014193366e-19 0.144534504 3.128757102e-19 -0.000368546604)
(-0.1337358563 -0.02933131027 3.176636595e-19 0.1341647301 1.947763383e-19 -0.0004288737803)
(-0.1237848849 -0.0281762483 -9.959696897e-20 0.1242678018 2.626673397e-19 -0.0004829169425)
(-0.113970758 -0.02680998124 2.481541917e-20 0.1145015099 2.146041459e-19 -0.0005307518374)
(-0.1048379108 -0.02541583633 -5.479127922e-20 0.1054102533 5.22192671e-19 -0.0005723425088)
(-0.09600766414 -0.0239820848 -2.253025015e-19 0.09661516532 1.904977398e-19 -0.0006075011787)
(-0.08784299851 -0.02258154042 1.700485935e-19 0.08847890904 4.940562847e-19 -0.0006359105285)
(-0.08005212688 -0.02122587164 1.556630923e-19 0.08070930721 7.326032508e-20 -0.0006571803302)
(-0.07284763186 -0.01991835208 5.916758619e-19 0.07351839355 -6.16978721e-20 -0.000670761686)
(-0.06606133818 -0.01870155894 -5.971629517e-21 0.06673743102 -5.609500639e-20 -0.0006760928395)
(-0.05977637068 -0.01753236118 4.82765871e-19 0.06044878477 -1.041058725e-19 -0.0006724140914)
(-0.0539516127 -0.01648171217 -3.289950215e-19 0.05461061674 -6.128520499e-20 -0.0006590040398)
(-0.04855988652 -0.01547598036 2.515044867e-20 0.04919478739 8.471670472e-20 -0.0006349008704)
(-0.04367697829 -0.01460699211 9.879329247e-19 0.04427619997 -9.346215983e-20 -0.000599221682)
(-0.03918638462 -0.01378587294 -5.957900704e-19 0.03973719103 3.545264597e-20 -0.0005508064139)
(-0.03526212633 -0.01311193969 2.730294213e-20 0.03575072027 -1.532706867e-20 -0.0004885939351)
(-0.0317258353 -0.01250148364 5.791852673e-19 0.03213706532 -2.085703071e-20 -0.0004112300219)
(-0.02882038162 -0.01203850699 3.207724313e-19 0.02913782654 -4.088406766e-19 -0.0003174449267)
(-0.02634604489 -0.01167643273 -4.894481865e-19 0.02655174502 2.784995753e-19 -0.0002057001247)
(-0.0245681892 -0.01144685912 -2.57682496e-19 0.02464266358 -6.011840436e-19 -7.447438467e-05)
(-0.1752760047 -0.03364451497 6.79567476e-20 0.1753294698 -1.813622608e-21 -5.34650235e-05)
(-0.1693178823 -0.03927541909 1.811832413e-19 0.1694631289 -2.277970283e-19 -0.0001452466146)
(-0.1606052274 -0.04182218718 -4.850189128e-20 0.1608327513 -7.065142148e-19 -0.0002275239256)
(-0.1505106466 -0.04228578378 -1.834566597e-19 0.1508123216 6.678662979e-20 -0.0003016749155)
(-0.1402207852 -0.04174869086 1.630214214e-19 0.1405894681 -2.047548567e-19 -0.0003686828726)
(-0.1297506249 -0.04041151206 -2.139071149e-19 0.1301796548 1.035904751e-20 -0.0004290299245)
(-0.1198281864 -0.03879032336 3.2744738e-19 0.1203112841 -4.698383994e-20 -0.0004830977408)
(-0.1101010735 -0.03688623494 4.764235373e-20 0.1106320253 2.480844551e-19 -0.0005309518384)
(-0.1010809657 -0.03494964646 8.103578834e-20 0.1016535271 -4.355037245e-19 -0.0005725613179)
(-0.09238182419 -0.032962086 1.943998039e-19 0.09298955929 5.677430375e-20 -0.0006077351074)
(-0.08435766747 -0.03102407417 -6.935690881e-20 0.08499382418 2.598887095e-19 -0.0006361567106)
(-0.07670562509 -0.02914920068 -4.765838049e-19 0.07736305991 -4.264330723e-19 -0.0006574348191)
(-0.06964331395 -0.02734342399 -4.809419107e-19 0.07031433397 5.769212211e-19 -0.0006710200127)
(-0.06298678615 -0.02566272809 3.033793747e-19 0.06366313637 -5.686422494e-19 -0.0006763502243)
(-0.05683276347 -0.02404982015 -2.560670059e-19 0.05750542864 1.098510201e-18 -0.0006726651635)
(-0.05112043195 -0.02259958756 4.615551792e-19 0.05177967548 -2.279447711e-19 -0.0006592435296)
(-0.04584112464 -0.0212131645 2.633201314e-20 0.0464762479 5.270235636e-19 -0.0006351232599)
(-0.04104876036 -0.02001396196 -3.164726047e-19 0.04164818215 -4.463818384e-19 -0.0005994217894)
(-0.03664671261 -0.01888245022 6.556081598e-19 0.0371976914 7.326440098e-20 -0.0005509787888)
(-0.03278817802 -0.01795226508 -2.385834583e-19 0.03327691156 1.180133218e-19 -0.0004887335389)
(-0.02931106149 -0.01711083802 -9.4031111e-19 0.02972239291 1.695497489e-19 -0.0004113314234)
(-0.02644415263 -0.01647163992 7.199650172e-19 0.02676165748 1.230208752e-19 -0.0003175048496)
(-0.02399262245 -0.01597100713 -3.557724175e-19 0.02419833901 4.133835131e-19 -0.0002057165612)
(-0.02222291734 -0.0156547016 4.899071494e-19 0.02229737593 1.685600901e-19 -7.445859484e-05)
(-0.1733448305 -0.04314677701 9.283038188e-20 0.1733981496 1.25433355e-19 -5.33191051e-05)
(-0.1658159547 -0.04993640002 -3.946471777e-19 0.1659607936 -1.334548445e-19 -0.0001448389229)
(-0.1561802228 -0.05293434932 3.275600559e-19 0.1564071219 -3.2546697e-19 -0.0002268991175)
(-0.145616848 -0.05337734577 5.054534161e-19 0.1459176841 3.667670205e-19 -0.0003008361109)
(-0.1350929569 -0.05259865014 -1.027247094e-19 0.1354606236 -3.41875943e-19 -0.0003676666921)
(-0.1245755451 -0.05084301993 3.145522502e-19 0.1250033912 5.536347948e-19 -0.0004278460382)
(-0.1146937004 -0.0487481046 2.017158411e-19 0.1151754701 -3.45805809e-19 -0.0004817696191)
(-0.1050822829 -0.04631096553 -2.513512333e-19 0.1056117774 4.480903662e-19 -0.0005294944519)
(-0.09621056347 -0.04384297709 -2.682049422e-19 0.0967815575 3.479369373e-19 -0.0005709940287)
(-0.08768330901 -0.04131687832 5.08356437e-19 0.08828938413 -2.725104021e-19 -0.0006060751171)
(-0.07984276475 -0.03885951665 4.81175473e-20 0.08047718761 -2.471634697e-19 -0.0006344228553)
(-0.07237205565 -0.03648370491 5.118032799e-19 0.07302770216 -3.93132708e-20 -0.0006556465116)
(-0.06549504885 -0.03419939867 2.959911211e-19 0.0661642464 3.574229296e-19 -0.0006691975491)
(-0.0590077374 -0.03207252127 4.2277525e-19 0.05968225346 -1.858534148e-19 -0.0006745160598)
(-0.05302413401 -0.03003447167 9.212098374e-19 0.0536949768 2.54431881e-19 -0.0006708427873)
(-0.04745823407 -0.0282000732 -8.036662872e-19 0.04811569392 -8.139698456e-19 -0.0006574598496)
(-0.04232515091 -0.02644877992 1.602388698e-19 0.04295855766 -7.207251962e-19 -0.0006334067549)
(-0.03765045147 -0.02493156373 1.637138074e-19 0.03824825673 3.192535313e-19 -0.0005978052582)
(-0.03336373941 -0.02350160534 -1.857405001e-20 0.03391323648 -2.351817779e-19 -0.0005494970784)
(-0.02959002166 -0.0223236353 5.09075668e-19 0.03007744779 7.468748762e-20 -0.0004874261285)
(-0.0261906937 -0.02125831327 5.462818509e-19 0.02660093394 -2.346538072e-19 -0.0004102402379)
(-0.02337253311 -0.02044708524 3.262559114e-19 0.02368920924 5.499881923e-19 -0.0003166761279)
(-0.020952392 -0.01980913723 2.77552446e-19 0.02115758957 -9.534832984e-19 -0.0002051975742)
(-0.0191924542 -0.01940473853 -9.14707354e-19 0.01926674405 9.368494153e-19 -7.428984919e-05)
(-0.1709267817 -0.05256822711 -2.544754746e-19 0.1709797838 7.254315983e-19 -5.300214361e-05)
(-0.1615315272 -0.06019372391 -4.01975621e-19 0.161675499 4.715615414e-19 -0.0001439717873)
(-0.1508025211 -0.0634441073 -7.389961763e-20 0.1510280763 5.017509431e-20 -0.0002255552621)
(-0.1396877193 -0.06375569659 -2.087998017e-19 0.1399867665 2.82071433e-19 -0.0002990471764)
(-0.128892076 -0.06267100387 1.797694872e-19 0.1292575641 3.646155063e-19 -0.0003654881019)
(-0.1183253847 -0.06046933966 -1.614639861e-19 0.1187506951 -2.250588829e-19 -0.0004253104192)
(-0.108498508 -0.05789154973 3.286164675e-19 0.1089774266 2.594657781e-21 -0.0004789186258)
(-0.09903129558 -0.05492747922 6.190810027e-19 0.09955765832 6.11694839e-19 -0.0005263627399)
(-0.09034224738 -0.05194192898 -3.337080196e-19 0.09090986757 -9.814855837e-19 -0.000567620192)
(-0.08202537292 -0.04889635789 -7.47565087e-19 0.08262786866 9.858906948e-19 -0.0006024957373)
(-0.0744087226 -0.04594220041 5.011887638e-20 0.0750394007 3.138549159e-19 -0.0006306780989)
(-0.06715889485 -0.04308819248 -1.501217241e-20 0.06781067155 -1.697044709e-19 -0.0006517767021)
(-0.06050708933 -0.04034991036 -4.796675586e-19 0.06117233682 1.428565511e-19 -0.0006652474845)
(-0.05422554561 -0.03779888752 4.887433119e-20 0.0548960776 -1.774308223e-19 -0.0006705319878)
(-0.04844870815 -0.03535889643 -3.665747462e-19 0.04911558504 2.461596889e-19 -0.0006668768945)
(-0.04306088738 -0.03315942536 -3.507393206e-19 0.04371445436 -5.315192757e-19 -0.0006535669786)
(-0.03810494587 -0.0310632715 3.682361179e-19 0.03873459516 1.547005944e-18 -0.0006296492862)
(-0.03357375999 -0.02924286623 3.651271588e-19 0.0341680094 -2.807132351e-19 -0.0005942494106)
(-0.02942630112 -0.0275300167 1.489512032e-19 0.02997251903 6.907650987e-19 -0.000546217917)
(-0.02575703239 -0.02611385972 -4.577594598e-19 0.02624153657 3.719328778e-19 -0.0004845041768)
(-0.02245073321 -0.02483434422 -2.540264952e-19 0.02285849929 3.110435917e-19 -0.0004077660806)
(-0.01969402609 -0.02385490736 -1.495735537e-19 0.02000877419 1.484748153e-18 -0.000314748096)
(-0.01731065634 -0.02308124501 9.467409924e-19 0.01751458291 -5.986847538e-19 -0.0002039265689)
(-0.01556341642 -0.02258692937 -1.888720879e-20 0.01563722522 2.875581888e-18 -7.380879302e-05)
(-0.1680193287 -0.06188842083 5.367873685e-19 0.1680718513 -1.278179253e-18 -5.252260603e-05)
(-0.1565229972 -0.06997501496 -9.57688006e-19 0.1566656553 3.506595284e-20 -0.0001426581087)
(-0.1445685238 -0.07324733489 4.689097468e-19 0.1447920311 -9.021356242e-19 -0.000223507342)
(-0.1328413281 -0.07329931136 4.879533568e-19 0.1331376542 7.039956951e-19 -0.0002963260506)
(-0.1217492388 -0.07183424587 1.342577598e-20 0.1221114065 -1.220820534e-18 -0.0003621677302)
(-0.1111374453 -0.0691549934 -9.266886558e-20 0.1115588923 4.719151062e-19 -0.0004214469802)
(-0.10138257 -0.06608413458 6.486232048e-19 0.1018571418 -1.719046116e-19 -0.000474571754)
(-0.0920879289 -0.06260067237 -2.956632699e-19 0.09260951693 -1.093479822e-18 -0.0005215880314)
(-0.08361411609 -0.05911403544 4.920332443e-19 0.08417659109 -6.140472201e-19 -0.0005624749997)
(-0.075543463 -0.05557151377 1.517368805e-18 0.07614050109 2.534289244e-19 -0.0005970380888)
(-0.0681875552 -0.05214710145 -8.281831262e-19 0.06881252408 -9.779326081e-19 -0.0006249688859)
(-0.06119472496 -0.04884163689 2.870297369e-19 0.06184060508 5.75819286e-19 -0.0006458801206)
(-0.05480414376 -0.04567814212 3.51515314e-19 0.05546337591 2.125747631e-19 -0.0006592321544)
(-0.04876150201 -0.04272886848 1.564485095e-19 0.04942597382 9.54085945e-19 -0.0006644718086)
(-0.04322415371 -0.03991392841 9.955145024e-19 0.04388500574 -4.628051768e-19 -0.0006608520339)
(-0.03804295429 -0.03737195189 -6.111146504e-19 0.0386906191 1.494468481e-18 -0.0006476648163)
(-0.03329222379 -0.03495381947 6.066199163e-19 0.0339161892 -6.268150714e-19 -0.0006239654054)
(-0.02892749307 -0.03284824413 -8.47035558e-19 0.02951638138 6.711223078e-19 -0.0005888883147)
(-0.02494177991 -0.03086952406 1.230062597e-18 0.02548307392 -3.573768551e-19 -0.0005412940118)
(-0.02139335825 -0.02922806895 9.496557023e-20 0.02187350076 6.788690498e-19 -0.000480142509)
(-0.01819609958 -0.02774396059 2.138659133e-18 0.01860020326 -5.420427279e-19 -0.000404103678)
(-0.01550994407 -0.02660342363 -8.275264381e-19 0.01582187744 7.801662837e-19 -0.0003119333721)
(-0.0131710772 -0.0256951747 1.959318719e-18 0.01337319643 6.093373989e-19 -0.0002021192365)
(-0.01143915915 -0.02511038917 -1.3556284e-18 0.01151233115 -6.873225361e-19 -7.317199492e-05)
(-0.1646203563 -0.07108509274 3.282407994e-19 0.1646722306 1.433466771e-18 -5.187437252e-05)
(-0.1508573 -0.07921733758 1.8897919e-19 0.1509981933 5.298201015e-20 -0.0001408932285)
(-0.1375882356 -0.08225637462 -4.885641489e-19 0.1378089872 1.129774099e-18 -0.0002207515911)
(-0.1252123214 -0.08190704198 2.251371078e-19 0.1255049909 -8.195102887e-19 -0.0002926694998)
(-0.1138139023 -0.07997971498 2.271441142e-19 0.1141716052 -7.484209095e-20 -0.0003577028802)
(-0.1031681935 -0.07678846398 5.975608891e-20 0.103584446 8.148896553e-19 -0.0004162524635)
(-0.09350543062 -0.07321381532 -8.133783113e-19 0.09397415576 1.54002252e-19 -0.0004687251406)
(-0.08441149327 -0.06921989333 3.634239761e-19 0.08492665774 3.834666822e-20 -0.0005151644751)
(-0.07618358549 -0.06525097038 -8.24541745e-19 0.07673913605 1.376417364e-18 -0.000555550563)
(-0.06839188836 -0.06123699497 -7.53827791e-20 0.06898157861 -4.687061628e-19 -0.000589690245)
(-0.06132971441 -0.05737223843 3.520743471e-19 0.06194699368 9.267347576e-19 -0.0006172792669)
(-0.05462597811 -0.05364543037 8.378065398e-19 0.05526391209 -2.022543092e-19 -0.0006379339705)
(-0.04852824404 -0.05008907681 -1.418932913e-19 0.049179366 3.98183526e-19 -0.000651121961)
(-0.04275365418 -0.0467706453 -2.889636133e-19 0.04340994958 -9.302015452e-19 -0.0006562954044)
(-0.03748425141 -0.04361121244 2.980288198e-19 0.03813696901 1.331135191e-19 -0.0006527175946)
(-0.03253483115 -0.04075194709 3.140438169e-19 0.03317451892 -1.150589353e-18 -0.0006396877737)
(-0.02801350288 -0.03803801006 -6.710380827e-20 0.02862977746 1.171692089e-19 -0.0006162745821)
(-0.02383594355 -0.03566692833 8.482937847e-19 0.02441756536 -9.570143446e-19 -0.0005816218114)
(-0.02003091355 -0.03344270479 -2.986702107e-20 0.02056551939 -3.097493747e-19 -0.0005346058409)
(-0.01661942613 -0.03158872615 -6.117090908e-19 0.01709362464 -6.353774715e-19 -0.0004741985127)
(-0.01354394977 -0.02991327889 3.142562268e-19 0.01394303804 -4.030099123e-19 -0.0003990882689)
(-0.01093916176 -0.02861637159 1.788278124e-18 0.01124720811 6.086749713e-19 -0.0003080463584)
(-0.008651156193 -0.0275773002 3.355478692e-19 0.008850738387 -1.66586714e-18 -0.0001995821937)
(-0.006937918503 -0.02689867292 4.215508293e-19 0.007010154282 1.386813363e-18 -7.223577859e-05)
(-0.1607279358 -0.08013468253 -6.707868972e-20 0.1607790025 -8.092118229e-19 -5.10667764e-05)
(-0.144607891 -0.08786857747 -1.295672144e-18 0.1447465824 3.848056786e-19 -0.0001386914339)
(-0.1299820904 -0.09040205471 9.454620055e-19 0.1301993972 -2.154652736e-18 -0.0002173067327)
(-0.1169478618 -0.08950072477 -7.708678798e-19 0.1172359616 6.383985053e-19 -0.0002880998284)
(-0.1052492948 -0.08702441664 8.802738302e-19 0.1056014149 -2.965115778e-19 -0.0003521201363)
(-0.0945884328 -0.0832852779 7.760386956e-19 0.09499819019 -1.684980072e-19 -0.0004097573851)
(-0.08504112267 -0.07919623525 1.411038619e-19 0.08550253607 -3.904983017e-19 -0.0004614133973)
(-0.07617574293 -0.07470226002 2.98557477e-19 0.07668287422 -3.928014189e-19 -0.0005071312873)
(-0.0682222187 -0.07027195851 6.79346085e-19 0.06876910918 -8.108039474e-19 -0.0005468904875)
(-0.06073883871 -0.06581456053 4.356065309e-19 0.06131934025 5.48292965e-19 -0.0005805015429)
(-0.05399908191 -0.0615421594 -8.392474554e-19 0.05460674575 -8.28976529e-19 -0.0006076638358)
(-0.04761220851 -0.05742688173 1.81324965e-19 0.04824020881 1.051221659e-19 -0.0006280003038)
(-0.04183410848 -0.05351285712 3.430008298e-19 0.04247509425 1.182070694e-19 -0.0006409857638)
(-0.03635243833 -0.04985699212 -3.486334845e-19 0.03699851982 7.274128978e-19 -0.0006460814849)
(-0.03137494636 -0.04638600184 1.614853559e-19 0.03201750768 6.35583787e-19 -0.0006425613153)
(-0.02667865231 -0.04323713062 -5.919663126e-19 0.02730838862 1.116898905e-18 -0.000629736313)
(-0.02240740535 -0.04025524384 2.384223381e-19 0.02301409429 3.375827761e-19 -0.0006066889457)
(-0.01843442511 -0.03764099639 -1.668234673e-18 0.0190070027 6.943773899e-19 -0.0005725775931)
(-0.01482705852 -0.03519178266 1.634356879e-18 0.01535335386 1.017681485e-18 -0.00052629534)
(-0.01156555586 -0.03314182394 -2.988323162e-19 0.01203238724 4.194356905e-19 -0.0004668313805)
(-0.008624344961 -0.03128608618 1.598796111e-18 0.009017238999 1.136885169e-18 -0.0003928940379)
(-0.006109208316 -0.02984266828 -1.778758452e-18 0.006412482667 -9.4895727e-19 -0.0003032743507)
(-0.003878452245 -0.0286733073 2.780831304e-18 0.004074955051 7.840114922e-19 -0.0001965028067)
(-0.00218690977 -0.02790040656 -8.527901853e-19 0.00225804434 -1.626415958e-18 -7.113457021e-05)
(-0.156341354 -0.08901162372 2.013421339e-18 0.1563914486 1.217509287e-19 -5.009460521e-05)
(-0.1378533581 -0.09588808387 -1.29783497e-20 0.1379894082 -8.297215887e-19 -0.000136050056)
(-0.121878116 -0.09763498707 -2.23343853e-19 0.1220912893 -1.121383785e-19 -0.0002131732772)
(-0.108204218 -0.09602673429 5.152861762e-19 0.1084868374 1.275463279e-18 -0.0002826194722)
(-0.0962286168 -0.09291279331 -6.440670968e-19 0.09657404093 -3.564752685e-19 -0.0003454241279)
(-0.08557934439 -0.08858977469 3.431995899e-19 0.08598131167 5.529132946e-19 -0.0004019672811)
(-0.07617427393 -0.08397646591 -7.030376909e-19 0.07662691696 -1.45363161e-19 -0.0004526430326)
(-0.06756497086 -0.07899430558 -5.775774307e-19 0.06806246533 7.825190676e-19 -0.0004974944772)
(-0.05991205132 -0.07412527848 4.41640932e-20 0.0604485517 6.80520651e-19 -0.0005365003765)
(-0.05276272089 -0.0692544593 1.168559869e-19 0.05333219606 7.534176895e-19 -0.0005694751743)
(-0.04636955994 -0.06460916997 3.498149949e-19 0.04696568348 2.712009063e-19 -0.0005961235403)
(-0.04032264097 -0.06014030622 7.767127678e-19 0.04093871607 5.973169647e-19 -0.0006160750991)
(-0.03488583957 -0.05590586999 7.991987241e-19 0.03551465439 1.611573169e-19 -0.0006288148215)
(-0.02971729106 -0.05194608215 5.130655398e-19 0.03035110413 -9.573807129e-19 -0.0006338130734)
(-0.02505074617 -0.04819848618 1.062023835e-18 0.02568110452 -1.989749999e-19 -0.0006303583504)
(-0.02062480678 -0.04478896197 3.94617585e-19 0.02124258023 -1.385949771e-18 -0.0006177734543)
(-0.01662006173 -0.04156911092 1.040713852e-19 0.01721522161 -2.112155103e-19 -0.0005951598808)
(-0.01286578663 -0.03873423013 1.068071293e-18 0.01342747733 -8.666551995e-19 -0.000561690695)
(-0.009469964349 -0.03608334583 -1.144763296e-18 0.009986246236 -2.189479457e-19 -0.0005162818867)
(-0.006369217449 -0.03385215407 -3.130321904e-19 0.006827158203 -5.668221656e-19 -0.0004579407538)
(-0.003573587024 -0.03183145377 -2.820869797e-19 0.003958989233 -2.354548243e-19 -0.0003854022088)
(-0.001155266716 -0.03024761065 2.099336876e-19 0.001452746735 8.787918637e-19 -0.0002974800191)
(0.001010249244 -0.02895321085 -2.022007406e-18 -0.0008175139267 -1.00709674e-18 -0.0001927353177)
(0.00267693144 -0.02808436996 1.646584067e-18 -0.002607173151 2.726770515e-20 -6.97582894e-05)
(-0.1514607171 -0.09768891808 -5.976266101e-19 0.1515096856 4.562948343e-19 -4.896852469e-05)
(-0.1306750658 -0.1032472327 2.405158357e-19 0.130808052 -1.016845296e-18 -0.0001329862393)
(-0.1134082219 -0.1039263843 -1.704404316e-19 0.1136165964 1.704546683e-18 -0.0002083745372)
(-0.09914200152 -0.1014569597 3.528284983e-19 0.09941825824 -9.074860018e-19 -0.0002762567117)
(-0.08692966665 -0.09761781156 1.831780952e-20 0.08726731509 4.900301603e-19 -0.0003376484408)
(-0.07632675322 -0.09267629159 1.381277554e-18 0.07671967383 -6.391696545e-19 -0.0003929206105)
(-0.06709406108 -0.08753028535 2.994443558e-19 0.06753651829 2.205055805e-19 -0.0004424572128)
(-0.05876791531 -0.08207332389 1.034539923e-18 0.0592542175 -7.848835678e-19 -0.0004863021881)
(-0.05143933702 -0.07678970766 2.055148078e-19 0.05196376984 -3.4637922e-19 -0.0005244328187)
(-0.04464602904 -0.07153692642 7.566646851e-19 0.04520269814 -5.753451211e-19 -0.0005566691038)
(-0.03861888211 -0.06655490627 -1.419356295e-18 0.03920160297 -6.683406921e-19 -0.0005827208551)
(-0.03293024698 -0.06176866777 6.595075197e-20 0.03353247392 -1.13604534e-19 -0.0006022269379)
(-0.02785107099 -0.05725233966 -3.984485209e-19 0.02846575359 -7.931000287e-19 -0.0006146826018)
(-0.02301118227 -0.05302333478 -5.379629518e-19 0.02363075307 -2.280266821e-19 -0.0006195707986)
(-0.01866958194 -0.04903514989 -2.015207826e-19 0.0192857768 3.902069206e-19 -0.0006161948581)
(-0.01452720169 -0.04539507389 -9.402049536e-20 0.01513109547 6.954870958e-19 -0.0006038937781)
(-0.0108011231 -0.04196799218 7.597454716e-21 0.0113829114 8.496405889e-19 -0.0005817883022)
(-0.007276592754 -0.03893636856 -2.515833161e-19 0.0078256643 -8.078716565e-19 -0.0005490715456)
(-0.004102903509 -0.03610721088 2.12940688e-18 0.004607586405 2.440807623e-18 -0.0005046828956)
(-0.001171867964 -0.033711664 -4.136680235e-19 0.001619521603 -3.122148422e-19 -0.0004476536396)
(0.001469415453 -0.0315398571 2.545569146e-18 -0.001092669086 1.847024758e-18 -0.0003767463674)
(0.003783582675 -0.02982517759 -9.354768371e-19 -0.003492779889 -1.546214411e-18 -0.000290802786)
(0.005877741617 -0.0284073592 5.504413077e-19 -0.005689326616 3.234987832e-19 -0.0001884150006)
(0.007512820703 -0.02744407674 -1.464142827e-18 -0.00744461909 -4.112962234e-19 -6.820161332e-05)
(-0.1460881785 -0.1061377011 1.005588808e-18 0.146135863 2.985547039e-19 -4.76845222e-05)
(-0.1231556459 -0.1099296759 -5.664195449e-19 0.1232851462 5.340744815e-19 -0.0001295002956)
(-0.1047051671 -0.1092684281 8.41159788e-20 0.1049080827 -8.529078526e-20 -0.0002029155903)
(-0.08992250932 -0.1057893169 1.416519938e-19 0.09019152958 4.006064087e-19 -0.0002690202669)
(-0.07753080301 -0.1011414847 -8.663572235e-19 0.07785960828 -3.498059327e-19 -0.0003288052758)
(-0.06701696816 -0.0955496997 5.153681368e-19 0.06739960019 -3.383975407e-19 -0.0003826320355)
(-0.05799014847 -0.08986465116 -4.080881644e-19 0.05842102138 -4.370625475e-19 -0.0004308729083)
(-0.04997375814 -0.08394780324 -4.141062051e-19 0.0504473306 -3.885869451e-19 -0.0004735724683)
(-0.04299082932 -0.07827484439 7.802634033e-19 0.04350153628 2.281704124e-20 -0.0005107069576)
(-0.03657170549 -0.07267244353 1.074065592e-18 0.03711380736 4.107375174e-20 -0.0005421018798)
(-0.03092529036 -0.06739047321 1.240335059e-18 0.03149276434 2.58910759e-19 -0.0005674739864)
(-0.02560841184 -0.06232361831 1.511407957e-19 0.02619488324 3.805236865e-19 -0.0005864713997)
(-0.02089786191 -0.05756431806 3.883919592e-19 0.02149646455 9.653023604e-19 -0.0005986026386)
(-0.01639736144 -0.05310112927 7.244469135e-19 0.01700072461 2.152751264e-19 -0.0006033631769)
(-0.01238956173 -0.04890874234 7.839561566e-19 0.01298963707 1.304379613e-18 -0.0006000753433)
(-0.008539776354 -0.04506826775 3.347416986e-19 0.009127870421 -3.024661741e-19 -0.000588094067)
(-0.005100028586 -0.04146528186 -6.578979582e-19 0.005666593255 -1.256838212e-18 -0.000566564669)
(-0.001813142028 -0.03826030517 -5.725906702e-20 0.002347841978 7.791081384e-19 -0.0005346999503)
(0.001131238236 -0.03527754151 5.245828537e-19 -0.0006397691668 -1.194289894e-18 -0.0004914690689)
(0.003885581568 -0.03273298818 -7.948131576e-19 -0.003449654218 -1.024162014e-18 -0.0004359273502)
(0.006365231542 -0.03042657457 -6.95736669e-19 -0.005998359538 -1.086697491e-18 -0.0003668720037)
(0.008569225756 -0.02858778033 1.088970271e-18 -0.00828605147 -1.462545049e-18 -0.0002831742866)
(0.01058436189 -0.02705240115 -1.627604626e-18 -0.01040089638 5.258284277e-20 -0.0001834655039)
(0.01218329462 -0.02599249258 1.679891394e-18 -0.01211689061 -2.588212083e-19 -6.640401079e-05)
(-0.1402274194 -0.1143277639 -1.461654106e-19 0.1402736737 5.952228949e-19 -4.625422198e-05)
(-0.115376623 -0.1159310146 5.333062643e-19 0.115502235 -6.983571555e-19 -0.0001256120221)
(-0.09589875991 -0.1136737368 -6.743454978e-19 0.09609558352 1.423078877e-18 -0.0001968236131)
(-0.08070287724 -0.1090469383 8.278481726e-19 0.08096382087 -7.565335654e-19 -0.000260943632)
(-0.06820541642 -0.1035140079 -5.678049186e-19 0.06852435067 1.591269632e-19 -0.0003189342498)
(-0.05783086057 -0.09724444966 -3.709152101e-20 0.05820200744 8.399805214e-19 -0.0003711468733)
(-0.04904640643 -0.09101677669 6.56541699e-19 0.04946434704 3.396574979e-19 -0.0004179406138)
(-0.0413657421 -0.08465649565 -5.677658895e-19 0.04182510314 8.537368647e-19 -0.0004593610437)
(-0.03474719059 -0.07862026765 -7.880559292e-19 0.03524257346 1.508517162e-19 -0.0004953828683)
(-0.02871662335 -0.07270093945 -4.656009725e-19 0.02924246176 8.874813938e-19 -0.0005258384103)
(-0.02346091024 -0.06715576489 -3.093185621e-19 0.02401136155 -9.81074647e-19 -0.0005504513147)
(-0.0185245434 -0.06184492993 5.595281568e-19 0.01909342464 8.630001392e-19 -0.0005688812494)
(-0.01418832293 -0.05688119038 -1.221267021e-19 0.01476897301 -1.49844552e-18 -0.0005806500861)
(-0.01003336353 -0.05221863605 -4.146164428e-19 0.01061863269 -4.136683955e-19 -0.0005852691552)
(-0.006363176307 -0.04785791499 9.077052864e-19 0.006945256118 -8.387809586e-19 -0.0005820798115)
(-0.002811139399 -0.04384715635 1.023013992e-19 0.00338159676 -1.747865451e-18 -0.0005704573604)
(0.0003390178494 -0.04009894817 9.420614402e-19 0.0002105537849 7.97606507e-19 -0.0005495716343)
(0.003383200723 -0.03674444844 -1.712227573e-19 -0.002864540111 -1.638202001e-18 -0.0005186606121)
(0.006094721205 -0.03363173827 9.387744555e-19 -0.005617997922 1.682649765e-18 -0.0004767232834)