/*--------------------------------*- C++ -*----------------------------------*\
| =========                 |                                                 |
| \\      /  F ield         | foam-extend: Open Source CFD                    |
|  \\    /   O peration     | Version:  3.0                                   |
|   \\  /    A nd           | Web:         http://www.extend-project.de       |
|    \\/     M anipulation  |                                                 |
\*---------------------------------------------------------------------------*/
FoamFile
{
    version     2.0;
    format      ascii;
    class       volSymmTensorField;
    location    "12";
    object      sigma;
}
// * * * * * * * * * * * * * * * * * * * * * * * * * * * * * * * * * * * * * //

dimensions      [0 0 0 0 0 0 0];

internalField   nonuniform List<symmTensor> 
168
(
(-0.143798 -0.0199856 -8.02969e-19 0.144203 1.53557e-20 -0.000405294)
(-0.111989 -0.0208453 2.34952e-19 0.11289 1.02015e-18 -0.000900656)
(-0.0780637 -0.0178491 6.5967e-19 0.0793017 -2.26624e-19 -0.00123798)
(-0.0482398 -0.0144374 -7.62868e-19 0.0496077 3.46957e-18 -0.00136793)
(-0.0248239 -0.0114735 1.03338e-18 0.0260308 5.86905e-19 -0.00120693)
(-0.0114391 -0.0106037 -2.61168e-19 0.0120174 -2.12128e-18 -0.000578343)
(-0.130438 -0.0568418 1.70276e-19 0.130817 7.1951e-20 -0.000378545)
(-0.0932813 -0.0565702 8.08081e-19 0.0941227 -3.86671e-18 -0.000841366)
(-0.0599951 -0.0469596 2.14019e-18 0.0611521 -2.47309e-18 -0.001157)
(-0.0321038 -0.0365093 3.37193e-18 0.0333818 -3.87103e-18 -0.00127806)
(-0.0108166 -0.0273939 -4.19531e-18 0.0119443 -3.05724e-20 -0.00112774)
(0.00212955 -0.0233314 -2.80339e-19 -0.00158954 3.32526e-18 -0.000540004)
(-0.107058 -0.0853302 9.86409e-19 0.107391 -5.93299e-18 -0.000333125)
(-0.0625553 -0.0777551 -4.8651e-18 0.063296 4.98806e-19 -0.000740709)
(-0.031051 -0.0611074 -6.99406e-19 0.0320696 -8.64666e-19 -0.00101861)
(-0.00682814 -0.0446033 -3.85556e-19 0.00795333 1.08264e-18 -0.00112518)
(0.0106091 -0.0307456 9.60814e-18 -0.00961668 4.74536e-18 -0.000992377)
(0.0223364 -0.0236848 1.43619e-18 -0.0218615 -5.24351e-18 -0.000474823)
(-0.0790474 -0.103048 1.51022e-18 0.0793183 2.73671e-18 -0.000270879)
(-0.0302759 -0.0813028 3.12358e-18 0.0308785 5.56862e-18 -0.000602536)
(-0.00226746 -0.057419 4.88558e-19 0.00309603 -1.08107e-18 -0.000828568)
(0.0171074 -0.0362513 -2.06571e-19 -0.0161922 3.43874e-18 -0.000915276)
(0.0299131 -0.0194917 -3.89029e-18 -0.0291063 -9.70369e-18 -0.000806752)
(0.0397523 -0.00982641 -2.54705e-19 -0.0393666 1.89942e-18 -0.000385649)
(-0.0516812 -0.110979 -4.02554e-18 0.0518763 1.78806e-18 -0.000195063)
(-0.00625828 -0.0710089 8.31312e-19 0.00669232 -3.87674e-18 -0.000434036)
(0.0160807 -0.0403534 -1.58311e-18 -0.0154839 8.4416e-19 -0.000596818)
(0.0300088 -0.016002 2.72537e-18 -0.0293496 -1.13047e-18 -0.00065911)
(0.0383181 0.00199928 2.83727e-19 -0.0377377 2.67889e-18 -0.00058035)
(0.0457326 0.0136955 -2.96226e-18 -0.0454557 2.04549e-18 -0.000276921)
(-0.0282205 -0.112616 1.17822e-18 0.0283297 3.82949e-19 -0.000109232)
(0.00431552 -0.0556333 -1.00303e-18 -0.00407225 1.21541e-18 -0.000243274)
(0.0188196 -0.0196394 -1.0479e-18 -0.018485 4.7493e-19 -0.000334523)
(0.0271471 0.00659534 -1.37679e-18 -0.0267778 -6.85024e-19 -0.000369277)
(0.0316589 0.0247876 -1.47721e-18 -0.0313345 -8.39036e-19 -0.000324395)
(0.0362768 0.037895 1.58977e-18 -0.0361227 -2.47538e-19 -0.000154123)
(-0.00887557 -0.112074 3.25866e-20 0.00889338 -1.97249e-19 -1.78145e-05)
(0.00296552 -0.044824 4.83776e-20 -0.00292549 -5.88604e-19 -4.00246e-05)
(0.00800905 -0.00587066 9.45287e-19 -0.00795396 -3.44062e-19 -5.50911e-05)
(0.0107976 0.0212092 -3.15556e-20 -0.0107371 -5.7121e-19 -6.04905e-05)
(0.0122365 0.0392663 -2.41316e-20 -0.0121847 9.53396e-19 -5.17463e-05)
(0.0138876 0.0530747 -1.82478e-19 -0.0138643 -9.05434e-21 -2.33317e-05)
(0.00875738 -0.112083 -7.10732e-21 -0.00883209 3.76569e-19 7.47052e-05)
(-0.00308493 -0.0448447 9.85715e-20 0.00291932 4.16094e-19 0.000165611)
(-0.00810063 -0.00588973 9.7974e-20 0.00787313 -6.24887e-19 0.000227499)
(-0.0108161 0.0211898 1.0777e-18 0.0105645 -9.09268e-19 0.000251594)
(-0.0121565 0.0392442 -1.76627e-19 0.011933 -8.74154e-19 0.00022351)
(-0.0136233 0.0530804 -3.41288e-19 0.0135147 -7.75971e-20 0.000108536)
(0.0281021 -0.11264 1.20561e-18 -0.0282657 -1.95546e-19 0.000163602)
(-0.00443224 -0.0556749 -2.0618e-18 0.00406905 -1.15454e-18 0.000363196)
(-0.018913 -0.0196756 -1.15432e-18 0.018414 -7.87558e-19 0.000498976)
(-0.0271678 0.00657538 -1.99533e-18 0.0266165 -1.91093e-18 0.000551337)
(-0.0316106 0.0247639 5.30775e-19 0.0311228 1.90464e-18 0.000487827)
(-0.0360451 0.0379838 1.8523e-18 0.03581 7.40897e-21 0.000235147)
(0.0515701 -0.11102 -4.05162e-18 -0.0518145 -1.063e-18 0.00024441)
(0.00617324 -0.0710632 8.14659e-19 -0.00671601 3.93633e-18 0.000542762)
(-0.0161474 -0.0404039 -1.25776e-18 0.0154019 4.89827e-20 0.000745558)
(-0.0300241 -0.016042 3.58133e-19 0.0292007 5.06854e-19 0.000823386)
(-0.038255 0.00195162 3.09796e-18 0.0375276 -5.91937e-18 0.000727372)
(-0.0455749 0.0137215 -3.15805e-18 0.0452253 -1.11071e-18 0.000349608)
(0.0789511 -0.103107 2.03719e-18 -0.0792642 -2.48582e-18 0.000313085)
(0.0302152 -0.0813699 5.28617e-18 -0.0309105 -3.1803e-18 0.000695346)
(0.00222163 -0.0574878 -1.76307e-18 -0.00317669 -4.80753e-19 0.000955057)
(-0.0171183 -0.0362811 2.65724e-18 0.0160639 1.46524e-18 0.00105443)
(-0.0298614 -0.0196113 -9.84813e-18 0.0289307 4.65823e-18 0.00093074)
(-0.039684 -0.00983541 1.31618e-18 0.0392372 -3.4433e-19 0.000446752)
(0.106984 -0.085408 2.24739e-18 -0.10735 5.56837e-18 0.000366115)
(0.0625138 -0.0778239 -4.93424e-18 -0.063327 -1.36175e-19 0.000813179)
(0.0310411 -0.0611783 5.92354e-19 -0.0321579 3.23115e-18 0.00111675)
(0.00680857 -0.0446889 -2.30805e-18 -0.0080412 -2.90657e-18 0.00123263)
(-0.01056 -0.0308676 3.72135e-18 0.00947266 -6.4767e-19 0.00108734)
(-0.0223294 -0.023785 2.40097e-18 0.0218082 4.0149e-18 0.000521268)
(0.130383 -0.0569257 1.56778e-19 -0.130784 -4.50738e-19 0.000400919)
(0.093251 -0.0566311 1.81543e-18 -0.0941415 1.74289e-18 0.000890492)
(0.0599852 -0.0470333 1.96259e-18 -0.061208 3.78925e-18 0.00122281)
(0.0320706 -0.0365957 -2.27406e-18 -0.03342 3.1044e-18 0.00134939)
(0.0108774 -0.0275583 -1.11613e-19 -0.0120672 1.98963e-18 0.00118974)
(-0.00200717 -0.0235342 -1.04905e-18 0.00143736 -1.42766e-18 0.000569812)
(0.143775 -0.0200604 -6.3548e-19 -0.144191 -6.16089e-19 0.000415647)
(0.111982 -0.0209028 -1.98988e-19 -0.112905 -1.59323e-18 0.000923252)
(0.0780897 -0.0178582 6.2342e-19 -0.0793574 -1.50752e-18 0.00126768)
(0.0482242 -0.014559 -8.45956e-19 -0.0496229 -1.07651e-18 0.00139865)
(0.0249143 -0.0116296 1.45438e-18 -0.0261468 4.89846e-19 0.0012326)
(0.0115561 -0.0109655 -1.08328e-19 -0.0121459 -6.98648e-19 0.000589827)
(0.143801 0.0199638 -8.00164e-19 -0.144211 1.68943e-20 0.000409656)
(0.112079 0.0204652 2.37756e-19 -0.112988 1.0181e-18 0.000909962)
(0.0782416 0.0170987 6.60941e-19 -0.079491 -2.21595e-19 0.00124938)
(0.0485949 0.013031 -7.6392e-19 -0.0499732 3.46608e-18 0.00137833)
(0.0253306 0.00931724 1.02059e-18 -0.026545 5.94248e-19 0.0012144)
(0.0123245 0.00686539 -2.59981e-19 -0.0129053 -2.11872e-18 0.000580864)
(0.130449 0.056822 1.67542e-19 -0.130833 6.98951e-20 0.00038312)
(0.0935186 0.0562611 8.03076e-19 -0.0943696 -3.86528e-18 0.000851063)
(0.0604546 0.0463454 2.14418e-18 -0.061623 -2.4748e-18 0.0011684)
(0.0329786 0.0353468 3.37175e-18 -0.0342674 -3.86764e-18 0.00128878)
(0.0121607 0.0256359 -4.17001e-18 -0.0132957 -2.08589e-20 0.00113498)
(0.000165301 0.0202687 -2.86998e-19 -0.000707781 3.30881e-18 0.000542479)
(0.107084 0.0853112 9.90497e-19 -0.107421 -5.92982e-18 0.000337467)
(0.0628876 0.077559 -4.86017e-18 -0.0636372 4.99128e-19 0.000749637)
(0.0317099 0.0607166 -7.03059e-19 -0.032739 -8.66747e-19 0.00102902)
(0.00807777 0.0439332 -3.83261e-19 -0.00921255 1.07827e-18 0.00113477)
(-0.00872887 0.0296464 9.5831e-18 0.00773001 4.7331e-18 0.00099886)
(-0.0190072 0.021896 1.43043e-18 0.0185302 -5.21663e-18 0.000476986)
(0.0790856 0.103038 1.50519e-18 -0.0793605 2.73308e-18 0.000274868)
(0.0306366 0.0812683 3.12009e-18 -0.0312472 5.56574e-18 0.000610584)
(0.00301918 0.0573439 4.87831e-19 -0.0038571 -1.07244e-18 0.000837913)
(-0.0157592 0.0361531 -2.09587e-19 0.0148356 3.43596e-18 0.000923616)
(-0.0278289 0.0192795 -3.86914e-18 0.0270166 -9.67578e-18 0.000812251)
(-0.036139 0.00959239 -2.34793e-19 0.0357517 1.86653e-18 0.000387254)
(0.0517333 0.110982 -4.02321e-18 -0.0519319 1.79096e-18 0.000198578)
(0.00659973 0.0711111 8.32562e-19 -0.00704078 -3.87033e-18 0.000441052)
(-0.0153844 0.0405835 -1.58106e-18 0.0147794 8.37526e-19 0.000604918)
(-0.0288003 0.0164477 2.72977e-18 0.0281341 -1.13182e-18 0.00066619)
(-0.0364058 -0.00133569 2.72166e-19 0.0358209 2.65743e-18 0.000584911)
(-0.042484 -0.0122834 -2.95062e-18 0.0422059 2.04719e-18 0.000278072)
(0.028261 0.112637 1.17717e-18 -0.0283734 3.81011e-19 0.000112336)
(-0.0040851 0.0558454 -1.00174e-18 0.00383566 1.21142e-18 0.00024944)
(-0.0183331 0.0201241 -1.04869e-18 0.0179915 4.76719e-19 0.000341589)
(-0.0263254 -0.00572922 -1.37675e-18 0.0259501 -6.82809e-19 0.000375322)
(-0.0303089 -0.0234169 -1.47121e-18 0.0299808 -8.27835e-19 0.000328141)
(-0.0340481 -0.0352735 1.57453e-18 0.0338932 -2.45047e-19 0.000154887)
(0.00889967 0.112118 3.30606e-20 -0.00892027 -1.95127e-19 2.05955e-05)
(-0.00286846 0.0451162 4.86566e-20 0.00282289 -5.84349e-19 4.55719e-05)
(-0.00781422 0.00650957 9.44194e-19 0.00775278 -3.44691e-19 6.14388e-05)
(-0.010475 -0.0201091 -2.98988e-20 0.0104091 -5.71683e-19 6.59317e-05)
(-0.0116988 -0.0374663 -2.67413e-20 0.0116436 9.38794e-19 5.51683e-05)
(-0.0130688 -0.0497893 -1.78187e-19 0.0130447 -5.92538e-21 2.41028e-05)
(-0.00876086 0.112125 -5.23465e-21 0.00883296 3.73974e-19 -7.21024e-05)
(0.00303671 0.0451214 9.79175e-20 -0.00287633 4.1225e-19 -0.000160379)
(0.00797781 0.00651803 1.01601e-19 -0.00775628 -6.25004e-19 -0.000221532)
(0.0105908 -0.0201123 1.07372e-18 -0.0103443 -9.06924e-19 -0.000246497)
(0.0117906 -0.03745 -1.74884e-19 -0.0115702 -8.62886e-19 -0.000220372)
(0.0128609 -0.0498185 -3.41538e-19 -0.0127531 -7.94793e-20 -0.000107803)
(-0.0281379 0.112671 1.2034e-18 0.0282989 -1.93397e-19 -0.000161005)
(0.00422648 0.055887 -2.06012e-18 -0.00386856 -1.15083e-18 -0.000357911)
(0.0184774 0.0201614 -1.1548e-18 -0.0179845 -7.90799e-19 -0.000492907)
(0.0264405 -0.0057294 -1.99623e-18 -0.0258945 -1.9109e-18 -0.000546018)
(0.0304024 -0.0233621 5.35538e-19 -0.0299181 1.8862e-18 -0.000484359)
(0.0339509 -0.0353383 1.83738e-18 -0.0337169 8.7661e-21 -0.000234021)
(-0.0516191 0.111028 -4.04946e-18 0.0518608 -1.06674e-18 -0.000241693)
(-0.00646504 0.0711644 8.16337e-19 0.0070022 3.93137e-18 -0.000537162)
(0.0155167 0.0406453 -1.25674e-18 -0.0147776 5.10409e-20 -0.000739112)
(0.0289423 0.0164604 3.65236e-19 -0.0281246 5.07892e-19 -0.000817782)
(0.0365058 -0.00125484 3.08024e-18 -0.035782 -5.90356e-18 -0.000723798)
(0.0424873 -0.0123435 -3.15377e-18 -0.0421388 -1.1148e-18 -0.00034847)
(-0.0789984 0.103092 2.0334e-18 0.0793085 -2.48038e-18 -0.000310072)
(-0.0305434 0.081315 5.28027e-18 0.0312324 -3.17944e-18 -0.00068907)
(-0.0029261 0.0574006 -1.75751e-18 0.00387387 -4.80884e-19 -0.000947768)
(0.0159036 0.0361812 2.64838e-18 -0.0148556 1.45743e-18 -0.00104802)
(0.0279214 0.0193809 -9.81439e-18 -0.0269949 4.64398e-18 -0.000926483)
(0.0362153 0.00971574 1.32447e-18 -0.0357701 -3.26487e-19 -0.000445209)
(-0.107018 0.0853751 2.24934e-18 0.107381 5.56591e-18 -0.000362726)
(-0.0628151 0.0776204 -4.92742e-18 0.0636212 -1.37633e-19 -0.000806067)
(-0.0316618 0.0607792 5.87108e-19 0.0327702 3.23194e-18 -0.00110838)
(-0.0079287 0.0439971 -2.30551e-18 0.00915413 -2.90715e-18 -0.00122543)
(0.00882283 0.0297916 3.69934e-18 -0.00774025 -6.32066e-19 -0.00108258)
(0.0191674 0.0220928 2.3911e-18 -0.0186477 3.98376e-18 -0.000519767)
(-0.13041 0.0568909 1.54215e-19 0.130807 -4.49244e-19 -0.000397032)
(-0.0934665 0.0563156 1.81075e-18 0.0943489 1.74199e-18 -0.000882344)
(-0.0604213 0.0463761 1.96085e-18 0.0616344 3.78726e-18 -0.0012131)
(-0.0328718 0.0354706 -2.27281e-18 0.0342128 3.1025e-18 -0.00134103)
(-0.0120448 0.0257688 -1.00052e-19 0.0132289 1.98359e-18 -0.00118408)
(-6.48623e-05 0.0205601 -1.04689e-18 0.000633006 -1.41656e-18 -0.000568143)
(-0.143789 0.0200363 -6.33684e-19 0.1442 -6.16746e-19 -0.000411201)
(-0.112057 0.0205241 -1.94459e-19 0.112971 -1.59369e-18 -0.000914046)
(-0.0782181 0.0171167 6.20133e-19 0.0794748 -1.50669e-18 -0.00125673)
(-0.0485155 0.0131569 -8.47345e-19 0.0499046 -1.07822e-18 -0.00138912)
(-0.0252622 0.00947362 1.43871e-18 0.0264884 4.95775e-19 -0.00122619)
(-0.0122211 0.00718177 -1.03579e-19 0.0128091 -7.05271e-19 -0.000587944)
)
;

boundaryField
{
    out
    {
        type            mySigma;
    }
    in
    {
        type            mySigma;
    }
    frontAndBack
    {
        type            empty;
    }
}


// ************************************************************************* //
