/*--------------------------------*- C++ -*----------------------------------*\
| =========                 |                                                 |
| \\      /  F ield         | foam-extend: Open Source CFD                    |
|  \\    /   O peration     | Version:  3.0                                   |
|   \\  /    A nd           | Web:         http://www.extend-project.de       |
|    \\/     M anipulation  |                                                 |
\*---------------------------------------------------------------------------*/
FoamFile
{
    version     2.0;
    format      ascii;
    class       volScalarField;
    location    "8.5";
    object      p;
}
// * * * * * * * * * * * * * * * * * * * * * * * * * * * * * * * * * * * * * //

dimensions      [0 0 0 0 0 0 0];

internalField   nonuniform List<scalar> 
400
(
1.96716
0.583076
0.659677
0.271308
0.703121
0.547366
1.0103
0.893255
1.32551
1.20902
1.62416
1.5043
1.92058
1.78465
2.18882
1.98441
2.28841
1.85281
1.78864
0.57533
3.88308
2.73681
2.58704
1.98455
2.12411
1.69398
1.87434
1.49416
1.65541
1.28469
1.42349
1.0443
1.16877
0.766698
0.87494
0.422373
0.46606
-0.121766
-0.33206
-1.31256
3.09715
2.04208
2.03356
1.57219
1.79126
1.48387
1.73729
1.46142
1.71401
1.43759
1.69535
1.40983
1.67975
1.37504
1.64106
1.28416
1.47308
0.966089
0.876405
-0.0581171
3.20103
2.5441
2.38571
1.99968
2.02956
1.71815
1.78757
1.48704
1.55962
1.25929
1.33801
1.04002
1.13377
0.834891
0.933494
0.605705
0.641038
0.201421
-0.0091639
-0.700545
2.52228
1.94928
1.94212
1.6456
1.78796
1.55856
1.74842
1.52699
1.75269
1.52949
1.80636
1.58441
1.92487
1.69828
2.08173
1.80829
2.13083
1.68838
1.68425
0.822397
2.32702
2.0028
1.91694
1.71478
1.71164
1.52445
1.54397
1.34991
1.38869
1.19812
1.27505
1.10513
1.24279
1.09751
1.29666
1.13158
1.31622
0.97074
0.882926
-0.00884967
1.93587
1.72089
1.73063
1.59114
1.66237
1.5163
1.63372
1.47245
1.65566
1.49236
1.77586
1.62947
2.04927
1.92524
2.48672
2.33157
2.92766
2.52377
2.75003
1.4905
1.62747
1.62111
1.58597
1.52916
1.47771
1.37309
1.32543
1.19588
1.17634
1.05256
1.09515
1.01206
1.16051
1.14017
1.4267
1.42155
1.78867
1.53056
1.61075
0.270137
1.39998
1.55816
1.56057
1.55728
1.53369
1.44596
1.46124
1.33108
1.42693
1.28789
1.51519
1.40497
1.83246
1.78071
2.4701
2.43482
3.33127
3.00238
3.59328
1.83673
1.04166
1.39583
1.3803
1.4437
1.32194
1.26456
1.12933
1.02062
0.909198
0.796078
0.747253
0.683684
0.757912
0.798767
1.06755
1.20028
1.65781
1.56406
1.7985
0.192999
0.908105
1.44962
1.42231
1.53297
1.40685
1.3555
1.2544
1.12603
1.09483
0.935592
1.02837
0.892889
1.20424
1.15809
1.81927
1.87554
2.95246
2.80759
3.84882
1.96376
0.56782
1.25929
1.24671
1.40586
1.21715
1.18628
0.963537
0.8441
0.620737
0.4661
0.272524
0.150838
0.049623
0.0570818
0.148907
0.358613
0.712774
0.903956
1.20484
-0.0492096
0.519009
1.35861
1.303
1.50023
1.29722
1.27111
1.06544
0.919399
0.742112
0.52358
0.416468
0.189117
0.250298
0.117617
0.531508
0.609041
1.61105
1.78272
3.2601
2.03721
0.27559
1.18685
1.17509
1.40334
1.1761
1.1643
0.873529
0.726117
0.39043
0.156088
-0.211924
-0.46247
-0.817403
-0.954186
-1.19201
-1.01816
-0.996733
-0.431751
-0.223975
-0.200642
0.343505
1.30557
1.24286
1.49663
1.26223
1.2581
0.975662
0.802616
0.483882
0.181706
-0.154771
-0.526497
-0.810368
-1.12626
-1.16954
-1.18875
-0.602074
-0.0433972
1.67883
2.16066
0.286838
1.23479
1.22558
1.49463
1.26166
1.26542
0.930429
0.747749
0.315602
-0.01557
-0.553113
-0.975863
-1.60913
-1.98946
-2.64475
-2.66997
-3.16251
-2.27418
-2.36471
-0.0963066
0.53696
1.39713
1.34777
1.62763
1.39681
1.40806
1.07294
0.868348
0.431049
0.0413944
-0.506503
-1.04155
-1.68716
-2.25679
-2.87901
-3.1513
-3.32134
-2.48631
-1.02211
2.11576
0.776243
1.54543
1.52876
1.80342
1.57249
1.57556
1.20712
0.983732
0.481407
0.0603041
-0.603912
-1.19694
-2.06274
-2.73826
-3.79456
-4.20866
-5.27562
-4.39189
-4.98791
0.0129622
1.27471
1.81826
1.77853
2.04664
1.81087
1.80905
1.42617
1.18206
0.661373
0.201136
-0.492175
-1.16368
-2.08984
-2.9246
-4.08904
-4.77594
-5.90513
-5.2243
-5.01716
0.973631
1.9438
2.34381
2.27487
2.49238
2.21872
2.16733
1.75836
1.47857
0.94496
0.458202
-0.247447
-0.96155
-1.92964
-2.87878
-4.17725
-5.15569
-6.65268
-6.53663
-7.64721
-1.21636
)
;

boundaryField
{
    cavity
    {
        type            implicitExtrapolation;
    }
    lid
    {
        type            implicitExtrapolation;
    }
    frontAndBack
    {
        type            empty;
    }
}


// ************************************************************************* //
