/*--------------------------------*- C++ -*----------------------------------*\
| =========                 |                                                 |
| \\      /  F ield         | foam-extend: Open Source CFD                    |
|  \\    /   O peration     | Version:  3.0                                   |
|   \\  /    A nd           | Web:         http://www.extend-project.de       |
|    \\/     M anipulation  |                                                 |
\*---------------------------------------------------------------------------*/
FoamFile
{
    version     2.0;
    format      ascii;
    class       volVectorField;
    location    "8.5";
    object      s;
}
// * * * * * * * * * * * * * * * * * * * * * * * * * * * * * * * * * * * * * //

dimensions      [0 0 0 0 0 0 0];

internalField   nonuniform List<vector> 
400
(
(-0.0273131 0.0554087 1.26901e-317)
(-0.0457355 0.078896 2.26252e-317)
(-0.101504 0.0809625 2.59603e-317)
(-0.130178 0.0664058 2.63225e-317)
(-0.171381 0.0560797 2.53835e-317)
(-0.194737 0.0412081 2.388e-317)
(-0.220373 0.031151 2.21796e-317)
(-0.234803 0.0194037 2.04651e-317)
(-0.246628 0.0103319 1.87996e-317)
(-0.251156 0.000117367 1.72476e-317)
(-0.250112 -0.00912229 1.57888e-317)
(-0.244018 -0.0196372 1.44549e-317)
(-0.229853 -0.0298658 1.32081e-317)
(-0.212705 -0.0416345 1.20526e-317)
(-0.18482 -0.0524252 1.09509e-317)
(-0.15781 -0.0648854 9.86615e-318)
(-0.116973 -0.0734283 8.73002e-318)
(-0.0856943 -0.0819202 7.4199e-318)
(-0.0371357 -0.0764625 5.64258e-318)
(-0.0180613 -0.0502789 2.81354e-318)
(-0.02987 0.0318702 1.70288e-317)
(-0.0682769 0.0709685 3.36697e-317)
(-0.130015 0.0866785 4.08154e-317)
(-0.17471 0.0847621 4.28444e-317)
(-0.226531 0.0752436 4.22608e-317)
(-0.263307 0.0606886 4.04057e-317)
(-0.298823 0.0452499 3.79713e-317)
(-0.321906 0.0288494 3.53744e-317)
(-0.339386 0.0128282 3.27549e-317)
(-0.346648 -0.00337619 3.02613e-317)
(-0.34561 -0.0194152 2.78691e-317)
(-0.336131 -0.0354826 2.56415e-317)
(-0.316298 -0.0513023 2.35056e-317)
(-0.290198 -0.0662967 2.14735e-317)
(-0.2523 -0.0795734 1.94461e-317)
(-0.212249 -0.0892568 1.7367e-317)
(-0.160235 -0.092888 1.50684e-317)
(-0.114285 -0.0865131 1.23568e-317)
(-0.0581095 -0.0649061 8.81899e-318)
(-0.022092 -0.0249776 3.84474e-318)
(-0.0293524 0.096254 1.6288e-317)
(-0.0652776 0.169759 3.31151e-317)
(-0.12593 0.191376 4.10048e-317)
(-0.168389 0.179605 4.37983e-317)
(-0.217292 0.158142 4.38319e-317)
(-0.252382 0.127281 4.2429e-317)
(-0.285953 0.0965858 4.03012e-317)
(-0.308659 0.063468 3.78969e-317)
(-0.325907 0.0315662 3.5388e-317)
(-0.334063 -0.00135579 3.29383e-317)
(-0.334236 -0.033905 3.0544e-317)
(-0.326494 -0.0672248 2.827e-317)
(-0.308662 -0.100141 2.60488e-317)
(-0.284443 -0.132446 2.3884e-317)
(-0.248453 -0.161589 2.16591e-317)
(-0.209574 -0.185703 1.92922e-317)
(-0.158369 -0.198792 1.65783e-317)
(-0.112297 -0.196249 1.32888e-317)
(-0.0553575 -0.163835 9.07768e-318)
(-0.0198575 -0.0857204 3.52715e-318)
(-0.0185696 0.0929595 1.34682e-317)
(-0.049488 0.177006 2.78454e-317)
(-0.090694 0.206713 3.50519e-317)
(-0.124747 0.199227 3.80708e-317)
(-0.161577 0.177749 3.87097e-317)
(-0.190521 0.145345 3.80483e-317)
(-0.217865 0.110875 3.66566e-317)
(-0.237745 0.073542 3.493e-317)
(-0.253261 0.0362329 3.30212e-317)
(-0.261939 -0.00226807 3.10866e-317)
(-0.264079 -0.0411738 2.91343e-317)
(-0.25997 -0.0807761 2.72292e-317)
(-0.247286 -0.120458 2.53183e-317)
(-0.229247 -0.158533 2.34022e-317)
(-0.201018 -0.193147 2.13736e-317)
(-0.169676 -0.219227 1.91395e-317)
(-0.128362 -0.231931 1.65019e-317)
(-0.0893221 -0.220998 1.3202e-317)
(-0.044956 -0.175669 8.94919e-318)
(-0.0128421 -0.0798415 3.3505e-318)
(-0.0150062 0.114848 9.80575e-318)
(-0.0361832 0.214626 2.086e-317)
(-0.067563 0.24804 2.69233e-317)
(-0.0918038 0.239664 2.9992e-317)
(-0.119655 0.214436 3.12202e-317)
(-0.141357 0.176739 3.1369e-317)
(-0.162871 0.136239 3.08282e-317)
(-0.17922 0.0920661 2.99074e-317)
(-0.19289 0.0475363 2.87326e-317)
(-0.20209 0.00103716 2.74447e-317)
(-0.206421 -0.0464507 2.60676e-317)
(-0.20671 -0.0955319 2.4669e-317)
(-0.199583 -0.145417 2.32217e-317)
(-0.188952 -0.194228 2.17378e-317)
(-0.167966 -0.239715 2.01389e-317)
(-0.145275 -0.275327 1.83514e-317)
(-0.110144 -0.295513 1.61994e-317)
(-0.0788297 -0.285853 1.34291e-317)
(-0.037112 -0.234269 9.63444e-318)
(-0.0119229 -0.113143 4.14976e-318)
(-0.00828025 0.111076 5.74713e-318)
(-0.0227027 0.212368 1.32859e-317)
(-0.0395669 0.248977 1.8151e-317)
(-0.0549118 0.242773 2.12547e-317)
(-0.0720895 0.219201 2.30746e-317)
(-0.0870375 0.18224 2.40445e-317)
(-0.102268 0.141918 2.43762e-317)
(-0.115266 0.0972714 2.42902e-317)
(-0.126952 0.0516543 2.38842e-317)
(-0.136651 0.00336031 2.32809e-317)
(-0.143175 -0.0467921 2.25183e-317)
(-0.147884 -0.0994628 2.16654e-317)
(-0.146737 -0.154132 2.07199e-317)
(-0.143873 -0.208492 1.97025e-317)
(-0.131383 -0.260523 1.85624e-317)
(-0.118064 -0.301605 1.72398e-317)
(-0.0913436 -0.326245 1.55736e-317)
(-0.0681574 -0.314515 1.32998e-317)
(-0.031666 -0.255473 9.91455e-318)
(-0.0112367 -0.115931 4.55024e-318)
(-0.00492634 0.113372 2.12583e-318)
(-0.0121374 0.217456 6.53201e-318)
(-0.0199144 0.255337 1.03141e-317)
(-0.0274312 0.250663 1.3417e-317)
(-0.0366787 0.227839 1.57233e-317)
(-0.0455643 0.191309 1.73778e-317)
(-0.0555139 0.151005 1.84421e-317)
(-0.0652473 0.105843 1.90581e-317)
(-0.0749409 0.059323 1.92999e-317)
(-0.0847968 0.00928384 1.9274e-317)
(-0.0929746 -0.043332 1.90289e-317)
(-0.101685 -0.0998967 1.86335e-317)
(-0.105726 -0.159676 1.81047e-317)
(-0.110567 -0.221175 1.74715e-317)
(-0.105438 -0.281586 1.6705e-317)
(-0.102074 -0.332566 1.57594e-317)
(-0.0812209 -0.366366 1.44905e-317)
(-0.0671338 -0.361176 1.26465e-317)
(-0.0294146 -0.301014 9.67328e-318)
(-0.0156788 -0.144208 4.63076e-318)
(-0.000597871 0.106257 -8.9705e-319)
(-0.00293469 0.205364 8.90119e-319)
(-0.000640709 0.243416 3.73489e-318)
(-0.00152076 0.240371 6.7745e-318)
(-0.00256221 0.220487 9.43267e-318)
(-0.0058629 0.186771 1.16143e-317)
(-0.0102698 0.149465 1.32615e-317)
(-0.0165472 0.106874 1.44484e-317)
(-0.0236725 0.0626901 1.52258e-317)
(-0.0328909 0.0142936 1.56835e-317)
(-0.0418883 -0.0374061 1.5874e-317)
(-0.0534116 -0.0943936 1.58641e-317)
(-0.062016 -0.156134 1.56811e-317)
(-0.0733649 -0.221802 1.53564e-317)
(-0.0760004 -0.288661 1.48721e-317)
(-0.0817477 -0.348037 1.41923e-317)
(-0.0689669 -0.39136 1.31834e-317)
(-0.0632639 -0.392347 1.16247e-317)
(-0.0281263 -0.332327 8.97936e-318)
(-0.0185558 -0.158085 4.3762e-318)
(0.00284026 0.100282 -2.94126e-318)
(0.00482409 0.194882 -3.09108e-318)
(0.0148223 0.231926 -1.03944e-318)
(0.0192771 0.230741 1.82756e-318)
(0.0248829 0.213297 4.63748e-318)
(0.02642 0.182643 7.12079e-318)
(0.0270593 0.148379 9.13531e-318)
(0.0243197 0.108756 1.06982e-317)
(0.0202188 0.0674371 1.18401e-317)
(0.0124482 0.0213856 1.26315e-317)
(0.00382132 -0.0283524 1.31226e-317)
(-0.0093702 -0.0847995 1.3373e-317)
(-0.0210026 -0.147041 1.34133e-317)
(-0.0382355 -0.216292 1.32695e-317)
(-0.0472924 -0.288368 1.29287e-317)
(-0.0633232 -0.357838 1.23548e-317)
(-0.0574067 -0.411285 1.14293e-317)
(-0.0638328 -0.425768 9.96842e-318)
(-0.0274963 -0.369658 7.5369e-318)
(-0.0275516 -0.186445 3.5138e-318)
(0.00581683 0.0896011 -4.17165e-318)
(0.0111345 0.175859 -5.662e-318)
(0.0281609 0.211447 -4.27612e-318)
(0.0374235 0.211803 -1.67845e-318)
(0.0493821 0.197649 1.11387e-318)
(0.055712 0.170819 3.71691e-318)
(0.0615906 0.140768 5.92896e-318)
(0.062947 0.105383 7.72154e-318)
(0.0626631 0.068368 9.10267e-318)
(0.0576754 0.0263947 1.0124e-317)
(0.0508052 -0.0195583 1.08281e-317)
(0.0381718 -0.0731767 1.12665e-317)
(0.0250762 -0.133811 1.14657e-317)
(0.00497042 -0.204015 1.14474e-317)
(-0.0100076 -0.279879 1.1195e-317)
(-0.0328992 -0.357558 1.06737e-317)
(-0.0367687 -0.422745 9.77411e-318)
(-0.0516888 -0.45088 8.35217e-318)
(-0.0236531 -0.404191 6.10265e-318)
(-0.0275021 -0.211108 2.65474e-318)
(0.0091781 0.0804694 -4.6443e-318)
(0.0162641 0.158519 -6.95264e-318)
(0.0392273 0.191362 -6.11525e-318)
(0.0517168 0.193207 -3.86113e-318)
(0.0689729 0.181541 -1.22909e-318)
(0.079214 0.158496 1.33012e-318)
(0.0899232 0.132361 3.58311e-318)
(0.0952823 0.101326 5.46276e-318)
(0.0992131 0.0688353 6.95737e-318)
(0.0977047 0.0314569 8.09946e-318)
(0.0938972 -0.00973001 8.92112e-318)
(0.0831146 -0.0592833 9.46254e-318)
(0.0706669 -0.116103 9.74421e-318)
(0.0486746 -0.185236 9.77968e-318)
(0.0301077 -0.261049 9.55044e-318)
(-0.00118989 -0.345287 9.01853e-318)
(-0.0128828 -0.417158 8.09248e-318)
(-0.0433865 -0.461532 6.66009e-318)
(-0.0187984 -0.420919 4.5594e-318)
(-0.0390997 -0.229825 1.67673e-318)
(0.0107174 0.0672156 -4.5133e-318)
(0.0200431 0.136224 -7.23334e-318)
(0.0470821 0.166697 -6.85821e-318)
(0.063001 0.169931 -4.99723e-318)
(0.0847947 0.161009 -2.62979e-318)
(0.0990988 0.141729 -2.29113e-319)
(0.114468 0.119696 1.95127e-318)
(0.124237 0.0932243 3.8177e-318)
(0.132806 0.0655513 5.33718e-318)
(0.135934 0.0333485 6.5255e-318)
(0.136416 -0.00244003 7.40364e-318)
(0.130018 -0.0466177 8.00115e-318)
(0.120186 -0.0984122 8.33337e-318)
(0.100869 -0.164032 8.40874e-318)
(0.0801948 -0.238549 8.20684e-318)
(0.047591 -0.326385 7.6939e-318)
(0.0250467 -0.407083 6.7931e-318)
(-0.0109772 -0.467989 5.42077e-318)
(-0.00653216 -0.445527 3.52068e-318)
(-0.0280588 -0.261664 1.1103e-318)
(0.0130458 0.0578038 -4.26875e-318)
(0.0218967 0.117168 -7.13097e-318)
(0.0522527 0.143748 -7.06838e-318)
(0.0696161 0.1476 -5.54934e-318)
(0.0949009 0.140418 -3.45593e-318)
(0.111993 0.124489 -1.25643e-318)
(0.131198 0.106023 7.95263e-319)
(0.144613 0.0838633 2.58621e-318)
(0.157495 0.0608025 4.0723e-318)
(0.165061 0.0337797 5.25324e-318)
(0.170403 0.00375872 6.14076e-318)
(0.168818 -0.0342987 6.75483e-318)
(0.16352 -0.0792649 7.10657e-318)
(0.147331 -0.139007 7.19854e-318)
(0.128017 -0.207303 7.01437e-318)
(0.0918999 -0.294039 6.52216e-318)
(0.0634909 -0.373127 5.66952e-318)
(0.0110126 -0.444682 4.39421e-318)
(0.0064547 -0.424911 2.71091e-318)
(-0.0408211 -0.253082 7.08792e-319)
(0.0128371 0.0440932 -3.50168e-318)
(0.0227945 0.0954646 -6.3027e-318)
(0.0542938 0.118923 -6.53238e-318)
(0.0738372 0.123624 -5.3875e-318)
(0.101703 0.118134 -3.62615e-318)
(0.121614 0.105258 -1.69423e-318)
(0.144031 0.090127 1.58971e-319)
(0.160913 0.0719778 1.80905e-318)
(0.177776 0.0532197 3.19972e-318)
(0.19011 0.0311772 4.31938e-318)
(0.200658 0.00668419 5.17132e-318)
(0.205736 -0.0249765 5.76787e-318)
(0.206367 -0.0629163 6.11771e-318)
(0.198284 -0.115254 6.22324e-318)
(0.182123 -0.176737 6.07103e-318)
(0.15311 -0.259523 5.63827e-318)
(0.116183 -0.339832 4.89027e-318)
(0.0670396 -0.424144 3.78539e-318)
(0.029408 -0.427542 2.35982e-318)
(-0.0100354 -0.288384 6.77581e-319)
(0.0128208 0.0362797 -3.41095e-318)
(0.0205497 0.0778462 -5.96612e-318)
(0.052 0.0966914 -6.23826e-318)
(0.0714377 0.100816 -5.27918e-318)
(0.100285 0.0962498 -3.74639e-318)
(0.121192 0.0859336 -2.03003e-318)
(0.145116 0.0736841 -3.59719e-319)
(0.163767 0.0591755 1.1452e-318)
(0.183075 0.0442501 2.42792e-318)
(0.198536 0.0267631 3.47004e-318)
(0.213319 0.00741841 4.27145e-318)
(0.223503 -0.0179184 4.83925e-318)
(0.230512 -0.0483231 5.17946e-318)
(0.228767 -0.0916423 5.29407e-318)
(0.219312 -0.142577 5.17592e-318)
(0.192987 -0.215035 4.80884e-318)
(0.157108 -0.283917 4.17794e-318)
(0.0952633 -0.36393 3.25688e-318)
(0.0494686 -0.360699 2.08142e-318)
(-0.0251376 -0.233539 6.76104e-319)
(0.0106291 0.0247059 -2.29671e-318)
(0.018296 0.0597842 -4.6512e-318)
(0.0488374 0.0747758 -5.11212e-318)
(0.0690905 0.0788916 -4.4736e-318)
(0.0985639 0.0750943 -3.25967e-318)
(0.120117 0.0670512 -1.83769e-318)
(0.144862 0.057413 -4.16507e-319)
(0.164471 0.0460975 8.81561e-319)
(0.185366 0.0346128 1.99954e-318)
(0.203408 0.0211301 2.91394e-318)
(0.221747 0.0064208 3.62004e-318)
(0.237726 -0.0131361 4.12423e-318)
(0.251098 -0.0364392 4.42942e-318)
(0.259787 -0.0708622 4.53968e-318)
(0.257729 -0.11148 4.45244e-318)
(0.246572 -0.173468 4.16019e-318)
(0.208719 -0.234428 3.6572e-318)
(0.165197 -0.318928 2.93032e-318)
(0.0794725 -0.33743 1.9934e-318)
(0.0343715 -0.272242 8.03751e-319)
(0.00732306 0.0195357 -2.66662e-318)
(0.0117825 0.0446019 -4.47395e-318)
(0.0385142 0.0546783 -4.73497e-318)
(0.0568257 0.0572828 -4.11393e-318)
(0.08353 0.0541635 -3.06325e-318)
(0.103245 0.0482501 -1.84974e-318)
(0.125577 0.0410357 -6.44919e-319)
(0.143594 0.0327338 4.56596e-319)
(0.16301 0.0241119 1.40773e-318)
(0.180408 0.0141152 2.18927e-318)
(0.199205 0.00306708 2.79673e-318)
(0.216459 -0.0113455 3.23412e-318)
(0.233667 -0.0286223 3.50524e-318)
(0.246392 -0.053637 3.61283e-318)
(0.25286 -0.0834348 3.55913e-318)
(0.246674 -0.128279 3.34145e-318)
(0.220437 -0.172273 2.96564e-318)
(0.170799 -0.231304 2.42692e-318)
(0.0946644 -0.232772 1.72217e-318)
(0.00801567 -0.155773 7.74408e-319)
(0.00329204 0.0120255 -1.08846e-318)
(0.00763535 0.0316501 -2.80835e-318)
(0.0330345 0.0376955 -3.23354e-318)
(0.0501049 0.0396957 -2.92769e-318)
(0.0754585 0.0370283 -2.18329e-318)
(0.0925487 0.0328153 -1.28452e-318)
(0.11294 0.0278386 -3.65194e-319)
(0.128429 0.022001 4.80983e-319)
(0.146216 0.0162532 1.21525e-318)
(0.16245 0.00926403 1.81883e-318)
(0.181021 0.00203301 2.28777e-318)
(0.20005 -0.00794756 2.62496e-318)
(0.219907 -0.0189797 2.83408e-318)
(0.240157 -0.0363548 2.91911e-318)
(0.253311 -0.0551939 2.88195e-318)
(0.264919 -0.08858 2.72509e-318)
(0.243799 -0.118164 2.4538e-318)
(0.228734 -0.177489 2.06895e-318)
(0.118971 -0.191968 1.55415e-318)
(0.102804 -0.207305 7.96765e-319)
(-0.00159354 0.00894627 -1.73371e-318)
(-0.000733295 0.0170857 -2.52641e-318)
(0.0153485 0.019234 -2.5884e-318)
(0.026739 0.019894 -2.22695e-318)
(0.0426516 0.0184649 -1.68309e-318)
(0.0539136 0.0165211 -1.0663e-318)
(0.0661771 0.0137099 -4.61828e-319)
(0.0760635 0.0105977 8.94703e-320)
(0.0868954 0.00690744 5.64648e-319)
(0.0971301 0.00268901 9.55706e-319)
(0.109455 -0.0022991 1.26084e-318)
(0.121634 -0.00839583 1.48201e-318)
(0.136816 -0.01585 1.62205e-318)
(0.150041 -0.0253258 1.68347e-318)
(0.16445 -0.0370486 1.6692e-318)
(0.170796 -0.051485 1.58237e-318)
(0.167764 -0.0678573 1.43193e-318)
(0.145715 -0.0815124 1.22264e-318)
(0.0906572 -0.080251 9.37746e-319)
(0.0284716 -0.0217514 4.95632e-319)
(-0.00391696 0.00440164 1.132e-319)
(-0.000160051 0.0101503 -6.96549e-319)
(0.0135042 0.00990181 -8.70109e-319)
(0.0200888 0.010117 -8.18024e-319)
(0.0322326 0.00903872 -5.79574e-319)
(0.037223 0.00786799 -3.03959e-319)
(0.0458814 0.00700957 -1.94909e-320)
(0.0503473 0.00561113 2.36702e-319)
(0.0576038 0.00493995 4.56971e-319)
(0.0635015 0.00339125 6.3606e-319)
(0.0716872 0.00277415 7.74522e-319)
(0.0810039 0.000639118 8.73795e-319)
(0.0915764 -3.73461e-05 9.35913e-319)
(0.105915 -0.00393363 9.62662e-319)
(0.11724 -0.00463228 9.54772e-319)
(0.136395 -0.0140219 9.13715e-319)
(0.134808 -0.0138813 8.43503e-319)
(0.155553 -0.0432209 7.489e-319)
(0.0858895 -0.0390318 6.31391e-319)
(0.135942 -0.124284 4.35504e-319)
)
;

boundaryField
{
    cavity
    {
        type            myHeatFlux;
        ThetaWall       uniform 0;
        value           nonuniform List<vector> 
60
(
(0.001 0 0)
(0.001 0 0)
(0.001 0 0)
(0.001 0 0)
(0.001 0 0)
(0.001 0 0)
(0.001 0 0)
(0.001 0 0)
(0.001 0 0)
(0.001 0 0)
(0.001 0 0)
(0.001 0 0)
(0.001 0 0)
(0.001 0 0)
(0.001 0 0)
(0.001 0 0)
(0.001 0 0)
(0.001 0 0)
(0.001 0 0)
(0.001 0 0)
(0 -0.001 0)
(0 -0.001 0)
(0 -0.001 0)
(0 -0.001 0)
(0 -0.001 0)
(0 -0.001 0)
(0 -0.001 0)
(0 -0.001 0)
(0 -0.001 0)
(0 -0.001 0)
(0 -0.001 0)
(0 -0.001 0)
(0 -0.001 0)
(0 -0.001 0)
(0 -0.001 0)
(0 -0.001 0)
(0 -0.001 0)
(0 -0.001 0)
(0 -0.001 0)
(0 -0.001 0)
(-0.001 0 0)
(-0.001 0 0)
(-0.001 0 0)
(-0.001 0 0)
(-0.001 0 0)
(-0.001 0 0)
(-0.001 0 0)
(-0.001 0 0)
(-0.001 0 0)
(-0.001 0 0)
(-0.001 0 0)
(-0.001 0 0)
(-0.001 0 0)
(-0.001 0 0)
(-0.001 0 0)
(-0.001 0 0)
(-0.001 0 0)
(-0.001 0 0)
(-0.001 0 0)
(-0.001 0 0)
)
;
    }
    lid
    {
        type            myHeatFlux;
        ThetaWall       uniform 0;
        value           nonuniform List<vector> 
20
(
(0.000135815 0.0009 0)
(0.000135815 0.0009 0)
(0.000135815 0.0009 0)
(0.000135815 0.0009 0)
(0.000135815 0.0009 0)
(0.000135815 0.0009 0)
(0.000135815 0.0009 0)
(0.000135815 0.0009 0)
(0.000135815 0.0009 0)
(0.000135815 0.0009 0)
(0.000135815 0.0009 0)
(0.000135815 0.0009 0)
(0.000135815 0.0009 0)
(0.000135815 0.0009 0)
(0.000135815 0.0009 0)
(0.000135815 0.0009 0)
(0.000135815 0.0009 0)
(0.000135815 0.0009 0)
(0.000135815 0.0009 0)
(0.000135815 0.0009 0)
)
;
    }
    frontAndBack
    {
        type            empty;
    }
}


// ************************************************************************* //
