/*--------------------------------*- C++ -*----------------------------------*\
| =========                 |                                                 |
| \\      /  F ield         | foam-extend: Open Source CFD                    |
|  \\    /   O peration     | Version:  3.0                                   |
|   \\  /    A nd           | Web:         http://www.extend-project.de       |
|    \\/     M anipulation  |                                                 |
\*---------------------------------------------------------------------------*/
FoamFile
{
    version     2.0;
    format      ascii;
    class       volScalarField;
    location    "2.3";
    object      p;
}
// * * * * * * * * * * * * * * * * * * * * * * * * * * * * * * * * * * * * * //

dimensions      [0 0 0 0 0 0 0];

internalField   nonuniform List<scalar> 
400
(
1.02936
0.984763
0.973251
0.953519
0.960084
0.954394
0.970514
0.971753
0.992273
0.996206
1.01816
1.02204
1.04311
1.04409
1.06084
1.05449
1.06109
1.04029
1.02794
0.982632
1.06874
1.02731
1.01943
1.00103
1.006
0.996287
1.00567
0.998544
1.00889
1.00207
1.01247
1.00533
1.01566
1.00765
1.01688
1.00591
1.01034
0.99063
0.98174
0.939649
1.04211
1.00157
0.994355
0.976172
0.984206
0.976442
0.990388
0.986824
1.00273
1.00045
1.01705
1.01462
1.03131
1.02721
1.04226
1.03343
1.04201
1.02217
1.01414
0.972342
1.03717
0.993584
0.988589
0.97076
0.980606
0.973524
0.98771
0.984346
0.999213
0.99679
1.01188
1.00941
1.02508
1.02145
1.03679
1.02885
1.03919
1.01941
1.01299
0.967279
1.0035
0.954438
0.9528
0.936243
0.951886
0.948709
0.969291
0.971045
0.99275
0.996093
1.01868
1.02221
1.04623
1.04829
1.07272
1.06909
1.08818
1.06897
1.06719
1.01296
0.986546
0.931347
0.93294
0.917878
0.936875
0.936435
0.958441
0.962583
0.98415
0.989601
1.01146
1.01736
1.04123
1.04639
1.07246
1.07239
1.09532
1.0773
1.07834
1.01399
0.952451
0.889129
0.897026
0.884781
0.910518
0.914949
0.942586
0.951837
0.97868
0.989348
1.01712
1.02856
1.06
1.07119
1.10745
1.11329
1.14901
1.1331
1.14456
1.06421
0.932235
0.864058
0.876843
0.868335
0.89691
0.905062
0.932737
0.944594
0.969578
0.98225
1.00725
1.02099
1.04992
1.06467
1.10039
1.11147
1.15043
1.13856
1.15525
1.06165
0.898424
0.82876
0.84845
0.845347
0.878261
0.891547
0.921823
0.937974
0.965151
0.981737
1.00961
1.02758
1.06126
1.08137
1.12537
1.14332
1.19568
1.18946
1.2218
1.11446
0.875235
0.814203
0.837345
0.840972
0.873298
0.890276
0.917697
0.935517
0.958257
0.975529
0.997667
1.01642
1.04352
1.06586
1.10362
1.12689
1.17604
1.17827
1.21339
1.10606
0.836536
0.792998
0.820368
0.832765
0.864795
0.88672
0.912928
0.933776
0.955349
0.974769
0.996308
1.0173
1.04519
1.07116
1.11273
1.14278
1.20157
1.21495
1.26798
1.16888
0.804125
0.791372
0.819457
0.841867
0.870025
0.895209
0.916331
0.937495
0.952771
0.971122
0.98463
1.00423
1.02171
1.04741
1.07601
1.10981
1.15486
1.1817
1.22838
1.16195
0.75591
0.780829
0.811121
0.845786
0.870592
0.900634
0.917981
0.940874
0.952516
0.971168
0.98123
1.00085
1.01536
1.04237
1.06985
1.10957
1.15936
1.20379
1.27095
1.24784
0.714185
0.78502
0.817327
0.864161
0.885212
0.917813
0.929704
0.951487
0.956353
0.972301
0.973583
0.989709
0.991973
1.01578
1.02577
1.06627
1.09295
1.15371
1.2019
1.24768
0.667619
0.782094
0.816617
0.877375
0.894714
0.931657
0.938747
0.960829
0.96074
0.975301
0.971411
0.985505
0.982112
1.00463
1.00947
1.05387
1.08121
1.16395
1.23722
1.35733
0.636029
0.792434
0.834304
0.905245
0.92076
0.958166
0.960211
0.979536
0.973178
0.983855
0.972027
0.9812
0.966233
0.982808
0.969511
1.00994
1.00943
1.10436
1.14377
1.35151
0.622499
0.80832
0.8495
0.931472
0.942854
0.982217
0.978761
0.996519
0.984733
0.992713
0.975215
0.980885
0.958939
0.971582
0.94993
0.989978
0.984842
1.09913
1.1619
1.45957
0.649016
0.844966
0.894808
0.977198
0.985412
1.02055
1.01161
1.02473
1.00768
1.01133
0.988029
0.988491
0.957903
0.962714
0.926116
0.955557
0.923737
1.03391
1.0466
1.40937
0.710376
0.898939
0.940458
1.02404
1.02513
1.0571
1.04164
1.05101
1.02885
1.02914
1.00098
0.997426
0.960244
0.958957
0.912093
0.934059
0.889306
1.00294
1.01478
1.45199
0.887379
1.00183
1.03357
1.09764
1.08796
1.10833
1.08647
1.0894
1.06382
1.0601
1.02957
1.02168
0.980995
0.971312
0.916701
0.919898
0.857869
0.934004
0.894258
1.27688
)
;

boundaryField
{
    cavity
    {
        type            implicitExtrapolation;
    }
    lid
    {
        type            implicitExtrapolation;
    }
    frontAndBack
    {
        type            empty;
    }
}


// ************************************************************************* //
