/*--------------------------------*- C++ -*----------------------------------*\
| =========                 |                                                 |
| \\      /  F ield         | foam-extend: Open Source CFD                    |
|  \\    /   O peration     | Version:  3.0                                   |
|   \\  /    A nd           | Web:         http://www.extend-project.de       |
|    \\/     M anipulation  |                                                 |
\*---------------------------------------------------------------------------*/
FoamFile
{
    version     2.0;
    format      ascii;
    class       volScalarField;
    location    "2.3";
    object      Theta;
}
// * * * * * * * * * * * * * * * * * * * * * * * * * * * * * * * * * * * * * //

dimensions      [0 0 0 0 0 0 0];

internalField   nonuniform List<scalar> 
400
(
0.0823907
0.0614653
0.0542431
0.0482144
0.0494736
0.0523193
0.0586364
0.0660887
0.0750004
0.0843594
0.094063
0.103403
0.112273
0.119549
0.125571
0.127755
0.128092
0.120461
0.11128
0.0872447
0.103886
0.083457
0.0782279
0.0725391
0.0731911
0.0738927
0.0769493
0.0801183
0.0840135
0.0878859
0.0918816
0.0955978
0.0991908
0.101878
0.104308
0.104176
0.103844
0.0970448
0.0905708
0.0694388
0.0971938
0.0766761
0.0712559
0.0651846
0.0665717
0.0677571
0.0720546
0.0763846
0.0818279
0.0872341
0.0929475
0.0982915
0.103616
0.107696
0.111643
0.112217
0.112824
0.105662
0.0989727
0.0775127
0.0942958
0.0723193
0.0679595
0.0622181
0.0647499
0.0664618
0.0714444
0.0760824
0.0818333
0.0873955
0.0933293
0.0989016
0.104684
0.109267
0.114157
0.115475
0.117455
0.110632
0.104922
0.081565
0.0839926
0.0591584
0.0556891
0.050347
0.0547541
0.0579062
0.0648806
0.0712909
0.0790392
0.086532
0.0945533
0.10219
0.110252
0.116957
0.124326
0.127441
0.131741
0.125155
0.120181
0.0924239
0.0745744
0.0467829
0.0449995
0.0405687
0.0472049
0.0518376
0.0605492
0.0682525
0.0773287
0.0859859
0.0952876
0.104234
0.113943
0.122354
0.132082
0.137182
0.144409
0.138663
0.135315
0.102479
0.0626107
0.0308426
0.0316887
0.0284332
0.0378326
0.0442288
0.0549916
0.0642495
0.0749235
0.0850154
0.095877
0.106426
0.118112
0.128584
0.141183
0.148739
0.159871
0.155263
0.154987
0.114322
0.0502215
0.016218
0.0202263
0.0187383
0.0307823
0.0388272
0.0512081
0.0615677
0.0732506
0.0841746
0.095941
0.107473
0.120522
0.132596
0.147679
0.157701
0.172887
0.17026
0.173937
0.126703
0.036274
0.00171479
0.0096378
0.0102782
0.0248389
0.0344053
0.0480947
0.0592982
0.0716559
0.0831013
0.0954048
0.107573
0.121575
0.134937
0.152174
0.164605
0.18407
0.183993
0.193407
0.139756
0.0211866
-0.00887984
0.0023494
0.00579666
0.0219284
0.0327273
0.0469789
0.0585201
0.070899
0.0822739
0.0944205
0.106549
0.12066
0.134594
0.152908
0.167309
0.189819
0.193325
0.207871
0.154304
0.0034988
-0.017779
-0.00302053
0.00377621
0.0209594
0.0328082
0.0471112
0.0586291
0.0705372
0.0813872
0.0928153
0.104351
0.117843
0.131735
0.150228
0.166223
0.19114
0.199114
0.22035
0.171349
-0.0155337
-0.021437
-0.00480709
0.00616601
0.0231631
0.0358428
0.0494499
0.0605193
0.0713859
0.0812114
0.0913076
0.101619
0.113603
0.126626
0.143797
0.160616
0.185372
0.198884
0.22349
0.190776
-0.0381969
-0.0254531
-0.00595489
0.00990413
0.0267425
0.0402837
0.0529325
0.0633073
0.0727662
0.0811969
0.0894972
0.0980972
0.107922
0.119488
0.134501
0.151803
0.176014
0.196244
0.22739
0.216381
-0.0595962
-0.0240443
-0.00333936
0.0179574
0.0337508
0.0479176
0.0590723
0.0683961
0.0760689
0.082755
0.0888754
0.0952978
0.102308
0.111622
0.123052
0.139707
0.160075
0.187195
0.217817
0.241337
-0.0820153
-0.0246974
-0.000828834
0.0262528
0.0416725
0.0565086
0.0661517
0.0742503
0.0799459
0.0846682
0.0883645
0.0923181
0.0961544
0.102804
0.110277
0.126036
0.143361
0.178363
0.215742
0.27547
-0.0961707
-0.0179232
0.0082122
0.040191
0.0545103
0.0692077
0.0768662
0.0832906
0.0868205
0.089387
0.0905951
0.0918541
0.0922874
0.0955503
0.0980462
0.111043
0.121539
0.161647
0.192377
0.296666
-0.103173
-0.00950108
0.0185643
0.0549896
0.0683952
0.0827076
0.0882628
0.092839
0.0941155
0.0944821
0.0931778
0.0917117
0.0886824
0.08839
0.0859189
0.0959109
0.10125
0.146826
0.18263
0.328652
-0.0882532
0.0112195
0.0418016
0.0785083
0.0897299
0.101685
0.104572
0.106678
0.105751
0.103907
0.100447
0.0963403
0.0902406
0.0858549
0.078185
0.0823049
0.0788958
0.121466
0.14107
0.32071
-0.0583339
0.039734
0.0673684
0.103752
0.111778
0.121012
0.120908
0.120472
0.117321
0.113411
0.107911
0.10139
0.0923413
0.0840156
0.0712403
0.069405
0.0585088
0.0981119
0.113467
0.323842
0.0285279
0.0935268
0.115687
0.141749
0.143971
0.146838
0.143426
0.139614
0.134861
0.12901
0.122567
0.113991
0.103539
0.0909733
0.0747884
0.0628321
0.0442005
0.062711
0.0556092
0.235357
)
;

boundaryField
{
    cavity
    {
        type            implicitExtrapolation;
    }
    lid
    {
        type            implicitExtrapolation;
    }
    frontAndBack
    {
        type            empty;
    }
}


// ************************************************************************* //
