/*--------------------------------*- C++ -*----------------------------------*\
| =========                 |                                                 |
| \\      /  F ield         | foam-extend: Open Source CFD                    |
|  \\    /   O peration     | Version:  3.0                                   |
|   \\  /    A nd           | Web:         http://www.extend-project.de       |
|    \\/     M anipulation  |                                                 |
\*---------------------------------------------------------------------------*/
FoamFile
{
    version     2.0;
    format      ascii;
    class       volVectorField;
    location    "2.3";
    object      u;
}
// * * * * * * * * * * * * * * * * * * * * * * * * * * * * * * * * * * * * * //

dimensions      [0 0 0 0 0 0 0];

internalField   nonuniform List<vector> 
400
(
(0.009312 0.0220061 5.09789e-316)
(-0.101777 0.0891407 4.60875e-316)
(-0.123046 0.0874906 3.73623e-316)
(-0.220537 0.121291 3.54457e-316)
(-0.263774 0.108446 2.58577e-316)
(-0.339024 0.107724 2.60306e-316)
(-0.380125 0.0882876 1.70348e-316)
(-0.428828 0.069535 1.8522e-316)
(-0.4532 0.0461626 1.04891e-316)
(-0.472065 0.0201703 1.29653e-316)
(-0.472975 -0.00489789 5.77003e-317)
(-0.459931 -0.0319802 8.95954e-317)
(-0.436554 -0.0571064 2.33199e-317)
(-0.390907 -0.0784479 5.92217e-317)
(-0.348983 -0.100304 -3.89234e-318)
(-0.272521 -0.103145 3.18046e-317)
(-0.227463 -0.117095 -2.73444e-317)
(-0.125357 -0.0823484 -1.69702e-318)
(-0.104269 -0.0826969 -4.47447e-317)
(0.0117405 -0.0114426 -4.7404e-317)
(-0.0322236 0.145826 1.74101e-316)
(-0.0930471 0.149367 2.13556e-316)
(-0.137471 0.129379 2.06063e-316)
(-0.193168 0.131084 2.10258e-316)
(-0.223838 0.107383 1.83759e-316)
(-0.266519 0.100082 1.7557e-316)
(-0.287844 0.0756379 1.42449e-316)
(-0.314728 0.0599444 1.32122e-316)
(-0.326016 0.0339985 9.94825e-317)
(-0.336233 0.0132559 9.1547e-317)
(-0.335943 -0.014312 6.21759e-317)
(-0.328806 -0.0354577 5.78051e-317)
(-0.316865 -0.0639882 3.18023e-317)
(-0.291852 -0.0804131 3.02416e-317)
(-0.26987 -0.109059 6.4599e-318)
(-0.226888 -0.116214 5.55318e-318)
(-0.196119 -0.143905 -1.74611e-317)
(-0.137735 -0.140012 -2.37409e-317)
(-0.0946147 -0.161438 -4.73738e-317)
(-0.0305942 -0.154334 -7.8069e-317)
(-0.0127153 0.230208 2.5159e-316)
(-0.0921113 0.265382 2.36464e-316)
(-0.138046 0.255486 2.09649e-316)
(-0.206455 0.265344 1.91899e-316)
(-0.251921 0.23257 1.60743e-316)
(-0.301538 0.213592 1.469e-316)
(-0.335428 0.170529 1.17059e-316)
(-0.366025 0.131416 1.06751e-316)
(-0.384056 0.0835329 7.97505e-317)
(-0.396946 0.0341558 7.23803e-317)
(-0.397597 -0.0162359 4.78176e-317)
(-0.39261 -0.0668379 4.22603e-317)
(-0.375158 -0.118092 1.86119e-317)
(-0.349724 -0.159854 1.2651e-317)
(-0.314728 -0.208276 -1.27886e-317)
(-0.26508 -0.228557 -2.34903e-317)
(-0.217478 -0.265699 -5.4325e-317)
(-0.142899 -0.252781 -7.86882e-317)
(-0.0971493 -0.261922 -1.17624e-316)
(-0.00879416 -0.219835 -1.69031e-316)
(-0.0244006 0.31418 3.11192e-317)
(-0.0976729 0.349727 7.91387e-317)
(-0.149094 0.314884 9.50251e-317)
(-0.197037 0.314837 1.06965e-316)
(-0.237285 0.263861 1.03901e-316)
(-0.264668 0.235782 9.94927e-317)
(-0.290511 0.183332 8.76841e-317)
(-0.305053 0.138647 7.78174e-317)
(-0.317794 0.086599 6.35425e-317)
(-0.324491 0.0336371 5.29e-317)
(-0.325192 -0.0201917 3.89001e-317)
(-0.325267 -0.0747021 2.90629e-317)
(-0.31318 -0.133164 1.61533e-317)
(-0.303717 -0.181243 7.65649e-318)
(-0.276655 -0.24514 -3.53439e-318)
(-0.250265 -0.274746 -9.34166e-318)
(-0.2074 -0.338176 -1.67093e-317)
(-0.153804 -0.332682 -1.51394e-317)
(-0.1027 -0.372493 -1.36047e-317)
(-0.0184069 -0.322381 5.88172e-318)
(-0.0347521 0.410371 1.93957e-316)
(-0.113941 0.450192 1.64879e-316)
(-0.185245 0.404892 1.44786e-316)
(-0.233421 0.397704 1.24879e-316)
(-0.290001 0.336264 1.0785e-316)
(-0.316123 0.294088 9.37181e-317)
(-0.353198 0.233556 7.87779e-317)
(-0.367917 0.171969 6.70199e-317)
(-0.386909 0.113972 5.34124e-317)
(-0.396579 0.0430131 4.27428e-317)
(-0.398782 -0.0156326 2.97873e-317)
(-0.40475 -0.0889049 1.92909e-317)
(-0.388531 -0.15261 5.84011e-318)
(-0.386473 -0.219557 -6.17287e-318)
(-0.347731 -0.29108 -2.23462e-317)
(-0.326705 -0.336559 -3.95523e-317)
(-0.263568 -0.411459 -6.23148e-317)
(-0.206972 -0.411454 -9.24374e-317)
(-0.130489 -0.463159 -1.2691e-316)
(-0.028631 -0.400282 -1.80092e-316)
(-0.0526018 0.521389 1.79279e-317)
(-0.116308 0.560975 5.16957e-317)
(-0.202405 0.485886 6.41882e-317)
(-0.224283 0.465318 7.29909e-317)
(-0.282358 0.385279 7.21432e-317)
(-0.284438 0.328445 6.83489e-317)
(-0.318004 0.260866 6.09061e-317)
(-0.316366 0.187958 5.26286e-317)
(-0.332618 0.129232 4.2933e-317)
(-0.335584 0.0490333 3.35379e-317)
(-0.338485 -0.00963132 2.34325e-317)
(-0.34872 -0.0935653 1.40081e-317)
(-0.336361 -0.162548 4.10982e-318)
(-0.350794 -0.244761 -4.76765e-318)
(-0.315476 -0.333535 -1.35635e-317)
(-0.322593 -0.398295 -1.99182e-317)
(-0.255085 -0.508108 -2.47946e-317)
(-0.23105 -0.521118 -2.21267e-317)
(-0.133447 -0.619154 -1.71963e-317)
(-0.0493072 -0.541993 6.64093e-318)
(-0.0900511 0.629021 1.84693e-316)
(-0.133986 0.647973 1.43481e-316)
(-0.256672 0.550459 1.20533e-316)
(-0.256661 0.507646 9.83586e-317)
(-0.331433 0.420932 8.32795e-317)
(-0.319077 0.345615 6.9943e-317)
(-0.360253 0.280184 5.83754e-317)
(-0.352614 0.193307 4.79111e-317)
(-0.372875 0.141118 3.76849e-317)
(-0.377843 0.049226 2.8032e-317)
(-0.383153 -0.000266008 1.80947e-317)
(-0.403521 -0.096926 8.26955e-318)
(-0.390937 -0.155664 -2.40221e-318)
(-0.424113 -0.25509 -1.38207e-317)
(-0.381259 -0.336586 -2.71618e-317)
(-0.414819 -0.424812 -4.35269e-317)
(-0.323091 -0.539664 -6.33631e-317)
(-0.326527 -0.577523 -9.27837e-317)
(-0.174222 -0.704043 -1.2552e-316)
(-0.0989807 -0.638639 -1.8084e-316)
(-0.13307 0.791639 2.47913e-317)
(-0.120089 0.767749 5.11679e-317)
(-0.269631 0.64099 5.86987e-317)
(-0.225019 0.563815 6.36277e-317)
(-0.301328 0.468615 6.0932e-317)
(-0.260287 0.369983 5.59252e-317)
(-0.296244 0.307455 4.87009e-317)
(-0.271223 0.206472 4.07115e-317)
(-0.287732 0.162253 3.21565e-317)
(-0.28394 0.0603873 2.35318e-317)
(-0.290045 0.0195199 1.47069e-317)
(-0.3109 -0.0895596 5.96226e-318)
(-0.303574 -0.143968 -2.91941e-318)
(-0.3509 -0.265235 -1.15533e-317)
(-0.313548 -0.354273 -1.99161e-317)
(-0.383182 -0.478522 -2.67681e-317)
(-0.284726 -0.624322 -3.20917e-317)
(-0.354192 -0.707992 -3.06134e-317)
(-0.155546 -0.897515 -2.69602e-317)
(-0.163938 -0.868216 -3.95066e-318)
(-0.189793 0.91616 1.80424e-316)
(-0.117255 0.811035 1.34171e-316)
(-0.310563 0.6774 1.0975e-316)
(-0.227501 0.553471 8.6835e-317)
(-0.315913 0.469427 7.207e-317)
(-0.255428 0.347251 5.91873e-317)
(-0.293201 0.298963 4.85021e-317)
(-0.260643 0.187296 3.87489e-317)
(-0.278105 0.158469 2.9583e-317)
(-0.27567 0.0512614 2.07576e-317)
(-0.285203 0.0288596 1.1965e-317)
(-0.316739 -0.0865951 3.06954e-318)
(-0.314564 -0.116875 -6.30623e-318)
(-0.385063 -0.253096 -1.65598e-317)
(-0.348021 -0.311941 -2.82571e-317)
(-0.458414 -0.47012 -4.30286e-317)
(-0.337317 -0.588356 -6.09345e-317)
(-0.468656 -0.736312 -8.90418e-317)
(-0.18678 -0.932469 -1.20762e-316)
(-0.262738 -1.00159 -1.78998e-316)
(-0.224462 1.11604 3.18312e-317)
(-0.0675153 0.902466 5.61208e-317)
(-0.275154 0.763992 6.04469e-317)
(-0.150099 0.577631 6.25702e-317)
(-0.229992 0.505178 5.7785e-317)
(-0.149613 0.351976 5.13082e-317)
(-0.176421 0.31819 4.34192e-317)
(-0.131439 0.193201 3.51807e-317)
(-0.142522 0.180228 2.68466e-317)
(-0.129625 0.06675 1.85908e-317)
(-0.13938 0.0610808 1.03804e-317)
(-0.162113 -0.0635779 2.21015e-318)
(-0.167264 -0.0779153 -6.02237e-318)
(-0.235941 -0.23835 -1.42085e-317)
(-0.211088 -0.286883 -2.22559e-317)
(-0.342431 -0.500123 -2.93225e-317)
(-0.225453 -0.625527 -3.52211e-317)
(-0.433513 -0.874985 -3.5129e-317)
(-0.106863 -1.1223 -3.33106e-317)
(-0.344191 -1.33751 -1.24718e-317)
(-0.24851 1.2112 1.75538e-316)
(-0.0373247 0.87218 1.28427e-316)
(-0.261 0.76797 1.04253e-316)
(-0.1115 0.518257 8.17078e-317)
(-0.186994 0.477022 6.71315e-317)
(-0.0971077 0.30067 5.44395e-317)
(-0.11604 0.287023 4.39321e-317)
(-0.0677897 0.157072 3.4414e-317)
(-0.0756183 0.160106 2.56285e-317)
(-0.0636454 0.0483668 1.7284e-317)
(-0.0775916 0.0612497 9.14109e-318)
(-0.106693 -0.0621253 1.03477e-318)
(-0.123834 -0.047728 -7.33523e-318)
(-0.208641 -0.216717 -1.63499e-317)
(-0.198956 -0.216089 -2.64585e-317)
(-0.364422 -0.46718 -3.92541e-317)
(-0.245593 -0.514547 -5.47936e-317)
(-0.517234 -0.867747 -8.0704e-317)
(-0.120514 -1.04038 -1.10293e-316)
(-0.443954 -1.45548 -1.7112e-316)
(-0.197589 1.3848 3.6966e-317)
(0.0391792 0.919227 6.30177e-317)
(-0.135552 0.837577 6.515e-317)
(0.0120333 0.513861 6.50376e-317)
(-0.0315022 0.496602 5.8162e-317)
(0.054837 0.289571 5.01327e-317)
(0.0548133 0.294555 4.13321e-317)
(0.105616 0.156981 3.26379e-317)
(0.106737 0.177877 2.42774e-317)
(0.129614 0.0673545 1.62488e-317)
(0.116571 0.0998882 8.48708e-318)
(0.108252 -0.0245451 9.03868e-319)
(0.0827727 0.0125423 -6.60838e-318)
(0.0282563 -0.175004 -1.40408e-317)
(0.0162636 -0.149497 -2.13253e-317)
(-0.119588 -0.464718 -2.78057e-317)
(-0.0370452 -0.492745 -3.31674e-317)
(-0.321728 -0.997325 -3.31039e-317)
(0.039837 -1.19621 -3.10977e-317)
(-0.427817 -1.85756 -1.05212e-317)
(-0.146199 1.36206 1.69954e-316)
(0.0693836 0.827851 1.26145e-316)
(-0.0548932 0.799962 1.02598e-316)
(0.077933 0.433957 8.04941e-317)
(0.0681384 0.446114 6.55879e-317)
(0.148014 0.229544 5.26125e-317)
(0.168402 0.247615 4.1844e-317)
(0.216936 0.114189 3.22628e-317)
(0.225798 0.14269 2.35999e-317)
(0.248438 0.0407234 1.55759e-317)
(0.231083 0.0819788 7.9694e-318)
(0.222936 -0.033281 5.8153e-319)
(0.178817 0.0220868 -6.79674e-318)
(0.121569 -0.161648 -1.44666e-317)
(0.0729052 -0.0908856 -2.2723e-317)
(-0.0746029 -0.427495 -3.29563e-317)
(-0.0395774 -0.34904 -4.49835e-317)
(-0.34961 -0.947395 -6.65513e-317)
(-0.00230786 -0.968459 -9.06023e-317)
(-0.47788 -1.81203 -1.48329e-316)
(0.0234463 1.45273 4.44124e-317)
(0.132517 0.846197 7.51662e-317)
(0.151015 0.833522 7.37342e-317)
(0.22619 0.414679 7.02651e-317)
(0.274249 0.441883 6.04901e-317)
(0.329419 0.208571 5.04695e-317)
(0.372965 0.24007 4.05078e-317)
(0.415429 0.11 3.12847e-317)
(0.433205 0.152872 2.28187e-317)
(0.465391 0.0617106 1.49947e-317)
(0.450232 0.120157 7.65503e-318)
(0.470817 0.0155288 6.96504e-319)
(0.42086 0.0933557 -6.01356e-318)
(0.420575 -0.0923766 -1.24883e-317)
(0.345615 0.00743801 -1.8542e-317)
(0.295319 -0.377548 -2.3618e-317)
(0.252766 -0.271516 -2.70107e-317)
(0.0705275 -1.03133 -2.44839e-317)
(0.224389 -1.09084 -1.84363e-317)
(-0.221858 -2.2458 1.0334e-317)
(0.12335 1.25848 1.72189e-316)
(0.151364 0.737233 1.30825e-316)
(0.276416 0.735516 1.05363e-316)
(0.312603 0.342465 8.17458e-317)
(0.420668 0.371144 6.54347e-317)
(0.462067 0.155356 5.15811e-317)
(0.534395 0.184681 4.03332e-317)
(0.571648 0.0691076 3.06047e-317)
(0.59922 0.107328 2.2078e-317)
(0.631461 0.0290219 1.44006e-317)
(0.61303 0.0812907 7.31805e-318)
(0.638556 -0.0089062 6.45551e-319)
(0.568232 0.0646839 -5.76877e-318)
(0.575728 -0.102099 -1.21272e-317)
(0.446817 0.00877164 -1.84931e-317)
(0.401994 -0.356775 -2.58798e-317)
(0.250008 -0.177617 -3.37105e-317)
(0.0675775 -0.934629 -4.87742e-317)
(0.0902948 -0.760816 -6.40926e-317)
(-0.310319 -1.84161 -1.08456e-316)
(0.31814 1.25518 8.31444e-317)
(0.176358 0.735081 1.04598e-316)
(0.495791 0.717497 9.16674e-317)
(0.467223 0.310124 7.95113e-317)
(0.635108 0.334589 6.47372e-317)
(0.64823 0.125904 5.16858e-317)
(0.73606 0.161274 4.02586e-317)
(0.763296 0.0621604 3.03569e-317)
(0.794991 0.109563 2.17442e-317)
(0.833628 0.0502451 1.40671e-317)
(0.81823 0.114458 7.08322e-318)
(0.872183 0.046004 6.10769e-319)
(0.80373 0.137652 -5.45379e-318)
(0.878475 -0.00694801 -1.10971e-317)
(0.735311 0.131386 -1.60341e-317)
(0.836463 -0.237872 -1.95851e-317)
(0.595428 -0.0305887 -2.06131e-317)
(0.708169 -0.916266 -1.40317e-317)
(0.376119 -0.81061 -1.78825e-318)
(0.356044 -2.38763 4.39487e-317)
(0.524772 0.935831 1.89685e-316)
(0.253541 0.621817 1.32407e-316)
(0.672917 0.543415 1.03075e-316)
(0.610496 0.248617 7.69547e-317)
(0.83298 0.249897 6.03509e-317)
(0.836401 0.0863686 4.67639e-317)
(0.946781 0.107676 3.61209e-317)
(0.967133 0.029162 2.7166e-317)
(1.00568 0.0616672 1.94742e-317)
(1.041 0.0146931 1.26508e-317)
(1.02558 0.0590336 6.46752e-318)
(1.08105 0.00442453 7.38618e-319)
(1.00199 0.0669149 -4.59141e-318)
(1.08001 -0.0498116 -9.65233e-318)
(0.892418 0.0466694 -1.43402e-317)
(0.985796 -0.255255 -1.92457e-317)
(0.618464 -0.0810968 -2.37039e-317)
(0.668339 -0.78748 -3.28082e-317)
(0.173783 -0.529259 -4.13528e-317)
(-0.0726826 -1.3906 -7.06266e-317)
(0.361582 0.753293 2.31051e-316)
(0.292072 0.637563 1.82585e-316)
(0.85174 0.485435 1.37454e-316)
(0.811764 0.206298 1.03595e-316)
(1.07213 0.188813 7.84911e-317)
(1.0553 0.0517116 5.93339e-317)
(1.16442 0.0767513 4.46051e-317)
(1.17398 0.0228114 3.27242e-317)
(1.2076 0.0613621 2.2879e-317)
(1.25041 0.0357318 1.43703e-317)
(1.23576 0.0877864 6.79329e-318)
(1.32375 0.0593629 -1.75443e-319)
(1.25365 0.136967 -6.66877e-318)
(1.40933 0.0614861 -1.26906e-317)
(1.22966 0.189485 -1.78442e-317)
(1.50195 -0.0640409 -2.12189e-317)
(1.06047 0.169635 -2.12005e-317)
(1.56629 -0.628634 -1.1276e-317)
(0.513931 -0.32967 7.03264e-318)
(1.37729 -2.27533 6.98359e-317)
(1.20902 0.542098 9.7823e-317)
(0.503778 0.333674 4.2758e-317)
(0.989698 0.233293 3.58252e-317)
(0.895838 0.11515 2.6733e-317)
(1.09264 0.102245 2.3098e-317)
(1.08275 0.0286239 1.91353e-317)
(1.1732 0.0355909 1.57904e-317)
(1.17617 0.00227047 1.25506e-317)
(1.20875 0.0168369 9.49077e-318)
(1.22691 -0.00104884 6.61655e-318)
(1.22278 0.0186514 3.91289e-318)
(1.26342 -0.00212937 1.4356e-318)
(1.21554 0.0230493 -7.9093e-319)
(1.28475 -0.0267428 -2.74506e-318)
(1.14508 0.00448183 -4.40268e-318)
(1.25145 -0.14012 -6.27514e-318)
(0.912328 -0.09924 -8.58112e-318)
(1.02373 -0.450951 -1.60229e-317)
(0.450348 -0.401894 -2.73651e-317)
(-0.0843092 -0.323048 -6.35651e-317)
(-0.309206 -0.214594 6.71089e-316)
(0.87165 0.743552 4.18879e-316)
(1.69418 0.252405 2.9056e-316)
(1.76543 0.14248 2.02846e-316)
(2.16605 0.0789872 1.48678e-316)
(2.09544 0.00379236 1.09801e-316)
(2.22029 0.0217698 8.12524e-317)
(2.19843 0.00053832 5.88034e-317)
(2.22227 0.0306944 4.03879e-317)
(2.2863 0.0254266 2.45627e-317)
(2.26727 0.0648063 1.04185e-317)
(2.44427 0.060918 -2.76117e-318)
(2.38028 0.121578 -1.53103e-317)
(2.72094 0.0987607 -2.73579e-317)
(2.52489 0.202723 -3.83556e-317)
(3.12269 0.0666172 -4.68588e-317)
(2.41066 0.288544 -4.95404e-317)
(3.50645 -0.355482 -3.77012e-317)
(0.943505 0.290801 -8.18593e-318)
(3.35443 -1.96387 8.02274e-317)
)
;

boundaryField
{
    cavity
    {
        type            myImplicitVelocity;
    }
    lid
    {
        type            fixedValue;
        value           uniform (1 0 0);
    }
    frontAndBack
    {
        type            empty;
    }
}


// ************************************************************************* //
