/*--------------------------------*- C++ -*----------------------------------*\
| =========                 |                                                 |
| \\      /  F ield         | foam-extend: Open Source CFD                    |
|  \\    /   O peration     | Version:  3.0                                   |
|   \\  /    A nd           | Web:         http://www.extend-project.de       |
|    \\/     M anipulation  |                                                 |
\*---------------------------------------------------------------------------*/
FoamFile
{
    version     2.0;
    format      ascii;
    class       volSymmTensorField;
    location    "55";
    object      sigma;
}
// * * * * * * * * * * * * * * * * * * * * * * * * * * * * * * * * * * * * * //

dimensions      [0 0 0 0 0 0 0];

internalField   nonuniform List<symmTensor> 
7680
(
(-0.180343 -0.00205138 -1.56707e-20 0.180309 -3.90722e-21 3.42043e-05)
(-0.179597 -0.00244313 5.21533e-20 0.179501 1.27915e-19 9.64997e-05)
(-0.176843 -0.00268491 1.08673e-21 0.176689 -8.01237e-20 0.000154727)
(-0.172642 -0.00281245 -2.2969e-21 0.172433 6.85344e-20 0.000209421)
(-0.167617 -0.00286068 1.25449e-20 0.167356 -2.28762e-20 0.000261008)
(-0.161956 -0.00284556 -7.78857e-21 0.161646 2.47713e-20 0.000309816)
(-0.156029 -0.00278645 2.50067e-20 0.155673 -5.92072e-20 0.000356103)
(-0.149873 -0.00269133 9.34441e-21 0.149473 -1.87031e-20 0.000400055)
(-0.143717 -0.00257083 8.33065e-21 0.143275 -8.45473e-20 0.000441813)
(-0.13754 -0.00242924 1.81123e-20 0.137058 -7.26589e-21 0.000481463)
(-0.131487 -0.00227249 -3.6087e-20 0.130968 -1.04874e-19 0.000519059)
(-0.125519 -0.00210292 1.87985e-20 0.124964 4.73976e-20 0.000554612)
(-0.119729 -0.00192389 2.53526e-21 0.119141 -8.98393e-20 0.000588111)
(-0.114076 -0.0017367 -3.24022e-20 0.113457 5.41325e-20 0.00061951)
(-0.108621 -0.0015432 -2.50659e-20 0.107973 -1.53274e-21 0.000648748)
(-0.103328 -0.00134412 5.66686e-21 0.102652 1.09417e-19 0.000675732)
(-0.0982342 -0.00114041 -1.0236e-20 0.0975338 -9.15281e-20 0.00070036)
(-0.093311 -0.000932482 -3.4126e-21 0.0925885 1.99859e-19 0.000722497)
(-0.0885821 -0.000720723 2.1928e-20 0.0878401 -1.07784e-19 0.000742006)
(-0.0840257 -0.000505407 -6.24818e-21 0.083267 1.82814e-19 0.000758712)
(-0.0796548 -0.000286543 -2.951e-20 0.0788823 -5.75119e-20 0.000772442)
(-0.0754558 -6.43603e-05 -3.15128e-20 0.0746728 1.53972e-19 0.00078298)
(-0.0714327 0.000161359 -3.43324e-20 0.0706426 -2.13181e-20 0.000790111)
(-0.0675805 0.000390413 -2.50757e-20 0.066787 1.92723e-19 0.000793577)
(-0.0638959 0.000623157 -9.18871e-22 0.0631027 -2.51758e-20 0.000793115)
(-0.0603819 0.00085943 -6.21939e-20 0.0595935 1.55751e-19 0.000788423)
(-0.0570288 0.00109964 9.87618e-21 0.0562496 8.75775e-20 0.000779193)
(-0.0538484 0.0013438 -8.30821e-21 0.0530833 1.2639e-19 0.000765075)
(-0.0508243 0.00159197 1.71164e-20 0.0500786 8.47275e-20 0.00074572)
(-0.047977 0.00184517 -4.51586e-20 0.0472563 4.40134e-20 0.000720733)
(-0.0452854 0.00210094 -7.83147e-21 0.0445957 4.54533e-20 0.000689721)
(-0.0427751 0.00236535 -3.31818e-20 0.0421228 -1.03629e-20 0.00065224)
(-0.0404276 0.00262566 2.08324e-20 0.0398197 2.19136e-20 0.000607847)
(-0.0382603 0.00290467 -5.36973e-20 0.0377043 -1.55537e-20 0.000556043)
(-0.0362795 0.00316405 8.47135e-21 0.0357832 9.60807e-21 0.00049633)
(-0.0344637 0.00345418 -7.50879e-20 0.0340355 2.02995e-20 0.000428151)
(-0.0328775 0.00371797 5.76783e-21 0.0325265 -1.09955e-19 0.000350949)
(-0.0314356 0.00400775 -2.26237e-21 0.0311714 4.42178e-20 0.00026411)
(-0.0302491 0.00422904 -2.77288e-20 0.0300821 -8.38819e-20 0.000167018)
(-0.0292371 0.00454459 2.02282e-20 0.0291781 -4.45806e-20 5.90016e-05)
(-0.18024 -0.00747828 2.11005e-20 0.180206 1.04808e-20 3.41028e-05)
(-0.179387 -0.008679 -3.62262e-20 0.179291 6.71286e-20 9.62169e-05)
(-0.176556 -0.00945088 -3.23805e-20 0.176402 1.12967e-20 0.000154272)
(-0.172302 -0.00989437 4.45392e-20 0.172093 -1.92371e-20 0.0002088)
(-0.167241 -0.010114 -1.39901e-20 0.16698 -2.48763e-20 0.000260228)
(-0.161556 -0.0101564 -1.58274e-21 0.161247 5.39595e-20 0.00030888)
(-0.155616 -0.0100784 -3.26852e-20 0.155261 5.83145e-20 0.000355015)
(-0.149454 -0.00990381 -1.55934e-20 0.149055 2.55413e-20 0.000398818)
(-0.143298 -0.00966385 -5.74293e-21 0.142857 1.39361e-19 0.00044043)
(-0.137125 -0.00937136 8.42302e-21 0.136645 1.18476e-19 0.000479936)
(-0.131079 -0.00904385 5.28755e-20 0.130562 -1.89943e-20 0.000517391)
(-0.125121 -0.00868848 5.79327e-21 0.124568 7.28043e-20 0.000552805)
(-0.119343 -0.00831522 2.43844e-20 0.118757 -7.68411e-20 0.000586169)
(-0.113705 -0.00792817 5.07819e-20 0.113087 6.47509e-20 0.000617436)
(-0.108265 -0.00753294 3.27782e-20 0.107618 -1.51794e-19 0.000646546)
(-0.102987 -0.00713204 -6.59209e-20 0.102314 -1.49696e-20 0.000673406)
(-0.0979102 -0.00672838 7.00834e-20 0.0972123 1.18109e-21 0.000697915)
(-0.0930043 -0.00632378 -1.96123e-20 0.0922843 -5.3681e-20 0.00071994)
(-0.0882933 -0.00591933 -1.19046e-20 0.087554 9.49295e-20 0.000739343)
(-0.0837552 -0.00551669 1.12533e-20 0.0829992 -4.73318e-20 0.000755954)
(-0.0794029 -0.00511565 -6.27262e-20 0.0786333 1.47277e-20 0.000769596)
(-0.0752227 -0.00471802 3.60594e-20 0.0744426 -8.35726e-20 0.000780058)
(-0.0712189 -0.00432264 -6.91339e-21 0.0704318 4.71077e-20 0.000787126)
(-0.0673858 -0.00393161 1.07222e-20 0.0665953 -1.38377e-19 0.000790543)
(-0.0637207 -0.00354296 -9.26145e-20 0.0629306 -1.69132e-21 0.000790048)
(-0.0602261 -0.00315924 8.05278e-20 0.0594408 -8.52817e-20 0.00078534)
(-0.0568928 -0.00277778 -4.13335e-20 0.0561167 4.59373e-21 0.000776113)
(-0.0537317 -0.00240146 -2.88279e-21 0.0529697 -4.83933e-20 0.00076202)
(-0.0507276 -0.00202749 -7.20354e-20 0.0499849 -5.97141e-20 0.000742712)
(-0.0478996 -0.00165778 -4.27443e-20 0.0471818 1.84931e-20 0.000717799)
(-0.0452283 -0.00129284 -4.23421e-20 0.0445414 -2.28028e-20 0.000686886)
(-0.0427374 -0.000926809 -3.9286e-20 0.0420879 2.55897e-21 0.000649537)
(-0.0404107 -0.000576463 2.94375e-20 0.0398054 -8.11265e-21 0.000605307)
(-0.0382645 -0.000207588 1.97758e-20 0.0377108 -5.94689e-20 0.000553704)
(-0.0363033 0.000118553 8.38046e-21 0.035809 3.29425e-20 0.000494228)
(-0.0345147 0.00049095 -1.22882e-19 0.0340883 -7.37894e-22 0.000426327)
(-0.0329422 0.00079698 -4.50196e-20 0.0325927 5.79492e-21 0.000349445)
(-0.03154 0.00115514 2.33795e-20 0.031277 3.01421e-20 0.000262972)
(-0.0303563 0.00140709 -1.07857e-19 0.03019 -2.57992e-20 0.000166293)
(-0.0293939 0.00175071 9.09177e-21 0.0293352 3.68238e-20 5.87403e-05)
(-0.180005 -0.0129066 2.55916e-20 0.179971 -4.1177e-20 3.39777e-05)
(-0.178936 -0.0148991 6.11399e-20 0.17884 5.82084e-20 9.58591e-05)
(-0.17595 -0.0161884 -1.72487e-20 0.175796 -2.06043e-19 0.000153694)
(-0.171588 -0.0169388 -3.00063e-20 0.17138 1.46966e-19 0.000208011)
(-0.166452 -0.0173231 7.38986e-20 0.166193 -1.23497e-19 0.000259235)
(-0.160719 -0.0174184 5.05974e-20 0.160412 -1.15438e-20 0.000307689)
(-0.154749 -0.0173184 2.42622e-20 0.154395 -1.08156e-19 0.000353629)
(-0.148572 -0.0170624 6.27291e-20 0.148175 1.44618e-20 0.00039724)
(-0.142411 -0.0167018 8.63451e-20 0.141972 -1.33722e-20 0.000438662)
(-0.136242 -0.0162579 -8.61875e-20 0.135764 -6.6435e-21 0.000477981)
(-0.130207 -0.0157596 -5.42092e-20 0.129691 -1.56206e-19 0.000515252)
(-0.124264 -0.0152188 -2.99259e-20 0.123713 7.42005e-20 0.000550486)
(-0.118505 -0.014652 4.19451e-21 0.117921 -5.58281e-20 0.000583673)
(-0.112888 -0.014066 -9.36875e-20 0.112273 5.64362e-20 0.000614768)
(-0.107472 -0.0134701 -9.29076e-20 0.106828 8.10626e-20 0.000643713)
(-0.102219 -0.0128686 1.17025e-19 0.101549 9.98741e-20 0.000670414)
(-0.0971688 -0.0122663 -3.27695e-20 0.0964741 6.41155e-20 0.000694772)
(-0.0922901 -0.0116665 6.09298e-20 0.0915735 1.60864e-19 0.000716656)
(-0.087607 -0.0110708 6.0551e-20 0.0868711 -1.48313e-19 0.000735927)
(-0.0830971 -0.0104823 -9.00007e-20 0.0823446 1.30877e-19 0.000752418)
(-0.0787733 -0.00990067 -5.07379e-20 0.0780073 -3.79643e-20 0.000765953)
(-0.0746215 -0.0093292 -1.97668e-20 0.0738452 1.31643e-19 0.000776323)
(-0.0706462 -0.00876586 -7.0955e-20 0.0698629 -1.19593e-20 0.000783315)
(-0.0668416 -0.00821452 -7.98264e-20 0.0660549 6.71437e-20 0.000786673)
(-0.0632046 -0.00767185 4.16097e-20 0.0624184 1.90445e-19 0.00078614)
(-0.059738 -0.00714235 -5.89753e-20 0.0589565 1.09105e-19 0.000781415)
(-0.0564321 -0.00662169 5.50378e-20 0.0556599 1.91217e-19 0.000772197)
(-0.0532983 -0.00611471 -6.46603e-20 0.0525401 4.74102e-20 0.000758139)
(-0.0503207 -0.00561712 8.20727e-20 0.0495818 1.59268e-19 0.000738897)
(-0.0475191 -0.00513198 3.41722e-21 0.046805 3.81713e-22 0.000714081)
(-0.044873 -0.00465994 -2.15204e-20 0.0441897 7.9608e-20 0.000683303)
(-0.0424077 -0.00419325 -1.58469e-20 0.0417616 8.49677e-20 0.000646124)
(-0.0401042 -0.00375351 -6.65125e-20 0.0395021 1.79669e-19 0.000602107)
(-0.0379833 -0.00329883 7.29786e-21 0.0374326 -2.81342e-19 0.00055076)
(-0.0360436 -0.00290052 6.13035e-20 0.035552 2.07172e-19 0.000491587)
(-0.0342799 -0.0024614 -9.37298e-20 0.0338559 -1.0297e-19 0.00042404)
(-0.0327296 -0.00209567 2.62163e-20 0.032382 1.04291e-20 0.000347565)
(-0.031354 -0.00169691 -4.88545e-20 0.0310924 1.14435e-19 0.000261555)
(-0.0301905 -0.00139704 -2.08949e-20 0.0300251 -5.38416e-20 0.000165398)
(-0.0292689 -0.00103331 -1.01471e-20 0.0292105 1.75494e-19 5.84261e-05)
(-0.179636 -0.0183365 7.26185e-20 0.179602 6.34912e-20 3.38084e-05)
(-0.178246 -0.0210919 -9.76567e-20 0.17815 2.569e-20 9.53859e-05)
(-0.175029 -0.0228775 -1.13274e-20 0.174876 2.83638e-19 0.000152934)
(-0.170506 -0.0239196 1.34763e-19 0.170299 -2.46942e-19 0.000206979)
(-0.165258 -0.0244578 -1.2185e-19 0.165 7.10132e-20 0.000257941)
(-0.159451 -0.0245983 1.28657e-20 0.159145 6.99204e-20 0.000306141)
(-0.153435 -0.0244711 -2.15769e-20 0.153083 7.69539e-20 0.000351834)
(-0.147234 -0.0241301 5.44522e-20 0.146838 -2.86678e-20 0.000395204)
(-0.141064 -0.0236468 1.45436e-20 0.140628 -1.04178e-19 0.00043639)
(-0.134899 -0.0230506 -7.00366e-20 0.134424 -5.55812e-20 0.000475478)
(-0.128877 -0.0223815 9.72619e-20 0.128364 5.2013e-20 0.000512523)
(-0.122954 -0.0216559 7.72872e-20 0.122407 1.38883e-20 0.000547537)
(-0.117221 -0.0208965 3.50382e-20 0.11664 -1.63014e-19 0.000580511)
(-0.111633 -0.020113 1.49724e-19 0.111022 1.2165e-19 0.0006114)
(-0.106249 -0.0193181 6.84029e-20 0.105609 -8.0326e-21 0.000640146)
(-0.101031 -0.0185178 -1.16836e-19 0.100364 3.23209e-19 0.000666658)
(-0.0960168 -0.0177189 1.7395e-19 0.0953259 -2.02429e-19 0.000690838)
(-0.0911749 -0.0169258 -2.25226e-19 0.0904623 2.20983e-19 0.000712554)
(-0.0865294 -0.016141 -1.56961e-20 0.0857978 -1.35183e-19 0.000731672)
(-0.0820572 -0.0153689 1.05177e-19 0.0813092 1.33527e-19 0.000748023)
(-0.0777715 -0.0146088 -5.56353e-20 0.0770101 -1.34235e-19 0.000761435)
(-0.0736574 -0.0138656 6.32401e-20 0.0728857 5.40329e-21 0.000771701)
(-0.0697198 -0.0131364 -6.41583e-20 0.0689412 2.18181e-20 0.000778608)
(-0.0659521 -0.0124268 1.76522e-19 0.0651702 1.62679e-19 0.000781904)
(-0.0623519 -0.011732 -1.89793e-20 0.0615706 -1.1162e-19 0.000781332)
(-0.0589211 -0.0110589 8.85414e-20 0.0581445 8.09083e-20 0.000776597)
(-0.0556506 -0.0104007 -7.41641e-20 0.0548832 1.48853e-20 0.000767397)
(-0.052551 -0.00976537 -3.9201e-20 0.0517976 1.01485e-19 0.000753391)
(-0.0496069 -0.00914571 -9.41175e-20 0.0488727 -1.40384e-19 0.000734236)
(-0.0468379 -0.00854799 -1.27658e-19 0.0461284 1.05746e-19 0.000709546)
(-0.0442224 -0.00797059 6.3661e-20 0.0435435 -1.87312e-20 0.000678936)
(-0.0417889 -0.00740627 1.04408e-19 0.041147 4.77612e-20 0.000641972)
(-0.039511 -0.00688049 -3.52535e-19 0.0389128 1.19412e-19 0.000598218)
(-0.0374238 -0.00633959 1.39295e-21 0.0368766 -1.5592e-20 0.000547186)
(-0.035501 -0.00587902 2.29238e-19 0.0350127 1.08936e-19 0.000488384)
(-0.0337767 -0.00535941 -3.4435e-19 0.0333554 4.60983e-20 0.000421267)
(-0.0322338 -0.00495635 1.97731e-19 0.0318886 7.93427e-20 0.000345286)
(-0.0309025 -0.0044871 -3.43577e-20 0.0306426 9.12312e-20 0.000259837)
(-0.0297429 -0.00415749 -2.84517e-20 0.0295786 -9.71112e-20 0.000164311)
(-0.0288626 -0.00375817 -6.48079e-20 0.0288046 -1.70498e-19 5.8044e-05)
(-0.179132 -0.0237677 4.5133e-20 0.179098 -1.35877e-19 3.36076e-05)
(-0.177319 -0.0272461 2.24502e-19 0.177224 -2.35356e-19 9.48133e-05)
(-0.173797 -0.0294987 -1.15537e-19 0.173645 -3.13496e-19 0.000152011)
(-0.169062 -0.0308114 -1.44833e-19 0.168856 -3.47367e-20 0.000205723)
(-0.163665 -0.031488 2.65962e-19 0.163409 2.5022e-20 0.000256366)
(-0.157761 -0.031663 7.80771e-20 0.157457 -1.69537e-19 0.000304259)
(-0.151683 -0.0315009 -1.8049e-20 0.151334 -1.60654e-19 0.000349655)
(-0.145449 -0.0310701 -6.93949e-20 0.145056 9.07471e-20 0.000392736)
(-0.139267 -0.0304613 6.86178e-20 0.138834 5.26672e-20 0.000433641)
(-0.133106 -0.0297113 -1.13937e-20 0.132634 1.16963e-19 0.000472454)
(-0.1271 -0.028871 1.08532e-20 0.126591 -1.9843e-19 0.000509233)
(-0.121203 -0.0279611 -2.03322e-19 0.120659 1.28721e-19 0.000543988)
(-0.115501 -0.0270104 8.75488e-20 0.114924 -1.3057e-19 0.000576711)
(-0.10995 -0.026031 7.5639e-21 0.109343 1.9621e-19 0.000607359)
(-0.104607 -0.0250391 1.19755e-19 0.103972 -1.25412e-20 0.000635875)
(-0.0994327 -0.0240425 -3.28297e-20 0.0987706 1.87237e-19 0.000662168)
(-0.0944637 -0.0230495 -7.11422e-20 0.0937776 -2.76548e-19 0.000686141)
(-0.0896682 -0.0220659 1.49572e-19 0.0889605 1.04565e-19 0.000707665)
(-0.0850699 -0.0210948 -7.03434e-20 0.0843433 5.28457e-20 0.000726606)
(-0.080645 -0.0201419 -5.587e-20 0.0799022 -4.3074e-20 0.000742799)
(-0.0764067 -0.0192062 -2.0327e-19 0.0756506 2.14197e-19 0.000756072)
(-0.0723395 -0.0182942 1.13921e-19 0.0715733 1.78059e-19 0.00076622)
(-0.0684484 -0.017402 6.37808e-20 0.0676754 1.05196e-19 0.000773033)
(-0.0647264 -0.0165371 -1.49741e-19 0.0639501 -1.82056e-19 0.000776261)
(-0.0611711 -0.0156931 -5.7037e-20 0.0603955 2.9164e-19 0.000775651)
(-0.0577841 -0.014879 1.10564e-19 0.0570132 -4.67528e-20 0.000770908)
(-0.0545564 -0.0140863 1.1133e-19 0.0537946 1.60913e-19 0.000761736)
(-0.0514983 -0.0133251 -1.87442e-19 0.0507505 5.22969e-20 0.000747795)
(-0.0485941 -0.0125862 6.7521e-20 0.0478653 3.21399e-19 0.000728747)
(-0.0458643 -0.0118781 1.22523e-19 0.0451601 2.04568e-19 0.00070421)
(-0.0432845 -0.0111973 -1.16719e-19 0.0426107 2.88678e-19 0.000673802)
(-0.040889 -0.0105385 2.30916e-19 0.0402519 -6.63009e-20 0.000637091)
(-0.03864 -0.00992503 -9.39141e-20 0.0380463 1.92768e-19 0.000593647)
(-0.0365923 -0.00930752 -9.38515e-20 0.0360493 1.1932e-19 0.000542985)
(-0.034687 -0.00877224 1.8261e-19 0.0342024 3.01452e-19 0.000484617)
(-0.0330069 -0.00819981 -8.91306e-20 0.0325889 -7.03261e-20 0.000418004)
(-0.0314684 -0.00772959 6.39392e-20 0.0311258 1.80417e-20 0.000342599)
(-0.030182 -0.00723522 -2.04974e-19 0.0299242 7.47746e-20 0.000257806)
(-0.0290198 -0.0068504 -3.61331e-19 0.0288568 -4.48012e-20 0.000163019)
(-0.0281731 -0.00643733 1.24253e-19 0.0281155 1.38694e-19 5.75822e-05)
(-0.178491 -0.0291997 2.58311e-20 0.178458 6.97297e-20 3.3364e-05)
(-0.176158 -0.0333507 -2.1618e-19 0.176064 3.21508e-19 9.41292e-05)
(-0.172261 -0.0360331 1.73028e-19 0.172111 -5.66399e-20 0.000150913)
(-0.167265 -0.0375895 2.12735e-19 0.16706 3.63804e-19 0.000204232)
(-0.161685 -0.0383851 -1.99445e-19 0.161431 -1.12742e-20 0.0002545)
(-0.155661 -0.0385809 -5.78707e-20 0.155359 -8.39995e-20 0.000302033)
(-0.149507 -0.0383746 1.36492e-19 0.14916 1.1495e-19 0.00034708)
(-0.143231 -0.0378478 2.08815e-19 0.142841 -9.61614e-20 0.000389824)
(-0.137034 -0.0371097 4.36417e-20 0.136604 -1.08384e-19 0.000430402)
(-0.130877 -0.036204 -2.59766e-19 0.130409 1.37563e-19 0.000468899)
(-0.12489 -0.0351922 8.67096e-20 0.124385 2.25275e-19 0.00050537)
(-0.119023 -0.0340985 1.11427e-19 0.118483 1.08752e-19 0.000539828)
(-0.11336 -0.0329581 3.49255e-20 0.112788 7.85564e-21 0.000572265)
(-0.107854 -0.0317849 3.00977e-19 0.107251 -2.10979e-19 0.000602639)
(-0.10256 -0.0305988 7.41246e-20 0.101929 3.42602e-20 0.000630892)
(-0.0974374 -0.0294087 -2.36983e-19 0.0967805 -9.71831e-20 0.000656937)
(-0.0925229 -0.0282247 9.90284e-21 0.0918422 1.95463e-19 0.000680677)
(-0.0877829 -0.0270539 5.01022e-20 0.0870809 1.88062e-19 0.000701985)
(-0.0832411 -0.0258999 -1.16678e-19 0.0825204 5.76235e-20 0.000720729)
(-0.0788726 -0.0247695 2.43329e-19 0.0781358 2.23079e-19 0.000736745)
(-0.0746908 -0.0236617 1.06307e-19 0.073941 2.22781e-19 0.000749865)
(-0.0706793 -0.0225843 -6.65308e-20 0.0699194 1.85986e-19 0.000759885)
(-0.0668436 -0.0215323 -3.17088e-19 0.066077 -1.7885e-19 0.000766597)
(-0.0631754 -0.0205153 3.30918e-19 0.0624056 2.45546e-19 0.000769755)
(-0.0596734 -0.0195251 9.52914e-20 0.0589042 8.37983e-20 0.000769108)
(-0.0563376 -0.0185733 -9.65882e-20 0.0555733 2.98687e-19 0.000764365)
(-0.0531603 -0.0176487 1.14102e-19 0.052405 -1.20174e-19 0.000755231)
(-0.0501505 -0.016765 1.42807e-19 0.0494091 1.30582e-19 0.000741374)
(-0.0472928 -0.015909 5.3865e-20 0.0465703 -9.32811e-20 0.000722457)
(-0.044608 -0.0150944 -6.38081e-20 0.0439099 -1.02368e-19 0.000698103)
(-0.0420693 -0.0143118 -1.12075e-19 0.0414014 -5.55429e-19 0.000667932)
(-0.0397161 -0.0135632 -2.71303e-20 0.0390846 2.19094e-20 0.00063152)
(-0.0374995 -0.0128635 -8.78195e-21 0.0369111 -3.14174e-19 0.000588437)
(-0.035494 -0.0121725 1.01509e-19 0.0349558 6.47313e-20 0.000538205)
(-0.0336085 -0.0115678 1.46549e-19 0.0331282 -3.02279e-19 0.00048034)
(-0.0319718 -0.0109355 -6.24784e-19 0.0315575 -1.45774e-19 0.000414307)
(-0.030443 -0.0104154 4.14622e-19 0.0301034 -1.72568e-19 0.000339566)
(-0.0291943 -0.0098745 -2.80712e-20 0.0289388 -4.69021e-20 0.000255525)
(-0.0280426 -0.00945566 4.04301e-20 0.027881 -4.91463e-19 0.000161583)
(-0.0272197 -0.00902429 -2.60949e-19 0.0271627 9.51078e-20 5.7083e-05)
(-0.177712 -0.0346323 2.0507e-19 0.177679 -1.05633e-19 3.30891e-05)
(-0.174766 -0.0393949 1.31967e-19 0.174673 4.78648e-20 9.33479e-05)
(-0.170429 -0.0424623 -1.8597e-19 0.170279 -1.40637e-20 0.000149655)
(-0.165124 -0.0442302 2.54012e-21 0.164922 -3.09469e-19 0.000202524)
(-0.15933 -0.0451212 1.56926e-20 0.159078 1.33816e-19 0.000252361)
(-0.153164 -0.0453213 -2.3639e-21 0.152865 4.45303e-19 0.000299481)
(-0.146921 -0.0450591 -6.83212e-20 0.146577 1.7064e-20 0.000344131)
(-0.140597 -0.0444289 -2.29178e-19 0.140211 1.49182e-19 0.000386491)
(-0.134382 -0.0435567 2.92135e-19 0.133955 -1.34518e-20 0.000426697)
(-0.12823 -0.0424931 2.27256e-19 0.127765 1.03669e-19 0.000464835)
(-0.122265 -0.041309 -5.68038e-20 0.121764 -4.84788e-21 0.000500959)
(-0.116433 -0.0400324 -3.62661e-19 0.115898 1.6927e-19 0.000535082)
(-0.110815 -0.0387039 -1.85582e-19 0.110248 -3.43584e-22 0.000567197)
(-0.10536 -0.0373395 -4.24696e-20 0.104763 3.19518e-19 0.000597262)
(-0.100124 -0.035962 3.37607e-19 0.0994987 -1.68401e-19 0.000625221)
(-0.0950619 -0.0345818 1.14636e-19 0.0944109 -5.76394e-21 0.000650988)
(-0.0902106 -0.0332106 1.0649e-19 0.0895361 8.72355e-21 0.000674468)
(-0.085535 -0.0318565 8.52726e-20 0.0848395 -1.66233e-20 0.000695535)
(-0.0810587 -0.0305236 -2.44117e-20 0.0803447 -1.29456e-19 0.000714059)
(-0.0767554 -0.0292199 1.12681e-19 0.0760255 -2.15858e-19 0.000729879)
(-0.0726389 -0.027944 -1.20642e-19 0.0718961 -1.4686e-21 0.000742829)
(-0.0686915 -0.0267051 -5.79452e-20 0.0679388 -3.31073e-19 0.000752707)
(-0.0649193 -0.0254975 -4.15782e-21 0.06416 2.01009e-19 0.000759309)
(-0.0613128 -0.0243322 4.98645e-20 0.0605504 -1.36276e-19 0.00076239)
(-0.0578716 -0.0231998 1.5619e-19 0.0571099 -1.15683e-19 0.000761704)
(-0.0545944 -0.0221137 -3.14449e-20 0.0538374 -7.12746e-20 0.000756962)
(-0.0514742 -0.0210609 -9.61072e-20 0.0507263 -8.67679e-21 0.000747876)
(-0.048519 -0.0200578 -3.22083e-20 0.0477848 -3.23829e-19 0.000734114)
(-0.0457141 -0.0190882 -2.06045e-19 0.0449987 6.32336e-19 0.000715346)
(-0.0430795 -0.01817 -2.60206e-19 0.0423883 -5.27379e-20 0.000691198)
(-0.040588 -0.0172883 -1.07242e-19 0.0399267 3.5847e-19 0.000661296)
(-0.0382812 -0.0164537 4.35999e-19 0.037656 1.39643e-19 0.000625218)
(-0.0361031 -0.0156679 -3.25268e-20 0.0355206 -1.93509e-19 0.000582542)
(-0.0341424 -0.0149129 -1.25382e-19 0.0336096 2.37886e-19 0.000532791)
(-0.0322811 -0.014231 1.38888e-19 0.0318056 -1.64154e-19 0.00047549)
(-0.0306906 -0.0135628 -2.88238e-20 0.0302805 -3.96305e-20 0.000410106)
(-0.0291665 -0.0129715 2.03402e-20 0.0288304 2.16881e-20 0.000336108)
(-0.0279639 -0.0124225 -5.04069e-19 0.027711 -9.56852e-20 0.000252908)
(-0.026801 -0.011948 -2.39469e-19 0.0266411 -1.42195e-19 0.000159914)
(-0.0260145 -0.0115159 2.77133e-19 0.0259581 5.9869e-19 5.64817e-05)
(-0.176791 -0.0400641 9.47677e-20 0.176758 1.46219e-19 3.2773e-05)
(-0.173148 -0.0453682 -2.80795e-20 0.173056 -6.81633e-20 9.24587e-05)
(-0.168309 -0.0487687 -1.86147e-20 0.168161 1.09983e-19 0.000148228)
(-0.162654 -0.0507107 1.46118e-19 0.162454 7.3162e-19 0.000200587)
(-0.156616 -0.0516702 2.40937e-19 0.156366 6.73962e-20 0.000249939)
(-0.150289 -0.0518553 8.01667e-21 0.149992 -4.34032e-19 0.000296594)
(-0.143944 -0.0515242 1.3024e-20 0.143604 -6.94177e-20 0.000340798)
(-0.137566 -0.0507817 1.72819e-19 0.137183 -1.52551e-19 0.000382728)
(-0.13133 -0.0497702 -7.49062e-20 0.130908 -3.28307e-20 0.000422519)
(-0.125184 -0.0485459 -1.31634e-19 0.124724 -1.48141e-19 0.000460256)
(-0.119245 -0.047189 2.93655e-19 0.118749 -1.16046e-19 0.000495994)
(-0.113452 -0.0457303 2.38348e-19 0.112923 -2.47847e-19 0.000529745)
(-0.107886 -0.0442156 7.28555e-20 0.107324 1.03321e-19 0.000561503)
(-0.10249 -0.0426627 8.01693e-20 0.101899 -3.41413e-20 0.000591227)
(-0.0973189 -0.0410975 -1.39819e-19 0.0967001 -3.73394e-19 0.000618862)
(-0.0923257 -0.0395311 -1.10883e-19 0.0916814 8.00916e-20 0.000644324)
(-0.0875461 -0.037977 1.22483e-19 0.0868786 -3.11724e-19 0.000667518)
(-0.0829435 -0.0364439 -2.6632e-20 0.0822551 5.05113e-20 0.000688322)
(-0.0785412 -0.0349368 -1.91132e-19 0.0778346 -4.74442e-19 0.000706607)
(-0.0743115 -0.0334643 3.69616e-19 0.0735893 7.59095e-20 0.000722215)
(-0.0702687 -0.032025 1.01778e-19 0.0695337 -9.26968e-20 0.000734981)
(-0.0663934 -0.0306292 7.70629e-20 0.0656487 6.436e-20 0.000744708)
(-0.0626929 -0.0292703 -2.01807e-19 0.0619417 1.59807e-19 0.000751194)
(-0.0591557 -0.0279611 3.07793e-20 0.0584015 7.87356e-20 0.000754198)
(-0.0557828 -0.0266905 1.30366e-19 0.0550293 1.39761e-19 0.000753476)
(-0.0525711 -0.0254744 1.98307e-19 0.0518223 -3.06428e-19 0.000748746)
(-0.049515 -0.0242971 -2.61885e-19 0.0487753 2.43436e-19 0.00073972)
(-0.0466206 -0.0231787 9.33042e-19 0.0458945 -5.51507e-19 0.000726073)
(-0.0438746 -0.0220987 3.14662e-19 0.0431671 4.87807e-19 0.000707479)
(-0.0412955 -0.0210812 -2.32999e-19 0.0406119 -5.72182e-19 0.000683569)
(-0.0388561 -0.0201028 -2.55789e-19 0.0382021 4.86284e-19 0.000653973)
(-0.036599 -0.0191868 -5.91186e-19 0.0359808 -5.27625e-20 0.000618276)
(-0.0344638 -0.0183167 8.87495e-20 0.0338878 1.90914e-19 0.000576058)
(-0.0325476 -0.0175009 9.73478e-20 0.0320208 2.79178e-19 0.00052685)
(-0.0307169 -0.0167459 -3.05366e-19 0.0302468 1.46602e-19 0.00047018)
(-0.0291657 -0.0160385 -4.27956e-19 0.0287601 2.05703e-20 0.000405523)
(-0.027661 -0.0153892 3.95308e-19 0.0273286 2.88725e-19 0.000332353)
(-0.0264868 -0.0148191 -2.2893e-19 0.0262367 2.81687e-19 0.000250089)
(-0.0253385 -0.0143108 6.7141e-19 0.0251804 -1.86921e-19 0.000158144)
(-0.0245623 -0.0138743 -5.38434e-19 0.0245065 1.0065e-19 5.58704e-05)
(-0.175727 -0.0454945 1.19954e-19 0.175694 -1.10391e-19 3.24262e-05)
(-0.171309 -0.0512604 1.4129e-19 0.171217 -8.67905e-20 9.14747e-05)
(-0.165912 -0.0549356 2.34829e-19 0.165765 -8.03773e-20 0.000146645)
(-0.159869 -0.0570097 1.23466e-19 0.15967 -7.27171e-19 0.000198438)
(-0.153559 -0.0580068 -4.81609e-19 0.153312 -5.03291e-19 0.000247252)
(-0.147055 -0.0581555 -2.82516e-20 0.146761 1.62842e-19 0.000293392)
(-0.140598 -0.0577403 2.37797e-20 0.140261 2.3987e-19 0.000337101)
(-0.13416 -0.0568756 -1.65519e-19 0.133781 2.08408e-20 0.000378555)
(-0.127902 -0.0557189 2.53456e-19 0.127484 3.37605e-19 0.000417889)
(-0.121763 -0.0543308 2.63682e-19 0.121308 -4.67704e-19 0.000455184)
(-0.115852 -0.0528002 -3.11225e-19 0.115362 3.13807e-19 0.000490496)
(-0.110106 -0.0511602 -6.41268e-20 0.109582 -2.91866e-19 0.000523839)
(-0.104596 -0.0494616 -4.06826e-21 0.104041 7.9005e-20 0.000555205)
(-0.0992669 -0.0477234 -2.74718e-19 0.0986823 -8.91349e-20 0.000584555)
(-0.0941681 -0.0459742 3.26756e-19 0.0935562 2.49612e-19 0.000611836)
(-0.0892515 -0.0442261 1.82988e-19 0.0886145 -2.14044e-19 0.000636962)
(-0.0845517 -0.0424938 -9.55584e-20 0.0838919 4.4393e-19 0.000659844)
(-0.0800301 -0.0407868 8.43954e-20 0.0793497 -2.54084e-19 0.000680359)
(-0.07571 -0.0391104 -2.55552e-19 0.0750117 2.59409e-19 0.000698383)
(-0.0715619 -0.0374743 3.23106e-19 0.0708481 -1.59634e-20 0.000713759)
(-0.0676006 -0.0358767 -4.36982e-20 0.0668743 -1.95196e-19 0.000726325)
(-0.0638051 -0.034329 1.73945e-19 0.0630692 -6.99232e-20 0.000735887)
(-0.0601834 -0.0328239 1.28664e-19 0.0594412 -1.50503e-19 0.000742246)
(-0.0567226 -0.0313755 -5.2865e-20 0.0559774 -3.2474e-20 0.000745166)
(-0.0534247 -0.0299714 -3.47812e-19 0.0526803 1.89549e-19 0.000744406)
(-0.0502848 -0.0286296 2.50965e-19 0.0495451 -5.34158e-19 0.000739687)
(-0.047299 -0.0273322 -5.82311e-19 0.0465682 1.40641e-19 0.000730727)
(-0.0444708 -0.0261023 -1.18187e-19 0.0437535 1.87627e-19 0.000717206)
(-0.0417895 -0.0249159 2.43263e-19 0.0410907 3.57824e-20 0.000698802)
(-0.03927 -0.0238023 -1.02561e-19 0.0385949 -2.73932e-19 0.000675152)
(-0.0368888 -0.0227309 6.38276e-19 0.0362429 1.81406e-19 0.00064589)
(-0.0346839 -0.0217372 1.83266e-19 0.0340732 -2.67254e-19 0.000610606)
(-0.0325988 -0.0207855 -3.58973e-20 0.0320299 6.02054e-19 0.000568888)
(-0.0307265 -0.0199155 2.75006e-19 0.0302063 -7.49622e-19 0.000520271)
(-0.0289345 -0.0190865 -1.56953e-19 0.0284702 5.52957e-19 0.000464288)
(-0.0274198 -0.0183541 3.64356e-20 0.0270194 -1.87832e-19 0.000400424)
(-0.0259371 -0.0176379 2.3717e-19 0.0256089 5.00526e-19 0.000328156)
(-0.0247948 -0.0170701 -9.27041e-19 0.0245479 -3.46367e-19 0.000246913)
(-0.0236474 -0.0165126 -3.86775e-19 0.0234913 1.51283e-19 0.000156116)
(-0.0229047 -0.0160896 5.01431e-19 0.0228496 3.85956e-19 5.51364e-05)
(-0.174515 -0.0509213 -9.23775e-20 0.174483 6.74626e-19 3.204e-05)
(-0.169253 -0.0570619 -1.52267e-19 0.169163 3.12176e-19 9.0387e-05)
(-0.16325 -0.0609474 -3.62846e-19 0.163105 9.8954e-20 0.000144899)
(-0.156784 -0.0631071 9.5309e-21 0.156588 5.32171e-19 0.00019607)
(-0.150181 -0.0641083 5.76459e-19 0.149936 6.77309e-19 0.000244292)
(-0.143483 -0.0641969 2.0223e-19 0.143193 2.65297e-19 0.000289867)
(-0.136906 -0.063681 -2.94276e-20 0.136573 -1.0106e-19 0.000333035)
(-0.130404 -0.0626834 2.54771e-19 0.13003 -2.95301e-19 0.000373969)
(-0.124123 -0.0613748 -4.02828e-19 0.12371 -2.82833e-19 0.000412803)
(-0.117993 -0.0598196 -1.85716e-19 0.117544 2.30239e-19 0.000449617)
(-0.112115 -0.0581144 3.38353e-19 0.111631 4.94145e-19 0.000484467)
(-0.106418 -0.0562941 -2.00946e-19 0.105901 4.41684e-19 0.000517365)
(-0.100972 -0.0544141 2.11001e-19 0.100424 2.97983e-19 0.000548307)
(-0.0957157 -0.052494 4.36666e-20 0.0951385 3.02363e-19 0.000577252)
(-0.0906967 -0.0505653 -4.44251e-19 0.0900926 5.96886e-20 0.000604149)
(-0.0858642 -0.0486401 1.56186e-19 0.0852353 -6.16048e-20 0.000628915)
(-0.081252 -0.046735 6.66884e-20 0.0806005 -9.56967e-21 0.000651461)
(-0.076819 -0.0448594 -9.86471e-20 0.0761473 -2.54292e-19 0.000671667)
(-0.0725888 -0.0430196 -7.7824e-20 0.0718994 -2.44822e-19 0.000689411)
(-0.0685297 -0.0412255 -1.9833e-19 0.0678252 4.08841e-19 0.00070454)
(-0.0646574 -0.0394753 5.09529e-20 0.0639405 1.25107e-21 0.000716894)
(-0.0609487 -0.0377813 -3.72618e-20 0.0602225 3.74007e-19 0.000726283)
(-0.0574131 -0.0361355 -5.09874e-20 0.0566806 -1.07727e-19 0.000732512)
(-0.0540352 -0.0345532 4.84875e-19 0.0532999 1.27469e-19 0.000735348)
(-0.050819 -0.0330209 -4.52887e-19 0.0500844 2.36413e-19 0.000734554)
(-0.0477568 -0.0315583 9.6404e-20 0.047027 -1.04037e-19 0.000729856)
(-0.0448473 -0.0301456 4.49543e-19 0.0441263 5.85745e-19 0.000720978)
(-0.0420907 -0.0288088 5.01557e-19 0.0413831 1.73185e-19 0.000707604)
(-0.0394793 -0.0275204 -1.52467e-19 0.0387899 4.08599e-19 0.000689416)
(-0.037024 -0.0263151 -5.02992e-19 0.0363579 4.75009e-19 0.000666058)
(-0.0347055 -0.0251546 -2.22455e-19 0.0340684 6.82349e-20 0.000637169)
(-0.0325555 -0.0240867 4.23431e-20 0.0319532 -1.55299e-20 0.000602346)
(-0.0305252 -0.0230574 -3.01076e-19 0.029964 -1.68199e-20 0.00056118)
(-0.0286967 -0.0221346 1.16718e-19 0.0281835 -2.04529e-19 0.000513214)
(-0.0269503 -0.0212378 4.23688e-19 0.0264923 2.84092e-19 0.000457988)
(-0.0254665 -0.0204769 -4.54371e-19 0.0250715 -3.45162e-19 0.000394992)
(-0.0240193 -0.0197064 7.2185e-19 0.0236956 3.95986e-20 0.00032371)
(-0.0228944 -0.01913 -2.59027e-19 0.0226508 -1.30496e-19 0.00024358)
(-0.0217694 -0.018543 1.04081e-18 0.0216153 5.32456e-19 0.000154026)
(-0.0210334 -0.0181205 -6.33612e-19 0.020979 -3.3902e-19 5.44179e-05)
(-0.173153 -0.0563432 6.17128e-20 0.173122 -4.41693e-19 3.16237e-05)
(-0.166987 -0.0627633 4.63589e-21 0.166898 -5.36031e-19 8.92074e-05)
(-0.160334 -0.0667894 2.1361e-19 0.160191 1.85497e-19 0.000143003)
(-0.153418 -0.0689846 1.16325e-19 0.153224 -5.20597e-20 0.000193497)
(-0.146501 -0.0699532 -7.68153e-19 0.14626 -1.23982e-19 0.000241076)
(-0.139599 -0.069956 -2.43071e-20 0.139313 -8.49954e-19 0.000286038)
(-0.132894 -0.0693216 -2.7733e-19 0.132565 -4.35998e-20 0.000328619)
(-0.126325 -0.0681793 -1.27458e-19 0.125956 -2.79126e-19 0.000368989)
(-0.120021 -0.0667115 5.59118e-19 0.119614 5.99204e-19 0.000407281)
(-0.113903 -0.0649856 5.67336e-19 0.113459 -2.56228e-20 0.000443574)
(-0.108061 -0.0631048 -3.48155e-20 0.107583 -4.18781e-20 0.000477924)
(-0.102419 -0.0611053 6.77355e-20 0.101909 -8.05869e-19 0.000510343)
(-0.0970429 -0.0590465 -1.93921e-19 0.096502 1.25309e-19 0.000540827)
(-0.0918655 -0.0569484 -5.10541e-20 0.0912962 -7.20062e-19 0.000569335)
(-0.0869332 -0.0548447 1.15885e-19 0.0863374 -9.23367e-20 0.000595818)
(-0.0821919 -0.0527478 -1.35196e-20 0.0815717 -1.72523e-19 0.000620195)
(-0.0776743 -0.0506754 -1.31259e-19 0.0770319 1.72839e-19 0.000642379)