/*--------------------------------*- C++ -*----------------------------------*\
| =========                 |                                                 |
| \\      /  F ield         | OpenFOAM: The Open Source CFD Toolbox           |
|  \\    /   O peration     | Version:  2.2.0                                 |
|   \\  /    A nd           | Web:      www.OpenFOAM.org                      |
|    \\/     M anipulation  |                                                 |
\*---------------------------------------------------------------------------*/
FoamFile
{
    version     2.0;
    format      ascii;
    class       volVectorField;
    location    "8";
    object      s;
}
// * * * * * * * * * * * * * * * * * * * * * * * * * * * * * * * * * * * * * //

dimensions      [0 1 -1 0 0 0 0];

internalField   nonuniform List<vector> 
7920
(
(0.517499 0.453696 0.106534)
(0.4904 0.429559 0.167584)
(0.460108 0.402521 0.232041)
(0.427214 0.373117 0.298752)
(0.391549 0.341332 0.366143)
(0.352292 0.306647 0.43193)
(0.311804 0.272422 0.493179)
(0.259559 0.2298 0.543821)
(0.553296 0.369542 0.148285)
(0.524201 0.349651 0.207926)
(0.491729 0.32737 0.270862)
(0.45651 0.303139 0.336023)
(0.418234 0.276923 0.402004)
(0.376727 0.248808 0.466948)
(0.332551 0.220755 0.528656)
(0.282346 0.189468 0.584186)
(0.569133 0.280593 0.215436)
(0.539309 0.265612 0.271352)
(0.506051 0.248823 0.330294)
(0.469999 0.230573 0.391317)
(0.430819 0.210859 0.453228)
(0.388619 0.190034 0.514565)
(0.343565 0.169254 0.57371)
(0.294245 0.148453 0.629068)
(0.564992 0.191769 0.315164)
(0.536279 0.181863 0.362564)
(0.504175 0.170699 0.412605)
(0.469272 0.158506 0.464571)
(0.431229 0.145292 0.517592)
(0.390308 0.131403 0.570638)
(0.346577 0.117557 0.622622)
(0.30014 0.104667 0.672696)
(0.54834 0.109092 0.435455)
(0.522316 0.10387 0.469314)
(0.492922 0.0979032 0.505622)
(0.460666 0.0913139 0.544036)
(0.425163 0.0841024 0.584132)
(0.386703 0.076497 0.625378)
(0.345339 0.0688995 0.667191)
(0.301985 0.0621193 0.709219)
(0.532832 0.0349352 0.525976)
(0.509306 0.0333834 0.547991)
(0.482387 0.0315807 0.572546)
(0.452505 0.0295623 0.599636)
(0.419225 0.0273261 0.6292)
(0.382823 0.0249487 0.661067)
(0.343352 0.0225603 0.694972)
(0.302114 0.0204657 0.730805)
(0.532832 -0.0349352 0.525976)
(0.509306 -0.0333838 0.547991)
(0.482387 -0.0315815 0.572546)
(0.452505 -0.0295635 0.599636)
(0.419225 -0.0273272 0.6292)
(0.382823 -0.0249493 0.661067)
(0.343352 -0.0225601 0.694973)
(0.302114 -0.020464 0.730805)
(0.54834 -0.109092 0.435455)
(0.522315 -0.10387 0.469314)
(0.492922 -0.0979039 0.505622)
(0.460666 -0.0913148 0.544037)
(0.425163 -0.0841033 0.584132)
(0.386702 -0.0764974 0.625378)
(0.345338 -0.068899 0.667192)
(0.301985 -0.0621178 0.709219)
(0.564992 -0.191769 0.315164)
(0.536279 -0.181863 0.362564)
(0.504174 -0.170699 0.412605)
(0.469271 -0.158507 0.464571)
(0.431228 -0.145292 0.517592)
(0.390308 -0.131403 0.570639)
(0.346577 -0.117557 0.622623)
(0.300141 -0.104666 0.672697)
(0.569133 -0.280593 0.215436)
(0.539309 -0.265613 0.271352)
(0.50605 -0.248824 0.330294)
(0.469999 -0.230574 0.391317)
(0.430818 -0.21086 0.453229)
(0.388618 -0.190035 0.514565)
(0.343565 -0.169253 0.573711)
(0.294247 -0.148452 0.62907)
(0.553297 -0.369543 0.148285)
(0.524201 -0.349652 0.207926)
(0.491729 -0.327371 0.270862)
(0.456509 -0.30314 0.336024)
(0.418234 -0.276924 0.402005)
(0.376727 -0.248809 0.466949)
(0.332552 -0.220754 0.528658)
(0.282349 -0.189467 0.584187)
(0.517496 -0.453693 0.106534)
(0.490396 -0.429556 0.167584)
(0.460104 -0.402517 0.232041)
(0.42721 -0.373114 0.298752)
(0.391544 -0.341328 0.366143)
(0.352289 -0.306644 0.43193)
(0.311802 -0.272419 0.493179)
(0.259557 -0.229796 0.543822)
(0.225545 0.197678 0.0285519)
(0.227818 0.199431 0.0518419)
(0.22921 0.200417 0.0786986)
(0.22952 0.200495 0.109328)
(0.228166 0.19926 0.143637)
(0.22439 0.196195 0.181106)
(0.217699 0.191702 0.220047)
(0.204997 0.183222 0.257805)
(0.254114 0.16985 0.0415572)
(0.255688 0.171052 0.0656291)
(0.256195 0.171633 0.0932902)
(0.255407 0.171507 0.124772)
(0.252649 0.17038 0.160083)
(0.247343 0.168111 0.198933)
(0.238418 0.164825 0.240405)
(0.225171 0.160543 0.283218)
(0.281102 0.138754 0.0650295)
(0.281468 0.139256 0.0894831)
(0.280597 0.139279 0.117477)
(0.278253 0.138779 0.149276)
(0.273763 0.13757 0.184993)
(0.266632 0.135663 0.224565)
(0.255861 0.133139 0.267623)
(0.241116 0.130744 0.313649)
(0.308365 0.104799 0.102848)
(0.306832 0.104592 0.125907)
(0.303944 0.104056 0.152318)
(0.299494 0.103183 0.182401)
(0.292882 0.101884 0.216395)
(0.283742 0.100237 0.254466)
(0.271242 0.0983455 0.296671)
(0.255603 0.0970088 0.343084)
(0.333801 0.0664711 0.151314)
(0.329857 0.0658863 0.17058)
(0.32451 0.0651182 0.193011)
(0.317599 0.0641735 0.219039)
(0.308624 0.0630249 0.249076)
(0.297327 0.0617432 0.28354)
(0.283059 0.060413 0.322852)
(0.266306 0.0595788 0.367548)
(0.350404 0.0229899 0.189132)
(0.344588 0.0226751 0.204467)
(0.33738 0.0223044 0.222903)
(0.328655 0.0218832 0.244988)
(0.31799 0.0214084 0.271284)
(0.305194 0.0209088 0.302391)
(0.289732 0.0204186 0.338952)
(0.272201 0.020129 0.381763)
(0.350404 -0.0229899 0.189132)
(0.344588 -0.022675 0.204467)
(0.33738 -0.0223042 0.222903)
(0.328655 -0.0218829 0.244988)
(0.31799 -0.0214082 0.271284)
(0.305194 -0.0209089 0.302391)
(0.289731 -0.0204191 0.338952)
(0.272201 -0.02013 0.381764)
(0.333801 -0.066471 0.151315)
(0.329857 -0.0658861 0.170581)
(0.32451 -0.0651178 0.193011)
(0.317599 -0.0641731 0.219039)
(0.308623 -0.0630245 0.249077)
(0.297327 -0.061743 0.283541)
(0.283058 -0.0604133 0.322853)
(0.266306 -0.0595795 0.36755)
(0.308365 -0.104799 0.102849)
(0.306832 -0.104591 0.125907)
(0.303944 -0.104056 0.152319)
(0.299494 -0.103183 0.182402)
(0.292882 -0.101884 0.216396)
(0.283742 -0.100236 0.254467)
(0.271241 -0.0983457 0.296674)
(0.255602 -0.0970093 0.343087)
(0.281101 -0.138754 0.0650303)
(0.281468 -0.139256 0.0894841)
(0.280597 -0.139279 0.117479)
(0.278252 -0.138779 0.149277)
(0.273762 -0.13757 0.184995)
(0.266631 -0.135663 0.224568)
(0.255859 -0.133139 0.267627)
(0.241115 -0.130744 0.313654)
(0.254113 -0.169849 0.041558)
(0.255688 -0.171052 0.0656301)
(0.256195 -0.171632 0.0932914)
(0.255406 -0.171506 0.124774)
(0.252649 -0.170379 0.160085)
(0.247342 -0.168111 0.198936)
(0.238417 -0.164824 0.24041)
(0.22517 -0.160543 0.283225)
(0.225545 -0.197678 0.0285522)
(0.227818 -0.199431 0.0518427)
(0.22921 -0.200417 0.0787001)
(0.229521 -0.200496 0.10933)
(0.228166 -0.19926 0.143641)
(0.224391 -0.196196 0.181111)
(0.217699 -0.191703 0.220054)
(0.204997 -0.183223 0.257813)
(0.125026 0.109505 0.00419819)
(0.127016 0.110955 0.0140844)
(0.128932 0.112319 0.0256199)
(0.1307 0.113553 0.0389922)
(0.132054 0.114489 0.0543093)
(0.132671 0.114948 0.0715287)
(0.131893 0.114845 0.0901824)
(0.128847 0.11367 0.109137)
(0.141363 0.0944689 0.0057665)
(0.143115 0.0956854 0.0163082)
(0.144709 0.0968486 0.0285939)
(0.146048 0.0979399 0.0428443)
(0.146824 0.0988521 0.0592401)
(0.146754 0.0995806 0.0778881)
(0.145001 0.100019 0.0987257)
(0.141596 0.100856 0.121456)
(0.157131 0.0775699 0.00957791)
(0.158435 0.0784161 0.020856)
(0.159495 0.079228 0.0339776)
(0.160196 0.0799994 0.049197)
(0.160232 0.0806745 0.0667614)
(0.159331 0.081293 0.0869042)
(0.156786 0.0818198 0.109828)
(0.15259 0.0829722 0.135687)
(0.173573 0.059006 0.0164881)
(0.174083 0.0593972 0.0281511)
(0.174275 0.0597701 0.0417153)
(0.174037 0.0601309 0.0574639)
(0.173104 0.0604658 0.0756995)
(0.171253 0.0608325 0.096754)
(0.167922 0.0612594 0.121011)
(0.16325 0.0622905 0.148916)
(0.189168 0.0376811 0.0258508)
(0.188559 0.0377019 0.0372797)
(0.187581 0.0377148 0.050634)
(0.186139 0.0377294 0.0662293)
(0.184019 0.0377512 0.0844204)
(0.181047 0.0378256 0.105621)
(0.176793 0.0379892 0.130343)
(0.171433 0.0385643 0.159234)
(0.199452 0.01309 0.0333595)
(0.19792 0.0130374 0.0442842)
(0.196002 0.0129838 0.0571502)
(0.193622 0.0129343 0.0723004)
(0.190604 0.0128941 0.0901278)
(0.18681 0.012881 0.111098)
(0.181886 0.0129121 0.135797)
(0.176019 0.0130946 0.164978)
(0.199452 -0.01309 0.0333596)
(0.19792 -0.0130375 0.0442843)
(0.196002 -0.0129841 0.0571502)
(0.193622 -0.0129346 0.0723004)
(0.190604 -0.0128943 0.0901278)
(0.18681 -0.0128809 0.111098)
(0.181886 -0.0129115 0.135797)
(0.176019 -0.0130933 0.164978)
(0.189168 -0.0376811 0.025851)
(0.188559 -0.037702 0.0372798)
(0.187581 -0.037715 0.050634)
(0.186139 -0.0377297 0.0662293)
(0.184019 -0.0377513 0.0844204)
(0.181047 -0.0378254 0.105621)
(0.176793 -0.0379886 0.130343)
(0.171433 -0.0385631 0.159235)
(0.173573 -0.0590062 0.0164883)
(0.174083 -0.0593974 0.0281513)
(0.174275 -0.0597704 0.0417154)
(0.174037 -0.0601312 0.057464)
(0.173104 -0.060466 0.0756997)
(0.171253 -0.0608325 0.0967543)
(0.167922 -0.0612589 0.121011)
(0.163251 -0.0622894 0.148916)
(0.157132 -0.0775703 0.00957801)
(0.158436 -0.0784165 0.0208561)
(0.159496 -0.0792286 0.0339776)
(0.160196 -0.08 0.0491971)
(0.160233 -0.080675 0.0667616)
(0.159332 -0.0812932 0.0869045)
(0.156787 -0.0818196 0.109828)
(0.152591 -0.0829714 0.135688)
(0.141364 -0.0944694 0.00576659)
(0.143115 -0.0956861 0.0163083)
(0.14471 -0.0968494 0.0285941)
(0.146049 -0.0979406 0.0428446)
(0.146824 -0.0988528 0.0592404)
(0.146755 -0.099581 0.0778884)
(0.145002 -0.100019 0.0987261)
(0.141598 -0.100855 0.121456)
(0.125026 -0.109505 0.00419828)
(0.127016 -0.110955 0.0140844)
(0.128931 -0.112318 0.0256199)
(0.130699 -0.113553 0.0389922)
(0.132054 -0.114488 0.0543093)
(0.13267 -0.114948 0.0715286)
(0.131893 -0.114844 0.0901825)
(0.128847 -0.11367 0.109137)
(0.0664354 0.05818 -0.00583422)
(0.0675807 0.0590104 -0.00148846)
(0.0687482 0.0598457 0.00363576)
(0.0699149 0.0606775 0.00965306)
(0.0709635 0.0614364 0.0166604)
(0.0717656 0.0620714 0.0247013)
(0.0719231 0.0624882 0.03367)
(0.0711791 0.0626513 0.0431094)
(0.0751309 0.0502156 -0.00967341)
(0.0761688 0.050951 -0.00497562)
(0.0771889 0.0517053 0.000593164)
(0.0781548 0.0524803 0.00718253)
(0.0789299 0.0532382 0.0149479)
(0.0793987 0.0540049 0.0240362)
(0.0791031 0.0547046 0.034567)
(0.078175 0.0558596 0.0465507)
(0.0834905 0.0412318 -0.0155835)
(0.0843348 0.0417907 -0.0102717)
(0.0851198 0.0423722 -0.00395638)
(0.0857997 0.042982 0.00354634)
(0.0862407 0.043605 0.0124419)
(0.0863255 0.0442782 0.0229554)
(0.0856846 0.0449785 0.0353399)
(0.0843816 0.0461526 0.0498489)
(0.0921721 0.0313509 -0.0244588)
(0.092663 0.031671 -0.0181626)
(0.0930588 0.032013 -0.0107194)
(0.0933168 0.0323868 -0.00192735)
(0.0933215 0.0327943 0.00844319)
(0.0929773 0.0332743 0.0206547)
(0.0920014 0.033842 0.0350232)
(0.0904954 0.0348052 0.0519198)
(0.100327 0.019997 -0.0354604)
(0.100303 0.0200951 -0.0277994)
(0.100158 0.0202086 -0.0188838)
(0.0998597 0.0203465 -0.00851847)
(0.0993153 0.0205163 0.00352071)
(0.0984518 0.0207456 0.0174964)
(0.0970572 0.0210545 0.0337389)
(0.095228 0.0216152 0.05267)
(0.105669 0.00693966 -0.0439187)
(0.105211 0.00694516 -0.0351028)
(0.104624 0.00695678 -0.0249885)
(0.103884 0.00697839 -0.0133974)
(0.102917 0.0070141 -0.000122286)
(0.101665 0.00707437 0.015087)
(0.0999572 0.00716835 0.0325575)
(0.0978831 0.00735194 0.0527296)
(0.105669 -0.00693967 -0.0439186)
(0.105211 -0.0069452 -0.0351027)
(0.104624 -0.00695685 -0.0249885)
(0.103884 -0.00697847 -0.0133974)
(0.102917 -0.00701418 -0.000122281)
(0.101665 -0.00707444 0.0150871)
(0.0999571 -0.00716838 0.0325576)
(0.0978831 -0.00735193 0.0527299)
(0.100327 -0.019997 -0.0354602)
(0.100302 -0.0200951 -0.0277992)
(0.100158 -0.0202086 -0.0188837)
(0.0998597 -0.0203465 -0.00851842)
(0.0993153 -0.0205163 0.00352082)
(0.0984518 -0.0207456 0.0174967)
(0.0970571 -0.0210544 0.0337394)
(0.095228 -0.0216151 0.0526709)
(0.0921722 -0.0313509 -0.0244585)
(0.0926631 -0.031671 -0.0181623)
(0.0930588 -0.032013 -0.0107191)
(0.0933168 -0.0323868 -0.00192704)
(0.0933215 -0.0327943 0.00844366)
(0.0929773 -0.0332743 0.0206555)
(0.0920014 -0.033842 0.0350243)
(0.0904954 -0.0348051 0.0519213)
(0.0834905 -0.0412318 -0.0155832)
(0.0843348 -0.0417908 -0.0102713)
(0.0851198 -0.0423722 -0.00395591)
(0.0857997 -0.0429821 0.00354697)
(0.0862407 -0.043605 0.0124427)
(0.0863255 -0.0442781 0.0229566)
(0.0856845 -0.0449784 0.0353416)
(0.0843816 -0.0461523 0.0498511)
(0.0751309 -0.0502156 -0.00967312)
(0.0761688 -0.0509511 -0.00497522)
(0.0771889 -0.0517054 0.000593689)
(0.0781547 -0.0524803 0.00718326)
(0.0789299 -0.0532383 0.014949)
(0.0793986 -0.0540049 0.0240377)
(0.079103 -0.0547045 0.0345691)
(0.0781752 -0.0558593 0.0465534)
(0.0664353 -0.0581799 -0.00583405)
(0.0675806 -0.0590103 -0.00148811)
(0.068748 -0.0598456 0.00363633)
(0.0699146 -0.0606774 0.00965392)
(0.0709633 -0.0614364 0.0166616)
(0.0717654 -0.0620714 0.024703)
(0.071923 -0.0624882 0.0336723)
(0.0711789 -0.0626511 0.0431123)
(0.0330549 0.0289433 -0.0109125)
(0.033641 0.0293617 -0.00938202)
(0.0342491 0.0297903 -0.00752565)
(0.0348689 0.0302259 -0.00527508)
(0.035448 0.030639 -0.0025579)
(0.03593 0.0310119 0.000691312)
(0.0361129 0.0312912 0.00450361)
(0.0359045 0.0315076 0.00879122)
(0.0373782 0.0249823 -0.0175329)
(0.0379116 0.0253587 -0.0158267)
(0.0384478 0.025752 -0.0137088)
(0.0389701 0.0261642 -0.0110774)
(0.0394175 0.0265811 -0.00781224)
(0.0397382 0.0270199 -0.00377636)
(0.0397083 0.027443 0.00118551)
(0.039413 0.0281361 0.00720755)
(0.0415289 0.0205108 -0.0284777)
(0.0419712 0.0208036 -0.0262497)
(0.0423969 0.0211146 -0.0234681)
(0.0427849 0.0214474 -0.0199988)
(0.0430759 0.0217981 -0.0156834)
(0.0432167 0.0221874 -0.0103379)
(0.0430303 0.0226055 -0.00374516)
(0.0425609 0.0232832 0.00432988)
(0.0458203 0.0155875 -0.0455471)
(0.0460971 0.015763 -0.0420558)
(0.0463409 0.015955 -0.0378314)
(0.0465321 0.016169 -0.0327296)
(0.0466206 0.0164083 -0.0265863)
(0.0465633 0.0166934 -0.0192161)
(0.0462275 0.017033 -0.0104029)
(0.0456684 0.017581 0.000100256)
(0.0498283 0.00993372 -0.0671136)
(0.0498625 0.00999595 -0.061456)
(0.0498525 0.0100695 -0.0549211)
(0.0497828 0.0101591 -0.0473925)
(0.0496147 0.0102699 -0.0387437)
(0.0493157 0.0104159 -0.0288336)
(0.0487879 0.0106079 -0.0174925)
(0.0480792 0.01093 -0.00450911)
(0.052442 0.00344481 -0.0838492)
(0.0522711 0.00345289 -0.0761937)
(0.0520525 0.00346526 -0.0676058)
(0.0517747 0.00348394 -0.0580099)
(0.051408 0.00351137 -0.0473254)
(0.0509272 0.00355285 -0.0354585)
(0.050254 0.00361312 -0.022283)
(0.0494306 0.00371919 -0.00761837)
(0.052442 -0.00344481 -0.0838492)
(0.0522711 -0.00345293 -0.0761937)
(0.0520525 -0.00346532 -0.0676058)
(0.0517748 -0.00348402 -0.05801)
(0.051408 -0.00351143 -0.0473255)
(0.0509272 -0.00355285 -0.0354585)
(0.050254 -0.00361302 -0.022283)
(0.0494306 -0.00371898 -0.0076183)
(0.0498283 -0.00993373 -0.0671136)
(0.0498625 -0.00999598 -0.061456)
(0.0498525 -0.0100695 -0.0549211)
(0.0497828 -0.0101592 -0.0473926)
(0.0496147 -0.0102699 -0.0387437)
(0.0493157 -0.0104159 -0.0288335)
(0.048788 -0.0106077 -0.0174924)
(0.0480793 -0.0109297 -0.00450887)
(0.0458205 -0.0155876 -0.045547)
(0.0460972 -0.0157631 -0.0420557)
(0.0463411 -0.0159551 -0.0378314)
(0.0465322 -0.0161691 -0.0327296)
(0.0466207 -0.0164084 -0.0265862)
(0.0465635 -0.0166934 -0.0192159)
(0.0462277 -0.0170329 -0.0104026)
(0.0456686 -0.0175808 0.000100681)
(0.0415291 -0.0205109 -0.0284776)
(0.0419714 -0.0208037 -0.0262496)
(0.0423971 -0.0211147 -0.023468)
(0.0427851 -0.0214476 -0.0199987)
(0.0430761 -0.0217982 -0.0156832)
(0.0432169 -0.0221875 -0.0103376)
(0.0430305 -0.0226055 -0.00374472)
(0.0425612 -0.023283 0.00433047)
(0.0373784 -0.0249824 -0.0175328)
(0.0379118 -0.0253588 -0.0158266)
(0.038448 -0.0257522 -0.0137087)
(0.0389702 -0.0261644 -0.0110772)
(0.0394177 -0.0265813 -0.00781197)
(0.0397384 -0.02702 -0.00377597)
(0.0397085 -0.027443 0.00118603)
(0.0394134 -0.0281359 0.00720824)
(0.033055 -0.0289433 -0.0109124)
(0.0336411 -0.0293617 -0.00938194)
(0.0342491 -0.0297903 -0.00752553)
(0.0348688 -0.0302259 -0.00527491)
(0.035448 -0.0306391 -0.00255765)
(0.03593 -0.0310119 0.000691669)
(0.0361129 -0.0312913 0.00450411)
(0.0359045 -0.0315076 0.00879192)
(0.0157695 0.0138073 -0.0134889)
(0.0160525 0.0140083 -0.0133841)
(0.0163476 0.0142154 -0.0131825)
(0.0166506 0.0144275 -0.0128407)
(0.0169377 0.0146315 -0.0123018)
(0.0171828 0.01482 -0.0114935)
(0.0172901 0.0149668 -0.0103261)
(0.0172192 0.0150958 -0.00869581)
(0.0178297 0.0119168 -0.0215388)
(0.0180878 0.0120988 -0.0213538)
(0.0183492 0.0122902 -0.020991)
(0.0186063 0.0124922 -0.0203745)
(0.0188316 0.0126988 -0.0194055)
(0.0190006 0.0129188 -0.0179579)
(0.0190093 0.0131351 -0.0158702)
(0.0188985 0.0134867 -0.0129535)
(0.0198066 0.00978274 -0.0350804)
(0.0200227 0.00992583 -0.034427)
(0.020233 0.0100787 -0.0334508)
(0.0204281 0.0102436 -0.032045)
(0.0205811 0.010419 -0.0300792)
(0.0206672 0.0106152 -0.0273973)
(0.0206046 0.0108283 -0.0238131)
(0.0204148 0.0111683 -0.0191161)
(0.0218428 0.00743116 -0.0563828)
(0.0219825 0.00751853 -0.0543278)
(0.0221088 0.0076147 -0.0517536)
(0.0222132 0.00772255 -0.048548)
(0.0222731 0.00784402 -0.044585)
(0.0222683 0.00798886 -0.0397263)
(0.0221381 0.00816192 -0.0338194)
(0.0219082 0.00843561 -0.0266995)
(0.0237382 0.00473284 -0.0834069)
(0.0237655 0.00476559 -0.0787752)
(0.0237744 0.00480434 -0.0734631)
(0.0237582 0.00485155 -0.0673978)
(0.0236996 0.00490977 -0.0605073)
(0.0235837 0.00498577 -0.0527211)
(0.0233657 0.00508492 -0.0439647)
(0.0230677 0.00524662 -0.0341538)
(0.0249707 0.00164044 -0.104417)
(0.0249029 0.00164551 -0.0973536)
(0.024815 0.00165283 -0.0895504)
(0.0247025 0.00166343 -0.0809876)
(0.0245521 0.00167851 -0.0716544)
(0.0243522 0.00170058 -0.0615455)
(0.0240674 0.001732 -0.0506506)
(0.0237167 0.00178534 -0.0389422)
(0.0249707 -0.00164044 -0.104417)
(0.0249029 -0.00164553 -0.0973536)
(0.024815 -0.00165288 -0.0895504)
(0.0247025 -0.00166348 -0.0809876)
(0.0245521 -0.00167855 -0.0716544)
(0.0243522 -0.0017006 -0.0615455)
(0.0240674 -0.00173197 -0.0506506)
(0.0237167 -0.00178527 -0.0389421)
(0.0237382 -0.00473285 -0.0834069)
(0.0237655 -0.0047656 -0.0787752)
(0.0237744 -0.00480437 -0.073463)
(0.0237582 -0.00485158 -0.0673977)
(0.0236996 -0.00490979 -0.0605073)
(0.0235837 -0.00498577 -0.052721)
(0.0233657 -0.00508488 -0.0439646)
(0.0230677 -0.00524653 -0.0341537)
(0.0218429 -0.00743118 -0.0563828)
(0.0219825 -0.00751856 -0.0543277)
(0.0221089 -0.00761475 -0.0517535)
(0.0222133 -0.00772261 -0.048548)
(0.0222731 -0.00784406 -0.0445849)
(0.0222684 -0.00798887 -0.0397261)
(0.0221382 -0.00816189 -0.0338192)
(0.0219083 -0.00843551 -0.0266992)
(0.0198067 -0.00978279 -0.0350803)
(0.0200228 -0.00992589 -0.0344269)
(0.0202331 -0.0100788 -0.0334507)
(0.0204281 -0.0102436 -0.0320449)
(0.0205812 -0.0104191 -0.0300791)
(0.0206673 -0.0106152 -0.0273971)
(0.0206046 -0.0108283 -0.0238128)
(0.0204149 -0.0111682 -0.0191157)
(0.0178298 -0.0119168 -0.0215387)
(0.0180879 -0.0120989 -0.0213537)
(0.0183493 -0.0122903 -0.0209909)
(0.0186064 -0.0124923 -0.0203744)
(0.0188316 -0.0126989 -0.0194053)
(0.0190007 -0.0129188 -0.0179576)
(0.0190094 -0.0131351 -0.0158698)
(0.0188987 -0.0134866 -0.0129531)
(0.0157695 -0.0138073 -0.0134889)
(0.0160524 -0.0140083 -0.013384)
(0.0163476 -0.0142154 -0.0131824)
(0.0166506 -0.0144275 -0.0128406)
(0.0169376 -0.0146315 -0.0123016)
(0.0171827 -0.01482 -0.0114932)
(0.0172901 -0.0149669 -0.0103257)
(0.0172191 -0.0150958 -0.0086953)
(0.00697665 0.00610808 -0.0147169)
(0.00710268 0.00619676 -0.0152916)
(0.00723448 0.00628828 -0.0158786)
(0.00737009 0.0063821 -0.0164465)
(0.00749924 0.00647259 -0.0169457)
(0.0076104 0.0065566 -0.0173017)
(0.00766166 0.00662245 -0.0173981)
(0.00763481 0.00668239 -0.0170396)
(0.00788914 0.00527258 -0.0234518)
(0.00800413 0.00535313 -0.0239935)
(0.00812095 0.00543796 -0.0244689)
(0.00823621 0.00552756 -0.0248147)
(0.00833805 0.00561955 -0.0249424)
(0.00841554 0.00571758 -0.024732)
(0.00842357 0.00581463 -0.0240207)
(0.00837967 0.0059721 -0.0225954)
(0.00876528 0.00432917 -0.0382402)
(0.00886183 0.0043927 -0.038341)
(0.00895624 0.00446073 -0.0382292)
(0.0090443 0.00453414 -0.0378113)
(0.00911448 0.00461252 -0.0369706)
(0.00915573 0.0047002 -0.035565)
(0.0091326 0.00479588 -0.033425)
(0.00905453 0.0049476 -0.0303543)
(0.00966592 0.00328839 -0.0615769)
(0.00972903 0.00332738 -0.0602115)
(0.00978671 0.00337038 -0.0584294)
(0.00983509 0.00341863 -0.0561338)
(0.00986448 0.00347308 -0.0532172)
(0.00986599 0.00353793 -0.0495648)
(0.00981335 0.00361554 -0.0450562)
(0.00971768 0.00373739 -0.0395686)
(0.0105031 0.00209407 -0.0912241)
(0.0105171 0.0021089 -0.0870866)
(0.0105233 0.00212646 -0.082363)
(0.0105189 0.00214783 -0.0770016)
(0.0104965 0.00217416 -0.0709571)
(0.0104494 0.00220841 -0.0641933)
(0.0103583 0.00225305 -0.0566831)
(0.0102329 0.00232515 -0.048406)
(0.0110468 0.000725711 -0.114288)
(0.011019 0.000728098 -0.107512)
(0.0109829 0.000731506 -0.100088)
(0.0109364 0.000736382 -0.0920235)
(0.0108737 0.000743268 -0.0833419)
(0.0107899 0.00075326 -0.0740809)
(0.0106696 0.000767418 -0.0642875)
(0.0105211 0.000791192 -0.0540102)
(0.0110468 -0.000725713 -0.114288)
(0.0110191 -0.00072811 -0.107512)
(0.0109829 -0.000731528 -0.100088)
(0.0109364 -0.000736409 -0.0920234)
(0.0108737 -0.000743292 -0.0833418)
(0.0107899 -0.000753272 -0.0740809)
(0.0106696 -0.000767411 -0.0642875)
(0.0105211 -0.000791164 -0.0540102)
(0.0105031 -0.00209407 -0.0912241)
(0.0105171 -0.00210891 -0.0870866)
(0.0105233 -0.00212647 -0.082363)
(0.0105189 -0.00214784 -0.0770016)
(0.0104965 -0.00217417 -0.070957)
(0.0104494 -0.00220841 -0.0641933)
(0.0103584 -0.00225303 -0.056683)
(0.0102329 -0.00232511 -0.0484059)
(0.00966596 -0.00328841 -0.0615769)
(0.00972907 -0.0033274 -0.0602115)
(0.00978674 -0.0033704 -0.0584294)
(0.00983512 -0.00341866 -0.0561337)
(0.00986451 -0.0034731 -0.0532171)
(0.00986603 -0.00353794 -0.0495647)
(0.0098134 -0.00361553 -0.0450561)
(0.00971773 -0.00373735 -0.0395685)
(0.00876533 -0.0043292 -0.0382402)
(0.00886188 -0.00439273 -0.038341)
(0.00895629 -0.00446077 -0.0382292)
(0.00904435 -0.00453419 -0.0378113)
(0.00911453 -0.00461256 -0.0369705)
(0.00915577 -0.00470022 -0.0355649)
(0.00913265 -0.00479589 -0.0334249)
(0.00905458 -0.00494757 -0.0303541)
(0.00788919 -0.00527262 -0.0234518)
(0.00800418 -0.00535318 -0.0239935)
(0.00812099 -0.00543801 -0.0244689)
(0.00823626 -0.00552762 -0.0248146)
(0.00833809 -0.0056196 -0.0249424)
(0.00841559 -0.00571761 -0.0247319)
(0.00842363 -0.00581464 -0.0240206)
(0.00837977 -0.00597206 -0.0225952)
(0.00697665 -0.00610809 -0.0147169)
(0.00710268 -0.00619676 -0.0152916)
(0.00723447 -0.00628829 -0.0158786)
(0.00737008 -0.00638211 -0.0164464)
(0.00749922 -0.00647261 -0.0169457)
(0.00761038 -0.00655662 -0.0173016)
(0.00766166 -0.00662249 -0.0173979)
(0.00763479 -0.00668238 -0.0170394)
(0.00290945 0.00254715 -0.0152878)
(0.00296227 0.00258417 -0.0161783)
(0.00301755 0.0026224 -0.0171319)
(0.00307447 0.0026616 -0.0181224)
(0.00312882 0.00269947 -0.0191042)
(0.00317574 0.00273469 -0.0200014)
(0.003198 0.00276243 -0.0206856)
(0.00318758 0.0027882 -0.0209188)
(0.00329062 0.00219919 -0.0243403)
(0.00333881 0.00223286 -0.0252196)
(0.00338782 0.00226833 -0.0260844)
(0.00343622 0.00230581 -0.0268773)
(0.00347917 0.00234435 -0.0275147)
(0.00351198 0.0023854 -0.0278795)
(0.00351628 0.00242626 -0.0278087)
(0.00349877 0.00249219 -0.0270779)
(0.00365711 0.00180623 -0.0397062)
(0.00369764 0.00183282 -0.0401572)
(0.00373734 0.0018613 -0.0404469)
(0.00377445 0.00189206 -0.040488)
(0.00380426 0.00192495 -0.0401702)
(0.00382207 0.00196171 -0.0393583)
(0.00381342 0.00200199 -0.0378908)
(0.00378192 0.0020654 -0.0355785)
(0.00403321 0.0013721 -0.0639838)
(0.00405985 0.00138844 -0.0629386)
(0.0040843 0.00140647 -0.0615245)
(0.00410493 0.0014267 -0.0596519)
(0.0041178 0.00144955 -0.0572222)
(0.00411909 0.00147672 -0.0541315)
(0.00409813 0.00150929 -0.0502749)
(0.00405921 0.00156012 -0.0455497)
(0.00438241 0.000873742 -0.0948426)
(0.00438864 0.000879999 -0.090935)
(0.00439173 0.000887404 -0.0864855)
(0.00439047 0.000896409 -0.0814521)
(0.00438182 0.000907504 -0.0758021)
(0.00436295 0.000921897 -0.0695156)
(0.00432602 0.000940665 -0.0625877)
(0.00427472 0.000970785 -0.0550283)
(0.00460888 0.000302775 -0.118854)
(0.00459782 0.000303799 -0.112213)
(0.00458334 0.000305251 -0.104966)
(0.00456458 0.000307319 -0.0971349)
(0.00453923 0.00031023 -0.0887583)
(0.00450512 0.000314434 -0.0798945)
(0.00445603 0.000320386 -0.070617)
(0.00439516 0.000330313 -0.0610105)
(0.00460888 -0.000302776 -0.118854)
(0.00459782 -0.000303806 -0.112213)
(0.00458334 -0.000305263 -0.104966)
(0.00456458 -0.000307334 -0.0971349)
(0.00453923 -0.000310243 -0.0887583)
(0.00450513 -0.000314441 -0.0798945)
(0.00445603 -0.000320382 -0.070617)
(0.00439516 -0.000330296 -0.0610105)
(0.00438242 -0.000873743 -0.0948426)
(0.00438864 -0.000880004 -0.090935)
(0.00439174 -0.000887413 -0.0864854)
(0.00439047 -0.000896419 -0.081452)
(0.00438182 -0.000907512 -0.075802)
(0.00436295 -0.000921898 -0.0695156)
(0.00432603 -0.000940656 -0.0625877)
(0.00427474 -0.000970764 -0.0550283)
(0.00403323 -0.00137211 -0.0639838)
(0.00405987 -0.00138845 -0.0629386)
(0.00408431 -0.00140648 -0.0615245)
(0.00410495 -0.00142672 -0.0596519)
(0.00411782 -0.00144956 -0.0572222)
(0.00411912 -0.00147673 -0.0541315)
(0.00409816 -0.00150929 -0.0502749)
(0.00405923 -0.0015601 -0.0455497)
(0.00365715 -0.00180625 -0.0397062)
(0.00369767 -0.00183284 -0.0401572)
(0.00373737 -0.00186133 -0.0404469)
(0.00377448 -0.00189209 -0.040488)
(0.00380429 -0.00192497 -0.0401702)
(0.00382209 -0.00196172 -0.0393583)
(0.00381345 -0.00200199 -0.0378908)
(0.00378195 -0.00206538 -0.0355785)
(0.00329065 -0.00219922 -0.0243403)
(0.00333884 -0.00223288 -0.0252196)
(0.00338784 -0.00226836 -0.0260844)
(0.00343625 -0.00230584 -0.0268773)
(0.0034792 -0.00234438 -0.0275147)
(0.003512 -0.00238541 -0.0278795)
(0.00351632 -0.00242627 -0.0278087)
(0.00349882 -0.00249217 -0.0270779)
(0.00290945 -0.00254715 -0.0152878)
(0.00296226 -0.00258417 -0.0161783)
(0.00301754 -0.0026224 -0.0171319)
(0.00307446 -0.0026616 -0.0181224)
(0.00312881 -0.00269948 -0.0191042)
(0.00317572 -0.00273469 -0.0200014)
(0.003198 -0.00276244 -0.0206856)
(0.00318756 -0.0027882 -0.0209188)
(0.00108419 0.000949155 -0.0155281)
(0.00110394 0.000962969 -0.0165516)
(0.00112463 0.000977237 -0.0176594)
(0.00114594 0.00099186 -0.0188278)
(0.00116632 0.001006 -0.0200126)
(0.00118391 0.00101915 -0.0211373)
(0.00119242 0.00102953 -0.0220687)
(0.00118861 0.00103928 -0.0225506)
(0.00122642 0.000819635 -0.0247145)
(0.00124445 0.000832207 -0.025736)
(0.0012628 0.000845458 -0.0267649)
(0.00128092 0.000859454 -0.0277458)
(0.00129704 0.00087386 -0.0285977)
(0.00130935 0.00088917 -0.0292044)
(0.00131118 0.000904476 -0.029403)
(0.00130472 0.000929005 -0.0289643)
(0.00136337 0.000673356 -0.040324)
(0.00137855 0.000683296 -0.0409226)
(0.00139344 0.000693949 -0.0413814)
(0.00140738 0.00070545 -0.0416158)
(0.00141862 0.000717756 -0.0415181)
(0.00142538 0.000731487 -0.040956)
(0.00142238 0.000746577 -0.0397713)
(0.00141081 0.000770162 -0.0377779)
(0.00150367 0.000511546 -0.0649985)
(0.00151371 0.000517661 -0.0640883)
(0.00152293 0.000524406 -0.0628293)
(0.00153075 0.000531973 -0.0611348)
(0.00153569 0.000540515 -0.0589101)
(0.00153631 0.000550653 -0.0560558)
(0.0015287 0.00056282 -0.0524734)
(0.00151432 0.000581694 -0.0480688)
(0.00163382 0.00032574 -0.0963681)
(0.00163628 0.000328095 -0.0925575)
(0.00163758 0.000330878 -0.0882235)
(0.00163726 0.000334257 -0.0833283)
(0.00163421 0.000338417 -0.0778444)
(0.00162734 0.000343796 -0.0717588)
(0.00161379 0.000350815 -0.0650759)
(0.00159481 0.000362016 -0.0578182)
(0.00171813 0.000112869 -0.120779)
(0.00171417 0.00011326 -0.114194)
(0.00170895 0.00011381 -0.107023)
(0.00170214 0.000114589 -0.0992899)
(0.0016929 0.000115682 -0.0910418)
(0.00168037 0.000117254 -0.0823451)
(0.00166228 0.000119478 -0.0732846)
(0.00163975 0.000123167 -0.0639601)
(0.00171813 -0.00011287 -0.120779)
(0.00171417 -0.000113263 -0.114194)
(0.00170895 -0.000113816 -0.107023)
(0.00170214 -0.000114596 -0.0992899)
(0.0016929 -0.000115689 -0.0910418)
(0.00168037 -0.000117257 -0.082345)
(0.00166228 -0.000119477 -0.0732846)
(0.00163975 -0.000123161 -0.0639601)
(0.00163382 -0.000325741 -0.0963681)
(0.00163628 -0.000328097 -0.0925575)
(0.00163758 -0.000330883 -0.0882235)
(0.00163726 -0.000334263 -0.0833283)
(0.00163422 -0.000338421 -0.0778444)
(0.00162735 -0.000343798 -0.0717588)
(0.00161379 -0.000350812 -0.0650759)
(0.00159482 -0.000362008 -0.0578183)
(0.00150368 -0.000511549 -0.0649985)
(0.00151372 -0.000517666 -0.0640883)
(0.00152294 -0.000524413 -0.0628293)
(0.00153076 -0.00053198 -0.0611348)
(0.0015357 -0.000540521 -0.05891)
(0.00153632 -0.000550656 -0.0560558)
(0.00152871 -0.000562818 -0.0524735)
(0.00151433 -0.000581685 -0.0480688)
(0.00136338 -0.000673363 -0.040324)
(0.00137857 -0.000683305 -0.0409227)
(0.00139346 -0.00069396 -0.0413814)
(0.00140739 -0.000705461 -0.0416158)
(0.00141863 -0.000717766 -0.0415181)
(0.00142539 -0.000731492 -0.0409561)
(0.00142239 -0.000746577 -0.0397714)
(0.00141082 -0.000770154 -0.037778)
(0.00122644 -0.000819646 -0.0247146)
(0.00124447 -0.00083222 -0.025736)
(0.00126281 -0.000845472 -0.0267649)
(0.00128094 -0.000859469 -0.0277459)
(0.00129705 -0.000873874 -0.0285977)
(0.00130936 -0.000889178 -0.0292045)
(0.00131119 -0.000904479 -0.029403)
(0.00130474 -0.000928996 -0.0289644)
(0.00108418 -0.000949154 -0.0155281)
(0.00110394 -0.000962968 -0.0165516)
(0.00112463 -0.000977236 -0.0176594)
(0.00114593 -0.000991861 -0.0188278)
(0.00116631 -0.00100601 -0.0200126)
(0.0011839 -0.00101915 -0.0211373)
(0.00119242 -0.00102953 -0.0220687)
(0.0011886 -0.00103928 -0.0225507)
(0.000229583 0.000200965 -0.0156139)
(0.000233826 0.00020389 -0.0166848)
(0.000238287 0.000206919 -0.0178477)
(0.000242881 0.000210018 -0.0190796)
(0.000247298 0.000213019 -0.0203369)
(0.000251126 0.000215804 -0.0215429)
(0.000253071 0.000218 -0.0225624)
(0.000252354 0.000220108 -0.0231332)
(0.000259894 0.000173678 -0.0248478)
(0.000263769 0.000176353 -0.02592)
(0.000267729 0.000179179 -0.0270073)
(0.000271643 0.000182158 -0.0280554)
(0.000275149 0.00018523 -0.0289838)
(0.000277837 0.000188476 -0.0296769)
(0.000278366 0.000191743 -0.0299716)
(0.000277073 0.000196898 -0.0296373)
(0.000289174 0.000142814 -0.0405435)
(0.000292455 0.000144939 -0.0411947)