/*--------------------------------*- C++ -*----------------------------------*\
| =========                 |                                                 |
| \\      /  F ield         | foam-extend: Open Source CFD                    |
|  \\    /   O peration     | Version:  3.0                                   |
|   \\  /    A nd           | Web:         http://www.extend-project.de       |
|    \\/     M anipulation  |                                                 |
\*---------------------------------------------------------------------------*/
FoamFile
{
    version     2.0;
    format      ascii;
    class       volSymmTensorField;
    location    "11";
    object      sigma;
}
// * * * * * * * * * * * * * * * * * * * * * * * * * * * * * * * * * * * * * //

dimensions      [0 0 0 0 0 0 0];

internalField   nonuniform List<symmTensor> 
480
(
(-0.164785 -0.0122286 2.29948e-20 0.164527 -3.63772e-21 0.000257947)
(-0.147804 -0.0138054 1.03803e-19 0.147173 -3.31949e-20 0.0006307)
(-0.125782 -0.0131952 1.03601e-19 0.124852 1.72275e-19 0.000929962)
(-0.104145 -0.011895 -7.02706e-20 0.102983 1.19202e-19 0.00116188)
(-0.0845494 -0.0104588 1.15531e-19 0.0832264 -1.99062e-19 0.00132307)
(-0.067385 -0.00912026 3.92872e-19 0.0659862 -8.53473e-20 0.00139883)
(-0.0526893 -0.0079678 3.84641e-19 0.0513185 -1.81656e-19 0.00137077)
(-0.0405929 -0.00708389 4.46175e-20 0.0393831 -4.58463e-20 0.00120985)
(-0.0311408 -0.00649418 4.73126e-19 0.0302544 -7.07406e-19 0.000886361)
(-0.0248613 -0.00635883 5.2356e-20 0.0245013 -1.78196e-19 0.00036002)
(-0.160455 -0.0362198 1.08457e-21 0.160205 -1.28107e-20 0.000249735)
(-0.141054 -0.0402948 1.55654e-19 0.140443 -1.13045e-19 0.000610585)
(-0.118578 -0.0382203 3.44785e-19 0.117677 -1.84389e-19 0.000900196)
(-0.0972101 -0.03422 -2.16104e-20 0.0960856 -1.61522e-19 0.00112454)
(-0.0781299 -0.0298511 -2.10792e-19 0.0768496 -1.94574e-19 0.00128031)
(-0.0615136 -0.025761 2.16806e-19 0.0601602 -1.89405e-20 0.00135335)
(-0.0473163 -0.0221879 3.25818e-19 0.0459905 -2.22413e-19 0.00132584)
(-0.0355982 -0.0193517 8.4846e-20 0.0344284 -1.78598e-19 0.00116982)
(-0.0263914 -0.0173086 -5.28588e-19 0.0255347 -4.9919e-19 0.000856698)
(-0.0201425 -0.0163864 1.36039e-19 0.0197947 2.83444e-19 0.000347785)
(-0.152086 -0.0587133 -5.13403e-20 0.151849 -4.54755e-20 0.000236968)
(-0.128308 -0.0636907 -4.56872e-21 0.127729 -2.44689e-19 0.000579346)
(-0.105069 -0.0597238 1.85895e-20 0.104215 -2.1266e-19 0.000854046)
(-0.0842639 -0.0530404 -1.42172e-19 0.0831972 -2.33318e-20 0.00106671)
(-0.0661936 -0.045921 -1.87334e-19 0.0649794 3.44582e-19 0.0012142)
(-0.0506437 -0.0392995 3.64719e-19 0.0493606 1.32225e-19 0.0012831)
(-0.0374197 -0.0335141 9.40448e-20 0.0361631 -3.80371e-20 0.00125659)
(-0.0264534 -0.0288804 -1.68467e-19 0.0253451 -1.25032e-19 0.00110828)
(-0.017755 -0.0254794 -1.42721e-19 0.0169438 5.97725e-19 0.000811246)
(-0.0116381 -0.0237632 6.40921e-19 0.011309 -4.69378e-19 0.000329119)
(-0.140267 -0.0788892 -1.59442e-19 0.140047 -1.32243e-20 0.000220011)
(-0.110984 -0.0823974 -4.16025e-19 0.110446 2.26153e-19 0.000537822)
(-0.0869138 -0.0759113 2.42696e-20 0.0861212 3.23773e-19 0.000792668)
(-0.066977 -0.0665824 2.33554e-19 0.0659872 2.83187e-19 0.000989768)
(-0.0503382 -0.0569966 8.90152e-20 0.049212 3.99214e-19 0.00112622)
(-0.0362788 -0.0481832 1.42343e-19 0.0350892 -1.06934e-19 0.00118961)
(-0.024411 -0.0405071 2.62502e-19 0.0232465 -8.49248e-20 0.00116446)
(-0.0145025 -0.0343169 3.61078e-19 0.0134761 -1.268e-20 0.00102644)
(-0.00653343 -0.0297103 2.06496e-19 0.00578261 -6.11864e-19 0.000750823)
(-0.000656118 -0.0272038 -8.87949e-19 0.000351796 9.51092e-20 0.000304321)
(-0.125776 -0.0961739 3.31334e-20 0.125576 -1.79851e-20 0.000199167)
(-0.0909401 -0.0954504 -3.31637e-19 0.0904533 5.49887e-19 0.000486785)
(-0.0662841 -0.0857336 -2.52636e-19 0.0655668 5.87951e-19 0.000717233)
(-0.047539 -0.0738268 -2.20593e-20 0.0466438 4.00509e-19 0.000895209)
(-0.0326572 -0.0621287 4.16422e-19 0.0316391 -1.30238e-19 0.00101811)
(-0.0203872 -0.0515407 4.0999e-20 0.0193124 -5.38587e-19 0.00107479)
(-0.0101372 -0.0423677 4.83286e-19 0.00908585 -8.82163e-19 0.00105135)
(-0.00150262 -0.0349187 -2.50627e-19 0.00057658 -7.41699e-19 0.000926038)
(0.0055721 -0.0292964 -1.92382e-19 -0.00624888 -6.9604e-19 0.000676777)
(0.0110973 -0.0260179 5.25656e-19 -0.0113712 3.11966e-19 0.000273994)
(-0.109478 -0.110285 6.94471e-20 0.109303 1.64741e-19 0.000174852)
(-0.0702114 -0.102631 3.4886e-19 0.0697842 3.76181e-19 0.000427243)
(-0.0455495 -0.0890221 3.21206e-19 0.0449203 3.0015e-19 0.000629236)
(-0.0283343 -0.0746455 2.03569e-19 0.0275493 -6.51369e-20 0.000784918)
(-0.0154279 -0.0612231 -5.71928e-20 0.0145359 -7.41562e-19 0.000892054)
(-0.00510848 -0.049307 -5.40583e-19 0.00416754 -1.08761e-18 0.000940947)
(0.00339509 -0.0390553 -1.13125e-18 -0.00431466 -5.42578e-19 0.00091957)
(0.010639 -0.0306661 9.87763e-20 -0.0114481 -4.74434e-19 0.000809119)
(0.0167155 -0.0242337 -1.10691e-18 -0.0173061 -2.8202e-19 0.000590606)
(0.0217737 -0.0202183 4.93817e-19 -0.0220124 -3.86186e-19 0.000238733)
(-0.092215 -0.121233 -3.77569e-20 0.0920674 2.30705e-19 0.000147526)
(-0.0507112 -0.104469 5.92694e-19 0.0503509 4.63965e-20 0.000360346)
(-0.0269277 -0.0864917 8.19655e-19 0.0263973 -2.81674e-19 0.000530395)
(-0.0115893 -0.0698056 6.42374e-19 0.0109282 -7.54741e-19 0.000661079)
(-0.000773892 -0.0550443 -3.93658e-19 2.3322e-05 -8.96666e-19 0.00075057)
(0.00756477 -0.0422263 -1.00704e-18 -0.00835557 -5.54821e-19 0.000790801)
(0.0143197 -0.0312907 -1.23138e-18 -0.0150915 2.18133e-19 0.000771828)
(0.0201506 -0.0222654 -6.8446e-19 -0.0208288 -3.68219e-19 0.000678135)
(0.0251829 -0.0152227 -1.58181e-18 -0.0256771 3.12889e-19 0.000494158)
(0.029661 -0.0105249 2.38738e-19 -0.0298603 -1.26894e-19 0.000199318)
(-0.0747017 -0.129278 9.6201e-20 0.074584 -1.58551e-20 0.000117722)
(-0.0339618 -0.102132 2.72294e-19 0.0336744 -2.0835e-19 0.000287389)
(-0.0121633 -0.0796112 1.96392e-19 0.0117407 -3.96187e-19 0.000422631)
(0.000953874 -0.0608375 -1.09128e-19 -0.00147999 -4.93757e-19 0.000526111)
(0.00964932 -0.0450895 -6.52992e-19 -0.0102458 -2.36582e-19 0.000596448)
(0.0160841 -0.0317345 -6.4497e-19 -0.0167114 4.57111e-20 0.000627336)
(0.0211901 -0.0204454 -5.1827e-19 -0.0218012 1.50825e-19 0.000611084)
(0.0256628 -0.0110439 -5.66595e-19 -0.0261986 1.71163e-19 0.000535727)
(0.0296519 -0.00356673 -3.25021e-19 -0.0300413 -8.04336e-20 0.000389384)
(0.0334426 0.00173874 -1.107e-18 -0.0335992 1.39089e-19 0.000156542)
(-0.0574498 -0.134854 -2.89184e-20 0.0573638 -6.58502e-20 8.59921e-05)
(-0.0208875 -0.0972225 -2.53475e-19 0.0206778 -1.52223e-19 0.000209743)
(-0.00228053 -0.0703607 -4.7355e-19 0.00197254 -1.04471e-19 0.000307988)
(0.00828892 -0.0497897 -3.99701e-19 -0.00867152 4.62444e-20 0.000382604)
(0.0148961 -0.0333527 -1.74238e-20 -0.0153288 3.16958e-20 0.000432673)
(0.0195738 -0.019736 -3.93703e-19 -0.0200275 2.96407e-20 0.000453754)
(0.0231958 -0.00833303 -3.31429e-19 -0.0236363 6.33169e-20 0.000440524)
(0.0264154 0.00124966 -3.17114e-19 -0.0268001 1.92606e-19 0.000384749)
(0.0293924 0.00901978 -5.94347e-20 -0.0296708 -8.13371e-20 0.000278411)
(0.0323999 0.0148385 -5.71167e-19 -0.0325112 3.16253e-19 0.000111289)
(-0.040729 -0.138473 -4.76219e-20 0.0406761 -4.75196e-20 5.29276e-05)
(-0.0117023 -0.0915103 -1.33946e-19 0.0115734 -1.63129e-19 0.000128854)
(0.00255144 -0.0609142 -6.77334e-19 -0.00274005 -3.04464e-20 0.000188609)
(0.0102835 -0.0389054 -6.18568e-19 -0.0105167 1.45717e-19 0.000233258)
(0.0148647 -0.0220149 -4.18231e-19 -0.0151271 1.99802e-19 0.000262353)
(0.0179585 -0.00831138 -4.58746e-20 -0.0182319 1.35405e-19 0.000273378)
(0.0202831 0.00306752 -3.33454e-19 -0.0205466 1.40434e-19 0.000263444)
(0.0223732 0.0127085 -9.87651e-22 -0.0226013 3.38462e-19 0.000228144)
(0.0243816 0.0206679 5.59409e-19 -0.024545 3.26566e-20 0.000163421)
(0.0265255 0.0268871 -1.08796e-19 -0.02659 -2.05934e-20 6.44529e-05)
(-0.024569 -0.14062 -5.46825e-20 0.0245499 -3.09407e-20 1.91237e-05)
(-0.00590874 -0.0866452 -9.46915e-20 0.00586255 -1.07896e-19 4.61919e-05)
(0.00302122 -0.0532956 -3.56284e-19 -0.0030879 -1.26534e-20 6.66809e-05)
(0.00768307 -0.0302722 -2.5834e-19 -0.0077639 1.17845e-19 8.08308e-05)
(0.0103019 -0.0131058 -2.64893e-19 -0.0103906 1.20316e-19 8.86605e-05)
(0.0119685 0.000602996 -4.32621e-19 -0.0120581 9.61401e-20 8.95964e-05)
(0.0131614 0.0119134 -4.02805e-19 -0.0132446 1.84868e-19 8.3195e-05)
(0.0142334 0.0215567 -1.00712e-19 -0.0143023 3.03514e-19 6.89037e-05)
(0.0153115 0.0296346 4.15753e-19 -0.0153581 5.56301e-20 4.66284e-05)
(0.0165324 0.0361264 -3.78697e-20 -0.0165493 -2.14833e-20 1.69444e-05)
(-0.00880202 -0.14166 -7.49015e-20 0.00881683 -1.58555e-20 -1.48158e-05)
(-0.00240811 -0.0838924 -1.35661e-19 0.00244488 -7.32163e-20 -3.67633e-05)
(0.000545965 -0.0490602 -2.77967e-19 -0.00049036 -1.2486e-20 -5.5605e-05)
(0.00198049 -0.0254972 -3.68843e-19 -0.00190857 1.11787e-19 -7.19244e-05)
(0.00267846 -0.00819023 -3.582e-19 -0.00259321 1.06308e-19 -8.52508e-05)
(0.00302242 0.00551255 -3.38512e-19 -0.00292818 8.9093e-20 -9.4233e-05)
(0.00319343 0.0167803 -1.58571e-19 -0.00309652 1.66338e-19 -9.69052e-05)
(0.0033213 0.0264196 -1.01454e-19 -0.00323127 2.65181e-19 -9.00242e-05)
(0.00348992 0.0345674 2.97287e-19 -0.00342013 1.02221e-19 -6.97885e-05)
(0.00375258 0.0411936 1.55986e-19 -0.00372224 -2.79825e-20 -3.03448e-05)
(0.00686405 -0.141776 -7.20519e-20 -0.00681576 -4.4165e-21 -4.82979e-05)
(0.000297454 -0.0839313 -2.01092e-19 -0.000178897 -6.02152e-20 -0.000118556)
(-0.00297006 -0.0490517 -1.67665e-19 0.00314615 -2.18836e-20 -0.000176096)
(-0.00482944 -0.0254566 -3.08244e-19 0.00505175 1.08211e-19 -0.000222307)
(-0.00604658 -0.00812507 -4.09512e-19 0.00630287 1.05557e-19 -0.000256293)
(-0.00699501 0.00559546 -2.91802e-19 0.00726985 6.86945e-20 -0.000274833)
(-0.00781396 0.0168814 -1.18135e-20 0.00808759 1.17076e-19 -0.000273634)
(-0.00860955 0.0265352 -1.53521e-19 0.00885533 2.15115e-19 -0.000245783)
(-0.00935328 0.0347113 8.55792e-20 0.009537 8.99267e-20 -0.000183729)
(-0.0100575 0.041329 1.78664e-19 0.0101341 -2.94999e-20 -7.65564e-05)
(0.0227526 -0.140935 -8.60831e-20 -0.0226718 1.03515e-20 -8.07493e-05)
(0.00384119 -0.0867492 -2.40257e-19 -0.0036434 -5.07596e-20 -0.000197785)
(-0.00545156 -0.0532699 -1.50924e-20 0.00574428 -3.80874e-20 -0.000292724)
(-0.0105724 -0.0301593 -3.6098e-20 0.0109401 1.04002e-19 -0.000367734)
(-0.013737 -0.0129262 -5.13671e-19 0.0141585 9.67364e-20 -0.000421527)
(-0.0160277 0.000830733 -3.19308e-19 0.0164768 5.38582e-20 -0.000449098)
(-0.0178883 0.0121904 -2.32497e-19 0.0183323 4.63334e-20 -0.000443947)
(-0.0196438 0.0218728 2.02969e-19 0.0200394 1.63889e-19 -0.000395689)
(-0.0213257 0.030028 -3.94782e-19 0.0216189 6.80504e-20 -0.000293228)
(-0.0229787 0.0364961 7.31247e-20 0.0230996 -1.04548e-20 -0.000120895)
(0.0391225 -0.138897 -3.34442e-20 -0.0390109 4.41148e-20 -0.000111624)
(0.00970789 -0.0916443 -2.70309e-19 -0.00943477 -1.34351e-20 -0.00027312)
(-0.00499453 -0.0608716 -3.76566e-19 0.00539807 -8.78305e-20 -0.000403534)
(-0.0132449 -0.0387445 -2.73982e-19 0.0137507 1.32002e-20 -0.000505772)
(-0.0184181 -0.021764 -3.87375e-19 0.0189963 6.82437e-20 -0.000578189)
(-0.0221701 -0.00799622 -9.91466e-20 0.0227842 6.23533e-20 -0.000614118)
(-0.0251966 0.00344865 -1.70699e-19 0.0258016 5.57797e-20 -0.000605008)
(-0.027997 0.0131418 -4.487e-20 0.0285342 6.40728e-20 -0.000537247)
(-0.0306585 0.0212054 -1.85683e-19 0.0310549 -5.82439e-20 -0.000396466)
(-0.0332172 0.0273906 3.66645e-19 0.0333798 1.5611e-20 -0.000162622)
(0.0560845 -0.135263 -4.11316e-20 -0.055944 5.41476e-20 -0.000140419)
(0.0189739 -0.0973391 -4.41831e-19 -0.0186306 -5.09562e-20 -0.000343334)
(-0.000182141 -0.0703018 -1.30319e-19 0.000688871 -1.05359e-19 -0.00050673)
(-0.011339 -0.0496149 1.20822e-19 0.0119732 -1.50259e-20 -0.000634192)
(-0.0185918 -0.0330904 1.53476e-19 0.0193156 2.08551e-19 -0.000723768)
(-0.023967 -0.0194122 -2.72715e-19 0.0247342 1.67952e-19 -0.000767263)
(-0.0283302 -0.00794596 -2.83335e-19 0.0290844 -8.8325e-20 -0.000754267)
(-0.0322904 0.00168605 1.52145e-20 0.0329586 -1.12508e-19 -0.000668233)
(-0.0359765 0.00955802 4.09456e-20 0.0364683 1.37766e-20 -0.000491834)
(-0.0393762 0.0153397 -6.88936e-19 0.0395773 8.17164e-20 -0.000201097)
(0.0735423 -0.129547 5.016e-20 -0.0733756 -3.22774e-20 -0.000166672)
(0.0321108 -0.102185 2.22577e-19 -0.0317035 9.84357e-20 -0.000407311)
(0.00967426 -0.0795379 1.66071e-19 -0.00907358 1.15796e-19 -0.00060068)
(-0.00409123 -0.0606838 4.44916e-20 0.00484221 1.01733e-19 -0.000750984)
(-0.0134792 -0.0448766 5.66098e-20 0.0143352 1.78615e-19 -0.000856003)
(-0.0206456 -0.0314816 -5.46996e-19 0.0215518 2.25531e-19 -0.000906179)
(-0.0265265 -0.0201511 -7.71919e-19 0.027416 -3.00707e-19 -0.000889449)
(-0.0317651 -0.0107183 -4.22508e-19 0.0325517 1.85623e-19 -0.000786671)
(-0.0365095 -0.00317073 -1.41613e-18 0.0370874 -5.9839e-19 -0.000577904)
(-0.0406685 0.00210317 9.02637e-19 0.0409042 1.95594e-20 -0.000235744)
(0.0911686 -0.121271 -1.06018e-19 -0.0909786 -2.93663e-19 -0.000189979)
(0.0488828 -0.104425 4.92176e-19 -0.0484187 -1.27184e-19 -0.00046407)
(0.0244061 -0.0864074 5.40835e-19 -0.0237222 6.3748e-20 -0.00068396)
(0.0083823 -0.0697006 3.77557e-19 -0.0075279 3.68859e-19 -0.000854398)
(-0.00315384 -0.0549271 -4.75004e-19 0.00412678 3.33839e-19 -0.000972942)
(-0.0122442 -0.0421039 -8.40077e-19 0.013273 5.06557e-19 -0.00102885)
(-0.0197929 -0.031162 -1.48514e-18 0.0208015 -3.05915e-21 -0.00100863)
(-0.0264022 -0.0221339 -1.71581e-19 0.0272931 -6.92028e-20 -0.000890903)
(-0.0322133 -0.0150723 -1.17646e-18 0.0328668 2.54432e-19 -0.000653499)
(-0.0370374 -0.0103924 -4.19065e-19 0.0373035 -6.29332e-19 -0.000266106)
(0.108417 -0.110059 -3.21272e-20 -0.108208 -1.89939e-19 -0.000209986)
(0.0683534 -0.102481 2.87141e-20 -0.0678407 -4.15125e-19 -0.000512762)
(0.0429907 -0.0889316 -5.14835e-20 -0.0422354 -4.86178e-19 -0.000755343)
(0.025086 -0.0746031 -1.11916e-19 -0.0241431 -1.70086e-19 -0.000942935)
(0.0114565 -0.0612216 -5.50249e-19 -0.0103836 2.91777e-19 -0.00107292)
(0.000384566 -0.0493392 -4.51377e-19 0.000748998 4.42263e-19 -0.00113356)
(-0.00891202 -0.0391203 1.52683e-19 0.0100222 7.61422e-19 -0.00111018)
(-0.0169305 -0.0307589 -3.7729e-19 0.0179101 4.46153e-19 -0.000979541)
(-0.0237786 -0.0243649 -4.35713e-19 0.0244963 1.04169e-18 -0.000717633)
(-0.0291667 -0.0203468 -5.0764e-19 0.0294585 -6.28069e-19 -0.00029179)
(0.124574 -0.0957149 -1.12603e-20 -0.124347 2.85455e-20 -0.000226403)
(0.089002 -0.0952112 -5.06233e-19 -0.0884493 -2.99994e-19 -0.000552693)
(0.063686 -0.0856428 -8.17833e-19 -0.0628722 -6.22936e-19 -0.000813827)
(0.0442805 -0.0738438 -5.62574e-19 -0.0432651 -5.24054e-19 -0.00101539)
(0.0286988 -0.062232 8.45287e-20 -0.0275442 1.64791e-19 -0.00115462)
(0.0156943 -0.0517102 4.81727e-19 -0.0144753 3.48319e-19 -0.00121897)
(0.00467132 -0.042602 5.76498e-19 -0.00347848 4.54373e-19 -0.00119284)
(-0.00471877 -0.0352046 4.01521e-19 0.00577029 3.60859e-19 -0.00105152)
(-0.0125286 -0.0296671 4.57389e-19 0.0132982 1.19043e-18 -0.000769572)
(-0.018376 -0.0263618 -9.80326e-19 0.0186885 1.06601e-19 -0.000312521)
(0.138828 -0.0782891 -1.45615e-19 -0.138589 3.84976e-20 -0.000238998)
(0.10893 -0.0821093 -5.26177e-19 -0.108346 1.03744e-19 -0.000583308)
(0.0842772 -0.0758262 -5.8269e-19 -0.0834186 -1.32279e-19 -0.000858621)
(0.0637336 -0.0666405 1.54774e-19 -0.0626628 -2.20911e-19 -0.00107079)
(0.0464369 -0.0571665 7.67791e-19 -0.04522 8.03071e-22 -0.00121698)
(0.0316742 -0.0484361 3.39119e-19 -0.0303902 2.7049e-19 -0.00128403)
(0.0190666 -0.0408407 2.83753e-19 -0.0178109 7.27905e-21 -0.00125564)
(0.00843165 -0.0347118 6.49348e-19 -0.00732562 2.37056e-19 -0.00110603)
(-0.000216057 -0.0302116 3.54283e-19 0.00102482 4.70842e-19 -0.000808759)
(-0.006418 -0.0276552 2.67609e-19 0.00674608 6.93681e-19 -0.000328085)
(0.150373 -0.0580981 -2.40233e-20 -0.150125 1.168e-19 -0.000247603)
(0.126127 -0.0634061 -1.53631e-19 -0.125523 4.51063e-19 -0.000604211)
(0.102398 -0.0596494 -3.00587e-19 -0.101509 4.92084e-19 -0.00088916)
(0.0810487 -0.0531107 1.17395e-19 -0.0799403 2.56991e-19 -0.00110849)
(0.0623688 -0.0461019 2.60045e-19 -0.0611095 -2.19398e-19 -0.00125929)
(0.0461507 -0.03956 4.55807e-19 -0.0448226 -2.32477e-19 -0.00132802)
(0.0322234 -0.0338501 2.44416e-19 -0.0309255 -2.05107e-19 -0.00129792)
(0.0205611 -0.0292698 1.09054e-18 -0.0194185 -2.97115e-19 -0.00114256)
(0.0112453 -0.0259647 9.14279e-19 -0.0104104 9.89349e-20 -0.000834854)
(0.0047924 -0.0241803 -7.99907e-20 -0.00445404 2.16749e-19 -0.000338366)
(0.158495 -0.0357172 2.21581e-20 -0.158243 8.32146e-20 -0.000252109)
(0.138762 -0.0400651 1.71804e-20 -0.138147 2.41613e-19 -0.000615141)
(0.115878 -0.0381593 7.61642e-20 -0.114972 4.82202e-19 -0.000905081)
(0.0940208 -0.0342714 2.80734e-19 -0.0928927 2.87445e-19 -0.00112805)
(0.0743717 -0.0299853 1.10447e-19 -0.0730906 1.13904e-19 -0.0012811)
(0.0571152 -0.0259516 -1.36901e-19 -0.0557647 -1.2165e-19 -0.00135051)
(0.0422437 -0.0224284 2.17724e-19 -0.0409244 2.19414e-20 -0.00131931)
(0.029852 -0.0196213 6.35213e-19 -0.0286912 -3.36483e-19 -0.0011608)
(0.0200764 -0.0176327 5.39015e-19 -0.0192287 -3.81996e-19 -0.000847667)
(0.0134738 -0.0166322 6.78353e-20 -0.0131305 9.38509e-20 -0.000343292)
(0.162668 -0.0119345 2.96507e-20 -0.162415 3.07432e-20 -0.000252469)
(0.145441 -0.0136671 5.63124e-20 -0.144825 4.74553e-20 -0.000615995)
(0.123061 -0.0131471 2.50562e-20 -0.122154 2.29677e-19 -0.000906241)
(0.100965 -0.0119022 3.20742e-20 -0.0998358 1.08106e-20 -0.00112931)
(0.0808215 -0.0105019 1.60097e-19 -0.0795392 -9.23277e-20 -0.00128226)
(0.0630294 -0.00918279 2.77157e-19 -0.061678 1.30246e-19 -0.00135137)
(0.0476713 -0.0080408 3.91603e-19 -0.0463516 2.2079e-19 -0.00131972)
(0.0349083 -0.00715082 4.32127e-19 -0.0337476 -1.2247e-19 -0.00116071)
(0.0249084 -0.00655315 6.05715e-19 -0.0240612 -2.66499e-19 -0.000847186)
(0.0182546 -0.00633898 6.6763e-20 -0.0179118 1.63215e-19 -0.000342875)
(0.162612 0.0123217 2.35575e-20 -0.162363 -3.45956e-21 -0.000248692)
(0.145415 0.0137953 1.05764e-19 -0.144809 -3.32898e-20 -0.000606798)
(0.123053 0.0130987 1.04932e-19 -0.12216 1.74291e-19 -0.00089269)
(0.10097 0.0117079 -7.02986e-20 -0.0998577 1.19985e-19 -0.00111234)
(0.0808381 0.0101686 1.19407e-19 -0.0795753 -2.04207e-19 -0.00126287)
(0.0630583 0.00870422 4.0211e-19 -0.0617276 -8.81104e-20 -0.00133072)
(0.047715 0.00740036 3.89495e-19 -0.0464157 -1.84984e-19 -0.00129928)
(0.0349703 0.00632654 4.65199e-20 -0.0338279 -4.70358e-20 -0.00114241)
(0.024995 0.00551212 4.85841e-19 -0.0241615 -7.31818e-19 -0.000833525)
(0.0183864 0.00494587 4.6531e-20 -0.0180492 -1.84139e-19 -0.000337164)
(0.158332 0.0360759 1.42116e-21 -0.158091 -1.32284e-20 -0.00024085)
(0.138685 0.0401855 1.58132e-19 -0.138098 -1.14463e-19 -0.000587722)
(0.115853 0.0381151 3.47169e-19 -0.114988 -1.85789e-19 -0.000864679)
(0.0940334 0.0340901 -2.43786e-20 -0.092956 -1.63573e-19 -0.00107748)
(0.0744184 0.0296723 -2.11347e-19 -0.0731951 -2.00017e-19 -0.00122329)
(0.0571979 0.0255008 2.21561e-19 -0.055909 -2.1328e-20 -0.00128896)
(0.0423696 0.0218241 3.33627e-19 -0.0411113 -2.29922e-19 -0.00125838)
(0.0300316 0.0188428 7.40498e-20 -0.0289254 -1.82717e-19 -0.00110627)
(0.0203283 0.0166502 -5.35509e-19 -0.0195214 -5.2359e-19 -0.000806954)
(0.013859 0.0153176 1.42072e-19 -0.0135327 2.89167e-19 -0.000326276)
(0.150115 0.0584033 -5.14949e-20 -0.149886 -4.61942e-20 -0.000229064)
(0.126003 0.0635116 -3.32625e-21 -0.125444 -2.47515e-19 -0.000559065)
(0.102354 0.0596129 2.05553e-20 -0.101531 -2.16444e-19 -0.000822642)
(0.081063 0.0529533 -1.43203e-19 -0.0800378 -2.55046e-20 -0.00102524)
(0.0624366 0.0458272 -1.86882e-19 -0.0612725 3.48017e-19 -0.00116411)
(0.0462754 0.0391616 3.67014e-19 -0.0450487 1.34601e-19 -0.0012267)
(0.0324167 0.0333145 9.19357e-20 -0.0312191 -4.02863e-20 -0.00119763)
(0.0208402 0.0285786 -1.79377e-19 -0.0197874 -1.33411e-19 -0.00105282)
(0.0116394 0.0250942 -1.38987e-19 -0.0108716 6.07512e-19 -0.000767853)
(0.00540201 0.0230172 6.38067e-19 -0.00509165 -4.71475e-19 -0.000310361)
(0.138496 0.0785216 -1.60044e-19 -0.138282 -1.38795e-20 -0.000213516)
(0.108763 0.0821935 -4.14625e-19 -0.108242 2.24399e-19 -0.000521261)
(0.0842099 0.0757992 2.70699e-20 -0.0834427 3.24468e-19 -0.000767207)
(0.0637404 0.0665149 2.35232e-19 -0.062784 2.85792e-19 -0.000956395)
(0.0465121 0.0569435 8.70771e-20 -0.0454259 4.04936e-19 -0.0010862)
(0.0318231 0.0481095 1.40879e-19 -0.0306783 -1.09113e-19 -0.00114483)
(0.0193047 0.0403999 2.62017e-19 -0.0181868 -8.75963e-20 -0.00111786)
(0.0087823 0.0341422 3.58761e-19 -0.00779954 -1.52541e-20 -0.000982761)
(0.00028474 0.0294971 1.86947e-19 0.000432 -6.20129e-19 -0.00071674)
(-0.00563009 0.0267065 -8.7929e-19 0.00591971 8.01262e-20 -0.000289629)
(0.12419 0.095863 3.25903e-20 -0.123996 -1.77318e-20 -0.000194436)
(0.0887986 0.0952692 -3.31784e-19 -0.0883238 5.51255e-19 -0.000474863)
(0.0635918 0.0856248 -2.5135e-19 -0.0628926 5.89128e-19 -0.000699174)
(0.0442692 0.0737537 -1.91638e-20 -0.0433973 4.00604e-19 -0.00087192)
(0.0287653 0.0620685 4.17533e-19 -0.0277746 -1.31832e-19 -0.000990626)
(0.0158458 0.0514676 3.91793e-20 -0.0148014 -5.46111e-19 -0.00104444)
(0.00492641 0.0422736 4.8403e-19 -0.00390629 -8.9385e-19 -0.00102012)
(-0.00433139 0.0347806 -2.63353e-19 0.00522839 -7.59326e-19 -0.000897002)
(-0.0119657 0.0291404 -1.75477e-19 0.01262 -7.21387e-19 -0.000654247)
(-0.0174696 0.0256759 5.15833e-19 0.0177339 3.28391e-19 -0.000264326)
(0.108007 0.110118 7.04669e-20 -0.107835 1.64078e-19 -0.00017211)
(0.0681201 0.102509 3.49218e-19 -0.0676995 3.77467e-19 -0.000420553)
(0.0428663 0.0889202 3.22163e-19 -0.0422468 3.00626e-19 -0.000619525)
(0.0250463 0.0745476 2.04711e-19 -0.0242733 -6.70021e-20 -0.000773008)
(0.0114976 0.0611189 -5.57599e-20 -0.0106189 -7.48547e-19 -0.00087871)
(0.000516018 0.0491851 -5.43748e-19 0.00041088 -1.09877e-18 -0.000926897)
(-0.00866976 0.0389122 -1.1278e-18 0.00957545 -5.55657e-19 -0.00090569)
(-0.0165447 0.0304933 9.2871e-20 0.0173414 -4.80139e-19 -0.000796628)
(-0.023203 0.024044 -1.10979e-18 0.0237842 -2.81274e-19 -0.000581141)
(-0.028211 0.0199549 4.97821e-19 0.0284457 -3.88208e-19 -0.000234756)
(0.0907548 0.121245 -3.64313e-20 -0.0906079 2.29833e-19 -0.000146868)
(0.0486265 0.10442 5.93733e-19 -0.0482674 4.63349e-20 -0.00035913)
(0.0242494 0.0863981 8.20369e-19 -0.02372 -2.82353e-19 -0.000529411)
(0.00830533 0.0696751 6.43174e-19 -0.00764427 -7.57491e-19 -0.000661061)
(-0.00315292 0.054881 -3.90544e-19 0.00390493 -9.03092e-19 -0.000752003)
(-0.0121542 0.0420355 -1.00434e-18 0.012948 -5.63245e-19 -0.000793776)
(-0.0195925 0.0310731 -1.23019e-18 0.0203686 2.15351e-19 -0.000776069)
(-0.0260565 0.0220284 -6.82925e-19 0.0267394 -3.70562e-19 -0.000682918)
(-0.0316752 0.0149613 -1.57546e-18 0.0321735 3.15217e-19 -0.000498325)
(-0.0361066 0.010307 2.26532e-19 0.0363079 -1.26276e-19 -0.000201269)
(0.0731443 0.129443 9.68609e-20 -0.0730252 -1.57699e-20 -0.000119092)
(0.0318392 0.102146 2.74291e-19 -0.0315477 -2.08426e-19 -0.000291507)
(0.00948538 0.0795249 1.98033e-19 -0.00905523 -3.9728e-19 -0.000430156)
(-0.00421131 0.0606803 -1.07308e-19 0.004749 -4.99251e-19 -0.000537692)
(-0.0135302 0.0448782 -6.46786e-19 0.0141425 -2.47585e-19 -0.000612292)
(-0.0206154 0.0314895 -6.39382e-19 0.0212624 3.56776e-20 -0.000646918)
(-0.0263941 0.020172 -5.14096e-19 0.0270271 1.46793e-19 -0.000633003)
(-0.0314954 0.0107639 -5.62177e-19 0.0320528 1.62699e-19 -0.000557364)
(-0.0360569 0.00326065 -3.2082e-19 0.0364637 -6.5793e-20 -0.000406856)
(-0.039837 -0.00188889 -1.10487e-18 0.0400013 1.28156e-19 -0.000164284)
(0.0557177 0.135091 -2.71712e-20 -0.0556285 -6.62225e-20 -8.92049e-05)
(0.0186947 0.0972661 -2.48813e-19 -0.018476 -1.53002e-19 -0.000218705)
(-0.00040077 0.0702785 -4.69414e-19 0.000724007 -1.07562e-19 -0.000323237)
(-0.0115046 0.0496236 -3.98041e-19 0.0119093 3.60091e-20 -0.000404711)
(-0.0187021 0.0331275 -1.69349e-20 0.0191637 2.04853e-20 -0.000461595)
(-0.0240102 0.0194823 -3.87272e-19 0.0244986 2.30383e-20 -0.0004884)
(-0.0282868 0.00806057 -3.28078e-19 0.0287653 5.87965e-20 -0.000478476)
(-0.032128 -0.00150737 -3.09477e-19 0.0325497 1.79427e-19 -0.00042167)
(-0.0356523 -0.00928753 -4.09632e-20 0.0359603 -8.4078e-20 -0.000307948)
(-0.0387143 -0.0148513 -5.54621e-19 0.0388386 3.03465e-19 -0.000124278)
(0.0387986 0.138671 -4.56363e-20 -0.0387409 -4.83301e-20 -5.76723e-05)
(0.00942924 0.0915367 -1.28758e-19 -0.0092874 -1.63763e-19 -0.000141847)
(-0.00523797 0.0608317 -6.69303e-19 0.00544826 -3.38024e-20 -0.000210288)
(-0.0134547 0.0387549 -6.12432e-19 0.0137188 1.37033e-19 -0.000264124)
(-0.0185908 0.0218227 -4.19116e-19 0.018893 1.89081e-19 -0.000302149)
(-0.0222954 0.00811117 -5.03134e-20 0.022616 1.29245e-19 -0.000320544)
(-0.025258 -0.00326137 -3.3612e-19 0.0255727 1.32906e-19 -0.000314711)
(-0.0279668 -0.0128556 -1.04278e-20 0.0282446 3.13024e-19 -0.000277757)
(-0.0304991 -0.0207849 5.53735e-19 0.0307021 2.85632e-20 -0.000202974)
(-0.0327866 -0.0266714 -1.03214e-19 0.0328684 -1.20878e-20 -8.17998e-05)
(0.0224798 0.140667 -5.31166e-20 -0.0224548 -3.19442e-20 -2.4994e-05)
(0.00357161 0.0866085 -9.12694e-20 -0.00350946 -1.09293e-19 -6.21436e-05)
(-0.00571265 0.0532083 -3.49832e-19 0.00580572 -1.6272e-20 -9.30732e-05)
(-0.0108217 0.0301614 -2.53962e-19 0.0109398 1.11889e-19 -0.000118108)
(-0.0139708 0.012992 -2.62878e-19 0.0141072 1.17079e-19 -0.000136401)
(-0.0162385 -0.000690088 -4.32483e-19 0.0163844 9.51218e-20 -0.000145892)
(-0.0180638 -0.0119551 -3.98907e-19 0.0182079 1.7655e-19 -0.000144163)
(-0.0197635 -0.0215106 -1.0792e-19 0.0198912 2.82282e-19 -0.000127753)
(-0.0213592 -0.0294965 4.01301e-19 0.0214527 4.80984e-20 -9.34681e-05)
(-0.0228288 -0.0356048 -3.16985e-20 0.0228663 -2.11422e-20 -3.74603e-05)
(0.0066478 0.14148 -7.38624e-20 -0.0066561 -1.6648e-20 8.30015e-06)
(4.56036e-05 0.0837606 -1.34025e-19 -6.47219e-05 -7.46312e-20 1.91183e-05)
(-0.00323994 0.0489648 -2.7423e-19 0.00321342 -1.44354e-20 2.65239e-05)
(-0.00511075 0.0254418 -3.67304e-19 0.00507975 1.0855e-19 3.10059e-05)
(-0.00633646 0.00818429 -3.58805e-19 0.00630344 1.01499e-19 3.30241e-05)
(-0.00728956 -0.00544889 -3.34323e-19 0.00725675 8.12794e-20 3.2805e-05)
(-0.00810659 -0.0166248 -1.51415e-19 0.00807608 1.5741e-19 3.05076e-05)
(-0.00888867 -0.0261329 -1.02519e-19 0.00886265 2.49673e-19 2.602e-05)
(-0.00959821 -0.0341152 2.85125e-19 0.00957932 8.8822e-20 1.88908e-05)
(-0.0102218 -0.040337 1.60284e-19 0.0102137 -2.03789e-20 8.06676e-06)
(-0.0089585 0.141348 -7.1646e-20 0.00891685 -4.91349e-21 4.16574e-05)
(-0.00263392 0.0836963 -2.00539e-19 0.00253333 -6.19671e-20 0.000100593)
(0.000277039 0.0489471 -1.65293e-19 -0.000423568 -2.33675e-20 0.000146528)
(0.00167661 0.0254589 -3.05904e-19 -0.00185738 1.07654e-19 0.000180763)
(0.00234076 0.00823045 -4.12581e-19 -0.00254411 1.01259e-19 0.000203343)
(0.00265025 -0.00537946 -2.93873e-19 -0.00286288 5.89612e-20 0.000212625)
(0.00278679 -0.0165303 -1.86031e-20 -0.00299325 1.11173e-19 0.000206452)
(0.00288197 -0.0260161 -1.54076e-19 -0.00306304 2.11852e-19 0.000181065)
(0.00302638 -0.0339586 5.65979e-20 -0.00315866 7.6431e-20 0.000132286)
(0.00325945 -0.040181 1.67184e-19 -0.0033135 -2.31262e-20 5.40479e-05)
(-0.0246649 0.140306 -8.62415e-20 0.0245904 1.00685e-20 7.45117e-05)
(-0.0061012 0.0864306 -2.41042e-19 0.0059203 -5.30345e-20 0.000180898)
(0.00276301 0.0531575 -1.7847e-20 -0.00302792 -4.0823e-20 0.000264904)
(0.00736723 0.0302061 -3.95896e-20 -0.00769585 1.06008e-19 0.000328622)
(0.00992704 0.0131165 -5.15559e-19 -0.0102987 9.74937e-20 0.000371666)
(0.0115291 -0.000501607 -3.1968e-19 -0.0119197 4.87338e-20 0.000390515)
(0.0126503 -0.0116978 -2.39317e-19 -0.013031 3.76419e-20 0.000380684)
(0.0136424 -0.0211918 1.92293e-19 -0.0139771 1.72482e-19 0.000334748)
(0.0146348 -0.0290687 -4.11232e-19 -0.0148796 7.62264e-20 0.000244792)
(0.0157163 -0.035178 8.00413e-20 -0.0158161 -1.66536e-20 9.97036e-05)
(-0.0407658 0.138171 -3.41815e-20 0.0406595 4.42597e-20 0.000106291)
(-0.011856 0.0912857 -2.72522e-19 0.0115973 -1.43804e-20 0.000258633)
(0.0023128 0.0607548 -3.78806e-19 -0.00269239 -8.91669e-20 0.000379583)
(0.00996657 0.0388096 -2.74513e-19 -0.0104386 1.46155e-20 0.000471993)
(0.0144653 0.0219875 -3.79956e-19 -0.0150003 6.85001e-20 0.000535035)
(0.0174663 0.00836467 -9.7418e-20 -0.0180296 5.85187e-20 0.000563338)
(0.0196836 -0.00291266 -1.72597e-19 -0.0202338 5.6745e-20 0.000550117)
(0.0216486 -0.0124213 -5.29069e-20 -0.022133 7.4828e-20 0.000484337)
(0.0235113 -0.0202005 -1.66293e-19 -0.0238657 -6.04998e-20 0.0003544)
(0.025414 -0.0260863 3.46519e-19 -0.0255582 1.11671e-20 0.000144214)
(-0.0574324 0.134576 -4.16561e-20 0.0572959 5.48582e-20 0.000136432)
(-0.0209997 0.0969979 -4.40848e-19 0.0206672 -5.08496e-20 0.000332413)
(-0.00249248 0.0701855 -1.28376e-19 0.00200397 -1.07372e-19 0.000488512)
(0.00798142 0.0496645 1.22152e-19 -0.00858972 -1.76419e-20 0.000608294)
(0.0144858 0.0332812 1.57349e-19 -0.0151763 2.08373e-19 0.00069049)
(0.0190462 0.0197274 -2.74877e-19 -0.0197741 1.67528e-19 0.000727939)
(0.0225299 0.00840356 -2.85412e-19 -0.0232416 -8.89385e-20 0.000711638)
(0.0255849 -0.00107593 1.02793e-20 -0.026212 -1.12969e-19 0.000627063)
(0.0283625 -0.00870354 2.06683e-20 -0.0288216 2.55805e-20 0.000459064)
(0.0310415 -0.014263 -6.8775e-19 -0.0312282 8.18754e-20 0.000186743)
(-0.0746379 0.129036 5.00549e-20 0.0744735 -3.18549e-20 0.000164383)
(-0.0340328 0.101917 2.24233e-19 0.0336319 9.89591e-20 0.000400885)
(-0.0123438 0.079427 1.67994e-19 0.0117542 1.15042e-19 0.000589682)
(0.000665218 0.0606849 4.53152e-20 -0.00140021 9.86649e-20 0.000734991)
(0.00924265 0.0449702 5.12476e-20 -0.0100778 1.73778e-19 0.000835115)
(0.0155414 0.0316534 -5.55038e-19 -0.0164226 2.25382e-19 0.000881205)
(0.0204854 0.0204125 -7.83917e-19 -0.0213476 -3.02017e-19 0.000862158)
(0.0247629 0.0110742 -4.40634e-19 -0.0255231 1.97813e-19 0.000760169)
(0.0285101 0.0036869 -1.4175e-18 -0.0290668 -5.99627e-19 0.000556742)
(0.0319054 -0.00145426 9.16235e-19 -0.0321319 2.909e-20 0.000226453)
(-0.092116 0.121037 -1.06131e-19 0.0919264 -2.941e-19 0.000189628)