/*--------------------------------*- C++ -*----------------------------------*\
| =========                 |                                                 |
| \\      /  F ield         | foam-extend: Open Source CFD                    |
|  \\    /   O peration     | Version:  3.0                                   |
|   \\  /    A nd           | Web:         http://www.extend-project.de       |
|    \\/     M anipulation  |                                                 |
\*---------------------------------------------------------------------------*/
FoamFile
{
    version     2.0;
    format      ascii;
    class       volScalarField;
    location    "27";
    object      p;
}
// * * * * * * * * * * * * * * * * * * * * * * * * * * * * * * * * * * * * * //

dimensions      [0 0 0 0 0 0 0];

internalField   nonuniform List<scalar> 
2688
(
-0.2368026058
-0.2174118388
-0.2057829852
-0.1926630156
-0.1852740404
-0.1761288394
-0.1714428299
-0.1649793016
-0.1620929577
-0.1575058518
-0.155833616
-0.1525755082
-0.1517002784
-0.1493650242
-0.1489589132
-0.1472159183
-0.14699324
-0.1455462908
-0.1452322224
-0.1437903736
-0.1430970129
-0.1413508589
-0.1399560126
-0.1375557079
-0.2360588033
-0.2167289307
-0.2051365157
-0.1920577308
-0.1846919475
-0.1755754474
-0.1709041739
-0.1644608994
-0.1615836229
-0.1570108833
-0.1553439112
-0.1520960021
-0.151223531
-0.14889558
-0.1484907459
-0.146753201
-0.1465312178
-0.1450887951
-0.1447757003
-0.1433383602
-0.1426471612
-0.1409064808
-0.139516009
-0.1371232438
-0.234569865
-0.2153619327
-0.2038427097
-0.1908464504
-0.1835271619
-0.1744681908
-0.1698263936
-0.1634237767
-0.1605646561
-0.1560207759
-0.1543643285
-0.1511369209
-0.1502699629
-0.1479567129
-0.1475544468
-0.1458278855
-0.1456073239
-0.1441740201
-0.1438629167
-0.1424346503
-0.1417478265
-0.1400181427
-0.1386364558
-0.1362587811
-0.2323452298
-0.213319452
-0.2019094598
-0.1890364259
-0.1817865483
-0.1728134618
-0.1682156995
-0.1618737634
-0.1590417612
-0.1545409326
-0.1529002035
-0.1497033679
-0.1488446401
-0.146553296
-0.1461548425
-0.144444627
-0.1442261466
-0.1428064147
-0.1424982495
-0.1410835152
-0.140403195
-0.1386899076
-0.1373213171
-0.1349661926
-0.2293872142
-0.2106036849
-0.1993389992
-0.1866298775
-0.1794723297
-0.170613506
-0.1660743003
-0.1598131234
-0.1570171887
-0.1525736777
-0.1509538502
-0.1477977303
-0.1469499482
-0.1446877922
-0.1442944257
-0.1426060022
-0.1423903219
-0.1409886833
-0.1406844628
-0.1392877515
-0.1386161147
-0.1369246447
-0.1355734923
-0.1332483512
-0.2257098108
-0.2072273871
-0.1961432812
-0.1836378726
-0.1765950698
-0.1678782376
-0.1634118119
-0.1572509751
-0.1544998696
-0.1501275574
-0.1485337086
-0.1454281518
-0.1445939692
-0.1423680483
-0.1419809851
-0.1403196023
-0.1401073655
-0.1387281727
-0.1384288087
-0.1370544661
-0.1363935777
-0.1347292067
-0.133399701
-0.131111832
-0.2213198748
-0.2031969571
-0.1923284711
-0.1800663102
-0.1731605162
-0.1646132475
-0.1602337164
-0.1541927241
-0.151495143
-0.1472078872
-0.1456450543
-0.1425999148
-0.1417819728
-0.1395993607
-0.1392198434
-0.1375907915
-0.1373827051
-0.1360303568
-0.1357368417
-0.1343892483
-0.1337412458
-0.1321092607
-0.1308056391
-0.1285622686
-0.2162359656
-0.1985293172
-0.1879104832
-0.1759299646
-0.1691828028
-0.1608318457
-0.156552925
-0.150650667
-0.1480150593
-0.1438262517
-0.1422993296
-0.1393241069
-0.1385249602
-0.136392453
-0.1360216451
-0.1344299816
-0.1342266505
-0.1329053323
-0.1326185245
-0.1313018529
-0.1306687064
-0.1290741886
-0.1278004969
-0.1256086553
-0.2104693002
-0.1932348927
-0.1828992848
-0.1712382933
-0.1646710969
-0.1565428716
-0.1523780886
-0.146633253
-0.1440679516
-0.1399908692
-0.1385046867
-0.1356088237
-0.1348310101
-0.132755391
-0.1323945
-0.1308453082
-0.1306474372
-0.1293613864
-0.1290822664
-0.1278007352
-0.1271845115
-0.1256325379
-0.1243928414
-0.1222594535
-0.2040428241
-0.187334621
-0.1773145952
-0.1660096328
-0.1596429592
-0.1517628956
-0.1477252876
-0.1421558336
-0.1396688683
-0.1357162425
-0.1342754475
-0.131467971
-0.130713906
-0.1287016244
-0.1283517336
-0.1268498051
-0.1266579457
-0.1254111287
-0.1251405003
-0.1238980729
-0.1233006474
-0.1217960519
-0.1205942066
-0.1185259603
-0.1969719397
-0.1808427736
-0.17117002
-0.1602568458
-0.1541108318
-0.1465038678
-0.1426062053
-0.1372297723
-0.134829011
-0.1310133754
-0.1296225334
-0.1269123643
-0.1261844613
-0.1242419364
-0.123904212
-0.1224543623
-0.1222691993
-0.1210656195
-0.1208044075
-0.1196050518
-0.1190283556
-0.1175759094
-0.1164157286
-0.1144191536
-0.1892837239
-0.173784081
-0.1644888704
-0.1540016326
-0.1480955092
-0.1407854347
-0.1370399114
-0.1318732996
-0.1295662491
-0.1258995099
-0.1245629575
-0.1219585302
-0.1212590286
-0.1193922797
-0.1190677144
-0.1176744188
-0.1174964604
-0.1163398369
-0.116088804
-0.1149362485
-0.1143820571
-0.1129863016
-0.111871411
-0.1099527683
-0.1809975292
-0.1661764405
-0.1572881826
-0.1472600672
-0.1416125234
-0.1346224825
-0.131040953
-0.1261005345
-0.1238945028
-0.1203882982
-0.119110286
-0.1166198924
-0.1159510527
-0.1141660494
-0.1138557389
-0.112523464
-0.112353339
-0.1112473675
-0.1110073505
-0.109905253
-0.1093753375
-0.1080406834
-0.1069746088
-0.1051399547
-0.172144272
-0.1580481068
-0.1495946023
-0.1400569724
-0.1346856683
-0.1280375095
-0.1246311688
-0.1199323702
-0.1178342436
-0.114499501
-0.1132839977
-0.1109153741
-0.1102792373
-0.108581504
-0.1082863551
-0.1070192212
-0.1068574063
-0.1058055216
-0.1055772365
-0.1045290389
-0.1040250405
-0.102755668
-0.1017417432
-0.09999682925
-0.162746963
-0.1494203353
-0.1414283467
-0.1324113999
-0.1273333445
-0.1210481297
-0.11782777
-0.1133854938
-0.1114019316
-0.1082492496
-0.1071001371
-0.1048608363
-0.10425947
-0.1026544355
-0.1023754408
-0.1011774962
-0.1010245483
-0.1000300961
-0.09981429284
-0.0988233159
-0.09834684546
-0.09714676868
-0.09618820692
-0.09453854533
-0.1528400086
-0.1403245887
-0.1328190963
-0.1243510141
-0.1195820732
-0.1136794323
-0.1106551073
-0.1064832105
-0.1046203906
-0.1016595819
-0.100580415
-0.0984773861
-0.09791261904
-0.09640525522
-0.09614323538
-0.09501819647
-0.0948745535
-0.09394062994
-0.09373795469
-0.09280729154
-0.09235981874
-0.09123278983
-0.09033257976
-0.08878333738
-0.1424497477
-0.1307851744
-0.1237899588
-0.115897574
-0.1114528644
-0.1059515151
-0.1031328207
-0.09924455019
-0.09750839952
-0.09474888633
-0.09374312265
-0.09178307493
-0.09125674343
-0.08985186266
-0.08960769077
-0.08855914293
-0.08842529376
-0.08755486929
-0.0873659923
-0.08649860048
-0.08608156639
-0.08503116017
-0.08419216544
-0.08274824157
-0.1316136983
-0.1208364114
-0.1143733149
-0.1070812704
-0.102974662
-0.09789176708
-0.09528748807
-0.09169495709
-0.09009086989
-0.08754123079
-0.08661197347
-0.08480098805
-0.08431469313
-0.08301665267
-0.08279105146
-0.08182225034
-0.08169857771
-0.08089435616
-0.0807198344
-0.0799184092
-0.07953308801
-0.0785625775
-0.07778740366
-0.07645331587
-0.1203611365
-0.1105053067
-0.1045948323
-0.09792626112
-0.09417079077
-0.08952248945
-0.08714090558
-0.08385553776
-0.08238863032
-0.08005698841
-0.07920722037
-0.07755107477
-0.07710639553
-0.07591933613
-0.07571305536
-0.07482709132
-0.07471402144
-0.07397857198
-0.07381899408
-0.0730860965
-0.07273374136
-0.07184621586
-0.07113733783
-0.06991730961
-0.1087322719
-0.09982864953
-0.09448922539
-0.08846491984
-0.08507228565
-0.08087305696
-0.07872157378
-0.07575358761
-0.07442840586
-0.0723220007
-0.07155433885
-0.07005816964
-0.06965645865
-0.0685840608
-0.06839770899
-0.06759732537
-0.06749517331
-0.06683076707
-0.06668659153
-0.06602448464
-0.06570616072
-0.06490437519
-0.06426398607
-0.06316182971
-0.09675890255
-0.08883576191
-0.08408435696
-0.07872346161
-0.07570445732
-0.0719676598
-0.07005313552
-0.06741198641
-0.06623276866
-0.06435832035
-0.06367523338
-0.06234381717
-0.06198638042
-0.06103207043
-0.06086627216
-0.06015403356
-0.06006316206
-0.05947193636
-0.05934366196
-0.05875447495
-0.05847122782
-0.05775774369
-0.05718789534
-0.05620710488
-0.08448347912
-0.07756548897
-0.07341688299
-0.06873607578
-0.06610007988
-0.06283732568
-0.06116569464
-0.05885957811
-0.0578299667
-0.0561932841
-0.0555968695
-0.05443432866
-0.05412224905
-0.05328897653
-0.05314421364
-0.05252231189
-0.05244296347
-0.05192672916
-0.05181471333
-0.05130025325
-0.05105293077
-0.05042995459
-0.04993240415
-0.04907603926
-0.07193985909
-0.06604904732
-0.06251646436
-0.05853066249
-0.05628609035
-0.05350779015
-0.05208440174
-0.0501206863
-0.04924398743
-0.04785030571
-0.04734248911
-0.04635254572
-0.04608684454
-0.04537728473
-0.04525405153
-0.04472449484
-0.04465696221
-0.04421739473
-0.04412203509
-0.04368396732
-0.04347338874
-0.04294291776
-0.04251926417
-0.04179004512
-0.05917226062
-0.05432690193
-0.05142128561
-0.04814284125
-0.0462966331
-0.04401138499
-0.04284062793
-0.0412253818
-0.04050428773
-0.03935790818
-0.0389402382
-0.03812594256
-0.03790741536
-0.03732374548
-0.03722239002
-0.0367867911
-0.03673124415
-0.03636967457
-0.0362912279
-0.03593088481
-0.03575767435
-0.0353213418
-0.03497288689
-0.03437308241
-0.04621612092
-0.0424317194
-0.04016238357
-0.03760180043
-0.03615988794
-0.03437502505
-0.03346067295
-0.03219908712
-0.03163593214
-0.03074054398
-0.03041438298
-0.02977836165
-0.02960773581
-0.0291518492
-0.02907272914
-0.0287325136
-0.02868916776
-0.028406786
-0.02834553951
-0.02806409972
-0.0279288375
-0.02758805055
-0.02731591947
-0.02684744196
-0.03311692279
-0.03040512811
-0.0287790416
-0.02694418869
-0.02591098592
-0.02463198254
-0.02397682231
-0.0230727585
-0.0226692484
-0.02202758652
-0.02179391076
-0.0213380989
-0.02121586941
-0.02088914177
-0.02083246657
-0.02058864881
-0.02055760104
-0.02035524318
-0.02031135153
-0.02010965607
-0.02001273454
-0.01976853148
-0.01957355254
-0.01923785091
-0.01991117642
-0.01828077912
-0.01730323005
-0.01620006808
-0.01557894909
-0.01480997053
-0.0144161538
-0.01387256379
-0.01363003465
-0.01324420061
-0.01310379615
-0.01282969552
-0.01275628977
-0.01255980965
-0.01252579703
-0.0123792012
-0.01236058704
-0.01223894224
-0.01221257934
-0.012091307
-0.01203306278
-0.01188624576
-0.01176906006
-0.01156721531
-0.0066451258
-0.006100997756
-0.005774890513
-0.005406703725
-0.005199499755
-0.004942825231
-0.004811500502
-0.004629987376
-0.00454913424
-0.004420258107
-0.004373513137
-0.004281916595
-0.004257520012
-0.004191843715
-0.004180559765
-0.004131589926
-0.004125430208
-0.004084829244
-0.004076043244
-0.004035531754
-0.004016116842
-0.003967113907
-0.003928062156
-0.003860684917
0.006644171735
0.00610006083
0.005773528705
0.005405395244
0.005197908883
0.004941331583
0.004809659969
0.004628417388
0.004547270832
0.004418698154
0.004371580884
0.004280313403
0.00425557636
0.004190178638
0.004178656224
0.004129788365
0.004123436559
0.004082814365
0.004073961768
0.004033541417
0.004014034818
0.003965035429
0.003925801831
0.003858475348
0.01991023137
0.01827985033
0.01730187714
0.01619876757
0.01557736684
0.01480848486
0.0144143229
0.01387100321
0.01362818332
0.01324265336
0.01310188035
0.01282810941
0.01275436681
0.01255816513
0.01252391659
0.01237742184
0.01235861685
0.0122369494
0.01221051977
0.01208933686
0.01203100074
0.01188418641
0.01176681907
0.0115650243
0.03311597511
0.03040419715
0.02877768897
0.0269428884
0.02590940507
0.02463049756
0.02397499296
0.02307119643
0.02266739462
0.0220260317
0.02179198543
0.02133649716
0.02121392855
0.02088747494
0.02083056243
0.02058684507
0.0205556072
0.02035322874
0.02030927216
0.02010766753
0.02001065582
0.01976645628
0.01957129709
0.01923564558
0.04621520047
0.04243081304
0.04016105788
0.03760052431
0.03615833325
0.0343735641
0.03345887228
0.03219755244
0.03163411298
0.03073902492
0.03041250361
0.02977680731
0.02960585198
0.02915023895
0.0290708878
0.02873077024
0.02868723653
0.02840483033
0.02834351718
0.02806216336
0.02792680934
0.02758602349
0.02731371242
0.02684528306
0.05917133458
0.05432599091
0.05141996
0.04814156505
0.04629508059
0.04400992505
0.04283883037
0.04122384518
0.04050246597
0.03935637797
0.03893834584
0.03812436451
0.03790550562
0.03732210125
0.03722051438
0.03678501229
0.03672928141
0.03636769179
0.03628918447
0.03592893101
0.03575563475
0.03531930596
0.03497067571
0.03437091962
0.07193897885
0.06604817772
0.06251518439
0.05852942739
0.05628458241
0.05350637071
0.0520826516
0.05011919331
0.0492422192
0.04784882873
0.04734066408
0.04635103599
0.04608501623
0.04537572111
0.0452522638
0.04472280085
0.04465508506
0.04421549236
0.04412006673
0.04368208109
0.04347141184
0.04294094064
0.04251711077
0.04178793758
0.08448258992
0.0775646118
0.07341560223
0.06873483957
0.06609857387
0.06283590685
0.06116394876
0.05885808375
0.05782819845
0.05619179778
0.05559503634
0.05443279806
0.05412040074
0.05328738224
0.0531423982
0.05252058825
0.0524410651
0.05192481172
0.05181274096
0.0512983691
0.05105096759
0.05042799652
0.04993027922
0.04907396045
0.09675807785
0.08883494316
0.08408314108
0.07872228418
0.07570301548
0.07196629891
0.07005145638
0.06741055103
0.06623107003
0.06435689932
0.06367348075
0.06234236562
0.06198462557
0.06103056827
0.06086455642
0.06015240725
0.06006136068
0.05947011117
0.05934177371
0.05875266587
0.05846933178
0.05775584739
0.05718582956
0.05620508243
0.1087314347
0.09982782016
0.09448800747
0.08846373982
0.08507084468
0.08087169549
0.0787198991
0.07575215138
0.07442671072
0.07232057563
0.07155258878
0.07005670912
0.0696547012
0.06858254428
0.06839598569
0.06759568768
0.06749337175
0.06682894702
0.06668472158
0.0660227
0.06570430374
0.06490252463
0.06426197873
0.06315986584
0.1203603818
0.1105045522
0.1045936984
0.09792515787
0.09416943464
0.08952120474
0.0871393188
0.08385417716
0.08238702148
0.08005563909
0.07920556041
0.0775496977
0.07710473577
0.07591791446
0.07571143565
0.07482555691
0.07471232489
0.07397685527
0.07381722061
0.07308440041
0.07273196539
0.0718444413
0.07113540437
0.06991541686
0.1316129281
0.1208356437
0.1143721781
0.1070801634
0.1029733058
0.0978904805
0.09528590513
0.09169359527
0.09008926658
0.08753988243
0.08661032711
0.08479961731
0.08431305339
0.08301524098
0.08278945304
0.08182073135
0.08169690851
0.08089266823
0.08071810101
0.07991675533
0.07953136752
0.07856086339
0.07778554354
0.07645149627
0.1424490761
0.1307844963
0.123788924
0.1158965612
0.111451614
0.1059503252
0.1031313493
0.099243284
0.09750690365
0.09474762813
0.09374157942
0.09178179277
0.09125520468
0.08985054476
0.08960619586
0.08855772862
0.08842373542
0.08755329539
0.08736437117
0.08649705489
0.08607995088
0.08502954862
0.08419040894
0.08274652314
0.1528393198
0.1403238961
0.1328180591
0.1243499981
0.1195808233
0.1136782407
0.1106536397
0.1064819424
0.1046189001
0.1016583264
0.1005788914
0.09847612181
0.09791111978
0.09640397242
0.09614179377
0.09501683071
0.0948730574
0.09393911569
0.09373640136
0.09280580937
0.09235827599
0.09123125184
0.09033090789
0.08878170267
0.1627463854
0.1494197441
0.1414274268
0.1324104933
0.1273322199
0.1210470544
0.1178264388
0.1133843446
0.1114005756
0.1082481066
0.1070987395
0.1048596747
0.1042580827
0.1026532489
0.102374103
0.1011762325
0.1010231631
0.100028699
0.09981286051
0.09882195505
0.09834542648
0.09714535527
0.09618666481
0.09453703837
0.1721436778
0.1580475021
0.1495936829
0.1400560655
0.1346845481
0.1280364359
0.1246298446
0.1199312207
0.117832893
0.1144983599
0.1132826189
0.1109142326
0.110277897
0.1085803677
0.1082850948
0.1070180373
0.1068561212
0.105804223
0.1055759105
0.1045277752
0.1040237241
0.1027543531
0.1017403074
0.09999542629
0.1809970546
0.166175945
0.1572873917
0.1472592815
0.1416115445
0.1346215421
0.1310397879
0.1260995269
0.1238933163
0.120387298
0.1191090667
0.1166188813
0.1159498511
0.1141650252
0.1138545928
0.112522383
0.1123521621
0.1112461796
0.1110061405
0.1099041067
0.1093741454
0.1080394965
0.1069733108
0.1051386887
0.1892832369
0.173783576
0.1644880861
0.1540008526
0.1480945419
0.1407845034
0.137038761
0.1318722978
0.1295650716
0.1258985122
0.1245617534
0.1219575335
0.1212578662
0.1193913018
0.1190666475
0.1176734293
0.1174954061
0.1163387794
0.1160877397
0.1149352417
0.1143810115
0.1129852566
0.1118702612
0.109951647
0.1969715759
0.1808423815
0.1711693708
0.1602561935
0.1541100166
0.146503081
0.1426052308
0.1372289298
0.1348280219
0.1310125447
0.1296215237
0.1269115334
0.1261834784
0.1242411058
0.1239032907
0.1224534949
0.1222682631
0.1210646705
0.1208034493
0.1196041456
0.1190274162
0.1175749735
0.1164147005
0.1144181541
0.2040424567
0.1873342276
0.1773139623
0.1660089954
0.1596421662
0.1517621286
0.1477243396
0.1421550076
0.1396678973
0.1357154201
0.1342744536
0.1314671491
0.1307129484
0.1287008215
0.1283508681
0.126849009
0.1266571172
0.1254103065
0.125139696
0.1238973281
0.123299888
0.121795301
0.1205933773
0.1185251576
0.2104690555
0.1932346126
0.1828987894
0.1712377853
0.1646704604
0.1565422536
0.1523773252
0.1466325945
0.1440671821
0.1399902279
0.1385039099
0.1356081945
0.1348302705
0.1327547776
0.1323938282
0.1308446784
0.1306467651
0.1293606982
0.1290815801
0.1278000886
0.1271838442
0.1256318731
0.1243921044
0.1222587415
0.2162357318
0.1985290491
0.1879100187
0.1759294842
0.1691822026
0.1608312614
0.1565522029
0.1506500393
0.1480143213
0.1438256304
0.1422985768
0.1393234907
0.138524241
0.1363918544
0.1360210027
0.1344293886
0.1342260409
0.1329047247
0.1326179461
0.1313013308
0.1306681936
0.129073695
0.1277999574
0.1256081411
0.2213197583
0.2031968
0.1923281434
0.180065957
0.1731600722
0.1646128114
0.1602331813
0.1541922643
0.1514946089
0.1472074478
0.1456445243
0.1425994989
0.1417814886
0.1395989758
0.1392194312
0.1375904086
0.1373823029
0.1360299346
0.1357364298
0.134388866
0.1337408563
0.132108874
0.1308052006
0.1285618495
0.2257097227
0.2072272586
0.1961430033
0.1836375629
0.1765946795
0.1678778522
0.1634113355
0.1572505628
0.1544993826
0.1501271527
0.1485332156
0.1454277605
0.1445935128
0.1423676819
0.1419805955
0.1403192411
0.1401069947
0.1387277885
0.138428448
0.1370541418
0.1363932692
0.1347289103
0.1333993766
0.1311115268
0.2293872293
0.210603663
0.1993388531
0.1866296889
0.1794720903
0.1706132625
0.1660740073
0.1598128722
0.1570168985
0.1525734441
0.1509535696
0.1477975271
0.1469497175
0.1446876308
0.1442942638
0.142605854
0.1423901725
0.1409885093
0.1406843086
0.1392876187
0.1386159926
0.1369245221
0.1355733382
0.1332482106
0.2323452912
0.2133194717
0.2019093815
0.1890362978
0.1817863805
0.1728132857
0.1682154797
0.1618735726
0.1590415278
0.1545407417
0.1528999658
0.1497031942
0.1488444396
0.1465531549
0.1461547017
0.1444444989
0.1442260229
0.1428062706
0.1424981326
0.1410834179
0.1404031207
0.1386898316
0.1373212214
0.1349661091
0.2345700131
0.2153620551
0.2038427545
0.1908464384
0.1835271372
0.1744681477
0.1698263516
0.163423736
0.1605646054
0.1560207365
0.1543642822
0.1511369114
0.1502699642
0.1479567504
0.1475545077
0.1458279429
0.1456073979
0.144174066
0.1438629945
0.1424347422
0.1417479455
0.1400182578
0.1386365552
0.1362588909
0.2360589879
0.2167290738
0.2051366372
0.1920577962
0.1846920167
0.1755754959
0.1709042203
0.1644609317
0.1615836368
0.157010894
0.1553439129
0.1520960256
0.1512235634
0.1488956388
0.1484908295
0.1467532847
0.1465313268
0.1450888821
0.1447758218
0.1433384893
0.1426473229
0.140906649
0.1395161735
0.1371234155
0.2368029366
0.2174121378
0.2057832086
0.1926631773
0.1852742186
0.17612899
0.1714430266
0.1649794474
0.1620931153
0.157505974
0.155833771
0.152575658
0.1517004758
0.1493652246
0.1489591649
0.1472161573
0.1469935223
0.1455465462
0.1452325159
0.1437906619
0.1430973315
0.1413511781
0.1399563324
0.137556032
0.2368041127
0.2174131879
0.2057841858
0.1926640611
0.185275048
0.1761297463
0.1714437449
0.1649801024
0.1620937409
0.157506546
0.1558343228
0.1525761634
0.1517009654
0.1493656752
0.1489596007
0.147216564
0.1469939155
0.1455469176
0.1452328721
0.1437909966
0.1430976531
0.1413514841
0.1399566294
0.137556316
0.236057917
0.2167281295
0.205135813
0.1920570593
0.1846913639
0.1755749033
0.1709037017
0.1644604425
0.1615832068
0.1570104792
0.1553435569
0.1520956743
0.1512232635
0.1488953419
0.148490572
0.1467530407
0.1465311159
0.1450886919
0.1447756524
0.1433383286
0.1426471837
0.1409065234
0.1395160759
0.1371233247
0.2345712938
0.2153632103
0.203843884
0.1908474682
0.1835281423
0.1744690667
0.1698272685
0.1634245559
0.1605654252
0.1560214644
0.1543650282
0.1511375695
0.1502706417
0.1479573532
0.1475551199
0.1458285105
0.1456079713
0.1441746166
0.1438635353
0.1424352488
0.1417484474
0.1400187422
0.1386370495
0.136259366
0.2323443247
0.2133186323
0.2019087092
0.1890357066
0.181785903
0.1728128555
0.1682151593
0.1618732483
0.1590412922
0.1545404833
0.1528998045
0.1497029965
0.1488443284
0.1465530115
0.146154622
0.1444444174
0.144225994
0.1428062612
0.1424981495
0.1410834307
0.1404031634
0.1386898857
0.1373213223
0.1349662105
0.2293886126
0.2106049214
0.1993401322
0.1866308622
0.1794732678
0.1706143411
0.1660751191
0.1598138538
0.157017909
0.152574325
0.1509545062
0.1477983351
0.1469505793
0.1446883831
0.1442950492
0.1426065799
0.1423909232
0.1409892366
0.1406850315
0.1392882953
0.138616673
0.1369251835
0.1355740284
0.1332488755
0.2257088583
0.2072265219
0.1961424795
0.1836371143
0.1765943734
0.167877581
0.1634112092
0.1572504
0.1544993372
0.1501270476
0.1485332449
0.1454277135
0.1445935865
0.1423676889
0.1419806897
0.1403193185
0.1401071433
0.1387279554
0.1384286462
0.137054323
0.136393488
0.1347291382
0.1333996693
0.131111814
0.2213212412
0.2031981586
0.1923295676
0.1800672694
0.1731614172
0.164614045
0.1602344822
0.154193403
0.1514958043
0.1472084774
0.1456456459
0.142600453
0.1417825298
0.1395998743
0.1392203858
0.1375912898
0.1373832275
0.1360308358
0.1357373323
0.1343897109
0.1337417138
0.1321097112
0.1308060854
0.1285627032
0.2162349659
0.1985284113
0.1879096381
0.175929173
0.1691820617
0.1608311435
0.1565522635
0.1506500322
0.1480144591
0.1438256731
0.1422987895
0.1393235887
0.1385244922
0.1363920059
0.1360212635
0.1344296182
0.1342263591
0.13290506
0.1326183169
0.1313016719
0.1306685792
0.1290740872
0.1278004314
0.1256086038
0.2104706338
0.1932360671
0.1829003525
0.1712392312
0.1646719656
0.1565436358
0.1523788072
0.1466338838
0.1440685547
0.1399914005
0.1385052093
0.1356092893
0.1348314844
0.1327558174
0.1323949463
0.1308457102
0.1306478585
0.1293617685
0.1290826574
0.1278010976
0.1271848744
0.1256328819
0.124393179
0.1222597792
0.2040417842
0.1873336837
0.1773137175
0.1660088146
0.1596421819
0.151762156
0.1477245773
0.1421551481
0.1396682084
0.1357156028
0.1342748396
0.1314673844
0.1307133671
0.1287011095
0.1283512857
0.1268493824
0.1266575949
0.1254108007
0.1251402291
0.1238978199
0.1233004307
0.1217958481
0.1205940222
0.1185257857
0.1969732443
0.1808439266
0.1711710652
0.1602577653
0.154111673
0.1465046036
0.1426068839
0.1372303617
0.1348295622
0.1310138529
0.1296229913
0.126912762
0.1261848562
0.1242422802
0.1239045641
0.1224546703
0.1222695166
0.1210659012
0.1208046917
0.1196053096
0.119028609
0.1175761435
0.116415953
0.1144193642
0.1892826512
0.1737831193
0.1644879676
0.1540007932
0.1480947035
0.1407846662
0.1370391635
0.1318725757
0.1295655439
0.1258988252
0.1245623004
0.1219578966
0.1212584403
0.1193917171
0.1190672107
0.1176739369
0.1174960325
0.1163394227
0.116088425
0.114935876
0.1143817026
0.1129859508
0.1118710686
0.1099524326
0.180998807
0.1661775746
0.1572892082
0.1472609704
0.1416133415
0.1346231952
0.1310415999
0.1261010914
0.1238950123
0.1203887323
0.1191106907
0.1166202345
0.1159513811
0.1141663249
0.1138560102
0.1125236916
0.1123535636
0.1112475586
0.1110075347
0.1099054127
0.1093754861
0.1080408129
0.1069747243
0.1051400547
0.1721431714
0.158047125
0.14959368
0.140056117
0.1346848428
0.1280367224
0.1246303976
0.1199316241
0.1178335123
0.1144987918
0.1132833128
0.1109147124
0.110278613
0.1085808996
0.1082857912
0.1070186686
0.1068568843
0.1058050043
0.1055767369
0.1045285424
0.1040245541
0.1027551858
0.1017412678
0.09999636049
0.1627482148
0.1494214509
0.1414293546
0.1324122891
0.1273341451
0.1210488265
0.1178283955
0.1133860298
0.1114024134
0.1082496557
0.1071005056
0.104861141
0.1042597507
0.1026546622
0.1023756508
0.1011776618
0.1010246983
0.1000302121
0.0998143916
0.09882338926
0.09834690008
0.09714680318
0.09618822256
0.09453854413
0.152838884
0.14032359
0.1328181594
0.1243501487
0.1195812369
0.1136786376
0.1106543271
0.1064824579
0.1046196508
0.1016588648
0.1005797168
0.09847670655
0.09791196325
0.0964046095
0.09614261019
0.09501757362
0.09487394375
0.09394002173
0.09373735483
0.0928066968
0.09235923112
0.09123220973
0.09033200639
0.088782771
0.1424509744
0.1307862722
0.1237909512
0.1158984524
0.1114536533
0.1059522032
0.1031334347
0.09924507648
0.09750886703
0.09474927875
0.09374347084
0.09178335876
0.09125699385
0.08985205761
0.08960785775
0.08855926368
0.08842538794
0.08755492695
0.08736602339
0.08649860327
0.08608154332
0.08503111473
0.08419209664
0.08274815494
0.1316125534
0.1208353992
0.1143723682
0.1070804002
0.1029738229
0.09789097345
0.09528670953
0.0916942082
0.09009013189
0.0875405137
0.08661126781
0.08480029419
0.08431400923
0.08301597099
0.08279037566
0.08182157309
0.0816979036
0.08089368398
0.08071916551
0.0799177473
0.07953243052
0.07856192878
0.07778676009
0.07645267916
0.1203623403
0.1105063882
0.1045958118
0.09792713173
0.09417157278
0.08952317443
0.08714151525
0.08385606204
0.08238909288
0.08005737656
0.07920755896
0.07755134811
0.07710662764
0.07591951104
0.07571319345
0.07482718086
0.07471407618
0.07397858711
0.07381897585
0.0730860467
0.07273366057
0.07184611035
0.07113720585
0.06991715922
0.108731111
0.09982762709
0.09448827279
0.08846404887
0.08507144867
0.08087226905
0.07872080187
0.07575284614
0.0744276727
0.07232128513
0.07155362745
0.07005746427
0.06965575353
0.06858335413
0.06839700033
0.06759661484
0.06749446108
0.06683005726
0.06668588137
0.06602378111
0.06570545794
0.06490368035
0.06426329379
0.06316114415
0.09676008687
0.08883682968
0.08408532645
0.07872432702
0.07570523593
0.07196834489
0.07005374518
0.06741251259
0.06623323101
0.06435870839
0.06367556759
0.06234408486
0.06198660115
0.06103223219
0.06086639124
0.06015410192
0.06006319045
0.05947192257
0.05934361058
0.05875438964
0.05847110848
0.05775759832
0.05718772211
0.05620691331
0.08448230648
0.07756445943
0.07341592752
0.06873520627
0.06609924727
0.0628365447
0.06116493013
0.05885884357
0.05782923777
0.05619256942
0.05559615399
0.05443361587
0.05412153183
0.05328825701
0.05314348912
0.05252158603
0.05244223342
0.05192600089
0.05181398117
0.05129952546
0.05105219916
0.05042922869
0.04993167748
0.04907531932
0.07194102834
0.06605010452
0.06251742671
0.05853152478
0.05628686785
0.05350847696
0.05208501331
0.05012121552
0.04924445113
0.04785069443
0.04734282095
0.0463528094
0.04608705795
0.04537743742
0.0452541586
0.04472454944
0.04465697435
0.04421736293
0.04412196355
0.0436838605
0.04347324636
0.04294274898
0.04251906718
0.0417898304
0.05917107998
0.05432586788
0.05142032915
0.04814197397
0.04629580504
0.04401061002
0.04283986943
0.04122465221
0.04050356168
0.03935719396
0.03893952099
0.0381252268
0.03790669442
0.03732302268
0.03722166196
0.03678606222
0.03673050968
0.03636894115
0.03629048754
0.03593014693
0.03575692905
0.0353206006
0.03497214261
0.03437234515
0.0462172799
0.04243276949
0.04016334158
0.03760266131
0.03616066581
0.03437571417
0.03346128704
0.03219961918
0.03163639734
0.03074093296
0.03041471333
0.02977862191
0.02960794468
0.02915199548
0.02907282929
0.02873255968
0.02868917091
0.02840674384
0.0283454568
0.0280639807
0.027928682
0.02758786837
0.02731570872
0.02684721433
0.03311573727
0.03040409145
0.02877808506
0.02694332336
0.02591016142
0.02463121178
0.02397606788
0.02307203197
0.02266852429
0.02202687284
0.02179319407
0.02133738322
0.02121515016
0.02088842092
0.02083174194
0.0205879236
0.02055687019
0.0203545135
0.02031061376
0.02010892089
0.02001199136
0.01976779288
0.01957281138
0.01923711747
0.01991233006
0.01828182563
0.01730418637
0.01620092892
0.01557972831
0.01481066194
0.01441677047
0.01387309815
0.01363050136
0.01324458961
0.01310412595
0.01282995305
0.01275649647
0.01255995144
0.01252589385
0.01237924195
0.01236058569
0.01223889403
0.01221249057
0.01209118074
0.01203289936
0.01188605508
0.01176884012
0.01156697931
0.006643937955
0.006099959822
0.005773934089
0.005405839401
0.00519867727
0.004942056647
0.004810748316
0.004629262475
0.0045484114
0.004419544932
0.004372797788
0.004281201609
0.004256803871
0.004191125174
0.004179839988
0.004130868862
0.004124704952
0.004084105084
0.004075311759
0.004034803576
0.004015382094
0.003966384936
0.00392733249
0.003859963586
-0.006643018595
-0.006099014447
-0.005772571658
-0.005404533374
-0.00519712768
-0.004940638211
-0.004809040821
-0.004627881169
-0.004546802291
-0.004418308752
-0.004371250304
-0.004280057428
-0.004255369566
-0.004190039698
-0.004178559918
-0.004129750909
-0.004123439329
-0.004082866024
-0.004074052982
-0.00403367136
-0.004014201693
-0.003965230133
-0.003926025973
-0.003858715246
-0.01991141935
-0.01828088855
-0.01730283358
-0.01619963215
-0.01557818903
-0.01480925337
-0.01441507451
-0.01387172773
-0.0136289056
-0.01324336643
-0.01310259506
-0.01282882502
-0.01275508169
-0.01255888458
-0.01252463444
-0.01237814338
-0.01235934006
-0.01223767344
-0.01221124943
-0.01209006444
-0.01203173381
-0.01188491429
-0.01176754713
-0.01156574418
-0.0331148178
-0.03040314764
-0.02877672896
-0.02694202464
-0.02590862149
-0.02462980279
-0.02397437153
-0.02307065875
-0.02266692376
-0.02202564108
-0.02179165252
-0.02133624102
-0.02121371931
-0.02088733692
-0.02083046377
-0.02058680884
-0.02055560805
-0.02035328112
-0.02030936153
-0.02010779694
-0.0200108202
-0.019766649
-0.01957151822
-0.01923588292
-0.04621638641
-0.0424318506
-0.04016201447
-0.03760139044
-0.03615915685
-0.03437433475
-0.033459625
-0.03219827796
-0.0316348355
-0.03073973829
-0.03041321867
-0.02977752479
-0.02960656797
-0.02915096262
-0.02907160714
-0.02873149711
-0.02868796139
-0.02840555978
-0.02834424931
-0.02806289676
-0.02792754726
-0.02758675891
-0.02731444875
-0.02684601218
-0.05917016867
-0.05432493523
-0.05141899493
-0.04814069872
-0.04629429429
-0.04400922961