/*--------------------------------*- C++ -*----------------------------------*\
| =========                 |                                                 |
| \\      /  F ield         | foam-extend: Open Source CFD                    |
|  \\    /   O peration     | Version:  3.0                                   |
|   \\  /    A nd           | Web:         http://www.extend-project.de       |
|    \\/     M anipulation  |                                                 |
\*---------------------------------------------------------------------------*/
FoamFile
{
    version     2.0;
    format      ascii;
    class       volSymmTensorField;
    location    "27";
    object      sigma;
}
// * * * * * * * * * * * * * * * * * * * * * * * * * * * * * * * * * * * * * //

dimensions      [0 0 0 0 0 0 0];

internalField   nonuniform List<symmTensor> 
2688
(
(-0.1777050022 -0.004863966918 4.300191675e-20 0.1776591729 6.34922996e-22 4.582928182e-05)
(-0.174246755 -0.00574278849 6.432351901e-20 0.1741221351 5.97652659e-21 0.000124619878)
(-0.1669728341 -0.006132749771 1.145155341e-20 0.1667775085 4.976684918e-20 0.0001953256249)
(-0.1578097883 -0.006231711136 -6.560516783e-22 0.1575507174 6.286919257e-20 0.000259070962)
(-0.1478407944 -0.006156817431 2.170190686e-20 0.1475241828 8.001361107e-20 0.0003166115731)
(-0.1376666427 -0.005978765464 3.806902707e-20 0.1372982666 6.112600556e-20 0.000368376148)
(-0.127631126 -0.005741389765 4.854545362e-20 0.1272165045 7.47829941e-20 0.0004146214992)
(-0.1179187754 -0.005472150877 2.23036333e-20 0.1174633823 4.129985244e-20 0.0004553931056)
(-0.1086308214 -0.005188537268 -3.047752833e-21 0.1081401734 3.513981252e-20 0.0004906479922)
(-0.09981353016 -0.004901812127 8.908864682e-21 0.09929334024 5.299638353e-21 0.0005201899207)
(-0.09148633327 -0.00461917924 2.347685749e-20 0.0909425626 5.066801177e-20 0.0005437706634)
(-0.08365132706 -0.004345472363 3.332088395e-20 0.08309031474 6.88903338e-20 0.0005610123271)
(-0.07630278282 -0.004083684752 6.292172404e-20 0.07573127547 5.111685372e-20 0.0005715073481)
(-0.06943281506 -0.003836070879 3.483977253e-20 0.06885808348 6.639743809e-20 0.0005747315769)
(-0.06303174665 -0.003603901538 -3.092324253e-20 0.06246160145 8.529769305e-20 0.0005701451956)
(-0.05709491024 -0.00338849408 -1.406801225e-21 0.05653780594 9.109611184e-20 0.0005571042998)
(-0.05161708878 -0.003190487683 2.683629295e-20 0.05108212853 7.759862001e-20 0.0005349602451)
(-0.04660238944 -0.003011020374 -7.573704463e-21 0.04609941561 1.183781672e-19 0.0005029738258)
(-0.04205377241 -0.002850621587 -8.783073426e-23 0.04159336167 8.687765512e-20 0.0004604107442)
(-0.03798703408 -0.002710647695 3.538059334e-20 0.03758057385 9.815449364e-20 0.0004064602339)
(-0.03441551021 -0.002591795184 4.295132657e-20 0.03407518731 1.499269649e-20 0.0003403229021)
(-0.03136894098 -0.002495836162 1.790298569e-20 0.03110779796 2.792747366e-20 0.0002611430183)
(-0.02887319128 -0.002424064045 1.765472159e-21 0.02870511107 -4.855348707e-21 0.0001680802162)
(-0.02697294557 -0.002376787281 -2.839258413e-21 0.02691266915 -5.557784532e-20 6.027642597e-05)
(-0.1771999834 -0.0145812869 3.756150909e-20 0.1771542974 -1.701783496e-21 4.568603223e-05)
(-0.1733168284 -0.01717816195 7.3805274e-20 0.1731926018 2.814806623e-21 0.0001242266175)
(-0.1658003191 -0.01832436641 3.647182057e-20 0.1656056026 2.254137527e-20 0.0001947164463)
(-0.1565069006 -0.01860747285 4.880263978e-21 0.1562486412 4.882709607e-20 0.0002582594795)
(-0.1464775414 -0.01837524804 1.472876368e-20 0.146161918 6.829956372e-20 0.0003156234003)
(-0.1362871819 -0.01783754524 3.590343011e-20 0.1359199578 4.577694288e-20 0.000367224068)
(-0.126263243 -0.01712444434 3.964604536e-20 0.1258499194 7.865936484e-20 0.000413323607)
(-0.1165797426 -0.01631739445 -4.075127447e-21 0.1161257761 2.859109204e-20 0.0004539664777)
(-0.1073310649 -0.01546826023 -3.325278212e-20 0.1068419549 5.68924708e-20 0.0004891099562)
(-0.09855888567 -0.01461042206 1.265360409e-20 0.09804032689 1.259711175e-20 0.0005185587816)
(-0.09027960519 -0.01376521561 5.777889667e-20 0.08973753939 2.978511205e-20 0.0005420657977)
(-0.08249318496 -0.0129469438 3.884003805e-20 0.08193393059 1.868946818e-20 0.000559254365)
(-0.07519251014 -0.01216445617 5.936468628e-20 0.07462279205 3.080746e-21 0.0005697180944)
(-0.06836861892 -0.0114244134 7.070103094e-20 0.06779568487 4.193514455e-20 0.0005729340484)
(-0.06201117993 -0.01073056561 3.407242119e-20 0.06144281619 6.959259754e-20 0.0005683637415)
(-0.05611489843 -0.01008680624 2.707780495e-20 0.05555953368 1.322197125e-19 0.0005553647428)
(-0.05067422774 -0.009495026824 8.531090211e-20 0.05014093766 2.353048327e-20 0.0005332900827)
(-0.04569281229 -0.00895860227 3.408092006e-20 0.04519140925 1.687796703e-19 0.0005014030452)
(-0.04117340971 -0.008479101156 2.196283239e-20 0.04071443776 1.799446948e-19 0.0004589719564)
(-0.0371313632 -0.008060543845 3.488785443e-20 0.03672617366 3.9513559e-20 0.0004051895403)
(-0.03357982052 -0.007705004165 -3.304656517e-20 0.03324056141 3.277063646e-20 0.0003392591037)
(-0.03054801622 -0.007417770197 1.532333573e-20 0.03028768935 1.372283915e-19 0.0002603268708)
(-0.02806149936 -0.007202693909 -7.059068655e-20 0.02789394465 9.147092359e-20 0.0001675547089)
(-0.0261652384 -0.00706071452 3.11078089e-20 0.02610515052 -5.315276256e-20 6.008787412e-05)
(-0.1761899966 -0.02426628815 2.607679194e-20 0.1761445997 2.634300225e-20 4.539689093e-05)
(-0.1714706354 -0.02846381583 5.994232842e-20 0.1713471976 3.321832535e-21 0.0001234378286)
(-0.163477294 -0.03029612395 3.948867405e-20 0.1632838162 -3.160792404e-20 0.0001934778409)
(-0.1539280056 -0.0307225616 2.67453836e-20 0.1536713872 1.439944787e-20 0.0002566183305)
(-0.1437807316 -0.03031074952 1.616167102e-20 0.1434671101 5.937222888e-20 0.0003136214871)
(-0.1335593493 -0.02940299579 4.138433678e-20 0.1331944514 5.117853998e-20 0.0003648978441)
(-0.1235590858 -0.02821139941 4.809755983e-20 0.123148376 8.849312815e-20 0.0004107097458)
(-0.113933247 -0.02686865095 -5.223774203e-21 0.1134821467 8.636436229e-20 0.0004511002685)
(-0.1047627191 -0.02545918816 -1.28683221e-20 0.1042766926 9.54174596e-20 0.0004860264486)
(-0.09608013342 -0.02403728942 -3.728416629e-20 0.09556483955 9.493707917e-20 0.0005152938644)
(-0.0878959213 -0.02263761088 1.292804676e-20 0.08735726469 1.113236561e-19 0.000538656606)
(-0.08020584297 -0.02128334696 4.896394965e-21 0.079650103 3.68474358e-20 0.0005557399623)
(-0.07300005649 -0.01998882389 7.534086454e-20 0.07243391655 -1.469590352e-20 0.0005661399437)
(-0.0662674836 -0.01876481208 1.135574846e-19 0.06569814695 9.274920756e-21 0.0005693366451)
(-0.05999650649 -0.01761735765 7.376768561e-20 0.05943171134 7.035066852e-20 0.0005647951435)
(-0.05418059581 -0.0165527568 1.503614858e-20 0.05362871862 9.180577885e-20 0.000551877191)
(-0.04881355396 -0.01557405956 5.531025212e-20 0.04828361372 6.090471108e-20 0.0005299402332)
(-0.0438981102 -0.0146867534 2.699065665e-19 0.04339985748 1.61697642e-20 0.0004982527252)
(-0.03943662102 -0.01389339296 -2.198686489e-20 0.03898053318 6.264773708e-20 0.0004560878369)
(-0.03544354072 -0.01320055169 -1.051696306e-19 0.03504089706 5.206549529e-20 0.000402643655)
(-0.03193165823 -0.01261163851 1.729131058e-19 0.03159453008 2.472752491e-20 0.0003371281469)
(-0.02892920817 -0.01213533504 2.14612795e-19 0.02867051584 -1.968744105e-20 0.0002586923296)
(-0.02646109485 -0.0117779775 -1.526912671e-19 0.02629459183 1.321865407e-19 0.0001665030236)
(-0.02457284813 -0.01154124506 -2.716199492e-20 0.02451313721 -5.760030557e-20 5.971092059e-05)
(-0.1746752021 -0.03389710613 -7.176936502e-23 0.174630239 4.35535236e-20 4.496313803e-05)
(-0.168735275 -0.03950344472 2.594901129e-20 0.1686130155 -3.567835919e-20 0.0001222594761)
(-0.1600471134 -0.04190729498 4.175094506e-20 0.1598554826 -8.780797909e-20 0.0001916308518)
(-0.1501261514 -0.04241046156 5.56764579e-20 0.1498719815 3.256282984e-22 0.0002541699335)
(-0.1398088681 -0.04178276457 4.367356234e-20 0.1394982352 3.435122545e-20 0.0003106329677)
(-0.1295444414 -0.04048804796 5.142609005e-20 0.1291830175 6.268112245e-20 0.0003614239657)
(-0.1195810042 -0.03881351023 8.851099985e-20 0.1191742004 7.511169598e-20 0.0004068037887)
(-0.1100415571 -0.03693859086 6.078415877e-21 0.1095947425 1.305075541e-19 0.0004468146301)
(-0.1009872448 -0.03497735634 4.247550117e-21 0.1005058313 5.806731595e-20 0.0004814134517)
(-0.09243748156 -0.03300299039 5.397847344e-20 0.09192707425 4.417242995e-20 0.0005104073133)
(-0.08439397925 -0.03106214437 4.248742045e-20 0.08386042698 6.317082515e-20 0.0005335522654)
(-0.07684636223 -0.0291859593 -6.980999559e-20 0.07629588544 8.771358905e-21 0.0005504767938)
(-0.06978080642 -0.02739361775 -2.019162381e-20 0.06922002588 6.287089393e-20 0.0005607805424)
(-0.06318314356 -0.02569951479 1.535529793e-19 0.06261919531 1.062061688e-20 0.0005639482451)
(-0.05703987902 -0.02411169316 1.199055645e-19 0.05648042885 1.832912539e-19 0.0005594501701)
(-0.05134268127 -0.02263856874 9.113887723e-20 0.0507960271 -9.495018026e-21 0.0005466541639)
(-0.04608440306 -0.02128419799 2.706451338e-20 0.04555947898 -7.21203744e-20 0.0005249240805)
(-0.04126643515 -0.02005597806 7.658700505e-20 0.04077289932 -1.332673934e-19 0.0004935358239)
(-0.03689054725 -0.01895736203 1.838062045e-19 0.03643877754 -1.034129477e-19 0.000451769701)
(-0.03296989332 -0.01799729236 7.433508706e-21 0.03257106157 -6.287586471e-21 0.0003988317496)
(-0.02951673998 -0.0171804459 -1.407033841e-19 0.02918280279 1.093714894e-20 0.0003339371913)
(-0.02655785113 -0.01651869874 2.198398897e-19 0.02630160649 -3.057435247e-20 0.0002562446451)
(-0.02411717367 -0.01602074969 6.633341895e-20 0.02395224544 1.290566469e-19 0.0001649282281)
(-0.0222410576 -0.01568918961 -2.02252074e-20 0.02218191124 -2.935503908e-20 5.914636757e-05)
(-0.1726559509 -0.04345143297 -4.48138472e-20 0.1726115631 5.75949637e-20 4.43877697e-05)
(-0.1651505071 -0.05020596105 -5.002651101e-20 0.1650298109 -2.364052818e-20 0.0001206961997)
(-0.1555733762 -0.05302579969 2.951445613e-20 0.1553841946 -6.030635514e-20 0.0001891815438)
(-0.1451790946 -0.05351533897 8.973305389e-20 0.1449281722 1.775473177e-20 0.0002509224631)
(-0.1346477326 -0.05262259642 5.775738137e-20 0.1343410653 3.692860579e-20 0.0003066673496)
(-0.1243323146 -0.05091810022 7.672249284e-20 0.1239755016 4.397860897e-20 0.0003568130502)
(-0.1144203692 -0.04875474066 1.352440051e-19 0.1140187515 2.93168752e-20 0.0004016177436)
(-0.104995909 -0.04635260022 2.534060567e-20 0.1045547863 1.246734872e-19 0.0004411227372)
(-0.09609469124 -0.04385137114 -6.612518927e-20 0.09561940608 3.344659065e-20 0.0004752851613)
(-0.08771914419 -0.04134043432 -2.502128171e-20 0.08721523006 2.454007839e-20 0.0005039141289)
(-0.07985977863 -0.03887663451 4.857646128e-20 0.07933301013 -8.552451647e-21 0.0005267684931)
(-0.07249834115 -0.03649777564 1.007780635e-20 0.07195486008 9.447534539e-21 0.0005434810647)
(-0.06561589738 -0.0342270535 3.256095487e-20 0.065062241 1.03687416e-19 0.0005536563858)
(-0.05919431537 -0.03208182898 1.829008729e-19 0.05863752995 4.318578939e-20 0.0005567854136)
(-0.05321769493 -0.03007173422 1.773561307e-19 0.05266534975 5.977206996e-20 0.0005523451792)
(-0.04767539326 -0.02820692016 -1.439571659e-19 0.04713568164 -2.62916826e-19 0.0005397116243)
(-0.04255904609 -0.02649224303 -8.078872613e-20 0.04204078917 -1.360257587e-19 0.0005182569166)
(-0.03786832384 -0.02493673452 9.855980886e-20 0.03738105715 3.869832777e-20 0.0004872666911)
(-0.03360424117 -0.02354462775 3.940692483e-20 0.03315821048 6.113187014e-20 0.0004460306835)
(-0.02977827575 -0.02232698325 1.045543357e-19 0.02938451039 2.552480242e-20 0.0003937653587)
(-0.02640201879 -0.02128965378 9.476908039e-20 0.02607232302 1.604735452e-19 0.0003296957641)
(-0.02350033359 -0.02044743962 2.738674003e-19 0.02324734285 1.654831359e-19 0.000252990744)
(-0.0210959276 -0.0198112378 1.175350925e-19 0.02093309332 -1.14297684e-20 0.0001628342814)
(-0.01923618386 -0.0193847835 -1.246258696e-19 0.01917778835 2.829122323e-19 5.839551274e-05)
(-0.1701329063 -0.05290634194 -5.301167261e-20 0.1700892334 1.538243002e-20 4.367286953e-05)
(-0.1607677576 -0.06048734677 -1.068088915e-19 0.1606490043 1.710554772e-20 0.0001187533438)
(-0.1501382252 -0.06353130205 1.130386187e-20 0.1499520876 -2.933449139e-20 0.000186137568)
(-0.1391872146 -0.06389590009 1.013068441e-19 0.1389403284 3.527365296e-20 0.0002468862191)
(-0.1284080264 -0.06267768828 7.867111973e-20 0.1281062892 7.746288606e-21 0.0003017372365)
(-0.1180389043 -0.06053552479 5.557439597e-20 0.1176878247 8.267323605e-22 0.0003510796327)
(-0.1081950564 -0.0578763633 1.762104436e-19 0.1077998885 6.64534784e-21 0.0003951679075)
(-0.09891399464 -0.05495338534 1.547406547e-19 0.09847995219 -4.723038427e-20 0.0004340424445)
(-0.09020121044 -0.05192696403 1.929556977e-20 0.08973354976 -1.607473799e-19 0.0004676606787)
(-0.08203889801 -0.04889933174 -4.684463452e-20 0.08154306353 1.216441974e-19 0.0004958344785)
(-0.07440423264 -0.04593530129 4.324060102e-22 0.07388590639 5.208251829e-20 0.0005183262416)
(-0.06726958956 -0.04307775418 1.648560296e-20 0.06673481522 5.2100286e-20 0.0005347743408)
(-0.06060995994 -0.04035285866 4.541454946e-21 0.0600651705 1.079073605e-19 0.0005447894331)
(-0.05440250257 -0.03778012801 6.895365926e-20 0.05385463231 1.340230721e-19 0.0005478702639)
(-0.04862846266 -0.03537028149 9.13539318e-21 0.04808496042 -9.854382939e-21 0.0005435022398)
(-0.0432744515 -0.03313473033 -2.431467244e-19 0.04274338027 6.92697104e-20 0.0005310712278)
(-0.03833066082 -0.03107887563 5.060683023e-20 0.03782070116 3.135103698e-19 0.0005099596565)
(-0.03379471177 -0.02921304345 1.973497599e-19 0.03331524671 2.115475875e-19 0.0004794650629)
(-0.02966671888 -0.02754210007 1.287007162e-19 0.02922783002 2.051234574e-19 0.0004388888581)
(-0.02595615569 -0.02607891331 3.500458011e-20 0.02556869517 2.264565238e-19 0.0003874605258)
(-0.02267380072 -0.02483039832 1.511702326e-20 0.02234938323 3.108167803e-19 0.0003244174906)
(-0.01984223534 -0.02381394661 6.040762463e-20 0.01959329381 4.59578285e-19 0.0002489415306)
(-0.01748267745 -0.02304244855 3.822978702e-19 0.01732244849 3.482086083e-19 0.0001602289594)
(-0.01564370716 -0.02252106809 -1.661716004e-20 0.01558624535 4.173835737e-19 5.746181299e-05)
(-0.1671072006 -0.06223816634 -2.332404489e-20 0.1670643796 -2.930062856e-20 4.282104381e-05)
(-0.1556488287 -0.07027234526 -1.14105015e-19 0.155532391 2.743375303e-21 0.0001164377556)
(-0.143840163 -0.07331800267 -2.536156246e-20 0.1436576538 -4.95668832e-21 0.0001825092244)
(-0.1322707952 -0.07342884021 1.372771877e-19 0.1320287205 -4.169504101e-20 0.0002420747125)
(-0.1212223506 -0.0718154492 1.014317555e-19 0.1209264914 -8.923405803e-20 0.0002958591479)
(-0.1108030474 -0.06920368619 2.070550212e-20 0.1104588046 7.056020834e-20 0.0003442428036)
(-0.1010462037 -0.06604105494 9.958796484e-20 0.100658728 2.210393533e-21 0.0003874757067)
(-0.09193671473 -0.06260507036 4.851029668e-20 0.09151111754 -2.212097985e-19 0.0004255971923)
(-0.08344584563 -0.05907104188 4.369631353e-20 0.08298728041 -8.02898841e-20 0.0004585652219)
(-0.07553293067 -0.0555501678 2.180065837e-19 0.07504673566 4.419446358e-20 0.0004861950144)
(-0.06816009062 -0.05211264488 -1.873306948e-22 0.06765183726 -1.111704238e-20 0.0005082533526)
(-0.06128913277 -0.04880459173 2.862432654e-20 0.06076474749 1.308524478e-19 0.0005243852847)
(-0.05488820521 -0.04565394106 8.136210661e-20 0.05435399641 2.190343204e-19 0.0005342088032)
(-0.04892916527 -0.04268141468 1.084004977e-19 0.04839193328 1.73700576e-19 0.0005372319961)
(-0.04339004948 -0.03989823625 1.989314286e-19 0.04285709936 7.135714263e-21 0.0005329501193)
(-0.03825437825 -0.03731652654 1.569510541e-20 0.03773361735 2.423404939e-19 0.0005207608992)
(-0.03351072055 -0.03494193588 5.723979671e-20 0.03301066177 7.400983198e-20 0.000500058777)
(-0.02915438299 -0.03278568976 7.024401365e-20 0.02868422758 -1.421895339e-21 0.0004701554142)
(-0.02518446183 -0.03085311658 2.224546402e-19 0.02475409579 -1.541630563e-20 0.0004303660422)
(-0.02160815494 -0.0291585301 3.494262362e-19 0.02122821926 5.111609304e-20 0.0003799356736)
(-0.01843531064 -0.02770977507 5.869448585e-19 0.01811719392 -6.460899067e-21 0.0003181167229)
(-0.01568590682 -0.02652644704 4.412034063e-19 0.01544180025 3.841096017e-19 0.0002441065626)
(-0.0133794573 -0.02562319104 4.157984115e-19 0.01322234059 2.808575175e-19 0.0001571167086)
(-0.01156584572 -0.02500692854 -1.096280568e-19 0.01150950043 -3.980932011e-20 5.634529721e-05)
(-0.1635806273 -0.07142239809 -1.140340668e-20 0.1635387923 -5.392449024e-21 4.18349132e-05)
(-0.1498643484 -0.07949590932 -8.151450806e-20 0.1497505916 -1.919123868e-20 0.000113756771)
(-0.1367914431 -0.08229702591 -3.424843623e-20 0.1366131352 -7.960606025e-20 0.0001783078714)
(-0.12456678 -0.08201179164 7.457962893e-20 0.1243302771 -1.039892817e-19 0.0002365029382)
(-0.1132415967 -0.079926523 1.8000589e-19 0.1129525453 -6.367019914e-20 0.0002890514084)
(-0.102782682 -0.07681037729 1.158932516e-19 0.1024463582 9.477226803e-20 0.0003363238229)
(-0.09313433124 -0.07313639758 -1.494920169e-20 0.09275576629 -1.291053776e-20 0.0003785649544)
(-0.08422429258 -0.06919669839 1.905902761e-20 0.08380847955 -1.179707295e-19 0.0004158130323)
(-0.07598668526 -0.06517514728 3.132826103e-20 0.07553865856 1.195070371e-19 0.0004480266927)
(-0.06835606487 -0.06118759578 8.068802948e-20 0.06788103968 2.717196271e-20 0.0004750251944)
(-0.06127824961 -0.05730675711 8.888251905e-20 0.06078166915 7.300138392e-20 0.0004965804576)
(-0.05470361944 -0.0535799455 2.37427549e-19 0.05419127404 1.061408484e-19 0.0005123454094)
(-0.04859293284 -0.05003551861 1.110174861e-19 0.04807098624 1.540441809e-19 0.0005219465994)
(-0.04291232731 -0.04669436026 -5.252301692e-20 0.04238742435 5.680398446e-20 0.0005249029663)
(-0.03763638453 -0.04356755296 6.037147612e-20 0.03711566332 5.200373656e-20 0.0005207212125)
(-0.03274529037 -0.04066731636 5.805660429e-20 0.03223647772 4.352717107e-20 0.0005088126503)
(-0.02822586715 -0.03799922253 -6.820857858e-20 0.02773728153 -4.581771709e-20 0.000488585622)
(-0.02407091352 -0.03557495785 1.232141234e-19 0.02361154558 -8.764919075e-20 0.0004593679398)
(-0.02027842058 -0.03340012265 1.420891844e-19 0.01985792981 -1.224452716e-19 0.0004204907762)
(-0.01685310302 -0.03149007454 1.610173069e-21 0.01648188591 -1.144600463e-19 0.00037121711)
(-0.01380378389 -0.02985344011 3.546958331e-19 0.01349296719 -2.398662586e-21 0.0003108166965)
(-0.01114758378 -0.02851158802 8.878429413e-19 0.01090907859 -4.432295325e-20 0.0002385051931)
(-0.00890213769 -0.02748065164 6.442448789e-19 0.008748626016 -3.281260571e-19 0.0001535116747)
(-0.007118673924 -0.02676967223 3.025048921e-20 0.007063621233 -1.781505761e-19 5.505269115e-05)
(-0.1595558497 -0.08043363213 4.805095722e-20 0.1595151321 -8.823252429e-20 4.071759454e-05)
(-0.1434920079 -0.08810437489 -7.477045743e-20 0.143381289 -9.680158006e-20 0.0001107188528)
(-0.1291151042 -0.09039834125 -2.263246201e-20 0.1289415574 -1.969506119e-19 0.0001735467514)
(-0.1162250862 -0.08956569112 -5.11400671e-21 0.1159948978 4.818103329e-20 0.0002301884285)
(-0.1046308475 -0.08692741007 1.782746708e-19 0.104349512 2.44019615e-20 0.0002813355077)
(-0.09415053202 -0.08327057185 2.07709579e-19 0.0938231843 2.151502133e-20 0.0003273477158)
(-0.08463493817 -0.07907768311 -1.11984709e-20 0.08426647431 -4.312545476e-20 0.0003684638612)
(-0.07595186517 -0.07464503629 -1.677182593e-20 0.07554714421 -1.143968817e-21 0.0004047209566)
(-0.06799650248 -0.07015823024 1.476729451e-19 0.06756042395 9.837089624e-20 0.0004360785282)
(-0.06067747855 -0.06573315543 6.944250257e-20 0.0602151181 1.662575077e-19 0.0004623604514)
(-0.05392357514 -0.06144197449 2.394531279e-20 0.05344023056 4.655996101e-20 0.0004833445818)
(-0.0476732526 -0.05733101472 1.63677123e-19 0.0471745598 7.280830753e-20 0.0004986928024)
(-0.04187957544 -0.05342762712 2.804602269e-19 0.04137153407 1.131668817e-19 0.000508041373)
(-0.03650273241 -0.04975173965 8.667454789e-20 0.03599181081 7.664263815e-20 0.0005109216022)
(-0.03151372169 -0.0463136042 1.189927992e-19 0.03100686863 1.488034594e-19 0.0005068530625)
(-0.02688926147 -0.04312488726 3.904137513e-20 0.02639399891 1.112310604e-19 0.0004952625673)
(-0.02261436329 -0.04019073292 -1.230173248e-19 0.02213878918 2.901088826e-20 0.00047557411)
(-0.01867920289 -0.0375228194 -2.439923372e-19 0.01823206904 1.230365695e-19 0.0004471338523)
(-0.01508061329 -0.03512681512 3.609355648e-20 0.01467132229 2.133568639e-19 0.0004092910007)
(-0.01182068873 -0.03301868999 1.859206582e-19 0.01145935985 2.373580531e-19 0.0003613288793)
(-0.00890715671 -0.03120769315 9.837087694e-20 0.008604619731 2.334212593e-19 0.0003025369791)
(-0.006354100365 -0.02971650302 -4.46734749e-20 0.006121948681 -5.638372846e-20 0.0002321516838)
(-0.004177145559 -0.02856245425 4.278640036e-19 0.004027723366 -2.587783766e-19 0.0001494221931)
(-0.002428835946 -0.02775709055 2.96468272e-19 0.002375250021 -3.377050263e-19 5.358592431e-05)
(-0.1550366343 -0.08924554537 8.85046971e-20 0.1549971618 -7.888525566e-20 3.947246896e-05)
(-0.1366146361 -0.09605632686 -3.306124578e-21 0.1365073027 -1.802104954e-19 0.000107333382)
(-0.1209417337 -0.09757216553 -7.831421071e-20 0.120773493 -8.73785152e-21 0.000168240654)
(-0.1074045817 -0.09603650117 5.436619437e-20 0.1071814309 1.42125347e-19 0.0002231508396)
(-0.09556490181 -0.09276237013 9.620529652e-20 0.0952921663 3.377128206e-20 0.000272735509)
(-0.0850893955 -0.08852842054 2.431155739e-19 0.08477205299 -4.141588187e-20 0.0003173425008)
(-0.07573369331 -0.08380994426 4.675756783e-20 0.07537648939 -5.087065328e-20 0.0003572039239)
(-0.06730466726 -0.07889660396 4.58105641e-21 0.06691231174 2.525388667e-20 0.000392355517)
(-0.05965799011 -0.07396865197 1.667404551e-19 0.05923523227 1.074618853e-19 0.0004227578445)
(-0.05267602753 -0.06913723652 1.400471178e-19 0.05222778749 1.317342515e-19 0.0004482400475)
(-0.04627033244 -0.06447079294 -1.454184849e-20 0.04580174579 4.182248197e-20 0.0004685866535)
(-0.04036734094 -0.06001240221 1.916499471e-19 0.0398838713 1.061611329e-19 0.0004834696402)
(-0.03491237415 -0.05578692763 3.169431699e-19 0.03441983797 -3.79441344e-20 0.0004925361811)
(-0.02985964296 -0.05181218497 2.261532972e-19 0.02936431158 -1.721178975e-19 0.0004953313802)
(-0.02517655728 -0.04809688324 2.832719359e-19 0.02468516804 -8.455086163e-20 0.0004913892424)
(-0.02083635083 -0.04465146115 1.885106502e-19 0.02035619713 -9.628970678e-20 0.0004801537076)
(-0.01682222289 -0.04148027365 6.357660201e-20 0.01636115664 -4.374054149e-20 0.0004610662427)
(-0.01312169389 -0.03859450478 2.738735856e-19 0.01268820063 -3.658881365e-20 0.0004334932595)
(-0.009730421554 -0.03599967987 -5.927658597e-20 0.009333617532 2.313265811e-19 0.0003968040223)
(-0.006647816639 -0.03371193247 -8.607017183e-21 0.006297512186 1.792932333e-19 0.0003503044523)
(-0.003880466989 -0.03174096767 1.683373987e-19 0.003587161022 3.118190482e-19 0.0002933059675)
(-0.001439315855 -0.03011029056 -1.699271015e-19 0.001214247623 2.722256069e-19 0.0002250682317)
(0.0006621040421 -0.0288381373 -4.351813494e-19 -0.0008069668869 -2.150505755e-19 0.0001448628449)
(0.002370038763 -0.02793894594 1.682539546e-19 -0.002421989462 -1.103001253e-19 5.1950699e-05)
(-0.1500280899 -0.09783092232 3.67422123e-20 0.1499899864 -5.613888366e-21 3.810348995e-05)
(-0.1293181646 -0.103323134 -5.40139645e-21 0.1292145536 -5.169772464e-20 0.0001036110466)
(-0.1124060483 -0.1037898053 -6.400613012e-20 0.1122436419 1.735979765e-19 0.0001624063606)
(-0.0982688378 -0.1013962344 4.976000517e-20 0.09805342535 7.648446286e-20 0.0002154124464)
(-0.08622355106 -0.09740454913 2.567862659e-20 0.08596027238 2.881209152e-22 0.0002632786858)
(-0.07578717185 -0.09255842906 2.715471608e-19 0.07548083191 -1.146243802e-19 0.0003063399455)
(-0.06662136114 -0.08730915152 1.529532655e-19 0.06627654019 -8.859504866e-20 0.0003448209442)
(-0.05847295094 -0.08192886834 1.618644816e-19 0.05809419489 -1.303321955e-19 0.0003787560412)
(-0.0511587356 -0.07658536273 3.2131366e-19 0.05075062857 -4.517684245e-20 0.0004081070233)
(-0.04453531324 -0.07138023229 3.543847016e-19 0.0441026044 -9.558740321e-20 0.0004327088362)
(-0.03849736992 -0.06637499195 3.68821462e-20 0.03804501652 -3.804208906e-20 0.0004523534035)
(-0.03295960877 -0.06160720711 3.736655934e-20 0.03249288493 1.118351778e-20 0.0004667238408)
(-0.02785981893 -0.05709776683 9.858882956e-20 0.02738433959 -7.99673269e-20 0.0004754793366)
(-0.02314640851 -0.05286121468 2.910364814e-20 0.02266822818 -9.427865766e-20 0.0004781803291)
(-0.01878332093 -0.04890400269 8.915726933e-20 0.01830894424 1.90870418e-19 0.0004743766902)
(-0.01474040792 -0.04523466523 6.752587954e-20 0.01427687653 1.824784175e-19 0.0004635313929)
(-0.01099911924 -0.04185640602 -9.587800307e-20 0.01055401413 -6.735989563e-20 0.0004451051047)
(-0.007544372138 -0.0387794263 1.15088051e-19 0.007125885618 -2.209471635e-20 0.0004184865196)
(-0.00437066822 -0.03600889568 5.016768977e-19 0.003987601312 3.624104137e-19 0.0003830669071)
(-0.001474747847 -0.03356065847 2.5808997e-19 0.00113657098 2.084115851e-19 0.0003381768667)
(0.001137957795 -0.03144470626 6.244693187e-19 -0.001421109677 6.158085047e-20 0.0002831518813)
(0.003459668219 -0.02968488117 2.200127576e-19 -0.00367694527 -4.452027869e-19 0.0002172770508)
(0.005478979401 -0.02830001561 -4.837686713e-19 -0.005618828008 -4.531298492e-19 0.0001398486066)
(0.007141107789 -0.02730782843 -9.190151057e-20 -0.007191260558 2.540315977e-20 5.015276915e-05)
(-0.1445369064 -0.1061617284 2.116265008e-20 0.1445002915 5.470850617e-20 3.661489494e-05)
(-0.1216895399 -0.1098891417 -7.438206018e-21 0.1215899764 7.171191905e-20 9.956347632e-05)
(-0.10364339 -0.1090439209 -5.120009199e-20 0.1034873278 1.774203849e-19 0.0001560621729)
(-0.08898177562 -0.1056432581 4.400610802e-20 0.08877477805 8.191026272e-21 0.0002069975711)
(-0.0767867384 -0.1008563044 -6.207708239e-20 0.07653374361 -5.404946792e-20 0.0002529947955)
(-0.06643176573 -0.09536579193 1.129989141e-19 0.06613739103 -5.833063797e-20 0.0002943747021)
(-0.05748860079 -0.08958254725 1.123214458e-19 0.05715724686 -8.700305755e-20 0.000331353922)
(-0.04964677793 -0.0837505732 -6.146321168e-20 0.04928281256 -7.260822616e-20 0.0003639653722)
(-0.0426860689 -0.07801822378 1.446300721e-19 0.04229389669 -1.000191448e-21 0.0003921722061)
(-0.03643862592 -0.07247285169 3.205568253e-19 0.03602281015 2.188302934e-22 0.0004158157645)
(-0.03078318073 -0.06716593617 2.932927729e-19 0.03034848466 -2.129702215e-20 0.0004346960704)
(-0.0256233882 -0.06212731535 1.253590329e-19 0.02517487978 8.598901342e-20 0.0004485084157)
(-0.02088997611 -0.05737245652 8.382427214e-20 0.02043305095 8.142899978e-20 0.0004569251533)
(-0.01652592746 -0.05291150209 2.319240276e-19 0.0160664041 8.020199032e-20 0.0004595233688)
(-0.0124919666 -0.04874795321 4.347731141e-19 0.01203609631 2.664839346e-19 0.0004558702936)
(-0.00875478382 -0.04488778131 3.250408886e-19 0.008309334346 -1.871555816e-19 0.0004454494745)
(-0.005294205703 -0.0413326871 -8.265857531e-20 0.004866463189 -3.283289006e-19 0.000427742514)
(-0.002092682374 -0.03809141192 1.327511696e-19 0.001690520162 2.995221198e-20 0.0004021622122)
(0.0008563853239 -0.03516856195 5.749710538e-19 -0.001224509075 -1.072031458e-19 0.0003681237511)
(0.003558838635 -0.03257924784 1.466958364e-19 -0.003883823155 -4.035351955e-19 0.0003249845203)
(0.006010393027 -0.03033358001 -2.230719777e-21 -0.006282499146 -4.844201167e-19 0.0002721061194)
(0.008206374025 -0.02845525446 2.030460157e-19 -0.00841517543 -6.218009621e-19 0.0002088014057)
(0.01013749402 -0.02696339746 -2.54793219e-19 -0.01027188747 -7.832625386e-20 0.0001343934458)
(0.01174819653 -0.02587937695 4.489336742e-20 -0.01179639288 1.818670724e-19 4.819634617e-05)
(-0.138571593 -0.1142092242 1.466850471e-20 0.1385365816 8.177021343e-20 3.501142516e-05)
(-0.1138146422 -0.1157515168 5.349800803e-20 0.1137194387 6.977061974e-20 9.520349532e-05)
(-0.09478623478 -0.1133482031 -4.839921987e-20 0.09463700657 1.42526222e-19 0.0001492282028)
(-0.07970333156 -0.1088018677 9.562186917e-20 0.07950539865 -1.183007411e-19 0.0001979329091)
(-0.06742973879 -0.1031487172 -5.170456194e-20 0.06718782229 -7.266495854e-20 0.0002419165042)
(-0.05720601395 -0.09698587037 2.629207767e-20 0.05692452913 4.679695605e-20 0.0002814848188)
(-0.04852079019 -0.09066810676 1.655564713e-19 0.04820394446 -1.49721562e-20 0.0003168457335)
(-0.04101083754 -0.0844011947 4.612500505e-20 0.04066280691 2.103579574e-20 0.0003480306223)
(-0.0344219371 -0.07830746531 1.448132256e-20 0.03404693295 1.256081281e-19 0.0003750041525)
(-0.02856391399 -0.07245558441 1.036723843e-19 0.02816629943 1.332654608e-19 0.000397614567)
(-0.02330098954 -0.06688405052 1.998581074e-19 0.0228853189 1.981401012e-20 0.0004156706437)
(-0.01852683472 -0.06161288638 2.850074184e-19 0.01809795384 6.977127977e-20 0.0004288808801)
(-0.01416583624 -0.05665077254 2.349238924e-19 0.0137289044 -2.096422793e-19 0.0004369318405)
(-0.01015612533 -0.05200238665 -3.71848644e-20 0.009716706571 -5.628899128e-20 0.0004394187623)
(-0.00645557585 -0.04766762621 3.459431334e-19 0.006019648264 -2.114434451e-19 0.0004359275863)
(-0.003028051271 -0.04364927925 1.1472432e-19 0.002602087099 -3.939193217e-19 0.0004259641721)
(0.0001480571423 -0.03994721255 2.815301647e-20 -0.0005570897643 -2.099150323e-19 0.000409032622)
(0.003092549511 -0.03656825627 -8.644269208e-20 -0.003477121121 -6.912692315e-20 0.0003845716097)
(0.005813035394 -0.03351625622 1.401721968e-19 -0.006165057398 4.747539049e-20 0.0003520220042)
(0.008317775993 -0.03080516614 2.785550191e-19 -0.008628545838 -1.637786608e-19 0.0003107698456)
(0.0106035973 -0.02844505376 -8.881375372e-20 -0.01086380217 -2.832031867e-22 0.0002602048677)
(0.01266879714 -0.02645900571 -3.075712294e-20 -0.01286846688 -6.124573263e-22 0.0001996697443)