/*--------------------------------*- C++ -*----------------------------------*\
| =========                 |                                                 |
| \\      /  F ield         | foam-extend: Open Source CFD                    |
|  \\    /   O peration     | Version:  3.0                                   |
|   \\  /    A nd           | Web:         http://www.extend-project.de       |
|    \\/     M anipulation  |                                                 |
\*---------------------------------------------------------------------------*/
FoamFile
{
    version     2.0;
    format      ascii;
    class       volScalarField;
    location    "1";
    object      p;
}
// * * * * * * * * * * * * * * * * * * * * * * * * * * * * * * * * * * * * * //

dimensions      [0 0 0 0 0 0 0];

internalField   nonuniform List<scalar> 
900
(
-0.195107
-0.16241
-0.147846
-0.129615
-0.123817
-0.115426
-0.116144
-0.116356
-0.121902
-0.12933
-0.136948
-0.148219
-0.155897
-0.167221
-0.17548
-0.193319
-0.160726
-0.14624
-0.128123
-0.122442
-0.114204
-0.115097
-0.115534
-0.121333
-0.129076
-0.136954
-0.148525
-0.156069
-0.167153
-0.173994
-0.186918
-0.155337
-0.141355
-0.123883
-0.118516
-0.110745
-0.111885
-0.1127
-0.118734
-0.126807
-0.134857
-0.146614
-0.153902
-0.164588
-0.170148
-0.181799
-0.151191
-0.137811
-0.121053
-0.116164
-0.108952
-0.110484
-0.111715
-0.118058
-0.126391
-0.134609
-0.146419
-0.153436
-0.163695
-0.167763
-0.172426
-0.143614
-0.131205
-0.115629
-0.111371
-0.104973
-0.106922
-0.108666
-0.115269
-0.123879
-0.132273
-0.144306
-0.151433
-0.16204
-0.165489
-0.163937
-0.136891
-0.125509
-0.111144
-0.1076
-0.102027
-0.10443
-0.106609
-0.113401
-0.122029
-0.13037
-0.142075
-0.148891
-0.158962
-0.161716
-0.151703
-0.127111
-0.117052
-0.104278
-0.10156
-0.0970079
-0.0998535
-0.102498
-0.109353
-0.117834
-0.125836
-0.136734
-0.142744
-0.15136
-0.153365
-0.139845
-0.117688
-0.108965
-0.097775
-0.0958923
-0.0923269
-0.0955914
-0.098615
-0.105473
-0.113678
-0.121317
-0.131362
-0.136763
-0.144258
-0.146085
-0.12489
-0.10568
-0.0985005
-0.0891741
-0.0882021
-0.085774
-0.0894646
-0.0929461
-0.0997961
-0.107795
-0.115092
-0.124425
-0.129262
-0.135858
-0.137112
-0.109772
-0.0935017
-0.0878365
-0.0803351
-0.0802189
-0.0788575
-0.0828952
-0.0867433
-0.0935139
-0.101239
-0.108184
-0.116828
-0.12111
-0.126847
-0.127094
-0.0923198
-0.0793003
-0.0752547
-0.0697326
-0.0704917
-0.0702676
-0.0746388
-0.078893
-0.0855878
-0.0931106
-0.0997682
-0.107882
-0.111673
-0.116698
-0.11556
-0.0742198
-0.0644516
-0.0619578
-0.0583476
-0.0598609
-0.060658
-0.065203
-0.069718
-0.0761697
-0.0833527
-0.0895986
-0.0971132
-0.100352
-0.104697
-0.101922
-0.0546375
-0.0482231
-0.0472766
-0.0455904
-0.0478008
-0.0495664
-0.054197
-0.0588715
-0.0649881
-0.0717123
-0.077506
-0.0843702
-0.0872013
-0.091084
-0.0872053
-0.0340441
-0.0309915
-0.0314957
-0.0316453
-0.0343791
-0.0369585
-0.0414376
-0.0460572
-0.0515395
-0.0575024
-0.0624652
-0.0681902
-0.0701488
-0.072803
-0.0678624
-0.0128885
-0.0131037
-0.0149524
-0.0168151
-0.0199413
-0.0231607
-0.0273223
-0.031641
-0.0362881
-0.04115
-0.0450532
-0.0491806
-0.0500426
-0.0509237
-0.0451085
0.00947264
0.00597263
0.00288717
-0.000598635
-0.00392809
-0.00763855
-0.0112441
-0.0150957
-0.0186662
-0.0223193
-0.025045
-0.0277159
-0.0277738
-0.0276129
-0.0216854
0.0314304
0.0249049
0.0207646
0.0158799
0.012521
0.00856381
0.00570946
0.00262052
0.000336222
-0.00177143
-0.00317067
-0.00412964
-0.00346607
-0.00235673
0.00343247
0.0546018
0.0450228
0.039928
0.0337202
0.0305035
0.0264232
0.0245252
0.0223324
0.0215506
0.0211127
0.0212433
0.0221038
0.0235702
0.025612
0.0308101
0.0763837
0.0641361
0.0583083
0.0510556
0.0481524
0.0441936
0.0434187
0.04238
0.0432907
0.0448536
0.0467564
0.049934
0.0524362
0.0560405
0.0598939
0.0992124
0.0842561
0.077774
0.0695287
0.0670698
0.0633194
0.0638053
0.0640055
0.0667445
0.0704222
0.0743365
0.0802258
0.0844437
0.090838
0.0943682
0.119677
0.102485
0.0955772
0.0866296
0.0847418
0.081375
0.0831784
0.084668
0.0891862
0.0948054
0.10045
0.108403
0.113657
0.12146
0.124498
0.140885
0.121404
0.114116
0.10449
0.103253
0.100319
0.103494
0.106272
0.112501
0.119842
0.126833
0.136041
0.141393
0.148816
0.150989
0.158806
0.13757
0.13012
0.120102
0.119597
0.117224
0.121774
0.12584
0.133751
0.142739
0.151127
0.161656
0.167557
0.175334
0.177858
0.177085
0.154023
0.14641
0.135989
0.136244
0.134464
0.14043
0.145869
0.155519
0.166321
0.176197
0.188351
0.19485
0.203351
0.205408
0.191257
0.166946
0.159367
0.148822
0.14987
0.148783
0.156124
0.162929
0.174294
0.186903
0.198356
0.21226
0.219495
0.228896
0.229901
0.205388
0.179725
0.172117
0.16137
0.163155
0.162706
0.171372
0.179536
0.192602
0.207116
0.220206
0.236105
0.244093
0.254575
0.253791
0.21475
0.188342
0.180876
0.170189
0.172681
0.172923
0.182778
0.19222
0.206825
0.223114
0.237745
0.255586
0.264325
0.275991
0.273088
0.22372
0.196427
0.188965
0.178173
0.181202
0.181925
0.192747
0.2032
0.21909
0.236851
0.252824
0.272397
0.281978
0.295044
0.290786
0.227479
0.199922
0.192609
0.181955
0.185429
0.186635
0.198173
0.209439
0.226227
0.245041
0.261824
0.282364
0.292106
0.305362
0.299852
0.230599
0.20261
0.19525
0.184495
0.188149
0.189487
0.201373
0.212945
0.230159
0.249324
0.266374
0.286966
0.296356
0.308772
0.302254
0.228332
0.200533
0.193256
0.182633
0.186348
0.187816
0.199774
0.211498
0.228796
0.24814
0.265272
0.286059
0.295532
0.308154
0.301796
0.225324
0.197543
0.190134
0.179379
0.182855
0.184055
0.195673
0.206985
0.223877
0.242707
0.259514
0.279914
0.289461
0.302284
0.296384
0.217044
0.189892
0.182474
0.171818
0.17494
0.175876
0.186889
0.197638
0.213766
0.231828
0.247939
0.267666
0.277102
0.290035
0.285184
0.208085
0.181413
0.1738
0.163016
0.165523
0.165858
0.175905
0.185606
0.200507
0.217115
0.231989
0.250097
0.258958
0.270934
0.268159
0.194262
0.168652
0.16097
0.15028
0.152082
0.15183
0.160699
0.169219
0.182594
0.197444
0.210596
0.226314
0.233508
0.242595
0.240392
0.179971
0.155323
0.147449
0.136711
0.137647
0.136627
0.144129
0.151301
0.163029
0.17615
0.187774
0.201757
0.208097
0.216043
0.214617
0.161489
0.138339
0.130401
0.119825
0.119835
0.118063
0.124059
0.129822
0.139848
0.151357
0.16181
0.174945
0.181603
0.190713
0.190501
0.142868
0.121167
0.113123
0.102653
0.101674
0.0990871
0.10348
0.107768
0.115951
0.125754
0.134771
0.146719
0.15292
0.161976
0.161213
0.120941
0.101169
0.0931556
0.0829847
0.0809815
0.0775581
0.0801843
0.0827607
0.0888304
0.0964515
0.103692
0.113737
0.119237
0.127469
0.127186
0.0992629
0.0814166
0.0734659
0.0636165
0.0606163
0.0563773
0.057212
0.0580466
0.0618604
0.0671269
0.0722746
0.080007
0.0844822
0.0914713
0.0924346
0.0753151
0.0598136
0.0520894
0.0427661
0.0388016
0.0337794
0.0327413
0.0316656
0.0330133
0.0355007
0.0382304
0.0429877
0.0462327
0.0514704
0.0546006
0.051986
0.038861
0.0314646
0.0227599
0.0179607
0.0122709
0.00947471
0.00658264
0.00551367
0.00523094
0.00548365
0.00711622
0.00901141
0.0122061
0.0179428
0.0275081
0.0171089
0.0102378
0.00239012
-0.0031031
-0.00928097
-0.0137224
-0.0182948
-0.0216926
-0.0246615
-0.0268728
-0.0284263
-0.0281819
-0.0275718
-0.0203084
0.00391795
-0.00369488
-0.00988498
-0.016725
-0.0226873
-0.0291437
-0.034948
-0.0409287
-0.046291
-0.0515273
-0.0556624
-0.0595824
-0.0601879
-0.0606971
-0.0520327
-0.0196802
-0.0242563
-0.0295543
-0.0351363
-0.0413383
-0.0477679
-0.0546529
-0.0616279
-0.0685955
-0.0755069
-0.081112
-0.0865307
-0.0874926
-0.0880062
-0.0783295
-0.0422884
-0.043745
-0.0479672
-0.0521119
-0.0582866
-0.0644558
-0.0720929
-0.0798219
-0.0880636
-0.0965218
-0.103478
-0.110728
-0.112678
-0.11465
-0.105456
-0.0638051
-0.0620336
-0.0650019
-0.0675099
-0.0734093
-0.0790003
-0.0870635
-0.0950857
-0.104233
-0.113678
-0.121733
-0.130411
-0.133533
-0.137226
-0.128934
-0.0844319
-0.079331
-0.0808626
-0.0815506
-0.0869168
-0.0917006
-0.0998673
-0.107932
-0.117608
-0.127779
-0.13654
-0.146388
-0.150478
-0.155829
-0.149106
-0.102957
-0.0946039
-0.0946064
-0.0933967
-0.0980396
-0.101805
-0.109804
-0.11755
-0.127408
-0.137735
-0.146771
-0.156902
-0.161566
-0.167474
-0.163665
-0.120893
-0.109166
-0.10748
-0.104201
-0.107914
-0.110457
-0.11804
-0.125238
-0.134962
-0.145098
-0.153841
-0.163341
-0.167188
-0.171225
-0.168348
-0.135843
-0.121032
-0.117685
-0.112426
-0.115128
-0.116442
-0.123511
-0.13017
-0.139791
-0.150004
-0.158896
-0.168815
-0.173027
-0.177561
-0.175949
-0.15066
-0.132622
-0.127493
-0.120102
-0.12166
-0.121578
-0.128001
-0.134001
-0.143518
-0.153991
-0.163509
-0.17499
-0.180972
-0.188836
-0.188879
-0.161759
-0.140995
-0.134234
-0.124956
-0.125374
-0.124018
-0.129741
-0.135155
-0.144486
-0.155249
-0.165189
-0.177964
-0.184881
-0.194701
-0.194273
-0.173257
-0.149611
-0.141151
-0.129864
-0.129076
-0.126275
-0.131169
-0.135693
-0.144599
-0.15511
-0.165097
-0.1783
-0.18578
-0.196513
-0.196672
-0.180484
-0.15464
-0.144736
-0.131806
-0.129878
-0.125821
-0.129821
-0.13349
-0.141761
-0.151844
-0.161487
-0.174647
-0.182325
-0.193508
-0.195268
-0.188618
-0.16043
-0.14909
-0.134465
-0.131442
-0.126058
-0.129165
-0.131775
-0.139278
-0.148458
-0.157434
-0.169747
-0.177305
-0.188178
-0.192392
-0.192116
-0.162413
-0.149976
-0.134124
-0.130136
-0.123694
-0.125908
-0.127574
-0.134201
-0.142437
-0.150533
-0.161759
-0.168965
-0.179132
-0.186329
-0.196916
-0.165578
-0.152133
-0.135091
-0.130321
-0.122929
-0.124476
-0.125331
-0.131313
-0.138712
-0.146063
-0.156125
-0.162609
-0.171283
-0.179778
-0.196904
-0.164857
-0.150804
-0.133113
-0.127756
-0.119769
-0.120769
-0.121113
-0.126628
-0.133646
-0.1407
-0.150614
-0.157237
-0.166269
-0.175712
-0.198407
-0.165562
-0.151035
-0.132793
-0.127107
-0.118739
-0.119541
-0.119704
-0.125208
-0.132383
-0.139775
-0.150505
-0.158022
-0.168846
-0.178525
)
;

boundaryField
{
    out
    {
        type            implicitExtrapolation;
    }
    in
    {
        type            implicitExtrapolation;
    }
    frontAndBack
    {
        type            empty;
    }
}


// ************************************************************************* //
