/*--------------------------------*- C++ -*----------------------------------*\
| =========                 |                                                 |
| \\      /  F ield         | foam-extend: Open Source CFD                    |
|  \\    /   O peration     | Version:  3.0                                   |
|   \\  /    A nd           | Web:         http://www.extend-project.de       |
|    \\/     M anipulation  |                                                 |
\*---------------------------------------------------------------------------*/
FoamFile
{
    version     2.0;
    format      ascii;
    class       volVectorField;
    location    "8";
    object      s;
}
// * * * * * * * * * * * * * * * * * * * * * * * * * * * * * * * * * * * * * //

dimensions      [0 1 -1 0 0 0 0];

internalField   nonuniform List<vector> 
3012
(
(-2.14925 0.145213 0)
(-1.76759 -0.181942 0)
(-2.51091 0.194969 0)
(-1.68102 0.198448 0)
(-3.08662 0.449134 0)
(-2.06963 0.24958 0)
(-2.98813 -0.232748 0)
(-2.7696 0.136599 0)
(-1.94615 0.263269 0)
(-2.13085 -0.339901 0)
(-1.82469 -0.0294945 0)
(-2.18223 0.498058 0)
(-1.2134 -0.0835422 0)
(-1.92079 0.0967825 0)
(-2.17776 0.0949384 0)
(-1.17104 0.174753 0)
(-3.07346 0.391696 0)
(-2.09006 0.306542 0)
(-2.91517 -0.273176 0)
(-2.78112 0.137932 0)
(-1.23319 0.471389 0)
(-1.59702 -0.201952 0)
(-1.81102 -0.319543 0)
(-1.17193 0.324709 0)
(-2.60111 0.0733383 0)
(-1.91052 -0.0822374 0)
(-1.88434 0.331071 0)
(-2.18391 0.0784718 0)
(-1.80351 0.350991 0)
(-2.00862 0.448425 0)
(-1.31235 -0.11405 0)
(-1.47238 -0.382306 0)
(-1.2515 -0.0903306 0)
(-2.02579 0.407203 0)
(-1.81681 0.326546 0)
(-1.39126 -0.355448 0)
(-2.02935 -0.121081 0)
(-2.6442 0.0904911 0)
(-2.19715 0.0808449 0)
(-1.99191 0.325481 0)
(-1.10647 -0.0697776 0)
(-2.09001 0.0876238 0)
(-1.06467 0.16694 0)
(-1.85436 0.0908705 0)
(-1.2351 -0.0469776 0)
(-1.35782 -0.314954 0)
(-1.85452 0.292917 0)
(-2.07618 0.360943 0)
(-1.20169 -0.313445 0)
(-1.95268 0.355387 0)
(-1.75811 0.301247 0)
(-1.09321 -0.0737168 0)
(-2.13747 0.144707 0)
(-1.70114 -0.169686 0)
(-1.61959 0.198936 0)
(-2.48891 0.18687 0)
(-2.65406 -0.277446 0)
(-2.16788 0.471311 0)
(-3.00214 0.302921 0)
(-2.78742 0.122249 0)
(-2.68482 -0.306185 0)
(-2.14565 0.426286 0)
(-2.9965 0.325634 0)
(-2.81201 0.114295 0)
(-1.24241 -0.0354946 0)
(-1.93737 0.0545716 0)
(-2.2058 0.0361616 0)
(-1.21594 0.222985 0)
(-2.05458 -0.117515 0)
(-1.14386 0.327319 0)
(-1.13909 0.123289 0)
(-1.8137 -0.0621055 0)
(-1.73707 0.507274 0)
(-1.49254 -0.43669 0)
(-1.31085 -0.205279 0)
(-1.58565 0.397858 0)
(-1.63026 0.380383 0)
(-1.79132 0.464494 0)
(-1.3447 -0.415166 0)
(-1.1917 -0.183105 0)
(-1.33273 -0.0295853 0)
(-1.98453 0.049406 0)
(-1.31039 0.247043 0)
(-2.27332 0.0267753 0)
(-2.03671 -0.0148703 0)
(-1.05113 0.245546 0)
(-1.0715 0.0349069 0)
(-1.80662 0.0112291 0)
(-1.16098 -0.126399 0)
(-1.92745 0.418664 0)
(-1.7384 0.345692 0)
(-1.29393 -0.372004 0)
(-2.18537 -0.334647 0)
(-1.94926 0.251104 0)
(-1.86148 -0.026176 0)
(-2.18418 0.502556 0)
(-2.11929 0.0635902 0)
(-2.25916 0.437606 0)
(-2.09691 0.0227575 0)
(-2.59459 -0.13548 0)
(-2.02881 -0.133768 0)
(-1.12531 0.335111 0)
(-1.11852 0.138093 0)
(-1.79313 -0.0756145 0)
(-1.69874 0.512763 0)
(-1.30097 -0.214031 0)
(-1.48352 -0.441114 0)
(-1.55384 0.403664 0)
(-1.73308 -0.360563 0)
(-1.19845 0.348894 0)
(-1.53026 -0.227972 0)
(-1.27411 0.48698 0)
(-1.88301 0.240267 0)
(-2.11581 0.287032 0)
(-1.28272 -0.253976 0)
(-1.18686 0.0130845 0)
(-1.4478 -0.442659 0)
(-1.2742 -0.252418 0)
(-1.47527 0.538279 0)
(-1.36061 0.423762 0)
(-1.67198 -0.156482 0)
(-1.03146 0.231032 0)
(-1.0509 0.369309 0)
(-1.87481 -0.231949 0)
(-2.41913 -0.138955 0)
(-2.24533 0.036669 0)
(-2.72683 0.192477 0)
(-2.23476 0.386566 0)
(-2.96866 0.116285 0)
(-2.58367 0.748036 0)
(-2.94019 0.0865977 0)
(-2.36251 -0.295021 0)
(-2.49753 -0.131871 0)
(-2.22674 0.0300285 0)
(-2.34472 0.436923 0)
(-2.76186 0.15712 0)
(-2.96105 0.154501 0)
(-3.00043 0.12483 0)
(-2.50059 0.770717 0)
(-2.42688 -0.342782 0)
(-2.59043 0.107686 0)
(-1.80897 0.299328 0)
(-2.17855 0.0930208 0)
(-1.85549 -0.110348 0)
(-2.95738 0.237838 0)
(-2.30707 0.55219 0)
(-2.4875 -0.280412 0)
(-2.83504 0.057789 0)
(-2.8963 0.249142 0)
(-2.29461 0.562426 0)
(-2.41169 -0.20889 0)
(-2.76768 0.0331589 0)
(-1.01384 -0.028393 0)
(-1.75099 0.253347 0)
(-1.09849 -0.258192 0)
(-1.94984 0.292257 0)
(-1.24215 -0.329354 0)
(-1.96463 0.375888 0)
(-1.76748 0.314791 0)
(-1.12501 -0.084145 0)
(-1.67879 -0.383379 0)
(-1.48228 -0.238206 0)
(-1.32053 0.505471 0)
(-1.2348 0.371063 0)
(-2.20749 0.0798802 0)
(-2.30747 -0.118623 0)
(-2.72031 0.0678133 0)
(-2.299 0.38569 0)
(-1.26512 -0.109117 0)
(-2.00145 0.429226 0)
(-1.79784 0.342488 0)
(-1.41332 -0.373213 0)
(-2.82708 0.340507 0)
(-2.71716 -0.0136186 0)
(-2.41976 -0.169771 0)
(-2.1738 0.42044 0)
(-2.34626 -0.0581291 0)
(-2.78709 0.316083 0)
(-2.2337 0.40903 0)
(-2.63663 -0.0849613 0)
(-2.20007 0.0841827 0)
(-2.33507 -0.150617 0)
(-2.73352 0.0914778 0)
(-2.3036 0.38547 0)
(-1.56993 0.509999 0)
(-1.76846 -0.168447 0)
(-1.46898 0.301514 0)
(-2.04598 -0.333857 0)
(-1.52016 0.333813 0)
(-1.97563 -0.374388 0)
(-1.64263 0.528432 0)
(-1.70984 -0.183132 0)
(-1.71498 -0.37294 0)
(-1.51272 -0.231959 0)
(-1.3113 0.502863 0)
(-1.22887 0.364297 0)
(-1.57424 -0.379188 0)
(-2.07375 0.450274 0)
(-1.85373 0.33978 0)
(-1.40207 -0.0947644 0)
(-1.23291 -0.0097978 0)
(-1.92302 0.038444 0)
(-1.21126 0.241116 0)
(-2.18794 0.0143077 0)
(-1.24087 -0.103911 0)
(-2.19345 0.117584 0)
(-1.93362 0.112947 0)
(-1.1922 0.160385 0)
(-1.03816 -0.204783 0)
(-1.94035 0.232602 0)
(-0.972029 0.0189781 0)
(-1.74103 0.205829 0)
(-1.05011 0.247046 0)
(-1.67223 -0.159741 0)
(-1.88258 -0.238601 0)
(-1.07124 0.39657 0)
(-2.26955 -0.00310895 0)
(-1.32045 0.270774 0)
(-1.33373 -0.000679063 0)
(-1.97881 0.0287948 0)
(-1.48043 -0.454026 0)
(-1.36312 0.421965 0)
(-1.30219 -0.26246 0)
(-1.47889 0.539634 0)
(-1.31714 -0.128538 0)
(-1.77493 0.356827 0)
(-1.48033 -0.391932 0)
(-1.97138 0.456494 0)
(-1.09813 0.244224 0)
(-1.68193 -0.150284 0)
(-1.12773 0.399783 0)
(-1.89699 -0.235204 0)
(-1.34394 -0.246434 0)
(-1.50434 0.527384 0)
(-1.38734 0.407637 0)
(-1.52593 -0.439462 0)
(-2.04219 0.466547 0)
(-1.59976 -0.389795 0)
(-1.41865 -0.109818 0)
(-1.83002 0.34951 0)
(-1.23742 0.466159 0)
(-1.62649 -0.192084 0)
(-1.84528 -0.307676 0)
(-1.17883 0.313235 0)
(-1.20418 0.34071 0)
(-1.78166 -0.343808 0)
(-1.27604 0.486014 0)
(-1.57046 -0.215156 0)
(-1.61278 0.515798 0)
(-1.77557 -0.164317 0)
(-1.50473 0.303702 0)
(-2.05734 -0.337821 0)
(-1.53525 0.319252 0)
(-1.65685 0.52375 0)
(-2.02247 -0.363872 0)
(-1.7464 -0.174327 0)
(-2.45824 -0.231561 0)
(-1.94649 0.144346 0)
(-2.03287 -0.00196831 0)
(-2.12113 0.498482 0)
(-1.09454 -0.143716 0)
(-1.67198 0.350947 0)
(-1.22042 -0.373605 0)
(-1.84244 0.41687 0)
(-1.03237 -0.057484 0)
(-2.01027 0.0824993 0)
(-0.992838 0.160659 0)
(-1.79236 0.0856366 0)
(-1.70918 0.519222 0)
(-1.58116 0.303889 0)
(-1.7764 -0.159182 0)
(-2.06486 -0.354849 0)
(-1.1427 -0.0714862 0)
(-2.10772 0.0897409 0)
(-1.10014 0.168393 0)
(-1.86823 0.092637 0)
(-1.20959 -0.0573171 0)
(-1.91919 0.0765595 0)
(-2.17841 0.0683901 0)
(-1.17329 0.196848 0)
(-2.17334 0.112212 0)
(-1.82498 -0.165858 0)
(-1.76101 0.23984 0)
(-2.5658 0.142594 0)
(-1.0009 -0.0136148 0)
(-1.95131 0.275062 0)
(-1.75091 0.239088 0)
(-1.08 -0.241561 0)
(-2.70272 -0.108322 0)
(-2.18618 0.0383449 0)
(-2.63974 0.491931 0)
(-2.77599 0.0811127 0)
(-2.82434 -0.135905 0)
(-2.7981 0.498015 0)
(-2.16123 0.0686877 0)
(-2.79346 0.0755953 0)
(-1.20244 -0.0484712 0)
(-1.84564 0.29126 0)
(-1.3203 -0.313102 0)
(-2.06494 0.355078 0)
(-1.75914 0.52924 0)
(-1.62197 0.312239 0)
(-1.77327 -0.153578 0)
(-2.06424 -0.359846 0)
(-1.27145 -0.269959 0)
(-1.85963 0.25893 0)
(-2.085 0.310526 0)
(-1.16986 -0.00791814 0)
(-2.16786 0.108057 0)
(-1.83025 -0.137701 0)
(-1.76821 0.259719 0)
(-2.56024 0.138572 0)
(-2.4595 -0.213675 0)
(-1.90875 0.130601 0)
(-2.03965 -0.0138554 0)
(-2.05655 0.479551 0)
(-1.80604 -0.412736 0)
(-1.59751 0.537653 0)
(-1.47344 0.375424 0)
(-1.57481 -0.216789 0)
(-1.07239 0.00652708 0)
(-2.04916 0.011721 0)
(-1.81804 0.0318458 0)
(-1.04699 0.223289 0)
(-1.32597 0.287498 0)
(-1.74697 -0.169131 0)
(-1.39813 0.480063 0)
(-2.0035 -0.301158 0)
(-2.11397 0.0234428 0)
(-2.12717 0.435841 0)
(-1.99133 0.0433014 0)
(-2.56939 -0.15275 0)
(-2.05937 -0.0376297 0)
(-1.10063 0.0478978 0)
(-1.08534 0.262342 0)
(-1.82282 -0.00495931 0)
(-1.79917 0.47738 0)
(-1.63681 0.385689 0)
(-1.39094 -0.417621 0)
(-1.22917 -0.182942 0)
(-1.8236 0.455609 0)
(-1.65686 0.374589 0)
(-1.32357 -0.405472 0)
(-1.17507 -0.170445 0)
(-1.21264 -0.212755 0)
(-1.70117 0.490721 0)
(-1.55558 0.398424 0)
(-1.37823 -0.437355 0)
(-1.05262 0.0971553 0)
(-1.99787 -0.0806727 0)
(-1.04495 0.293284 0)
(-1.77222 -0.0398878 0)
(-1.02956 -0.181959 0)
(-1.94766 0.214292 0)
(-0.963284 0.0429306 0)
(-1.74721 0.190121 0)
(-0.997563 -0.0634768 0)
(-1.70729 0.277079 0)
(-1.89286 0.319318 0)
(-1.08777 -0.285356 0)
(-1.2391 -0.206945 0)
(-1.71272 0.492586 0)
(-1.40822 -0.432774 0)
(-1.566 0.396553 0)
(-1.07875 0.10038 0)
(-2.01181 -0.0886226 0)
(-1.7831 -0.044514 0)
(-1.07373 0.298211 0)
(-1.79206 0.350283 0)
(-1.80975 -0.402605 0)
(-1.58066 -0.128958 0)
(-1.99007 0.510047 0)
(-1.84694 0.341626 0)
(-1.80629 -0.398307 0)
(-2.06255 0.497335 0)
(-1.58284 -0.108426 0)
(-2.10037 -0.251946 0)
(-1.41245 0.450339 0)
(-1.82575 -0.134245 0)
(-1.35174 0.23473 0)
(-1.5707 -0.196863 0)
(-1.5759 0.375908 0)
(-1.72144 0.539718 0)
(-1.80538 -0.418119 0)
(-1.25632 -0.0319056 0)
(-1.87918 0.279551 0)
(-2.10886 0.346303 0)
(-1.37666 -0.306237 0)
(-1.80986 0.528782 0)
(-1.85394 -0.124207 0)
(-1.67145 0.281878 0)
(-2.17474 -0.329072 0)
(-1.85725 0.514002 0)
(-1.89171 -0.102358 0)
(-1.71527 0.251489 0)
(-2.22861 -0.310563 0)
(-1.59417 -0.217601 0)
(-1.40377 0.508701 0)
(-1.31293 0.351174 0)
(-1.8179 -0.371152 0)
(-1.47832 0.378505 0)
(-1.44658 0.109072 0)
(-1.97513 -0.0460457 0)
(-2.28767 -0.125869 0)
(-1.24083 -0.153447 0)
(-1.91658 0.154182 0)
(-1.1767 0.111504 0)
(-2.16693 0.172465 0)
(-2.23485 -0.23504 0)
(-2.21701 0.120785 0)
(-2.61876 0.305729 0)
(-2.00979 0.223452 0)
(-1.49136 0.361462 0)
(-2.01088 -0.0203534 0)
(-1.47116 0.0770622 0)
(-2.33311 -0.0863214 0)
(-2.46618 0.518213 0)
(-2.80514 0.154914 0)
(-2.27776 -0.090913 0)
(-2.72961 -0.0631361 0)
(-1.35596 -0.225862 0)
(-1.50791 0.40877 0)
(-1.54647 -0.44565 0)
(-1.645 0.5299 0)
(-1.14722 -0.36219 0)
(-1.65384 0.353414 0)
(-1.02967 -0.138247 0)
(-1.81759 0.413576 0)
(-1.76187 0.0989859 0)
(-1.97243 0.100395 0)
(-0.937797 0.127644 0)
(-0.97783 -0.0854079 0)
(-1.77287 -0.112391 0)
(-1.14275 0.188304 0)
(-1.16376 0.37591 0)
(-2.00897 -0.187619 0)
(-1.9814 -0.080154 0)
(-1.71163 0.456483 0)
(-2.33419 -0.21999 0)
(-1.62414 0.166767 0)
(-2.00777 -0.0616909 0)
(-1.70236 0.445006 0)
(-2.36626 -0.188924 0)
(-1.62556 0.144816 0)
(-1.44016 -0.440073 0)
(-1.25833 -0.244289 0)
(-1.51303 0.529338 0)
(-1.39455 0.422868 0)
(-2.4395 -0.170787 0)
(-1.82033 0.446517 0)
(-2.05288 -0.0377782 0)
(-1.73222 0.116457 0)
(-1.05347 0.356581 0)
(-1.03066 0.20453 0)
(-1.68672 -0.137708 0)
(-1.89325 -0.208909 0)
(-2.1384 0.977528 0)
(-3.08065 -0.878662 0)
(-3.67587 0.0370403 0)
(-2.97565 0.496487 0)
(-2.08639 -0.243917 0)
(-1.36603 0.443596 0)
(-1.31244 0.233002 0)
(-1.81699 -0.133597 0)
(-1.90351 0.30735 0)
(-0.989697 -0.0457737 0)
(-1.07623 -0.267186 0)
(-1.71432 0.266736 0)
(-2.13696 0.287795 0)
(-2.67404 0.314391 0)
(-2.25085 0.0484134 0)
(-2.44171 -0.19663 0)
(-1.74058 0.427639 0)
(-2.42004 -0.159245 0)
(-2.04508 -0.0419669 0)
(-1.67036 0.10933 0)
(-1.4488 0.521268 0)
(-1.58731 -0.221214 0)
(-1.34965 0.361983 0)
(-1.81345 -0.385317 0)
(-1.53577 -0.208209 0)
(-1.56006 0.38544 0)
(-1.70488 0.541082 0)
(-1.76159 -0.429048 0)
(-1.29257 -0.0470527 0)
(-1.96183 0.0662707 0)
(-1.26304 0.221691 0)
(-2.23847 0.0511595 0)
(-2.13248 0.616216 0)
(-2.97068 -0.408667 0)
(-3.31783 0.28724 0)
(-2.84647 0.291855 0)
(-1.76991 -0.418577 0)
(-1.61131 0.540368 0)
(-1.48368 0.383577 0)
(-1.54441 -0.217675 0)
(-1.29874 0.271154 0)
(-1.75548 -0.163466 0)
(-1.36434 0.463572 0)
(-2.01028 -0.286521 0)
(-1.47359 0.0105317 0)
(-2.26775 0.360241 0)
(-1.61889 -0.311184 0)
(-1.99614 0.267314 0)
(-1.1924 -0.113936 0)
(-1.95104 0.412351 0)
(-1.75794 0.337803 0)
(-1.3276 -0.364174 0)
(-2.1329 0.12916 0)
(-2.76897 0.481623 0)
(-2.73211 -0.135664 0)
(-2.76303 0.0756943 0)
(-1.14116 0.32275 0)
(-1.79545 -0.311637 0)
(-1.19701 0.464982 0)
(-1.58595 -0.199891 0)
(-2.2721 0.382326 0)
(-1.50681 0.00152082 0)
(-1.66605 -0.325524 0)
(-1.99895 0.277392 0)
(-1.27958 0.39015 0)
(-1.61526 -0.420417 0)
(-1.42586 -0.257186 0)
(-1.37877 0.518737 0)
(-1.29457 0.387104 0)
(-1.64622 -0.413532 0)
(-1.45107 -0.249563 0)
(-1.39414 0.52025 0)
(-2.23342 0.232153 0)
(-1.28054 0.0808951 0)
(-1.96756 0.194167 0)
(-1.36425 -0.209778 0)
(-3.23189 0.119447 0)
(-2.96106 0.827832 0)
(-2.21118 -0.255161 0)
(-2.8725 -0.0015348 0)
(-1.75141 0.539876 0)
(-1.69371 -0.432472 0)
(-1.59767 0.395313 0)
(-1.47839 -0.200674 0)
(-2.16913 0.352777 0)
(-1.32365 -0.0157189 0)
(-1.45171 -0.30713 0)
(-1.92452 0.278399 0)
(-1.30726 0.0726534 0)
(-1.39945 -0.222433 0)
(-1.97769 0.205918 0)
(-2.24553 0.251637 0)
(-1.03672 -0.0306095 0)
(-1.75843 0.259102 0)
(-1.95793 0.300246 0)
(-1.12505 -0.262475 0)
(-1.79417 0.534168 0)
(-1.70407 -0.429142 0)
(-1.48836 -0.190185 0)
(-1.63348 0.389009 0)
(-1.27514 0.18688 0)
(-1.31309 0.40349 0)
(-1.84509 -0.110083 0)
(-2.11233 -0.202497 0)
(-1.29794 0.169948 0)
(-1.33275 0.395022 0)
(-1.86869 -0.0960576 0)
(-2.14281 -0.184677 0)
(-1.35476 0.0872511 0)
(-2.00005 0.200884 0)
(-1.44879 -0.217037 0)
(-2.27684 0.249401 0)
(-1.50972 -0.443777 0)
(-1.51234 0.408923 0)
(-1.32305 -0.222679 0)
(-1.64929 0.52387 0)
(-2.17954 0.358099 0)
(-1.49099 -0.314254 0)
(-1.35773 -0.0191851 0)
(-1.93263 0.279232 0)
(-1.22196 -0.128747 0)
(-1.9117 0.138459 0)
(-1.16357 0.131664 0)
(-2.16137 0.151371 0)
(-1.77096 -0.1021 0)
(-1.12026 0.170531 0)
(-1.13523 0.35759 0)
(-2.00328 -0.170274 0)
(-1.90164 -0.332782 0)
(-3.7512 0.0162566 0)
(-3.55059 0.839601 0)
(-2.70055 -0.158349 0)
(-1.37513 0.113052 0)
(-1.46148 -0.197971 0)
(-2.02345 0.182944 0)
(-2.3114 0.224461 0)
(-2.16804 0.410673 0)
(-1.60315 -0.355565 0)
(-1.92374 0.306542 0)
(-1.44068 -0.0527023 0)
(-1.77241 -0.0649315 0)
(-2.12922 0.512558 0)
(-1.90234 0.296297 0)
(-2.06001 -0.367392 0)
(-3.06523 0.0261878 0)
(-2.83108 0.699874 0)
(-2.21793 -0.164941 0)
(-2.84755 0.0494189 0)
(-2.197 0.118076 0)
(-2.50813 -0.105672 0)
(-2.77103 0.0429871 0)
(-2.56511 0.447813 0)
(-1.97746 0.293243 0)
(-1.75406 -0.350208 0)
(-2.24202 0.42099 0)
(-1.56819 -0.0224401 0)
(-1.26525 -0.0695009 0)
(-2.05995 0.395105 0)
(-1.40204 -0.339617 0)
(-1.84349 0.316061 0)
(-2.14513 0.193314 0)
(-1.98737 -0.274496 0)
(-1.80242 0.125556 0)
(-2.49159 0.332907 0)
(-1.07795 -0.219924 0)
(-1.76452 0.223685 0)
(-1.00251 0.00917122 0)
(-1.96907 0.256359 0)
(-1.14676 -0.346021 0)
(-1.67232 0.344367 0)
(-1.84289 0.404428 0)
(-1.0318 -0.121333 0)
(-2.13573 0.197068 0)
(-2.02747 -0.290126 0)
(-2.48285 0.353153 0)
(-1.82428 0.116563 0)
(-1.09281 -0.209115 0)
(-1.98761 0.242322 0)
(-1.78018 0.212049 0)
(-1.01916 0.0235244 0)
(-1.7686 0.114233 0)
(-0.949921 0.1127 0)
(-1.97919 0.119303 0)
(-0.994485 -0.106813 0)
(-2.17005 0.401192 0)
(-1.41357 -0.0387419 0)
(-1.56907 -0.337978 0)
(-1.926 0.302911 0)
(-2.5788 0.407791 0)
(-2.71936 -0.0482279 0)
(-2.15589 0.183837 0)
(-2.36935 -0.102822 0)
(-1.95984 0.304312 0)
(-1.70784 -0.355898 0)
(-1.52708 -0.0351785 0)
(-2.2174 0.426574 0)
(-2.125 0.418387 0)
(-2.17983 0.0611733 0)
(-2.07605 -0.0369769 0)
(-2.6639 -0.0136849 0)
(-2.11759 0.556979 0)
(-2.62919 -0.304356 0)
(-3.04093 0.325227 0)
(-2.76998 0.143068 0)
(-2.68017 0.281666 0)
(-2.12741 0.310948 0)
(-2.39127 -0.182677 0)
(-2.24576 0.0529228 0)
(-2.26857 0.406577 0)
(-2.27173 0.013026 0)
(-2.75248 0.220613 0)
(-2.50333 -0.12816 0)
(-2.04646 -0.0553062 0)
(-2.07036 0.390191 0)
(-2.6497 0.0141268 0)
(-2.18361 0.0647339 0)
(-1.07445 -0.110878 0)
(-1.70768 0.33395 0)
(-1.19149 -0.34355 0)
(-1.88877 0.394155 0)
(-1.09508 -0.124604 0)
(-1.88751 0.404759 0)
(-1.70708 0.340634 0)
(-1.21741 -0.360095 0)
(-3.18866 -0.757797 0)
(-2.02679 0.989441 0)
(-3.67348 0.0759302 0)
(-2.85611 0.554501 0)
(-1.84144 0.332928 0)
(-2.05727 0.430492 0)
(-1.35101 -0.0937806 0)
(-1.50994 -0.371398 0)
(-2.31698 0.328245 0)
(-2.03099 0.244042 0)
(-1.6207 -0.287617 0)
(-1.48678 0.0414618 0)
(-1.10384 0.367461 0)
(-1.08454 0.199198 0)
(-1.72204 -0.127035 0)
(-1.94063 -0.200111 0)
(-1.93586 -0.220351 0)
(-1.12932 0.388539 0)
(-1.71477 -0.139268 0)
(-1.10327 0.222678 0)
(-1.56503 0.527112 0)
(-1.49004 -0.44329 0)
(-1.44146 0.413776 0)
(-1.30515 -0.23324 0)
(-3.69693 0.233944 0)
(-1.94312 -0.399911 0)
(-3.43709 1.07222 0)
(-2.73827 -0.166832 0)
(-1.18524 -0.323425 0)
(-1.92551 0.370843 0)
(-1.73621 0.31529 0)
(-1.07443 -0.0878058 0)
(-1.54945 0.532809 0)
(-1.42688 0.412935 0)
(-1.33829 -0.239911 0)
(-1.52407 -0.444831 0)
(-1.90958 0.247124 0)
(-0.958319 -8.64136e-05 0)
(-1.02862 -0.216281 0)
(-1.71401 0.216932 0)
(-1.54906 0.52545 0)
(-1.45785 -0.442844 0)
(-1.42823 0.417144 0)
(-1.27364 -0.234416 0)
(-1.07325 0.35459 0)
(-1.71069 -0.127295 0)
(-1.05644 0.192527 0)
(-1.92315 -0.196515 0)
(-1.23974 0.342347 0)
(-1.80484 -0.350782 0)
(-1.31696 0.493736 0)
(-1.58782 -0.214711 0)
(-2.18775 0.0850232 0)
(-2.32353 -0.0820544 0)
(-2.73036 0.0371877 0)
(-2.35059 0.441646 0)
(-1.54294 0.12568 0)
(-2.40666 0.245613 0)
(-1.6457 -0.221439 0)
(-2.08933 0.184916 0)
(-2.1964 0.11995 0)
(-1.93747 -0.178386 0)
(-2.59798 0.181966 0)
(-1.84295 0.244676 0)
(-1.93851 -0.02179 0)
(-1.93022 0.213123 0)
(-2.30437 -0.301463 0)
(-2.14252 0.504791 0)
(-2.01851 -0.164383 0)
(-2.2082 0.102623 0)
(-2.62858 0.160938 0)
(-1.92902 0.274961 0)
(-2.07563 -0.150631 0)
(-2.21204 0.0904602 0)
(-2.65763 0.11844 0)
(-2.01937 0.303938 0)
(-1.87263 0.115155 0)
(-2.09881 -0.298288 0)
(-2.49612 0.359258 0)
(-2.14325 0.181103 0)
(-1.74396 0.517367 0)
(-1.59043 0.399524 0)
(-1.542 -0.442346 0)
(-1.35248 -0.208339 0)
(-2.17972 -0.237045 0)
(-1.49239 0.448848 0)
(-1.42669 0.210769 0)
(-1.88277 -0.115807 0)
(-1.98618 -0.00490657 0)
(-1.96395 0.176822 0)
(-2.38138 -0.27469 0)
(-2.17062 0.49822 0)
(-1.81677 0.538887 0)
(-1.65546 0.362985 0)
(-1.61883 -0.173981 0)
(-1.86724 -0.411634 0)
(-1.91053 -0.11374 0)
(-1.70158 0.492084 0)
(-2.24007 -0.27892 0)
(-1.59729 0.231152 0)
(-2.07507 -0.137319 0)
(-1.17029 0.141588 0)
(-1.1816 0.349987 0)
(-1.8265 -0.0740561 0)
(-2.41963 0.276313 0)
(-1.57813 0.110096 0)
(-1.69868 -0.245356 0)
(-2.09903 0.20021 0)
(-2.30922 0.310081 0)
(-1.57224 -0.275053 0)
(-2.02458 0.236179 0)
(-1.44966 0.049887 0)
(-1.43283 0.180949 0)
(-1.48986 0.433734 0)
(-1.92229 -0.0969832 0)
(-2.22948 -0.207351 0)
(-1.68259 0.291901 0)
(-0.986409 -0.07709 0)
(-1.86132 0.337456 0)
(-1.08021 -0.29371 0)
(-1.00281 -0.169112 0)
(-0.941034 0.0619185 0)
(-1.93126 0.192168 0)
(-1.73362 0.173562 0)
(-1.85517 -0.417919 0)
(-1.7022 0.366116 0)
(-1.60828 -0.165748 0)
(-1.87762 0.540518 0)
(-1.69867 0.502128 0)
(-1.8769 -0.126654 0)
(-2.19527 -0.300184 0)
(-1.588 0.253588 0)
(-1.31401 0.0299849 0)
(-2.21795 0.305957 0)
(-1.42502 -0.266207 0)
(-1.95896 0.244881 0)
(-1.90199 0.244682 0)
(-2.14065 0.297241 0)
(-1.33177 -0.259309 0)
(-1.22975 0.0145053 0)
(-2.21848 0.115344 0)
(-1.95153 0.110691 0)
(-1.28127 -0.102691 0)
(-1.2337 0.167625 0)
(-1.64642 0.356058 0)
(-1.90406 -0.411019 0)
(-1.80597 0.53973 0)
(-1.64804 -0.175932 0)
(-1.23863 0.256956 0)
(-1.29063 0.441783 0)
(-1.99055 -0.262089 0)
(-1.74584 -0.154162 0)
(-1.4437 0.408356 0)
(-1.17192 -0.223693 0)
(-1.563 0.495249 0)
(-1.34051 -0.435897 0)
(-2.67068 0.364075 0)
(-2.28038 -0.000866823 0)
(-2.12643 0.300998 0)
(-2.53991 -0.145542 0)
(-1.48315 -0.225635 0)
(-1.59709 0.536536 0)
(-1.69397 -0.428657 0)
(-1.46922 0.393001 0)
(-2.12043 0.252681 0)
(-2.63919 -0.105831 0)
(-2.63257 0.397903 0)
(-2.31313 -0.0595168 0)
(-2.60902 0.355502 0)
(-2.06848 0.230945 0)
(-2.22257 0.0852198 0)
(-2.38407 -0.221171 0)
(-1.89299 -0.128377 0)
(-0.989736 0.136882 0)
(-1.69055 -0.0806974 0)
(-0.989685 0.302639 0)
(-2.44912 0.384349 0)
(-2.21688 0.0538998 0)
(-2.51732 -0.177458 0)
(-2.77156 0.0993886 0)
(-2.70313 0.394469 0)
(-2.14679 0.311645 0)
(-2.33216 -0.0650002 0)
(-2.65336 -0.0988942 0)
(-2.11612 0.26282 0)
(-2.62056 0.414391 0)
(-2.65731 -0.0835316 0)
(-2.31178 -0.0653954 0)
(-2.04457 0.261334 0)
(-1.8551 -0.336265 0)
(-2.33874 0.402174 0)
(-1.65976 0.0190034 0)
(-1.56449 0.390148 0)
(-1.17322 -0.205708 0)
(-1.71114 0.474167 0)
(-1.32852 -0.428126 0)
(-1.01494 0.26725 0)
(-1.76267 -0.0159468 0)
(-1.98345 -0.0479223 0)
(-1.02955 0.0706498 0)
(-2.22246 0.107446 0)
(-2.17206 -0.173849 0)
(-2.66658 0.207206 0)
(-2.03939 0.306941 0)
(-1.93164 -0.301231 0)
(-1.30939 0.464351 0)
(-1.695 -0.179989 0)
(-1.24606 0.29174 0)
(-1.5231 0.533901 0)
(-1.50775 -0.228735 0)
(-1.40856 0.386769 0)
(-1.72112 -0.413818 0)
(-2.2416 0.0866447 0)
(-2.27862 -0.180561 0)
(-2.10321 0.31239 0)
(-2.69194 0.22878 0)
(-1.39198 0.114664 0)
(-1.95966 -0.0509628 0)
(-1.41898 0.376156 0)
(-2.26359 -0.127328 0)
(-1.94453 -0.0937767 0)
(-1.62981 0.45139 0)
(-2.27408 -0.228809 0)
(-1.54973 0.183198 0)
(-1.76302 0.367038 0)
(-1.95561 0.518974 0)
(-1.53814 -0.149917 0)
(-1.75978 -0.418706 0)
(-1.97049 -0.285409 0)
(-1.31627 0.453965 0)
(-1.25563 0.27321 0)
(-1.72724 -0.16773 0)
(-1.50819 -0.224141 0)
(-1.72388 -0.418315 0)
(-1.44747 0.389633 0)
(-1.56876 0.53824 0)
(-1.87066 0.472953 0)
(-2.00723 -0.0523004 0)
(-1.75986 0.158514 0)
(-2.38985 -0.218356 0)
(-1.68953 0.526178 0)
(-1.37409 -0.217324 0)
(-1.54539 0.403332 0)
(-1.5671 -0.442564 0)
(-1.09842 -0.010475 0)
(-1.84393 0.0464508 0)
(-2.08132 0.030341 0)
(-1.06964 0.215668 0)
(-2.28974 0.09916 0)
(-2.00091 0.0996009 0)
(-1.31556 0.194447 0)
(-1.35954 -0.0939552 0)
(-1.91378 -0.105124 0)
(-1.6272 0.467256 0)
(-1.54234 0.210421 0)
(-2.23445 -0.24674 0)
(-1.69203 0.531127 0)
(-1.41164 -0.215673 0)
(-1.54755 0.401111 0)
(-1.61162 -0.440242 0)
(-1.19023 -0.279409 0)
(-1.09244 -0.0345798 0)
(-2.00246 0.317463 0)
(-1.79505 0.270436 0)
(-1.53432 0.345534 0)
(-1.68294 -0.186274 0)
(-1.9445 -0.383108 0)
(-1.66104 0.534917 0)
(-1.08138 -0.0499855 0)
(-1.18383 -0.289722 0)
(-1.97183 0.337999 0)
(-1.77172 0.287081 0)
(-1.19116 0.37217 0)
(-1.79862 -0.100517 0)
(-1.1712 0.175102 0)
(-2.04265 -0.174272 0)
(-2.07621 0.241263 0)
(-1.88756 -0.314567 0)
(-1.69581 0.0532964 0)
(-2.38421 0.380049 0)
(-2.17636 -0.249983 0)
(-1.5181 0.4713 0)
(-1.44622 0.231698 0)
(-1.87438 -0.120752 0)
(-1.40013 -0.130685 0)
(-1.58163 -0.39893 0)
(-1.9848 0.474274 0)
(-1.786 0.358346 0)
(-1.53529 0.502622 0)
(-1.78586 -0.160047 0)
(-1.44381 0.290905 0)
(-2.065 -0.313832 0)
(-1.59319 0.391223 0)
(-1.74559 0.474276 0)
(-1.16479 -0.194871 0)
(-1.3179 -0.420072 0)
(-1.87387 -0.409546 0)
(-1.73613 0.354318 0)
(-1.6251 -0.150489 0)
(-1.91874 0.53092 0)
(-1.51935 0.421638 0)
(-1.94357 -0.0812613 0)
(-1.46467 0.160881 0)
(-2.25864 -0.188447 0)
(-1.22996 0.388876 0)
(-1.80384 -0.109688 0)
(-1.20236 0.189219 0)
(-2.05317 -0.191689 0)
(-1.86906 0.448991 0)
(-1.33691 -0.40078 0)
(-1.18967 -0.159167 0)
(-1.69255 0.367207 0)
(-1.77964 -0.00206198 0)
(-2.00289 -0.0308067 0)
(-1.01603 0.248434 0)
(-1.03372 0.0455361 0)
(-2.2285 -0.0257819 0)
(-1.28988 0.283067 0)
(-1.29779 0.0250763 0)
(-1.94866 0.0122212 0)
(-2.4912 -0.186442 0)
(-2.20996 0.0675304 0)
(-2.07245 0.2005 0)
(-2.538 0.425722 0)
(-2.56932 -0.126711 0)
(-2.13313 0.297627 0)
(-2.27771 0.00363029 0)
(-2.64653 0.389349 0)
(-2.26174 -0.0773483 0)
(-1.35268 0.0627851 0)
(-1.36232 0.326591 0)
(-1.96695 -0.0208323 0)
(-1.19574 -0.241329 0)
(-2.0557 0.272685 0)
(-1.10862 0.0103752 0)
(-1.83513 0.233521 0)
(-1.35177 0.401602 0)
(-1.39589 -0.254677 0)
(-1.58468 -0.436774 0)
(-1.46354 0.52876 0)
(-1.26509 -0.314912 0)
(-1.7909 0.302678 0)
(-1.99341 0.363207 0)
(-1.14934 -0.0660772 0)
(-2.22077 0.0971124 0)
(-2.66779 0.189665 0)
(-2.16564 -0.159923 0)
(-2.04214 0.313741 0)
(-2.43745 -0.145434 0)
(-2.32347 0.402212 0)
(-2.22067 0.0553851 0)
(-2.74528 0.144106 0)
(-1.31127 -0.329872 0)
(-2.0097 0.379872 0)
(-1.18688 -0.0744653 0)
(-1.80329 0.31241 0)
(-1.16259 0.425332 0)
(-1.68313 -0.158876 0)
(-1.12519 0.265422 0)
(-1.9046 -0.251435 0)
(-1.65296 -0.172147 0)
(-1.1728 0.436785 0)
(-1.87016 -0.271107 0)
(-1.12926 0.283369 0)
(-1.38539 0.405389 0)
(-1.57178 -0.444463 0)
(-1.50357 0.531117 0)
(-1.38318 -0.252682 0)
(-1.29036 0.0443829 0)
(-2.21169 0.282707 0)
(-1.39195 -0.246532 0)
(-1.95408 0.229476 0)
(-1.646 0.37031 0)
(-1.81025 0.445289 0)
(-1.1352 -0.169691 0)
(-1.27553 -0.399189 0)
(-2.4103 0.508682 0)
(-2.74218 -0.0724862 0)
(-2.29887 -0.119189 0)
(-2.82294 0.194203 0)
(-1.67509 0.356366 0)
(-1.12448 -0.15508 0)
(-1.84679 0.426482 0)
(-1.2575 -0.389171 0)
(-1.78774 -0.370923 0)
(-1.27355 0.355835 0)
(-1.57069 -0.223785 0)
(-1.36009 0.507078 0)
(-1.77604 0.5107 0)
(-1.61775 0.392588 0)
(-1.55479 -0.434128 0)
(-1.36573 -0.196814 0)
(-1.72339 -0.353147 0)
(-1.16622 0.348304 0)
(-1.23644 0.483399 0)
(-1.52305 -0.22761 0)
(-2.02115 0.0306706 0)
(-1.01209 0.204909 0)
(-1.79785 0.045933 0)
(-1.04148 -0.00863379 0)
(-1.01354 0.183602 0)
(-2.03191 0.0650157 0)
(-1.05021 -0.0361647 0)
(-1.80795 0.0722182 0)
(-2.09587 -0.124754 0)
(-1.84289 -0.0634368 0)
(-1.19452 0.128087 0)
(-1.20428 0.341763 0)
(-1.6548 -0.391042 0)
(-1.46231 -0.246637 0)
(-1.30459 0.50828 0)
(-1.21927 0.376969 0)
(-1.79987 0.118652 0)
(-1.04591 -0.106254 0)
(-0.996231 0.12066 0)
(-2.018 0.124505 0)
(-1.05062 -0.0842933 0)
(-2.03116 0.102352 0)
(-1.00626 0.141823 0)
(-1.80916 0.101314 0)
(-2.29815 0.129516 0)
(-2.00881 0.11964 0)
(-1.32515 0.177797 0)
(-1.37867 -0.117333 0)
(-1.67747 -0.407031 0)
(-1.47434 -0.134993 0)
(-1.98657 0.502148 0)
(-1.78747 0.366612 0)
(-2.06174 0.20579 0)
(-1.90438 0.0559197 0)
(-2.22594 -0.301496 0)
(-2.34602 0.461587 0)
(-1.35392 0.331202 0)
(-1.90233 -0.356032 0)
(-1.44496 0.504953 0)
(-1.66176 -0.201392 0)
(-1.62367 0.373583 0)
(-1.78317 0.446848 0)
(-1.2565 -0.405568 0)
(-1.11864 -0.179652 0)
(-1.78055 0.0421213 0)
(-1.99963 0.0268311 0)
(-1.01697 0.000850896 0)
(-0.988424 0.208734 0)
(-2.09806 0.197184 0)
(-2.40822 0.447591 0)
(-1.91422 0.0840812 0)
(-2.22593 -0.297986 0)
(-1.3572 0.31897 0)
(-1.94734 -0.341884 0)
(-1.44479 0.501694 0)
(-1.69777 -0.191604 0)
(-1.72561 -0.405698 0)
(-1.51574 -0.237812 0)
(-1.43586 0.524217 0)
(-1.33373 0.379199 0)
(-2.47616 -0.139768 0)
(-1.86187 0.437879 0)
(-2.0782 -0.0144187 0)
(-1.77912 0.0923484 0)
(-2.12742 0.437114 0)
(-1.61371 -0.366802 0)
(-1.89452 0.324148 0)
(-1.44007 -0.0711718 0)
(-2.57923 0.399932 0)
(-2.68883 -0.0594006 0)
(-2.13315 0.194886 0)
(-2.34981 -0.096658 0)
(-2.05011 0.223347 0)
(-1.13842 -0.195757 0)
(-1.0655 0.0491483 0)
(-1.82906 0.19591 0)
(-1.35445 0.087875 0)
(-2.24678 -0.0968475 0)
(-1.3687 0.345201 0)
(-1.95269 -0.0347122 0)
(-1.09506 0.106196 0)
(-1.86069 0.149452 0)
(-1.15499 -0.140404 0)
(-2.0934 0.164493 0)
(-1.6954 -0.413771 0)
(-1.48894 -0.145456 0)
(-1.95764 0.505379 0)
(-1.76445 0.367383 0)
(-1.12199 0.129405 0)
(-1.88098 0.13116 0)
(-1.17709 -0.120212 0)
(-2.12071 0.141261 0)
(-2.01423 -0.00749445 0)
(-1.46333 0.334795 0)
(-1.45242 0.0495776 0)
(-2.33134 -0.0635825 0)
(-2.07667 0.489657 0)
(-1.55164 -0.0984171 0)
(-1.85777 0.342476 0)
(-1.76511 -0.390229 0)
(-1.33215 -0.348105 0)
(-1.20202 -0.0919547 0)
(-1.99406 0.391218 0)
(-1.79163 0.320344 0)
(-1.93872 0.167628 0)
(-2.547 0.347426 0)
(-2.18202 -0.261308 0)
(-2.17917 0.150422 0)
(-2.50344 -0.19007 0)
(-2.06715 0.160419 0)
(-2.46869 0.439347 0)
(-2.17546 0.0692795 0)
(-2.12213 0.1132 0)
(-1.12207 0.15246 0)
(-1.17014 -0.0937171 0)
(-1.88086 0.110722 0)
(-2.53174 0.375981 0)
(-2.00541 0.152798 0)
(-2.29981 -0.274224 0)
(-2.17032 0.130584 0)
(-1.16717 -0.221682 0)
(-1.60412 0.493791 0)
(-1.47713 0.406388 0)
(-1.32982 -0.4349 0)
(-1.035 -0.0673962 0)
(-1.91673 0.339036 0)
(-1.13358 -0.295893 0)
(-1.72786 0.290932 0)
(-1.04503 -0.0825398 0)
(-1.913 0.356273 0)
(-1.72561 0.305049 0)
(-1.14923 -0.313682 0)
(-1.98847 0.198016 0)
(-1.0583 -0.172977 0)
(-0.993819 0.0603798 0)
(-1.77963 0.177324 0)
(-2.00207 0.177202 0)
(-0.992612 0.0782666 0)
(-1.78936 0.160549 0)
(-1.05244 -0.154637 0)
(-1.07602 -0.156175 0)
(-1.6615 0.361786 0)
(-1.20219 -0.385256 0)
(-1.83042 0.427969 0)
(-1.99867 -0.246343 0)
(-2.17296 0.181088 0)
(-2.53665 0.313377 0)
(-1.82336 0.166955 0)
(-1.91766 -0.106969 0)
(-0.99223 0.116311 0)
(-1.71008 -0.0632962 0)
(-0.990389 0.292381 0)
(-0.967686 0.163764 0)
(-2.00738 0.0779053 0)
(-1.00587 -0.0535473 0)
(-1.78999 0.0817067 0)
(-1.45736 0.525028 0)
(-1.54892 -0.226118 0)
(-1.3551 0.372674 0)
(-1.76737 -0.394475 0)
(-1.93806 0.486017 0)
(-2.00146 -0.05112 0)
(-1.80253 0.168938 0)
(-2.39067 -0.243187 0)
(-2.15874 0.0724231 0)
(-2.1576 -0.0464164 0)
(-2.30105 0.39962 0)
(-2.66142 -0.101022 0)
(-1.76388 0.0612647 0)
(-1.97736 0.0518028 0)
(-0.985636 -0.0107075 0)
(-0.951706 0.195033 0)
(-1.77516 0.433344 0)
(-1.07965 -0.182494 0)
(-1.20881 -0.406398 0)
(-1.61592 0.366745 0)
(-2.54698 -0.17706 0)
(-2.08334 0.164281 0)
(-2.48144 0.433493 0)
(-2.19121 0.0359086 0)
(-2.62658 0.280792 0)
(-2.20453 -0.217636 0)
(-2.21427 0.115528 0)
(-2.00253 0.243463 0)
(-2.14618 0.398535 0)
(-1.90927 0.306129 0)
(-1.52308 -0.33569 0)
(-1.37336 -0.0447172 0)
(-1.3537 0.489841 0)
(-1.64608 -0.201238 0)
(-1.27639 0.324812 0)
(-1.87701 -0.338658 0)
(-2.0215 0.272157 0)
(-1.07041 0.00358972 0)
(-1.15513 -0.240094 0)
(-1.80769 0.235096 0)
(-2.04156 0.19898 0)
(-1.04444 0.0603065 0)
(-1.11022 -0.181915 0)
(-1.82156 0.177251 0)
(-1.39822 0.502811 0)
(-1.63536 -0.207125 0)
(-1.31206 0.337061 0)
(-1.8678 -0.355014 0)
(-1.67956 -0.183091 0)
(-1.2759 0.462319 0)
(-1.91104 -0.300512 0)
(-1.21614 0.294953 0)
(-2.16628 0.143671 0)
(-2.74761 0.0119277 0)
(-2.45642 -0.119028 0)
(-2.57125 0.429799 0)
(-2.00385 0.527092 0)
(-1.76853 -0.101701 0)
(-1.81012 0.307999 0)
(-2.06173 -0.370804 0)
(-2.04362 0.528611 0)
(-1.74937 -0.0959197 0)
(-1.83825 0.313104 0)
(-2.03857 -0.376828 0)
(-1.7373 0.332821 0)
(-1.12898 -0.112136 0)
(-1.92518 0.398359 0)
(-1.25286 -0.353389 0)