/*--------------------------------*- C++ -*----------------------------------*\
| =========                 |                                                 |
| \\      /  F ield         | foam-extend: Open Source CFD                    |
|  \\    /   O peration     | Version:  3.0                                   |
|   \\  /    A nd           | Web:         http://www.extend-project.de       |
|    \\/     M anipulation  |                                                 |
\*---------------------------------------------------------------------------*/
FoamFile
{
    version     2.0;
    format      ascii;
    class       volScalarField;
    location    "8";
    object      Theta;
}
// * * * * * * * * * * * * * * * * * * * * * * * * * * * * * * * * * * * * * //

dimensions      [0 2 -2 0 0 0 0];

internalField   nonuniform List<scalar> 
3012
(
-3.09397
1.92005
5.01165
-0.0478345
13.2952
0.440814
-9.59865
3.45801
-2.31429
4.06677
-2.21175
4.04477
0.957401
-0.803376
2.69773
0.955324
-6.96159
-14.0234
7.18946
15.0537
1.5564
-0.299689
2.26996
0.516616
5.3935
-2.09462
4.52142
-3.08693
-1.4885
3.85736
-0.00956677
2.33162
0.317986
2.95991
-0.932007
1.6884
2.91867
6.98038
-5.16531
-1.34046
0.926772
3.14267
1.21471
-0.952385
0.642763
1.4511
-1.39727
3.50297
1.0977
2.4376
-0.490234
0.824788
-3.68892
1.41352
1.58574
6.50466
-6.04834
-9.41591
5.42902
9.1019
-7.70614
4.10102
12.7092
1.39188
0.938064
-1.63626
4.03278
1.40163
2.54839
1.29649
0.710834
-0.511914
2.43577
1.88843
0.0157268
-0.444217
-0.639465
2.76078
1.87813
0.223973
0.861318
-1.48742
1.2144
3.58612
2.93512
1.06993
0.946678
-0.800707
0.147225
3.09683
-0.885118
2.04868
2.99465
-2.04808
-0.687958
4.07772
-4.74175
3.33441
-2.05676
6.23868
3.73137
2.02592
0.387633
-1.34285
3.26981
-0.571964
2.82467
-0.923823
2.45692
0.444412
-0.399361
1.60958
-1.25457
3.44728
1.39254
0.826471
2.33013
0.0663853
2.16798
0.22081
-0.868325
0.113
0.897455
2.75571
3.677
-7.619
7.38483
-3.76403
15.6211
-14.7968
5.62087
-4.98446
0.850379
-1.40707
4.09801
6.06134
-4.74504
10.6928
10.1949
-7.08167
8.05857
-1.50585
-4.32584
4.75392
7.11226
1.9459
-5.33378
1.79722
6.68961
-11.162
-5.69098
11.8434
0.435703
-0.929675
1.78981
3.10612
2.02391
2.87513
-0.724825
0.125333
2.63648
-0.439841
2.16464
-0.0406132
-5.81692
-0.715918
7.08475
1.81194
0.39364
3.13953
-1.11204
1.64997
8.94647
7.98907
-7.31475
-6.2412
-6.69523
9.25277
4.14783
-0.328612
-5.83854
-1.00375
6.95284
2.38558
3.14248
-1.45453
-0.77606
3.99077
-0.444571
2.90932
2.40727
-0.901641
2.20444
-0.125686
1.86228
0.200563
2.05495
3.30284
-1.2443
0.0323234
0.77007
-0.644704
0.979344
2.40925
1.1752
4.44722
-2.02305
1.33802
1.33971
1.64261
0.882423
0.109294
0.85883
0.99162
0.795236
1.16763
3.57116
1.53372
0.53849
-1.44443
1.0017
0.733849
0.63887
0.908415
0.107869
-0.432609
1.61098
2.21296
0.674333
0.382853
1.3011
1.40242
0.342151
1.35351
0.307739
1.43686
3.2044
2.54617
-0.418583
-1.17442
2.15415
-0.70262
2.92799
0.0914583
0.00521709
2.93981
2.23672
-0.614959
1.98576
-1.78428
0.225553
4.09556
-1.60877
3.98773
3.64761
-1.14409
5.79451
0.226647
-2.48331
2.59112
0.593139
0.479856
1.01753
1.25433
0.895107
1.47097
0.787095
0.272153
2.45457
-0.603268
-1.29116
3.23928
1.17122
3.97298
1.17176
-1.63736
1.38656
-1.26737
3.37893
0.666895
-3.79839
1.70761
0.959182
6.50632
0.793918
1.72656
0.0985482
1.09303
8.51551
-10.3774
-8.49311
10.6706
-6.39873
10.0209
-2.21277
5.58221
0.0260938
-1.75379
2.40109
4.14794
2.89046
-0.612569
-1.47251
3.94867
1.8841
-1.22233
3.43603
0.22842
-2.01713
-0.690498
1.0561
2.27737
5.29173
-0.831283
-3.40813
2.38426
3.13368
3.08921
-0.752074
-0.743638
0.637153
1.86939
-0.0194422
1.2639
-0.0961215
-0.888224
2.30079
3.15315
-3.72062
1.68139
1.22934
7.42284
2.60183
0.733758
1.2771
-0.569065
2.40941
-0.325087
1.85639
0.11525
1.66231
0.213824
1.55421
0.197714
-0.0054016
3.30903
-1.00146
2.21952
0.923303
3.47591
1.38283
-1.14121
1.00855
2.19624
0.289374
-0.117607
0.683962
-0.200304
2.28844
1.38871
-0.449645
2.73463
2.57274
-0.495103
0.314557
3.17102
-0.939711
1.899
-0.917898
3.30096
-1.51474
2.67831
-2.07797
2.91275
4.67287
-0.158895
2.95543
2.1241
-0.975894
-0.135495
-0.738132
-0.385155
2.22806
2.56431
0.264003
-1.34786
3.53291
1.87419
3.98632
-1.6651
-1.33727
4.57411
3.42731
-1.89051
-1.734
3.6649
-0.703692
2.3667
-0.246225
2.8651
2.40447
-0.553851
-1.76324
3.63446
1.01069
-1.10344
1.14125
3.25716
0.597268
-4.63691
8.10221
3.47083
1.55982
-2.25896
0.982901
4.93552
-4.92398
9.29111
-9.45307
4.97996
-0.557523
-0.389978
2.74905
2.62521
1.59346
-0.382827
0.61604
2.11416
-0.371532
2.60468
0.833418
1.01227
-0.853016
0.135715
2.13934
3.13068
-2.33114
1.5198
4.28457
0.277582
-2.47218
2.94497
4.72483
-0.706506
1.02489
0.092932
1.96081
0.0116966
6.05138
1.22135
-3.53507
0.95261
1.45528
0.914229
0.601636
1.46971
-26.3424
3.06617
-5.00108
25.4994
4.80783
2.31411
0.239402
-2.0669
1.41341
1.01024
0.756292
0.384903
2.76828
7.68586
-5.05032
0.626506
2.88863
5.02285
-2.30765
-0.471355
1.94509
-0.226714
0.0795406
2.24959
-0.963869
-1.70602
4.26916
3.64406
0.957414
-1.64785
1.08637
3.8247
-13.3832
5.62839
-4.20255
16.2323
1.95318
2.37242
-0.531917
-0.103676
0.663333
-0.763403
1.21195
2.70341
-0.426362
3.36185
2.10992
-1.73258
0.116696
3.66806
-1.32554
2.07655
-12.5315
-4.77679
4.84352
12.9725
0.135167
2.72228
2.17235
-0.53578
4.97178
0.238924
2.57152
-2.34823
-0.280391
2.46557
-0.248022
2.44354
-0.0540222
2.3639
-0.272805
2.09678
3.28355
0.723869
-1.31602
1.34179
14.2411
-12.1041
-4.78253
6.66274
3.37699
2.78654
-1.10789
-0.498463
4.35401
0.647267
1.67308
-2.0902
0.372431
2.22132
-2.33125
4.93758
0.918278
-0.950005
3.07725
1.27684
3.03411
3.1799
-0.926172
-0.859319
0.457214
1.82317
-1.50889
3.82693
-0.079948
2.35649
-1.42219
3.69834
0.366503
-1.5535
1.41935
3.39245
1.78183
-0.42745
0.0600189
2.43366
3.82132
2.35506
-0.106822
-1.63148
1.13736
-0.775572
0.674614
2.66534
-0.419996
0.774472
1.25562
2.48091
-16.3137
21.4873
-22.8137
14.8613
0.770613
1.70272
-2.03523
4.55538
3.63216
2.04848
-1.48443
0.187636
-0.932919
5.07467
-2.2783
4.04728
-9.20072
13.1446
-10.4093
13.4917
-3.21622
-6.66993
6.64739
10.0385
-2.33112
2.56223
4.38128
-0.488995
-0.123067
3.41679
2.29776
-1.16504
-3.25026
3.63544
-1.63203
5.28405
1.5841
-0.974393
0.549852
3.18266
0.822202
0.702283
1.26218
0.803348
-3.36851
1.89575
4.84214
-0.234911
1.44907
2.95433
-0.811455
0.758049
0.445426
0.926756
1.2893
1.0245
3.28397
0.149588
1.68912
-1.48544
8.84817
4.39209
0.376685
-4.53911
-2.63498
3.03001
-0.138626
5.30138
0.91812
-3.10884
2.13484
6.40193
-6.54226
6.53757
-4.17607
10.8977
5.14932
-6.48415
6.83803
-4.70024
4.55907
-3.59232
7.78967
0.267068
-1.65265
2.40964
5.9251
-4.9737
0.88931
0.320734
0.815145
1.4531
0.241104
3.5291
-1.07506
2.15954
-22.7022
-7.57353
21.9031
7.13749
-1.5163
3.6625
-0.194501
2.36928
4.99801
-2.38015
2.66657
-0.0570316
1.13018
0.95405
0.0160073
1.94763
3.04056
1.93409
-0.723788
0.431285
2.05137
1.36264
-0.160622
0.311243
-12.1749
-21.9095
11.8861
21.3328
1.92896
3.54124
-1.13276
0.357915
2.66711
-0.41164
-0.267373
2.50536
2.69604
0.673728
1.37701
-0.326386
3.05151
2.44774
-0.731761
-0.336564
1.73742
-0.808177
0.564192
3.1726
0.139783
2.44044
1.9377
-0.41121
-5.61012
5.66594
7.93609
-3.60055
0.874682
4.41198
1.02693
-2.70284
-3.43464
2.69111
6.17115
0.127407
-1.8814
-3.00319
3.58175
4.57636
1.97284
-5.07878
7.77256
0.830548
-0.727376
-3.21161
5.14164
2.79863
0.181119
3.27089
6.83203
-3.72135
2.44682
-0.366161
2.3191
-0.313281
2.88532
1.82041
-0.0088535
-0.992042
-2.38416
-0.231788
5.78656
3.10414
2.38126
-0.642733
-0.644503
2.43033
-2.06266
3.01457
4.95585
-0.383872
2.86137
0.318269
1.69298
-0.769734
4.6754
0.399695
2.06164
-2.30217
4.23157
1.24869
-2.29578
0.855592
-0.263513
2.65394
-2.05222
4.50903
-0.504341
0.649065
2.69464
1.47325
1.45966
1.57399
2.72237
-0.56401
3.88467
-1.15564
-1.36609
3.52768
2.74185
-1.31136
3.04873
-1.00309
0.710962
4.10359
1.64497
-1.77087
-1.44788
3.56499
2.07388
0.0520437
3.38872
-1.35866
1.29971
0.663685
-0.963359
2.93573
3.05563
-0.735889
0.496646
1.73798
3.27631
-1.05439
-0.393705
0.24444
2.39005
2.13409
2.60376
-0.353086
-7.08874
9.6608
-0.303834
2.93928
2.45937
-0.792777
-5.30696
6.73298
4.16592
-3.1916
4.3815
-5.55686
-2.83801
6.96655
2.75441
0.613732
-0.567698
1.36608
1.95767
-1.90202
3.08136
6.9187
4.25731
-0.495652
-0.0334933
6.11517
-1.54746
8.963
3.5108
-7.36387
-2.79907
3.2757
5.39163
-0.641862
0.541747
0.336758
1.28827
1.37648
1.17979
0.336386
1.44338
0.599903
-5.08851
1.08046
5.79564
-0.0683438
2.84562
1.98217
-0.789442
0.160605
2.19323
-0.402391
-0.253843
2.38517
-3.36796
2.43838
2.64645
8.23146
1.13946
-2.66315
1.54913
5.5083
-1.55377
3.05379
4.01118
-0.715689
-2.50613
5.19188
-0.240581
3.09824
3.15923
2.09156
0.0990039
-0.910322
-0.522745
2.81606
-0.57923
2.81837
1.95486
-3.42988
0.129221
5.58266
3.05031
-0.142955
-0.939712
2.21341
0.898742
-1.15283
3.43417
1.19942
4.2731
-2.00192
0.939205
1.3698
-1.71768
1.46196
0.112742
3.32725
2.61939
-0.484175
-0.479585
2.55635
1.57772
0.655327
3.48791
-1.19672
-0.21257
-0.94876
2.79508
2.01179
0.456387
1.50142
2.20014
-0.215676
1.45953
-1.02014
0.759829
3.19979
-2.6008
3.73832
-1.383
4.84968
3.10624
1.51334
0.303752
-1.15429
-0.824009
2.86095
2.88152
-0.82621
2.3671
-0.952363
-0.469785
2.8825
-0.438227
2.61843
0.189941
1.89534
3.78054
-1.69582
-1.28679
4.04873
2.93884
-2.23032
-0.44783
4.7999
1.88654
-0.850384
0.246073
3.06863
3.12561
2.17669
0.0806267
-0.936814
-0.681559
2.82503
1.27019
0.901764
3.4976
1.90614
0.127094
-1.44139
7.6515
-0.256691
-3.18311
3.93022
3.29812
-2.48502
-7.40078
8.0011
4.16454
0.583684
1.62079
-1.94162
1.25634
2.58311
0.636687
-0.636687
0.178465
-0.346005
2.35611
1.78666
1.66954
-1.25732
3.50361
0.57188
-4.02184
5.51503
3.78549
-2.29921
1.59661
-1.8794
-8.42008
8.0511
1.33654
2.25828
0.494151
-0.413581
1.37386
-0.726321
0.88187
2.92779
-0.0962251
2.19544
2.17545
-0.0539141
-0.54747
2.05186
2.72332
0.130213
0.0374092
3.24615
1.91788
-1.32311
-0.442675
2.61185
0.0272619
1.99989
5.51048
-0.902456
-5.34669
8.97566
-0.653103
0.393249
2.86213
1.81662
2.80605
-0.136892
-0.547371
2.35114
3.71205
-1.31218
3.23756
-0.821542
2.87567
-0.368598
2.65749
-0.505823
2.8398
1.30092
-0.731988
0.777726
1.15036
3.0083
1.0173
-0.797453
4.20355
-1.73159
0.294387
2.22891
3.12477
-0.754629
2.54165
-0.272025
-0.478853
1.16676
0.80762
2.4829
1.03294
3.06765
1.20663
-0.836477
3.7466
-1.55683
0.772032
1.31957
2.72116
-0.476246
3.64227
-1.44038
-2.94025
-2.42884
4.38478
4.69931
-0.39533
3.19006
2.58023
-0.965607
-0.286375
2.36187
1.80931
0.244037
-0.497163
2.56107
0.823818
1.24151
-1.65616
4.30113
-1.74966
4.80048
0.123877
2.72864
1.86189
-0.657807
2.97151
-0.672725
2.53231
-0.281692
5.41175
3.43102
-2.99733
-0.94344
4.35858
2.99711
-1.99218
-0.601012
0.493678
8.53939
-8.91469
-1.18607
3.46694
1.55834
0.649072
-1.21464
0.392786
2.28626
1.14496
-0.696466
0.677124
-0.569502
1.08523
2.41044
1.75498
-0.258114
1.92425
-0.408042
1.07176
-1.13859
1.12176
3.38667
-1.35877
0.665512
0.771122
2.84921
2.6021
-0.188634
-1.20435
1.62983
1.43616
0.548795
2.61112
-0.59824
-4.15644
4.23942
5.90008
-2.4478
4.39497
-3.58736
6.23541
-5.45126
2.41271
0.736847
1.11709
-0.479124
5.82108
-0.507259
3.58491
-3.23847
0.224493
1.86416
0.162905
1.62422
0.537156
2.66356
1.57478
-0.54294
0.672014
1.71218
0.152454
1.19974
2.75932
1.1931
0.831974
-0.649895
2.14035
0.600859
-0.172043
1.14574
-0.112049
-1.70722
2.70372
4.35171
3.02691
-2.67325
4.48202
-1.12592
1.88307
0.66357
0.047292
1.25146
1.42318
4.61824
1.13388
-2.0131
2.15934
-0.561348
-0.149037
2.62647
2.83143
-2.07312
-0.239864
4.89617
-2.54645
-1.65823
4.55644
5.76651
-0.274273
2.29735
0.776256
1.31266
2.13327
0.235102
1.80433
-0.0245569
4.11729
-0.749846
5.46451
-2.83854
4.23158
3.2942
-4.18489
-3.26854
4.51408
-2.08606
2.57292
-0.135442
2.02606
-0.684265
0.0752427
2.73597
2.92907
0.667039
1.53232
-0.75073
2.47284
0.67562
1.31865
-0.480196
2.36149
-0.353182
-0.248383
2.52148
-1.09445
2.20769
3.48594
0.133578
-9.04732
10.1672
5.48777
-4.94655
3.33104
-1.03246
-1.52756
2.93861
2.87967
-1.83466
-1.02722
3.8346
-0.376446
0.525832
2.35058
1.39404
-0.794708
2.3502
-1.86338
3.4086
3.51736
-0.962364
-1.64113
4.02284
0.362363
3.01435
-0.895853
1.69399
4.54356
0.142831
2.36201
-1.96208
0.0456088
1.89936
0.0535823
1.80604
3.48559
-1.03972
-1.68856
2.77027
1.28862
-0.885459
2.87037
0.705174
-1.26126
3.53015
0.115087
2.107
-0.300021
2.09337
0.597734
1.08675
-0.950136
3.85522
-1.33289
3.57014
2.07319
0.511809
1.37719
-0.107395
-0.447427
2.57019
2.34002
-0.299696
0.903706
2.33937
1.05822
-0.34919
-0.784933
1.55615
0.410872
2.83364
-0.752264
-0.72981
2.98241
2.97919
0.471447
0.550244
1.09893
1.02827
-0.317823
0.595448
2.08769
1.08976
1.22925
0.486155
0.471949
1.00915
-2.16777
1.29609
0.224985
3.75278
1.88542
4.75557
-2.22969
0.600966
8.06012
-3.23429
9.43724
-5.26646
2.29218
1.56462
-0.308006
0.290042
-0.146605
-8.57571
12.5179
3.86411
-5.1519
-2.07754
8.00813
4.99122
2.84918
-2.43257
-0.344553
4.73631
1.35831
0.560715
-1.00018
2.97424
1.19481
0.815558
-0.811197
2.88684
0.644889
1.18181
3.08934
-1.1491
0.362466
0.187828
1.76256
1.443
1.85683
0.785147
0.0220312
1.09701
-0.408367
2.24774
4.90865
-2.5001
1.81721
2.44854
-0.0187487
-0.633073
3.10145
-0.847117
-0.741411
3.28213
1.2448
11.3044
-6.793
3.15664
-1.8759
4.01259
3.98065
-2.01177
-13.1114
2.81246
13.1348
-3.83457
4.80088
3.26429
1.17813
6.60841
2.96294
-0.372056
2.60287
-0.662451
0.177132
-1.8021
2.61755
4.49364
2.33059
-1.37641
2.94588
-0.848933
1.56346
-0.85754
2.94512
0.628103
-0.971999
3.29807
0.421029
1.81916
0.760932
0.822067
0.62903
1.00064
-0.960369
3.87701
-1.35662
3.75714
0.649925
0.849785
0.947314
0.811547
-1.76181
3.86466
-1.29633
4.55978
1.7765
-0.48067
2.49258
0.448494
2.03513
-1.58429
3.92162
0.207812
3.09943
3.37336
-0.827268
-1.16547
-0.467503
0.750203
2.60548
1.32474
0.340297
1.5165
-1.22857
3.0724
5.32073
1.58735
-3.31175
0.499381
3.40092
1.35559
-1.26327
0.699147
2.56424
-2.18056
4.11091
-0.60732
5.47828
-3.92403
0.733407
0.92106
3.55312
0.589277
1.5567
-1.52368
1.20113
0.463229
-2.35081
4.07249
0.186142
-0.172452
1.88768
2.31326
-9.82073
-3.85379
10.3925
4.61224
2.7194
-0.525203
2.19752
-0.0621404
1.82571
0.0491217
2.1886
-0.315093
-0.274309
0.145018
2.2041
1.76681
0.86211
-0.456905
2.63517
1.22287
1.9589
0.35885
2.53134
-0.587074
0.875465
0.143918
1.85224
0.981959
-21.2718
9.50801
-7.75154
21.4235
0.0633223
0.457931
1.86537
1.21946
2.19293
-0.193413
-0.429983
2.43127
1.64642
-0.557137
2.64875
0.489405
0.25231
-0.151389
1.41129
1.78541
0.21283
1.83766
1.9449
0.326453
0.003552
1.58861
2.02413
0.359956
-0.644437
2.30143
2.93823
-0.0922295
1.4584
-0.0917947
0.155561
1.70615
1.11604
0.895622
2.96942
-0.81233
-1.28171
-0.439253
6.0978
5.06645
-0.467864
-0.205562
2.44335
2.59898
1.32205
-2.15911
4.53492
0.802507
-1.08541
0.119183
2.008
3.18458
0.789299
0.964587
0.842436
0.766722
-0.803856
3.04383
0.498517
1.80848
0.980639
0.727381
0.800824
0.822347
-0.825555
3.22216
-1.09507
2.8226
2.25935
-0.240422
-0.854617
2.94151
-0.450677
3.50742
-1.15897
2.66485
-1.82628
0.982284
1.45852
4.29521
-9.1785
-20.8438
9.30603
21.6069
0.271457
-0.556092
5.53794
4.6768
3.67012
-1.48878
-0.0436202
2.07589
5.03973
2.10928
0.54968
-2.57821
3.27261
3.60385
-0.943093
-1.38878
-1.16173
2.25595
2.87801
5.85553
2.81255
-3.17973
5.12647
-0.853641
-0.320107
2.81369
-2.06852
4.85849
-0.27574
-0.12912
2.48714
1.45307
2.21863
0.631434
1.41606
-0.0561199
-2.18341
1.57407
-0.00492407
3.78088
-2.27925
1.87586
0.589071
5.00484
-0.790574
2.74222
0.927429
1.01314
3.36802
3.28648
-1.15734
-1.22279
-0.964699
3.15634
1.7735
0.428031
2.81645
-3.46123
-0.691195
5.41904
-1.50616
-0.761682
3.51984
2.94324
2.50948
0.111901
1.91416
-0.487504
2.19204
-0.430741
2.64474
-0.138341
-0.580259
1.63842
0.627637
2.81878
1.88519
-0.948203
0.227421
3.0542
3.86555
-1.69604
0.775453
1.36247
3.88145
-2.05134
-0.949723
4.70119
-0.220306
-0.159843
2.15393
2.31729
1.64953
-0.450502
2.59077
0.428366
-1.03386
1.77595
3.36496
0.499438
-0.976866
-1.8114
3.4086
4.44065
-0.937535
1.03059
3.17183
1.14234
3.29063
-1.01212
2.57561
-1.77865
-0.729253
-1.97905
3.54396
4.54637
1.76239
0.935236
-2.70263
5.38992
1.71734
-0.210089
2.37746
-0.0899062
3.9181
-1.47949
3.67001
-2.02025
-0.336778
1.41
2.42457
0.630992
4.0538
-1.89396
1.38988
0.679503
3.82043
-1.67208
1.67443
0.676602
-3.42583
-3.5351
5.51199
5.85065
4.32838
-2.06796
1.59069
0.630936
0.63754
-2.17374
3.98427
1.28478
-1.94785
7.60955
-4.0508
5.06324
-0.577288
3.73486
-1.80478
2.3198
2.18697
4.81024
-2.20194
0.358843
-1.54011
3.84079
1.49893
0.699086
-8.26258
3.68169
-3.0575
9.76583
2.54086
1.00446
1.01366
-0.450513
-0.327632
1.61483
2.4179
0.421802
0.308876
-0.223647
2.19178
1.6037
0.965408
0.973448
2.3099
-0.400986
3.69265
-2.01611
2.48147
-0.854784
-0.540206
2.63673
2.41637
-0.311705
-2.12863
4.1087
2.03756
0.189529
-0.94336
3.07752
1.65017
0.380216
0.759265
2.29835
-0.462871
1.06807
-0.231021
1.85513
4.00472
-2.37401
3.20396
-0.871444
5.34994
1.78026
2.353
-0.501469
2.69169
-0.259169
0.167272
2.96595
1.70897
-0.482929
0.969556
0.353753
1.17281
3.04458
-0.709886
1.81348
0.493243
2.94497
2.54531
0.740953
-0.590226
1.56689
-0.0885791
2.08316
-0.00618391
2.32745
0.684441
-0.739285
1.40243
2.83364
3.5291
-1.59902
0.753134
1.04561
2.27136
-0.15121
0.558036
1.46816
-0.422705
-0.782635
2.97885
2.58107
2.07033
0.126343
0.109265
1.98437
4.11982
-2.31075
4.12393
-2.45075
2.35536
3.19678
-0.120216
-1.03736
5.02745
-1.38228
4.36435
-1.39149
2.11974
-0.256887
-4.72461
6.26125
-2.30326
3.15791
-0.913114
4.73641
-0.36009
3.24576
2.41474
-1.22942
3.8165
1.0434
0.941984
-1.82627
1.24449
3.45532
-1.36198
0.788036
-5.64618
3.57073
-1.83044
7.47273
2.89265
-1.93051
4.64223
-0.532747
5.28926
0.97905
1.62691
-2.61808
-4.11428
1.97727
1.13631
7.26017
1.37166
-0.120611
5.179
3.57952
0.197683
3.06679
1.57315
-1.29653
1.43538
-2.06795
4.03642
0.508732
-0.5827
1.01053
2.75709
1.13335
3.08897
-0.131256
2.43522
-0.780042
-1.1325
1.53041
3.42243
0.680763
0.422453
2.56796
-0.443691
1.80194
0.395829
2.10915
-0.11683
1.86278
-5.1488
5.35035
7.14324
-3.22522
0.38053
2.1089
1.59885
-0.0516731
0.344757
0.159733
1.62477
1.894
0.404084
1.74215
2.98057
-0.817426
-0.0724831
2.10238
2.21972
-0.00818295
2.41137
2.22599
-0.323141
-0.5114
1.56146
-0.898347
2.82431
0.311776
-0.3302
2.60823
2.40975
-0.557267
-2.82279
2.57361
0.156968
5.65086
4.8632
-0.944492
4.00372
-2.04875
4.20346
-0.80232
2.42973
-2.61633
1.43633
0.553758
-1.40405
3.50722
0.785212
0.0679708
1.82233
0.985516
0.472793
1.74803
1.42942
0.25236
2.8162
2.23553
-0.350752
-0.879928
-0.949341
5.10042
-2.30037
3.92574
-0.115461
2.21219
3.41811
-1.29685
-0.279495
1.35747
5.41335
-4.07457
1.17832
2.20508
6.41462
-3.01215
-2.5916
2.25398
0.429736
5.42578
-0.302234
1.7944
4.46507
-2.86138
-14.4843
19.4198
12.7047
-20.997
1.18687
0.169417
6.58326
4.04221
-0.965762
3.29148
3.35942
-1.00591
0.591797
4.89775
1.10256
-3.06913
-0.897797
3.01348
1.85982
0.234264
3.77676
-3.23782
4.98659
-1.98248
4.22938
-1.20087
-2.55387
2.59574
3.02591
-0.46091
2.33794
-1.23432
3.13327
1.10397
-0.993786
1.02327
2.56718
-0.479287
-0.98981
3.17921
2.44188
-4.69353
5.33376
-1.77234
1.58202
-0.357397
0.497166
2.36059
-0.188671
1.94787
-1.04736
2.73954
-0.907962
2.02258
-0.305966
2.60527
-0.0135893
-0.175814
2.30091
2.42116
-0.0861493
1.98565
2.20115
0.0553012
1.70073
2.56115
-0.510186
0.297312
4.57163
-2.19853
1.2426
1.04255
-1.25929
-7.89777
9.49662
3.08718
0.184118
-1.73073
4.02357
2.1446
0.57046
4.4957
1.65504
-2.31838
-2.9681
5.58846
-3.77188
4.56788
2.30473
1.19443
-0.442558
1.06533
2.33518
-0.23505
0.477669
1.65296
-1.20974
4.0464
-2.1723
2.93774
-3.08784
8.98275
6.3487
-5.53684
-10.8878
6.9529
-4.75184
13.2319
-1.59601
-0.740434
2.58537
3.51721
4.4769
-0.09277
2.42542
-1.79595
0.938192
-3.07289
6.06696
1.9401
6.6359
2.57761
-0.943005
-5.28376
4.082
-3.01604
-2.62441
4.33543
-0.796179
2.49291
3.02655
-0.350366
1.05031
0.723393
-0.126005
1.93643
-0.0431926
2.3041
2.09748
-0.262127
4.77967
1.40695
0.710682
-2.68194
-0.773017
3.03986
-0.100789
2.42104
0.521791
-0.470595
1.59047
2.53379
2.55994
-1.41405
3.5541
-0.532656
3.39772
-1.35087
3.83267
-1.0544
-0.0983351
2.02601
2.06659
-0.0608699
-24.3875
4.92045
-6.57447
23.2351
2.33506
-0.234209
2.37876
-0.312902
0.686389
3.53018
-1.66633
1.209
2.71046
-0.505302
1.39197
0.798371
6.69285
0.876431
-2.97755
2.88607
0.880756
-0.292677
2.31813
1.15737
2.13732
0.295086
0.0305193
1.63192
2.19509
-0.452414
2.36172
-0.259011
2.67229
-0.730901
1.70172
0.205278
-9.31016
8.88258
14.7023
-1.54594
-2.29874
4.32487
-0.708243
3.01899
5.19087
-2.33381
3.72193
-1.22508
5.28572
-0.124938
-3.44927
2.32441
2.03465
-3.50993
-0.0202614
5.53559
-6.47595
-17.7863
5.85428
16.7503
-2.51877
2.10681
4.70157
0.277048
-3.30426
-1.42214
5.12746
3.15598
-3.82255
1.31505
1.47939
7.33568
1.79499
-0.0403813
1.94048
0.207158
-3.81666
3.5297
-2.48165
4.81748
-1.09446
2.81901
3.08352
-1.31624
0.657133
-0.0801416
1.92938
1.11254
0.25624
-1.51608
3.95896
2.11723
-0.732275
3.47689
3.08665
-1.11259
-2.8536
3.13953
-0.766479
5.05967
2.6971
3.89023
-0.468497
-1.59841
2.99688
3.47071
-0.75184
-1.10267
-0.0145411
4.14851
-1.97687
2.03337
2.05528
-0.144753
0.93935
1.0381
0.0215085
-1.2434
3.57815
2.19566
-2.83464
1.32255
1.04824
4.93863
-0.87316
-0.76698
3.20224
3.18791
7.24829
-0.681153
3.83476
-3.39161
2.10575
3.63488
-1.60188
0.0716334
3.31103
1.22567
0.864935
-1.17931
1.6901
0.382216
3.26528
-1.2059
-0.684236
2.36386
2.96904
-0.170491
-0.65507
2.4324
2.8981
-0.220639
-1.84094
15.2206
6.87414
-10.039
3.19542
-0.00098731
1.87289
-1.35336
1.60378
-2.8595
5.30528
0.32867
0.88363
3.73528
1.10783
-1.57819
-0.714949
5.13384
-2.18767
3.4471
0.46989
1.66547
0.256235
1.50187
1.7678
0.10848
1.41045
0.45138
-1.76654
2.89085
-1.51114
3.10673
4.13944
-1.70635
4.3674
-1.1786
4.05428
-1.81492
-0.112981
2.38527
4.99607
1.43715
-3.47158
-0.0709158
4.12901
-1.67854
-1.8624
3.7984
0.307418
5.80673
1.12779
-3.84508
-1.66051
2.27948
3.78173
-0.288288
6.38546
-4.11277
-1.90402
4.51124
0.0508341
4.05584
-1.86705
1.9717
3.1824
-1.33773
-3.90521
5.57124
-2.59599
0.274947
5.3988
2.36183
5.42003
-10.9133
-3.34711
13.3408
-0.383077
3.98292
4.61921
3.50997
2.82359
-0.232119
2.1339
-0.878448
2.77825
1.37229
-0.712045
0.635328
2.8398
4.42114
-2.97731
-1.28608
4.43621
4.28134
-1.69017
-1.10407
0.359508
4.08837
-2.25647
1.42218
1.77533
5.08496
0.807246
-2.461
5.53955
0.703022
1.47805
-3.25968
-4.12072
2.62855
6.14781
-0.506388
4.47226
1.08725
0.967832
-2.40411
0.301969
2.56022
1.86119
-0.403995
-0.273182
2.0475
0.116657
2.42595
5.67824
1.68746
1.07709
-2.81994
8.35407
-17.1499
16.7655
-8.68236
0.773722
-0.977332
3.20184
1.4355
1.8206
0.212973
2.31391
-0.139409
2.70315
1.4302
0.977831
-0.472601
-0.145256
2.28778
2.98099
-0.786826
1.54429
-1.11515
0.676363
3.31562
-0.000232466
2.10048
-1.06728
3.24773
-1.21797
1.26844
3.45017
0.94861
2.09792
0.516602
-0.1049
1.79969
2.02194
0.0210416
2.05296
0.00612171
2.40779
-0.143063
-0.249412
2.26309
-1.74051
3.65963
3.78877
-1.44809
4.04465
2.08193
-0.484602
-2.50146
-14.5255
7.15345
-4.6924
16.7948
2.18357
-2.55543
4.69216
0.022325
0.280975
1.84444
-1.25603
3.43973
0.967299
-1.33702
3.52627
1.25797
1.89785
0.423001
-2.00245
4.3383
-0.690061
1.20748
2.80895
0.762842
-0.861738
3.01835
1.30473
0.739111
3.82042
-1.62783
0.836052
1.43365
2.12479
-0.375548
4.13038
-2.52451
-1.10587
0.220353
2.0863
3.3626
-1.3105
2.88947
-0.568479
3.72331
2.77718
-0.54997
2.91547
-0.70253
2.65238
-0.146024
-0.600549
2.21189
0.426745
2.12059
-2.21578
4.86078
7.61134
1.4346
-5.17247
1.4374
5.8626
-2.23264
4.30689
-3.67626
-1.77611
-0.755978
4.28191
3.40663
-1.61023
3.84653
3.00992
-0.682527
7.22118
8.56417
-5.1338
-4.15064
1.54501
6.2972
0.859479
-3.32351
-2.17397
5.87464
3.73907
-4.39037
0.0822459
-0.373119
2.00271
2.40952
-1.0683
3.14999
1.64842
0.406866
0.383802
1.75275
3.75363
-1.56836
-2.54845
1.12475
5.04676
1.38986
-2.45277
-0.0287965
2.69038
5.09068
-2.54437
2.3396
4.51772
-0.386413
2.05181
4.23744
0.162318
-2.01703
4.26089
1.15383
1.16125
-2.00062
5.38233
2.1344
-0.859334
2.414
-1.06743
1.0982
3.09475
0.915314
2.00445
2.43558
-0.364003
0.122748
-0.595395
2.69805
1.28968
0.573893
3.90398
-2.03181
-2.34273
3.64847
-1.52389
-0.574136
2.34269
3.40327
2.77671
-0.393375
-0.811892
2.43312
0.280262
2.2895
-0.236071
1.7608
5.09383
0.777318
1.71313
-2.58237
2.41259
0.886552
-0.402739
1.07542
-0.293076
2.03159
2.3333
0.042457
-16.6742
-18.4789
15.8724
15.5445
1.48638
-0.383186
2.26025
0.386579
-1.6316
0.380809
1.7791
3.96682
-1.2772
2.87844
-0.639067
3.40301
-1.39292
2.83106
3.9596
-0.481759
4.47258
-2.62559
-2.41293
4.93848
5.69755
-0.886153
-2.47687
3.63375
5.50188
-0.128408
2.82443
-2.42356
3.02607
-1.00749
3.29616
-0.688387
0.35584
1.61106
2.93036
-0.874408
1.61991
-0.509213
0.48382
2.6461
2.05434
2.45188
-0.291396
-0.249425
1.90764
0.094987
-0.0376082
1.79656
1.72956
-3.58033
0.30151
5.8686
-0.149027
0.813096
1.02392
1.96563
1.88369
-0.0808746
-0.313571
1.65082
3.5991
-0.923453
-1.64747
4.25373
0.215637
2.07819
1.38898
-0.463435
4.90549
0.244405
2.36397
-2.23055
-25.7093
-1.33654
23.3823
-0.713212
-0.337793
2.4913
2.34563
-0.454925
5.17253
2.88623
-2.76596
-0.375331
2.776
-0.697436
0.147245
1.93452
3.09623
0.242596
1.70481
-1.05743
0.967972
3.35687
0.753911
-1.57995
4.17927
0.287156
-1.77205
2.07177
6.90555
1.14589
1.27876
-3.80454
3.5954
-1.21075
3.09699
-0.790082
3.1397
-3.68617
-0.847144
5.71549
2.62937
0.840212
-0.525826
1.30146
3.13179
-0.0100208
-1.32633
1.74589
1.0402
-2.08333
3.84953
0.791393
-2.61587
3.98946
3.46595
-1.76583
3.99601
-0.803676
3.19509
-1.47473
-1.92453
4.32367
1.57524
0.731784
4.24579
-1.92422
1.97269
0.41748
0.421915
2.42728
-0.672645
1.34297
4.22316
4.02171
-1.54011
-1.47135
-1.50671
0.521961
1.66571
3.78615
3.36483
-1.10377
-0.442001
2.64878
-1.43654
-3.04417
5.3761
3.36264
0.74197
1.17813
2.9343
-0.937658
-1.4767
5.52327
2.82862
-4.01433
0.0178939
0.771869
1.8219
0.904472
-0.429416
1.54105
2.35247
0.35999
0.314337
2.11279
-2.06467
4.42645
0.85799
1.07912
-0.951538
2.90383
-5.81358
0.971758
8.1498
2.25173
7.05151
-3.13396
6.56296
-2.93465
2.43247
4.0758
-0.0474024
-1.70232
6.19437
-0.70684
2.06534
-4.37695
7.8988
-4.25111
1.7298
1.7017
2.20571
3.56212
-2.31791
-0.69028
-1.02991
7.15281
2.98774
-5.01422
2.05508
-3.12627
0.853969
6.27759
-1.02831
-1.36535
3.35627
3.77541
3.44501
-1.0581
-1.02485
3.33786
3.36941
-1.96563
-1.27086
3.96166
1.80896
0.0211975
2.42143
-0.65017
2.67943
0.723941
1.11036
-0.801734
0.310053
1.8927
-1.38486
3.72902
-0.560878
2.80082
-0.990876
3.23385
-3.62599
-1.90664
5.34713
3.60914
2.27539
0.153686
-0.393373
1.66105
3.13986
0.428939
1.70757
-0.996491
2.16223
-0.332724
1.83792
0.0253391
2.42767
-0.330021
2.78849
-0.740847
3.67853
-1.26088
3.21176
-1.61309
5.43651
-1.55332
4.87883
-2.64871
-4.59787
6.32256
-0.785168
1.95235
0.560002
1.79518
-2.43921
4.90298
)
;

boundaryField
{
    insideCircle
    {
        type            myTemperature;
        value           nonuniform List<scalar> 
24
(
4.80058
2.78854
1.06621
6.71873
-2.18628
0.307391
6.67179
4.46604
0.387319
-0.804291
5.60948
4.71353
-1.19413
1.88567
3.37759
6.14956
3.15988
-0.176079
5.67064
1.84008
1.36201
-0.173641
5.26126
3.66941
)
;
    }
    outsideCircle
    {
        type            myTemperature;
        value           nonuniform List<scalar> 
124
(
2.32994
0.254146
2.06285
-0.382849
0.487672
1.15968
2.25951
1.90797
1.43771
-0.0149242
0.464768
2.49247
-0.269953
2.14531
1.18622
1.17605
2.5703
0.999058
1.33131
-0.749456
-0.509956
0.69315
2.60416
1.50831
1.10905
-0.0643404
2.65999
-0.530188
-0.124782
-0.1228
2.44733
1.8707
2.5416
0.754979
-0.408077
1.49782
1.20293
-0.291435
2.53463
0.801048
-0.513071
1.04722
2.59171
1.11848
0.161846
-0.348233
1.96285
2.56677
0.866579
-0.635351
2.73179
1.26636
1.82269
0.174199
2.36531
-0.0296867
0.456421
2.09586
2.02657
-0.274508
-0.956473
-0.833861
3.59112
1.01711
2.69456
0.538953
-0.288089
1.47939
-0.310816
2.22176
-0.0461728
2.46839
2.37034
-0.310189
0.516388
1.59323
1.96166
-0.0431998
0.0532645
2.00297
-0.654018
0.859829
2.80351
1.3192
0.156083
2.56314
-0.377066
1.99105
-0.0752343
-0.130844
2.01712
2.27551
1.92113
2.5964
-0.283741
0.408305
2.46582
0.845595
-0.15775
0.991749
2.18708
-0.193236
0.53043
1.51939
2.46198
-0.467802
1.30111
0.777717
0.159401
2.49277
1.95219
-0.298121
-0.1982
2.07242
0.00648118
2.44081
2.10983
0.19038
2.48237
-0.417677
2.60406
1.22714
0.573699
-0.556068
)
;
    }
    topAndBottom
    {
        type            empty;
    }
}


// ************************************************************************* //
