/*--------------------------------*- C++ -*----------------------------------*\
| =========                 |                                                 |
| \\      /  F ield         | foam-extend: Open Source CFD                    |
|  \\    /   O peration     | Version:  3.0                                   |
|   \\  /    A nd           | Web:         http://www.extend-project.de       |
|    \\/     M anipulation  |                                                 |
\*---------------------------------------------------------------------------*/
FoamFile
{
    version     2.0;
    format      ascii;
    class       volScalarField;
    location    "7.3";
    object      p;
}
// * * * * * * * * * * * * * * * * * * * * * * * * * * * * * * * * * * * * * //

dimensions      [0 0 0 0 0 0 0];

internalField   nonuniform List<scalar> 
400
(
1.51886
0.776458
0.797314
0.572236
0.797918
0.706519
0.965175
0.904554
1.15713
1.10183
1.34931
1.29199
1.53862
1.4678
1.70116
1.58495
1.75235
1.50334
1.4582
0.792236
2.49383
1.88037
1.7925
1.4645
1.54292
1.31409
1.42619
1.23007
1.33953
1.1506
1.25063
1.05532
1.14529
0.932285
1.00639
0.758054
0.786027
0.457205
0.335356
-0.199701
2.07428
1.50395
1.48963
1.23423
1.35846
1.19359
1.34772
1.20572
1.36525
1.22543
1.38935
1.24386
1.41246
1.25287
1.41398
1.21974
1.32965
1.04635
0.99209
0.476159
2.11831
1.71758
1.63925
1.41888
1.45912
1.29347
1.36138
1.20761
1.27944
1.12732
1.20264
1.05046
1.1325
0.976034
1.0572
0.878149
0.917421
0.665188
0.553759
0.140088
1.77016
1.39139
1.39158
1.21711
1.31954
1.19997
1.33237
1.22326
1.3748
1.26638
1.44444
1.33622
1.54746
1.43439
1.66728
1.52286
1.71813
1.46624
1.46702
0.942775
1.65656
1.37779
1.3481
1.21898
1.25774
1.16045
1.21287
1.11812
1.17865
1.08668
1.16631
1.08451
1.197
1.12597
1.27251
1.18426
1.32045
1.11445
1.0814
0.511815
1.45739
1.22846
1.24777
1.15427
1.22993
1.15844
1.25807
1.18452
1.31535
1.24178
1.42385
1.35931
1.61429
1.56076
1.89326
1.81776
2.16802
1.93694
2.0681
1.29653
1.27539
1.15752
1.15815
1.10873
1.12491
1.0746
1.09196
1.03342
1.06183
1.00658
1.0665
1.03242
1.15056
1.14887
1.34507
1.34624
1.58745
1.43054
1.49691
0.672648
1.15282
1.14056
1.1574
1.14395
1.16562
1.12878
1.16916
1.11386
1.19275
1.13304
1.27958
1.23571
1.48946
1.47753
1.87368
1.86786
2.37519
2.19325
2.5188
1.49569
0.930926
1.04869
1.05958
1.08635
1.05719
1.03553
0.997775
0.950861
0.9221
0.872016
0.87521
0.851232
0.922185
0.954256
1.13438
1.21333
1.49922
1.44146
1.59684
0.662899
0.851163
1.1049
1.10235
1.16595
1.12072
1.10742
1.07433
1.02009
1.02095
0.94918
1.01407
0.955719
1.13732
1.12944
1.49948
1.54839
2.14067
2.07458
2.63648
1.60026
0.627208
0.994619
1.00892
1.10531
1.02917
1.02602
0.929265
0.876219
0.775783
0.701442
0.615499
0.558495
0.523533
0.53764
0.610655
0.735483
0.955618
1.06849
1.2645
0.581243
0.591751
1.08016
1.05994
1.19068
1.09214
1.09732
0.996109
0.931423
0.842642
0.73596
0.682651
0.572044
0.60814
0.553277
0.778501
0.84453
1.38434
1.50985
2.30278
1.69475
0.417347
0.972382
0.992738
1.14658
1.04054
1.05249
0.907173
0.837886
0.66467
0.544193
0.351945
0.222576
0.0381792
-0.0260259
-0.14389
-0.0331735
-0.00408862
0.330243
0.479207
0.552916
0.449924
1.06969
1.04835
1.23006
1.10728
1.12879
0.976205
0.89459
0.719209
0.56275
0.375717
0.182741
0.0229115
-0.132786
-0.163589
-0.145066
0.163119
0.51793
1.44451
1.82218
0.392272
1.02114
1.04877
1.24205
1.12585
1.14947
0.969256
0.878159
0.641202
0.463995
0.16862
-0.0577115
-0.404363
-0.601655
-0.957416
-0.949671
-1.20963
-0.682576
-0.696649
0.647053
0.539054
1.14406
1.13664
1.34674
1.22159
1.25234
1.06253
0.959138
0.710582
0.500814
0.191053
-0.0959911
-0.459424
-0.756493
-1.10744
-1.22463
-1.32921
-0.811211
-0.0194074
1.83882
0.689112
1.24281
1.26441
1.46786
1.34348
1.36463
1.15508
1.03658
0.751389
0.520188
0.146801
-0.17634
-0.658907
-1.01941
-1.60378
-1.80588
-2.38946
-1.8552
-2.15607
0.694567
1.00798
1.43556
1.43416
1.63615
1.5003
1.51696
1.29201
1.15953
0.858572
0.604088
0.209797
-0.157364
-0.678623
-1.12626
-1.77746
-2.12565
-2.75486
-2.32257
-2.2128
1.19227
1.48957
1.79315
1.76427
1.92071
1.75642
1.73513
1.49247
1.3346
1.02568
0.753382
0.352442
-0.0412159
-0.585553
-1.10118
-1.82707
-2.34451
-3.17789
-3.07091
-3.68325
-0.0904972
)
;

boundaryField
{
    cavity
    {
        type            implicitExtrapolation;
    }
    lid
    {
        type            implicitExtrapolation;
    }
    frontAndBack
    {
        type            empty;
    }
}


// ************************************************************************* //
