/*--------------------------------*- C++ -*----------------------------------*\
| =========                 |                                                 |
| \\      /  F ield         | foam-extend: Open Source CFD                    |
|  \\    /   O peration     | Version:  3.0                                   |
|   \\  /    A nd           | Web:         http://www.extend-project.de       |
|    \\/     M anipulation  |                                                 |
\*---------------------------------------------------------------------------*/
FoamFile
{
    version     2.0;
    format      ascii;
    class       volSymmTensorField;
    location    "8";
    object      sigma;
}
// * * * * * * * * * * * * * * * * * * * * * * * * * * * * * * * * * * * * * //

dimensions      [0 0 0 0 0 0 0];

internalField   nonuniform List<symmTensor> 
3012
(
(-0.117289 -0.112659 -0.00304849 0.0998242 0.00134472 4.93586e-18)
(-0.0474078 -0.102827 -0.041974 0.0508464 -0.0344845 3.89389e-17)
(-0.0244659 -0.173192 -0.00134458 0.040374 -0.000844066 1.33002e-18)
(-0.091348 -0.182591 -0.0414781 0.0896301 -0.0333011 -1.73054e-19)
(-0.0303829 -0.315431 -0.158169 0.032132 -0.187024 2.07258e-18)
(-0.151149 -0.0965427 0.0833101 0.143387 0.0607564 3.07457e-18)
(-0.0870318 -0.00284591 -0.166084 0.0865305 -0.196521 2.34025e-16)
(0.0363822 -0.238963 0.0856861 -0.0298861 0.0620844 5.2657e-18)
(-0.0779336 -0.0790302 -0.0249541 0.0671555 -0.0223191 1.79433e-17)
(-0.0129945 -0.0951251 0.00192681 0.0232996 0.00318299 1.40783e-17)
(-0.113283 -0.147836 0.00397773 0.0999203 0.00383143 1.17381e-18)
(-0.0397413 -0.161391 -0.027587 0.0535009 -0.0293103 -9.66035e-19)
(-0.0341565 -0.0944197 -0.0213635 0.0354438 -0.0217762 9.26835e-18)
(-0.0567346 -0.0881303 -0.00737773 0.0425525 -0.00813459 6.80124e-19)
(-0.0202635 -0.0955143 -0.00681261 0.0322723 -0.00932728 2.65927e-19)
(-0.0380532 -0.0841725 -0.0276431 0.0390328 -0.027493 -1.65087e-18)
(-0.0118681 -0.302773 -0.152044 0.0141565 -0.176333 1.45717e-18)
(-0.16491 -0.093155 0.0736693 0.157065 0.0618451 2.86955e-18)
(-0.105348 -0.00252908 -0.160194 0.104259 -0.185145 1.91621e-16)
(0.0591016 -0.226848 0.0753715 -0.0524975 0.0631068 5.68853e-18)
(0.0409457 -0.201216 -0.0397493 -0.0365807 -0.0301722 -1.07539e-17)
(0.0601707 -0.254538 -0.0226671 -0.0672105 -0.0256403 1.11241e-18)
(-0.00128781 -0.0550621 -0.0226713 0.00588741 -0.0254223 -1.1902e-17)
(0.0276613 -0.117578 -0.00738342 -0.0296237 -0.00453354 -5.27858e-18)
(-0.013863 -0.178743 0.0137974 0.0285543 0.00579676 2.54358e-18)
(-0.0505933 -0.0859454 -0.0594545 0.051933 -0.0583431 5.66314e-17)
(-0.0899835 -0.202885 -0.0586293 0.091213 -0.056692 -2.36838e-19)
(-0.132683 -0.116551 0.0116949 0.11552 0.00636705 4.16002e-18)
(-0.045853 -0.0802942 -0.0123235 0.0339385 -0.00715581 2.35461e-18)
(-0.0370051 -0.122436 -0.016651 0.0499704 -0.0152444 -2.96019e-19)
(-0.0453698 -0.107153 -0.0141915 0.0386026 -0.00767713 -5.08244e-19)
(-0.0404579 -0.0945872 -0.0145343 0.0462667 -0.00842005 8.01192e-18)
(-0.045067 -0.0984547 -0.0147014 0.0398215 -0.00808638 -5.3882e-19)
(-0.0406037 -0.118 -0.0141352 0.0527859 -0.0131282 -1.37615e-19)
(-0.0499983 -0.0785356 -0.0108813 0.0382866 -0.00640583 1.78873e-18)
(-0.0462276 -0.0967473 -0.014602 0.0511152 -0.00868178 7.80575e-18)
(-0.049643 -0.0855853 -0.0651245 0.0511535 -0.0618733 6.43214e-17)
(-0.0118527 -0.193973 0.0171193 0.0258952 0.00907244 2.63583e-18)
(-0.138949 -0.122087 0.0148906 0.122671 0.00946712 4.50131e-18)
(-0.0948243 -0.224321 -0.0632919 0.095677 -0.0592551 -1.18182e-20)
(-0.0227603 -0.0871276 -0.0159835 0.0235437 -0.0165037 2.77081e-18)
(-0.0154362 -0.0749752 -0.00747322 0.0236987 -0.00933497 -4.8391e-20)
(-0.0215857 -0.0571069 -0.023507 0.0224636 -0.0228608 -1.75951e-18)
(-0.0326401 -0.0750523 -0.00810448 0.0227742 -0.00889237 -1.94024e-19)
(-0.0460623 -0.0985968 -0.0166756 0.0418196 -0.00958553 -5.32522e-19)
(-0.0453144 -0.0991875 -0.0160092 0.049709 -0.00987467 9.40007e-18)
(-0.0535412 -0.0814182 -0.0102396 0.0409968 -0.00588518 1.95346e-18)
(-0.0384201 -0.117731 -0.0123153 0.0509473 -0.0112585 1.58299e-20)
(-0.048022 -0.0753046 -0.00820219 0.0503664 -0.00460841 3.21093e-18)
(-0.0438215 -0.0795099 -0.00943498 0.0502736 -0.0091097 -4.84161e-20)
(-0.0360359 -0.0545607 -0.00727207 0.0294776 -0.00518812 3.85521e-19)
(-0.0296331 -0.056624 -0.00854167 0.0274722 -0.00416616 -4.09218e-19)
(-0.111922 -0.109715 -0.00369539 0.0941518 -7.65841e-05 4.49984e-18)
(-0.0468911 -0.101624 -0.0399016 0.0502089 -0.0332231 3.56972e-17)
(-0.0851762 -0.172337 -0.0399355 0.0837034 -0.0325098 -3.20983e-19)
(-0.023615 -0.165299 -0.00214544 0.0396975 -0.00235546 1.2538e-18)
(-0.143158 -0.0343045 -0.109423 0.139242 -0.130103 5.69374e-17)
(-0.22728 -0.103927 0.0407934 0.218828 0.0399224 3.38341e-18)
(-0.0193976 -0.22722 -0.100338 0.0246256 -0.120239 -7.70913e-19)
(0.0580737 -0.164766 0.0396565 -0.0510496 0.0402668 9.63027e-18)
(-0.119161 -0.026334 -0.132851 0.116159 -0.151925 7.75579e-17)
(-0.198602 -0.0926828 0.0440246 0.19048 0.047521 3.04002e-18)
(-0.0045772 -0.245049 -0.123426 0.00877738 -0.141894 -4.09532e-19)
(0.0779638 -0.185936 0.0436911 -0.0711481 0.0480874 7.8217e-18)
(-0.0352911 -0.0892521 -0.0240644 0.0360297 -0.0269939 1.05073e-17)
(-0.0640896 -0.0880048 -0.00663281 0.0486992 -0.00859952 5.6534e-19)
(-0.0203466 -0.0921897 -0.00587306 0.0329678 -0.00946874 3.39187e-19)
(-0.04414 -0.0857266 -0.0315858 0.046236 -0.034917 -2.01959e-18)
(-0.00571382 -0.0429938 -0.0095245 0.0139769 -0.0124107 -9.11071e-19)
(-0.0140666 -0.0353771 -0.0427395 0.0183276 -0.0577259 -4.28852e-18)
(-0.00239595 -0.066165 -0.0235727 0.00167122 -0.033051 -2.51739e-18)
(-0.0146525 -0.0645406 -0.0105147 0.00283646 -0.0127246 -1.62652e-18)
(-0.0529404 -0.0748349 -0.0250752 0.0618532 -0.0245197 -8.58063e-19)
(-0.0460919 -0.0578823 -0.0122653 0.0513435 -0.0105303 -7.95701e-19)
(-0.0355637 -0.0620039 -0.011424 0.0282628 -0.00992918 -1.20698e-18)
(-0.0253705 -0.0475354 -0.0138388 0.0184982 -0.0118422 -1.68704e-18)
(-0.0303539 -0.05522 -0.0103848 0.0246557 -0.00823031 -3.02886e-18)
(-0.0634708 -0.0854946 -0.0186618 0.0700128 -0.0178777 -5.13796e-19)
(-0.0665736 -0.0752506 -0.0126356 0.0699068 -0.00958962 -2.23604e-18)
(-0.026351 -0.0626927 -0.0121013 0.0222378 -0.0087856 -1.4885e-18)
(-0.039567 -0.0889633 -0.0282849 0.0402058 -0.0318007 1.61825e-17)
(-0.0777015 -0.093018 -0.00462819 0.0604004 -0.00737378 1.17227e-18)
(-0.0514199 -0.10278 -0.0348124 0.0540002 -0.0386268 -1.81307e-18)
(-0.0186573 -0.103982 -0.00380169 0.0327686 -0.00837283 7.13748e-19)
(-0.0176573 -0.0410801 -0.0102116 0.0239698 -0.011928 -6.25121e-19)
(-0.0302603 -0.0195518 -0.0371935 0.0320946 -0.0472017 -4.33056e-18)
(-0.016804 -0.0735133 -0.0209482 0.0168164 -0.0268982 -7.23416e-18)
(-0.0321121 -0.0601422 -0.0113897 0.0239375 -0.0124666 -2.38686e-18)
(-0.0388154 -0.0690779 -0.0109121 0.0349925 -0.0058465 -6.53176e-19)
(-0.0517855 -0.091035 -0.0128728 0.060155 -0.0128782 -1.97338e-19)
(-0.0432901 -0.0603033 -0.0088398 0.0352714 -0.00621939 1.09281e-19)
(-0.0553479 -0.0802419 -0.0109831 0.058879 -0.00658079 3.07377e-18)
(-0.0123608 -0.10012 0.00464925 0.0229639 0.00487308 1.34615e-17)
(-0.0801442 -0.0796969 -0.0265781 0.0699333 -0.0265625 2.02767e-17)
(-0.119559 -0.147597 0.0066225 0.105801 0.00542582 1.33536e-18)
(-0.0435053 -0.165182 -0.0291745 0.0567746 -0.0330417 -1.03049e-18)
(-0.169214 -0.114332 0.0297716 0.154402 0.0198424 2.72216e-18)
(-0.0752573 -0.192914 -0.0659484 0.0821055 -0.0865271 -7.56484e-19)
(-0.0954716 -0.0550235 -0.0667841 0.0913782 -0.0881431 6.12159e-17)
(-9.39682e-05 -0.139131 0.0297738 0.0120128 0.020394 7.18714e-18)
(-0.0040221 -0.0348308 -0.0105581 0.0112562 -0.012795 -1.05599e-18)
(-0.0102413 -0.0239249 -0.0459212 0.0140978 -0.0615941 -4.65705e-18)
(0.00190857 -0.0612142 -0.0243073 -0.00249609 -0.0337449 -5.42492e-18)
(-0.00753769 -0.0568829 -0.0116551 -0.00297561 -0.0132346 -2.12195e-18)
(-0.0559958 -0.0662744 -0.0251446 0.0638857 -0.0238738 -8.2146e-19)
(-0.0326446 -0.0527804 -0.0114413 0.0261481 -0.0106314 -1.40729e-18)
(-0.0503384 -0.0528333 -0.0123059 0.0549559 -0.0112438 -2.11079e-18)
(-0.0246548 -0.0419017 -0.0134981 0.0186151 -0.0115128 -2.70647e-18)
(0.00578051 -0.0375103 -0.0356391 -0.0019258 -0.0314357 -1.98964e-17)
(0.0568846 -0.0532935 -0.0103496 -0.0590634 -0.00164269 -1.25673e-17)
(0.1558 -0.0645828 -0.0355924 -0.161121 -0.0314061 1.43074e-18)
(0.121028 -0.0542062 -0.0595815 -0.11744 -0.0566053 -1.63097e-17)
(-0.0523199 -0.0816362 -0.00925983 0.0397461 -0.005846 1.62427e-18)
(-0.0353472 -0.11137 -0.010314 0.0473314 -0.00968626 1.4392e-19)
(-0.043491 -0.0991719 -0.0166006 0.0469773 -0.0113512 9.58448e-18)
(-0.0418001 -0.0918099 -0.0182495 0.0390427 -0.0117267 -6.34275e-19)
(-0.0540616 -0.0113424 -0.00982161 0.0547746 -0.00939205 -1.17054e-18)
(-0.0109562 -0.0147682 -0.00916624 0.009847 -0.00882453 -3.97598e-19)
(-0.0602382 -0.013409 -0.0118483 0.0613825 -0.0114058 -2.14943e-19)
(-0.00602894 -0.0135441 -0.00626413 0.00527023 -0.00592982 -1.34961e-18)
(0.00876258 -0.0315675 -0.0113474 -0.0103876 -0.0122539 -5.00488e-19)
(0.0208406 -0.0448166 -0.0103329 -0.0209636 -0.0102497 -2.17146e-18)
(-0.019006 0.0114107 -0.0202443 0.0197869 -0.0184178 -1.19434e-18)
(-0.0034184 -0.00949277 -0.0104427 0.00437786 -0.0113797 -6.5508e-19)
(-0.0695692 -0.101483 -0.0377162 0.0736654 -0.0187151 5.44272e-17)
(-0.184984 -0.141048 -0.000502096 0.172871 0.0199024 8.16959e-18)
(-0.0812121 -0.238815 0.00388576 0.0931959 0.0195516 7.60561e-19)
(-0.203177 -0.279219 -0.0332758 0.199371 -0.0146944 1.08143e-18)
(-0.0613346 -0.0614203 0.0305168 0.0648183 0.0281399 2.76922e-17)
(-0.369103 -0.29004 0.0358014 0.364832 0.0314728 3.54656e-18)
(-0.148616 -0.230843 -0.00354539 0.155488 0.0297633 -1.38931e-18)
(-0.257573 -0.132748 -0.0120404 0.25154 0.0275653 8.76539e-18)
(-0.0709436 -0.103501 -0.0530244 0.0742051 -0.0300925 6.68846e-17)
(-0.189113 -0.158678 0.0120548 0.177329 0.0260776 6.95054e-18)
(-0.198097 -0.318267 -0.0480441 0.195555 -0.0251517 8.74395e-19)
(-0.0787507 -0.263642 0.016105 0.0899725 0.026263 1.33609e-18)
(-0.0237139 -0.0779846 0.041394 0.0274231 0.0334478 2.21588e-17)
(-0.120809 -0.209264 -0.0150639 0.127036 0.00833523 -2.33922e-18)
(-0.356549 -0.249626 0.0459782 0.351938 0.0360362 5.11062e-18)
(-0.229734 -0.113981 -0.0233041 0.224419 0.00471657 9.83038e-18)
(-0.013988 -0.172625 0.00996484 0.0291368 0.00322047 2.257e-18)
(-0.0883045 -0.193545 -0.0534706 0.0892 -0.0511071 -3.1499e-19)
(-0.127515 -0.11476 0.00808459 0.10994 0.00415797 4.13627e-18)
(-0.047434 -0.0887617 -0.053895 0.0490768 -0.0523756 5.06897e-17)
(-0.0752117 -0.224877 -0.0464205 0.0817827 -0.0525567 -1.8723e-18)
(-0.305987 -0.197825 0.0423908 0.299378 0.0316757 4.57649e-18)
(-0.19607 -0.077018 -0.0545869 0.190662 -0.0593876 2.09907e-17)
(0.00627231 -0.123298 0.0391164 -0.000892796 0.0304118 1.65247e-17)
(-0.0851905 -0.217069 -0.0303444 0.0924951 -0.0181858 -1.79262e-18)
(-0.294067 -0.213338 0.039062 0.287803 0.0299085 4.37152e-18)
(-0.193172 -0.0875559 -0.0378076 0.18706 -0.022165 1.64778e-17)
(-0.00781839 -0.103505 0.0350964 0.0128732 0.0280693 2.05187e-17)
(-0.0216979 -0.0458661 -0.0055196 0.0209003 -0.00301656 -2.84463e-19)
(-0.0305325 -0.0526473 -0.00603717 0.0264083 -0.00476602 3.21628e-19)
(-0.0398979 -0.0746099 -0.00479713 0.0410494 -0.00300263 2.37266e-18)
(-0.0338322 -0.0707616 -0.00672744 0.0376556 -0.00620255 4.1005e-20)
(-0.0495229 -0.0800809 -0.00990395 0.0524036 -0.00568461 3.91393e-18)
(-0.0451919 -0.0873067 -0.0105376 0.0529724 -0.0103274 -6.45049e-20)
(-0.039682 -0.0586806 -0.00800526 0.0318925 -0.00556493 5.02145e-19)
(-0.0335434 -0.0638519 -0.0102632 0.0307746 -0.00522525 -4.84568e-19)
(0.0141612 -0.0543216 -0.0352179 -0.0107178 -0.0316935 -1.30631e-17)
(-0.0136122 0.00952977 -0.0346728 0.00899337 -0.031198 -3.19647e-18)
(-0.000573087 -0.0188562 -0.0880027 0.00399247 -0.0971927 -5.26725e-18)
(0.0171921 -0.0370676 -0.036153 -0.0194986 -0.0364699 -2.52974e-17)
(-0.150808 -0.127035 0.0322847 0.136757 0.0194594 4.33219e-18)
(-0.0545958 -0.070657 -0.0873398 0.0553145 -0.0863202 9.16045e-17)
(-0.0051305 -0.211708 0.0345579 0.0170874 0.0198459 3.42132e-18)
(-0.0957239 -0.256729 -0.0835371 0.0971786 -0.0815187 3.59866e-19)
(-0.0443526 -0.0995912 -0.0141277 0.0385554 -0.00767743 -5.5938e-19)
(-0.0406463 -0.117446 -0.0152031 0.052806 -0.0141738 -2.18812e-19)
(-0.0473979 -0.0778508 -0.0113166 0.0359712 -0.00677247 1.76657e-18)
(-0.0451449 -0.0942771 -0.0142417 0.0503176 -0.00836847 7.19234e-18)
(-0.0606843 -0.21738 -0.0568837 0.0675748 -0.0683868 -1.45406e-18)
(0.0126129 -0.130868 0.0356423 -0.00620254 0.0297095 1.46389e-17)
(-0.173928 -0.0667055 -0.0639825 0.168397 -0.0750412 2.92002e-17)
(-0.269813 -0.168444 0.0382821 0.261948 0.0304289 3.90973e-18)
(-0.168713 -0.0853456 -0.0314287 0.161026 -0.0111409 1.75042e-17)
(-0.0772708 -0.208031 -0.0255409 0.0863638 -0.0100588 -1.14272e-18)
(-0.24639 -0.208538 0.0264436 0.239093 0.0225377 3.33929e-18)
(-0.0171297 -0.0904553 0.0224864 0.023033 0.0206601 2.37788e-17)
(-0.152041 -0.137604 0.0287761 0.138361 0.0214032 4.81976e-18)
(-0.0520467 -0.0846825 -0.0839668 0.053509 -0.073275 8.79463e-17)
(-0.0135962 -0.232175 0.0313946 0.0254599 0.0216846 2.94044e-18)
(-0.10652 -0.278175 -0.0800874 0.106983 -0.0683966 4.06446e-19)
(-0.0557143 -0.102777 -0.0367903 0.0660212 -0.0460315 -3.09421e-18)
(-0.0739601 -0.0923869 -0.00424794 0.057656 -0.00849569 4.54469e-19)
(-0.0425441 -0.0777244 -0.0233161 0.0366736 -0.030521 1.08485e-17)
(-0.026804 -0.0886658 -0.00470658 0.0385227 -0.00846022 1.08629e-18)
(-0.0399268 -0.0752052 -0.0214673 0.0328687 -0.0275153 9.27414e-18)
(-0.0280178 -0.0825014 -0.00596744 0.0391244 -0.00774268 1.92543e-18)
(-0.0436278 -0.102008 -0.0341638 0.0548383 -0.0440826 -2.7599e-18)
(-0.0596641 -0.0957793 -0.0052281 0.0442541 -0.00766499 3.02065e-19)
(0.00291685 -0.0471717 -0.0332564 0.00121027 -0.0293852 -1.42731e-17)
(0.0532504 -0.0250681 -0.0329741 -0.058829 -0.0291348 -1.16831e-18)
(0.0420324 -0.0345031 -0.070988 -0.0380303 -0.0756468 -9.07615e-18)
(0.0284928 -0.0453133 -0.0241002 -0.0311021 -0.0210185 -1.77551e-17)
(-0.0356258 -0.0959688 -0.0152226 0.0423398 -0.00832287 1.13524e-17)
(-0.0318967 -0.133795 -0.0176621 0.0464685 -0.0152574 -3.05371e-19)
(-0.0532557 -0.0843489 -0.0138749 0.0400067 -0.00708038 4.16632e-18)
(-0.0542995 -0.12215 -0.0145436 0.0463572 -0.00748316 -2.79397e-19)
(-0.033994 -0.0867891 -0.0241077 0.0344317 -0.0281655 9.31538e-18)
(-0.063031 -0.0859783 -0.00670062 0.0478026 -0.00903077 3.04697e-19)
(-0.0437463 -0.0803775 -0.0326126 0.0463055 -0.0377458 -2.27981e-18)
(-0.0197256 -0.086686 -0.00589792 0.0320014 -0.00969329 2.61794e-19)
(-0.0357778 -0.0959457 -0.0218209 0.0373507 -0.0215499 1.07085e-17)
(-0.0212682 -0.100611 -0.00684066 0.0337787 -0.00913522 3.22372e-19)
(-0.0592295 -0.0894367 -0.00731826 0.0446101 -0.00765459 9.65843e-19)
(-0.0398768 -0.0895167 -0.0272918 0.0404972 -0.02625 -1.4588e-18)
(-0.031969 -0.0754985 -0.00429388 0.0325064 -0.00380719 2.51676e-18)
(-0.0272804 -0.0646939 -0.00576656 0.0294128 -0.00546471 1.29866e-19)
(-0.0160731 -0.0358126 -0.00537841 0.0158475 -0.00452855 -2.48378e-19)
(-0.0233023 -0.0507062 -0.00578735 0.0208919 -0.00513519 4.18808e-19)
(0.0269749 -0.0537377 -0.00756126 -0.0271964 -0.00776229 -1.76179e-18)
(0.0134764 -0.0379033 -0.0119991 -0.0156731 -0.0129857 -2.88138e-19)
(-0.00144434 -0.0135139 -0.0114018 0.00274391 -0.0124087 -9.13465e-19)
(-0.0181158 0.00957415 -0.0140962 0.0192235 -0.0123784 -1.15062e-18)
(-0.0180727 -0.0997537 -0.00338697 0.032022 -0.00841951 7.20718e-19)
(-0.0513732 -0.100803 -0.0357017 0.0545912 -0.0414696 -1.99716e-18)
(-0.0385601 -0.0862432 -0.0284165 0.0388045 -0.0334235 1.57903e-17)
(-0.0769746 -0.0926103 -0.0042557 0.059593 -0.00763607 9.93056e-19)
(-0.0608298 -0.0111173 -0.0109079 0.0618225 -0.00969808 -1.15513e-18)
(-0.00761475 -0.014224 -0.00705145 0.00662482 -0.00724625 -1.50668e-18)
(-0.0127146 -0.0157359 -0.0102836 0.0111644 -0.00913282 -3.6391e-19)
(-0.0678945 -0.0135548 -0.0135575 0.0694254 -0.0139636 -2.27433e-19)
(-0.0430882 -0.104981 -0.0133594 0.0359469 -0.00750076 -5.62757e-19)
(-0.0420817 -0.0781439 -0.0126227 0.0307168 -0.00780876 2.11997e-18)
(-0.0397064 -0.0922648 -0.0138304 0.0456586 -0.00824791 6.90597e-18)
(-0.0373354 -0.120213 -0.0177322 0.0499749 -0.0164876 -4.03558e-19)
(0.0187924 -0.0677683 -0.0137744 -0.0196302 -0.0151613 -2.03034e-18)
(0.0197659 -0.0701902 -0.0118754 -0.0263298 -0.0142344 -5.5615e-19)
(0.000563909 -0.0309539 -0.0304156 0.0027089 -0.0285 -3.12075e-18)
(-0.00205421 -0.034282 -0.0114227 0.00615048 -0.0137994 -2.06937e-18)
(-0.0420833 -0.0369506 -0.0115143 0.0373581 -0.0107659 -7.81083e-19)
(-0.069627 -0.0449076 -0.0291278 0.0742412 -0.032593 -7.22029e-19)
(-0.0213778 -0.0371953 -0.0149722 0.0183265 -0.0166169 -2.78232e-18)
(-0.050838 -0.0413351 -0.0122375 0.0539531 -0.0112813 -1.75474e-18)
(-0.0318899 -0.130977 -0.0188758 0.0462785 -0.0169012 -4.32493e-19)
(-0.0327657 -0.0924075 -0.0142074 0.0398066 -0.0076967 1.03223e-17)
(-0.0535069 -0.120498 -0.0134001 0.0449066 -0.00685717 -2.72171e-19)
(-0.0488707 -0.0819878 -0.0143681 0.0361157 -0.00799929 4.29141e-18)
(0.011368 -0.176508 -0.0400763 -0.00624072 -0.032604 -8.52496e-18)
(0.0261478 -0.220014 -0.0195568 -0.0346073 -0.0229553 6.32627e-19)
(-0.00648361 -0.0620221 -0.0195864 0.0120062 -0.0227655 -9.04383e-18)
(0.0153817 -0.113641 -0.0115435 -0.0176223 -0.0097091 -3.68089e-18)
(0.0237412 -0.0618368 -0.0137512 -0.0263213 -0.00695547 -8.59937e-18)
(-0.00675609 -0.0493588 -0.0281378 0.0117274 -0.0272385 -1.40375e-17)
(0.0401336 -0.0630404 -0.0507187 -0.035454 -0.0463656 -1.18459e-17)
(0.0599278 -0.0711055 -0.0279767 -0.0670688 -0.0273001 8.17103e-19)
(-0.0550254 -0.107281 -0.0359643 0.0657273 -0.0458389 -2.84714e-18)
(-0.0757387 -0.0965603 -0.0031057 0.0593095 -0.00726052 5.13611e-19)
(-0.0456308 -0.0786522 -0.0235205 0.0393328 -0.030984 1.20288e-17)
(-0.0276645 -0.0901563 -0.00364248 0.0395334 -0.00725035 1.86409e-18)
(-0.0446574 -0.0768644 -0.0225591 0.037739 -0.0296676 1.14488e-17)
(-0.0496546 -0.107162 -0.0345388 0.0608433 -0.0447899 -2.6725e-18)
(-0.0277795 -0.0871555 -0.00401358 0.0393926 -0.0067012 2.40194e-18)
(-0.0701382 -0.09798 -0.00330254 0.0540967 -0.00663952 4.59839e-19)
(-0.0108152 -0.125937 0.0201255 0.0231369 0.0126609 8.25541e-18)
(-0.0926026 -0.0717481 -0.0462226 0.0866602 -0.0642171 4.16096e-17)
(-0.156957 -0.126137 0.020853 0.141257 0.0123993 2.17405e-18)
(-0.0726409 -0.17715 -0.0479472 0.0817899 -0.0662677 -1.11841e-18)
(-0.0266053 -0.0375166 -0.00668861 0.0244826 -0.00404757 -5.92949e-19)
(-0.0332744 -0.0374416 -0.00641549 0.0288885 -0.00513406 -7.19178e-19)
(-0.0619739 -0.063696 -0.00719098 0.063964 -0.00499804 9.09626e-20)
(-0.0567917 -0.0653514 -0.0108323 0.0613744 -0.0109166 -1.87667e-19)
(-0.0102876 -0.0760809 -0.0112182 0.0107069 -0.0118438 -1.06732e-18)
(-0.00686493 -0.0510625 -0.00691598 0.011398 -0.00816702 -1.99223e-19)
(-0.00685484 -0.0201287 -0.0178964 0.00740592 -0.0170859 -1.28012e-18)
(-0.0127075 -0.0518448 -0.00773709 0.00723205 -0.00839783 -5.7476e-19)
(-0.0521355 -0.116377 -0.0341013 0.0636997 -0.0446058 -2.36272e-18)
(-0.049576 -0.0772357 -0.0237146 0.0422654 -0.0312264 1.39609e-17)
(-0.0792239 -0.104337 -0.000967115 0.0628486 -0.00471836 6.27206e-19)
(-0.0263699 -0.0907294 -0.00175216 0.0383308 -0.00475935 3.70484e-18)
(-0.0273007 -0.0913773 -0.0178796 0.028247 -0.0184772 4.88559e-18)
(-0.0180628 -0.0826617 -0.00726454 0.027727 -0.00944583 4.66669e-20)
(-0.0281733 -0.0667181 -0.0250704 0.0291313 -0.0248285 -1.76674e-18)
(-0.0417114 -0.0810895 -0.00783307 0.0301894 -0.00873049 7.85509e-20)
(-0.0333099 -0.0921793 -0.0218219 0.0343127 -0.0233541 8.70376e-18)
(-0.0573924 -0.0873761 -0.00728239 0.0431402 -0.00854608 4.80921e-19)
(-0.0199674 -0.0917709 -0.00661833 0.0318564 -0.00950642 2.39002e-19)
(-0.039082 -0.0816071 -0.0288962 0.0405162 -0.0302483 -1.8657e-18)
(-0.124809 -0.116521 0.00101043 0.107516 0.00321454 4.90507e-18)
(-0.0487537 -0.0991754 -0.0483099 0.0516957 -0.0403308 4.50605e-17)
(-0.0931331 -0.194767 -0.0475884 0.0921461 -0.0387636 -1.25282e-19)
(-0.0210586 -0.17884 0.00295303 0.0365648 0.00161177 1.65923e-18)
(-0.0199245 -0.0431933 -0.00538476 0.019316 -0.00328883 -2.76424e-19)
(-0.0313124 -0.0692981 -0.00649683 0.034729 -0.00599447 5.61565e-20)
(-0.0290725 -0.0513454 -0.00601918 0.0253388 -0.00487526 3.24361e-19)
(-0.0376301 -0.074296 -0.00453733 0.0386034 -0.00309655 2.31671e-18)
(-0.0544395 -0.0933495 -0.100831 0.0560022 -0.0841123 1.15487e-16)
(-0.167862 -0.170432 0.0470903 0.157383 0.0392463 4.7826e-18)
(-0.136757 -0.360271 -0.094925 0.136582 -0.0773732 8.23367e-19)
(-0.0334074 -0.290203 0.0499167 0.0426133 0.0400716 2.69224e-18)
(-0.0463071 -0.0676791 -0.124289 0.0472115 -0.116851 1.50106e-16)
(-0.110235 -0.360891 -0.117839 0.110789 -0.109125 1.01878e-18)
(-0.160659 -0.156355 0.0645546 0.151174 0.0466021 4.10961e-18)
(-0.00886338 -0.282861 0.0669533 0.0169725 0.047395 3.3408e-18)
(-0.0432466 -0.0920095 -0.0155663 0.039359 -0.00878485 -5.42216e-19)
(-0.0508807 -0.0777905 -0.0098142 0.0391801 -0.00593564 1.60725e-18)
(-0.0462661 -0.0964498 -0.0148394 0.0503419 -0.00907317 8.16152e-18)
(-0.0397349 -0.112383 -0.0118934 0.0513746 -0.0111245 6.46403e-21)
(-0.0501759 -0.121961 -0.0330689 0.0621583 -0.043369 -2.1393e-18)
(-0.0517702 -0.0778173 -0.023621 0.0439378 -0.0306081 1.46728e-17)
(-0.0814392 -0.109517 -0.000150619 0.0652321 -0.00346225 6.73965e-19)
(-0.0249322 -0.0920174 -0.00103801 0.0368345 -0.00354747 4.69251e-18)
(-0.0431515 -0.0969554 -0.0150122 0.0465323 -0.00993482 8.28085e-18)
(-0.0490601 -0.0780194 -0.0090865 0.0374376 -0.0058648 1.4253e-18)
(-0.0359453 -0.107539 -0.0103638 0.0470953 -0.00983522 9.66601e-20)
(-0.039505 -0.0864869 -0.016454 0.0367317 -0.0101648 -5.92975e-19)
(-0.124538 -0.115424 0.00357467 0.106939 0.00279121 4.44244e-18)
(-0.0477539 -0.0956132 -0.0494712 0.050105 -0.04523 4.60897e-17)
(-0.0891033 -0.190728 -0.0489832 0.0890203 -0.0440386 -2.60393e-19)
(-0.0171757 -0.174057 0.00542705 0.0326457 0.0014785 1.89445e-18)
(-0.0110719 -0.125122 0.0197231 0.0238628 0.0114086 7.22491e-18)
(-0.0879063 -0.0693502 -0.0474385 0.0825538 -0.0659473 4.28767e-17)
(-0.152438 -0.12041 0.0202147 0.136125 0.011097 2.17346e-18)
(-0.0746283 -0.172428 -0.0495804 0.0833335 -0.0681781 -1.15072e-18)
(-0.0249522 -0.0632665 -0.0124724 0.0336504 -0.0108338 -2.27536e-19)
(-0.0263713 -0.0968609 -0.0344975 0.0367747 -0.0460884 -2.6406e-18)
(-0.0218234 -0.0692967 -0.0186586 0.0149233 -0.0232589 1.52676e-18)
(-0.0311581 -0.103852 -0.0116562 0.0188332 -0.0105674 -3.66767e-19)
(-0.0148756 -0.0794536 -0.0187672 0.0150339 -0.0225904 -4.16666e-18)
(-0.0160859 -0.0500789 -0.00897978 0.0225528 -0.0109601 -4.43778e-19)
(-0.0283068 -0.0652146 -0.0100236 0.0201584 -0.01132 -1.66409e-18)
(-0.0266397 -0.0281384 -0.0319671 0.0281849 -0.0374813 -3.33775e-18)
(-0.0280034 -0.0888002 -0.0218208 0.0240308 -0.0265923 5.44563e-18)
(-0.0649753 -0.109855 -0.00904739 0.0500455 -0.0136122 1.805e-19)
(-0.0529635 -0.107691 -0.0401446 0.0613854 -0.0444816 -4.2656e-18)
(-0.0190867 -0.0848499 -0.00913527 0.029453 -0.0134891 -1.89228e-18)
(-0.160582 -0.113307 0.026463 0.144797 0.015808 2.61513e-18)
(-0.0774319 -0.183192 -0.0612738 0.0843572 -0.0814727 -8.51518e-19)
(-0.0892248 -0.0599267 -0.0610673 0.0853346 -0.0820634 5.69925e-17)
(-0.00445876 -0.135508 0.0265761 0.0170826 0.0162645 6.49194e-18)
(-0.0197486 -0.0416532 -0.0100427 0.0270841 -0.0120195 -6.21043e-19)
(-0.0205767 -0.0682768 -0.0217811 0.0204875 -0.0295091 -5.42869e-18)
(-0.0344188 -0.0216175 -0.0380937 0.0368598 -0.0513953 -4.31941e-18)
(-0.0384727 -0.0557263 -0.0112108 0.028786 -0.0124217 -2.16289e-18)
(-0.0512543 -0.0883322 -0.019949 0.0589423 -0.0184839 -5.79523e-19)
(-0.0244199 -0.058059 -0.0112844 0.0178772 -0.00858965 -2.49919e-18)
(-0.0537161 -0.0752762 -0.0128721 0.0577247 -0.00994322 -1.41064e-18)
(-0.0224395 -0.0684507 -0.0122689 0.0173271 -0.00918806 -1.41778e-18)
(-0.0651323 -0.083496 -0.0165477 0.0717947 -0.0164564 -3.86955e-19)
(-0.0344468 -0.0545137 -0.00950752 0.028497 -0.00760622 -1.97575e-18)
(-0.0678892 -0.0738687 -0.0113773 0.0711387 -0.00823198 -8.25206e-19)
(-0.0307859 -0.0619146 -0.0109233 0.0268946 -0.00737976 -1.16523e-18)
(-0.0182658 -0.0375005 -0.0138279 0.0143163 -0.0135408 -2.56097e-18)
(-0.0614135 -0.0576596 -0.0235703 0.0667 -0.0191052 -7.57465e-19)
(-0.0231296 -0.0346926 -0.0119834 0.0189251 -0.00875469 -6.76826e-18)
(-0.0649385 -0.0517885 -0.014703 0.0678385 -0.0143164 -7.25202e-18)
(-0.00347287 -0.0471033 -0.0284547 0.00330423 -0.0410539 -1.81215e-17)
(-0.0106105 -0.0116508 -0.0144505 0.0154516 -0.0141432 -1.25498e-18)
(-0.0177956 0.0124844 -0.0569024 0.0200309 -0.081764 -7.20031e-18)
(-0.0119792 -0.031893 -0.0160865 0.00506127 -0.0150228 -4.81217e-18)
(-0.0302707 -0.0782486 -0.00483471 0.0307658 -0.00435268 2.54117e-18)
(-0.0273473 -0.0686025 -0.00591571 0.029486 -0.00555816 1.37349e-19)
(-0.0170769 -0.0378119 -0.00620807 0.0169174 -0.0053452 -2.84878e-19)
(-0.0224241 -0.0516578 -0.00601593 0.019977 -0.00533958 4.09975e-19)
(-0.0197914 -0.0336257 -0.0024262 0.0192704 -0.0010297 -1.67505e-19)
(-0.0293354 -0.0442012 -0.00496603 0.0272413 -0.00384244 2.13747e-19)
(-0.0381624 -0.0575304 -0.00579746 0.0401309 -0.00497601 1.96624e-20)
(-0.0454822 -0.0656821 -0.00239838 0.0461589 -0.00138238 1.44139e-18)
(-0.0196365 -0.0444206 -0.0128867 0.0148128 -0.0121086 -2.04915e-18)
(-0.0550327 -0.0624102 -0.0234444 0.0614362 -0.0197547 -7.35422e-19)
(-0.0567572 -0.0539004 -0.0137132 0.0602939 -0.0128269 -4.8486e-18)
(-0.0211053 -0.0389025 -0.012289 0.016013 -0.00920675 -4.93397e-18)
(-0.00440947 -0.0515839 -0.0261344 0.00416531 -0.0374939 -1.25085e-17)
(-0.0105937 -0.0210367 -0.0127028 0.0164846 -0.013367 -1.08314e-18)
(-0.01497 -0.0375668 -0.0141142 0.00658046 -0.0140306 -3.61598e-18)
(-0.0187804 0.000971555 -0.0504166 0.0214918 -0.0718659 -5.96163e-18)
(-0.0478005 -0.0766915 -0.018073 0.0362643 -0.0140278 7.95479e-18)
(-0.0223383 -0.0837182 -0.0086733 0.0315311 -0.00456197 9.42284e-18)
(-0.0646108 -0.125993 -0.00728562 0.0524611 -0.00386255 1.19137e-19)
(-0.0307216 -0.131987 -0.0242362 0.0451878 -0.0252701 -1.00829e-18)
(-0.0534512 -0.0789529 -0.0178787 0.0412264 -0.0121042 8.26804e-18)
(-0.023122 -0.0851499 -0.00949383 0.0320599 -0.00434881 1.13487e-17)
(-0.0299247 -0.136494 -0.0228337 0.0448036 -0.0221947 -8.32002e-19)
(-0.0686211 -0.131301 -0.00804373 0.0570317 -0.0035128 1.76587e-19)
(-0.0146808 -0.0873351 -0.00503617 0.0264455 -0.0107208 -3.2029e-19)
(-0.0506406 -0.113253 -0.0399998 0.0588334 -0.0477844 -3.47444e-18)
(-0.0701542 -0.115556 -0.00518736 0.0535161 -0.0108465 3.01505e-19)
(-0.0309092 -0.0893216 -0.0247555 0.0274844 -0.0324266 9.78316e-18)
(-0.0487982 -0.111088 -0.00881476 0.0360373 -0.007687 -2.09511e-19)
(-0.0315458 -0.0698174 -0.0180977 0.0230782 -0.0207146 4.17358e-18)
(-0.033814 -0.109309 -0.0302092 0.0458229 -0.0387119 -1.8825e-18)
(-0.0247825 -0.0689727 -0.00983705 0.0338965 -0.0080507 2.6061e-18)
(-0.0479277 -0.104182 -0.0179906 0.0436377 -0.0106397 -5.28517e-19)
(-0.0563177 -0.0845358 -0.0104606 0.0429976 -0.00574682 2.25243e-18)
(-0.0363769 -0.122375 -0.0122982 0.0496049 -0.0109717 6.32447e-20)
(-0.0442549 -0.101602 -0.0172483 0.0487786 -0.0108589 1.0761e-17)
(-0.0590892 -0.134883 -0.0352726 0.0705549 -0.0474034 -1.93905e-18)
(-0.101416 -0.114661 0.00454241 0.0844915 -0.000644063 1.03514e-18)
(-0.061886 -0.0788281 -0.0274926 0.0545731 -0.0372965 2.02701e-17)
(-0.0232486 -0.100857 0.00371974 0.0358466 -0.000629513 5.5135e-18)
(-0.0622695 -0.142713 -0.0364452 0.0735213 -0.0494461 -1.76042e-18)
(-0.110833 -0.118604 0.00723163 0.0938824 0.00131733 1.23479e-18)
(-0.0667042 -0.0783544 -0.0298847 0.0594932 -0.0409331 2.35842e-17)
(-0.0216029 -0.104511 0.00640137 0.0343476 0.00138537 6.25594e-18)
(0.00345387 -0.034106 -0.0190965 -0.0141145 -0.0187164 -2.85857e-19)
(-0.00818545 -0.0428713 -0.0450675 0.0156128 -0.0498166 -5.73556e-18)
(-0.00421001 -0.0574249 -0.0198411 -0.00020932 -0.020012 -3.71196e-18)
(-0.0223406 -0.0640632 -0.0194972 0.0298866 -0.0187857 -6.03333e-18)
(-0.0586206 -0.116797 -0.0409842 0.0649912 -0.0519485 -2.20803e-18)
(-0.0449334 -0.0816318 -0.0324578 0.0429748 -0.0428066 2.13826e-17)
(-0.092155 -0.10151 0.000930366 0.0734044 -0.00589418 1.14467e-18)
(-0.0145166 -0.101503 0.00155017 0.028798 -0.0060737 1.55485e-18)
(-0.0376492 -0.0987207 -0.0200441 0.0398333 -0.017765 1.07288e-17)
(-0.0554732 -0.0885758 -0.00784812 0.0414476 -0.0069562 1.2513e-18)
(-0.038371 -0.0910722 -0.0241106 0.0379177 -0.020596 -1.10355e-18)
(-0.0248565 -0.104908 -0.00770811 0.0372531 -0.00900786 2.97932e-19)
(-0.0613977 -0.0925813 -0.0190151 0.0672572 -0.00462381 3.72932e-17)
(-0.15591 -0.105908 -0.0157816 0.143289 0.00847496 1.08929e-17)
(-0.0706472 -0.203655 -0.012242 0.0840388 0.00610853 2.3641e-19)
(-0.177092 -0.217329 -0.0153602 0.170593 -0.00178726 1.2792e-18)
(-0.0611061 -0.121061 -0.0414169 0.0667158 -0.0514872 -1.95663e-18)
(-0.0956887 -0.0994961 0.0016473 0.0767732 -0.00500914 1.41692e-18)
(-0.0457428 -0.0801305 -0.0342487 0.0443305 -0.0438977 2.39852e-17)
(-0.0145404 -0.106986 0.0024013 0.0292232 -0.00533787 1.69562e-18)
(-0.279856 -0.300031 -0.00572294 0.275542 0.00657581 1.76883e-18)
(-0.121912 -0.251713 0.00271254 0.131605 0.0284401 2.39671e-19)
(-0.220724 -0.143819 -0.00330643 0.211505 0.0275696 8.95844e-18)
(-0.0765827 -0.0896387 -0.0111542 0.0805356 0.00253373 4.53097e-17)
(-0.048523 -0.0584867 -0.0111064 0.0411861 -0.0101323 -1.07231e-18)
(-0.0300382 -0.0454524 -0.0147367 0.0242296 -0.0150024 -1.98751e-18)
(-0.0502803 -0.0525469 -0.0119864 0.055329 -0.0106723 -1.29562e-18)
(-0.0648179 -0.068465 -0.0278217 0.0728552 -0.0303711 -9.82415e-19)
(-0.053831 -0.0468257 -0.00282416 0.0542588 -0.00166285 -4.23091e-19)
(-0.0196549 -0.0249203 -0.00329884 0.0186425 -0.00254771 -3.7555e-19)
(-0.014165 -0.0212856 -0.00202548 0.0137453 -0.000753175 -1.93353e-19)
(-0.0502211 -0.044695 -0.0061588 0.0512508 -0.0053527 -5.27315e-20)
(-0.00966129 -0.0363032 -0.00686403 0.00839895 -0.00675841 -1.71795e-19)
(-0.0105777 -0.036826 -0.00647255 0.0116163 -0.00635997 -8.80055e-20)