/*--------------------------------*- C++ -*----------------------------------*\
| =========                 |                                                 |
| \\      /  F ield         | foam-extend: Open Source CFD                    |
|  \\    /   O peration     | Version:  3.0                                   |
|   \\  /    A nd           | Web:         http://www.extend-project.de       |
|    \\/     M anipulation  |                                                 |
\*---------------------------------------------------------------------------*/
FoamFile
{
    version     2.0;
    format      ascii;
    class       volScalarField;
    location    "43";
    object      p;
}
// * * * * * * * * * * * * * * * * * * * * * * * * * * * * * * * * * * * * * //

dimensions      [0 0 0 0 0 0 0];

internalField   nonuniform List<scalar> 
2688
(
-0.2389319052
-0.219611505
-0.2081608592
-0.1950052858
-0.1878901969
-0.1786269236
-0.1742720851
-0.1676377353
-0.1651038698
-0.1603176447
-0.1589902533
-0.1555212141
-0.1549624227
-0.1524140422
-0.1522833127
-0.1503311854
-0.150336289
-0.148692012
-0.1485530824
-0.1469400002
-0.1463612788
-0.1444947462
-0.1431438362
-0.1407097171
-0.2382321741
-0.2189756892
-0.2075657943
-0.1944544224
-0.1873663724
-0.1781346739
-0.173799488
-0.1671886469
-0.1646701203
-0.1599016652
-0.1585872589
-0.1551314723
-0.1545845869
-0.1520455469
-0.1519263166
-0.1499799289
-0.1499961988
-0.14835461
-0.1482262567
-0.1466143549
-0.1460453543
-0.1441811261
-0.1428388468
-0.1404103275
-0.2368348527
-0.2176972959
-0.2063575798
-0.1933280898
-0.1862824748
-0.177109177
-0.1727977189
-0.1662291276
-0.1637209625
-0.1589830066
-0.1576690443
-0.154234807
-0.1536809297
-0.1511564819
-0.1510249395
-0.14908797
-0.1490889704
-0.1474538436
-0.1473106405
-0.1457054828
-0.1451269947
-0.1432740743
-0.1419342515
-0.1395256542
-0.2346432292
-0.2156899275
-0.2044617541
-0.1915584958
-0.1845851089
-0.1755014229
-0.1712381515
-0.1647343903
-0.162259341
-0.157568534
-0.1562783778
-0.1528782237
-0.1523426775
-0.1498425002
-0.1497263488
-0.1478063306
-0.1478213479
-0.1461980833
-0.1460685065
-0.1444729622
-0.1439088877
-0.1420680324
-0.1407457226
-0.1383567829
-0.2317603662
-0.2130461111
-0.2019588617
-0.1892187071
-0.1823311764
-0.173362571
-0.1691490633
-0.1627276715
-0.160277588
-0.1556457947
-0.1543632667
-0.1510049486
-0.1504651069
-0.1479940208
-0.1478659634
-0.1459658405
-0.1459651301
-0.1443559709
-0.1442107414
-0.1426278487
-0.1420534564
-0.1402312198
-0.1389134452
-0.1365630659
-0.2281019378
-0.2096905664
-0.1987853615
-0.1862521854
-0.1794811604
-0.170658938
-0.1665211847
-0.1602050833
-0.1578046707
-0.1532490272
-0.1519994577
-0.1486962213
-0.1481789219
-0.145747862
-0.1456363718
-0.1437660128
-0.1437791682
-0.1421933803
-0.142061754
-0.1404991821
-0.1399403028
-0.1381402603
-0.1368453604
-0.1345296048
-0.2237700146
-0.2057146568
-0.1950193978
-0.1827286288
-0.1760861313
-0.16743453
-0.1633726138
-0.157178501
-0.1548184885
-0.1503505019
-0.1491174536
-0.1458771846
-0.1453610487
-0.1429753194
-0.1428564103
-0.1410192966
-0.1410220167
-0.1394620474
-0.1393214066
-0.1377813516
-0.1372179168
-0.1354421191
-0.1341506678
-0.1318843023
-0.2186905995
-0.2010528272
-0.1906077026
-0.1786020023
-0.1721184464
-0.1636681113
-0.1597079296
-0.1536582701
-0.1513628654
-0.1469992135
-0.1458064399
-0.1426418387
-0.1421503201
-0.1398203134
-0.1397167845
-0.1379226422
-0.1379368833
-0.1364131697
-0.1362850147
-0.1347790081
-0.1342323598
-0.1324905716
-0.1312202428
-0.1289946015
-0.2129644413
-0.1957951299
-0.1856264664
-0.1739395541
-0.1676259077
-0.1593998759
-0.1555411901
-0.1496520509
-0.1474127525
-0.1431649335
-0.1419984076
-0.1389180165
-0.1384344625
-0.136166827
-0.1360623776
-0.134316739
-0.1343293665
-0.1328473251
-0.1327247654
-0.1312600619
-0.1307352695
-0.1290385003
-0.1278153308
-0.1256177662
-0.2065274957
-0.1898851722
-0.1800314258
-0.1687040226
-0.1625893931
-0.1546169131
-0.1508840864
-0.1451767012
-0.1430153147
-0.1388986446
-0.1377781366
-0.1347928512
-0.1343343803
-0.1321368755
-0.1320448723
-0.1303535567
-0.1303733941
-0.1289378969
-0.1288251215
-0.1274060219
-0.1269019858
-0.125253033
-0.1240666479
-0.1219062718
-0.1994797309
-0.1834123401
-0.17389819
-0.162962021
-0.1570567547
-0.1493596135
-0.1457529272
-0.1402427886
-0.1381527314
-0.134178789
-0.1330939318
-0.1302130597
-0.1297687489
-0.1276495391
-0.1275616016
-0.1259323562
-0.1259558142
-0.1245744987
-0.1244731974
-0.1231068121
-0.1226282753
-0.1210326039
-0.1198863013
-0.117775402
-0.191765652
-0.1763280134
-0.1671894582
-0.1566826559
-0.1510136913
-0.1436191237
-0.1401604238
-0.1348669679
-0.1328666392
-0.12904886
-0.1280146524
-0.1252467744
-0.1248272065
-0.1227908256
-0.1227117204
-0.1211456633
-0.1211707814
-0.1198419946
-0.11974392
-0.1184271188
-0.117962281
-0.1164194847
-0.1153063086
-0.1132587518
-0.183485668
-0.1687221054
-0.1599820408
-0.1499340137
-0.1445112969
-0.1374396921
-0.1341301853
-0.1290682169
-0.1271533158
-0.1235031693
-0.1225128784
-0.1198677077
-0.1194668022
-0.1175223317
-0.1174493609
-0.1159556573
-0.1159847407
-0.1147179659
-0.1146302305
-0.1133726286
-0.1129315282
-0.1114516847
-0.1103829001
-0.1084119446
-0.1745909423
-0.1605519864
-0.1522433663
-0.1426891197
-0.1375368384
-0.1308129667
-0.1276715016
-0.1228583537
-0.1210436982
-0.1175726724
-0.1166370159
-0.1141211709
-0.113744683
-0.1118945559
-0.1118275881
-0.1104051746
-0.1104321627
-0.1092239725
-0.1091363767
-0.1079345043
-0.1075070864
-0.1060911578
-0.1050637767
-0.1031808779
-0.1651836414
-0.1519093362
-0.1440530632
-0.135019334
-0.13014704
-0.1237896611
-0.1208183907
-0.1162679396
-0.1145513064
-0.1112703953
-0.1103855348
-0.1080085103
-0.1076535733
-0.1059067439
-0.1058459383
-0.1045037821
-0.1045327792
-0.1033922645
-0.1033123078
-0.1021751677
-0.1017708975
-0.1004275724
-0.09945177134
-0.09766431765
-0.1552197464
-0.1427558098
-0.1353813526
-0.1268995898
-0.1223284017
-0.1163595242
-0.1135742179
-0.1093015852
-0.10769455
-0.104613473
-0.1037868633
-0.1015539636
-0.1012235085
-0.09958172291
-0.0995253238
-0.09826270069
-0.09828815188
-0.09721375984
-0.09713453215
-0.09606197944
-0.09567617035
-0.09440899729
-0.09348547019
-0.09180278053
-0.1448041292
-0.1331857311
-0.126311731
-0.1184056358
-0.1141445486
-0.1085810235
-0.1059845456
-0.1020023892
-0.1005043227
-0.09763321946
-0.09686302295
-0.09478297816
-0.09447594943
-0.09294723014
-0.09289638126
-0.09172090655
-0.09174656344
-0.09074538456
-0.09067249748
-0.08967069959
-0.08930958433
-0.08812340024
-0.08725822231
-0.0856835134
-0.1338962001
-0.1231637581
-0.1168158859
-0.1095130126
-0.1055799595
-0.1004408481
-0.0980460522
-0.09436726919
-0.09298704313
-0.09033405251
-0.08962543054
-0.08770263747
-0.08742047693
-0.08600647223
-0.08595918637
-0.08487107102
-0.08489270453
-0.08396532495
-0.08389460523
-0.08296645634
-0.08262854971
-0.0815293745
-0.08072492111
-0.07926725199
-0.1226038084
-0.1127871104
-0.1069814509
-0.1003021166
-0.0967052701
-0.0920052277
-0.08981532536
-0.08645107645
-0.08518910299
-0.08276321996
-0.08211557525
-0.08035770925
-0.0801003143
-0.07880789253
-0.07876565274
-0.07777116775
-0.07779230407
-0.07694431692
-0.0768811001
-0.07603123249
-0.07572307294
-0.0747140902
-0.0739771225
-0.07263637133
-0.1108890772
-0.102022789
-0.09678099992
-0.09074859544
-0.08750271654
-0.08325774161
-0.08128294646
-0.07824392414
-0.07710692116
-0.0749148177
-0.07433176484
-0.07274241274
-0.07251042111
-0.07134094825
-0.0713016233
-0.07040094882
-0.070417333
-0.06964911144
-0.06958833235
-0.06881899273
-0.06853656616
-0.06762342373
-0.06695300608
-0.06573970094
-0.09886230167
-0.09097041929
-0.08630573719
-0.08093688585
-0.07804901641
-0.07427130025
-0.07251477074
-0.06981039344
-0.06879929548
-0.06684861384
-0.06633020276
-0.06491586203
-0.06470959445
-0.06366883708
-0.063634022
-0.062832449
-0.06284779438
-0.06216427813
-0.06211250681
-0.06142828937
-0.06118164926
-0.06036802724
-0.05977667021
-0.05868769035
-0.0864883537
-0.07959937536
-0.07552929569
-0.07084300691
-0.06832481267
-0.06502721604
-0.06349682462
-0.06113561149
-0.06025547491
-0.05855151056
-0.05810040895
-0.05686392817
-0.05668376597
-0.05577273789
-0.05574041917
-0.05503773006
-0.05504743949
-0.05444804164
-0.05439810332
-0.05379982014
-0.05358010387
-0.05287203703
-0.05235309615
-0.05140696202
-0.07387862381
-0.06801045215
-0.06454510324
-0.06055405082
-0.05841114184
-0.05560315867
-0.05430163449
-0.05229105048
-0.05154288695
-0.05009175906
-0.04970819601
-0.04865479014
-0.04850104571
-0.04772437327
-0.04769586386
-0.04709629292
-0.04710374506
-0.04659228782
-0.04655101187
-0.04604174825
-0.04586126059
-0.04526037158
-0.04483268176
-0.04402156751
-0.06100149615
-0.05617608952
-0.05332869678
-0.05004732872
-0.04828836731
-0.04597966632
-0.04491280171
-0.0432592249
-0.0426468224
-0.04145254155
-0.04113872415
-0.04027065121
-0.040144031
-0.03950262582
-0.03947679639
-0.03898016275
-0.03898141285
-0.03855685577
-0.03851542208
-0.03809425862
-0.03793608949
-0.03744680146
-0.03708687845
-0.03644618864
-0.0479673731
-0.04419634683
-0.04197372106
-0.03941057117
-0.03803947606
-0.03623666589
-0.0354064477
-0.03411521331
-0.0336393142
-0.03270632751
-0.03246231538
-0.03178340327
-0.03168387229
-0.03118118502
-0.03115869798
-0.03076827383
-0.03076589716
-0.03043125811
-0.03039623356
-0.0300650618
-0.02994419906
-0.0295653267
-0.02930580397
-0.02881328874
-0.03474954275
-0.03204799632
-0.03045901122
-0.02862381654
-0.02764632227
-0.02635583246
-0.02576615852
-0.02484151947
-0.0245048985
-0.02383599119
-0.02366384428
-0.02317588049
-0.0231049447
-0.02274206607
-0.02272369807
-0.0224400367
-0.02243320751
-0.02218838746
-0.02215427989
-0.02191114848
-0.02180683554
-0.02153181367
-0.02131258072
-0.02100843856
-0.02145472814
-0.0198279049
-0.01887590841
-0.01777294379
-0.01719108047
-0.01641649969
-0.01606838647
-0.01551341287
-0.01531631002
-0.01491412972
-0.01481350961
-0.01451881699
-0.01447581324
-0.01425492564
-0.01424017327
-0.01406569605
-0.01405515141
-0.01390359659
-0.01387511746
-0.01372605774
-0.01365430137
-0.01349211929
-0.01335187143
-0.01320362315
-0.008063022702
-0.007518903921
-0.00720835512
-0.00684252648
-0.006659146584
-0.006403619218
-0.006299165934
-0.006115973825
-0.006060244932
-0.005926345731
-0.00589922675
-0.005799102866
-0.005786414487
-0.005708765399
-0.005700750827
-0.005636914288
-0.005627323967
-0.00557142342
-0.005557584839
-0.005507884209
-0.005490908412
-0.005451126563
-0.005440547653
-0.005408342804
0.005325684462
0.004788207295
0.004457500999
0.004086224526
0.003871107353
0.003607090519
0.003467975323
0.003278670334
0.003193400036
0.00305826752
0.003012704306
0.002917582795
0.00290140548
0.002835244466
0.002838894486
0.002791631805
0.002804355717
0.002764503085
0.002772370751
0.00272441504
0.002710018316
0.002634321848
0.002576851785
0.002457995346
0.0187222245
0.0171024769
0.01613051294
0.01502214335
0.01440854015
0.01362516177
0.01324216232
0.01268041587
0.01245326137
0.01204883845
0.01192890336
0.01163788697
0.01159009229
0.01137915395
0.01137431795
0.01121493987
0.01122480729
0.01108872714
0.01108165908
0.01093747655
0.01087697341
0.01069174766
0.0105398684
0.01029350073
0.03203700788
0.02934232997
0.02773285466
0.02589170652
0.02488168474
0.0235815754
0.02295594843
0.02202343921
0.02165538608
0.02098285597
0.02078972263
0.02030379771
0.02022626788
0.01987155613
0.0198615594
0.01959133252
0.01960437854
0.01937400298
0.01936314215
0.01912548648
0.01903870301
0.01874411558
0.01852464391
0.01812468157
0.04526928745
0.04150642279
0.03926390242
0.03669495113
0.03529137804
0.03347807471
0.03261132318
0.03131031814
0.03080158893
0.02986206248
0.02959462892
0.02891391656
0.028804095
0.02830507476
0.02828577918
0.02790410991
0.02791457656
0.02759013391
0.02756806893
0.02723897028
0.0271163943
0.02671686423
0.02641797456
0.02587539606
0.05834339838
0.0535257068
0.05065739922
0.04736915954
0.04557620032
0.043255432
0.04214998288
0.04048455387
0.03983667245
0.03863325166
0.03829280591
0.0374198615
0.0372794679
0.0366383851
0.03661266075
0.03612159832
0.03613422757
0.03571757199
0.0356914578
0.03527222062
0.03512317893
0.03461806177
0.03424857407
0.03355760562
0.07124442491
0.06538609404
0.06190090338
0.05790330732
0.05572666546
0.05290532175
0.05156454303
0.04953919503
0.04875365095
0.04728888024
0.04687521382
0.04581101229
0.04563814233
0.04485491574
0.04481915711
0.04421829135
0.04422801186
0.04371930673
0.0436832927
0.0431755151
0.04299464646
0.04238763139
0.04194493338
0.04111389157
0.0839142498
0.07703436438
0.07294297339
0.06824860017
0.06569452666
0.06238137618
0.06080885209
0.05843002461
0.05750880602
0.05578768296
0.05530200197
0.05405060883
0.05384642242
0.05292438923
0.05288032656
0.05217221
0.05218157553
0.05158239347
0.05153946009
0.05094378827
0.0507334206
0.05002557597
0.04951028108
0.04854657598
0.09632126726
0.08844139424
0.08375705511
0.07838072197
0.07545769625
0.07166293428
0.06986391527
0.06713834949
0.06608434621
0.0641108991
0.06355415855
0.06211749387
0.06188112966
0.06082075237
0.06076573535
0.05995016277
0.05995504501
0.05926546762
0.05921116766
0.0585292646
0.05828784858
0.0574847651
0.0569056302
0.05581584671
0.1084283402
0.09957292684
0.09430962761
0.08826779998
0.08498413597
0.08071948444
0.07869870872
0.0756351713
0.07445080357
0.07223191171
0.07160515346
0.06998881377
0.06972077906
0.0685266027
0.06846130763
0.06754170128
0.06754322069
0.06676532406
0.06670069821
0.06593323568
0.06566009394
0.06476225849
0.06411506817
0.06291210591
0.1201849144
0.1103827441
0.1045579213
0.09787015299
0.09423698056
0.08951583315
0.08728038592
0.08388780799
0.08257743229
0.08011863768
0.07942419173
0.07763116047
0.0773320051
0.07600525155
0.07592844981
0.07490509955
0.07490030885
0.07403423468
0.07395486195
0.07310247443
0.0727917036
0.07180142509
0.07107889339
0.06977819431
0.1315778532
0.1208583188
0.1144891218
0.1071755531
0.1032032273
0.09804014954
0.09559594555
0.091885362
0.09045184977
0.08776188551
0.08700062814
0.08503805039
0.08470765245
0.08325420582
0.0831657616
0.08204337285
0.0820329745
0.08108238693
0.08099071452
0.08005674896
0.07971478142
0.07863667681
0.07785417179
0.07645279937
0.142535884
0.1309347204
0.1240425228
0.1161272085
0.1118293
0.1062407039
0.1035965199
0.09957894489
0.09802807732
0.09511398451
0.09428972698
0.09216175722
0.09180240239
0.09022454553
0.09012533176
0.08890537743
0.08888901178
0.08785567109
0.08775063612
0.08673817653
0.08636375201
0.08520294877
0.08435844873
0.0828656315
0.1530722119
0.1406233037
0.133228256
0.1247347744
0.1201236654
0.1141268293
0.1112898117
0.1069784636
0.105313632
0.1021859269
0.1012994151
0.09901468056
0.09862557668
0.09693046736
0.09681933761
0.09550766729
0.09548491624
0.09437346313
0.09425622345
0.09316885802
0.09276549262
0.09152417361
0.09062353179
0.08903574222
0.163093852
0.1498395064
0.1419665825
0.1329231623
0.1280145635
0.1216286578
0.1186090184
0.114016813
0.1122450332
0.1089121596
0.1079685981
0.1055324038
0.105117618
0.103308604
0.1031886979
0.1017878537
0.1017611032
0.100574347
0.1004470021
0.09928854455
0.09885845126
0.09754132819
0.0965864434
0.09490887864
0.1726416898
0.1586198144
0.1502919934
0.1407253963
0.1355337095
0.1287785756
0.1255847807
0.1207270066
0.1188523131
0.1153264474
0.1143265399
0.1117488387
0.1113068815
0.1093922148
0.1092611666
0.1077780078
0.107745313
0.1064889548
0.1063509218
0.1051260284
0.1046704104
0.1032805803
0.1022740995
0.1005061407
0.1816011315
0.1668601044
0.1581055428
0.1480477529
0.1425904462
0.1354876771
0.1321310068
0.1270222283
0.1250525242
0.1213433408
0.1202933832
0.1175805141
0.1171169966
0.1151009387
0.1149639151
0.1134016562
0.1133676519
0.1120446043
0.1118999632
0.1106116515
0.1101340816
0.1086748198
0.1076197217
0.1057654251
0.190040745
0.1746220281
0.1654663451
0.1549470406
0.1492405245
0.1418123565
0.1383027111
0.1329601481
0.1309002962
0.1270214625
0.125922284
0.1230852671
0.1225980218
0.1204895095
0.1203426514
0.118708548
0.1186691397
0.1172853694
0.1171310697
0.1157843636
0.115283715
0.1137590014
0.1126564386
0.1107176584
0.197825864
0.1817832718
0.1722573226
0.1613117419
0.155374805
0.1476448562
0.143994136
0.1384336918
0.1362920001
0.1322541979
0.1311127007
0.128158785
0.12765457
0.1254587843
0.1253091024
0.1236072325
0.1235694312
0.1221284045
0.1219709324
0.1205688225
0.1200505789
0.118463279
0.1173176576
0.1152983926
0.2050510549
0.1884291578
0.1785609903
0.1672214509
0.161072474
0.1530651892
0.1492848467
0.1435255211
0.1413079312
0.1371261513
0.1359436042
0.1328846394
0.1323608426
0.1300870252
0.129929094
0.128166475
0.1281233879
0.1266303143
0.1264627344
0.1250091706
0.1244678127
0.1228212723
0.1216303055
0.1195344395
0.2115648653
0.1944221401
0.1842447876
0.1725492138
0.1662078642
0.1579484506
0.1540505311
0.1481092177
0.1458238649
0.1415095138
0.1402927482
0.1371366886
0.1366005599
0.1342547772
0.1340971072
0.132279057
0.1322404914
0.1307005315
0.1305333453
0.1290333087
0.1284788907
0.1267776395
0.1255495415
0.1233814856
0.2174842135
0.1998679263
0.1894116114
0.1773946693
0.1708811928
0.1623960909
0.1583936746
0.152290993
0.1499451894
0.1455144613
0.1442656994
0.1410251561
0.1404743269
0.138066154
0.137902499
0.1360359925
0.1359928971
0.1344109341
0.1342337074
0.1326907432
0.1321134421
0.1303608544
0.1290897778
0.1268555975
0.2226461192
0.2046184963
0.1939179094
0.181619598
0.1749541592
0.1662697252
0.1621745871
0.1559280645
0.1535291775
0.1489938538
0.1477189794
0.1444021838
0.1438432169
0.1413790265
0.1412180476
0.1393089485
0.1392727915
0.1376551607
0.1374821822
0.1359034
0.1353191966
0.1335221983
0.1322224911
0.1299264013
0.22718407
0.2087947065
0.197881925
0.1853389425
0.1785434248
0.1696878347
0.1655146334
0.1591463175
0.1567032654
0.1520806476
0.1507834718
0.1474038641
0.146835778
0.1443258382
0.1441622139
0.142218265
0.1421802268
0.1405328063
0.1403530328
0.1387431561
0.1381406623
0.1363037291
0.134967104
0.1326164971
0.2309308724
0.2122446995
0.2011555933
0.18840939
0.1815042134
0.1725045758
0.1682645806
0.1617923336
0.1593112686
0.154613188
0.1532977502
0.1498633021
0.1492903519
0.1467402764
0.1465801385
0.1446057044
0.1445748422
0.1429017552
0.1427278645
0.1410917792
0.1404875864
0.1386164014
0.1372610675
0.1348566731
0.2340286854
0.2150973061
0.2038653912
0.1909543378
0.1839626097
0.1748484967
0.1705576591
0.164004684
0.161496132
0.1567408405
0.1554130289
0.1519380406
0.1513618469
0.1487829408
0.1486241267
0.1466285615
0.1465998778
0.1449095408
0.1447350356
0.1430809549
0.1424681867
0.1405709075
0.1391895463
0.1367419234
0.2363153223
0.2172052218
0.2058671533
0.1928335493
0.1857759189
0.1765748843
0.1722440536
0.1656283891
0.1630972384
0.1582965009
0.1569580526
0.1534500458
0.1528713486
0.1502680134
0.1501116952
0.1480968102
0.1480726081
0.1463648261
0.1461938499
0.1445214204
0.1439091225
0.1419895443
0.140604237
0.1381123553
0.2379318775
0.2186963807
0.2072865776
0.1941700436
0.1870701865
0.1778127495
0.1734585333
0.1668041338
0.1642620692
0.1594347774
0.1580935954
0.1545675302
0.1539910792
0.1513755241
0.1512239607
0.1492004964
0.1491815827
0.1474665613
0.1472994289
0.1456180225
0.1450050512
0.1430699488
0.1416739033
0.1391524684
0.238731879
0.2194377992
0.2079934197
0.1948365481
0.1877155814
0.1784295496
0.1740628849
0.1673879837
0.1648391939
0.1599972159
0.1586531662
0.1551164917
0.1545396794
0.1519158932
0.1517651817
0.1497339943
0.1497154828
0.1479913458
0.1478217482
0.1461281766
0.145505821
0.1435545157
0.1421362808
0.1396070676
0.2388443423
0.2195464583
0.2081021574
0.1949453198
0.1878265664
0.1785428299
0.1741799302
0.1675086749
0.1649649575
0.1601273401
0.1587894394
0.1552573618
0.1546874047
0.1520680687
0.1519244447
0.1498970604
0.1498853108
0.148163371
0.1479994225
0.1463048615
0.1456859583
0.1437289
0.1423118644
0.1397691456
0.2381499826
0.2189141828
0.2075074607
0.1943930476
0.187298594
0.1780451303
0.1736979588
0.1670489246
0.164514981
0.1596940059
0.1583616303
0.1548420674
0.1542746032
0.1516643305
0.151520984
0.1494993572
0.149486045
0.147766693
0.1475994752
0.1459053098
0.1452819054
0.1433257429
0.1419049642
0.139368404
0.2367543183
0.2176365525
0.2063015131
0.1932700672
0.1862217265
0.1770291015
0.1727120424
0.1661088715
0.1635949854
0.1588092274
0.157490773
0.1539986568
0.1534415595
0.1508531017
0.1507182764
0.1487144868
0.1487090473
0.1470046876
0.1468456474
0.1451641947
0.1445501153
0.1426043267
0.1411944208
0.138662686
0.2345764797
0.2156404876
0.2044149145
0.1915081949
0.1845297253
0.1754260782
0.1711533888
0.1646151941
0.1621282715
0.1573906803
0.1560870375
0.1526309804
0.152080414
0.1495191496
0.1493857402
0.1474027297
0.1473963099
0.1457086022
0.1455487567
0.1438825511
0.1432708509
0.1413422005
0.1399418557
0.1374317348
0.2316877858
0.2129903542
0.20190693
0.1891649986
0.1822753991
0.1732901902
0.1690727413
0.1626218672
0.1601686713
0.1554966267
0.1542133037
0.1508073296
0.1502693117
0.1477474511
0.1476228823
0.1456725887
0.1456745114
0.1440162446
0.143867199
0.1422297956
0.1416341781
0.1397349091
0.1383579873
0.135876527
0.2280555478
0.2096571353
0.1987539315
0.186217548
0.1794430396
0.1706046003
0.166460359
0.1601166452
0.1577081757
0.1531154306
0.151857007
0.1485103011
0.1479837964
0.1455069325
0.1453860794
0.1434713646
0.1434745349
0.1418471162
0.1417020775
0.1400954961
0.1395117301
0.1376475071
0.1362953476
0.1338569898
0.2237081829
0.2056659838
0.1949733672
0.1826814104
0.1760368612
0.167372735
0.1633073393
0.1570910282
0.1547284703
0.1502305106
0.1489973372
0.1457224466
0.1452092336
0.142788419
0.142675264
0.1408067143
0.1408169665
0.1392308842
0.139096856
0.1375312465
0.1369672306
0.13514776
0.1338296083
0.1314446664
0.2186681803
0.2010383944
0.1905947313
0.1785866453
0.1721014756
0.1636402208
0.1596767003
0.1536085266
0.1513087775
0.1469202378
0.1457225245
0.1425289377
0.1420324154
0.1396725901
0.1395649153
0.1377437694
0.1377559721
0.1362105377
0.1360830385
0.1345586224
0.1340136412
0.1322430734
0.1309633157
0.1286421942
0.2129156393
0.1957553037
0.1855878026
0.1739005607
0.1675843359
0.159350801
0.1554880285
0.1495853959
0.1473422576
0.1430761815
0.1419073397
0.1388059731
0.1383224101
0.136033942
0.1359320226
0.1341687454
0.1341860846
0.132691217
0.1325739041
0.1310987146
0.1305752661
0.1288600643
0.1276221183
0.1253739316
0.2065312267
0.1898915162
0.1800387779
0.1687102276
0.162596094
0.1546190681
0.1508862311
0.1451709252
0.1430087423
0.1388808124
0.1377583138
0.1347589289
0.1342971362
0.1320837293
0.1319875049
0.1302800139
0.1302956982
0.1288451893
0.1287287584
0.1272960018
0.1267869929
0.1251242985
0.123926111
0.1217557294
0.1994457262
0.183382784
0.17386815
0.1629326528
0.1570240039
0.1493249479
0.1457129867
0.1401989126
0.1381026525
0.1341229555
0.1330318719
0.1301436774
0.1296938918
0.1275662251
0.1274740139
0.1258358658
0.1258562215
0.1244662562
0.1243621739
0.1229884501
0.1225065322
0.1209102377
0.1197633934
0.1176796742
0.1917960118
0.1763554743
0.167217576
0.1567111075
0.1510449737
0.1436528268
0.1401977449
0.1349078621
0.1329105587
0.1290962028
0.1280629565
0.1252967018
0.1248747346
0.1228363346
0.1227506263
0.1211774964
0.1211916757
0.1198507847
0.1197382431
0.1184082654
0.1179293249
0.116386935
0.1152732047
0.1132756353
0.1834677376
0.1687039323
0.159961758
0.1499154253
0.1444886214
0.1374209094
0.1341050697
0.1290491899
0.1271258398
0.1234831976
0.122482841
0.1198450257
0.119433212
0.1174938712
0.1174099337
0.1159174826
0.1159362609
0.1146670653
0.1145708044
0.1133121518
0.1128687549
0.1114060151
0.1103551083
0.108456064
0.1746465398
0.1605993184
0.1522911021
0.1427386971
0.1375917574
0.13087732
0.1277435345
0.1229457546
0.1211388558
0.1176868898
0.1167567837
0.1142604974
0.1138851968
0.112051256
0.1119793898
0.1105664815
0.1105818101
0.1093757674
0.1092714783
0.1080702516
0.1076295792
0.1062326415
0.1052172944
0.1034118722
0.1651825385
0.151903315
0.1440435173
0.1350123768
0.1301357659
0.1237878932
0.1208100736
0.1162757067
0.1145496812
0.1112901449
0.1103932204
0.1080402344
0.1076714235
0.1059476759
0.1058724508
0.1045493482
0.1045649952
0.1034393264
0.1033498597
0.1022295925
0.1018272061
0.100521312
0.09957627985
0.09788244431
0.155297313
0.1428201643
0.1354459044
0.1269672417
0.1224039138
0.1164508248
0.1136775914
0.1094314513
0.1078380292
0.1047917042
0.1039777969
0.1017843706
0.1014635827
0.09986171783
0.09981053069
0.09858474988
0.09861095971
0.0975695241
0.09748935815
0.0964504326
0.09607119639
0.09485273186
0.0939628937
0.09237134757
0.1448200027
0.1331922008
0.1263136187
0.1184106835
0.1141457874
0.108596624
0.1059947172
0.1020377069
0.1005314219
0.09769507854
0.09691382759
0.09487554314
0.0945556324
0.09307189219
0.09300815126
0.09187752714
0.09189287115
0.09093574046
0.09085927727
0.08990538752
0.08955652245
0.08843596766
0.08761651694
0.08614999801
0.1339907871
0.1232408504
0.1168929098
0.109593827
0.1056708367
0.1005523433
0.09817384877
0.09453052261
0.09317023704
0.09056550156
0.08987846504
0.08801380994
0.08775357669
0.08640406192
0.08637881713
0.08535859363
0.08540374302
0.08454637335
0.08450408259
0.08364926839
0.08335183671
0.08233504268
0.08159479727
0.08023814829
0.1226361074
0.1128058837
0.1069950173
0.1003188808
0.09671955452
0.0920373017
0.08984457797
0.08651229294
0.08524563737
0.08286519467
0.08221082458
0.08051001631
0.08024496114
0.07901824845
0.07896968481
0.07804663709
0.07806624734
0.07729395629
0.07723925265
0.07647085236
0.07619076637
0.07527645387
0.07460315873
0.07338212075
0.1109944702
0.1021072725
0.0968649623
0.09083619197
0.08760184601
0.08337995726
0.08142472817
0.07842630225
0.07731463868
0.07517912952
0.07462588781
0.07310706135
0.07290901009
0.07182134218
0.07182092948
0.07101066242
0.07107300245
0.07040118357
0.07039615827
0.06972662521
0.06951320655
0.06870304379
0.06811945474
0.06701238367
0.09890970616
0.09100071692
0.08633064055
0.08096434504
0.07807604429
0.074317547
0.07256209352
0.06989296562
0.06888277669
0.06698298773
0.06646503379
0.06511611779
0.06491089603
0.06394807401
0.06391723379
0.06320370086
0.0632295854
0.06264179034
0.0626120524
0.06202924814
0.06182351592
0.0611187633
0.06059952333
0.05963305863
0.08659767558
0.07968540212
0.07561407491
0.07093029863
0.06842402155
0.06514913056
0.06363983128
0.06131939635
0.0604675847
0.05882112346
0.05840475498
0.05724084398
0.05710195509
0.05627627641
0.05629282035
0.05568535
0.05575297579
0.05525454585
0.05527201388
0.05477464578
0.05463053222
0.05401952838
0.05358426158
0.05273366975
0.07393903314
0.06805089845
0.06458036202
0.06059055636
0.05844974385
0.05566021113
0.05436449012
0.05238829143
0.05164796892
0.05024649031
0.04987241215
0.04888286585
0.04874095635
0.04804059261
0.04802801541
0.04751485031
0.04754484582
0.04712658119
0.04711668525
0.04670237221
0.04656322096
0.04605525128
0.04568260167
0.04497174513
0.06110791239
0.05625797383
0.05340834877
0.05012754691
0.04837967348
0.04609059004
0.04504422717
0.04342669769
0.04284239234
0.0416988477
0.04141993776
0.04061535517
0.04053037391
0.03996267393
0.03998564717
0.0395697003
0.03962720367
0.03928580252
0.03930656974
0.03896405809
0.03886951508
0.03844592036
0.0381455268
0.03755352596
0.04803796216
0.04424502675
0.04201774917
0.03945409348
0.03808778596
0.03630080685
0.03548134219
0.03421999245
0.03375927304
0.0328686349
0.03264370966
0.03201775723
0.03194134053
0.03149975636
0.03150497005
0.03118083774
0.03121131956
0.03094459997
0.03094675014
0.03067963906
0.03059520681
0.03026691687
0.03002906999
0.02957295664
0.03484694162
0.03212085007
0.03052852893
0.02869153875
0.02772326403
0.02644742238
0.02587575235
0.02497891603
0.02466723463
0.02403678806
0.02389544339
0.02345391859
0.02341889144
0.02310720715
0.02312922176
0.02289794452
0.02293521471
0.02274048067
0.02275300905
0.02255416698
0.02249858605
0.02225505262
0.02208352306
0.02175310188
0.02153205977
0.01988246041
0.01892660408
0.01782133622
0.01724677553
0.01648438866
0.01615154686
0.01561989471
0.01544471068
0.01507424743
0.01500156903
0.01474397921
0.01473437504
0.01455229436
0.01457546808
0.01443736221
0.01446757529
0.01434617357
0.0143587144
0.01423099055
0.01419912797
0.01404520714
0.01394121892
0.01374374049
0.008146534993
0.007579103508
0.007264223876
0.00689439803
0.006717743511
0.006471291168
0.006381121818
0.006216280133
0.006180562505
0.006071138305
0.006068422377
0.005995552008
0.006010232493
0.00595868863
0.005979158697
0.005935945581
0.005953223398
0.005908457041
0.005915163282
0.0058638495
0.005852789394
0.005794675168
0.005760090091
0.005699036665
-0.005245510747
-0.004730470704
-0.004402655304
-0.004035070227
-0.003810640762
-0.003538057926
-0.003380225738
-0.003174215556
-0.00306187757
-0.002905388391
-0.002825055948
-0.002707592136
-0.002650017843
-0.00256486728
-0.00252272066
-0.002464955817
-0.002431894866
-0.002395374304
-0.002365526387
-0.002338988906
-0.002306708825
-0.002271493684
-0.002227476918
-0.002156463093
-0.01865596135
-0.01705709037
-0.01609010457
-0.01498721052
-0.01436951551
-0.01358194
-0.01318877796
-0.01261699593
-0.01237516733
-0.01195812157
-0.01182019881
-0.01151730121
-0.01144967743
-0.01123143915
-0.01120713746
-0.01104942239
-0.01104372708
-0.01092239102
-0.01090956887
-0.01079529184
-0.01074702038
-0.0106031759
-0.01048605346
-0.01026842272
-0.03195818397
-0.02928434193
-0.02767670108
-0.02583986369
-0.02481931579
-0.02351341865
-0.02286726564
-0.02192311746
-0.02152534198
-0.02083878862
-0.02060731406
-0.02010823891
-0.0199848785
-0.01962138162
-0.0195603934
-0.01928987069
-0.01925132421
-0.01903372833
-0.01897920542
-0.01877105679
-0.0186615928
-0.01841267696
-0.01820484762
-0.01785590355
-0.04522214359
-0.04147662961
-0.03923921929
-0.0366761231
-0.03527084904
-0.0334566336
-0.03258364368
-0.03127824118
-0.0307597264
-0.0298149708
-0.02953477335
-0.02885045624
-0.02872559941
-0.02822723661
-0.02819194121
-0.0278181741
-0.02781414384
-0.02750757567
-0.027476911
-0.0271767049
-0.02705759686
-0.02669603803
-0.02641870438
-0.02591908757
-0.05827021275
-0.05347052934
-0.05060300789
-0.0473187762
-0.04551508456
-0.04319007392
-0.04206432614
-0.04039014646
-0.03971306398