/*--------------------------------*- C++ -*----------------------------------*\
| =========                 |                                                 |
| \\      /  F ield         | foam-extend: Open Source CFD                    |
|  \\    /   O peration     | Version:  3.0                                   |
|   \\  /    A nd           | Web:         http://www.extend-project.de       |
|    \\/     M anipulation  |                                                 |
\*---------------------------------------------------------------------------*/
FoamFile
{
    version     2.0;
    format      ascii;
    class       volSymmTensorField;
    location    "43";
    object      sigma;
}
// * * * * * * * * * * * * * * * * * * * * * * * * * * * * * * * * * * * * * //

dimensions      [0 0 0 0 0 0 0];

internalField   nonuniform List<symmTensor> 
2688
(
(-0.1794177779 -0.005195995467 1.620644611e-19 0.1796363288 3.490865741e-19 -0.0002185508332)
(-0.1757754941 -0.005983714734 4.624751703e-20 0.1763686945 2.075385425e-19 -0.0005932003719)
(-0.1684772826 -0.006322331047 -9.401282009e-20 0.169406638 7.162037237e-19 -0.0009293553867)
(-0.1590119178 -0.006358488916 7.827979796e-20 0.1602452723 2.845435533e-19 -0.001233354555)
(-0.1490107188 -0.006244648465 2.010944327e-20 0.1505200951 4.151314917e-19 -0.001509376368)
(-0.1385548834 -0.0060192891 1.133425725e-19 0.1403151077 1.877847353e-19 -0.001760224378)
(-0.1284798019 -0.005747074181 2.984544223e-20 0.130466979 2.787064721e-19 -0.001987177069)
(-0.1185450177 -0.005438895375 7.968057532e-20 0.1207361846 1.104520482e-19 -0.0021911669)
(-0.1092147272 -0.005121714605 -1.096839425e-20 0.1115863866 2.149131264e-19 -0.002371659443)
(-0.1002402688 -0.004800732581 -5.727366391e-20 0.1027686623 -5.849943738e-20 -0.002528393534)
(-0.09187521636 -0.004485043039 8.330461724e-20 0.09453472165 4.418502516e-19 -0.002659505297)
(-0.08394527426 -0.004180283621 -4.36167029e-20 0.08670897898 8.066926981e-20 -0.002763704713)
(-0.07656967342 -0.003886104754 3.475299705e-19 0.07940774572 1.17629278e-19 -0.002838072295)
(-0.06966293818 -0.00361055879 -6.2378891e-20 0.07254306945 2.943442e-20 -0.002880131274)
(-0.06324956416 -0.003347376088 -1.962546558e-20 0.0661356433 8.880443292e-20 -0.00288607914)
(-0.05733032229 -0.003107673073 1.851428511e-20 0.06018217351 2.512127394e-20 -0.002851851226)
(-0.05185668162 -0.002880911106 -4.63335397e-20 0.05462947998 1.76841207e-19 -0.002772798367)
(-0.04690919301 -0.002680793827 2.002112743e-19 0.04955194448 8.884509029e-20 -0.002642751465)
(-0.04238231594 -0.00249395222 -1.994638871e-19 0.0448383296 -6.408752932e-20 -0.002456013656)
(-0.03842508891 -0.002334250599 1.408122184e-19 0.04062899332 2.086320613e-19 -0.002203904409)
(-0.03489651297 -0.002187403658 9.625400415e-20 0.03677564234 -1.62379802e-19 -0.001879129371)
(-0.03199077536 -0.002065480979 4.837902034e-20 0.03346116627 -2.670440037e-19 -0.001470390908)
(-0.02956887873 -0.001948404693 -2.368502092e-20 0.03053670137 6.499430395e-20 -0.0009678226422)
(-0.02783124178 -0.001842817331 -8.434110104e-20 0.02818885043 -5.491812692e-19 -0.0003576086497)
(-0.1789018654 -0.01492423415 4.48639572e-20 0.1791220352 -4.560341157e-19 -0.0002201698825)
(-0.1748413874 -0.01744962267 2.77664219e-19 0.1754390222 -2.496409122e-19 -0.000597634821)
(-0.1672985267 -0.01859375669 7.567662568e-20 0.1682347769 -4.401193548e-19 -0.00093625027)
(-0.1577074782 -0.01881007621 -1.643657873e-19 0.1589500122 -9.555869192e-21 -0.001242533961)
(-0.1476456971 -0.0185619057 8.694615082e-20 0.1491663391 -1.315220055e-19 -0.001520642021)
(-0.1371767077 -0.01796995291 -9.701284134e-20 0.1389501179 -2.706750478e-19 -0.001773410195)
(-0.1271145226 -0.0172305238 1.913409192e-19 0.1291166534 1.433287694e-19 -0.002002130841)
(-0.1172110047 -0.016378446 -5.481930129e-20 0.119418736 -4.278508274e-19 -0.002207731287)
(-0.1079226287 -0.01549556527 -8.523473561e-20 0.1103123135 6.326066369e-20 -0.002389684786)
(-0.09899586397 -0.01459816142 2.361240776e-19 0.1015435719 -3.962073535e-19 -0.00254770796)
(-0.09068271126 -0.01371381432 9.984616187e-20 0.09336264074 -1.051018168e-19 -0.002679929477)
(-0.08280468956 -0.01285926918 -4.269996405e-20 0.08558971441 -2.518519949e-19 -0.002785024851)
(-0.07548253587 -0.01203337425 -1.594925102e-19 0.07834258987 1.002217732e-19 -0.002860054005)
(-0.06862644873 -0.01125953845 1.550264773e-19 0.07152894744 -3.201402591e-20 -0.002902498711)
(-0.0622642942 -0.01051878462 -4.258962652e-20 0.06517281517 1.585061598e-19 -0.002908520971)
(-0.05639191801 -0.009843352474 5.851519353e-20 0.05926593639 3.82301789e-19 -0.002874018383)
(-0.05096547903 -0.009201908352 3.046096337e-19 0.05375976023 -2.65881112e-19 -0.002794281203)
(-0.04605976911 -0.008634662334 -4.159511053e-19 0.04872289106 4.290480052e-19 -0.002663121952)
(-0.04157471322 -0.008103116871 3.156434958e-19 0.04404945572 3.182602744e-19 -0.002474742498)
(-0.03765302437 -0.007649725711 9.582194947e-21 0.03987351407 -5.27631539e-20 -0.002220489693)
(-0.03415859622 -0.007236762369 -4.749793007e-19 0.03605152924 1.503822273e-19 -0.001892933019)
(-0.03127984818 -0.006899519776 1.739919821e-19 0.03276070841 3.050331205e-19 -0.001480860225)
(-0.02888053613 -0.006604619949 -3.448462686e-19 0.02985482385 3.030669979e-19 -0.0009742877237)
(-0.02715932978 -0.00636173857 2.655109424e-19 0.02751898954 -2.056977018e-19 -0.000359659761)
(-0.1778952046 -0.02462279592 1.983686872e-19 0.1781162745 3.608729391e-19 -0.0002210698104)
(-0.1730017543 -0.02876957989 6.168636769e-21 0.1736018577 4.794019351e-19 -0.0006001034209)
(-0.1649709411 -0.03064768821 4.570185339e-20 0.1659111049 2.185755258e-19 -0.0009401638306)
(-0.1551287123 -0.0310042615 2.805445626e-19 0.1563764556 1.449549492e-19 -0.001247743298)
(-0.1449450138 -0.03059905962 -1.889134476e-19 0.1464720382 3.050853311e-19 -0.001527024365)
(-0.1344484569 -0.02963063903 2.887955099e-19 0.1362293114 1.433031027e-19 -0.001780854545)
(-0.1244102179 -0.02842132604 -7.722597572e-20 0.1264207522 2.506159953e-19 -0.002010534268)
(-0.1145670874 -0.02702777724 -8.127042259e-21 0.116784088 1.970268176e-19 -0.002217000675)
(-0.1053599258 -0.02558478621 -3.947757869e-20 0.1077596442 4.96813462e-19 -0.002399718351)
(-0.09652565044 -0.02411826641 -2.479578703e-19 0.09908405656 1.90860583e-19 -0.002558406115)
(-0.088312898 -0.02267394668 1.621275173e-19 0.0910040735 4.745084975e-19 -0.002691175502)
(-0.08053498208 -0.02127842595 1.525253189e-19 0.08333167754 6.288348685e-20 -0.002796695461)
(-0.07331534881 -0.01993018213 5.488956487e-19 0.07618735489 -5.528412328e-20 -0.002872006083)
(-0.06655573933 -0.01866670397 1.059279465e-20 0.06947031176 -8.77758219e-20 -0.002914572426)
(-0.06029033521 -0.01745719312 4.248357146e-19 0.06321087223 -6.415218402e-20 -0.002920537013)
(-0.05450548777 -0.01635359129 -3.154624825e-19 0.05739126503 -1.049696149e-19 -0.002885777265)
(-0.04916617938 -0.01530500392 -2.474115452e-20 0.0519717465 1.46455716e-19 -0.002805567119)
(-0.04433641562 -0.0143765913 9.838132409e-19 0.04701012547 -1.343037674e-19 -0.002673709848)
(-0.03992642194 -0.01350623819 -6.45041063e-19 0.0424108198 1.064583795e-19 -0.002484397855)
(-0.0360671548 -0.01276366682 4.104399143e-20 0.0382961461 -2.470854857e-20 -0.002228991301)
(-0.03263234201 -0.01208919319 4.987822167e-19 0.0345324043 3.035756261e-20 -0.001900062297)
(-0.02979866404 -0.0115409201 3.859603644e-19 0.03128508471 -3.520482955e-19 -0.001486420677)
(-0.02743755348 -0.0110735986 -6.026848279e-19 0.02841561834 2.708732451e-19 -0.0009780648662)
(-0.02573880307 -0.01069862847 -1.41634926e-19 0.02610007864 -4.516331803e-19 -0.0003612755635)
(-0.176397306 -0.03427272852 5.755413587e-20 0.1766185717 1.631944767e-21 -0.000221265713)
(-0.1702828663 -0.03984919066 1.740282854e-19 0.1708834943 -1.79427948e-19 -0.0006006280597)
(-0.1615375573 -0.04234411416 -5.472028159e-20 0.16247856 -7.190187798e-19 -0.0009410027659)
(-0.151328236 -0.04277489895 -1.669463385e-19 0.1525770915 1.210766087e-19 -0.001248855558)
(-0.1409669739 -0.04217536094 1.513459875e-19 0.142495355 -2.18638072e-19 -0.001528381018)
(-0.1304310796 -0.04081393793 -1.859628676e-19 0.1322135008 4.794739791e-20 -0.001782421262)
(-0.1204288892 -0.03913018983 3.233137096e-19 0.1224411726 -5.839560035e-20 -0.002012283404)
(-0.1106750585 -0.03719893418 5.961704718e-20 0.1128939571 2.653256066e-19 -0.002218898557)
(-0.1015874798 -0.03520482367 8.728652126e-20 0.103989212 -4.483720904e-19 -0.002401732174)
(-0.09288907831 -0.03318100203 1.945914065e-19 0.09544956905 7.915325424e-20 -0.002560490741)
(-0.08482347864 -0.03119081448 -5.033658177e-20 0.08751676081 2.167555265e-19 -0.002693282168)
(-0.07719198364 -0.02926867722 -4.870178503e-19 0.07999074274 -3.67038967e-19 -0.002798759105)
(-0.07012194407 -0.02741341983 -4.401992009e-19 0.07299589612 4.952990168e-19 -0.002873952049)
(-0.06350269328 -0.02567456244 2.894746914e-19 0.06641900758 -4.740257171e-19 -0.002916314299)
(-0.05737760099 -0.02401095981 -2.119302978e-19 0.06029957002 9.886477915e-19 -0.002921969022)
(-0.05171911981 -0.02249193892 4.656236442e-19 0.05460592676 -1.315388105e-19 -0.002886806953)
(-0.04650502061 -0.02104914827 4.792004047e-20 0.04931109021 4.157789228e-19 -0.002806069604)
(-0.0417838721 -0.01976991272 -2.840337921e-19 0.04445750456 -3.910956314e-19 -0.002673632468)
(-0.03748043113 -0.01857134806 6.715085166e-19 0.0399640743 3.298035893e-21 -0.002483643177)
(-0.03371018619 -0.01754722224 -2.200203215e-19 0.03593781456 8.355586158e-20 -0.002227628369)
(-0.03035897889 -0.01661952776 -8.856432567e-19 0.0322570997 1.805377336e-19 -0.001898120807)
(-0.02759133863 -0.01586593308 6.805288766e-19 0.02907554549 -3.693177181e-20 -0.00148420686)
(-0.02528290675 -0.01523380025 -2.553812138e-19 0.02625882525 5.414240657e-19 -0.0009759184993)
(-0.02361967965 -0.01473043747 3.831804076e-19 0.02397969736 -1.217859234e-19 -0.0003600177088)
(-0.1744071512 -0.04385517243 7.793036498e-20 0.1746278834 1.45629272e-19 -0.0002207321784)
(-0.1667231569 -0.05060005439 -3.595663178e-19 0.1673223359 -1.703397799e-19 -0.0005991789962)
(-0.1570613323 -0.05355183904 2.970684853e-19 0.1580000731 -2.838539676e-19 -0.0009387407597)
(-0.1463830675 -0.0539669801 5.148031734e-19 0.1476289108 3.113715509e-19 -0.001245843266)
(-0.1357968469 -0.05312224408 -1.202483988e-19 0.1373215213 -2.970121692e-19 -0.001524674455)
(-0.1252139351 -0.05134538269 2.916197806e-19 0.1269919998 5.160008335e-19 -0.001778064674)
(-0.1152614685 -0.04918105881 1.991162536e-19 0.1172687833 -3.145471245e-19 -0.002007314765)
(-0.1056257792 -0.04671730199 -2.864800894e-19 0.1078391327 4.389637244e-19 -0.002213353542)
(-0.09669495488 -0.04418439961 -2.550814066e-19 0.09909059511 3.657826963e-19 -0.002395640225)
(-0.08817407039 -0.04161945205 4.595004471e-19 0.09072795017 -2.824849705e-19 -0.002553879787)
(-0.08030012116 -0.03910269519 5.897573095e-20 0.08298629785 -2.184172257e-19 -0.00268617669)
(-0.07285909488 -0.03667360763 4.841645313e-19 0.07565027593 -8.255355432e-20 -0.002791181055)
(-0.06598318583 -0.03433233121 2.632295377e-19 0.0688491121 4.036862476e-19 -0.00286592627)
(-0.05954592488 -0.03213767962 4.378453446e-19 0.06245379088 -2.654700151e-19 -0.002907866002)
(-0.05360222494 -0.03004009088 8.299685664e-19 0.05651536073 3.234805443e-19 -0.002913135791)
(-0.04810692101 -0.02812324401 -7.556172077e-19 0.05098456438 -9.189190953e-19 -0.002877643366)
(-0.04305378406 -0.0263038882 2.630755167e-20 0.0458504417 -6.31643595e-19 -0.002796657635)
(-0.03847198561 -0.02468807178 2.339999051e-19 0.04113609631 2.147948962e-19 -0.002664110709)
(-0.03430466021 -0.02317496678 -1.88680493e-19 0.0367788648 -1.529767945e-19 -0.002474204591)
(-0.0306475689 -0.02187906736 6.171203375e-19 0.03286615419 1.853698748e-20 -0.002218585292)
(-0.02740346418 -0.02070680475 3.215124508e-19 0.02929335148 -1.853433033e-19 -0.001889887301)
(-0.02471867761 -0.01975329381 5.001179107e-19 0.02619606218 5.760973315e-19 -0.001477384573)
(-0.02247840405 -0.01896379545 1.967002265e-20 0.02344965495 -9.653613982e-19 -0.0009712509038)
(-0.02085027397 -0.01833624923 -6.916603286e-19 0.02120862042 1.054982879e-18 -0.0003583464443)
(-0.1719237868 -0.05334956743 -2.834103377e-19 0.1721432732 6.703879192e-19 -0.0002194864294)
(-0.1623725191 -0.06093987717 -4.015383893e-19 0.1629683011 4.944888931e-19 -0.0005957819543)
(-0.1516236357 -0.06415098524 -6.278771295e-20 0.152557053 -1.750074215e-20 -0.0009334172453)
(-0.1403928045 -0.06443944829 -2.007072403e-19 0.1416315622 3.190304537e-19 -0.001238757661)
(-0.1295449287 -0.06328678029 2.052287105e-19 0.131060905 3.080016693e-19 -0.00151597632)
(-0.1189125173 -0.06106685607 -1.485089624e-19 0.1206803911 -2.089717239e-19 -0.001767873802)
(-0.1090254846 -0.05841447613 3.628266523e-19 0.1110212335 -3.794939272e-20 -0.0019957489)
(-0.09953655198 -0.05542475943 6.232652386e-19 0.1017370639 6.037754359e-19 -0.002200511968)
(-0.09079801345 -0.05236836864 -3.141389995e-19 0.09317964206 -1.023330955e-18 -0.00238162861)
(-0.0824938417 -0.0492823487 -7.422098529e-19 0.08503263058 1.000664748e-18 -0.002538788881)
(-0.07485295512 -0.04626288735 5.564213182e-20 0.077523063 2.41513664e-19 -0.002670107879)
(-0.06764322109 -0.04335115433 -2.296707549e-20 0.07041744862 -9.26311306e-20 -0.002774227538)
(-0.06100249237 -0.04054977194 -4.561624171e-19 0.06385068523 4.180012791e-20 -0.002848192853)
(-0.05478553422 -0.03792352221 2.991053594e-20 0.05767500196 -4.578957019e-20 -0.002889467742)
(-0.04906085962 -0.03541679694 -3.243584657e-19 0.0519550582 1.205353467e-19 -0.002894198585)
(-0.04376239802 -0.03312400652 -3.694387143e-19 0.04662074144 -3.823380581e-19 -0.002858343418)
(-0.0389024607 -0.03095014728 4.179409401e-19 0.04167964616 1.426614126e-18 -0.002777185463)
(-0.03448777058 -0.02901581268 3.568885049e-19 0.03713254704 -1.725815189e-19 -0.002644776459)
(-0.03048165707 -0.02720597718 2.202311126e-19 0.03293700933 6.359945387e-19 -0.002455352255)
(-0.0269595096 -0.02565095741 -4.792226107e-19 0.02916028588 3.612932903e-19 -0.002200776276)
(-0.02384025834 -0.02424665665 -1.402843981e-19 0.02571402986 3.727594095e-19 -0.001873771527)
(-0.02125756588 -0.02309964512 -2.271310935e-19 0.02272151305 1.310435235e-18 -0.001463947164)
(-0.01909860281 -0.02216515629 1.10058829e-18 0.0200602867 -3.869197544e-19 -0.0009616838866)
(-0.01753408087 -0.02142086477 -1.562450721e-19 0.01788846933 2.529344855e-18 -0.0003543884559)
(-0.16894577 -0.06273512002 5.359447442e-19 0.1691632835 -1.21582585e-18 -0.0002175134995)
(-0.15729055 -0.07079536343 -9.344707207e-19 0.157880975 3.208083927e-20 -0.0005904250059)
(-0.1453219573 -0.07403631741 4.162043799e-19 0.146246978 -8.2262691e-19 -0.0009250207131)
(-0.1334766878 -0.07406939258 5.072495676e-19 0.1347042764 6.746204055e-19 -0.001227588577)
(-0.1223432034 -0.0725362667 -4.256176688e-20 0.1238454704 -1.154542439e-18 -0.001502266997)
(-0.1116650538 -0.06984157875 -1.069732899e-19 0.1134168782 4.575974574e-19 -0.001751824397)
(-0.1018615555 -0.06669286573 6.145526343e-19 0.1038391008 -1.188507237e-19 -0.001977545228)
(-0.09254778842 -0.06318519148 -3.298743856e-19 0.09472811574 -1.096328642e-18 -0.002180327321)
(-0.08403512743 -0.05962351159 5.027630324e-19 0.08639476464 -5.542750455e-19 -0.00235963721)
(-0.07598403069 -0.05604011812 1.458535467e-18 0.07849919175 2.230521012e-19 -0.002515161059)
(-0.06861399244 -0.05254608684 -7.90891865e-19 0.07125902061 -8.942265569e-19 -0.002645028162)
(-0.06167266985 -0.0491803543 2.531319433e-19 0.06442055326 5.000483188e-19 -0.00274788341)
(-0.05530409907 -0.0459493834 3.339692241e-19 0.05812489949 3.01601631e-19 -0.002820800419)
(-0.0493420722 -0.04292012828 1.825425215e-19 0.05220333103 8.364153696e-19 -0.002861258826)
(-0.04387022428 -0.04003364633 8.79953563e-19 0.04673567449 -3.76278734e-19 -0.002865450206)
(-0.03879911657 -0.03739116052 -5.137363578e-19 0.04162849335 1.359788805e-18 -0.002829376775)
(-0.03416157044 -0.03488926278 3.924800618e-19 0.03690995972 -5.609338041e-19 -0.002748389274)
(-0.02993920966 -0.03265918169 -6.809353673e-19 0.03255584576 5.672997893e-19 -0.0026166361)
(-0.02611769033 -0.03057436515 9.254364432e-19 0.02854614732 -3.437457801e-19 -0.002428456992)
(-0.02274930956 -0.02877742803 3.277954098e-19 0.02492520259 6.462217225e-19 -0.002175893036)
(-0.01977202972 -0.02715422139 1.764703698e-18 0.02162386523 -5.904110708e-19 -0.001851835517)
(-0.01730460194 -0.02581828043 -5.183090668e-19 0.01875078183 8.497586983e-19 -0.00144617989)
(-0.01524341799 -0.02474163363 1.55762796e-18 0.01619297952 4.918740826e-19 -0.0009495615305)
(-0.01373334639 -0.02387623562 -1.050355739e-18 0.01408310783 -5.336092732e-19 -0.0003497614421)
(-0.1654723731 -0.07198901971 2.806631693e-19 0.1656872166 1.34893707e-18 -0.0002148434333)
(-0.1515457214 -0.08010260704 2.046860518e-19 0.1521288794 5.86477849e-20 -0.0005831579775)
(-0.1382676039 -0.08311913371 -4.680821384e-19 0.1391812266 1.045255226e-18 -0.0009136227192)
(-0.1257707735 -0.08275442989 2.25181997e-19 0.1269832023 -8.096801939e-19 -0.001212428764)
(-0.1143422644 -0.08076084465 2.872045178e-19 0.1158259338 -1.300920034e-19 -0.001483669371)
(-0.103629204 -0.0775567374 6.254861347e-20 0.1053592713 8.082225223e-19 -0.00173006735)
(-0.09393010176 -0.07390299497 -7.541704604e-19 0.09588299701 1.122985126e-19 -0.001952895247)
(-0.08481961595 -0.06988673221 3.571998198e-19 0.08697264345 2.135859293e-20 -0.002153027497)
(-0.07656421976 -0.0658403725 -8.021373697e-19 0.07889416069 1.314816913e-18 -0.002329940929)
(-0.0687992698 -0.06178628973 -7.322720382e-20 0.07128258179 -4.443254555e-19 -0.002483311997)
(-0.06173373579 -0.05784919514 3.344269646e-19 0.06434502924 8.344185742e-19 -0.002611293451)
(-0.05509365557 -0.05406147258 8.298486137e-19 0.05780619367 -1.202335786e-19 -0.002712538095)
(-0.04902963956 -0.05043486449 -1.478599816e-19 0.05181379046 2.892664749e-19 -0.002784150901)
(-0.04335292333 -0.04703432038 -3.140231983e-19 0.0461765729 -7.916293272e-19 -0.002823649564)
(-0.0381634925 -0.04380045762 3.303829372e-19 0.04099075686 2.505719838e-20 -0.00282726436)
(-0.03334674991 -0.04083705612 2.715296165e-19 0.03613783402 -9.956351268e-19 -0.00279108411)
(-0.0289574101 -0.03803590145 1.157520618e-20 0.03166792506 4.046956237e-20 -0.002710514964)
(-0.0249505785 -0.03553460139 7.863835636e-19 0.027530436 -8.482124917e-19 -0.002579857507)
(-0.02133404746 -0.03319875947 9.674824952e-20 0.02372759392 -3.096890304e-19 -0.002393546458)
(-0.01813833098 -0.0311785184 -6.924898643e-19 0.02028217953 -6.284556163e-19 -0.002143848554)
(-0.0153137367 -0.02935326444 4.999388291e-19 0.01713756417 -2.916465174e-19 -0.001823827464)
(-0.01298130597 -0.02783334447 1.646664614e-18 0.0144049854 4.711434155e-19 -0.001423679423)
(-0.01100425561 -0.0266134465 5.647286688e-19 0.01193857508 -1.448914175e-18 -0.0009343194745)
(-0.009608886057 -0.02559834802 2.309620632e-19 0.009952808179 1.125863677e-18 -0.0003439221218)
(-0.1615028042 -0.08108765629 -4.677187171e-20 0.1617142663 -7.437135037e-19 -0.0002114621559)
(-0.1452128659 -0.08880899271 -1.287940456e-18 0.1457868432 4.025857887e-19 -0.0005739773406)
(-0.1305823349 -0.09132949782 8.923256436e-19 0.1314815608 -2.100067093e-18 -0.0008992259773)
(-0.1174237503 -0.09041542131 -7.522080983e-19 0.1186170377 6.467878393e-19 -0.001193287412)
(-0.1057065334 -0.08787660833 8.097003297e-19 0.1071667231 -2.561387825e-19 -0.001460189675)
(-0.0949770421 -0.08412687371 7.685259245e-19 0.09667965121 -1.609055808e-19 -0.001702609113)
(-0.08540608153 -0.07995965506 9.269178997e-20 0.08732787697 -3.471434598e-19 -0.001921795439)
(-0.07652662503 -0.07544567065 2.6239414e-19 0.07864523126 -3.985847391e-19 -0.002118606226)
(-0.06855735499 -0.07093749678 6.931375492e-19 0.07084988063 -7.272788103e-19 -0.002292525636)
(-0.06110795162 -0.06644204352 3.795675998e-19 0.06355118168 5.00794911e-19 -0.002443230059)
(-0.0543758835 -0.06209632118 -7.809418169e-19 0.05694478689 -7.15224054e-19 -0.002568903387)
(-0.0480650035 -0.05792150705 1.492040818e-19 0.05073321634 2.248474096e-20 -0.002668212839)
(-0.04233254795 -0.05393615736 3.534346323e-19 0.04507086464 2.171975334e-19 -0.002738316686)
(-0.03696639321 -0.05019872935 -3.095651005e-19 0.03974316071 6.287877149e-19 -0.002776767502)
(-0.03208359589 -0.04665243379 5.965378589e-20 0.03486346698 6.7847015e-19 -0.002779871091)
(-0.02754315476 -0.04339923788 -4.661504179e-19 0.03028694073 1.042809567e-18 -0.00274378597)
(-0.02342295692 -0.04032945204 2.013622829e-21 0.02608697682 2.996468769e-19 -0.002664019898)
(-0.01964961087 -0.03758400186 -1.452140399e-18 0.02218460785 6.896351693e-19 -0.002534996986)
(-0.01625489509 -0.03502152758 1.27278563e-18 0.01860618494 8.821539264e-19 -0.002351289851)
(-0.01324455858 -0.03280202236 -4.425620482e-21 0.0153499209 5.058433816e-19 -0.002105362327)
(-0.01058323339 -0.03078892794 1.156818034e-18 0.0123737082 9.282621208e-19 -0.001790474808)
(-0.008389572605 -0.0291138567 -1.419458676e-18 0.009786685773 -7.856652766e-19 -0.001397113168)
(-0.006492027271 -0.02772845587 2.322741837e-18 0.007408501368 5.377928185e-19 -0.0009164740969)
(-0.005220179457 -0.02664229152 -5.195043433e-19 0.005557309357 -1.455981899e-18 -0.0003371299)
(-0.1570376079 -0.09000544239 1.947121321e-18 0.1572450155 4.556524311e-20 -0.0002074075989)
(-0.1383722625 -0.09687342958 2.047549849e-20 0.1389352118 -8.38290489e-19 -0.0005629492154)
(-0.1223957061 -0.09861746716 -2.160390424e-19 0.1232776322 -1.561164565e-19 -0.000881926065)
(-0.1085935966 -0.09699801717 5.190551138e-19 0.109763884 1.265286631e-18 -0.001170287442)
(-0.09661065058 -0.09382723819 -5.851528525e-19 0.0980426366 -3.683686298e-19 -0.001431986015)
(-0.08589128228 -0.08949548522 3.419705822e-19 0.08756092197 5.357990636e-19 -0.001669639687)
(-0.07647531708 -0.08480710034 -6.474566538e-19 0.07835979432 -1.602512621e-19 -0.001884477239)
(-0.06785425189 -0.07980769714 -5.833207042e-19 0.06993158362 7.729061589e-19 -0.00207733173)
(-0.06019737663 -0.07486235147 4.812448935e-20 0.06244507851 6.308455247e-19 -0.002247701881)
(-0.0530890772 -0.06995681506 1.167532991e-19 0.05548434078 7.750843483e-19 -0.00239526358)
(-0.04671461179 -0.06523895997 3.011079002e-19 0.04923284912 1.887627209e-19 -0.002518237331)
(-0.04075585269 -0.06071396248 7.730237567e-19 0.04337117017 6.504827838e-19 -0.002615317478)
(-0.03537654194 -0.05640878107 7.630496335e-19 0.03806025496 7.293113121e-20 -0.002683713013)
(-0.03034106615 -0.05237068529 4.939458754e-19 0.03306210896 -8.784108667e-19 -0.002721042806)
(-0.0257839986 -0.04854878925 1.073264494e-18 0.0285076741 -2.504473821e-19 -0.002723675503)
(-0.02153715947 -0.04503838632 3.458795296e-19 0.02422504846 -1.30755589e-18 -0.002687888987)
(-0.01770296087 -0.04173265101 1.884293823e-19 0.02031223508 -2.033767153e-19 -0.002609274216)
(-0.01417713886 -0.03877098135 9.819070973e-19 0.01665957301 -8.222118795e-19 -0.002482434146)
(-0.0110187176 -0.03600975396 -9.850657205e-19 0.0133207812 -1.401975051e-19 -0.002302063607)
(-0.008201936538 -0.03361454396 -4.423418698e-19 0.01026279249 -5.585581604e-19 -0.002060855951)
(-0.005714513283 -0.03143630196 -5.829900556e-20 0.007466773974 -1.037478271e-19 -0.001752260691)
(-0.003647985228 -0.02962966156 -1.387943549e-20 0.005015006982 8.327827537e-19 -0.001367021754)
(-0.001845096586 -0.02809239977 -1.732647909e-18 0.002741692801 -8.775643673e-19 -0.000896596215)
(-0.0006409451921 -0.02694823244 1.356703333e-18 0.0009707227117 -1.701176446e-20 -0.0003297775196)
(-0.1520780021 -0.09871557098 -5.586007095e-19 0.1522806698 4.922979829e-19 -0.0002026676605)
(-0.1311066853 -0.1042671974 2.312799615e-19 0.1316567651 -9.821430423e-19 -0.0005500798439)
(-0.11384108 -0.1049538663 -1.894690095e-19 0.1147028235 1.706242369e-18 -0.000861743463)
(-0.09944264797 -0.1024736017 3.533458862e-19 0.1005861106 -8.639775521e-19 -0.001143462683)
(-0.08723382425 -0.09858513472 -3.200795401e-20 0.0886329211 4.768169153e-19 -0.001399096854)
(-0.07655926386 -0.09363631199 1.373136837e-18 0.07819046775 -6.309650758e-19 -0.001631203897)
(-0.0673281421 -0.08842052075 2.671123183e-19 0.06916912512 2.326760449e-19 -0.001840983014)
(-0.05899229995 -0.08294952988 1.009684381e-18 0.06102154811 -8.092810606e-19 -0.002029248159)
(-0.05167123429 -0.07759317887 2.349618242e-19 0.05386674665 -2.733452065e-19 -0.002195512357)
(-0.04492550196 -0.0723103334 7.193332921e-19 0.04726495988 -6.356123987e-19 -0.002339457924)
(-0.0389275702 -0.06725826787 -1.343918029e-18 0.04138692321 -5.551706931e-19 -0.002459353001)
(-0.03333846853 -0.0624212886 3.305362352e-20 0.03589238901 -1.787921422e-19 -0.002553920486)
(-0.02832791883 -0.05783636637 -3.63782768e-19 0.03094836418 -7.093843206e-19 -0.002620445354)
(-0.02363764068 -0.05353469522 -5.113093323e-19 0.0262942429 -2.552441767e-19 -0.002656602221)
(-0.01941945195 -0.04947475804 -2.639588095e-19 0.02207831286 3.709526629e-19 -0.002658860904)
(-0.01547828928 -0.0457397859 6.662353748e-22 0.01810188302 7.400887783e-19 -0.002623593743)
(-0.01194150256 -0.04223077861 -1.774660989e-19 0.01448802029 6.889688214e-19 -0.002546517733)
(-0.008672919065 -0.03907958178 -7.797874584e-20 0.01109529946 -6.668475955e-19 -0.002422380392)
(-0.005760807897 -0.03614669484 1.839438086e-18 0.008006838469 2.15965653e-18 -0.002246030572)
(-0.003143838313 -0.03359734692 -1.631545081e-19 0.005154201218 -1.077621573e-19 -0.002010362905)
(-0.000838776768 -0.03127788569 2.188559555e-18 0.00254780057 1.508686419e-18 -0.001709023802)
(0.001102414542 -0.02935907513 -6.291157866e-19 0.000230610996 -1.347679097e-18 -0.001333025538)
(0.002792787864 -0.02770595164 1.726007566e-19 -0.001918696613 2.225807215e-20 -0.0008740912512)
(0.003939210305 -0.02650184935 -1.160075549e-18 -0.003617829854 -2.869733095e-19 -0.0003213804503)
(-0.1466271104 -0.1071895282 9.32039153e-19 0.1468243973 2.574281148e-19 -0.0001972869074)
(-0.1235004237 -0.1109740303 -5.286628368e-19 0.1240358744 5.266888859e-19 -0.0005354506832)
(-0.105052791 -0.1103308186 5.472339155e-20 0.1058915872 -7.784898191e-20 -0.000838796269)
(-0.090134023 -0.1068399304 1.55322412e-19 0.09124698731 3.834633577e-19 -0.001112964308)
(-0.07775598957 -0.1021520343 -8.487705797e-19 0.07911770132 -3.280222072e-19 -0.001361711747)
(-0.0671690008 -0.09655390763 5.072780477e-19 0.0687565258 -3.368789691e-19 -0.001587524999)
(-0.0581556028 -0.09080649418 -3.823284139e-19 0.05994717801 -4.255687136e-19 -0.001791575205)
(-0.05013130456 -0.08487926544 -4.318583077e-19 0.05210595573 -3.687056392e-19 -0.001974651174)
(-0.04316670872 -0.07913917173 7.604596049e-19 0.04530299447 -7.873000405e-21 -0.002136285748)
(-0.0368009792 -0.07351268102 1.06859875e-18 0.03907714889 6.994375418e-20 -0.002276169684)
(-0.03119345305 -0.06816498287 1.176890399e-18 0.03358607449 2.021338323e-19 -0.002392621444)
(-0.02598623927 -0.06305480767 1.614984145e-19 0.02847064692 3.962452294e-19 -0.002484407645)
(-0.02135422179 -0.05823070157 3.293261022e-19 0.02390310487 9.242173859e-19 -0.002548883085)
(-0.0170180545 -0.05370297508 7.231706337e-19 0.01960186449 2.011513908e-19 -0.002583809995)
(-0.01314581738 -0.04944298356 7.795243407e-19 0.01573155966 1.327608604e-18 -0.002585742277)
(-0.009516894693 -0.04551637775 3.084267315e-19 0.01206808705 -3.527948288e-19 -0.002551192355)
(-0.006282684994 -0.04183735992 -5.946424046e-19 0.008758663785 -1.152147066e-18 -0.00247597879)
(-0.003275954833 -0.03852341287 -1.247648678e-19 0.005630996054 7.117316379e-19 -0.002355041221)
(-0.0006139904149 -0.03544720357 6.535974639e-19 0.002797348335 -1.052957061e-18 -0.00218335792)
(0.001800172725 -0.03276469145 -9.197011508e-19 0.0001538846353 -1.046449714e-18 -0.00195405736)
(0.003919018601 -0.03033035088 -4.912051845e-19 -0.002258051465 -9.905695506e-19 -0.001660967136)
(0.005731479789 -0.02831459876 8.323563006e-19 -0.004436104907 -1.412092355e-18 -0.001295374882)
(0.007299564571 -0.02658057712 -1.331186831e-18 -0.006450289492 5.88061626e-20 -0.0008492750794)
(0.008389758215 -0.02531194081 1.305460861e-18 -0.008077583507 -9.630768969e-20 -0.000312174708)
(-0.1406896501 -0.1153974915 -1.040791684e-19 0.1408809076 5.969728477e-19 -0.0001912574836)
(-0.1156363355 -0.1169897933 5.144614761e-19 0.1161554163 -6.552251802e-19 -0.0005190807695)
(-0.09616209997 -0.1147609465 -6.505426549e-19 0.09697522586 1.381659356e-18 -0.0008131258865)
(-0.08082661443 -0.1101201273 8.085604597e-19 0.08190546882 -7.197632884e-19 -0.001078854389)
(-0.06835203594 -0.1045579611 -5.717958412e-19 0.06967194086 1.155265988e-19 -0.001319904923)
(-0.05790298817 -0.09828256553 -4.604061752e-20 0.05944167826 8.288284213e-19 -0.001538690091)
(-0.04914287925 -0.09200197171 6.503064926e-19 0.05087922501 3.348264805e-19 -0.00173634576)
(-0.04145575724 -0.08563540402 -5.665269786e-19 0.04336939698 7.992832271e-19 -0.001913639736)
(-0.03486539068 -0.07953961454 -7.57222099e-19 0.03693551621 2.093167318e-19 -0.002070125525)
(-0.02889303334 -0.07360350325 -4.81992651e-19 0.0310985404 8.177779601e-19 -0.002205507062)
(-0.02368466909 -0.06799873352 -2.452397112e-19 0.02600283387 -8.886468571e-19 -0.002318164781)
(-0.01886633776 -0.062654039 5.310562367e-19 0.0212732455 8.191050192e-19 -0.002406907743)
(-0.01461683036 -0.05763099248 -8.509639475e-20 0.01708601579 -1.453423354e-18 -0.002469185432)
(-0.01063835999 -0.0529145069 -4.212613496e-19 0.01314119559 -3.6997724e-19 -0.002502835603)
(-0.007113428883 -0.04849208591 8.761523749e-19 0.009617961621 -9.147333358e-19 -0.002504532738)
(-0.003798588856 -0.04440665424 1.371556551e-19 0.006269495853 -1.599499073e-18 -0.002470906997)
(-0.0008669802474 -0.04059061597 8.350684557e-19 0.003264899409 5.724706374e-19 -0.002397919162)
(0.001876545808 -0.03714085042 -1.000134126e-19 0.0004041296654 -1.408836153e-18 -0.002280675473)
(0.004288469323 -0.03394931089 7.9578802e-19 -0.002174151722 1.369405786e-18 -0.002114317601)
(0.006497331861 -0.03115498197 1.303003233e-18 -0.00460514227 -8.975866812e-19 -0.001892189591)
(0.008428928693 -0.02862969509 -2.244831818e-19 -0.006820607437 1.376439773e-18 -0.001608321256)