/*--------------------------------*- C++ -*----------------------------------*\
| =========                 |                                                 |
| \\      /  F ield         | foam-extend: Open Source CFD                    |
|  \\    /   O peration     | Version:  3.0                                   |
|   \\  /    A nd           | Web:         http://www.extend-project.de       |
|    \\/     M anipulation  |                                                 |
\*---------------------------------------------------------------------------*/
FoamFile
{
    version     2.0;
    format      ascii;
    class       volVectorField;
    location    "1";
    object      u;
}
// * * * * * * * * * * * * * * * * * * * * * * * * * * * * * * * * * * * * * //

dimensions      [0 0 0 0 0 0 0];

internalField   nonuniform List<vector> 
672
(
(0.2549230265 -0.09087390495 2.469108137e-18)
(0.4778983571 -0.05957979675 -9.366291416e-19)
(0.6677040235 -0.0428582926 1.59267563e-17)
(0.7656306841 -0.02911822515 -1.251001064e-17)
(0.8701302754 -0.0189251498 8.36253004e-18)
(0.9118583333 -0.01069424961 4.815440115e-19)
(0.9769519779 -0.002306359073 6.176879086e-18)
(0.9930692738 0.003652451021 -6.056455248e-18)
(1.042843032 0.01236277714 3.453041719e-18)
(1.022262027 0.01403716407 6.657531845e-18)
(1.017949055 0.01927918598 -3.034335544e-18)
(1.026189247 0.01824874559 -1.282093163e-18)
(0.2952160938 -0.2685795945 5.268454706e-18)
(0.502509793 -0.1808657124 -1.295993801e-18)
(0.6847157833 -0.1353559434 2.61609957e-17)
(0.7764480506 -0.0987928563 -2.311093022e-17)
(0.8771582752 -0.07398323433 4.734647281e-19)
(0.9164424735 -0.05481258085 -5.949329738e-18)
(0.9794603668 -0.03732194012 -2.530391466e-17)
(0.9952710516 -0.02430715328 8.623182023e-18)
(1.043535544 -0.00698880763 9.847664846e-18)
(1.025496242 4.066516882e-05 -6.508581539e-18)
(1.019344015 0.01096131699 -8.237388788e-18)
(1.03105896 0.03846953321 1.246066755e-17)
(0.3738858237 -0.4285091354 -4.672595176e-17)
(0.5563587155 -0.287946137 1.024780204e-17)
(0.7262382591 -0.2161959288 -3.761807205e-18)
(0.8078656357 -0.159005751 2.836140156e-17)
(0.9019900281 -0.1205941303 -1.145066746e-17)
(0.9361414997 -0.09155499745 1.481956919e-17)
(0.9949474659 -0.0658596535 1.924569694e-17)
(1.007751194 -0.04649669774 2.634281993e-17)
(1.052320731 -0.02225462894 -1.252538984e-17)
(1.033539132 -0.009571244731 9.204448878e-18)
(1.024149283 0.004111156083 -2.192563507e-18)
(1.027238522 0.06551979756 3.774972756e-18)
(0.486912314 -0.5730647044 -1.646881747e-18)
(0.6307516624 -0.3873600131 -1.755959084e-17)
(0.7803512672 -0.2928624254 -1.36507276e-17)
(0.8457083638 -0.2176584215 -1.815432935e-18)
(0.9293103562 -0.1679012995 -2.870991224e-17)
(0.9551333065 -0.1304180779 1.091522056e-17)
(1.007646369 -0.09761748836 -3.09249095e-17)
(1.014892283 -0.07273013967 1.634392252e-17)
(1.054638453 -0.04152571873 -2.999716882e-19)
(1.03238824 -0.02287372531 1.815411504e-17)
(1.021953029 -0.005552462594 -1.578178567e-18)
(1.006972122 0.09722037391 2.363011607e-17)
(0.626324121 -0.6805310951 8.692812444e-17)
(0.7235561808 -0.4582349118 -3.666570882e-18)
(0.8497769169 -0.3457943257 1.778920568e-17)
(0.8961361582 -0.2570840384 4.157199672e-18)
(0.9671938925 -0.1982474918 1.644389063e-17)
(0.983402069 -0.1551521325 1.969518767e-17)
(1.028486993 -0.1173301041 -1.255734666e-17)
(1.029835083 -0.09041324978 5.443837682e-18)
(1.065250348 -0.05635089007 1.660899125e-17)
(1.039190316 -0.0376678265 -3.412027863e-17)
(1.033622599 -0.02491344696 2.074158849e-18)
(0.9871760309 0.1010232974 -4.32090606e-19)
(0.7905334594 -0.7624071041 -2.96541229e-17)
(0.8324842347 -0.51512824 1.751393778e-17)
(0.9298863245 -0.3905584353 -4.709786347e-17)
(0.9528945394 -0.2923863152 2.00785091e-17)
(1.008525681 -0.2280160915 -3.809997639e-17)
(1.012048897 -0.181725231 1.618827057e-17)
(1.046698299 -0.1409933354 -2.760772739e-17)
(1.037265404 -0.1148540816 -1.486668662e-17)
(1.062993478 -0.07802735367 4.623095073e-18)
(1.022702871 -0.06494006954 3.587217535e-17)
(1.017069624 -0.04493669973 -3.4396806e-17)
(0.9114030435 0.08760658289 2.140569617e-17)
(0.9617042493 -0.7966161001 -2.125193468e-17)
(0.9442120422 -0.5363301858 1.696827253e-17)
(1.011568071 -0.4058404229 -1.783112668e-17)
(1.010620657 -0.3037542653 -3.392539148e-17)
(1.049735997 -0.2359911279 4.440521703e-17)
(1.041022592 -0.1881814276 -1.349258056e-18)
(1.064038678 -0.1436872857 1.924260815e-17)
(1.046764153 -0.1172048703 -2.711996282e-18)
(1.060593604 -0.07352827274 -2.171237894e-22)
(1.019873519 -0.06626535649 -1.750664567e-17)
(1.004764955 -0.03445991214 1.895037795e-17)
(0.9464167205 0.01047671745 8.046036369e-19)
(1.14404959 -0.7992215331 1.675210164e-17)
(1.065020499 -0.539028477 -1.454501366e-17)
(1.100983886 -0.409183485 1.894846373e-17)
(1.074906402 -0.3076246403 -1.373661267e-17)
(1.097968072 -0.2406873504 2.213798183e-18)
(1.07792987 -0.1932970206 1.476599868e-18)
(1.091836416 -0.1484688635 1.635358897e-17)
(1.071030721 -0.1205579245 -2.332045183e-18)
(1.078369917 -0.07380807267 1.94667419e-18)
(1.044305476 -0.05934649476 1.727952918e-17)
(1.021754113 -0.02386085779 -1.264772918e-17)
(0.9665536161 0.04534198086 5.281816891e-18)
(1.312412859 -0.7543499089 2.233426664e-17)
(1.172508318 -0.5079636593 -1.343107831e-17)
(1.177961767 -0.3861089172 -3.338979049e-17)
(1.128090823 -0.2915077993 2.678326911e-17)
(1.135180002 -0.2290930619 -3.525524795e-17)
(1.104151261 -0.1858054043 1.34532962e-17)
(1.108917631 -0.1442258771 -1.298495156e-17)
(1.083433664 -0.1195925338 8.962344024e-18)
(1.085358249 -0.07670635814 -1.76273551e-18)
(1.053079074 -0.06335043464 -1.227341914e-17)
(1.033485252 -0.03526024057 5.335165774e-18)
(0.9679707179 0.03987727702 -6.54087737e-18)
(1.475866108 -0.6774809689 1.36881828e-17)
(1.279552927 -0.4566239034 6.192409505e-19)
(1.256887665 -0.3481202541 4.394114178e-17)
(1.184387363 -0.2644607685 -3.43467403e-18)
(1.177347665 -0.2097852767 1.13185624e-17)
(1.136014599 -0.1725777718 -1.903428597e-17)
(1.13259431 -0.1360733691 5.306329361e-18)
(1.102131341 -0.1153690102 4.374874729e-19)
(1.097694178 -0.07621220645 -4.839273466e-18)
(1.063465452 -0.06367715932 -3.830053594e-18)
(1.042997285 -0.03680999053 4.130540732e-18)
(0.9509408074 0.03839175147 -1.662822244e-18)
(1.608090931 -0.5632496034 -2.786776825e-18)
(1.361229984 -0.381051909 -1.223400109e-18)
(1.31361119 -0.2931433391 -8.861362641e-18)
(1.221866067 -0.2260995223 -1.007729457e-17)
(1.2020805 -0.182549239 3.996936362e-18)
(1.152117766 -0.1540742361 -5.632203547e-18)
(1.141903657 -0.124835252 -2.392134112e-18)
(1.107888337 -0.1101637622 -9.263557754e-19)
(1.100232634 -0.07696396761 -1.316120013e-18)
(1.065978709 -0.06844995159 -9.232686638e-19)
(1.050082563 -0.04218547317 4.389445681e-20)
(0.9423812189 0.01863826217 -5.433221991e-20)
(1.71937288 -0.4231014984 -2.080110333e-17)
(1.431873461 -0.2872759731 -1.208561139e-18)
(1.364579519 -0.2226551132 6.490378206e-18)
(1.256995716 -0.1747780994 3.664151393e-18)
(1.227496399 -0.1439863574 1.73880438e-18)
(1.170498436 -0.1260953753 -2.675294506e-18)
(1.15457149 -0.1055186483 -1.901746813e-18)
(1.117315693 -0.09972847035 -6.789572336e-19)
(1.104557309 -0.074426513 4.387426937e-19)
(1.069398135 -0.07599968865 2.840854943e-18)
(1.050096408 -0.04962321766 -5.698879744e-18)
(0.936087128 -0.02089069681 2.624928829e-18)
(1.789903025 -0.2624472152 -3.233133906e-20)
(1.472244914 -0.1830715861 -5.761090625e-19)
(1.390451952 -0.1476367846 2.01422196e-18)
(1.271878644 -0.1226988551 -3.572480059e-19)
(1.234761889 -0.1070385822 1.597268058e-18)
(1.173181781 -0.1002827465 -1.160906914e-18)
(1.152070964 -0.08870788731 1.688635365e-18)
(1.114005264 -0.08928244385 -1.939772703e-18)
(1.095939827 -0.07041308717 -4.418444656e-18)
(1.067118885 -0.07500235941 3.702432156e-19)
(1.042463695 -0.04799759767 -9.463511169e-19)
(0.9916380073 -0.04363723493 -8.591464779e-19)
(1.826575897 -0.088236627 -1.229386404e-18)
(1.491964763 -0.06719214078 -2.953630988e-19)
(1.402526233 -0.06022020279 -2.628660572e-19)
(1.278027541 -0.05819219421 1.351887082e-18)
(1.237322556 -0.05723536553 -8.928442149e-19)
(1.173936713 -0.06112579731 -2.323512953e-19)
(1.150993335 -0.05843938676 5.718067569e-19)
(1.114309031 -0.0638535807 -3.576653836e-18)
(1.095262277 -0.05227209591 1.094875366e-19)
(1.072130819 -0.05498164941 -1.712378741e-18)
(1.046949943 -0.0330611517 -6.372137605e-20)
(1.012032182 -0.02791625817 -5.115125174e-19)
(1.822389684 0.08748696478 9.254591685e-20)
(1.484284384 0.04517184351 4.143648639e-19)
(1.393831571 0.02009085037 -3.130285647e-18)
(1.268821326 -0.002556472107 3.280067176e-18)
(1.227795704 -0.01789738654 -1.314668182e-18)
(1.165285833 -0.03283279873 -9.460410386e-21)
(1.142452924 -0.0401459084 -1.362030512e-18)
(1.109037162 -0.05064474771 1.051129535e-18)
(1.091289228 -0.04773282967 -2.468591199e-18)
(1.075545943 -0.05039543671 -3.440438948e-18)
(1.055270957 -0.03221378914 1.432632598e-18)
(1.047390166 -0.03075970703 -1.177227617e-18)
(1.777521807 0.2598123094 -5.055386685e-19)
(1.449611128 0.1585075334 1.193960703e-18)
(1.36487838 0.105275682 -7.200324546e-18)
(1.244720028 0.0604585213 6.733760994e-18)
(1.206791679 0.03079266592 8.607684547e-19)
(1.14727864 0.006456888713 8.759745183e-19)
(1.12672251 -0.01004745772 9.914016442e-18)
(1.096768487 -0.02402491024 -5.751825952e-18)
(1.081745583 -0.02989395818 -5.078366144e-18)
(1.07177124 -0.03127012402 1.815124518e-18)
(1.053505199 -0.01827389027 3.566143667e-18)
(1.076326058 -0.02131511564 -8.100015767e-18)
(1.700089932 0.4169721378 1.746789411e-17)
(1.396239507 0.257983782 -2.322440513e-18)
(1.324071389 0.1762081053 9.501053427e-19)
(1.213519937 0.1097326122 -1.096278105e-17)
(1.182402903 0.06596430462 6.377574574e-18)
(1.127601999 0.03272878458 -6.898874157e-18)
(1.111434232 0.007506066223 -7.210932573e-18)
(1.084296771 -0.009477880217 -1.326139575e-17)
(1.072243322 -0.02401532061 6.349191109e-18)
(1.064152568 -0.02290357216 -6.672252009e-18)
(1.041827733 -0.01736215334 -2.099436656e-19)
(1.08970657 -0.01036345689 -4.544073858e-18)
(1.583354181 0.5523904805 6.217869858e-18)
(1.315110138 0.3454936932 8.795122607e-18)
(1.260840881 0.24147365 7.645172121e-18)
(1.164728993 0.1579326813 1.260640094e-18)
(1.142643761 0.1033688252 1.39952106e-17)
(1.094470945 0.0639952258 -5.937776098e-18)
(1.084004188 0.0326972013 1.984612915e-17)
(1.060030087 0.01647323526 -5.190551921e-18)
(1.053435621 -0.003139568671 8.114427209e-20)
(1.045502771 0.008707901747 -7.280984917e-18)
(1.028914017 0.007237901573 2.1363994e-18)
(1.101934881 0.05017552731 -1.348737756e-17)
(1.44800276 0.6613308505 -4.609851489e-17)
(1.226617382 0.4141685895 1.815918026e-18)
(1.195784259 0.2907885022 -1.026500266e-17)
(1.11751938 0.192692213 -6.540650517e-19)
(1.108146561 0.1292447667 -1.142888838e-17)
(1.068477052 0.08468144192 -1.173374653e-17)
(1.067652766 0.04889524716 8.779439837e-18)
(1.04840801 0.03230118721 1.269924237e-18)
(1.053316566 0.009726378416 -9.927185854e-18)
(1.042529395 0.02380919349 2.191608428e-17)
(1.038212667 0.02279708201 1.998761013e-18)
(1.047028665 0.04311357132 1.607805917e-18)
(1.283301029 0.7328590229 2.318393534e-17)
(1.116146073 0.4587644819 -1.231629176e-17)
(1.111922516 0.3233419991 3.323945596e-17)
(1.054956351 0.2162271641 -1.386030369e-17)
(1.058943379 0.1467476999 2.657837914e-17)
(1.029307426 0.09821187872 -1.081369535e-17)
(1.037585897 0.05794636766 1.872307345e-17)
(1.025049332 0.0381106889 1.291219027e-17)
(1.040326201 0.01007100503 -7.747557471e-20)
(1.036315532 0.01843754284 -2.943735582e-17)
(1.040307469 0.01791825941 2.709502304e-17)
(1.078539707 0.02942310599 -1.780665628e-17)
(1.1161316 0.7732205428 1.87290022e-17)
(1.008913441 0.4846969802 -1.418811614e-17)
(1.033771536 0.3427493559 1.383993569e-17)
(0.9988588344 0.230770809 2.951661658e-17)
(1.017518599 0.1585343879 -4.007947924e-17)
(0.9973495606 0.1085733566 2.260187368e-18)
(1.014284687 0.06609215621 -2.154289052e-17)
(1.005726033 0.04613687251 2.209479072e-19)
(1.027393765 0.01429340649 1.800370813e-18)
(1.024260044 0.02307719889 2.258694187e-17)
(1.026138286 0.01802752009 -1.964310081e-17)
(1.085381816 0.03958773572 2.987307001e-18)
(0.9364767867 0.7672267449 -2.228446811e-17)
(0.8912195168 0.4789779644 1.707839512e-17)
(0.9460842939 0.3379533298 -2.627217896e-17)
(0.9346384933 0.2275255345 1.306532453e-17)
(0.9678426453 0.155801876 1.554313304e-18)
(0.9575063393 0.1072822266 1.446469879e-18)
(0.9833164754 0.06474480163 -1.632709866e-17)
(0.9789074442 0.04669541233 2.367912713e-18)
(1.009178307 0.01395541666 9.474846992e-19)
(1.007293698 0.02664789338 -1.661757794e-17)
(1.013700113 0.01898266555 1.925610602e-17)
(1.094432676 0.06868487076 -1.64403658e-18)
(0.7697045973 0.7316682711 -3.340240557e-17)
(0.7849478459 0.4581408519 1.735152456e-17)
(0.868581323 0.3247760705 4.748890463e-17)
(0.8789002957 0.2203174415 -4.08107382e-17)
(0.9263307107 0.1528905397 5.131987624e-17)
(0.9246172519 0.1076214838 -1.460639375e-17)
(0.9587384937 0.06685829055 2.248298103e-17)
(0.9563990999 0.05080293945 -1.147425062e-17)
(0.9935908021 0.01651499344 7.217133912e-18)
(0.9878626549 0.03144392795 2.82804911e-17)
(0.9972736912 0.01445437291 -1.301495186e-17)
(1.078531351 0.08989829041 1.218280407e-17)
(0.6104265887 0.6502484675 -2.904769121e-17)
(0.6827604082 0.4048679212 -3.678010119e-18)
(0.7939902073 0.2855807088 -8.385244259e-17)
(0.8252810613 0.1930605638 7.395214231e-18)
(0.8858020983 0.1328523112 -3.136031669e-17)
(0.8914636822 0.09383231113 4.272902664e-17)
(0.9327580277 0.05771184324 -1.522514457e-17)
(0.92930038 0.04658751756 4.397374226e-18)
(0.9724213464 0.01678688697 1.047710534e-17)
(0.9547000535 0.03832740367 3.855182472e-19)
(0.9728339256 0.02295297031 -1.053583165e-17)
(1.029759892 0.1290463237 -1.672193308e-18)
(0.4763439108 0.5457374494 -5.324646467e-18)
(0.5971061544 0.3414393023 1.669966527e-18)
(0.7310092257 0.2425183967 3.083413652e-17)
(0.7796083626 0.1656782531 3.05279277e-17)
(0.8516074731 0.1166392672 -1.778631171e-17)
(0.8641359565 0.08506583937 7.267543487e-18)
(0.9132779461 0.05706476218 6.036352122e-19)
(0.9113994814 0.04934724932 8.165827414e-18)
(0.9634690795 0.02829639525 -3.472524512e-18)
(0.9399204022 0.0446847434 -1.047904679e-17)
(0.9679757644 0.0378720891 -7.35506165e-19)
(0.9786753034 0.06656978126 4.057579814e-19)
(0.3680111539 0.4057473825 7.231537101e-17)
(0.529387871 0.2522618789 4.012491387e-18)
(0.6832575042 0.1780353461 -1.570067538e-17)
(0.7470058698 0.120937894 -2.988440731e-17)
(0.828920284 0.08422615875 -7.90341654e-18)
(0.8480119888 0.06098386029 7.708654042e-18)
(0.90383027 0.04020786366 -2.764820496e-17)
(0.9057549567 0.03439433716 1.581590424e-17)
(0.9650227156 0.01914432461 1.157410441e-18)
(0.9457615961 0.02982278563 -3.911874203e-19)
(0.9758837946 0.0282283218 -1.120321588e-17)
(1.001121287 0.04856553659 1.125737074e-17)
(0.2929619325 0.2522300048 -7.341305778e-18)
(0.4805321256 0.1578096694 -1.268440358e-18)
(0.6462713187 0.1122837489 1.141319473e-18)
(0.7193840599 0.07719497461 2.799929198e-18)
(0.807236491 0.05508303711 1.123106065e-17)
(0.8301037753 0.04084949665 -3.678595381e-18)
(0.8895559224 0.02854187917 7.195083029e-18)
(0.8924135795 0.0243789135 2.242266376e-18)
(0.9545939352 0.01449375112 -6.091885088e-18)
(0.9338807369 0.01876552184 5.209596832e-19)
(0.9636759151 0.01347616479 -2.353431708e-18)
(0.9886911729 0.02151335695 1.169488674e-18)
(0.2556509177 0.08156567227 3.321275441e-18)
(0.4588041182 0.05075149382 4.389132325e-19)
(0.6327071849 0.03595361576 -9.241127131e-18)
(0.7118205929 0.02494004577 6.12856685e-18)
(0.8036155256 0.01815038235 -6.167722376e-18)
(0.8291768151 0.01398892407 7.733781808e-19)
(0.8906962182 0.01074364692 1.28243553e-18)
(0.8947558961 0.009545297158 -4.125482597e-18)
(0.9582580424 0.006996549847 8.498262519e-19)
(0.9368300693 0.007419658645 -1.316246322e-18)
(0.9667204195 0.004603314173 4.994464198e-20)
(0.9847011836 0.00452120841 1.550682604e-18)
(0.2550849052 -0.09136627011 -2.223382445e-18)
(0.4567285861 -0.05705902007 7.811173395e-19)
(0.6293225712 -0.04044910752 -1.298868298e-17)
(0.7078843003 -0.02701136076 9.811418301e-18)
(0.7991535166 -0.01821651823 -6.139809718e-18)
(0.824690466 -0.01200782738 -3.021011896e-19)
(0.8858781954 -0.006206414813 -3.392997951e-18)
(0.8900521529 -0.003714581728 2.285460493e-18)
(0.9530588042 0.001476182071 -1.914526572e-18)
(0.9315116815 -0.0006367038292 -1.911928796e-18)
(0.9613188462 0.002909792138 1.607896243e-18)
(0.9792784692 -0.008727174486 1.47139061e-18)
(0.2949505874 -0.2592942189 -5.000108821e-18)
(0.4838157672 -0.1612944582 1.058001598e-18)
(0.65114318 -0.1138192738 -2.18112242e-17)
(0.7253660018 -0.07648704446 1.89296674e-17)
(0.8141569124 -0.05222164798 -3.953957918e-19)
(0.8382281392 -0.03590116081 4.380937486e-18)
(0.8979986675 -0.02097989947 1.356130478e-17)
(0.9026795606 -0.0150794741 -5.386429578e-18)
(0.9642128081 -0.002386678765 -3.86594067e-18)
(0.9464613536 -0.007810456467 3.355540095e-18)
(0.972736477 -0.00113115647 2.900796064e-18)
(1.003336646 -0.03404211144 -3.333921332e-18)
(0.370193478 -0.4178411183 4.40279757e-17)
(0.5302365 -0.2617458511 -8.627041172e-18)
(0.6833684026 -0.1861995875 3.400497581e-18)
(0.7470671838 -0.1267502558 -2.205988102e-17)
(0.829155001 -0.08879769488 7.598666009e-18)
(0.8492445708 -0.06330015419 -1.062210217e-17)
(0.9053058124 -0.04113652989 -1.303615836e-17)
(0.909279811 -0.03247365517 -1.32562813e-17)
(0.9679732067 -0.01534296564 5.797650189e-18)
(0.9521938931 -0.02189268776 -2.997617303e-18)
(0.9779612267 -0.01656330806 1.176664354e-18)
(1.007226447 -0.01986239329 -3.945548396e-20)
(0.478605357 -0.5505204041 2.497609925e-18)
(0.6002151797 -0.3434987133 1.566612198e-17)
(0.7356259978 -0.2429694596 1.1387859e-17)
(0.7854402084 -0.1644196362 1.718011912e-18)
(0.8586328459 -0.1137257007 2.224176298e-17)
(0.8725297933 -0.08026275673 -7.835276632e-18)
(0.9225236101 -0.05086284813 1.788909646e-17)
(0.9226961312 -0.04043924663 -1.128723074e-17)
(0.9747486212 -0.01869060912 -3.391063902e-19)
(0.9553303774 -0.0308385735 -9.678048209e-18)
(0.9788051676 -0.02647347224 -9.912968648e-19)
(1.000599701 -0.04758269644 -9.74813712e-18)
(0.6162019813 -0.663118927 -8.209899651e-17)
(0.6877742659 -0.4164232361 4.125591557e-18)
(0.7988958249 -0.2963426539 -1.726381059e-17)
(0.8301939545 -0.2020205857 -4.151446981e-18)
(0.8915233624 -0.1413665666 -1.549888067e-17)
(0.8979380545 -0.100942089 -1.389773246e-17)
(0.9403595725 -0.0651435839 8.931819296e-18)
(0.9379714758 -0.05223754061 -5.322554387e-18)
(0.9824332608 -0.02426229247 -8.686517485e-18)
(0.9643415791 -0.03974322528 1.85262753e-17)
(0.9838522157 -0.02975438209 -4.239171856e-18)
(1.0115953 -0.07030219089 2.243024025e-19)
(0.7716810387 -0.735053347 2.847675587e-17)
(0.7874238671 -0.4603479572 -1.671421931e-17)
(0.8721055735 -0.3261035913 4.302428502e-17)
(0.8832738115 -0.2209233842 -1.927141693e-17)
(0.9313294991 -0.1525630403 3.333456539e-17)
(0.929651707 -0.1070004776 -1.261805058e-17)
(0.9635500919 -0.06653071817 2.398536543e-17)
(0.9589287682 -0.05168939251 1.025601354e-17)
(0.9950261663 -0.02056349193 -5.425998603e-18)
(0.9807808788 -0.03943775516 -2.369067284e-17)
(0.9943636671 -0.02831885757 2.259901775e-17)
(1.039522802 -0.09336296725 -1.543001451e-17)
(0.9456019702 -0.7787600379 2.103865072e-17)
(0.9005071447 -0.4902992739 -1.669572519e-17)
(0.9557001983 -0.3487293776 1.757498992e-17)
(0.94407555 -0.2370601199 3.146907655e-17)
(0.9776773759 -0.1647547078 -4.153027889e-17)
(0.9666767982 -0.1155092839 1.326803509e-18)
(0.9911259494 -0.07221577026 -1.584508746e-17)
(0.9832728327 -0.05440733362 2.81738841e-18)
(1.008488147 -0.02001126862 2.638705095e-19)
(0.9975888441 -0.0368980972 1.558022207e-17)
(0.9978882934 -0.02129600764 -1.736379746e-17)
(1.064910217 -0.09208401166 -6.151190145e-19)
(1.117992341 -0.7760917789 -1.710648085e-17)
(1.011395978 -0.4879950079 1.482896344e-17)
(1.03695062 -0.3460080329 -2.004285966e-17)
(1.003015039 -0.2337917753 1.529279731e-17)
(1.02185527 -0.160463657 -3.763827548e-18)
(1.002273333 -0.1094404515 -1.092920006e-18)
(1.018095062 -0.0648789166 -2.056046123e-17)
(1.009589343 -0.04282163087 2.533408201e-18)
(1.027792605 -0.007313615355 -1.765304819e-18)
(1.027132319 -0.01524077363 -2.180517301e-17)
(1.021633704 -0.004945790037 1.586405236e-17)
(1.125673104 -0.06153729606 -5.405459069e-18)
(1.294410334 -0.7413251319 -2.374617077e-17)
(1.128544919 -0.4675952564 1.426423668e-17)
(1.125287414 -0.3318326232 3.822450898e-17)
(1.068775704 -0.2238516584 -3.100047812e-17)
(1.073939651 -0.15384916 4.317558214e-17)
(1.045126752 -0.1040782795 -1.776630879e-17)
(1.053877822 -0.06275537554 1.749406908e-17)
(1.042083441 -0.04007570349 -1.460971819e-17)
(1.055814532 -0.01002082351 8.002276871e-19)
(1.052831232 -0.01173382807 2.6279773e-17)
(1.049055523 -0.01068692926 -9.245446808e-18)
(1.08228214 -0.0005985210762 1.427503274e-17)
(1.450424628 -0.664254251 -1.55052546e-17)
(1.23008178 -0.4190055064 -2.468483494e-19)
(1.200015031 -0.2968809023 -5.294294929e-17)
(1.123050324 -0.1994064623 3.293609985e-18)
(1.114394034 -0.1360541468 -1.890656507e-17)
(1.076091664 -0.09091151201 3.239366211e-17)
(1.075845819 -0.05446238137 -1.025184037e-17)
(1.057952747 -0.03512267434 -8.289589491e-20)
(1.063182436 -0.01127021839 1.230095829e-17)
(1.05470572 -0.01840306468 1.202492308e-17)
(1.050401978 -0.02034196539 -8.435409721e-18)
(1.070651196 -0.02816977499 2.086860016e-18)
(1.594204032 -0.5570631791 1.752097653e-18)
(1.327921765 -0.350780775 1.238654628e-18)
(1.275093202 -0.2468219456 1.306363915e-17)
(1.179898236 -0.1632640392 1.816251649e-17)
(1.159765769 -0.1089522558 -1.028798463e-17)
(1.112826524 -0.06937809706 8.751733042e-18)
(1.104880305 -0.03835650802 2.646699686e-18)
(1.081391178 -0.0204581918 5.755216813e-18)
(1.077756421 -0.0006930550781 5.19627533e-19)
(1.065360179 -0.006102466728 -6.952267372e-18)
(1.050956077 -0.006381380732 2.382769161e-18)
(1.062646144 -0.01684624039 1.354979394e-19)
(1.703602205 -0.419874335 2.61816042e-17)
(1.401175041 -0.2639731524 2.439519406e-18)
(1.330069757 -0.1847720517 -8.107625176e-18)
(1.220875713 -0.1202124752 -1.166728114e-17)
(1.191091297 -0.07807073905 -6.014656047e-18)
(1.137414759 -0.04661818627 6.935341478e-18)
(1.123152974 -0.02283905497 -1.964714077e-17)
(1.095669424 -0.008175586695 1.372577155e-17)
(1.0861046 0.005315996331 5.616849436e-18)
(1.07276124 0.001068187038 3.793730053e-18)
(1.054202544 -0.002052575158 -1.325232752e-17)
(1.067831727 -0.009981815922 1.038895634e-17)
(1.785645628 -0.2612597815 -3.056174327e-19)
(1.459688461 -0.1606586571 4.860759007e-19)
(1.376442505 -0.1078617317 -1.261590788e-18)
(1.257394566 -0.064046949 6.958034023e-19)
(1.22111291 -0.03521468307 3.124939697e-18)
(1.162461747 -0.01273744297 -5.732007954e-19)
(1.143404079 0.002923805806 1.819255546e-18)
(1.112630773 0.01412509019 5.428979354e-18)
(1.097738163 0.02039505154 -2.825934167e-18)
(1.082932698 0.01817337543 3.028283347e-18)
(1.060671966 0.009938193935 -4.590511401e-18)
(1.069277624 0.005459114319 1.622513269e-18)
(1.826996832 -0.08986910778 1.353343823e-18)
(1.490562937 -0.05110439817 4.009155503e-19)
(1.401466264 -0.02923358845 -1.554428261e-18)
(1.277855831 -0.009119590165 3.716193321e-19)
(1.238191049 0.00417124621 -1.506187642e-18)
(1.176888036 0.01651091872 3.030296749e-19)
(1.155317484 0.0228833421 1.283542113e-18)
(1.122201647 0.03050255594 -3.160304877e-19)
(1.104953428 0.02913892115 1.844803009e-18)
(1.087785761 0.02983311385 4.03138415e-19)
(1.065277175 0.01797662546 -1.379456063e-18)
(1.058819739 0.01763078487 4.984703697e-19)
(1.830346755 0.08828858039 -3.323425028e-19)
(1.497301489 0.06663289028 -2.545562425e-19)
(1.409225317 0.0591175442 1.99966062e-19)
(1.286226553 0.05587508496 -5.84379119e-19)
(1.246768111 0.05403378528 -9.028395239e-19)
(1.185022951 0.05577016017 -1.596743926e-19)
(1.163197939 0.05261527323 -1.422342395e-18)
(1.128437644 0.0551884801 2.777815278e-18)
(1.110542399 0.04516294222 9.564118907e-19)
(1.089934387 0.04576719768 -1.311972138e-18)
(1.067019903 0.0286489488 6.659626468e-21)
(1.044057151 0.02300379395 9.898196171e-19)
(1.795184558 0.2611229964 2.415643407e-19)
(1.479304002 0.1785523887 -9.560056274e-19)
(1.399138092 0.1400949236 2.868208571e-18)
(1.282057122 0.1128785613 -2.57114588e-18)
(1.246433183 0.0952119546 -9.417981165e-19)
(1.186649523 0.08615516309 7.042954945e-19)
(1.166789402 0.07343179179 1.68201965e-18)
(1.131292453 0.0712730967 2.609183983e-18)
(1.11424259 0.05355188892 -7.871268593e-19)
(1.089496006 0.05517491232 1.366788309e-18)
(1.065323478 0.03514380008 1.787072937e-18)
(1.028615911 0.02576550573 -1.079887849e-18)
(1.718706819 0.4224994561 -1.477140091e-17)
(1.432330671 0.286294763 7.057448163e-19)
(1.366252253 0.22130137 -5.946405214e-19)
(1.260297483 0.1727691299 4.724819986e-18)
(1.231686515 0.1412250475 -2.584206101e-18)
(1.176267028 0.1219775869 2.798051565e-18)
(1.160721064 0.1006974912 1.130913772e-18)
(1.125683819 0.09310769147 4.879160065e-19)
(1.112267781 0.06823743991 2.419184555e-19)
(1.083044925 0.06899090745 4.333595115e-19)
(1.060112032 0.04494686232 1.530632233e-18)
(1.00463269 0.0269203828 5.236238726e-19)
(1.613316479 0.5633007385 -7.058166316e-18)
(1.368173666 0.3789781534 -6.9208359e-18)
(1.322214723 0.2891371953 -5.410793846e-18)
(1.231712997 0.2208713694 -1.152929297e-18)
(1.213453086 0.1764948831 -7.658276156e-18)
(1.164708334 0.1475451635 2.946610359e-18)
(1.155351146 0.118608423 -7.323925007e-18)
(1.122353435 0.1053097579 3.515699896e-19)
(1.113628307 0.07453279104 5.118566309e-19)
(1.080427222 0.07307571539 -3.667924908e-19)
(1.059377548 0.04746083356 7.16080156e-19)
(0.9819274793 0.0168588094 7.865646471e-19)
(1.472173023 0.6746737411 4.128314344e-17)
(1.276835862 0.4538272879 -2.267904096e-18)
(1.255348839 0.3455036017 9.728179337e-18)
(1.184552922 0.2622718046 6.352128635e-19)
(1.178664313 0.2079364283 1.048002067e-17)
(1.138947157 0.1713305836 6.15737179e-18)
(1.137361963 0.1364204143 -5.279336537e-18)
(1.108885545 0.1184199683 -1.490307681e-18)
(1.107791516 0.08401281564 2.778460545e-18)
(1.074717249 0.07985819955 -8.107791205e-18)
(1.061320391 0.05759490492 -8.246136562e-20)
(0.9749449967 0.006237297368 -1.431763292e-18)
(1.316716751 0.7556704303 -2.202713198e-17)
(1.178371057 0.5086315239 1.151727106e-17)
(1.185162299 0.3863223861 -2.921299706e-17)
(1.136438763 0.2914790744 1.304714954e-17)
(1.145339217 0.2296112825 -2.189906269e-17)
(1.116161801 0.1863487968 7.347402501e-18)
(1.123897997 0.1463084897 -1.519686712e-17)
(1.101799907 0.1220015601 -8.592232752e-18)
(1.108630093 0.08271225215 6.857254037e-19)
(1.079429208 0.06914522609 1.812066572e-17)
(1.065984701 0.04767042579 -1.63338421e-17)
(0.9816119342 -0.04199398684 1.199786829e-17)
(1.139411793 0.7939219984 -1.851004126e-17)
(1.061528043 0.5343114606 1.390947018e-17)
(1.098488886 0.4051807095 -1.355919233e-17)
(1.074055996 0.3048271999 -2.708711168e-17)
(1.097940397 0.2386204332 3.726445024e-17)
(1.079888299 0.191920095 -2.240094033e-18)
(1.095591186 0.1482324676 1.830788907e-17)
(1.079037279 0.1210326022 -2.831771702e-19)
(1.090417467 0.07739475023 -2.051416969e-18)
(1.065675939 0.06392069826 -2.020401067e-17)
(1.048784118 0.03798288477 1.763844906e-17)
(1.031449604 -0.01507079043 -3.083797181e-18)
(0.9643323384 0.7986495288 2.263869381e-17)
(0.9478901336 0.5394483202 -1.735985728e-17)
(1.01557835 0.4099182098 2.735814805e-17)
(1.015196843 0.3087796978 -1.456848281e-17)
(1.055005684 0.2424407557 -1.053640019e-19)
(1.047720338 0.1955044157 -1.843856086e-18)
(1.072490646 0.1523051674 2.020269621e-17)
(1.059610943 0.1263230135 -2.55912048e-18)
(1.076987352 0.08390763743 -1.096722128e-18)
(1.047130433 0.07538028672 1.937029701e-17)
(1.031874199 0.04678729631 -2.104451039e-17)
(1.003613373 0.001673649636 1.606994018e-18)
(0.7868815498 0.7557257595 3.479465156e-17)
(0.8301442586 0.5100313005 -1.816572687e-17)
(0.9282127969 0.3868706493 -5.222858527e-17)
(0.9521859728 0.2910213323 4.495928553e-17)
(1.007643536 0.2277279146 -5.901777635e-17)
(1.011942466 0.1833351458 1.872117503e-17)
(1.046527203 0.1426801779 -2.67164531e-17)
(1.039838726 0.118687922 1.66686367e-17)
(1.066583136 0.0802056633 -6.459254198e-18)
(1.037390933 0.07365562179 -4.002882879e-17)
(1.030850377 0.05052466091 1.56292293e-17)
(1.002813992 0.005285450297 -1.843926336e-17)
(0.6270487761 0.6824789914 3.084287778e-17)
(0.7244459691 0.4630116814 3.317201614e-18)
(0.8497459966 0.3527922557 9.275802865e-17)
(0.8954421165 0.2666613688 -7.268891112e-18)
(0.9655016086 0.2102884529 3.882583116e-17)
(0.9802697963 0.1704588695 -5.578614032e-17)
(1.024077859 0.1345550397 2.004765651e-17)
(1.022735684 0.1127390009 -4.787784228e-18)
(1.05701171 0.07881114201 -1.785338971e-17)
(1.027635066 0.07119517707 -8.672973167e-18)
(1.024517408 0.05128261028 1.446971557e-17)
(0.9980470955 -0.004980528087 1.277310037e-18)
(0.4853150013 0.566981856 6.348083805e-18)
(0.6305515074 0.3840841387 -1.681675446e-18)
(0.7806851474 0.2921195078 -3.500918001e-17)
(0.8461666365 0.2206335871 -3.850269357e-17)
(0.929208933 0.1737149521 2.400419459e-17)
(0.9535593701 0.1408410268 -1.027813385e-17)
(1.005425817 0.1117320061 -7.884764527e-19)
(1.009390538 0.09380552468 -1.289204515e-17)
(1.050326745 0.06758191165 4.393921812e-18)
(1.022533437 0.06011133408 1.857260431e-17)
(1.021385152 0.04739049859 -1.491279956e-18)
(1.003603669 -0.01363819012 -4.946836476e-19)
(0.3730963776 0.429403239 -7.76642235e-17)
(0.5549808306 0.292936063 -5.230416307e-18)
(0.723397285 0.2243616524 1.730574527e-17)
(0.8039506577 0.1710225876 3.783387459e-17)
(0.8970846728 0.1366551717 1.211497267e-17)
(0.92951593 0.1124472588 -1.186835399e-17)
(0.9882800473 0.09173407244 4.885637417e-17)
(0.9984715314 0.07805070101 -2.855057219e-17)
(1.045499527 0.05925641812 -7.004895987e-18)
(1.023349894 0.05073823286 -6.087733879e-18)
(1.022460584 0.04053494622 2.988614349e-17)
(1.022414279 -0.02129351687 -2.388362727e-17)
(0.2953708926 0.2647921609 7.689327175e-18)
(0.5044556912 0.180631685 1.367250915e-18)
(0.6874580107 0.1386242838 -1.889747517e-18)
(0.7794550926 0.1062939617 -3.136311073e-18)