/*--------------------------------*- C++ -*----------------------------------*\
| =========                 |                                                 |
| \\      /  F ield         | foam-extend: Open Source CFD                    |
|  \\    /   O peration     | Version:  3.0                                   |
|   \\  /    A nd           | Web:         http://www.extend-project.de       |
|    \\/     M anipulation  |                                                 |
\*---------------------------------------------------------------------------*/
FoamFile
{
    version     2.0;
    format      ascii;
    class       volScalarField;
    location    "5.8";
    object      p;
}
// * * * * * * * * * * * * * * * * * * * * * * * * * * * * * * * * * * * * * //

dimensions      [0 0 0 0 0 0 0];

internalField   nonuniform List<scalar> 
400
(
1.23695
0.895926
0.890848
0.774529
0.872047
0.823899
0.948971
0.92329
1.05457
1.0358
1.16834
1.14859
1.27893
1.24879
1.3667
1.30834
1.38688
1.2603
1.23243
0.913702
1.64391
1.36438
1.31674
1.16223
1.19886
1.09511
1.15692
1.07303
1.14045
1.06199
1.12779
1.04576
1.10532
1.01173
1.05815
0.942113
0.957957
0.797801
0.734465
0.481004
1.45167
1.19271
1.17545
1.05202
1.11117
1.0348
1.11779
1.05695
1.1479
1.0905
1.18514
1.12496
1.22013
1.15072
1.23743
1.14679
1.20102
1.06315
1.03005
0.788518
1.45963
1.245
1.21175
1.10036
1.13526
1.0598
1.11374
1.04884
1.10731
1.04486
1.10559
1.04248
1.10523
1.03736
1.09641
1.01249
1.04516
0.917556
0.866706
0.648558
1.30892
1.08499
1.08619
0.994009
1.05992
1.00733
1.0916
1.04908
1.14264
1.1021
1.20715
1.16658
1.2857
1.24106
1.36811
1.3041
1.40884
1.28299
1.28338
1.00129
1.24783
1.03961
1.03838
0.962942
1.01278
0.970871
1.02889
0.993386
1.05375
1.02048
1.08859
1.05936
1.1425
1.11624
1.21522
1.17571
1.26708
1.15744
1.15297
0.825042
1.162
0.962813
0.984171
0.925818
0.992658
0.965812
1.04295
1.02043
1.10827
1.08678
1.19559
1.17828
1.31976
1.30668
1.48431
1.45684
1.64165
1.5253
1.59373
1.16547
1.06734
0.912875
0.930687
0.892373
0.93818
0.921138
0.966618
0.950248
0.997246
0.982551
1.04221
1.03662
1.12375
1.13187
1.25756
1.26257
1.40994
1.32422
1.37429
0.911668
1.00674
0.909353
0.933466
0.916599
0.959641
0.952422
1.00143
0.989762
1.05162
1.0383
1.12801
1.12225
1.26021
1.26947
1.47365
1.48327
1.73843
1.6514
1.80938
1.27117
0.882968
0.865191
0.887763
0.893752
0.914353
0.914195
0.929603
0.920117
0.936087
0.924421
0.953291
0.95307
1.01402
1.03931
1.15377
1.1982
1.3643
1.33267
1.42904
0.938689
0.831909
0.904273
0.917985
0.949873
0.953868
0.961717
0.969367
0.959385
0.978687
0.959985
1.00572
0.993742
1.09163
1.10476
1.28867
1.32889
1.6131
1.59356
1.85446
1.35574
0.693732
0.851679
0.876681
0.931072
0.921399
0.934355
0.913699
0.902118
0.876769
0.8534
0.833167
0.817396
0.821364
0.839472
0.896018
0.966073
1.09438
1.15609
1.27553
0.953804
0.65981
0.908999
0.912693
0.994529
0.963989
0.985552
0.952455
0.937893
0.907575
0.871373
0.854862
0.817703
0.840584
0.833097
0.941144
0.995315
1.24444
1.33224
1.69366
1.45753
0.53749
0.849027
0.882722
0.98301
0.952494
0.977575
0.925227
0.906023
0.837675
0.791273
0.712723
0.662229
0.587827
0.570592
0.529308
0.598455
0.630027
0.811847
0.914067
1.00349
0.541376
0.916529
0.921401
1.04697
0.998769
1.03291
0.96787
0.94434
0.865883
0.803662
0.717822
0.639978
0.565227
0.510955
0.493899
0.531903
0.667729
0.881045
1.30272
1.5843
0.484304
0.882856
0.928611
1.06437
1.02436
1.05855
0.981276
0.950176
0.843018
0.767265
0.631949
0.534194
0.375644
0.296852
0.136326
0.163366
0.0532383
0.3412
0.36947
1.09695
0.55976
0.969957
0.986993
1.14068
1.08791
1.12809
1.03846
1.00128
0.881448
0.789953
0.640664
0.515177
0.340283
0.218269
0.0483861
0.0264592
-0.0303113
0.272889
0.635463
1.6442
0.645001
1.02744
1.07249
1.22056
1.16968
1.20129
1.10092
1.05257
0.914345
0.809233
0.629892
0.483831
0.254184
0.0978336
-0.177635
-0.245546
-0.515199
-0.21348
-0.327468
1.1198
0.839595
1.16014
1.18274
1.33244
1.26819
1.29599
1.18183
1.12444
0.973812
0.856027
0.66254
0.494858
0.24214
0.0450299
-0.268511
-0.401652
-0.703538
-0.440027
-0.39175
1.33249
1.1808
1.39215
1.39436
1.50669
1.42204
1.42243
1.29625
1.22169
1.06579
0.936659
0.739444
0.556523
0.292298
0.0586803
-0.291331
-0.512247
-0.912029
-0.815842
-1.10464
0.650156
)
;

boundaryField
{
    cavity
    {
        type            implicitExtrapolation;
    }
    lid
    {
        type            implicitExtrapolation;
    }
    frontAndBack
    {
        type            empty;
    }
}


// ************************************************************************* //
