/*--------------------------------*- C++ -*----------------------------------*\
| =========                 |                                                 |
| \\      /  F ield         | foam-extend: Open Source CFD                    |
|  \\    /   O peration     | Version:  3.0                                   |
|   \\  /    A nd           | Web:         http://www.extend-project.de       |
|    \\/     M anipulation  |                                                 |
\*---------------------------------------------------------------------------*/
FoamFile
{
    version     2.0;
    format      ascii;
    class       volScalarField;
    location    "5.8";
    object      Theta;
}
// * * * * * * * * * * * * * * * * * * * * * * * * * * * * * * * * * * * * * //

dimensions      [0 0 0 0 0 0 0];

internalField   nonuniform List<scalar> 
400
(
0.165159
-0.0020648
-0.0256568
-0.0612428
-0.0403314
-0.0319528
0.00104474
0.0253113
0.061077
0.0906807
0.126832
0.156023
0.190713
0.212641
0.241143
0.243301
0.253967
0.21046
0.174776
0.0148936
0.366056
0.230197
0.190188
0.134581
0.128505
0.107954
0.111908
0.105968
0.112175
0.110814
0.116088
0.112906
0.114977
0.103845
0.0998314
0.0720018
0.0554301
-0.00500423
-0.0528429
-0.176853
0.292012
0.163825
0.135621
0.0917284
0.0935059
0.0817109
0.0918189
0.0923268
0.104214
0.108723
0.120548
0.124262
0.134858
0.13255
0.138938
0.121492
0.115335
0.0646479
0.0256027
-0.094554
0.286403
0.181317
0.154152
0.114496
0.114778
0.101514
0.108379
0.105101
0.112934
0.113123
0.121312
0.121526
0.130166
0.126257
0.133215
0.116503
0.112672
0.0648039
0.0263454
-0.081964
0.218654
0.108554
0.095117
0.0628173
0.0737005
0.0681582
0.083189
0.0869943
0.102415
0.109986
0.126973
0.136053
0.156334
0.163299
0.185739
0.180155
0.194551
0.150005
0.124768
-0.0149118
0.188503
0.0865708
0.0800262
0.0539406
0.0683545
0.0654288
0.081391
0.0857751
0.101288
0.109176
0.127191
0.138006
0.162153
0.1737
0.20463
0.206383
0.233777
0.193212
0.17716
0.0132605
0.138522
0.0410987
0.0447343
0.0250773
0.0449766
0.0463963
0.0656439
0.0733276
0.0919053
0.103354
0.12588
0.141906
0.174064
0.193648
0.238549
0.250253
0.298524
0.260042
0.262118
0.0504338
0.101544
0.0264667
0.0347281
0.022843
0.0424071
0.0456742
0.062947
0.0700619
0.0863724
0.0967228
0.117795
0.133943
0.167113
0.190119
0.240745
0.260566
0.320427
0.290059
0.30232
0.0708901
0.05507
0.00830874
0.0213443
0.0176394
0.0356238
0.0406269
0.0554159
0.0621274
0.0761433
0.0855804
0.1053
0.121529
0.15615
0.182289
0.240805
0.268329
0.347091
0.323524
0.362706
0.0976272
0.0109019
0.00394037
0.0196522
0.0256945
0.0395188
0.0454299
0.0550288
0.0592717
0.067621
0.0730066
0.0866329
0.0988215
0.127678
0.152528
0.207438
0.240814
0.32035
0.313274
0.35626
0.111441
-0.034617
0.00305993
0.0184979
0.0346584
0.0425562
0.0492863
0.052954
0.0544572
0.0565757
0.0572235
0.064022
0.0708227
0.0935066
0.114983
0.168819
0.205591
0.299064
0.306124
0.391261
0.147958
-0.0817311
-0.00118615
0.0195626
0.0462479
0.0505067
0.0581083
0.0559097
0.0537746
0.0481357
0.0420315
0.0385741
0.0366792
0.0461679
0.0599246
0.0979446
0.13564
0.21218
0.244974
0.315958
0.156985
-0.118069
0.00775495
0.0237607
0.0614833
0.0592406
0.0681255
0.059372
0.053514
0.0397519
0.026254
0.0121054
-1.32907e-05
-0.00349696
-0.00044212
0.0267247
0.0605073
0.144122
0.196088
0.331032
0.220147
-0.157021
-0.000172263
0.0275484
0.074473
0.0723924
0.0822826
0.0689412
0.05889
0.0369159
0.0149459
-0.0117308
-0.0362286
-0.058355
-0.0695881
-0.0695139
-0.0424676
0.00290525
0.0854806
0.170894
0.219983
-0.170158
0.0188947
0.0382069
0.0957763
0.0887686
0.100505
0.0813818
0.0672359
0.0368883
0.00625554
-0.032665
-0.0705034
-0.109888
-0.13861
-0.158033
-0.145569
-0.102267
-0.00387167
0.169003
0.313504
-0.18082
0.0192598
0.0551654
0.117915
0.113927
0.125488
0.102863
0.0839367
0.0460638
0.00658615
-0.0445105
-0.0961626
-0.155599
-0.20356
-0.256496
-0.261117
-0.275054
-0.153529
-0.0844345
0.284933
-0.151795
0.0561644
0.0819377
0.15263
0.144743
0.156993
0.128897
0.105326
0.0598656
0.0120147
-0.0502366
-0.115517
-0.192671
-0.262312
-0.340415
-0.372402
-0.401756
-0.282802
-0.119009
0.374222
-0.0996183
0.0942711
0.132063
0.199771
0.192037
0.199856
0.167476
0.137916
0.0865784
0.0310772
-0.0397887
-0.117071
-0.209998
-0.300371
-0.409582
-0.471444
-0.564636
-0.455913
-0.453054
0.265956
-0.00533446
0.161903
0.190194
0.258266
0.244454
0.248458
0.209651
0.174384
0.117126
0.0550713
-0.0231936
-0.111045
-0.21749
-0.328916
-0.463521
-0.563456
-0.689935
-0.619744
-0.575774
0.241717
0.164289
0.281827
0.300316
0.348996
0.3246
0.314018
0.269355
0.225178
0.166135
0.0985333
0.0200701
-0.0751299
-0.184577
-0.314545
-0.462969
-0.609732
-0.776848
-0.801207
-0.901232
-0.0858084
)
;

boundaryField
{
    cavity
    {
        type            implicitExtrapolation;
    }
    lid
    {
        type            implicitExtrapolation;
    }
    frontAndBack
    {
        type            empty;
    }
}


// ************************************************************************* //
