/*--------------------------------*- C++ -*----------------------------------*\
| =========                 |                                                 |
| \\      /  F ield         | foam-extend: Open Source CFD                    |
|  \\    /   O peration     | Version:  3.0                                   |
|   \\  /    A nd           | Web:         http://www.extend-project.de       |
|    \\/     M anipulation  |                                                 |
\*---------------------------------------------------------------------------*/
FoamFile
{
    version     2.0;
    format      ascii;
    class       volScalarField;
    location    "41";
    object      p;
}
// * * * * * * * * * * * * * * * * * * * * * * * * * * * * * * * * * * * * * //

dimensions      [0 0 0 0 0 0 0];

internalField   nonuniform List<scalar> 
7680
(
-0.234617
-0.222587
-0.213678
-0.204262
-0.19745
-0.189966
-0.184713
-0.1787
-0.174635
-0.169766
-0.166624
-0.162661
-0.160244
-0.157008
-0.155165
-0.152516
-0.151128
-0.148954
-0.147923
-0.146131
-0.145376
-0.143888
-0.143336
-0.142081
-0.141666
-0.140583
-0.140243
-0.139271
-0.138946
-0.138028
-0.137658
-0.136737
-0.136259
-0.13528
-0.134632
-0.13354
-0.132661
-0.131409
-0.130247
-0.12881
-0.234291
-0.222278
-0.213382
-0.20398
-0.197178
-0.189705
-0.184459
-0.178454
-0.174395
-0.169532
-0.166394
-0.162437
-0.160022
-0.156791
-0.154949
-0.152304
-0.150916
-0.148745
-0.147715
-0.145926
-0.14517
-0.143684
-0.14313
-0.141878
-0.141462
-0.14038
-0.140039
-0.139068
-0.138742
-0.137824
-0.137452
-0.13653
-0.13605
-0.135067
-0.134415
-0.133316
-0.132433
-0.131172
-0.130013
-0.12857
-0.233866
-0.221873
-0.212992
-0.203606
-0.196815
-0.189355
-0.184119
-0.178124
-0.174072
-0.169218
-0.166086
-0.162135
-0.159726
-0.156499
-0.154662
-0.152021
-0.150637
-0.148469
-0.147441
-0.145654
-0.144901
-0.143416
-0.142865
-0.141614
-0.1412
-0.140118
-0.139779
-0.138808
-0.138484
-0.137565
-0.137194
-0.13627
-0.135789
-0.134801
-0.134144
-0.133037
-0.13214
-0.130862
-0.129674
-0.128222
-0.233031
-0.221082
-0.212233
-0.202882
-0.196116
-0.188683
-0.183465
-0.177492
-0.173454
-0.168618
-0.165496
-0.16156
-0.159158
-0.155943
-0.154111
-0.15148
-0.1501
-0.14794
-0.146915
-0.145135
-0.144382
-0.142904
-0.142353
-0.141107
-0.140693
-0.139617
-0.139278
-0.138312
-0.137988
-0.137073
-0.136703
-0.135783
-0.135304
-0.134318
-0.133664
-0.132555
-0.131659
-0.130373
-0.129179
-0.127706
-0.232114
-0.220209
-0.211395
-0.202079
-0.195339
-0.187934
-0.182737
-0.176786
-0.172765
-0.167947
-0.164838
-0.160917
-0.158525
-0.155322
-0.153499
-0.150877
-0.149503
-0.147351
-0.146331
-0.144557
-0.143809
-0.142335
-0.141788
-0.140546
-0.140136
-0.139063
-0.138727
-0.137764
-0.137444
-0.136533
-0.136168
-0.135251
-0.134779
-0.133796
-0.133152
-0.132044
-0.131161
-0.129871
-0.128691
-0.127181
-0.230774
-0.21894
-0.210177
-0.200915
-0.194215
-0.186853
-0.181686
-0.175771
-0.171772
-0.166982
-0.163891
-0.159992
-0.157613
-0.15443
-0.152616
-0.150009
-0.148642
-0.146503
-0.145488
-0.143725
-0.14298
-0.141516
-0.140971
-0.139737
-0.139328
-0.138263
-0.137929
-0.136973
-0.136656
-0.135752
-0.135392
-0.134482
-0.134017
-0.133041
-0.132405
-0.131302
-0.130424
-0.129131
-0.127938
-0.126397
-0.229368
-0.217604
-0.208893
-0.199687
-0.193027
-0.185709
-0.180574
-0.174693
-0.170719
-0.165958
-0.162886
-0.15901
-0.156647
-0.153482
-0.151679
-0.149088
-0.147731
-0.145604
-0.144595
-0.142842
-0.142103
-0.140647
-0.140108
-0.13888
-0.138476
-0.137417
-0.137088
-0.136138
-0.135827
-0.134928
-0.134576
-0.133672
-0.133218
-0.132249
-0.131629
-0.13053
-0.129672
-0.12837
-0.127191
-0.125585
-0.227529
-0.215861
-0.207221
-0.19809
-0.191483
-0.184225
-0.179131
-0.173298
-0.169356
-0.164633
-0.161585
-0.157741
-0.155396
-0.152257
-0.150468
-0.147898
-0.14655
-0.144441
-0.14344
-0.141702
-0.140968
-0.139524
-0.138988
-0.137772
-0.13737
-0.13632
-0.135994
-0.135053
-0.134745
-0.133857
-0.133509
-0.132615
-0.132167
-0.131208
-0.130595
-0.129503
-0.128649
-0.127344
-0.126151
-0.124524
-0.225641
-0.214068
-0.205498
-0.196441
-0.189889
-0.182691
-0.177638
-0.171853
-0.167944
-0.16326
-0.160237
-0.156425
-0.154099
-0.150986
-0.149213
-0.146663
-0.145328
-0.143235
-0.142243
-0.140518
-0.139792
-0.138359
-0.137829
-0.136622
-0.136226
-0.135184
-0.134863
-0.13393
-0.133628
-0.132746
-0.132406
-0.131519
-0.131082
-0.130128
-0.129529
-0.128439
-0.1276
-0.126286
-0.1251
-0.12343
-0.22331
-0.211858
-0.203379
-0.194417
-0.187933
-0.180809
-0.175809
-0.170085
-0.166216
-0.161581
-0.158589
-0.154816
-0.152514
-0.149434
-0.147678
-0.145155
-0.143832
-0.141762
-0.14078
-0.139073
-0.138353
-0.136936
-0.13641
-0.135217
-0.134823
-0.133794
-0.133475
-0.132553
-0.132253
-0.131382
-0.131045
-0.130169
-0.129735
-0.128792
-0.128196
-0.127114
-0.126276
-0.124967
-0.123774
-0.122109
-0.220948
-0.209615
-0.201224
-0.192355
-0.18594
-0.178891
-0.173943
-0.168279
-0.164451
-0.159864
-0.156904
-0.153171
-0.150894
-0.147845
-0.146109
-0.143612
-0.142304
-0.140255
-0.139284
-0.137595
-0.136883
-0.13548
-0.134961
-0.133779
-0.133391
-0.132371
-0.132057
-0.131143
-0.130848
-0.129984
-0.129653
-0.128783
-0.128356
-0.127419
-0.126831
-0.125754
-0.124924
-0.123618
-0.122434
-0.12077
-0.218135
-0.206949
-0.198666
-0.189912
-0.183578
-0.17662
-0.171736
-0.166145
-0.162365
-0.157838
-0.154915
-0.15123
-0.148981
-0.145972
-0.144257
-0.141793
-0.140501
-0.138478
-0.137518
-0.135851
-0.135148
-0.133763
-0.133249
-0.132083
-0.131698
-0.130692
-0.13038
-0.129478
-0.129184
-0.128332
-0.128001
-0.127143
-0.126716
-0.12579
-0.125203
-0.124139
-0.123311
-0.122022
-0.120847
-0.119217
-0.215309
-0.204266
-0.196089
-0.187447
-0.181195
-0.174326
-0.169505
-0.163985
-0.160255
-0.155785
-0.152901
-0.149263
-0.147044
-0.144073
-0.142381
-0.139948
-0.138673
-0.136676
-0.135729
-0.134083
-0.133389
-0.132022
-0.131515
-0.130362
-0.129983
-0.128988
-0.128681
-0.127788
-0.127498
-0.126653
-0.126326
-0.125475
-0.125052
-0.124134
-0.123551
-0.122497
-0.121678
-0.120406
-0.119249
-0.117657
-0.212027
-0.201154
-0.193104
-0.184595
-0.178439
-0.171676
-0.166929
-0.161494
-0.157821
-0.15342
-0.150579
-0.146998
-0.144812
-0.141887
-0.14022
-0.137825
-0.136569
-0.134603
-0.13367
-0.132049
-0.131364
-0.130018
-0.129518
-0.128383
-0.128008
-0.127028
-0.126722
-0.125843
-0.125554
-0.124721
-0.124394
-0.123554
-0.123132
-0.122226
-0.121646
-0.120609
-0.119797
-0.118555
-0.117421
-0.115885
-0.208749
-0.198043
-0.190115
-0.181736
-0.175675
-0.169016
-0.164342
-0.15899
-0.155374
-0.151041
-0.148244
-0.144717
-0.142566
-0.139686
-0.138045
-0.135686
-0.13445
-0.132514
-0.131596
-0.129999
-0.129326
-0.127999
-0.127507
-0.126388
-0.126019
-0.125052
-0.12475
-0.123882
-0.123596
-0.122773
-0.122448
-0.121617
-0.121197
-0.120303
-0.119726
-0.118706
-0.117905
-0.116692
-0.115585
-0.114108
-0.205012
-0.194499
-0.186715
-0.178488
-0.172537
-0.165998
-0.161408
-0.156153
-0.152602
-0.148347
-0.145601
-0.142138
-0.140025
-0.137196
-0.135585
-0.133269
-0.132054
-0.130153
-0.12925
-0.127683
-0.127021
-0.125718
-0.125233
-0.124135
-0.12377
-0.12282
-0.122522
-0.121668
-0.121383
-0.120574
-0.12025
-0.119433
-0.119014
-0.118136
-0.117564
-0.116566
-0.115777
-0.114602
-0.113526
-0.112116
-0.201296
-0.190972
-0.183328
-0.175249
-0.169404
-0.162983
-0.158476
-0.153316
-0.149829
-0.145651
-0.142954
-0.139554
-0.137479
-0.134702
-0.13312
-0.130846
-0.129654
-0.127786
-0.126901
-0.125361
-0.124711
-0.123431
-0.122955
-0.121875
-0.121517
-0.120582
-0.120288
-0.119447
-0.119166
-0.118369
-0.118048
-0.117243
-0.116828
-0.115963
-0.115398
-0.114422
-0.113646
-0.112507
-0.111462
-0.110115
-0.197119
-0.187012
-0.179528
-0.171618
-0.165896
-0.15961
-0.155197
-0.150145
-0.14673
-0.14264
-0.14
-0.136671
-0.134639
-0.13192
-0.13037
-0.128144
-0.126976
-0.125148
-0.12428
-0.122773
-0.122136
-0.120883
-0.120416
-0.119359
-0.119006
-0.118091
-0.117801
-0.116977
-0.116699
-0.115918
-0.1156
-0.114811
-0.114401
-0.113556
-0.112998
-0.112048
-0.111289
-0.110188
-0.109177
-0.107893
-0.192981
-0.183084
-0.175756
-0.168011
-0.162409
-0.156253
-0.151933
-0.146986
-0.143644
-0.139638
-0.137054
-0.133794
-0.131806
-0.129143
-0.127627
-0.125447
-0.124304
-0.122514
-0.121665
-0.120189
-0.119566
-0.118338
-0.117881
-0.116845
-0.1165
-0.115603
-0.115319
-0.114511
-0.114237
-0.11347
-0.113157
-0.112384
-0.11198
-0.111152
-0.110605
-0.109678
-0.108936
-0.10787
-0.10689
-0.10566
-0.188382
-0.178724
-0.171573
-0.164014
-0.158546
-0.152539
-0.148322
-0.143495
-0.140232
-0.136324
-0.133801
-0.13062
-0.128678
-0.12608
-0.1246
-0.122473
-0.121357
-0.11961
-0.118781
-0.117341
-0.116732
-0.115534
-0.115087
-0.114077
-0.113739
-0.112864
-0.112586
-0.111798
-0.111529
-0.110782
-0.110475
-0.109721
-0.109325
-0.10852
-0.107985
-0.107085
-0.106363
-0.105333
-0.104384
-0.103204
-0.18384
-0.174413
-0.167433
-0.160055
-0.154719
-0.148855
-0.14474
-0.140029
-0.136844
-0.13303
-0.130568
-0.127463
-0.125569
-0.123034
-0.121589
-0.119513
-0.118425
-0.11672
-0.115912
-0.114506
-0.113912
-0.112743
-0.112308
-0.111321
-0.110992
-0.110137
-0.109866
-0.109097
-0.108835
-0.108105
-0.107806
-0.107071
-0.106685
-0.1059
-0.105379
-0.104504
-0.103801
-0.102801
-0.10188
-0.100738
-0.178839
-0.169671
-0.162883
-0.155709
-0.150518
-0.144816
-0.140814
-0.136232
-0.133134
-0.129424
-0.12703
-0.124011
-0.122168
-0.119702
-0.118297
-0.116279
-0.11522
-0.113562
-0.112776
-0.111409
-0.110831
-0.109695
-0.109272
-0.108313
-0.107993
-0.107163
-0.1069
-0.106153
-0.105899
-0.105192
-0.104902
-0.104189
-0.103815
-0.103056
-0.102551
-0.101704
-0.101023
-0.100054
-0.0991603
-0.0980503
-0.173912
-0.164995
-0.158393
-0.151415
-0.146367
-0.140821
-0.136928
-0.132472
-0.12946
-0.125852
-0.123524
-0.120587
-0.118796
-0.116398
-0.115033
-0.113069
-0.112041
-0.110429
-0.109664
-0.108335
-0.107775
-0.10667
-0.106259
-0.105327
-0.105017
-0.10421
-0.103955
-0.10323
-0.102985
-0.102298
-0.102018
-0.101327
-0.100967
-0.10023
-0.0997427
-0.0989207
-0.0982612
-0.0973174
-0.0964473
-0.0953583
-0.168531
-0.159893
-0.153497
-0.146737
-0.141847
-0.136474
-0.132703
-0.128386
-0.125468
-0.121972
-0.119716
-0.116872
-0.115136
-0.112813
-0.11149
-0.109588
-0.108592
-0.107031
-0.10629
-0.105004
-0.10446
-0.103391
-0.102993
-0.102092
-0.101792
-0.101013
-0.100767
-0.100067
-0.0998318
-0.0991693
-0.0989018
-0.0982362
-0.0978919
-0.0971822
-0.0967159
-0.0959215
-0.0952873
-0.0943693
-0.0935244
-0.0924519
-0.16324
-0.154872
-0.148675
-0.142126
-0.137389
-0.132184
-0.128531
-0.124349
-0.121523
-0.118137
-0.115952
-0.113196
-0.111516
-0.109266
-0.107985
-0.106143
-0.105178
-0.103666
-0.10295
-0.101704
-0.101179
-0.100144
-0.0997597
-0.098887
-0.0985984
-0.0978443
-0.0976083
-0.0969316
-0.0967066
-0.0960673
-0.0958117
-0.09517
-0.0948413
-0.094157
-0.0937105
-0.0929423
-0.0923313
-0.0914364
-0.0906132
-0.0895506
-0.157501
-0.14943
-0.143453
-0.137137
-0.132568
-0.127547
-0.124024
-0.11999
-0.117264
-0.113998
-0.111891
-0.109233
-0.107612
-0.105442
-0.104206
-0.10243
-0.1015
-0.100042
-0.0993515
-0.0981506
-0.0976446
-0.0966473
-0.0962776
-0.0954377
-0.0951606
-0.0944355
-0.09421
-0.0935603
-0.0933465
-0.0927336
-0.0924919
-0.0918773
-0.0915668
-0.0909109
-0.0904881
-0.0897486
-0.0891656
-0.0882958
-0.0874986
-0.0864457
-0.151869
-0.144085
-0.138321
-0.13223
-0.127823
-0.122981
-0.119584
-0.115694
-0.113065
-0.109916
-0.107884
-0.105321
-0.103759
-0.101667
-0.100476
-0.0987632
-0.0978669
-0.0964617
-0.0957968
-0.0946391
-0.0941524
-0.0931913
-0.0928363
-0.0920271
-0.0917617
-0.0910637
-0.0908485
-0.0902237
-0.0900204
-0.0894319
-0.0892025
-0.0886132
-0.0883184
-0.0876895
-0.0872869
-0.0865756
-0.0860169
-0.0851727
-0.0843986
-0.083357
-0.145796
-0.138327
-0.132796
-0.12695
-0.122721
-0.118075
-0.114815
-0.111082
-0.108559
-0.105537
-0.103586
-0.101127
-0.0996278
-0.0976202
-0.0964773
-0.0948344
-0.0939743
-0.0926265
-0.0919887
-0.0908788
-0.0904122
-0.0894913
-0.0891515
-0.0883767
-0.0881234
-0.087456
-0.0872515
-0.0866548
-0.086463
-0.0859016
-0.0856862
-0.0851245
-0.084848
-0.0842481
-0.0838698
-0.0831887
-0.0826602
-0.0818445
-0.0811018
-0.0800752
-0.139848
-0.132681
-0.127375
-0.121767
-0.11771
-0.113252
-0.110125
-0.106543
-0.104124
-0.101225
-0.0993546
-0.0969958
-0.095558
-0.0936324
-0.092537
-0.0909612
-0.0901372
-0.0888447
-0.088234
-0.0871697
-0.0867235
-0.0858407
-0.0855163
-0.0847739
-0.0845326
-0.0838934
-0.0836991
-0.0831282
-0.0829462
-0.0824097
-0.0822053
-0.0816689
-0.0814062
-0.0808334
-0.0804731
-0.0798219
-0.0793162
-0.0785326
-0.0778161
-0.0768182
-0.133468
-0.126632
-0.12157
-0.11622
-0.11235
-0.108098
-0.105114
-0.101697
-0.0993886
-0.0966231
-0.0948388
-0.0925889
-0.091217
-0.0893804
-0.0883353
-0.0868327
-0.0860466
-0.0848145
-0.0842321
-0.083218
-0.0827928
-0.081952
-0.0816433
-0.0809368
-0.0807078
-0.0801001
-0.0799165
-0.0793741
-0.0792029
-0.0786935
-0.0785016
-0.0779923
-0.0777458
-0.0772015
-0.0768631
-0.076243
-0.0757672
-0.0750181
-0.0743406
-0.0733737
-0.127228
-0.12071
-0.115883
-0.110782
-0.107093
-0.103039
-0.100194
-0.096937
-0.0947365
-0.0921001
-0.0903998
-0.0882549
-0.0869479
-0.0851973
-0.0842019
-0.0827698
-0.0820215
-0.0808472
-0.0802933
-0.079327
-0.078923
-0.078122
-0.0778291
-0.0771563
-0.0769394
-0.0763608
-0.076187
-0.0756708
-0.0755085
-0.0750236
-0.0748409
-0.0743559
-0.07412
-0.0736015
-0.0732761
-0.0726858
-0.0722276
-0.0715165
-0.0708653
-0.0699564
-0.120568
-0.114394
-0.109823
-0.104992
-0.101497
-0.097657
-0.0949623
-0.0918773
-0.0897928
-0.0872957
-0.0856849
-0.0836536
-0.0824154
-0.0807576
-0.0798148
-0.0784589
-0.0777502
-0.0766388
-0.0761144
-0.0752002
-0.0748179
-0.0740606
-0.0737839
-0.0731481
-0.0729435
-0.0723971
-0.0722336
-0.0717463
-0.0715936
-0.0711356
-0.0709636
-0.0705049
-0.0702821
-0.0697908
-0.0694832
-0.0689235
-0.068492
-0.0678193
-0.0672123
-0.0663532
-0.114063
-0.108221
-0.103895
-0.0993237
-0.0960166
-0.0923834
-0.089834
-0.0869151
-0.0849433
-0.0825808
-0.0810574
-0.0791357
-0.0779651
-0.0763969
-0.0755058
-0.0742233
-0.073554
-0.0725028
-0.072008
-0.0711435
-0.0707832
-0.0700672
-0.0698067
-0.0692057
-0.0690134
-0.0684969
-0.068343
-0.0678822
-0.0677378
-0.0673043
-0.0671402
-0.0667052
-0.0664907
-0.0660238
-0.0657255
-0.0651935
-0.0647736
-0.0641391
-0.0635532
-0.062773
-0.107151
-0.101667
-0.0976058
-0.0933139
-0.0902088
-0.0867977
-0.0844039
-0.0816635
-0.079812
-0.077594
-0.0761635
-0.0743595
-0.0732603
-0.0717884
-0.0709517
-0.0697482
-0.0691198
-0.0681339
-0.0676694
-0.0668589
-0.066521
-0.0658501
-0.065606
-0.0650432
-0.0648632
-0.0643798
-0.0642359
-0.0638044
-0.0636691
-0.0632628
-0.0631083
-0.0626998
-0.0624967
-0.0620571
-0.061774
-0.0612728
-0.0608763
-0.060282
-0.0597393
-0.0590232
-0.100409
-0.0952687
-0.0914621
-0.0874392
-0.0845291
-0.0813321
-0.0790889
-0.0765206
-0.0747858
-0.0727073
-0.0713674
-0.0696769
-0.0686476
-0.0672685
-0.0664855
-0.065358
-0.0647703
-0.0638467
-0.0634128
-0.0626537
-0.0623384
-0.0617102
-0.0614828
-0.0609559
-0.0607884
-0.0603358
-0.0602018
-0.0597976
-0.059671
-0.0592899
-0.0591441
-0.0587601
-0.0585667
-0.0581527
-0.0578811
-0.0574086
-0.0570268
-0.0564688
-0.0559474
-0.055298
-0.0932754
-0.0885037
-0.0849702
-0.0812358
-0.0785341
-0.0755662
-0.0734835
-0.0710994
-0.0694887
-0.0675592
-0.0663151
-0.0647461
-0.0637904
-0.0625106
-0.0617836
-0.0607376
-0.0601921
-0.0593356
-0.058933
-0.0582294
-0.057937
-0.0573551
-0.0571445
-0.0566568
-0.0565019
-0.0560831
-0.0559592
-0.0555854
-0.055468
-0.0551154
-0.0549795
-0.0546239
-0.054443
-0.0540592
-0.0538047
-0.0533672
-0.0530102
-0.0524968
-0.0520143
-0.0514293
-0.0863256
-0.0819081
-0.0786368
-0.0751798
-0.0726791
-0.0699318
-0.0680044
-0.0657976
-0.0643072
-0.0625215
-0.0613707
-0.0599187
-0.0590351
-0.0578508
-0.0571791
-0.0562113
-0.0557077
-0.0549154
-0.0545441
-0.0538935
-0.0536244
-0.0530864
-0.052893
-0.0524422
-0.0523003
-0.0519133
-0.0517999
-0.0514545
-0.051347
-0.051021
-0.0508963
-0.0505675
-0.050401
-0.0500468
-0.0498132
-0.0494115
-0.0490868
-0.04862
-0.0481898
-0.0476585
-0.0789999
-0.0749611
-0.0719701
-0.0688092
-0.0665224
-0.0640104
-0.0622477
-0.0602298
-0.0588668
-0.0572341
-0.0561816
-0.0548542
-0.0540461
-0.0529637
-0.0523494
-0.0514652
-0.0510048
-0.0502813
-0.049942
-0.0493482
-0.0491025
-0.0486119
-0.0484356
-0.0480249
-0.0478958
-0.0475437
-0.0474406
-0.0471267
-0.047029
-0.0467331
-0.0466195
-0.0463215
-0.0461698
-0.0458495
-0.0456364
-0.0452745
-0.0449781
-0.0445592
-0.0441644
-0.0436903
-0.0718718
-0.0681962
-0.0654743
-0.0625978
-0.0605171
-0.0582313
-0.0566278
-0.0547919
-0.0535523
-0.0520669
-0.05111
-0.0499026
-0.0491683
-0.0481839
-0.0476262
-0.0468222
-0.0464046
-0.0457468
-0.0454397
-0.0449
-0.0446781
-0.0442325
-0.0440738
-0.043701
-0.0435853
-0.0432659
-0.0431742
-0.0428896
-0.0428031
-0.0425352
-0.0424349
-0.0421656
-0.0420319
-0.0417434
-0.0415566
-0.0412317
-0.0409736
-0.0405966
-0.0402535
-0.0398058
-0.0643858
-0.0610969
-0.0586612
-0.0560872
-0.054225
-0.0521795
-0.0507442
-0.0491013
-0.0479917
-0.0466626
-0.0458062
-0.0447259
-0.0440687
-0.0431883
-0.0426892
-0.0419705
-0.0415969
-0.0410093
-0.0407347
-0.040253
-0.0400549
-0.0396576
-0.0395162
-0.0391844
-0.0390816
-0.0387978
-0.0387167
-0.0384645
-0.0383881
-0.0381514
-0.038063
-0.0378259
-0.037708
-0.0374547
-0.0372895
-0.0370046
-0.0367747
-0.0364427
-0.0361314
-0.0357345
-0.0571099
-0.0541917
-0.0520306
-0.0497469
-0.0480951
-0.0462804
-0.0450076
-0.0435503
-0.0425667
-0.041388
-0.0406291
-0.0396712
-0.0390893
-0.0383088
-0.0378674
-0.0372304
-0.0369005
-0.0363799
-0.036138
-0.0357115
-0.0355375
-0.0351861
-0.0350626
-0.0347693
-0.0346804
-0.0344299
-0.0343605
-0.0341383
-0.0340738
-0.0338657
-0.0337914
-0.0335834
-0.0334844
-0.0332625
-0.0331235
-0.032873
-0.0326782
-0.0323819
-0.0321129
-0.0317409
-0.0494955
-0.0469705
-0.0451004
-0.0431242
-0.0416945
-0.0401241
-0.0390223
-0.0377613
-0.0369098
-0.0358899
-0.035233
-0.0344045
-0.0339009
-0.033226
-0.0328442
-0.0322937
-0.0320085
-0.0315591
-0.0313502
-0.0309825
-0.0308326
-0.0305301
-0.0304241
-0.0301723
-0.0300964
-0.029882
-0.0298232
-0.0296338
-0.0295794
-0.0294028
-0.0293402
-0.0291645
-0.0290808
-0.0288936
-0.0287752
-0.028563
-0.0283947
-0.0281404
-0.027903
-0.027579
-0.042103
-0.0399546
-0.0383635
-0.0366822
-0.0354661
-0.0341303
-0.0331935
-0.032121
-0.0313975
-0.0305303
-0.0299725
-0.0292682
-0.0288411
-0.0282677
-0.0279442
-0.0274768
-0.0272358
-0.0268545
-0.0266786
-0.0263669
-0.0262414
-0.0259853
-0.0258974
-0.0256847
-0.0256226
-0.0254419
-0.0253949
-0.0252356
-0.0251929
-0.0250449
-0.0249961
-0.0248489
-0.0247831
-0.0246261
-0.0245315
-0.0243519
-0.0242144
-0.0239949
-0.0237949
-0.0235064
-0.0343927
-0.0326422
-0.0313456
-0.0299755
-0.0289843
-0.0278957
-0.0271321
-0.0262582
-0.0256684
-0.0249619
-0.0245074
-0.0239339
-0.023586
-0.0231194
-0.0228562
-0.0224763
-0.0222805
-0.021971
-0.0218284
-0.0215761
-0.0214748
-0.0212681
-0.0211977
-0.0210267
-0.0209776
-0.0208331
-0.0207964
-0.0206699
-0.020637
-0.0205202
-0.0204824
-0.0203669
-0.0203154
-0.020192
-0.0201167
-0.0199745
-0.0198629
-0.0196859
-0.0195205
-0.019283
-0.0269154
-0.0255457
-0.0245312
-0.0234594
-0.0226842
-0.0218328
-0.0212361
-0.0205528
-0.0200923
-0.0195403
-0.0191859
-0.0187381
-0.0184673
-0.0181033
-0.0178991
-0.0176031
-0.0174519
-0.0172112
-0.0171019
-0.016906
-0.0168293
-0.0166694
-0.016617
-0.0164853
-0.0164499
-0.0163392
-0.016314
-0.0162175
-0.0161957
-0.0161071
-0.016082
-0.0159945
-0.0159592
-0.0158653
-0.0158117
-0.0157019
-0.0156192
-0.0154797
-0.015352
-0.0151597
-0.0191421
-0.0181734
-0.0174557
-0.0166974
-0.0161489
-0.0155466
-0.0151243
-0.0146412
-0.0143155
-0.0139254
-0.013675
-0.0133589
-0.013168
-0.0129115
-0.012768
-0.01256
-0.0124543
-0.0122858
-0.01221
-0.0120738
-0.0120213
-0.011911
-0.0118761
-0.0117861
-0.0117635
-0.0116889
-0.0116737
-0.0116098
-0.0115972
-0.0115392
-0.0115245
-0.0114678
-0.0114458
-0.0113849
-0.0113496
-0.0112771
-0.0112205
-0.0111256
-0.0110356
-0.0109
-0.0116119
-0.0110266
-0.0105931
-0.0101351
-0.0098041
-0.00944064
-0.00918634
-0.00889514
-0.00869962
-0.00846498
-0.00831535
-0.00812577
-0.0080125
-0.00785928
-0.00777505
-0.00765147
-0.00759048
-0.00749117
-0.0074487
-0.00736922
-0.00734127
-0.00727785
-0.00726093
-0.00721024
-0.00720119
-0.00716019
-0.00715604
-0.00712184
-0.00711972
-0.00708947
-0.00708647
-0.00705715
-0.00705008
-0.00701812
-0.00700312
-0.00696363
-0.00693532
-0.00688057
-0.00683067
-0.00674598
-0.00380902
-0.00362602
-0.00349022
-0.00334687
-0.00324326
-0.0031297
-0.00305048
-0.00296
-0.00289971
-0.00282751
-0.00278222
-0.00272479
-0.00269154
-0.00264621
-0.00262276
-0.00258747
-0.002572
-0.00254512
-0.00253616
-0.00251635
-0.00251263
-0.00249874
-0.00249915
-0.00249014
-0.00249365
-0.00248856
-0.00249418
-0.00249207
-0.00249879
-0.00249869
-0.00250545
-0.00250625
-0.00251175
-0.002512
-0.00251459
-0.00251214
-0.00250943
-0.00250054
-0.00248907
-0.0024667
0.00374178
0.00354033
0.00339131
0.00323356
0.0031191
0.0029932
0.00290404
0.00280206
0.00273189
0.00264826
0.00259257
0.00252324
0.00247869
0.00242061
0.00238468
0.00233544
0.00230613
0.00226382
0.00223951
0.00220252
0.00218185
0.00214885
0.00213066
0.00210049
0.00208373
0.00205539
0.00203913
0.00201173
0.00199513
0.00196786
0.00195016
0.00192232
0.00190287
0.00187388
0.00185208
0.00182147
0.0017965
0.00176431
0.00173467
0.001704
0.0115409
0.0109376
0.0104911
0.010019
0.0096774
0.00930183
0.00903777
0.00873527
0.00853
0.0082841
0.00812419
0.00792288
0.00779841
0.0076326
0.00753599
0.00739863
0.0073239
0.00720932
0.00715161
0.00705514
0.00701035
0.00692804
0.00689263
0.00682103
0.00679184
0.00672788
0.006702
0.00664284
0.00661754
0.00656053
0.00653319
0.00647572
0.00644381
0.00638323
0.0063441
0.00627741
0.0062277
0.00615098
0.00608494
0.00599067
0.0190799
0.0180928
0.017362
0.0165893
0.01603
0.0154154
0.0149833
0.0144886
0.0141532
0.0137517
0.0134911
0.0131633
0.0129612
0.0126922
0.0125364
0.0123147
0.0121954
0.0120119
0.0119211
0.011768
0.011699
0.01157
0.0115171
0.0114065
0.0113643
0.0112671
0.0112309
0.0111424
0.0111075
0.0110233
0.0109854
0.0109009
0.0108554
0.0107661
0.0107082
0.0106085
0.0105319
0.0104147
0.0103087
0.0101618
0.026842
0.0254551
0.0244283
0.023343
0.0225577
0.0216947
0.0210886
0.0203945
0.0199246
0.0193618
0.0189975
0.0185384
0.0182569
0.0178808
0.0176646
0.0173554
0.0171909
0.0169355
0.0168115
0.0165994
0.0165065
0.0163285
0.0162585
0.0161068
0.0160523
0.0159198
0.0158739
0.015754
0.0157103
0.0155965
0.0155485
0.0154346
0.0153759
0.015255
0.0151787
0.0150434
0.0149409
0.0147814
0.01464
0.0144375
0.0343369
0.0325685
0.0312591
0.029875
0.0288733
0.0277727
0.0269995
0.0261145
0.0255152
0.0247978
0.0243334
0.0237486
0.02339
0.0229114
0.0226365
0.0222435
0.0220348
0.0217109
0.0215542
0.0212859
0.0211691
0.0209448
0.0208574
0.0206671
0.0205998
0.0204343
0.0203783
0.0202291
0.020176
0.020035
0.0199764
0.0198352
0.0197628
0.0196127
0.0195172
0.0193484
0.019219
0.0190192
0.0188404
0.0185882
0.0420285
0.0398642
0.0382617
0.0365679
0.0353423
0.0339958
0.0330502
0.0319676
0.0312353
0.030358
0.0297909
0.0290761
0.0286388
0.0280542
0.0277195
0.0272398
0.0269864
0.0265915
0.0264019
0.0260752
0.0259347
0.025662
0.0255577
0.0253268
0.0252472
0.0250468
0.024981
0.0248007
0.0247384
0.024568
0.0244988
0.024328
0.0242411
0.0240592
0.0239428
0.0237375
0.0235777
0.0233343
0.0231123
0.0228106
0.0494472
0.0469053
0.045023
0.0430335
0.0415938
0.040012
0.0389012
0.0376297
0.0367693
0.0357391
0.0350729
0.0342338
0.0337203
0.0330342
0.0326415
0.0320789
0.0317819
0.0313192
0.0310973
0.030715
0.0305509
0.0302324
0.0301111
0.0298419
0.0297498
0.0295167
0.029441
0.0292317
0.0291601
0.0289625
0.0288827
0.0286846
0.0285837
0.0283723
0.0282366
0.0279975
0.0278111
0.027528
0.0272716
0.0269233
0.0570355
0.0541032
0.0519318
0.049637
0.0479765
0.0461522
0.0448714
0.043405
0.0424133
0.0412255
0.0404581
0.0394908
0.0388997
0.038109
0.0376574
0.0370094
0.0366683
0.0361356
0.0358813
0.0354414
0.035254
0.0348879
0.0347499
0.0344407
0.0343363
0.0340688
0.0339834
0.0337433
0.0336624
0.0334358
0.0333449
0.0331176
0.0330017
0.0327589
0.0326016
0.032327
0.03211
0.0317862
0.0314883
0.031099
0.0643461
0.0610417
0.0585947
0.0560084
0.0541369
0.0520809
0.0506373
0.0489847
0.0478669
0.0465284
0.0456635
0.0445736
0.0439075
0.0430169
0.0425082
0.0417786
0.0413945
0.0407951
0.040509
0.0400144
0.0398039
0.0393926
0.039238
0.0388911
0.0387745
0.0384748
0.0383796
0.0381109
0.0380209
0.0377674
0.0376661
0.0374119
0.0372824
0.0370106
0.0368347
0.0365275
0.0362852
0.0359236
0.0355935
0.0351589
0.0717987
0.068111
0.0653802
0.0624941
0.0604059
0.0581117
0.0565012
0.0546574
0.0534108
0.0519175
0.0509532
0.0497375
0.0489952
0.048002
0.0474355
0.046622
0.0461946
0.0455265
0.0452087
0.0446577
0.0444241
0.0439662
0.043795
0.0434089
0.0432803
0.0429469
0.042842
0.0425432
0.0424439
0.0421621
0.0420499
0.0417673
0.0416231
0.0413212
0.0411246
0.0407839
0.0405131
0.0401136
0.0397458
0.03927
0.0789698
0.0749171
0.071916
0.0687441
0.0664489
0.0639275
0.0621572
0.0601308
0.0587605
0.0571194
0.0560595
0.0547237
0.0539078
0.0528167
0.0521941
0.0513006
0.0508312
0.0500976
0.0497487
0.0491441
0.0488879
0.0483857
0.0481983
0.0477753
0.0476347
0.0472697
0.0471554
0.0468286
0.0467205
0.0464124
0.0462903
0.0459814
0.0458244
0.0454944
0.0452804
0.0449083
0.0446137
0.0441777
0.0437783
0.0432576
0.0862546
0.0818275
0.078549
0.0750842
0.0725772
0.0698231
0.0678898
0.0656765
0.0641803
0.062388
0.061231
0.0597722
0.0588819
0.0576905
0.0570114
0.056036
0.0555243
0.0547237
0.0543437
0.0536839
0.0534053
0.0528575
0.052654
0.0521927
0.0520403
0.0516425
0.0515187
0.0511626
0.0510455
0.0507099
0.0505774
0.050241
0.0500702
0.0497113
0.049478
0.0490738
0.0487527
0.0482797
0.0478447
0.0472797
0.0932555
0.088472
0.0849296
0.0811858
0.0784768
0.0755008
0.0734116
0.07102
0.069403
0.0674665
0.0662162
0.0646401
0.063678
0.062391
0.0616573
0.0606038
0.0600511
0.0591866
0.0587763
0.0580642
0.0577637
0.0571727
0.0569533
0.056456
0.056292
0.0558634
0.0557305
0.055347
0.0552215
0.0548604
0.0547184
0.0543566
0.0541736
0.0537876
0.0535376
0.0531029
0.0527586
0.0522497
0.0517826
0.0511724
0.100341
0.0951938
0.0913818
0.0873531
0.0844382
0.0812359
0.0789881
0.0764149
0.0746754
0.0725919
0.0712471
0.0695516
0.0685171
0.0671326
0.0663439
0.0652108
0.064617
0.0636873
0.0632467
0.062481
0.0621586
0.0615233
0.0612883
0.0607538
0.0605784
0.0601179
0.0599758
0.059564
0.0594298
0.059042
0.0588901
0.0585018
0.0583057
0.0578917
0.0576235
0.0571574
0.0567879
0.0562418
0.0557399
0.0550836
0.107142
0.101648
0.0975798
0.0932801
0.0901689
0.0867511
0.0843519
0.0816054
0.0797488
0.0775252
0.0760897
0.0742802
0.0731761
0.0716987
0.070857
0.0696481
0.0690144
0.0680227
0.0675528
0.0667363
0.0663926
0.0657153
0.065465
0.0648955
0.0647089
0.0642184
0.0640676
0.0636292
0.0634869
0.0630743
0.0629133
0.0625003
0.0622924
0.061852
0.0615675
0.0610716
0.0606789
0.0600971
0.0595626
0.0588613
0.113999
0.108153
0.103823
0.0992481
0.0959377
0.0923011
0.0897485
0.0868263
0.0848512
0.0824853
0.0809585
0.0790334
0.0778592
0.0762876
0.0753927
0.0741067
0.0734333
0.0723785
0.0718793
0.0710109
0.0706461
0.0699259
0.0696605
0.069055
0.0688573
0.068336
0.0681764
0.0677105
0.0675599
0.0671216
0.0669511
0.0665124
0.066292
0.0658242
0.0655223
0.0649953
0.0645781
0.0639592
0.0633905
0.0626431
0.12057
0.114389
0.109812
0.104975
0.101475
0.0976301
0.0949311
0.0918416
0.0897532
0.087252
0.0856376
0.0836024
0.0823609
0.0806996
0.0797535
0.0783942
0.0776824
0.0765677
0.0760401
0.0751226
0.0747372
0.0739765
0.0736963
0.0730569
0.0728484
0.0722982
0.07213
0.0716384
0.07148
0.0710177
0.0708383
0.0703756
0.0701436
0.0696501
0.069332
0.0687756
0.0683354
0.0676813
0.0670802
0.0662887
0.127168
0.120648
0.115821
0.110718
0.107027
0.102971
0.100125
0.0968659
0.0946636
0.0920255
0.0903233
0.0881769
0.0868679
0.0851159
0.0841186
0.0826852
0.0819351
0.0807597
0.080204
0.0792366
0.0788308
0.0780288
0.077734
0.0770601
0.0768409
0.0762609
0.0760843
0.0755662
0.0753999
0.0749126
0.0747241
0.0742364
0.0739923
0.0734721
0.073137
0.0725503
0.072086
0.0713956
0.0707609
0.0699245
0.133481
0.12664
0.121574
0.11622
0.112346
0.108091
0.105104
0.101684
0.0993733
0.0966051
0.0948187
0.0925665
0.091193
0.0893547
0.0883083
0.0868044
0.0860174
0.0847844
0.0842015
0.0831868
0.0827613
0.0819203
0.0816113
0.0809048
0.0806752
0.0800673
0.0798824
0.0793396
0.0791655
0.078655
0.0784578
0.0779468
0.0776912
0.077146
0.0767948
0.0761795
0.0756926
0.0749677
0.0743014
0.0734225
0.139792
0.132628
0.127322
0.121714
0.117657
0.1132
0.110072
0.106491
0.10407
0.101171
0.099301
0.0969425
0.0955044
0.0935794
0.092484
0.0909093
0.0900856
0.0887946
0.0881847
0.0871223
0.0866773
0.0857968
0.0854738
0.0847341
0.0844943
0.0838579
0.0836649
0.0830966
0.0829148
0.0823803
0.0821742
0.0816391
0.0813717
0.0808006
0.0804329
0.0797879
0.0792778
0.0785177
0.077819
0.076897
0.145821
0.138349
0.132816
0.126968
0.122737
0.118089
0.114826
0.111091
0.108567
0.105544
0.103593
0.101134
0.0996341
0.0976267
0.0964844
0.0948424
0.0939835
0.0926374
0.0920015
0.090894
0.09043
0.0895123
0.0891757
0.0884048
0.088155
0.0874918
0.0872908
0.0866987
0.0865094
0.0859524
0.0857377
0.08518
0.0849014
0.0843059
0.0839225
0.0832498
0.0827175
0.0819243
0.0811951
0.0802324
0.151818
0.144038
0.138277
0.132188
0.127783
0.122944
0.119547
0.115659
0.113031
0.109884
0.107853
0.105292
0.103731
0.101642
0.100453
0.0987434
0.0978496
0.0964483
0.0957868
0.0946339
0.0941514
0.0931961
0.0928461
0.0920437
0.0917841
0.0910938
0.0908849
0.0902684
0.0900717
0.0894917
0.0892684
0.0886874
0.0883974
0.0877768
0.0873774
0.0866762
0.0861215
0.0852946
0.0845344
0.0835307
0.157536
0.149465
0.143488
0.137171
0.132601
0.12758
0.124056
0.120022
0.117296
0.114031
0.111924
0.109267
0.107648
0.10548
0.104247
0.102473
0.101546
0.100093
0.0994064
0.0982107
0.0977102
0.0967195
0.0963565
0.0955244
0.0952552
0.0945394
0.0943228
0.0936835
0.0934794
0.0928779
0.0926461
0.0920435
0.0917423
0.0910983
0.0906835
0.0899555
0.0893794
0.0885208
0.0877313
0.0866891
0.163194
0.154832
0.14864
0.142096
0.137362
0.132161
0.12851
0.124331
0.121507
0.118125
0.115943
0.113191
0.111513
0.109268
0.10799
0.106154