/*--------------------------------*- C++ -*----------------------------------*\
| =========                 |                                                 |
| \\      /  F ield         | foam-extend: Open Source CFD                    |
|  \\    /   O peration     | Version:  3.0                                   |
|   \\  /    A nd           | Web:         http://www.extend-project.de       |
|    \\/     M anipulation  |                                                 |
\*---------------------------------------------------------------------------*/
FoamFile
{
    version     2.0;
    format      ascii;
    class       volScalarField;
    location    "28";
    object      p;
}
// * * * * * * * * * * * * * * * * * * * * * * * * * * * * * * * * * * * * * //

dimensions      [0 0 0 0 0 0 0];

internalField   nonuniform List<scalar> 
2688
(
-0.2349798447
-0.2156360192
-0.2040095231
-0.1908978274
-0.1834818265
-0.1743177333
-0.1695832579
-0.1630804212
-0.1601291393
-0.1554868031
-0.1537367446
-0.1504108395
-0.1494478563
-0.1470350714
-0.1465339653
-0.1447063478
-0.1443841005
-0.1428478879
-0.1424323029
-0.1408986448
-0.1401042691
-0.1382655056
-0.136772138
-0.1342792124
-0.2342412981
-0.2149582253
-0.203368433
-0.1902979063
-0.1829051979
-0.1737698903
-0.1690502607
-0.1625678514
-0.1596258256
-0.1549980764
-0.1532534992
-0.1499380473
-0.1489780724
-0.1465728742
-0.1460733219
-0.1442514482
-0.1439301863
-0.1423988012
-0.1419845015
-0.140455675
-0.1396637756
-0.1378307826
-0.1363420892
-0.1338570075
-0.2327639802
-0.2136025893
-0.2020858298
-0.1890977538
-0.1817516857
-0.1726739971
-0.1679841594
-0.161542642
-0.1586191953
-0.1540206432
-0.1522870883
-0.148992558
-0.1480386545
-0.1456486337
-0.1451522442
-0.1433418631
-0.1430226364
-0.1415009149
-0.1410892413
-0.1395700693
-0.1387831677
-0.1369617367
-0.1354824475
-0.1330130286
-0.2305563122
-0.211576613
-0.2001691047
-0.1873041741
-0.1800277715
-0.1710361607
-0.1663907876
-0.1600103535
-0.1571146225
-0.1525596809
-0.1508425516
-0.1475792655
-0.1466343888
-0.1442670359
-0.1437753313
-0.1419821211
-0.1416658949
-0.140158605
-0.1397508043
-0.1382460425
-0.1374665715
-0.1356624272
-0.1341971437
-0.1317511447
-0.2276211491
-0.2088831113
-0.1976208164
-0.1849196878
-0.1777359266
-0.1688587966
-0.1642725729
-0.157973374
-0.1551145192
-0.1506175744
-0.1489223174
-0.1457005856
-0.1447677523
-0.1424305489
-0.1419451214
-0.1401747519
-0.1398625692
-0.1383744808
-0.1379718841
-0.1364862941
-0.1357167472
-0.1339355953
-0.1324889659
-0.130074107
-0.2239719161
-0.2055342573
-0.1944525202
-0.1819549864
-0.1748863918
-0.1661515568
-0.1616388512
-0.1554406226
-0.1526275875
-0.1482027213
-0.1465346191
-0.1433645222
-0.1424466138
-0.1401468678
-0.1396691904
-0.1379271956
-0.1376199858
-0.1361557498
-0.1357595738
-0.1342978006
-0.1335405547
-0.1317879703
-0.1303645075
-0.1279883636
-0.2196158423
-0.2015368118
-0.190670605
-0.1784161599
-0.1714850471
-0.1629201091
-0.1584951761
-0.1524175085
-0.1496591942
-0.1453204023
-0.1436847588
-0.1405763352
-0.1396763004
-0.1374213019
-0.13695294
-0.1352448453
-0.1349436362
-0.1335078978
-0.1331194458
-0.13168612
-0.1309436053
-0.1292251267
-0.1278293476
-0.1254994181
-0.2145709416
-0.1969071864
-0.1862905819
-0.1743176093
-0.1675457089
-0.1591774905
-0.1548541942
-0.1489161114
-0.1462211407
-0.1419819906
-0.1403838914
-0.1373468495
-0.1364674557
-0.1342642402
-0.133806603
-0.1321377353
-0.1318434146
-0.1304406549
-0.1300610996
-0.1286607032
-0.1279352158
-0.1262562241
-0.1248924882
-0.1226160816
-0.2088487382
-0.1916560739
-0.1813226001
-0.1696689453
-0.1630776446
-0.154932606
-0.1507246122
-0.1449449041
-0.142321819
-0.1381957396
-0.1366402798
-0.133684252
-0.1328283341
-0.1306838948
-0.1302384861
-0.1286141411
-0.1283276917
-0.1269623571
-0.1265929414
-0.1252299056
-0.1245237659
-0.1228895626
-0.1215621894
-0.1193464884
-0.202471614
-0.1858038956
-0.1757859331
-0.1644880857
-0.1580980381
-0.150201671
-0.146122153
-0.1405188936
-0.137975883
-0.1339757632
-0.1324677714
-0.129601982
-0.1287721682
-0.1266931924
-0.1262613521
-0.1246865954
-0.1244088628
-0.1230852157
-0.1227270562
-0.1214056467
-0.120721042
-0.1191367488
-0.1178498879
-0.1157018436
-0.1954552406
-0.17936515
-0.1696943568
-0.1587880419
-0.1526194444
-0.1449967335
-0.141058601
-0.1356495351
-0.1331946699
-0.12933319
-0.1278774781
-0.1251110191
-0.1243099839
-0.1223030697
-0.1218862145
-0.1203660415
-0.1200979502
-0.1188201835
-0.1184744491
-0.1171988442
-0.1165379609
-0.1150085799
-0.1137663054
-0.1116926962
-0.1878260963
-0.1723640185
-0.1630706796
-0.1525900326
-0.1466621985
-0.1393369867
-0.1355525553
-0.1303545877
-0.127995524
-0.1242847416
-0.1228858262
-0.1202273298
-0.1194575337
-0.117528941
-0.1171283267
-0.1156674798
-0.1154098222
-0.1141819259
-0.1138496611
-0.1126238525
-0.1119887373
-0.1105190622
-0.1093252574
-0.1073325878
-0.1796037743
-0.1648186001
-0.1559321032
-0.1459102807
-0.1402419627
-0.1332374401
-0.1296186974
-0.1246482964
-0.1223925263
-0.1188442065
-0.1175065517
-0.1149644518
-0.1142283745
-0.1123842235
-0.1120011644
-0.1106042787
-0.1103579149
-0.1091837812
-0.1088660735
-0.1076939399
-0.1070866244
-0.1056812984
-0.1045397459
-0.1026343062
-0.1708185664
-0.1567565718
-0.148304726
-0.1387730794
-0.1333820086
-0.1267200731
-0.1232783255
-0.1185510189
-0.1164055731
-0.1130307936
-0.1117585489
-0.1093407771
-0.1086406793
-0.1068867213
-0.1065223695
-0.1051938006
-0.1049594551
-0.1038427475
-0.1035405525
-0.1024257583
-0.101848119
-0.1005115443
-0.09942580934
-0.0976135745
-0.1614936834
-0.1481993549
-0.1402089071
-0.1311976069
-0.1261008533
-0.1198026056
-0.116548764
-0.1120795342
-0.1100512301
-0.106860693
-0.1056579196
-0.1033721478
-0.1027102866
-0.1010520909
-0.1007076457
-0.09945161428
-0.09923007563
-0.09817433995
-0.09788865352
-0.09683473167
-0.09628862158
-0.09502502462
-0.093998551
-0.09228524409
-0.1516629054
-0.1391778294
-0.1316737648
-0.1232109839
-0.1184244755
-0.1125095944
-0.1094538158
-0.1052566185
-0.1033517728
-0.1003554353
-0.09922586138
-0.09707921812
-0.09645762297
-0.09490035612
-0.09457684803
-0.09339726406
-0.09318917619
-0.0921976998
-0.09192937296
-0.09093961247
-0.09042671214
-0.08924004678
-0.08827603543
-0.08666702649
-0.1413527074
-0.1297164099
-0.1227224967
-0.1148350414
-0.1103739488
-0.1048611806
-0.1020131615
-0.0981013063
-0.09632597732
-0.09353334653
-0.09248058178
-0.09047988409
-0.08990056341
-0.08844917692
-0.08814767791
-0.08704829721
-0.08685437029
-0.08593031029
-0.08568023807
-0.08475778291
-0.0842797461
-0.0831737699
-0.08227528407
-0.08077565702
-0.1306000092
-0.1198488555
-0.11338694
-0.1060994478
-0.1019776964
-0.09688425154
-0.09425287131
-0.09063856413
-0.08899827393
-0.08641805795
-0.08544536046
-0.08359684092
-0.08306156587
-0.08172057419
-0.0814419789
-0.08042621457
-0.08024700184
-0.07939322592
-0.07916214118
-0.07830986202
-0.07786814909
-0.07684631682
-0.07601615127
-0.07463060328
-0.1194341367
-0.109602201
-0.103692775
-0.09702835368
-0.09325902387
-0.08860106134
-0.08619468141
-0.08288939485
-0.0813893681
-0.07902976308
-0.07814024717
-0.07644978443
-0.07596029042
-0.07473396624
-0.07447920562
-0.07355030215
-0.07338642621
-0.07260566371
-0.0723943508
-0.071614964
-0.07121101237
-0.07027656627
-0.06951736776
-0.06825028035
-0.107894753
-0.09901272184
-0.09367421739
-0.08765365651
-0.08424849543
-0.08004053796
-0.07786664731
-0.07488068065
-0.07352557339
-0.07139392605
-0.07059033731
-0.06906318801
-0.06862096522
-0.06751311361
-0.06728293669
-0.06644376774
-0.06629568723
-0.06559035059
-0.06539941735
-0.06469533905
-0.06433037035
-0.06348622279
-0.0628003441
-0.06165568201
-0.09601360748
-0.0881096762
-0.08335905213
-0.07800147331
-0.07497130808
-0.07122672751
-0.06929224879
-0.06663509681
-0.06542923649
-0.06353233114
-0.06281725089
-0.0614582825
-0.06106477141
-0.06007893223
-0.05987411425
-0.05912737035
-0.05899560638
-0.05836796069
-0.05819806435
-0.05757154806
-0.05724676155
-0.05649559796
-0.05588523482
-0.05486662258
-0.08383266986
-0.07693145458
-0.07278349451
-0.06810557479
-0.06545982508
-0.06219027043
-0.06050120652
-0.05818112915
-0.05712824549
-0.05547197276
-0.05484759795
-0.05366102382
-0.05331741461
-0.05245663611
-0.05227777341
-0.05162575506
-0.05151067177
-0.05096264686
-0.05081427028
-0.05026724888
-0.04998361808
-0.04932777204
-0.04879480759
-0.04790542682
-0.07138564897
-0.06550911755
-0.0619770368
-0.05799367443
-0.05574077969
-0.0529566709
-0.05151842056
-0.04954281827
-0.04864628905
-0.04723593847
-0.04670428684
-0.04569390341
-0.04540132453
-0.04466836885
-0.04451606993
-0.04396087724
-0.04386288287
-0.04339624764
-0.04326990482
-0.04280413856
-0.04256260206
-0.04200416819
-0.04155031685
-0.04079299008
-0.05871635057
-0.05388273707
-0.05097748301
-0.04770103006
-0.04584796231
-0.0435579252
-0.04237492794
-0.04074991489
-0.04001249462
-0.03885242429
-0.03841511446
-0.03758403715
-0.03734336173
-0.03674048171
-0.03661518177
-0.03615851478
-0.0360778755
-0.03569405576
-0.03559010237
-0.03520701853
-0.03500829439
-0.03454899806
-0.0341756514
-0.03355273649
-0.04585997282
-0.04208474062
-0.03981562034
-0.03725656684
-0.03580927358
-0.03402064781
-0.03309671252
-0.03182750414
-0.03125158045
-0.03034552096
-0.03000398418
-0.02935489277
-0.02916692615
-0.02869607262
-0.02859820907
-0.0282415509
-0.02817855976
-0.02787880442
-0.02779760547
-0.02749844733
-0.02734319976
-0.0269845186
-0.02669288742
-0.02620636972
-0.03286164901
-0.03015642014
-0.02853040572
-0.02669662086
-0.02565953728
-0.02437781477
-0.02371576018
-0.02280624575
-0.02239356166
-0.02174428166
-0.02149953558
-0.02103440616
-0.0208996903
-0.02056229045
-0.02049212753
-0.02023655513
-0.02019137182
-0.0199765848
-0.0199183601
-0.01970403258
-0.01959271403
-0.01933574416
-0.01912671117
-0.0187780956
-0.01975757602
-0.01813111969
-0.01715349506
-0.0160509316
-0.01542743995
-0.0146567898
-0.01425878829
-0.01371193476
-0.01346385917
-0.0130734853
-0.0129263587
-0.01264672287
-0.01256573299
-0.01236290423
-0.01232070783
-0.01216707101
-0.01213987669
-0.01201077249
-0.01197574021
-0.01184695336
-0.01177994854
-0.01162553098
-0.01149978794
-0.01129019709
-0.006593701116
-0.006050875448
-0.00572454747
-0.005356490176
-0.005148431598
-0.004891140858
-0.004758353974
-0.004575775088
-0.004493016598
-0.004362691676
-0.004313587184
-0.004220254985
-0.004193192997
-0.004125516475
-0.004111372668
-0.004060108895
-0.004050948766
-0.004007895773
-0.00399613066
-0.003953255639
-0.00393074185
-0.003879331042
-0.003837240893
-0.003767308698
0.006593286811
0.006050514384
0.005724349596
0.005356557988
0.005148407673
0.004891391135
0.004758454012
0.004576075818
0.004493183647
0.00436296248
0.004313828449
0.004220491483
0.004193485627
0.004125737858
0.004111735834
0.004060417776
0.004051472555
0.004008300473
0.003996724763
0.003953519555
0.003931438478
0.003879650093
0.00383792366
0.003767952254
0.01975715822
0.01813075561
0.01715329461
0.01605099698
0.01542741494
0.01465703926
0.01425888904
0.01371223682
0.01346402891
0.01307375984
0.01292660459
0.01264696544
0.01256603221
0.01236313382
0.01232107962
0.01216738982
0.01214041101
0.01201118847
0.01197634615
0.01184722934
0.01178065591
0.01162586071
0.01150047903
0.01129084861
0.03286123973
0.03015606391
0.02853021156
0.02669669024
0.02565951584
0.02437806493
0.02371586106
0.02280654477
0.0223937272
0.02174454851
0.02149977151
0.0210346352
0.02089997291
0.02056250001
0.02049247544
0.02023684699
0.02019187468
0.01997696817
0.01991893018
0.01970427528
0.01959338622
0.01933604269
0.01912737171
0.01877871806
0.04585955257
0.04208437492
0.039815418
0.03725662842
0.03580924836
0.0340208949
0.03309681482
0.03182780628
0.03125175312
0.03034579779
0.03000423261
0.02935513821
0.02916722642
0.02869630406
0.0285985795
0.0282418684
0.02817908889
0.02787921578
0.0277982038
0.0274987192
0.02734389622
0.02698484199
0.026693566
0.02620700961
0.05871594799
0.05388238771
0.0509772939
0.04770110049
0.04584794514
0.04355817488
0.0423750319
0.04075021275
0.04001266107
0.03885268862
0.03841534662
0.03758426021
0.03734363475
0.03674068045
0.0366155139
0.03615878941
0.03607835574
0.03569441696
0.0355906469
0.03520724131
0.03500893908
0.03454927639
0.03417628511
0.03355333378
0.07138522666
0.06550875108
0.06197683268
0.05799373032
0.05574075451
0.05295691348
0.05151852464
0.04954311861
0.04864646429
0.04723621553
0.04670453537
0.04569414817
0.04540162033
0.04466859571
0.04451642913
0.04396118224
0.04386339098
0.04339663841
0.04327047531
0.04280438967
0.04256326452
0.04200446733
0.0415509608
0.04079359768
0.08383227536
0.07693111395
0.07278331169
0.0681056458
0.06545981399
0.06219051956
0.0605013161
0.05818142704
0.05712841619
0.05547223731
0.05484782986
0.05366124478
0.0533176819
0.05245682877
0.05227809408
0.05162601726
0.05151113365
0.05096299098
0.05081479378
0.05026745915
0.04998423748
0.04932803624
0.04879541513
0.04790600024
0.09601318289
0.08810930936
0.08335884582
0.07800152118
0.07497128257
0.07122696288
0.06929235419
0.06663539287
0.06542941343
0.06353260609
0.06281749717
0.0614585234
0.06106505824
0.06007914958
0.05987445463
0.05912765454
0.0589960813
0.05836831925
0.05819859163
0.05757176703
0.0572473723
0.05649586037
0.0558858272
0.05486718216
0.1078943672
0.09901239123
0.09367404136
0.08765372715
0.08424849152
0.08004078601
0.07786676452
0.07488097944
0.07352575139
0.07139419344
0.07059057258
0.06906341088
0.06862123078
0.06751330476
0.06728324935
0.0664440208
0.06629613162
0.06559067878
0.06539991769
0.06469553761
0.06433095777
0.0634864705
0.06280091738
0.06165622402
0.1194337092
0.109601834
0.1036925657
0.09702839085
0.09325899696
0.08860128617
0.08619478675
0.08288968343
0.08138954502
0.07903003295
0.07814048845
0.07645001837
0.07596056436
0.07473417035
0.07447952149
0.07355055992
0.07338685944
0.07260598271
0.0723948249
0.07161514466
0.0712115598
0.07027678476
0.06951789682
0.06825078044
0.1305996317
0.1198485353
0.11338677
0.1060995159
0.101977699
0.09688449645
0.09425299622
0.09063886297
0.08899846023
0.08641832873
0.08544560018
0.08359706692
0.08306183004
0.08172076429
0.08144228092
0.08042645496
0.08024741967
0.07939352886
0.07916260248
0.07831003571
0.07786868226
0.07684652943
0.07601666549
0.07463108904
0.1413522768
0.1297160431
0.1227222836
0.114835065
0.1103739186
0.1048613908
0.1020132641
0.0981015829
0.09632615089
0.09353360693
0.09248081378
0.09048010665
0.08990081937
0.08844936318
0.08814796302
0.08704852256
0.08685475336
0.08593058214
0.08568064916
0.08475791835
0.08428021811
0.0831739356
0.08227573614
0.08077608343
0.1516625349
0.1391775191
0.1316735985
0.1232110455
0.1184244811
0.1125098312
0.1094539446
0.1052569128
0.1033519641
0.1003557058
0.09922610185
0.09707944364
0.09645788065
0.09490054018
0.09457713075
0.09339748258
0.09318955249
0.09219796269
0.09192977501
0.09093974392
0.0904271673
0.08924020372
0.08827646528
0.08666743022
0.1614932501
0.1481989897
0.1402086896
0.1311976143
0.1261008173
0.1198027961
0.1165488594
0.1120797925
0.1100513945
0.1068609371
0.1056581352
0.1033723518
0.1027105165
0.1010522517
0.1007078908
0.09945179797
0.09923039677
0.09817455314
0.09788898765
0.09683480999
0.0962890011
0.09502512303
0.09399890693
0.092285577
0.170818201
0.1567562704
0.1483045597
0.1387731285
0.1333820102
0.1267202926
0.1232784489
0.1185512984
0.1164057594
0.1130310537
0.1117587797
0.1093409921
0.1086409193
0.1068868889
0.1065226203
0.1051939852
0.104959775
0.1038429566
0.1035408804
0.1024258358
0.1018484823
0.1005116352
0.09942614214
0.09761388307
0.1796033399
0.1648182387
0.1559318818
0.14591027
0.140241918
0.1332376053
0.129618779
0.1246485283
0.1223926727
0.1188444245
0.1175067401
0.1149646263
0.1142285663
0.1123843473
0.1120013565
0.1106044081
0.1103581595
0.1091839217
0.108866315
0.1076939474
0.1070868937
0.1056813139
0.1045399863
0.1026345252
0.1878257349
0.1723637254
0.1630705096
0.1525900627
0.1466621864
0.1393371757
0.1355526579
0.1303548352
0.127995687
0.1242849728
0.1228860282
0.1202275162
0.1194577373
0.117529075
0.1171285279
0.1156676142
0.1154100692
0.1141820669
0.1138499007
0.1126238652
0.1119889953
0.1105190764
0.1093254796
0.1073327867
0.1954548069
0.1793647951
0.1696941322
0.1587880121
0.1526193882
0.1449968678
0.1410586612
0.1356497307
0.1331947868
0.1293333696
0.1278776253
0.1251111502
0.1243101224
0.1223031421
0.1218863382
0.1203661025
0.1200981038
0.1188202393
0.1184745864
0.1171987725
0.1165381089
0.1150085035
0.1137664176
0.1116927878
0.202471257
0.1858036118
0.1757857575
0.1644880922
0.1580980041
0.1502018161
0.1461222164
0.1405190868
0.1379759969
0.1339759386
0.1324679157
0.1296021116
0.1287723069
0.1266932665
0.1262614778
0.1246866572
0.1244090157
0.1230852722
0.1227271929
0.1214055842
0.1207211812
0.1191366755
0.1178499847
0.1157019174
0.2088483049
0.1916557258
0.1813223724
0.1696688953
0.1630775741
0.1549327042
0.1507246427
0.1449450536
0.142321894
0.1381958678
0.1366403708
0.133684325
0.132828403
0.130683901
0.130238526
0.1286141216
0.1283277438
0.1269623234
0.1265929719
0.1252297569
0.1245237924
0.1228893979
0.1215621743
0.119346453
0.2145705919
0.1969069149
0.1862904022
0.1743175925
0.1675456512
0.1591775848
0.1548542062
0.1489162321
0.1462211814
0.1419820816
0.1403839447
0.1373468875
0.1364674921
0.1342642186
0.1338066181
0.1321376947
0.1318434479
0.1304406096
0.1300611197
0.1286605573
0.1279352276
0.1262560607
0.1248924563
0.1226160278
0.2196154067
0.2015364668
0.1906703708
0.1784160866
0.1714849581
0.1629201656
0.1584951685
0.1524176029
0.1496592156
0.1453204681
0.1436847799
0.1405763378
0.1396762856
0.1374212306
0.1369528857
0.1352447409
0.1349435857
0.1335077811
0.1331193763
0.1316859042
0.1309435174
0.1292248879
0.1278292178
0.125499269
0.2239715818
0.2055340043
0.1944523414
0.1819549519
0.1748863184
0.1661516063
0.1616388178
0.1554406724
0.1526275524
0.1482027203
0.1465345668
0.143364449
0.1424465219
0.1401467226
0.139669065
0.1379270261
0.1376198743
0.1361555824
0.135759454
0.1342975505
0.1335404151
0.1317877033
0.1303643332
0.1279881706
0.2276207089
0.2088827619
0.1976205713
0.1849195851
0.1777358127
0.1688588054
0.1642725201
0.1579734072
0.1551144809
0.1506175746
0.1489222652
0.1457005175
0.1447676539
0.1424304047
0.1419449797
0.1401745758
0.1398624303
0.138374298
0.1379717244
0.1364860224
0.1357165494
0.133935298
0.1324887328
0.130073857
0.2305560069
0.2115763901
0.2001689346
0.1873041265
0.1800276924
0.1710361784
0.1663907308
0.160010359
0.1571145466
0.1525596266
0.1508424347
0.1475791223
0.146634207
0.1442668031
0.1437750953
0.141981848
0.1416656539
0.1401583227
0.1397505375
0.1382456771
0.1374662575
0.1356620419
0.1341968058
0.1317507907
0.232763538
0.2136022264
0.2020855708
0.1890976056
0.1817515301
0.1726739419
0.167984044
0.1615425992
0.1586190871
0.1540205734
0.1522869626
0.1489924249
0.1480384815
0.1456484304
0.1451520299
0.1433416306
0.1430224205
0.1415006744
0.1410889945
0.139569746
0.1387828632
0.1369613901
0.1354821212
0.1330126869
0.2342410612
0.2149580847
0.2033682919
0.1902978472
0.1829051178
0.173769875
0.1690501873
0.1625678258
0.1596257374
0.1549980101
0.1532533745
0.1499379053
0.148977885
0.1465726477
0.1460730735
0.1442511688
0.1439299092
0.1423984941
0.1419841806
0.1404552878
0.139663386
0.1378303558
0.1363416799
0.1338565721
0.2349792235
0.2156355115
0.2040092199
0.1908976075
0.1834816104
0.1743175978
0.1695830659
0.1630802946
0.1601289619
0.1554866701
0.1537365596
0.1504106626
0.1494476362
0.1470348397
0.1465337065
0.1447060785
0.1443838181
0.142847595
0.142431986
0.1408982961
0.1401038989
0.1382651098
0.1367717398
0.1342788015
0.2349804048
0.2156365622
0.2040101798
0.1908984663
0.1834824092
0.1743183183
0.1695837432
0.1630809112
0.1601295452
0.1554872068
0.1537370674
0.1504111352
0.1494480828
0.1470352592
0.1465341013
0.1447064506
0.1443841657
0.1428479251
0.1424322939
0.1408985954
0.1401041703
0.1382653768
0.1367719823
0.1342790333
0.2342398995
0.214957047
0.2033673273
0.1902969545
0.1829042969
0.1737691032
0.1690494773
0.162567156
0.1596251179
0.154997428
0.1532528269
0.149937396
0.1489773977
0.146572198
0.1460726347
0.1442507615
0.1439295038
0.1423981221
0.1419838107
0.1404549662
0.1396630447
0.1378300632
0.136341372
0.13385628
0.2327647389
0.2136032901
0.2020865262
0.1890984309
0.181752307
0.1726746112
0.1679846887
0.1615431628
0.1586196344
0.1540210648
0.1522874307
0.1489928608
0.1480388873
0.1456488199
0.1451523809
0.1433419677
0.1430227108
0.1415009636
0.1410892418
0.1395700246
0.138783067
0.1369616339
0.1354823013
0.1330128612
0.2305548647
0.2115753652
0.2001679655
0.1873032003
0.1800268496
0.1710353557
0.1663899884
0.1600096365
0.1571138913
0.1525589995
0.1508418476
0.1475785766
0.1466336794
0.1442663235
0.1437746128
0.1419814055
0.1416651908
0.1401579085
0.1397501051
0.1382453316
0.1374658448
0.1356617216
0.1341964302
0.131750436
0.2276219291
0.2088838384
0.1976215222
0.1849203773
0.177736568
0.1688594244
0.1642731328
0.1579739187
0.1551149929
0.1506180216
0.1489226942
0.1457009177
0.14476802
0.1424307652
0.1419452881
0.1401748793
0.1398626655
0.1383745485
0.1379719141
0.1364862831
0.1357166896
0.1339355225
0.1324888553
0.1300739786
0.2239704586
0.2055329919
0.1944513677
0.181953993
0.1748854541
0.1661507338
0.1616380437
0.1554398983
0.1526268621
0.1482020492
0.146533941
0.1433638677
0.1424459545
0.1401462136
0.1396685393
0.1379265485
0.1376193537
0.1361551255
0.1357589586
0.1342971793
0.1335399296
0.1317873522
0.1303638877
0.1279877509
0.219616646
0.201537556
0.1906713175
0.1784168468
0.1714856925
0.162920736
0.1584957504
0.1524180642
0.1496596935
0.1453208724
0.1436851715
0.1405767039
0.1396766138
0.1374215639
0.1369531539
0.1352450136
0.1349437691
0.1335079963
0.1331195128
0.1316861507
0.1309435996
0.1292250975
0.1278292885
0.1254993435
0.2145694869
0.1969059146
0.186289424
0.1743166019
0.1675447661
0.1591766642
0.1548534013
0.1489154082
0.1462204569
0.1419813679
0.140383281
0.1373462714
0.1364668857
0.1342636806
0.1338060497
0.1321371822
0.1318428703
0.1304401099
0.1300605614
0.1286601591
0.1279346692
0.1262556773
0.1248919404
0.1226155424
0.2088495626
0.1916568274
0.1813233153
0.1696696253
0.1630782888
0.1549332283
0.1507251952
0.1449454671
0.1423223396
0.1381962319
0.1366407272
0.1336846594
0.1328286958
0.1306842095
0.1302387571
0.128614366
0.1283278792
0.1269625062
0.126593059
0.125229991
0.1245238203
0.1228895942
0.1215621964
0.1193464832
0.202470169
0.1858026227
0.1757847749
0.1644870713
0.158097099
0.1502008496
0.1461213819
0.1405182152
0.1379752396
0.133975184
0.1324672156
0.1296014621
0.1287716627
0.1266927004
0.1262608681
0.1246861112
0.1244083835
0.1230847316
0.1227265749
0.1214051607
0.1207205544
0.1191362624
0.1178494031
0.1157013709
0.1954560825
0.1793659088
0.169695072
0.1587887139
0.1526200848
0.1449973488
0.1410591864
0.1356500998
0.1331952025
0.1293336963
0.127877949
0.1251114554
0.1243103824
0.1223034278
0.1218865346
0.1203663204
0.1200981937
0.1188203907
0.1184746253
0.1171989926
0.1165380823
0.1150086833
0.113766389
0.1116927715
0.1878246627
0.1723627467
0.1630695225
0.1525890133
0.1466612623
0.1393361661
0.1355517954
0.1303539189
0.1279948985
0.1242841799
0.1228852936
0.1202268354
0.1194570576
0.1175284828
0.1171278796
0.1156670376
0.1154093869
0.1141814902
0.1138492297
0.112623422
0.1119883094
0.1105186412
0.1093248431
0.1073321895
0.1796046326
0.1648193642
0.1559328192
0.1459109462
0.1402425982
0.1332380467
0.1296192794
0.1246488565
0.122393061
0.1188447171
0.1175070337
0.1149649046
0.1142287959
0.1123846118
0.11200152
0.1106046003
0.110358205
0.109184041
0.108866305
0.1076941489
0.1070868097
0.1056814705
0.1045399019
0.102634457
0.170817143
0.1567553008
0.1483035683
0.1387720526
0.1333810683
0.126719243
0.1232775604
0.1185503407
0.116404942
0.1130302254
0.1117580132
0.1093402827
0.1086402071
0.1068862736
0.1065219377
0.1051933823
0.1049590494
0.1038423503
0.1035401652
0.1024253802
0.101847749
0.1005111874
0.0994254638
0.09761324778
0.1614945589
0.1482001265
0.1402096254
0.1311982679
0.1261014831
0.1198032022
0.1165493376
0.1120800842
0.1100517581
0.106861199
0.1056584016
0.1033726057
0.102710718
0.1010524961
0.1007080231
0.099451965
0.09923039922
0.09817463983
0.09788892854
0.09683498956
0.09628885854
0.09502525205
0.09399876459
0.09228545445
0.1516614893
0.1391765576
0.1316726029
0.1232099455
0.118423523
0.1125087455
0.1094530323
0.1052559178
0.1033511205
0.1003548456
0.09922530666
0.09707870876
0.09645713963
0.09489990495
0.09457641853
0.09339685801
0.09318879031
0.0921973328
0.09192902399
0.09093928128
0.0904263962
0.0892397496
0.08827575439
0.08666676568
0.1413536007
0.1297171906
0.1227232186
0.1148356991
0.1103745723
0.104861766
0.1020137232
0.0981018426
0.09632649296
0.09353384166
0.09248105584
0.09048033866
0.0899009954
0.08844958901
0.08814806651
0.08704866584
0.08685471588
0.08593063807
0.08568054443
0.08475807656
0.08428002171
0.08317403871
0.08227554112
0.08077591166
0.1305985967
0.1198475806
0.1133857705
0.1060983947
0.1019767263
0.09688337888
0.09425206286
0.09063783511
0.08899759358
0.08641744074
0.08544478006
0.08359631017
0.08306106449
0.08172011237
0.08144154393
0.0804258124
0.08024662692
0.07939287935
0.07916182124
0.07830956746
0.07786787825
0.07684606929
0.07601592505
0.0746303977
0.119435047
0.1096029914
0.1036935007
0.09702900891
0.09325964079
0.08860163561
0.08619522993
0.08288991608
0.08138986877
0.07903024449
0.07814070945
0.07645023121
0.07596071791
0.07473437951
0.07447959943
0.07355068207
0.07338678712
0.07260601214
0.07239468146
0.0716152859
0.07121131935
0.07027686872
0.06951766043
0.0682505704
0.1078933411
0.09901144224
0.09367303841
0.08765258786
0.08424750628
0.08003964136
0.07786581314
0.0748799237
0.07352486519
0.07139328203
0.07058973171
0.06906263599
0.06862044522
0.06751263926
0.06728249238
0.06644336342
0.06629531369
0.06559001237
0.06539911035
0.0646950629
0.06433012339
0.06348600178
0.06280014746
0.06165550542
0.09601453285
0.08811047583
0.08335978162
0.07800212678
0.07497191899
0.07122729174
0.06929278481
0.0666356038
0.06542972245
0.06353279876
0.06281770078
0.06145872021
0.06106519277
0.06007934439
0.05987451086
0.05912775874
0.05899598002
0.05836832706
0.05819841715
0.05757189591
0.05724709796
0.05649593156
0.0558855603
0.05486694415
0.08383125658
0.07693016977
0.07278230606
0.06810449205
0.0654588186
0.06218935306
0.06050035006
0.05818034874
0.05712751423
0.05547130704
0.05484697266
0.05366045556
0.05331688113
0.05245615282
0.05227732226
0.05162534837
0.05151029643
0.05096231086
0.0508139654
0.0502669782
0.04998337716
0.04932755856
0.04879461888
0.04790525704
0.07138658684
0.0655099253
0.06197776979
0.05799432704
0.05574138593
0.05295722722
0.05151894628
0.04954331348
0.04864676256
0.04723639416
0.04670472588
0.04569433275
0.04540174009
0.04466877921
0.04451646825
0.04396127222
0.04386326702
0.04339662941
0.04327027687
0.04280450929
0.04256296425
0.04200452888
0.04155067034
0.04079333795
0.05871493528
0.05388144773
0.0509762867
0.04769993636
0.0458469423
0.04355699216
0.04237405483
0.04074911745
0.04001174726
0.03885174404
0.03841447744
0.03758346017
0.03734282335
0.03673999683
0.03661473214
0.03615811219
0.03607750534
0.03569372688
0.03558980367
0.03520675597
0.03500805992
0.03454879252
0.03417546992
0.03355257298
0.04586092057
0.04208555527
0.0398163567
0.0372572198
0.03580987707
0.03402119912
0.0330972312
0.03182799117
0.03125204511
0.03034596792
0.03000441528
0.02935531555
0.02916733718
0.0286964809
0.02859860801
0.02824194982
0.0281789506
0.02787919657
0.02779799017
0.02749883367
0.0273435788
0.02698489723
0.0266932588
0.02620673423
0.03286023227
0.03015512795
0.02852920428
0.02669552031
0.02565850858
0.02437687203
0.02371487677
0.02280543818
0.02239280533
0.02174359387
0.02149889414
0.0210338271
0.02089915433
0.02056181023
0.02049168703
0.02023616309
0.02019101525
0.01997627026
0.01991807645
0.01970378591
0.0195924941
0.01933555431
0.01912654449
0.01877794623
0.01975853116
0.01813194007
0.01715423481
0.01605158638
0.01542804303
0.01465733955
0.01425930385
0.01371241799
0.01346431945
0.01307392766
0.01292678571
0.01264714177
0.01256614155
0.01236331073
0.01232110678
0.01216747122
0.01214027036
0.01201116924
0.01197613023
0.01184734668
0.01178033438
0.01162591709
0.01150016629
0.01129056796
0.006592284322
0.006049582737
0.005723344208
0.005355387371
0.005147399386
0.004890194576
0.004757466484
0.004574963859
0.004492257352
0.004362001829
0.004312945929
0.004219677199
0.004192661732
0.004125041805
0.004110941487
0.00405972649
0.004050604889
0.004007593929
0.003995861025
0.003953023012
0.003930535364
0.003879154956
0.003837087309
0.003767171987
-0.006592326635
-0.006049689365
-0.005723606325
-0.005355899718
-0.005147802525
-0.004890839137
-0.0047579374
-0.004575591495
-0.004492722845
-0.004362519947
-0.004313401096
-0.004220073009
-0.004193076683
-0.004125331918
-0.004111336335
-0.004060017745
-0.004051078253
-0.004007903371
-0.003996334319
-0.003953125751
-0.003931052629
-0.003879264044
-0.003837545651
-0.003767581868
-0.0197585733
-0.01813204619
-0.01715449612
-0.01605209718
-0.01542844546
-0.01465798291
-0.01425977475
-0.01371304566
-0.01346478613
-0.01307444764
-0.01292724353
-0.01264754149
-0.01256656102
-0.01236360696
-0.01232150845
-0.01216777077
-0.01214075288
-0.01201148881
-0.01197661419
-0.01184746051
-0.01178086105
-0.01162603559
-0.01150063123
-0.01129098402
-0.03286027688
-0.03015523534
-0.02852946471
-0.02669602671
-0.02565890624
-0.02437750674
-0.02371533931
-0.02280605427
-0.02239326101
-0.02174410077
-0.02149933933
-0.02103421331
-0.02089956051
-0.02056209285
-0.02049207437
-0.02023644781
-0.02019148094
-0.01997657375
-0.01991854247
-0.01970388573
-0.01959300478
-0.01933566187
-0.0191269987
-0.01877835252
-0.04586096417
-0.04208566069
-0.03981661423
-0.03725772107
-0.03581027208
-0.03402182963
-0.0330976931
-0.03182860665
-0.03125250365
-0.03034647949
-0.03000486747
-0.02935571221
-0.02916775547
-0.02869677994
-0.02859901345
-0.02824225642
-0.02817944002
-0.02787952632
-0.0277984833
-0.02749896209
-0.02734411271
-0.0269850287
-0.02669372906
-0.02620715554
-0.05871498509
-0.05388155683
-0.05097654369
-0.04770043004