/*--------------------------------*- C++ -*----------------------------------*\
| =========                 |                                                 |
| \\      /  F ield         | foam-extend: Open Source CFD                    |
|  \\    /   O peration     | Version:  3.0                                   |
|   \\  /    A nd           | Web:         http://www.extend-project.de       |
|    \\/     M anipulation  |                                                 |
\*---------------------------------------------------------------------------*/
FoamFile
{
    version     2.0;
    format      ascii;
    class       volVectorField;
    location    "57";
    object      u;
}
// * * * * * * * * * * * * * * * * * * * * * * * * * * * * * * * * * * * * * //

dimensions      [0 0 0 0 0 0 0];

internalField   nonuniform List<vector> 
7680
(
(0.132192 -0.0396928 4.68332e-17)
(0.144728 -0.035022 5.85809e-17)
(0.347089 -0.0334955 -5.73876e-17)
(0.339673 -0.0295429 4.95542e-17)
(0.500183 -0.0290391 -3.63236e-17)
(0.483679 -0.0259419 3.06704e-17)
(0.613068 -0.0259485 -1.91666e-17)
(0.592173 -0.0235697 -4.26396e-18)
(0.698649 -0.0237966 -2.70917e-17)
(0.675326 -0.0220286 -9.26377e-18)
(0.764953 -0.0223394 -3.28675e-17)
(0.740032 -0.0210721 3.82062e-17)
(0.817196 -0.0214123 -4.92511e-17)
(0.791046 -0.0205481 4.39822e-17)
(0.858909 -0.0208968 -2.43304e-17)
(0.831693 -0.0203589 5.64969e-17)
(0.892565 -0.0207064 -4.52894e-17)
(0.864334 -0.020436 7.62054e-17)
(0.919943 -0.020776 -5.47816e-17)
(0.890675 -0.0207261 6.76588e-17)
(0.942346 -0.0210537 -6.27813e-17)
(0.911964 -0.0211843 6.91063e-17)
(0.960746 -0.0214975 -5.66499e-17)
(0.929135 -0.0217751 7.562e-17)
(0.975877 -0.0220781 -5.45498e-17)
(0.942888 -0.0224748 5.58166e-17)
(0.988299 -0.0227871 -2.92814e-17)
(0.953751 -0.0232615 3.90784e-17)
(0.99843 -0.0236638 -2.72972e-17)
(0.962146 -0.0240663 2.21438e-17)
(1.00653 -0.0248726 -1.53277e-17)
(0.968489 -0.0246493 1.4494e-17)
(1.01261 -0.0268032 -7.06231e-18)
(0.973367 -0.024556 5.17395e-18)
(1.01633 -0.0297294 1.53018e-17)
(0.977587 -0.0238487 -9.87163e-18)
(1.01737 -0.0327416 3.07678e-17)
(0.981497 -0.0234215 -2.41299e-17)
(1.01672 -0.0313916 3.18663e-17)
(0.984125 -0.0495027 -2.05114e-17)
(0.136711 -0.104842 -4.18431e-17)
(0.148594 -0.090774 -7.27376e-17)
(0.350841 -0.0851593 7.51971e-17)
(0.342843 -0.0730084 -5.31324e-17)
(0.503389 -0.0705553 1.4085e-17)
(0.486391 -0.0605668 -1.76478e-18)
(0.615869 -0.0595983 2.26952e-17)
(0.594564 -0.0516621 3.46825e-17)
(0.701146 -0.0513109 5.0832e-17)
(0.677484 -0.0451433 5.29271e-17)
(0.767219 -0.0450213 2.43058e-17)
(0.742014 -0.0402834 -9.85674e-18)
(0.819278 -0.040241 2.66063e-17)
(0.792886 -0.0366295 -1.89788e-17)
(0.860837 -0.0366109 -2.35917e-17)
(0.833413 -0.033891 -5.45003e-17)
(0.894356 -0.0338664 5.17485e-17)
(0.865949 -0.0318665 -1.13622e-16)
(0.921607 -0.0318097 8.9548e-17)
(0.892194 -0.0304045 -1.07149e-16)
(0.943887 -0.0302888 7.46558e-17)
(0.913394 -0.029386 -8.99915e-17)
(0.962159 -0.029186 5.50034e-17)
(0.930474 -0.0287204 -1.00258e-16)
(0.977147 -0.0284137 4.19069e-17)
(0.944129 -0.0283416 -5.48637e-17)
(0.989398 -0.0279146 -6.79563e-18)
(0.954889 -0.0281793 -2.5965e-17)
(0.999327 -0.027685 -1.81946e-17)
(0.963189 -0.0280634 5.85187e-18)
(1.00721 -0.027895 -1.73797e-17)
(0.969466 -0.027512 1.17746e-17)
(1.01313 -0.0291593 -1.05171e-17)
(0.974255 -0.0255928 -2.95175e-18)
(1.01701 -0.032439 -1.44673e-17)
(0.978053 -0.02189 -8.34561e-18)
(1.01905 -0.0374673 8.07211e-18)
(0.980667 -0.0182948 -3.44856e-18)
(1.02023 -0.0380714 -1.26387e-17)
(0.982204 -0.0447966 2.49708e-17)
(0.145439 -0.169619 2.76081e-17)
(0.156117 -0.145933 5.99769e-17)
(0.357705 -0.136289 -1.39982e-16)
(0.348673 -0.115801 1.14805e-16)
(0.508837 -0.111477 -5.59763e-17)
(0.491011 -0.0946763 4.13544e-18)
(0.620251 -0.0927932 -8.43059e-17)
(0.598305 -0.0794285 -3.24128e-18)
(0.704711 -0.0785361 -1.11395e-16)
(0.680566 -0.0681127 -6.3389e-17)
(0.770152 -0.0675699 -4.98279e-17)
(0.744591 -0.0595211 1.36111e-17)
(0.821723 -0.0590744 -2.26219e-17)
(0.795076 -0.052897 1.1858e-17)
(0.862908 -0.0524434 6.37017e-17)
(0.835306 -0.0477471 7.69116e-17)
(0.896145 -0.0472308 -5.36851e-17)
(0.867617 -0.0437293 1.5389e-16)
(0.923187 -0.0431078 -1.36963e-16)
(0.893691 -0.0405908 1.35857e-16)
(0.945315 -0.0398274 -9.27592e-17)
(0.914763 -0.0381362 1.4124e-16)
(0.963486 -0.0372003 -9.87541e-17)
(0.93175 -0.0362149 1.61428e-16)
(0.978417 -0.035084 -5.97802e-17)
(0.945345 -0.0347138 1.16238e-16)
(0.990658 -0.0333891 -1.82641e-17)
(0.95607 -0.0335335 6.81118e-17)
(1.00062 -0.0321228 1.14273e-17)
(0.964345 -0.0324983 1.20347e-17)
(1.00857 -0.0315167 4.94018e-18)
(0.970572 -0.0311768 1.63846e-17)
(1.01456 -0.0321363 7.66962e-18)
(0.975266 -0.0289325 4.86513e-18)
(1.0184 -0.0342365 1.59563e-17)
(0.97902 -0.0261788 -1.32387e-17)
(1.02004 -0.0360413 2.48141e-17)
(0.981759 -0.0251141 -2.2995e-17)
(1.02056 -0.0318295 3.45887e-17)
(0.984008 -0.0524233 -2.71142e-17)
(0.158435 -0.233628 1.94815e-17)
(0.167202 -0.200666 -9.74889e-17)
(0.368146 -0.186994 3.08157e-16)
(0.35746 -0.158446 -2.425e-16)
(0.517402 -0.152202 1.20217e-16)
(0.498185 -0.128636 1.52125e-17)
(0.627379 -0.125789 1.16408e-16)
(0.604301 -0.106969 1.70007e-17)
(0.710729 -0.105502 6.99907e-17)
(0.685675 -0.0907613 4.93632e-17)
(0.775303 -0.0897882 1.13327e-16)
(0.749013 -0.0783377 -5.36503e-17)
(0.826186 -0.0775108 2.86236e-17)
(0.798949 -0.0686462 -2.15798e-17)
(0.866812 -0.0678262 -7.44097e-17)
(0.838733 -0.061002 -3.73849e-17)
(0.899587 -0.0601113 1.47785e-17)
(0.870675 -0.0549305 -1.65903e-16)
(0.926237 -0.0539054 1.77083e-16)
(0.89644 -0.050082 -1.72999e-16)
(0.94803 -0.0488634 1.00756e-16)
(0.917251 -0.0461902 -1.56486e-16)
(0.965907 -0.0447236 8.39559e-17)
(0.934014 -0.0430531 -1.10836e-16)
(0.980576 -0.0412876 -2.30231e-17)
(0.947409 -0.0405166 -6.49882e-17)
(0.992581 -0.038414 -5.8373e-17)
(0.957952 -0.0384273 -8.62033e-18)
(1.00234 -0.0360559 -8.45571e-17)
(0.966032 -0.0364941 3.91986e-17)
(1.01014 -0.0344346 -4.16488e-17)
(0.971973 -0.0340191 1.01376e-17)
(1.01617 -0.0343412 -7.95063e-17)
(0.976118 -0.0298469 1.18142e-16)
(1.02045 -0.036766 -1.03588e-16)
(0.978868 -0.0239076 4.54232e-17)
(1.02305 -0.0405776 1.29448e-17)
(0.980324 -0.0197387 -3.60578e-17)
(1.02447 -0.0380042 2.16096e-17)
(0.982699 -0.0485879 -5.62835e-17)
(0.175533 -0.296724 -7.17465e-17)
(0.18188 -0.25443 -1.28929e-18)
(0.381646 -0.236846 -4.81472e-16)
(0.368857 -0.200175 3.42076e-16)
(0.52818 -0.192112 -1.56975e-16)
(0.507254 -0.1619 -6.6843e-17)
(0.636096 -0.158166 -1.84773e-16)
(0.611673 -0.134049 3.50746e-17)
(0.717861 -0.132058 -5.77533e-17)
(0.691771 -0.113164 -2.13425e-17)
(0.781204 -0.111782 -1.34273e-16)
(0.754126 -0.0970965 3.73164e-17)
(0.831125 -0.0958754 3.75077e-17)
(0.803294 -0.0845 -1.47468e-17)
(0.870993 -0.0832566 1.19224e-16)
(0.842469 -0.0744941 -5.96689e-17)
(0.903164 -0.0731266 7.09998e-17)
(0.873921 -0.0664688 4.46068e-17)
(0.929329 -0.064898 -5.74172e-17)
(0.899288 -0.0599762 7.32185e-17)
(0.950726 -0.0581326 -5.36045e-18)
(0.919768 -0.054675 1.65659e-16)
(0.968277 -0.0524977 -8.68875e-17)
(0.936252 -0.0503045 8.95094e-17)
(0.982676 -0.0477413 4.9298e-17)
(0.949409 -0.0466671 8.76876e-17)
(0.994457 -0.0436898 1.98094e-17)
(0.959739 -0.0435891 3.17902e-17)
(1.00404 -0.0403006 1.18179e-16)
(0.967605 -0.0407967 -2.76164e-17)
(1.01179 -0.0378205 5.96665e-17)
(0.973259 -0.0376978 1.48683e-17)
(1.01803 -0.0368996 -1.32904e-17)
(0.976874 -0.0335248 2.07772e-17)
(1.02302 -0.037711 3.05868e-17)
(0.978642 -0.0290663 -3.91483e-17)
(1.02688 -0.037684 2.47915e-17)
(0.978663 -0.0278872 -4.14482e-17)
(1.0295 -0.0299787 5.30921e-17)
(0.980447 -0.0572774 4.6875e-17)
(0.196776 -0.358495 1.51762e-16)
(0.200006 -0.307215 1.68719e-16)
(0.398593 -0.285732 5.39155e-16)
(0.383106 -0.24128 -2.3834e-16)
(0.541948 -0.231359 1.40251e-16)
(0.518766 -0.194623 1.08314e-16)
(0.647429 -0.189954 2.38371e-16)
(0.62118 -0.160577 -8.03526e-17)
(0.727306 -0.158026 2.48948e-17)
(0.699761 -0.134971 -2.89729e-18)
(0.78917 -0.133169 2.82258e-16)
(0.760934 -0.115208 -1.4598e-16)
(0.837914 -0.113616 1.04316e-16)
(0.809159 -0.0996564 -1.51702e-16)
(0.876833 -0.0980526 -2.56572e-17)
(0.847571 -0.0872482 -1.12883e-16)
(0.908225 -0.0855087 1.53002e-16)
(0.878398 -0.0772443 -1.63624e-16)
(0.933743 -0.0752684 1.46574e-16)
(0.903249 -0.0691034 -9.41666e-17)
(0.954598 -0.0667997 2.19339e-17)
(0.9233 -0.0624167 -1.68702e-16)
(0.971693 -0.0597 3.48172e-17)
(0.939428 -0.0568743 2.08487e-17)
(0.985711 -0.0536613 -1.60426e-16)
(0.952287 -0.0522394 3.5336e-17)
(0.997182 -0.0484535 -1.20531e-16)
(0.962357 -0.0482946 2.31223e-17)
(1.00654 -0.0439638 -1.89557e-16)
(0.969947 -0.0446969 3.20284e-17)
(1.01418 -0.0403749 -1.85432e-16)
(0.975165 -0.0407181 9.46105e-17)
(1.02054 -0.0384207 -1.5711e-16)
(0.977951 -0.035288 1.2034e-16)
(1.02598 -0.0388433 -2.03811e-16)
(0.978463 -0.0286934 9.038e-17)
(1.03041 -0.0399862 1.63979e-18)
(0.977513 -0.0248339 -6.45321e-17)
(1.03286 -0.0341459 8.07457e-19)
(0.98046 -0.0536801 -1.02752e-16)
(0.221962 -0.418833 -1.84707e-16)
(0.221591 -0.358654 -3.24231e-16)
(0.418512 -0.33344 -4.44047e-16)
(0.399892 -0.281218 5.10554e-17)
(0.55789 -0.269562 -1.30802e-16)
(0.532145 -0.226462 4.2055e-17)
(0.66035 -0.220947 -2.79885e-16)
(0.63207 -0.186497 1.63554e-16)
(0.737899 -0.183447 2.99708e-18)
(0.708777 -0.156412 -7.83386e-17)
(0.797948 -0.154219 -2.50482e-16)
(0.768502 -0.133157 7.44257e-17)
(0.845265 -0.131187 3.95897e-18)
(0.815584 -0.114818 1.88328e-16)
(0.883046 -0.11281 4.36816e-17)
(0.85308 -0.100144 4.54398e-18)
(0.913519 -0.0979503 -3.72967e-17)
(0.88316 -0.0882661 -4.84456e-18)
(0.938282 -0.0857722 -6.48773e-17)
(0.907392 -0.0785511 -8.26434e-18)
(0.958506 -0.0756537 -2.33986e-17)
(0.926921 -0.0705195 7.35853e-17)
(0.975059 -0.0671251 2.78016e-17)
(0.942597 -0.0638082 -1.59939e-17)
(0.988602 -0.059827 8.37179e-17)
(0.955056 -0.0581456 -4.89357e-17)
(0.999645 -0.0534933 1.22842e-16)
(0.964764 -0.0533059 -4.89352e-17)
(1.00862 -0.0479877 2.39327e-16)
(0.972013 -0.0489861 -3.9405e-17)
(1.01599 -0.0434423 2.91661e-16)
(0.976858 -0.0445968 -7.17339e-17)
(1.02237 -0.040368 9.73085e-17)
(0.979068 -0.0394063 -2.0655e-17)
(1.02848 -0.0388356 1.40356e-16)
(0.978452 -0.03426 -8.45256e-17)
(1.03445 -0.0362622 9.75268e-17)
(0.975502 -0.0329471 -8.57063e-17)
(1.03878 -0.0258531 2.03916e-16)
(0.976823 -0.062516 -5.84598e-18)
(0.251086 -0.477309 3.29615e-16)
(0.246449 -0.4086 2.31912e-16)
(0.441672 -0.379683 5.07564e-16)
(0.419359 -0.320092 2.17162e-16)
(0.576624 -0.306672 8.44332e-17)
(0.547798 -0.257399 -2.48688e-16)
(0.675693 -0.250995 2.7432e-16)
(0.644926 -0.211568 -2.55641e-16)
(0.750609 -0.207985 6.35494e-17)
(0.719513 -0.177014 -2.4106e-17)
(0.808595 -0.17442 3.07832e-16)
(0.777585 -0.150261 -2.97413e-16)
(0.854272 -0.147936 1.4899e-16)
(0.823352 -0.129126 -3.68151e-16)
(0.890732 -0.12677 6.38455e-17)
(0.859783 -0.112177 -1.11325e-16)
(0.920125 -0.109622 1.3268e-16)
(0.888993 -0.0984245 -1.30459e-16)
(0.943995 -0.095533 1.3005e-16)
(0.912508 -0.0871442 1.63123e-17)
(0.963473 -0.0837928 -3.05415e-17)
(0.931443 -0.0777926 5.55012e-18)
(0.979404 -0.0738641 -7.55102e-17)
(0.946627 -0.0699591 1.06091e-16)
(0.992429 -0.0653319 -1.06274e-16)
(0.958678 -0.0633352 4.16607e-17)
(1.00305 -0.0578735 -1.4378e-16)
(0.968043 -0.0576669 1.38404e-16)
(1.01171 -0.0512752 -4.25562e-16)
(0.974965 -0.0526411 7.24293e-17)
(1.01886 -0.0455613 -3.05307e-16)
(0.979382 -0.0476929 1.04234e-16)
(1.02519 -0.0411638 -7.98168e-17)
(0.980871 -0.0420759 2.50902e-17)
(1.03146 -0.0384151 -1.3052e-16)
(0.979189 -0.0362416 9.34412e-17)
(1.03768 -0.0356816 -9.71421e-18)
(0.975384 -0.0331882 -5.55214e-17)
(1.04161 -0.026779 2.4248e-17)
(0.977704 -0.0598473 -2.90682e-16)
(0.283933 -0.533855 -3.72597e-16)
(0.274575 -0.456823 -2.97756e-16)
(0.467673 -0.424418 -5.00873e-16)
(0.441248 -0.357544 -6.33418e-16)
(0.59746 -0.342502 -1.76738e-16)
(0.56526 -0.287257 4.1936e-16)
(0.692599 -0.280063 -2.3456e-16)
(0.659152 -0.235875 3.12698e-16)
(0.764484 -0.231823 1.83848e-17)
(0.731298 -0.197117 -1.2266e-16)
(0.820103 -0.194155 -1.23177e-16)
(0.787479 -0.167085 2.10811e-16)
(0.863911 -0.164404 -4.81939e-17)
(0.831748 -0.143332 2.32408e-16)
(0.898874 -0.140596 1.91616e-16)
(0.866972 -0.124255 -1.451e-16)
(0.927049 -0.121275 1.86188e-16)
(0.895194 -0.108745 -1.3972e-16)
(0.94991 -0.10537 1.43483e-16)
(0.917885 -0.0959923 -8.94819e-17)
(0.968535 -0.0920863 1.01899e-17)
(0.936121 -0.0853901 1.68908e-17)
(0.983728 -0.0808253 -4.0508e-17)
(0.9507 -0.0764813 -3.18538e-17)
(0.996095 -0.0711241 3.28859e-17)
(0.96222 -0.0689304 5.35247e-17)
(1.00611 -0.0626199 -5.80932e-17)
(0.971113 -0.0624832 2.83784e-16)
(1.0142 -0.05505 3.73545e-17)
(0.977625 -0.0568779 1.97616e-16)
(1.02084 -0.0483218 1.03309e-16)
(0.981695 -0.0517041 -6.37339e-17)
(1.02679 -0.0425842 1.09569e-16)
(0.98282 -0.0464928 -1.11861e-16)
(1.03302 -0.0376937 1.31922e-16)
(0.980472 -0.0419127 -1.03572e-16)
(1.03983 -0.0317372 1.11635e-16)
(0.975189 -0.0405369 -2.06542e-16)
(1.04496 -0.0195186 3.66058e-16)
(0.975836 -0.0672894 -7.5875e-17)
(0.32044 -0.588035 6.70466e-16)
(0.305741 -0.503082 3.80113e-16)
(0.496654 -0.467237 6.19678e-16)
(0.465604 -0.393532 9.4225e-16)
(0.620848 -0.37685 3.77183e-16)
(0.584793 -0.315887 -4.00567e-16)
(0.711698 -0.307865 1.30032e-16)
(0.675144 -0.259068 -3.59375e-16)
(0.780253 -0.254519 -1.45916e-16)
(0.744606 -0.216168 3.39511e-16)
(0.833259 -0.212833 7.49206e-17)
(0.798693 -0.182894 -9.24454e-17)
(0.874991 -0.179881 1.36559e-16)
(0.841296 -0.156548 -3.05744e-16)
(0.908283 -0.153486 -4.93387e-17)
(0.875171 -0.13536 6.24745e-17)
(0.935093 -0.132038 -1.65609e-16)
(0.90229 -0.118107 3.73323e-17)
(0.956825 -0.114353 -1.16812e-16)
(0.92407 -0.103894 1.25259e-16)
(0.974506 -0.0995548 5.86634e-18)
(0.941548 -0.0920553 6.71345e-17)
(0.988903 -0.0869807 -5.00088e-18)
(0.955494 -0.0820873 1.26111e-16)
(1.0006 -0.076116 -2.22098e-16)
(0.966484 -0.0736207 2.66839e-16)
(1.01005 -0.0665459 -2.15955e-16)
(0.974932 -0.066385 1.88277e-17)
(1.01765 -0.0579367 -3.44518e-16)
(0.981066 -0.0601454 1.63822e-16)
(1.02384 -0.0500772 -2.98429e-16)
(0.984789 -0.0546097 2.64913e-16)
(1.02935 -0.0429479 -3.57316e-16)
(0.985544 -0.049467 3.87865e-16)
(1.03513 -0.0364219 -3.73913e-16)
(0.98275 -0.0451425 2.34549e-16)
(1.0415 -0.0293264 -1.64967e-16)
(0.976994 -0.0429841 4.14564e-17)
(1.04604 -0.0177805 -4.0357e-17)
(0.978024 -0.0661622 -3.5496e-16)
(0.360388 -0.639821 -1.06193e-15)
(0.339932 -0.547258 -6.57939e-16)
(0.52829 -0.508224 -5.85817e-16)
(0.492224 -0.427848 -1.10648e-15)
(0.646219 -0.409684 -4.64192e-16)
(0.606039 -0.343244 1.88487e-16)
(0.732298 -0.3345 -1.45416e-16)
(0.692461 -0.281336 4.61754e-16)
(0.797168 -0.276357 2.12228e-16)
(0.758957 -0.234579 -3.79128e-16)
(0.847296 -0.230905 -1.87323e-16)
(0.810743 -0.198297 -1.55664e-16)
(0.886752 -0.194956 -4.87715e-17)
(0.85152 -0.169549 3.12035e-17)
(0.918215 -0.166137 1.18242e-16)
(0.883921 -0.146409 -1.41407e-16)
(0.943533 -0.142697 2.57792e-16)
(0.90983 -0.127546 -1.26206e-16)
(0.964024 -0.12335 3.33065e-16)
(0.930601 -0.11199 -3.56065e-16)
(0.980653 -0.107142 9.81336e-17)
(0.947225 -0.0990154 -1.61499e-16)
(0.994137 -0.0933548 -3.0608e-19)
(0.960435 -0.0880799 -2.24462e-17)
(1.00502 -0.08143 -1.00982e-16)
(0.970784 -0.0787917 1.3209e-16)
(1.01372 -0.0709126 -2.03869e-16)
(0.978679 -0.0708787 3.7587e-16)
(1.02061 -0.061409 -1.19373e-16)
(0.98436 -0.0641531 7.77888e-18)
(1.02608 -0.0525692 8.77903e-17)
(0.987781 -0.0584627 -2.33271e-17)
(1.03081 -0.0440873 5.26802e-17)
(0.988426 -0.0537222 -4.67664e-17)
(1.03577 -0.0355003 8.96581e-17)
(0.985572 -0.0503839 -4.62437e-17)
(1.04151 -0.0257438 1.91747e-16)
(0.979252 -0.049131 -1.89004e-16)
(1.0461 -0.0120193 3.54799e-16)
(0.979258 -0.0714883 -1.49974e-17)
(0.403655 -0.688778 9.80948e-16)
(0.376872 -0.589043 6.78321e-16)
(0.562604 -0.546892 5.51778e-16)
(0.521057 -0.460341 9.91287e-16)
(0.673868 -0.44069 3.14283e-16)
(0.629125 -0.369085 2.9961e-16)
(0.754837 -0.359588 -8.34564e-18)
(0.711327 -0.302261 -1.76671e-16)
(0.815738 -0.296831 -3.25589e-16)
(0.77462 -0.25176 4.39799e-16)
(0.86275 -0.247746 5.9475e-17)
(0.823909 -0.212545 4.95731e-16)
(0.89973 -0.208901 4.12159e-18)
(0.862696 -0.18145 1.72645e-16)
(0.929199 -0.177739 4.97544e-17)
(0.893486 -0.156397 2.21479e-16)
(0.952886 -0.15237 -2.93892e-16)
(0.918074 -0.13595 2.00756e-16)
(0.972024 -0.131405 -3.00742e-16)
(0.937751 -0.119063 4.41806e-16)
(0.987517 -0.113817 -1.48289e-16)
(0.953458 -0.104954 1.55567e-16)
(1.00004 -0.0988291 -2.243e-18)
(0.965895 -0.0930407 2.05559e-16)
(1.01009 -0.0858383 -2.0261e-16)
(0.975586 -0.0829002 1.77413e-16)
(1.01806 -0.0743461 -1.57386e-16)
(0.982924 -0.0742512 -2.47744e-17)
(1.02427 -0.0639039 -1.66507e-16)
(0.988153 -0.0669401 1.70267e-16)
(1.02905 -0.0540626 -2.03303e-16)
(0.991272 -0.0609463 4.2427e-17)
(1.03295 -0.0443448 -7.45e-17)
(0.991859 -0.0563787 2.341e-16)
(1.0368 -0.0341981 -3.92347e-16)
(0.989223 -0.0535577 2.3365e-16)
(1.04124 -0.0230409 -2.32017e-16)
(0.983105 -0.0520737 1.02501e-16)
(1.04471 -0.00934658 -2.47718e-16)
(0.983371 -0.0714036 -2.26909e-16)
(0.450023 -0.734919 -4.70701e-16)
(0.416547 -0.628411 -4.56541e-16)
(0.599334 -0.583424 -5.55293e-16)
(0.551953 -0.490924 -6.98543e-16)
(0.703338 -0.469956 -5.22932e-16)
(0.653793 -0.393464 -4.92874e-16)
(0.778775 -0.383326 -3.51268e-17)
(0.731437 -0.3221 1.01073e-16)
(0.835401 -0.316287 -2.02977e-17)
(0.791289 -0.268157 -5.31615e-17)
(0.879072 -0.26384 -1.82153e-16)
(0.837906 -0.226257 -5.9801e-16)
(0.913407 -0.222318 -1.48663e-16)
(0.874571 -0.193017 -4.58961e-16)
(0.94075 -0.188991 -4.06354e-17)
(0.903648 -0.166222 -5.38294e-16)
(0.9627 -0.161845 4.31206e-16)
(0.92683 -0.14434 -5.24653e-16)
(0.980394 -0.139398 4.335e-16)
(0.945336 -0.126258 -6.6433e-16)
(0.994661 -0.120555 2.60255e-16)
(0.960053 -0.111143 -2.38271e-16)
(1.00612 -0.10449 6.08928e-18)
(0.97164 -0.0983763 -3.8706e-17)
(1.01522 -0.0905602 -5.39916e-17)
(0.980598 -0.0875141 2.83294e-16)
(1.02233 -0.0782301 -1.77819e-16)
(0.987307 -0.0782673 2.47504e-16)
(1.02771 -0.0669962 8.97032e-17)
(0.992035 -0.0705104 -5.55192e-17)
(1.03163 -0.0562919 1.91342e-16)
(0.994856 -0.0643167 -3.75098e-17)
(1.03447 -0.045417 5.65452e-17)
(0.995483 -0.0599457 -1.61541e-16)
(1.03693 -0.0335973 4.22068e-16)
(0.993243 -0.0576849 -3.88708e-16)
(1.03979 -0.0204434 4.02511e-16)
(0.987397 -0.0565251 -3.28884e-16)
(1.04221 -0.0053368 4.26465e-16)
(0.987519 -0.07463 1.46607e-17)
(0.499312 -0.777814 3.56124e-16)
(0.45863 -0.66501 4.18288e-16)
(0.638396 -0.617284 4.7289e-16)
(0.584774 -0.519373 5.98675e-16)
(0.734782 -0.497095 6.7159e-16)
(0.680044 -0.416079 4.98302e-16)
(0.804379 -0.405276 1.05885e-16)
(0.752863 -0.340405 2.49289e-16)
(0.856468 -0.334192 4.19518e-17)
(0.809052 -0.283178 9.58443e-17)
(0.896574 -0.27856 1.84002e-16)
(0.85281 -0.238704 6.00949e-16)
(0.928075 -0.234497 4.29374e-16)
(0.887196 -0.203401 6.10954e-16)
(0.953132 -0.199113 5.01546e-17)
(0.914425 -0.174923 7.18088e-16)
(0.973211 -0.170269 -5.45069e-16)
(0.936089 -0.151643 7.55402e-16)
(0.989349 -0.146395 -3.4332e-16)
(0.953331 -0.132381 5.62228e-16)
(1.0023 -0.126331 -1.84023e-16)
(0.966985 -0.116256 1.97662e-16)
(1.01263 -0.109202 -1.18231e-16)
(0.977667 -0.102612 8.07425e-17)
(1.02076 -0.0943277 2.24469e-17)
(0.985847 -0.0909801 -3.36423e-16)
(1.02699 -0.0811393 2.49695e-16)
(0.99189 -0.0810617 -3.47016e-16)
(1.03154 -0.0690981 5.39965e-17)
(0.996077 -0.072755 -2.29549e-16)
(1.03458 -0.057577 5.47706e-17)
(0.99857 -0.0662238 -2.32234e-16)
(1.03633 -0.0457657 1.12382e-16)
(0.999266 -0.0618633 2.12726e-17)
(1.03729 -0.0328083 -2.06396e-16)
(0.997633 -0.0598978 3.0865e-16)
(1.03823 -0.0185659 -2.92734e-16)
(0.992597 -0.0586347 2.20157e-16)
(1.03894 -0.00323574 -1.71221e-16)
(0.993391 -0.074684 -2.42499e-16)
(0.551308 -0.81752 -8.19219e-16)
(0.503115 -0.698892 -2.12965e-16)
(0.679593 -0.648728 -6.2889e-16)
(0.619421 -0.545694 -4.49767e-16)
(0.767849 -0.522285 -6.74861e-16)
(0.707711 -0.437056 -4.34573e-16)
(0.831244 -0.425703 -3.74957e-16)
(0.775421 -0.357469 -1.64451e-16)
(0.878539 -0.350926 -6.46149e-16)
(0.827751 -0.297273 2.26332e-16)
(0.914898 -0.292392 -4.73719e-16)
(0.868512 -0.250482 -3.85055e-16)
(0.943432 -0.246019 -8.30668e-16)
(0.900519 -0.213328 -6.10252e-16)
(0.966105 -0.208765 -2.19293e-16)
(0.925827 -0.183347 -4.65886e-16)
(0.984235 -0.178386 4.82135e-16)
(0.945915 -0.15883 -7.51373e-16)
(0.998752 -0.153233 5.43022e-16)
(0.961847 -0.138538 -6.99276e-16)
(1.01033 -0.132087 3.96903e-16)
(0.974395 -0.121548 -3.46202e-16)
(1.01948 -0.114031 2.4912e-16)
(0.98413 -0.10717 -1.26974e-16)
(1.02655 -0.0983479 1.22772e-16)
(0.991493 -0.0949133 1.0279e-16)
(1.03182 -0.0844395 6.40532e-17)
(0.996834 -0.0844668 3.86521e-17)
(1.03545 -0.0717261 2.57953e-16)
(1.00045 -0.0757297 -2.8896e-17)
(1.03753 -0.0595106 2.46624e-16)
(1.00258 -0.068895 -1.31372e-16)
(1.03811 -0.0468622 2.93279e-16)
(1.00329 -0.0644132 -2.45071e-16)
(1.03744 -0.0328151 2.90163e-16)
(1.0022 -0.0624762 -3.06279e-16)
(1.03632 -0.017338 2.29625e-16)
(0.997924 -0.0610978 -2.6237e-16)
(1.0352 -0.00109988 1.47233e-16)
(0.999411 -0.0761088 -7.36625e-17)
(0.605778 -0.853618 9.98788e-16)
(0.549621 -0.729682 2.38522e-16)
(0.722739 -0.677205 5.03497e-16)
(0.655671 -0.569615 6.45249e-16)
(0.802556 -0.545098 4.88113e-16)
(0.736684 -0.456063 6.70366e-16)
(0.859482 -0.444145 2.46757e-16)
(0.799049 -0.372843 3.75978e-16)
(0.901751 -0.36596 5.4497e-16)
(0.84732 -0.309879 -3.36695e-17)
(0.93416 -0.304743 2.7471e-16)
(0.884912 -0.260917 5.20803e-16)
(0.959551 -0.256227 7.90995e-16)
(0.91439 -0.222022 7.3701e-16)
(0.979687 -0.217236 2.58149e-16)
(0.937643 -0.190615 2.61427e-16)
(0.995736 -0.185422 -4.8887e-16)
(0.95604 -0.164912 6.4041e-16)
(1.00852 -0.15906 -5.03209e-16)
(0.97056 -0.143614 3.43584e-16)
(1.01863 -0.136877 -3.8449e-17)
(0.981914 -0.125756 5.37421e-17)
(1.02651 -0.117913 6.33462e-17)
(0.990627 -0.110619 -1.53398e-16)
(1.03247 -0.101424 1.18035e-16)
(0.997107 -0.0976892 -3.98476e-16)
(1.03674 -0.0867883 2.25327e-16)
(1.00168 -0.0866448 -4.13637e-16)
(1.03943 -0.073409 6.0252e-17)
(1.00467 -0.0773896 -2.74014e-16)
(1.04054 -0.0605729 9.3793e-17)
(1.00638 -0.0701461 -2.28135e-16)
(1.03997 -0.0473268 9.27163e-17)
(1.00709 -0.0654081 -3.75122e-16)
(1.03774 -0.032688 2.48622e-16)
(1.00661 -0.0633487 -1.06593e-16)
(1.03457 -0.0166859 -4.39618e-17)
(1.0034 -0.0617771 2.55928e-16)
(1.0314 -0.000230741 -1.69493e-16)
(1.00613 -0.0757341 2.5122e-16)
(0.662515 -0.886208 -1.05143e-15)
(0.598157 -0.757493 4.10108e-17)
(0.7677 -0.703018 -8.67769e-16)
(0.69348 -0.591217 -3.80776e-16)
(0.838652 -0.565775 -8.63134e-16)
(0.76688 -0.473271 -3.30819e-16)
(0.888814 -0.460903 -3.08346e-16)
(0.823669 -0.386832 -7.42808e-17)
(0.925852 -0.379679 -8.66976e-16)
(0.867729 -0.321424 3.70025e-16)
(0.95417 -0.31607 -4.29538e-16)
(0.902049 -0.270552 -4.29391e-16)
(0.976322 -0.265648 -6.85679e-16)
(0.928931 -0.230131 -8.70788e-16)
(0.993856 -0.225114 -2.8427e-16)
(0.950089 -0.197484 -2.37341e-16)
(1.00778 -0.192031 4.39136e-16)
(0.966769 -0.170759 -5.26728e-16)
(1.0188 -0.164611 3.72762e-16)
(0.979864 -0.148611 -3.39889e-16)
(1.02742 -0.141533 2.52909e-16)
(0.990018 -0.130038 -3.00458e-16)
(1.03401 -0.121802 1.25363e-16)
(0.997705 -0.114293 -1.09916e-16)
(1.03884 -0.104645 2.66429e-16)
(1.0033 -0.100842 -1.31054e-17)
(1.04208 -0.0894152 2.23618e-16)
(1.0071 -0.0893434 3.88076e-17)
(1.04379 -0.0754941 4.07785e-16)
(1.00944 -0.0796798 -2.06117e-16)
(1.0439 -0.0621466 5.00325e-16)
(1.01067 -0.0720427 -3.05569e-16)
(1.04216 -0.0484017 4.71381e-16)
(1.0112 -0.0668909 -1.3337e-16)
(1.03838 -0.033262 3.83692e-16)
(1.01106 -0.0643857 -5.77154e-16)
(1.03316 -0.016731 5.2885e-16)
(1.00867 -0.062411 -5.65245e-16)
(1.02783 0.000305887 2.51364e-16)
(1.01268 -0.0758236 -2.38146e-16)
(0.721233 -0.914891 1.08332e-15)
(0.648294 -0.78195 3.02872e-16)
(0.814195 -0.725626 4.60329e-16)
(0.732542 -0.610206 7.80063e-16)
(0.876034 -0.583874 8.81588e-16)
(0.798084 -0.488347 3.95775e-16)
(0.919211 -0.475524 2.74389e-17)
(0.849102 -0.399016 1.98592e-16)
(0.950822 -0.391587 6.34102e-16)
(0.888778 -0.331402 -2.48246e-16)
(0.974875 -0.325842 3.69012e-16)
(0.919675 -0.2788 4.39025e-16)
(0.993631 -0.273714 5.90027e-16)
(0.943821 -0.236988 5.91612e-16)
(1.00842 -0.231795 4.72338e-16)
(0.962756 -0.203201 1.27131e-16)
(1.02009 -0.197566 -2.37731e-16)
(0.977601 -0.175522 2.39316e-16)
(1.02923 -0.169178 -6.62494e-17)
(0.98916 -0.152562 4.63452e-17)
(1.03625 -0.145266 5.20394e-17)
(0.998009 -0.133281 -9.70095e-17)
(1.04146 -0.124801 2.588e-16)
(1.00458 -0.11691 -4.33883e-16)
(1.04507 -0.106989 1.97311e-16)
(1.00919 -0.102894 -4.58235e-16)
(1.04721 -0.0911687 8.29825e-17)
(1.01215 -0.0908807 -3.54517e-16)
(1.04791 -0.0767178 -1.73322e-17)
(1.01376 -0.0807394 -2.2326e-16)
(1.04704 -0.0629222 -2.07935e-16)
(1.01445 -0.0726393 1.28762e-17)
(1.04423 -0.0488636 -2.02468e-16)
(1.01476 -0.0670071 -2.13884e-16)
(1.03912 -0.0335941 1.47433e-17)
(1.01494 -0.0640261 2.62282e-16)
(1.03214 -0.0170425 -1.82501e-16)
(1.01346 -0.0617755 3.66277e-16)
(1.02478 0.000135542 -2.83301e-16)
(1.01912 -0.0749864 3.68572e-16)
(0.781743 -0.939807 -1.09809e-15)
(0.700053 -0.80321 -6.28845e-16)
(0.86215 -0.745361 -5.89966e-16)
(0.772866 -0.626712 -3.69442e-16)
(0.914544 -0.599676 -1.31745e-15)
(0.830291 -0.501487 -1.97694e-16)
(0.950508 -0.488321 -2.74851e-16)
(0.875364 -0.409686 -3.16589e-17)
(0.976538 -0.402049 -5.70417e-16)
(0.910546 -0.340194 1.87489e-16)
(0.996226 -0.334464 -1.32533e-16)
(0.937952 -0.286121 -6.57706e-16)
(1.01153 -0.280866 -2.87162e-16)
(0.959329 -0.243133 -5.01274e-16)
(1.02354 -0.237754 -2.19215e-16)
(0.97603 -0.208387 -2.18516e-16)
(1.03295 -0.202542 4.69e-16)
(0.989048 -0.179918 -4.29909e-16)
(1.04021 -0.173332 4.27971e-16)
(0.999092 -0.156298 -5.21917e-16)
(1.04565 -0.148722 3.32703e-16)
(1.00667 -0.136462 -1.96814e-16)
(1.0495 -0.127661 8.21724e-17)
(1.01215 -0.119617 7.27029e-17)
(1.05192 -0.109327 2.46936e-16)
(1.01583 -0.105192 1.39062e-16)
(1.05298 -0.0930465 1.60299e-16)
(1.01797 -0.0928128 1.42862e-16)
(1.05267 -0.0781872 1.62248e-16)
(1.01885 -0.082315 1.82349e-16)
(1.0508 -0.064048 2.64359e-16)
(1.01892 -0.0737989 -6.05504e-17)
(1.04694 -0.0497604 2.66467e-16)
(1.01878 -0.0676001 1.76602e-16)
(1.04055 -0.0344158 1.6473e-16)
(1.01887 -0.0639156 -4.89657e-16)
(1.03187 -0.017806 5.08807e-16)
(1.01787 -0.0611714 -4.7234e-16)
(1.0224 -0.00020555 2.96158e-16)
(1.02505 -0.0743397 -3.74193e-16)
(0.843707 -0.960583 1.31756e-15)
(0.752964 -0.820915 1.10603e-15)
(0.911204 -0.761717 5.00491e-16)
(0.814078 -0.640446 4.01559e-16)
(0.953967 -0.612755 1.08217e-15)
(0.8632 -0.512376 1.64383e-16)
(0.982552 -0.498872 3.40386e-16)
(0.902174 -0.418471 1.74817e-16)
(1.00285 -0.410629 2.95718e-16)
(0.932725 -0.347374 -1.12474e-16)
(1.01803 -0.341492 4.65156e-17)
(0.956514 -0.292041 5.01408e-16)
(1.02974 -0.286653 3.5032e-16)
(0.974999 -0.248038 3.62702e-16)
(1.03885 -0.242534 4.062e-17)
(0.989345 -0.212458 1.06468e-16)
(1.04587 -0.206487 -4.03413e-16)
(1.00042 -0.183288 1.9706e-16)
(1.05113 -0.176569 -7.18601e-17)
(1.00883 -0.159065 1.43112e-16)
(1.05487 -0.151345 2.51984e-17)
(1.01501 -0.138699 -7.0673e-17)
(1.05725 -0.129738 1.68831e-16)
(1.01929 -0.121375 -2.68943e-16)
(1.05837 -0.110912 5.53053e-18)
(1.02193 -0.106506 -4.13653e-16)
(1.05828 -0.0941807 1.52498e-16)
(1.02315 -0.0937073 -4.04465e-16)
(1.05692 -0.0789173 1.23307e-16)
(1.02323 -0.0827919 -4.31741e-16)
(1.05408 -0.0644599 -9.56961e-17)
(1.02263 -0.0738147 -8.70317e-17)
(1.0493 -0.0500292 -2.62209e-16)
(1.02199 -0.067051 -2.251e-16)
(1.04194 -0.034796 -2.5446e-16)
(1.02195 -0.0627629 2.40157e-16)
(1.03203 -0.0184103 -3.27645e-16)
(1.02144 -0.0597987 2.53667e-16)
(1.02082 -0.00069009 -2.26704e-16)
(1.03034 -0.0733505 4.98151e-16)
(0.906957 -0.977398 -1.43911e-15)
(0.807061 -0.835258 -1.08768e-15)
(0.961333 -0.775032 -7.58056e-16)
(0.856228 -0.651569 -3.93719e-17)
(0.99423 -0.623408 -9.67382e-16)
(0.896868 -0.521216 1.06795e-16)
(1.01528 -0.507485 -5.71834e-16)
(0.929627 -0.425633 -1.36726e-16)
(1.02974 -0.417652 -1.08407e-16)
(0.955478 -0.353256 1.76798e-16)
(1.04035 -0.347256 2.67467e-17)
(0.975615 -0.296917 -3.01381e-16)
(1.04845 -0.291408 -1.48248e-16)
(0.991204 -0.252105 -6.14475e-16)
(1.05466 -0.246464 1.60371e-16)
(1.00322 -0.215864 -1.26571e-16)
(1.05932 -0.209734 4.29747e-16)
(1.01238 -0.186145 -3.90494e-16)
(1.06263 -0.17924 2.37122e-16)
(1.01922 -0.161462 -2.80139e-16)
(1.06473 -0.153526 1.11848e-16)
(1.02408 -0.140706 -3.04066e-17)
(1.0657 -0.131497 -1.49931e-16)
(1.02724 -0.123051 2.69795e-17)
(1.0656 -0.112302 3.24293e-16)
(1.02891 -0.107896 4.01264e-17)
(1.0644 -0.0952466 1.04271e-16)
(1.02928 -0.0948382 1.73178e-16)
(1.06202 -0.0797053 6.51532e-17)
(1.02859 -0.0836585 1.91486e-16)
(1.05822 -0.0650415 1.3081e-16)
(1.02725 -0.0743362 2.39553e-16)
(1.05251 -0.050542 1.35906e-16)
(1.0259 -0.0670486 3.62805e-16)
(1.04419 -0.0354174 2.86466e-16)
(1.0253 -0.0620911 -1.38376e-16)
(1.03304 -0.0191271 2.85897e-16)
(1.02473 -0.0587408 -1.60665e-16)
(1.01997 -0.00100135 8.63857e-17)
(1.03504 -0.0725341 -3.27082e-16)
(0.971108 -0.98991 1.41172e-15)
(0.861846 -0.845909 1.00657e-15)
(1.01211 -0.784854 6.22348e-16)
(0.898888 -0.659813 1.9787e-16)
(1.03503 -0.631243 5.03521e-16)
(0.930923 -0.527732 6.76703e-18)
(1.04843 -0.513784 4.89121e-16)
(0.957363 -0.430868 8.46906e-17)
(1.05695 -0.422755 -2.52806e-17)
(0.978418 -0.357514 -1.57181e-16)
(1.0629 -0.351418 1.72274e-16)
(0.994807 -0.300406 -9.34572e-18)
(1.06727 -0.294817 -4.1863e-17)
(1.0074 -0.254975 7.80712e-16)
(1.07047 -0.249263 -4.10989e-16)
(1.01697 -0.218222 1.98361e-16)
(1.07265 -0.212025 -1.7712e-16)
(1.02411 -0.188071 5.99435e-17)
(1.07388 -0.181099 1.85869e-16)
(1.02924 -0.163011 -9.36761e-17)
(1.07421 -0.155005 9.00655e-17)
(1.03266 -0.141915 5.03409e-17)
(1.07364 -0.132632 1.15056e-16)
(1.03456 -0.123942 -2.343e-16)
(1.07219 -0.113119 1.39749e-16)
(1.03512 -0.108479 -3.3783e-16)
(1.06978 -0.0957589 3.62763e-17)
(1.03451 -0.0951118 -1.04376e-19)
(1.06632 -0.0799335 -3.78464e-16)
(1.03297 -0.083601 5.12343e-17)
(1.06156 -0.0650401 -2.15265e-16)
(1.03084 -0.0738894 -1.52073e-16)
(1.05506 -0.0504445 -1.3062e-16)
(1.02878 -0.0661181 -4.09934e-16)