/*--------------------------------*- C++ -*----------------------------------*\
| =========                 |                                                 |
| \\      /  F ield         | foam-extend: Open Source CFD                    |
|  \\    /   O peration     | Version:  3.0                                   |
|   \\  /    A nd           | Web:         http://www.extend-project.de       |
|    \\/     M anipulation  |                                                 |
\*---------------------------------------------------------------------------*/
FoamFile
{
    version     2.0;
    format      ascii;
    class       volSymmTensorField;
    location    "32";
    object      sigma;
}
// * * * * * * * * * * * * * * * * * * * * * * * * * * * * * * * * * * * * * //

dimensions      [0 0 0 0 0 0 0];

internalField   nonuniform List<symmTensor> 
576
(
(1.95301 -0.0690901 3.01716e-18 -1.94845 3.7281e-18 4.91921e-36)
(2.02901 0.154865 8.07313e-18 -2.02515 -3.31403e-17 -1.64882e-34)
(2.33822 0.225715 -3.00062e-19 -2.33209 -1.63197e-17 -1.96344e-35)
(2.12729 0.252531 -2.3897e-18 -2.12634 -3.86607e-18 1.64981e-35)
(1.93285 0.247769 8.72993e-18 -1.92587 -3.29253e-18 2.45876e-35)
(1.64741 0.230893 6.93918e-18 -1.6475 1.71379e-18 1.19968e-36)
(1.39331 0.21128 -1.08262e-17 -1.38652 -5.23373e-18 -7.10301e-36)
(1.10565 0.185113 -1.50674e-17 -1.10527 2.45712e-17 -1.87372e-34)
(0.862435 0.163771 -2.04695e-17 -0.856622 1.22301e-17 -1.20321e-34)
(0.590375 0.137319 -1.40352e-17 -0.588614 8.30061e-18 -2.34395e-35)
(0.361554 0.115716 1.64571e-18 -0.357098 -1.22179e-17 5.93566e-35)
(0.111481 0.0948366 -1.16487e-17 -0.107847 -1.12499e-17 -5.38957e-36)
(2.11916 -0.166404 -1.84859e-17 -2.11465 -1.18071e-17 -9.48726e-35)
(1.97203 0.457375 -4.47686e-17 -1.96822 2.46184e-17 4.03085e-34)
(2.22461 0.658627 -3.14607e-18 -2.21857 1.37414e-17 2.21302e-34)
(1.97629 0.730358 3.26593e-18 -1.97535 -1.5672e-17 -2.90958e-35)
(1.77686 0.714622 1.513e-17 -1.76999 -1.52271e-17 -2.35482e-36)
(1.49469 0.66393 -1.14359e-17 -1.49477 1.11625e-17 0)
(1.2477 0.60604 -1.90985e-17 -1.24101 4.36361e-17 -4.35636e-34)
(0.97258 0.529472 4.41074e-17 -0.972219 8.06215e-18 1.93304e-34)
(0.738822 0.46689 2.65506e-17 -0.733104 1.81661e-17 4.36514e-34)
(0.480273 0.38974 1.43253e-17 -0.478557 1.268e-18 -4.07728e-34)
(0.26197 0.326624 -3.12144e-17 -0.257589 2.18177e-19 -3.03874e-34)
(0.020749 0.265253 -2.95107e-17 -0.0171788 2.94758e-17 4.183e-34)
(2.4182 -0.147825 4.68702e-18 -2.41386 3.74064e-18 -7.84897e-35)
(1.86247 0.739505 1.84141e-17 -1.85881 1.37303e-17 -4.04329e-35)
(2.01052 1.03857 -2.60653e-17 -2.00469 -2.03033e-17 -2.75499e-34)
(1.69435 1.13082 -5.08498e-17 -1.69345 4.61411e-17 -4.89582e-34)
(1.48626 1.09963 -1.94255e-17 -1.47964 7.25677e-18 3.44489e-34)
(1.21083 1.01509 3.78005e-17 -1.21091 1.66691e-17 -1.97765e-34)
(0.977481 0.921448 8.57677e-17 -0.971034 -2.69191e-17 1.02118e-33)
(0.726107 0.800122 4.31089e-18 -0.725755 9.64277e-18 1.23941e-34)
(0.510259 0.700346 8.10652e-17 -0.504748 -9.56524e-18 1.43104e-33)
(0.277193 0.57885 2.99331e-17 -0.275529 2.24012e-18 1.02355e-33)
(0.0787207 0.479035 -1.59902e-17 -0.0744964 2.95415e-17 -9.88653e-34)
(-0.145645 0.380832 4.14927e-17 0.149092 3.94976e-17 1.11534e-33)
(2.78894 0.0424512 2.42457e-18 -2.78481 4.9866e-18 0)
(1.70847 0.99012 -1.0144e-18 -1.70499 -2.98775e-17 0)
(1.72033 1.33833 -3.6277e-17 -1.71481 5.8621e-17 3.19797e-34)
(1.31853 1.41478 8.40679e-17 -1.31767 -4.53653e-17 5.60718e-34)
(1.10061 1.36162 -4.26175e-17 -1.09434 1.70174e-17 -4.09181e-34)
(0.83571 1.24329 4.94267e-17 -0.83579 -3.52458e-17 7.77221e-34)
(0.621554 1.11785 -3.94647e-17 -0.615446 8.08939e-18 -1.05714e-33)
(0.402537 0.9603 1.06318e-16 -0.402206 -5.71627e-17 2.69961e-34)
(0.211302 0.829532 4.30154e-17 -0.206079 -7.08654e-17 -2.19529e-33)
(0.0127096 0.673278 1.79326e-17 -0.0111374 -3.08688e-17 -8.56531e-34)
(-0.158775 0.544069 4.68527e-17 0.162779 7.7977e-18 -2.92654e-34)
(-0.359861 0.414575 1.02278e-16 0.363126 -1.15265e-16 -1.85642e-34)
(3.1516 0.431548 -1.05163e-17 -3.14779 -6.58624e-20 0)
(1.52079 1.20155 -3.18662e-17 -1.51757 2.85523e-17 7.37877e-35)
(1.38607 1.54159 4.00662e-17 -1.38095 -1.98345e-17 -4.53585e-34)
(0.897346 1.55996 -4.34896e-17 -0.896562 1.70546e-17 -5.24884e-34)
(0.671681 1.47738 7.75002e-17 -0.665859 -5.74261e-17 -6.9036e-34)
(0.421522 1.3257 -8.77676e-17 -0.421605 -4.17702e-18 3.57654e-34)
(0.230765 1.17332 -1.65264e-17 -0.225103 -3.91407e-17 0)
(0.0493804 0.989902 -1.26772e-16 -0.0490776 -2.08506e-17 1.62225e-33)
(-0.112933 0.835653 -1.16636e-16 0.117771 2.39004e-17 2.75949e-33)
(-0.271867 0.656197 -7.01623e-17 0.273323 -8.27413e-18 9.4502e-35)
(-0.412136 0.506402 1.47411e-17 0.415845 -5.6741e-17 -1.65002e-33)
(-0.585589 0.352406 -1.25574e-16 0.588614 -1.8899e-18 1.85642e-34)
(3.4207 1.01283 3.77446e-18 -3.41724 1.24913e-17 0)
(1.31153 1.3702 2.81927e-17 -1.3086 -1.57551e-17 1.37429e-34)
(1.04274 1.64486 -1.56617e-17 -1.0381 -1.27775e-17 -5.56652e-35)
(0.483611 1.56387 -1.3599e-17 -0.482898 6.17823e-18 0)
(0.255702 1.44495 -5.88696e-17 -0.250432 2.54966e-17 2.40616e-34)
(0.0248931 1.26089 1.92612e-17 -0.0249677 -1.91814e-17 -1.97933e-34)
(-0.139756 1.08694 -1.25373e-16 0.144877 6.80632e-17 7.08837e-34)
(-0.281923 0.888409 1.53275e-16 0.282195 -7.11527e-18 -2.21428e-33)
(-0.413585 0.718605 1.73601e-17 0.417962 -2.67339e-17 -1.99523e-33)
(-0.531913 0.527883 -7.2812e-17 0.533226 5.55511e-17 1.53037e-33)
(-0.639867 0.366669 1.20019e-17 0.643221 2.06734e-17 0)
(-0.78363 0.195374 -1.9446e-17 0.786363 4.91976e-17 0)
(3.51818 1.74594 2.8771e-18 -3.51516 4.6728e-18 0)
(1.09241 1.49653 -1.5125e-17 -1.08985 5.02917e-17 -6.23188e-34)
(0.723252 1.65758 1.0745e-16 -0.719182 -3.83968e-17 2.1043e-33)
(0.126495 1.44388 -1.39417e-17 -0.125879 -2.59015e-17 0)
(-0.0950257 1.28359 4.14449e-17 0.0996486 -1.79388e-17 -7.69213e-35)
(-0.301625 1.06895 -5.45614e-17 0.301553 1.93922e-17 6.32747e-35)
(-0.438896 0.878715 1.38774e-16 0.443386 -1.21999e-17 6.16614e-34)
(-0.543739 0.67495 1.14579e-16 0.543972 -3.85248e-17 2.52263e-34)
(-0.645492 0.496964 -1.74823e-16 0.649326 3.39742e-17 -1.52723e-33)
(-0.726209 0.305772 4.45099e-17 0.727357 1.74028e-17 -5.47799e-34)
(-0.803748 0.141484 -1.24753e-17 0.806685 -2.21341e-17 0)
(-0.917947 -0.0403025 -1.93157e-17 0.920341 3.79584e-17 0)
(3.38633 2.56224 4.92015e-18 -3.38377 5.40343e-18 0)
(0.873456 1.58468 6.10859e-17 -0.871292 -1.07549e-18 4.60277e-34)
(0.453803 1.60025 -4.20407e-17 -0.450366 -1.65499e-17 -1.78817e-33)
(-0.135639 1.23429 -6.67794e-17 0.136159 3.75946e-17 -1.97609e-35)
(-0.339921 1.03065 2.28553e-17 0.343821 -1.22989e-17 -1.71163e-35)
(-0.517407 0.788172 1.33767e-17 0.517344 -4.94028e-17 2.06995e-34)
(-0.627279 0.586463 2.3418e-17 0.631065 1.38798e-17 0)
(-0.699475 0.385275 -7.95712e-17 0.699669 -2.85828e-17 -5.24679e-34)
(-0.774055 0.205144 -1.63995e-16 0.777287 3.82405e-17 3.42568e-33)
(-0.823305 0.0217768 3.77095e-17 0.824269 2.21012e-17 5.70588e-34)
(-0.874696 -0.139034 -3.41624e-17 0.87717 1.08875e-17 7.14668e-34)
(-0.961255 -0.32561 8.878e-17 0.963269 -7.51681e-18 -1.18826e-33)
(2.99695 3.37437 2.36722e-17 -2.99492 -1.45095e-18 7.04817e-35)
(0.66179 1.64128 -3.5122e-17 -0.660079 -7.78526e-18 -5.4549e-35)
(0.25019 1.50088 -6.6628e-17 -0.247455 4.4872e-17 -2.0793e-34)
(-0.28088 0.980787 1.60355e-16 0.281284 -4.89989e-17 9.89279e-34)
(-0.456087 0.735615 -1.56047e-16 0.45919 4.72255e-17 -3.9918e-34)
(-0.599814 0.469142 1.37288e-16 0.599758 -8.18263e-18 1.04621e-33)
(-0.683146 0.259955 7.18615e-17 0.686157 -9.79645e-17 -1.97987e-33)
(-0.729097 0.0663085 -2.02441e-16 0.729248 -1.00973e-17 2.53519e-33)
(-0.780506 -0.111838 -3.20949e-17 0.783074 4.54067e-17 -1.31473e-33)
(-0.806318 -0.282475 -1.94375e-18 0.807082 2.03957e-19 -1.32323e-36)
(-0.83728 -0.435749 7.7741e-18 0.839245 4.62956e-17 -3.13546e-34)
(-0.899284 -0.623011 8.49122e-17 0.900884 -1.90845e-17 1.18826e-33)
(2.35677 4.0891 7.26485e-18 -2.35528 1.47309e-17 0)
(0.461051 1.67423 2.75855e-17 -0.459797 -8.38205e-18 5.79126e-35)
(0.115917 1.39049 5.70174e-17 -0.113918 1.31508e-18 1.93543e-34)
(-0.306726 0.733299 -1.22642e-16 0.307019 2.91386e-17 -1.17718e-33)
(-0.441528 0.45245 1.22676e-16 0.443788 -1.25342e-17 6.23542e-34)
(-0.547424 0.166858 -4.15566e-17 0.547379 3.88766e-17 -3.87932e-34)
(-0.605534 -0.0467775 -8.9382e-17 0.607724 -8.38272e-18 -6.60028e-34)
(-0.632088 -0.231087 5.90977e-17 0.632194 -1.3064e-17 -6.18858e-34)
(-0.664726 -0.405254 6.38649e-17 0.666591 3.26363e-17 -8.79067e-34)
(-0.675535 -0.562004 5.71559e-17 0.676086 7.24467e-18 5.58254e-35)
(-0.692136 -0.706435 1.69515e-16 0.693561 -2.87072e-17 1.62293e-34)
(-0.733103 -0.892089 -8.48621e-17 0.734261 -3.18558e-18 -1.71529e-35)
(1.50705 4.62079 7.40573e-18 -1.50616 -2.04003e-18 0)
(0.271266 1.69111 -4.54937e-17 -0.270516 1.58742e-17 -5.32188e-35)
(0.0420523 1.29799 -5.24631e-17 -0.0408409 -2.31314e-18 -1.20626e-34)
(-0.230197 0.538161 6.82067e-17 0.230363 -1.02249e-17 -4.88583e-35)
(-0.315219 0.231165 -6.43296e-17 0.316588 2.01487e-17 2.89415e-35)
(-0.380106 -0.0677483 1.48637e-17 0.380071 -1.86797e-17 0)
(-0.414324 -0.283726 -4.20051e-17 0.415648 3.03465e-17 -3.88997e-34)
(-0.4275 -0.459869 2.65237e-17 0.42756 2.89288e-17 2.08772e-34)
(-0.445284 -0.630066 -1.6294e-17 0.44641 8.12151e-18 -4.703e-34)
(-0.448425 -0.775271 -1.33139e-18 0.448754 2.32114e-17 -8.29136e-34)
(-0.455972 -0.912125 -6.41487e-18 0.456831 -3.09515e-17 2.38172e-34)
(-0.47907 -1.09558 3.4371e-17 0.479767 -3.01683e-17 6.0236e-34)
(0.518538 4.90428 1.51333e-18 -0.518221 -1.29474e-17 0)
(0.0894502 1.69793 3.59626e-18 -0.0891903 -1.14586e-17 -5.9573e-35)
(0.00917735 1.24569 -9.27269e-18 -0.00875523 2.08533e-17 -4.11103e-35)
(-0.0848183 0.43096 -1.27819e-17 0.0848648 8.82701e-19 9.32564e-36)
(-0.113882 0.110132 4.21643e-17 0.114346 -1.29575e-17 -3.56594e-36)
(-0.135741 -0.19562 -1.21138e-17 0.135718 1.70271e-18 1.18518e-35)
(-0.147031 -0.412573 8.28366e-18 0.147472 3.13378e-18 -1.95363e-36)
(-0.150933 -0.584009 -1.88424e-17 0.150945 6.59983e-18 -2.0714e-34)
(-0.156546 -0.751802 2.58973e-17 0.156916 -2.64138e-18 -9.94443e-35)
(-0.156997 -0.890501 -1.29512e-17 0.157099 2.88958e-18 -1.93503e-34)
(-0.159096 -1.02303 -4.04258e-18 0.159373 2.99915e-19 -2.66014e-34)
(-0.166527 -1.20503 7.25783e-18 0.16675 -9.89144e-18 4.40716e-35)
(-0.518561 4.90426 2.78664e-18 0.518262 9.62174e-18 2.03875e-35)
(-0.0894809 1.69792 2.22228e-17 0.0892232 1.53703e-17 3.50814e-35)
(-0.00922099 1.24568 2.94544e-18 0.00882679 3.81802e-18 3.34857e-35)
(0.0847996 0.430955 -8.86149e-18 -0.0848813 1.01468e-19 -4.96444e-35)
(0.113848 0.110123 -1.14464e-17 -0.114307 -8.30795e-18 9.48759e-35)
(0.135716 -0.195627 1.0717e-17 -0.135726 2.8068e-18 1.74991e-35)
(0.146999 -0.412583 -7.73173e-18 -0.147454 -1.0197e-17 6.83379e-36)
(0.15092 -0.584013 -1.59282e-18 -0.150955 -2.27112e-17 1.44974e-34)
(0.156523 -0.751809 -9.69328e-18 -0.156917 -4.1217e-18 1.96112e-34)
(0.157004 -0.890499 -7.33456e-18 -0.157132 1.03213e-17 1.64972e-34)
(0.159079 -1.02303 -7.36913e-19 -0.159386 1.60872e-17 4.34043e-36)
(0.166534 -1.20502 -2.98186e-19 -0.166788 -2.61482e-18 -1.52252e-35)
(-1.50709 4.62081 1.38194e-17 1.50621 -3.33341e-18 -2.09327e-35)
(-0.271301 1.69111 -4.7767e-17 0.270551 -1.0935e-17 4.24395e-34)
(-0.0420976 1.29798 -4.78925e-17 0.0409123 4.2749e-18 5.18637e-35)
(0.230175 0.538167 -2.54007e-17 -0.230376 2.02032e-17 -2.58472e-34)
(0.315184 0.231154 2.60806e-17 -0.316551 2.26322e-18 9.43158e-35)
(0.38008 -0.0677515 9.50854e-18 -0.380078 -3.39635e-17 0)
(0.414293 -0.283741 -7.79709e-17 -0.415633 -2.85906e-17 1.18523e-34)
(0.427486 -0.459871 2.29033e-17 -0.427568 -6.18202e-18 -1.50682e-34)
(0.445262 -0.630077 6.78364e-17 -0.446413 -8.05435e-18 -6.70477e-34)
(0.448429 -0.775265 4.31579e-17 -0.448785 2.06516e-17 -8.94778e-35)
(0.455956 -0.912132 -2.53712e-17 -0.456846 -7.51227e-19 7.26597e-35)
(0.47908 -1.09558 -3.63279e-17 -0.479808 1.372e-17 1.64843e-34)
(-2.35678 4.08908 -8.31103e-18 2.35532 -2.40702e-17 1.832e-34)
(-0.461076 1.67421 7.89553e-17 0.459831 9.67466e-18 -7.51815e-34)
(-0.115949 1.39046 5.54836e-17 0.113978 2.91044e-18 9.58086e-35)
(0.306711 0.733299 -3.7642e-17 -0.307032 -6.19444e-18 4.4534e-34)
(0.441505 0.452427 -1.12929e-16 -0.443761 7.59895e-18 1.29236e-34)
(0.547408 0.166847 -2.1237e-17 -0.547393 -4.04008e-18 -2.85243e-34)
(0.605518 -0.0468036 1.06415e-16 -0.60772 1.21239e-17 1.10151e-34)
(0.63208 -0.231093 -2.93269e-17 -0.632208 -7.71488e-18 1.6083e-34)
(0.664716 -0.405273 4.39455e-17 -0.666603 -8.38649e-19 1.64992e-33)
(0.675538 -0.561994 4.9831e-17 -0.676114 -1.38819e-17 9.83085e-34)
(0.692126 -0.706444 -6.09448e-18 -0.693579 -3.02243e-17 9.06056e-34)
(0.733108 -0.892079 8.54095e-17 -0.734295 2.72555e-17 -9.37061e-34)
(-2.997 3.37438 2.81027e-18 2.99499 1.09501e-17 0)
(-0.661826 1.64127 -1.31895e-17 0.660118 -1.61475e-17 0)
(-0.250228 1.50086 -6.37726e-17 0.247515 -3.88611e-17 1.20488e-33)
(0.280853 0.980794 1.57793e-16 -0.281287 1.53632e-17 -1.25143e-34)
(0.456062 0.735593 7.66345e-18 -0.459166 2.56756e-17 5.19683e-34)
(0.599794 0.469133 -4.07485e-17 -0.599767 5.64444e-17 5.23186e-34)
(0.683133 0.259927 -1.52603e-16 -0.686161 -2.70586e-17 -1.91155e-33)
(0.729085 0.0663023 3.43348e-17 -0.729257 3.38701e-17 1.24476e-33)
(0.780498 -0.111859 -3.5204e-17 -0.783092 1.43595e-17 6.40646e-34)
(0.806315 -0.282464 8.15753e-18 -0.807105 -6.43043e-17 5.17701e-34)
(0.837275 -0.435761 1.82103e-18 -0.83927 -2.37012e-17 1.96579e-34)
(0.899295 -0.623007 8.1252e-17 -0.900924 -3.50068e-17 1.50295e-33)
(-3.38634 2.56222 3.58858e-18 3.38381 -1.0103e-17 0)
(-0.873477 1.58467 -5.95804e-18 0.87133 -3.10502e-17 5.80678e-34)
(-0.453823 1.60022 7.4556e-17 0.45041 6.15356e-17 -7.08136e-34)
(0.13562 1.2343 -1.45593e-16 -0.136159 -2.32159e-17 -5.40798e-34)
(0.339909 1.03062 1.54061e-16 -0.343807 2.71434e-17 -5.88619e-34)
(0.517398 0.788164 -5.24061e-17 -0.517358 1.07249e-17 -1.24602e-34)
(0.627282 0.586436 3.5662e-17 -0.631081 3.54867e-17 0)
(0.699471 0.385269 -7.57888e-17 -0.699683 3.80847e-17 1.01091e-33)
(0.774063 0.205124 -1.77057e-16 -0.777314 -1.07929e-17 -3.49407e-33)
(0.823302 0.021789 -1.13366e-16 -0.824289 -1.57435e-17 -3.11211e-33)
(0.874699 -0.139042 3.43463e-17 -0.877198 4.94309e-17 1.5887e-33)
(0.96126 -0.325599 -1.71552e-16 -0.9633 -5.53264e-17 -1.50295e-33)
(-3.51824 1.74593 8.03145e-18 3.51523 -1.35563e-17 0)
(-1.09244 1.49652 3.65608e-17 1.08989 1.10704e-17 -2.99944e-34)
(-0.723281 1.65755 3.70316e-17 0.719226 2.21608e-18 -7.46975e-34)
(-0.126527 1.44389 1.79832e-17 0.125889 3.1817e-17 0)
(0.0950109 1.28357 -7.21408e-17 -0.0996401 -2.61534e-17 1.68673e-34)
(0.301614 1.06894 9.43526e-17 -0.301565 1.47661e-17 -1.38753e-34)
(0.438903 0.878688 -7.23864e-17 -0.443413 -5.41363e-17 2.25371e-33)
(0.543735 0.674938 1.91025e-16 -0.543987 5.87076e-17 -2.89331e-33)
(0.645506 0.496945 6.52013e-17 -0.649364 3.3856e-17 1.20349e-33)
(0.726204 0.305778 -3.7653e-17 -0.727375 6.19809e-18 -2.37328e-34)
(0.803757 0.141479 2.31667e-18 -0.806722 -9.79564e-18 0)
(0.91796 -0.0402923 3.37461e-17 -0.92038 5.82397e-17 0)
(-3.4207 1.01281 -4.8884e-18 3.41727 -1.45717e-18 0)
(-1.31155 1.37018 -3.89859e-17 1.30864 -3.30621e-17 4.48403e-35)
(-1.04275 1.64483 6.48645e-17 1.03813 1.91972e-17 7.30704e-34)
(-0.483633 1.56387 5.77247e-18 0.482913 -1.08414e-17 0)
(-0.255707 1.44493 6.87869e-17 0.250431 2.66061e-17 -3.22519e-34)
(-0.0248933 1.26089 -4.91979e-17 0.024955 -2.94956e-17 2.65306e-34)
(0.139776 1.08692 5.73113e-17 -0.144913 5.32703e-17 8.14086e-34)
(0.281929 0.888402 -2.95769e-17 -0.282211 2.16676e-17 5.17195e-33)
(0.413613 0.718596 -1.14313e-16 -0.418007 -8.63539e-17 -2.92289e-33)
(0.531911 0.527893 1.05557e-16 -0.533241 -4.29591e-18 2.39929e-33)
(0.639883 0.366674 -2.53368e-18 -0.643258 1.79879e-17 0)
(0.783641 0.195389 1.54703e-17 -0.786395 2.07086e-17 0)
(-3.15165 0.431514 7.79041e-18 3.14785 -1.28128e-18 0)
(-1.52083 1.20153 -8.52527e-18 1.51761 3.45351e-17 4.61159e-34)
(-1.38609 1.54156 -6.96286e-17 1.38097 -4.92752e-17 -6.5202e-34)
(-0.897378 1.55995 -5.67321e-18 0.89658 -5.93816e-18 1.00204e-33)
(-0.671686 1.47736 -1.21103e-17 0.665848 -2.96159e-17 5.5979e-34)
(-0.42152 1.32569 6.97667e-17 0.421588 5.86965e-17 -1.02211e-34)
(-0.230738 1.17331 -7.75125e-17 0.225054 2.07555e-17 0)
(-0.0493661 0.989891 -5.99175e-17 0.0490529 -9.03251e-18 -2.70826e-33)
(0.112967 0.835654 -6.20002e-17 -0.117827 -9.35087e-18 -2.58012e-34)
(0.271872 0.656203 1.29321e-17 -0.273343 -8.12832e-18 -7.83662e-35)
(0.412152 0.506416 1.57515e-18 -0.415884 8.70422e-19 9.82749e-34)
(0.585603 0.352425 7.60967e-17 -0.588649 3.72486e-17 1.21321e-33)
(-2.78893 0.0424194 -1.1211e-18 2.78483 1.17402e-17 7.95645e-35)
(-1.70849 0.990087 -1.10697e-17 1.70503 -1.34946e-17 -6.15789e-35)
(-1.72035 1.33831 1.46129e-18 1.71483 -1.08349e-17 -8.22027e-34)
(-1.31855 1.41476 8.52886e-17 1.3177 3.22604e-17 -7.08211e-34)
(-1.10062 1.3616 -8.02264e-17 1.09432 -2.25315e-17 1.14172e-34)
(-0.835702 1.24328 8.56733e-17 0.83578 -6.5845e-19 -6.95008e-34)
(-0.621526 1.11785 7.38937e-17 0.6154 7.46431e-17 2.94941e-34)
(-0.40252 0.960297 -4.53238e-17 0.402187 2.01882e-17 3.61668e-34)
(-0.211266 0.829548 5.18664e-17 0.206029 1.68019e-17 9.24583e-34)
(-0.0127075 0.67329 1.0301e-17 0.011125 2.49011e-17 6.22914e-34)
(0.15879 0.544095 1.82039e-18 -0.16281 2.68718e-17 5.73558e-34)
(0.359872 0.414602 -2.78138e-17 -0.363152 -5.3529e-17 -1.21321e-33)
(-2.41822 -0.147872 -3.70948e-18 2.41389 -1.24346e-17 0)
(-1.86251 0.739456 9.55463e-18 1.85885 -8.09526e-18 3.2312e-34)
(-2.01053 1.03853 -6.90879e-19 2.0047 1.00173e-17 6.35325e-36)
(-1.69438 1.13079 -6.10561e-17 1.69347 -5.87105e-17 3.17432e-35)
(-1.48627 1.09962 7.22576e-17 1.47962 2.00076e-17 -2.03944e-34)
(-1.21082 1.01508 -7.15546e-17 1.2109 -4.00774e-17 5.92449e-34)
(-0.97746 0.921464 2.91395e-17 0.970991 -4.38627e-17 7.1438e-34)
(-0.726084 0.800121 1.25549e-16 0.725731 2.19414e-17 -1.41114e-33)
(-0.510233 0.700375 6.49818e-17 0.504703 -2.21088e-17 -2.01621e-33)
(-0.27718 0.57886 7.31642e-17 0.275509 -7.94973e-18 -1.56638e-33)
(-0.078713 0.479064 9.17228e-17 0.0744685 2.62325e-17 -1.7237e-33)
(0.145654 0.380861 -8.19602e-17 -0.149117 -9.49086e-20 -2.63076e-34)
(-2.11916 -0.166428 -2.43324e-17 2.11467 5.68253e-18 0)
(-1.97205 0.457332 -2.75999e-17 1.96826 -1.49613e-17 -4.29834e-34)
(-2.22462 0.658598 6.40528e-18 2.21858 -2.43298e-17 -4.39128e-35)
(-1.9763 0.730329 2.1554e-17 1.97537 3.3685e-17 5.64399e-35)
(-1.77687 0.714623 -4.09207e-17 1.76999 -2.64843e-17 -8.23402e-35)
(-1.49468 0.663933 1.60129e-17 1.49476 1.39278e-17 0)
(-1.24768 0.606071 -4.16705e-17 1.24099 -1.42136e-17 6.86891e-35)
(-0.972564 0.529485 5.96273e-18 0.972201 -4.31891e-17 -5.53319e-35)
(-0.7388 0.466923 -2.92575e-17 0.733076 -2.87636e-17 -2.73691e-35)
(-0.480267 0.389755 -1.88702e-17 0.478539 -4.43839e-17 2.02795e-34)
(-0.261963 0.326655 -2.04693e-18 0.257571 -3.39451e-17 8.31501e-34)
(-0.0207421 0.265296 2.96517e-17 0.0171587 4.84449e-17 -4.8031e-34)
(-1.95302 -0.0691222 -5.10376e-19 1.94845 6.79665e-18 0)
(-2.029 0.154776 6.35053e-18 2.02514 3.15045e-17 1.50216e-34)
(-2.33824 0.225687 -8.03732e-19 2.33209 6.42451e-18 1.04401e-36)
(-2.12727 0.252467 1.23086e-17 2.12633 -1.5494e-17 1.69415e-36)
(-1.93286 0.247768 1.576e-17 1.92585 1.83283e-17 2.20929e-35)
(-1.64739 0.230888 -8.27485e-18 1.64748 -3.77795e-18 1.17544e-35)
(-1.39332 0.211317 1.56886e-17 1.3865 4.46815e-18 -2.43327e-35)
(-1.10563 0.185127 -2.42257e-17 1.10526 -8.04124e-18 7.56558e-35)
(-0.862433 0.16381 -4.53128e-18 0.85661 2.4969e-18 -1.25747e-36)
(-0.590364 0.137337 -3.42365e-17 0.588607 -4.65381e-18 1.65536e-35)
(-0.361553 0.115751 -2.00012e-17 0.357085 -4.02362e-18 7.95898e-35)
(-0.111479 0.0948786 2.44129e-18 0.107835 -1.69213e-17 -3.03966e-35)
(-1.95301 0.0690838 3.01746e-18 1.94845 3.72879e-18 -4.92013e-36)
(-2.029 -0.154842 8.07305e-18 2.02514 -3.31413e-17 1.64889e-34)
(-2.33824 -0.225721 -3.00084e-19 2.33209 -1.63198e-17 1.96344e-35)
(-2.12727 -0.2525 -2.38951e-18 2.12633 -3.86664e-18 -1.64978e-35)
(-1.93286 -0.247773 8.72949e-18 1.92586 -3.29282e-18 -2.45885e-35)
(-1.64739 -0.230876 6.93883e-18 1.64749 1.71356e-18 -1.19944e-36)
(-1.39332 -0.211278 -1.08264e-17 1.38651 -5.23381e-18 7.10118e-36)
(-1.10564 -0.185104 -1.50674e-17 1.10527 2.45716e-17 1.87375e-34)
(-0.862439 -0.163764 -2.04692e-17 0.856618 1.22305e-17 1.20324e-34)
(-0.590365 -0.137321 -1.40353e-17 0.58861 8.30112e-18 2.34432e-35)
(-0.361557 -0.115715 1.64561e-18 0.357091 -1.22179e-17 -5.93566e-35)
(-0.111482 -0.0948352 -1.16488e-17 0.10784 -1.12501e-17 5.38995e-36)
(-2.11915 0.166395 -1.84866e-17 2.11465 -1.18072e-17 9.48751e-35)
(-1.97203 -0.457391 -4.47691e-17 1.96824 2.46187e-17 -4.03104e-34)
(-2.22462 -0.658631 -3.14606e-18 2.21857 1.37415e-17 -2.21298e-34)
(-1.97628 -0.730357 3.26604e-18 1.97536 -1.56725e-17 2.90881e-35)
(-1.77687 -0.714629 1.51302e-17 1.76999 -1.52267e-17 2.36121e-36)
(-1.49468 -0.663922 -1.14357e-17 1.49477 1.11625e-17 0)
(-1.2477 -0.606037 -1.90978e-17 1.24101 4.36364e-17 4.35639e-34)
(-0.972572 -0.529465 4.4108e-17 0.972212 8.0628e-18 -1.93306e-34)
(-0.738818 -0.466882 2.65507e-17 0.733098 1.81663e-17 -4.36532e-34)
(-0.480268 -0.389738 1.43247e-17 0.478545 1.26834e-18 4.07724e-34)
(-0.261975 -0.326622 -3.1215e-17 0.257588 2.18235e-19 3.03889e-34)
(-0.0207518 -0.265255 -2.95106e-17 0.0171738 2.9476e-17 -4.18302e-34)
(-2.41821 0.147834 4.68765e-18 2.41387 3.74041e-18 7.84953e-35)
(-1.86247 -0.739511 1.84138e-17 1.85881 1.37315e-17 4.04338e-35)
(-2.01053 -1.03857 -2.60657e-17 2.00469 -2.03032e-17 2.75498e-34)
(-1.69435 -1.13081 -5.08502e-17 1.69346 4.61427e-17 4.89593e-34)
(-1.48628 -1.09963 -1.94259e-17 1.47963 7.25668e-18 -3.44487e-34)
(-1.21082 -1.01507 3.78002e-17 1.21092 1.66692e-17 1.97757e-34)
(-0.977488 -0.921441 8.57688e-17 0.971027 -2.69195e-17 -1.02119e-33)
(-0.726096 -0.800105 4.31126e-18 0.72575 9.64277e-18 -1.23944e-34)
(-0.510259 -0.700343 8.10655e-17 0.504739 -9.5656e-18 -1.43105e-33)
(-0.277182 -0.578845 2.99333e-17 0.27552 2.23987e-18 -1.02357e-33)
(-0.0787301 -0.479037 -1.59909e-17 0.0744965 2.95413e-17 9.88661e-34)
(0.145639 -0.380824 4.14919e-17 -0.149092 3.94983e-17 -1.11535e-33)
(-2.78892 -0.0424416 2.42482e-18 2.78481 4.98633e-18 0)
(-1.70845 -0.990125 -1.01455e-18 1.70498 -2.98775e-17 0)
(-1.72035 -1.33834 -3.62761e-17 1.71481 5.86206e-17 -3.19793e-34)
(-1.31852 -1.41478 8.40684e-17 1.31768 -4.53651e-17 -5.60738e-34)
(-1.10063 -1.36161 -4.2618e-17 1.09433 1.70166e-17 4.09183e-34)
(-0.835708 -1.24328 4.94256e-17 0.835797 -3.52462e-17 -7.77208e-34)
(-0.621559 -1.11784 -3.9464e-17 0.615441 8.0889e-18 1.05713e-33)
(-0.402535 -0.960287 1.06319e-16 0.402208 -5.71631e-17 -2.69935e-34)
(-0.211298 -0.829528 4.30157e-17 0.206071 -7.08664e-17 2.19532e-33)
(-0.0127105 -0.673275 1.79332e-17 0.0111374 -3.08698e-17 8.56563e-34)
(0.158769 -0.544076 4.68537e-17 -0.162777 7.7978e-18 2.92663e-34)
(0.359853 -0.414571 1.02277e-16 -0.363121 -1.15266e-16 1.85644e-34)
(-3.15162 -0.431544 -1.05159e-17 3.14781 -6.5845e-20 0)
(-1.52078 -1.20156 -3.18667e-17 1.51756 2.85531e-17 -7.37812e-35)
(-1.38608 -1.5416 4.0066e-17 1.38095 -1.98349e-17 4.53575e-34)
(-0.897342 -1.55996 -4.34895e-17 0.896565 1.70539e-17 5.24892e-34)
(-0.671692 -1.47738 7.75007e-17 0.665857 -5.74262e-17 6.90356e-34)
(-0.421525 -1.32569 -8.77685e-17 0.42161 -4.17693e-18 -3.57656e-34)
(-0.23077 -1.17332 -1.6527e-17 0.2251 -3.91408e-17 0)
(-0.0493802 -0.989888 -1.26773e-16 0.0490788 -2.08502e-17 -1.62223e-33)
(0.112936 -0.835649 -1.16636e-16 -0.117779 2.39e-17 -2.75953e-33)
(0.271869 -0.65619 -7.01614e-17 -0.273325 -8.27427e-18 -9.4535e-35)
(0.412132 -0.506407 1.4741e-17 -0.415844 -5.67413e-17 1.65006e-33)
(0.585582 -0.3524 -1.25573e-16 -0.588609 -1.88984e-18 -1.85644e-34)
(-3.42069 -1.01282 3.77518e-18 3.41724 1.24916e-17 0)
(-1.3115 -1.37019 2.81923e-17 1.30859 -1.57553e-17 -1.37437e-34)
(-1.04274 -1.64487 -1.5662e-17 1.0381 -1.27774e-17 5.56736e-35)
(-0.4836 -1.56387 -1.35998e-17 0.482898 6.17849e-18 0)
(-0.255711 -1.44495 -5.88692e-17 0.250433 2.54967e-17 -2.40616e-34)
(-0.0248965 -1.26089 1.92607e-17 0.0249747 -1.9181e-17 1.97933e-34)
(0.139747 -1.08694 -1.25373e-16 -0.144874 6.80641e-17 -7.08814e-34)
(0.281916 -0.888403 1.53275e-16 -0.282188 -7.11362e-18 2.21424e-33)
(0.413584 -0.718601 1.73585e-17 -0.417962 -2.67348e-17 1.99525e-33)
(0.531907 -0.527881 -7.28124e-17 -0.533222 5.55513e-17 -1.5304e-33)
(0.639865 -0.366673 1.20023e-17 -0.64322 2.06737e-17 0)
(0.78362 -0.195371 -1.94465e-17 -0.786355 4.91983e-17 0)
(-3.5182 -1.74594 2.87747e-18 3.51517 4.67291e-18 0)
(-1.09239 -1.49653 -1.51248e-17 1.08984 5.02916e-17 6.23195e-34)
(-0.723259 -1.65759 1.07451e-16 0.719188 -3.83971e-17 -2.10429e-33)
(-0.126492 -1.44388 -1.39416e-17 0.125881 -2.59017e-17 0)
(0.0950191 -1.2836 4.14448e-17 -0.0996443 -1.79385e-17 7.69161e-35)
(0.301617 -1.06895 -5.45613e-17 -0.301545 1.93921e-17 -6.32704e-35)
(0.438888 -0.878717 1.38774e-16 -0.44338 -1.21991e-17 -6.16634e-34)
(0.543727 -0.674947 1.14579e-16 -0.543963 -3.85265e-17 -2.52243e-34)
(0.645488 -0.496962 -1.74823e-16 -0.649323 3.39731e-17 1.52722e-33)
(0.7262 -0.305769 4.45097e-17 -0.727351 1.74035e-17 5.47831e-34)
(0.803746 -0.141486 -1.2475e-17 -0.806684 -2.2134e-17 0)
(0.917938 0.0403042 -1.93164e-17 -0.920333 3.79592e-17 0)
(-3.38634 -2.56223 4.92054e-18 3.38378 5.40378e-18 0)
(-0.873446 -1.58466 6.10854e-17 0.871293 -1.07642e-18 -4.60271e-34)
(-0.453806 -1.60025 -4.20403e-17 0.45037 -1.65508e-17 1.78817e-33)
(0.135644 -1.23428 -6.67798e-17 -0.136159 3.75953e-17 1.97923e-35)
(0.339919 -1.03065 2.28558e-17 -0.343818 -1.22985e-17 1.7133e-35)
(0.517404 -0.788174 1.33762e-17 -0.517342 -4.94024e-17 -2.06998e-34)
(0.627276 -0.586469 2.34173e-17 -0.631061 1.38788e-17 0)
(0.699467 -0.38528 -7.9571e-17 -0.699665 -2.85837e-17 5.24679e-34)
(0.774052 -0.205147 -1.63995e-16 -0.777283 3.8241e-17 -3.42573e-33)
(0.823296 -0.0217814 3.77095e-17 -0.824265 2.21018e-17 -5.70579e-34)
(0.874694 0.13903 -3.41618e-17 -0.877167 1.08888e-17 -7.14669e-34)
(0.961244 0.325606 8.87791e-17 -0.96326 -7.5177e-18 1.18829e-33)
(-2.99696 -3.37437 2.3672e-17 2.99493 -1.45078e-18 -7.0482e-35)
(-0.661787 -1.64126 -3.51214e-17 0.660078 -7.78596e-18 5.45492e-35)
(-0.250192 -1.50089 -6.66287e-17 0.247458 4.48733e-17 2.07894e-34)
(0.280881 -0.980783 1.60356e-16 -0.281284 -4.89992e-17 -9.89307e-34)
(0.456089 -0.735624 -1.56048e-16 -0.459189 4.72258e-17 3.99174e-34)
(0.59981 -0.469148 1.37289e-16 -0.599756 -8.18257e-18 -1.04623e-33)
(0.683147 -0.259963 7.18609e-17 -0.686155 -9.7965e-17 1.97987e-33)
(0.729089 -0.0663165 -2.02442e-16 -0.729243 -1.00969e-17 -2.53518e-33)
(0.780505 0.111834 -3.2096e-17 -0.78307 4.54078e-17 1.31478e-33)
(0.80631 0.282468 -1.94434e-18 -0.807077 2.04362e-19 1.34217e-36)
(0.837279 0.435747 7.7725e-18 -0.839243 4.62965e-17 3.13592e-34)
(0.899279 0.623007 8.49134e-17 -0.900878 -1.90858e-17 -1.18829e-33)
(-2.35678 -4.08909 7.26469e-18 2.35529 1.47309e-17 0)
(-0.461055 -1.6742 2.75862e-17 0.459808 -8.38202e-18 -5.79061e-35)
(-0.115918 -1.39049 5.7017e-17 0.113925 1.31452e-18 -1.93542e-34)
(0.306725 -0.733287 -1.22641e-16 -0.307018 2.91391e-17 1.17719e-33)
(0.441532 -0.452451 1.22676e-16 -0.443788 -1.25339e-17 -6.23559e-34)
(0.547424 -0.166857 -4.15564e-17 -0.547384 3.88755e-17 3.87959e-34)
(0.605539 0.0467733 -8.9381e-17 -0.607724 -8.38173e-18 6.6004e-34)
(0.632086 0.231081 5.90976e-17 -0.632199 -1.30625e-17 6.18839e-34)
(0.664729 0.40525 6.38648e-17 -0.666592 3.26366e-17 8.79039e-34)
(0.675532 0.561996 5.71563e-17 -0.676088 7.24595e-18 -5.58522e-35)
(0.692136 0.706431 1.69514e-16 -0.69356 -2.87087e-17 -1.62414e-34)
(0.733097 0.89208 -8.48623e-17 -0.734257 -3.1868e-18 1.71997e-35)
(-1.50706 -4.62079 7.40556e-18 1.50616 -2.04037e-18 0)
(-0.271273 -1.6911 -4.54936e-17 0.27052 1.58738e-17 5.32107e-35)
(-0.0420516 -1.29799 -5.24625e-17 0.0408415 -2.31284e-18 1.20624e-34)
(0.230196 -0.538157 6.82061e-17 -0.230364 -1.02246e-17 4.88593e-35)
(0.315226 -0.231169 -6.4329e-17 -0.316589 2.01485e-17 -2.89416e-35)
(0.380107 0.0677438 1.48636e-17 -0.380075 -1.86798e-17 0)
(0.414331 0.283721 -4.20053e-17 -0.415648 3.03467e-17 3.88989e-34)
(0.427501 0.459861 2.65245e-17 -0.427563 2.89289e-17 -2.08773e-34)
(0.445288 0.630062 -1.62934e-17 -0.446409 8.12129e-18 4.703e-34)
(0.448425 0.775263 -1.3306e-18 -0.448756 2.32111e-17 8.29137e-34)
(0.455973 0.912123 -6.41327e-18 -0.456828 -3.09517e-17 -2.38148e-34)
(0.479071 1.09557 3.43703e-17 -0.479766 -3.01685e-17 -6.02366e-34)
(-0.518545 -4.90427 1.51322e-18 0.518237 -1.29475e-17 0)
(-0.0894615 -1.69791 3.59591e-18 0.0892048 -1.14587e-17 5.95757e-35)
(-0.00917771 -1.24569 -9.27297e-18 0.00876544 2.08534e-17 4.111e-35)
(0.0848109 -0.430952 -1.27817e-17 -0.084862 8.83076e-19 -9.32525e-36)
(0.113887 -0.11013 4.21639e-17 -0.114342 -1.29574e-17 3.56446e-36)
(0.135738 0.195622 -1.21138e-17 -0.135723 1.70258e-18 -1.18512e-35)
(0.147037 0.412574 8.28344e-18 -0.147471 3.13382e-18 1.95298e-36)
(0.150933 0.584007 -1.88422e-17 -0.150952 6.6e-18 2.07142e-34)
(0.156549 0.751801 2.58973e-17 -0.156917 -2.64144e-18 9.9445e-35)
(0.156998 0.890497 -1.29511e-17 -0.157104 2.88934e-18 1.93504e-34)
(0.159096 1.02303 -4.04251e-18 -0.159374 2.99992e-19 2.66015e-34)
(0.166527 1.20502 7.25803e-18 -0.166753 -9.89153e-18 -4.40718e-35)
(0.518556 -4.90425 2.7863e-18 -0.518265 9.62165e-18 -2.03874e-35)
(0.089474 -1.69791 2.22233e-17 -0.0892215 1.53702e-17 -3.50767e-35)
(0.00922485 -1.24568 2.94575e-18 -0.00882807 3.818e-18 -3.34852e-35)
(-0.0847989 -0.430953 -8.86109e-18 0.084877 1.01685e-19 4.96438e-35)
(-0.11384 -0.110124 -1.14462e-17 0.114307 -8.30784e-18 -9.48763e-35)
(-0.135712 0.195624 1.0717e-17 0.13572 2.80676e-18 -1.74992e-35)
(-0.146991 0.412581 -7.73141e-18 0.147454 -1.01969e-17 -6.83355e-36)
(-0.150915 0.584009 -1.59322e-18 0.150949 -2.27111e-17 -1.4497e-34)
(-0.156518 0.751807 -9.69365e-18 0.156918 -4.12178e-18 -1.96107e-34)
(-0.157 0.890495 -7.33508e-18 0.157128 1.03211e-17 -1.64968e-34)
(-0.159078 1.02303 -7.3698e-19 0.15939 1.60871e-17 -4.33989e-36)
(-0.166532 1.20502 -2.97986e-19 0.166788 -2.61481e-18 1.52252e-35)
(1.50708 -4.6208 1.38193e-17 -1.5062 -3.33375e-18 2.09337e-35)
(0.271293 -1.69111 -4.77669e-17 -0.27054 -1.09357e-17 -4.24405e-34)