/*--------------------------------*- C++ -*----------------------------------*\
| =========                 |                                                 |
| \\      /  F ield         | foam-extend: Open Source CFD                    |
|  \\    /   O peration     | Version:  3.0                                   |
|   \\  /    A nd           | Web:         http://www.extend-project.de       |
|    \\/     M anipulation  |                                                 |
\*---------------------------------------------------------------------------*/
FoamFile
{
    version     2.0;
    format      ascii;
    class       volVectorField;
    location    "32";
    object      u;
}
// * * * * * * * * * * * * * * * * * * * * * * * * * * * * * * * * * * * * * //

dimensions      [0 0 0 0 0 0 0];

internalField   nonuniform List<vector> 
576
(
(0.0533841 -0.0283717 2.142e-20)
(0.137806 -0.0362849 3.91606e-19)
(0.255577 -0.0497506 -5.63888e-19)
(0.386851 -0.0531153 -7.76421e-19)
(0.497473 -0.0555497 -2.35218e-19)
(0.620345 -0.054315 4.11238e-19)
(0.709937 -0.0518262 2.85446e-19)
(0.811208 -0.0465332 2.2167e-19)
(0.871616 -0.0404261 -1.89459e-19)
(0.945145 -0.0310644 -9.16843e-20)
(0.969488 -0.0211013 4.90068e-19)
(1.00876 -0.00753253 -6.16524e-20)
(0.0680723 -0.0831837 4.14733e-19)
(0.156589 -0.106387 -4.48274e-18)
(0.281332 -0.14587 -2.83623e-18)
(0.414348 -0.155737 -8.04953e-19)
(0.526231 -0.162884 1.51851e-18)
(0.648463 -0.15926 -1.54982e-19)
(0.736767 -0.151968 -4.92282e-19)
(0.835298 -0.136443 8.15405e-18)
(0.892546 -0.118543 6.39273e-18)
(0.961228 -0.0910862 1.52643e-18)
(0.980413 -0.0618772 -4.31131e-18)
(1.01265 -0.0220827 -4.54978e-18)
(0.0964439 -0.132326 -5.74576e-19)
(0.192876 -0.169237 2.31202e-18)
(0.331086 -0.23205 -7.41164e-19)
(0.467469 -0.247746 -6.33668e-18)
(0.581788 -0.259117 -2.9654e-18)
(0.702786 -0.253353 3.81453e-18)
(0.788602 -0.241755 8.37514e-18)
(0.88184 -0.217058 1.8874e-18)
(0.932981 -0.188582 1.02912e-17)
(0.992298 -0.144904 4.21327e-18)
(1.00152 -0.0984376 6.55231e-19)
(1.02019 -0.0351322 1.16721e-17)
(0.13657 -0.172451 -4.53274e-19)
(0.244195 -0.220556 1.12956e-18)
(0.401452 -0.302414 -3.1882e-18)
(0.542594 -0.32287 6.51629e-18)
(0.660363 -0.33769 -7.47255e-18)
(0.779612 -0.330179 -3.55415e-19)
(0.861912 -0.315064 -1.18763e-18)
(0.94766 -0.282877 1.13953e-17)
(0.990166 -0.245767 8.15778e-18)
(1.03624 -0.188842 1.14223e-17)
(1.03137 -0.128288 6.95392e-18)
(1.03084 -0.045783 2.58628e-17)
(0.185712 -0.200823 -1.76214e-19)
(0.307044 -0.256843 -1.42249e-18)
(0.487629 -0.352169 6.02047e-19)
(0.634601 -0.375991 -1.05892e-18)
(0.756593 -0.393252 4.31728e-18)
(0.873703 -0.384504 -1.04764e-17)
(0.951696 -0.366904 -6.0044e-18)
(1.02827 -0.32942 -1.96973e-17)
(1.0602 -0.286205 -1.80195e-17)
(1.09005 -0.219913 -8.87944e-18)
(1.06793 -0.149396 -4.60061e-18)
(1.04389 -0.0533166 -2.97999e-17)
(0.240525 -0.215511 2.22506e-19)
(0.377147 -0.275627 1.80931e-18)
(0.58375 -0.377925 -1.70172e-19)
(0.737224 -0.403489 -3.99296e-18)
(0.863928 -0.422012 -1.02825e-18)
(0.97865 -0.412625 -1.99159e-18)
(1.05184 -0.393738 -8.02051e-18)
(1.11818 -0.353512 2.12597e-18)
(1.13832 -0.307138 -7.70632e-18)
(1.15008 -0.235995 -1.4498e-17)
(1.1087 -0.160323 2.28177e-18)
(1.05844 -0.0572146 -7.12762e-18)
(0.297269 -0.21551 6.29946e-19)
(0.449719 -0.275627 4.28201e-19)
(0.683259 -0.377925 7.99666e-18)
(0.843464 -0.40349 1.6184e-18)
(0.975046 -0.422013 5.79382e-19)
(1.0873 -0.412625 -1.64763e-18)
(1.15551 -0.393739 9.37172e-19)
(1.21127 -0.353513 4.83993e-18)
(1.21919 -0.307139 -2.58918e-18)
(1.21222 -0.235996 3.47346e-18)
(1.15092 -0.160324 -1.15838e-18)
(1.07351 -0.0572146 -4.90799e-18)
(0.352082 -0.200824 3.30119e-19)
(0.519822 -0.256844 1.09071e-18)
(0.779381 -0.352169 5.03313e-18)
(0.946088 -0.375992 -5.29271e-18)
(1.08238 -0.393253 8.47201e-18)
(1.19224 -0.384506 -6.14464e-18)
(1.25566 -0.366907 -4.16474e-18)
(1.30118 -0.329421 8.48531e-19)
(1.29731 -0.286209 -1.33079e-17)
(1.27224 -0.219913 6.07837e-18)
(1.19169 -0.149399 -8.60344e-20)
(1.08806 -0.0533145 1.26203e-17)
(0.401224 -0.172451 5.01811e-19)
(0.582673 -0.220557 9.20072e-19)
(0.865558 -0.302414 -3.35353e-18)
(1.03809 -0.322872 5.6579e-18)
(1.17861 -0.337694 -5.57808e-18)
(1.28634 -0.330182 8.35362e-18)
(1.34544 -0.31507 -2.50417e-18)
(1.38179 -0.28288 -1.61014e-17)
(1.36734 -0.245773 -1.49869e-17)
(1.32605 -0.188842 -5.23999e-18)
(1.22825 -0.128292 -1.27956e-17)
(1.10111 -0.0457814 1.25317e-17)
(0.441351 -0.132326 8.57604e-19)
(0.633992 -0.169239 2.17145e-18)
(0.935925 -0.23205 5.92776e-20)
(1.11322 -0.247748 3.92455e-18)
(1.25719 -0.259121 3.90041e-19)
(1.36316 -0.253357 5.31913e-18)
(1.41875 -0.241761 8.11981e-18)
(1.44761 -0.21706 -2.99475e-18)
(1.42453 -0.188588 3.65435e-18)
(1.37 -0.144903 6.09337e-18)
(1.2581 -0.0984433 5.57522e-18)
(1.11176 -0.0351278 -5.94107e-18)
(0.469723 -0.0831828 2.51575e-19)
(0.670278 -0.106389 -2.52611e-19)
(0.985679 -0.145872 1.89131e-18)
(1.16634 -0.15574 -3.10994e-18)
(1.31275 -0.16289 2.43277e-18)
(1.41749 -0.159266 -1.74403e-19)
(1.47059 -0.151977 -1.08208e-18)
(1.49415 -0.136448 7.38945e-18)
(1.46497 -0.118551 6.32004e-18)
(1.40106 -0.0910877 9.19691e-18)
(1.27921 -0.0618845 1.3992e-17)
(1.11929 -0.0220806 -2.0148e-18)
(0.484411 -0.0283707 -3.7039e-20)
(0.689064 -0.036287 -2.22518e-18)
(1.01144 -0.0497514 -1.55188e-18)
(1.19384 -0.0531183 2.53643e-18)
(1.34151 -0.0555565 -1.89918e-18)
(1.44561 -0.0543203 6.09923e-19)
(1.49742 -0.051835 -1.63087e-18)
(1.51825 -0.0465366 1.65663e-18)
(1.4859 -0.040435 1.80557e-19)
(1.41715 -0.0310648 1.24684e-18)
(1.29014 -0.021109 1.43629e-18)
(1.12319 -0.00752821 2.33674e-18)
(0.48441 0.0283746 -2.36842e-20)
(0.689063 0.0362867 1.75093e-18)
(1.01144 0.0497582 1.91491e-18)
(1.19384 0.0531227 2.08803e-18)
(1.34151 0.0555619 2.01049e-18)
(1.44561 0.0543264 -1.7545e-20)
(1.49742 0.0518389 2.65697e-18)
(1.51825 0.0465457 -3.46263e-18)
(1.4859 0.0404369 -3.41541e-18)
(1.41715 0.0310746 -4.60174e-18)
(1.29014 0.0211056 1.60395e-19)
(1.12319 0.00753687 1.17741e-18)
(0.469725 0.083187 4.21661e-19)
(0.670281 0.106389 -1.364e-18)
(0.985683 0.145879 -3.25248e-19)
(1.16635 0.155746 1.58923e-18)
(1.31275 0.162896 3.72586e-18)
(1.41749 0.159273 7.9301e-19)
(1.47059 0.151982 -5.27151e-18)
(1.49416 0.136458 -3.06673e-18)
(1.46497 0.118554 -6.69679e-18)
(1.40106 0.0910979 -5.47648e-18)
(1.27921 0.0618821 8.17891e-19)
(1.11929 0.022089 -4.56372e-18)
(0.441351 0.132329 1.54736e-19)
(0.633992 0.16924 -4.04899e-18)
(0.935926 0.232057 -5.13273e-19)
(1.11322 0.247753 -5.93333e-18)
(1.25719 0.259128 1.45034e-18)
(1.36317 0.253364 -7.15408e-19)
(1.41875 0.241766 3.12671e-18)
(1.44761 0.217069 8.97573e-19)
(1.42453 0.188591 3.48384e-18)
(1.36999 0.144912 2.34091e-18)
(1.2581 0.0984409 4.10839e-21)
(1.11176 0.0351353 -1.04142e-17)
(0.401227 0.172455 -1.00964e-18)
(0.582676 0.220559 2.4179e-18)
(0.865564 0.302423 -3.37361e-18)
(1.0381 0.322879 -9.9025e-19)
(1.17862 0.337703 -7.8348e-18)
(1.28634 0.330192 5.84451e-18)
(1.34545 0.315077 1.03849e-17)
(1.3818 0.282891 6.71849e-18)
(1.36735 0.245778 1.77877e-17)
(1.32605 0.188852 1.26643e-17)
(1.22826 0.128293 -3.92113e-18)
(1.1011 0.0457882 4.82943e-18)
(0.352083 0.200827 -7.06392e-19)
(0.519823 0.256845 -1.35964e-18)
(0.779384 0.352177 -6.36791e-18)
(0.946091 0.375999 6.65911e-18)
(1.08239 0.393262 -1.30684e-18)
(1.19225 0.384515 3.42955e-18)
(1.25566 0.366914 2.85333e-18)
(1.30118 0.329431 6.04139e-18)
(1.29731 0.286214 1.17481e-17)
(1.27224 0.219921 1.02552e-17)
(1.1917 0.1494 3.53576e-18)
(1.08806 0.0533198 2.69744e-17)
(0.297272 0.215515 -7.01607e-19)
(0.449723 0.275631 -2.20873e-18)
(0.683266 0.377934 -1.58951e-18)
(0.84347 0.403499 -3.53639e-18)
(0.975056 0.422025 1.97915e-18)
(1.08731 0.412638 -4.40522e-18)
(1.15552 0.39375 -4.05328e-18)
(1.21127 0.353525 -1.69965e-17)
(1.2192 0.307147 3.77398e-18)
(1.21222 0.236005 -6.629e-18)
(1.15092 0.160328 2.80323e-19)
(1.07351 0.0572191 -9.23891e-18)
(0.240526 0.215514 -3.68418e-19)
(0.377147 0.275629 7.39131e-19)
(0.583754 0.377933 -1.44563e-18)
(0.737227 0.403497 -1.17639e-19)
(0.863936 0.422025 -4.34933e-18)
(0.978657 0.412637 6.34109e-19)
(1.05185 0.39375 -7.51314e-18)
(1.11819 0.353524 1.6082e-17)
(1.13832 0.307147 1.80762e-17)
(1.15008 0.236004 -8.88186e-18)
(1.10871 0.160328 5.68014e-18)
(1.05844 0.057218 -4.87835e-18)
(0.185715 0.200829 -1.96657e-19)
(0.307046 0.256847 -1.20843e-18)
(0.487635 0.352181 7.6375e-18)
(0.634606 0.376002 -2.68081e-18)
(0.756603 0.393268 4.04187e-18)
(0.873711 0.384519 -6.12076e-18)
(0.951705 0.36692 5.38287e-18)
(1.02828 0.329434 1.32505e-17)
(1.06021 0.286218 -6.59529e-19)
(1.09005 0.219922 -6.72502e-18)
(1.06793 0.149404 -5.07829e-18)
(1.04389 0.053319 -2.21076e-17)
(0.136571 0.172455 -7.48994e-19)
(0.244194 0.220559 2.53346e-18)
(0.401455 0.302424 -9.88314e-19)
(0.542596 0.32288 -4.62263e-18)
(0.66037 0.337708 1.34323e-18)
(0.779619 0.330195 -8.65992e-18)
(0.861919 0.315082 3.7709e-20)
(0.947665 0.282892 2.77133e-18)
(0.990169 0.245782 -1.33988e-17)
(1.03624 0.188851 -7.68124e-18)
(1.03137 0.128297 -1.26018e-17)
(1.03084 0.0457855 -3.57522e-18)
(0.0964468 0.132331 1.50514e-19)
(0.192876 0.169242 -2.25282e-19)
(0.331091 0.232062 -1.03942e-18)
(0.467472 0.247757 4.80608e-18)
(0.581796 0.259137 -6.42493e-18)
(0.702793 0.253371 5.01696e-18)
(0.788609 0.241776 -2.16243e-18)
(0.881845 0.217074 -1.59411e-17)
(0.932984 0.188598 -1.25984e-17)
(0.9923 0.144912 -1.62333e-17)
(1.00152 0.0984479 -1.54382e-17)
(1.02019 0.0351329 1.99004e-17)
(0.0680737 0.0831871 7.65705e-19)
(0.156588 0.10639 3.75002e-18)
(0.281335 0.145882 1.75056e-18)
(0.41435 0.155748 -2.28111e-18)
(0.526235 0.162904 3.75094e-18)
(0.648468 0.159279 -1.33161e-18)
(0.73677 0.151991 9.23929e-19)
(0.835303 0.136461 -1.90375e-18)
(0.892546 0.118561 1.29582e-18)
(0.96123 0.0910969 -1.25997e-18)
(0.980412 0.0618889 -1.73523e-18)
(1.01266 0.0220854 -8.76197e-18)
(0.053387 0.0283763 5.3366e-20)
(0.137804 0.0362891 1.94517e-19)
(0.255579 0.0497639 2.14617e-19)
(0.386852 0.0531275 -9.45707e-20)
(0.497474 0.0555729 -1.95148e-18)
(0.620347 0.0543344 6.79171e-19)
(0.709936 0.0518499 -1.23397e-18)
(0.81121 0.0465505 -4.91844e-19)
(0.871614 0.0404454 -2.39327e-18)
(0.945147 0.0310751 1.41374e-18)
(0.969485 0.0211137 -1.41956e-18)
(1.00876 0.00753368 -1.13958e-18)
(0.0533868 -0.0283698 -2.14723e-20)
(0.137804 -0.0362864 -3.91613e-19)
(0.255578 -0.0497473 5.63886e-19)
(0.386851 -0.0531154 7.76425e-19)
(0.497472 -0.0555472 2.35185e-19)
(0.620346 -0.0543141 -4.11179e-19)
(0.709935 -0.0518254 -2.85396e-19)
(0.81121 -0.0465332 -2.21607e-19)
(0.871613 -0.0404273 1.89451e-19)
(0.945148 -0.0310653 9.16534e-20)
(0.969484 -0.0211013 -4.90096e-19)
(1.00876 -0.00753183 6.16532e-20)
(0.0680733 -0.0831809 -4.14801e-19)
(0.156587 -0.106387 4.4829e-18)
(0.281333 -0.145866 2.83625e-18)
(0.414348 -0.155737 8.05073e-19)
(0.526231 -0.16288 -1.51853e-18)
(0.648465 -0.159259 1.55014e-19)
(0.736766 -0.151967 4.92252e-19)
(0.835301 -0.136444 -8.15418e-18)
(0.892543 -0.118543 -6.39293e-18)
(0.96123 -0.0910872 -1.52663e-18)
(0.980409 -0.0618772 4.3113e-18)
(1.01266 -0.0220833 4.54982e-18)
(0.0964459 -0.132324 5.74523e-19)
(0.192874 -0.16924 -2.31206e-18)
(0.331088 -0.232046 7.411e-19)
(0.467469 -0.247746 6.33676e-18)
(0.581789 -0.259113 2.96533e-18)
(0.702788 -0.253352 -3.81444e-18)
(0.788602 -0.241753 -8.37518e-18)
(0.881842 -0.217057 -1.88753e-18)
(0.932978 -0.188582 -1.02914e-17)
(0.9923 -0.144902 -4.21351e-18)
(1.00152 -0.0984369 -6.55321e-19)
(1.02019 -0.0351302 -1.16722e-17)
(0.136571 -0.172449 4.53256e-19)
(0.244192 -0.220557 -1.12956e-18)
(0.401451 -0.30241 3.18822e-18)
(0.542593 -0.32287 -6.51647e-18)
(0.660361 -0.337687 7.47246e-18)
(0.779612 -0.330178 3.55435e-19)
(0.86191 -0.315062 1.18786e-18)
(0.947661 -0.282877 -1.13954e-17)
(0.990163 -0.245767 -8.15778e-18)
(1.03624 -0.188841 -1.14224e-17)
(1.03136 -0.128287 -6.95396e-18)
(1.03084 -0.0457824 -2.58631e-17)
(0.185713 -0.200822 1.76196e-19)
(0.307044 -0.256845 1.42244e-18)
(0.487629 -0.352166 -6.02073e-19)
(0.634601 -0.375992 1.05901e-18)
(0.756592 -0.393248 -4.31728e-18)
(0.873704 -0.384503 1.04764e-17)
(0.951694 -0.366901 6.00453e-18)
(1.02827 -0.329419 1.96975e-17)
(1.0602 -0.286204 1.80197e-17)
(1.09005 -0.219912 8.87974e-18)
(1.06792 -0.149396 4.60065e-18)
(1.04389 -0.0533149 2.98003e-17)
(0.240525 -0.215509 -2.22503e-19)
(0.377145 -0.275629 -1.80944e-18)
(0.583749 -0.377922 1.70217e-19)
(0.737222 -0.40349 3.9929e-18)
(0.863925 -0.422009 1.0284e-18)
(0.978649 -0.412624 1.99143e-18)
(1.05184 -0.393735 8.0207e-18)
(1.11818 -0.353511 -2.1264e-18)
(1.13832 -0.307136 7.70634e-18)
(1.15008 -0.235994 1.44982e-17)
(1.1087 -0.160322 -2.28174e-18)
(1.05844 -0.0572135 7.12759e-18)
(0.29727 -0.215509 -6.29943e-19)
(0.44972 -0.275629 -4.2826e-19)
(0.683259 -0.377923 -7.99669e-18)
(0.843464 -0.40349 -1.61845e-18)
(0.975044 -0.42201 -5.79399e-19)
(1.0873 -0.412625 1.64758e-18)
(1.15551 -0.393737 -9.37224e-19)
(1.21127 -0.353512 -4.84008e-18)
(1.21919 -0.307138 2.58937e-18)
(1.21222 -0.235995 -3.4734e-18)
(1.15091 -0.160324 1.15844e-18)
(1.07351 -0.0572132 4.90797e-18)
(0.352082 -0.200822 -3.30094e-19)
(0.519821 -0.256846 -1.09082e-18)
(0.779378 -0.352168 -5.03293e-18)
(0.946086 -0.375994 5.2927e-18)
(1.08238 -0.393252 -8.4719e-18)
(1.19224 -0.384506 6.14447e-18)
(1.25565 -0.366905 4.16482e-18)
(1.30118 -0.329421 -8.48398e-19)
(1.2973 -0.286207 1.33081e-17)
(1.27224 -0.219912 -6.07841e-18)
(1.19169 -0.149398 8.61289e-20)
(1.08806 -0.0533136 -1.26209e-17)
(0.401224 -0.17245 -5.01792e-19)
(0.582673 -0.220558 -9.201e-19)
(0.865557 -0.302413 3.35361e-18)
(1.03809 -0.322873 -5.6581e-18)
(1.17861 -0.337693 5.57812e-18)
(1.28633 -0.330182 -8.35377e-18)
(1.34544 -0.315069 2.5041e-18)
(1.38179 -0.282879 1.61014e-17)
(1.36734 -0.245772 1.49869e-17)
(1.32605 -0.188842 5.23992e-18)
(1.22825 -0.128292 1.27955e-17)
(1.10111 -0.0457807 -1.25318e-17)
(0.44135 -0.132325 -8.57601e-19)
(0.633991 -0.169241 -2.17145e-18)
(0.935922 -0.23205 -5.93197e-20)
(1.11322 -0.247749 -3.92443e-18)
(1.25718 -0.259122 -3.9023e-19)
(1.36316 -0.253358 -5.3191e-18)
(1.41875 -0.241761 -8.11972e-18)
(1.44761 -0.217061 2.99446e-18)
(1.42453 -0.188588 -3.65466e-18)
(1.36999 -0.144903 -6.0937e-18)
(1.2581 -0.0984427 -5.57594e-18)
(1.11176 -0.035128 5.94135e-18)
(0.469721 -0.0831823 -2.51573e-19)
(0.670278 -0.106389 2.52673e-19)
(0.985677 -0.145872 -1.89124e-18)
(1.16634 -0.155741 3.10992e-18)
(1.31274 -0.16289 -2.43273e-18)
(1.41749 -0.159266 1.74383e-19)
(1.47059 -0.151977 1.08213e-18)
(1.49415 -0.136448 -7.3895e-18)
(1.46496 -0.118551 -6.32007e-18)
(1.40106 -0.0910876 -9.19695e-18)
(1.27921 -0.0618842 -1.3992e-17)
(1.11929 -0.0220807 2.01469e-18)
(0.484409 -0.0283712 3.70302e-20)
(0.689063 -0.0362877 2.22519e-18)
(1.01143 -0.049753 1.5519e-18)
(1.19384 -0.0531196 -2.53642e-18)
(1.34151 -0.0555583 1.8991e-18)
(1.44561 -0.0543219 -6.09919e-19)
(1.49742 -0.0518361 1.63083e-18)
(1.51825 -0.046538 -1.65664e-18)
(1.4859 -0.0404351 -1.80646e-19)
(1.41715 -0.0310659 -1.24682e-18)
(1.29013 -0.0211083 -1.43629e-18)
(1.12319 -0.0075292 -2.33675e-18)
(0.484408 0.028374 2.36741e-20)
(0.689062 0.0362871 -1.75091e-18)
(1.01143 0.0497575 -1.91488e-18)
(1.19384 0.0531229 -2.088e-18)
(1.34151 0.0555615 -2.0105e-18)
(1.44561 0.0543265 1.75374e-20)
(1.49742 0.0518389 -2.65697e-18)
(1.51824 0.0465459 3.46261e-18)
(1.4859 0.0404372 3.41538e-18)
(1.41715 0.0310748 4.60172e-18)
(1.29014 0.0211061 -1.604e-19)
(1.12319 0.00753658 -1.17741e-18)
(0.469723 0.0831853 -4.21707e-19)
(0.670279 0.106389 1.36409e-18)
(0.98568 0.145877 3.25313e-19)
(1.16634 0.155744 -1.58914e-18)
(1.31275 0.162894 -3.72588e-18)
(1.41749 0.159272 -7.93006e-19)
(1.47059 0.151981 5.27155e-18)
(1.49415 0.136456 3.06658e-18)
(1.46497 0.118554 6.69655e-18)
(1.40106 0.0910963 5.47627e-18)
(1.27921 0.0618828 -8.17932e-19)
(1.11929 0.0220877 4.56381e-18)
(0.441349 0.132328 -1.54758e-19)
(0.633991 0.16924 4.04896e-18)
(0.935924 0.232055 5.13249e-19)
(1.11322 0.247753 5.93339e-18)
(1.25719 0.259127 -1.45032e-18)
(1.36316 0.253364 7.15448e-19)
(1.41875 0.241766 -3.12685e-18)
(1.44761 0.217069 -8.97683e-19)
(1.42453 0.188592 -3.48406e-18)
(1.36999 0.144912 -2.34115e-18)
(1.2581 0.0984415 -4.18494e-21)
(1.11176 0.035135 1.0414e-17)
(0.401226 0.172453 1.00963e-18)
(0.582675 0.220559 -2.41791e-18)
(0.865562 0.30242 3.37369e-18)
(1.0381 0.322878 9.90114e-19)
(1.17862 0.337701 7.83477e-18)
(1.28634 0.33019 -5.84448e-18)
(1.34545 0.315076 -1.03846e-17)
(1.38179 0.282889 -6.71868e-18)
(1.36735 0.245778 -1.77877e-17)
(1.32605 0.188851 -1.26644e-17)
(1.22825 0.128293 3.92109e-18)
(1.1011 0.0457869 -4.82987e-18)
(0.352082 0.200824 7.06374e-19)
(0.519822 0.256846 1.35962e-18)
(0.779382 0.352175 6.36785e-18)
(0.946089 0.375999 -6.659e-18)
(1.08239 0.393262 1.30672e-18)
(1.19225 0.384514 -3.42945e-18)
(1.25566 0.366915 -2.85323e-18)
(1.30118 0.329431 -6.04111e-18)
(1.29731 0.286214 -1.17476e-17)
(1.27224 0.219921 -1.02547e-17)
(1.1917 0.1494 -3.53578e-18)
(1.08806 0.0533197 -2.69738e-17)
(0.297272 0.215512 7.01604e-19)
(0.449722 0.275631 2.20862e-18)
(0.683265 0.377931 1.58954e-18)
(0.84347 0.403497 3.53633e-18)
(0.975056 0.422023 -1.97899e-18)
(1.08731 0.412635 4.40503e-18)
(1.15552 0.393749 4.05351e-18)
(1.21127 0.353523 1.69961e-17)
(1.2192 0.307147 -3.77406e-18)
(1.21222 0.236004 6.62912e-18)
(1.15092 0.160328 -2.80304e-19)
(1.07351 0.0572183 9.23888e-18)
(0.240525 0.21551 3.68404e-19)
(0.377145 0.27563 -7.39152e-19)
(0.583753 0.37793 1.44555e-18)
(0.737226 0.403497 1.17606e-19)
(0.863935 0.422024 4.34925e-18)
(0.978655 0.412635 -6.34123e-19)
(1.05185 0.39375 7.51307e-18)
(1.11819 0.353523 -1.60822e-17)
(1.13832 0.307148 -1.80759e-17)
(1.15008 0.236004 8.88184e-18)
(1.10871 0.160328 -5.68007e-18)
(1.05844 0.0572187 4.87834e-18)
(0.185715 0.200825 1.96671e-19)
(0.307045 0.256848 1.20832e-18)
(0.487636 0.352176 -7.63728e-18)
(0.634606 0.376001 2.68077e-18)
(0.756604 0.393266 -4.04175e-18)
(0.873712 0.384517 6.12058e-18)
(0.951707 0.366919 -5.38278e-18)
(1.02828 0.329433 -1.32504e-17)
(1.06021 0.286219 6.59852e-19)
(1.09006 0.219922 6.72499e-18)
(1.06793 0.149405 5.07844e-18)
(1.04389 0.0533196 2.21071e-17)
(0.136572 0.17245 7.48993e-19)
(0.244192 0.220559 -2.53347e-18)
(0.401455 0.30242 9.88368e-19)
(0.542595 0.322879 4.62244e-18)
(0.660369 0.337705 -1.34319e-18)
(0.779617 0.330193 8.65977e-18)
(0.861919 0.315082 -3.77393e-20)
(0.947663 0.282892 -2.77122e-18)
(0.990171 0.245783 1.33989e-17)
(1.03624 0.188852 7.68119e-18)
(1.03137 0.128298 1.26018e-17)
(1.03084 0.0457872 3.57506e-18)
(0.0964481 0.132327 -1.50517e-19)
(0.192875 0.169243 2.25278e-19)
(0.331092 0.232057 1.03936e-18)
(0.467471 0.247758 -4.80596e-18)
(0.581798 0.259134 6.42473e-18)
(0.702791 0.25337 -5.01689e-18)
(0.788612 0.241775 2.16251e-18)
(0.881843 0.217073 1.59409e-17)
(0.932986 0.188599 1.25982e-17)
(0.9923 0.144913 1.6233e-17)
(1.00152 0.0984483 1.54377e-17)
(1.02019 0.0351333 -1.99003e-17)
(0.0680739 0.0831823 -7.65718e-19)
(0.156586 0.10639 -3.74992e-18)
(0.281335 0.145878 -1.75051e-18)
(0.414348 0.155747 2.28109e-18)
(0.526236 0.162901 -3.7509e-18)
(0.648465 0.159276 1.33164e-18)
(0.736772 0.151989 -9.23818e-19)
(0.8353 0.13646 1.90372e-18)
(0.892549 0.118561 -1.29579e-18)
(0.961228 0.0910978 1.25994e-18)
(0.980415 0.0618888 1.7352e-18)
(1.01265 0.0220857 8.76188e-18)
(0.0533871 0.0283733 -5.33599e-20)
(0.137802 0.0362906 -1.94465e-19)
(0.255579 0.0497605 -2.14617e-19)
(0.386848 0.0531276 9.46047e-20)
(0.497474 0.0555711 1.95139e-18)
(0.620342 0.0543347 -6.79187e-19)
(0.709937 0.0518504 1.2339e-18)
(0.811206 0.0465507 4.91829e-19)
(0.871616 0.0404461 2.39317e-18)
(0.945144 0.0310763 -1.41374e-18)
(0.969488 0.0211147 1.41954e-18)
(1.00876 0.0075359 1.13955e-18)
)
;

boundaryField
{
    out
    {
        type            fixedValue;
        value           uniform (1 0 0);
    }
    in
    {
        type            fixedValue;
        value           uniform (0 0 0);
    }
    frontAndBack
    {
        type            empty;
    }
}


// ************************************************************************* //
