/*--------------------------------*- C++ -*----------------------------------*\
| =========                 |                                                 |
| \\      /  F ield         | foam-extend: Open Source CFD                    |
|  \\    /   O peration     | Version:  3.0                                   |
|   \\  /    A nd           | Web:         http://www.extend-project.de       |
|    \\/     M anipulation  |                                                 |
\*---------------------------------------------------------------------------*/
FoamFile
{
    version     2.0;
    format      ascii;
    class       volVectorField;
    location    "14";
    object      u;
}
// * * * * * * * * * * * * * * * * * * * * * * * * * * * * * * * * * * * * * //

dimensions      [0 0 0 0 0 0 0];

internalField   nonuniform List<vector> 
400
(
(-0.0358426 -0.0737947 0)
(-0.0833989 0.0565264 0)
(-0.226525 0.0601266 0)
(-0.253254 0.0584272 0)
(-0.370667 0.0501557 0)
(-0.37975 0.0375701 0)
(-0.468405 0.0295618 0)
(-0.458126 0.0206121 0)
(-0.524283 0.0136932 0)
(-0.492038 0.00741974 0)
(-0.540681 -0.000775323 0)
(-0.481489 -0.00521503 0)
(-0.518143 -0.01816 0)
(-0.422521 -0.0203904 0)
(-0.455892 -0.0455672 0)
(-0.30424 -0.0386308 0)
(-0.354634 -0.09584 0)
(-0.102125 -0.0338672 0)
(-0.235101 -0.13755 0)
(0.181191 0.115238 0)
(-0.0994514 0.193111 0)
(-0.112414 0.135321 0)
(-0.211869 0.110006 0)
(-0.230575 0.0858137 0)
(-0.309049 0.0764034 0)
(-0.324332 0.0602066 0)
(-0.385064 0.0488599 0)
(-0.388429 0.0352971 0)
(-0.430121 0.0202652 0)
(-0.4169 0.00900566 0)
(-0.440579 -0.00973292 0)
(-0.407776 -0.0173072 0)
(-0.415898 -0.0407812 0)
(-0.360812 -0.0418669 0)
(-0.357875 -0.0727053 0)
(-0.280014 -0.0626497 0)
(-0.272052 -0.106266 0)
(-0.185414 -0.0856696 0)
(-0.153135 -0.145697 0)
(-0.109168 -0.169033 0)
(-0.0465461 0.137971 0)
(-0.0882589 0.167747 0)
(-0.175549 0.178094 0)
(-0.214348 0.154824 0)
(-0.283594 0.144122 0)
(-0.308119 0.113187 0)
(-0.357815 0.0941586 0)
(-0.367683 0.0654933 0)
(-0.398575 0.0428049 0)
(-0.394211 0.0177296 0)
(-0.407048 -0.00928046 0)
(-0.38809 -0.0302219 0)
(-0.382996 -0.0646766 0)
(-0.348612 -0.0791112 0)
(-0.324887 -0.126169 0)
(-0.274714 -0.125651 0)
(-0.230493 -0.190345 0)
(-0.16775 -0.154304 0)
(-0.100136 -0.213272 0)
(-0.0396022 -0.146879 0)
(-0.0599829 0.327998 0)
(-0.0961405 0.265248 0)
(-0.168982 0.236288 0)
(-0.189245 0.193779 0)
(-0.242412 0.170282 0)
(-0.254738 0.134397 0)
(-0.293683 0.108573 0)
(-0.298109 0.0760448 0)
(-0.32229 0.0469326 0)
(-0.317756 0.0174232 0)
(-0.326726 -0.0157762 0)
(-0.313111 -0.0415053 0)
(-0.306755 -0.0802677 0)
(-0.285651 -0.100212 0)
(-0.263256 -0.146671 0)
(-0.239563 -0.157266 0)
(-0.19585 -0.213302 0)
(-0.180243 -0.215967 0)
(-0.0913203 -0.273926 0)
(-0.0876164 -0.308577 0)
(-0.0400717 0.294197 0)
(-0.0815943 0.275979 0)
(-0.145905 0.270942 0)
(-0.176625 0.228081 0)
(-0.225779 0.209546 0)
(-0.244665 0.164352 0)
(-0.278784 0.137477 0)
(-0.287488 0.0939808 0)
(-0.306817 0.0623663 0)
(-0.306836 0.022003 0)
(-0.311352 -0.0140609 0)
(-0.303686 -0.0503969 0)
(-0.292596 -0.0923082 0)
(-0.278164 -0.122817 0)
(-0.249321 -0.172407 0)
(-0.229727 -0.193162 0)
(-0.17839 -0.249686 0)
(-0.15702 -0.258718 0)
(-0.0752649 -0.305736 0)
(-0.0534373 -0.325629 0)
(-0.0351492 0.44977 0)
(-0.0705811 0.371913 0)
(-0.125664 0.331401 0)
(-0.144028 0.273615 0)
(-0.184052 0.238279 0)
(-0.192479 0.187328 0)
(-0.219975 0.151325 0)
(-0.221916 0.103968 0)
(-0.237719 0.0661654 0)
(-0.234858 0.0218088 0)
(-0.238956 -0.0190746 0)
(-0.232582 -0.0604272 0)
(-0.224166 -0.105938 0)
(-0.215868 -0.143617 0)
(-0.192677 -0.195199 0)
(-0.184677 -0.228214 0)
(-0.141133 -0.285983 0)
(-0.135666 -0.318937 0)
(-0.0609206 -0.377381 0)
(-0.0519411 -0.437116 0)
(-0.0341794 0.400006 0)
(-0.0678586 0.365271 0)
(-0.119147 0.343967 0)
(-0.140246 0.286255 0)
(-0.177107 0.257853 0)
(-0.188391 0.20014 0)
(-0.212471 0.166783 0)
(-0.217008 0.11157 0)
(-0.229741 0.0751528 0)
(-0.229907 0.0230624 0)
(-0.231736 -0.0165061 0)
(-0.228985 -0.0653607 0)
(-0.21894 -0.10917 0)
(-0.213871 -0.154427 0)
(-0.189279 -0.203669 0)
(-0.181762 -0.244715 0)
(-0.138152 -0.298645 0)
(-0.127416 -0.338803 0)
(-0.0605431 -0.389324 0)
(-0.0425381 -0.438349 0)
(-0.0248899 0.551915 0)
(-0.0451695 0.457542 0)
(-0.0886479 0.403801 0)
(-0.0983049 0.331509 0)
(-0.128249 0.286344 0)
(-0.13069 0.222601 0)
(-0.149549 0.179843 0)
(-0.147893 0.121122 0)
(-0.157917 0.0789397 0)
(-0.15469 0.0236683 0)
(-0.156696 -0.0201268 0)
(-0.153676 -0.0733477 0)
(-0.146766 -0.121155 0)
(-0.145102 -0.173353 0)
(-0.126459 -0.227343 0)
(-0.126644 -0.279325 0)
(-0.0914733 -0.34027 0)
(-0.0927335 -0.396438 0)
(-0.0365808 -0.462141 0)
(-0.0338888 -0.540089 0)
(-0.0318905 0.470118 0)
(-0.0517014 0.427286 0)
(-0.0944328 0.396561 0)
(-0.103012 0.325613 0)
(-0.129922 0.290094 0)
(-0.131721 0.221328 0)
(-0.147167 0.183889 0)
(-0.146061 0.119834 0)
(-0.153458 0.0818532 0)
(-0.152335 0.0217389 0)
(-0.153042 -0.0176082 0)
(-0.153483 -0.0753734 0)
(-0.146483 -0.1178 0)
(-0.148617 -0.174772 0)
(-0.130554 -0.222129 0)
(-0.132929 -0.279674 0)
(-0.0989077 -0.332499 0)
(-0.0984212 -0.393617 0)
(-0.0450504 -0.448083 0)
(-0.0359992 -0.508734 0)
(-0.0187226 0.635598 0)
(-0.0185571 0.520647 0)
(-0.0525718 0.455117 0)
(-0.0487774 0.366949 0)
(-0.0686182 0.315008 0)
(-0.0623382 0.239813 0)
(-0.0725065 0.194157 0)
(-0.0657782 0.127386 0)
(-0.0704624 0.0851887 0)
(-0.0657105 0.0232271 0)
(-0.0667086 -0.0189961 0)
(-0.0657091 -0.0799155 0)
(-0.0621885 -0.126017 0)
(-0.0658814 -0.189265 0)
(-0.0545048 -0.242999 0)
(-0.0629703 -0.310927 0)
(-0.0386395 -0.374726 0)
(-0.0508279 -0.450239 0)
(-0.0101746 -0.524504 0)
(-0.0231099 -0.621091 0)
(-0.0315682 0.507425 0)
(-0.0345987 0.458875 0)
(-0.0694165 0.426167 0)
(-0.0616789 0.341441 0)
(-0.0776235 0.303568 0)
(-0.0670048 0.22519 0)
(-0.0729379 0.187334 0)
(-0.0643457 0.117806 0)
(-0.0663485 0.0818184 0)
(-0.0628862 0.0180203 0)
(-0.0633979 -0.01756 0)
(-0.0666203 -0.0798423 0)
(-0.0646277 -0.117565 0)
(-0.0745016 -0.182394 0)
(-0.0656345 -0.224975 0)
(-0.0800981 -0.295485 0)
(-0.0573471 -0.344596 0)
(-0.0715244 -0.422053 0)
(-0.0285645 -0.475777 0)
(-0.0335547 -0.54199 0)
(-0.0111762 0.701846 0)
(0.0127202 0.559091 0)
(-0.0094357 0.482263 0)
(0.0108011 0.375173 0)
(0.0039588 0.320373 0)
(0.0209824 0.235202 0)
(0.0214226 0.191591 0)
(0.0343323 0.120906 0)
(0.0355168 0.0838479 0)
(0.0425142 0.0204009 0)
(0.0417508 -0.0151344 0)
(0.0414443 -0.0785595 0)
(0.039469 -0.118014 0)
(0.0309433 -0.188149 0)
(0.0316326 -0.237312 0)
(0.0143 -0.31915 0)
(0.0241785 -0.383266 0)
(-0.00217164 -0.479014 0)
(0.0223059 -0.562472 0)
(-0.0123311 -0.683214 0)
(-0.0338025 0.505891 0)
(-0.0165474 0.454406 0)
(-0.0406985 0.427458 0)
(-0.0111983 0.327902 0)
(-0.0116404 0.293398 0)
(0.0149621 0.207817 0)
(0.0214179 0.174117 0)
(0.0392848 0.103866 0)
(0.0435351 0.0738113 0)
(0.0502229 0.0119649 0)
(0.0490291 -0.0163052 0)
(0.0433817 -0.0773849 0)
(0.0376128 -0.106898 0)
(0.0192673 -0.174418 0)
(0.0141219 -0.208223 0)
(-0.0155524 -0.287965 0)
(-0.00927856 -0.328103 0)
(-0.0443478 -0.420201 0)
(-0.0117244 -0.465654 0)
(-0.036 -0.532035 0)
(0.00240843 0.752277 0)
(0.0543226 0.566832 0)
(0.0526273 0.477102 0)
(0.0902908 0.346224 0)
(0.10285 0.294347 0)
(0.130114 0.202329 0)
(0.144376 0.167479 0)
(0.162507 0.0990237 0)
(0.170416 0.073154 0)
(0.179221 0.015155 0)
(0.178028 -0.00805244 0)
(0.177098 -0.0669167 0)
(0.167401 -0.0937001 0)
(0.155816 -0.164493 0)
(0.141297 -0.202376 0)
(0.117094 -0.295687 0)
(0.105557 -0.354467 0)
(0.0650253 -0.476606 0)
(0.0658947 -0.570866 0)
(0.0042527 -0.730983 0)
(-0.0470765 0.449163 0)
(0.00481417 0.40105 0)
(-0.0010653 0.390919 0)
(0.0593298 0.277649 0)
(0.0835704 0.253693 0)
(0.128851 0.16649 0)
(0.152193 0.141962 0)
(0.179343 0.0780851 0)
(0.191166 0.0573719 0)
(0.201183 0.00462535 0)
(0.198872 -0.0139165 0)
(0.192023 -0.0665136 0)
(0.175855 -0.0854028 0)
(0.150584 -0.148146 0)
(0.124424 -0.16939 0)
(0.0784507 -0.252178 0)
(0.0558576 -0.276055 0)
(-0.00841452 -0.380611 0)
(0.00579525 -0.404972 0)
(-0.05147 -0.461943 0)
(0.0372843 0.79463 0)
(0.112863 0.522245 0)
(0.155478 0.42289 0)
(0.201537 0.261773 0)
(0.243683 0.225015 0)
(0.272761 0.133955 0)
(0.303284 0.117257 0)
(0.320513 0.0603443 0)
(0.335038 0.0516089 0)
(0.342744 0.00774096 0)
(0.340816 0.0013793 0)
(0.339972 -0.0436547 0)
(0.321946 -0.052059 0)
(0.311886 -0.11291 0)
(0.278945 -0.130157 0)
(0.256355 -0.227097 0)
(0.213454 -0.267646 0)
(0.169044 -0.426626 0)
(0.125907 -0.52789 0)
(0.0397178 -0.776725 0)
(-0.0764015 0.29902 0)
(0.0524313 0.279388 0)
(0.0963397 0.301879 0)
(0.195551 0.189565 0)
(0.260598 0.182693 0)
(0.319722 0.10716 0)
(0.363858 0.0944964 0)
(0.394422 0.0466251 0)
(0.414241 0.0354364 0)
(0.425239 -0.0008683 0)
(0.422556 -0.0108823 0)
(0.417032 -0.0474136 0)
(0.39112 -0.057132 0)
(0.36607 -0.105014 0)
(0.313942 -0.113797 0)
(0.260195 -0.18669 0)
(0.185996 -0.188818 0)
(0.0916272 -0.293183 0)
(0.0433648 -0.275778 0)
(-0.0769922 -0.296395 0)
(0.14688 0.818699 0)
(0.167171 0.351699 0)
(0.305938 0.279993 0)
(0.314778 0.0976899 0)
(0.393371 0.100988 0)
(0.399116 0.0309084 0)
(0.441636 0.0427841 0)
(0.445049 0.0102049 0)
(0.462948 0.0210265 0)
(0.464651 -0.000350551 0)
(0.462861 0.00978127 0)
(0.463381 -0.0120592 0)
(0.442014 -0.000988474 0)
(0.441635 -0.035674 0)
(0.39653 -0.0242911 0)
(0.394703 -0.0992144 0)
(0.31749 -0.0991953 0)
(0.308389 -0.284123 0)
(0.181421 -0.359366 0)
(0.134744 -0.810425 0)
(0.107739 -0.0150193 0)
(0.299088 0.117122 0)
(0.504177 0.154389 0)
(0.604594 0.102414 0)
(0.712958 0.098662 0)
(0.758417 0.059166 0)
(0.80938 0.0488141 0)
(0.827714 0.0255495 0)
(0.846623 0.0160537 0)
(0.852039 -0.000583434 0)
(0.848964 -0.00944465 0)
(0.846123 -0.0264366 0)
(0.82036 -0.0353047 0)
(0.806732 -0.0594992 0)
(0.745987 -0.066897 0)
(0.709883 -0.10773 0)
(0.584958 -0.102634 0)
(0.502227 -0.157264 0)
(0.272863 -0.102279 0)
(0.117968 0.0196978 0)
(0.276721 0.411966 0)
(0.120241 -0.0428538 0)
(0.351109 -0.0253608 0)
(0.249412 -0.111044 0)
(0.342637 -0.0528206 0)
(0.295408 -0.0654276 0)
(0.336531 -0.0264232 0)
(0.317946 -0.0269382 0)
(0.33528 -0.00321278 0)
(0.330909 -0.00262247 0)
(0.332179 0.0157337 0)
(0.337279 0.0165459 0)
(0.322344 0.0383565 0)
(0.340359 0.0386106 0)
(0.301461 0.0724206 0)
(0.345863 0.0616486 0)
(0.255349 0.108276 0)
(0.351469 0.0278167 0)
(0.125871 0.0248222 0)
(0.273998 -0.419634 0)
)
;

boundaryField
{
    cavity
    {
        type            myImplicitVelocity;
    }
    lid
    {
        type            fixedValue;
        value           uniform (1 0 0);
    }
    frontAndBack
    {
        type            empty;
    }
}


// ************************************************************************* //
