/*--------------------------------*- C++ -*----------------------------------*\
| =========                 |                                                 |
| \\      /  F ield         | foam-extend: Open Source CFD                    |
|  \\    /   O peration     | Version:  3.0                                   |
|   \\  /    A nd           | Web:         http://www.extend-project.de       |
|    \\/     M anipulation  |                                                 |
\*---------------------------------------------------------------------------*/
FoamFile
{
    version     2.0;
    format      ascii;
    class       volSymmTensorField;
    location    "31";
    object      sigma;
}
// * * * * * * * * * * * * * * * * * * * * * * * * * * * * * * * * * * * * * //

dimensions      [0 0 0 0 0 0 0];

internalField   nonuniform List<symmTensor> 
672
(
(-0.1681028528 -0.01022255378 -9.077607048e-20 0.1680226059 -1.078733661e-19 8.024680729e-05)
(-0.154764478 -0.01180292905 -4.87496467e-19 0.1545640785 9.852407034e-20 0.0002003995581)
(-0.13672732 -0.01178547089 -1.547769086e-19 0.1364277882 5.641152516e-19 0.0002995318819)
(-0.1170250635 -0.0109287059 -2.111210764e-19 0.1166438464 3.255912097e-19 0.0003812171597)
(-0.09958541904 -0.009970134328 -8.417086426e-19 0.09913888293 1.347380365e-18 0.0004465361033)
(-0.08289678717 -0.008933982037 -4.62329399e-19 0.08240260664 -5.635570597e-19 0.0004941805254)
(-0.06861901241 -0.007980354199 -5.224843108e-19 0.06809733009 1.936737809e-18 0.0005216823197)
(-0.05583481953 -0.007177127146 -2.231699904e-19 0.05531052265 -1.286751031e-18 0.0005242968744)
(-0.04484230597 -0.006457469016 -8.938465625e-19 0.04434612338 5.537094419e-19 0.000496182587)
(-0.03598243052 -0.005981565963 -2.644714376e-20 0.03555399546 -1.140299372e-18 0.0004284350593)
(-0.02866679492 -0.005624433224 -1.610908876e-20 0.0283563859 1.740084041e-18 0.0003104090198)
(-0.02412605261 -0.005545271205 8.563462618e-20 0.02399894667 -2.54858516e-18 0.0001271059374)
(-0.1653368203 -0.03033680418 -4.968697363e-20 0.165257766 2.823403857e-19 7.905433477e-05)
(-0.1501347067 -0.03467113912 -4.658846937e-19 0.1499373362 -4.306017806e-19 0.0001973705437)
(-0.1314686756 -0.03441906719 -9.61546112e-20 0.1311735763 2.493078213e-19 0.0002950993776)
(-0.1118139769 -0.03176200943 9.036884255e-19 0.1114384012 -1.239784724e-18 0.0003755756314)
(-0.0946018232 -0.02881766737 -9.092969543e-19 0.0941619268 5.851396168e-20 0.0004398963948)
(-0.07823988503 -0.02565122407 7.607480457e-19 0.07775309637 -1.268268441e-18 0.0004867886629)
(-0.06431334871 -0.02271067497 -1.175502142e-18 0.06379956527 -5.621205769e-19 0.0005137834415)
(-0.05181191032 -0.02020312557 -1.818571904e-18 0.05129565629 -1.998228057e-18 0.0005162540276)
(-0.04109898519 -0.01790467221 -9.163566971e-19 0.04061055549 6.745034923e-19 0.0004884296958)
(-0.03240485307 -0.01631111828 2.488452884e-19 0.03198323751 -3.698761706e-19 0.0004216155597)
(-0.02519927174 -0.01501600532 -1.587111377e-18 0.02489393582 7.973177093e-20 0.0003053359174)
(-0.02068341716 -0.01448461324 4.107117774e-19 0.02055845668 -3.64607275e-19 0.0001249604803)
(-0.1599178772 -0.04975278977 -4.224093546e-19 0.1598409946 2.369217533e-19 7.688254125e-05)
(-0.1412477867 -0.05579393741 -5.78544178e-19 0.1410558186 2.057468402e-19 0.0001919680552)
(-0.1214325995 -0.05489094243 -1.130763672e-18 0.1211456109 1.423994481e-18 0.0002869886781)
(-0.1019021258 -0.05037188201 -8.754898855e-20 0.1015368781 -6.376060004e-19 0.0003652477827)
(-0.08514837162 -0.04548433038 -1.132004715e-18 0.08472061797 1.577974828e-18 0.0004277536556)
(-0.06942852489 -0.04028731879 -7.480286073e-19 0.06895523529 -1.116116317e-18 0.0004732895971)
(-0.05619563483 -0.03548530947 -1.504517925e-18 0.05569617839 1.027885059e-18 0.0004994564405)
(-0.0442435044 -0.0313667952 3.774439389e-19 0.04374175723 -6.442818043e-19 0.0005017471682)
(-0.03410521751 -0.02759884201 1.051749702e-19 0.03363062798 1.214327384e-18 0.0004745895299)
(-0.0257245144 -0.0249321689 -4.368893447e-20 0.02531497836 -2.241158746e-18 0.0004095360427)
(-0.0187981915 -0.02274567434 -7.831557102e-19 0.01850170789 1.002345003e-18 0.0002964836106)
(-0.01431851801 -0.02174111659 5.0500549e-19 0.01419724312 -2.139374185e-18 0.0001212748943)
(-0.1520517767 -0.06805386679 6.008876858e-19 0.1519780392 -1.26116108e-18 7.373752125e-05)
(-0.1287778999 -0.07419131568 2.518918208e-19 0.1285937525 3.827715274e-19 0.0001841474084)
(-0.1074878958 -0.07200627374 -2.794659808e-19 0.1072126358 -2.09617483e-19 0.0002752599534)
(-0.08819755361 -0.06553456352 3.796067684e-19 0.08784723261 9.513499894e-19 0.0003503209979)
(-0.07212436115 -0.05877755955 -4.692940682e-19 0.07171413789 -9.157828664e-19 0.0004102232586)
(-0.05733291793 -0.05170980907 -3.024443574e-19 0.05687908679 3.454276142e-19 0.0004538311346)
(-0.04508326367 -0.04524450954 -1.227678297e-18 0.04460443245 4.370868516e-19 0.0004788312227)
(-0.03393080177 -0.03966678607 -2.910069191e-18 0.03344988966 4.993378518e-19 0.0004809121092)
(-0.02459495084 -0.03459382519 -1.347000125e-18 0.02414020368 -1.381311049e-18 0.0004547471652)
(-0.01669795276 -0.03093935109 -1.553056629e-18 0.01630568089 2.566384592e-18 0.0003922718694)
(-0.01015357352 -0.0279144758 -1.095221135e-18 0.009869717238 -1.329918068e-18 0.0002838562863)
(-0.005779028222 -0.02644683058 3.137154813e-19 0.005662994716 1.441536131e-18 0.0001160335061)
(-0.1420221466 -0.08489444397 1.438698736e-19 0.141952489 5.365295212e-19 6.965756625e-05)
(-0.1136517787 -0.08915447953 8.36964033e-19 0.1134777804 1.074182165e-19 0.0001739983083)
(-0.09082664399 -0.08491576443 -7.25951614e-19 0.09056658427 5.92382886e-19 0.0002600597184)
(-0.07194419417 -0.07639161494 -6.309709325e-20 0.07161321705 -3.992563354e-19 0.000330977119)
(-0.0567629234 -0.06786245178 -1.301980244e-18 0.05637539699 -1.841599576e-19 0.0003875264125)
(-0.04313190456 -0.05912890995 3.006140705e-19 0.04270324356 5.333526048e-19 0.000428660991)
(-0.03209892018 -0.05125202506 4.043820315e-19 0.03164673749 2.019181165e-19 0.0004521826923)
(-0.02192650762 -0.0444065449 -1.435376958e-18 0.02147247555 1.04297143e-18 0.0004540320775)
(-0.01359358467 -0.0382478023 1.061444304e-18 0.01316438882 1.253862412e-18 0.0004291958493)
(-0.006283096894 -0.03370578402 1.074438022e-18 0.005913006996 -1.724018762e-19 0.000370089898)
(-0.0002526493741 -0.02994312716 -3.154202224e-18 -1.503678846e-05 9.10410268e-19 0.0002676861625)
(0.003984000004 -0.02799824961 3.501974276e-19 -0.004093355579 1.974485987e-19 0.0001093555754)
(-0.1301709761 -0.1000126158 -9.7534296e-19 0.1301062771 9.850170188e-19 6.469905185e-05)
(-0.0969459281 -0.1002880101 2.795453065e-19 0.09678427566 6.394783685e-19 0.000161652438)
(-0.07282339252 -0.09318830502 -7.300226892e-19 0.07258180706 1.009823144e-18 0.0002415854612)
(-0.05457675362 -0.08252261569 -5.266689418e-19 0.05426928943 1.335338082e-18 0.0003074641902)
(-0.04047875634 -0.072345739 -4.891668234e-21 0.04011880426 -2.292049201e-19 0.0003599520879)
(-0.02819051326 -0.0621833255 -1.249762672e-18 0.02779241824 9.763149861e-19 0.0003980950211)
(-0.01852072332 -0.05318132784 8.747602759e-19 0.01810088424 -2.026548843e-19 0.000419839073)
(-0.00947584318 -0.04528759154 -1.729224543e-18 0.009054411468 2.286247718e-19 0.0004214317117)
(-0.002249963596 -0.03828385177 -3.092248932e-18 0.001851734755 -1.451487242e-18 0.0003982288406)
(0.004355460789 -0.03297741248 7.785724667e-19 -0.004698695975 1.706578965e-18 0.0003432351863)
(0.009805467518 -0.02856812636 1.817734022e-18 -0.01005359145 -6.561697364e-19 0.0002481239285)
(0.01383359324 -0.02615719841 -6.353522212e-19 -0.01393487789 3.407523461e-19 0.0001012846486)
(-0.1168629197 -0.1132441297 4.612120215e-19 0.1168039981 -5.458489907e-19 5.892163581e-05)
(-0.07976939469 -0.1075576581 3.034547909e-20 0.07962213554 6.967245676e-19 0.0001472591452)
(-0.05489482646 -0.0968565558 1.8425681e-18 0.05467476235 -1.097514654e-18 0.0002200641128)
(-0.03756778907 -0.08399476132 -1.588202777e-18 0.03728771621 -3.520403674e-20 0.0002800728554)
(-0.0247309642 -0.07231304672 2.092938345e-19 0.02440311954 -2.375645183e-18 0.000327844655)
(-0.0139020936 -0.0609705251 -8.524324997e-19 0.01353957611 1.358702695e-18 0.0003625174915)
(-0.005676633629 -0.05113603847 1.591112543e-18 0.00529441891 -1.763648728e-18 0.0003822147191)
(0.002176791588 -0.04242049801 -2.638658651e-19 -0.002560321502 1.032600032e-18 0.0003835299138)
(0.008228886802 -0.03482134977 1.544412752e-18 -0.00859114472 5.768851191e-19 0.0003622579186)
(0.01408783337 -0.02887768494 -1.673550939e-18 -0.01439990129 1.024271099e-18 0.0003120679188)
(0.01888214029 -0.02393767832 -7.80649879e-19 -0.01910759223 -2.946788368e-18 0.0002254519404)
(0.02265910275 -0.02106532968 -8.574377677e-19 -0.02275105107 2.81200369e-18 9.194832103e-05)
(-0.1024659761 -0.1245172063 1.817068415e-19 0.1024135713 2.635068057e-19 5.240477946e-05)
(-0.06316080213 -0.1112637873 -4.315971314e-19 0.06302979365 5.11598166e-19 0.0001310084777)
(-0.03834492455 -0.09639245993 -7.031047455e-19 0.03814915062 6.146276056e-19 0.0001957739323)
(-0.02227028817 -0.08133605847 8.941800005e-19 0.02202113206 -1.451367151e-19 0.0002491561138)
(-0.01084533497 -0.06831092158 -2.696411154e-18 0.01055372111 1.847680793e-18 0.0002916138609)
(-0.001542091635 -0.05603275608 -5.673053028e-19 0.001219709963 -1.630965423e-19 0.0003223816719)
(0.005247947527 -0.04564571966 -2.457972035e-18 -0.005587731686 1.275564633e-18 0.0003397841589)
(0.0118761266 -0.03632208101 5.649551582e-19 -0.01221693314 7.406551482e-19 0.0003408065376)
(0.01678458054 -0.02836511355 -1.886153757e-18 -0.01710630993 -6.371663578e-19 0.0003217293878)
(0.02183830407 -0.02190657344 5.750750133e-19 -0.0221152815 1.480339149e-18 0.0002769774287)
(0.02595548542 -0.01654751565 7.906087985e-19 -0.02615542882 1.489184095e-18 0.0001999434044)
(0.02940702511 -0.01324118875 -1.025916872e-18 -0.02948848169 6.219248031e-19 8.145657692e-05)
(-0.0873131294 -0.1338454293 2.382247395e-19 0.08726790512 2.452855252e-19 4.522427551e-05)
(-0.04796599791 -0.1120016161 7.017826711e-19 0.04785290034 7.742106152e-19 0.0001130975631)
(-0.02422734953 -0.09264865248 8.067566455e-19 0.0240583398 -8.499080698e-19 0.0001690097238)
(-0.009767626152 -0.07547339387 -4.826348954e-19 0.009552534372 8.921288817e-20 0.0002150917793)
(0.0001111275749 -0.06127965848 1.108720861e-18 -0.0003628307915 -2.903859384e-19 0.0002517032166)
(0.007876710743 -0.04829374723 -1.900627426e-18 -0.008154889592 5.301773268e-19 0.0002781788487)
(0.01329054194 -0.03759547824 7.14205591e-19 -0.01358361122 6.064958204e-19 0.0002930692783)
(0.01872841329 -0.02785843754 -1.665424764e-18 -0.01902219593 8.747923076e-20 0.0002937826453)
(0.02255191825 -0.01974158656 1.925437011e-18 -0.02282905923 2.16855161e-18 0.0002771409845)
(0.02680697277 -0.01288757503 -1.73189644e-18 -0.02704535779 9.689860383e-19 0.0002383850173)
(0.03022568253 -0.007208224454 2.121118662e-18 -0.03039758613 -1.866418836e-18 0.0001719036086)
(0.03329530798 -0.003494229614 -1.413626697e-18 -0.03336523568 1.137824832e-18 6.992769934e-05)
(-0.07169312659 -0.1413098864 -2.11893888e-19 0.07165565038 4.752848805e-19 3.747621438e-05)
(-0.0347745026 -0.1105824918 -4.687544041e-19 0.03468074266 -4.32950582e-19 9.37599425e-05)
(-0.01323965733 -0.08675212807 7.600400535e-20 0.01309954157 -7.965250636e-20 0.0001401157666)
(-0.0007664184735 -0.06761991809 -9.814782613e-19 0.000588101019 1.377663576e-18 0.0001783174545)
(0.007458550613 -0.05244150226 9.751662879e-19 -0.007667174544 3.687990774e-19 0.0002086239302)
(0.01370694441 -0.03894443562 -6.238007678e-19 -0.01393742197 1.304614427e-18 0.0002304775633)
(0.017859784 -0.0281253363 -1.729709694e-19 -0.01810245509 -8.359530745e-19 0.0002426710911)
(0.02215529603 -0.01812946787 -8.496569147e-21 -0.0223983681 1.795973626e-18 0.0002430720758)
(0.02501453179 -0.0100112757 5.397491189e-19 -0.0252436089 6.688537853e-20 0.0002290771129)
(0.02846017761 -0.002857502111 1.707487656e-18 -0.02865698929 -1.15670678e-18 0.0001968116854)
(0.03119932425 0.003038040622 -1.048831381e-18 -0.03134104504 3.789671497e-19 0.0001417207904)
(0.03382261663 0.007127870472 1.10793179e-18 -0.0338801524 -5.110525886e-19 5.753576718e-05)
(-0.05582418825 -0.1470335893 -5.038655947e-19 0.0557949373 3.929824441e-19 2.925095106e-05)
(-0.02385110113 -0.107922034 -2.814544437e-20 0.02377787056 3.706834857e-19 7.323056985e-05)
(-0.005654042386 -0.07996399897 -8.775639353e-19 0.005544598005 7.90436297e-19 0.0001094443808)
(0.00447925776 -0.05912629551 -9.335091548e-21 -0.004618540526 -2.582865694e-19 0.0001392827652)
(0.01096166018 -0.04315600601 -5.906267292e-19 -0.0111245624 4.50548242e-19 0.0001629022201)
(0.01574128563 -0.02931018284 5.934935924e-19 -0.01592114263 -4.541597043e-20 0.0001798570071)
(0.01876475864 -0.01850026092 8.873102886e-20 -0.0189539579 3.792926023e-19 0.0001891992547)
(0.02200210422 -0.008362048959 -2.909759088e-19 -0.02219138175 2.420904922e-21 0.0001892775297)
(0.02401926237 -0.0003385764368 7.61539016e-19 -0.02419736505 2.992094403e-20 0.0001781026769)
(0.02668781341 0.007027357474 -6.64477931e-19 -0.02684053959 -2.07398351e-19 0.0001527261827)
(0.02875581495 0.01307251154 5.116022693e-19 -0.02886553303 1.48780387e-19 0.00010971808)
(0.03088636594 0.01746589694 -9.656652874e-19 -0.03093075851 3.898914321e-20 4.439256666e-05)
(-0.0398589558 -0.151160005 8.276852985e-20 0.03983829721 -3.733719918e-20 2.065859306e-05)
(-0.01513175498 -0.1049445412 -2.645634116e-19 0.01507997785 -6.050301116e-19 5.177713036e-05)
(-0.001297931451 -0.07354026784 1.227273599e-19 0.001220538848 -6.449463657e-20 7.739260284e-05)
(0.006185918845 -0.05133494666 -3.241006665e-19 -0.006284411683 2.019525469e-19 9.84928377e-05)
(0.01086040717 -0.03476802119 -6.433010153e-20 -0.01097553776 8.155731196e-19 0.0001151305967)
(0.01422409654 -0.02069869483 -1.977712224e-19 -0.0143510746 2.154834238e-19 0.0001269780601)
(0.01625787626 -0.009964721827 -2.427275058e-19 -0.01639123271 2.501288293e-19 0.0001333564555)
(0.01850724335 0.0002397961521 3.68901312e-19 -0.01864036295 1.087658153e-18 0.0001331196023)
(0.01982399661 0.008124273749 2.172180562e-19 -0.01994890843 -2.985297897e-19 0.0001249118262)
(0.02171863286 0.01563859438 -3.126565852e-19 -0.02182538636 -5.390676641e-19 0.0001067534998)
(0.02316129765 0.02176189142 -6.99812064e-19 -0.02323767092 1.825258684e-19 7.637327174e-05)
(0.02472483491 0.02641956738 3.195932519e-19 -0.02475555554 -1.294265064e-19 3.072062237e-05)
(-0.02388009707 -0.1538214208 2.030444578e-19 0.02386829658 4.251320972e-20 1.180048879e-05)
(-0.008245139014 -0.102450894 -8.016635719e-20 0.008215477498 3.249829404e-20 2.966151661e-05)
(0.000407615942 -0.06857195618 -7.130750198e-19 -0.0004519692339 3.647112053e-19 4.435329191e-05)
(0.005000472849 -0.04540914227 -3.42468014e-19 -0.00505692042 8.058766997e-20 5.644757046e-05)
(0.007820841412 -0.02844595389 -5.223514567e-19 -0.007886733825 4.339951191e-19 6.589241269e-05)
(0.009820305724 -0.01424562078 1.831279407e-19 -0.009892786119 1.159676245e-20 7.2480395e-05)
(0.01097868216 -0.003602700961 -6.174007906e-19 -0.0110544938 5.503790161e-19 7.581164196e-05)
(0.01231337481 0.006630540706 3.725078065e-19 -0.01238863059 -1.557260354e-19 7.525578111e-05)
(0.01303161225 0.01438284377 -2.824676096e-19 -0.01310172471 6.322077189e-21 7.011246039e-05)
(0.01418849073 0.02199386643 -2.080381305e-19 -0.01424788195 -3.248732805e-19 5.939122404e-05)
(0.01501177428 0.02815812123 -8.401465698e-19 -0.01505379122 1.588863009e-19 4.201694115e-05)
(0.01600602729 0.03298748009 1.057405601e-19 -0.0160226514 -2.186660202e-19 1.662411362e-05)
(-0.007917583437 -0.1551222943 5.764210445e-20 0.007914788155 1.922644646e-21 2.795281742e-06)
(-0.002563819317 -0.1010430724 -9.174773342e-20 0.002556647226 -2.578648167e-19 7.172090893e-06)
(0.0003819092909 -0.0658706362 -2.03741564e-19 -0.000392664565 1.074646025e-19 1.075527414e-05)
(0.001930415336 -0.04221433391 -1.569221257e-19 -0.0019441083 4.484901104e-20 1.369296353e-05)
(0.002870772331 -0.02505378523 -1.485534024e-19 -0.002886601796 4.908126357e-19 1.58294642e-05)
(0.003536685089 -0.01079159622 -2.219493548e-19 -0.003553765907 2.147304171e-19 1.708081753e-05)
(0.003902967502 -0.0002086408017 -1.015715573e-19 -0.003920297173 3.947892273e-19 1.732967152e-05)
(0.004355839594 0.01003693017 -1.904368216e-19 -0.004372311417 4.031163248e-19 1.647182309e-05)
(0.004567328521 0.01770634377 -4.010327312e-19 -0.004581795776 5.110968728e-20 1.446725466e-05)
(0.004974266144 0.02536899391 -3.205950017e-19 -0.004985596168 -2.00100599e-19 1.133002463e-05)
(0.005228505279 0.03153967451 -5.333346641e-19 -0.005235692515 1.684413479e-19 7.187236272e-06)
(0.005585647876 0.0364652589 2.85392105e-21 -0.005588008509 -1.723065878e-19 2.360632276e-06)
(0.008035097479 -0.1551179959 1.496667063e-19 -0.00802884735 1.082645913e-19 -6.250129394e-06)
(0.002692117724 -0.1010366415 -1.254661926e-20 -0.002676701666 4.920243171e-20 -1.541605821e-05)
(-0.0002504039908 -0.06586449103 -3.952994437e-19 0.0002733931544 2.06054189e-19 -2.298916354e-05)
(-0.001799375077 -0.04220667638 -2.769338874e-20 0.001828622181 3.649984265e-20 -2.92471046e-05)
(-0.002746525346 -0.02504947603 -1.222606509e-19 0.002780973483 3.577725521e-19 -3.444813684e-05)
(-0.003400484676 -0.01078199332 -7.653588902e-20 0.003439037402 1.063357567e-19 -3.855272523e-05)
(-0.003798517919 -0.0002084683385 8.221919207e-22 0.003839911693 3.235201915e-19 -4.139377431e-05)
(-0.004205968017 0.01004882056 -3.190729284e-19 0.004248518475 2.107543601e-20 -4.255045845e-05)
(-0.004484030266 0.01770208871 -3.995580964e-19 0.004525429779 1.472191972e-20 -4.139951269e-05)
(-0.004804578191 0.02538035946 -6.186090678e-19 0.00484150253 -1.924300904e-19 -3.692433894e-05)
(-0.005138176625 0.0315350082 -2.196683883e-19 0.005165968245 1.323130487e-19 -2.779162065e-05)
(-0.005389137932 0.03647096844 -4.942588993e-19 0.005401115858 -2.027002632e-19 -1.197792563e-05)
(0.02399663523 -0.1538084427 5.275051694e-20 -0.02398142015 5.800750914e-20 -1.521508254e-05)
(0.008370764466 -0.1024317619 -6.788177848e-20 -0.008332955246 -7.985005649e-20 -3.780921992e-05)
(-0.0002782736794 -0.06855344733 -2.320449673e-19 0.0003347163584 9.917378116e-20 -5.644267898e-05)
(-0.004872804007 -0.04538638277 -1.991624357e-19 0.00494461956 -2.078674374e-19 -7.18155534e-05)
(-0.007696842743 -0.02843177388 -1.771980549e-19 0.007781127693 4.15610776e-19 -8.428495056e-05)
(-0.009689009261 -0.01421725814 -3.049123938e-19 0.009782697494 1.437835781e-20 -9.368823271e-05)
(-0.0108707224 -0.003598298809 -2.466182168e-19 0.0109702988 4.275512013e-19 -9.957640928e-05)
(-0.01217036679 0.006665061514 -6.631449541e-19 0.01227137449 5.398544441e-19 -0.0001010077064)
(-0.01294071994 0.01437720211 -5.868228173e-19 0.01303742505 1.53162702e-19 -9.670510932e-05)
(-0.01402372251 0.02202597028 -1.754897128e-19 0.01410838439 -7.305985483e-20 -8.466187576e-05)
(-0.01491165256 0.02814956673 -5.295962176e-19 0.01497401238 3.949174973e-19 -6.235982021e-05)
(-0.0158005177 0.03299981889 -6.227338892e-20 0.01582663698 -2.801224946e-19 -2.611927793e-05)
(0.03997348811 -0.1511383813 2.117017234e-19 -0.03994949548 1.712428247e-19 -2.399263366e-05)
(0.01525247623 -0.1049138261 7.271385051e-20 -0.01519274312 7.183355838e-20 -5.973311152e-05)
(0.001423273964 -0.07351014534 1.585410808e-19 -0.00133407942 3.564521384e-19 -8.919454446e-05)
(-0.006063927616 -0.05129841473 -2.503721735e-19 0.006177418282 -2.145063649e-20 -0.0001134906655)
(-0.01073655413 -0.03474363339 4.230200293e-19 0.01086962798 4.215957394e-19 -0.0001330738506)
(-0.01409969248 -0.02065321393 -3.457237194e-19 0.01424735333 7.265926289e-20 -0.0001476608506)
(-0.01614287125 -0.009954070405 2.202768915e-19 0.01629939799 3.246593993e-19 -0.0001565267451)
(-0.01837180943 0.0002953978397 -6.168904437e-19 0.01853003119 -1.966958639e-19 -0.000158221766)
(-0.01971875576 0.008120220431 2.894802971e-20 0.01986958643 -1.732027023e-19 -0.0001508306653)
(-0.02155788405 0.01569105487 -1.183186238e-18 0.02168926555 -8.734800652e-20 -0.0001313814943)
(-0.02304384734 0.02175287027 6.789653544e-20 0.02314004735 4.338872206e-19 -9.62000056e-05)
(-0.0245170146 0.02643871334 -1.082206892e-18 0.02455699074 -4.360836292e-19 -3.997613863e-05)
(0.05593548811 -0.1470033666 -6.195922826e-19 -0.05590302153 -2.446557914e-19 -3.246658283e-05)
(0.02396477382 -0.1078812047 1.847613948e-19 -0.0238838698 -1.790365983e-19 -8.090402251e-05)
(0.005773490068 -0.07992324082 -1.389224975e-19 -0.0056526681 8.032646197e-20 -0.0001208219679)
(-0.004365480207 -0.0590781539 4.5643513e-19 0.004519214151 -1.571942598e-19 -0.0001537339446)
(-0.0108389071 -0.04312064503 -5.508897135e-19 0.01101908841 -4.921940379e-20 -0.0001801813088)
(-0.0156273981 -0.02925148099 1.01374758e-19 0.01582716219 -5.727883891e-20 -0.0001997640957)
(-0.01864127364 -0.01847945855 1.947597331e-19 0.01885276385 1.210168796e-19 -0.0002114902064)
(-0.0218798078 -0.008291700119 6.610609026e-20 0.02209322797 1.109638712e-18 -0.0002134201715)
(-0.02389482462 -0.0003341978632 -1.210010537e-18 0.02409784902 3.855500269e-19 -0.0002030244059)
(-0.02653542395 0.007095430575 1.155933492e-18 0.02671182857 5.438534361e-19 -0.0001764046181)
(-0.02861408672 0.01307116846 -1.117656805e-18 0.02874286508 1.742935388e-19 -0.0001287783591)
(-0.0306640605 0.0175027909 6.141913949e-19 0.03071735121 -1.298279095e-20 -5.329071068e-05)
(0.07179986182 -0.1412713619 3.913809294e-20 -0.07175932671 -2.520064868e-19 -4.053510368e-05)
(0.03487986055 -0.1105334223 2.006985523e-20 -0.03477879867 -5.72467975e-19 -0.0001010618756)
(0.01335170198 -0.08670198525 7.625041479e-20 -0.01320076625 -8.529880546e-21 -0.0001509357249)
(0.0008707981287 -0.06756216004 -2.482654407e-19 -0.0006787473476 6.564167549e-20 -0.0001920507812)
(-0.007338784035 -0.05239374941 -3.21432983e-19 0.007563815517 3.238962694e-19 -0.0002250314826)
(-0.01360421347 -0.03887486676 1.749423235e-19 0.01385357954 -5.632762204e-19 -0.0002493660678)
(-0.01773083265 -0.02808750923 3.214625217e-19 0.01799464129 -6.271462627e-19 -0.0002638086409)
(-0.02204546216 -0.01804718536 4.308930171e-19 0.02231141642 4.876144332e-19 -0.0002659542635)
(-0.02487493767 -0.009985208818 2.926698144e-19 0.02512762928 -8.881813273e-19 -0.0002526916113)
(-0.02831388321 -0.002775966781 -4.258798696e-19 0.02853312675 -7.741917095e-19 -0.0002192435388)
(-0.03103363472 0.003058314307 9.285605711e-19 0.03119341314 1.858533846e-18 -0.0001597784253)
(-0.0335815802 0.007178365438 -6.010923524e-19 0.03364754732 -4.154066529e-19 -6.596711987e-05)
(0.08741386851 -0.1337991837 5.066666713e-19 -0.08736577595 4.613805611e-19 -4.809255651e-05)
(0.04806209968 -0.1119463102 1.992506431e-19 -0.04794215214 -1.785560407e-19 -0.0001199475388)
(0.02433097797 -0.0925906213 9.727335407e-19 -0.02415182853 4.061359899e-19 -0.0001791494323)
(0.009862173236 -0.07540806493 8.210640557e-19 -0.009634223867 1.482887361e-19 -0.000227949369)
(4.464418466e-06 -0.06121922315 -6.023861608e-20 0.0002625819986 -4.669183209e-19 -0.000267046417)
(-0.007784235869 -0.04821513821 2.301293849e-19 0.008080060045 2.276446716e-19 -0.0002958241762)
(-0.01315697728 -0.03753754898 -7.619791258e-20 0.01346977499 -1.002093491e-18 -0.0003127977104)
(-0.01862819627 -0.02776506365 5.13907495e-19 0.01894332426 5.334502071e-19 -0.0003151279876)
(-0.02239653156 -0.01968828705 -1.399999578e-18 0.02269569125 1.632152146e-18 -0.0002991596847)
(-0.02666388521 -0.01279081168 1.214426677e-18 0.02692318449 -5.328180275e-19 -0.0002592992839)
(-0.03003552056 -0.007157718333 -3.750842007e-19 0.03022425972 -1.590590884e-18 -0.0001887391639)
(-0.03304230038 -0.003425369369 3.638375707e-19 0.03312009223 8.109210186e-19 -7.779184922e-05)
(0.1025593962 -0.1244642556 -6.125416911e-19 -0.1025043492 -7.307599013e-19 -5.504705419e-05)
(0.06324750437 -0.1112042644 4.536939016e-19 -0.06311017669 -2.261810417e-19 -0.0001373276828)
(0.03843955443 -0.09632826649 -1.114333494e-18 -0.03823444039 -2.112015185e-18 -0.0002051140387)
(0.02235490242 -0.08126549866 7.242945072e-20 -0.02209391672 1.261779841e-18 -0.0002609856986)
(0.01095460208 -0.06823792919 -2.222897782e-18 -0.01064889373 -1.090311043e-18 -0.000305708355)
(0.001624454965 -0.05594878589 7.183960245e-19 -0.00128588684 4.342085713e-19 -0.0003385681243)
(-0.005114861001 -0.0455642808 -1.982818665e-18 0.005472721969 -2.269897942e-18 -0.0003578609682)
(-0.01178512261 -0.03622363375 7.599206059e-19 0.01214547076 -2.538873293e-19 -0.0003603481458)
(-0.01662125506 -0.02827602088 8.598508283e-19 0.01696313312 -1.943961561e-18 -0.0003418780666)
(-0.02169790585 -0.02179816288 4.630861058e-19 0.02199401471 1.499520038e-18 -0.0002961088545)
(-0.02574798378 -0.01645374508 -2.030519409e-18 0.02596332717 6.418658326e-19 -0.0002153433925)
(-0.02913673348 -0.01313384914 1.699774997e-18 0.02922538435 6.217486561e-19 -8.865087453e-05)
(0.1169478007 -0.1131858563 1.223275032e-19 -0.1168864918 -7.727673205e-19 -6.130894342e-05)
(0.07984685573 -0.1074957066 7.851923892e-20 -0.07969387485 4.095302677e-19 -0.0001529808856)
(0.05497990727 -0.09678755714 7.61155122e-19 -0.05475140802 4.751349714e-19 -0.0002284992522)
(0.03764291697 -0.08392010193 -8.881222355e-20 -0.0373521771 -1.57912862e-18 -0.0002907398734)
(0.02483080778 -0.0722276049 2.159213174e-18 -0.02449028281 1.974203301e-18 -0.0003405249746)
(0.01397574049 -0.06088039463 -4.812630244e-19 -0.01359868739 -3.699727403e-19 -0.0003770531047)
(0.005801183061 -0.05102923345 7.399962968e-19 -0.005402761705 1.748766098e-18 -0.0003984213561)
(-0.002091731315 -0.04231239864 8.722214369e-19 0.002492765071 -1.619610875e-18 -0.0004010337558)
(-0.008071068956 -0.0346922499 -6.210898218e-19 0.008451361327 1.308106565e-18 -0.000380292371)
(-0.01394663335 -0.02874979865 1.631400379e-18 0.0142758228 -3.576284726e-19 -0.0003291894466)
(-0.01867012932 -0.02379323761 1.779075641e-18 0.01890936229 -1.128753387e-18 -0.0002392329718)
(-0.02237190492 -0.02092048521 6.502766864e-19 0.02247029528 1.712976553e-18 -9.839036373e-05)
(0.1302466625 -0.09995069877 2.969002225e-19 -0.1301798618 -6.214979534e-19 -6.680071991e-05)
(0.09701491977 -0.1002250321 8.16907188e-19 -0.09684820782 -1.241613439e-18 -0.0001667119462)
(0.07289937544 -0.09311585506 -1.283641472e-18 -0.07265036229 -1.768312498e-18 -0.0002490131511)
(0.0546432754 -0.08244492501 -2.789228034e-19 -0.05432643543 -2.259721711e-19 -0.0003168399729)
(0.04056818352 -0.07224874483 -1.393013089e-19 -0.04019712212 -2.299303891e-18 -0.0003710614091)
(0.0282568295 -0.0620874225 5.001771138e-19 -0.0278460319 2.119299609e-18 -0.0004107975938)
(0.01863388952 -0.05304913862 4.596049968e-19 -0.01819991736 -1.778880977e-18 -0.0004339721549)
(0.009556298001 -0.04516892921 -4.812144958e-19 -0.009119623099 1.60761102e-18 -0.0004366749023)
(0.002398244388 -0.03811264925 2.976657423e-18 -0.001984322138 -2.59647993e-18 -0.0004139222498)
(-0.00421574264 -0.03282600535 9.50900479e-19 0.004573868118 2.746425223e-18 -0.0003581254775)
(-0.009597625855 -0.02836704239 -2.196168318e-18 0.009857734529 -2.527421491e-18 -0.0002601086746)
(-0.01354535154 -0.02596232716 9.595843261e-19 0.01365223971 1.580077444e-18 -0.0001068881615)
(0.1420882802 -0.08483089516 4.453626374e-19 -0.142016827 -1.13587535e-19 -7.145315979e-05)
(0.1137131874 -0.08909157629 -1.416160607e-18 -0.1135348392 4.800386588e-19 -0.000178348145)
(0.09089329667 -0.08484120516 -4.985280602e-19 -0.09062689867 -8.438532515e-19 -0.0002663980052)
(0.07200286947 -0.07631156821 1.485777273e-18 -0.07166391046 8.014418211e-19 -0.0003389590114)
(0.05683856243 -0.06775620886 3.298867277e-19 -0.05644162668 -2.937656834e-18 -0.0003969357512)
(0.04319180489 -0.05902734799 1.956904424e-18 -0.0427524228 3.394301191e-19 -0.0004393820904)
(0.03219118035 -0.05109836362 -1.79935741e-18 -0.03172710741 -6.737786259e-19 -0.0004640729397)
(0.02200385457 -0.04427657002 2.749188795e-18 -0.02153701922 -7.867190619e-19 -0.0004668353406)
(0.01371550229 -0.03803887661 -4.597748353e-19 -0.01327314282 -6.59207661e-19 -0.0004423594631)
(0.006420685687 -0.03352701999 -2.182011479e-18 -0.006038111414 -2.36496857e-18 -0.0003825742728)
(0.0004383432225 -0.02968513919 9.347920909e-20 -0.0001606130135 1.036649379e-18 -0.0002777302089)
(-0.003703480116 -0.02773390441 -7.117897157e-19 0.003817533998 -1.987687247e-18 -0.0001140538829)
(0.1521087956 -0.06799039523 8.144889753e-19 -0.1520335885 1.186108772e-18 -7.520708926e-05)
(0.1288326714 -0.07412895577 5.037323472e-19 -0.1286449291 -2.927876344e-19 -0.0001877422085)
(0.107545853 -0.07193023277 1.256436228e-18 -0.1072654193 8.883443269e-19 -0.0002804336244)
(0.0882485305 -0.06545166482 -1.453166333e-18 -0.08789171475 -9.338030097e-19 -0.0003568157527)
(0.07218478961 -0.05866384209 -6.636389848e-20 -0.07176697185 2.927653693e-19 -0.0004178177593)
(0.05738491996 -0.05159919422 -6.592211418e-19 -0.05692248196 -1.708890442e-18 -0.0004624380075)
(0.04514988364 -0.04507375353 1.409397205e-19 -0.04466155141 -1.178261869e-18 -0.0004883322358)
(0.03400020111 -0.03951736382 -4.310539564e-19 -0.03350908671 5.471571219e-19 -0.000491114397)
(0.02468168021 -0.03435381247 -8.728514879e-19 -0.02421646148 -9.479460907e-19 -0.0004652187323)
(0.01682380132 -0.03072407937 -6.594799008e-19 -0.01642161159 4.103922244e-19 -0.000402189723)
(0.01030311009 -0.02760441553 9.719299445e-20 -0.010011277 -1.897049967e-18 -0.0002918330939)
(0.006042279549 -0.02611952145 2.065320815e-19 -0.005922514763 1.778146568e-18 -0.0001197647859)
(0.1599666567 -0.04969127768 -3.296805401e-19 -0.1598886397 -4.740198423e-20 -7.801691635e-05)
(0.1412968328 -0.05573218049 -1.990349554e-18 -0.1411020545 9.093844274e-20 -0.0001947783799)
(0.1214822533 -0.0548145155 -1.021053263e-18 -0.1211913061 -1.038277639e-18 -0.0002909472182)
(0.1019454804 -0.05028581622 -6.963826304e-19 -0.1015752886 -8.481036713e-19 -0.0003701917949)
(0.08519309601 -0.04536614015 1.247908768e-18 -0.08475964188 -4.487534612e-19 -0.0004334541309)
(0.06947147548 -0.04016694736 -8.911175531e-19 -0.06899178462 -8.207986804e-19 -0.0004796908651)