/*--------------------------------*- C++ -*----------------------------------*\
| =========                 |                                                 |
| \\      /  F ield         | foam-extend: Open Source CFD                    |
|  \\    /   O peration     | Version:  3.0                                   |
|   \\  /    A nd           | Web:         http://www.extend-project.de       |
|    \\/     M anipulation  |                                                 |
\*---------------------------------------------------------------------------*/
FoamFile
{
    version     2.0;
    format      ascii;
    class       volVectorField;
    location    "25";
    object      u;
}
// * * * * * * * * * * * * * * * * * * * * * * * * * * * * * * * * * * * * * //

dimensions      [0 0 0 0 0 0 0];

internalField   nonuniform List<vector> 
7680
(
(0.106485 -0.0358441 3.38505e-17)
(0.169663 -0.0307954 3.71546e-17)
(0.321098 -0.0291052 -2.42762e-17)
(0.362741 -0.0252921 2.39327e-17)
(0.476034 -0.0241884 -7.36805e-18)
(0.503859 -0.0214547 1.30252e-17)
(0.591485 -0.020638 -2.49387e-18)
(0.609493 -0.0186831 -1.00246e-17)
(0.679478 -0.0180684 -1.42022e-17)
(0.690307 -0.0166386 -1.44795e-17)
(0.747736 -0.0161934 -9.93243e-18)
(0.753266 -0.0151295 1.57753e-17)
(0.801477 -0.0148189 -2.28277e-17)
(0.803023 -0.0140303 1.41476e-17)
(0.844325 -0.0138172 -4.34815e-18)
(0.842788 -0.013247 2.71809e-17)
(0.878841 -0.0131003 -2.44524e-17)
(0.874834 -0.0127079 4.08516e-17)
(0.906866 -0.0126045 -2.33203e-17)
(0.900804 -0.0123586 2.32309e-17)
(0.929746 -0.0122824 -2.38873e-17)
(0.921908 -0.0121586 2.25573e-17)
(0.948481 -0.0120991 -2.04613e-17)
(0.939048 -0.0120782 3.69098e-17)
(0.963821 -0.0120286 -2.88015e-17)
(0.952906 -0.0120966 2.779e-17)
(0.976336 -0.0120515 -1.14668e-17)
(0.963998 -0.0121996 1.89631e-17)
(0.986465 -0.012151 -1.4333e-17)
(0.972713 -0.0123801 7.02291e-18)
(0.994559 -0.0123079 -6.59313e-18)
(0.979326 -0.0126405 4.2473e-18)
(1.00093 -0.012494 -6.26743e-18)
(0.983981 -0.0129958 2.8033e-18)
(1.00591 -0.0126808 4.67668e-18)
(0.986694 -0.0133748 -2.97527e-18)
(1.0098 -0.0132332 1.00594e-17)
(0.987506 -0.0128849 -1.20866e-17)
(1.01264 -0.0140189 1.03122e-17)
(0.986979 -0.0209444 -1.41229e-17)
(0.110913 -0.101419 -4.75816e-17)
(0.173353 -0.0859447 -6.1442e-17)
(0.324593 -0.0804543 1.90004e-17)
(0.365696 -0.0687453 -2.97228e-17)
(0.478846 -0.0649314 -2.13245e-17)
(0.506284 -0.0564282 6.08955e-18)
(0.593792 -0.0534388 5.11376e-18)
(0.611519 -0.0472295 2.96861e-17)
(0.681408 -0.0448533 4.27044e-17)
(0.692025 -0.0402019 4.44738e-17)
(0.749376 -0.0383341 9.75947e-18)
(0.754742 -0.0347669 6.70949e-19)
(0.80289 -0.033294 1.58493e-17)
(0.804309 -0.0305228 1.16513e-18)
(0.845557 -0.0293369 -2.85948e-17)
(0.843922 -0.0271794 -2.99629e-17)
(0.879926 -0.0261922 3.71151e-17)
(0.875844 -0.024525 -7.73222e-17)
(0.907832 -0.0236688 6.07598e-17)
(0.901714 -0.0224035 -6.31e-17)
(0.930615 -0.0216277 4.34237e-17)
(0.922735 -0.0206982 -4.87331e-17)
(0.949269 -0.0199653 3.40398e-17)
(0.939806 -0.019321 -7.2345e-17)
(0.964542 -0.0186028 3.84273e-17)
(0.953606 -0.018205 -4.17783e-17)
(0.977 -0.0174783 3.13374e-18)
(0.964649 -0.0173006 -2.40194e-17)
(0.987081 -0.0165384 -6.24572e-19)
(0.973323 -0.0165774 1.49366e-18)
(0.995132 -0.0157239 1.81817e-18)
(0.979904 -0.0160357 4.63679e-18)
(1.00146 -0.0149518 8.39321e-18)
(0.984537 -0.0157156 -1.1201e-17)
(1.00639 -0.0141343 4.13134e-18)
(0.987236 -0.0155498 -1.53933e-17)
(1.01026 -0.0136611 2.40269e-17)
(0.988005 -0.014507 -4.62563e-18)
(1.01309 -0.0136102 -5.7464e-18)
(0.987702 -0.0217073 3.60476e-17)
(0.119551 -0.166577 5.89766e-17)
(0.180715 -0.140824 5.38032e-17)
(0.331401 -0.131429 -4.46485e-17)
(0.371508 -0.111902 7.89785e-17)
(0.484279 -0.105374 1.02888e-17)
(0.510984 -0.0911489 -2.16276e-17)
(0.598198 -0.086024 -3.78131e-17)
(0.615385 -0.0755974 -1.82968e-17)
(0.685041 -0.0714909 -8.03337e-17)
(0.695251 -0.0636306 -6.92091e-17)
(0.752417 -0.0603633 -1.80971e-17)
(0.757467 -0.0542872 -8.45467e-18)
(0.805467 -0.0516701 -6.7964e-18)
(0.806638 -0.0469121 -1.47486e-17)
(0.847763 -0.0447634 6.62703e-17)
(0.845934 -0.0410263 4.91822e-17)
(0.881834 -0.0391988 -3.89205e-17)
(0.8776 -0.0362756 1.11749e-16)
(0.909495 -0.0346589 -1.02815e-16)
(0.903258 -0.0323977 8.1183e-17)
(0.932075 -0.0309104 -5.11907e-17)
(0.924103 -0.0291972 8.3e-17)
(0.950559 -0.0277788 -6.33685e-17)
(0.941027 -0.0265269 1.10888e-16)
(0.965684 -0.0251312 -3.96282e-17)
(0.954699 -0.0242758 7.79287e-17)
(0.978014 -0.0228642 -1.32956e-17)
(0.965632 -0.0223615 4.22092e-17)
(0.98798 -0.0208893 5.26978e-18)
(0.97421 -0.0207336 -3.44322e-18)
(0.995924 -0.0191096 -5.89928e-18)
(0.980709 -0.0193922 9.45815e-18)
(1.00215 -0.0173875 -5.52369e-18)
(0.985276 -0.0184016 5.61997e-18)
(1.00697 -0.0155743 -1.72944e-18)
(0.987926 -0.0176962 -6.14227e-18)
(1.01074 -0.0140818 3.40065e-18)
(0.988616 -0.0161055 -1.4797e-17)
(1.0135 -0.0131957 1.66832e-17)
(0.988478 -0.0224412 -2.76446e-17)
(0.132507 -0.231022 -3.90328e-17)
(0.191567 -0.195035 -1.1313e-16)
(0.341556 -0.181881 1.89385e-16)
(0.380102 -0.154604 -2.22429e-16)
(0.492377 -0.145402 4.58744e-17)
(0.517951 -0.125512 3.61825e-17)
(0.604768 -0.118246 6.59467e-17)
(0.621123 -0.103642 3.26831e-17)
(0.690454 -0.0978023 3.72164e-17)
(0.700034 -0.086778 5.52213e-17)
(0.756938 -0.0821111 7.49761e-17)
(0.761499 -0.0735761 -2.27505e-17)
(0.809286 -0.0698151 3.85804e-18)
(0.81007 -0.06311 2.07119e-17)
(0.85102 -0.0600033 -8.7889e-17)
(0.848882 -0.0547076 7.51374e-18)
(0.88463 -0.0520522 -1.32107e-17)
(0.88015 -0.0478774 -1.09144e-16)
(0.911909 -0.0455192 1.33719e-16)
(0.905478 -0.0422571 -1.12624e-16)
(0.934166 -0.0400806 6.10245e-17)
(0.926044 -0.0375759 -1.05235e-16)
(0.952374 -0.0354945 6.57448e-17)
(0.942728 -0.0336293 -7.96951e-17)
(0.967262 -0.0315759 -1.23455e-17)
(0.956195 -0.0302613 -5.54064e-17)
(0.979384 -0.0281797 -2.26337e-17)
(0.966948 -0.0273546 -1.57823e-17)
(0.989166 -0.0251813 -3.40467e-17)
(0.975368 -0.0248363 2.03429e-17)
(0.996942 -0.022445 1.12638e-17)
(0.981731 -0.0227049 -1.33762e-17)
(1.003 -0.0197791 -3.49866e-17)
(0.986189 -0.0210493 9.89917e-17)
(1.00765 -0.016977 -7.11891e-17)
(0.988753 -0.0198075 3.64594e-17)
(1.01125 -0.014474 3.0363e-17)
(0.989327 -0.0176741 -2.56992e-17)
(1.01389 -0.0127633 1.45574e-17)
(0.989299 -0.0231467 -1.89505e-17)
(0.149574 -0.294498 2.27274e-17)
(0.206025 -0.248479 3.57215e-17)
(0.354972 -0.231547 -3.25592e-16)
(0.391502 -0.196643 3.30739e-16)
(0.503051 -0.184806 -5.38311e-17)
(0.527144 -0.159336 -1.04549e-16)
(0.613391 -0.149992 -1.10163e-16)
(0.628658 -0.131275 -1.58655e-18)
(0.697533 -0.123749 -1.13445e-17)
(0.706289 -0.109595 -3.47181e-17)
(0.762827 -0.103565 -9.01015e-17)
(0.76675 -0.0925839 6.27637e-18)
(0.814238 -0.0877084 5.58988e-17)
(0.814521 -0.0790656 -4.69681e-17)
(0.855219 -0.0750216 1.12662e-16)
(0.852685 -0.0681843 -8.33267e-17)
(0.888215 -0.064711 7.31758e-17)
(0.883424 -0.0593095 1.16842e-17)
(0.914988 -0.0562112 -3.54628e-17)
(0.908312 -0.0519757 3.03153e-17)
(0.936821 -0.0491069 2.40442e-17)
(0.928508 -0.045836 1.19016e-16)
(0.954669 -0.0430872 -6.62095e-17)
(0.944878 -0.0406286 4.77769e-17)
(0.969245 -0.037915 5.17747e-17)
(0.958072 -0.0361544 5.63306e-17)
(0.981093 -0.0334047 1.97909e-18)
(0.968584 -0.0322638 1.18427e-17)
(0.990627 -0.0293974 8.64122e-17)
(0.976792 -0.0288636 -3.44133e-17)
(0.998172 -0.02572 2.26381e-17)
(0.982969 -0.0259521 1.97246e-17)
(1.00401 -0.0221273 -5.05105e-17)
(0.987275 -0.0236414 3.41309e-17)
(1.00842 -0.0183535 -6.6115e-18)
(0.98972 -0.0218717 -2.23054e-17)
(1.01179 -0.0148549 -1.18698e-17)
(0.990145 -0.0192042 -3.0686e-17)
(1.01424 -0.0123282 3.04875e-17)
(0.990172 -0.0238154 3.52564e-17)
(0.17083 -0.35671 1.91069e-17)
(0.223871 -0.300828 9.18209e-17)
(0.371615 -0.28024 3.63419e-16)
(0.405595 -0.237861 -2.67325e-16)
(0.516298 -0.223434 3.14132e-17)
(0.538535 -0.192497 1.37025e-16)
(0.624108 -0.181085 1.63183e-16)
(0.638006 -0.158339 -3.98769e-17)
(0.706334 -0.149138 -2.11346e-17)
(0.714052 -0.131932 1.41581e-17)
(0.770149 -0.124549 2.25501e-16)
(0.773263 -0.111194 -9.76238e-17)
(0.820394 -0.105214 5.93223e-17)
(0.820036 -0.0946909 -8.97229e-17)
(0.860438 -0.0897208 -4.94513e-17)
(0.857393 -0.0813795 -6.03517e-17)
(0.892668 -0.0771053 1.26583e-16)
(0.887468 -0.0704971 -1.11689e-16)
(0.918802 -0.0666808 1.10741e-16)
(0.911803 -0.0614811 -4.76331e-17)
(0.940097 -0.0579447 -5.08435e-18)
(0.931531 -0.0539115 -1.37704e-16)
(0.957482 -0.0505204 3.72375e-17)
(0.947498 -0.0474706 2.88295e-17)
(0.971657 -0.0441201 -1.20224e-16)
(0.960342 -0.0419155 2.05955e-17)
(0.983152 -0.0385178 -4.74952e-17)
(0.970546 -0.037064 -8.59691e-18)
(0.992369 -0.0335203 -9.81204e-17)
(0.978481 -0.0328015 -1.38498e-17)
(0.999622 -0.0289173 -9.3063e-17)
(0.98442 -0.0291253 4.58619e-17)
(1.00517 -0.0244118 -7.82238e-17)
(0.988531 -0.0261712 8.04919e-17)
(1.00928 -0.0196816 -1.47802e-16)
(0.990821 -0.0238829 7.33204e-17)
(1.01235 -0.0152049 2.90448e-17)
(0.99106 -0.0206925 -4.26663e-17)
(1.01458 -0.011879 -2.02433e-17)
(0.991086 -0.024451 -2.53941e-17)
(0.196045 -0.417416 -6.07698e-18)
(0.245171 -0.351921 -2.11373e-16)
(0.391411 -0.327743 -2.34048e-16)
(0.422388 -0.278065 1.10102e-16)
(0.532035 -0.261123 6.7372e-18)
(0.552072 -0.224846 3.85662e-18)
(0.63681 -0.211446 -1.83649e-16)
(0.649092 -0.184761 1.04495e-16)
(0.716746 -0.173948 5.62447e-17)
(0.723242 -0.153746 -9.42553e-17)
(0.778796 -0.145059 -1.95693e-16)
(0.78096 -0.129363 4.27562e-17)
(0.827647 -0.122316 3.46796e-17)
(0.826541 -0.109939 1.57095e-16)
(0.866569 -0.104073 3.4716e-17)
(0.862933 -0.0942548 -2.22182e-18)
(0.897883 -0.0891992 -5.78343e-17)
(0.892214 -0.0814144 -5.13463e-18)
(0.923257 -0.0768914 -7.29794e-17)
(0.915888 -0.0707572 -1.3196e-17)
(0.943913 -0.0665598 -2.0142e-17)
(0.935058 -0.0617906 5.81387e-17)
(0.960753 -0.0577621 2.97648e-17)
(0.950547 -0.0541427 -3.79034e-17)
(0.974454 -0.0501612 7.16891e-17)
(0.962975 -0.0475292 -7.33048e-17)
(0.985531 -0.0434923 9.44945e-17)
(0.972813 -0.0417364 -6.89796e-17)
(0.994371 -0.037529 1.95701e-16)
(0.980423 -0.0366299 -4.19938e-17)
(1.00127 -0.0320248 2.38348e-16)
(0.986076 -0.0322063 -5.74683e-17)
(1.00648 -0.0266313 3.74569e-17)
(0.989952 -0.0286239 9.32338e-18)
(1.01023 -0.0209699 7.62537e-17)
(0.992055 -0.0258288 -4.91186e-17)
(1.01294 -0.0155384 3.28482e-17)
(0.992076 -0.0221275 -6.41077e-17)
(1.01488 -0.0114299 1.67744e-16)
(0.992048 -0.0250422 -2.92566e-17)
(0.225232 -0.476332 1.07859e-16)
(0.269712 -0.401512 6.69772e-17)
(0.414263 -0.373848 2.86723e-16)
(0.441743 -0.317094 9.47172e-17)
(0.550204 -0.297692 -5.06118e-17)
(0.56769 -0.25624 -2.40424e-16)
(0.651489 -0.24088 1.89538e-16)
(0.661888 -0.210382 -2.09568e-16)
(0.728782 -0.197982 2.21302e-17)
(0.733848 -0.17489 -2.05531e-17)
(0.78879 -0.164922 2.47713e-16)
(0.789841 -0.146977 -2.67067e-16)
(0.836031 -0.138883 9.13071e-17)
(0.834043 -0.124725 -3.2077e-16)
(0.873658 -0.11798 3.81671e-17)
(0.869318 -0.106738 -8.39673e-17)
(0.903911 -0.100923 1.28474e-16)
(0.897681 -0.0919963 -1.19951e-16)
(0.928404 -0.0867912 1.27571e-16)
(0.920588 -0.0797455 1.59334e-17)
(0.948313 -0.0749133 -2.77329e-17)
(0.93911 -0.0694239 -2.80718e-18)
(0.964514 -0.0647845 -4.91221e-17)
(0.954041 -0.0606059 8.28052e-17)
(0.977659 -0.0560192 -4.26217e-17)
(0.965983 -0.0529664 6.132e-18)
(0.988244 -0.0483144 -5.07835e-17)
(0.975391 -0.0462609 9.37733e-17)
(0.996643 -0.0414113 -3.14154e-16)
(0.982618 -0.0403353 1.01529e-17)
(1.00313 -0.0350287 -1.85611e-16)
(0.987935 -0.0351855 3.29116e-17)
(1.00793 -0.0287691 3.22082e-17)
(0.991533 -0.0309923 -3.98661e-17)
(1.01126 -0.0222002 -4.32606e-17)
(0.993416 -0.0277048 6.02642e-17)
(1.01355 -0.0158397 3.67434e-17)
(0.993184 -0.0235089 -2.87399e-17)
(1.01517 -0.0109708 -2.03182e-18)
(0.993049 -0.0255953 -1.78742e-16)
(0.258165 -0.533228 -1.0484e-16)
(0.297488 -0.449383 -9.81946e-17)
(0.440094 -0.418372 -2.47635e-16)
(0.463641 -0.354772 -4.75912e-16)
(0.570734 -0.333018 -8.89575e-18)
(0.585341 -0.286558 4.13177e-16)
(0.668054 -0.269334 -1.26788e-16)
(0.676337 -0.23514 2.57657e-16)
(0.742353 -0.221228 7.09647e-17)
(0.745817 -0.195325 -1.16465e-16)
(0.80005 -0.184134 -6.46139e-17)
(0.799855 -0.163994 2.1807e-16)
(0.845465 -0.154901 -6.84093e-18)
(0.842495 -0.139003 2.40841e-16)
(0.881622 -0.131419 1.78516e-16)
(0.876502 -0.118791 -1.02696e-16)
(0.910672 -0.112243 1.30504e-16)
(0.903823 -0.102211 -7.50515e-17)
(0.934165 -0.0963448 8.73744e-17)
(0.925859 -0.0884203 -3.02156e-17)
(0.953232 -0.0829694 -2.4515e-17)
(0.943644 -0.0767875 4.52927e-17)
(0.968711 -0.0715515 -5.61226e-17)
(0.957942 -0.066837 -3.57086e-17)
(0.981229 -0.0616591 2.13229e-17)
(0.969333 -0.0582045 2.32954e-17)
(0.991259 -0.052953 -7.58336e-17)
(0.978255 -0.0506159 2.50099e-16)
(0.999157 -0.0451432 1.53519e-18)
(0.985048 -0.0438983 1.86535e-16)
(1.00518 -0.0379144 4.59066e-17)
(0.989986 -0.0380463 -4.66019e-17)
(1.00952 -0.0308207 3.38395e-17)
(0.993269 -0.0332622 -6.63949e-17)
(1.01237 -0.0233771 3.77495e-17)
(0.994902 -0.0294979 -4.31719e-17)
(1.01419 -0.0161189 1.36614e-17)
(0.994386 -0.0248236 -1.70003e-16)
(1.01542 -0.0105142 3.13293e-16)
(0.994093 -0.0260975 -1.09234e-16)
(0.294787 -0.58784 3.6837e-16)
(0.328306 -0.49536 1.34497e-16)
(0.468772 -0.461103 3.65924e-16)
(0.487929 -0.390944 7.14509e-16)
(0.593522 -0.366904 2.20886e-16)
(0.604923 -0.315649 -4.5287e-16)
(0.686447 -0.296607 4.82996e-17)
(0.692366 -0.25888 -3.48441e-16)
(0.75742 -0.243497 -1.78527e-16)
(0.75909 -0.214916 2.97434e-16)
(0.812549 -0.202536 2.02242e-17)
(0.810956 -0.180312 -1.32094e-16)
(0.855937 -0.170246 7.71055e-17)
(0.85186 -0.152697 -3.31015e-16)
(0.890463 -0.144297 -6.13298e-17)
(0.88446 -0.130349 1.49959e-17)
(0.918176 -0.123095 -1.24789e-16)
(0.910622 -0.112006 -3.51069e-17)
(0.940557 -0.105505 -6.32396e-17)
(0.931693 -0.0967363 5.08057e-17)
(0.958685 -0.0906945 5.12464e-17)
(0.948658 -0.0838459 1.1187e-17)
(0.973358 -0.0780412 4.00907e-17)
(0.962253 -0.0728089 8.65542e-17)
(0.985175 -0.0670679 -1.62689e-16)
(0.973029 -0.0632232 2.42171e-16)
(0.994584 -0.0574001 -1.38356e-16)
(0.981407 -0.0547861 -9.06674e-18)
(1.00192 -0.0487176 -2.4406e-16)
(0.987715 -0.0473069 1.15594e-16)
(1.00743 -0.0406727 -1.80636e-16)
(0.992226 -0.0407799 1.96657e-16)
(1.01126 -0.0327743 -2.37834e-16)
(0.995155 -0.0354279 3.14518e-16)
(1.01357 -0.0244874 -2.65006e-16)
(0.996504 -0.0312056 1.80319e-16)
(1.01484 -0.0163648 -9.17756e-17)
(0.995674 -0.0260733 5.49003e-17)
(1.01565 -0.0100518 -5.40477e-17)
(0.995171 -0.0265564 -2.33738e-16)
(0.334873 -0.639953 -7.23952e-16)
(0.362085 -0.539197 -3.98653e-16)
(0.500192 -0.501884 -2.96253e-16)
(0.514557 -0.425453 -8.63291e-16)
(0.618488 -0.39926 -2.61832e-16)
(0.626385 -0.343415 2.45196e-16)
(0.706591 -0.322664 -2.72214e-17)
(0.70993 -0.28155 4.45859e-16)
(0.773917 -0.26478 2.7911e-16)
(0.773632 -0.233622 -3.32883e-16)
(0.826228 -0.220122 -1.14151e-16)
(0.823114 -0.195885 -7.51891e-17)
(0.867391 -0.184904 8.75374e-18)
(0.862113 -0.16576 1.25048e-16)
(0.900124 -0.156591 9.49646e-17)
(0.893166 -0.141372 -8.74314e-18)
(0.926369 -0.133447 1.50536e-16)
(0.918055 -0.121344 3.68201e-17)
(0.947528 -0.114237 2.10442e-16)
(0.938061 -0.104661 -2.12582e-16)
(0.964624 -0.0980536 1.24126e-17)
(0.954125 -0.0905684 -7.98838e-17)
(0.978413 -0.0842177 -4.06615e-17)
(0.966944 -0.0784924 -7.98593e-18)
(0.989459 -0.0722101 -1.13339e-16)
(0.977043 -0.0679958 9.33131e-17)
(0.998187 -0.0616231 -2.09772e-16)
(0.984823 -0.0587485 3.25526e-16)
(1.00491 -0.052108 -1.46342e-16)
(0.990599 -0.0505422 -1.64879e-17)
(1.00984 -0.043286 2.8647e-17)
(0.994641 -0.0433702 -1.43509e-18)
(1.01311 -0.0346216 -4.08953e-17)
(0.997181 -0.0374749 1.98466e-17)
(1.01483 -0.0255314 -3.4804e-17)
(0.99822 -0.032814 4.54437e-17)
(1.01552 -0.0165838 6.22474e-17)
(0.997046 -0.0272439 -1.28595e-16)
(1.01585 -0.00959392 2.83029e-16)
(0.996287 -0.0269592 -4.2937e-17)
(0.378307 -0.689326 6.21683e-16)
(0.398649 -0.580768 3.90274e-16)
(0.534211 -0.54051 2.68046e-16)
(0.543365 -0.458149 6.90019e-16)
(0.64551 -0.429886 1.27246e-16)
(0.6496 -0.369706 1.66988e-16)
(0.728389 -0.347311 -9.53403e-17)
(0.728923 -0.303003 -2.26488e-16)
(0.791764 -0.284902 -3.76785e-16)
(0.78935 -0.251324 3.47171e-16)
(0.841024 -0.236748 -1.31458e-17)
(0.836251 -0.210626 3.68587e-16)
(0.879777 -0.198764 -7.05931e-17)
(0.873186 -0.178127 4.28309e-17)
(0.91057 -0.168219 5.27444e-17)
(0.902565 -0.151806 7.09601e-17)
(0.935226 -0.143241 -1.98356e-16)
(0.926076 -0.130182 2.75087e-17)
(0.955062 -0.122499 -1.82864e-16)
(0.944932 -0.112161 2.92231e-16)
(0.971041 -0.105017 -6.3004e-17)
(0.960021 -0.0969291 6.55951e-17)
(0.983871 -0.0900619 4.7239e-17)
(0.972001 -0.0838689 1.77878e-16)
(0.994082 -0.0770755 -1.71163e-16)
(0.981369 -0.0725082 1.96539e-16)
(1.00207 -0.0656173 -1.25396e-16)
(0.9885 -0.0624915 4.20545e-18)
(1.00813 -0.0553115 -1.13523e-16)
(0.993695 -0.0535944 1.77026e-16)
(1.01244 -0.04575 -1.26392e-16)
(0.997227 -0.04581 1.28737e-17)
(1.01509 -0.036356 2.14897e-17)
(0.999342 -0.0393992 1.78036e-16)
(1.01617 -0.0265012 -2.88597e-16)
(1.00004 -0.0343224 1.72313e-16)
(1.01621 -0.0167684 -1.44994e-16)
(0.998496 -0.0283387 9.36821e-17)
(1.01603 -0.00913424 -2.40774e-16)
(0.997432 -0.0273135 -1.30847e-16)
(0.424858 -0.735764 -8.27439e-17)
(0.437861 -0.619824 -1.78657e-16)
(0.570682 -0.57685 -2.27084e-16)
(0.57427 -0.488896 -4.16285e-16)
(0.674486 -0.458717 -2.69802e-16)
(0.674505 -0.394443 -3.71835e-16)
(0.751765 -0.370525 1.13465e-16)
(0.7493 -0.323194 1.30188e-16)
(0.810903 -0.303858 9.9794e-17)
(0.806214 -0.267981 1.68519e-17)
(0.856888 -0.252405 -5.72663e-17)
(0.850345 -0.224488 -4.5352e-16)
(0.893053 -0.21181 -5.02479e-17)
(0.885063 -0.18975 -2.77052e-16)
(0.921761 -0.179157 -5.97011e-17)
(0.912644 -0.16161 -3.16851e-16)
(0.944709 -0.152448 2.80725e-16)
(0.934673 -0.138482 -2.69741e-16)
(0.963124 -0.13026 2.45906e-16)
(0.95229 -0.119201 -4.42889e-16)
(0.9779 -0.111552 1.20279e-16)
(0.966328 -0.102895 -1.05728e-16)
(0.989698 -0.0955416 -6.89544e-17)
(0.977404 -0.0889072 -4.10823e-18)
(0.999011 -0.0816313 -8.43155e-17)
(0.985981 -0.0767329 2.48033e-16)
(1.0062 -0.0693517 -1.95244e-16)
(0.992413 -0.0659923 1.95253e-16)
(1.01154 -0.0583016 4.90465e-17)
(0.996986 -0.0564453 -7.41254e-17)
(1.01519 -0.0480451 1.11986e-16)
(0.99997 -0.0480841 -1.26067e-18)
(1.01718 -0.037966 -6.14733e-17)
(1.00163 -0.041187 -7.53245e-17)
(1.01757 -0.0273931 2.75393e-16)
(1.00196 -0.0357172 -2.71481e-16)
(1.01692 -0.0169218 2.48691e-16)
(1.00002 -0.029344 -2.34402e-16)
(1.01618 -0.00868105 3.25336e-16)
(0.998609 -0.0276073 3.24515e-17)
(0.474367 -0.779052 -4.84362e-17)
(0.479542 -0.656274 1.21432e-16)
(0.60946 -0.610708 1.53129e-16)
(0.607106 -0.517557 2.76797e-16)
(0.705282 -0.485558 4.33826e-16)
(0.700958 -0.417485 3.03919e-16)
(0.776599 -0.392122 -1.36868e-17)
(0.770935 -0.341994 1.54695e-16)
(0.831228 -0.321488 -6.93571e-17)
(0.824113 -0.283489 -1.1389e-17)
(0.873731 -0.266968 5.34717e-17)
(0.865298 -0.237398 4.19149e-16)
(0.907147 -0.223947 3.11729e-16)
(0.897661 -0.200578 4.04769e-16)
(0.93364 -0.189334 3.97098e-17)
(0.923329 -0.17074 4.98916e-16)
(0.954772 -0.161014 -4.26575e-16)
(0.943784 -0.146211 5.22211e-16)
(0.971676 -0.137482 -1.91577e-16)
(0.960086 -0.125754 3.75996e-16)
(0.985175 -0.117632 -8.5307e-17)
(0.973009 -0.108448 1.10357e-16)
(0.995878 -0.100639 -8.58227e-17)
(0.983126 -0.0935944 9.36399e-17)
(1.00424 -0.0858683 1.57842e-17)
(0.990865 -0.0806603 -2.56881e-16)
(1.01058 -0.0728229 2.33175e-16)
(0.996555 -0.0692426 -2.48033e-16)
(1.01516 -0.0610776 5.40948e-17)
(1.00046 -0.0590875 -1.55664e-16)
(1.01809 -0.0501706 8.09236e-17)
(1.00286 -0.0501867 -1.98882e-16)
(1.01938 -0.0394497 1.61136e-16)
(1.00403 -0.0428351 1.25841e-17)
(1.01904 -0.0282037 -1.35551e-16)
(1.00398 -0.0369984 2.66258e-16)
(1.01764 -0.01704 -2.13073e-16)
(1.00161 -0.0302631 1.87858e-16)
(1.01631 -0.00822994 -1.2996e-16)
(0.999811 -0.0278477 -2.18584e-16)
(0.526584 -0.819021 -3.82205e-16)
(0.52352 -0.689883 6.7493e-17)
(0.650362 -0.641986 -2.57253e-16)
(0.64176 -0.544015 -1.76721e-16)
(0.737773 -0.510369 -3.56267e-16)
(0.728881 -0.438767 -2.81071e-16)
(0.802807 -0.412095 -1.74926e-16)
(0.793776 -0.359361 -1.13391e-16)
(0.852681 -0.337792 -4.51086e-16)
(0.843011 -0.297811 2.85521e-16)
(0.891508 -0.280431 -2.80641e-16)
(0.881086 -0.249313 -2.13523e-16)
(0.922019 -0.235159 -6.82489e-16)
(0.910959 -0.210563 -3.80179e-16)
(0.946171 -0.198729 -2.14171e-16)
(0.934608 -0.179156 -2.01693e-16)
(0.965385 -0.168917 3.22841e-16)
(0.953399 -0.153331 -4.5803e-16)
(0.98069 -0.144138 3.29942e-16)
(0.968309 -0.131787 -4.46631e-16)
(0.992839 -0.123231 2.2995e-16)
(0.98005 -0.113554 -1.96081e-16)
(1.00238 -0.105327 1.49444e-16)
(0.98915 -0.0979005 -8.35598e-17)
(1.00973 -0.0897587 6.42757e-17)
(0.996 -0.0842636 7.68915e-17)
(1.01518 -0.0760036 1.15872e-17)
(1.0009 -0.0722205 1.88496e-18)
(1.01894 -0.0636148 1.76261e-16)
(1.00411 -0.0615036 -2.61132e-17)
(1.02112 -0.0521068 1.27112e-16)
(1.00589 -0.0521039 -8.02759e-17)
(1.02168 -0.0407934 1.50035e-16)
(1.00655 -0.0443311 -1.46506e-16)
(1.02056 -0.0289264 1.23283e-16)
(1.00608 -0.0381539 -1.67169e-16)
(1.01838 -0.017123 5.28497e-17)
(1.00327 -0.031084 -1.2276e-16)
(1.01642 -0.00778686 -1.92911e-18)
(1.00104 -0.0280243 2.782e-17)
(0.581322 -0.855483 5.39472e-16)
(0.569604 -0.720586 -6.91351e-17)
(0.693233 -0.670495 1.43559e-16)
(0.678062 -0.568151 3.46079e-16)
(0.771817 -0.532965 1.86334e-16)
(0.758123 -0.458167 4.64681e-16)
(0.830255 -0.430273 7.40668e-17)
(0.817687 -0.375185 2.72118e-16)
(0.875141 -0.352627 3.67344e-16)
(0.862787 -0.310859 -1.19079e-16)
(0.910115 -0.29268 8.79996e-17)
(0.897602 -0.26017 3.325e-16)
(0.937582 -0.245362 6.31128e-16)
(0.924869 -0.219663 5.11047e-16)
(0.959282 -0.20728 2.17903e-16)
(0.9464 -0.186826 3.6574e-17)
(0.976486 -0.176108 -3.90159e-16)
(0.963447 -0.159817 4.18928e-16)
(0.990118 -0.150194 -3.72914e-16)
(0.9769 -0.13728 1.84743e-16)
(1.00085 -0.128323 3.26091e-17)
(0.987406 -0.118202 1.09037e-17)
(1.00918 -0.109588 6.2352e-17)
(0.995442 -0.101816 -8.58422e-17)
(1.01547 -0.093293 7.80399e-17)
(1.00136 -0.0875369 -2.62752e-16)
(1.01998 -0.0788905 1.80974e-16)
(1.00544 -0.0749208 -2.65653e-16)
(1.0229 -0.0659138 4.00939e-17)
(1.00791 -0.0636887 -1.5703e-16)
(1.02429 -0.0538554 1.02474e-16)
(1.00904 -0.0538315 -1.52955e-16)
(1.02407 -0.0419986 1.20972e-16)
(1.00916 -0.0456729 -3.55675e-16)
(1.02213 -0.0295617 3.10122e-16)
(1.00826 -0.0391838 -1.48146e-16)
(1.01913 -0.0171704 4.67492e-17)
(1.00498 -0.0318095 1.79998e-16)
(1.0165 -0.00734961 -7.30439e-17)
(1.00228 -0.028143 1.74315e-16)
(0.638312 -0.888299 -5.52767e-16)
(0.617598 -0.748174 3.43901e-16)
(0.73787 -0.696177 -4.59849e-16)
(0.715875 -0.589865 -1.41339e-16)
(0.807269 -0.553332 -4.86144e-16)
(0.788586 -0.475629 -1.90223e-16)
(0.858847 -0.446662 -6.02492e-17)
(0.842601 -0.389429 -2.41607e-17)
(0.89854 -0.365999 -6.2979e-16)
(0.883397 -0.322601 4.09186e-16)
(0.929501 -0.303716 -2.11793e-16)
(0.914815 -0.269933 -2.59512e-16)
(0.953796 -0.254547 -5.22717e-16)
(0.939363 -0.227838 -6.34075e-16)
(0.972939 -0.21497 -2.66296e-16)
(0.958688 -0.19371 1.62108e-17)
(0.988047 -0.18257 2.97249e-16)
(0.973917 -0.165634 -2.56168e-16)
(0.999934 -0.15563 1.77918e-16)
(0.985849 -0.142202 -1.1271e-16)
(1.00919 -0.132889 9.7585e-17)
(0.995063 -0.122361 -1.72804e-16)
(1.01625 -0.113403 2.50718e-17)
(1.00199 -0.105315 -7.87832e-17)
(1.02143 -0.0964499 1.92147e-16)
(1.00694 -0.0904557 -3.88507e-17)
(1.02497 -0.0814616 1.41756e-16)
(1.01015 -0.077323 1.09447e-17)
(1.027 -0.0679532 2.92863e-16)
(1.01185 -0.0656267 -1.98704e-16)
(1.02756 -0.0553979 3.54012e-16)
(1.01231 -0.0553568 -2.5664e-16)
(1.02653 -0.0430512 3.10593e-16)
(1.01186 -0.0468494 -3.52037e-17)
(1.02374 -0.0301011 2.06522e-16)
(1.0105 -0.0400778 -4.32457e-16)
(1.01988 -0.0171795 3.39405e-16)
(1.00674 -0.0324298 -3.86365e-16)
(1.01657 -0.00692164 5.34136e-17)
(1.00354 -0.0281957 -4.04297e-17)
(0.697345 -0.917309 5.62008e-16)
(0.667297 -0.772603 -3.68197e-17)
(0.784101 -0.718848 7.39663e-17)
(0.755023 -0.609063 5.22912e-16)
(0.843978 -0.571296 5.32698e-16)
(0.820117 -0.491054 2.29207e-16)
(0.888442 -0.461109 -1.87274e-16)
(0.868381 -0.402005 1.12478e-16)
(0.922753 -0.377784 4.34847e-16)
(0.904715 -0.332965 -3.0892e-16)
(0.949556 -0.31344 1.82333e-16)
(0.932615 -0.27855 2.68278e-16)
(0.970566 -0.262641 4.37823e-16)
(0.954349 -0.235055 3.7775e-16)
(0.987063 -0.221746 4.2928e-16)
(0.971389 -0.199785 -6.18361e-17)
(1 -0.188262 -1.68668e-16)
(0.984734 -0.170765 7.21653e-17)
(1.01008 -0.160415 1.99469e-17)
(0.995092 -0.146539 -5.13872e-17)
(1.01781 -0.136904 7.89534e-17)
(1.00297 -0.126022 -8.46475e-17)
(1.02356 -0.116754 2.25285e-16)
(1.00875 -0.108391 -3.24746e-16)
(1.0276 -0.0992194 1.39812e-16)
(1.01269 -0.093017 -2.95524e-16)
(1.03011 -0.0837129 3.59772e-17)
(1.01502 -0.0794251 -1.91218e-16)
(1.03123 -0.0697335 -2.85465e-17)
(1.01592 -0.0673153 -9.5946e-17)
(1.03094 -0.0567372 -1.87217e-16)
(1.01567 -0.0566778 9.82279e-17)
(1.02907 -0.0439548 -1.61748e-16)
(1.01463 -0.0478596 -1.9258e-16)
(1.0254 -0.0305475 9.08279e-17)
(1.01281 -0.0408365 2.06271e-16)
(1.02064 -0.0171524 -6.2849e-17)
(1.00854 -0.0329469 2.33817e-16)
(1.01661 -0.00650283 -1.21331e-16)
(1.00482 -0.0281865 1.82253e-16)
(0.758135 -0.942409 -5.52167e-16)
(0.718487 -0.793698 -2.90022e-16)
(0.831712 -0.738492 -1.79026e-16)
(0.795349 -0.625662 -1.71165e-16)
(0.881789 -0.586869 -9.24162e-16)
(0.852601 -0.504396 -1.01246e-16)
(0.918931 -0.473632 -1.5247e-17)
(0.894944 -0.412882 7.02971e-18)
(0.947701 -0.387995 -3.55829e-16)
(0.926685 -0.341924 2.22399e-16)
(0.970221 -0.32186 3.88814e-17)
(0.95096 -0.285992 -4.9483e-16)
(0.987846 -0.269641 -1.78208e-16)
(0.969792 -0.241279 -2.67039e-16)
(1.00161 -0.227599 -2.35133e-16)
(0.984477 -0.205018 7.95936e-18)
(1.01231 -0.193172 3.38263e-16)
(0.995882 -0.175178 -2.10444e-16)
(1.02053 -0.164536 2.6873e-16)
(1.00462 -0.150265 -3.50379e-16)
(1.02668 -0.140356 2.12166e-16)
(1.01112 -0.12916 -1.10718e-16)
(1.03108 -0.119629 4.50734e-18)
(1.0157 -0.111021 7.67247e-17)
(1.03393 -0.101587 1.84564e-16)
(1.01861 -0.0951993 9.78775e-17)
(1.0354 -0.0856283 8.29201e-17)
(1.02001 -0.0812085 1.00001e-16)
(1.03557 -0.0712384 5.40753e-17)
(1.0201 -0.0687398 1.64955e-16)
(1.0344 -0.0578578 1.36274e-16)
(1.01912 -0.0577827 -4.98652e-17)
(1.03166 -0.0446964 1.31099e-16)
(1.01748 -0.0486938 2.37548e-16)
(1.02708 -0.0308921 1.29341e-17)
(1.01517 -0.0414511 -3.69014e-16)
(1.02141 -0.017085 3.33264e-16)
(1.01038 -0.0333532 -2.83185e-16)
(1.01664 -0.00609449 8.28246e-17)
(1.0061 -0.02811 -1.24215e-16)
(0.820453 -0.963473 7.79592e-16)
(0.770952 -0.811434 7.45998e-16)
(0.880509 -0.754939 1.32411e-16)
(0.836675 -0.639592 2.00969e-16)
(0.920534 -0.599894 7.34636e-16)
(0.885884 -0.515581 6.61513e-17)
(0.950166 -0.484101 1.20195e-16)
(0.922154 -0.421993 1.23237e-16)
(0.973253 -0.396526 1.24804e-16)
(0.949182 -0.349425 -1.54984e-16)
(0.991382 -0.328892 -8.83483e-17)
(0.969741 -0.292221 3.57759e-16)
(1.00554 -0.275486 2.60729e-16)
(0.985601 -0.246487 1.69342e-16)
(1.01651 -0.232484 3.79973e-17)
(0.997871 -0.209393 -4.78621e-17)
(1.02492 -0.197266 -3.43789e-16)
(1.00729 -0.178864 8.46328e-17)
(1.03122 -0.167968 -1.98692e-17)
(1.01436 -0.15337 9.65709e-17)
(1.03576 -0.143225 2.38353e-17)
(1.01944 -0.13177 -2.84675e-17)
(1.03877 -0.122011 1.21111e-16)
(1.02282 -0.113202 -1.50001e-16)
(1.04041 -0.103542 -5.18048e-17)
(1.02466 -0.0970029 -2.63098e-16)
(1.04081 -0.0872035 1.22896e-16)
(1.02512 -0.0826743 -2.64816e-16)
(1.04001 -0.0724674 1.34647e-16)
(1.02436 -0.0699009 -3.23984e-16)
(1.03794 -0.0587623 -5.99654e-17)
(1.02264 -0.0586722 -9.4003e-18)
(1.03431 -0.04528 -2.14468e-16)
(1.02038 -0.0493527 -2.07386e-16)
(1.02879 -0.031139 -1.72077e-16)
(1.01758 -0.0419228 1.66809e-16)
(1.02218 -0.0169808 -1.84054e-16)
(1.01226 -0.0336506 6.90056e-17)
(1.01664 -0.00569793 -7.12207e-18)
(1.00739 -0.0279687 2.1885e-16)
(0.884004 -0.980426 -9.27807e-16)
(0.824463 -0.825675 -7.49761e-16)
(0.930284 -0.768207 -4.10217e-16)
(0.878826 -0.65079 1.06762e-16)
(0.960059 -0.610403 -6.25387e-16)
(0.919835 -0.524575 1.48069e-16)
(0.982032 -0.492544 -3.49258e-16)
(0.949913 -0.429317 -1.15697e-16)
(0.999325 -0.403402 4.09541e-17)
(0.972138 -0.355448 2.16215e-16)
(1.01297 -0.334552 1.14269e-16)
(0.988906 -0.297214 -1.53848e-16)
(1.02359 -0.280181 -1.27197e-16)
(1.00173 -0.250652 -3.97879e-16)
(1.03171 -0.236398 8.877e-17)
(1.01154 -0.212884 7.1247e-17)
(1.03777 -0.200537 3.02149e-16)
(1.01892 -0.181796 -2.25155e-16)
(1.04213 -0.170702 1.1459e-16)
(1.02429 -0.155833 -1.63621e-16)
(1.04502 -0.145502 2.91905e-17)
(1.02794 -0.133832 1.49551e-17)
(1.04661 -0.123893 -1.92462e-16)
(1.03007 -0.114915 1.94539e-18)
(1.04702 -0.105078 2.94703e-16)
(1.03083 -0.0984093 -1.50141e-17)
(1.04632 -0.0884284 5.06863e-17)
(1.03032 -0.0838062 1.24467e-16)
(1.04453 -0.0734096 -1.52258e-17)
(1.0287 -0.070785 1.54654e-16)
(1.04153 -0.0594395 4.75914e-17)
(1.02622 -0.0593352 2.11284e-16)
(1.03699 -0.0456956 5.93327e-17)
(1.02333 -0.0498276 3.75083e-16)
(1.03053 -0.0312805 1.90501e-16)
(1.02001 -0.0422444 -4.65959e-17)
(1.02295 -0.0168355 1.33321e-16)
(1.01415 -0.033833 4.31791e-17)
(1.01663 -0.00531317 -1.50009e-16)
(1.00867 -0.0277594 -1.28062e-17)
(0.948539 -0.993182 9.67679e-16)
(0.878798 -0.836412 6.93026e-16)
(0.980812 -0.778149 3.44659e-16)
(0.921622 -0.659213 7.54444e-17)
(1.00018 -0.618266 2.22437e-16)
(0.9543 -0.531327 -1.19973e-17)
(1.01437 -0.498852 2.99533e-16)
(0.978087 -0.434806 8.26429e-17)
(1.02578 -0.408532 -1.5227e-16)
(0.995431 -0.359956 -1.76191e-16)
(1.03488 -0.338769 9.80402e-17)
(1.00835 -0.300946 -1.06999e-16)
(1.0419 -0.283674 -6.42291e-17)
(1.01809 -0.253761 6.31953e-16)
(1.04712 -0.239305 -3.71668e-16)
(1.0254 -0.215483 7.92024e-17)
(1.05081 -0.202961 -1.17491e-16)
(1.03072 -0.183972 -1.22621e-17)
(1.05319 -0.17272 2.22412e-16)
(1.03437 -0.157652 -1.17017e-16)
(1.0544 -0.147173 8.56956e-17)
(1.03655 -0.135345 8.83239e-17)
(1.05456 -0.125263 7.88672e-17)
(1.03742 -0.116163 -1.45679e-16)
(1.05371 -0.106184 1.05561e-16)
(1.03707 -0.0994219 -2.4216e-16)
(1.0519 -0.0892983 3.89618e-17)
(1.03559 -0.0846081 7.44357e-17)
(1.04911 -0.0740639 -3.42345e-16)
(1.0331 -0.0713962 1.08382e-16)
(1.04517 -0.059891 -1.72797e-16)