/*--------------------------------*- C++ -*----------------------------------*\
| =========                 |                                                 |
| \\      /  F ield         | foam-extend: Open Source CFD                    |
|  \\    /   O peration     | Version:  3.0                                   |
|   \\  /    A nd           | Web:         http://www.extend-project.de       |
|    \\/     M anipulation  |                                                 |
\*---------------------------------------------------------------------------*/
FoamFile
{
    version     2.0;
    format      ascii;
    class       volVectorField;
    location    "80";
    object      s;
}
// * * * * * * * * * * * * * * * * * * * * * * * * * * * * * * * * * * * * * //

dimensions      [0 1 -1 0 0 0 0];

internalField   nonuniform List<vector> 
20480
(
(1.5065 0.0147305 0)
(1.44059 0.0141364 0)
(1.38018 0.0135435 0)
(1.32466 0.0130035 0)
(1.27342 0.0125007 0)
(1.22601 0.012036 0)
(1.18199 0.011604 0)
(1.14103 0.0112021 0)
(1.10281 0.0108269 0)
(1.06707 0.0104761 0)
(1.03357 0.0101473 0)
(1.00211 0.00983843 0)
(0.972512 0.00954782 0)
(0.944608 0.0092739 0)
(0.918261 0.00901524 0)
(0.893343 0.00877062 0)
(0.869741 0.00853891 0)
(0.847355 0.00831913 0)
(0.826091 0.00811038 0)
(0.805868 0.00791185 0)
(0.786612 0.0077228 0)
(0.768254 0.00754257 0)
(0.750734 0.00737057 0)
(0.733995 0.00720623 0)
(0.717985 0.00704906 0)
(0.702659 0.0068986 0)
(0.687974 0.00675443 0)
(0.67389 0.00661616 0)
(0.660371 0.00648344 0)
(0.647384 0.00635594 0)
(0.634897 0.00623336 0)
(0.622883 0.00611541 0)
(0.611315 0.00600185 0)
(0.600169 0.00589243 0)
(0.589423 0.00578693 0)
(0.579054 0.00568514 0)
(0.569044 0.00558687 0)
(0.559374 0.00549194 0)
(0.550027 0.00540019 0)
(0.540987 0.00531145 0)
(0.53224 0.00522559 0)
(0.523771 0.00514246 0)
(0.515567 0.00506194 0)
(0.507617 0.00498391 0)
(0.499908 0.00490825 0)
(0.492429 0.00483486 0)
(0.485171 0.00476363 0)
(0.478124 0.00469449 0)
(0.471279 0.00462734 0)
(0.464627 0.0045621 0)
(0.458161 0.00449868 0)
(0.451872 0.00443706 0)
(0.445753 0.00437708 0)
(0.439798 0.00431886 0)
(0.434001 0.00426205 0)
(0.428354 0.00420712 0)
(0.422854 0.00415324 0)
(0.417492 0.00410173 0)
(0.412268 0.00405056 0)
(0.407169 0.00400316 0)
(0.402204 0.00395439 0)
(0.39735 0.00391322 0)
(0.39263 0.00386647 0)
(0.388004 0.00383767 0)
(1.50591 0.0444267 0)
(1.44004 0.0424321 0)
(1.37964 0.0406526 0)
(1.32415 0.0390124 0)
(1.27293 0.0375033 0)
(1.22554 0.0361061 0)
(1.18154 0.0348099 0)
(1.14059 0.0336033 0)
(1.10239 0.0324777 0)
(1.06666 0.031425 0)
(1.03318 0.0304385 0)
(1.00173 0.0295119 0)
(0.972137 0.0286402 0)
(0.944244 0.0278184 0)
(0.917907 0.0270424 0)
(0.892998 0.0263086 0)
(0.869406 0.0256135 0)
(0.847028 0.0249542 0)
(0.825773 0.024328 0)
(0.805558 0.0237325 0)
(0.786309 0.0231654 0)
(0.767958 0.0226247 0)
(0.750444 0.0221088 0)
(0.733712 0.0216158 0)
(0.717709 0.0211443 0)
(0.702389 0.020693 0)
(0.687709 0.0202605 0)
(0.67363 0.0198457 0)
(0.660116 0.0194476 0)
(0.647134 0.0190651 0)
(0.634652 0.0186974 0)
(0.622643 0.0183436 0)
(0.61108 0.0180029 0)
(0.599938 0.0176746 0)
(0.589195 0.0173581 0)
(0.578831 0.0170528 0)
(0.568824 0.016758 0)
(0.559158 0.0164732 0)
(0.549815 0.0161979 0)
(0.540779 0.0159317 0)
(0.532035 0.0156741 0)
(0.523569 0.0154246 0)
(0.515368 0.015183 0)
(0.507421 0.0149489 0)
(0.499715 0.0147218 0)
(0.492239 0.0145015 0)
(0.484984 0.0142878 0)
(0.47794 0.0140802 0)
(0.471097 0.0138786 0)
(0.464448 0.0136826 0)
(0.457984 0.0134921 0)
(0.451698 0.0133068 0)
(0.445582 0.0131265 0)
(0.439629 0.0129509 0)
(0.433834 0.01278 0)
(0.428189 0.0126132 0)
(0.422691 0.0124511 0)
(0.417331 0.0122921 0)
(0.412109 0.0121381 0)
(0.407013 0.0119854 0)
(0.402049 0.0118391 0)
(0.397198 0.0116897 0)
(0.392479 0.0115512 0)
(0.387855 0.0113984 0)
(1.50472 0.0740232 0)
(1.4389 0.0707068 0)
(1.37858 0.06774 0)
(1.32312 0.0650058 0)
(1.27195 0.0624908 0)
(1.22459 0.0601622 0)
(1.18063 0.0580022 0)
(1.13971 0.0559916 0)
(1.10154 0.054116 0)
(1.06584 0.0523618 0)
(1.03238 0.0507179 0)
(1.00095 0.0491741 0)
(0.971387 0.0477214 0)
(0.943516 0.0463521 0)
(0.917199 0.0450592 0)
(0.89231 0.0438364 0)
(0.868736 0.0426783 0)
(0.846375 0.0415797 0)
(0.825136 0.0405363 0)
(0.804937 0.039544 0)
(0.785702 0.038599 0)
(0.767366 0.0376982 0)
(0.749866 0.0368384 0)
(0.733146 0.036017 0)
(0.717155 0.0352314 0)
(0.701847 0.0344794 0)
(0.687179 0.0337587 0)
(0.673111 0.0330676 0)
(0.659607 0.0324042 0)
(0.646635 0.0317669 0)
(0.634163 0.0311542 0)
(0.622163 0.0305646 0)
(0.610608 0.029997 0)
(0.599475 0.02945 0)
(0.588741 0.0289227 0)
(0.578384 0.0284138 0)
(0.568386 0.0279226 0)
(0.558727 0.0274481 0)
(0.549391 0.0269894 0)
(0.540361 0.0265458 0)
(0.531624 0.0261165 0)
(0.523165 0.0257009 0)
(0.514971 0.0252983 0)
(0.50703 0.0249081 0)
(0.499329 0.0245297 0)
(0.49186 0.0241627 0)
(0.48461 0.0238064 0)
(0.477571 0.0234605 0)
(0.470734 0.0231245 0)
(0.46409 0.0227979 0)
(0.457631 0.0224804 0)
(0.451349 0.0221715 0)
(0.445237 0.021871 0)
(0.439289 0.0215782 0)
(0.433498 0.0212934 0)
(0.427858 0.0210153 0)
(0.422363 0.0207448 0)
(0.417007 0.0204798 0)
(0.411786 0.0202225 0)
(0.406694 0.0199683 0)
(0.401727 0.0197231 0)
(0.39688 0.0194763 0)
(0.392148 0.0192425 0)
(0.387528 0.0189961 0)
(1.50294 0.103517 0)
(1.43721 0.098946 0)
(1.37697 0.0947958 0)
(1.32159 0.0909729 0)
(1.27047 0.0874536 0)
(1.22317 0.0841949 0)
(1.17926 0.081172 0)
(1.1384 0.0783581 0)
(1.10026 0.0757333 0)
(1.06461 0.0732784 0)
(1.03118 0.0709778 0)
(0.999796 0.0688172 0)
(0.970263 0.0667843 0)
(0.942424 0.064868 0)
(0.916137 0.0630586 0)
(0.891277 0.0613474 0)
(0.86773 0.0597266 0)
(0.845395 0.0581892 0)
(0.824181 0.056729 0)
(0.804005 0.0553402 0)
(0.784793 0.0540178 0)
(0.766478 0.0527571 0)
(0.748998 0.0515539 0)
(0.732297 0.0504044 0)
(0.716325 0.049305 0)
(0.701035 0.0482525 0)
(0.686383 0.047244 0)
(0.672332 0.0462768 0)
(0.658844 0.0453484 0)
(0.645886 0.0444565 0)
(0.633429 0.043599 0)
(0.621443 0.0427739 0)
(0.609902 0.0419795 0)
(0.598782 0.0412141 0)
(0.58806 0.040476 0)
(0.577715 0.0397639 0)
(0.567728 0.0390765 0)
(0.55808 0.0384124 0)
(0.548755 0.0377705 0)
(0.539736 0.0371496 0)
(0.531009 0.0365489 0)
(0.52256 0.0359672 0)
(0.514375 0.0354038 0)
(0.506443 0.0348577 0)
(0.498751 0.0343282 0)
(0.49129 0.0338145 0)
(0.484049 0.0333159 0)
(0.477018 0.0328318 0)
(0.470189 0.0323615 0)
(0.463552 0.0319045 0)
(0.457101 0.0314601 0)
(0.450826 0.0310278 0)
(0.444721 0.0306073 0)
(0.43878 0.0301977 0)
(0.432995 0.029799 0)
(0.427361 0.0294101 0)
(0.421872 0.0290317 0)
(0.416521 0.0286617 0)
(0.411306 0.0283018 0)
(0.406217 0.0279488 0)
(0.401254 0.0276061 0)
(0.396409 0.0272688 0)
(0.391678 0.0269419 0)
(0.387059 0.0266205 0)
(1.5006 0.132984 0)
(1.43498 0.127143 0)
(1.37484 0.121813 0)
(1.31954 0.116904 0)
(1.26851 0.112382 0)
(1.22128 0.108195 0)
(1.17744 0.10431 0)
(1.13664 0.100694 0)
(1.09856 0.0973213 0)
(1.06296 0.0941667 0)
(1.02959 0.0912103 0)
(0.998252 0.0884338 0)
(0.968764 0.0858214 0)
(0.940968 0.0833588 0)
(0.914722 0.0810337 0)
(0.889901 0.0788347 0)
(0.86639 0.0767518 0)
(0.84409 0.0747762 0)
(0.822908 0.0728997 0)
(0.802763 0.0711151 0)
(0.783581 0.0694157 0)
(0.765294 0.0677957 0)
(0.747841 0.0662495 0)
(0.731166 0.0647723 0)
(0.715219 0.0633595 0)
(0.699952 0.062007 0)
(0.685323 0.060711 0)
(0.671293 0.0594681 0)
(0.657826 0.058275 0)
(0.644889 0.0571289 0)
(0.632451 0.056027 0)
(0.620483 0.0549667 0)
(0.60896 0.0539459 0)
(0.597857 0.0529622 0)
(0.587151 0.0520138 0)
(0.576823 0.0510987 0)
(0.566851 0.0502153 0)
(0.557218 0.0493619 0)
(0.547907 0.048537 0)
(0.538902 0.0477392 0)
(0.530189 0.0469672 0)
(0.521753 0.0462197 0)
(0.51358 0.0454956 0)
(0.50566 0.0447939 0)
(0.497981 0.0441134 0)
(0.490531 0.0434533 0)
(0.483301 0.0428126 0)
(0.476281 0.0421905 0)
(0.469462 0.0415862 0)
(0.462836 0.0409989 0)
(0.456394 0.0404279 0)
(0.450129 0.0398724 0)
(0.444034 0.0393321 0)
(0.438101 0.0388058 0)
(0.432325 0.0382937 0)
(0.426699 0.0377943 0)
(0.421218 0.0373082 0)
(0.415875 0.0368335 0)
(0.410667 0.0363716 0)
(0.405586 0.0359196 0)
(0.40063 0.0354804 0)
(0.395792 0.0350498 0)
(0.391069 0.0346318 0)
(0.386458 0.0342225 0)
(1.4977 0.162407 0)
(1.4322 0.15529 0)
(1.37218 0.148781 0)
(1.31699 0.142789 0)
(1.26606 0.137266 0)
(1.21892 0.132153 0)
(1.17516 0.127408 0)
(1.13444 0.122992 0)
(1.09644 0.118872 0)
(1.06091 0.115019 0)
(1.0276 0.111408 0)
(0.996323 0.108016 0)
(0.966892 0.104825 0)
(0.93915 0.101818 0)
(0.912955 0.0989775 0)
(0.888181 0.0962915 0)
(0.864716 0.0937475 0)
(0.842459 0.0913344 0)
(0.821318 0.0890424 0)
(0.801212 0.0868625 0)
(0.782067 0.0847869 0)
(0.763816 0.0828081 0)
(0.746396 0.0809196 0)
(0.729754 0.0791152 0)
(0.713837 0.0773896 0)
(0.6986 0.0757376 0)
(0.683999 0.0741546 0)
(0.669996 0.0726365 0)
(0.656555 0.0711792 0)
(0.643643 0.0697793 0)
(0.631229 0.0684334 0)
(0.619284 0.0671383 0)
(0.607783 0.0658914 0)
(0.596702 0.06469 0)
(0.586017 0.0635315 0)
(0.575708 0.0624138 0)
(0.565756 0.0613348 0)
(0.556142 0.0602924 0)
(0.546849 0.0592848 0)
(0.537861 0.0583103 0)
(0.529164 0.0573674 0)
(0.520744 0.0564544 0)
(0.512588 0.05557 0)
(0.504683 0.0547129 0)
(0.497019 0.0538817 0)
(0.489583 0.0530755 0)
(0.482367 0.0522929 0)
(0.475361 0.0515331 0)
(0.468555 0.050795 0)
(0.461941 0.0500776 0)
(0.455512 0.0493803 0)
(0.449259 0.0487019 0)
(0.443175 0.048042 0)
(0.437254 0.0473994 0)
(0.431488 0.046774 0)
(0.425873 0.0461645 0)
(0.420402 0.0455709 0)
(0.41507 0.0449919 0)
(0.409871 0.0444279 0)
(0.4048 0.0438771 0)
(0.399853 0.0433407 0)
(0.395026 0.0428165 0)
(0.390312 0.0423057 0)
(0.385711 0.0418067 0)
(1.49422 0.191772 0)
(1.42887 0.183376 0)
(1.36899 0.175692 0)
(1.31393 0.168618 0)
(1.26312 0.162097 0)
(1.21609 0.156059 0)
(1.17243 0.150457 0)
(1.13181 0.145241 0)
(1.0939 0.140376 0)
(1.05844 0.135826 0)
(1.02522 0.131562 0)
(0.99401 0.127557 0)
(0.964648 0.123789 0)
(0.93697 0.120237 0)
(0.910835 0.116883 0)
(0.886119 0.113711 0)
(0.862709 0.110707 0)
(0.840503 0.107857 0)
(0.819411 0.105151 0)
(0.799352 0.102577 0)
(0.780252 0.100125 0)
(0.762042 0.0977886 0)
(0.744664 0.0955584 0)
(0.72806 0.0934276 0)
(0.71218 0.0913898 0)
(0.696978 0.089439 0)
(0.682411 0.0875696 0)
(0.668441 0.0857769 0)
(0.655031 0.084056 0)
(0.642149 0.0824028 0)
(0.629763 0.0808134 0)
(0.617847 0.0792841 0)
(0.606372 0.0778116 0)
(0.595316 0.0763928 0)
(0.584657 0.0750248 0)
(0.574372 0.0737049 0)
(0.564442 0.0724306 0)
(0.55485 0.0711996 0)
(0.545579 0.0700098 0)
(0.536612 0.068859 0)
(0.527936 0.0677455 0)
(0.519535 0.0666673 0)
(0.511398 0.065623 0)
(0.503511 0.0646108 0)
(0.495865 0.0636293 0)
(0.488447 0.0626772 0)
(0.481247 0.0617531 0)
(0.474257 0.0608559 0)
(0.467467 0.0599843 0)
(0.460868 0.0591372 0)
(0.454453 0.0583137 0)
(0.448215 0.0575128 0)
(0.442145 0.0567335 0)
(0.436238 0.055975 0)
(0.430486 0.0552365 0)
(0.424883 0.054517 0)
(0.419425 0.0538163 0)
(0.414105 0.0531329 0)
(0.408918 0.0524672 0)
(0.403859 0.0518174 0)
(0.398924 0.0511841 0)
(0.394108 0.0505657 0)
(0.389406 0.0499626 0)
(0.384815 0.0493735 0)
(1.49016 0.221065 0)
(1.42499 0.211392 0)
(1.36527 0.202534 0)
(1.31036 0.194382 0)
(1.25969 0.186865 0)
(1.21279 0.179905 0)
(1.16925 0.173447 0)
(1.12873 0.167435 0)
(1.09093 0.161826 0)
(1.05557 0.156581 0)
(1.02243 0.151665 0)
(0.991314 0.147049 0)
(0.962031 0.142705 0)
(0.934428 0.13861 0)
(0.908365 0.134744 0)
(0.883716 0.131087 0)
(0.860369 0.127624 0)
(0.838223 0.124339 0)
(0.817189 0.121218 0)
(0.797184 0.118251 0)
(0.778135 0.115425 0)
(0.759975 0.112731 0)
(0.742644 0.11016 0)
(0.726085 0.107704 0)
(0.710248 0.105355 0)
(0.695087 0.103106 0)
(0.68056 0.100951 0)
(0.666628 0.0988842 0)
(0.653255 0.0969003 0)
(0.640407 0.0949945 0)
(0.628055 0.0931622 0)
(0.616171 0.0913993 0)
(0.604728 0.0897017 0)
(0.593702 0.0880661 0)
(0.583071 0.0864891 0)
(0.572814 0.0849675 0)
(0.562911 0.0834985 0)
(0.553345 0.0820795 0)
(0.544099 0.0807078 0)
(0.535157 0.0793812 0)
(0.526504 0.0780975 0)
(0.518126 0.0768546 0)
(0.510011 0.0756507 0)
(0.502146 0.0744838 0)
(0.494519 0.0733524 0)
(0.487121 0.0722548 0)
(0.479941 0.0711896 0)
(0.47297 0.0701552 0)
(0.466198 0.0691505 0)
(0.459618 0.0681741 0)
(0.45322 0.0672248 0)
(0.446998 0.0663016 0)
(0.440945 0.0654034 0)
(0.435053 0.0645291 0)
(0.429317 0.0636779 0)
(0.42373 0.0628487 0)
(0.418286 0.062041 0)
(0.412981 0.0612536 0)
(0.407808 0.0604862 0)
(0.402763 0.0597375 0)
(0.397841 0.0590074 0)
(0.393038 0.0582948 0)
(0.38835 0.0575995 0)
(0.383772 0.0569205 0)
(1.48553 0.250276 0)
(1.42056 0.239326 0)
(1.36103 0.229298 0)
(1.30629 0.220071 0)
(1.25578 0.211561 0)
(1.20902 0.203682 0)
(1.16562 0.19637 0)
(1.12523 0.189564 0)
(1.08754 0.183214 0)
(1.05229 0.177276 0)
(1.01926 0.17171 0)
(0.988235 0.166483 0)
(0.959043 0.161565 0)
(0.931526 0.15693 0)
(0.905544 0.152552 0)
(0.880971 0.148412 0)
(0.857697 0.144491 0)
(0.83562 0.140772 0)
(0.814651 0.137239 0)
(0.794709 0.13388 0)
(0.775719 0.130681 0)
(0.757615 0.127631 0)
(0.740338 0.12472 0)
(0.72383 0.121939 0)
(0.708043 0.119279 0)
(0.692929 0.116733 0)
(0.678447 0.114293 0)
(0.664558 0.111953 0)
(0.651226 0.109707 0)
(0.638418 0.10755 0)
(0.626105 0.105475 0)
(0.614257 0.103479 0)
(0.60285 0.101557 0)
(0.591858 0.0997055 0)
(0.58126 0.0979201 0)
(0.571035 0.0961974 0)
(0.561163 0.0945343 0)
(0.551627 0.0929276 0)
(0.542409 0.0913747 0)
(0.533495 0.0898728 0)
(0.524869 0.0884194 0)
(0.516517 0.0870123 0)
(0.508427 0.0856493 0)
(0.500586 0.0843282 0)
(0.492983 0.0830473 0)
(0.485608 0.0818047 0)
(0.478451 0.0805987 0)
(0.471501 0.0794277 0)
(0.46475 0.0782902 0)
(0.45819 0.0771848 0)
(0.451812 0.0761101 0)
(0.44561 0.0750649 0)
(0.439575 0.0740481 0)
(0.433702 0.0730584 0)
(0.427983 0.0720948 0)
(0.422413 0.0711562 0)
(0.416987 0.0702418 0)
(0.411698 0.0693505 0)
(0.406541 0.0684818 0)
(0.401512 0.0676343 0)
(0.396605 0.0668078 0)
(0.391817 0.0660012 0)
(0.387144 0.065214 0)
(0.38258 0.0644452 0)
(1.48033 0.279391 0)
(1.41559 0.267169 0)
(1.35627 0.255974 0)
(1.30172 0.245675 0)
(1.25138 0.236175 0)
(1.20479 0.22738 0)
(1.16154 0.219217 0)
(1.12129 0.21162 0)
(1.08373 0.204531 0)
(1.04861 0.197902 0)
(1.01569 0.191689 0)
(0.984776 0.185854 0)
(0.955686 0.180364 0)
(0.928265 0.175189 0)
(0.902374 0.170302 0)
(0.877887 0.16568 0)
(0.854694 0.161303 0)
(0.832695 0.157151 0)
(0.811799 0.153208 0)
(0.791927 0.149457 0)
(0.773003 0.145886 0)
(0.754963 0.142481 0)
(0.737746 0.139231 0)
(0.721296 0.136127 0)
(0.705564 0.133158 0)
(0.690503 0.130315 0)
(0.676072 0.127592 0)
(0.662232 0.124979 0)
(0.648946 0.122472 0)
(0.636184 0.120063 0)
(0.623913 0.117747 0)
(0.612107 0.115519 0)
(0.600739 0.113374 0)
(0.589786 0.111307 0)
(0.579225 0.109313 0)
(0.569036 0.10739 0)
(0.559199 0.105534 0)
(0.549696 0.10374 0)
(0.540511 0.102006 0)
(0.531627 0.10033 0)
(0.523031 0.0987073 0)
(0.514709 0.0971365 0)
(0.506647 0.0956148 0)
(0.498833 0.0941401 0)
(0.491258 0.0927102 0)
(0.483908 0.091323 0)
(0.476776 0.0899767 0)
(0.46985 0.0886695 0)
(0.463123 0.0873997 0)
(0.456586 0.0861657 0)
(0.45023 0.0849661 0)
(0.44405 0.0837994 0)
(0.438036 0.0826643 0)
(0.432183 0.0815595 0)
(0.426484 0.0804839 0)
(0.420934 0.0794362 0)
(0.415526 0.0784155 0)
(0.410256 0.0774207 0)
(0.405117 0.0764508 0)
(0.400106 0.075505 0)
(0.395217 0.0745823 0)
(0.390445 0.0736819 0)
(0.385788 0.072803 0)
(0.381241 0.0719448 0)
(1.47456 0.308399 0)
(1.41007 0.294909 0)
(1.35098 0.282552 0)
(1.29664 0.271184 0)
(1.2465 0.260698 0)
(1.20009 0.25099 0)
(1.15701 0.24198 0)
(1.11692 0.233594 0)
(1.07951 0.225769 0)
(1.04452 0.218452 0)
(1.01173 0.211594 0)
(0.980936 0.205153 0)
(0.95196 0.199093 0)
(0.924647 0.19338 0)
(0.898856 0.187986 0)
(0.874465 0.182885 0)
(0.851362 0.178053 0)
(0.829449 0.17347 0)
(0.808635 0.169117 0)
(0.788839 0.164976 0)
(0.76999 0.161034 0)
(0.75202 0.157276 0)
(0.73487 0.153689 0)
(0.718484 0.150262 0)
(0.702814 0.146985 0)
(0.687811 0.143847 0)
(0.673436 0.140841 0)
(0.65965 0.137957 0)
(0.646417 0.13519 0)
(0.633704 0.132531 0)
(0.621481 0.129974 0)
(0.609721 0.127515 0)
(0.598397 0.125147 0)
(0.587487 0.122865 0)
(0.576967 0.120664 0)
(0.566818 0.118542 0)
(0.557019 0.116492 0)
(0.547553 0.114512 0)
(0.538403 0.112599 0)
(0.529555 0.110748 0)
(0.520992 0.108957 0)
(0.512702 0.107223 0)
(0.504671 0.105544 0)
(0.496889 0.103916 0)
(0.489342 0.102337 0)
(0.482022 0.100806 0)
(0.474917 0.0993201 0)
(0.468018 0.0978772 0)
(0.461317 0.0964756 0)
(0.454805 0.0951135 0)
(0.448475 0.0937894 0)
(0.442318 0.0925016 0)
(0.436328 0.0912487 0)
(0.430498 0.0900292 0)
(0.424821 0.088842 0)
(0.419293 0.0876856 0)
(0.413906 0.086559 0)
(0.408656 0.0854609 0)
(0.403538 0.0843904 0)
(0.398546 0.0833463 0)
(0.393676 0.0823279 0)
(0.388923 0.081334 0)
(0.384284 0.0803639 0)
(0.379754 0.0794166 0)
(1.46822 0.337289 0)
(1.40401 0.322536 0)
(1.34517 0.30902 0)
(1.29106 0.296589 0)
(1.24114 0.28512 0)
(1.19493 0.274503 0)
(1.15204 0.264649 0)
(1.11212 0.255478 0)
(1.07487 0.24692 0)
(1.04003 0.238917 0)
(1.00738 0.231417 0)
(0.976719 0.224373 0)
(0.947868 0.217745 0)
(0.920671 0.211497 0)
(0.894992 0.205598 0)
(0.870705 0.200018 0)
(0.847702 0.194734 0)
(0.825883 0.189721 0)
(0.805158 0.18496 0)
(0.785448 0.180432 0)
(0.76668 0.176121 0)
(0.748787 0.17201 0)
(0.731711 0.168088 0)
(0.715396 0.16434 0)
(0.699792 0.160755 0)
(0.684855 0.157324 0)
(0.670541 0.154035 0)
(0.656814 0.150882 0)
(0.643637 0.147855 0)
(0.630979 0.144947 0)
(0.618809 0.142151 0)
(0.6071 0.139461 0)
(0.595825 0.136871 0)
(0.584961 0.134375 0)
(0.574487 0.131969 0)
(0.564381 0.129647 0)
(0.554624 0.127406 0)
(0.545199 0.125241 0)
(0.536089 0.123148 0)
(0.527278 0.121124 0)
(0.518752 0.119165 0)
(0.510498 0.117269 0)
(0.502502 0.115432 0)
(0.494752 0.113651 0)
(0.487238 0.111925 0)
(0.479949 0.11025 0)
(0.472875 0.108625 0)
(0.466006 0.107047 0)
(0.459334 0.105514 0)
(0.45285 0.104025 0)
(0.446546 0.102577 0)
(0.440416 0.101168 0)
(0.434452 0.0997979 0)
(0.428647 0.0984643 0)
(0.422995 0.0971658 0)
(0.41749 0.0959011 0)
(0.412126 0.094669 0)
(0.406899 0.0934681 0)
(0.401803 0.0922973 0)
(0.396832 0.0911555 0)
(0.391983 0.0900417 0)
(0.387251 0.0889547 0)
(0.382632 0.0878937 0)
(0.378122 0.0868576 0)
(1.46132 0.366049 0)
(1.3974 0.350039 0)
(1.33884 0.33537 0)
(1.28499 0.321879 0)
(1.2353 0.309433 0)
(1.18931 0.297911 0)
(1.14662 0.287217 0)
(1.10688 0.277263 0)
(1.06981 0.267976 0)
(1.03514 0.259291 0)
(1.00264 0.251151 0)
(0.972125 0.243506 0)
(0.943409 0.236313 0)
(0.916341 0.229532 0)
(0.890782 0.22313 0)
(0.86661 0.217075 0)
(0.843715 0.21134 0)
(0.821998 0.2059 0)
(0.801371 0.200733 0)
(0.781754 0.195819 0)
(0.763074 0.19114 0)
(0.745265 0.186679 0)
(0.728269 0.182421 0)
(0.712031 0.178354 0)
(0.696501 0.174463 0)
(0.681633 0.170739 0)
(0.667388 0.167171 0)
(0.653725 0.163748 0)
(0.64061 0.160463 0)
(0.628012 0.157307 0)
(0.615899 0.154273 0)
(0.604244 0.151354 0)
(0.593023 0.148543 0)
(0.58221 0.145834 0)
(0.571785 0.143223 0)
(0.561726 0.140703 0)
(0.552015 0.138271 0)
(0.542635 0.135921 0)
(0.533567 0.133649 0)
(0.524798 0.131453 0)
(0.516312 0.129327 0)
(0.508097 0.127269 0)
(0.500138 0.125275 0)
(0.492425 0.123343 0)
(0.484947 0.12147 0)
(0.477692 0.119652 0)
(0.47065 0.117888 0)
(0.463814 0.116176 0)
(0.457173 0.114512 0)
(0.45072 0.112896 0)
(0.444446 0.111324 0)
(0.438344 0.109796 0)
(0.432408 0.108309 0)
(0.426631 0.106861 0)
(0.421005 0.105452 0)
(0.415526 0.10408 0)
(0.410188 0.102743 0)
(0.404985 0.101439 0)
(0.399913 0.100169 0)
(0.394965 0.0989295 0)
(0.390139 0.0977207 0)
(0.38543 0.096541 0)
(0.380832 0.0953895 0)
(0.376343 0.0942651 0)
(1.45385 0.394668 0)
(1.39026 0.377406 0)
(1.332 0.361591 0)
(1.27842 0.347046 0)
(1.22899 0.333626 0)
(1.18323 0.321204 0)
(1.14076 0.309673 0)
(1.10123 0.298941 0)
(1.06434 0.288928 0)
(1.02985 0.279564 0)
(0.997518 0.270788 0)
(0.967156 0.262545 0)
(0.938588 0.25479 0)
(0.911657 0.247479 0)
(0.886229 0.240576 0)
(0.862181 0.234048 0)
(0.839403 0.227864 0)
(0.817797 0.221999 0)
(0.797276 0.216428 0)
(0.777758 0.21113 0)
(0.759174 0.206085 0)
(0.741456 0.201275 0)
(0.724547 0.196685 0)
(0.708392 0.192299 0)
(0.692941 0.188105 0)
(0.67815 0.184089 0)
(0.663977 0.180242 0)
(0.650384 0.176552 0)
(0.637336 0.17301 0)
(0.624802 0.169607 0)
(0.612751 0.166336 0)
(0.601156 0.163188 0)
(0.589992 0.160157 0)
(0.579234 0.157237 0)
(0.568862 0.154421 0)
(0.558855 0.151705 0)
(0.549194 0.149082 0)
(0.539861 0.146548 0)
(0.53084 0.144099 0)
(0.522116 0.141731 0)
(0.513673 0.139439 0)
(0.5055 0.13722 0)
(0.497582 0.135071 0)
(0.489908 0.132987 0)
(0.482468 0.130968 0)
(0.47525 0.129008 0)
(0.468245 0.127106 0)
(0.461443 0.12526 0)
(0.454836 0.123466 0)
(0.448416 0.121723 0)
(0.442174 0.120029 0)
(0.436104 0.118381 0)
(0.430198 0.116778 0)
(0.42445 0.115217 0)
(0.418853 0.113698 0)
(0.413402 0.112218 0)
(0.408091 0.110776 0)
(0.402915 0.109371 0)
(0.397868 0.108001 0)
(0.392947 0.106665 0)
(0.388145 0.105362 0)
(0.38346 0.10409 0)
(0.378886 0.102849 0)
(0.37442 0.101636 0)
(1.44582 0.423136 0)
(1.38258 0.404629 0)
(1.32464 0.387672 0)
(1.27136 0.372078 0)
(1.2222 0.35769 0)
(1.1767 0.344372 0)
(1.13446 0.33201 0)
(1.09514 0.320505 0)
(1.05846 0.309769 0)
(1.02416 0.29973 0)
(0.992009 0.29032 0)
(0.961815 0.281483 0)
(0.933404 0.273168 0)
(0.906623 0.26533 0)
(0.881335 0.257929 0)
(0.857419 0.25093 0)
(0.834767 0.244301 0)
(0.813281 0.238012 0)
(0.792872 0.23204 0)
(0.773463 0.226359 0)
(0.754981 0.22095 0)
(0.737362 0.215794 0)
(0.720546 0.210872 0)
(0.704479 0.20617 0)
(0.689114 0.201673 0)
(0.674404 0.197368 0)
(0.66031 0.193243 0)
(0.646792 0.189287 0)
(0.633816 0.18549 0)
(0.621351 0.181841 0)
(0.609367 0.178334 0)
(0.597836 0.174959 0)
(0.586733 0.17171 0)
(0.576035 0.168579 0)
(0.565721 0.16556 0)
(0.555769 0.162648 0)
(0.546161 0.159836 0)
(0.53688 0.157119 0)
(0.527908 0.154494 0)
(0.519232 0.151954 0)
(0.510836 0.149497 0)
(0.502708 0.147118 0)
(0.494834 0.144814 0)
(0.487203 0.14258 0)
(0.479803 0.140415 0)
(0.472625 0.138314 0)
(0.465659 0.136275 0)
(0.458895 0.134296 0)
(0.452324 0.132373 0)
(0.445939 0.130504 0)
(0.439732 0.128687 0)
(0.433695 0.12692 0)
(0.427822 0.125202 0)
(0.422105 0.123529 0)
(0.41654 0.1219 0)
(0.411119 0.120313 0)
(0.405837 0.118768 0)
(0.40069 0.117261 0)
(0.395671 0.115792 0)
(0.390776 0.11436 0)
(0.386002 0.112963 0)
(0.381342 0.111599 0)
(0.376793 0.110268 0)
(0.372352 0.108968 0)
(1.43723 0.45144 0)
(1.37437 0.431695 0)
(1.31678 0.413605 0)
(1.26381 0.396968 0)
(1.21494 0.381617 0)
(1.16971 0.367408 0)
(1.12772 0.35422 0)
(1.08864 0.341944 0)
(1.05218 0.330491 0)
(1.01808 0.31978 0)
(0.986118 0.309741 0)
(0.956103 0.300313 0)
(0.92786 0.291442 0)
(0.901238 0.283079 0)
(0.876101 0.275183 0)
(0.852327 0.267716 0)
(0.829809 0.260643 0)
(0.808451 0.253934 0)
(0.788163 0.247562 0)
(0.768869 0.241501 0)
(0.750497 0.23573 0)
(0.732982 0.230229 0)
(0.716266 0.224978 0)
(0.700296 0.219962 0)
(0.685021 0.215164 0)
(0.670399 0.210571 0)
(0.656388 0.20617 0)
(0.642951 0.201949 0)
(0.630052 0.197898 0)
(0.617661 0.194006 0)
(0.605748 0.190264 0)
(0.594285 0.186663 0)
(0.583249 0.183196 0)
(0.572614 0.179856 0)
(0.562361 0.176635 0)
(0.552468 0.173528 0)
(0.542917 0.170528 0)
(0.533691 0.16763 0)
(0.524773 0.164829 0)
(0.516148 0.16212 0)
(0.507802 0.159498 0)
(0.499722 0.15696 0)
(0.491895 0.154501 0)
(0.484309 0.152118 0)
(0.476953 0.149808 0)
(0.469818 0.147567 0)
(0.462893 0.145391 0)
(0.456169 0.143279 0)
(0.449638 0.141228 0)
(0.443291 0.139234 0)
(0.43712 0.137296 0)
(0.431119 0.135411 0)
(0.425281 0.133577 0)
(0.419598 0.131792 0)
(0.414066 0.130054 0)
(0.408677 0.128362 0)
(0.403427 0.126713 0)
(0.39831 0.125106 0)
(0.393321 0.123539 0)
(0.388456 0.12201 0)
(0.383709 0.12052 0)
(0.379077 0.119065 0)
(0.374556 0.117645 0)
(0.370141 0.116258 0)
(1.42809 0.479571 0)
(1.36563 0.458596 0)
(1.3084 0.439377 0)
(1.25577 0.421704 0)
(1.20721 0.405397 0)
(1.16227 0.390303 0)
(1.12055 0.376292 0)
(1.08172 0.363252 0)
(1.04549 0.351085 0)
(1.0116 0.339706 0)
(0.979846 0.329042 0)
(0.950022 0.319026 0)
(0.921959 0.309603 0)
(0.895506 0.300719 0)
(0.870529 0.292331 0)
(0.846906 0.284399 0)
(0.824532 0.276885 0)
(0.803309 0.269758 0)
(0.783151 0.262988 0)
(0.763979 0.25655 0)
(0.745724 0.25042 0)
(0.728321 0.244576 0)
(0.711711 0.238998 0)
(0.695842 0.233669 0)
(0.680665 0.228572 0)
(0.666135 0.223693 0)
(0.652213 0.219018 0)
(0.638861 0.214534 0)
(0.626045 0.21023 0)
(0.613733 0.206095 0)
(0.601895 0.20212 0)
(0.590506 0.198295 0)
(0.579539 0.194612 0)
(0.568972 0.191064 0)
(0.558784 0.187642 0)
(0.548954 0.184341 0)
(0.539464 0.181154 0)
(0.530297 0.178076 0)
(0.521435 0.1751 0)
(0.512865 0.172222 0)
(0.504573 0.169437 0)
(0.496544 0.166741 0)
(0.488766 0.164129 0)
(0.481229 0.161598 0)
(0.47392 0.159143 0)
(0.46683 0.156762 0)
(0.459949 0.154452 0)
(0.453268 0.152208 0)
(0.446778 0.150029 0)
(0.440471 0.147911 0)
(0.43434 0.145852 0)
(0.428377 0.143849 0)
(0.422576 0.141901 0)
(0.41693 0.140005 0)
(0.411432 0.138159 0)
(0.406078 0.136361 0)
(0.400861 0.134609 0)
(0.395777 0.132902 0)
(0.39082 0.131237 0)
(0.385985 0.129614 0)
(0.381269 0.12803 0)
(0.376666 0.126485 0)
(0.372173 0.124976 0)
(0.367786 0.123503 0)
(1.4184 0.507516 0)
(1.35637 0.485319 0)
(1.29952 0.464981 0)
(1.24725 0.446277 0)
(1.19902 0.42902 0)
(1.15438 0.413047 0)
(1.11294 0.39822 0)
(1.07438 0.38442 0)
(1.03839 0.371544 0)
(1.00474 0.359502 0)
(0.973196 0.348216 0)
(0.943575 0.337617 0)
(0.915702 0.327644 0)
(0.889429 0.318243 0)
(0.864621 0.309367 0)
(0.841159 0.300971 0)
(0.818936 0.29302 0)
(0.797857 0.285478 0)
(0.777836 0.278314 0)
(0.758795 0.2715 0)
(0.740663 0.265013 0)
(0.723378 0.258828 0)
(0.706881 0.252925 0)
(0.69112 0.247285 0)
(0.676046 0.241892 0)
(0.661615 0.236728 0)
(0.647787 0.231781 0)
(0.634526 0.227035 0)
(0.621797 0.222481 0)
(0.609568 0.218105 0)
(0.597811 0.213898 0)
(0.586498 0.209851 0)
(0.575606 0.205953 0)
(0.565111 0.202198 0)
(0.554992 0.198577 0)
(0.545229 0.195084 0)
(0.535803 0.191711 0)
(0.526698 0.188453 0)
(0.517897 0.185304 0)
(0.509385 0.182258 0)
(0.501148 0.179311 0)
(0.493174 0.176458 0)
(0.485449 0.173694 0)
(0.477963 0.171015 0)
(0.470704 0.168418 0)
(0.463662 0.165898 0)
(0.456827 0.163452 0)
(0.450192 0.161078 0)
(0.443746 0.158772 0)
(0.437482 0.15653 0)
(0.431392 0.154351 0)
(0.42547 0.152232 0)
(0.419708 0.150171 0)
(0.4141 0.148164 0)
(0.40864 0.146211 0)
(0.403322 0.144308 0)
(0.398141 0.142454 0)
(0.393091 0.140647 0)
(0.388167 0.138885 0)
(0.383366 0.137167 0)
(0.378681 0.135491 0)
(0.37411 0.133856 0)
(0.369648 0.132259 0)
(0.365291 0.1307 0)
(1.40817 0.535267 0)
(1.34658 0.511856 0)
(1.29014 0.490405 0)
(1.23825 0.470679 0)
(1.19037 0.452478 0)
(1.14605 0.435631 0)
(1.10491 0.419994 0)
(1.06662 0.405439 0)
(1.0309 0.391859 0)
(0.997485 0.379159 0)
(0.966172 0.367256 0)
(0.936764 0.356078 0)
(0.909093 0.345559 0)
(0.883009 0.335644 0)
(0.85838 0.326282 0)
(0.835087 0.317428 0)
(0.813025 0.309042 0)
(0.792098 0.301087 0)
(0.772222 0.293532 0)
(0.753318 0.286346 0)
(0.735317 0.279504 0)
(0.718157 0.27298 0)
(0.701779 0.266755 0)
(0.686131 0.260807 0)
(0.671166 0.255118 0)
(0.656839 0.249672 0)
(0.643112 0.244454 0)
(0.629946 0.23945 0)
(0.617308 0.234646 0)
(0.605168 0.230031 0)
(0.593496 0.225594 0)
(0.582265 0.221325 0)
(0.571451 0.217215 0)
(0.561032 0.213254 0)
(0.550986 0.209435 0)
(0.541293 0.205751 0)
(0.531936 0.202194 0)
(0.522896 0.198758 0)
(0.514159 0.195436 0)
(0.505708 0.192224 0)
(0.497531 0.189116 0)
(0.489614 0.186106 0)
(0.481945 0.183191 0)
(0.474513 0.180366 0)
(0.467306 0.177627 0)
(0.460315 0.174969 0)
(0.45353 0.17239 0)
(0.446942 0.169886 0)
(0.440543 0.167453 0)
(0.434324 0.16509 0)
(0.428279 0.162792 0)
(0.422399 0.160557 0)
(0.416679 0.158382 0)
(0.411111 0.156266 0)
(0.40569 0.154206 0)
(0.400411 0.152199 0)
(0.395267 0.150243 0)
(0.390253 0.148338 0)
(0.385365 0.14648 0)
(0.380598 0.144668 0)
(0.375948 0.1429 0)
(0.37141 0.141175 0)
(0.36698 0.139491 0)
(0.362654 0.137847 0)
(1.39738 0.562811 0)
(1.33627 0.538195 0)
(1.28027 0.51564 0)
(1.22877 0.494899 0)
(1.18125 0.475762 0)
(1.13727 0.458048 0)
(1.09645 0.441606 0)
(1.05845 0.426302 0)
(1.023 0.412024 0)
(0.989848 0.39867 0)
(0.958774 0.386155 0)
(0.929592 0.374401 0)
(0.902133 0.363341 0)
(0.876249 0.352916 0)
(0.851808 0.343072 0)
(0.828694 0.333763 0)
(0.806801 0.324945 0)
(0.786034 0.316581 0)
(0.766309 0.308637 0)
(0.74755 0.301081 0)
(0.729688 0.293887 0)
(0.712659 0.287028 0)
(0.696406 0.280482 0)
(0.680878 0.274228 0)
(0.666027 0.268246 0)
(0.651811 0.26252 0)
(0.638188 0.257034 0)
(0.625123 0.251772 0)
(0.612582 0.246721 0)
(0.600535 0.241868 0)
(0.588952 0.237203 0)
(0.577807 0.232714 0)
(0.567076 0.228392 0)
(0.556737 0.224228 0)
(0.546768 0.220213 0)
(0.537149 0.216339 0)
(0.527863 0.212599 0)
(0.518893 0.208986 0)
(0.510222 0.205493 0)
(0.501836 0.202116 0)
(0.493722 0.198848 0)
(0.485866 0.195683 0)
(0.478255 0.192618 0)
(0.47088 0.189648 0)
(0.463728 0.186767 0)
(0.456791 0.183973 0)
(0.450058 0.181261 0)
(0.44352 0.178628 0)
(0.43717 0.176071 0)
(0.430999 0.173585 0)
(0.425 0.171169 0)
(0.419165 0.168819 0)
(0.413488 0.166533 0)
(0.407964 0.164308 0)
(0.402584 0.162141 0)
(0.397345 0.160031 0)
(0.392241 0.157975 0)
(0.387266 0.155971 0)
(0.382415 0.154018 0)
(0.377684 0.152113 0)
(0.37307 0.150254 0)
(0.368566 0.14844 0)
(0.36417 0.14667 0)
(0.359877 0.144941 0)
(1.38607 0.590138 0)
(1.32544 0.564327 0)
(1.2699 0.540677 0)
(1.21882 0.518929 0)
(1.17168 0.498862 0)
(1.12806 0.480288 0)
(1.08757 0.463048 0)
(1.04988 0.447001 0)
(1.01472 0.432029 0)
(0.98183 0.418027 0)
(0.951008 0.404904 0)
(0.922061 0.39258 0)
(0.894825 0.380983 0)
(0.86915 0.370052 0)
(0.844908 0.35973 0)
(0.821981 0.349969 0)
(0.800265 0.340723 0)
(0.779667 0.331952 0)
(0.760102 0.323622 0)
(0.741495 0.3157 0)
(0.723777 0.308156 0)
(0.706886 0.300964 0)
(0.690765 0.294101 0)
(0.675362 0.287543 0)
(0.660632 0.281271 0)
(0.64653 0.275267 0)
(0.633018 0.269514 0)
(0.620059 0.263996 0)
(0.60762 0.2587 0)
(0.59567 0.253612 0)
(0.584181 0.248721 0)
(0.573126 0.244014 0)
(0.562483 0.239482 0)
(0.552227 0.235116 0)
(0.542338 0.230905 0)
(0.532798 0.226843 0)
(0.523587 0.222922 0)
(0.514689 0.219133 0)
(0.506089 0.215471 0)
(0.497771 0.21193 0)
(0.489722 0.208503 0)
(0.48193 0.205185 0)