/*--------------------------------*- C++ -*----------------------------------*\
| =========                 |                                                 |
| \\      /  F ield         | foam-extend: Open Source CFD                    |
|  \\    /   O peration     | Version:  3.0                                   |
|   \\  /    A nd           | Web:         http://www.extend-project.de       |
|    \\/     M anipulation  |                                                 |
\*---------------------------------------------------------------------------*/
FoamFile
{
    version     2.0;
    format      ascii;
    class       volScalarField;
    location    "1.4";
    object      p;
}
// * * * * * * * * * * * * * * * * * * * * * * * * * * * * * * * * * * * * * //

dimensions      [0 0 0 0 0 0 0];

internalField   nonuniform List<scalar> 
300
(
-1.5922e+15
2.21215e+15
-5.87446e+14
4.08744e+14
1.17171e+15
1.39086e+14
-1.23703e+14
4.31885e+13
-3.81676e+13
-1.04096e+13
1.26015e+14
4.9461e+13
-1.5269e+13
-1.15783e+14
1.48023e+14
-5.59016e+13
6.42344e+13
-1.71397e+13
1.79978e+13
4.23586e+12
8.93466e+13
-1.31374e+14
-8.35902e+13
1.2934e+14
-1.60129e+14
6.04125e+13
-7.76022e+13
2.05735e+13
-2.19352e+13
-5.91852e+12
2.31501e+14
6.68052e+13
2.54261e+13
-2.89712e+13
4.244e+13
-1.68984e+13
2.0844e+13
-5.57495e+12
6.32065e+12
1.70986e+12
-2.32607e+14
-1.12559e+14
-7.59973e+13
2.18275e+13
-6.51909e+13
1.84417e+13
-3.00855e+13
6.7406e+12
-8.9168e+12
-2.87302e+12
1.38121e+14
5.56084e+13
2.92243e+13
4.19699e+11
1.72102e+13
-3.60489e+12
7.67839e+12
-1.48327e+12
2.34844e+12
7.25048e+11
-1.39021e+14
-7.56101e+13
-5.0743e+13
-4.68081e+12
-2.90534e+13
3.47197e+12
-1.24097e+13
1.59655e+12
-3.74302e+12
-1.47017e+12
8.25436e+13
4.02292e+13
2.33667e+13
7.04221e+12
9.2597e+12
5.74653e+11
3.41873e+12
-6.91557e+10
1.00126e+12
3.90187e+11
-8.05504e+13
-4.76996e+13
-3.14495e+13
-9.01862e+12
-1.4391e+13
-8.54703e+11
-5.59772e+12
-1.60257e+10
-1.68854e+12
-8.07499e+11
4.93222e+13
2.69689e+13
1.62075e+13
6.77989e+12
5.61045e+12
1.43962e+12
1.81236e+12
3.06493e+11
5.09495e+11
2.53087e+11
-4.64668e+13
-2.92016e+13
-1.88637e+13
-7.58347e+12
-7.65501e+12
-1.61166e+12
-2.74515e+12
-3.82006e+11
-8.22963e+11
-4.63666e+11
2.9326e+13
1.7279e+13
1.04763e+13
5.03042e+12
3.48074e+12
1.28589e+12
1.05377e+12
3.23673e+11
2.91339e+11
1.71062e+11
-2.67689e+13
-1.75489e+13
-1.11122e+13
-5.28464e+12
-4.2321e+12
-1.36636e+12
-1.43238e+12
-3.67821e+11
-4.27281e+11
-2.71733e+11
1.73467e+13
1.076e+13
6.51326e+12
3.3796e+12
2.14427e+12
9.31556e+11
6.31955e+11
2.48354e+11
1.74443e+11
1.1298e+11
-1.54121e+13
-1.04144e+13
-6.47571e+12
-3.39887e+12
-2.3824e+12
-9.58213e+11
-7.76754e+11
-2.70291e+11
-2.31339e+11
-1.60018e+11
1.0216e+13
6.57472e+12
3.95701e+12
2.16006e+12
1.30413e+12
6.18917e+11
3.80567e+11
1.69611e+11
1.05461e+11
7.23369e+10
-8.87131e+12
-6.12618e+12
-3.74918e+12
-2.09585e+12
-1.35156e+12
-6.18609e+11
-4.3029e+11
-1.78616e+11
-1.28243e+11
-9.38953e+10
5.99445e+12
3.96426e+12
2.36932e+12
1.34106e+12
7.8396e+11
3.93218e+11
2.28157e+11
1.09472e+11
6.357e+10
4.52097e+10
-5.10591e+12
-3.58118e+12
-2.16225e+12
-1.26101e+12
-7.69248e+11
-3.82153e+11
-2.41063e+11
-1.11773e+11
-7.19437e+10
-5.47287e+10
3.50549e+12
2.36656e+12
1.40487e+12
8.17086e+11
4.66871e+11
2.43294e+11
1.35923e+11
6.84443e+10
3.80891e+10
2.77796e+10
-2.93811e+12
-2.08382e+12
-1.24423e+12
-7.47217e+11
-4.38502e+11
-2.30051e+11
-1.35887e+11
-6.7774e+10
-4.05941e+10
-3.16862e+10
2.0418e+12
1.40083e+12
8.2681e+11
4.91127e+11
2.75941e+11
1.47906e+11
8.04749e+10
4.19369e+10
2.26801e+10
1.68611e+10
-1.68935e+12
-1.20769e+12
-7.14802e+11
-4.38253e+11
-2.50165e+11
-1.36258e+11
-7.68807e+10
-4.03011e+10
-2.2973e+10
-1.8246e+10
1.18131e+12
8.20813e+11
4.82597e+11
2.91522e+11
1.61846e+11
8.86621e+10
4.73373e+10
2.53127e+10
1.34178e+10
1.01337e+10
-9.69129e+11
-6.95949e+11
-4.09425e+11
-2.54745e+11
-1.42614e+11
-7.97572e+10
-4.35684e+10
-2.36469e+10
-1.30148e+10
-1.04631e+10
6.73484e+11
4.70891e+11
2.76706e+11
1.69278e+11
9.34218e+10
5.20827e+10
2.74793e+10
1.49969e+10
7.84017e+09
6.01817e+09
-5.53115e+11
-3.95211e+11
-2.31898e+11
-1.45533e+11
-8.05466e+10
-4.58972e+10
-2.454e+10
-1.36511e+10
-7.32419e+09
-5.96132e+09
3.70567e+11
2.52462e+11
1.48996e+11
9.07796e+10
5.03051e+10
2.82983e+10
1.4922e+10
8.2574e+09
4.27938e+09
3.38574e+09
-3.13317e+11
-2.1341e+11
-1.25117e+11
-7.74023e+10
-4.27254e+10
-2.44651e+10
-1.29506e+10
-7.28898e+09
-3.81435e+09
-3.20616e+09
1.87277e+11
9.95597e+10
5.88388e+10
2.90995e+10
1.61611e+10
7.7115e+09
4.12597e+09
1.97299e+09
1.01754e+09
6.31206e+08
)
;

boundaryField
{
    frontAndBack
    {
        type            empty;
    }
    symm
    {
        type            symmetryPlane;
    }
    in
    {
        type            implicitExtrapolation;
    }
    out
    {
        type            implicitExtrapolation;
    }
}


// ************************************************************************* //
