/*--------------------------------*- C++ -*----------------------------------*\
| =========                 |                                                 |
| \\      /  F ield         | foam-extend: Open Source CFD                    |
|  \\    /   O peration     | Version:  3.0                                   |
|   \\  /    A nd           | Web:         http://www.extend-project.de       |
|    \\/     M anipulation  |                                                 |
\*---------------------------------------------------------------------------*/
FoamFile
{
    version     2.0;
    format      ascii;
    class       volSymmTensorField;
    location    "1.4";
    object      sigma;
}
// * * * * * * * * * * * * * * * * * * * * * * * * * * * * * * * * * * * * * //

dimensions      [0 0 0 0 0 0 0];

internalField   nonuniform List<symmTensor> 
300
(
(1.69724e+13 -3.37396e+13 -0.00174387 -1.46412e+13 3.9276e-05 0.000968803)
(-3.94483e+13 4.86048e+12 -0.000645406 3.27698e+13 0.00430898 -0.000552421)
(2.15589e+13 -1.08215e+13 0.0162918 -1.17538e+13 0.0214234 -0.0147301)
(2.08552e+13 -4.44587e+12 0.0426777 6.09942e+11 0.0416266 -0.0350234)
(-6.11904e+12 1.09535e+11 0.052383 2.30485e+13 0.0387955 -0.0376273)
(5.65165e+11 -6.65965e+11 0.00371502 -1.46559e+12 -0.0225145 0.0129927)
(-9.02571e+12 -6.89505e+10 -0.130031 1.62972e+12 -0.159757 0.135495)
(-1.74961e+12 -6.82943e+11 -0.305454 -5.85505e+11 -0.327201 0.283253)
(-3.48943e+12 -2.16251e+10 -0.352316 4.10911e+11 -0.370614 0.299113)
(-1.17852e+12 -5.04975e+11 0.0312797 -4.43994e+10 -0.0188152 -0.0830912)
(-8.34012e+12 8.71168e+12 -0.00242201 3.25813e+12 -0.000914341 0.00155691)
(-2.51883e+12 1.22196e+13 -0.00353595 5.65511e+12 0.00172905 0.0017956)
(8.37304e+12 -8.96585e+12 0.0146446 -1.25986e+12 0.0219807 -0.014384)
(1.36967e+13 -1.17635e+13 0.0547816 -4.51612e+12 0.0575581 -0.0489286)
(-6.86359e+12 2.82172e+12 0.0890065 4.28551e+12 0.0772506 -0.075024)
(-4.85809e+10 -6.45242e+12 0.0304625 -8.99594e+11 -0.00072749 -0.00952544)
(-3.57486e+12 -4.72015e+11 -0.257947 1.25065e+12 -0.297321 0.28002)
(-9.32035e+11 -2.74563e+12 -0.841721 -2.38275e+11 -0.860123 0.856391)
(-1.2002e+12 -3.91507e+11 -1.35913 3.2046e+11 -1.33944 1.35851)
(-3.03526e+11 -7.60941e+11 -0.276161 7.72394e+10 -0.31421 0.265306)
(-2.90584e+12 3.97279e+12 -0.00287667 2.30376e+10 -0.00170959 0.00196355)
(-8.36161e+12 5.44476e+12 -0.00652323 7.87444e+12 -0.00162112 0.00443266)
(-3.92149e+12 -6.42213e+12 0.00991303 5.9353e+12 0.0179218 -0.0102426)
(3.37055e+12 -9.99416e+12 0.0605181 3.06776e+12 0.0653563 -0.0550951)
(-4.1856e+11 -8.6456e+11 0.139049 -2.8533e+12 0.128683 -0.125953)
(6.05852e+10 -1.65474e+12 0.175793 -3.354e+11 0.141155 -0.160042)
(-1.63967e+12 -9.04053e+11 0.00625274 -1.33866e+12 -0.0421417 -0.000399673)
(-6.41423e+11 -5.22054e+11 -0.553185 -2.35261e+11 -0.573268 0.539088)
(-8.43597e+11 -4.6005e+11 -1.28647 -4.10552e+11 -1.23554 1.2577)
(-4.15422e+11 -7.08737e+10 -0.27202 -9.32846e+10 -0.306268 0.255077)
(-1.62516e+12 -8.53345e+11 -0.0031148 -8.75893e+11 -0.00223167 0.00218016)
(-4.82863e+11 -3.63694e+12 -0.00914267 7.71087e+10 -0.00449689 0.00665309)
(-2.92936e+10 -5.98373e+12 0.00170475 8.44018e+11 0.0106735 -0.00287686)
(2.50269e+12 -5.40871e+12 0.0459679 2.99812e+11 0.0539756 -0.0411103)
(-1.0009e+12 -1.07676e+12 0.126485 5.25447e+11 0.120785 -0.112081)
(9.99771e+11 -2.32734e+12 0.186913 -1.19216e+12 0.154962 -0.166869)
(-5.24373e+11 -6.37945e+11 0.0656269 -1.63842e+11 0.0148267 -0.0545923)
(1.95346e+11 -1.04939e+12 -0.454949 -6.00733e+11 -0.476453 0.441014)
(-2.26183e+11 -2.92244e+11 -1.23016 -8.19619e+10 -1.16109 1.19306)
(5.38642e+10 -3.07527e+11 -0.255742 -1.33755e+11 -0.285879 0.23472)
(-1.39958e+11 5.61189e+11 -0.00308081 -2.83807e+12 -0.00249427 0.00215913)
(-1.22549e+12 -1.88815e+12 -0.0103439 -6.36972e+11 -0.00607762 0.0075406)
(-1.12794e+12 -3.61368e+12 -0.00368206 1.50996e+11 0.00566818 0.00156191)
(4.3196e+11 -4.27979e+12 0.0337034 7.94685e+11 0.0436908 -0.0300919)
(-1.68577e+11 -8.74591e+11 0.108862 -1.17356e+12 0.106014 -0.0943146)
(1.45496e+11 -9.26338e+11 0.173098 -3.19483e+11 0.141506 -0.149121)
(-3.23928e+11 -4.44695e+11 0.0692074 -7.94066e+11 0.0127959 -0.0499068)
(-1.14945e+11 -2.88741e+11 -0.432049 -2.45162e+11 -0.460454 0.425802)
(-2.00403e+11 -2.09599e+11 -1.21498 -3.088e+11 -1.13774 1.17643)
(-1.33076e+11 -5.55371e+10 -0.250981 -8.46832e+10 -0.277412 0.228471)
(1.06556e+11 -2.95982e+11 -0.00284769 -1.40366e+12 -0.00257937 0.00199813)
(1.20994e+12 -2.23335e+12 -0.0105085 -2.12417e+12 -0.00671813 0.00748917)
(9.31298e+11 -2.75603e+12 -0.00621674 -1.39744e+12 0.00319351 0.00314478)
(1.21267e+12 -2.51791e+12 0.026802 -5.89637e+11 0.0380651 -0.0248293)
(8.27614e+09 -9.64382e+11 0.0978975 -2.73071e+11 0.0969157 -0.0842837)
(7.62675e+11 -8.80583e+11 0.162858 -8.15182e+11 0.130704 -0.136382)
(2.72786e+10 -3.61633e+11 0.0670595 -2.78584e+11 0.00428998 -0.0400209)
(2.9073e+11 -3.53083e+11 -0.425354 -4.29597e+11 -0.462219 0.42823)
(3.91304e+09 -1.38363e+11 -1.21299 -1.24271e+11 -1.13155 1.17474)
(8.23682e+10 -1.00226e+11 -0.250369 -1.14851e+11 -0.272973 0.227556)
(1.64409e+11 6.29906e+11 -0.00255975 -1.81347e+12 -0.00257812 0.00179953)
(1.37363e+11 -8.63532e+11 -0.0101489 -1.67983e+12 -0.006852 0.00704718)
(1.74048e+10 -1.36816e+12 -0.00712408 -1.2029e+12 0.00221712 0.00321747)
(3.20809e+11 -1.73878e+12 0.0233418 -4.40977e+11 0.0356656 -0.0231474)
(-1.3461e+11 -5.03958e+11 0.0921833 -6.37325e+11 0.093019 -0.0801758)
(1.03359e+11 -4.61234e+11 0.158174 -3.20686e+11 0.126031 -0.130357)
(-9.76368e+10 -2.07121e+11 0.0679824 -4.04144e+11 0.000227223 -0.034246)
(-1.24295e+10 -1.43002e+11 -0.419755 -1.78641e+11 -0.463977 0.431535)
(-5.49923e+10 -8.72111e+10 -1.21351 -1.73388e+11 -1.12896 1.17573)
(-4.56023e+10 -3.32302e+10 -0.25033 -5.59477e+10 -0.268414 0.227762)
(3.32013e+11 9.37846e+10 -0.0022763 -9.70423e+11 -0.00254456 0.00162338)
(1.13726e+12 -6.51434e+11 -0.00967577 -1.82381e+12 -0.00682288 0.00656731)
(9.72981e+11 -8.7432e+11 -0.00742576 -1.46747e+12 0.00180708 0.00280821)
(8.98561e+11 -9.10821e+11 0.0213783 -8.61949e+11 0.0346408 -0.0229379)
(2.50912e+11 -4.4015e+11 0.0889163 -4.36516e+11 0.0917143 -0.0788636)
(4.67647e+11 -2.74987e+11 0.156303 -5.12183e+11 0.125178 -0.127995)
(1.18177e+11 -1.47675e+11 0.0709937 -2.26951e+11 0.000370545 -0.0316212)
(1.89817e+11 -9.111e+10 -0.413509 -2.44705e+11 -0.46297 0.433461)
(4.41664e+10 -4.90948e+10 -1.2142 -9.3734e+10 -1.12673 1.17664)
(5.29941e+10 -2.17626e+10 -0.24999 -6.56146e+10 -0.262707 0.228007)
(5.05506e+10 5.52799e+11 -0.00203007 -9.36078e+11 -0.00251267 0.00148993)
(1.95643e+11 -8.83968e+10 -0.00923239 -1.20008e+12 -0.00681837 0.00620198)
(1.45622e+11 -3.13095e+11 -0.00761341 -9.89692e+11 0.00139311 0.00244042)
(2.4665e+11 -5.79599e+11 0.0198206 -5.90838e+11 0.0338015 -0.0230125)
(-5.68156e+10 -2.12936e+11 0.086324 -4.14688e+11 0.0910809 -0.0783695)
(5.79204e+10 -1.84738e+11 0.155054 -2.53794e+11 0.125819 -0.12689)
(-3.72791e+10 -8.76316e+10 0.0741181 -2.19864e+11 0.0028095 -0.0301942)
(1.02892e+09 -6.06606e+10 -0.407664 -1.17414e+11 -0.45998 0.434774)
(-1.85745e+10 -3.48203e+10 -1.21515 -9.44366e+10 -1.12482 1.17748)
(-1.64694e+10 -1.68182e+10 -0.249333 -3.49851e+10 -0.25593 0.228208)
(2.11001e+11 2.0143e+11 -0.00181996 -5.16262e+11 -0.00248492 0.00139618)
(6.7107e+11 4.17364e+10 -0.0088567 -1.08442e+12 -0.00691218 0.00598558)
(6.2952e+11 -7.54711e+10 -0.00786778 -9.50214e+11 0.000725268 0.00232139)
(5.66566e+11 -1.71142e+11 0.0182202 -6.39573e+11 0.0325531 -0.0228275)
(2.31503e+11 -1.02266e+11 0.0835795 -3.45588e+11 0.0900519 -0.0777063)
(2.57815e+11 -2.77569e+10 0.153211 -2.9289e+11 0.126494 -0.125715)
(9.76421e+10 -2.70593e+10 0.0759716 -1.48215e+11 0.0060239 -0.0286559)
(1.01682e+11 7.1136e+08 -0.403426 -1.25422e+11 -0.4562 0.436429)
(3.57469e+10 -5.66718e+09 -1.21696 -5.62687e+10 -1.12396 1.17885)
(2.71143e+10 2.92817e+09 -0.248629 -3.11493e+10 -0.248545 0.228569)
(-6.56375e+10 3.85479e+11 -0.00163873 -4.0699e+11 -0.00245507 0.00132942)
(4.31394e+10 1.56992e+11 -0.00853746 -6.39993e+11 -0.00708502 0.00590126)
(4.61998e+10 3.69059e+10 -0.00824812 -5.64214e+11 -0.000277105 0.00252543)
(1.23103e+11 -1.2633e+11 0.0163916 -4.08819e+11 0.0306236 -0.0221332)
(-2.36635e+10 -5.88293e+10 0.0803363 -2.58602e+11 0.0881087 -0.0764115)
(2.5038e+10 -5.48006e+10 0.150241 -1.68322e+11 0.126444 -0.123859)
(-1.61692e+10 -2.9361e+10 0.0758807 -1.24639e+11 0.00916799 -0.0264544)
(4.09111e+08 -2.06484e+10 -0.401404 -7.27407e+10 -0.452347 0.438777)
(-7.51651e+09 -1.21474e+10 -1.22002 -5.22613e+10 -1.12479 1.18111)
(-6.17118e+09 -7.34605e+09 -0.248449 -2.14168e+10 -0.241442 0.22947)
(8.58616e+10 1.73459e+11 -0.00146858 -2.2851e+11 -0.00240398 0.00127431)
(3.04235e+11 2.17765e+11 -0.00824765 -5.30412e+11 -0.00730837 0.00591313)
(3.11108e+11 1.63423e+11 -0.00879275 -4.89587e+11 -0.00165138 0.00309524)
(2.86627e+11 8.2954e+10 0.0142061 -3.5182e+11 0.0278748 -0.0207597)
(1.3948e+11 3.97144e+10 0.0764582 -2.02561e+11 0.0850368 -0.0742834)
(1.23823e+11 5.10305e+10 0.146163 -1.46528e+11 0.125489 -0.121319)
(5.64509e+10 2.13153e+10 0.0742632 -8.02965e+10 0.0124213 -0.0241684)
(4.68571e+10 2.49139e+10 -0.40039 -5.74855e+10 -0.447481 0.44031)
(1.98613e+10 9.67635e+09 -1.22272 -2.81777e+10 -1.12626 1.18257)
(1.16956e+10 7.73736e+09 -0.249868 -1.23858e+10 -0.236514 0.231462)
(-1.08511e+11 2.25844e+11 -0.00129926 -1.43476e+11 -0.00231616 0.00121491)
(-5.44891e+10 1.59923e+11 -0.00794499 -2.84817e+11 -0.00752588 0.00597149)
(-3.01205e+10 9.62916e+10 -0.00954824 -2.68247e+11 -0.00341279 0.00407509)
(3.29318e+10 1.19402e+10 0.0114523 -2.23275e+11 0.0241581 -0.0184986)
(-1.87404e+10 1.24595e+09 0.0719012 -1.45883e+11 0.0808095 -0.0712669)
(4.95968e+09 -5.33039e+09 0.141823 -9.89184e+10 0.124265 -0.118955)
(-9.15789e+09 -4.37812e+09 0.0737533 -7.00403e+10 0.0179553 -0.0245949)
(-1.30498e+09 -3.76131e+09 -0.394709 -4.30114e+10 -0.436411 0.435026)
(-3.65859e+09 -2.60169e+09 -1.21638 -2.92419e+10 -1.12047 1.17462)
(-2.38821e+09 -2.54699e+09 -0.252638 -1.29235e+10 -0.23544 0.233835)
(1.75544e+10 1.12974e+11 -0.00111878 -8.24447e+10 -0.00216821 0.00113455)
(9.85835e+10 1.95637e+11 -0.00757458 -2.15657e+11 -0.00765995 0.00600249)
(1.13459e+11 1.75901e+11 -0.0105592 -2.05402e+11 -0.00556944 0.00549072)
(1.10792e+11 1.22219e+11 0.0077415 -1.51354e+11 0.0192046 -0.0150081)
(5.93559e+10 7.03647e+10 0.0664419 -9.16711e+10 0.0753768 -0.0672225)
(4.69464e+10 5.8158e+10 0.139171 -5.97738e+10 0.124541 -0.118751)
(2.35369e+10 3.03143e+10 0.0810502 -3.46295e+10 0.0314818 -0.0344181)
(1.69862e+10 2.42859e+10 -0.370613 -2.17447e+10 -0.406438 0.408971)
(7.91171e+09 1.14824e+10 -1.17636 -1.11604e+10 -1.08237 1.13286)
(3.90076e+09 6.42696e+09 -0.234328 -3.53472e+09 -0.216125 0.218091)
(-1.00655e+11 1.12804e+11 -0.000913629 -3.37553e+10 -0.00194202 0.00101627)
(-8.08524e+10 1.00324e+11 -0.00704194 -1.0743e+11 -0.00758653 0.00589461)
(-5.43387e+10 7.05425e+10 -0.0117782 -1.1213e+11 -0.00803616 0.00726791)
(-9.60152e+09 3.38254e+10 0.00246959 -1.06319e+11 0.0125147 -0.00975354)
(-1.9092e+10 1.51234e+10 0.0589078 -7.4908e+10 0.0679249 -0.0611589)
(-4.79392e+09 8.08686e+09 0.140295 -5.30623e+10 0.128615 -0.122864)
(-7.08496e+09 3.85594e+09 0.108752 -3.77544e+10 0.0639956 -0.0655534)
(-2.44408e+09 2.06504e+09 -0.303745 -2.41541e+10 -0.336919 0.338866)
(-2.35921e+09 9.56165e+08 -1.0688 -1.61104e+10 -0.976206 1.02196)
(-1.06555e+09 -3.51827e+08 -0.0724432 -7.58608e+09 -0.0309546 0.0675383)
(-8.05756e+09 6.23047e+10 -0.000676797 -2.03873e+10 -0.00162179 0.000846546)
(7.25778e+09 1.27973e+11 -0.00622855 -6.54328e+10 -0.00713797 0.00550061)
(1.73435e+10 1.2348e+11 -0.0128942 -6.22591e+10 -0.0104738 0.00907506)
(2.34485e+10 9.16691e+10 -0.00490441 -4.51235e+10 0.00351487 -0.00223863)
(1.25384e+10 5.65975e+10 0.0457828 -2.79585e+10 0.0552794 -0.0498295)
(9.2402e+09 4.19984e+10 0.141851 -1.56717e+10 0.134476 -0.128339)
(4.59571e+09 2.36474e+10 0.172764 -9.51208e+09 0.1313 -0.132238)
(2.83104e+09 1.67355e+10 -0.146536 -4.84018e+09 -0.190616 0.185834)
(1.32088e+09 8.48248e+09 -0.945419 -2.47251e+09 -0.881348 0.908081)
(5.09186e+08 4.006e+09 -0.407771 5.83292e+07 -0.375239 0.405377)
(-7.35692e+10 4.66639e+10 -0.000413618 1.77421e+09 -0.00121255 0.000624482)
(-6.91003e+10 4.75939e+10 -0.00502586 -3.39063e+10 -0.00614732 0.00468432)
(-4.85595e+10 3.67516e+10 -0.0131646 -4.27119e+10 -0.0120628 0.0101586)
(-2.08885e+10 2.42056e+10 -0.0136634 -4.65016e+10 -0.00731397 0.00689196)
(-1.68813e+10 1.26392e+10 0.0215264 -3.59219e+10 0.0314086 -0.0278953)
(-7.61522e+09 8.36895e+09 0.121103 -2.66072e+10 0.121136 -0.114174)
(-5.96239e+09 4.83803e+09 0.254874 -1.93315e+10 0.223264 -0.219693)
(-2.81677e+09 3.09761e+09 0.252943 -1.28136e+10 0.190309 -0.198603)
(-1.89242e+09 1.77508e+09 -0.095761 -8.5311e+09 -0.120189 0.111553)
(-6.62589e+08 4.55551e+08 -0.0505857 -4.25126e+09 -0.0501756 0.0563118)
(-1.26553e+10 3.01664e+10 -0.000153298 8.52637e+08 -0.000755637 0.00037406)
(-2.20542e+10 6.96713e+10 -0.003457 -5.80875e+09 -0.00458297 0.00343459)
(-1.75586e+10 6.99652e+10 -0.011589 -3.35235e+09 -0.0115837 0.00949518)
(-9.59263e+09 5.29285e+10 -0.0197715 -8.0197e+08 -0.0159889 0.0138902)
(-7.01889e+09 3.40688e+10 -0.0112704 2.74618e+08 -0.00293294 0.00279585)
(-5.0914e+09 2.39485e+10 0.0369716 2.30805e+09 0.0439702 -0.0408248)
(-3.29805e+09 1.40604e+10 0.123093 1.35189e+09 0.115666 -0.111439)
(-2.39387e+09 9.31448e+09 0.170729 1.69448e+09 0.14269 -0.143407)
(-1.32033e+09 4.87373e+09 0.0533507 1.03318e+09 0.03291 -0.0385151)
(-6.16749e+08 2.02827e+09 0.0169307 1.12277e+09 0.0119845 -0.0114147)
(-4.61984e+10 1.39119e+10 5.25399e-05 7.74818e+09 -0.000332522 0.000147714)
(-4.66212e+10 1.64417e+10 -0.00179564 -9.266e+09 -0.00272705 0.00199133)
(-3.34956e+10 1.46716e+10 -0.00795653 -1.60562e+10 -0.00853867 0.0067725)
(-1.83405e+10 1.2411e+10 -0.0171805 -1.97933e+10 -0.0155821 0.0130122)
(-1.25635e+10 7.37741e+09 -0.0211767 -1.67352e+10 -0.0160375 0.0138127)
(-6.8686e+09 5.5401e+09 -0.00587369 -1.2829e+10 0.000893136 -0.00130105)
(-4.6655e+09 3.55443e+09 0.033485 -9.49161e+09 0.035492 -0.0340488)
(-2.5579e+09 2.46586e+09 0.0670031 -6.45109e+09 0.0591065 -0.0585628)
(-1.5589e+09 1.52027e+09 0.0364779 -4.30462e+09 0.0278218 -0.030096)
(-5.31852e+08 5.93637e+08 0.0131671 -2.25198e+09 0.0101458 -0.0105256)
(-9.97846e+09 1.28702e+10 0.000155402 5.48537e+09 -2.96823e-05 2.47092e-06)
(-2.4293e+10 3.22051e+10 -0.000476477 1.14439e+10 -0.00112668 0.000772974)
(-2.30772e+10 3.30305e+10 -0.00407065 1.38565e+10 -0.00481568 0.00354948)
(-1.62419e+10 2.49221e+10 -0.0106636 1.17935e+10 -0.010408 0.00812953)
(-1.11905e+10 1.63815e+10 -0.0165702 8.61965e+09 -0.0141757 0.0114292)
(-7.82967e+09 1.10461e+10 -0.0141831 6.90781e+09 -0.00995233 0.00782156)
(-4.89091e+09 6.62299e+09 0.00100013 4.31168e+09 0.00434787 -0.00519623)
(-3.25577e+09 4.17493e+09 0.0182624 3.15221e+09 0.0176791 -0.0181945)
(-1.77811e+09 2.20042e+09 0.0137262 1.82756e+09 0.0113977 -0.012904)
(-7.31846e+08 7.91194e+08 0.00514423 1.1206e+09 0.00402279 -0.00457183)
(-2.57485e+10 5.70215e+08 0.000152922 5.05152e+09 0.000130334 -4.40017e-05)
(-2.68761e+10 2.4231e+09 0.000348309 -3.33593e+09 -4.43157e-05 -2.94768e-05)
(-1.96844e+10 4.01638e+09 -0.00104127 -7.08837e+09 -0.00178676 0.000888724)
(-1.23333e+10 5.10594e+09 -0.00436514 -8.89985e+09 -0.00487867 0.00294869)
(-8.16013e+09 3.57621e+09 -0.00821756 -7.95737e+09 -0.00771496 0.0049965)
(-4.97938e+09 3.04851e+09 -0.00891154 -6.14806e+09 -0.00714725 0.00438389)
(-3.29701e+09 2.12977e+09 -0.00362429 -4.5623e+09 -0.00151388 -0.000517798)
(-1.98645e+09 1.57462e+09 0.00406767 -3.1233e+09 0.00506296 -0.0065221)
(-1.19876e+09 1.02137e+09 0.00482494 -2.07805e+09 0.00483002 -0.00653449)
(-4.43046e+08 4.79659e+08 0.00168482 -1.12529e+09 0.00152571 -0.00235164)
(-6.24409e+09 4.65801e+09 7.91793e-05 4.75192e+09 0.000183349 -9.12067e-06)
(-1.7955e+10 1.19962e+10 0.000794495 1.22451e+10 0.000594191 -0.000466023)
(-1.80022e+10 1.22933e+10 0.00110609 1.42046e+10 0.000341192 -0.00109059)
(-1.31424e+10 9.05692e+09 0.000580554 1.1532e+10 -0.000479087 -0.00137653)
(-9.09205e+09 5.90552e+09 -0.00054419 8.36929e+09 -0.00133648 -0.00133985)
(-6.19713e+09 3.76619e+09 -0.000829749 6.10644e+09 -0.000888161 -0.00180703)
(-3.89146e+09 2.24542e+09 0.00103184 3.88073e+09 0.00169983 -0.00330966)
(-2.49332e+09 1.3225e+09 0.00397424 2.62305e+09 0.00494354 -0.00502122)
(-1.36336e+09 6.72022e+08 0.0044996 1.51761e+09 0.00549409 -0.00539578)
(-5.11614e+08 1.64509e+08 0.00153062 7.90238e+08 0.00210639 -0.00332713)
(-1.2881e+10 -3.29773e+09 -2.65743e-05 1.6201e+09 0.000184229 8.06037e-05)
(-1.36368e+10 -2.04105e+09 0.00106283 -2.74173e+09 0.00100198 -0.000667552)
(-1.02744e+10 1.66065e+08 0.00285934 -4.20019e+09 0.00198404 -0.00274257)
(-7.17723e+09 1.72534e+09 0.00472915 -4.5502e+09 0.00310809 -0.00523795)
(-4.81033e+09 1.57333e+09 0.00602391 -4.01564e+09 0.00421315 -0.00690933)
(-3.19962e+09 1.53105e+09 0.00672546 -3.01189e+09 0.00545832 -0.00693772)
(-2.14308e+09 1.15083e+09 0.0069507 -2.19265e+09 0.00675345 -0.00460481)
(-1.38737e+09 8.91823e+08 0.00662385 -1.47635e+09 0.00765928 0.000124595)
(-8.51537e+08 6.00921e+08 0.00580773 -9.67982e+08 0.00785341 0.00292295)
(-3.48782e+08 3.1872e+08 0.00337764 -5.29894e+08 0.00515312 -0.00549708)
(-3.4256e+09 1.16401e+09 -0.000137262 2.99305e+09 0.000178243 0.000207423)
(-1.09771e+10 2.64452e+09 0.00131248 8.44905e+09 0.00137952 -0.00072508)
(-1.12415e+10 2.53179e+09 0.00476579 9.77527e+09 0.00369083 -0.00447314)
(-8.20192e+09 1.66797e+09 0.00911941 7.77829e+09 0.00677895 -0.00957571)
(-5.68237e+09 9.25401e+08 0.0123271 5.66612e+09 0.00952258 -0.0124037)
(-3.77009e+09 4.44557e+08 0.0126677 3.9706e+09 0.0107473 -0.00890307)
(-2.37346e+09 2.06936e+08 0.00902542 2.5484e+09 0.00896866 0.00372711)
(-1.47146e+09 5.53873e+07 0.0019349 1.65799e+09 0.0036831 0.0253461)
(-7.98209e+08 -1.10765e+07 -0.00295202 9.5868e+08 -0.000227945 0.0443383)
(-2.65607e+08 -7.83323e+07 0.00502267 4.56536e+08 0.00758775 0.0101966)
(-5.7884e+09 -3.44049e+09 -0.000242454 -4.84396e+08 0.000191284 0.000366557)
(-6.18794e+09 -2.49395e+09 0.00161226 -2.85225e+09 0.00185142 -0.00064288)
(-4.92906e+09 -6.85436e+08 0.00723398 -2.99889e+09 0.00592885 -0.00651215)
(-3.85406e+09 4.73032e+08 0.0148181 -2.64761e+09 0.0115187 -0.0154806)
(-2.68835e+09 6.8547e+08 0.0194157 -2.16081e+09 0.0153866 -0.0195412)
(-1.93032e+09 7.42624e+08 0.015418 -1.52459e+09 0.0134067 -0.00615475)
(-1.32283e+09 5.90796e+08 -0.000541995 -1.06519e+09 0.00148534 0.0334711)
(-9.05951e+08 4.67371e+08 -0.0268226 -6.88465e+08 -0.0224642 0.0942797)
(-5.68709e+08 3.23148e+08 -0.0488684 -4.37576e+08 -0.0475427 0.154444)
(-2.56476e+08 1.86597e+08 -0.0144376 -2.33893e+08 -0.0176489 0.160551)
(-1.73134e+09 -1.77759e+08 -0.000344297 1.51588e+09 0.000230113 0.000560233)
(-5.84453e+09 -9.65899e+08 0.00193694 4.50571e+09 0.00245475 -0.000347178)
(-5.98784e+09 -1.17958e+09 0.0104422 5.31863e+09 0.00900292 -0.00875527)
(-4.2817e+09 -1.04586e+09 0.0228698 4.17871e+09 0.018373 -0.0238984)
(-2.93443e+09 -8.81574e+08 0.0290047 3.06491e+09 0.0230995 -0.0321829)
(-1.87906e+09 -6.86718e+08 0.0132861 2.0948e+09 0.0112685 -0.00222943)
(-1.17335e+09 -4.81679e+08 -0.0346372 1.35307e+09 -0.0272115 0.0985292)
(-6.97018e+08 -3.41413e+08 -0.106441 8.57555e+08 -0.092321 0.245695)
(-3.67139e+08 -2.16985e+08 -0.171643 4.94835e+08 -0.168401 0.266901)
(-9.55317e+07 -1.27557e+08 -0.172149 2.20941e+08 -0.197874 -0.177798)
(-2.33732e+09 -2.6636e+09 -0.000448584 -1.31324e+09 0.00028749 0.00078498)
(-2.63498e+09 -1.91941e+09 0.00219201 -2.65099e+09 0.00314855 0.000251319)
(-2.35029e+09 -7.05121e+08 0.0142263 -2.22958e+09 0.0129576 -0.010642)
(-2.08702e+09 1.1278e+07 0.0340855 -1.6714e+09 0.0283724 -0.0346116)
(-1.5373e+09 2.64372e+08 0.0447891 -1.22324e+09 0.0357992 -0.0562126)
(-1.17044e+09 3.26076e+08 0.00985555 -7.9976e+08 0.00563645 -0.0184075)
(-8.16497e+08 2.7814e+08 -0.10691 -5.26425e+08 -0.0931193 0.18449)
(-5.78325e+08 2.21627e+08 -0.276959 -3.19979e+08 -0.240213 0.628997)
(-3.68073e+08 1.5785e+08 -0.309586 -1.92566e+08 -0.276691 1.0621)
(-1.77979e+08 9.76695e+07 0.160883 -9.59075e+07 0.132391 0.170151)
(-8.90123e+08 -6.3703e+08 -0.000551089 5.89401e+08 0.000351492 0.00101689)
(-2.83024e+09 -2.00545e+09 0.00228042 1.61722e+09 0.00384968 0.0011333)
(-2.81697e+09 -2.17827e+09 0.0179756 2.07155e+09 0.0174341 -0.0113405)
(-1.96492e+09 -1.7243e+09 0.0479993 1.60581e+09 0.0417166 -0.0443978)
(-1.30626e+09 -1.28183e+09 0.0719037 1.20582e+09 0.058859 -0.0904547)
(-7.96746e+08 -8.87357e+08 0.0254287 8.10501e+08 0.0130988 -0.0940579)
(-4.83268e+08 -5.83338e+08 -0.20117 5.31791e+08 -0.194019 0.0773936)
(-2.65798e+08 -3.73367e+08 -0.676685 3.30415e+08 -0.631016 0.578539)
(-1.27219e+08 -2.18809e+08 -1.12394 1.91548e+08 -1.0551 1.21689)
(-7.54948e+06 -1.03058e+08 -0.193059 7.92466e+07 -0.207785 0.237062)
(-8.38235e+08 -2.05121e+09 -0.000622162 -1.35481e+09 0.000418983 0.00120714)
(-1.43613e+09 -1.59583e+09 0.00222774 -2.08377e+09 0.0045203 0.00204256)
(-1.43633e+09 -9.40742e+08 0.0208529 -1.688e+09 0.0217364 -0.0107236)
(-1.48614e+09 -5.09469e+08 0.0611622 -1.09894e+09 0.056029 -0.04824)
(-1.14512e+09 -1.95049e+08 0.107582 -7.39717e+08 0.0923907 -0.107715)
(-8.99423e+08 -6.8634e+07 0.093064 -4.40066e+08 0.0701727 -0.135858)
(-6.2471e+08 804317 -0.119655 -2.73862e+08 -0.13606 0.0107345)
(-4.39449e+08 2.37902e+07 -0.666361 -1.52649e+08 -0.654513 0.522793)
(-2.72298e+08 3.59094e+07 -1.31309 -8.36481e+07 -1.26768 1.24583)
(-1.30175e+08 4.60917e+07 -0.273851 -3.34149e+07 -0.297561 0.249973)
(-6.51558e+08 -7.07269e+08 -0.000608098 3.62969e+08 0.000425042 0.00130582)
(-2.00473e+09 -3.1878e+09 0.00226496 3.31707e+08 0.00484806 0.00255839)
(-1.82346e+09 -3.76088e+09 0.0226802 2.77448e+08 0.024455 -0.0104659)
(-1.50801e+09 -2.94281e+09 0.0685758 1.82105e+08 0.0651121 -0.0509088)
(-1.05025e+09 -2.18192e+09 0.124464 1.13363e+08 0.111539 -0.116881)
(-7.31892e+08 -1.45716e+09 0.116059 6.24902e+07 0.0946277 -0.149241)
(-4.73167e+08 -9.50742e+08 -0.112297 3.23985e+07 -0.132646 0.0134961)
(-2.98615e+08 -5.81256e+08 -0.718157 1.53211e+07 -0.724701 0.584458)
(-1.63032e+08 -3.20099e+08 -1.45468 5.48522e+06 -1.44399 1.39309)
(-4.88796e+07 -1.26389e+08 -0.361421 1.69338e+06 -0.391564 0.370011)
)
;

boundaryField
{
    frontAndBack
    {
        type            empty;
    }
    symm
    {
        type            symmetryPlane;
    }
    in
    {
        type            mySigma;
    }
    out
    {
        type            mySigma;
    }
}


// ************************************************************************* //
