/*--------------------------------*- C++ -*----------------------------------*\
| =========                 |                                                 |
| \\      /  F ield         | foam-extend: Open Source CFD                    |
|  \\    /   O peration     | Version:  3.0                                   |
|   \\  /    A nd           | Web:         http://www.extend-project.de       |
|    \\/     M anipulation  |                                                 |
\*---------------------------------------------------------------------------*/
FoamFile
{
    version     2.0;
    format      ascii;
    class       volVectorField;
    location    "1.4";
    object      u;
}
// * * * * * * * * * * * * * * * * * * * * * * * * * * * * * * * * * * * * * //

dimensions      [0 0 0 0 0 0 0];

internalField   nonuniform List<vector> 
300
(
(-4.55468e+15 2.64523e+15 0.0291671)
(-2.28138e+14 -3.3793e+15 0.031997)
(6.46152e+14 7.54608e+14 0.0335096)
(-1.16259e+15 -3.47697e+14 -0.00622038)
(4.23534e+13 -1.1281e+15 -0.114318)
(-4.76806e+14 -8.28704e+13 -0.279946)
(1.18451e+14 4.28174e+13 -0.40824)
(-1.46232e+14 -2.20372e+13 -0.319678)
(4.93799e+13 1.31097e+13 0.22412)
(-6.52087e+13 -7.97766e+11 1.29939)
(1.55704e+14 -4.76873e+14 0.0111096)
(2.90325e+13 2.11904e+14 0.00490433)
(2.03527e+13 2.92808e+14 -0.0115047)
(-1.41336e+14 3.84572e+14 -0.0483474)
(-4.34148e+13 -3.83533e+14 -0.0969769)
(3.82176e+13 1.08809e+14 -0.115292)
(-1.88777e+13 -1.26539e+14 -0.0382166)
(2.72675e+13 3.64424e+13 0.191004)
(-1.30349e+13 -3.40527e+13 0.519001)
(1.86295e+13 3.72762e+11 0.905428)
(3.69511e+14 -1.24044e+14 0.0124567)
(-7.25366e+14 -2.24196e+14 0.00855091)
(-1.98531e+14 -9.87857e+13 -0.00835659)
(5.57435e+12 -1.22607e+14 -0.0519804)
(4.53848e+13 1.15139e+14 -0.111609)
(-8.32055e+13 -5.90867e+13 -0.133021)
(2.84408e+13 4.52565e+13 -0.0123799)
(-4.32056e+13 -2.18998e+13 0.32036)
(1.71315e+13 1.49048e+13 0.622662)
(-2.5928e+13 -5.59566e+12 0.952778)
(2.29515e+14 -3.26285e+14 0.0135648)
(1.24176e+14 -4.61751e+13 0.00812043)
(5.40323e+13 -2.27956e+13 -0.00574234)
(-4.63451e+13 1.13332e+14 -0.0520876)
(1.85622e+13 -1.22466e+14 -0.122232)
(7.29486e+12 4.71017e+13 -0.160773)
(3.09027e+12 -4.77677e+13 -0.0481747)
(7.24018e+12 1.63466e+13 0.320966)
(-1.68953e+12 -1.47397e+13 0.672964)
(6.9866e+12 7.69176e+11 1.01767)
(-1.45989e+14 1.50102e+14 0.0121832)
(-1.67093e+14 -5.44257e+13 0.0131734)
(-9.23009e+13 -3.88103e+13 -0.0025275)
(-1.72301e+13 -4.54852e+13 -0.0481543)
(-3.11879e+12 3.1567e+13 -0.122056)
(-2.63426e+13 -2.74732e+13 -0.174061)
(4.85415e+12 1.607e+13 -0.077007)
(-1.41177e+13 -1.13492e+13 0.295288)
(4.87882e+12 6.48577e+12 0.692129)
(-9.18588e+12 -4.15511e+12 1.06094)
(1.4513e+14 -1.54165e+14 0.0115638)
(9.60783e+13 -3.10244e+13 0.00971071)
(5.145e+13 -2.61721e+13 -0.000508852)
(-5.29721e+12 3.33712e+13 -0.0438451)
(2.05028e+13 -3.95088e+13 -0.120217)
(5.99888e+11 1.70971e+13 -0.179313)
(5.92541e+12 -1.65261e+13 -0.0953547)
(1.37289e+12 6.28327e+12 0.269183)
(9.29188e+11 -5.58046e+12 0.700421)
(2.44725e+12 5.6971e+11 1.09124)
(-9.52058e+13 7.33771e+13 0.0107998)
(-7.84187e+13 -2.33356e+13 0.0119028)
(-5.06003e+13 -1.94768e+13 0.000201698)
(-1.7267e+13 -2.1248e+13 -0.0413077)
(-9.18584e+12 6.56935e+12 -0.116823)
(-1.02787e+13 -1.28867e+13 -0.180166)
(-7.86536e+11 4.77753e+12 -0.108095)
(-4.86098e+12 -5.49282e+12 0.244153)
(1.01117e+12 2.41691e+12 0.702243)
(-3.1184e+12 -2.32905e+12 1.11206)
(9.13334e+13 -7.1331e+13 0.0100441)
(6.46729e+13 -1.19567e+13 0.0112137)
(3.84525e+13 -1.16526e+13 0.00216117)
(6.00668e+12 1.13574e+13 -0.0386387)
(1.42835e+13 -1.1865e+13 -0.112869)
(9.34656e+11 6.26367e+12 -0.178954)
(4.36567e+12 -5.20562e+12 -0.117857)
(3.84834e+11 2.34977e+12 0.218562)
(1.02386e+12 -1.91202e+12 0.697388)
(9.05612e+11 3.21824e+11 1.12387)
(-5.94487e+13 3.35789e+13 0.00931289)
(-4.37988e+13 -1.36367e+13 0.0112574)
(-2.92695e+13 -1.26323e+13 0.0020308)
(-1.20654e+13 -1.21546e+13 -0.0357939)
(-7.20338e+12 -5.05989e+11 -0.107791)
(-4.6312e+12 -6.48463e+12 -0.175741)
(-1.47398e+12 9.01066e+11 -0.125957)
(-1.79593e+12 -2.67545e+12 0.191346)
(6.68599e+09 7.61993e+11 0.685481)
(-1.03296e+12 -1.16983e+12 1.12629)
(5.67213e+13 -3.06995e+13 0.0085877)
(4.06666e+13 -1.51858e+12 0.00986347)
(2.53442e+13 -1.95428e+12 0.00285746)
(7.03888e+12 5.46323e+12 -0.0325285)
(8.70143e+12 -2.57624e+12 -0.101959)
(1.24509e+12 2.71721e+12 -0.170624)
(2.63189e+12 -1.29909e+12 -0.132731)
(2.70118e+11 9.76217e+11 0.161921)
(6.79301e+11 -5.62009e+11 0.665621)
(3.74967e+11 1.81617e+11 1.11832)
(-3.66852e+13 1.38275e+13 0.00782921)
(-2.54414e+13 -9.83766e+12 0.0103192)
(-1.66956e+13 -9.35458e+12 0.00379569)
(-7.24944e+12 -7.736e+12 -0.0286516)
(-4.49134e+12 -2.18209e+12 -0.0943968)
(-2.21445e+12 -3.56075e+12 -0.163785)
(-1.07823e+12 -2.74406e+11 -0.138462)
(-7.03587e+11 -1.366e+12 0.12973)
(-1.5875e+11 1.57543e+11 0.636405)
(-3.37531e+11 -5.66118e+11 1.09706)
(3.43994e+13 -1.13437e+13 0.00683427)
(2.44678e+13 3.10361e+12 0.00959388)
(1.52678e+13 2.36109e+12 0.00504033)
(5.25229e+12 3.65785e+12 -0.0241106)
(4.92139e+12 3.78982e+11 -0.0857367)
(1.0381e+12 1.49652e+12 -0.155115)
(1.44581e+12 -5.34222e+10 -0.143315)
(2.11274e+11 4.9083e+11 0.0942381)
(3.84329e+11 -1.04021e+11 0.595708)
(1.71772e+11 1.10954e+11 1.05455)
(-2.22441e+13 4.40366e+12 0.00610524)
(-1.45924e+13 -7.57074e+12 0.00960739)
(-9.09536e+12 -6.97641e+12 0.00641827)
(-3.94558e+12 -5.06747e+12 -0.018791)
(-2.4614e+12 -2.15979e+12 -0.0755952)
(-1.03325e+12 -2.07436e+12 -0.14479)
(-6.14386e+11 -5.11149e+11 -0.147367)
(-2.73916e+11 -7.34875e+11 0.0566296)
(-1.23246e+11 -3.3714e+10 0.545716)
(-1.06887e+11 -2.7486e+11 0.978857)
(2.02857e+13 -2.72163e+12 0.00495802)
(1.40794e+13 4.43256e+12 0.00908662)
(8.51673e+12 3.47848e+12 0.00821687)
(3.26109e+12 2.74146e+12 -0.0126328)
(2.60354e+12 1.09265e+12 -0.0641709)
(6.76362e+11 9.66316e+11 -0.133208)
(7.40198e+11 2.66518e+11 -0.150791)
(1.3756e+11 2.90601e+11 0.0212702)
(1.98896e+11 3.07786e+10 0.511515)
(8.25461e+10 7.17968e+10 0.925239)
(-1.31636e+13 2.69241e+11 0.00377491)
(-8.07016e+12 -5.72672e+12 0.00875715)
(-4.64238e+12 -4.98888e+12 0.0103213)
(-1.95861e+12 -3.29279e+12 -0.00531823)
(-1.19791e+12 -1.6715e+12 -0.0511709)
(-4.36702e+11 -1.23524e+12 -0.121403)
(-2.92955e+11 -4.49691e+11 -0.158592)
(-9.31799e+10 -4.08554e+11 -0.0201482)
(-6.59588e+10 -7.33582e+10 0.531467)
(-2.9802e+10 -1.36137e+11 1.40201)
(1.16013e+13 6.65779e+11 0.00250749)
(7.70094e+12 4.157e+12 0.0079886)
(4.40077e+12 3.15595e+12 0.0123629)
(1.78222e+12 2.01776e+12 0.00346519)
(1.27281e+12 1.04278e+12 -0.0348058)
(3.68272e+11 6.52695e+11 -0.108263)
(3.49389e+11 2.83368e+11 -0.182903)
(7.33437e+10 1.85245e+11 -0.153705)
(9.4935e+10 5.58032e+10 0.14231)
(3.91835e+10 4.71722e+10 0.205617)
(-7.55742e+12 -1.24193e+12 0.00126256)
(-4.23244e+12 -4.14714e+12 0.00655588)
(-2.16646e+12 -3.38905e+12 0.0135002)
(-8.62996e+11 -2.09268e+12 0.0132831)
(-4.9809e+11 -1.15205e+12 -0.010779)
(-1.4658e+11 -7.3324e+11 -0.0767804)
(-1.10798e+11 -3.22765e+11 -0.179437)
(-1.77928e+10 -2.29318e+11 -0.241919)
(-2.64124e+10 -6.43019e+10 -0.0503156)
(-4.43768e+09 -6.87907e+10 0.0259713)
(6.41385e+12 1.65168e+12 0.000211098)
(3.96442e+12 3.28902e+12 0.00440619)
(2.07795e+12 2.38853e+12 0.0122415)
(8.58072e+11 1.40721e+12 0.0201219)
(5.56602e+11 7.86739e+11 0.0181494)
(1.65486e+11 4.33038e+11 -0.0087794)
(1.45796e+11 2.18251e+11 -0.0688205)
(3.01951e+10 1.18697e+11 -0.130302)
(4.06078e+10 4.79105e+10 -0.0561827)
(1.72714e+10 3.05311e+10 -0.0072228)
(-4.18438e+12 -1.54123e+12 -0.000596802)
(-2.06188e+12 -2.86301e+12 0.00177779)
(-8.75646e+11 -2.19221e+12 0.00792787)
(-3.05338e+11 -1.29381e+12 0.016879)
(-1.49774e+11 -7.36859e+11 0.0238128)
(-1.75038e+10 -4.28144e+11 0.0190695)
(-2.21653e+10 -2.08366e+11 -0.00670274)
(1.03255e+10 -1.27768e+11 -0.0441339)
(-5.57e+09 -4.5027e+10 -0.0269929)
(3.05424e+09 -3.5209e+10 -0.00779041)
(3.41089e+12 1.64608e+12 -0.000990765)
(1.88608e+12 2.35317e+12 -0.000299169)
(8.6044e+11 1.6298e+12 0.0034307)
(3.45527e+11 9.27089e+11 0.0101021)
(1.99145e+11 5.28147e+11 0.0174649)
(5.27456e+10 2.75856e+11 0.0200763)
(4.73413e+10 1.46647e+11 0.0112634)
(6.32328e+09 7.39415e+10 -0.00722669)
(1.41522e+10 3.36226e+10 -0.00788535)
(6.41803e+09 1.91467e+10 -0.00368772)
(-2.21837e+12 -1.35476e+12 -0.0011758)
(-8.972e+11 -1.88861e+12 -0.00156078)
(-2.55647e+11 -1.3559e+12 0.000561022)
(-4.84314e+10 -7.76169e+11 0.0050063)
(1.92234e+09 -4.44977e+11 0.0107318)
(3.08063e+10 -2.44125e+11 0.01478)
(1.36149e+10 -1.25113e+11 0.013038)
(1.76342e+10 -6.9898e+10 0.00512111)
(3.18083e+09 -2.80982e+10 0.00116758)
(4.41791e+09 -1.80971e+10 -0.000677914)
(1.73052e+12 1.31315e+12 -0.00127879)
(7.96464e+11 1.56862e+12 -0.00205317)
(2.73334e+11 1.03472e+12 -0.000480823)
(9.19585e+10 5.79292e+11 0.00314577)
(3.78991e+10 3.27876e+11 0.0081314)
(-4.04919e+08 1.67676e+11 0.0126514)
(4.67269e+09 9.04084e+10 0.0141118)
(-4.39323e+09 4.41787e+10 0.0114461)
(2.47136e+09 2.11932e+10 0.00754727)
(1.42105e+09 1.15436e+10 0.00238276)
(-1.11411e+12 -1.03401e+12 -0.00143483)
(-3.14271e+11 -1.19581e+12 -0.00215816)
(7.84782e+09 -8.04884e+11 -9.83781e-05)
(5.16693e+10 -4.51135e+11 0.00433461)
(5.38329e+10 -2.55679e+11 0.0103362)
(4.16892e+10 -1.35234e+11 0.0162363)
(2.32522e+10 -7.0807e+10 0.0197998)
(1.66274e+10 -3.72425e+10 0.0196221)
(5.61132e+09 -1.61942e+10 0.0159781)
(3.86664e+09 -9.26039e+09 0.00859117)
(8.25131e+11 9.39243e+11 -0.00173076)
(2.65413e+11 9.90292e+11 -0.00202782)
(2.07901e+10 6.20831e+11 0.00134617)
(-1.60991e+10 3.44838e+11 0.00817933)
(-2.36236e+10 1.91265e+11 0.0171237)
(-1.9914e+10 9.71194e+10 0.0254496)
(-1.04146e+10 5.20819e+10 0.0298144)
(-7.65725e+09 2.51671e+10 0.0283319)
(-1.86647e+09 1.23635e+10 0.0230327)
(-5.67983e+08 6.6672e+09 0.0196534)
(-5.18859e+11 -7.31223e+11 -0.00221252)
(-5.04964e+10 -7.33025e+11 -0.00175173)
(9.56281e+10 -4.61111e+11 0.00370969)
(7.65536e+10 -2.54594e+11 0.0145378)
(6.05429e+10 -1.40494e+11 0.0283851)
(3.73552e+10 -7.25988e+10 0.0393654)
(2.17923e+10 -3.79747e+10 0.0395466)
(1.30183e+10 -1.92039e+10 0.0238042)
(5.29053e+09 -8.74045e+09 0.000570172)
(2.898e+09 -4.68041e+09 0.00513077)
(3.56591e+11 6.28341e+11 -0.00289237)
(3.11377e+10 6.00065e+11 -0.00131272)
(-6.816e+10 3.55914e+11 0.00696374)
(-5.07934e+10 1.96874e+11 0.0234158)
(-3.90733e+10 1.05798e+11 0.0441752)
(-2.30419e+10 5.36955e+10 0.0571642)
(-1.31678e+10 2.82493e+10 0.0423984)
(-7.39476e+09 1.36386e+10 -0.0209998)
(-2.86523e+09 6.75617e+09 -0.135985)
(-1.12878e+09 3.68971e+09 -0.30944)
(-2.09484e+11 -4.97776e+11 -0.00373498)
(5.0672e+10 -4.45946e+11 -0.000658832)
(1.06134e+11 -2.60135e+11 0.0111566)
(6.99805e+10 -1.42882e+11 0.0347183)
(5.02674e+10 -7.54431e+10 0.0643131)
(2.84298e+10 -3.85223e+10 0.0792517)
(1.67529e+10 -1.96677e+10 0.0405308)
(9.19738e+09 -9.72095e+09 -0.105494)
(4.06398e+09 -4.52684e+09 -0.407469)
(2.00249e+09 -2.37851e+09 -0.881657)
(1.19539e+11 4.01485e+11 -0.00465083)
(-5.89316e+10 3.57097e+11 0.0002942)
(-8.73324e+10 1.99042e+11 0.0163441)
(-5.43552e+10 1.10825e+11 0.0482328)
(-3.6794e+10 5.69343e+10 0.0876629)
(-1.99725e+10 2.91186e+10 0.104657)
(-1.14208e+10 1.47885e+10 0.0503437)
(-5.94421e+09 7.21583e+09 -0.107863)
(-2.58787e+09 3.5827e+09 -0.302343)
(-1.16272e+09 2.04368e+09 -0.533)
(-4.68258e+10 -3.35795e+11 -0.0054731)
(8.00783e+10 -2.89998e+11 0.00138921)
(9.04244e+10 -1.56274e+11 0.0217038)
(5.47419e+10 -9.0089e+10 0.062008)
(3.65462e+10 -4.52324e+10 0.109522)
(1.96639e+10 -2.38915e+10 0.116108)
(1.14422e+10 -1.16744e+10 -0.000124308)
(6.00695e+09 -5.93379e+09 -0.279122)
(2.75727e+09 -2.7874e+09 -0.456601)
(1.37496e+09 -1.74917e+09 -0.657775)
(-1.10227e+10 2.42422e+11 0.000301369)
(-3.07631e+10 2.15073e+11 0.0278397)
(-2.26028e+10 1.09294e+11 0.0793881)
(-1.63257e+10 6.59215e+10 0.144826)
(-8.89812e+09 3.20296e+10 0.161888)
(-5.41805e+09 1.75899e+10 -0.00888594)
(-2.65786e+09 8.52762e+09 -0.552625)
(-1.48514e+09 4.49886e+09 -1.47816)
(-5.76474e+08 2.26012e+09 -1.91805)
(-2.49989e+08 1.6385e+09 -0.386586)
)
;

boundaryField
{
    frontAndBack
    {
        type            empty;
    }
    symm
    {
        type            symmetryPlane;
    }
    in
    {
        type            myVelocity;
    }
    out
    {
        type            fixedValue;
        value           uniform (1 0 0);
    }
}


// ************************************************************************* //
