/*--------------------------------*- C++ -*----------------------------------*\
| =========                 |                                                 |
| \\      /  F ield         | foam-extend: Open Source CFD                    |
|  \\    /   O peration     | Version:  3.0                                   |
|   \\  /    A nd           | Web:         http://www.extend-project.de       |
|    \\/     M anipulation  |                                                 |
\*---------------------------------------------------------------------------*/
FoamFile
{
    version     2.0;
    format      ascii;
    class       volScalarField;
    location    "14";
    object      p;
}
// * * * * * * * * * * * * * * * * * * * * * * * * * * * * * * * * * * * * * //

dimensions      [0 0 0 0 0 0 0];

internalField   nonuniform List<scalar> 
2688
(
-0.2514470518
-0.2318336834
-0.220262462
-0.20715594
-0.1999273082
-0.1910254092
-0.1864916157
-0.1805045252
-0.1776912307
-0.1738155874
-0.172092521
-0.1697741703
-0.1687058569
-0.167513467
-0.1667869889
-0.1663351309
-0.1657217023
-0.1656207428
-0.1649503866
-0.1647765157
-0.1639097642
-0.163197496
-0.1619818831
-0.1602413488
-0.2506616074
-0.2311090596
-0.2195735916
-0.2065075501
-0.1993016896
-0.1904270622
-0.1859079586
-0.1799386918
-0.1771348309
-0.1732704001
-0.1715536921
-0.1692416378
-0.1681778679
-0.1669881556
-0.1662653343
-0.1658137608
-0.1652037427
-0.1651019654
-0.1644350837
-0.1642607816
-0.1633977607
-0.1626870392
-0.1614756406
-0.1597403319
-0.2490773451
-0.2296483995
-0.2181865795
-0.2052032447
-0.1980433137
-0.1892248336
-0.1847343619
-0.17880287
-0.1760166831
-0.1721768031
-0.1704708049
-0.1681735219
-0.1671162138
-0.1659341846
-0.1652155905
-0.1647670235
-0.1641604541
-0.16405945
-0.1633963297
-0.1632232289
-0.1623653148
-0.1616591984
-0.1604553595
-0.1587311122
-0.246718493
-0.2274736044
-0.2161201524
-0.20325954
-0.196167519
-0.1874321469
-0.1829846017
-0.177108562
-0.1743493282
-0.1705449507
-0.1688559823
-0.1665795146
-0.1655333529
-0.1643614879
-0.1636510404
-0.1632056278
-0.162606283
-0.1625051578
-0.1618496974
-0.1616772947
-0.1608284838
-0.160128402
-0.1589363949
-0.1572282564
-0.2435746676
-0.2245751545
-0.2133668049
-0.2006701218
-0.19366882
-0.1850448306
-0.1806541329
-0.1748530097
-0.1721289313
-0.168373108
-0.1667055534
-0.1644582085
-0.1634251604
-0.162268341
-0.1615666417
-0.1611269882
-0.1605349046
-0.1604351478
-0.1597876385
-0.1596175262
-0.1587792338
-0.1580881815
-0.1569112865
-0.1552250192
-0.2396729183
-0.2209776809
-0.2099488308
-0.1974552584
-0.190566287
-0.1820800444
-0.1777600962
-0.1720512414
-0.1693713975
-0.1656749269
-0.1640349487
-0.1618226903
-0.1608072958
-0.1596680059
-0.1589788612
-0.1585451967
-0.157964056
-0.1578648706
-0.1572290912
-0.1570608236
-0.1562369324
-0.1555563694
-0.1543987832
-0.1527393149
-0.2350089228
-0.216677634
-0.2058637535
-0.1936133556
-0.1868587598
-0.1785377263
-0.1743020424
-0.1687043016
-0.1660766436
-0.1624521432
-0.1608440083
-0.1586748571
-0.157679044
-0.1565619669
-0.1558859744
-0.1554607512
-0.1548906043
-0.1547933423
-0.1541696154
-0.1540046211
-0.1531965475
-0.1525292374
-0.1513941301
-0.1497670351
-0.229613346
-0.2117027884
-0.2011372307
-0.1891678157
-0.1825685285
-0.1744381389
-0.1703001385
-0.1648302915
-0.1622635809
-0.1587215248
-0.1571511733
-0.155030942
-0.1540590782
-0.1529666774
-0.1523074948
-0.1518910125
-0.1513353848
-0.151239372
-0.1506312911
-0.1504692739
-0.1496807056
-0.1490282113
-0.1479196114
-0.1463296849
-0.2234877534
-0.2060551384
-0.195771769
-0.1841217376
-0.177698799
-0.1697853668
-0.165757967
-0.160434038
-0.1579358731
-0.1544883071
-0.1529598214
-0.1508961497
-0.1499500814
-0.1488867931
-0.1482449924
-0.1478395456
-0.1472984993
-0.1472049519
-0.1466128722
-0.1464550643
-0.1456874263
-0.1450522486
-0.1439732428
-0.1424257727
-0.2166662237
-0.1997655529
-0.1897961718
-0.1785014701
-0.1722748492
-0.1646025622
-0.1606985487
-0.1555365171
-0.1531152384
-0.1497721619
-0.1482911949
-0.1462896628
-0.1453735472
-0.1443417765
-0.143720837
-0.1433267752
-0.1428036354
-0.1427119714
-0.1421391964
-0.1419853482
-0.1412419293
-0.1406255434
-0.1395797473
-0.1380793073
-0.2091560313
-0.192841299
-0.1832177932
-0.1723146613
-0.1663041533
-0.1588978421
-0.1551293703
-0.1501462253
-0.1478089826
-0.1445817305
-0.1431521217
-0.1412198974
-0.1403354646
-0.1393393501
-0.138739796
-0.1383592483
-0.137854088
-0.1377654725
-0.1372124731
-0.1370638844
-0.1363463199
-0.1357513013
-0.1347419394
-0.1332935522
-0.2009943825
-0.1853161325
-0.1760683069
-0.1655903773
-0.1598147117
-0.1526970109
-0.1490760689
-0.1442867767
-0.1420413842
-0.1389393405
-0.1375663868
-0.1357087335
-0.1348598841
-0.1339017266
-0.1333268228
-0.1329601369
-0.1324760137
-0.1323898227
-0.1318594861
-0.1317157193
-0.1310267773
-0.1304542866
-0.1294844914
-0.1280924147
-0.1921940145
-0.1772023326
-0.1683597217
-0.1583406106
-0.1528181067
-0.1460120485
-0.1425498823
-0.1379701917
-0.1358232623
-0.13285692
-0.1315441676
-0.1297677012
-0.1289560252
-0.1280396267
-0.1274898548
-0.1271390193
-0.1266760896
-0.1265935519
-0.1260865639
-0.1259490788
-0.1252905623
-0.1247431867
-0.1238161128
-0.1224850262
-0.1827949252
-0.1685362597
-0.1601262777
-0.1505968861
-0.1453447832
-0.1388711662
-0.1355788108
-0.1312224802
-0.1291812038
-0.1263592009
-0.1251115238
-0.1234211055
-0.1226501915
-0.1217776816
-0.1212560189
-0.1209212926
-0.120482239
-0.1204026154
-0.1199214083
-0.1197896462
-0.1191639498
-0.1186427143
-0.1177612363
-0.116495073
-0.1728150308
-0.1593349267
-0.1513844021
-0.1423752992
-0.1374102249
-0.1312899953
-0.1281776527
-0.1240590019
-0.1221293745
-0.1194612455
-0.1182818539
-0.1166834882
-0.1159547781
-0.1151296254
-0.1146365565
-0.1143198474
-0.1139049747
-0.113829531
-0.113374918
-0.1132502205
-0.1126590074
-0.1121661226
-0.1113329788
-0.1101359389
-0.1622967232
-0.1496369509
-0.1421705548
-0.133709527
-0.129047007
-0.1232988672
-0.120376479
-0.1165078814
-0.1146963792
-0.1121898939
-0.1110831755
-0.1095812308
-0.1088979359
-0.1081220115
-0.1076601366
-0.1073615583
-0.1069731234
-0.1069011124
-0.1064751756
-0.1063571511
-0.105802644
-0.1053392527
-0.1045571902
-0.1034328705
-0.1512627832
-0.139463775
-0.1325053036
-0.1246194907
-0.1202742609
-0.1149168107
-0.1121934109
-0.1085875857
-0.1068995132
-0.1045631462
-0.1035319401
-0.1021317727
-0.1014951932
-0.1007716581
-0.1003414981
-0.1000628772
-0.09970128207
-0.09963383688
-0.0992373173
-0.09912693204
-0.09861046452
-0.09817825049
-0.09744952751
-0.09640159412
-0.1397575453
-0.1288558678
-0.122426934
-0.115140661
-0.1111263345
-0.1061759449
-0.1036602561
-0.1003280299
-0.09876907003
-0.09660960892
-0.09565775538
-0.09436314952
-0.0937760556
-0.0931064516
-0.09271018427
-0.09245152201
-0.09211865115
-0.09205518828
-0.09168993936
-0.0915871076
-0.09111075889
-0.09071096189
-0.09003809933
-0.08906974243
-0.1278083007
-0.1178387668
-0.1119598419
-0.1052964788
-0.1016257191
-0.09709841167
-0.09479818703
-0.09175052619
-0.09032522472
-0.08834999647
-0.08747993549
-0.08629556961
-0.08575912079
-0.08514629127
-0.08478444349
-0.0845473903
-0.08424361532
-0.08418499126
-0.0838515578
-0.08375686739
-0.08332165818
-0.08295556032
-0.08234043915
-0.08145479389
-0.1154608226
-0.1064543356
-0.1011436999
-0.09512380427
-0.09180813808
-0.08771774481
-0.08564037833
-0.08288641998
-0.0815995958
-0.07981430385
-0.07902927402
-0.07795827343
-0.07747476073
-0.0769199014
-0.07659425077
-0.07637878319
-0.07610570213
-0.07605157315
-0.07575160738
-0.07566518667
-0.07527294925
-0.07494169726
-0.07438645915
-0.07358622639
-0.1027465317
-0.09473184735
-0.09000639214
-0.08464927087
-0.08169913158
-0.07805889636
-0.07621076203
-0.07375958825
-0.07261497071
-0.0710257174
-0.07032773296
-0.06937405716
-0.06894447235
-0.06845004332
-0.06816104221
-0.06796852436
-0.06772637937
-0.06767731507
-0.06741116171
-0.06733337696
-0.06698490502
-0.0666895479
-0.06619576873
-0.06548354967
-0.0897120925
-0.08271406051
-0.07858850072
-0.07391068423
-0.07133536558
-0.06815640416
-0.06654347503
-0.06440241217
-0.06340389717
-0.06201521917
-0.06140687855
-0.06057295134
-0.06019910679
-0.05976598819
-0.05951506969
-0.0593455148
-0.05913565993
-0.05909150389
-0.05886056277
-0.05879157749
-0.05848834773
-0.05822976939
-0.05779912061
-0.05717706757
-0.07639264076
-0.07043359936
-0.06692103621
-0.06293752639
-0.06074510102
-0.05803771573
-0.05666490504
-0.05484104219
-0.05399149336
-0.05280819841
-0.05229105605
-0.05158005755
-0.05126272186
-0.05089290261
-0.05068036533
-0.05053480318
-0.05035732249
-0.05031845009
-0.05012291538
-0.05006303735
-0.04980567352
-0.04958478695
-0.04921854896
-0.04868871115
-0.06283515343
-0.05793358551
-0.05504498074
-0.05176807077
-0.04996548063
-0.04773792774
-0.04660971355
-0.04510846962
-0.04441081526
-0.04343621449
-0.04301221383
-0.04242585662
-0.0421663928
-0.04186047653
-0.04168745219
-0.04156592959
-0.04142192231
-0.04138825617
-0.04122921464
-0.04117851016
-0.04096808317
-0.04078543464
-0.04048478924
-0.04004873792
-0.04907804375
-0.04524958837
-0.04299408984
-0.04043428965
-0.03902714652
-0.03728666026
-0.03640643198
-0.03523281693
-0.03468901256
-0.03392655501
-0.03359674568
-0.03313736078
-0.03293624891
-0.0326956867
-0.03256227383
-0.03246550383
-0.03235491087
-0.03232673221
-0.03220426196
-0.03216305375
-0.03200001484
-0.03185637798
-0.03162226872
-0.03128147205
-0.03516799622
-0.03242453719
-0.03080921314
-0.02897442113
-0.02796722559
-0.02671909521
-0.02608978053
-0.02524723555
-0.02485921404
-0.02431095124
-0.02407662939
-0.02374522659
-0.02360341787
-0.02342855192
-0.0233355965
-0.02326361047
-0.02318724663
-0.0231644712
-0.02307931803
-0.0230475382
-0.02293256301
-0.0228281643
-0.02266131405
-0.02241675168
-0.02114623793
-0.01949651892
-0.0185264513
-0.0174225562
-0.01681839073
-0.01606669486
-0.01569011561
-0.01518150956
-0.01495028235
-0.01461825007
-0.01447991074
-0.01427791388
-0.01419554387
-0.01408726484
-0.01403464754
-0.01398789325
-0.01394557287
-0.01392844828
-0.01388057223
-0.01385855104
-0.01379187398
-0.0137272859
-0.01362823788
-0.01348076435
-0.007058550795
-0.006507705838
-0.006185977143
-0.005816379709
-0.005617243697
-0.005364234035
-0.005241731416
-0.005068483846
-0.004994976711
-0.004879952411
-0.004838264658
-0.004765988017
-0.004743625437
-0.00470199531
-0.0046902757
-0.004668703055
-0.004660938437
-0.004649322864
-0.004639130922
-0.004626678191
-0.004608608977
-0.004583782155
-0.004552832007
-0.004502835225
0.00705151571
0.006501747856
0.006174182398
0.005808285373
0.005601874092
0.005355321827
0.005223517089
0.005060714564
0.004976460501
0.00487389073
0.004819026906
0.004761094639
0.00472369193
0.00469832176
0.004669484665
0.004665628669
0.004639148484
0.004644999056
0.004617683476
0.004620239844
0.004589718156
0.004574447331
0.004537187573
0.00448948587
0.02113968805
0.01949098826
0.0185150743
0.01741482614
0.01680339836
0.01605810259
0.01567225268
0.01517402032
0.01493208612
0.01461242128
0.01446094604
0.01427319124
0.01417582652
0.0140837168
0.0140140572
0.01398496839
0.01392403615
0.01392435731
0.01385945615
0.0138524273
0.01377336053
0.01371830535
0.01361296827
0.01346777205
0.03516061246
0.03241826764
0.03079718513
0.02896609256
0.0279516981
0.02670999306
0.02607146117
0.02523929286
0.02484061838
0.02430473295
0.02405735766
0.02374022028
0.02358351515
0.02342480825
0.02331488056
0.02326045609
0.02316551299
0.02316000959
0.02305785016
0.02304090293
0.02291356646
0.02281862315
0.02264552116
0.02240324389
0.04907210783
0.04524459398
0.04298330833
0.04042704776
0.03901274413
0.03727851195
0.03638916062
0.03522570997
0.03467137536
0.03392103967
0.03357830804
0.03313288987
0.03291703051
0.03269235277
0.0325421979
0.03246281899
0.03233395758
0.03232297163
0.03218379118
0.03215735358
0.03198214292
0.03184788654
0.03160758601
0.03126902076
0.06282756202
0.05792712433
0.05503290792
0.05175964264
0.04995001927
0.04772877159
0.04659154124
0.04510046709
0.04439238536
0.04342991789
0.04299314039
0.04242077928
0.04214674015
0.04185668574
0.04166705189
0.04156273873
0.0414005347
0.04138374242
0.04120803489
0.0411717922
0.04094925244
0.04077582521
0.0404690633
0.04003525432
0.07638743692
0.07042924112
0.06691101864
0.06293088917
0.06073149295
0.05803012941
0.05664845821
0.05483441656
0.05397465169
0.05280308065
0.05227340777
0.05157593248
0.05124430346
0.05088988447
0.05066112999
0.05053244512
0.05033727498
0.05031509082
0.05010337568
0.05005782738
0.04978866855
0.04957687321
0.04920462338
0.04867694166
0.08970443518
0.08270752879
0.0785765726
0.07390229435
0.0713201974
0.0681473363
0.06652570785
0.06439447398
0.06338588855
0.06200893648
0.06138824731
0.06056785345
0.06017992559
0.05976216686
0.05949521641
0.0593423258
0.05911491239
0.05908704374
0.05884001447
0.05878493308
0.05847000602
0.05822027458
0.05778372098
0.0571638312
0.1027421649
0.09472821412
0.08999729588
0.08464334716
0.08168651315
0.07805198539
0.07619536543
0.07375354187
0.0725991567
0.07102108304
0.07031113276
0.06937037219
0.06892714828
0.06844743752
0.06814295947
0.0679665654
0.06770753347
0.06767439941
0.06739280039
0.06732868459
0.06696895173
0.06668226151
0.06618273655
0.06547257103
0.1154532374
0.1064478522
0.101132104
0.09511559226
0.09179349196
0.08770891472
0.08562328053
0.08287868422
0.08158227802
0.07980815182
0.07901135574
0.07795324102
0.07745630483
0.07691609366
0.07657519071
0.07637564761
0.07608589612
0.07604730591
0.07573207543
0.07565885146
0.07525551003
0.07493261469
0.07437176513
0.07357358539
0.12780486
0.117835935
0.1119518123
0.1052913709
0.1016142784
0.09709228901
0.09478406278
0.0917451617
0.09031066906
0.08834593711
0.08746463479
0.0862924175
0.08574316746
0.08514418883
0.08476780577
0.08454590592
0.08422625581
0.08418257423
0.08383461944
0.08375273538
0.08330694526
0.08294896542
0.08232844665
0.08144472893
0.139750161
0.128849545
0.1224158526
0.1151327672
0.1111124402
0.1061675104
0.1036440982
0.100320651
0.09875272671
0.09660373303
0.0956408508
0.09435831878
0.09375862688
0.09310275676
0.09269219388
0.09244851009
0.09210006973
0.09205124633
0.09167178219
0.09158133765
0.09109465376
0.09070265313
0.09002455691
0.08905812163
0.1512603401
0.1394618071
0.132498474
0.124615297
0.1202641829
0.1149115958
0.112180785
0.1085830203
0.1068864542
0.1045597707
0.1035181923
0.1021292572
0.101480877
0.1007701582
0.100326589
0.1000619709
0.09968570906
0.09963203353
0.099222091
0.09912348131
0.09859724048
0.09817248719
0.09743878372
0.09639263015
0.1622896544
0.1496308907
0.1421601612
0.1337020905
0.1290340941
0.1232909952
0.1203615375
0.1165010311
0.1146813054
0.1121844665
0.1110676071
0.1095767851
0.1088818806
0.1081185997
0.1076435406
0.1073587814
0.1069560308
0.1068975886
0.1064586547
0.1063521256
0.1057882079
0.105332029
0.1045452034
0.103422665
0.172813637
0.1593338704
0.1513788929
0.142372115
0.1374016936
0.1312858193
0.1281667613
0.1240553762
0.1221180673
0.1194586908
0.1182699275
0.1166817394
0.115942372
0.1151288495
0.1146236611
0.1143196565
0.1138915074
0.1138285253
0.1133617496
0.113247673
0.112647604
0.1121614351
0.1113237799
0.1101283494
0.1827882678
0.168530549
0.1601167309
0.1505900397
0.1453330753
0.1388640286
0.1355653629
0.131216343
0.1291676979
0.1263544109
0.1250976181
0.1234172532
0.1226358732
0.1217747799
0.1212411943
0.1209189403
0.1204669355
0.1203996087
0.119906712
0.1197854372
0.1191513636
0.1186367426
0.1177510734
0.1164865491
0.1921937025
0.1772022205
0.1683556363
0.1583385233
0.1528112989
0.146009048
0.1425409651
0.1379676629
0.1358139716
0.1328553448
0.1315343415
0.1297668712
0.1289458081
0.1280397122
0.127479252
0.1271396879
0.1266650338
0.1265935461
0.1260758086
0.1259477109
0.1252813619
0.1247398998
0.1238088272
0.1224791539
0.2009882146
0.1853108418
0.1760597437
0.1655842351
0.1598044103
0.152690766
0.1490643719
0.1442815277
0.1420297224
0.1389353642
0.1375544392
0.1357056615
0.1348476279
0.1338995499
0.1333141413
0.1329584442
0.1324628606
0.1323874961
0.131846826
0.1317123325
0.1310160701
0.1304494816
0.1294761041
0.1280854976
0.2091568217
0.1928421521
0.1832152123
0.1723137362
0.1662992169
0.1588961329
0.1551226388
0.1501449324
0.1478019428
0.1445812721
0.1431446401
0.1412201129
0.1403276777
0.1393404015
0.1387317169
0.1383608634
0.1378456738
0.1377665803
0.1372043918
0.1370638839
0.1363396311
0.1357496835
0.1347368967
0.1332897011
0.2166606166
0.1997607441
0.1897887031
0.1784961127
0.1722661096
0.164597324
0.160688802
0.1555322778
0.1531056257
0.149769107
0.1482814112
0.1462874679
0.1453635656
0.1443404231
0.1437105475
0.1433258788
0.1427929433
0.1427104896
0.1421288424
0.1419828251
0.1412331305
0.1406217045
0.1395728629
0.1380736636
0.2234896713
0.2060569829
0.195770753
0.1841220078
0.1776958309
0.1697850135
0.1657535638
0.1604340522
0.1579312306
0.1544890178
0.1529548247
0.1508974417
0.1499448583
0.1488888158
0.1482395628
0.1478420815
0.1472928364
0.1472071283
0.1466075578
0.1464564009
0.1456833475
0.1450523271
0.1439705561
0.1424240354
0.2296083815
0.2116985366
0.2011309568
0.1891632949
0.1825614574
0.1744339681
0.1702924665
0.164827106
0.1622561199
0.158719396
0.1571436339
0.155029596
0.1540514393
0.1529660946
0.1522996692
0.1518908624
0.1513272749
0.1512387667
0.1506234576
0.1504677535
0.1496740581
0.1490254862
0.1479143745
0.1463254371
0.2350120076
0.2166805281
0.2058643645
0.1936148415
0.1868578212
0.1785387552
0.1743000494
0.1687056294
0.1660744518
0.162453985
0.1608415258
0.1586771594
0.1576764094
0.1565648804
0.1558832263
0.155464115
0.1548877239
0.1547964768
0.1541670653
0.1540071558
0.1531950217
0.152530859
0.1513937048
0.1497673054
0.2396686814
0.2209740929
0.2099438675
0.1974516344
0.190560983
0.1820769962
0.1777545949
0.1720491253
0.1693661347
0.1656736783
0.1640296639
0.1618221114
0.1608019993
0.1596680946
0.1589734988
0.1585456874
0.1579585354
0.1578650785
0.1572238468
0.1570604085
0.1562326963
0.1555551322
0.154395726
0.1527370329
0.243578929
0.2245791889
0.213369112
0.2006728573
0.1936699677
0.1850472708
0.1806546132
0.1748556383
0.172129193
0.1683760018
0.1667055541
0.164461423
0.1634250921
0.1622720562
0.161566575
0.161131106
0.16053482
0.1604391826
0.159787848
0.159621196
0.1587801964
0.158091241
0.1569130048
0.1552271784
0.2467150023
0.2274707667
0.2161166077
0.2032569004
0.1961640889
0.1874302946
0.1829813501
0.1771075189
0.1743462642
0.1705445065
0.1688529149
0.1665796039
0.1655303663
0.1643621537
0.1636481245
0.1632066791
0.1626033489
0.1625061076
0.16184702
0.1616778923
0.1608265751
0.1601285321
0.1589354135
0.1572278229
0.2490826993
0.229653633
0.2181906166
0.2052072936
0.1980465992
0.1892287068
0.1847373355
0.1788067304
0.1760193012
0.1721805833
0.1704731511
0.1681774767
0.1671185953
0.1659385537
0.1652181167
0.1647717681
0.164163087
0.1640642631
0.1633991994
0.1632279
0.1623686152
0.1616635294
0.1604590311
0.1587349773
0.2506587318
0.2311068584
0.219571552
0.2065060894
0.1993003151
0.1904265456
0.1859070074
0.1799386803
0.1771338883
0.1732706363
0.171552744
0.1692422588
0.1681770954
0.1669892601
0.1662647831
0.1658152468
0.1652033322
0.1651035189
0.1644348696
0.1642621681
0.1633979559
0.1626882034
0.1614763781
0.1597413619
0.2514541045
0.2318400449
0.2202682427
0.2071611243
0.1999326728
0.1910304737
0.1864968663
0.1805092097
0.1776958447
0.1738198723
0.1720969218
0.169778572
0.1687104509
0.1675182424
0.1667919055
0.1663402892
0.1657268657
0.1656260959
0.1649556677
0.1647818723
0.1639151122
0.1632027605
0.1619871515
0.1602465513
0.2514502768
0.231836643
0.2202652538
0.2071583426
0.1999302241
0.1910280725
0.1864947795
0.1805070112
0.1776939581
0.1738177932
0.1720952096
0.1697766037
0.1687089174
0.167516394
0.166790589
0.1663386106
0.1657258161
0.1656246799
0.1649548854
0.1647807742
0.1639145395
0.163201996
0.161986704
0.1602460782
0.2506633211
0.2311109278
0.2195758613
0.2065097767
0.1993044673
0.1904299098
0.1859110739
0.1799416611
0.1771377333
0.1732732459
0.1715564366
0.1692445632
0.1681806274
0.1669912416
0.1662681325
0.1658169238
0.1652064672
0.165105014
0.1644376501
0.1642635403
0.1634002064
0.1626895454
0.1614781159
0.1597428593
0.2490796837
0.2296509439
0.2181889904
0.2052054587
0.1980458961
0.1892273127
0.1847372769
0.1788053674
0.1760194333
0.1721791001
0.1704734936
0.1681759243
0.1671191493
0.1659369336
0.1652189368
0.1647701991
0.1641642396
0.1640630502
0.1634005403
0.1632272053
0.1623698439
0.1616634661
0.1604599889
0.1587356402
0.2467202937
0.2274754504
0.2161221793
0.2032614415
0.1961698825
0.1874345672
0.1829873249
0.1771112214
0.1743519854
0.1705475775
0.1688584926
0.1665821654
0.1655357879
0.1643641788
0.1636533846
0.1632082544
0.1626084354
0.1625075716
0.1618516599
0.1616794239
0.1608303717
0.1601303393
0.1589383253
0.1572302355
0.2435767658
0.2245772485
0.213368873
0.2006719972
0.1936710282
0.1850469124
0.1806566009
0.1748551474
0.1721313701
0.1683751627
0.166707986
0.1644603456
0.1634277761
0.1622707343
0.16156958
0.161129725
0.1605382255
0.1604382536
0.1597913622
0.1596209806
0.1587832734
0.1580919416
0.1569154104
0.1552290218
0.2396746077
0.2209793311
0.2099506295
0.1974569695
0.1905683398
0.1820821163
0.177762391
0.1720534893
0.1693736398
0.1656771509
0.1640370274
0.1618248701
0.1608092061
0.159670106
0.1589805623
0.1585471081
0.1579654662
0.1578664614
0.1572302463
0.1570620535
0.1562379572
0.1555573607
0.1543997517
0.1527403104
0.2350107254
0.2166793624
0.205865518
0.1936149695
0.1868606363
0.1785394415
0.1743040661
0.1687060245
0.1660786579
0.1624538112
0.1608460305
0.1586765823
0.1576812034
0.1565638833
0.1558883885
0.1554629444
0.1548933425
0.1547958416
0.1541727017
0.1540074119
0.1531998903
0.1525322951
0.1513975024
0.1497702806
0.2296148684
0.2117042639
0.2011388246
0.1891693575
0.1825702856
0.1744398718
0.1703019859
0.1648320762
0.1622653129
0.1587232258
0.1571526888
0.1550325186
0.1540603416
0.1529680754
0.1523084549
0.15189213
0.1513359803
0.1512400839
0.1506315653
0.1504695358
0.1496807573
0.1490281598
0.1479195123
0.1463295887
0.2234892871
0.2060566072
0.1957732851
0.1841231219
0.1777003644
0.1697867338
0.1657595562
0.1604353237
0.1579374067
0.1544895028
0.1529613338
0.1508973564
0.1499516813
0.1488881295
0.148246784
0.1478410963
0.14730055
0.1472067411
0.1466151849
0.1464570609
0.1456898772
0.1450544106
0.1439756259
0.1424280346
0.2166675835
0.1997668892
0.1897975801
0.1785028296
0.172276304
0.164603944
0.1606999354
0.1555378032
0.1531164066
0.1497732625
0.1482920654
0.1462905426
0.1453740827
0.1443423855
0.1437209886
0.1433270297
0.1428033707
0.1427117911
0.1421386238
0.1419847974
0.1412412561
0.1406248652
0.1395791203
0.1380787081
0.2091573413
0.1928425719
0.183219091
0.1723158206
0.1663054079
0.1588988589
0.1551305213
0.1501470509
0.1478099929
0.1445823881
0.1431530431
0.1412204881
0.1403364025
0.1393399893
0.138740851
0.1383600171
0.1378553175
0.1377663775
0.13721384
0.137064869
0.1363476697
0.1357523236
0.134743114
0.1332946165
0.200995574
0.1853173277
0.1760695204
0.1655915252
0.1598158504
0.1526980287
0.1490769958
0.1442875567
0.142041981
0.1389398193
0.1375665933
0.1357088848
0.1348596724
0.1339015156
0.1333261629
0.1329595224
0.1324749446
0.1323888318
0.131858226
0.1317145345
0.1310255796
0.1304531436
0.1294834494
0.1280914155
0.1921951215
0.1772034322
0.1683608136
0.1583415508
0.1528190661
0.1460127386
0.1425506273
0.1379705869
0.1358237734
0.1328570539
0.1315445016
0.1297676688
0.1289562829
0.1280395352
0.1274901303
0.1271389374
0.126676424
0.1265934723
0.1260868972
0.1259489573
0.1252907609
0.1247430276
0.1238160866
0.122484901
0.1827959256
0.1685372924
0.1601272845
0.1505978127
0.145345623
0.1388718505
0.1355793332
0.1312228165
0.1291813047
0.1263591346
0.1251111516
0.1234206157
0.1226493333
0.1217767622
0.1212546933
0.1209199782
0.1204805791
0.1204010125
0.1199196412
0.1197878873
0.1191621782
0.1186408915
0.1177594359
0.1164932843
0.172815941
0.1593358622
0.1513853066
0.1423760491
0.1374109393
0.1312904251
0.1281780758
0.1240590595
0.1221294845
0.1194609561
0.1182816976
0.1166829292
0.1159544397
0.1151288838
0.1146361134
0.1143189767
0.1139044577
0.1138285397
0.1133742909
0.1132491232
0.1126582038
0.1121649792
0.1113319643
0.1101348335
0.1622975104
0.1496378031
0.142171356
0.1337102464
0.1290475921
0.1232992802
0.1203766854
0.1165078765
0.1146961031
0.1121894136
0.1110823674
0.1095802607
0.1088966059
0.1081205908
0.1076583706
0.1073597885
0.1069710956
0.1068990755
0.1064729932
0.1063548335
0.1058002354
0.1053366526
0.1045545146
0.1034301671
0.1512635053
0.1394645587
0.1325060492
0.1246200929
0.1202747964
0.1149170628
0.1121936133
0.1085874178
0.1068993446
0.1045625637
0.1035314258
0.1021308259
0.1014943895
0.1007704054
0.1003404602
0.1000613652
0.09970004583
0.09963211443
0.09923589623
0.09912507602
0.0986088584
0.09817634843
0.09744773269
0.09639971265
0.1397581104
0.1288565336
0.1224275414
0.1151411974
0.1111267125
0.1061761493
0.103660229
0.1003277804
0.09876852759
0.09660884163
0.09565664831
0.0943618603
0.09377442157
0.09310472162
0.09270815581
0.09244946398
0.09211636457
0.09205280163
0.09168737155
0.09158429829
0.09110779078
0.09070774622
0.09003476389
0.0890663602
0.1278088522
0.1178394172
0.1119604608
0.1052969756
0.1016261364
0.09709855795
0.09479825664
0.09175022972
0.09032488615
0.08834923742
0.0874791868
0.08629436804
0.08575798696
0.08514467788
0.0847829621
0.0845454145
0.08424183483
0.08418273742
0.08384952722
0.08375444079
0.08331941074
0.08295304927
0.08233799107
0.08145226071
0.1154611736
0.1064548228
0.1011441319
0.09512418279
0.09180834819
0.08771778881
0.08564017766
0.08288599703
0.08159886767
0.07981334606
0.07902797056
0.07795678552
0.07747293526
0.0769179743
0.07659203511
0.07637649064
0.07610316732
0.07604886802
0.07574869064
0.07566200985
0.0752695974
0.07493813005
0.07438277722
0.07358249679
0.1027469384
0.0947323874
0.09000691512
0.08464969715
0.08169947768
0.07805898929
0.07621076354
0.07375923337
0.07261454421
0.07102487058
0.07032684955
0.06937271122
0.06894313206
0.06844821076
0.06815927485
0.06796625909
0.06772423928
0.06767471115
0.06740870173
0.0673305334
0.06698216226
0.06668654624
0.06619277855
0.06548047347
0.089712253
0.08271438865
0.07858878128
0.07391093028
0.07133543917
0.06815632329
0.06654314165
0.06440186455
0.06340303764
0.06201413687
0.06140544573
0.06057133744
0.06019714347
0.05976390223
0.05951266744
0.059342982
0.05913285626
0.0590885059
0.05885735227
0.05878815989
0.0584847843
0.058226069
0.05779533933
0.05717324736
0.07639293345
0.07043405428
0.06692149073
0.0629379083
0.06074540857
0.05803778889
0.05666488085
0.05484067368
0.05399103413
0.0528073236
0.05229011098
0.05157865068
0.0512612774
0.05089096924
0.05067844993
0.05053239465
0.05035498494
0.05031564632
0.05012019255
0.05005991838
0.04980259569
0.04958143468
0.04921517011
0.04868524336
0.06283516044
0.05793378522
0.05504514023
0.05176821243
0.04996544737
0.04773775245
0.04660927958
0.04510783385
0.04440986324
0.04343505288
0.0430106945
0.04242415669
0.04216431299
0.04185824065
0.04168484899
0.04156315229
0.04141884346
0.04138499269
0.04122575217
0.0411749131
0.04096438117
0.04078166982
0.04048097864
0.04004489819
0.04907825554
0.0452499835
0.04299449942
0.04043464579
0.03902743634
0.03728673172
0.0364064057
0.03523245796
0.03468855184
0.03392568593
0.0335957852
0.03313594709
0.03293477061
0.03269373406
0.03256030502
0.03246305238
0.03235248917
0.03232383955
0.03220141
0.03215978952
0.03199676268
0.03185283653
0.03161868721
0.03127779828
0.03516789727
0.03242464789
0.03080928861
0.0289744913
0.0279671182
0.02671885705
0.02608927775
0.02524654475
0.02485820263
0.02430974522
0.02407505571
0.0237434708
0.0236012439
0.02342619207
0.02333281151
0.02326062835
0.02318392784
0.02316098894
0.02307563792
0.02304377563
0.0229287129
0.02282429173
0.02265740615
0.02241281902
0.02114640231
0.01949687876
0.01852683591
0.01742289916
0.01681867456
0.01606677095
0.01569009614
0.01518116622
0.01494983203
0.01461739916
0.01447895704
0.01427651919
0.01419406751
0.01408533319
0.01403267059
0.01398544904
0.01394312355
0.01392553031
0.0138776704
0.0138552315
0.0137885585
0.01372367845
0.01362459376
0.01347702622
0.007058400708
0.006507773322
0.006186011358
0.005816416093
0.005617099736
0.005363968158
0.005241195206
0.005067772217
0.004993938518
0.004878734342
0.004836667804
0.004764214066
0.004741400747
0.004699579066
0.004687382439
0.00466562183
0.004657476862
0.004645730328
0.004635317739
0.004622818724
0.004604649632
0.004579819434
0.00454882188
0.004498801388
-0.007051365771
-0.006501399976
-0.006173805234
-0.00580794688
-0.005601590056
-0.005355242275
-0.00522353018
-0.005061047329
-0.004976900978
-0.004874725192
-0.004819968428
-0.004762465678
-0.00472515629
-0.004700224716
-0.004671460048
-0.004668055386
-0.004641612739
-0.004647925853
-0.00462061351
-0.00462359049
-0.004593068931
-0.00457809169
-0.004540865004
-0.004493257296
-0.02113983073
-0.01949091498
-0.01851503511
-0.01741478294
-0.01680353765
-0.01605835837
-0.01567278361
-0.01517471718
-0.01493311737
-0.01461361873
-0.01446253256
-0.01427493586
-0.01417803864
-0.01408608957
-0.0140169429
-0.01398799381
-0.01392749114
-0.01392789064
-0.01386325032
-0.0138562284
-0.01377728554
-0.01372221294
-0.01361693559
-0.01347176
-0.03516044464
-0.03241790917
-0.03079679859
-0.02896575108
-0.0279514089
-0.02670991341
-0.02607147068
-0.02523962371
-0.02484105309
-0.02430555772
-0.02405828751
-0.02374157169
-0.02358496631
-0.02342668779
-0.02331685462
-0.02326286936
-0.02316799122
-0.02316294668
-0.02306080544
-0.02304429043
-0.02291695688
-0.02282232125
-0.0226492522
-0.02240706869
-0.04907218472
-0.04524446614
-0.04298321744
-0.04042695714
-0.03901283651
-0.03727871985
-0.03638964664
-0.03522635702
-0.03467236526
-0.0339221846
-0.03357985035
-0.03313455906
-0.0329191651
-0.03269458601
-0.03254495607
-0.03246564005
-0.03233725431
-0.03232628511
-0.032187416
-0.03216095204
-0.03198589255
-0.03185160241
-0.03161136628
-0.0312728176
-0.0628273446
-0.05792673304
-0.05503249393
-0.05175928905
-0.04994971643
-0.04772869157
-0.04659154459
-0.0451007999
-0.04439281219
-0.04343073492
-0.04299405265
-0.04242210893
-0.04214816681
-0.041858536