/*--------------------------------*- C++ -*----------------------------------*\
| =========                 |                                                 |
| \\      /  F ield         | foam-extend: Open Source CFD                    |
|  \\    /   O peration     | Version:  3.0                                   |
|   \\  /    A nd           | Web:         http://www.extend-project.de       |
|    \\/     M anipulation  |                                                 |
\*---------------------------------------------------------------------------*/
FoamFile
{
    version     2.0;
    format      ascii;
    class       volVectorField;
    location    "75";
    object      u;
}
// * * * * * * * * * * * * * * * * * * * * * * * * * * * * * * * * * * * * * //

dimensions      [0 0 0 0 0 0 0];

internalField   nonuniform List<vector> 
2688
(
(0.2793561794 -0.05240733117 7.448402335e-17)
(0.1579143315 -0.04273149165 -1.086016601e-16)
(0.5730811965 -0.03711258004 1.938032752e-16)
(0.4136833729 -0.02848997728 -8.282151309e-17)
(0.7433614205 -0.02721527709 1.107545115e-16)
(0.5804058395 -0.01992508681 -3.143611386e-17)
(0.8493633643 -0.02032866168 9.304619584e-18)
(0.6930628329 -0.01455580961 6.046092102e-17)
(0.9195579679 -0.01527960584 -6.724948098e-17)
(0.7707624636 -0.01103995473 8.588362393e-17)
(0.9685373397 -0.01143825054 -2.929505956e-17)
(0.8247783492 -0.00861924951 4.663850821e-17)
(1.004161456 -0.008429935246 3.134476798e-17)
(0.8621345487 -0.006850383264 -9.1810758e-17)
(1.030840679 -0.006012600586 1.082296179e-16)
(0.887381415 -0.005460766845 -1.141986318e-16)
(1.051112566 -0.004027388858 1.093236203e-16)
(0.9035777543 -0.004263593298 -7.320512651e-17)
(1.066408785 -0.00238141255 1.799967654e-17)
(0.9128907933 -0.003104314661 1.994107137e-17)
(1.077419148 -0.001039622185 -3.402310808e-17)
(0.9169972792 -0.001827918313 1.542259229e-17)
(1.084250955 1.480721999e-05 -4.140457501e-17)
(0.9173628228 -0.0006029098188 1.400686305e-17)
(0.2909775145 -0.1551009077 -2.346603572e-16)
(0.1673644893 -0.1264341258 3.391193664e-18)
(0.5812963643 -0.1097480482 -3.937546947e-16)
(0.4199607694 -0.08411689467 4.831366199e-17)
(0.7493737126 -0.08039485605 -1.919252317e-16)
(0.584779305 -0.05868094042 -3.216386476e-17)
(0.8538425104 -0.05996853011 -1.120083536e-17)
(0.6962443424 -0.042755278 -1.543505828e-16)
(0.922911477 -0.04499249501 8.215703092e-17)
(0.7731641048 -0.03234810809 -1.358718503e-16)
(0.9710324256 -0.0335984567 5.095844554e-18)
(0.8266443617 -0.02520405291 -1.133955925e-16)
(1.005982069 -0.02467478764 2.994904366e-17)
(0.8636119352 -0.02000639608 1.382250824e-17)
(1.032118026 -0.01750653607 -3.75988684e-17)
(0.8885580031 -0.01594741217 7.751202169e-17)
(1.051945125 -0.01162991806 -7.134729803e-17)
(0.904499717 -0.01247716225 1.255172279e-17)
(1.066878865 -0.006775382486 9.862948748e-17)
(0.9135661531 -0.00915175318 -1.254498377e-16)
(1.077609073 -0.002839877423 1.228489335e-16)
(0.9173897618 -0.005545496178 -2.598756236e-17)
(1.084252285 0.0001844386207 6.196346736e-17)
(0.9174083435 -0.001554005279 2.939346689e-17)
(0.3140098285 -0.2558585266 4.272689815e-16)
(0.1861305727 -0.208492698 1.109273678e-16)
(0.5975767445 -0.1809634286 4.960057978e-16)
(0.4324274812 -0.1386274685 -2.449845013e-17)
(0.7612876916 -0.1325077857 2.393818388e-16)
(0.5934592804 -0.09663819969 1.065369939e-16)
(0.8627200478 -0.09880112713 -5.218609914e-18)
(0.7025555623 -0.07035529953 2.310820559e-16)
(0.9295649253 -0.07409479555 -6.514416476e-17)
(0.7779310926 -0.05319079232 2.149277582e-16)
(0.9759966182 -0.05530193717 2.49757778e-17)
(0.8303555233 -0.04142167601 1.334469679e-16)
(1.009625308 -0.04058727203 -3.320241834e-17)
(0.866559672 -0.03287683397 -4.668468631e-17)
(1.034699185 -0.02876924291 6.198419252e-17)
(0.8909162352 -0.02622850232 -1.878738442e-16)
(1.053647197 -0.01907479685 2.106627949e-16)
(0.9063661905 -0.02057937857 -1.69475847e-16)
(1.067832771 -0.01104063055 -2.507386072e-17)
(0.9149845461 -0.01521281427 4.986130382e-17)
(1.077917849 -0.004471603222 -5.649318996e-17)
(0.9183532414 -0.00944010123 -7.815647903e-17)
(1.084028716 0.000626056859 -4.321178998e-17)
(0.917852159 -0.002858162341 -2.969193783e-17)
(0.3481944531 -0.353390579 -4.646945851e-16)
(0.2139638615 -0.2879937067 -2.80116546e-16)
(0.6217536946 -0.2499480701 -6.070844212e-16)
(0.4509221398 -0.1914622878 1.888882658e-17)
(0.7789865188 -0.1830135525 -3.340946856e-16)
(0.6063452296 -0.1334481191 -7.507005454e-17)
(0.8759111911 -0.1364483027 -7.550572798e-17)
(0.7119319335 -0.09713889848 -1.898065155e-16)
(0.9394506356 -0.1023149601 -7.370426643e-17)
(0.7850152448 -0.073430069 -1.732546257e-16)
(0.9833658707 -0.07634992462 -8.687992072e-17)
(0.835867355 -0.05717503317 -1.534246783e-16)
(1.01502175 -0.05601797523 1.18955709e-16)
(0.8709295977 -0.04537107677 -3.610639725e-17)
(1.038510016 -0.03968956363 7.826716042e-17)
(0.8943974707 -0.03617857747 7.668666377e-17)
(1.056160777 -0.02630528485 -8.391259714e-17)
(0.9090903006 -0.02835074429 7.384272514e-17)
(1.069284879 -0.01523998305 7.455735985e-17)
(0.916980266 -0.02089600221 -1.118904074e-16)
(1.078532566 -0.00623519458 1.393893763e-16)
(0.9195430887 -0.01288936627 8.758517714e-17)
(1.084036802 0.0007175338681 -2.620020532e-17)
(0.9180838789 -0.003726160442 1.820645187e-16)
(0.3930717681 -0.446495366 4.982575716e-16)
(0.2505204168 -0.3638189004 2.536589578e-16)
(0.6534732862 -0.3157553927 7.185421314e-16)
(0.4752057603 -0.2418302736 -5.111350265e-17)
(0.8021967358 -0.2311708944 3.265444874e-16)
(0.6232522656 -0.1685196218 1.386257911e-16)
(0.8932038611 -0.172333231 3.265957613e-17)
(0.724223741 -0.1226389434 1.965374589e-16)
(0.9524079033 -0.1292070866 1.494172421e-16)
(0.7942964719 -0.09268443084 1.896988596e-16)
(0.9930281529 -0.09640382116 -5.002582241e-17)
(0.8430882845 -0.07215392473 2.599679119e-16)
(1.022106801 -0.07072015841 -2.37054082e-16)
(0.8766591268 -0.05725626265 1.792705009e-16)
(1.043525964 -0.05009563284 -2.531958727e-16)
(0.8989728145 -0.04567343894 -6.297630693e-17)
(1.059473778 -0.03318379667 2.494772467e-17)
(0.9126965702 -0.0358418342 -6.489371888e-17)
(1.071166367 -0.01917412677 -2.951010498e-17)
(0.9196888892 -0.02652444473 2.911701484e-17)
(1.079203048 -0.007708921139 -1.340531487e-16)
(0.9213144394 -0.01655095184 -2.945297149e-17)
(1.083737238 0.001202460336 -1.513140773e-16)
(0.918734483 -0.004987178999 -1.363031721e-18)
(0.4480984495 -0.533976554 -3.834311652e-16)
(0.2953455475 -0.4351294335 -2.379982118e-16)
(0.6923925937 -0.3776304106 -5.290175578e-16)
(0.5049942122 -0.2892217769 -4.262391775e-17)
(0.8306916344 -0.2764697674 -1.868485803e-16)
(0.6440079106 -0.2015364383 -2.689921886e-16)
(0.9144460757 -0.2060986019 7.095204581e-17)
(0.7393281653 -0.1466623968 -2.712962059e-16)
(0.968332798 -0.1545173348 -2.917056399e-16)
(0.8057114752 -0.1108385144 3.265214542e-17)
(1.004906597 -0.1152812289 -1.036142327e-17)
(0.8519733619 -0.08628485628 -1.413762611e-16)
(1.030815096 -0.08455898183 8.888784278e-17)
(0.8837056266 -0.06846259533 -2.107379251e-18)
(1.049688582 -0.05988906953 1.074853576e-16)
(0.9045842307 -0.05459098698 1.198630229e-16)
(1.0635552 -0.03967128938 1.616568058e-16)
(0.9170789984 -0.04278713782 -7.051163682e-17)
(1.073543209 -0.02295596975 1.594302474e-16)
(0.9228887942 -0.0315658857 -1.031004937e-16)
(1.080222379 -0.009328724079 2.631653567e-16)
(0.9232366972 -0.01957298918 -9.439597907e-18)
(1.083732368 0.001245831468 2.184641838e-16)
(0.9192008243 -0.005771413359 -1.96864082e-17)
(0.5125710692 -0.6147589192 -5.554479821e-17)
(0.3478599553 -0.50092106 1.147224837e-16)
(0.7379624306 -0.4347300048 5.385466513e-16)
(0.5398767697 -0.3329239486 -5.688728988e-17)
(0.8640344417 -0.3182575125 6.551461945e-17)
(0.6682931185 -0.2319658822 2.974764478e-16)
(0.9392852423 -0.2372383758 2.850376277e-18)
(0.7569820359 -0.1687862428 -1.536365771e-17)
(0.98694093 -0.1778535764 4.335560103e-16)
(0.819038253 -0.1275420904 -2.001928844e-16)
(1.018777992 -0.1326829256 -1.386823038e-16)
(0.8623374328 -0.09927803014 3.504060018e-16)
(1.040981684 -0.09731565043 -3.027779411e-16)
(0.8919233851 -0.0787725534 2.962537874e-16)
(1.056884618 -0.06891559351 -4.143311192e-16)
(0.9111377588 -0.06283258636 1.889536782e-16)
(1.06831848 -0.04563044415 -3.868144756e-16)
(0.9222271623 -0.0493058394 1.793613719e-16)
(1.076287327 -0.0263410374 -1.933180263e-16)
(0.9267170788 -0.03650265081 9.169349684e-18)
(1.081298026 -0.01053530045 -1.66052069e-16)
(0.9256563419 -0.02284766576 -2.669018508e-16)
(1.08350686 0.001784172167 1.903816976e-16)
(0.9199109207 -0.006942317444 -6.521975782e-16)
(0.5856804891 -0.6878040655 6.153925221e-16)
(0.4074279926 -0.5604634376 -4.138808202e-16)
(0.7896711428 -0.4863929501 7.604637401e-17)
(0.5794642895 -0.3724929181 -3.889273921e-16)
(0.9018956455 -0.3560772018 2.553254133e-16)
(0.695877765 -0.259531212 -4.318208767e-16)
(0.9675135183 -0.2654266704 1.966549205e-16)
(0.7770581458 -0.1888420581 -4.731179023e-17)
(1.008107695 -0.1989814108 -6.794444577e-17)
(0.8342136385 -0.1426977308 9.217014985e-17)
(1.034571926 -0.1484385316 2.320859884e-16)
(0.8741531493 -0.111075815 -3.220383298e-16)
(1.052567193 -0.1088621122 1.911429834e-16)
(0.9012972034 -0.08813048882 -2.984806472e-16)
(1.06509099 -0.07708076323 4.429814501e-16)
(0.9186033382 -0.07028201678 -4.140778924e-16)
(1.073760321 -0.05103137306 5.434752504e-16)
(0.9280558302 -0.05510981856 -4.29790947e-16)
(1.079454491 -0.02948271392 4.14237412e-16)
(0.9309792088 -0.04071290101 -3.261921719e-16)
(1.082618551 -0.01188081222 5.828673252e-16)
(0.9282674787 -0.02536091198 -2.220881172e-16)
(1.08337605 0.001814370341 1.835767605e-16)
(0.9206753534 -0.007583197811 1.423980491e-16)
(0.6665135978 -0.7522132636 -9.525038512e-16)
(0.4732693835 -0.6129232944 4.364229881e-16)
(0.8468057171 -0.5319225831 -4.327768964e-16)
(0.6231982353 -0.4073403671 4.591723637e-16)
(0.9436990139 -0.3894016809 -8.421256505e-17)
(0.7263236164 -0.283795886 8.202002894e-17)
(0.9986529634 -0.2902626686 -1.91771743e-16)
(0.7991880264 -0.2064838955 8.760663872e-18)
(1.031431938 -0.2175954049 -1.931317322e-16)
(0.8509162858 -0.1560170753 3.128036625e-17)
(1.051954021 -0.1623196401 -4.39936762e-16)
(0.8871392258 -0.121436689 5.718847927e-16)
(1.065301093 -0.1190368919 -4.791156978e-16)
(0.9115902092 -0.09635434261 5.91680434e-16)
(1.0740999 -0.08427478044 -5.328850507e-16)
(0.9268052721 -0.0768646501 6.126723391e-16)
(1.079728966 -0.05576394543 -5.73706678e-16)
(0.9344800821 -0.06033678692 5.384807107e-16)
(1.082930141 -0.03213120088 -2.498135498e-16)
(0.9357045207 -0.04470871608 8.130985593e-17)
(1.084089191 -0.01274627034 -1.223346043e-16)
(0.9311545696 -0.02806507794 -3.181214725e-16)
(1.083311252 0.002379510206 5.086383893e-16)
(0.9213911251 -0.00863120223 -1.038075265e-15)
(0.7540416101 -0.8071601861 1.018956171e-15)
(0.5445900224 -0.6577110416 -1.048336843e-15)
(0.9087113333 -0.5707819319 1.203232275e-15)
(0.670596748 -0.4371004857 -8.426392523e-16)
(0.9890277587 -0.4178438382 4.791390014e-16)
(0.7593522372 -0.3045245956 -2.221673543e-16)
(1.032451628 -0.311457485 3.3516808e-16)
(0.8232283203 -0.2215630248 9.628655627e-17)
(1.056779132 -0.2334776016 3.932070833e-16)
(0.8690912709 -0.1674106449 -4.217342927e-17)
(1.070870853 -0.1741589586 3.899895677e-16)
(0.9012948631 -0.1303064982 -3.662953418e-16)
(1.079179876 -0.1277067646 2.588709202e-16)
(0.9228271116 -0.1033943598 -5.732779036e-16)
(1.083929469 -0.09039417826 4.043395747e-16)
(0.9357669305 -0.08248273156 -7.98347563e-16)
(1.086236957 -0.05978890593 6.367647057e-16)
(0.9415008884 -0.06474652753 -8.152269084e-16)
(1.086690313 -0.03443033195 4.96139049e-16)
(0.9408795289 -0.04796074513 -4.323189633e-16)
(1.085606949 -0.01367658154 5.250920771e-16)
(0.9343731305 -0.03003774242 -2.11598332e-16)
(1.083080891 0.002433160225 1.814022018e-16)
(0.9223594578 -0.009052072196 3.49489103e-16)
(0.8471804764 -0.8519669035 -5.422895666e-16)
(0.6204592241 -0.6942090125 6.593360348e-16)
(0.9745457848 -0.602460228 -5.127292366e-16)
(0.7209913023 -0.4613479304 1.558109649e-16)
(1.037196157 -0.4410365984 -6.316868711e-17)
(0.7944333353 -0.3214109092 -1.941258935e-16)
(1.068330327 -0.3287478418 -2.304301867e-16)
(0.8487249901 -0.2338419115 -3.822049418e-16)
(1.083649701 -0.2464404021 -3.828236051e-16)
(0.8883323297 -0.1766816261 -1.488028677e-16)
(1.090890666 -0.1838286357 -4.211758859e-16)
(0.9162524481 -0.1375184807 5.218625274e-16)
(1.09383827 -0.1347955858 -5.110514577e-16)
(0.9346829682 -0.1091201995 8.417599659e-16)
(1.094286227 -0.09540361799 -4.5850622e-16)
(0.9452196861 -0.08707085878 9.652333193e-16)
(1.093071767 -0.06307507883 -6.167217386e-16)
(0.9489206127 -0.06840018127 8.440973411e-16)
(1.090618561 -0.03625375667 -3.666739739e-16)
(0.9463650759 -0.05076460131 1.844645251e-16)
(1.087186209 -0.01426131349 -6.675935133e-17)
(0.9377494397 -0.03194114136 -4.760714416e-16)
(1.082893798 0.002831267504 4.48842524e-16)
(0.923193362 -0.009840135529 -8.510543357e-16)
(0.9447393574 -0.8860605411 4.205014844e-16)
(0.6999527913 -0.7219959143 -5.334022588e-16)
(1.043543616 -0.6265660846 5.3715792e-16)
(0.7738204098 -0.4798053091 -2.906721428e-16)
(1.087718254 -0.4586726639 2.648943971e-16)
(0.8312467213 -0.3342610424 1.751786876e-16)
(1.106003403 -0.3418831915 2.050385585e-16)
(0.8755217186 -0.2431849855 5.041677918e-16)
(1.111905453 -0.2562768375 3.929358034e-16)
(0.9085940624 -0.1837379234 1.779808292e-16)
(1.111981022 -0.1911545267 2.352805322e-16)
(0.9320378435 -0.1430106284 -3.193603898e-16)
(1.109312487 -0.1401526001 3.82452163e-16)
(0.9472216381 -0.1134812707 -6.690102308e-16)
(1.105240367 -0.09917451912 3.521908239e-16)
(0.9552364184 -0.09055794136 -9.642114819e-16)
(1.10030455 -0.06554033649 4.345356635e-16)
(0.9568037293 -0.07115155453 -6.2567697e-16)
(1.094750683 -0.03763889124 2.474221145e-16)
(0.9522370018 -0.05281676225 -4.056226757e-16)
(1.08877214 -0.0147853614 4.272092616e-16)
(0.9414677077 -0.03321633434 -1.422389091e-16)
(1.082519462 0.002926338681 2.273538125e-16)
(0.9243482474 -0.01013990475 1.63902788e-16)
(1.04551322 -0.9090182587 -1.171887259e-16)
(0.7820477752 -0.7407022315 5.139725869e-17)
(1.114778131 -0.6428061417 -3.499043019e-18)
(0.8283513335 -0.4922386537 -1.811948932e-16)
(1.139838305 -0.4705733221 -6.423833537e-17)
(0.8692062139 -0.3429251669 -6.021389066e-17)
(1.144824043 -0.3507644471 -2.493761128e-16)
(0.9031081007 -0.24948891 -3.970154254e-16)
(1.140976184 -0.2629429594 -2.623486171e-16)
(0.9294090275 -0.1884994868 -2.047797973e-17)
(1.133635252 -0.1961333702 -3.31393382e-16)
(0.9482156733 -0.1467147204 4.852416471e-16)
(1.125160496 -0.143806957 -7.433248025e-16)
(0.9600423468 -0.1164209259 9.688603688e-16)
(1.116426187 -0.1017592647 -6.840327734e-16)
(0.9654589122 -0.09291227205 9.834806286e-16)
(1.107665239 -0.0672370849 -4.349143863e-16)
(0.9648345862 -0.07302614152 5.212454719e-16)
(1.098938769 -0.0385828688 -3.501266704e-17)
(0.9581937467 -0.05425949776 7.084205558e-17)
(1.090376507 -0.01509045268 -2.447328257e-17)
(0.9451664772 -0.0342219113 -1.556628054e-16)
(1.082188154 0.003155154455 1.643476893e-16)
(0.9252896136 -0.01064565615 -4.926587869e-16)
(1.148211552 -0.9205492644 5.939957019e-17)
(0.8657245889 -0.7500947668 -1.602454068e-17)
(1.187406595 -0.6509486978 -5.828108743e-17)
(0.8839576905 -0.4984667922 5.055113183e-17)
(1.1930178 -0.4765168776 1.255846358e-16)
(0.90795429 -0.3472505057 -1.567020632e-16)
(1.184480067 -0.3551785625 2.94812142e-16)
(0.931314005 -0.2526247319 7.631008271e-17)
(1.170722249 -0.2662362541 2.515511076e-16)
(0.9507386641 -0.1908613082 -1.78760097e-16)
(1.155842093 -0.1985735641 4.141569718e-16)
(0.9648370033 -0.1485497997 -4.65199417e-16)
(1.14145797 -0.1455774724 5.720733256e-16)
(0.9732507865 -0.1178787271 -6.698818084e-16)
(1.127965119 -0.1029890452 5.436528496e-16)
(0.9760191598 -0.09408216405 -6.412664264e-16)
(1.115280383 -0.06802037684 2.549885647e-16)
(0.9731596034 -0.07395592643 -2.387431951e-16)
(1.103271456 -0.03899482931 -6.917834833e-17)
(0.9644244056 -0.05496638967 3.108039242e-17)
(1.091986087 -0.01519456329 5.456270574e-17)
(0.9491786038 -0.03470747709 -7.532060191e-18)
(1.081661631 0.003306712261 9.172263594e-17)
(0.9266760306 -0.01088361234 2.28409197e-17)
(1.251566939 -0.9205069837 4.661520069e-18)
(0.9499314313 -0.750071731 -5.46232968e-17)
(1.260471572 -0.6509371658 -7.037437201e-17)
(0.939894064 -0.4984638496 2.035411441e-16)
(1.246479256 -0.4765305771 -1.047213564e-16)
(0.9468921697 -0.3472604863 2.77441182e-16)
(1.224299179 -0.3552083794 -2.603857476e-16)
(0.9596096285 -0.2526414902 2.401428588e-16)
(1.200537909 -0.2662756338 -1.505001914e-16)
(0.9720851633 -0.1908800529 1.966820658e-16)
(1.178046547 -0.1986169728 -4.522409193e-16)
(0.9814223484 -0.1485670879 3.762493133e-16)
(1.157702702 -0.1456188187 -3.632603301e-16)
(0.9863863666 -0.117893462 3.875690594e-16)
(1.139425632 -0.1030209397 -5.006806145e-16)
(0.9864802057 -0.09409733418 4.510967578e-16)
(1.12282161 -0.06803415534 -2.648257601e-16)
(0.9813566852 -0.07398101837 1.271436451e-16)
(1.107572192 -0.03897843209 -9.658972885e-18)
(0.9704737579 -0.0550247626 -8.943462042e-17)
(1.093649557 -0.01512003518 -3.89953351e-17)
(0.9529065885 -0.03485180928 5.167814482e-17)
(1.081334078 0.00349470833 -2.159947571e-16)
(0.9275875656 -0.01116766236 2.531754154e-16)
(1.354255512 -0.9088970505 -1.323455266e-16)
(1.033591795 -0.7405992663 2.342914228e-16)
(1.333086133 -0.6427077594 -1.691577548e-16)
(0.9954844326 -0.4921504386 -1.954454211e-16)
(1.299645628 -0.4704824577 6.947012156e-17)
(0.9856267773 -0.342843346 -4.050156962e-16)
(1.263945642 -0.3506775034 2.527974967e-16)
(0.9878054251 -0.2494110443 -5.193932489e-16)
(1.230279524 -0.2628563059 8.245365384e-17)
(0.9934091571 -0.1884264357 -3.982769705e-16)
(1.200255249 -0.1960418998 5.343016363e-16)
(0.9980438757 -0.1466509438 -3.987462842e-16)
(1.17400895 -0.1437023018 4.04711474e-16)
(0.9996018782 -0.1163759751 -3.360829425e-16)
(1.150979549 -0.1016279834 4.194170263e-16)
(0.9970540277 -0.09290133152 -1.387773325e-16)
(1.130455277 -0.06706040276 1.471188473e-16)
(0.9897004063 -0.07307075471 1.07061029e-16)
(1.111918872 -0.03833389771 -8.247792494e-17)
(0.9767369349 -0.05440326639 2.371503516e-16)
(1.095238903 -0.01471227404 -8.602454759e-17)
(0.957014616 -0.03457300357 5.674309967e-17)
(1.080683785 0.003754900149 6.464708877e-17)
(0.9292274651 -0.01130181818 -2.369566611e-16)
(1.455009646 -0.8858571348 9.410777939e-17)
(1.115691034 -0.7218477078 -1.978701738e-16)
(1.404320743 -0.6264452708 1.38322783e-16)
(1.050025608 -0.4797116043 1.576851761e-16)
(1.351771925 -0.4586090801 -1.419047629e-17)
(1.02359536 -0.3342000842 3.758049189e-16)
(1.302771001 -0.3418560962 -9.287460784e-17)
(1.015396517 -0.2431430587 5.117073392e-16)
(1.259348895 -0.2562703079 -1.150883959e-19)
(1.014221695 -0.1837074581 4.555270407e-16)
(1.221898539 -0.1911525733 -3.102269851e-16)
(1.0142092 -0.1429906231 2.012597869e-16)
(1.189834686 -0.140133294 -2.371439379e-16)
(1.012396461 -0.1134816085 1.973392333e-16)
(1.16213567 -0.09910457761 -4.16098381e-16)
(1.007229823 -0.09060572261 1.752542343e-17)
(1.137795597 -0.06537127561 -1.290973256e-16)
(0.9976477729 -0.07129945842 -2.156980515e-16)
(1.116128785 -0.0373002608 1.165348687e-16)
(0.9825504179 -0.0531649503 -2.010331273e-16)
(1.096934543 -0.01416053479 2.215952964e-17)
(0.9605058483 -0.03394931702 1.446185717e-16)
(1.080505033 0.003988861573 -2.870789498e-16)
(0.9298939364 -0.01137924367 5.756431218e-16)
(1.552539347 -0.8516883149 -2.181990501e-16)
(1.195135932 -0.6939864682 4.300659733e-16)
(1.473277012 -0.6022572466 -3.61325233e-16)
(1.102807211 -0.4611746272 3.917702217e-17)
(1.402254301 -0.4408731603 -2.398979678e-17)
(1.060368131 -0.3212628766 -4.195834541e-16)
(1.340413986 -0.3286070721 1.750879168e-16)
(1.042161845 -0.2337082411 -5.7552353e-16)
(1.287588256 -0.2463075721 1.424729807e-16)
(1.034464863 -0.1765600748 -5.942900775e-16)
(1.242988886 -0.1836861091 3.962026679e-16)
(1.029994692 -0.1374173641 -3.494258e-16)
(1.205325006 -0.1346160752 3.425959135e-16)
(1.024961891 -0.1090651269 -3.587419075e-16)
(1.173114219 -0.09514182645 5.806065856e-16)
(1.017310415 -0.08711273978 -1.014389792e-16)
(1.145039288 -0.06266034606 2.329033699e-16)
(1.005648398 -0.0686220864 1.065800941e-16)
(1.120212966 -0.03558670286 -5.653941263e-17)
(0.988634158 -0.05128905515 1.524735457e-16)
(1.098325538 -0.01322077431 -1.81883694e-16)
(0.9646344424 -0.03292226338 5.358160323e-17)
(1.079651964 0.004308874844 -1.419234156e-16)
(0.9318164372 -0.01125186704 -1.187046652e-16)
(1.645639791 -0.8068063639 2.86150365e-16)
(1.271013795 -0.6574456156 -3.872076941e-16)
(1.539112286 -0.5705581487 4.803389862e-16)
(1.153222763 -0.436922331 -1.98202668e-16)
(1.450436219 -0.4177066797 9.02279477e-17)
(1.095469291 -0.3043989516 1.749087919e-16)
(1.376304224 -0.3113760608 -3.233256477e-17)
(1.067672207 -0.2214702675 4.114644283e-16)
(1.314459302 -0.2334274522 -1.929479576e-16)
(1.053709036 -0.1673426519 5.112716498e-16)
(1.262989565 -0.1741131625 -2.126674699e-16)
(1.044941062 -0.1302685458 7.158918263e-17)
(1.219936407 -0.1276236856 -4.124499326e-17)
(1.036789559 -0.103415429 1.501707598e-16)
(1.183393272 -0.09020187637 -3.67911499e-16)
(1.026714271 -0.08263289746 6.682898027e-17)
(1.151779496 -0.05936725903 -1.502576599e-16)
(1.012984299 -0.06515742686 -1.816160711e-16)
(1.124073974 -0.03360115141 9.329755853e-17)
(0.9939602717 -0.04882933121 -9.021972692e-17)
(1.099943815 -0.01224126525 1.067018806e-16)
(0.9676899701 -0.03155518888 1.127641076e-16)
(1.079718386 0.004523551448 -2.876797336e-17)
(0.9320017068 -0.0110747543 2.04933581e-16)
(1.733120171 -0.7517916087 -4.029231066e-16)
(1.342256074 -0.6125947412 3.812440528e-16)
(1.600949396 -0.531626393 -4.646631398e-16)
(1.200544052 -0.407094364 3.036811558e-16)
(1.495698146 -0.3891753636 -1.79825387e-16)
(1.128430061 -0.2835937764 -4.976250242e-17)
(1.410049253 -0.2900766256 9.486440656e-17)
(1.09165716 -0.2063071482 -4.060197156e-16)
(1.339771305 -0.2174241703 2.416889586e-16)
(1.071847502 -0.1558613562 -3.892363881e-16)
(1.281892342 -0.1621330124 1.6899603e-16)
(1.059091829 -0.1213159059 -1.343003513e-16)
(1.233818292 -0.118787363 1.474603682e-16)
(1.048076662 -0.09631420177 -2.260584587e-16)
(1.193219795 -0.08387975616 2.673518498e-16)
(1.035823267 -0.07700196398 -4.964924954e-17)
(1.158214822 -0.05508548015 8.878398821e-17)
(1.020321886 -0.06081457622 1.24010541e-16)
(1.127571931 -0.0309764435 -1.315332531e-16)
(0.9997224523 -0.04572384934 1.195588099e-16)
(1.100860272 -0.01096358926 -2.131770351e-16)
(0.9718507482 -0.02968744261 4.504199621e-17)
(1.07846137 0.004648469035 -1.34412257e-16)
(0.9342687352 -0.01044702129 -6.39396929e-17)
(1.813898249 -0.6873187504 2.773917789e-16)
(1.408110167 -0.5600949328 -2.60594027e-16)
(1.658086477 -0.4860778665 2.294613047e-16)
(1.244309772 -0.3722415444 -1.962329622e-16)
(1.537523599 -0.3558736434 1.448357032e-16)
(1.158909043 -0.2593507969 -6.806760668e-17)
(1.441210128 -0.2652956345 -3.246714197e-17)
(1.113815178 -0.1887082355 2.757302702e-16)
(1.363103539 -0.1988918587 -2.490587064e-16)
(1.08856876 -0.1426025329 2.825240713e-16)
(1.29925509 -0.1483553203 -6.894944209e-17)
(1.072083074 -0.111030426 -1.941740978e-17)
(1.246488406 -0.108728489 2.350511754e-17)
(1.058359303 -0.08818037846 7.396200607e-17)
(1.202106011 -0.0767931615 -5.855422407e-17)
(1.043997413 -0.07053443375 -4.465973657e-17)
(1.164007133 -0.05040590742 6.301284341e-17)
(1.026685857 -0.05576632168 -9.984155402e-17)
(1.130877817 -0.02824042105 1.053911899e-16)
(1.004280571 -0.04204703727 -6.721238414e-17)
(1.102343699 -0.009764073563 1.55191391e-16)
(0.9742420735 -0.02749909871 7.190154646e-17)
(1.078896246 0.004669529532 6.249122503e-17)
(0.9337982588 -0.009972856393 1.603561601e-16)
(1.886942428 -0.6142163432 -1.322394115e-16)
(1.467574997 -0.5005063013 2.883131307e-16)
(1.709701437 -0.4343577984 -1.704335473e-16)
(1.283794382 -0.3326229156 1.766483722e-16)
(1.575291713 -0.3179831884 -1.253478253e-16)
(1.186400175 -0.2317270791 1.101598765e-16)
(1.469359474 -0.2370216265 2.623236695e-17)
(1.13380992 -0.1685845345 -1.544150888e-16)
(1.384210818 -0.1776611186 2.571037605e-16)
(1.103682691 -0.1273703778 -2.497898194e-16)
(1.315011492 -0.1324772798 1.484126763e-16)
(1.083876197 -0.0991513004 -5.93666733e-17)
(1.258052155 -0.09703992202 -2.236262863e-17)
(1.067789016 -0.07874405109 -4.261062493e-17)
(1.2102704 -0.06847203291 -1.493665356e-17)
(1.051675845 -0.06301773032 5.422893352e-17)
(1.169281773 -0.04485518209 -1.189631381e-16)
(1.033023954 -0.04989923508 8.205160194e-17)
(1.133545196 -0.02500824975 -9.912000124e-17)
(1.009530065 -0.03771833121 4.147566288e-17)
(1.102583777 -0.008501087337 -1.197002968e-16)
(0.9783986382 -0.02466565646 -5.930452337e-17)
(1.077052052 0.004241560976 -4.332449579e-17)
(0.9364310758 -0.008663898781 -1.462646588e-16)
(1.951347492 -0.533386177 -1.84042673e-17)
(1.520104462 -0.4346775238 -2.216728923e-16)
(1.755276314 -0.3772406521 -5.698826989e-18)
(1.318717701 -0.2889125723 -7.339083008e-17)
(1.608665324 -0.2762102839 -1.737854732e-18)
(1.210731474 -0.2013137098 -7.469060133e-17)
(1.494231643 -0.2059249312 6.208767125e-18)
(1.151508714 -0.1464972522 3.900115971e-17)
(1.402839764 -0.1543951301 -1.753801496e-16)
(1.117048252 -0.1107212693 1.09858063e-16)
(1.328875005 -0.1151737668 -5.704552071e-17)
(1.094266041 -0.08622569701 -7.017234689e-18)
(1.268161204 -0.08441003832 9.573023209e-17)
(1.076008216 -0.06850489828 -3.732888525e-17)
(1.217344878 -0.05959808564 6.988059977e-17)
(1.058181484 -0.05483623295 -3.867636431e-17)
(1.173885691 -0.03905939901 7.050604404e-17)
(1.038009619 -0.04342461426 -2.330742717e-17)
(1.136228958 -0.02175086139 2.466544178e-17)
(1.012915408 -0.03284709614 4.087226287e-17)
(1.104034037 -0.007286157633 -1.344778591e-17)
(0.9797849832 -0.02158987222 1.74416102e-16)
(1.078037912 0.00395498255 -9.007810193e-17)
(0.935317359 -0.007889388039 2.442917013e-16)
(2.006292333 -0.4458614241 6.723926991e-17)
(1.564809038 -0.3633422345 2.628241097e-16)
(1.794080319 -0.3153295792 5.203494961e-18)
(1.348384625 -0.2414952968 1.126478202e-16)
(1.637044898 -0.2308676938 1.282880889e-17)
(1.231372995 -0.1682646546 7.8004321e-17)
(1.515372356 -0.1721048151 5.313837345e-18)
(1.166507747 -0.1224333477 -4.056782504e-17)
(1.418681621 -0.1290172031 1.663356631e-16)
(1.128373541 -0.09251662816 -1.12011172e-16)
(1.340692315 -0.09621658932 1.263773989e-16)
(1.103097567 -0.07203182003 -7.273625266e-17)
(1.276827082 -0.07048759328 1.81357809e-18)
(1.083084867 -0.05721879649 -3.059899875e-17)
(1.223448543 -0.04974236898 -2.812854681e-17)
(1.064008047 -0.04580776754 2.918975642e-17)
(1.177769417 -0.03259086611 -4.858835473e-17)
(1.042983707 -0.03629315497 1.62161534e-17)
(1.137991406 -0.01818760439 -3.217097411e-17)
(1.017358115 -0.02743998426 -1.130380845e-17)
(1.103619432 -0.006254940359 -1.897567304e-17)
(0.9837524896 -0.01787008371 -9.496044188e-17)
(1.075650957 0.00287569146 4.450361766e-17)
(0.938135372 -0.006033065564 -1.320346017e-16)
(2.051094912 -0.3527279469 -8.230789942e-17)
(1.601379743 -0.2874828185 -2.090414189e-16)
(1.825807027 -0.2495046607 -5.612833501e-17)
(1.372713789 -0.1911142628 -8.164673646e-17)
(1.660291929 -0.1827118866 -1.745771019e-17)
(1.248335168 -0.1331979732 -8.853202267e-17)
(1.532707121 -0.1362415517 1.592271472e-18)
(1.178857506 -0.09695316041 -1.115417225e-17)
(1.431672567 -0.102168724 -6.975342059e-17)
(1.137709182 -0.0732948158 1.833593707e-17)
(1.350364549 -0.07623252582 -5.073869094e-17)
(1.110356207 -0.05709152761 6.228139421e-18)
(1.283880851 -0.0558898295 3.991103673e-17)
(1.088805381 -0.04536104946 -3.242956333e-17)
(1.228390479 -0.03949003659 6.629988026e-17)
(1.068457958 -0.03629467696 -3.989811578e-17)
(1.181031413 -0.02593606884 2.52092452e-17)
(1.046197758 -0.02868845768 1.299486022e-17)
(1.140070506 -0.01455823553 1.630837337e-18)
(1.019140105 -0.02158229475 4.80613552e-17)
(1.105179924 -0.005108339456 -3.145643398e-17)
(0.9838100164 -0.01399380739 1.147448998e-16)
(1.077234704 0.002224915843 -8.422886639e-17)
(0.9366510838 -0.004853575701 1.38916267e-16)
(2.08518473 -0.255169509 1.053185354e-16)
(1.629082952 -0.2079806252 1.678163274e-16)
(1.849855549 -0.1805104871 4.986574942e-17)
(1.391077072 -0.1382807681 9.169030842e-17)
(1.677862585 -0.1321971615 2.459881253e-17)
(1.261095169 -0.09638824345 6.389243462e-17)
(1.545783452 -0.09858098626 3.036597428e-17)
(1.188113149 -0.07016716398 -9.820507988e-18)
(1.441460961 -0.0739304575 8.143883849e-17)
(1.144682428 -0.05304764827 -4.788629662e-17)
(1.357659587 -0.05516593079 8.240453581e-17)
(1.115784335 -0.04131915732 -4.140427409e-17)
(1.289230248 -0.04045273424 1.158197544e-17)
(1.093163609 -0.03282483818 -4.859098245e-18)
(1.232160141 -0.02860556625 -1.504746383e-17)
(1.072102592 -0.02625360557 4.981965384e-18)
(1.183402645 -0.01884581218 -1.654252774e-17)
(1.049470964 -0.02072274667 -8.819577472e-18)
(1.140986377 -0.01071061258 -8.795106384e-18)
(1.022407375 -0.01551187121 -2.605036217e-17)
(1.10436504 -0.004027827384 1.922123624e-18)
(0.9872040416 -0.009888308241 -6.463229615e-17)
(1.074721511 0.001130790688 4.7160177e-17)
(0.9392705172 -0.00310119663 -1.031255066e-16)
(2.108138641 -0.1544035095 -1.002842878e-16)
(1.647859729 -0.1258925239 -1.148633375e-16)
(1.866140966 -0.1092763305 -8.264881658e-17)
(1.403589111 -0.08375169856 -6.41663779e-17)
(1.689812922 -0.08006863854 -3.4947213e-17)
(1.269832117 -0.05842081173 -5.698388261e-17)
(1.554704688 -0.05974182615 -1.357066302e-17)
(1.194485634 -0.04256297101 -2.866989513e-17)
(1.44815319 -0.04483305341 -2.34214149e-17)
(1.149506681 -0.03220501549 -1.01154051e-17)
(1.362645121 -0.03348232221 -1.827407343e-17)
(1.119529241 -0.02510036213 -8.386149945e-18)
(1.292867109 -0.02458452973 2.01317141e-17)
(1.09607457 -0.01993751114 -2.109172324e-17)
(1.234723002 -0.01743388397 3.231989227e-17)
(1.074245074 -0.01590782229 -1.273656822e-17)
(1.18517762 -0.01158431488 1.536368369e-17)
(1.05072285 -0.01244861894 7.190862304e-18)
(1.142386389 -0.006797224451 6.621796469e-18)
(1.022487797 -0.009094429315 2.320134279e-17)