/*--------------------------------*- C++ -*----------------------------------*\
| =========                 |                                                 |
| \\      /  F ield         | foam-extend: Open Source CFD                    |
|  \\    /   O peration     | Version:  3.0                                   |
|   \\  /    A nd           | Web:         http://www.extend-project.de       |
|    \\/     M anipulation  |                                                 |
\*---------------------------------------------------------------------------*/
FoamFile
{
    version     2.0;
    format      ascii;
    class       volSymmTensorField;
    location    "5.4";
    object      sigma;
}
// * * * * * * * * * * * * * * * * * * * * * * * * * * * * * * * * * * * * * //

dimensions      [0 0 0 0 0 0 0];

internalField   nonuniform List<symmTensor> 
400
(
(0.198354 0.0112753 1.16709e-316 -0.268252 1.46119e-316 0.0698985)
(0.372433 -0.0641671 1.22412e-316 -0.248989 1.64722e-316 -0.123444)
(0.450827 -0.15659 1.18936e-316 -0.234988 1.60294e-316 -0.215839)
(0.446119 -0.217924 1.13221e-316 -0.202809 1.47754e-316 -0.243311)
(0.416624 -0.281436 1.0464e-316 -0.177415 1.31013e-316 -0.239209)
(0.358357 -0.326675 9.64594e-317 -0.14483 1.16018e-316 -0.213527)
(0.293769 -0.36519 8.78621e-317 -0.116028 1.00244e-316 -0.177741)
(0.218004 -0.39349 8.01165e-317 -0.0839474 8.82329e-317 -0.134057)
(0.140605 -0.412828 7.28029e-317 -0.0538213 7.57351e-317 -0.0867835)
(0.05666 -0.424252 6.62822e-317 -0.0209619 6.70815e-317 -0.035698)
(-0.0282992 -0.426406 6.04202e-317 0.0115353 5.76167e-317 0.0167639)
(-0.117209 -0.420395 5.51727e-317 0.0464338 5.16364e-317 0.0707751)
(-0.205664 -0.40481 5.06251e-317 0.0820662 4.45041e-317 0.123598)
(-0.29212 -0.380406 4.63635e-317 0.118468 4.04313e-317 0.173652)
(-0.37067 -0.344799 4.29411e-317 0.154587 3.51035e-317 0.216082)
(-0.434871 -0.302026 3.92385e-317 0.188875 3.23788e-317 0.245996)
(-0.469154 -0.241226 3.67985e-317 0.216856 2.87679e-317 0.252299)
(-0.466439 -0.181512 3.331e-317 0.242745 2.71882e-317 0.223694)
(-0.379549 -0.0901654 3.15325e-317 0.249441 2.55289e-317 0.130108)
(-0.195644 -0.0129203 2.70975e-317 0.256583 2.46585e-317 -0.0609392)
(0.133771 0.0202752 4.23672e-317 -0.317711 8.22446e-317 0.18394)
(0.288711 -0.0119687 5.44305e-317 -0.335891 1.20841e-316 0.0471798)
(0.348464 -0.0581257 6.05927e-317 -0.317011 1.29893e-316 -0.0314525)
(0.362559 -0.0946062 6.35182e-317 -0.292321 1.25599e-316 -0.0702381)
(0.339336 -0.133169 6.37459e-317 -0.254359 1.14427e-316 -0.0849765)
(0.297342 -0.163489 6.2695e-317 -0.213435 1.02627e-316 -0.0839075)
(0.244323 -0.18967 6.05283e-317 -0.170244 8.95036e-317 -0.0740789)
(0.182198 -0.207939 5.79112e-317 -0.124143 7.88291e-317 -0.0580552)
(0.117748 -0.219983 5.49293e-317 -0.0786893 6.78483e-317 -0.0390584)
(0.0474697 -0.22369 5.18661e-317 -0.0299757 5.9773e-317 -0.0174939)
(-0.0229672 -0.221425 4.8813e-317 0.0183644 5.13237e-317 0.00460282)
(-0.0968396 -0.211041 4.58417e-317 0.0696539 4.55956e-317 0.0271858)
(-0.169337 -0.196364 4.31e-317 0.121305 3.92516e-317 0.0480321)
(-0.239453 -0.175627 4.04435e-317 0.173165 3.53198e-317 0.0662879)
(-0.303215 -0.152589 3.82419e-317 0.224838 3.06337e-317 0.0783763)
(-0.350184 -0.128416 3.59665e-317 0.268922 2.79941e-317 0.0812622)
(-0.378217 -0.101171 3.45119e-317 0.310159 2.47635e-317 0.0680582)
(-0.358901 -0.0809857 3.27145e-317 0.327904 2.32183e-317 0.0309975)
(-0.29395 -0.0501327 3.21575e-317 0.3378 2.23005e-317 -0.0438494)
(-0.131131 -0.0367626 3.07681e-317 0.303142 2.44432e-317 -0.172011)
(0.12506 0.0636871 -3.04076e-318 -0.359613 3.8852e-317 0.234553)
(0.255805 0.0519136 1.11909e-317 -0.368788 8.35976e-317 0.112983)
(0.302363 0.0348847 2.25673e-317 -0.343093 9.94086e-317 0.0407307)
(0.310931 0.0103606 3.09332e-317 -0.311204 1.008e-316 0.000272994)
(0.289321 -0.014439 3.6399e-317 -0.268497 9.46988e-317 -0.0208247)
(0.253968 -0.0392808 3.98369e-317 -0.224929 8.64202e-317 -0.0290393)
(0.211095 -0.0589714 4.14892e-317 -0.181116 7.66512e-317 -0.0299784)
(0.160861 -0.0736291 4.20341e-317 -0.135143 6.79725e-317 -0.0257178)
(0.110195 -0.0807537 4.16875e-317 -0.0910969 5.91913e-317 -0.0190983)
(0.0531402 -0.0800107 4.08141e-317 -0.0426728 5.2145e-317 -0.0104674)
(-0.00374517 -0.0728588 3.95862e-317 0.00550469 4.51311e-317 -0.00175952)
(-0.0660627 -0.0576308 3.81434e-317 0.0589863 3.97947e-317 0.00707644)
(-0.129046 -0.0405245 3.66335e-317 0.115041 3.43421e-317 0.0140047)
(-0.192173 -0.0183304 3.49757e-317 0.173593 3.03347e-317 0.0185799)
(-0.25426 -0.00149124 3.33693e-317 0.236476 2.60728e-317 0.0177841)
(-0.300932 0.0141287 3.13751e-317 0.291351 2.29414e-317 0.00958121)
(-0.337006 0.0177607 2.93253e-317 0.348413 1.95891e-317 -0.0114073)
(-0.32446 0.0129285 2.63365e-317 0.375243 1.69957e-317 -0.0507827)
(-0.274918 -0.00299342 2.27686e-317 0.393948 1.48458e-317 -0.11903)
(-0.125371 -0.0285955 1.85543e-317 0.355208 1.41931e-317 -0.229838)
(0.0959795 0.0957246 -4.23253e-317 -0.347798 5.41081e-319 0.251819)
(0.201167 0.100196 -2.65761e-317 -0.341969 4.81976e-317 0.140802)
(0.235933 0.0989708 -1.09927e-317 -0.307418 6.85896e-317 0.071485)
(0.240757 0.0784641 1.6508e-318 -0.271084 7.49395e-317 0.0303271)
(0.222794 0.0608213 1.16056e-317 -0.229517 7.34765e-317 0.0067224)
(0.195149 0.0373799 1.88551e-317 -0.189876 6.89703e-317 -0.00527344)
(0.164871 0.0212437 2.39443e-317 -0.154215 6.24548e-317 -0.0106564)
(0.128928 0.0093508 2.72928e-317 -0.1175 5.61614e-317 -0.0114282)
(0.0955425 0.00564963 2.93101e-317 -0.0853983 4.94835e-317 -0.0101442)
(0.0555746 0.0116051 3.0338e-317 -0.0483403 4.38866e-317 -0.00723434)
(0.0174222 0.023244 3.06409e-317 -0.0129769 3.82707e-317 -0.00444535)
(-0.0287592 0.0457951 3.04121e-317 0.030593 3.38843e-317 -0.00183384)
(-0.0753727 0.0671859 2.98144e-317 0.0766023 2.95261e-317 -0.00122965)
(-0.127999 0.0964215 2.88949e-317 0.131142 2.63971e-317 -0.0031431)
(-0.181328 0.112368 2.77563e-317 0.191648 2.33755e-317 -0.0103202)
(-0.227845 0.128451 2.62761e-317 0.252641 2.16341e-317 -0.0247962)
(-0.267749 0.116041 2.45067e-317 0.319317 2.02635e-317 -0.0515679)
(-0.26593 0.0929818 2.21639e-317 0.361937 2.02023e-317 -0.0960069)
(-0.23277 0.0354664 1.92146e-317 0.400039 2.02937e-317 -0.167269)
(-0.102768 -0.0403829 1.54609e-317 0.377963 1.91714e-317 -0.275195)
(0.100168 0.154946 -4.81867e-317 -0.392501 -1.60305e-317 0.292333)
(0.184344 0.159512 -3.57882e-317 -0.34998 2.38328e-317 0.165636)
(0.209641 0.162498 -2.16065e-317 -0.29967 4.37965e-317 0.0900285)
(0.202339 0.136066 -9.2291e-318 -0.248049 5.23839e-317 0.0457101)
(0.1877 0.117069 9.83033e-319 -0.207577 5.41555e-317 0.0198766)
(0.162312 0.0886259 8.88402e-318 -0.168091 5.26066e-317 0.00577867)
(0.14364 0.0710762 1.47401e-317 -0.141805 4.8998e-317 -0.00183445)
(0.117886 0.0569964 1.89544e-317 -0.112846 4.48725e-317 -0.00504001)
(0.0997031 0.0541181 2.18464e-317 -0.093281 4.02595e-317 -0.00642215)
(0.0725889 0.0612193 2.37561e-317 -0.0662114 3.60227e-317 -0.00637758)
(0.049378 0.0768027 2.49383e-317 -0.0426624 3.17689e-317 -0.00671563)
(0.0139115 0.104384 2.56071e-317 -0.00647343 2.81398e-317 -0.00743807)
(-0.0226205 0.132569 2.59609e-317 0.0331485 2.46309e-317 -0.0105279)
(-0.0724131 0.170654 2.60945e-317 0.0888967 2.18272e-317 -0.0164837)
(-0.126303 0.193168 2.62041e-317 0.154734 1.92654e-317 -0.0284316)
(-0.183816 0.219081 2.62346e-317 0.232529 1.75327e-317 -0.0487133)
(-0.238894 0.204309 2.64407e-317 0.32237 1.63402e-317 -0.0834757)
(-0.261573 0.18324 2.65356e-317 0.401384 1.62747e-317 -0.139811)
(-0.24854 0.101467 2.6771e-317 0.479701 1.73682e-317 -0.23116)
(-0.125969 0.00679001 2.6211e-317 0.502355 2.07632e-317 -0.376386)
(0.0875893 0.24323 -5.29438e-317 -0.40649 -2.64444e-317 0.318901)
(0.143544 0.225437 -4.29003e-317 -0.323736 6.59169e-318 0.180193)
(0.160679 0.210863 -2.99693e-317 -0.259762 2.48503e-317 0.0990827)
(0.142969 0.168953 -1.80549e-317 -0.195304 3.43683e-317 0.0523353)
(0.133144 0.138414 -7.64461e-318 -0.15859 3.81494e-317 0.0254463)
(0.112138 0.102256 6.85748e-319 -0.122715 3.87896e-317 0.0105774)
(0.10571 0.0788288 7.18689e-318 -0.107998 3.73186e-317 0.00228758)
(0.0923965 0.0627852 1.20393e-317 -0.0905786 3.49816e-317 -0.00181791)
(0.0907441 0.0588046 1.55631e-317 -0.0865621 3.19487e-317 -0.00418193)
(0.079727 0.069015 1.80218e-317 -0.0743236 2.89219e-317 -0.00540337)
(0.0752762 0.0886427 1.96638e-317 -0.0681527 2.5724e-317 -0.00712356)
(0.0553848 0.125357 2.0691e-317 -0.0457858 2.28557e-317 -0.00959895)
(0.0366777 0.163522 2.1278e-317 -0.0219557 2.0032e-317 -0.014722)
(-0.00438814 0.217659 2.15631e-317 0.0278203 1.7707e-317 -0.0234322)
(-0.0471678 0.254728 2.16708e-317 0.0862522 1.5631e-317 -0.0390844)
(-0.111817 0.300951 2.17053e-317 0.176887 1.43129e-317 -0.0650694)
(-0.169863 0.297834 2.1742e-317 0.278791 1.36678e-317 -0.108928)
(-0.221395 0.290275 2.18139e-317 0.402219 1.43309e-317 -0.180824)
(-0.22446 0.20307 2.18433e-317 0.523668 1.63257e-317 -0.299208)
(-0.130111 0.0969687 2.12172e-317 0.62099 1.97155e-317 -0.490879)
(0.0845754 0.347555 -3.87407e-317 -0.413708 -2.40976e-317 0.329133)
(0.117617 0.297173 -3.32004e-317 -0.299083 -2.14028e-318 0.181466)
(0.130022 0.253935 -2.43775e-317 -0.228502 1.22155e-317 0.0984801)
(0.102918 0.193022 -1.54782e-317 -0.154882 2.09874e-317 0.0519636)
(0.0996901 0.145707 -7.38081e-318 -0.125444 2.5569e-317 0.0257539)
(0.0816297 0.0994186 -5.457e-319 -0.0930298 2.74919e-317 0.0114001)
(0.0869387 0.0671714 4.95017e-318 -0.0902753 2.75385e-317 0.00333659)
(0.083162 0.0452357 9.24642e-318 -0.0823294 2.65507e-317 -0.000832544)
(0.0960447 0.03753 1.24939e-317 -0.0925092 2.48057e-317 -0.00353551)
(0.0977576 0.0449189 1.49006e-317 -0.0924605 2.27745e-317 -0.00529708)
(0.109127 0.0661766 1.66499e-317 -0.101292 2.04797e-317 -0.00783498)
(0.101521 0.104932 1.79179e-317 -0.0901707 1.82256e-317 -0.0113505)
(0.0964826 0.152582 1.88839e-317 -0.0784898 1.59359e-317 -0.0179928)
(0.0607756 0.217479 1.96853e-317 -0.0319895 1.38671e-317 -0.0287861)
(0.0224635 0.274602 2.05351e-317 0.0253182 1.19615e-317 -0.0477817)
(-0.0539003 0.344413 2.15123e-317 0.132986 1.05444e-317 -0.079086)
(-0.125558 0.370853 2.29192e-317 0.257915 9.76273e-318 -0.132357)
(-0.211918 0.400264 2.46537e-317 0.432941 1.02833e-317 -0.221023)
(-0.240633 0.343398 2.70011e-317 0.611653 1.30269e-317 -0.371019)
(-0.16348 0.280936 2.89716e-317 0.787472 2.03774e-317 -0.623992)
(0.0633795 0.457037 -3.22521e-317 -0.361804 -2.16781e-317 0.298424)
(0.0732239 0.363176 -2.86783e-317 -0.234988 -6.46366e-318 0.161764)
(0.0797608 0.281513 -2.19941e-317 -0.166065 4.52499e-318 0.0863044)
(0.0486819 0.199374 -1.48184e-317 -0.0935227 1.21114e-317 0.0448407)
(0.0498501 0.130946 -7.91376e-318 -0.0718911 1.6722e-317 0.0220411)
(0.0368486 0.0753544 -1.94937e-318 -0.0466349 1.92269e-317 0.00978636)
(0.0505715 0.0320578 3.01333e-318 -0.0536448 2.01148e-317 0.00307333)
(0.0569503 0.00578232 6.94169e-318 -0.0565622 1.99783e-317 -0.000388008)
(0.0815936 -0.00708536 9.96302e-318 -0.0789334 1.90624e-317 -0.00266015)
(0.0971207 -0.000205033 1.22032e-317 -0.0927699 1.77265e-317 -0.00435083)
(0.12393 0.0222016 1.38089e-317 -0.117004 1.60372e-317 -0.00692563)
(0.131914 0.0670791 1.4913e-317 -0.121092 1.42241e-317 -0.0108227)
(0.145189 0.125911 1.56411e-317 -0.12715 1.22691e-317 -0.0180389)
(0.121685 0.208758 1.61134e-317 -0.0916203 1.03605e-317 -0.0300644)
(0.100514 0.291997 1.6445e-317 -0.0494147 8.4949e-318 -0.0510995)
(0.0219754 0.396125 1.67785e-317 0.0643849 6.94531e-318 -0.0863603)
(-0.042415 0.464525 1.72404e-317 0.189259 5.92326e-318 -0.146844)
(-0.158169 0.54132 1.79963e-317 0.407437 6.14257e-318 -0.249267)
(-0.196478 0.530027 1.91829e-317 0.621304 8.59769e-318 -0.424826)
(-0.159303 0.507045 2.04712e-317 0.882559 1.51269e-317 -0.723256)
(0.0425771 0.542855 -1.68827e-317 -0.275034 -1.44032e-317 0.232457)
(0.0332999 0.415733 -1.62921e-317 -0.155248 -7.0762e-318 0.121948)
(0.037575 0.299057 -1.30123e-317 -0.100558 2.0772e-319 0.0629835)
(0.00685567 0.200189 -8.65842e-318 -0.0383385 6.10928e-318 0.0314828)
(0.0141844 0.1118 -4.15455e-318 -0.0288535 1.0261e-317 0.0146691)
(0.00640178 0.0467403 5.9446e-320 -0.0123353 1.29053e-317 0.00593355)
(0.0279417 -0.00820643 3.6883e-318 -0.0292419 1.42788e-317 0.00130017)
(0.0423718 -0.0423239 6.69505e-318 -0.0414258 1.4723e-317 -0.000946049)
(0.0772021 -0.06254 9.06852e-318 -0.0746752 1.44312e-317 -0.00252687)
(0.10387 -0.0629495 1.08827e-317 -0.100058 1.36506e-317 -0.00381126)
(0.144281 -0.0430846 1.22175e-317 -0.138053 1.24728e-317 -0.0062284)
(0.165762 -0.00261535 1.31651e-317 -0.155682 1.10576e-317 -0.0100801)
(0.194956 0.0634444 1.38338e-317 -0.177436 9.42727e-318 -0.0175206)
(0.182862 0.15108 1.43081e-317 -0.152889 7.69866e-318 -0.029973)
(0.173724 0.26061 1.47461e-317 -0.121633 5.89309e-318 -0.0520919)
(0.093079 0.389826 1.52036e-317 -0.00371581 4.18508e-318 -0.0893632)
(0.0233717 0.513801 1.59723e-317 0.130834 2.8041e-318 -0.154205)
(-0.122759 0.650493 1.70445e-317 0.388156 2.37735e-318 -0.265397)
(-0.191551 0.723509 1.89126e-317 0.651563 4.30635e-318 -0.460012)
(-0.186061 0.804324 2.13497e-317 0.98753 1.17636e-317 -0.80147)
(0.0103981 0.602203 -1.19779e-317 -0.140974 -1.02538e-317 0.130576)
(-0.0143704 0.443163 -1.17832e-317 -0.0504308 -6.36215e-318 0.0648012)
(-0.0182577 0.296138 -9.47364e-318 -0.0128448 -1.63609e-318 0.0311025)
(-0.0433404 0.185321 -6.1665e-318 0.029463 2.77558e-318 0.0138774)
(-0.0354045 0.0795979 -2.52688e-318 0.0301636 6.24537e-318 0.00524089)
(-0.0364359 0.00843226 8.75885e-319 0.0353004 8.70576e-318 0.00113554)
(-0.0123704 -0.0576713 3.87187e-318 0.0131164 1.02017e-317 -0.000746077)
(0.00957997 -0.0973649 6.33098e-318 -0.00818848 1.09087e-317 -0.00139149)
(0.049174 -0.125378 8.2647e-318 -0.0473018 1.09548e-317 -0.0018722)
(0.0859644 -0.130662 9.69879e-318 -0.0835144 1.0509e-317 -0.00244998)
(0.13503 -0.114062 1.06866e-317 -0.13083 9.65265e-318 -0.00420017)
(0.170744 -0.0739736 1.12783e-317 -0.16319 8.50055e-318 -0.00755357)
(0.214393 -0.000846105 1.15215e-317 -0.200036 7.0814e-318 -0.0143563)
(0.219645 0.0992704 1.1458e-317 -0.193356 5.47243e-318 -0.0262886)
(0.23095 0.237263 1.11182e-317 -0.183271 3.69507e-318 -0.0476792)
(0.162618 0.404261 1.05586e-317 -0.0781573 1.86872e-318 -0.0844609)
(0.113944 0.589658 9.82e-318 0.0350126 1.83906e-319 -0.148956)
(-0.0431526 0.796953 9.09678e-318 0.304267 -8.64047e-319 -0.261114)
(-0.105731 0.956475 8.60298e-318 0.564661 -1.55245e-319 -0.45893)
(-0.147755 1.11445 9.06773e-318 0.952683 4.30476e-318 -0.804928)
(-0.0241567 0.614975 -2.3563e-318 0.016531 -4.89639e-318 0.00762569)
(-0.0611261 0.448354 -3.37931e-318 0.063913 -5.0901e-318 -0.00278684)
(-0.0673811 0.285558 -2.82713e-318 0.0731706 -2.67524e-318 -0.00578955)
(-0.0839121 0.168797 -1.11312e-318 0.0900459 3.52753e-319 -0.00613387)
(-0.0735477 0.0514641 9.91827e-319 0.0789728 3.1939e-318 -0.0054251)
(-0.0678858 -0.0259737 3.1731e-318 0.072258 5.45445e-318 -0.00437219)
(-0.0415095 -0.10138 5.14442e-318 0.0448322 7.022e-318 -0.00332267)
(-0.0136732 -0.148821 6.82703e-318 0.0159138 7.92963e-318 -0.00224054)
(0.0300276 -0.185093 8.15832e-318 -0.0284133 8.24667e-318 -0.00161433)
(0.0745988 -0.200101 9.1411e-318 -0.0732429 8.08705e-318 -0.00135593)
(0.131974 -0.190078 9.78583e-318 -0.129578 7.52578e-318 -0.00239625)
(0.179953 -0.160663 1.011e-317 -0.175 6.65187e-318 -0.00495262)
(0.238179 -0.0871322 1.01432e-317 -0.227329 5.50152e-318 -0.0108496)
(0.260601 0.00676608 9.88739e-318 -0.239146 4.12899e-318 -0.0214552)
(0.29055 0.165493 9.3925e-318 -0.249536 2.55136e-318 -0.0410146)
(0.236187 0.344294 8.61481e-318 -0.161363 8.25519e-319 -0.0748243)
(0.1953 0.591852 7.68262e-318 -0.0603949 -9.21156e-319 -0.134905)
(0.0247905 0.854753 6.57623e-318 0.215565 -2.43584e-318 -0.240356)
(-0.0706358 1.12998 5.66444e-318 0.501108 -2.75609e-318 -0.430472)
(-0.165023 1.42258 5.83994e-318 0.942512 2.93475e-320 -0.777489)
(-0.0557339 0.587579 -2.59584e-318 0.177163 -2.85853e-318 -0.121429)
(-0.105104 0.418323 -2.40984e-318 0.177496 -3.81935e-318 -0.0723911)
(-0.124403 0.251171 -1.18409e-318 0.167223 -2.75663e-318 -0.0428196)
(-0.130389 0.137379 5.72306e-319 0.156045 -7.32151e-319 -0.0256553)
(-0.122775 0.0147078 2.51602e-318 0.138294 1.53234e-318 -0.0155191)
(-0.109328 -0.0641372 4.27196e-318 0.118723 3.50989e-318 -0.00939448)
(-0.0844007 -0.146305 5.80929e-318 0.0898794 4.98988e-318 -0.00547869)
(-0.0516003 -0.198638 7.04197e-318 0.0543317 5.92413e-318 -0.00273141)
(-0.00942171 -0.242105 7.97644e-318 0.0103464 6.34458e-318 -0.000924734)
(0.0402409 -0.264271 8.60279e-318 -0.0404681 6.32933e-318 0.000227164)
(0.0975269 -0.26087 8.92269e-318 -0.097692 5.94085e-318 0.000165182)
(0.155226 -0.238374 8.92689e-318 -0.153872 5.25013e-318 -0.00135452)
(0.218759 -0.165721 8.5989e-318 -0.213032 4.29389e-318 -0.00572723)
(0.260617 -0.0701605 7.9054e-318 -0.24631 3.11348e-318 -0.0143071)
(0.306507 0.107491 6.78477e-318 -0.276036 1.73273e-318 -0.0304715)
(0.281542 0.314692 5.18985e-318 -0.222529 1.84069e-319 -0.0590134)
(0.270139 0.62309 2.97752e-318 -0.160315 -1.44741e-318 -0.109824)
(0.122422 0.962637 2.87788e-319 0.0773584 -3.08086e-318 -0.19978)
(0.0568235 1.34431 -2.98628e-318 0.305152 -4.3247e-318 -0.361976)
(-0.0742682 1.73464 -5.27592e-318 0.726161 -5.04838e-318 -0.651893)
(-0.0960275 0.528312 9.88378e-319 0.34412 -1.54035e-318 -0.248093)
(-0.146763 0.375193 1.48173e-318 0.283911 -4.36865e-318 -0.137149)
(-0.169228 0.216814 2.58308e-318 0.245301 -4.10207e-318 -0.0760735)
(-0.163921 0.104987 3.82268e-318 0.206648 -2.47528e-318 -0.0427274)
(-0.157563 -0.0169632 4.97512e-318 0.181759 -3.17872e-319 -0.0241959)
(-0.137414 -0.0982243 5.98142e-318 0.151114 1.67101e-318 -0.0136995)
(-0.114009 -0.18321 6.81875e-318 0.121411 3.22055e-318 -0.007402)
(-0.0777074 -0.239831 7.49182e-318 0.0809689 4.26103e-318 -0.00326152)
(-0.0369665 -0.288376 7.97713e-318 0.0374674 4.81713e-318 -0.000500918)
(0.0155218 -0.318177 8.25956e-318 -0.016998 4.96351e-318 0.00147617)
(0.0737861 -0.322732 8.31426e-318 -0.0760626 4.76726e-318 0.00227644)
(0.13862 -0.313043 8.1159e-318 -0.140499 4.29641e-318 0.00187848)
(0.210663 -0.24864 7.64064e-318 -0.209705 3.59676e-318 -0.00095757)
(0.270479 -0.169786 6.84081e-318 -0.263369 2.71044e-318 -0.00711007)
(0.336954 0.0113797 5.68841e-318 -0.317577 1.66987e-318 -0.0193774)
(0.34094 0.206665 4.08868e-318 -0.299876 4.92173e-319 -0.0410633)
(0.352676 0.55739 2.00521e-318 -0.272879 -7.78672e-319 -0.0797975)
(0.215081 0.914908 -6.07058e-319 -0.0670658 -2.23743e-318 -0.148015)
(0.121922 1.40731 -3.75462e-318 0.151871 -3.84583e-318 -0.273794)
(-0.092453 1.91132 -6.23383e-318 0.610692 -6.01593e-318 -0.518239)
(-0.114498 0.419638 -1.5031e-318 0.461824 -1.01974e-318 -0.347326)
(-0.182961 0.294708 1.00154e-318 0.370987 -3.83997e-318 -0.188026)
(-0.218667 0.159459 3.67586e-318 0.319933 -3.99754e-318 -0.101266)
(-0.203397 0.0624046 5.22881e-318 0.258485 -2.59725e-318 -0.0550889)
(-0.197781 -0.0516848 6.32345e-318 0.227983 -6.49736e-319 -0.0302023)
(-0.169637 -0.129637 6.95435e-318 0.186168 1.15692e-318 -0.0165314)
(-0.147775 -0.213692 7.40808e-318 0.156309 2.54805e-318 -0.00853335)
(-0.108992 -0.271442 7.70485e-318 0.1124 3.47752e-318 -0.00340833)
(-0.0739014 -0.322427 7.87496e-318 0.0737852 3.9786e-318 0.000116219)
(-0.0223527 -0.357318 7.89435e-318 0.0195787 4.12378e-318 0.00277399)
(0.0272255 -0.368431 7.73069e-318 -0.0316779 3.97657e-318 0.0044524)
(0.0936065 -0.368479 7.34145e-318 -0.0987541 3.59882e-318 0.00514763)
(0.158292 -0.313233 6.67624e-318 -0.162337 3.03637e-318 0.00404489)
(0.232485 -0.244403 5.678e-318 -0.23293 2.33079e-318 0.000444802)
(0.300764 -0.0638338 4.25295e-318 -0.293435 1.52867e-318 -0.00732886)
(0.344674 0.139048 2.34392e-318 -0.323289 6.5732e-319 -0.0213857)
(0.379042 0.525924 -2.67685e-319 -0.333463 -2.38135e-319 -0.0455795)
(0.307349 0.945559 -3.44722e-318 -0.220782 -1.28416e-318 -0.0865677)
(0.264363 1.53811 -7.58622e-318 -0.106929 -2.87503e-318 -0.157434)
(0.0674317 2.15316 -1.14067e-317 0.211133 -6.60307e-318 -0.278564)
(-0.153766 0.328812 2.24283e-318 0.580688 -4.30145e-318 -0.426923)
(-0.203474 0.218426 4.53313e-318 0.425109 -8.32987e-318 -0.221636)
(-0.243491 0.103569 6.79926e-318 0.359514 -7.54506e-318 -0.116023)
(-0.217654 0.00944391 7.61786e-318 0.279346 -5.06038e-318 -0.0616919)
(-0.214773 -0.0943374 7.86663e-318 0.247955 -2.47188e-318 -0.0331811)
(-0.181307 -0.16921 7.83624e-318 0.199179 -3.01607e-319 -0.0178722)
(-0.162218 -0.24751 7.74807e-318 0.171276 1.27051e-318 -0.0090581)
(-0.122729 -0.302493 7.66031e-318 0.12618 2.32274e-318 -0.00345091)
(-0.0929132 -0.351952 7.54749e-318 0.0924381 2.93779e-318 0.000475119)
(-0.0443436 -0.388122 7.36957e-318 0.0407501 3.2187e-318 0.0035935)
(-0.00109566 -0.404773 7.07214e-318 -0.00479512 3.24089e-318 0.00589079)
(0.0638405 -0.414289 6.60548e-318 -0.071361 3.07006e-318 0.00752049)
(0.127306 -0.373762 5.92522e-318 -0.13515 2.75632e-318 0.00784334)
(0.211793 -0.326346 4.98415e-318 -0.21839 2.34486e-318 0.00659732)
(0.294772 -0.16558 3.7484e-318 -0.297583 1.88247e-318 0.00281083)
(0.371399 0.00151807 2.17126e-318 -0.367459 1.39932e-318 -0.00393943)
(0.441367 0.385042 2.1604e-319 -0.42715 9.16141e-319 -0.0142168)
(0.400219 0.757773 -2.10541e-318 -0.372623 2.75367e-319 -0.0275966)
(0.352625 1.40678 -4.89457e-318 -0.307126 -1.05747e-318 -0.0454996)
(0.0237834 2.03023 -7.70322e-318 0.0659004 -4.5245e-318 -0.0896838)
(-0.153317 0.165799 6.71487e-318 0.605169 6.06525e-319 -0.451852)
(-0.232398 0.109359 8.59062e-318 0.46302 -4.70139e-318 -0.230623)
(-0.271893 0.0402661 1.01552e-317 0.390043 -4.66732e-318 -0.118149)
(-0.238983 -0.0338466 9.85113e-318 0.300703 -2.58893e-318 -0.0617197)
(-0.22884 -0.117291 9.21898e-318 0.261618 -5.65769e-319 -0.0327778)
(-0.188053 -0.184112 8.51053e-318 0.205558 1.03427e-318 -0.0175052)
(-0.168869 -0.251554 7.96295e-318 0.177646 2.09937e-318 -0.00877674)
(-0.129694 -0.301471 7.55289e-318 0.13291 2.74334e-318 -0.00321529)
(-0.107914 -0.345589 7.21989e-318 0.107122 3.05487e-318 0.000792149)
(-0.0660327 -0.380623 6.89161e-318 0.0619332 3.12119e-318 0.00409953)
(-0.0375947 -0.399509 6.49487e-318 0.0307735 3.00479e-318 0.00682115)
(0.0192262 -0.414927 5.96832e-318 -0.0283434 2.75656e-318 0.00911722)
(0.0634705 -0.387359 5.25396e-318 -0.074112 2.41992e-318 0.0106415)
(0.149555 -0.354845 4.306e-318 -0.160844 2.03457e-318 0.0112888)
(0.213998 -0.216789 3.05924e-318 -0.224945 1.65218e-318 0.0109466)
(0.326121 -0.065554 1.51882e-318 -0.336359 1.31927e-318 0.0102377)
(0.390221 0.305703 -4.44802e-319 -0.40243 1.07297e-318 0.0122088)
(0.457365 0.705342 -2.63675e-318 -0.481661 8.37229e-319 0.0242956)
(0.450192 1.41 -5.32994e-318 -0.517274 -1.34979e-320 0.0670822)
(0.273217 2.17467 -8.19667e-318 -0.466662 -3.0671e-318 0.193445)
(-0.178685 0.0909022 1.49039e-317 0.623424 -9.174e-318 -0.444739)
(-0.204833 0.0135649 1.35722e-317 0.420646 -1.35359e-317 -0.215813)
(-0.251222 -0.0474664 1.2249e-317 0.358934 -1.07154e-317 -0.107712)
(-0.210972 -0.118881 1.04762e-317 0.266448 -6.46387e-318 -0.0554752)
(-0.204822 -0.190471 8.92407e-318 0.234097 -3.43156e-318 -0.0292756)
(-0.163956 -0.245437 7.80047e-318 0.1796 -1.27522e-318 -0.0156448)
(-0.14826 -0.300584 7.01669e-318 0.156125 1.07598e-319 -0.00786562)
(-0.112838 -0.339605 6.49807e-318 0.115694 1.01015e-318 -0.00285566)
(-0.0976469 -0.375847 6.10925e-318 0.0967955 1.57348e-318 0.000851331)
(-0.0636698 -0.405363 5.76484e-318 0.0596264 1.9109e-318 0.00404333)
(-0.0448216 -0.425024 5.38488e-318 0.0379874 2.0891e-318 0.00683425)
(0.00198731 -0.44421 4.91396e-318 -0.011434 2.15762e-318 0.00944667)
(0.0370022 -0.432163 4.30997e-318 -0.0486396 2.15309e-318 0.0116374)
(0.117516 -0.419692 3.54834e-318 -0.131043 2.10637e-318 0.0135269)
(0.183919 -0.320166 2.62791e-318 -0.199286 2.04866e-318 0.0153668)
(0.308455 -0.219134 1.57914e-318 -0.327093 2.0077e-318 0.0186384)
(0.408603 0.0901473 4.68829e-319 -0.43697 1.97831e-318 0.0283675)
(0.497451 0.373321 -6.19109e-319 -0.554723 1.87836e-318 0.0572718)
(0.540939 1.02414 -1.55745e-318 -0.678772 1.21769e-318 0.137832)
(0.151531 1.56789 -2.7867e-318 -0.470808 -9.13315e-319 0.319277)
(-0.155577 -0.0946221 2.78629e-317 0.521859 1.1495e-317 -0.366282)
(-0.225783 -0.0956778 2.23815e-317 0.400146 2.09346e-318 -0.174363)
(-0.238666 -0.0841719 1.65863e-317 0.32424 8.50317e-319 -0.0855732)
(-0.19499 -0.134981 1.24284e-317 0.238731 1.83698e-318 -0.0437419)
(-0.174525 -0.168613 9.49867e-318 0.197619 2.66138e-318 -0.0230945)
(-0.128346 -0.212374 7.72548e-318 0.14079 3.15504e-318 -0.0124439)
(-0.114057 -0.244972 6.60308e-318 0.120381 3.34919e-318 -0.00632418)
(-0.0817777 -0.274195 5.91494e-318 0.0840883 3.34197e-318 -0.00231051)
(-0.0764193 -0.296729 5.43783e-318 0.0756605 3.20087e-318 0.000758822)
(-0.0521221 -0.317163 5.05729e-318 0.0486182 2.97035e-318 0.00350395)
(-0.0500362 -0.331111 4.67936e-318 0.0440079 2.68288e-318 0.00602832)
(-0.0175799 -0.34343 4.24388e-318 0.00904761 2.36234e-318 0.00853227)
(-0.00819135 -0.338762 3.70231e-318 -0.00270081 2.03359e-318 0.0108922)
(0.0588865 -0.327447 3.02731e-318 -0.0721438 1.72091e-318 0.0132573)
(0.0880289 -0.261945 2.18953e-318 -0.104141 1.45952e-318 0.0161123)
(0.226286 -0.17901 1.23815e-318 -0.247271 1.28585e-318 0.0209857)
(0.274949 0.0556618 1.51204e-319 -0.308605 1.21301e-318 0.0336557)
(0.495027 0.325098 -8.40287e-319 -0.563956 1.24112e-318 0.0689286)
(0.498428 0.915051 -1.76146e-318 -0.673328 9.51966e-319 0.1749)
(0.51964 1.68153 -2.87411e-318 -1.0235 -3.35387e-319 0.503859)
(-0.123155 -0.11855 2.19025e-317 0.373263 -1.49405e-317 -0.250108)
(-0.0921262 -0.198545 1.5888e-317 0.205301 -1.4388e-317 -0.113174)
(-0.123257 -0.23158 1.03024e-317 0.177983 -1.03131e-317 -0.0547256)
(-0.0875642 -0.269348 7.23421e-318 0.115543 -6.31345e-318 -0.0279783)
(-0.0796607 -0.308531 5.31987e-318 0.0945599 -4.09371e-318 -0.0148991)
(-0.0505658 -0.329324 4.27521e-318 0.0587395 -2.61058e-318 -0.00817371)
(-0.0418308 -0.354156 3.65059e-318 0.0460758 -1.65208e-318 -0.004245)
(-0.0218225 -0.367858 3.28876e-318 0.0234205 -9.46368e-319 -0.00159801)
(-0.0190364 -0.383569 3.0418e-318 0.0185404 -4.05411e-319 0.000496028)
(-0.00487143 -0.397506 2.8409e-318 0.00242205 3.42783e-320 0.00244938)
(-0.00482897 -0.410202 2.63195e-318 0.000527317 4.02871e-319 0.00430165)
(0.0141382 -0.427183 2.38377e-318 -0.0203693 7.19271e-319 0.00623106)
(0.0197187 -0.43358 2.07646e-318 -0.0278613 9.92667e-319 0.00814251)
(0.06228 -0.446455 1.70818e-318 -0.0724736 1.22938e-318 0.0101936)
(0.0873419 -0.420806 1.29953e-318 -0.100096 1.42428e-318 0.0127543)
(0.179974 -0.401185 8.99348e-319 -0.196929 1.57256e-318 0.0169553)
(0.248387 -0.264213 6.21352e-319 -0.275579 1.65057e-318 0.0271917)
(0.380466 -0.158744 5.23028e-319 -0.435471 1.61639e-318 0.0550051)
(0.516387 0.239824 8.7959e-319 -0.655398 1.3616e-318 0.139011)
(0.175766 0.416615 1.03981e-318 -0.546952 7.47482e-319 0.371186)
(-0.0253644 -0.320225 2.87264e-317 0.102896 3.25035e-317 -0.0775316)
(-0.0936926 -0.270817 2.0205e-317 0.132118 1.72952e-317 -0.0384256)
(-0.0526503 -0.171157 1.10002e-317 0.0715412 1.1921e-317 -0.0188908)
(-0.0194672 -0.190366 6.92716e-318 0.0292933 8.95232e-318 -0.00982605)
(-0.00221343 -0.155265 4.45811e-318 0.0075675 7.60475e-318 -0.00535406)
(0.0298225 -0.172071 3.33346e-318 -0.0267819 6.59755e-318 -0.00304066)
(0.0303139 -0.158426 2.68218e-318 -0.0286709 5.84799e-318 -0.00164297)
(0.0461448 -0.165719 2.33903e-318 -0.0454857 5.15878e-318 -0.000659193)
(0.0375401 -0.158275 2.11405e-318 -0.0376894 4.52276e-318 0.000149337)
(0.043862 -0.155412 1.95155e-318 -0.0448073 3.91039e-318 0.000945302)
(0.0289952 -0.149875 1.80168e-318 -0.0307084 3.32814e-318 0.00171323)
(0.0352295 -0.134207 1.63838e-318 -0.0377841 2.77954e-318 0.00255456)
(0.0158293 -0.128353 1.43934e-318 -0.0192365 2.28078e-318 0.00340712)
(0.0382724 -0.0925581 1.19134e-318 -0.0426317 1.84766e-318 0.00435926)
(0.0172196 -0.0831246 8.7463e-319 -0.0227548 1.4961e-318 0.00553519)
(0.0969621 -0.0131055 5.21506e-319 -0.104288 1.24552e-318 0.00732606)
(0.075472 0.00768012 1.14727e-319 -0.0868976 1.05781e-318 0.0114256)
(0.314948 0.134263 -1.67152e-319 -0.337439 9.06714e-319 0.0224912)
(0.248372 0.212858 -2.95016e-319 -0.311619 5.60443e-319 0.0632469)
(0.656485 0.707792 -4.6456e-319 -0.931355 -3.09982e-319 0.27487)
)
;

boundaryField
{
    cavity
    {
        type            mySigma;
    }
    lid
    {
        type            fixedValue;
        value           uniform (0.1 -0.3 0 -0.1 0 0);
    }
    frontAndBack
    {
        type            empty;
    }
}


// ************************************************************************* //
