/*--------------------------------*- C++ -*----------------------------------*\
| =========                 |                                                 |
| \\      /  F ield         | foam-extend: Open Source CFD                    |
|  \\    /   O peration     | Version:  3.0                                   |
|   \\  /    A nd           | Web:         http://www.extend-project.de       |
|    \\/     M anipulation  |                                                 |
\*---------------------------------------------------------------------------*/
FoamFile
{
    version     2.0;
    format      ascii;
    class       volScalarField;
    location    "2";
    object      p;
}
// * * * * * * * * * * * * * * * * * * * * * * * * * * * * * * * * * * * * * //

dimensions      [0 0 0 0 0 0 0];

internalField   nonuniform List<scalar> 
2688
(
-0.1587227041
-0.1422609578
-0.1348749721
-0.1271398239
-0.1250825516
-0.1235613399
-0.1240725875
-0.1266231486
-0.1272772721
-0.1318926945
-0.1312951194
-0.1360676257
-0.1345372809
-0.1377616056
-0.1368437405
-0.1375951086
-0.1381174841
-0.1367364593
-0.1377754725
-0.1351134003
-0.1354969345
-0.1319427741
-0.1304893858
-0.1259480158
-0.1582315971
-0.1418181724
-0.1344524464
-0.1267411304
-0.1246908896
-0.1231739301
-0.1236841728
-0.1262271054
-0.1268790863
-0.1314803947
-0.1308838395
-0.1356417329
-0.1341152932
-0.1373295004
-0.1364135742
-0.1371622817
-0.137681571
-0.1363047277
-0.1373390072
-0.1346857356
-0.1350673149
-0.1315248286
-0.1300755094
-0.1255487595
-0.1572254477
-0.1409154237
-0.1335976067
-0.1259344971
-0.1238979097
-0.1223908624
-0.1228988705
-0.1254258311
-0.1260751
-0.1306468441
-0.130055842
-0.1347828252
-0.1332680367
-0.1364611588
-0.1355530756
-0.1362961908
-0.1368144082
-0.1354451561
-0.1364750139
-0.1338375391
-0.1342180277
-0.1306971321
-0.1292574935
-0.1247590533
-0.155742759
-0.1395868231
-0.1323365791
-0.124745786
-0.1227277457
-0.1212342246
-0.1217368672
-0.1242394762
-0.1248818256
-0.1294103148
-0.1288237491
-0.1335060959
-0.1320045118
-0.1351671926
-0.1342667778
-0.1350025242
-0.1355147485
-0.1341584195
-0.1351772693
-0.13256506
-0.1329410295
-0.1294538766
-0.1280274529
-0.1235719218
-0.1537516217
-0.1378021911
-0.130645437
-0.1231511766
-0.1211595977
-0.1196851259
-0.1201821477
-0.1226526357
-0.1232880577
-0.1277580824
-0.1271807732
-0.1318024876
-0.1303221285
-0.1334437773
-0.1325569082
-0.1332826331
-0.1337904605
-0.1324505418
-0.1334583785
-0.130878515
-0.1312507652
-0.1278074092
-0.1263995687
-0.1220005109
-0.1512933332
-0.135599083
-0.1285559263
-0.1211813855
-0.1192213072
-0.1177698522
-0.1182585652
-0.1206892097
-0.1213137615
-0.1257122922
-0.1251430012
-0.1296907775
-0.128232861
-0.1313042466
-0.1304306614
-0.1311444116
-0.1316432298
-0.1303247701
-0.1313153483
-0.1287771533
-0.1291424239
-0.1257546612
-0.1243687946
-0.1200404837
-0.1483439836
-0.1329556247
-0.126050112
-0.118818934
-0.1168974346
-0.1154740313
-0.1159538191
-0.118336784
-0.1189503232
-0.1232624116
-0.1227059473
-0.1271642236
-0.125736801
-0.1287476815
-0.1278931222
-0.1285923763
-0.1290834202
-0.1277898447
-0.1287629498
-0.1262733061
-0.1266324773
-0.1233100672
-0.1219514532
-0.117707134
-0.1449414299
-0.1299061227
-0.1231585446
-0.1160930164
-0.114215428
-0.1128242359
-0.1132927513
-0.1156208905
-0.1162197325
-0.1204329787
-0.1198881352
-0.124244084
-0.1228482032
-0.1257896024
-0.1249537905
-0.1256365313
-0.1261155931
-0.1248515993
-0.1258015004
-0.1233693495
-0.1237194898
-0.1204737963
-0.1191460094
-0.1149994129
-0.141070575
-0.1264367486
-0.1198694301
-0.1129922777
-0.1111650682
-0.1098107486
-0.1102672692
-0.112532841
-0.1131167197
-0.1172166502
-0.1166879726
-0.1209267201
-0.1195701569
-0.1224323763
-0.1216208504
-0.1222847806
-0.1227528446
-0.1215218485
-0.1224481049
-0.1200800881
-0.1204220037
-0.1172622837
-0.1159701862
-0.1119339863
-0.1367670718
-0.1225797189
-0.1162124266
-0.1095448429
-0.1077732493
-0.1064599567
-0.1069023553
-0.1090988275
-0.1096644331
-0.1136393584
-0.1131258454
-0.1172350349
-0.1159187615
-0.1186930542
-0.1179054498
-0.1185485035
-0.1190016044
-0.117807913
-0.1187051091
-0.1164096411
-0.1167403422
-0.1136775764
-0.1124246198
-0.1085119329
-0.1320229453
-0.1183276889
-0.1121812705
-0.1057447442
-0.104034888
-0.1027668513
-0.1031943886
-0.1053141713
-0.1058610501
-0.1096972755
-0.1092030337
-0.1131689341
-0.1119002497
-0.1145777847
-0.1138193883
-0.1144395642
-0.114878541
-0.1137255056
-0.1145930007
-0.1123764181
-0.1126966647
-0.1097394719
-0.1085302784
-0.1047530049
-0.1268730449
-0.1137120325
-0.1078050544
-0.1016194139
-0.09997612944
-0.0987574375
-0.09916818546
-0.1012054114
-0.1017306434
-0.105417153
-0.1049414042
-0.1087520685
-0.1075319684
-0.1101042755
-0.1093747969
-0.1099701332
-0.1103914884
-0.1092831445
-0.1101162211
-0.1079863377
-0.1082933971
-0.1054520711
-0.1042896353
-0.1006600498
-0.1213149213
-0.1087304794
-0.1030823538
-0.09716753035
-0.09559662089
-0.09443097669
-0.09482422747
-0.0967716664
-0.09727474347
-0.1007990618
-0.100345513
-0.1039887041
-0.1028238299
-0.105283008
-0.1045872126
-0.1051558002
-0.1055600531
-0.1044993681
-0.1052970061
-0.1032595968
-0.1035539483
-0.1008364449
-0.09972519981
-0.09625435051
-0.1153838028
-0.1034146147
-0.09804226891
-0.09241648281
-0.0909222353
-0.08981356246
-0.09018747481
-0.09203980224
-0.09251798249
-0.09586969037
-0.09543765626
-0.09890196709
-0.09779343979
-0.1001315532
-0.09946949746
-0.1000096935
-0.1003941151
-0.09938499669
-0.1001436016
-0.0982059151
-0.09848563715
-0.09590124461
-0.09484399126
-0.0915430613
-0.109081225
-0.09776585595
-0.09268711502
-0.08736847791
-0.08595634079
-0.08490787247
-0.08526197103
-0.08701266897
-0.08746569963
-0.09063385637
-0.09022674912
-0.09350146984
-0.09245506302
-0.09466501125
-0.09404059621
-0.09455048193
-0.09491504322
-0.09396000987
-0.09467799792
-0.09284524747
-0.09311022066
-0.09066638636
-0.08966700885
-0.08654616374
-0.1024438642
-0.09181699095
-0.0870468747
-0.08205173212
-0.08072531179
-0.07974058598
-0.08007287917
-0.08171698186
-0.08214201487
-0.08511687097
-0.08473395059
-0.08780855588
-0.08682554941
-0.08890023989
-0.08831396665
-0.08879228466
-0.08913498145
-0.08823776209
-0.08891243375
-0.08719125064
-0.08744022984
-0.08514521109
-0.08420652732
-0.08127574927
-0.09547574683
-0.08557174376
-0.08112628678
-0.07647077505
-0.07523519833
-0.07431715868
-0.0746276868
-0.07615969483
-0.07655701476
-0.07932924467
-0.07897370939
-0.08183886096
-0.08092407012
-0.08285708269
-0.08231189092
-0.08275676263
-0.08307709027
-0.08223983429
-0.08286930524
-0.08126435987
-0.08149680994
-0.07935738291
-0.07848253075
-0.07575092223
-0.08821591881
-0.07906496407
-0.07495706203
-0.07065535058
-0.06951338104
-0.06866492511
-0.06895133633
-0.07036655247
-0.07073304071
-0.07329379532
-0.07296474884
-0.0756111977
-0.07476597805
-0.07655130762
-0.07604806787
-0.07645859885
-0.07675513659
-0.07598123574
-0.07656335293
-0.07508051256
-0.07529552624
-0.07331899088
-0.07251071667
-0.06998702774
-0.08066960899
-0.07230150383
-0.06854523068
-0.06461139784
-0.06356790017
-0.06279185009
-0.06305488046
-0.06434897387
-0.06468556728
-0.06702708039
-0.06672756923
-0.06914720023
-0.06837550788
-0.07000734015
-0.0695481846
-0.06992251692
-0.07019452551
-0.06948569039
-0.07001869886
-0.0686619198
-0.06885894274
-0.06705103204
-0.06631183229
-0.06400386277
-0.07287878485
-0.06531878812
-0.06192472574
-0.05837048243
-0.05742726517
-0.0567256998
-0.05696259546
-0.05813117876
-0.05843450617
-0.06054909328
-0.06027799697
-0.06246313535
-0.06176619905
-0.06323978454
-0.06282576729
-0.06316340064
-0.06340995736
-0.06276916828
-0.0632513214
-0.06202557672
-0.06220383782
-0.06057080246
-0.05990306846
-0.0578182522
-0.06484899155
-0.05812199446
-0.0551021082
-0.0519393968
-0.0511010452
-0.05047672568
-0.05068889203
-0.05172881714
-0.05200040383
-0.05388181059
-0.0536420666
-0.05558580089
-0.05496692209
-0.05627705387
-0.05590974024
-0.05620877001
-0.05642907977
-0.05585750351
-0.05628736698
-0.05519579875
-0.05535493033
-0.0539013732
-0.05330717608
-0.0514518955
-0.05662522079
-0.05075121252
-0.04811363183
-0.04535149854
-0.04461887417
-0.04407300507
-0.04425743955
-0.04516474953
-0.04540113713
-0.04704303074
-0.04683325802
-0.04852961438
-0.04798963638
-0.04913288614
-0.04881324782
-0.04907363345
-0.04926717086
-0.04876740164
-0.04914364696
-0.04819027598
-0.04832961506
-0.04706054297
-0.0465417178
-0.04492195982
-0.04821281729
-0.04321149288
-0.04096591787
-0.03861405282
-0.03799132242
-0.03752654749
-0.03768511575
-0.03845779563
-0.03866090694
-0.04005857996
-0.0398815956
-0.04132501249
-0.04086676712
-0.04183868012
-0.04156794473
-0.041787773
-0.04195379156
-0.04152644688
-0.04184789669
-0.04103507221
-0.04115435851
-0.04007335005
-0.03963158096
-0.03825228944
-0.0396595334
-0.03554534927
-0.03369739411
-0.03176207155
-0.03124927776
-0.03086597574
-0.03099570847
-0.03163036972
-0.03179690945
-0.03294545899
-0.03279965124
-0.03398581254
-0.03360955689
-0.03440794428
-0.03418673505
-0.03436640224
-0.03450463571
-0.03415194987
-0.03441777624
-0.03374858697
-0.03384741854
-0.03295815669
-0.03259479336
-0.03146041442
-0.03097026345
-0.02775747331
-0.02631439568
-0.02480289857
-0.02440356433
-0.02410413263
-0.02420705901
-0.02470275828
-0.02483479615
-0.02573116578
-0.02561914038
-0.02654409668
-0.02625227341
-0.0268737181
-0.02670308911
-0.02684085556
-0.02695069666
-0.02667279706
-0.02688195803
-0.02635793973
-0.02643594007
-0.02574095989
-0.02545711143
-0.02457111494
-0.02219503136
-0.0198923824
-0.01885728595
-0.01777309469
-0.01748663289
-0.01727072994
-0.01734422371
-0.01769826293
-0.01779293861
-0.01843365958
-0.01835368825
-0.01901463448
-0.01880685434
-0.01925019385
-0.0191302538
-0.01922678288
-0.01930809089
-0.01910679012
-0.01925899844
-0.01888233798
-0.01893951964
-0.0184412261
-0.01823791262
-0.01760315998
-0.01333814511
-0.0119542642
-0.0113317923
-0.01067962054
-0.01050867539
-0.01037830441
-0.01042427729
-0.01063672816
-0.01069601519
-0.01107979406
-0.01103411725
-0.01142898557
-0.01130725617
-0.01157043296
-0.01150211878
-0.01155609271
-0.01160848748
-0.01148350841
-0.01157784998
-0.01134920184
-0.0113849652
-0.01108471436
-0.01096231835
-0.01058074339
-0.004451325993
-0.003989151385
-0.003779937939
-0.003560504742
-0.003504034969
-0.003458251947
-0.003474668778
-0.003543624024
-0.003565325047
-0.003690115431
-0.003677048541
-0.003804394831
-0.003767752938
-0.003850389626
-0.003833268345
-0.003845375066
-0.003868751753
-0.003821341037
-0.003858004713
-0.003778631613
-0.003793395537
-0.003692361371
-0.003651594277
-0.003524450855
0.004461795465
0.003999387998
0.003793444914
0.003578130136
0.003518532612
0.003478246191
0.003489781968
0.003563292012
0.003577476156
0.003711144586
0.003689887338
0.00383007753
0.003780187483
0.003878558368
0.003843709726
0.003874154892
0.003879875994
0.003850296929
0.003871962624
0.003802310502
0.00380925182
0.003710982316
0.003670415842
0.003542775055
0.01334843773
0.01196433765
0.01134502637
0.01069694677
0.01052266832
0.01039775698
0.01043855742
0.01065556686
0.01070704066
0.01109977695
0.01104570222
0.01145358386
0.01131857058
0.01159769158
0.01151177782
0.01158424956
0.01161917571
0.01151207236
0.01159153286
0.01137257915
0.01140054036
0.01110303039
0.01098082653
0.010598767
0.022205689
0.01990282471
0.01887105435
0.01779098667
0.01750156302
0.01729115605
0.0173599962
0.01771857836
0.01780598726
0.01845545844
0.01836748406
0.01904099305
0.0188201065
0.01927878506
0.01914127045
0.01925571653
0.0193195744
0.01913574004
0.01927320046
0.01890606598
0.01895564454
0.01846007679
0.01825706398
0.01762182334
0.03098040042
0.02776743778
0.02632738226
0.02481994356
0.02441708068
0.02412304884
0.02422051117
0.02472076192
0.02484470667
0.02575003287
0.02562943128
0.02656740204
0.0262623882
0.02689973969
0.02671190369
0.02686802099
0.02696092458
0.02670061791
0.02689533016
0.02638078052
0.02645119379
0.02575889611
0.02547528696
0.0245888458
0.03967035949
0.03555600828
0.03371136805
0.0317801401
0.03126447856
0.03088660909
0.0310118076
0.03165097232
0.03181041381
0.03296755135
0.03281389082
0.03401228766
0.03362316556
0.03443641895
0.03419803453
0.03439504983
0.03451634977
0.03418054095
0.03443213045
0.03377210756
0.03386368357
0.03297706375
0.03261412157
0.03147928934
0.04822280367
0.04322138806
0.04097869556
0.03863085608
0.03800446436
0.03754500775
0.03769788669
0.03847507921
0.03866990244
0.04007641298
0.03989075696
0.04134699064
0.04087578566
0.04186332455
0.0415759606
0.04181373676
0.04196353431
0.04155327942
0.04186087532
0.04105721058
0.04116920254
0.04009086259
0.03964938011
0.03826972778
0.05663614512
0.05076205
0.04812771083
0.04536960382
0.04463413247
0.04409354466
0.04427344544
0.04518515262
0.04541452929
0.04706479572
0.04684730423
0.04855555526
0.04800306295
0.04916071544
0.04882449688
0.04910164092
0.04927892955
0.04879538119
0.04915798112
0.04821338542
0.04834577764
0.04707929094
0.04656093063
0.04494080108
0.06485878968
0.05813181681
0.05511469173
0.05195597367
0.05111393186
0.05049481764
0.05070118944
0.05174552641
0.05200876749
0.05389873615
0.05365033838
0.05560647675
0.05497498373
0.05630025402
0.05591696881
0.05623339111
0.05643821298
0.0558831743
0.05629981333
0.05521717766
0.05536933273
0.05391855804
0.05332471339
0.0514692215
0.07288966377
0.06532969414
0.06193875616
0.05838843803
0.05744235514
0.05674582173
0.05697809548
0.05815085532
0.05844720986
0.06056984114
0.06029118846
0.06248782483
0.06177886575
0.0632663938
0.06283655099
0.06319037752
0.06342143217
0.06279626371
0.06326533678
0.06204808342
0.06221962062
0.06058922684
0.05992193537
0.05783689984
0.08067912218
0.07231118617
0.06855757369
0.06462769129
0.06358059688
0.06280959122
0.06306687174
0.06436518466
0.06469353992
0.067043148
0.06673512305
0.06916650775
0.06838263173
0.0700289144
0.06955446096
0.06994551975
0.07020272243
0.06950989391
0.0700303139
0.06868236371
0.06887277111
0.06706783785
0.06632908828
0.06402110193
0.08822651057
0.07907572998
0.07497081052
0.0706729036
0.06952806902
0.06868431188
0.06896599352
0.07038501531
0.07074457419
0.07331283956
0.07297647751
0.07563385296
0.0747772755
0.07657596956
0.07605782532
0.07648390347
0.0767657522
0.07600686621
0.07657650202
0.07510193314
0.07531047603
0.07333669018
0.07252885825
0.07000513926
0.0954848242
0.08558115538
0.0811382625
0.07648662397
0.07524765538
0.07433442917
0.0746394005
0.07617532151
0.07656467754
0.07934432009
0.07898053529
0.0818565212
0.08093006329
0.08287658576
0.08231681214
0.08277754409
0.08308375932
0.0822618553
0.08287943878
0.08128314765
0.08150941352
0.07937302485
0.07849867258
0.07576720988
0.1024538195
0.09182729499
0.08705999625
0.08206852114
0.08073930931
0.07975889697
0.08008642334
0.08173380997
0.08215202836
0.08513357378
0.08474368978
0.08782833207
0.08683482247
0.08892202215
0.08832196264
0.08881492475
0.08914389992
0.08826086462
0.08892384713
0.08721052716
0.08745347216
0.08516110665
0.08422290968
0.08129222816
0.1090896914
0.09777482981
0.09269852975
0.08738361844
0.08596836689
0.08492437922
0.08527322592
0.0870274011
0.08747288082
0.09064754784
0.09023257162
0.09351692174
0.09245946679
0.09468167378
0.09404348202
0.09456803501
0.09491924953
0.09397858527
0.09468545622
0.09286089502
0.0931201553
0.09067916159
0.08968021679
0.08655960557
0.1153926962
0.1034240494
0.09805430926
0.09243200973
0.09093512778
0.08983035002
0.09019960049
0.09205458375
0.0925261981
0.09588346618
0.09544493223
0.09891798013
0.09779994689
0.1001493417
0.09947477391
0.1000283887
0.100400211
0.09940413449
0.1001520472
0.09822153013
0.0984958282
0.0959136938
0.09485695124
0.09155613434
0.1213226239
0.1087388597
0.1030929913
0.09718163342
0.09560790663
0.09444626604
0.09483462122
0.09678496146
0.09728098347
0.1008107097
0.1003497591
0.1040011129
0.1028259054
0.1052957827
0.1045870827
0.1051688
0.1055604517
0.1045128185
0.1052999728
0.1032700647
0.1035590238
0.1008440988
0.09973313261
0.09626258826
0.126880456
0.1137201862
0.1078155252
0.1016330825
0.09998735741
0.09877207661
0.09917841995
0.1012176313
0.1017367215
0.1054274386
0.1049457558
0.1087634677
0.1075349099
0.1101168899
0.1093761897
0.1099834523
0.1103933281
0.1092967224
0.1101200833
0.1079966458
0.108298844
0.1054593989
0.1042974217
0.1006679512
0.132029798
0.1183353751
0.1121909389
0.1057574651
0.1040450633
0.1027803669
0.1032033667
0.1053253302
0.1058656804
0.1097060546
0.1092049372
0.1131773408
0.1118991374
0.1145855768
0.1138152174
0.1144467325
0.1148738036
0.1137323316
0.1145897831
0.1123800256
0.1126950133
0.1097402781
0.108531266
0.1047544092
0.1367726703
0.122586262
0.1162209324
0.109556079
0.1077822169
0.1064716971
0.1069100448
0.1091078151
0.1096678763
0.113645594
0.1131268285
0.1172411473
0.115917495
0.1186995391
0.1179019713
0.1185552028
0.1189979125
0.1178145432
0.1187029478
0.1164132857
0.1167395786
0.1136785236
0.112425945
0.1085134451
0.141076579
0.126443712
0.1198779806
0.113003293
0.1111737609
0.1098219119
0.110274257
0.1125411594
0.1131190696
0.1172217948
0.1166868386
0.1209303264
0.1195652178
0.1224344135
0.1216120805
0.1222854176
0.1227425108
0.1215215138
0.1224384373
0.1200765885
0.1204136175
0.1172562143
0.115964363
0.1119286773
0.1449449782
0.1299108195
0.1231648705
0.1161014119
0.1142217352
0.1128324506
0.1132973161
0.1156259995
0.1162200204
0.1204347034
0.1198854089
0.1242445724
0.1228424937
0.1257895859
0.1249451902
0.1256361423
0.1261061114
0.124850831
0.1257930907
0.1233659843
0.123712265
0.1204680922
0.1191406798
0.1149943466
0.148349229
0.1329619324
0.1260574768
0.1188280309
0.1169043871
0.1154823937
0.1159584156
0.1183417623
0.1189499941
0.1232634918
0.1227014632
0.1271626831
0.1257278844
0.1287437567
0.1278798409
0.1285865173
0.1290679153
0.1277827182
0.1287475839
0.1262633184
0.1266181378
0.1232977627
0.1219393176
0.1176955537
0.1512946426
0.1356017847
0.1285600541
0.1211868149
0.1192249781
0.1177744036
0.1182599678
0.1206902869
0.1213108328
0.125709485
0.1251366134
0.1296858035
0.1282229831
0.1312980535
0.1304175031
0.1311374663
0.1316288229
0.1303173911
0.1313016678
0.1287676225
0.1291295329
0.1257430391
0.1243574925
0.1200294741
0.1537563199
0.137808096
0.1306517489
0.1231584654
0.1211649127
0.1196906712
0.1201844028
0.1226542431
0.1232851767
0.1277552284
0.1271732399
0.1317961171
0.1303097372
0.1334343809
0.1325398258
0.1332709593
0.1337706765
0.1324374274
0.1334381343
0.1308626749
0.1312308205
0.1277892242
0.1263812642
0.1219827986
0.1557418461
0.1395876216
0.1323386679
0.1247483723
0.1227290631
0.1212354514
0.1217356338
0.1242370424
0.1248763445
0.1294036696
0.1288144741
0.1334964997
0.1319914008
0.1351557884
0.1342502342
0.1349901497
0.1354967788
0.1341456703
0.1351596148
0.1325504823
0.1329234658
0.129437239
0.1280109775
0.1235557144
0.1572298803
0.140921287
0.1336030505
0.1259401706
0.1239017917
0.1223938586
0.1228991091
0.1254244073
0.1260701356
0.1306405581
0.1300459731
0.1347724069
0.1332532076
0.1364473614
0.1355335067
0.1362799238
0.1367917621
0.1354272312
0.1364512458
0.1338169743
0.1341938218
0.130674285
0.1292345078
0.1247366684
0.1582306809
0.1418182269
0.134453216
0.1267413207
0.1246899494
0.1231720984
0.1236806324
0.1262216953
0.1268717469
0.1314708365
0.1308727758
0.1356287843
0.1341004048
0.137314337
0.1363952518
0.1371458229
0.1376614285
0.1362876281
0.1373185263
0.1346671075
0.1350464668
0.1315043504
0.1300552959
0.1255288329
0.1587262526
0.1422623769
0.1348742894
0.127138188
0.1250806304
0.1235579865
0.1240684203
0.1266174426
0.127269872
0.1318832183
0.1312835578
0.136054145
0.1345213
0.1377448323
0.1368232612
0.1375756065
0.1380932212
0.1367145864
0.1377490916
0.1350891404
0.1354699619
0.1319167501
0.1304632514
0.1259226184
0.1587298615
0.1422655617
0.1348771186
0.1271406111
0.1250829909
0.1235600051
0.1240705189
0.1266193036
0.1272719633
0.1318850078
0.1312856524
0.1360558626
0.134523494
0.1377465787
0.1368256069
0.1375774099
0.1380955867
0.136716372
0.1377513006
0.1350909325
0.1354718905
0.1319184313
0.1304647868
0.1259240658
0.1582266271
0.1418145105
0.1344494902
0.1267374635
0.1246866169
0.1231684275
0.1236776461
0.1262183584
0.1268693137
0.1314675933
0.1308704454
0.1356252227
0.1340980792
0.1373104858
0.1363928791
0.1371417241
0.1376587
0.1362833223
0.1373153734
0.134663204
0.1350432264
0.1315010302
0.1300520787
0.1255257715
0.1572331087
0.1409240002
0.1336050452
0.1259412233
0.1239032467
0.122394296
0.1229003949
0.1254248721
0.126071969
0.1306409821
0.1300479241
0.1347723731
0.1332553616
0.1364470884
0.1355359011
0.1362794947
0.1367938076
0.1354265245
0.1364525122
0.1338166446
0.1341944069
0.1306742931
0.1292343194
0.1247364616
0.1557372868
0.139583319
0.1323339934
0.1247430348
0.1227247053
0.1212300801
0.121731703
0.1242321751
0.1248735053
0.1293989146
0.128811843
0.1334910407
0.1319888815
0.1351497906
0.1342477843
0.1349837373
0.1354936697
0.1341388647
0.1351555507
0.1325445241
0.1329189889
0.1294323583
0.1280061685
0.1235511261
0.1537592355
0.1378104026
0.1306529813
0.1231582291
0.1211655416
0.1196896205
0.1201849674
0.1226534143
0.1232868525
0.127754401
0.1271751601
0.1317944565
0.1303119625
0.133432208
0.1325423585
0.133268396
0.1337724616
0.1324342982
0.1334384903
0.1308602596
0.1312300789
0.127787576
0.1263793677
0.1219809545
0.1512895215
0.1355968469
0.1285543882
0.121179969
0.1192195531
0.1177673063
0.1182550493
0.120683859
0.121307538
0.1257031908
0.1251336388
0.1296784356
0.1282202356
0.1312899165
0.1304149547
0.1311287754
0.1316253498
0.1303081622
0.1312967669
0.1287597171
0.1291239416
0.1257367217
0.1243512281
0.1200234917
0.1483519022
0.1329639012
0.126058027
0.1188266028
0.1169042789
0.1154799671
0.1159583596
0.1183397596
0.1189516159
0.1232615435
0.122703467
0.12715954
0.1257302902
0.1287398233
0.1278825962
0.1285819415
0.1290695048
0.1277772733
0.1287470925
0.1262589041
0.1266161439
0.1232945372
0.1219358017
0.1176921613
0.1449392448
0.1299052057
0.123158181
0.1160930491
0.1142152108
0.1128236257
0.1132913754
0.115618006
0.1162162256
0.1204268732
0.1198820587
0.1242353269
0.1228395023
0.1257793695
0.1249425489
0.1256252666
0.1261023277
0.1248393167
0.1257874731
0.1233562932
0.1237057284
0.1204605076
0.119133142
0.1149871477
0.1410790804
0.1264454141
0.1198779335
0.1130007832
0.1111730072
0.1098182355
0.1102736778
0.1125381104
0.1131207237
0.1172188582
0.1166890138
0.1209258457
0.1195678796
0.1224288589
0.1216151091
0.1222789566
0.1227439541
0.1215138846
0.1224371827
0.120070308
0.1204105014
0.1172515546
0.115959393
0.111923902
0.1367662848
0.1225799431
0.1162132005
0.1095462146
0.1077745721
0.1064611707
0.1069030541
0.1090982791
0.1096635355
0.1136362636
0.1131230711
0.1172300991
0.1159142523
0.1186873558
0.1178992602
0.1185422918
0.1189938992
0.1178009352
0.1186967656
0.1164020116
0.1167322926
0.1136698698
0.1124173404
0.1085052324
0.1320321947
0.1183368795
0.1121903786
0.1057539906
0.1040437494
0.1027755718
0.1032023432
0.1053213579
0.1058674138
0.1097022469
0.1092073152
0.1131716459
0.1119020637
0.114578516
0.1138185035
0.1144384942
0.114875105
0.1137226491
0.1145878416
0.1123720333
0.1126909298
0.1097343632
0.1085250507
0.1047484589
0.1268733952
0.1137131512
0.1078067518
0.1016217628
0.09997858892
0.09875991089
0.09917036395
0.1012066129
0.1017317914
0.1054166835
0.1049415608
0.1087507396
0.1075314135
0.1101029035
0.1093734418
0.109968701
0.1103891739
0.1092812424
0.1101134822
0.1079839939
0.1082909755
0.1054498509
0.1042879215
0.1006588908
0.1213249743
0.1087402288
0.1030919944
0.09717731136
0.09560610254
0.0944404794
0.09483320171
0.09678017196
0.0972827868
0.100806117
0.1003522951
0.1039942877
0.1028290163
0.1052872858
0.1045905233
0.1051588491
0.1055615424
0.1045011805
0.1052973669
0.1032604867
0.1035540833
0.1008370748
0.09972583879
0.09625562552
0.1153849621
0.1034163134
0.09804452422
0.09241932023
0.09092526285
0.08981665506
0.09019049265
0.09204219356
0.09252065522
0.09587141495
0.09544028697
0.09890375224
0.09779621294
0.1001337692
0.09947203486
0.1000120268
0.1003959951
0.09938700302
0.1001451173
0.0982076521
0.09848743469
0.0959033232
0.09484659402
0.09154625653
0.1090920401
0.09777611418
0.09269715956
0.08737855858
0.08596611913
0.08491771394
0.08527141873
0.08702187249
0.08747468088
0.09064221423
0.09023513971
0.09350900081
0.09246259514
0.0946717611
0.0940468916
0.09455638841
0.09491998505
0.09396503681
0.09468212249
0.09284978022
0.09311434806
0.09067105605
0.08967185997
0.08655163471
0.1024454463
0.09181890514
0.08704926789
0.08205459517
0.08072842095
0.07974384226
0.08007632851
0.08172022427
0.08214589851
0.08512042274
0.08473862949
0.08781285231
0.08683091097
0.08890513928
0.08831930809
0.08879721499
0.08913969459
0.08824228723
0.08891660248
0.08719548864
0.08744445473
0.08514982828
0.0842115362
0.08128136004
0.09548719893
0.08558239044
0.08113656501
0.07648092228
0.07524498258
0.07432697579
0.07463717101
0.07616909609
0.07656633982
0.07933824345
0.07898294032
0.08184749321
0.08093297728
0.08286524135
0.08231995802
0.08276419462
0.08308395927
0.08224641108
0.08287525085
0.08127047111
0.08150260248
0.07936372741
0.07848908422
0.07575804441
0.08821756983
0.07906676998
0.0749592529
0.07065792617
0.06951628967
0.0686681334
0.06895505071
0.0703704865
0.07073796309
0.07329886347
0.07297111716
0.07561744357
0.07477331604
0.07655811424
0.07605538057
0.07646515098
0.07676164847
0.07598705842
0.07656892383
0.07508575979
0.07530064783
0.07332433075
0.07251619482
0.06999299207
0.08068153371
0.07231239209
0.06855557787
0.06462142756
0.06357749032
0.06280141374
0.06306414573
0.06435826638
0.06469487939
0.06703628333
0.06673712179
0.06915632783
0.06838506742
0.07001611261
0.06955710932
0.0699304836
0.0702022373
0.0694926088
0.07002517401
0.06866812155
0.06886481482
0.0670572294
0.06631807116
0.06401053014
0.07288026403
0.06532028259
0.0619265302
0.05837264257
0.05742988214
0.05672881859
0.05696653032
0.05813571017
0.05844032263
0.06055539125
0.06028574141
0.06247087605
0.06177506584
0.06324795883
0.06283449317
0.06317093898
0.06341756601
0.06277550641
0.06325747051
0.06203089297
0.06220890709
0.06057574896
0.05990787469
0.0578233637
0.06486123741
0.05813300347
0.05511241618
0.05194921555
0.05111036418
0.05048595743
0.05069786518
0.05173788726
0.0520095675
0.05389100826
0.05365166608
0.05559508706
0.05497667616
0.05628598784
0.05591891754
0.05621675019
0.0564369741
0.05586421953
0.05629375643
0.05520152804
0.05536028686
0.05390674762
0.05331234549
0.05145732794
0.05662642504
0.05075233272
0.04811501686
0.04535325923
0.04462121982
0.04407606149
0.04426156276
0.04516977244
0.04540766558
0.04705027969
0.04684207586
0.04853850341
0.04799969277
0.04914212544
0.04882303092
0.04908191319
0.04927547655
0.04877405294
0.04915000805
0.04819550468
0.04833440961
0.04706501892
0.04654582503
0.04492624981
0.04822528581
0.04322256505
0.04097616205
0.03862367148
0.03800040888
0.03753549936
0.03769385978
0.03846667943
0.0386699458
0.04006774333
0.03989116349
0.04133435277
0.04087650317
0.04184763475
0.04157705619
0.04179565504
0.041961553
0.04153295698
0.04185408712
0.04104051805
0.04115940356
0.04007829416
0.03963617376
0.03825705595
0.03966047508
0.03554614496
0.03369842941
0.03176352879
0.03125141267
0.0308690034
0.03099995846
0.03163575234
0.03180392981
0.03295339169
0.03280924013
0.03399557814
0.0336205215
0.03441809685
0.03419735478
0.03437543348
0.03451348177
0.03415907473
0.03442433069
0.03375402495
0.03385216359
0.03296262909
0.03259873204
0.03146451433
0.03098292643
0.02776862685
0.02632463423
0.02481242034
0.02441254148
0.02411294915
0.02421571507
0.02471158732
0.02484382404
0.0257403843
0.02562873397
0.02655354728
0.02626198393
0.02688275768
0.02671206886
0.02684875009
0.02695826463
0.02667930147
0.02688805189
0.0263634744
0.02644107852
0.02574611
0.02546191339
0.02457609181
0.02219579802
0.0198929732
0.01885809511
0.01777437744
0.01748862544
0.01727375511
0.01734852151
0.01770386999
0.01780022397
0.01844203001
0.01836374918
0.01902502788
0.01881845184
0.0192611148
0.01914152099
0.01923657605
0.01931741029
0.01911453418
0.01926583588
0.01888822944
0.018944475
0.01844604563
0.01824209992
0.01760753125
0.01335103749
0.01196558238
0.01134214622
0.01068921412
0.01051771547
0.01038718349
0.01043301652
0.01064567972
0.01070517456
0.01108921104
0.01104385337
0.01143867397
0.01131704951
0.01157969796
0.0115110675
0.01156416099
0.01161596097
0.01149016726
0.01158396978
0.01135497821
0.01139037737
0.01109028539
0.01096762941
0.0105862529
0.00445204386
0.003989691042
0.003780667802
0.003561753384
0.003505958834
0.003461303931
0.003478945753
0.003549340254
0.003572668619
0.003698700664
0.003687284591
0.003815147947
0.003779667277
0.003861840615
0.003844937631
0.003855798274
0.00387845877
0.003829684512
0.003865215744
0.003785021593
0.003798753922
0.003697610945
0.003656212513
0.00352924829
-0.004448602471
-0.003987785199
-0.003782821999
-0.003568263583
-0.00350923797
-0.003469086821
-0.003480787821
-0.003554034472
-0.003568055481
-0.003701387177
-0.003679899563
-0.003820026293
-0.003770182912
-0.003868929787
-0.003834618651
-0.003865746018
-0.003872291927
-0.00384334111
-0.003865650245
-0.003796265195
-0.003803500539
-0.003705077311
-0.00366463762
-0.003536804649
-0.01334762981
-0.01196368464
-0.01134421996
-0.01069558669
-0.01052072723
-0.01039463599
-0.01043434262
-0.01064983114
-0.01069981446
-0.01109118346
-0.01103558173
-0.0114427656
-0.01130669776
-0.01158603637
-0.01150001713
-0.01157343337
-0.01160920246
-0.01150321462
-0.01158384471
-0.01136565787
-0.01139453011
-0.01109724734
-0.01097553286
-0.01059333192
-0.02219212733
-0.01989082009
-0.01886001213
-0.01778065023
-0.01749182785
-0.01728150801
-0.01735058801
-0.01770885378
-0.01779620095
-0.01844525672
-0.01835716948
-0.0190304964
-0.01880978817
-0.01926868047
-0.01913185385
-0.01924677876
-0.01931162907
-0.01912826345
-0.01926646314
-0.01889959893
-0.01894938871
-0.01845379309
-0.01825072934
-0.01761531586
-0.03097936985
-0.02776651248
-0.02632634246
-0.02481832493
-0.02441502183
-0.02411980444
-0.02421637203
-0.02471508172
-0.02483774141
-0.02574163118
-0.0256196899
-0.02655681822
-0.02625090393