/*--------------------------------*- C++ -*----------------------------------*\
| =========                 |                                                 |
| \\      /  F ield         | foam-extend: Open Source CFD                    |
|  \\    /   O peration     | Version:  3.0                                   |
|   \\  /    A nd           | Web:         http://www.extend-project.de       |
|    \\/     M anipulation  |                                                 |
\*---------------------------------------------------------------------------*/
FoamFile
{
    version     2.0;
    format      ascii;
    class       volSymmTensorField;
    location    "62";
    object      sigma;
}
// * * * * * * * * * * * * * * * * * * * * * * * * * * * * * * * * * * * * * //

dimensions      [0 0 0 0 0 0 0];

internalField   nonuniform List<symmTensor> 
2688
(
(-0.1775671022 -0.004590236895 1.868881313e-19 0.1774320512 3.983991536e-19 0.0001350510001)
(-0.174129935 -0.005496838197 2.048673879e-20 0.1737635408 2.708312473e-19 0.0003663942102)
(-0.1670115865 -0.005925693384 -9.141957433e-20 0.1664380974 7.571006478e-19 0.0005734891568)
(-0.1577846854 -0.006030347561 8.031045535e-20 0.1570246741 3.386272922e-19 0.0007600112892)
(-0.1480160061 -0.005975402288 2.142051195e-21 0.1470875457 4.467824315e-19 0.000928460369)
(-0.1377694221 -0.005795341754 1.308583385e-19 0.1366890674 2.277664515e-19 0.001080354641)
(-0.1279214402 -0.005565640466 4.108169685e-21 0.1267048134 3.092267309e-19 0.001216626822)
(-0.1181560908 -0.005291170105 9.54758516e-20 0.1168184965 1.257228151e-19 0.00133759426)
(-0.1090204195 -0.005006601139 -2.101270381e-20 0.1075771644 2.544174873e-19 0.001443255092)
(-0.1001772011 -0.004712948654 -5.941247833e-20 0.09864407167 -6.256880326e-20 0.001533129424)
(-0.09196126091 -0.004423148397 9.821627654e-20 0.0903546921 4.757777036e-19 0.001606568814)
(-0.08412628753 -0.004141515957 -6.550332193e-20 0.08246383732 7.195063064e-20 0.001662450211)
(-0.07684879361 -0.003868190295 3.778678743e-19 0.07514918772 1.3059533e-19 0.001699605891)
(-0.0700006671 -0.003612343486 -8.232084422e-20 0.06828437057 2.442352466e-20 0.001716296529)
(-0.06363315819 -0.003365979134 1.120551979e-21 0.06192227075 8.120571265e-20 0.001710887435)
(-0.05773498673 -0.003143049254 2.287141765e-20 0.05605401973 1.869922506e-20 0.001680967001)
(-0.05225629924 -0.002930211565 -5.653528174e-20 0.05063186539 1.544610078e-19 0.001624433844)
(-0.04729109854 -0.002745302654 2.28293162e-19 0.04575298771 7.237687604e-20 0.001538110835)
(-0.04271075423 -0.002571975049 -2.266377542e-19 0.04129138459 -9.38458492e-20 0.00141936964)
(-0.03869575226 -0.002429983573 1.680085781e-19 0.03743156334 1.737891718e-19 0.001264188916)
(-0.03506681432 -0.002303334651 7.650551419e-20 0.03399757554 -1.805559699e-19 0.001069238782)
(-0.03206130837 -0.002209303103 5.706594475e-20 0.03123168772 -3.389480782e-19 0.000829620653)
(-0.02949106079 -0.00214168967 -2.309072203e-20 0.02895010733 8.795281763e-20 0.000540953466)
(-0.02760262973 -0.002104233524 -9.636281297e-20 0.02740515351 -6.768990448e-19 0.0001974762198)
(-0.1770978062 -0.01422901592 3.839926278e-20 0.1769617053 -4.935711291e-19 0.0001361009006)
(-0.1732359809 -0.01683278308 2.838075253e-19 0.1728667538 -2.991990969e-19 0.0003692270276)
(-0.1658673475 -0.01804586349 8.585903733e-20 0.1652893252 -4.783110116e-19 0.000578022259)
(-0.1565121304 -0.01831620434 -1.791406594e-19 0.1557461244 -5.432194792e-20 0.0007660059251)
(-0.1466791798 -0.01812665861 1.117489298e-19 0.1457433561 -1.593556829e-19 0.0009358236754)
(-0.1364180216 -0.01757638575 -1.231422582e-19 0.1353290662 -3.062648069e-19 0.001088955378)
(-0.1265801769 -0.01688724411 2.130955093e-19 0.1253538203 1.252403251e-19 0.00122635654)
(-0.11684466 -0.01607188986 -6.956153318e-20 0.1154963164 -4.499578956e-19 0.001348343669)
(-0.1077484741 -0.01523232671 -7.920318475e-20 0.1062935581 5.285348651e-20 0.001454915945)
(-0.09895081932 -0.01437051084 2.390430859e-19 0.09740523208 -4.141458345e-19 0.001545587238)
(-0.09078410054 -0.01352429778 8.132478801e-20 0.08916439498 -9.571229001e-20 0.001619705564)
(-0.08299776089 -0.01270579226 -2.668566611e-20 0.08132162874 -2.785559112e-19 0.001676132156)
(-0.07577014766 -0.01191486735 -1.939741588e-19 0.07405645299 1.372285957e-19 0.001713694674)
(-0.06896777917 -0.01117819662 1.693415618e-19 0.06723715298 -6.551953749e-20 0.001730626187)
(-0.06264632582 -0.01047133634 -6.476330041e-20 0.06092103703 2.093044092e-19 0.001725288793)
(-0.05678800985 -0.009835018398 4.960898508e-20 0.05509278185 3.552809789e-19 0.001695228007)
(-0.05134903424 -0.009228946646 3.079239137e-19 0.04971069386 -2.145650132e-19 0.001638340381)
(-0.04641604381 -0.008704770405 -4.506332249e-19 0.04486465588 4.280653578e-19 0.001551387921)
(-0.04186715532 -0.008214029488 3.344602089e-19 0.04043541419 3.539963596e-19 0.001431741127)
(-0.0378753831 -0.007812756515 -2.192135421e-20 0.03660007893 -1.162561777e-20 0.001275304168)
(-0.03426741185 -0.007454862246 -4.730565594e-19 0.03318867042 1.601503222e-19 0.00107874143)
(-0.03127469832 -0.007188676873 1.704907073e-19 0.03043763272 3.965263993e-19 0.0008370656077)
(-0.02871172862 -0.00699042999 -3.677416309e-19 0.0281658548 2.545219865e-19 0.0005458738251)
(-0.02682375826 -0.006874858972 2.947544934e-19 0.02662444387 -5.015617584e-20 0.0001993143821)
(-0.176138877 -0.02384163219 2.15104079e-19 0.1760021111 3.854219098e-19 0.0001367658799)
(-0.1714449897 -0.02802569135 -2.478180516e-20 0.1710739799 5.269375459e-19 0.0003710097809)
(-0.1635862599 -0.02995102494 5.291464229e-20 0.1630054704 2.344902459e-19 0.0005807894849)
(-0.1539800136 -0.03034669875 2.810746207e-19 0.1532103134 1.961183857e-19 0.0007697001985)
(-0.1440213487 -0.02999924243 -1.988645636e-19 0.1430809974 3.111259165e-19 0.0009403513223)
(-0.133731919 -0.02906856665 3.090046147e-19 0.1326376586 1.790185187e-19 0.001094260446)
(-0.123913862 -0.02791670379 -9.378798436e-20 0.1226814936 2.585536431e-19 0.001232368372)
(-0.1142367196 -0.02656253634 1.516115844e-20 0.1128817139 2.069065591e-19 0.001355005695)
(-0.1052175241 -0.02517303004 -4.968693465e-20 0.1037553592 5.150321716e-19 0.001462164892)
(-0.09650867531 -0.02374988576 -2.295633756e-19 0.09495531614 1.859416195e-19 0.001553359169)
(-0.08843767341 -0.0223554459 1.674222279e-19 0.08680974216 4.896842812e-19 0.001627931249)
(-0.0807458078 -0.02100829902 1.556280109e-19 0.07906107377 6.601283657e-20 0.001684734022)
(-0.07361487382 -0.01970866287 5.770205375e-19 0.07189228734 -5.311895357e-20 0.001722586479)
(-0.06690107902 -0.01849919004 -1.882759823e-21 0.06516136994 -6.965204563e-20 0.001739709082)
(-0.06066852595 -0.01734019527 4.621460552e-19 0.05893407708 -8.653945601e-20 0.001734448868)
(-0.05488701636 -0.0162974565 -3.209586019e-19 0.05318267969 -8.077243469e-20 0.001704336679)
(-0.04952428538 -0.0153052372 3.72232198e-21 0.04787704033 1.081604404e-19 0.001647245043)
(-0.04465291343 -0.014447208 9.872211807e-19 0.0430929924 -1.076498538e-19 0.001559921026)
(-0.04016415069 -0.01364433543 -6.171413681e-19 0.03872445093 5.962644363e-20 0.001439699755)
(-0.0362162962 -0.01298743745 4.234040042e-20 0.03493382588 -1.662172545e-20 0.001282470315)
(-0.0326489131 -0.01240155891 5.395116553e-19 0.03156406298 -7.031914025e-21 0.001084850117)
(-0.02967973046 -0.01196498703 3.429733388e-19 0.0288378956 -3.816095478e-19 0.000841834863)
(-0.02713290015 -0.01163735383 -5.278141098e-19 0.02658392608 2.653455551e-19 0.0005489740675)
(-0.02524448257 -0.01144403502 -2.206724783e-19 0.02504406899 -5.396730099e-19 0.0002004135769)
(-0.1746892717 -0.03340902175 6.367791108e-20 0.1745522868 -2.246804479e-22 0.0001369848702)
(-0.1687827423 -0.03898250246 1.788629937e-19 0.1684111159 -2.096116972e-19 0.0003716263795)
(-0.1602107549 -0.0415027511 -5.179776106e-20 0.159629007 -7.079298577e-19 0.0005817479659)
(-0.1502402625 -0.04195809488 -1.808182393e-19 0.1494692584 8.596578422e-20 0.0007710041519)
(-0.140100205 -0.04141480239 1.58866561e-19 0.1391582401 -2.115192021e-19 0.0009419649087)
(-0.1297714213 -0.04008720571 -2.072044193e-19 0.128675241 2.326205642e-20 0.001096180316)
(-0.119984016 -0.03846731571 3.227211633e-19 0.1187494408 -5.461037616e-20 0.00123457521)
(-0.1103936316 -0.03657779113 5.272127545e-20 0.1090361413 2.536565398e-19 0.001357490292)
(-0.1014881707 -0.0346465753 8.049320845e-20 0.1000232551 -4.437888936e-19 0.001464915585)
(-0.09291009355 -0.03267328713 1.939705485e-19 0.09135373371 6.669029655e-20 0.001556359845)
(-0.08497977322 -0.03074396285 -6.490454027e-20 0.08334860242 2.416208786e-19 0.001631170808)
(-0.07742658114 -0.02888161203 -4.764119423e-19 0.07573839562 -4.050308168e-19 0.001688185527)
(-0.07043738678 -0.02708776577 -4.690946305e-19 0.06871115201 5.469901667e-19 0.001726234771)
(-0.06385333165 -0.0254185625 2.962045543e-19 0.0621098217 -5.373762052e-19 0.001743509943)
(-0.05775083273 -0.02382113048 -2.444511978e-19 0.05601245411 1.056440157e-18 0.001738378627)
(-0.05208167904 -0.02238329127 4.595307193e-19 0.05037335325 -1.979943454e-19 0.001708325788)
(-0.0468301725 -0.02101673503 3.75303196e-20 0.0451789167 4.929564037e-19 0.001651255797)
(-0.0420490573 -0.01983353815 -3.116132632e-19 0.04048520705 -4.267879986e-19 0.001563850251)
(-0.03764753173 -0.01872770972 6.62089063e-19 0.03620404459 5.643454235e-20 0.001443487135)
(-0.03376476329 -0.01782054262 -2.385235919e-19 0.03247879221 1.02959706e-19 0.001285971086)
(-0.03025552549 -0.0170125327 -9.132981584e-19 0.02916756027 1.79195378e-19 0.001087965222)
(-0.02732336652 -0.01640707496 6.961401312e-19 0.02647899654 6.633541702e-20 0.0008443699763)
(-0.02479847114 -0.01595151398 -3.227571794e-19 0.02424771189 4.599798062e-19 0.0005507592505)
(-0.02291621566 -0.01567903661 4.559784535e-19 0.02271505467 6.718801345e-20 0.0002011609846)
(-0.1727477979 -0.04291117608 9.084700106e-20 0.1726110046 1.267345176e-19 0.0001367933051)
(-0.1652870649 -0.04961535742 -3.851022757e-19 0.1649159526 -1.432964519e-19 0.0003711123031)
(-0.155803038 -0.05257128129 3.182712748e-19 0.1552221053 -3.130052872e-19 0.0005809326773)
(-0.1453690669 -0.05299742752 5.06486903e-19 0.1445991141 3.49639395e-19 0.0007699527665)
(-0.1350002358 -0.0522069022 -1.095628936e-19 0.1340595363 -3.305522546e-19 0.000940699509)
(-0.1246251076 -0.05046016228 3.075698007e-19 0.1235303587 5.401299531e-19 0.001094748856)
(-0.1148808707 -0.04836518231 1.980228451e-19 0.113647864 -3.362344023e-19 0.001233006675)
(-0.1054056204 -0.04594512058 -2.605333856e-19 0.1040497965 4.376664219e-19 0.00135582391)
(-0.09664952287 -0.0434835039 -2.617299461e-19 0.09518633963 3.532183325e-19 0.001463183246)
(-0.08824255905 -0.04097534599 4.960350029e-19 0.08668796233 -2.791458637e-19 0.001554596716)
(-0.08049570172 -0.03852933402 4.890192608e-20 0.07886629358 -2.339790358e-19 0.001629408135)
(-0.07312326758 -0.03617007439 5.05139528e-19 0.07143681238 -5.628495632e-20 0.001686455203)
(-0.06631841593 -0.03390170758 2.841695463e-19 0.06459385144 3.736989519e-19 0.001724564488)
(-0.0599031955 -0.03179054757 4.24401385e-19 0.05816126836 -2.139698314e-19 0.001741927138)
(-0.05396957918 -0.02977314594 8.86968993e-19 0.05223267524 2.780935495e-19 0.001736903947)
(-0.04844650182 -0.02795564645 -7.800868233e-19 0.04673952141 -8.396756199e-19 0.001706980413)
(-0.04333929284 -0.0262304143 1.137963236e-19 0.04168924282 -6.855785494e-19 0.001650050018)
(-0.0386753385 -0.02473411783 1.912293568e-19 0.0371125406 2.890475409e-19 0.001562797895)
(-0.03438707122 -0.02333698486 -8.356999766e-20 0.03294448558 -2.120519083e-19 0.00144258564)
(-0.03058830034 -0.02218750234 5.502977621e-19 0.02930307553 6.458880559e-20 0.001285224815)
(-0.02715522692 -0.02116408499 4.612221407e-19 0.02606787091 -2.28300103e-19 0.001087356011)
(-0.02426978537 -0.02039295116 3.824277802e-19 0.02342589425 5.63617135e-19 0.0008438911265)
(-0.02177651877 -0.01981086543 1.860235582e-19 0.0212261277 -9.652598111e-19 0.0005503910667)
(-0.0198990556 -0.01945812612 -8.417437196e-19 0.0196981078 9.763032611e-19 0.0002009477982)
(-0.1703129956 -0.05232742812 -2.614833649e-19 0.1701768328 7.122918028e-19 0.0001361627237)
(-0.1610070565 -0.05984294697 -3.968960808e-19 0.1606376253 4.78704409e-19 0.000369431194)
(-0.1504435965 -0.06303831288 -7.300913338e-20 0.1498652933 3.335578475e-20 0.0005783032594)
(-0.1394648775 -0.06332573154 -2.090347653e-19 0.1386983765 2.92793979e-19 0.0007665010622)
(-0.1288306411 -0.06222487597 1.849987753e-19 0.1278941324 3.469610876e-19 0.0009365087619)
(-0.1184072555 -0.06003178275 -1.590604394e-19 0.117317339 -2.148514087e-19 0.001089916462)
(-0.108720889 -0.05745324807 3.312195239e-19 0.1074932745 -1.119835598e-20 0.001227614485)
(-0.09938893025 -0.05450880993 6.175220748e-19 0.09803897269 6.158827016e-19 0.001349957564)
(-0.09081638157 -0.05153093382 -3.295585454e-19 0.08935945447 -9.901257056e-19 0.001456927101)
(-0.08261854737 -0.04850693443 -7.418569671e-19 0.081070514 9.924588613e-19 0.00154803337)
(-0.07509507542 -0.04556683066 5.166257331e-20 0.07347244716 2.873891582e-19 0.001622628255)
(-0.067942481 -0.04273338279 -1.696828247e-20 0.06626293938 -1.438397465e-19 0.001679541627)
(-0.06136134873 -0.04001491296 -4.71395819e-19 0.0596437304 1.06738257e-19 0.001717618335)
(-0.0551510755 -0.03748384595 4.230947663e-20 0.05341604373 -1.405690114e-19 0.001735031763)
(-0.04942206676 -0.03506941879 -3.501432452e-19 0.0476918921 2.058995794e-19 0.001730174656)
(-0.04407625938 -0.03289138329 -3.532850311e-19 0.04237575942 -4.890658349e-19 0.001700499956)
(-0.03914357203 -0.03082714421 3.878395269e-19 0.03749962097 1.501688035e-18 0.001643951064)
(-0.03462212969 -0.02903255709 3.514584787e-19 0.03306496754 -2.559083612e-19 0.001557162146)
(-0.03047034385 -0.02735932098 1.783523371e-19 0.02903278014 6.722178124e-19 0.001437563711)
(-0.02677491414 -0.02597678451 -4.754118449e-19 0.02549401702 3.608498081e-19 0.001280897121)
(-0.02343267184 -0.02474753991 -2.087041231e-19 0.0223487901 3.268264336e-19 0.001083881745)
(-0.02060820726 -0.02381298341 -1.848706298e-19 0.01976685722 1.418715659e-18 0.0008413500399)
(-0.01814998497 -0.02310533768 9.924655265e-19 0.01760106637 -5.400222195e-19 0.0005489185977)
(-0.01628776761 -0.02267018897 -6.202553568e-20 0.0160872124 2.758859174e-18 0.0002005552105)
(-0.1673837253 -0.06163581579 5.366985689e-19 0.1672486014 -1.261273615e-18 0.0001351238842)
(-0.1560016032 -0.06959236011 -9.500032041e-19 0.155634983 3.199524665e-20 0.0003666202453)
(-0.1442288298 -0.07279977385 4.566271699e-19 0.1436549283 -8.834250579e-19 0.0005739014745)
(-0.1326455048 -0.07282186535 4.88896666e-19 0.1318848114 6.95250638e-19 0.0007606934121)
(-0.1217220327 -0.07133785503 -2.631598424e-21 0.120792594 -1.199745792e-18 0.0009294387282)
(-0.1112546207 -0.06866733682 -9.464630016e-20 0.1101728908 4.62512129e-19 0.001081729914)
(-0.1016433738 -0.06559586084 6.371637982e-19 0.1004249315 -1.57680604e-19 0.001218442334)
(-0.092482733 -0.06213465176 -3.041194352e-19 0.09114280152 -1.091814241e-18 0.001339931487)
(-0.08412616855 -0.05865734654 4.919361489e-19 0.08267999318 -5.922810405e-19 0.001446175369)
(-0.07617286829 -0.0551399881 1.495523615e-18 0.07463618129 2.384165077e-19 0.001536686999)
(-0.06890929544 -0.05173238615 -8.189460616e-19 0.06729847559 -9.496195489e-19 0.001610819849)
(-0.06201224692 -0.0484514655 2.790371718e-19 0.06034483749 5.464159244e-19 0.001667409435)
(-0.05569039302 -0.04531152739 3.401143667e-19 0.0539850885 2.36383274e-19 0.001705304522)
(-0.04971785337 -0.0423864729 1.643735507e-19 0.04799516592 9.126914099e-19 0.001722687454)
(-0.04422560798 -0.03960182379 9.519361701e-19 0.04250765214 -4.337362339e-19 0.001717955836)
(-0.03908530954 -0.03708588704 -5.758276148e-19 0.03739673332 1.44884972e-18 0.001688576214)
(-0.03435449628 -0.03470535631 5.35739996e-19 0.03272199878 -6.082125133e-19 0.001632497497)
(-0.02999818626 -0.03263048691 -7.862805529e-19 0.02845181167 6.454928878e-19 0.001546374597)
(-0.02600435381 -0.03069794933 1.123844818e-18 0.02457670924 -3.556211457e-19 0.001427644578)
(-0.02242825156 -0.02909469938 1.706939754e-19 0.02115617384 6.761811378e-19 0.001272077716)
(-0.0191916125 -0.02766876561 2.00000102e-18 0.01811521151 -5.609839965e-19 0.001076400998)
(-0.01643598168 -0.02657691923 -7.298163634e-19 0.01560049258 8.001605553e-19 0.0008354891044)
(-0.01402259303 -0.02574429314 1.820094682e-18 0.01347760483 5.592071122e-19 0.0005449881985)
(-0.01217653062 -0.02522826599 -1.250934897e-18 0.0119775373 -6.336410545e-19 0.0001989933192)
(-0.1639590476 -0.07081324526 3.157310569e-19 0.1638253952 1.409888578e-18 0.0001336524171)
(-0.1503382067 -0.07880040194 1.96554931e-19 0.1499755534 5.468322957e-20 0.0003626532917)
(-0.1372687548 -0.08176815724 -4.830116537e-19 0.1367010534 1.107169269e-18 0.0005677013645)
(-0.1250453135 -0.08138506959 2.243849717e-19 0.1242928091 -8.091344563e-19 0.0007525044382)
(-0.113823273 -0.07943777255 2.365892372e-19 0.1129038081 -8.864741703e-20 0.0009194649466)
(-0.103322968 -0.07625595794 5.876094511e-20 0.102252802 8.128726682e-19 0.001070165994)
(-0.09380699586 -0.07268170914 -7.97192042e-19 0.09260152495 1.393266742e-19 0.001205470906)
(-0.08484543121 -0.06871270172 3.614599038e-19 0.08351970099 4.426032292e-20 0.001325730222)
(-0.0767353078 -0.06475512274 -8.187185121e-19 0.07530438363 1.350205195e-18 0.001430924163)
(-0.0690588293 -0.0607697977 -7.515451978e-20 0.06753826506 -4.534215083e-19 0.001520564238)
(-0.06208780256 -0.05692459069 3.451521267e-19 0.06049378561 8.943645249e-19 0.001594016958)
(-0.05547799305 -0.05322619668 8.305287113e-19 0.05382787661 -1.758210723e-19 0.001650116445)
(-0.04944665785 -0.04969687021 -1.411854563e-19 0.04775892104 3.597982982e-19 0.001687736802)
(-0.04374069686 -0.04640684856 -2.924833441e-19 0.04203564234 -8.891408145e-19 0.001705054515)
(-0.03851332724 -0.04328200703 3.114621861e-19 0.03681281844 9.821914578e-20 0.001700508805)
(-0.03360350815 -0.04045341765 2.990094314e-19 0.03193195699 -1.108318379e-18 0.001671551155)
(-0.02909844705 -0.03778231791 -3.254328731e-20 0.02748225399 9.521278121e-20 0.001616193054)
(-0.02492787911 -0.03544710739 8.198974251e-19 0.02339681731 -9.286505564e-19 0.001531061809)
(-0.02111025561 -0.03327530664 1.843135892e-20 0.01969657541 -3.054925935e-19 0.001413680199)
(-0.01766982701 -0.03146468458 -6.455948385e-19 0.01641004867 -6.366909704e-19 0.001259778338)
(-0.01454863519 -0.02985483561 3.745982333e-19 0.01348245057 -3.723169468e-19 0.001066184628)
(-0.01187646173 -0.02860941792 1.713266664e-18 0.01104873383 5.647116276e-19 0.0008277278942)
(-0.009507787643 -0.02765330284 4.051933163e-19 0.008967650029 -1.597575329e-18 0.0005401376143)
(-0.00768784052 -0.02704394188 3.575732515e-19 0.007490440149 1.316725373e-18 0.0001974003711)
(-0.1600388487 -0.07983518424 -6.272734967e-20 0.1599070704 -7.90591016e-19 0.0001317782598)
(-0.144091014 -0.08741461686 -1.291895746e-18 0.1437334423 3.880475601e-19 0.0003575717215)
(-0.129683802 -0.08987437155 9.323996391e-19 0.12912405 -2.130195745e-18 0.0005597519683)
(-0.1168111223 -0.08893747315 -7.647474847e-19 0.116069132 6.365931e-19 0.000741990342)
(-0.1052969331 -0.08644210199 8.570103752e-19 0.1043902849 -2.860797696e-19 0.0009066482276)
(-0.09478234714 -0.08271371639 7.699412748e-19 0.09372705753 -1.702742698e-19 0.001055289618)
(-0.08538487887 -0.07862706659 1.306875846e-19 0.08419611405 -3.750999929e-19 0.001188764816)
(-0.07664986235 -0.07416073413 2.897624642e-19 0.07534244517 -3.99401328e-19 0.001307417182)
(-0.06881438434 -0.06974418294 6.778423282e-19 0.06740315762 -7.870405088e-19 0.001411226723)
(-0.06144365521 -0.06531882443 4.206086416e-19 0.05994394769 5.249268677e-19 0.001499707513)
(-0.05479350543 -0.0610687023 -8.26172123e-19 0.05322127247 -7.968798689e-19 0.001572232962)
(-0.04849830381 -0.05698557997 1.699739339e-19 0.0468706558 7.786369991e-20 0.001627648008)
(-0.04278389718 -0.05310176182 3.333085009e-19 0.04111905877 1.437924769e-19 0.001664838407)
(-0.03736905994 -0.04947835581 -3.355686543e-19 0.0356870603 6.962068531e-19 0.001681999639)
(-0.03243017704 -0.0460457915 1.243584895e-19 0.03075259064 6.430472949e-19 0.001677586399)
(-0.02777197486 -0.04293208101 -5.494684353e-19 0.02612289578 1.094917463e-18 0.001649079075)
(-0.02351308278 -0.03999772091 1.652276197e-19 0.0219185741 3.237621266e-19 0.00159450868)
(-0.01954562584 -0.03742448463 -1.586524223e-18 0.01803508146 6.95387115e-19 0.001510544372)
(-0.01592113465 -0.0350331885 1.515833639e-18 0.01452640041 9.681831439e-19 0.001394734244)
(-0.01262947863 -0.03303283003 -2.033930647e-19 0.01138661204 4.424556956e-19 0.00124286658)
(-0.009635959585 -0.03124707212 1.456310561e-18 0.008584155167 1.060954962e-18 0.001051804418)
(-0.007054583803 -0.02986460291 -1.655465129e-18 0.006238126224 -8.985913891e-19 0.0008164575798)
(-0.004731989606 -0.02877488467 2.622654659e-18 0.004199365216 7.094361712e-19 0.0005326243897)
(-0.002936249696 -0.02808012094 -7.477753918e-19 0.002741759535 -1.566324392e-18 0.0001944901605)
(-0.1556238415 -0.08867574514 1.991333218e-18 0.1554943606 1.037008145e-19 0.0001294809242)
(-0.1373392506 -0.0953943448 -1.295734287e-21 0.1369878924 -8.246884191e-19 0.0003513581451)
(-0.1216020065 -0.09706919646 -2.212582643e-19 0.121051967 -1.233141158e-19 0.0005500395258)
(-0.1080988444 -0.09542574121 5.173380072e-19 0.1073697024 1.266855063e-18 0.0007291419484)
(-0.09631550547 -0.09229566232 -6.308879992e-19 0.0954245223 -3.63112653e-19 0.0008909831661)
(-0.08581311024 -0.08798534464 3.386080245e-19 0.08477601031 5.520754462e-19 0.001037099926)
(-0.07656063654 -0.08337741477 -6.899919632e-19 0.07539230701 -1.52158283e-19 0.001168329527)
(-0.06807928235 -0.07842565503 -5.759641786e-19 0.06679427736 7.832370987e-19 0.001285004991)
(-0.06054431681 -0.07357314942 4.097851247e-20 0.05915720725 6.602055004e-19 0.00138710956)
(-0.05350464505 -0.06873759403 1.166157932e-19 0.05203048702 7.606894389e-19 0.001474158027)
(-0.0471992004 -0.06411723511 3.399199004e-19 0.0456536607 2.448865498e-19 0.001545539706)
(-0.04124132159 -0.0596840569 7.73004775e-19 0.03964121506 6.132722247e-19 0.001600106525)
(-0.0358652172 -0.05548260833 7.874541302e-19 0.0342284434 1.358173078e-19 0.001636773797)
(-0.03076143034 -0.05155910999 5.032446977e-19 0.0291076842 -9.277189783e-19 0.001653746141)
(-0.02612991682 -0.04785315165 1.065564055e-18 0.02448039191 -2.107172895e-19 0.001649524911)
(-0.02174042561 -0.04448307 3.752742482e-19 0.02011882702 -1.360866082e-18 0.001621598593)
(-0.01774419958 -0.0413146464 1.364778975e-19 0.0161761336 -2.063786084e-19 0.001568065983)
(-0.01399388893 -0.03852578719 1.02838271e-18 0.01250828754 -8.549565371e-19 0.001485601389)
(-0.01057686195 -0.03593726635 -1.081782001e-18 0.009205017843 -1.987615752e-19 0.00137184411)
(-0.007443684333 -0.03376214837 -3.637644734e-19 0.006221097942 -5.739370737e-19 0.00122258639)
(-0.004591065171 -0.03181419906 -2.060369938e-19 0.003556261871 -2.039806507e-19 0.0010348033)
(-0.002101897911 -0.03030185247 1.379623247e-19 0.001298486071 8.545768711e-19 0.0008034118399)
(0.0001623115579 -0.02908587979 -1.910794134e-18 -0.0006866248596 -9.650453444e-19 0.0005243133016)
(0.001939918134 -0.02830339858 1.544667121e-18 -0.002131552929 2.032835851e-20 0.000191634795)
(-0.1507161884 -0.0973075904 -5.881172331e-19 0.1505893979 4.66122147e-19 0.0001267904644)
(-0.1301650845 -0.1027108755 2.35035814e-19 0.1298210262 -1.006158675e-18 0.0003440583394)
(-0.1131552623 -0.1033239367 -1.724790787e-19 0.1126166409 1.698901377e-18 0.0005386214197)
(-0.09906868358 -0.1008219451 3.512668151e-19 0.09835465619 -8.993556484e-19 0.000714027395)
(-0.08705601736 -0.09697166054 6.760682231e-21 0.08618347102 4.887542126e-19 0.0008725463435)
(-0.07660019292 -0.09204546221 1.371934267e-18 0.07558451223 -6.346703967e-19 0.001015680689)
(-0.06752237209 -0.08690884499 2.889207259e-19 0.06637811976 2.282901218e-19 0.001144252326)
(-0.0593213305 -0.08148509794 1.022991412e-18 0.05806274791 -7.897205318e-19 0.001258582592)
(-0.05211017516 -0.07622116046 2.052967891e-19 0.05075151972 -3.229129678e-19 0.001358655439)
(-0.04542309953 -0.07100671952 7.388892996e-19 0.04397910942 -5.90421398e-19 0.001443990102)
(-0.03948139445 -0.06605221424 -1.399984481e-18 0.03796740795 -6.376392515e-19 0.001513986506)
(-0.03387876145 -0.0613049679 5.852005346e-20 0.03231124714 -1.332213811e-19 0.001567514305)
(-0.02885697028 -0.05682399619 -3.953862033e-19 0.02725346381 -7.704884616e-19 0.001603506466)
(-0.02407942902 -0.05263478626 -5.286843779e-19 0.0224592302 -2.324632309e-19 0.001620198827)
(-0.01976906659 -0.04869076815 -2.272675232e-19 0.01815295039 3.753693955e-19 0.001616116203)
(-0.01566123639 -0.04509389633 -6.20991501e-20 0.01407244158 7.044762498e-19 0.001588794817)
(-0.01193978684 -0.0417212877 -4.820416526e-20 0.01040342407 8.000842506e-19 0.001536362771)
(-0.008417412569 -0.03873992743 -1.941688566e-19 0.006961849604 -7.599844186e-19 0.001455562966)
(-0.005218723647 -0.03597690083 2.023035832e-18 0.003874651782 2.34491412e-18 0.001344071865)
(-0.002252064642 -0.03364287469 -3.30083376e-19 0.001054288498 -2.54954489e-19 0.001197776145)
(0.0004492683729 -0.0315477346 2.415817245e-18 -0.001462971736 1.74258356e-18 0.001013703363)
(0.002842177575 -0.02991303872 -8.298100498e-19 -0.003629075539 -1.473000851e-18 0.0007868979639)
(0.005038287806 -0.02857796475 4.383536237e-19 -0.005551644964 2.45931686e-19 0.0005133571577)
(0.006790557172 -0.02771178333 -1.360500932e-18 -0.006978015699 -3.762958465e-19 0.0001874585271)
(-0.1453195086 -0.1057021123 9.862695925e-19 0.1451958177 2.839993295e-19 0.0001236909062)
(-0.1226517694 -0.1093481128 -5.51883013e-19 0.1223161053 5.289237599e-19 0.0003356641404)
(-0.1044763168 -0.1086309684 7.663803629e-20 0.1039508195 -9.0857028e-20 0.0005254972326)
(-0.08988154593 -0.1051241825 1.479745147e-19 0.08918489162 3.955543892e-19 0.000696654302)
(-0.07769608105 -0.100472258 -8.592531585e-19 0.07684472877 -3.452560733e-19 0.0008513522754)
(-0.06732904207 -0.09489906154 5.124111979e-19 0.06633798838 -3.347034735e-19 0.0009910536861)
(-0.05845871257 -0.08922839467 -4.046900519e-19 0.05734214932 -4.359568231e-19 0.001116563243)
(-0.05056414606 -0.08334759064 -4.132798866e-19 0.04933595692 -3.789580916e-19 0.001228189137)
(-0.04369760511 -0.07769780803 7.700815003e-19 0.04237168725 1.235096514e-20 0.001325917852)
(-0.03738088097 -0.0721366243 1.064884369e-18 0.03597160795 5.151859648e-20 0.001409273029)
(-0.03181725444 -0.06688463895 1.216936871e-18 0.03033958251 2.423088548e-19 0.001477671931)
(-0.02658295735 -0.06185980781 1.540670387e-19 0.02505295656 3.856457812e-19 0.001530000791)
(-0.02192619845 -0.05713777805 3.773249872e-19 0.02036097398 9.508484688e-19 0.001565224465)
(-0.01748528404 -0.05271755017 7.170694542e-19 0.01590367955 2.12066649e-19 0.001581604488)
(-0.01350472239 -0.04857115625 7.799122231e-19 0.01192700801 1.304585261e-18 0.00157771438)
(-0.0096872965 -0.04477722485 3.190339719e-19 0.00813617233 -3.104617777e-19 0.00155112417)
(-0.006248150335 -0.04123093905 -6.276779673e-19 0.004748119866 -1.213706922e-18 0.00150003047)
(-0.002961410838 -0.03807997872 -8.85605746e-20 0.001540192414 7.568712532e-19 0.001421218424)
(1.177890442e-05 -0.03516658889 5.596891177e-19 -0.001324233875 -1.14728896e-18 0.001312454971)
(0.002804993733 -0.03268824613 -8.458942164e-19 -0.003974674114 -1.024171786e-18 0.00116968038)
(0.005347241909 -0.0304638126 -6.234340051e-19 -0.006337278428 -1.043101253e-18 0.0009900365183)
(0.007638046446 -0.02871098379 9.931945318e-19 -0.008406682032 -1.434596674e-18 0.0007686355862)
(0.009756469619 -0.027267693 -1.525725131e-18 -0.01025806434 5.870570578e-20 0.000501594718)
(0.01147874685 -0.02631322048 1.558997606e-18 -0.01166205371 -2.165333509e-19 0.0001833068591)
(-0.1394395866 -0.1138294297 -1.370623056e-19 0.1393193736 5.953466104e-19 0.0001202129674)
(-0.1148816513 -0.1153018435 5.258812622e-19 0.1145554252 -6.902447964e-19 0.000326226061)
(-0.09569494744 -0.1130030003 -6.654125415e-19 0.09518421404 1.409307473e-18 0.000510733394)
(-0.08069413344 -0.1083556316 8.182807283e-19 0.08001703004 -7.437698177e-19 0.0006771033953)
(-0.06840828666 -0.1028276226 -5.651466753e-19 0.06758079237 1.527854281e-19 0.0008274942954)
(-0.05817960075 -0.09658056546 -3.97754467e-20 0.05721627769 8.338715125e-19 0.0009633230661)
(-0.04955241213 -0.09037321449 6.51500295e-19 0.04846703748 3.406219225e-19 0.001085374656)
(-0.04198981834 -0.08405184298 -5.682310579e-19 0.04079587535 8.370280083e-19 0.001193942995)
(-0.03548602283 -0.07804262802 -7.765216511e-19 0.03419700752 1.642553459e-19 0.001289015307)
(-0.0295535939 -0.07216722798 -4.710218206e-19 0.02818347117 8.633191959e-19 0.001370122721)
(-0.02437759611 -0.06665442482 -2.974887758e-19 0.02294089991 -9.581355574e-19 0.001436696203)
(-0.01951997241 -0.06138841265 5.446489542e-19 0.01803232478 8.481014563e-19 0.00148764763)
(-0.01523365142 -0.05646346358 -1.16507946e-19 0.0137116867 -1.485241254e-18 0.001521964724)
(-0.01113513111 -0.0518467331 -4.119794196e-19 0.009597177497 -3.982081859e-19 0.001537953609)
(-0.007487979872 -0.04753322315 8.88923899e-19 0.005953762087 -8.624432118e-19 0.001534217785)
(-0.003965829362 -0.04357191709 1.139152591e-19 0.002457434041 -1.691546172e-18 0.001508395321)
(-0.000812167285 -0.0398819536 9.046472213e-19 -0.0006465519646 7.290463335e-19 0.00145871925)
(0.002233893991 -0.03658461897 -1.394171522e-19 -0.003615966025 -1.565146357e-18 0.001382072034)
(0.004977930223 -0.03354411154 8.839096096e-19 -0.006254195401 1.581521301e-18 0.001276265177)
(0.007591384339 -0.03093709981 1.234880031e-18 -0.00872875524 -1.051183762e-18 0.001137370901)
(0.009969890146 -0.02859912068 -1.202847198e-19 -0.01093248377 1.599470114e-18 0.0009625936258)
(0.01214931397 -0.02673459878 1.830544033e-20 -0.01289653006 -6.889920277e-19 0.0007472160936)
(0.01418261306 -0.02519019184 2.919250931e-19 -0.01467007936 1.752826332e-18 0.0004874662983)
(0.01586372369 -0.02414671516 -7.955131787e-19 -0.01604173137 -5.115849887e-19 0.0001780076852)