/*--------------------------------*- C++ -*----------------------------------*\
| =========                 |                                                 |
| \\      /  F ield         | foam-extend: Open Source CFD                    |
|  \\    /   O peration     | Version:  3.0                                   |
|   \\  /    A nd           | Web:         http://www.extend-project.de       |
|    \\/     M anipulation  |                                                 |
\*---------------------------------------------------------------------------*/
FoamFile
{
    version     2.0;
    format      ascii;
    class       volVectorField;
    location    "62";
    object      u;
}
// * * * * * * * * * * * * * * * * * * * * * * * * * * * * * * * * * * * * * //

dimensions      [0 0 0 0 0 0 0];

internalField   nonuniform List<vector> 
2688
(
(0.2607817022 -0.05454732863 7.282930958e-17)
(0.1760581818 -0.04410329126 -9.273214879e-17)
(0.5528356082 -0.03902590461 1.785086555e-16)
(0.4313624139 -0.03013109 -6.58015732e-17)
(0.7231315246 -0.0290352175 9.770985114e-17)
(0.5969582948 -0.02183033485 -2.362021646e-17)
(0.8300261237 -0.02217031466 5.928734229e-18)
(0.7082725335 -0.01669285249 5.762568049e-17)
(0.9014244353 -0.01724960802 -6.302281311e-17)
(0.784754676 -0.01337776313 7.831203384e-17)
(0.9515552854 -0.01362457539 -2.447175881e-17)
(0.8378788404 -0.01114726729 4.172317477e-17)
(0.9880980124 -0.01089643627 3.164546223e-17)
(0.8747378093 -0.009583011364 -9.059267893e-17)
(1.015416664 -0.008802357315 1.039395271e-16)
(0.8998600219 -0.008434222437 -1.095518034e-16)
(1.036081335 -0.007167579383 1.045471431e-16)
(0.9162372374 -0.007531881579 -6.984502965e-17)
(1.051589683 -0.005882496664 1.696591111e-17)
(0.9259542581 -0.006735715258 1.901138454e-17)
(1.062711016 -0.004895647559 -3.058030181e-17)
(0.9305851652 -0.005874554782 1.099109131e-17)
(1.069661786 -0.004356573859 -3.537058862e-17)
(0.931471206 -0.004748316502 8.083286697e-18)
(0.2725684336 -0.1577220307 -2.275649297e-16)
(0.1854773836 -0.1268592392 -1.637808335e-18)
(0.5611622728 -0.1117827601 -3.793545608e-16)
(0.4376677122 -0.08529691225 4.291314577e-17)
(0.729216972 -0.08203261276 -1.831752212e-16)
(0.6014046024 -0.06046308785 -2.964880765e-17)
(0.834556967 -0.06142905223 -1.334582254e-17)
(0.711552474 -0.04494513655 -1.429416395e-16)
(0.9048249039 -0.04650625912 7.201294851e-17)
(0.7872641296 -0.03477029588 -1.205721793e-16)
(0.9541059595 -0.03535366611 -6.703560771e-18)
(0.8398521666 -0.02774910759 -9.99542703e-17)
(0.9899904485 -0.02679057278 2.046226696e-17)
(0.8763184843 -0.02263927833 2.234362827e-17)
(1.01678437 -0.0200376867 -4.424349023e-17)
(0.9011383978 -0.01869377289 8.297261607e-17)
(1.037021641 -0.01458531814 -7.830754538e-17)
(0.9172681727 -0.01540392896 1.888591679e-17)
(1.052183314 -0.01013140757 8.795515063e-17)
(0.9267615511 -0.01235375102 -1.164881426e-16)
(1.063040994 -0.006543249299 1.100768149e-16)
(0.9311581129 -0.009118729332 -1.759781615e-17)
(1.069828554 -0.00398114585 5.129726206e-17)
(0.931752371 -0.005140173879 3.361245919e-17)
(0.2958090343 -0.2589425238 4.147653076e-16)
(0.204138763 -0.2079938657 1.10220611e-16)
(0.5775593927 -0.1831255586 4.772515154e-16)
(0.4501277593 -0.1393622004 -2.114634164e-17)
(0.741179689 -0.1339704983 2.250500216e-16)
(0.6101536515 -0.09830609547 1.061418386e-16)
(0.8434468169 -0.09989238937 -9.714417863e-18)
(0.7179804285 -0.07260290208 2.243575338e-16)
(0.9114869579 -0.07516798433 -6.145665953e-17)
(0.7921696206 -0.055702586 2.040631146e-16)
(0.959101891 -0.05664361659 3.246818806e-17)
(0.8437059365 -0.04399163261 1.226250574e-16)
(0.9937049809 -0.04237256897 -2.529685734e-17)
(0.8794053316 -0.03542191147 -5.377341514e-17)
(1.019483552 -0.03107002306 6.781155898e-17)
(0.9036327479 -0.0287644175 -1.903904087e-16)
(1.038889293 -0.02189154594 2.14385469e-16)
(0.9192730941 -0.02318666748 -1.684803003e-16)
(1.053345837 -0.01432709122 -2.206600343e-17)
(0.9283303726 -0.01801627697 5.450537811e-17)
(1.063584738 -0.008133905207 -5.848051232e-17)
(0.9323088605 -0.01258014263 -6.450358113e-17)
(1.069820828 -0.003457641697 -5.559153671e-17)
(0.9324649761 -0.005951607921 -3.321432516e-18)
(0.3302558909 -0.3569139108 -4.509405801e-16)
(0.2317393071 -0.2865749532 -2.696553574e-16)
(0.6018693542 -0.2522028813 -5.931546788e-16)
(0.4685506327 -0.191742604 2.696061491e-17)
(0.7589078266 -0.1842845036 -3.268970953e-16)
(0.6230833803 -0.1349847895 -6.486858031e-17)
(0.8566023995 -0.1371620995 -7.784001588e-17)
(0.7274631096 -0.09942372136 -1.756924185e-16)
(0.9213161081 -0.1029419397 -8.31356884e-17)
(0.7993756473 -0.07601058922 -1.560428628e-16)
(0.9664283669 -0.07727095445 -1.007561205e-16)
(0.8493236521 -0.05975110193 -1.350127347e-16)
(0.9990915629 -0.05746019746 1.020412579e-16)
(0.8838504273 -0.04781284101 -1.88886163e-17)
(1.023320892 -0.04173577831 6.028095208e-17)
(0.9071570108 -0.03849183242 9.197579395e-17)
(1.041457015 -0.02893846715 -1.025255278e-16)
(0.9220156596 -0.03062693276 8.73124531e-17)
(1.054864383 -0.01838278429 5.505263808e-17)
(0.9303375721 -0.0232755639 -1.016807994e-16)
(1.064262436 -0.009763506883 1.245471274e-16)
(0.9335446537 -0.01551023521 8.69881814e-17)
(1.069901747 -0.003259771434 -2.77818508e-17)
(0.9327603285 -0.006102696599 1.645449971e-16)
(0.3754470227 -0.4504218367 4.841254256e-16)
(0.2679811788 -0.3615335267 2.399215762e-16)
(0.6337363224 -0.3181158411 7.042594987e-16)
(0.4927260545 -0.241685471 -6.02814014e-17)
(0.7821301957 -0.2322674545 3.173486018e-16)
(0.6400327951 -0.1699351283 1.305722265e-16)
(0.8738279963 -0.1726898324 3.177114705e-17)
(0.7398841164 -0.1249586673 1.859339057e-16)
(0.9341873091 -0.1294064524 1.562581684e-16)
(0.8088156069 -0.09532496855 1.738104833e-16)
(0.9760338795 -0.09691683252 -3.480264589e-17)
(0.8566939 -0.0747240688 2.388221344e-16)
(1.006177611 -0.07182464274 -2.158167763e-16)
(0.8897017 -0.05957899962 1.571669259e-16)
(1.028405976 -0.05188910929 -2.304203643e-16)
(0.9118249927 -0.04774130483 -8.026331339e-17)
(1.044905534 -0.03564150727 4.366578521e-17)
(0.9256948583 -0.03775553114 -7.337812283e-17)
(1.056936985 -0.02220459568 -1.885956049e-17)
(0.9331174287 -0.02845250254 3.500501836e-17)
(1.065145433 -0.01118412833 -1.388521633e-16)
(0.9354347188 -0.01868031182 -1.477263331e-18)
(1.069715831 -0.002727897694 -1.798532936e-16)
(0.9337173248 -0.006933227367 5.375869858e-17)
(0.4308233138 -0.538278523 -3.730435208e-16)
(0.3123804688 -0.4319939698 -2.174273324e-16)
(0.6728042865 -0.3800534492 -5.247736243e-16)
(0.5223472828 -0.2886500799 -2.284639097e-17)
(0.810611078 -0.2773768099 -1.887470116e-16)
(0.6608044351 -0.2028185482 -2.514485047e-16)
(0.8949533378 -0.2061015324 6.240228098e-17)
(0.755102898 -0.1490020474 -2.536182837e-16)
(0.9499609846 -0.1543033514 -3.050555205e-16)
(0.82036796 -0.113529015 5.349463435e-17)
(0.9877818309 -0.1154054918 -3.218643453e-17)
(0.8656882985 -0.08885040332 -1.13440343e-16)
(1.014807208 -0.08534590138 5.936509272e-17)
(0.8968054451 -0.07068437496 3.000114493e-17)
(1.03454923 -0.06144628769 7.251709629e-17)
(0.9174382589 -0.05645289219 1.520364977e-16)
(1.049016633 -0.04195897089 1.24315386e-16)
(0.9300321824 -0.04439648269 -4.182663939e-17)
(1.059370876 -0.02585669268 1.25894326e-16)
(0.9362412197 -0.03307931104 -8.551377401e-17)
(1.066229776 -0.01271633142 2.417237864e-16)
(0.9372642368 -0.02107650968 -1.230036199e-17)
(1.069865517 -0.002772614839 2.198144427e-16)
(0.9339513229 -0.006863482843 -4.994438246e-17)
(0.4956930392 -0.6193849515 -6.12797733e-17)
(0.3643945611 -0.4970199649 9.406933091e-17)
(0.7185431656 -0.4372300045 5.371357675e-16)
(0.5570299187 -0.3319692832 -7.562051956e-17)
(0.843928886 -0.3189979169 6.826438177e-17)
(0.6851051001 -0.233126543 2.827671955e-16)
(0.919649708 -0.2369131894 1.023359084e-17)
(0.7728922244 -0.1711364524 -2.936921843e-17)
(0.9683924072 -0.177245952 4.471965813e-16)
(0.833864931 -0.1302602239 -2.214853978e-16)
(1.001509628 -0.1324249774 -1.11693077e-16)
(0.8761987565 -0.1018076722 3.158203283e-16)
(1.024901639 -0.09777462818 -2.648571192e-16)
(0.9051166341 -0.08085155051 2.551270757e-16)
(1.041755652 -0.07021070945 -3.714091668e-16)
(0.9240250222 -0.06442957868 1.513842759e-16)
(1.053864153 -0.04771554625 -3.487279573e-16)
(0.9351582787 -0.05053169352 1.560429366e-16)
(1.062250132 -0.02909921183 -1.719558753e-16)
(0.9400078644 -0.03753437963 1.227298531e-17)
(1.067434868 -0.01387832488 -1.722087384e-16)
(0.9396658984 -0.02386221391 -2.27051412e-16)
(1.069557443 -0.002127868462 1.458658901e-16)
(0.9348008748 -0.007819937068 -5.702312483e-16)
(0.5692279537 -0.6927210341 6.137181888e-16)
(0.4233606916 -0.5558248246 -3.884704947e-16)
(0.7704127708 -0.4889216509 6.484237987e-17)
(0.5963625956 -0.37115949 -3.607407723e-16)
(0.881737278 -0.3566392384 2.397525676e-16)
(0.7126798289 -0.2605618438 -4.086578614e-16)
(0.9476899468 -0.2647882871 1.785419178e-16)
(0.7930897447 -0.191192564 -2.694525517e-17)
(0.9893263651 -0.1980124184 -9.068114976e-17)
(0.8491928066 -0.1454427806 1.191723954e-16)
(1.017099384 -0.1478408865 1.979951829e-16)
(0.8881306704 -0.1135875786 -2.80810184e-16)
(1.03635478 -0.1090408836 1.454460097e-16)
(0.9145400088 -0.09011037438 -2.469618476e-16)
(1.049917231 -0.07816070185 3.874813178e-16)
(0.9314724499 -0.0716872827 -3.595997676e-16)
(1.059347762 -0.05294704754 4.861374766e-16)
(0.9409130282 -0.05604376249 -3.827162987e-16)
(1.065539868 -0.03208930526 3.658792035e-16)
(0.9441271278 -0.04129650894 -2.979964824e-16)
(1.068979278 -0.01512871523 5.535644831e-16)
(0.9419689795 -0.02559748802 -2.231699712e-16)
(1.069782033 -0.002199351093 1.869548927e-16)
(0.9353003076 -0.00781340581 1.040384845e-16)
(0.6505195172 -0.7573605997 -9.456205383e-16)
(0.4885455842 -0.6076573073 4.137393741e-16)
(0.8277292139 -0.5344963171 -4.182688719e-16)
(0.6398176451 -0.405685331 4.34032921e-16)
(0.9234798857 -0.3898135794 -6.920372756e-17)
(0.7431147321 -0.2847115371 6.415563457e-17)
(0.9786181103 -0.2893422981 -1.739954244e-16)
(0.8153549342 -0.2088212243 -9.091367402e-18)
(1.012391781 -0.2162876666 -1.677242148e-16)
(0.8660683445 -0.1587580226 1.791042291e-18)
(1.034257504 -0.1613871065 -3.996025354e-16)
(0.9012524385 -0.1238887016 5.23151161e-16)
(1.04894636 -0.1189188889 -4.244665828e-16)
(0.9248942148 -0.09818506002 5.315068562e-16)
(1.058879059 -0.08510625204 -4.717407606e-16)
(0.939652214 -0.07802153546 5.549787863e-16)
(1.065357812 -0.0574739356 -5.194583708e-16)
(0.9472384633 -0.06092819867 4.999809855e-16)
(1.069144216 -0.03455877002 -2.193259766e-16)
(0.9486762954 -0.04487745365 7.856791207e-17)
(1.070753486 -0.01578194386 -1.278630543e-16)
(0.9444949832 -0.02794752027 -2.748684107e-16)
(1.0704586 -0.00106850168 4.56036494e-16)
(0.9353115318 -0.008969084288 -9.445951778e-16)
(0.7385289951 -0.8124976094 1.006698681e-15)
(0.5591176609 -0.6518568364 -1.022765789e-15)
(0.8898017102 -0.5733469875 1.177945899e-15)
(0.686887526 -0.4351326513 -8.109114425e-16)
(0.9687222971 -0.4180952163 4.527607977e-16)
(0.7761106953 -0.3053181186 -1.969272369e-16)
(1.01217038 -0.3102775008 3.075967486e-16)
(0.8395214563 -0.2238783562 1.200382278e-16)
(1.037440279 -0.2318754462 3.596807712e-16)
(0.8844078447 -0.1701508153 -7.404937417e-18)
(1.052910764 -0.1729491627 3.441925301e-16)
(0.9155295528 -0.1327244163 -3.133820994e-16)
(1.062647856 -0.1273562254 1.99372595e-16)
(0.9361724852 -0.1051293178 -5.059596165e-16)
(1.068636174 -0.09103962417 3.351678082e-16)
(0.9485743534 -0.08347364286 -7.277353303e-16)
(1.071898776 -0.06133871036 5.674951706e-16)
(0.9541613005 -0.06510626191 -7.552998575e-16)
(1.073041221 -0.03667623556 4.40505567e-16)
(0.9537223608 -0.04787361833 -3.971969326e-16)
(1.072520662 -0.01637285474 4.933474294e-16)
(0.9475226121 -0.02979333113 -2.09945625e-16)
(1.070655457 -0.0003735526243 1.841451013e-16)
(0.9357930029 -0.008982435946 3.113854407e-16)
(0.8321661695 -0.8574303621 -5.292585675e-16)
(0.6342089552 -0.6878969482 6.395052255e-16)
(0.9558235715 -0.6050369394 -4.909819301e-16)
(0.736939898 -0.4591363816 1.320506712e-16)
(1.016798608 -0.4411628071 -4.094160094e-17)
(0.8111563953 -0.3221026274 -2.128349451e-16)
(1.047780834 -0.32734737 -2.052610145e-16)
(0.8651475554 -0.2361224639 -4.024228052e-16)
(1.063983349 -0.2445731552 -3.486785335e-16)
(0.9038165343 -0.1793881868 -1.840805793e-16)
(1.072637479 -0.1823505351 -3.715677299e-16)
(0.9306060943 -0.1398583822 4.642083325e-16)
(1.077100579 -0.1341978708 -4.461145359e-16)
(0.9480567711 -0.1107105515 7.699087556e-16)
(1.078889511 -0.09583287754 -3.883345604e-16)
(0.9579596449 -0.08784884916 8.962280161e-16)
(1.078720596 -0.0644407904 -5.55381585e-16)
(0.9614372667 -0.06849528704 7.963702409e-16)
(1.077013355 -0.03833058518 -3.312636367e-16)
(0.9590358618 -0.05041917626 1.749954863e-16)
(1.074117195 -0.01669834932 -6.864134772e-17)
(0.9507732639 -0.03156483193 -4.395107824e-16)
(1.070416039 0.0004519287754 4.036004327e-16)
(0.936264253 -0.009393448339 -7.704227578e-16)
(0.9302380166 -0.8916024973 4.05979207e-16)
(0.7128447531 -0.7152732289 -5.144537402e-16)
(1.024986051 -0.6290950098 5.112745483e-16)
(0.7893839713 -0.4773606862 -2.633095527e-16)
(1.067206357 -0.4586614997 2.35602152e-16)
(0.8479178361 -0.3348418238 1.999317276e-16)
(1.085163527 -0.3402862765 1.724291385e-16)
(0.8920716162 -0.2454185388 5.306132253e-16)
(1.091892038 -0.2541926548 3.522630305e-16)
(0.924249554 -0.1864112531 2.180555547e-16)
(1.093420384 -0.1894709326 1.825560656e-16)
(0.9465142661 -0.1452964445 -2.599204092e-16)
(1.092361085 -0.1393788129 3.16069006e-16)
(0.9606244351 -0.1149787762 -5.960710916e-16)
(1.089736957 -0.0994607929 2.800578097e-16)
(0.9679032775 -0.09119985594 -8.903663539e-16)
(1.085937197 -0.06678841126 3.673847455e-16)
(0.9691612593 -0.0710736875 -5.67023563e-16)
(1.081177729 -0.03960145821 1.965107704e-16)
(0.9647162677 -0.05229347161 -3.708821669e-16)
(1.075669053 -0.01703623545 3.98064071e-16)
(0.9544128795 -0.03272408733 -1.37145776e-16)
(1.069798046 0.0008556689524 2.260065264e-16)
(0.9372347089 -0.009287138613 1.383180302e-16)
(1.031527385 -0.9145759408 -1.052224867e-16)
(0.794081383 -0.7337144674 3.974590774e-17)
(1.096406866 -0.6453132628 1.462552762e-17)
(0.8435288018 -0.4896409699 -1.992431835e-16)
(1.119209998 -0.4704690878 -4.223832848e-17)
(0.8858215521 -0.3434233574 -7.950366176e-17)
(1.123674495 -0.3490209573 -2.213765541e-16)
(0.9197772536 -0.2516692334 -4.208513237e-16)
(1.120584781 -0.2606825338 -2.242000953e-16)
(0.9452201797 -0.1911128647 -6.058779e-17)
(1.114728194 -0.1942635006 -2.784257264e-16)
(0.9627884692 -0.1489081448 4.253787899e-16)
(1.107949978 -0.1428487321 -6.761508748e-16)
(0.973435289 -0.1177799336 8.969014704e-16)
(1.10076453 -0.1018693672 -6.15096398e-16)
(0.9780027134 -0.09336664305 9.166824594e-16)
(1.093223086 -0.06832297598 -3.787530418e-16)
(0.9769773857 -0.072717355 4.765350139e-16)
(1.085329199 -0.04040321721 -3.213824195e-18)
(0.9704267695 -0.05347547592 5.695063639e-17)
(1.07715245 -0.01721828652 -2.026658e-17)
(0.9579989247 -0.03342286361 -1.375102058e-16)
(1.069054469 0.001131833888 1.394498248e-16)
(0.9381555277 -0.009196039476 -4.445190654e-16)
(1.13474388 -0.9260689668 4.931763588e-17)
(0.8768334314 -0.7428931148 -5.74700193e-18)
(1.169188831 -0.6533692874 -7.554408246e-17)
(0.8987129343 -0.4957252488 7.031636405e-17)
(1.17225287 -0.4763025236 1.00486067e-16)
(0.9245015224 -0.3476512896 -1.309849713e-16)
(1.163011355 -0.3533078638 2.610209726e-16)
(0.9481063967 -0.2547307977 1.084868463e-16)
(1.149954184 -0.2638420539 2.080668369e-16)
(0.966721268 -0.1934041704 -1.328967434e-16)
(1.136601781 -0.1965732204 3.585024765e-16)
(0.9795306879 -0.1506627624 -4.047341122e-16)
(1.124013557 -0.1444990608 5.071874917e-16)
(0.9866630374 -0.1191393994 -6.01841869e-16)
(1.11218037 -0.1029938937 4.787289603e-16)
(0.98846524 -0.09441691204 -5.786618002e-16)
(1.100803918 -0.06902058991 2.010716622e-16)
(0.985092013 -0.07350487013 -1.929773112e-16)
(1.089671594 -0.04075991067 -1.060001675e-16)
(0.9763585861 -0.05400271929 5.692912796e-17)
(1.078732773 -0.01734398944 3.344616156e-17)
(0.9617361478 -0.03360393876 8.886006421e-19)
(1.068294369 0.001102686259 8.548412337e-17)
(0.9394348912 -0.008976318665 1.593027502e-17)
(1.238608444 -0.925931193 1.036694077e-17)
(0.960147083 -0.7428112671 -5.834833107e-17)
(1.242432749 -0.6533037322 -6.186101652e-17)
(0.9542415868 -0.4956677785 1.915395442e-16)
(1.225582598 -0.476260434 -8.914026453e-17)
(0.9633693483 -0.3476025807 2.577272428e-16)
(1.202498306 -0.3532735574 -2.337891939e-16)
(0.9765088557 -0.2546797346 2.107120305e-16)
(1.179364148 -0.2638049306 -1.124363066e-16)
(0.988207621 -0.1933414483 1.542308076e-16)
(1.158428198 -0.1965243635 -4.009463876e-16)
(0.9961884259 -0.1505796615 3.208743736e-16)
(1.13996385 -0.1444298242 -3.054220462e-16)
(0.9997520014 -0.1190284642 3.282263929e-16)
(1.123442902 -0.1028962347 -4.443683703e-16)
(0.99874859 -0.0942740156 3.992324702e-16)
(1.108225996 -0.068889637 -2.220840996e-16)
(0.9929940581 -0.07333136121 9.339441749e-17)
(1.093899699 -0.04060300793 1.495043058e-17)
(0.982022648 -0.05379449073 -1.042023664e-16)
(1.080340241 -0.01722271169 -2.941915701e-17)
(0.965061244 -0.03331455549 5.032106104e-17)
(1.067815793 0.001124595206 -2.163948206e-16)
(0.940239725 -0.008840745991 2.603224471e-16)
(1.341793795 -0.9141680043 -1.345568697e-16)
(1.042860562 -0.733331114 2.359552656e-16)
(1.315180731 -0.644951668 -1.741152952e-16)
(1.009392684 -0.4893049493 -1.828010376e-16)
(1.278595927 -0.4701325801 5.316637873e-17)
(1.00202233 -0.3431034523 -3.798693325e-16)
(1.241812061 -0.3486876266 2.222874131e-16)
(1.004817096 -0.2513469809 -4.820398438e-16)
(1.208718114 -0.2603364816 4.062127934e-17)
(1.009694805 -0.1907767959 -3.506619905e-16)
(1.180295957 -0.1938921511 4.814152801e-16)
(1.012924909 -0.1485507944 -3.437146387e-16)
(1.156033774 -0.1424413183 3.494077806e-16)
(1.012981997 -0.117398192 -2.818296439e-16)
(1.134880248 -0.1014166769 3.695161133e-16)
(1.009216895 -0.09296266495 -9.494274192e-17)
(1.115847799 -0.06782094127 1.112106955e-16)
(1.001105048 -0.07229685401 1.352340207e-16)
(1.098316093 -0.03987367038 -1.035267914e-16)
(0.9879019099 -0.05300976316 2.524686202e-16)
(1.082100973 -0.01681578384 -9.826607719e-17)
(0.9685931069 -0.03274675559 6.708450194e-17)
(1.067415793 0.001258016234 5.431367071e-17)
(0.9414620161 -0.008868645882 -2.257472904e-16)
(1.443027394 -0.8909254804 9.231284405e-17)
(1.124079513 -0.7147297136 -1.940074998e-16)
(1.386581279 -0.6286052534 1.343837153e-16)
(1.063528307 -0.4769123816 1.535058931e-16)
(1.330585576 -0.4582433003 -7.74467921e-18)
(1.039914171 -0.3344280917 3.577719004e-16)
(1.280304076 -0.3398882701 -7.15443757e-17)
(1.032502465 -0.245000583 4.801044203e-16)
(1.237380428 -0.2537793687 3.363342398e-17)
(1.03063109 -0.1859612467 4.141702822e-16)
(1.201556339 -0.1890128449 -2.669225032e-16)
(1.029143558 -0.1447923661 1.55749729e-16)
(1.171554462 -0.1388463522 -1.921822958e-16)
(1.02570669 -0.1144070091 1.53890013e-16)
(1.145821235 -0.09882099073 -3.763240248e-16)
(1.019185375 -0.09056269201 -1.567927357e-17)
(1.123047297 -0.06600658428 -1.025724151e-16)
(1.008718786 -0.07039761534 -2.355386896e-16)
(1.102441807 -0.03866507257 1.308344942e-16)
(0.993262856 -0.05159518817 -2.133041276e-16)
(1.083818485 -0.01608639658 3.295088855e-17)
(0.9714852511 -0.03189628617 1.301443558e-16)
(1.067405002 0.001689605873 -2.712379274e-16)
(0.9417576478 -0.009100361712 5.528146555e-16)
(1.541007021 -0.8564954652 -2.140236139e-16)
(1.202601044 -0.6870664867 4.239548657e-16)
(1.455642559 -0.6042634152 -3.548593655e-16)
(1.115873948 -0.4584214844 4.292780498e-17)
(1.380904397 -0.4404604681 -3.074791691e-17)
(1.076593953 -0.3214263241 -3.977538483e-16)
(1.317615339 -0.3266567972 1.507966566e-16)
(1.059361257 -0.2354373429 -5.386742504e-16)
(1.265237899 -0.243850907 1.051798746e-16)
(1.051017969 -0.1786629659 -5.490121648e-16)
(1.222312482 -0.1815590013 3.517504679e-16)
(1.045029953 -0.1390726002 -3.036966142e-16)
(1.186817148 -0.1332974633 2.997919646e-16)
(1.038282404 -0.1098599049 -3.186693444e-16)
(1.156700533 -0.09477409954 5.454026747e-16)
(1.029168457 -0.08695659252 -7.423333313e-17)
(1.130317114 -0.06315941844 2.12742735e-16)
(1.016504914 -0.06762380741 1.204898062e-16)
(1.106667751 -0.03676558616 -6.421283433e-17)
(0.9989793452 -0.04964444115 1.597102999e-16)
(1.085495687 -0.01489694103 -1.859812801e-16)
(0.9749977617 -0.03089666557 6.394876958e-17)
(1.066999804 0.002486651124 -1.518453914e-16)
(0.9430040701 -0.00948390777 -9.831142116e-17)
(1.634534961 -0.811312668 2.798506366e-16)
(1.277658671 -0.6508763966 -3.765622565e-16)
(1.521625787 -0.5724535685 4.673272864e-16)
(1.165909818 -0.4343125481 -1.94131102e-16)
(1.428955593 -0.4173174656 8.883005928e-17)
(1.111619827 -0.3045569851 1.616727136e-16)
(1.353193042 -0.3095319581 -1.744124616e-17)
(1.084954625 -0.2231134382 3.83378853e-16)
(1.291728313 -0.2311039422 -1.652102136e-16)
(1.070372263 -0.1693400458 4.758173462e-16)
(1.241954609 -0.1721010505 -1.800828202e-16)
(1.060020584 -0.1318391328 3.836786093e-17)
(1.201140184 -0.1263733499 -1.143806415e-17)
(1.050039351 -0.1041623283 1.221887905e-16)
(1.16676828 -0.08983861144 -3.439851686e-16)
(1.038375345 -0.08246014121 4.828465496e-17)
(1.136900593 -0.05979080272 -1.372949637e-16)
(1.023535234 -0.06415502934 -1.911511115e-16)
(1.11039481 -0.03459807474 9.91549267e-17)
(1.003927444 -0.04719320247 -9.987513144e-17)
(1.086993807 -0.01354856073 1.151972835e-16)
(0.9776429589 -0.02971550535 9.325745054e-17)
(1.066985774 0.003491349189 -8.498596771e-18)
(0.9428032578 -0.01002683907 1.71104391e-16)
(1.72239552 -0.7559418872 -3.9663763e-16)
(1.34804555 -0.6064188207 3.693897416e-16)
(1.583532514 -0.5333439969 -4.523557216e-16)
(1.212818401 -0.4046231768 2.991409462e-16)
(1.4740496 -0.3887738982 -1.794079505e-16)
(1.14447829 -0.2837071799 -3.532373034e-17)
(1.386620901 -0.2883212224 7.774186981e-17)
(1.109005136 -0.2078013601 -3.755201993e-16)
(1.316678264 -0.2152157158 2.118994099e-16)
(1.088620983 -0.1576743378 -3.526083231e-16)
(1.260538647 -0.1602007798 1.359954799e-16)
(1.074243468 -0.1227116194 -1.009881052e-16)
(1.214803161 -0.1175434815 1.184425425e-16)
(1.061320831 -0.09691636839 -2.000556369e-16)
(1.176503882 -0.08343277477 2.472862302e-16)
(1.047392347 -0.07672104523 -3.521669789e-17)
(1.143382521 -0.05533065107 8.107350141e-17)
(1.030698616 -0.05974871175 1.28438628e-16)
(1.114061827 -0.03168806473 -1.304208166e-16)
(1.009450132 -0.04411829599 1.221582695e-16)
(1.088093234 -0.01176929135 -2.125293765e-16)
(0.9815569546 -0.0281989299 5.513515538e-17)
(1.065739551 0.004627776186 -1.441391351e-16)
(0.9445777331 -0.01021593585 -3.980225532e-17)
(1.803528901 -0.6910832922 2.721683624e-16)
(1.413183357 -0.5544513413 -2.457192721e-16)
(1.640795134 -0.4876615291 2.156867097e-16)
(1.256252264 -0.3700012516 -1.864348866e-16)
(1.51576035 -0.3555311802 1.39378361e-16)
(1.174890944 -0.2594825764 -7.443350504e-17)
(1.417510561 -0.2637219829 -2.340671385e-17)
(1.131236309 -0.190109772 2.551341188e-16)
(1.339682601 -0.1969110104 -2.292896397e-16)
(1.105442132 -0.1443036922 2.575007424e-16)
(1.277595645 -0.1466360321 -4.800383401e-17)
(1.08728196 -0.1123600131 -4.007084622e-17)
(1.227229049 -0.1076486691 4.017760617e-17)
(1.071557619 -0.08879495058 5.916559614e-17)
(1.185203597 -0.07644751692 -4.86272066e-17)
(1.055422198 -0.07034856331 -5.186970553e-17)
(1.149004228 -0.05068105318 6.545243338e-17)
(1.036844935 -0.05486087728 -1.032612315e-16)
(1.11713633 -0.0288809886 1.056574049e-16)
(1.013805564 -0.04067022127 -7.452217023e-17)
(1.089107856 -0.01025332742 1.61273906e-16)
(0.9839957883 -0.02648367615 5.197969261e-17)
(1.065347136 0.005492218265 8.287570841e-17)
(0.9439285736 -0.01048159992 1.232611656e-16)
(1.876864551 -0.6175481175 -1.298693132e-16)
(1.471902076 -0.4954313688 2.726857345e-16)
(1.692439425 -0.4357484728 -1.59744945e-16)
(1.2953665 -0.3306067687 1.67114773e-16)
(1.553362963 -0.3176641167 -1.225831585e-16)
(1.202273221 -0.2318370149 1.16674835e-16)
(1.445370377 -0.2356045291 1.526631692e-17)
(1.151260985 -0.1698257888 -1.335547054e-16)
(1.36046012 -0.1758727784 2.357402509e-16)
(1.120618738 -0.1288661899 -2.238738467e-16)
(1.293053664 -0.1309053264 1.258998811e-16)
(1.09909896 -0.1002912465 -3.772986667e-17)
(1.238574153 -0.09601084564 -3.925768725e-17)
(1.080939259 -0.07921134411 -2.810090007e-17)
(1.19326002 -0.0680572011 -2.380243874e-17)
(1.062979029 -0.06273157609 6.02561208e-17)
(1.154303445 -0.04493590978 -1.190736331e-16)
(1.043013378 -0.04894335952 8.29669089e-17)
(1.119942209 -0.02532250415 -9.537348706e-17)
(1.018945085 -0.03638623044 4.381819333e-17)
(1.08933551 -0.008453081487 -1.19113249e-16)
(0.9884261996 -0.023952056 -4.757479613e-17)
(1.062836457 0.005911677877 -5.423011795e-17)
(0.9467276747 -0.009482699782 -1.196647543e-16)
(1.941535441 -0.5362647343 -1.783158599e-17)
(1.523857438 -0.4302878541 -2.043675937e-16)
(1.738113424 -0.3784783437 -1.47099735e-17)
(1.330024479 -0.2872000927 -6.074516544e-17)
(1.586646042 -0.2759788274 -6.104391353e-18)
(1.226552799 -0.2014600907 -7.50038156e-17)
(1.470029389 -0.2047502644 1.118600232e-17)
(1.169022982 -0.1476367901 2.77548635e-17)
(1.378835284 -0.1529092276 -1.632558918e-16)
(1.134075364 -0.1120949894 9.524174407e-17)
(1.306687766 -0.113891445 -4.532045297e-17)
(1.109548396 -0.0873094516 -1.771531302e-17)
(1.24850848 -0.08362228332 1.023878649e-16)
(1.089159821 -0.06903243603 -4.265031644e-17)
(1.20020129 -0.05937616207 7.132616492e-17)
(1.069429973 -0.05474724485 -4.013148528e-17)
(1.158755582 -0.03930844811 6.835196053e-17)
(1.047911714 -0.04279799896 -2.477325344e-17)
(1.122336553 -0.02223205829 2.370727895e-17)
(1.02230209 -0.0319471143 3.331023533e-17)
(1.090066887 -0.007364802965 -6.81919596e-18)
(0.9901192815 -0.02133417742 1.541174452e-16)
(1.062593273 0.005600993939 -6.954155044e-17)
(0.9452083502 -0.008912606553 2.077326029e-16)
(1.996669118 -0.4482523835 6.331719556e-17)
(1.567961528 -0.3596679066 2.452655254e-16)
(1.776904238 -0.3163688109 1.014260253e-17)
(1.359381117 -0.240081503 1.003716526e-16)
(1.614870316 -0.2306947649 1.395044009e-17)
(1.247083432 -0.1684143978 7.837343136e-17)
(1.49092176 -0.1711487937 -1.855509714e-18)
(1.184012684 -0.1234128048 -2.921590374e-17)
(1.394393263 -0.1277964981 1.525138113e-16)
(1.145407032 -0.09368150415 -9.655023645e-17)
(1.318234183 -0.09515133617 1.123338413e-16)
(1.118340558 -0.07293277679 -5.990963951e-17)
(1.256949288 -0.06980917642 -7.337111931e-18)
(1.096116656 -0.05761987449 -2.297411217e-17)
(1.206150721 -0.04949552786 -3.130132546e-17)
(1.075045821 -0.04564314199 3.194990822e-17)
(1.162583119 -0.0326774486 -4.687809095e-17)
(1.052611344 -0.03561775928 1.724027535e-17)
(1.12414409 -0.01838912995 -2.923018675e-17)
(1.026568787 -0.02649894531 -7.316542943e-18)
(1.089557731 -0.006045391121 -2.038134753e-17)
(0.9945537768 -0.01748095684 -8.199837968e-17)
(1.059174082 0.004371460793 3.238126976e-17)
(0.9492441916 -0.006157411063 -1.061371144e-16)
(2.041634646 -0.3546190931 -7.55175835e-17)
(1.604130886 -0.2846101442 -1.910848065e-16)
(1.808700115 -0.2503767077 -5.819569314e-17)
(1.383525739 -0.1900581801 -6.806311091e-17)
(1.638056348 -0.1826462169 -1.852976212e-17)
(1.264011388 -0.1333947676 -8.457275241e-17)
(1.508112476 -0.1355690643 5.180232496e-18)
(1.196412518 -0.09781761214 -1.526226516e-17)
(1.407217582 -0.1012977134 -6.299419223e-17)
(1.154820779 -0.07431760079 1.199544008e-17)
(1.327766397 -0.07549813987 -4.514034232e-17)
(1.125670726 -0.05792237045 2.200732502e-18)
(1.263913466 -0.05548329094 4.128379494e-17)
(1.101893714 -0.04582421571 -3.305463161e-17)
(1.211042465 -0.03946344884 6.402213662e-17)
(1.079551247 -0.03635507403 -3.907760981e-17)
(1.165780664 -0.02624120881 2.193168232e-17)
(1.055893958 -0.02840304884 1.156932027e-17)
(1.126032243 -0.01505801889 6.555949111e-19)
(1.028410946 -0.02110112961 4.069456121e-17)
(1.090626845 -0.005408377023 -2.54469811e-17)
(0.9944596269 -0.01372406623 9.702308027e-17)
(1.06056743 0.002843384009 -6.662159763e-17)
(0.9462136669 -0.004760203342 1.082262657e-16)
(2.075802462 -0.2565425629 9.591860987e-17)
(1.631408784 -0.2059336781 1.503478091e-16)
(1.832693523 -0.1811882229 4.85792184e-17)
(1.401654594 -0.1375827898 7.867448148e-17)
(1.655490626 -0.1322223157 2.301637449e-17)
(1.276665263 -0.09661427062 6.00022075e-17)
(1.520996152 -0.09817968801 2.489653573e-17)
(1.205622377 -0.07088282175 -5.541556331e-18)
(1.416785347 -0.07338855651 7.287593311e-17)
(1.16174706 -0.05387611128 -4.027885271e-17)
(1.334835133 -0.05471829027 7.432849747e-17)
(1.131000712 -0.04199930905 -3.489092637e-17)
(1.269043866 -0.04023148937 7.119489092e-18)
(1.106061657 -0.03322082017 -1.29031966e-18)
(1.214611725 -0.02864504618 -1.561653317e-17)
(1.082878088 -0.02632893234 6.52067504e-18)
(1.167994315 -0.01911746729 -1.452948746e-17)
(1.05871706 -0.02050734299 -7.083267033e-18)
(1.126893237 -0.01116458818 -6.805746533e-18)
(1.031238332 -0.01508758367 -2.128649924e-17)
(1.089838102 -0.004630313054 3.156177381e-20)
(0.9981788666 -0.009288225473 -5.289856976e-17)
(1.056898023 0.0002055649458 3.659558319e-17)
(0.9508920409 -0.001608727222 -8.093969893e-17)
(2.098807821 -0.1552536739 -8.916436203e-17)
(1.649978464 -0.1247212874 -9.817000315e-17)
(1.849015366 -0.1097784643 -7.871291539e-17)
(1.414072192 -0.08344442446 -5.146281926e-17)
(1.667411873 -0.08021122629 -3.242344796e-17)
(1.285385577 -0.05869722774 -5.112749488e-17)
(1.5298471 -0.05964424241 -1.013550445e-17)
(1.212025312 -0.04314765766 -2.820311736e-17)
(1.423401036 -0.04465872864 -1.970154815e-17)
(1.166624899 -0.03286289948 -1.126413753e-17)
(1.339767531 -0.0333676783 -1.651317427e-17)
(1.134811933 -0.02566969451 -8.246794289e-18)
(1.272666564 -0.02460608659 1.86757574e-17)
(1.109058036 -0.02033415522 -1.936070151e-17)
(1.217193304 -0.01761122619 2.871055441e-17)
(1.085141827 -0.01610687567 -1.141819014e-17)
(1.169785203 -0.01190427029 1.178799751e-17)
(1.06010214 -0.0124556404 5.781017423e-18)
(1.128252607 -0.007255886566 5.545289881e-18)
(1.031172977 -0.008886719489 1.677089695e-17)