/*--------------------------------*- C++ -*----------------------------------*\
| =========                 |                                                 |
| \\      /  F ield         | foam-extend: Open Source CFD                    |
|  \\    /   O peration     | Version:  3.0                                   |
|   \\  /    A nd           | Web:         http://www.extend-project.de       |
|    \\/     M anipulation  |                                                 |
\*---------------------------------------------------------------------------*/
FoamFile
{
    version     2.0;
    format      ascii;
    class       volVectorField;
    location    "30";
    object      s;
}
// * * * * * * * * * * * * * * * * * * * * * * * * * * * * * * * * * * * * * //

dimensions      [0 1 -1 0 0 0 0];

internalField   nonuniform List<vector> 
1280
(
(3.48552 0.340938 0)
(2.34442 0.242434 0)
(1.62169 0.178052 0)
(1.14144 0.134144 0)
(0.810636 0.102767 0)
(0.576158 0.0798137 0)
(0.406145 0.0625144 0)
(0.280498 0.0492787 0)
(0.186267 0.0389488 0)
(0.114602 0.0308278 0)
(0.0595959 0.0243343 0)
(0.0168928 0.0191931 0)
(-0.0164331 0.0150274 0)
(-0.0426654 0.0118093 0)
(-0.0635443 0.0092416 0)
(-0.0799671 0.00731818 0)
(3.38491 1.02536 0)
(2.27341 0.733605 0)
(1.56983 0.542405 0)
(1.10267 0.411756 0)
(0.781094 0.318481 0)
(0.553349 0.250115 0)
(0.388332 0.198639 0)
(0.266466 0.159195 0)
(0.175132 0.128428 0)
(0.10568 0.104173 0)
(0.0524146 0.084748 0)
(0.010998 0.0692446 0)
(-0.0212664 0.056484 0)
(-0.0468095 0.0465507 0)
(-0.0670141 0.0379787 0)
(-0.0831789 0.0323518 0)
(3.18674 1.68867 0)
(2.1339 1.20916 0)
(1.46782 0.89554 0)
(1.0265 0.681017 0)
(0.72313 0.527958 0)
(0.508693 0.4157 0)
(0.353571 0.331201 0)
(0.23921 0.266427 0)
(0.153653 0.215928 0)
(0.088621 0.176074 0)
(0.0388826 0.144234 0)
(-6.07506e-07 0.118661 0)
(-0.0299962 0.0978355 0)
(-0.0544034 0.0811132 0)
(-0.0728584 0.0672259 0)
(-0.0890934 0.0567257 0)
(2.89528 2.31608 0)
(1.92845 1.659 0)
(1.31794 1.2302 0)
(0.914557 0.936595 0)
(0.637999 0.727203 0)
(0.443133 0.573553 0)
(0.302602 0.457905 0)
(0.199339 0.369227 0)
(0.122335 0.300117 0)
(0.0639759 0.245544 0)
(0.0194787 0.202034 0)
(-0.0152368 0.166967 0)
(-0.0419632 0.138661 0)
(-0.0636513 0.115464 0)
(-0.0800737 0.0967849 0)
(-0.0942889 0.0810302 0)
(2.51716 2.89263 0)
(1.66179 2.0737 0)
(1.12348 1.53948 0)
(0.769277 1.17349 0)
(0.527505 0.912448 0)
(0.35803 0.720822 0)
(0.236442 0.576566 0)
(0.147604 0.465914 0)
(0.0817381 0.379669 0)
(0.0320958 0.311536 0)
(-0.00551165 0.257227 0)
(-0.0347197 0.213401 0)
(-0.0570236 0.178042 0)
(-0.0750489 0.148963 0)
(-0.0886002 0.125487 0)
(-0.10015 0.105624 0)
(2.06117 3.40623 0)
(1.34006 2.44458 0)
(0.888757 1.81718 0)
(0.593818 1.38708 0)
(0.394 1.08025 0)
(0.255144 0.854893 0)
(0.156425 0.685189 0)
(0.0850178 0.554962 0)
(0.0326248 0.453429 0)
(-0.00643604 0.373181 0)
(-0.0356912 0.309201 0)
(-0.0581593 0.257525 0)
(-0.0751171 0.215821 0)
(-0.0886605 0.181454 0)
(-0.0987564 0.153664 0)
(-0.107237 0.130147 0)
(1.5378 3.84614 0)
(0.970522 2.76409 0)
(0.618977 2.0578 0)
(0.39199 1.57333 0)
(0.240305 1.22754 0)
(0.136587 0.973436 0)
(0.0641297 0.781977 0)
(0.0127489 0.634976 0)
(-0.0241493 0.520295 0)
(-0.0510328 0.429602 0)
(-0.0706576 0.357236 0)
(-0.0853664 0.298755 0)
(-0.0961336 0.251479 0)
(-0.104552 0.212536 0)
(-0.11061 0.180914 0)
(-0.115644 0.154286 0)
(0.959039 4.20335 0)
(0.56152 3.02584 0)
(0.320101 2.25673 0)
(0.168158 1.7288 0)
(0.0696594 1.35174 0)
(0.00477919 1.07447 0)
(-0.0386318 0.865412 0)
(-0.0678532 0.704783 0)
(-0.0875945 0.579368 0)
(-0.100993 0.480113 0)
(-0.109947 0.400829 0)
(-0.116074 0.336715 0)
(-0.119987 0.284789 0)
(-0.122778 0.242018 0)
(-0.124368 0.207163 0)
(-0.125669 0.177904 0)
(0.338102 4.47076 0)
(0.12223 3.22481 0)
(-0.00129187 2.4103 0)
(-0.0728607 1.85077 0)
(-0.114363 1.45078 0)
(-0.137607 1.15642 0)
(-0.149859 0.934255 0)
(-0.155301 0.763413 0)
(-0.156618 0.629883 0)
(-0.155534 0.524106 0)
(-0.153019 0.439499 0)
(-0.149937 0.371023 0)
(-0.14648 0.315453 0)
(-0.143255 0.269673 0)
(-0.140041 0.232242 0)
(-0.137378 0.200884 0)
(-0.31089 4.64337 0)
(-0.337527 3.35746 0)
(-0.338161 2.51592 0)
(-0.325909 1.93726 0)
(-0.307933 1.52316 0)
(-0.287706 1.2181 0)
(-0.267406 0.987594 0)
(-0.247991 0.810143 0)
(-0.230036 0.671267 0)
(-0.213804 0.561123 0)
(-0.199279 0.472886 0)
(-0.186569 0.401389 0)
(-0.175389 0.343244 0)
(-0.165891 0.295311 0)
(-0.157635 0.255997 0)
(-0.150854 0.223085 0)
(-0.973233 4.71842 0)
(-0.807527 3.42177 0)
(-0.683171 2.57208 0)
(-0.585609 1.98715 0)
(-0.507056 1.56797 0)
(-0.442527 1.2588 0)
(-0.389027 1.02485 0)
(-0.344248 0.844501 0)
(-0.306612 0.70313 0)
(-0.274903 0.59084 0)
(-0.248096 0.500719 0)
(-0.225541 0.427584 0)
(-0.206449 0.367973 0)
(-0.190533 0.318771 0)
(-0.177104 0.278294 0)
(-0.166101 0.244392 0)
(-1.63401 4.69544 0)
(-1.27739 3.41736 0)
(-1.02886 2.57845 0)
(-0.846492 2.00012 0)
(-0.70766 1.58495 0)
(-0.599018 1.27828 0)
(-0.512426 1.04579 0)
(-0.442345 0.866271 0)
(-0.385055 0.725271 0)
(-0.337879 0.613064 0)
(-0.298779 0.52281 0)
(-0.266371 0.449421 0)
(-0.239337 0.389449 0)
(-0.216996 0.339862 0)
(-0.198358 0.298933 0)
(-0.183135 0.264614 0)
(-2.27842 4.57627 0)
(-1.73681 3.34539 0)
(-1.36784 2.53581 0)
(-1.10312 1.97668 0)
(-0.905705 1.57443 0)
(-0.754142 1.27674 0)
(-0.635322 1.05054 0)
(-0.540576 0.875505 0)
(-0.464103 0.737691 0)
(-0.401821 0.627753 0)
(-0.35069 0.539095 0)
(-0.308632 0.466808 0)
(-0.273797 0.407578 0)
(-0.245135 0.358467 0)
(-0.221356 0.317808 0)
(-0.201945 0.283626 0)
(-2.89216 4.36497 0)
(-2.17586 3.20866 0)
(-1.69293 2.44607 0)
(-1.35024 1.91819 0)
(-1.09725 1.53736 0)
(-0.904938 1.25485 0)
(-0.755469 1.03956 0)
(-0.637235 0.872517 0)
(-0.542461 0.740585 0)
(-0.465743 0.635013 0)
(-0.403081 0.549586 0)
(-0.351772 0.479693 0)
(-0.309403 0.422202 0)
(-0.274684 0.374385 0)
(-0.245902 0.334601 0)
(-0.222528 0.301088 0)
(-3.46176 4.06777 0)
(-2.58508 3.01138 0)
(-1.9974 2.31221 0)
(-1.58284 1.82677 0)
(-1.27859 1.47528 0)
(-1.04861 1.21372 0)
(-0.870761 1.01363 0)
(-0.730748 0.857852 0)
(-0.618978 0.734326 0)
(-0.528837 0.635064 0)
(-0.455435 0.554428 0)
(-0.395491 0.488096 0)
(-0.346081 0.433372 0)
(-0.305652 0.387544 0)
(-0.272174 0.349345 0)
(-0.244988 0.317022 0)
(-3.97487 3.69288 0)
(-2.95596 2.75926 0)
(-2.27499 2.13823 0)
(-1.79638 1.70528 0)
(-1.44628 1.39026 0)
(-1.18254 1.15486 0)
(-0.979202 0.973887 0)
(-0.81957 0.832341 0)
(-0.692443 0.719518 0)
(-0.590136 0.628374 0)
(-0.506952 0.553914 0)
(-0.439134 0.492271 0)
(-0.383178 0.441063 0)
(-0.337588 0.397894 0)
(-0.29948 0.361588 0)
(-0.269397 0.330831 0)
(-4.4213 3.25026 0)
(-3.28078 2.45916 0)
(-2.52031 1.92894 0)
(-1.98677 1.55724 0)
(-1.59729 1.28486 0)
(-1.30444 1.08014 0)
(-1.07904 0.921666 0)
(-0.902379 0.796934 0)
(-0.761895 0.696829 0)
(-0.648979 0.615333 0)
(-0.557289 0.548354 0)
(-0.482594 0.492223 0)
(-0.421053 0.445546 0)
(-0.370887 0.405154 0)
(-0.329001 0.371789 0)
(-0.295624 0.341708 0)
(-4.79149 2.75196 0)
(-3.55325 2.11883 0)
(-2.72864 1.69007 0)
(-2.15058 1.38667 0)
(-1.72899 1.16206 0)
(-1.41228 0.991764 0)
(-1.16871 0.858616 0)
(-0.977934 0.752891 0)
(-0.826326 0.667224 0)
(-0.70449 0.596834 0)
(-0.605668 0.538438 0)
(-0.525038 0.489036 0)
(-0.458862 0.447547 0)
(-0.40444 0.411359 0)
(-0.359584 0.38106 0)
(-0.322372 0.353596 0)
(-5.07786 2.21011 0)
(-3.76834 1.74723 0)
(-2.89629 1.42776 0)
(-2.28505 1.19812 0)
(-1.83928 1.02515 0)
(-1.50445 0.892139 0)
(-1.24693 0.78648 0)
(-1.04523 0.701433 0)
(-0.884906 0.631514 0)
(-0.756015 0.573262 0)
(-0.651431 0.524312 0)
(-0.566003 0.482287 0)
(-0.495818 0.446634 0)
(-0.437964 0.415042 0)
(-0.390131 0.388352 0)
(-0.350422 0.363886 0)
(-5.27554 1.63857 0)
(-3.92234 1.35373 0)
(-3.02059 1.14876 0)
(-2.38814 0.99643 0)
(-1.92659 0.877699 0)
(-1.57973 0.7839 0)
(-1.31274 0.707221 0)
(-1.10349 0.644021 0)
(-0.937028 0.590783 0)
(-0.803063 0.545459 0)
(-0.694276 0.506566 0)
(-0.605235 0.472511 0)
(-0.532056 0.443059 0)
(-0.471468 0.416522 0)
(-0.421425 0.393627 0)
(-0.379544 0.372383 0)
(-5.38162 1.0515 0)
(-4.01322 0.948175 0)
(-3.09996 0.860001 0)
(-2.45864 0.78667 0)
(-1.98996 0.723417 0)
(-1.63731 0.669783 0)
(-1.36548 0.622831 0)
(-1.15215 0.582075 0)
(-0.982188 0.546007 0)
(-0.845188 0.514006 0)
(-0.733742 0.48551 0)
(-0.642337 0.459682 0)
(-0.567045 0.436701 0)
(-0.504566 0.415371 0)
(-0.452787 0.396527 0)
(-0.409435 0.378612 0)
(-5.39553 0.463374 0)
(-4.04037 0.540526 0)
(-3.13391 0.568615 0)
(-2.49611 0.573994 0)
(-2.02899 0.566101 0)
(-1.67685 0.552593 0)
(-1.40483 0.535389 0)
(-1.19093 0.517128 0)
(-1.02015 0.498298 0)
(-0.882195 0.479697 0)
(-0.769712 0.461673 0)
(-0.677219 0.444146 0)
(-0.600839 0.427688 0)
(-0.537262 0.411614 0)
(-0.484427 0.396848 0)
(-0.440056 0.382269 0)
(-5.31889 -0.111501 0)
(-4.00483 0.140678 0)
(-3.12308 0.281638 0)
(-2.50094 0.363532 0)
(-2.04388 0.409523 0)
(-1.69842 0.43512 0)
(-1.43078 0.44695 0)
(-1.21977 0.450674 0)
(-1.0508 0.448721 0)
(-0.913923 0.443254 0)
(-0.801984 0.435519 0)
(-0.709657 0.426144 0)
(-0.633166 0.41613 0)
(-0.569294 0.405221 0)
(-0.516017 0.394529 0)
(-0.471159 0.383225 0)
(-5.15553 -0.659278 0)
(-3.90912 -0.241795 0)
(-3.06917 0.00590673 0)
(-2.47428 0.160255 0)
(-2.03545 0.257348 0)
(-1.70257 0.320084 0)
(-1.44368 0.359535 0)
(-1.23886 0.384205 0)
(-1.07423 0.398361 0)
(-0.940401 0.40545 0)
(-0.830545 0.407572 0)
(-0.739599 0.406016 0)
(-0.663962 0.4022 0)
(-0.600555 0.396261 0)
(-0.547451 0.389506 0)
(-0.502565 0.38137 0)
(-4.91138 -1.16694 0)
(-3.75723 -0.597874 0)
(-2.97496 -0.252139 0)
(-2.41806 -0.0311388 0)
(-2.00502 0.113046 0)
(-1.69023 0.210063 0)
(-1.44416 0.27506 0)
(-1.24861 0.319137 0)
(-1.09069 0.348251 0)
(-0.961737 0.36702 0)
(-0.855402 0.378337 0)
(-0.766969 0.384087 0)
(-0.69309 0.38609 0)
(-0.630859 0.384816 0)
(-0.578506 0.381796 0)
(-0.534026 0.376649 0)
(-4.59432 -1.62257 0)
(-3.55449 -0.919311 0)
(-2.84414 -0.486597 0)
(-2.33491 -0.206342 0)
(-1.95448 -0.0201944 0)
(-1.66271 0.107435 0)
(-1.43314 0.195302 0)
(-1.24965 0.256795 0)
(-1.10057 0.29937 0)
(-0.978164 0.328678 0)
(-0.876657 0.348319 0)
(-0.791767 0.360704 0)
(-0.720465 0.368015 0)
(-0.660059 0.371014 0)
(-0.60897 0.371433 0)
(-0.56531 0.369063 0)
(-4.21397 -2.01573 0)
(-3.30745 -1.19883 0)
(-2.68131 -0.692258 0)
(-2.22808 -0.361538 0)
(-1.88614 -0.139541 0)
(-1.62168 0.0143196 0)
(-1.41181 0.121852 0)
(-1.24279 0.198368 0)
(-1.10442 0.252599 0)
(-0.99001 0.291066 0)
(-0.894478 0.317975 0)
(-0.814032 0.336175 0)
(-0.746037 0.34817 0)
(-0.688015 0.354953 0)
(-0.638667 0.358458 0)
(-0.596147 0.358575 0)
(-3.78145 -2.3376 0)
(-3.0237 -1.43031 0)
(-2.49178 -0.864714 0)
(-2.10136 -0.493496 0)
(-1.80275 -0.242581 0)
(-1.56911 -0.0674684 0)
(-1.38155 0.0560841 0)
(-1.22901 0.144899 0)
(-1.1029 0.208731 0)
(-0.997687 0.254786 0)
(-0.90908 0.287755 0)
(-0.833837 0.310843 0)
(-0.769741 0.326802 0)
(-0.714593 0.336827 0)
(-0.667344 0.342985 0)
(-0.626311 0.345295 0)
(-3.30908 -2.58129 0)
(-2.71165 -1.60892 0)
(-2.28147 -1.00049 0)
(-1.959 -0.599642 0)
(-1.70735 -0.327392 0)
(-1.50721 -0.13647 0)
(-1.34396 -0.000892918 0)
(-1.20942 0.0972338 0)
(-1.09676 0.168401 0)
(-1.00169 0.22031 0)
(-0.920758 0.258002 0)
(-0.851303 0.284937 0)
(-0.791606 0.30406 0)
(-0.739684 0.316697 0)
(-0.694888 0.32505 0)
(-0.655501 0.329173 0)
(-2.8101 -2.74194 0)
(-2.38036 -1.73125 0)
(-2.05675 -1.0971 0)
(-1.80555 -0.678132 0)
(-1.60325 -0.392565 0)
(-1.43835 -0.191604 0)
(-1.30076 -0.0482311 0)
(-1.18525 0.0560437 0)
(-1.08684 0.132155 0)
(-1.00255 0.18809 0)
(-0.929815 0.229094 0)
(-0.866582 0.258801 0)
(-0.8116 0.280235 0)
(-0.763216 0.294859 0)
(-0.721039 0.304885 0)
(-0.683564 0.310475 0)
(-2.2983 -2.81691 0)
(-2.03927 -1.79537 0)
(-1.82428 -1.15312 0)
(-1.64579 -0.727874 0)
(-1.4939 -0.437262 0)
(-1.36505 -0.232204 0)
(-1.25374 -0.0854051 0)
(-1.15776 0.0217471 0)
(-1.07402 0.100319 0)
(-1.00086 0.158377 0)
(-0.936608 0.201218 0)
(-0.879821 0.232548 0)
(-0.829809 0.255399 0)
(-0.785074 0.271309 0)
(-0.745758 0.282488 0)
(-0.71018 0.289141 0)
(-1.78771 -2.80572 0)
(-1.69797 -1.80092 0)
(-1.59084 -1.1682 0)
(-1.48457 -0.748574 0)
(-1.38282 -0.461201 0)
(-1.28986 -0.258016 0)
(-1.20475 -0.112165 0)
(-1.12827 -0.00540784 0)
(-1.05921 0.0731512 0)
(-0.997217 0.13145 0)
(-0.941495 0.174671 0)
(-0.891265 0.20653 0)
(-0.84624 0.229912 0)
(-0.805319 0.246493 0)
(-0.768829 0.258278 0)
(-0.73531 0.265656 0)
(-1.29217 -2.71026 0)
(-1.36595 -1.74903 0)
(-1.3631 -1.14312 0)
(-1.32671 -0.740714 0)
(-1.2735 -0.464696 0)
(-1.21532 -0.26922 0)
(-1.15561 -0.128609 0)
(-1.09807 -0.0254603 0)
(-1.04327 0.05065 0)
(-0.992152 0.10732 0)
(-0.94478 0.149478 0)
(-0.900951 0.180742 0)
(-0.860926 0.203768 0)
(-0.823717 0.220354 0)
(-0.790237 0.232153 0)
(-0.758549 0.2401 0)
(-0.825055 -2.53415 0)
(-1.05234 -1.64239 0)
(-1.14756 -1.07966 0)
(-1.17685 -0.705556 0)
(-1.16932 -0.448604 0)
(-1.14387 -0.266398 0)
(-1.10811 -0.135105 0)
(-1.06843 -0.0386143 0)
(-1.0271 0.0327434 0)
(-0.986296 0.0860438 0)
(-0.946811 0.125795 0)
(-0.909189 0.155494 0)
(-0.87385 0.17737 0)
(-0.840546 0.193511 0)
(-0.809741 0.204795 0)
(-0.780625 0.21317 0)
(-0.39858 -2.28343 0)
(-0.765803 -1.48506 0)
(-0.95023 -0.98064 0)
(-1.03936 -0.64508 0)
(-1.07344 -0.414331 0)
(-1.07783 -0.250539 0)
(-1.06388 -0.132342 0)
(-1.04049 -0.0453444 0)
(-1.01143 0.0191272 0)
(-0.980013 0.0673997 0)
(-0.947708 0.103532 0)
(-0.915678 0.130628 0)
(-0.884584 0.150755 0)
(-0.854716 0.16564 0)
(-0.826333 0.176293 0)
(-0.799535 0.18392 0)
(-0.0243457 -1.96626 0)
(-0.514127 -1.28235 0)
(-0.776666 -0.849833 0)
(-0.918218 -0.561936 0)
(-0.98876 -0.363769 0)
(-1.01929 -0.222986 0)
(-1.02448 -0.121267 0)
(-1.01536 -0.0462995 0)
(-0.997063 0.00935634 0)
(-0.973871 0.0511155 0)
(-0.94785 0.0824607 0)
(-0.920691 0.10604 0)
(-0.893299 0.123642 0)
(-0.866319 0.13668 0)
(-0.840099 0.146115 0)
(-0.814957 0.152715 0)
(0.28765 -1.59229 0)
(-0.304133 -1.04085 0)
(-0.63168 -0.691811 0)
(-0.816894 -0.459378 0)
(-0.917793 -0.299251 0)
(-0.970099 -0.18541 0)
(-0.991218 -0.103064 0)
(-0.993979 -0.0423043 0)
(-0.984634 0.00288367 0)
(-0.968261 0.0368468 0)
(-0.947458 0.0624212 0)
(-0.924302 0.0816883 0)
(-0.899985 0.0961633 0)
(-0.875343 0.10685 0)
(-0.850929 0.114691 0)
(-0.827107 0.120048 0)
(0.529136 -1.17255 0)
(-0.141503 -0.768074 0)
(-0.519311 -0.511858 0)
(-0.738289 -0.341167 0)
(-0.862663 -0.223483 0)
(-0.931809 -0.139755 0)
(-0.965241 -0.0791231 0)
(-0.977179 -0.0343307 0)
(-0.974744 -0.000957145 0)
(-0.963625 0.0241721 0)
(-0.946837 0.0431525 0)
(-0.926739 0.0574759 0)
(-0.90478 0.0682949 0)
(-0.881882 0.0762628 0)
(-0.858857 0.0821741 0)
(-0.835958 0.0861292 0)
(0.693696 -0.71928 0)
(-0.0306414 -0.47238 0)
(-0.442672 -0.315828 0)
(-0.684649 -0.211484 0)
(-0.825005 -0.13947 0)
(-0.905612 -0.0881845 0)
(-0.947417 -0.0509857 0)
(-0.965585 -0.0234539 0)
(-0.967837 -0.0028826 0)
(-0.960263 0.0126506 0)
(-0.946189 0.0244415 0)
(-0.928133 0.0333603 0)
(-0.907768 0.0401565 0)
(-0.886016 0.0451414 0)
(-0.863931 0.0488982 0)
(-0.841626 0.0513469 0)
(0.776961 -0.245544 0)
(0.0254436 -0.162701 0)
(-0.403896 -0.109994 0)
(-0.657512 -0.0748087 0)
(-0.805945 -0.0504431 0)
(-0.892337 -0.033024 0)
(-0.938359 -0.0203156 0)
(-0.959654 -0.0108395 0)
(-0.964247 -0.00368183 0)
(-0.95843 0.00178709 0)
(-0.945695 0.00601747 0)
(-0.928624 0.00925714 0)
(-0.909035 0.0118035 0)
(-0.88781 0.0136615 0)
(-0.86618 0.0151368 0)
(-0.844123 0.0160152 0)
(0.776717 0.23503 0)
(0.0252203 0.151657 0)
(-0.404065 0.0991081 0)
(-0.65766 0.0641907 0)
(-0.806055 0.0402353 0)
(-0.892407 0.0233031 0)
(-0.938379 0.0111574 0)
(-0.959615 0.00230301 0)
(-0.964145 -0.00416664 0)
(-0.958247 -0.00892492 0)
(-0.945445 -0.0123853 0)
(-0.928276 -0.0149169 0)
(-0.908632 -0.0166973 0)
(-0.887296 -0.0180039 0)
(-0.865641 -0.0188521 0)
(-0.843469 -0.0195296 0)
(0.692943 0.708648 0)
(-0.0313204 0.461263 0)
(-0.443194 0.304858 0)
(-0.685103 0.200782 0)
(-0.825348 0.129156 0)
(-0.905836 0.0783407 0)
(-0.947499 0.0416789 0)
(-0.965494 0.0147464 0)
(-0.967563 -0.00516325 0)
(-0.95976 -0.0200026 0)
(-0.945485 -0.031042 0)
(-0.927149 -0.0392489 0)
(-0.906611 -0.0452781 0)
(-0.884551 -0.0496779 0)
(-0.862362 -0.0527815 0)
(-0.839752 -0.0549785 0)
(0.527869 1.16167 0)
(-0.142675 0.756814 0)
(-0.520208 0.500714 0)
(-0.739076 0.330296 0)
(-0.863266 0.212955 0)
(-0.932222 0.129668 0)
(-0.965427 0.0695215 0)
(-0.97709 0.025283 0)
(-0.974364 -0.00748608 0)
(-0.962876 -0.0319598 0)
(-0.945765 -0.0502394 0)
(-0.925211 -0.063848 0)
(-0.902973 -0.0739266 0)
(-0.879559 -0.0812323 0)
(-0.856383 -0.0864802 0)
(-0.832957 -0.0900318 0)
(0.285821 1.58098 0)
(-0.305838 1.02935 0)
(-0.633 0.680395 0)
(-0.81805 0.448246 0)
(-0.918704 0.288407 0)
(-0.970758 0.174967 0)
(-0.991587 0.0930356 0)
(-0.993998 0.0327644 0)
(-0.984281 -0.0119019 0)
(-0.967446 -0.0452735 0)
(-0.946216 -0.0702225 0)
(-0.922485 -0.0887929 0)
(-0.897777 -0.102559 0)
(-0.87248 -0.112507 0)
(-0.847837 -0.11964 0)
(-0.823342 -0.124428 0)
(-0.0267215 1.95433 0)
(-0.516418 1.27052 0)
(-0.778437 0.838035 0)
(-0.91978 0.550453 0)
(-0.99002 0.35251 0)
(-1.02025 0.212086 0)
(-1.02511 0.110695 0)
(-1.0156 0.0361339 0)
(-0.996876 -0.0191145 0)
(-0.973167 -0.0603764 0)
(-0.946649 -0.0912313 0)
(-0.918838 -0.114158 0)
(-0.890975 -0.131178 0)
(-0.863233 -0.143374 0)
(-0.836756 -0.152172 0)
(-0.810828 -0.157869 0)
(-0.401529 2.27061 0)
(-0.768683 1.47276 0)
(-0.952495 0.96834 0)
(-1.04135 0.633154 0)
(-1.0751 0.402569 0)
(-1.07915 0.239099 0)
(-1.06487 0.121144 0)
(-1.04109 0.0344576 0)
(-1.01161 -0.0297347 0)
(-0.979717 -0.0776446 0)
(-0.946897 -0.113447 0)
(-0.91429 -0.140018 0)
(-0.882662 -0.159716 0)
(-0.852146 -0.173762 0)
(-0.823445 -0.183843 0)
(-0.79601 -0.190266 0)
(-0.828471 2.52018 0)
(-1.05578 1.62953 0)
(-1.1503 1.06675 0)
(-1.17926 0.693102 0)
(-1.17138 0.436273 0)
(-1.1456 0.254368 0)
(-1.10952 0.12324 0)
(-1.0695 0.0269727 0)
(-1.0278 -0.0442346 0)
(-0.986621 -0.09732 0)
(-0.946675 -0.13694 0)
(-0.908645 -0.166289 0)
(-0.872794 -0.188013 0)
(-0.839105 -0.203381 0)
(-0.807964 -0.214401 0)
(-0.7787 -0.221085 0)
(-1.29622 2.69507 0)
(-1.36981 1.73551 0)
(-1.3663 1.12951 0)
(-1.32949 0.727667 0)
(-1.27595 0.451752 0)
(-1.21745 0.256578 0)
(-1.15749 0.116079 0)
(-1.09971 0.0130781 0)
(-1.04464 -0.0629808 0)
(-0.993358 -0.119602 0)
(-0.945652 -0.161783 0)
(-0.901813 -0.192988 0)
(-0.861354 -0.216076 0)
(-0.824483 -0.232299 0)
(-0.790553 -0.244034 0)
(-0.760012 -0.250536 0)
(-1.79251 2.78966 0)
(-1.7021 1.78662 0)
(-1.5944 1.15386 0)
(-1.48764 0.734887 0)
(-1.3856 0.44764 0)
(-1.29236 0.244781 0)
(-1.20708 0.099031 0)
(-1.13047 -0.00760931 0)
(-1.06128 -0.0861484 0)
(-0.999349 -0.144502 0)
(-0.943512 -0.187776 0)
(-0.893643 -0.219814 0)
(-0.848463 -0.243237 0)
(-0.808443 -0.259965 0)
(-0.771708 -0.271521 0)
(-0.739974 -0.278549 0)
(-2.30369 2.80018 0)
(-2.04353 1.7802 0)
(-1.82808 1.13805 0)
(-1.64904 0.713537 0)
(-1.49692 0.423105 0)
(-1.36783 0.218419 0)
(-1.25645 0.0717461 0)
(-1.16045 -0.035277 0)
(-1.07673 -0.113801 0)
(-1.00381 -0.171942 0)
(-0.939656 -0.214775 0)
(-0.883474 -0.246392 0)
(-0.833562 -0.269148 0)
(-0.789934 -0.285507 0)
(-0.750607 -0.296252 0)
(-0.716626 -0.30339 0)
(-2.81578 2.72456 0)
(-2.38462 1.71522 0)
(-2.06062 1.08135 0)
(-1.80886 0.663171 0)
(-1.6064 0.377863 0)
(-1.44131 0.177337 0)
(-1.30372 0.0341528 0)
(-1.18828 -0.0699336 0)
(-1.09002 -0.145915 0)
(-1.00609 -0.201877 0)
(-0.933596 -0.242746 0)
(-0.871044 -0.272705 0)
(-0.816343 -0.293861 0)
(-0.768968 -0.30899 0)
(-0.726944 -0.318429 0)
(-0.690532 -0.32481 0)
(-3.31469 2.56323 0)
(-2.71576 1.59208 0)
(-2.28524 0.984115 0)
(-1.96224 0.584112 0)
(-1.71049 0.312206 0)
(-1.5102 0.121794 0)
(-1.34703 -0.0135145 0)
(-1.21262 -0.111364 0)
(-1.10017 -0.182295 0)
(-1.00549 -0.234119 0)
(-0.924881 -0.271526 0)
(-0.856063 -0.298583 0)
(-0.796704 -0.317256 0)
(-0.745564 -0.330271 0)
(-0.700953 -0.337939 0)
(-0.662139 -0.342778 0)
(-3.78672 2.31887 0)
(-3.02752 1.41278 0)
(-2.4953 0.847789 0)
(-2.10442 0.477468 0)
(-1.80575 0.226981 0)
(-1.57201 0.0524565 0)
(-1.38456 -0.0707374 0)
(-1.23216 -0.159171 0)
(-1.1063 -0.222647 0)
(-1.00145 -0.268477 0)
(-0.913177 -0.301017 0)
(-0.838457 -0.32405 0)
(-0.774676 -0.339421 0)
(-0.720061 -0.349617 0)
(-0.672952 -0.355031 0)
(-0.63214 -0.357809 0)
(-4.2187 1.99638 0)
(-3.31088 1.18072 0)
(-2.68448 0.674863 0)
(-2.23084 0.345087 0)
(-1.88888 0.123588 0)
(-1.62435 -0.0296089 0)
(-1.41459 -0.136698 0)
(-1.24572 -0.212728 0)
(-1.10758 -0.266493 0)
(-0.993478 -0.304597 0)
(-0.898234 -0.330949 0)
(-0.818185 -0.348919 0)
(-0.750434 -0.360215 0)
(-0.692746 -0.36696 0)
(-0.643467 -0.369668 0)
(-0.600972 -0.370008 0)
(-4.59838 1.60268 0)
(-3.55744 0.900718 0)
(-2.84687 0.468805 0)
(-2.33729 0.189535 0)
(-1.95685 0.00394468 0)
(-1.66502 -0.122956 0)
(-1.43556 -0.210305 0)
(-1.25219 -0.271219 0)
(-1.1033 -0.313233 0)
(-0.981129 -0.342055 0)
(-0.879842 -0.361038 0)
(-0.795224 -0.373037 0)
(-0.724089 -0.379568 0)
(-0.663865 -0.382339 0)
(-0.612792 -0.381924 0)
(-0.569052 -0.37954 0)
(-4.91468 1.14656 0)
(-3.75965 0.578881 0)
(-2.97717 0.234008 0)
(-2.42 0.0140297 0)
(-2.00695 -0.129553 0)
(-1.6921 -0.225789 0)
(-1.44611 -0.29021 0)
(-1.25064 -0.333638 0)
(-1.09285 -0.36212 0)
(-0.964052 -0.38031 0)
(-0.857858 -0.390894 0)
(-0.769593 -0.396143 0)
(-0.695803 -0.397307 0)
(-0.633665 -0.395664 0)
(-0.581286 -0.391774 0)
(-0.536713 -0.386442 0)
(-5.158 0.638485 0)
(-3.91097 0.222467 0)
(-3.07083 -0.0243285 0)
(-2.47572 -0.177623 0)
(-2.03686 -0.274084 0)
(-1.70393 -0.336001 0)
(-1.44508 -0.374838 0)
(-1.24029 -0.398811 0)
(-1.07572 -0.41229 0)
(-0.94197 -0.41874 0)
(-0.832173 -0.420085 0)
(-0.741311 -0.417953 0)
(-0.665694 -0.413265 0)
(-0.602331 -0.406857 0)
(-0.549182 -0.399215 0)
(-0.504243 -0.390758 0)
(-5.32049 0.0903404 0)
(-4.00607 -0.160292 0)
(-3.12413 -0.300316 0)
(-2.50184 -0.381125 0)
(-2.04474 -0.426467 0)
(-1.69922 -0.451222 0)
(-1.43157 -0.462422 0)
(-1.22055 -0.465428 0)
(-1.05157 -0.462782 0)
(-0.9147 -0.456656 0)
(-0.802743 -0.448131 0)
(-0.710437 -0.438155 0)
(-0.633906 -0.427256 0)
(-0.570061 -0.415842 0)
(-0.516731 -0.404244 0)
(-0.471897 -0.392564 0)
(-5.39622 -0.484843 0)
(-4.04097 -0.56038 0)
(-3.13434 -0.587513 0)
(-2.49646 -0.591782 0)
(-2.02926 -0.583235 0)
(-1.67706 -0.568876 0)
(-1.40498 -0.551044 0)
(-1.19103 -0.532071 0)
(-1.02018 -0.512559 0)
(-0.882166 -0.493316 0)
(-0.769591 -0.474519 0)
(-0.677061 -0.456411 0)
(-0.600581 -0.439085 0)
(-0.53703 -0.422519 0)
(-0.484127 -0.406862 0)
(-0.439895 -0.391894 0)
(-5.38136 -1.07323 0)
(-4.01315 -0.968216 0)
(-3.09974 -0.879087 0)
(-2.45841 -0.804619 0)
(-1.98964 -0.740718 0)
(-1.63692 -0.686238 0)
(-1.365 -0.63868 0)
(-1.15158 -0.597244 0)
(-0.981502 -0.560533 0)
(-0.844393 -0.527949 0)
(-0.732797 -0.498727 0)
(-0.641308 -0.472403 0)
(-0.565871 -0.448587 0)
(-0.503413 -0.426866 0)
(-0.451568 -0.407129 0)
(-0.408439 -0.388925 0)
(-5.2743 -1.66048 0)
(-3.92158 -1.3739 0)
(-3.01971 -1.16798 0)
(-2.38731 -1.0145 0)
(-1.92567 -0.895131 0)
(-1.57875 -0.800503 0)
(-1.31166 -0.723253 0)
(-1.10229 -0.659421 0)
(-0.935674 -0.605596 0)
(-0.801556 -0.559775 0)
(-0.692564 -0.520226 0)
(-0.603389 -0.485797 0)
(-0.529997 -0.455583 0)
(-0.46942 -0.428797 0)
(-0.419252 -0.405074 0)
(-0.377724 -0.38369 0)
(-5.07568 -2.23214 0)
(-3.76685 -1.76743 0)
(-2.89474 -1.44706 0)
(-2.28361 -1.21624 0)
(-1.83777 -1.04267 0)
(-1.50292 -0.908849 0)
(-1.24528 -0.802667 0)
(-1.04347 -0.717055 0)
(-0.882977 -0.646624 0)
(-0.753909 -0.587998 0)
(-0.649108 -0.538487 0)
(-0.563498 -0.496284 0)
(-0.493096 -0.459946 0)
(-0.435187 -0.428381 0)
(-0.387262 -0.400871 0)
(-0.347852 -0.37658 0)
(-4.78838 -2.77393 0)
(-3.55104 -2.13897 0)
(-2.72644 -1.70935 0)
(-2.14856 -1.40478 0)
(-1.72692 -1.17959 0)
(-1.41022 -1.00852 0)
(-1.16655 -0.874891 0)
(-0.975682 -0.768663 0)
(-0.823924 -0.682555 0)
(-0.70191 -0.611895 0)
(-0.60288 -0.553038 0)
(-0.522033 -0.503614 0)
(-0.45561 -0.461563 0)
(-0.401072 -0.425602 0)
(-0.356018 -0.394596 0)
(-0.319194 -0.367553 0)
(-4.41747 -3.2722 0)
(-3.27787 -2.47906 0)
(-2.51748 -1.94812 0)
(-1.98419 -1.57523 0)
(-1.5947 -1.30232 0)
(-1.3019 -1.09686 0)
(-1.07644 -0.937951 0)
(-0.899721 -0.812775 0)
(-0.759135 -0.712298 0)
(-0.646062 -0.630644 0)
(-0.554236 -0.563296 0)
(-0.479294 -0.507361 0)
(-0.417602 -0.460206 0)
(-0.367153 -0.420459 0)
(-0.325168 -0.386343 0)
(-0.291763 -0.35737 0)
(-3.97066 -3.71454 0)
(-2.95234 -2.77885 0)
(-2.27161 -2.15717 0)
(-1.79327 -1.72308 0)
(-1.44323 -1.40757 0)
(-1.17958 -1.17145 0)
(-0.976234 -0.990072 0)
(-0.816593 -0.84811 0)
(-0.689444 -0.734951 0)
(-0.587041 -0.643676 0)
(-0.503863 -0.568906 0)
(-0.435838 -0.507468 0)
(-0.379971 -0.455892 0)
(-0.333992 -0.413306 0)
(-0.296113 -0.376415 0)
(-0.265288 -0.346495 0)
(-3.45712 -4.0889 0)
(-2.58086 -3.03059 0)
(-1.99352 -2.33081 0)
(-1.57928 -1.84429 0)
(-1.27512 -1.49233 0)
(-1.04528 -1.23008 0)
(-0.867472 -1.02961 0)
(-0.727503 -0.873416 0)
(-0.615783 -0.749557 0)
(-0.525613 -0.65013 0)
(-0.452328 -0.569177 0)
(-0.392249 -0.502938 0)
(-0.34307 -0.447827 0)
(-0.302291 -0.402309 0)
(-0.269139 -0.363537 0)
(-0.241124 -0.331487 0)
(-2.88703 -4.3854 0)
(-2.17114 -3.22739 0)
(-1.68865 -2.46423 0)
(-1.34628 -1.93535 0)
(-1.09344 -1.55408 0)
(-0.901296 -1.27091 0)
(-0.751903 -1.05522 0)
(-0.633762 -0.88775 0)
(-0.539097 -0.755456 0)
(-0.462418 -0.649639 0)
(-0.399955 -0.563843 0)
(-0.348596 -0.493866 0)
(-0.306542 -0.435927 0)
(-0.271568 -0.388106 0)
(-0.243138 -0.347721 0)
(-0.219079 -0.314064 0)
(-2.27283 -4.59588 0)
(-1.73174 -3.36358 0)
(-1.36323 -2.55346 0)
(-1.09887 -1.99343 0)
(-0.901601 -1.59075 0)
(-0.750236 -1.29242 0)
(-0.631512 -1.06581 0)
(-0.536888 -0.89032 0)
(-0.460554 -0.752096 0)
(-0.398352 -0.641816 0)
(-0.347453 -0.55271 0)
(-0.305411 -0.480161 0)
(-0.270909 -0.420387 0)
(-0.242101 -0.371018 0)
(-0.218662 -0.32969 0)
(-0.198797 -0.295109 0)
(-1.62806 -4.7142 0)
(-1.27208 -3.43496 0)
(-1.02401 -2.59557 0)
(-0.842015 -2.01642 0)
(-0.703334 -1.60084 0)
(-0.594898 -1.29355 0)
(-0.508403 -1.06064 0)
(-0.438451 -0.880621 0)
(-0.381301 -0.739159 0)
(-0.334221 -0.626521 0)
(-0.295348 -0.535739 0)
(-0.262987 -0.461948 0)
(-0.23627 -0.401344 0)
(-0.213861 -0.35134 0)
(-0.19554 -0.309683 0)
(-0.180051 -0.274866 0)
(-0.967035 -4.73632 0)
(-0.802082 -3.43878 0)
(-0.678171 -2.58865 0)
(-0.580992 -2.003 0)
(-0.502574 -1.58342 0)
(-0.438246 -1.27365 0)
(-0.384824 -1.03925 0)
(-0.340159 -0.85838 0)
(-0.302636 -0.716502 0)
(-0.271004 -0.603713 0)
(-0.244387 -0.512996 0)
(-0.221873 -0.439364 0)
(-0.203054 -0.379055 0)
(-0.187108 -0.329353 0)
(-0.173968 -0.288113 0)
(-0.162832 -0.253707 0)
(-0.304558 -4.66043 0)
(-0.332053 -3.37387 0)
(-0.333095 -2.53195 0)
(-0.321232 -1.95265 0)
(-0.303365 -1.53815 0)
(-0.283322 -1.23252 0)
(-0.263067 -1.00157 0)
(-0.24373 -0.823582 0)
(-0.225839 -0.684169 0)
(-0.209634 -0.573488 0)
(-0.195237 -0.484609 0)
(-0.18252 -0.412568 0)
(-0.171551 -0.353681 0)
(-0.162009 -0.305229 0)
(-0.154013 -0.265137 0)
(-0.147158 -0.231778 0)
(0.344454 -4.48702 0)
(0.127641 -3.24064 0)
(0.00375586 -2.4258 0)
(-0.0682053 -1.86569 0)
(-0.109788 -1.46534 0)
(-0.133191 -1.17044 0)
(-0.145445 -0.947835 0)
(-0.150913 -0.776467 0)
(-0.152228 -0.642392 0)
(-0.151096 -0.536067 0)
(-0.148625 -0.450799 0)
(-0.145452 -0.381768 0)
(-0.142123 -0.325435 0)
(-0.138792 -0.279157 0)
(-0.135788 -0.240946 0)
(-0.133056 -0.209231 0)
(0.965299 -4.21887 0)
(0.566773 -3.04109 0)
(0.325042 -2.27173 0)
(0.172703 -1.74329 0)
(0.0741532 -1.3659 0)
(0.00914255 -1.08813 0)
(-0.034224 -0.878651 0)
(-0.0634107 -0.717525 0)
(-0.0830754 -0.591582 0)
(-0.096329 -0.491799 0)
(-0.105231 -0.411862 0)
(-0.111142 -0.347216 0)
(-0.11509 -0.294529 0)
(-0.117648 -0.251308 0)
(-0.119395 -0.215678 0)
(-0.120538 -0.18617 0)
(1.54384 -3.86097 0)
(0.975519 -2.77878 0)
(0.623711 -2.07232 0)
(0.396327 -1.58739 0)
(0.244613 -1.24132 0)
(0.140793 -0.98677 0)
(0.0684218 -0.794936 0)
(0.0171373 -0.647487 0)
(-0.0196115 -0.532323 0)
(-0.0462467 -0.441148 0)
(-0.0657189 -0.368167 0)
(-0.0800649 -0.309197 0)
(-0.0907583 -0.261183 0)
(-0.0987728 -0.221841 0)
(-0.104904 -0.189447 0)
(-0.109639 -0.162672 0)
(2.06686 -3.42047 0)
(1.34469 -2.45872 0)
(0.893172 -1.83124 0)
(0.597836 -1.40073 0)
(0.398002 -1.09367 0)
(0.259068 -0.867944 0)
(0.160468 -0.697928 0)
(0.0892097 -0.567321 0)
(0.0370271 -0.465374 0)
(-0.00168644 -0.38471 0)
(-0.0306967 -0.320187 0)
(-0.0526376 -0.268084 0)
(-0.0694154 -0.225693 0)
(-0.0823187 -0.190984 0)
(-0.0924131 -0.162431 0)
(-0.100324 -0.138852 0)
(2.52234 -2.90642 0)
(1.66593 -2.0873 0)
(1.12744 -1.5531 0)
(0.772856 -1.18675 0)
(0.53107 -0.925563 0)
(0.361534 -0.733634 0)
(0.240079 -0.589144 0)
(0.151424 -0.478194 0)
(0.0858042 -0.391631 0)
(0.0365778 -0.323168 0)
(-0.000724963 -0.268427 0)
(-0.0292726 -0.224239 0)
(-0.0513187 -0.188298 0)
(-0.0684814 -0.158884 0)
(-0.0819712 -0.134688 0)
(-0.0926793 -0.114734 0)
(2.89983 -2.32969 0)
(1.93198 -1.67209 0)
(1.32132 -1.24342 0)
(0.917566 -0.949502 0)
(0.640984 -0.740045 0)
(0.44607 -0.586166 0)
(0.305665 -0.470368 0)
(0.202589 -0.381476 0)
(0.125832 -0.312149 0)
(0.0679016 -0.257332 0)
(0.0237293 -0.213516 0)
(-0.010267 -0.178148 0)
(-0.0366842 -0.14939 0)
(-0.0573188 -0.125838 0)
(-0.0736525 -0.106473 0)
(-0.0865791 -0.090471 0)
(3.19055 -1.70256 0)
(2.13677 -1.22175 0)
(1.47046 -0.908417 0)
(1.02881 -0.693604 0)
(0.725399 -0.540571 0)
(0.510922 -0.428157 0)
(0.355903 -0.34359 0)
(0.241705 -0.278682 0)
(0.156356 -0.228074 0)
(0.0917018 -0.18806 0)
(0.0422358 -0.156079 0)
(0.00401224 -0.130249 0)
(-0.0257468 -0.109234 0)
(-0.0491067 -0.0919973 0)
(-0.0675598 -0.0777947 0)
(-0.0822716 -0.0660474 0)
(3.38781 -1.0386 0)
(2.27563 -0.745734 0)
(1.57154 -0.554948 0)
(1.10415 -0.424096 0)
(0.782516 -0.33092 0)
(0.554744 -0.262459 0)
(0.389788 -0.210977 0)
(0.268024 -0.171458 0)
(0.176826 -0.140655 0)
(0.107598 -0.116289 0)
(0.0545181 -0.0968169 0)
(0.013443 -0.0810589 0)
(-0.0186144 -0.0682332 0)
(-0.0437491 -0.0576572 0)
(-0.0636876 -0.0489269 0)
(-0.0794737 -0.0416321 0)
(3.4868 -0.352079 0)
(2.34538 -0.254141 0)
(1.62231 -0.190262 0)
(1.14197 -0.146329 0)
(0.811127 -0.115094 0)
(0.576638 -0.0920959 0)
(0.406645 -0.0748238 0)
(0.281034 -0.0615471 0)
(0.186854 -0.051211 0)