/*--------------------------------*- C++ -*----------------------------------*\
| =========                 |                                                 |
| \\      /  F ield         | foam-extend: Open Source CFD                    |
|  \\    /   O peration     | Version:  3.0                                   |
|   \\  /    A nd           | Web:         http://www.extend-project.de       |
|    \\/     M anipulation  |                                                 |
\*---------------------------------------------------------------------------*/
FoamFile
{
    version     2.0;
    format      ascii;
    class       volScalarField;
    location    "30";
    object      Theta;
}
// * * * * * * * * * * * * * * * * * * * * * * * * * * * * * * * * * * * * * //

dimensions      [0 2 -2 0 0 0 0];

internalField   nonuniform List<scalar> 
1280
(
-0.486476
-0.248554
-0.0646845
0.10908
0.244289
0.364735
0.45882
0.543163
0.612045
0.672315
0.725978
0.76969
0.81336
0.846574
0.878339
0.913423
-0.457873
-0.235014
-0.0487234
0.119865
0.255893
0.373854
0.46792
0.550738
0.6195
0.678183
0.732206
0.773651
0.81839
0.848825
0.881944
0.914577
-0.35226
-0.218092
-0.0143057
0.140873
0.278816
0.392281
0.486112
0.56647
0.636012
0.691406
0.75155
0.782746
0.850583
0.847506
0.949123
0.887923
-0.305802
-0.172074
0.0272415
0.175668
0.311295
0.420005
0.511673
0.588718
0.65614
0.708911
0.766588
0.796214
0.859282
0.858498
0.948183
0.899009
-0.240451
-0.114244
0.0837269
0.221489
0.354454
0.456954
0.545798
0.618911
0.684092
0.733866
0.790379
0.816853
0.879799
0.875622
0.962067
0.916138
-0.156925
-0.037799
0.150867
0.279472
0.406955
0.502707
0.587177
0.655508
0.716685
0.763112
0.815153
0.840241
0.896363
0.894974
0.968779
0.933658
-0.0569182
0.0514898
0.230924
0.348222
0.469239
0.557123
0.636362
0.699268
0.755866
0.798615
0.84591
0.869269
0.918797
0.919022
0.981549
0.953908
0.0594783
0.154577
0.322382
0.427504
0.540571
0.61967
0.692659
0.749309
0.800451
0.838825
0.880589
0.901677
0.944279
0.945446
0.997963
0.975957
0.190769
0.269638
0.425376
0.516541
0.6208
0.690034
0.756044
0.805712
0.850876
0.884319
0.920266
0.938471
0.974192
0.975313
1.01844
1.00026
0.336542
0.396133
0.539091
0.614713
0.709358
0.767665
0.82601
0.867902
0.906554
0.934367
0.964265
0.978771
1.00805
1.00778
1.04321
1.02636
0.495282
0.532668
0.663033
0.721252
0.805836
0.852143
0.902339
0.935773
0.967595
0.989219
1.01303
1.02308
1.04626
1.04335
1.07183
1.05452
0.666387
0.679326
0.796276
0.835627
0.909546
0.942818
0.984321
1.0085
1.03301
1.04772
1.06515
1.07001
1.08719
1.08082
1.10309
1.0842
0.848262
0.832841
0.938462
0.956663
1.0201
1.0393
1.07195
1.08638
1.10367
1.11105
1.12277
1.12142
1.13415
1.12185
1.14016
1.11588
1.04026
0.996543
1.08785
1.08445
1.1364
1.14072
1.16387
1.16769
1.17698
1.17616
1.18111
1.17318
1.17991
1.16279
1.17522
1.14826
1.24025
1.16108
1.24544
1.21668
1.25846
1.24685
1.26082
1.25384
1.25613
1.2468
1.24813
1.23084
1.23928
1.20844
1.22759
1.18403
1.44754
1.33931
1.40679
1.35518
1.38431
1.35658
1.3602
1.34154
1.33496
1.31648
1.30972
1.28552
1.28519
1.25121
1.25987
1.21697
1.69224
1.50608
1.57746
1.49545
1.51487
1.4698
1.46393
1.4337
1.42065
1.39224
1.38623
1.3464
1.36605
1.29347
1.36917
1.23009
1.89559
1.69931
1.74565
1.64204
1.64692
1.58538
1.56816
1.52584
1.50265
1.46538
1.44789
1.40447
1.40454
1.34213
1.37558
1.27732
2.11694
1.8843
1.91967
1.78939
1.78181
1.70314
1.67521
1.62125
1.58963
1.54369
1.52064
1.46889
1.4676
1.39395
1.4297
1.31868
2.33672
2.08056
2.09271
1.93983
1.91708
1.82178
1.782
1.71595
1.674
1.61924
1.58553
1.5291
1.51333
1.44296
1.45525
1.36031
2.56012
2.27266
2.26767
2.09017
2.05317
1.94109
1.88977
1.81199
1.76051
1.69734
1.65524
1.59288
1.56877
1.49461
1.49701
1.40114
2.78281
2.46663
2.44128
2.24046
2.18847
2.05982
1.99667
1.90697
1.84546
1.77355
1.72211
1.65397
1.61966
1.54377
1.53338
1.44109
3.00443
2.657
2.61381
2.38917
2.3227
2.17759
2.10285
2.00148
1.93039
1.84994
1.79009
1.71579
1.67339
1.59343
1.57467
1.48007
3.22263
2.84472
2.7835
2.53556
2.45474
2.29342
2.20723
2.09426
2.01368
1.92459
1.8565
1.77579
1.72569
1.64143
1.6149
1.51816
3.43664
3.02741
2.94971
2.67861
2.58398
2.40674
2.30945
2.18516
2.09548
1.99795
1.9222
1.83496
1.77827
1.68869
1.65666
1.55491
3.64413
3.20503
3.11108
2.81752
2.70948
2.51675
2.40867
2.27332
2.1748
2.06893
1.98581
1.89199
1.82901
1.73415
1.69653
1.59074
3.84522
3.37533
3.26693
2.95134
2.83059
2.62287
2.50449
2.3585
2.25162
2.13775
2.04789
1.94752
1.87946
1.77835
1.73794
1.62455
4.03633
3.53939
3.41577
3.07954
2.94636
2.72434
2.59599
2.43974
2.32472
2.20304
2.10643
1.99983
1.92602
1.81999
1.77415
1.65768
4.21985
3.69315
3.55744
3.20094
3.05633
2.82071
2.68304
2.51718
2.39471
2.26576
2.16349
2.05058
1.97346
1.86024
1.81505
1.68771
4.38946
3.84076
3.6898
3.3156
3.15939
2.91118
2.76439
2.58937
2.45936
2.32347
2.21458
2.09658
2.01292
1.89697
1.84406
1.71761
4.55124
3.97445
3.81376
3.42173
3.25548
2.99547
2.84051
2.6572
2.5208
2.3786
2.26529
2.14135
2.05653
1.93227
1.88443
1.74319
4.69535
4.10345
3.92598
3.52034
3.34314
3.07276
2.90955
2.71852
2.57499
2.42727
2.30644
2.18003
2.08507
1.96356
1.90118
1.76869
4.83239
4.21472
4.02902
3.60874
3.42292
3.14292
2.9728
2.77501
2.62617
2.47333
2.34904
2.21759
2.12268
1.99308
1.93856
1.78904
4.93307
4.32407
4.11772
3.68885
3.49307
3.20514
3.02795
2.82412
2.66868
2.51224
2.3788
2.2492
2.13574
2.02188
1.92448
1.82255
5.03238
4.41193
4.19666
3.75732
3.55455
3.25934
3.07673
2.86776
2.70802
2.54788
2.41082
2.27859
2.16136
2.04633
1.94241
1.84375
5.11965
4.48796
4.26265
3.81552
3.60601
3.3048
3.11718
2.90371
2.73958
2.57635
2.43461
2.30122
2.17824
2.06437
1.95509
1.8569
5.19007
4.54604
4.31661
3.86176
3.64788
3.34158
3.15042
2.93337
2.76655
2.6005
2.45705
2.32077
2.19765
2.07963
1.97301
1.86773
5.244
4.59018
4.35725
3.89672
3.67936
3.36917
3.17522
2.95531
2.78628
2.61795
2.47299
2.33454
2.21132
2.09015
1.9868
1.87483
5.28014
4.61807
4.38471
3.91971
3.70057
3.38765
3.19209
2.97029
2.8002
2.63021
2.48515
2.34438
2.22297
2.09747
1.99925
1.87941
5.29831
4.63176
4.39837
3.9311
3.71109
3.39676
3.2004
2.97755
2.80697
2.63596
2.49108
2.34881
2.22893
2.10059
2.00621
1.88117
5.29911
4.62978
4.39844
3.93064
3.711
3.3966
3.20039
2.97754
2.80732
2.6361
2.49224
2.34896
2.23158
2.10034
2.01123
1.87984
5.28104
4.61421
4.38445
3.91871
3.70009
3.38708
3.19173
2.96977
2.80042
2.62967
2.48691
2.34355
2.22785
2.09578
2.00901
1.87635
5.24695
4.58296
4.35703
3.89515
3.67859
3.36839
3.17474
2.95475
2.78705
2.61766
2.47688
2.33403
2.2215
2.08798
2.00725
1.86907
5.19276
4.53975
4.31545
3.86064
3.64635
3.34056
3.14912
2.93202
2.76622
2.59896
2.45959
2.31869
2.20669
2.07588
1.99376
1.86072
5.12545
4.4806
4.26112
3.81484
3.60386
3.30388
3.11544
2.90231
2.73924
2.57496
2.43831
2.29948
2.19139
2.06034
1.98634
1.8473
5.03585
4.41159
4.19277
3.75883
3.55099
3.25849
3.07338
2.86522
2.70478
2.54459
2.40891
2.27502
2.16457
2.04178
1.95963
1.83489
4.93788
4.32801
4.11235
3.69224
3.48843
3.20472
3.0237
2.82144
2.66436
2.50889
2.37532
2.24617
2.13693
2.01856
1.94097
1.81446
4.81546
4.23431
4.01915
3.61581
3.41636
3.14285
2.96642
2.7711
2.61746
2.46815
2.33525
2.21417
2.1001
1.99519
1.90339
1.79966
4.66096
4.13367
3.91298
3.53008
3.33526
3.07323
2.90205
2.71435
2.56433
2.42185
2.28772
2.17774
2.04916
1.97132
1.8317
1.7961
4.51177
4.01321
3.79822
3.434
3.24617
2.99616
2.83139
2.65206
2.50718
2.37169
2.24066
2.13811
2.00954
1.9412
1.79644
1.77543
4.35287
3.88127
3.6734
3.32895
3.14938
2.91208
2.75468
2.58401
2.44511
2.3162
2.18922
2.09302
1.96553
1.90545
1.75892
1.74723
4.18758
3.73322
3.54073
3.21478
3.04574
2.82151
2.67265
2.51124
2.37967
2.25761
2.13778
2.04587
1.92808
1.8667
1.73886
1.71281
4.00839
3.57613
3.39945
3.09295
2.93566
2.72503
2.58559
2.43374
2.31024
2.19483
2.08287
1.99469
1.88647
1.82474
1.71132
1.67813
3.81968
3.40893
3.25096
2.96412
2.8198
2.62328
2.49401
2.35224
2.23747
2.12924
2.02593
1.94178
1.84449
1.78155
1.68501
1.64177
3.6209
3.23482
3.09564
2.82939
2.6988
2.51692
2.39841
2.2671
2.16146
2.06062
1.96616
1.88623
1.79932
1.73635
1.65372
1.60503
3.41431
3.05468
2.93453
2.68977
2.57333
2.40666
2.29925
2.17884
2.08256
1.98956
1.90388
1.82893
1.75166
1.69004
1.61952
1.56747
3.20128
2.86981
2.76856
2.54615
2.44413
2.29319
2.19715
2.08798
2.00122
1.9164
1.83944
1.76995
1.70184
1.6425
1.58287
1.52929
2.98279
2.68182
2.59871
2.39965
2.31198
2.17727
2.09268
1.99508
1.91786
1.84156
1.77303
1.70963
1.64969
1.59409
1.54299
1.49096
2.76128
2.49142
2.42603
2.25107
2.17761
2.05954
1.98639
1.9006
1.83287
1.76532
1.70508
1.6482
1.59621
1.54489
1.50249
1.45196
2.5367
2.30035
2.25165
2.1015
2.04198
1.9409
1.87913
1.80538
1.74709
1.68857
1.63627
1.58645
1.54125
1.49566
1.45896
1.41354
2.31271
2.10974
2.07634
1.95183
1.90563
1.82182
1.77111
1.70945
1.66022
1.61083
1.56589
1.52361
1.4847
1.44548
1.41548
1.37424
2.0876
1.91981
1.90179
1.8028
1.76988
1.7034
1.66376
1.61439
1.57432
1.53437
1.49683
1.46245
1.42914
1.39713
1.3706
1.33688
1.86745
1.73569
1.72779
1.65603
1.63487
1.58592
1.5566
1.51927
1.48722
1.45682
1.42408
1.39955
1.36668
1.34717
1.3185
1.29673
1.6481
1.5503
1.55772
1.5107
1.5025
1.47054
1.452
1.42684
1.40382
1.38291
1.35773
1.34104
1.31459
1.30151
1.27748
1.26254
1.40647
1.38151
1.38785
1.37024
1.37221
1.35746
1.34853
1.33506
1.31874
1.30795
1.28292
1.28126
1.23802
1.25975
1.17703
1.24813
1.20742
1.20098
1.22743
1.23138
1.24676
1.24773
1.24947
1.24738
1.24036
1.23795
1.22243
1.22544
1.19571
1.21409
1.15673
1.2076
1.01357
1.03161
1.07139
1.09819
1.12534
1.14156
1.15313
1.16158
1.16245
1.16787
1.1585
1.16798
1.14369
1.16688
1.1201
1.16628
0.826195
0.863787
0.923473
0.969415
1.00977
1.04008
1.06192
1.08056
1.09036
1.10302
1.10285
1.1159
1.10397
1.12418
1.09732
1.12973
0.646894
0.706925
0.782585
0.847486
0.899944
0.943551
0.974958
1.00301
1.0208
1.04013
1.0475
1.06465
1.06154
1.08237
1.06814
1.09582
0.477627
0.557963
0.650467
0.732416
0.796942
0.852898
0.893646
0.930649
0.956357
0.982086
0.997098
1.01795
1.02366
1.04449
1.04174
1.06484
0.319734
0.420543
0.527377
0.625509
0.701076
0.76849
0.817848
0.863078
0.895915
0.927578
0.949102
0.973849
0.986397
1.00887
1.01404
1.0364
0.174613
0.293952
0.414385
0.527179
0.613089
0.691001
0.748377
0.801233
0.840691
0.877941
0.90543
0.933934
0.952527
0.976725
0.988602
1.01054
0.0428602
0.180023
0.311918
0.438217
0.533383
0.620809
0.685403
0.745128
0.790444
0.832751
0.865283
0.897442
0.920669
0.947397
0.963557
0.987475
-0.0736737
0.0782259
0.220992
0.359017
0.462586
0.558436
0.629524
0.695409
0.746
0.792907
0.830009
0.865487
0.893072
0.921742
0.942623
0.966719
-0.175956
-0.00951424
0.141542
0.290173
0.40094
0.504163
0.580872
0.65207
0.707108
0.757967
0.798626
0.837203
0.86744
0.89907
0.921135
0.949361
-0.260387
-0.0848709
0.0751584
0.231877
0.349163
0.458444
0.54007
0.615792
0.674808
0.729063
0.773284
0.814151
0.848227
0.880466
0.907791
0.933726
-0.331086
-0.144713
0.0203698
0.184687
0.307057
0.421395
0.506982
0.586315
0.648319
0.705303
0.751508
0.794889
0.82927
0.865177
0.889583
0.922509
-0.380745
-0.192402
-0.0195093
0.148558
0.275727
0.393431
0.482378
0.564389
0.629167
0.688036
0.737243
0.781128
0.820113
0.853631
0.886344
0.911923
-0.418705
-0.224242
-0.0488285
0.123913
0.25423
0.374531
0.465842
0.54969
0.616118
0.676494
0.726331
0.772177
0.809255
0.84712
0.872395
0.907263
-0.43034
-0.242478
-0.0608848
0.110902
0.244264
0.364978
0.458065
0.54251
0.610472
0.67089
0.72315
0.767312
0.809588
0.842039
0.877979
0.901319
)
;

boundaryField
{
    up
    {
        type            myTemperature;
        value           nonuniform List<scalar> 
80
(
0.913424
0.915462
0.975875
0.973745
0.97733
0.983518
0.994387
1.00927
1.0273
1.04879
1.07282
1.09917
1.12831
1.15765
1.19211
1.22213
1.31907
1.3219
1.35884
1.38328
1.4171
1.44911
1.4839
1.51797
1.55288
1.586
1.62026
1.65017
1.68371
1.70845
1.74142
1.75989
1.79222
1.77746
1.79023
1.80564
1.82055
1.83272
1.8421
1.84733
1.85066
1.84832
1.84654
1.83576
1.83047
1.81039
1.80192
1.7733
1.70847
1.67955
1.65372
1.63912
1.61657
1.59348
1.56588
1.53606
1.50445
1.47049
1.43661
1.40033
1.3657
1.32872
1.29395
1.25827
1.16759
1.15212
1.13
1.10929
1.08455
1.06066
1.03661
1.01439
0.992982
0.975068
0.956956
0.945347
0.930216
0.926453
0.914273
0.917672
)
;
    }
    hole
    {
        type            myTemperature;
        value           nonuniform List<scalar> 
80
(
-0.486485
-0.458798
-0.443462
-0.383298
-0.303906
-0.208629
-0.0988962
0.0249287
0.162728
0.313273
0.476306
0.650859
0.835365
1.03052
1.23186
1.44219
1.59997
1.84936
2.07529
2.3129
2.54356
2.77449
3.00045
3.22283
3.43874
3.64905
3.84967
4.04411
4.22399
4.39895
4.55307
4.70447
4.8291
4.97982
5.08788
5.1728
5.239
5.28767
5.31883
5.33339
5.32937
5.31011
5.27032
5.21864
5.14291
5.06126
4.95089
4.8428
4.75182
4.61119
4.44983
4.26399
4.07222
3.86976
3.6615
3.44688
3.22704
3.00401
2.7772
2.55041
2.32157
2.09606
1.87034
1.65253
1.48998
1.26494
1.0512
0.847387
0.658575
0.481957
0.319515
0.170612
0.0371486
-0.0823344
-0.183833
-0.27244
-0.339079
-0.395815
-0.425978
-0.447302
)
;
    }
    frontAndBack
    {
        type            empty;
    }
}


// ************************************************************************* //
