/*--------------------------------*- C++ -*----------------------------------*\
| =========                 |                                                 |
| \\      /  F ield         | foam-extend: Open Source CFD                    |
|  \\    /   O peration     | Version:  3.0                                   |
|   \\  /    A nd           | Web:         http://www.extend-project.de       |
|    \\/     M anipulation  |                                                 |
\*---------------------------------------------------------------------------*/
FoamFile
{
    version     2.0;
    format      ascii;
    class       volVectorField;
    location    "16";
    object      u;
}
// * * * * * * * * * * * * * * * * * * * * * * * * * * * * * * * * * * * * * //

dimensions      [0 0 0 0 0 0 0];

internalField   nonuniform List<vector> 
168
(
(0.747376 -0.139907 -4.26611e-17)
(0.475927 -0.0865227 1.20147e-16)
(1.17391 -0.0519603 -1.38964e-16)
(0.725322 -0.0316184 1.90254e-16)
(1.2817 -0.0148504 -1.3334e-16)
(0.765468 -0.00679172 1.31578e-16)
(0.867498 -0.389011 -1.43971e-18)
(0.550377 -0.240361 -2.411e-16)
(1.21712 -0.140657 7.30229e-17)
(0.75102 -0.083449 -3.52647e-16)
(1.29149 -0.0330695 1.07931e-16)
(0.768215 -0.00973153 1.66195e-17)
(1.08365 -0.561209 -3.53894e-16)
(0.683662 -0.345616 5.0814e-16)
(1.29413 -0.20157 -7.4683e-17)
(0.796584 -0.118662 5.08881e-16)
(1.30797 -0.0453544 -1.8465e-16)
(0.772269 -0.0115093 -1.59027e-16)
(1.35348 -0.622577 6.86266e-16)
(0.850277 -0.383638 -5.52035e-16)
(1.39068 -0.223184 7.6753e-17)
(0.853273 -0.131164 -3.73215e-16)
(1.32877 -0.0492443 -4.80512e-18)
(0.776746 -0.0116459 3.69609e-16)
(1.62296 -0.560955 -3.17187e-16)
(1.01603 -0.34502 2.90914e-16)
(1.48636 -0.201001 1.21427e-16)
(0.90954 -0.117647 1.39633e-16)
(1.34884 -0.0441754 8.75136e-17)
(0.780953 -0.00987661 -2.2516e-16)
(1.83929 -0.388267 9.93433e-17)
(1.14964 -0.238676 -1.57011e-16)
(1.56382 -0.138954 -7.30728e-17)
(0.954976 -0.0811953 -8.27907e-17)
(1.36538 -0.03028 -1.20937e-17)
(0.78481 -0.00666798 7.16581e-17)
(1.95926 -0.138984 -5.86318e-17)
(1.22318 -0.0850056 1.06336e-16)
(1.60619 -0.0502632 3.25174e-17)
(0.979753 -0.0289789 6.03139e-17)
(1.37415 -0.0113171 2.94629e-17)
(0.785887 -0.00266235 -5.58997e-17)
(1.9592 0.137849 5.6477e-17)
(1.22328 0.0856599 -1.29192e-16)
(1.6063 0.0491591 -1.89056e-17)
(0.980068 0.0295137 -9.19929e-17)
(1.37387 0.010328 2.55232e-17)
(0.787551 0.00302305 -4.57015e-18)
(1.83923 0.387445 -1.10798e-16)
(1.14943 0.23908 1.87793e-16)
(1.56348 0.138006 -1.61985e-17)
(0.954724 0.0811703 1.6853e-16)
(1.36494 0.0300182 -2.52494e-17)
(0.784006 0.00526367 -5.51128e-17)
(1.62286 0.55994 3.30264e-16)
(1.01603 0.345461 -3.89249e-16)
(1.48611 0.199841 1.28797e-17)
(0.910106 0.118568 -3.33632e-16)
(1.34773 0.0421307 7.86291e-17)
(0.782872 0.0121672 1.49233e-16)
(1.35291 0.622187 -6.79128e-16)
(0.850184 0.383627 5.46278e-16)
(1.38982 0.222837 -4.45424e-17)
(0.853169 0.130379 3.58705e-16)
(1.32742 0.0501338 2.60383e-18)
(0.77694 0.00924205 -3.70823e-16)
(1.08333 0.560657 3.26146e-16)
(0.684005 0.345861 -2.92673e-16)
(1.29355 0.200255 -2.15416e-16)
(0.797668 0.120311 -1.04413e-16)
(1.30659 0.0421674 -1.89529e-16)
(0.773558 0.0143625 3.66222e-16)
(0.866655 0.38852 4.61002e-17)
(0.550597 0.239949 1.1148e-16)
(1.21607 0.140264 2.66523e-16)
(0.751226 0.0821557 5.98969e-19)
(1.29025 0.0337752 9.99072e-17)
(0.768237 0.00771263 -1.24801e-16)
(0.746528 0.139588 1.44135e-17)
(0.476325 0.0869245 -3.80247e-17)
(1.17281 0.0506145 -7.19195e-17)
(0.726327 0.0337511 4.37616e-17)
(1.27964 0.0119211 -1.17874e-16)
(0.766894 0.00878579 1.82109e-16)
(0.747062 -0.136849 4.28454e-17)
(0.475622 -0.0832389 -1.19412e-16)
(1.17357 -0.0469053 1.39106e-16)
(0.72438 -0.0261891 -1.89935e-16)
(1.28172 -0.00505123 1.33494e-16)
(0.763288 0.000466673 -1.32284e-16)
(0.866704 -0.386008 1.31342e-18)
(0.548839 -0.236802 2.40322e-16)
(1.21574 -0.136041 -7.31786e-17)
(0.748609 -0.0763925 3.52511e-16)
(1.28848 -0.0261977 -1.08387e-16)
(0.765598 0.00148429 -1.52646e-17)
(1.08312 -0.558035 3.53974e-16)
(0.68117 -0.34313 -5.07304e-16)
(1.29275 -0.197026 7.47159e-17)
(0.79211 -0.113899 -5.0876e-16)
(1.30541 -0.0371952 1.85034e-16)
(0.765851 -0.00537218 1.57677e-16)
(1.35236 -0.619867 -6.86444e-16)
(0.846911 -0.381276 5.51276e-16)
(1.38825 -0.218796 -7.69063e-17)
(0.847976 -0.126741 3.73342e-16)
(1.32425 -0.0426601 4.11754e-18)
(0.768572 -0.00382967 -3.67796e-16)
(1.62152 -0.558571 3.17375e-16)
(1.01258 -0.34394 -2.90215e-16)
(1.48359 -0.1979 -1.21142e-16)
(0.903307 -0.114964 -1.39763e-16)
(1.3436 -0.0390603 -8.6781e-17)
(0.771377 -0.00565771 2.23425e-16)
(1.83743 -0.386556 -9.95297e-17)
(1.14529 -0.237836 1.56339e-16)
(1.55998 -0.136449 7.27976e-17)
(0.948289 -0.079594 8.27199e-17)
(1.35864 -0.0263024 1.16369e-17)
(0.773611 -0.00397299 -7.05603e-17)
(1.95724 -0.13818 5.88577e-17)
(1.21952 -0.0849688 -1.05743e-16)
(1.60265 -0.0491642 -3.21327e-17)
(0.973195 -0.0285226 -6.02747e-17)
(1.36723 -0.00979151 -2.89448e-17)
(0.774981 -0.00170672 5.48836e-17)
(1.9571 0.137852 -5.66361e-17)
(1.21891 0.0849463 1.28522e-16)
(1.6022 0.0487538 1.86847e-17)
(0.973192 0.0283099 9.17179e-17)
(1.36658 0.00991308 -2.5738e-17)
(0.775521 0.000644575 5.2265e-18)
(1.8374 0.386337 1.10889e-16)
(1.14573 0.23813 -1.8706e-16)
(1.56 0.136537 1.63464e-17)
(0.9486 0.0796073 -1.68314e-16)
(1.35804 0.0268441 2.55862e-17)
(0.774001 0.00319451 5.412e-17)
(1.62133 0.558294 -3.30317e-16)
(1.01224 0.343585 3.88497e-16)
(1.48304 0.197149 -1.29853e-17)
(0.90385 0.114698 3.33521e-16)
(1.34224 0.0384939 -7.90753e-17)
(0.772105 0.00461597 -1.48003e-16)
(1.35214 0.619625 6.79261e-16)
(0.847068 0.381517 -5.4553e-16)
(1.38771 0.218744 4.47233e-17)
(0.848415 0.127133 -3.58727e-16)
(1.32304 0.0422039 -1.97103e-18)
(0.769078 0.00467394 3.69279e-16)
(1.08284 0.557837 -3.26324e-16)
(0.681122 0.342834 2.92034e-16)
(1.2921 0.196258 2.15035e-16)
(0.792865 0.113703 1.04597e-16)
(1.30388 0.0369022 1.88654e-16)
(0.766541 0.00337566 -3.64436e-16)
(0.866737 0.385608 -4.59211e-17)
(0.548897 0.237031 -1.10782e-16)
(1.21558 0.135058 -2.66267e-16)
(0.748792 0.0777413 -4.44699e-19)
(1.2887 0.0239681 -9.94783e-17)
(0.764673 0.000525723 1.23776e-16)
(0.747085 0.136429 -1.46626e-17)
(0.475422 0.0829584 3.74337e-17)
(1.17336 0.0460979 7.1478e-17)
(0.724571 0.0255505 -4.37101e-17)
(1.28075 0.00536329 1.17225e-16)
(0.76424 -0.00301238 -1.80874e-16)
)
;

boundaryField
{
    out
    {
        type            fixedValue;
        value           uniform (1 0 0);
    }
    in
    {
        type            myVelocity;
    }
    frontAndBack
    {
        type            empty;
    }
}


// ************************************************************************* //
