/*--------------------------------*- C++ -*----------------------------------*\
| =========                 |                                                 |
| \\      /  F ield         | foam-extend: Open Source CFD                    |
|  \\    /   O peration     | Version:  3.0                                   |
|   \\  /    A nd           | Web:         http://www.extend-project.de       |
|    \\/     M anipulation  |                                                 |
\*---------------------------------------------------------------------------*/
FoamFile
{
    version     2.0;
    format      ascii;
    class       volSymmTensorField;
    location    "26";
    object      sigma;
}
// * * * * * * * * * * * * * * * * * * * * * * * * * * * * * * * * * * * * * //

dimensions      [0 0 0 0 0 0 0];

internalField   nonuniform List<symmTensor> 
224
(
(-0.150164 -0.0181348 -9.53771e-20 0.150167 6.8236e-20 -3.03081e-06)
(-0.123432 -0.0192532 -1.55573e-19 0.123439 1.83093e-19 -6.93281e-06)
(-0.0933041 -0.0169113 -1.2068e-21 0.0933138 1.49072e-19 -9.74275e-06)
(-0.0661785 -0.0139875 1.57288e-19 0.0661898 -6.14985e-19 -1.13398e-05)
(-0.043202 -0.0112257 2.04101e-19 0.0432133 -2.39646e-19 -1.13679e-05)
(-0.0257366 -0.0092345 1.09743e-20 0.0257458 -5.42431e-19 -9.22374e-06)
(-0.0137475 -0.00790467 -8.01132e-20 0.0137516 8.50475e-22 -4.09341e-06)
(-0.139517 -0.0522285 -4.89389e-20 0.13952 1.4789e-19 -2.88846e-06)
(-0.108344 -0.0538823 -2.34495e-20 0.108351 2.63338e-19 -6.60705e-06)
(-0.0784623 -0.0466705 -3.19621e-19 0.0784716 -1.79066e-20 -9.28454e-06)
(-0.0527463 -0.0381237 -1.27801e-18 0.0527572 -1.74113e-19 -1.08056e-05)
(-0.0313794 -0.030166 3.54758e-19 0.0313902 -3.17193e-19 -1.08311e-05)
(-0.0149792 -0.02439 5.80156e-19 0.014988 -1.62965e-18 -8.78652e-06)
(-0.00366627 -0.0205196 -5.46112e-20 0.00367016 -6.93439e-19 -3.89815e-06)
(-0.120276 -0.0803762 1.46491e-20 0.120279 3.02295e-20 -2.63441e-06)
(-0.082235 -0.0780845 1.01206e-19 0.082241 1.03899e-19 -6.02612e-06)
(-0.0531429 -0.0655434 9.21175e-20 0.0531514 -1.68843e-19 -8.4679e-06)
(-0.0300682 -0.0519987 -6.2633e-19 0.0300781 1.31046e-19 -9.85438e-06)
(-0.0116134 -0.0397376 -1.0845e-18 0.0116232 -1.06761e-18 -9.87609e-06)
(0.0028303 -0.0307169 -3.40876e-18 -0.00282229 -1.08954e-18 -8.00977e-06)
(0.0128901 -0.0246285 -3.50859e-19 -0.0128865 6.20815e-19 -3.55195e-06)
(-0.095914 -0.100364 5.30121e-20 0.0959163 -4.001e-20 -2.27933e-06)
(-0.0519059 -0.0885281 7.05138e-20 0.0519112 -5.07164e-20 -5.21379e-06)
(-0.0246282 -0.0701913 -7.20588e-20 0.0246356 -2.80058e-19 -7.32599e-06)
(-0.00511911 -0.0525509 -6.59972e-19 0.00512764 -1.40689e-19 -8.52447e-06)
(0.00964007 -0.037213 -1.22941e-18 -0.00963153 -2.34127e-19 -8.54158e-06)
(0.021532 -0.025704 -2.23954e-18 -0.021525 2.11025e-18 -6.92533e-06)
(0.0299301 -0.017855 8.45562e-19 -0.029927 4.6774e-19 -3.06954e-06)
(-0.0702677 -0.112002 5.11416e-20 0.0702696 -2.77109e-20 -1.83637e-06)
(-0.024678 -0.0860361 4.44925e-20 0.0246822 -4.2056e-20 -4.20068e-06)
(-0.00071207 -0.0617678 -1.72854e-19 0.000717972 -9.53577e-20 -5.90195e-06)
(0.0146627 -0.041048 -6.73116e-19 -0.0146558 1.16984e-19 -6.8662e-06)
(0.0255169 -0.0238922 -8.38507e-19 -0.02551 1.00841e-18 -6.87784e-06)
(0.034594 -0.0107 1.61763e-18 -0.0345885 1.43074e-18 -5.57368e-06)
(0.0411138 -0.00159006 6.48406e-19 -0.0411114 -9.81739e-19 -2.46837e-06)
(-0.0464148 -0.116933 -1.44425e-20 0.0464161 4.74768e-20 -1.32322e-06)
(-0.00603512 -0.075142 8.54409e-20 0.00603815 2.86139e-21 -3.02673e-06)
(0.0128576 -0.0454257 -8.57578e-20 -0.0128533 1.61613e-20 -4.25192e-06)
(0.0238455 -0.0226035 -8.05751e-20 -0.0238405 6.85636e-20 -4.94502e-06)
(0.031047 -0.00464693 -8.53592e-19 -0.0310421 1.00698e-18 -4.9509e-06)
(0.0373237 0.00952765 2.41252e-18 -0.0373197 -1.09064e-19 -4.00896e-06)
(0.0419127 0.0194426 -1.74732e-18 -0.041911 -1.25102e-19 -1.77315e-06)
(-0.025849 -0.11787 8.80126e-20 0.0258498 8.85346e-21 -7.5909e-07)
(0.00208177 -0.0624198 2.77601e-19 -0.00208003 -8.62096e-20 -1.73649e-06)
(0.014227 -0.0284908 -4.67563e-19 -0.0142245 -4.60294e-20 -2.43856e-06)
(0.0207875 -0.00440575 -1.29504e-18 -0.0207847 2.84793e-19 -2.83394e-06)
(0.0248151 0.0137361 -9.16188e-19 -0.0248123 1.04296e-18 -2.8337e-06)
(0.0284596 0.0283886 1.25955e-18 -0.0284573 3.86748e-19 -2.29003e-06)
(0.0311652 0.0387496 5.50509e-19 -0.0311642 -5.46122e-20 -1.00944e-06)
(-0.0082287 -0.11751 3.5199e-20 0.00822887 5.30985e-21 -1.66317e-07)
(0.00176248 -0.0541566 -1.37212e-19 -0.0017621 -1.52652e-20 -3.80496e-07)
(0.00595686 -0.0179233 -2.37338e-19 -0.00595633 1.07973e-19 -5.32919e-07)
(0.00813455 0.00674249 -4.13104e-19 -0.00813394 3.56744e-19 -6.15702e-07)
(0.00942022 0.0248539 -4.32333e-19 -0.00941961 7.47531e-19 -6.09634e-07)
(0.0106106 0.0396825 6.08641e-19 -0.0106101 4.26423e-19 -4.85053e-07)
(0.0115023 0.050234 3.13677e-19 -0.0115021 -7.98705e-20 -2.08165e-07)
(0.0082287 -0.11751 2.85615e-20 -0.00822913 1.20229e-20 4.32849e-07)
(-0.00176248 -0.0541566 -1.3827e-19 0.00176149 1.87976e-20 9.89824e-07)
(-0.00595671 -0.0179234 2.13581e-20 0.00595532 2.73371e-19 1.39271e-06)
(-0.00813418 0.00674244 -3.16983e-19 0.00813255 3.83489e-19 1.62552e-06)
(-0.00941952 0.0248539 -1.18745e-19 0.00941788 5.03855e-19 1.63723e-06)
(-0.0106095 0.0396824 -5.34265e-20 0.0106082 2.8946e-19 1.33812e-06)
(-0.0115007 0.050234 1.87361e-19 0.0115001 -9.89234e-21 6.0116e-07)
(0.025849 -0.11787 4.94459e-20 -0.02585 1.19742e-20 1.01482e-06)
(-0.00208173 -0.0624199 1.57051e-19 0.00207941 4.45927e-20 2.32104e-06)
(-0.0142268 -0.0284909 4.72425e-19 0.0142235 4.16391e-19 3.26326e-06)
(-0.0207871 -0.00440587 -1.16208e-18 0.0207833 3.64499e-19 3.80233e-06)
(-0.0248144 0.013736 -1.84607e-19 0.0248106 3.91464e-19 3.81894e-06)
(-0.0284585 0.0283886 -4.19652e-19 0.0284554 9.30485e-20 3.10771e-06)
(-0.0311636 0.0387497 2.00043e-19 0.0311622 -1.67432e-20 1.38605e-06)
(0.0464147 -0.116933 1.19178e-19 -0.0464162 3.1267e-20 1.55783e-06)
(0.00603524 -0.0751422 1.84056e-19 -0.00603881 -1.06159e-20 3.56285e-06)
(-0.0128573 -0.0454259 5.41775e-19 0.0128523 1.41058e-19 5.00804e-06)
(-0.0238449 -0.0226037 3.98419e-19 0.023839 3.37223e-19 5.83252e-06)
(-0.0310461 -0.00464702 3.78119e-19 0.0310403 8.48485e-19 5.85343e-06)
(-0.0373224 0.00952761 -2.04669e-18 0.0373177 7.59104e-19 4.75759e-06)
(-0.0419112 0.0194427 -2.56111e-19 0.041909 -8.3021e-20 2.1178e-06)
(0.0702676 -0.112002 3.79772e-21 -0.0702697 -5.76177e-20 2.04053e-06)
(0.0246782 -0.0860363 4.37852e-20 -0.0246829 -6.84331e-20 4.66695e-06)
(0.000712542 -0.061768 7.87847e-20 -0.000719101 -1.02667e-19 6.55923e-06)
(-0.0146619 -0.0410481 1.31407e-19 0.0146543 -7.5514e-20 7.63716e-06)
(-0.0255159 -0.0238923 4.32108e-19 0.0255082 -3.24557e-19 7.66133e-06)
(-0.0345927 -0.0106999 1.75515e-18 0.0345865 8.80178e-19 6.22301e-06)
(-0.0411123 -0.00158994 1.32651e-18 0.0411095 5.79728e-19 2.7671e-06)
(0.095914 -0.100365 -2.1732e-20 -0.0959164 -9.99225e-20 2.445e-06)
(0.0519063 -0.0885284 -1.05141e-20 -0.0519119 -9.51342e-20 5.59189e-06)
(0.0246288 -0.0701914 -5.00241e-20 -0.0246367 -2.35533e-19 7.8586e-06)
(0.00511995 -0.0525509 7.3728e-20 -0.0051291 -3.15113e-19 9.1486e-06)
(-0.00963899 -0.037213 7.89133e-19 0.00962981 -1.50996e-18 9.17523e-06)
(-0.0215306 -0.0257039 3.90154e-18 0.0215232 1.21509e-19 7.4498e-06)
(-0.0299286 -0.0178549 -1.07008e-18 0.0299253 -4.89049e-19 3.31058e-06)
(0.120276 -0.0803766 -5.06485e-21 -0.120279 -9.1381e-20 2.75526e-06)
(0.0822354 -0.0780847 -5.06478e-20 -0.0822417 -7.75708e-20 6.30162e-06)
(0.0531436 -0.0655434 -2.58627e-19 -0.0531524 -4.09972e-19 8.85555e-06)
(0.0300691 -0.0519986 -1.14563e-19 -0.0300794 -7.32242e-19 1.0308e-05)
(0.0116145 -0.0397375 4.33949e-19 -0.0116248 -1.29174e-18 1.0336e-05)
(-0.00282896 -0.0307168 1.88973e-18 0.00282057 -8.52839e-19 8.38966e-06)
(-0.0128887 -0.0246285 -1.5621e-18 0.0128849 3.09769e-19 3.72627e-06)
(0.139517 -0.0522289 -8.53243e-21 -0.13952 -2.29721e-20 2.96e-06)
(0.108345 -0.0538825 -1.62931e-19 -0.108351 -7.17675e-20 6.76981e-06)
(0.078463 -0.0466705 -8.29083e-19 -0.0784725 -1.77398e-20 9.51315e-06)
(0.0527473 -0.0381236 -9.49695e-19 -0.0527584 -3.23445e-19 1.10725e-05)
(0.0313805 -0.0301659 6.86521e-19 -0.0313916 -5.86502e-19 1.1101e-05)
(0.0149806 -0.0243899 1.59643e-18 -0.0149896 -1.35566e-18 9.00861e-06)
(0.0036677 -0.0205198 8.79652e-19 -0.0036717 9.96548e-19 3.99976e-06)
(0.150164 -0.0181353 -9.35002e-20 -0.150167 -2.36372e-20 3.05089e-06)
(0.123433 -0.0192534 -2.37956e-19 -0.12344 -9.87962e-20 6.97792e-06)
(0.0933049 -0.0169113 -8.756e-20 -0.0933147 2.70074e-19 9.80537e-06)
(0.0661794 -0.0139874 1.85051e-19 -0.0661908 3.32735e-19 1.14118e-05)
(0.0432031 -0.0112257 3.88648e-19 -0.0432146 2.16371e-20 1.14397e-05)
(0.025738 -0.00923452 5.92367e-19 -0.0257473 -9.18397e-19 9.28158e-06)
(0.0137491 -0.00790493 -3.93817e-20 -0.0137532 -4.42147e-19 4.1194e-06)
(0.150164 0.0181345 -9.53797e-20 -0.150167 6.82385e-20 3.02502e-06)
(0.123433 0.0192536 -1.55578e-19 -0.123439 1.83097e-19 6.91878e-06)
(0.0933047 0.0169123 -1.20473e-21 -0.0933144 1.49076e-19 9.72214e-06)
(0.0661791 0.0139894 1.57294e-19 -0.0661904 -6.14966e-19 1.13144e-05)
(0.0432026 0.0112287 2.04107e-19 -0.0432139 -2.39635e-19 1.13409e-05)
(0.0257372 0.00923895 1.09866e-20 -0.0257464 -5.42416e-19 9.19992e-06)
(0.0137478 0.00791157 -8.00822e-20 -0.0137519 8.54948e-22 4.08202e-06)
(0.139518 0.0522282 -4.89422e-20 -0.139521 1.47892e-19 2.88283e-06)
(0.108345 0.0538826 -2.34569e-20 -0.108351 2.63339e-19 6.59393e-06)
(0.0784625 0.0466714 -3.19613e-19 -0.0784718 -1.79015e-20 9.26567e-06)
(0.0527463 0.0381253 -1.278e-18 -0.0527571 -1.74084e-19 1.07827e-05)
(0.031379 0.0301684 3.54756e-19 -0.0313898 -3.17177e-19 1.08069e-05)
(0.0149782 0.0243937 5.80161e-19 -0.014987 -1.62963e-18 8.76515e-06)
(0.00366405 0.0205254 -5.45785e-20 -0.00366794 -6.93427e-19 3.88774e-06)
(0.120277 0.0803761 1.46463e-20 -0.12028 3.02284e-20 2.63031e-06)
(0.0822353 0.0780848 1.012e-19 -0.0822413 1.03898e-19 6.01651e-06)
(0.0531428 0.065544 9.21185e-20 -0.0531513 -1.68838e-19 8.45437e-06)
(0.0300677 0.0519997 -6.26315e-19 -0.0300775 1.3105e-19 9.83829e-06)
(0.0116122 0.0397392 -1.08447e-18 -0.011622 -1.06759e-18 9.8595e-06)
(-0.00283247 0.0307194 -3.40877e-18 0.00282448 -1.08946e-18 7.99543e-06)
(-0.0128942 0.0246323 -3.50856e-19 0.0128906 6.20846e-19 3.54525e-06)
(0.0959147 0.100364 5.30092e-20 -0.095917 -4.00108e-20 2.27655e-06)
(0.0519062 0.0885282 7.05092e-20 -0.0519114 -5.07155e-20 5.20781e-06)
(0.024628 0.0701915 -7.20602e-20 -0.0246354 -2.80049e-19 7.31816e-06)
(0.00511835 0.0525512 -6.59967e-19 -0.00512687 -1.40674e-19 8.51583e-06)
(-0.00964165 0.0372136 -1.2294e-18 0.00963311 -2.34107e-19 8.5332e-06)
(-0.0215347 0.0257049 -2.23954e-18 0.0215278 2.11025e-18 6.91835e-06)
(-0.0299352 0.0178563 8.45628e-19 0.0299321 4.67719e-19 3.06622e-06)
(0.0702684 0.112002 5.11381e-20 -0.0702702 -2.77114e-20 1.83561e-06)
(0.0246782 0.0860361 4.44882e-20 -0.0246824 -4.20558e-20 4.19945e-06)
(0.000711872 0.0617676 -1.72856e-19 -0.000717773 -9.53512e-20 5.9014e-06)
(-0.0146634 0.0410477 -6.73117e-19 0.0146566 1.16997e-19 6.86695e-06)
(-0.0255184 0.0238917 -8.3852e-19 0.0255116 1.00842e-18 6.88001e-06)
(-0.0345968 0.0106992 1.6177e-18 0.0345912 1.43069e-18 5.57648e-06)
(-0.0411189 0.00158878 6.48424e-19 0.0411164 -9.81706e-19 2.47016e-06)
(0.0464155 0.116933 -1.44451e-20 -0.0464168 4.74752e-20 1.3238e-06)
(0.00603542 0.0751418 8.54374e-20 -0.00603845 2.8596e-21 3.02918e-06)
(-0.0128577 0.0454251 -8.57607e-20 0.0128534 1.61664e-20 4.25711e-06)
(-0.023846 0.0226026 -8.0576e-20 0.023841 6.8577e-20 4.9533e-06)
(-0.0310482 0.00464537 -8.53613e-19 0.0310432 1.00699e-18 4.96138e-06)
(-0.0373258 -0.00953001 2.41257e-18 0.0373218 -1.0908e-19 4.01924e-06)
(-0.0419168 -0.0194463 -1.74736e-18 0.041915 -1.25043e-19 1.77838e-06)
(0.0258497 0.11787 8.80131e-20 -0.0258504 8.85077e-21 7.61238e-07)
(-0.00208136 0.0624195 2.77601e-19 0.00207962 -8.62129e-20 1.74252e-06)
(-0.0142268 0.02849 -4.67568e-19 0.0142243 -4.60236e-20 2.44918e-06)
(-0.0207876 0.00440427 -1.29505e-18 0.0207847 2.84807e-19 2.84919e-06)
(-0.0248156 -0.0137384 -9.16202e-19 0.0248127 1.04297e-18 2.85205e-06)
(-0.0284606 -0.0283922 1.25955e-18 0.0284583 3.86756e-19 2.30764e-06)
(-0.0311674 -0.0387553 5.50558e-19 0.0311664 -5.45945e-20 1.01857e-06)
(0.00822927 0.11751 3.51996e-20 -0.00822944 5.30746e-21 1.68934e-07)
(-0.00176194 0.0541562 -1.37214e-19 0.00176155 -1.52691e-20 3.87962e-07)
(-0.0059563 0.0179223 -2.37339e-19 0.00595575 1.07975e-19 5.45763e-07)
(-0.00813396 -0.00674427 -4.13105e-19 0.00813333 3.56752e-19 6.33864e-07)
(-0.00941961 -0.0248568 -4.32339e-19 0.00941898 7.47541e-19 6.31119e-07)
(-0.0106101 -0.0396868 6.08646e-19 0.0106096 4.26438e-19 5.05419e-07)
(-0.0115021 -0.0502408 3.13684e-19 0.0115019 -7.98418e-20 2.18403e-07)
(-0.00822827 0.11751 2.85617e-20 0.0082287 1.20202e-20 -4.2985e-07)
(0.00176315 0.0541563 -1.3827e-19 -0.00176217 1.87921e-20 -9.81776e-07)
(0.00595768 0.0179224 2.13611e-20 -0.0059563 2.73374e-19 -1.37912e-06)
(0.0081355 -0.00674427 -3.16991e-19 -0.0081339 3.83497e-19 -1.60651e-06)
(0.0094213 -0.0248568 -1.18748e-19 -0.00941969 5.03863e-19 -1.61474e-06)
(0.0106118 -0.0396869 -5.34297e-20 -0.0106105 2.89475e-19 -1.31672e-06)
(0.0115037 -0.0502409 1.87359e-19 -0.0115031 -9.86147e-21 -5.90137e-07)
(-0.0258487 0.11787 4.94467e-20 0.0258497 1.1971e-20 -1.01266e-06)
(0.00208251 0.0624197 1.57054e-19 -0.0020802 4.45853e-20 -2.31485e-06)
(0.0142281 0.0284901 4.72427e-19 -0.0142249 4.16396e-19 -3.25258e-06)
(0.0207891 0.00440429 -1.1621e-18 -0.0207853 3.64505e-19 -3.78712e-06)
(0.0248173 -0.0137385 -1.84612e-19 -0.0248135 3.91466e-19 -3.80083e-06)
(0.0284625 -0.0283924 -4.19654e-19 -0.0284594 9.30613e-20 -3.09045e-06)
(0.0311691 -0.0387556 2.00041e-19 -0.0311678 -1.6711e-20 -1.37735e-06)
(-0.0464146 0.116933 1.19181e-19 0.0464162 3.12642e-20 -1.55653e-06)
(-0.00603438 0.075142 1.8406e-19 0.00603794 -1.06218e-20 -3.55918e-06)
(0.0128589 0.0454253 5.41777e-19 -0.0128539 1.41056e-19 -5.00142e-06)
(0.0238475 0.0226026 3.98421e-19 -0.0238416 3.3723e-19 -5.82271e-06)
(0.0310499 0.00464531 3.78119e-19 -0.0310441 8.48494e-19 -5.84132e-06)
(0.0373278 -0.00953019 -2.04675e-18 -0.037323 7.59085e-19 -4.7457e-06)
(0.0419188 -0.0194466 -2.56144e-19 -0.0419166 -8.30053e-20 -2.1115e-06)
(-0.0702677 0.112002 3.79978e-21 0.0702697 -5.7621e-20 -2.04105e-06)
(-0.0246773 0.0860363 4.37875e-20 0.0246819 -6.84389e-20 -4.66758e-06)
(-0.000710723 0.0617678 7.87827e-20 0.000717282 -1.02671e-19 -6.55927e-06)
(0.0146648 0.0410477 1.314e-19 -0.0146572 -7.55166e-20 -7.636e-06)
(0.0255202 0.0238917 4.32101e-19 -0.0255125 -3.24565e-19 -7.65901e-06)
(0.0345988 0.0106991 1.75515e-18 -0.0345926 8.80175e-19 -6.22022e-06)
(0.041121 0.00158858 1.32652e-18 -0.0411183 5.79788e-19 -2.76559e-06)
(-0.095914 0.100365 -2.17309e-20 0.0959165 -9.99271e-20 -2.44697e-06)
(-0.0519054 0.0885284 -1.05126e-20 0.051911 -9.51412e-20 -5.59646e-06)
(-0.024627 0.0701916 -5.00271e-20 0.0246349 -2.35541e-19 -7.86483e-06)
(-0.00511704 0.0525513 7.372e-20 0.00512619 -3.15123e-19 -9.15554e-06)
(0.00964329 0.0372136 7.89131e-19 -0.0096341 -1.51e-18 -9.18187e-06)
(0.0215367 0.0257049 3.90159e-18 -0.0215293 1.21575e-19 -7.45508e-06)
(0.0299374 0.0178563 -1.07012e-18 -0.029934 -4.89034e-19 -3.3128e-06)
(-0.120276 0.0803764 -5.06315e-21 0.120279 -9.13855e-20 -2.75915e-06)
(-0.0822345 0.0780849 -5.0646e-20 0.0822408 -7.75783e-20 -6.31068e-06)
(-0.0531419 0.0655441 -2.58632e-19 0.0531508 -4.09982e-19 -8.86864e-06)
(-0.0300665 0.0519997 -1.14577e-19 0.0300768 -7.32256e-19 -1.03237e-05)
(-0.0116107 0.0397392 4.33957e-19 0.011621 -1.29179e-18 -1.03525e-05)
(0.00283433 0.0307195 1.88975e-18 -0.00282593 -8.52802e-19 -8.40408e-06)
(0.0128963 0.0246325 -1.56216e-18 -0.0128926 3.09738e-19 -3.73328e-06)
(-0.139517 0.0522286 -8.52997e-21 0.13952 -2.29742e-20 -2.96499e-06)
(-0.108344 0.0538828 -1.62929e-19 0.108351 -7.17731e-20 -6.78181e-06)
(-0.0784617 0.0466714 -8.29092e-19 0.0784712 -1.77506e-20 -9.53069e-06)
(-0.0527452 0.0381253 -9.4971e-19 0.0527563 -3.23471e-19 -1.1094e-05)
(-0.0313776 0.0301685 6.86529e-19 0.0313887 -5.86528e-19 -1.11237e-05)
(-0.0149766 0.0243939 1.59644e-18 0.0149856 -1.35567e-18 -9.02856e-06)
(-0.00366211 0.0205257 8.79633e-19 0.00366612 9.96605e-19 -4.00925e-06)
(-0.150164 0.0181349 -9.34982e-20 0.150167 -2.36396e-20 -3.05705e-06)
(-0.123432 0.0192537 -2.37953e-19 0.123439 -9.88038e-20 -6.99236e-06)
(-0.0933039 0.0169123 -8.75609e-20 0.0933137 2.70069e-19 -9.82636e-06)
(-0.0661781 0.0139893 1.85045e-19 0.0661895 3.32731e-19 -1.14375e-05)
(-0.0432013 0.0112287 3.88645e-19 0.0432128 2.16262e-20 -1.14671e-05)
(-0.0257357 0.00923906 5.92359e-19 0.025745 -9.18407e-19 -9.30589e-06)
(-0.0137461 0.00791191 -3.94135e-20 0.0137502 -4.42147e-19 -4.13129e-06)
)
;

boundaryField
{
    out
    {
        type            mySigma;
    }
    in
    {
        type            mySigma;
    }
    frontAndBack
    {
        type            empty;
    }
}


// ************************************************************************* //
