/*--------------------------------*- C++ -*----------------------------------*\
| =========                 |                                                 |
| \\      /  F ield         | foam-extend: Open Source CFD                    |
|  \\    /   O peration     | Version:  3.0                                   |
|   \\  /    A nd           | Web:         http://www.extend-project.de       |
|    \\/     M anipulation  |                                                 |
\*---------------------------------------------------------------------------*/
FoamFile
{
    version     2.0;
    format      ascii;
    class       regIOobject;
    location    "80/uniform";
    object      profilingInfo;
}
// * * * * * * * * * * * * * * * * * * * * * * * * * * * * * * * * * * * * * //

profilingInfo
(

    {
        id              11;
        parentId        9;
        description     "Foam::Time::writeObject - outputTime";
        calls           2;
        totalTime       0.002728;
        childTime       0;
        onStack         1;
    }

    {
        id              9;
        parentId        1;
        description     "Foam::Time::writeObject";
        calls           8000;
        totalTime       0.030997;
        childTime       0.002728;
        onStack         1;
    }

    {
        id              1;
        description     "application::main";
        calls           1;
        totalTime       12.0425;
        childTime       2.12471;
        onStack         1;
    }

    {
        id              3;
        parentId        2;
        description     "functionObjectList::read";
        calls           1;
        totalTime       2.1e-05;
        childTime       0;
        onStack         0;
    }

    {
        id              10;
        parentId        1;
        description     "functionObjects_.execute()";
        calls           7999;
        totalTime       0.029993;
        childTime       0;
        onStack         0;
    }

    {
        id              2;
        parentId        1;
        description     "functionObjects_.start()";
        calls           1;
        totalTime       7.6e-05;
        childTime       2.1e-05;
        onStack         0;
    }

    {
        id              7;
        parentId        1;
        description     "fvMatrix::solve_Theta";
        calls           8000;
        totalTime       0.461963;
        childTime       0.079786;
        onStack         0;
    }

    {
        id              4;
        parentId        1;
        description     "fvMatrix::solve_s";
        calls           8000;
        totalTime       1.60168;
        childTime       0.696914;
        onStack         0;
    }

    {
        id              8;
        parentId        7;
        description     "lduMatrix::solver_Theta";
        calls           8000;
        totalTime       0.079786;
        childTime       0;
        onStack         0;
    }

    {
        id              5;
        parentId        4;
        description     "lduMatrix::solver_sx";
        calls           8000;
        totalTime       0.351357;
        childTime       0;
        onStack         0;
    }

    {
        id              6;
        parentId        4;
        description     "lduMatrix::solver_sy";
        calls           8000;
        totalTime       0.345557;
        childTime       0;
        onStack         0;
    }
);


// ************************************************************************* //
