/*--------------------------------*- C++ -*----------------------------------*\
| =========                 |                                                 |
| \\      /  F ield         | foam-extend: Open Source CFD                    |
|  \\    /   O peration     | Version:  3.0                                   |
|   \\  /    A nd           | Web:         http://www.extend-project.de       |
|    \\/     M anipulation  |                                                 |
\*---------------------------------------------------------------------------*/
FoamFile
{
    version     2.0;
    format      ascii;
    class       volScalarField;
    location    "12";
    object      p;
}
// * * * * * * * * * * * * * * * * * * * * * * * * * * * * * * * * * * * * * //

dimensions      [0 0 0 0 0 0 0];

internalField   nonuniform List<scalar> 
120
(
-0.284424
-0.211578
-0.220988
-0.210928
-0.21095
-0.265029
-0.197093
-0.205832
-0.196425
-0.196448
-0.227339
-0.169041
-0.176539
-0.168468
-0.168504
-0.174403
-0.129624
-0.13535
-0.129131
-0.129164
-0.109349
-0.0812412
-0.08483
-0.0809301
-0.0809711
-0.0370908
-0.0274736
-0.0286595
-0.0273082
-0.0273412
0.0379347
0.0283073
0.0295818
0.0282512
0.0282155
0.110131
0.0820154
0.0856874
0.0818072
0.0817849
0.175071
0.130287
0.136085
0.129883
0.129862
0.227838
0.16954
0.177096
0.169042
0.169037
0.265331
0.197396
0.206174
0.19678
0.196778
0.284495
0.211655
0.221082
0.211034
0.211048
0.28452
0.211638
0.221049
0.210991
0.211005
0.264898
0.197041
0.205817
0.196472
0.196501
0.227468
0.169155
0.176672
0.168631
0.168658
0.174274
0.129577
0.135342
0.129189
0.129227
0.109449
0.0813097
0.0849039
0.0810106
0.0810437
0.0369049
0.027341
0.0285418
0.0272136
0.0272532
-0.0379003
-0.0283395
-0.0296368
-0.0283509
-0.0283217
-0.110377
-0.0822385
-0.0859207
-0.0820629
-0.0820327
-0.175073
-0.130374
-0.13621
-0.130081
-0.130066
-0.228087
-0.169768
-0.177336
-0.169307
-0.169294
-0.265303
-0.197437
-0.206241
-0.196897
-0.1969
-0.284686
-0.211798
-0.221214
-0.211148
-0.211155
)
;

boundaryField
{
    out
    {
        type            implicitExtrapolation;
    }
    in
    {
        type            implicitExtrapolation;
    }
    frontAndBack
    {
        type            empty;
    }
}


// ************************************************************************* //
