/*--------------------------------*- C++ -*----------------------------------*\
| =========                 |                                                 |
| \\      /  F ield         | foam-extend: Open Source CFD                    |
|  \\    /   O peration     | Version:  3.0                                   |
|   \\  /    A nd           | Web:         http://www.extend-project.de       |
|    \\/     M anipulation  |                                                 |
\*---------------------------------------------------------------------------*/
FoamFile
{
    version     2.0;
    format      ascii;
    class       volSymmTensorField;
    location    "12";
    object      sigma;
}
// * * * * * * * * * * * * * * * * * * * * * * * * * * * * * * * * * * * * * //

dimensions      [0 0 0 0 0 0 0];

internalField   nonuniform List<symmTensor> 
120
(
(-0.131185 -0.0229129 1.934e-19 0.131352 -1.07224e-20 -0.000167229)
(-0.0935268 -0.0223422 5.32698e-19 0.0938804 4.36787e-19 -0.000353642)
(-0.0549239 -0.0172999 1.17786e-18 0.0553817 -6.10656e-19 -0.000457807)
(-0.0239378 -0.0127077 -8.71836e-19 0.0243772 5.43885e-20 -0.000439436)
(-0.00169411 -0.00884161 -9.17625e-19 0.00191745 -5.89462e-21 -0.000223341)
(-0.111799 -0.0630419 3.38235e-19 0.111927 -1.01572e-19 -0.00012804)
(-0.0687404 -0.058037 1.65652e-18 0.0690109 -7.82785e-19 -0.000270502)
(-0.0326036 -0.0433712 9.85584e-19 0.0329529 -1.61969e-18 -0.000349301)
(-0.00438933 -0.0306003 1.39687e-18 0.00472276 -1.0486e-18 -0.000333433)
(0.0152457 -0.0205764 7.416e-19 -0.0150781 -1.38314e-18 -0.000167576)
(-0.0804297 -0.088375 1.0084e-20 0.0805099 -2.98104e-19 -8.02031e-05)
(-0.0315986 -0.0712925 -3.47012e-19 0.0317677 -1.30467e-18 -0.000169097)
(-0.000269325 -0.0477899 -1.32568e-18 0.000486572 -1.70678e-18 -0.000217247)
(0.0230667 -0.0282955 -1.97294e-18 -0.0228616 -1.84944e-18 -0.000205054)
(0.0384655 -0.0137611 -3.27695e-18 -0.0383649 5.86299e-19 -0.000100617)
(-0.0479224 -0.0971778 -1.004e-19 0.0479494 -2.12463e-19 -2.70449e-05)
(4.61636e-05 -0.0612037 -5.65481e-19 1.03603e-05 -7.5522e-19 -5.65239e-05)
(0.0243663 -0.030239 -3.04353e-18 -0.0242954 1.88574e-19 -7.09066e-05)
(0.0415149 -0.00590584 -1.05569e-18 -0.0414517 9.52605e-19 -6.32685e-05)
(0.0521023 0.0112408 -5.82948e-19 -0.0520752 1.67427e-18 -2.71211e-05)
(-0.0226523 -0.0950023 6.2215e-20 0.0226245 -1.80489e-19 2.7831e-05)
(0.0132066 -0.0392908 -7.6093e-19 -0.0132662 -4.18332e-20 5.96169e-05)
(0.0286551 -0.00286775 -9.90847e-20 -0.0287349 4.25261e-19 7.98854e-05)
(0.039044 0.0244395 -3.80129e-19 -0.0391265 1.00582e-18 8.24256e-05)
(0.045082 0.0427057 2.88625e-18 -0.04513 -4.02024e-20 4.80162e-05)
(-0.00634514 -0.0907033 -2.50358e-19 0.00626443 -8.38639e-20 8.07064e-05)
(0.00699041 -0.0223624 -1.00844e-18 -0.00716189 2.06752e-19 0.000171474)
(0.0122992 0.0169624 7.74821e-19 -0.0125241 4.0486e-19 0.000224898)
(0.0157961 0.045652 2.24886e-19 -0.0160181 6.45106e-19 0.00022208)
(0.0178121 0.0642467 6.49845e-19 -0.0179317 -3.21793e-19 0.00011958)
(0.00604337 -0.0907302 -2.44836e-19 -0.00617147 -4.42784e-20 0.000128101)
(-0.0073443 -0.0223945 -5.73625e-19 0.00707264 1.61992e-19 0.00027166)
(-0.0126312 0.0169464 7.13009e-19 0.0122766 3.58654e-19 0.000354605)
(-0.0160379 0.045659 1.9257e-19 0.0156913 4.8034e-19 0.000346621)
(-0.0178204 0.0642961 -1.07357e-18 0.0176374 -2.24909e-19 0.000183045)
(0.022375 -0.0950787 -3.43973e-19 -0.0225418 -9.29396e-21 0.000166781)
(-0.0135077 -0.0393723 8.90299e-19 0.0131543 3.43602e-19 0.000353395)
(-0.0289455 -0.00290586 -4.70038e-19 0.0284853 8.32016e-20 0.00046022)
(-0.0392763 0.0244585 5.36987e-19 0.0388287 -5.7019e-20 0.000447593)
(-0.0451558 0.0428234 8.22233e-20 0.0449218 -3.99593e-19 0.000234017)
(0.0476886 -0.097293 -2.13274e-19 -0.0478828 3.08793e-19 0.000194232)
(-0.000263471 -0.0612984 -9.53913e-19 -0.000147883 5.41152e-19 0.000411354)
(-0.0245889 -0.030275 -1.87867e-18 0.024054 3.45159e-19 0.000534943)
(-0.0417262 -0.00587946 -1.23336e-18 0.0412076 7.61054e-19 0.000518612)
(-0.0522624 0.0113563 -3.1378e-18 0.0519929 -1.26749e-19 0.000269414)
(0.0802509 -0.0885168 1.16636e-19 -0.0804595 4.10577e-19 0.000208538)
(0.0314651 -0.0713635 1.29884e-19 -0.0319067 9.3929e-19 0.000441543)
(0.000118483 -0.0477992 -6.70127e-19 -0.000692098 1.0828e-18 0.000573616)
(-0.0232441 -0.0282661 1.80835e-18 0.0226893 1.13792e-19 0.000554767)
(-0.0386755 -0.0137118 2.39087e-18 0.0383888 2.56352e-18 0.000286709)
(0.11168 -0.0632005 2.97105e-19 -0.111889 2.25783e-19 0.000208788)
(0.0686675 -0.058067 5.24981e-19 -0.0691094 2.08192e-19 0.000441996)
(0.0325104 -0.0433434 2.1401e-18 -0.0330841 1.18669e-18 0.00057375)
(0.0042576 -0.0305696 1.20566e-18 -0.00481138 -4.49255e-19 0.000553781)
(-0.0154377 -0.0206138 2.35236e-18 0.0151528 -1.97028e-19 0.000284903)
(0.13113 -0.0230812 1.32522e-19 -0.131325 -2.83421e-21 0.000194858)
(0.093487 -0.0223419 4.70741e-19 -0.0938995 4.70707e-20 0.00041248)
(0.0548692 -0.0172449 1.69104e-18 -0.0554042 -1.39677e-19 0.000535025)
(0.0238587 -0.0126744 1.45398e-19 -0.0243741 -6.11558e-19 0.000515355)
(0.00157972 -0.00893562 -1.11842e-19 -0.00184357 -2.1287e-18 0.000263844)
(0.13113 0.022943 1.93083e-19 -0.131298 -1.08785e-20 0.000167691)
(0.0934153 0.0225208 5.32121e-19 -0.0937702 4.36828e-19 0.000354923)
(0.0547241 0.0177178 1.17664e-18 -0.055184 -6.0921e-19 0.000459938)
(0.0236052 0.0135165 -8.73804e-19 -0.0240472 5.5511e-20 0.000441923)
(0.00114472 0.0103586 -9.16203e-19 -0.00136961 -5.22384e-21 0.000224894)
(0.111693 0.0630319 3.38097e-19 -0.111822 -1.01741e-19 0.000129019)
(0.0684862 0.0581338 1.65662e-18 -0.0687592 -7.82476e-19 0.000273)
(0.0321231 0.0436336 9.85704e-19 -0.0324764 -1.61916e-18 0.000353218)
(0.00356356 0.0311385 1.39601e-18 -0.00390159 -1.04805e-18 0.000338029)
(-0.016642 0.0216162 7.42142e-19 0.0164716 -1.38395e-18 0.00017039)
(0.0803064 0.088308 9.90332e-21 -0.0803879 -2.98397e-19 8.14706e-05)
(0.0312614 0.0712469 -3.4686e-19 -0.0314336 -1.30521e-18 0.000172221)
(-0.000379796 0.0477759 -1.32532e-18 0.000157785 -1.70814e-18 0.000222012)
(-0.0241922 0.0283488 -1.97457e-18 0.0239816 -1.85168e-18 0.000210582)
(-0.0403631 0.0139615 -3.27539e-18 0.0402592 5.86726e-19 0.000103967)
(0.0478124 0.0970595 -1.00822e-19 -0.0478406 -2.12707e-19 2.82257e-05)
(-0.000383844 0.0609932 -5.65887e-19 0.000324491 -7.55629e-19 5.9353e-05)
(-0.025023 0.0298971 -3.0435e-18 0.0249479 1.87968e-19 7.51126e-05)
(-0.0426574 0.00538073 -1.05621e-18 0.0425893 9.52558e-19 6.81073e-05)
(-0.0540144 -0.012026 -5.84834e-19 0.0539844 1.67621e-18 3.003e-05)
(0.0225737 0.0948504 6.15684e-20 -0.0225467 -1.80718e-19 -2.70257e-05)
(-0.0134615 0.0389368 -7.61862e-19 0.0135193 -4.19917e-20 -5.78053e-05)
(-0.0291503 0.0022357 -9.9981e-20 0.0292276 4.25703e-19 -7.73032e-05)
(-0.0399032 -0.0254796 -3.803e-19 0.0399827 1.00705e-18 -7.94954e-05)
(-0.046507 -0.0443561 2.8836e-18 0.0465533 -3.88112e-20 -4.62407e-05)
(0.00630449 0.0905344 -2.51039e-19 -0.00622398 -8.405e-20 -8.05152e-05)
(-0.00710145 0.0219255 -1.00963e-18 0.00727266 2.0671e-19 -0.000171202)
(-0.0125052 -0.0177637 7.73468e-19 0.0127299 4.05261e-19 -0.000224725)
(-0.0161439 -0.0469927 2.24129e-19 0.0163659 6.46609e-19 -0.000221991)
(-0.0183747 -0.0663999 6.49482e-19 0.0184943 -3.22168e-19 -0.000119562)
(-0.00604325 0.0905585 -2.45426e-19 0.00617173 -4.44425e-20 -0.000128478)
(0.00739948 0.0219578 -5.74637e-19 -0.0071266 1.62062e-19 -0.000272872)
(0.0127603 -0.0177458 7.10997e-19 -0.0124035 3.58757e-19 -0.00035673)
(0.0162841 -0.0469959 1.91535e-19 -0.0159348 4.81629e-19 -0.000349228)
(0.0182564 -0.0664462 -1.07317e-18 -0.0180718 -2.25554e-19 -0.000184625)
(-0.022332 0.0949211 -3.44367e-19 0.0224997 -9.3808e-21 -0.000167659)
(0.0137062 0.0390187 8.88634e-19 -0.0133504 3.43898e-19 -0.000355837)
(0.0293604 0.00227744 -4.73114e-19 -0.0288961 8.30894e-20 -0.000464239)
(0.0400267 -0.0254911 5.33387e-19 -0.0395743 -5.78072e-20 -0.000452419)
(0.0464483 -0.0444675 7.88644e-20 -0.0462114 -4.01582e-19 -0.000236969)
(-0.0476095 0.0971722 -2.13374e-19 0.0478048 3.09355e-19 -0.000195268)
(0.000543799 0.0610882 -9.55093e-19 -0.000129561 5.43081e-19 -0.000414238)
(0.0251613 0.029935 -1.88016e-18 -0.0246217 3.48011e-19 -0.000539603)
(0.0427525 0.00535816 -1.23511e-18 -0.0422283 7.64572e-19 -0.000524173)
(0.054036 -0.0121385 -3.13309e-18 -0.0537632 -1.27808e-19 -0.000272739)
(-0.0801588 0.0884532 1.17019e-19 0.0803684 4.11282e-19 -0.000209533)
(-0.0311859 0.071318 1.30385e-19 0.0316301 9.41526e-19 -0.000444235)
(0.000445381 0.0477838 -6.67654e-19 0.000132527 1.08712e-18 -0.000577908)
(0.0242525 0.0283158 1.81317e-18 -0.0236926 1.16543e-19 -0.000559878)
(0.040434 0.0139089 2.39423e-18 -0.0401443 2.57013e-18 -0.000289779)
(-0.111611 0.0631966 2.97642e-19 0.111821 2.26251e-19 -0.000209385)
(-0.0684715 0.0581637 5.26274e-19 0.0689152 2.09271e-19 -0.000443665)
(-0.0321129 0.0436025 2.14227e-18 0.0326893 1.18849e-18 -0.000576325)
(-0.00354336 0.0311004 1.20863e-18 0.00410018 -4.48467e-19 -0.000556819)
(0.0166999 0.0216473 2.35052e-18 -0.0164132 -1.9734e-19 -0.000286635)
(-0.131118 0.0231144 1.32967e-19 0.131313 -2.56366e-21 -0.00019505)
(-0.0934338 0.0225205 4.71803e-19 0.0938467 4.74479e-20 -0.000412861)
(-0.0547498 0.0176612 1.69233e-18 0.0552853 -1.40211e-19 -0.000535414)
(-0.0236317 0.0134795 1.46413e-19 0.0241475 -6.11539e-19 -0.000515775)
(-0.00115989 0.0104497 -1.12786e-19 0.00142395 -2.12953e-18 -0.000264057)
)
;

boundaryField
{
    out
    {
        type            mySigma;
    }
    in
    {
        type            mySigma;
    }
    frontAndBack
    {
        type            empty;
    }
}


// ************************************************************************* //
