/*--------------------------------*- C++ -*----------------------------------*\
| =========                 |                                                 |
| \\      /  F ield         | OpenFOAM: The Open Source CFD Toolbox           |
|  \\    /   O peration     | Version:  2.2.0                                 |
|   \\  /    A nd           | Web:      www.OpenFOAM.org                      |
|    \\/     M anipulation  |                                                 |
\*---------------------------------------------------------------------------*/
FoamFile
{
    version     2.0;
    format      ascii;
    class       volScalarField;
    location    "75";
    object      Theta;
}
// * * * * * * * * * * * * * * * * * * * * * * * * * * * * * * * * * * * * * //

dimensions      [0 2 -2 0 0 0 0];

internalField   nonuniform List<scalar> 
51200
(
1.04424
0.84
0.721572
0.380599
0.375912
-0.178135
0.0349327
-0.879357
-0.257143
-1.80086
-0.41599
-3.13453
1.05527
0.864835
0.710202
0.443123
0.327427
-0.0511207
-0.0829493
-0.632882
-0.510764
-1.31571
-0.959464
-2.09975
1.07009
0.892572
0.740006
0.503246
0.376946
0.054073
-0.00582032
-0.461487
-0.389648
-1.03887
-0.75626
-1.62849
1.0809
0.909357
0.741304
0.535933
0.360745
0.112788
-0.0560744
-0.36019
-0.502406
-0.875806
-0.97453
-1.40799
1.09559
0.935366
0.775321
0.590079
0.419968
0.204972
0.0375843
-0.215211
-0.3571
-0.655402
-0.741226
-1.07434
1.10244
0.943475
0.779542
0.601315
0.418702
0.221075
0.0247872
-0.191984
-0.392114
-0.625561
-0.814967
-1.05338
1.1105
0.957273
0.798805
0.629291
0.45245
0.267924
0.077778
-0.119612
-0.3121
-0.51839
-0.693938
-0.898585
1.11283
0.959752
0.800636
0.632063
0.45311
0.271069
0.0758235
-0.116113
-0.31933
-0.515466
-0.710796
-0.900621
1.11283
0.959752
0.800635
0.632063
0.453109
0.271069
0.0758231
-0.116113
-0.319331
-0.515467
-0.710796
-0.900621
1.1105
0.957273
0.798805
0.629291
0.45245
0.267923
0.0777781
-0.119613
-0.3121
-0.518392
-0.693938
-0.898588
1.10244
0.943475
0.779542
0.601315
0.418701
0.221074
0.0247867
-0.191985
-0.392114
-0.625562
-0.814967
-1.05338
1.09559
0.935366
0.77532
0.590078
0.419968
0.20497
0.037585
-0.215215
-0.357099
-0.655408
-0.741225
-1.07434
1.0809
0.909356
0.741304
0.535932
0.360745
0.112787
-0.056074
-0.360191
-0.502406
-0.875807
-0.97453
-1.40799
1.07009
0.89257
0.740006
0.503242
0.376948
0.0540656
-0.00581543
-0.461497
-0.389641
-1.03888
-0.756254
-1.6285
1.05527
0.864836
0.710203
0.443124
0.327429
-0.0511201
-0.0829481
-0.63288
-0.510764
-1.31571
-0.959466
-2.09975
1.04424
0.839997
0.721576
0.380592
0.375921
-0.178146
0.0349472
-0.879375
-0.257123
-1.80089
-0.415968
-3.13455
1.7691
1.77646
1.80511
1.79264
1.85366
1.80678
1.92148
1.81071
2.01774
1.78635
2.15818
1.68438
1.7724
1.78244
1.8035
1.80598
1.84434
1.83279
1.89842
1.86059
1.96848
1.88545
2.05325
1.90175
1.77707
1.7892
1.8114
1.81806
1.8569
1.85236
1.91835
1.89146
2.0015
1.93531
2.11267
1.98924
1.7812
1.79408
1.81169
1.82512
1.85106
1.86352
1.90184
1.90993
1.96615
1.96464
2.04395
2.02708
1.78647
1.80149
1.82028
1.83805
1.86421
1.88432
1.92167
1.94254
1.99685
2.01626
2.0945
2.1128
1.78978
1.80489
1.82177
1.84179
1.86283
1.88899
1.91541
1.94922
1.98229
2.02611
2.06634
2.12556
1.79298
1.80928
1.8268
1.84923
1.87028
1.9008
1.92621
1.96755
1.99815
2.05455
2.09061
2.17058
1.79426
1.81058
1.8276
1.85061
1.87034
1.90243
1.92501
1.96975
1.99487
2.05783
2.08415
2.17552
1.79426
1.81058
1.8276
1.85061
1.87034
1.90243
1.92501
1.96975
1.99487
2.05783
2.08415
2.17552
1.79298
1.80928
1.8268
1.84923
1.87029
1.90081
1.92621
1.96755
1.99815
2.05455
2.09061
2.17058
1.78978
1.80489
1.82177
1.84179
1.86283
1.88899
1.91541
1.94922
1.98229
2.02611
2.06634
2.12556
1.78647
1.80149
1.82028
1.83805
1.86421
1.88432
1.92167
1.94255
1.99685
2.01626
2.0945
2.11281
1.7812
1.79408
1.81169
1.82512
1.85106
1.86352
1.90184
1.90994
1.96615
1.96464
2.04395
2.02709
1.77707
1.7892
1.8114
1.81806
1.8569
1.85236
1.91835
1.89147
2.00149
1.93532
2.11266
1.98925
1.7724
1.78244
1.8035
1.80598
1.84434
1.83279
1.89842
1.86059
1.96848
1.88545
2.05325
1.90175
1.7691
1.77646
1.80511
1.79265
1.85365
1.80679
1.92147
1.81073
2.01773
1.78636
2.15817
1.68439
1.7931
1.76138
1.73371
1.68586
1.66183
1.5899
1.57647
1.46618
1.4766
1.3033
1.36074
1.07691
1.79598
1.7666
1.73577
1.6974
1.66213
1.61189
1.5729
1.50712
1.46555
1.3819
1.33614
1.24242
1.79944
1.77155
1.74302
1.70592
1.67465
1.62484
1.59337
1.52552
1.49914
1.40714
1.39383
1.27683
1.80247
1.7752
1.74497
1.71122
1.6745
1.63277
1.58892
1.53746
1.48633
1.42353
1.36545
1.29063
1.8062
1.78062
1.75226
1.72079
1.68654
1.64778
1.60763
1.55974
1.51498
1.45604
1.40992
1.33947
1.80833
1.78268
1.75338
1.72267
1.686
1.64952
1.60411
1.5613
1.50601
1.4567
1.39108
1.33595
1.81058
1.78593
1.75755
1.72843
1.6927
1.65864
1.6142
1.57505
1.52086
1.47707
1.41296
1.3666
1.81136
1.78665
1.75797
1.729
1.69254
1.65902
1.61305
1.5752
1.518
1.47682
1.40715
1.36539
1.81136
1.78665
1.75797
1.729
1.69254
1.65902
1.61305
1.5752
1.518
1.47682
1.40715
1.36539
1.81058
1.78593
1.75755
1.72843
1.6927
1.65864
1.6142
1.57504
1.52086
1.47707
1.41296
1.3666
1.80833
1.78268
1.75338
1.72267
1.686
1.64952
1.60411
1.5613
1.50601
1.4567
1.39108
1.33595
1.8062
1.78062
1.75226
1.72078
1.68654
1.64777
1.60763
1.55974
1.51498
1.45604
1.40992
1.33947
1.80247
1.7752
1.74497
1.71122
1.6745
1.63277
1.58892
1.53746
1.48633
1.42353
1.36545
1.29063
1.79944
1.77155
1.74302
1.70592
1.67465
1.62483
1.59338
1.52551
1.49914
1.40713
1.39384
1.27682
1.79598
1.7666
1.73577
1.6974
1.66213
1.61189
1.5729
1.50712
1.46555
1.3819
1.33614
1.24242
1.7931
1.76138
1.73371
1.68586
1.66183
1.58989
1.57647
1.46617
1.47661
1.30329
1.36075
1.0769
1.91013
1.9114
1.91424
1.91432
1.91963
1.91735
1.92667
1.91954
1.93538
1.91831
1.94446
1.90592
1.91143
1.91356
1.91563
1.91875
1.92102
1.92546
1.92789
1.93423
1.93642
1.94625
1.94616
1.96527
1.91297
1.91546
1.91879
1.92151
1.92651
1.92915
1.93703
1.93881
1.95168
1.95156
1.97276
1.97079
1.91441
1.91701
1.91981
1.92337
1.92676
1.93152
1.93578
1.94192
1.94753
1.95503
1.96288
1.97097
1.9161
1.91923
1.9228
1.92688
1.93155
1.93671
1.94316
1.94937
1.95884
1.96581
1.98044
1.98769
1.91714
1.92017
1.92332
1.92757
1.93126
1.93711
1.9415
1.94939
1.95478
1.9651
1.97202
1.98495
1.91818
1.92155
1.92502
1.92982
1.93384
1.94054
1.9453
1.95449
1.96031
1.97273
1.98016
1.99683
1.91858
1.9219
1.92522
1.93006
1.93374
1.94066
1.94472
1.95447
1.95893
1.97252
1.97745
1.99628
1.91858
1.9219
1.92522
1.93006
1.93374
1.94066
1.94472
1.95447
1.95893
1.97252
1.97745
1.99628
1.91818
1.92155
1.92502
1.92982
1.93384
1.94054
1.9453
1.95449
1.96031
1.97273
1.98016
1.99683
1.91714
1.92017
1.92332
1.92757
1.93126
1.93711
1.9415
1.94939
1.95478
1.9651
1.97202
1.98495
1.9161
1.91923
1.9228
1.92688
1.93155
1.93671
1.94316
1.94937
1.95884
1.96581
1.98044
1.98769
1.91441
1.91701
1.91981
1.92337
1.92676
1.93152
1.93578
1.94192
1.94753
1.95503
1.96287
1.97098
1.91298
1.91546
1.91879
1.92151
1.92651
1.92915
1.93703
1.93881
1.95168
1.95156
1.97276
1.97079
1.91143
1.91356
1.91563
1.91875
1.92102
1.92546
1.92789
1.93423
1.93641
1.94625
1.94616
1.96527
1.91013
1.9114
1.91424
1.91432
1.91963
1.91736
1.92667
1.91954
1.93538
1.91832
1.94445
1.90593
1.92786
1.92031
1.91199
1.90231
1.89218
1.87957
1.86733
1.85036
1.83577
1.81159
1.79452
1.75601
1.92885
1.92201
1.91348
1.9059
1.89427
1.88618
1.87017
1.86234
1.83991
1.83435
1.80186
1.80437
1.92985
1.92319
1.91556
1.9075
1.89792
1.88811
1.87627
1.86437
1.85008
1.83593
1.81945
1.80423
1.93087
1.9244
1.91671
1.90917
1.89912
1.89045
1.8773
1.86758
1.85044
1.83987
1.81798
1.80656
1.93192
1.92574
1.91859
1.9112
1.90215
1.89332
1.88199
1.87148
1.85762
1.84517
1.82901
1.81437
1.9326
1.92639
1.91911
1.91179
1.90238
1.89382
1.88167
1.87181
1.85624
1.84506
1.82548
1.81285
1.93323
1.92722
1.92015
1.91311
1.90398
1.89578
1.88404
1.87466
1.8597
1.84921
1.83055
1.81923
1.93347
1.92745
1.92031
1.91328
1.904
1.89589
1.88383
1.87468
1.8591
1.84907
1.82922
1.81879
1.93347
1.92745
1.92031
1.91328
1.904
1.89589
1.88383
1.87468
1.8591
1.84907
1.82922
1.81879
1.93323
1.92722
1.92015
1.91311
1.90398
1.89578
1.88404
1.87466
1.8597
1.84921
1.83055
1.81923
1.9326
1.92639
1.91911
1.91179
1.90238
1.89382
1.88167
1.87181
1.85624
1.84506
1.82548
1.81285
1.93192
1.92574
1.91859
1.9112
1.90215
1.89332
1.88199
1.87148
1.85762
1.84517
1.82901
1.81437
1.93087
1.9244
1.91671
1.90917
1.89913
1.89045
1.8773
1.86758
1.85044
1.83987
1.81798
1.80656
1.92985
1.92319
1.91556
1.9075
1.89792
1.88811
1.87627
1.86436
1.85009
1.83593
1.81945
1.80423
1.92885
1.92201
1.91348
1.9059
1.89427
1.88618
1.87018
1.86234
1.83991
1.83435
1.80186
1.80437
1.92786
1.92031
1.91199
1.90231
1.89218
1.87957
1.86733
1.85036
1.83578
1.81159
1.79453
1.756
1.96321
1.96311
1.96288
1.96287
1.96244
1.9625
1.96171
1.96168
1.96029
1.95949
1.95701
1.95295
1.96374
1.96398
1.96368
1.96466
1.96359
1.96572
1.96337
1.96744
1.96289
1.97035
1.96188
1.97599
1.96429
1.9646
1.96482
1.96541
1.96557
1.96655
1.9667
1.96817
1.96848
1.97063
1.97159
1.97505
1.96485
1.96523
1.96542
1.96621
1.96617
1.96758
1.96718
1.96949
1.96858
1.97208
1.97066
1.97528
1.96543
1.96594
1.96642
1.96724
1.96777
1.969
1.96965
1.97138
1.97237
1.97465
1.97649
1.97921
1.96582
1.9663
1.96669
1.96753
1.96786
1.96919
1.96941
1.97143
1.97151
1.97439
1.9744
1.97816
1.96617
1.96675
1.96725
1.96822
1.9687
1.9702
1.97064
1.97288
1.9733
1.97653
1.97702
1.98153
1.96631
1.96687
1.96734
1.9683
1.9687
1.97024
1.9705
1.97287
1.97293
1.97643
1.97625
1.98127
1.96631
1.96687
1.96734
1.9683
1.9687
1.97024
1.9705
1.97287
1.97293
1.97643
1.97625
1.98127
1.96617
1.96675
1.96725
1.96822
1.9687
1.9702
1.97064
1.97288
1.9733
1.97653
1.97702
1.98153
1.96582
1.9663
1.96669
1.96753
1.96786
1.96919
1.96941
1.97143
1.97151
1.97439
1.9744
1.97816
1.96543
1.96594
1.96642
1.96724
1.96777
1.969
1.96965
1.97138
1.97237
1.97465
1.97649
1.97921
1.96485
1.96523
1.96542
1.96621
1.96617
1.96758
1.96718
1.96949
1.96858
1.97208
1.97066
1.97528
1.96429
1.9646
1.96482
1.96541
1.96557
1.96655
1.9667
1.96817
1.96848
1.97063
1.97159
1.97506
1.96374
1.96398
1.96368
1.96466
1.96359
1.96572
1.96337
1.96744
1.96289
1.97035
1.96188
1.97599
1.96321
1.96311
1.96288
1.96287
1.96244
1.9625
1.96171
1.96168
1.96029
1.9595
1.957
1.95295
1.97272
1.97043
1.96772
1.965
1.96142
1.95816
1.9534
1.94938
1.94298
1.93763
1.92889
1.92027
1.9731
1.97108
1.96836
1.96634
1.9624
1.96061
1.95484
1.95378
1.94524
1.94595
1.93301
1.93796
1.97346
1.97148
1.9691
1.96681
1.96369
1.96109
1.95702
1.95413
1.94889
1.94587
1.93936
1.9368
1.97385
1.97194
1.96959
1.96747
1.9643
1.962
1.9577
1.95536
1.94955
1.94735
1.93968
1.93767
1.97423
1.97239
1.97023
1.9681
1.96531
1.96283
1.95927
1.95642
1.95195
1.94873
1.94336
1.9397
1.97448
1.97264
1.97046
1.96834
1.96547
1.96305
1.95929
1.95659
1.95167
1.94874
1.94243
1.93923
1.9747
1.97292
1.97081
1.96876
1.96599
1.96365
1.96005
1.95745
1.95279
1.94998
1.94406
1.94116
1.9748
1.97301
1.97087
1.96883
1.96602
1.9637
1.96001
1.95747
1.95263
1.94995
1.94368
1.94103
1.9748
1.97301
1.97087
1.96883
1.96602
1.9637
1.96001
1.95747
1.95263
1.94995
1.94368
1.94103
1.9747
1.97292
1.97081
1.96876
1.96599
1.96365
1.96005
1.95745
1.95279
1.94998
1.94406
1.94116
1.97448
1.97264
1.97046
1.96834
1.96547
1.96305
1.95929
1.95659
1.95167
1.94874
1.94244
1.93923
1.97423
1.97239
1.97023
1.9681
1.96531
1.96283
1.95927
1.95642
1.95195
1.94872
1.94337
1.93969
1.97385
1.97194
1.96959
1.96747
1.9643
1.962
1.9577
1.95536
1.94955
1.94735
1.93968
1.93767
1.97346
1.97148
1.9691
1.96681
1.96369
1.96109
1.95702
1.95413
1.94889
1.94587
1.93936
1.9368
1.9731
1.97108
1.96836
1.96634
1.9624
1.96061
1.95484
1.95378
1.94524
1.94595
1.93301
1.93796
1.97272
1.97043
1.96772
1.965
1.96142
1.95816
1.9534
1.94938
1.94298
1.93763
1.92889
1.92027
1.98476
1.98452
1.98415
1.98395
1.98335
1.98321
1.98225
1.98218
1.98064
1.98044
1.97794
1.97673
1.98498
1.98489
1.9845
1.98469
1.98388
1.98456
1.98305
1.98458
1.98191
1.98495
1.98032
1.9863
1.9852
1.98512
1.98494
1.98496
1.98466
1.98483
1.98435
1.98476
1.9841
1.98487
1.98413
1.98559
1.98543
1.98539
1.98522
1.98532
1.98497
1.98529
1.98468
1.98537
1.98437
1.98556
1.98413
1.98584
1.98566
1.98566
1.9856
1.98569
1.98558
1.98579
1.98562
1.986
1.98581
1.9864
1.98633
1.98711
1.98581
1.9858
1.98573
1.98582
1.98565
1.98589
1.98559
1.98606
1.98557
1.98635
1.98567
1.98676
1.98595
1.98597
1.98594
1.98607
1.98596
1.98626
1.98604
1.98658
1.98624
1.9871
1.98664
1.98795
1.986
1.98602
1.98598
1.98611
1.98597
1.98628
1.98601
1.98658
1.98612
1.98707
1.98639
1.98787
1.986
1.98602
1.98598
1.98611
1.98597
1.98628
1.98601
1.98658
1.98612
1.98707
1.98639
1.98787
1.98595
1.98597
1.98594
1.98607
1.98596
1.98626
1.98604
1.98658
1.98624
1.9871
1.98664
1.98795
1.98581
1.9858
1.98573
1.98582
1.98565
1.98589
1.98559
1.98606
1.98557
1.98635
1.98567
1.98676
1.98566
1.98566
1.9856
1.98569
1.98558
1.98579
1.98562
1.986
1.98581
1.9864
1.98633
1.98711
1.98543
1.98539
1.98522
1.98532
1.98497
1.98529
1.98468
1.98537
1.98437
1.98556
1.98413
1.98584
1.9852
1.98512
1.98494
1.98496
1.98466
1.98483
1.98435
1.98476
1.9841
1.98487
1.98413
1.98559
1.98498
1.98489
1.9845
1.98469
1.98388
1.98456
1.98305
1.98458
1.98191
1.98495
1.98032
1.9863
1.98476
1.98452
1.98415
1.98395
1.98335
1.98321
1.98225
1.98218
1.98064
1.98044
1.97794
1.97674
1.98915
1.98837
1.98742
1.98651
1.98522
1.98418
1.98242
1.98118
1.97873
1.97712
1.97367
1.97099
1.9893
1.98863
1.98767
1.98705
1.98563
1.98515
1.98302
1.98291
1.97969
1.9804
1.97542
1.97796
1.98945
1.98878
1.98797
1.98722
1.98614
1.98532
1.98388
1.98302
1.98113
1.98031
1.97794
1.9774
1.9896
1.98897
1.98817
1.98748
1.98639
1.98568
1.98417
1.9835
1.98143
1.98089
1.97813
1.97774
1.98975
1.98914
1.98842
1.98773
1.98678
1.98599
1.98478
1.9839
1.98237
1.9814
1.97956
1.97848
1.98986
1.98925
1.98851
1.98782
1.98685
1.98609
1.9848
1.98397
1.98228
1.98141
1.97922
1.97831
1.98994
1.98936
1.98865
1.98798
1.98705
1.98631
1.98509
1.98429
1.9827
1.98187
1.97985
1.97904
1.98998
1.98939
1.98868
1.98801
1.98707
1.98634
1.98508
1.9843
1.98265
1.98187
1.9797
1.979
1.98998
1.98939
1.98868
1.98801
1.98707
1.98634
1.98508
1.9843
1.98265
1.98187
1.9797
1.979
1.98994
1.98936
1.98865
1.98798
1.98705
1.98631
1.98509
1.98429
1.9827
1.98187
1.97985
1.97904
1.98986
1.98925
1.98851
1.98782
1.98685
1.98608
1.9848
1.98397
1.98228
1.98141
1.97922
1.97831
1.98975
1.98914
1.98842
1.98772
1.98678
1.98599
1.98478
1.9839
1.98237
1.98139
1.97956
1.97848
1.9896
1.98897
1.98817
1.98748
1.98639
1.98568
1.98417
1.9835
1.98143
1.98089
1.97813
1.97774
1.98945
1.98878
1.98797
1.98722
1.98614
1.98532
1.98388
1.98302
1.98114
1.98031
1.97794
1.9774
1.9893
1.98863
1.98767
1.98705
1.98563
1.98515
1.98302
1.98291
1.97969
1.9804
1.97542
1.97796
1.98915
1.98837
1.98742
1.98651
1.98522
1.98418
1.98242
1.98118
1.97873
1.97712
1.97367
1.97099
1.99355
1.99339
1.99316
1.993
1.99265
1.99252
1.99198
1.99186
1.99104
1.99086
1.98957
1.98896
1.99364
1.99354
1.99331
1.99332
1.99289
1.99309
1.99233
1.99288
1.9916
1.99278
1.99061
1.99303
1.99373
1.99364
1.99349
1.99343
1.99321
1.9932
1.99287
1.99295
1.99251
1.99273
1.99219
1.9927
1.99383
1.99375
1.99361
1.99358
1.99335
1.9934
1.99303
1.99322
1.99265
1.99304
1.99223
1.99283
1.99392
1.99386
1.99377
1.99373
1.9936
1.9936
1.99341
1.99347
1.99324
1.99336
1.99314
1.99333
1.99399
1.99393
1.99383
1.99379
1.99363
1.99365
1.99341
1.9935
1.99316
1.99335
1.99289
1.9932
1.99404
1.994
1.99391
1.99389
1.99376
1.99379
1.9936
1.99371
1.99343
1.99365
1.99328
1.99367
1.99407
1.99402
1.99393
1.99391
1.99377
1.9938
1.99358
1.99371
1.99338
1.99365
1.99318
1.99364
1.99407
1.99402
1.99393
1.99391
1.99377
1.9938
1.99358
1.99371
1.99338
1.99365
1.99318
1.99364
1.99404
1.994
1.99391
1.99389
1.99376
1.99379
1.9936
1.99371
1.99343
1.99365
1.99328
1.99367
1.99399
1.99393
1.99383
1.99379
1.99363
1.99365
1.99341
1.9935
1.99316
1.99335
1.99289
1.9932
1.99392
1.99386
1.99377
1.99373
1.9936
1.9936
1.99341
1.99347
1.99324
1.99336
1.99314
1.99333
1.99383
1.99375
1.99361
1.99358
1.99335
1.9934
1.99303
1.99322
1.99265
1.99304
1.99223
1.99283
1.99373
1.99364
1.99349
1.99343
1.99321
1.9932
1.99287
1.99295
1.99251
1.99273
1.99219
1.9927
1.99364
1.99354
1.99331
1.99332
1.99289
1.99309
1.99233
1.99288
1.9916
1.99278
1.99061
1.99303
1.99355
1.99339
1.99316
1.993
1.99265
1.99252
1.99198
1.99186
1.99104
1.99086
1.98957
1.98896
1.99549
1.9952
1.99484
1.99451
1.99402
1.99364
1.99296
1.99253
1.99157
1.991
1.98963
1.98866
1.99555
1.99531
1.99495
1.99473
1.99419
1.99405
1.99322
1.99325
1.99197
1.99236
1.99037
1.99154
1.99561
1.99537
1.99507
1.99481
1.9944
1.99412
1.99358
1.99329
1.99258
1.99232
1.99142
1.9913
1.99568
1.99545
1.99516
1.99491
1.99451
1.99427
1.9937
1.99349
1.9927
1.99256
1.9915
1.99144
1.99574
1.99552
1.99526
1.99501
1.99467
1.9944
1.99395
1.99365
1.99309
1.99277
1.9921
1.99174
1.99579
1.99557
1.9953
1.99506
1.9947
1.99443
1.99396
1.99368
1.99305
1.99277
1.99195
1.99167
1.99582
1.99561
1.99536
1.99512
1.99478
1.99453
1.99408
1.99381
1.99323
1.99296
1.99221
1.99198
1.99584
1.99563
1.99537
1.99513
1.99479
1.99454
1.99408
1.99382
1.9932
1.99296
1.99215
1.99196
1.99584
1.99563
1.99537
1.99513
1.99479
1.99454
1.99408
1.99382
1.9932
1.99296
1.99215
1.99196
1.99582
1.99561
1.99536
1.99512
1.99478
1.99453
1.99408
1.99381
1.99323
1.99296
1.99221
1.99198
1.99579
1.99557
1.9953
1.99506
1.9947
1.99443
1.99396
1.99368
1.99305
1.99277
1.99195
1.99167
1.99574
1.99552
1.99526
1.99501
1.99467
1.9944
1.99395
1.99365
1.99309
1.99277
1.9921
1.99174
1.99568
1.99545
1.99516
1.99491
1.99451
1.99427
1.9937
1.99349
1.9927
1.99256
1.9915
1.99144
1.99561
1.99537
1.99507
1.99481
1.9944
1.99412
1.99358
1.99329
1.99258
1.99232
1.99142
1.9913
1.99555
1.99531
1.99495
1.99473
1.99419
1.99405
1.99322
1.99325
1.99197
1.99236
1.99037
1.99154
1.99549
1.9952
1.99484
1.99451
1.99402
1.99364
1.99296
1.99253
1.99157
1.991
1.98963
1.98866
1.9972
1.99711
1.99699
1.9969
1.99672
1.99663
1.99637
1.99628
1.99588
1.99576
1.99515
1.99484
1.99724
1.99717
1.99705
1.99704
1.99682
1.99688
1.99652
1.99673
1.99613
1.9966
1.9956
1.99661
1.99727
1.99722
1.99713
1.99708
1.99696
1.99693
1.99675
1.99675
1.99652
1.99658
1.99628
1.99646
1.99732
1.99726
1.99718
1.99715
1.99702
1.99702
1.99682
1.99687
1.99658
1.99671
1.99631
1.99653
1.99736
1.99731
1.99725
1.99721
1.99713
1.9971
1.99699
1.99698
1.99684
1.99685
1.9967
1.99674
1.99738
1.99734
1.99728
1.99724
1.99715
1.99712
1.99699
1.99699
1.99681
1.99685
1.9966
1.99668
1.99741
1.99737
1.99731
1.99728
1.9972
1.99719
1.99707
1.99708
1.99692
1.99698
1.99677
1.99689
1.99742
1.99738
1.99732
1.99729
1.9972
1.99719
1.99706
1.99708
1.9969
1.99698
1.99672
1.99687
1.99742
1.99738
1.99732
1.99729
1.9972
1.99719
1.99706
1.99708
1.9969
1.99698
1.99672
1.99687
1.99741
1.99737
1.99731
1.99728
1.9972
1.99719
1.99707
1.99708
1.99692
1.99698
1.99677
1.99689
1.99738
1.99734
1.99728
1.99724
1.99715
1.99712
1.99699
1.99699
1.99681
1.99685
1.9966
1.99668
1.99736
1.99731
1.99725
1.99721
1.99713
1.9971
1.99699
1.99698
1.99684
1.99685
1.9967
1.99674
1.99732
1.99726
1.99718
1.99715
1.99702
1.99702
1.99682
1.99687
1.99658
1.99671
1.99631
1.99653
1.99727
1.99722
1.99713
1.99708
1.99696
1.99693
1.99675
1.99675
1.99652
1.99658
1.99628
1.99646
1.99724
1.99717
1.99705
1.99704
1.99682
1.99688
1.99652
1.99673
1.99613
1.9966
1.9956
1.99661
1.9972
1.99711
1.99699
1.9969
1.99672
1.99663
1.99637
1.99628
1.99588
1.99576
1.99515
1.99484
1.99806
1.99794
1.9978
1.99767
1.99747
1.99733
1.99705
1.99688
1.99649
1.99628
1.99571
1.99533
1.99808
1.99799
1.99785
1.99776
1.99754
1.9975
1.99716
1.99719
1.99667
1.99686
1.99603
1.99656
1.99811
1.99802
1.9979
1.9978
1.99764
1.99753
1.99732
1.99721
1.99693
1.99684
1.99648
1.99646
1.99814
1.99805
1.99794
1.99784
1.99768
1.99759
1.99737
1.9973
1.99698
1.99694
1.99652
1.99652
1.99817
1.99808
1.99798
1.99789
1.99775
1.99765
1.99748
1.99737
1.99715
1.99703
1.99677
1.99665
1.99819
1.9981
1.998
1.9979
1.99777
1.99767
1.99748
1.99738
1.99713
1.99703
1.99671
1.99662
1.9982
1.99812
1.99802
1.99793
1.9978
1.99771
1.99753
1.99744
1.99721
1.99712
1.99682
1.99675
1.99821
1.99813
1.99803
1.99794
1.9978
1.99771
1.99753
1.99744
1.9972
1.99712
1.9968
1.99674
1.99821
1.99813
1.99803
1.99794
1.9978
1.99771
1.99753
1.99744
1.9972
1.99712
1.9968
1.99674
1.9982
1.99812
1.99802
1.99793
1.9978
1.99771
1.99753
1.99744
1.99721
1.99712
1.99682
1.99675
1.99819
1.9981
1.998
1.9979
1.99777
1.99767
1.99748
1.99738
1.99713
1.99703
1.99671
1.99662
1.99817
1.99808
1.99798
1.99789
1.99775
1.99765
1.99748
1.99737
1.99715
1.99703
1.99677
1.99665
1.99814
1.99805
1.99794
1.99784
1.99768
1.99759
1.99737
1.9973
1.99698
1.99694
1.99652
1.99652
1.99811
1.99802
1.9979
1.9978
1.99764
1.99753
1.99732
1.99721
1.99693
1.99684
1.99648
1.99646
1.99808
1.99799
1.99785
1.99776
1.99754
1.9975
1.99716
1.99719
1.99667
1.99686
1.99603
1.99656
1.99806
1.99794
1.9978
1.99767
1.99747
1.99733
1.99705
1.99688
1.99649
1.99628
1.99571
1.99533
1.99876
1.99871
1.99865
1.99861
1.99852
1.99847
1.99835
1.9983
1.99811
1.99804
1.99776
1.9976
1.99878
1.99874
1.99868
1.99867
1.99857
1.99859
1.99842
1.9985
1.99822
1.99842
1.99796
1.99839
1.99879
1.99876
1.99872
1.99869
1.99863
1.9986
1.99852
1.99851
1.99839
1.9984
1.99826
1.99832
1.99881
1.99878
1.99874
1.99872
1.99866
1.99865
1.99855
1.99856
1.99842
1.99847
1.99827
1.99835
1.99883
1.9988
1.99877
1.99875
1.9987
1.99868
1.99862
1.99861
1.99853
1.99853
1.99844
1.99844
1.99884
1.99882
1.99878
1.99876
1.99871
1.99869
1.99862
1.99861
1.99852
1.99853
1.9984
1.99842
1.99885
1.99883
1.9988
1.99878
1.99873
1.99872
1.99866
1.99865
1.99857
1.99858
1.99847
1.99851
1.99886
1.99883
1.9988
1.99878
1.99874
1.99872
1.99866
1.99865
1.99856
1.99858
1.99846
1.99851
1.99886
1.99883
1.9988
1.99878
1.99874
1.99872
1.99866
1.99865
1.99856
1.99858
1.99846
1.99851
1.99885
1.99883
1.9988
1.99878
1.99873
1.99872
1.99866
1.99865
1.99857
1.99858
1.99847
1.99851
1.99884
1.99882
1.99878
1.99876
1.99871
1.99869
1.99862
1.99861
1.99852
1.99853
1.9984
1.99842
1.99883
1.9988
1.99877
1.99875
1.9987
1.99868
1.99862
1.99861
1.99853
1.99853
1.99844
1.99844
1.99881
1.99878
1.99874
1.99872
1.99866
1.99865
1.99855
1.99856
1.99842
1.99847
1.99827
1.99835
1.99879
1.99876
1.99872
1.99869
1.99863
1.9986
1.99852
1.99851
1.99839
1.9984
1.99826
1.99832
1.99878
1.99874
1.99868
1.99867
1.99857
1.99859
1.99842
1.9985
1.99822
1.99842
1.99796
1.99839
1.99876
1.99871
1.99865
1.99861
1.99852
1.99847
1.99835
1.9983
1.99811
1.99804
1.99776
1.9976
1.99916
1.99911
1.99905
1.999
1.99892
1.99886
1.99874
1.99868
1.99851
1.99843
1.99819
1.99803
1.99917
1.99913
1.99907
1.99904
1.99895
1.99893
1.99879
1.99881
1.99859
1.99868
1.99833
1.99857
1.99918
1.99914
1.99909
1.99905
1.99899
1.99895
1.99886
1.99882
1.9987
1.99867
1.99853
1.99852
1.99919
1.99916
1.99911
1.99907
1.99901
1.99897
1.99888
1.99886
1.99872
1.99871
1.99854
1.99855
1.9992
1.99917
1.99913
1.99909
1.99904
1.999
1.99893
1.99889
1.9988
1.99875
1.99865
1.99861
1.99921
1.99918
1.99914
1.9991
1.99904
1.99901
1.99893
1.99889
1.99879
1.99876
1.99862
1.99859
1.99922
1.99919
1.99915
1.99911
1.99906
1.99902
1.99895
1.99892
1.99882
1.99879
1.99867
1.99865
1.99922
1.99919
1.99915
1.99911
1.99906
1.99902
1.99895
1.99892
1.99882
1.99879
1.99866
1.99865
1.99922
1.99919
1.99915
1.99911
1.99906
1.99902
1.99895
1.99892
1.99882
1.99879
1.99866
1.99865
1.99922
1.99919
1.99915
1.99911
1.99906
1.99902
1.99895
1.99892
1.99882
1.99879
1.99867
1.99865
1.99921
1.99918
1.99914
1.9991
1.99904
1.99901
1.99893
1.99889
1.99879
1.99876
1.99862
1.99859
1.9992
1.99917
1.99913
1.99909
1.99904
1.999
1.99893
1.99889
1.9988
1.99875
1.99865
1.99861
1.99919
1.99916
1.99911
1.99907
1.99901
1.99897
1.99888
1.99886
1.99872
1.99871
1.99854
1.99855
1.99918
1.99914
1.99909
1.99905
1.99899
1.99895
1.99886
1.99882
1.9987
1.99867
1.99853
1.99852
1.99917
1.99913
1.99907
1.99904
1.99895
1.99893
1.99879
1.99881
1.99859
1.99868
1.99833
1.99857
1.99916
1.99911
1.99905
1.999
1.99892
1.99886
1.99874
1.99868
1.99851
1.99843
1.99819
1.99803
1.99947
1.99945
1.99942
1.9994
1.99936
1.99934
1.99928
1.99926
1.99918
1.99914
1.99902
1.99895
1.99948
1.99946
1.99944
1.99943
1.99938
1.99939
1.99931
1.99934
1.99922
1.9993
1.9991
1.99928
1.99949
1.99947
1.99945
1.99944
1.99941
1.9994
1.99936
1.99935
1.9993
1.9993
1.99923
1.99926
1.99949
1.99948
1.99946
1.99945
1.99942
1.99941
1.99937
1.99937
1.99931
1.99933
1.99924
1.99927
1.9995
1.99949
1.99947
1.99946
1.99944
1.99943
1.9994
1.99939
1.99936
1.99935
1.99931
1.99931
1.99951
1.99949
1.99948
1.99947
1.99944
1.99943
1.9994
1.99939
1.99935
1.99935
1.99929
1.9993
1.99951
1.9995
1.99948
1.99947
1.99945
1.99944
1.99942
1.99941
1.99937
1.99937
1.99932
1.99934
1.99951
1.9995
1.99949
1.99948
1.99945
1.99945
1.99942
1.99941
1.99937
1.99937
1.99932
1.99933
1.99951
1.9995
1.99949
1.99948
1.99945
1.99945
1.99942
1.99941
1.99937
1.99937
1.99932
1.99933
1.99951
1.9995
1.99948
1.99947
1.99945
1.99944
1.99942
1.99941
1.99937
1.99937
1.99932
1.99934
1.99951
1.99949
1.99948
1.99947
1.99944
1.99943
1.9994
1.99939
1.99935
1.99935
1.99929
1.9993
1.9995
1.99949
1.99947
1.99946
1.99944
1.99943
1.9994
1.99939
1.99936
1.99935
1.99931
1.99931
1.99949
1.99948
1.99946
1.99945
1.99942
1.99941
1.99937
1.99937
1.99931
1.99933
1.99924
1.99927
1.99949
1.99947
1.99945
1.99944
1.99941
1.9994
1.99936
1.99935
1.9993
1.9993
1.99923
1.99926
1.99948
1.99946
1.99944
1.99943
1.99938
1.99939
1.99931
1.99934
1.99922
1.9993
1.9991
1.99928
1.99947
1.99945
1.99942
1.9994
1.99936
1.99934
1.99928
1.99926
1.99918
1.99914
1.99902
1.99895
1.99968
1.99966
1.99964
1.99962
1.99959
1.99956
1.99952
1.9995
1.99943
1.9994
1.99931
1.99925
1.99968
1.99967
1.99964
1.99963
1.9996
1.99959
1.99954
1.99955
1.99946
1.9995
1.99937
1.99946
1.99968
1.99967
1.99965
1.99964
1.99961
1.9996
1.99957
1.99955
1.99951
1.9995
1.99944
1.99944
1.99969
1.99968
1.99966
1.99965
1.99962
1.99961
1.99957
1.99957
1.99952
1.99951
1.99945
1.99945
1.99969
1.99968
1.99967
1.99965
1.99963
1.99962
1.99959
1.99958
1.99954
1.99953
1.99949
1.99947
1.9997
1.99968
1.99967
1.99966
1.99963
1.99962
1.99959
1.99958
1.99954
1.99953
1.99948
1.99947
1.9997
1.99969
1.99967
1.99966
1.99964
1.99963
1.9996
1.99959
1.99955
1.99954
1.9995
1.99949
1.9997
1.99969
1.99967
1.99966
1.99964
1.99963
1.9996
1.99959
1.99955
1.99954
1.99949
1.99949
1.9997
1.99969
1.99967
1.99966
1.99964
1.99963
1.9996
1.99959
1.99955
1.99954
1.99949
1.99949
1.9997
1.99969
1.99967
1.99966
1.99964
1.99963
1.9996
1.99959
1.99955
1.99954
1.9995
1.99949
1.9997
1.99968
1.99967
1.99966
1.99963
1.99962
1.99959
1.99958
1.99954
1.99953
1.99948
1.99947
1.99969
1.99968
1.99967
1.99965
1.99963
1.99962
1.99959
1.99958
1.99954
1.99953
1.99949
1.99947
1.99969
1.99968
1.99966
1.99965
1.99962
1.99961
1.99957
1.99957
1.99952
1.99951
1.99945
1.99945
1.99968
1.99967
1.99965
1.99964
1.99961
1.9996
1.99957
1.99955
1.99951
1.9995
1.99944
1.99944
1.99968
1.99967
1.99964
1.99963
1.9996
1.99959
1.99954
1.99955
1.99946
1.9995
1.99937
1.99946
1.99968
1.99966
1.99964
1.99962
1.99959
1.99956
1.99952
1.9995
1.99943
1.9994
1.99931
1.99925
1.99985
1.99984
1.99983
1.99983
1.99982
1.99981
1.99979
1.99979
1.99976
1.99975
1.99972
1.9997
1.99985
1.99984
1.99984
1.99983
1.99982
1.99982
1.9998
1.99981
1.99978
1.9998
1.99974
1.99979
1.99985
1.99985
1.99984
1.99984
1.99983
1.99983
1.99981
1.99981
1.9998
1.9998
1.99978
1.99979
1.99985
1.99985
1.99984
1.99984
1.99983
1.99983
1.99982
1.99982
1.9998
1.99981
1.99978
1.99979
1.99986
1.99985
1.99985
1.99984
1.99984
1.99984
1.99983
1.99982
1.99981
1.99981
1.9998
1.9998
1.99986
1.99985
1.99985
1.99985
1.99984
1.99984
1.99983
1.99983
1.99981
1.99981
1.9998
1.9998
1.99986
1.99986
1.99985
1.99985
1.99984
1.99984
1.99983
1.99983
1.99982
1.99982
1.99981
1.99981
1.99986
1.99986
1.99985
1.99985
1.99984
1.99984
1.99983
1.99983
1.99982
1.99982
1.9998
1.99981
1.99986
1.99986
1.99985
1.99985
1.99984
1.99984
1.99983
1.99983
1.99982
1.99982
1.9998
1.99981
1.99986
1.99986
1.99985
1.99985
1.99984
1.99984
1.99983
1.99983
1.99982
1.99982
1.99981
1.99981
1.99986
1.99985
1.99985
1.99985
1.99984
1.99984
1.99983
1.99983
1.99981
1.99981
1.9998
1.9998
1.99986
1.99985
1.99985
1.99984
1.99984
1.99984
1.99983
1.99982
1.99981
1.99981
1.9998
1.9998
1.99985
1.99985
1.99984
1.99984
1.99983
1.99983
1.99982
1.99982
1.9998
1.99981
1.99978
1.99979
1.99985
1.99985
1.99984
1.99984
1.99983
1.99983
1.99981
1.99981
1.9998
1.9998
1.99978
1.99979
1.99985
1.99984
1.99984
1.99983
1.99982
1.99982
1.9998
1.99981
1.99978
1.9998
1.99974
1.99979
1.99985
1.99984
1.99983
1.99983
1.99982
1.99981
1.99979
1.99979
1.99976
1.99975
1.99972
1.9997
1.99999
1.99998
1.99998
1.99998
1.99998
1.99998
1.99997
1.99997
1.99997
1.99996
1.99996
1.99995
1.99999
1.99999
1.99998
1.99998
1.99998
1.99998
1.99998
1.99997
1.99997
1.99997
1.99996
1.99996
1.99999
1.99999
1.99998
1.99998
1.99998
1.99998
1.99998
1.99997
1.99997
1.99997
1.99996
1.99996
1.99999
1.99999
1.99998
1.99998
1.99998
1.99998
1.99998
1.99997
1.99997
1.99997
1.99997
1.99996
1.99999
1.99999
1.99998
1.99998
1.99998
1.99998
1.99998
1.99998
1.99997
1.99997
1.99997
1.99996
1.99999
1.99999
1.99998
1.99998
1.99998
1.99998
1.99998
1.99998
1.99997
1.99997
1.99997
1.99996
1.99999
1.99999
1.99998
1.99998
1.99998
1.99998
1.99998
1.99998
1.99997
1.99997
1.99997
1.99997
1.99999
1.99999
1.99998
1.99998
1.99998
1.99998
1.99998
1.99998
1.99997
1.99997
1.99997
1.99996
1.99999
1.99999
1.99998
1.99998
1.99998
1.99998
1.99998
1.99998
1.99997
1.99997
1.99997
1.99996
1.99999
1.99999
1.99998
1.99998
1.99998
1.99998
1.99998
1.99998
1.99997
1.99997
1.99997
1.99997
1.99999
1.99999
1.99998
1.99998
1.99998
1.99998
1.99998
1.99998
1.99997
1.99997
1.99997
1.99996
1.99999
1.99999
1.99998
1.99998
1.99998
1.99998
1.99998
1.99998
1.99997
1.99997
1.99997
1.99996
1.99999
1.99999
1.99998
1.99998
1.99998
1.99998
1.99998
1.99997
1.99997
1.99997
1.99997
1.99996
1.99999
1.99999
1.99998
1.99998
1.99998
1.99998
1.99998
1.99997
1.99997
1.99997
1.99996
1.99996
1.99999
1.99999
1.99998
1.99998
1.99998
1.99998
1.99998
1.99997
1.99997
1.99997
1.99996
1.99996
1.99999
1.99998
1.99998
1.99998
1.99998
1.99998
1.99997
1.99997
1.99997
1.99996
1.99996
1.99995
2.00012
2.00013
2.00014
2.00015
2.00016
2.00016
2.00018
2.00019
2.00021
2.00022
2.00025
2.00028
2.00012
2.00013
2.00014
2.00014
2.00015