/*--------------------------------*- C++ -*----------------------------------*\
| =========                 |                                                 |
| \\      /  F ield         | foam-extend: Open Source CFD                    |
|  \\    /   O peration     | Version:  3.0                                   |
|   \\  /    A nd           | Web:         http://www.extend-project.de       |
|    \\/     M anipulation  |                                                 |
\*---------------------------------------------------------------------------*/
FoamFile
{
    version     2.0;
    format      ascii;
    class       volVectorField;
    location    "4.6";
    object      u;
}
// * * * * * * * * * * * * * * * * * * * * * * * * * * * * * * * * * * * * * //

dimensions      [0 0 0 0 0 0 0];

internalField   nonuniform List<vector> 
400
(
(-0.246847 0.679429 1.21321e-315)
(-0.446973 0.525963 1.08614e-315)
(-0.78333 0.569051 9.38561e-316)
(-0.994974 0.470517 8.63343e-316)
(-1.22182 0.45285 7.17683e-316)
(-1.3956 0.388406 6.80066e-316)
(-1.54578 0.348102 5.42591e-316)
(-1.66234 0.279321 5.28461e-316)
(-1.73955 0.234065 4.02119e-316)
(-1.79343 0.15317 4.03048e-316)
(-1.79357 0.102478 2.87443e-316)
(-1.77608 0.0148176 2.98466e-316)
(-1.69718 -0.0431235 1.92378e-316)
(-1.59492 -0.126947 2.09023e-316)
(-1.44093 -0.18476 1.134e-316)
(-1.2469 -0.258952 1.28503e-316)
(-1.02348 -0.283931 4.93351e-317)
(-0.76483 -0.374215 5.0358e-317)
(-0.456409 -0.314655 -3.08233e-318)
(-0.215888 -0.448731 -3.70042e-317)
(-0.0406204 0.463804 5.8851e-316)
(-0.296457 0.371802 5.97069e-316)
(-0.44406 0.348884 5.5783e-316)
(-0.61821 0.2708 5.48066e-316)
(-0.767244 0.222064 4.92472e-316)
(-0.882679 0.161321 4.76429e-316)
(-0.990094 0.102306 4.13503e-316)
(-1.05965 0.0505695 3.95908e-316)
(-1.11198 -0.0124093 3.31332e-316)
(-1.13899 -0.0595815 3.14975e-316)
(-1.13375 -0.131278 2.52163e-316)
(-1.11618 -0.175152 2.38444e-316)
(-1.05546 -0.261425 1.79141e-316)
(-0.986698 -0.302108 1.67578e-316)
(-0.878148 -0.399443 1.12838e-316)
(-0.748162 -0.43887 9.95026e-317)
(-0.612816 -0.522519 5.0136e-317)
(-0.407621 -0.568678 2.4505e-317)
(-0.297831 -0.595427 -2.168e-317)
(-0.00677342 -0.652631 -8.25767e-317)
(-0.0441036 1.15243 4.95329e-316)
(-0.336189 1.11378 5.07912e-316)
(-0.482805 1.03161 4.78871e-316)
(-0.681711 0.942429 4.63117e-316)
(-0.834828 0.832896 4.15358e-316)
(-0.962922 0.709544 3.93941e-316)
(-1.07923 0.596574 3.39918e-316)
(-1.16298 0.448176 3.19343e-316)
(-1.22206 0.335185 2.65069e-316)
(-1.27131 0.171438 2.46691e-316)
(-1.26531 0.0498526 1.94161e-316)
(-1.27442 -0.116755 1.77686e-316)
(-1.20266 -0.255673 1.2706e-316)
(-1.15209 -0.406192 1.11022e-316)
(-1.0248 -0.560221 6.23389e-317)
(-0.882315 -0.66858 4.39392e-317)
(-0.734136 -0.810839 -8.6462e-319)
(-0.462747 -0.853785 -2.37669e-317)
(-0.369422 -0.926174 -5.91682e-317)
(0.0273995 -0.900912 -7.55066e-317)
(-0.0510847 1.03003 6.57773e-317)
(-0.237109 1.03407 1.71982e-316)
(-0.370236 0.87533 2.13298e-316)
(-0.461557 0.810026 2.51248e-316)
(-0.585018 0.65468 2.55126e-316)
(-0.621947 0.540156 2.60056e-316)
(-0.708058 0.411953 2.43583e-316)
(-0.727549 0.274677 2.33141e-316)
(-0.768578 0.156561 2.06962e-316)
(-0.787899 0.0113189 1.90352e-316)
(-0.782815 -0.123622 1.60872e-316)
(-0.803736 -0.26676 1.43074e-316)
(-0.75152 -0.444297 1.14233e-316)
(-0.76024 -0.568416 9.83883e-317)
(-0.662521 -0.802897 7.33416e-317)
(-0.624106 -0.873132 6.24377e-317)
(-0.500009 -1.14568 4.49963e-317)
(-0.355403 -1.10881 4.39692e-317)
(-0.267818 -1.3158 3.99136e-317)
(0.0216268 -1.14861 5.96427e-317)
(-0.158221 1.51813 1.98096e-316)
(-0.271556 1.53064 2.3938e-316)
(-0.52498 1.31805 2.48522e-316)
(-0.568119 1.22067 2.52091e-316)
(-0.753925 1.03448 2.41477e-316)
(-0.779012 0.86351 2.31599e-316)
(-0.896423 0.724733 2.11079e-316)
(-0.934146 0.517929 1.95747e-316)
(-0.987353 0.402795 1.70724e-316)
(-1.04739 0.179478 1.52745e-316)
(-1.03802 0.0575981 1.25504e-316)
(-1.11448 -0.169619 1.05673e-316)
(-1.03799 -0.328868 7.65873e-317)
(-1.10739 -0.537326 5.39495e-317)
(-0.956812 -0.760874 2.20085e-317)
(-0.970178 -0.900074 -6.62093e-318)
(-0.751994 -1.19318 -4.35717e-317)
(-0.631429 -1.17853 -8.39126e-317)
(-0.394448 -1.45121 -1.29529e-316)
(-0.0821322 -1.23511 -1.88864e-316)
(-0.263306 1.59362 -5.97546e-317)
(-0.183406 1.52523 3.4999e-317)
(-0.512957 1.27426 8.45622e-317)
(-0.400411 1.12393 1.25496e-316)
(-0.594797 0.941985 1.42794e-316)
(-0.508537 0.738698 1.53407e-316)
(-0.614281 0.623507 1.5115e-316)
(-0.576374 0.401595 1.45973e-316)
(-0.622089 0.309264 1.33322e-316)
(-0.641102 0.0808347 1.2082e-316)
(-0.63781 -0.035626 1.03685e-316)
(-0.716499 -0.268037 8.8774e-317)
(-0.656483 -0.45707 7.10151e-317)
(-0.789224 -0.679027 5.71808e-317)
(-0.646902 -0.987858 4.19896e-317)
(-0.807838 -1.14606 3.30928e-317)
(-0.549251 -1.59286 2.39783e-317)
(-0.673199 -1.57732 2.53149e-317)
(-0.279471 -2.03117 2.64128e-317)
(-0.262506 -1.76003 4.25368e-317)
(-0.402854 2.04958 1.5946e-316)
(-0.165237 1.82759 1.68592e-316)
(-0.642496 1.57386 1.71165e-316)
(-0.442892 1.3137 1.67645e-316)
(-0.702331 1.15809 1.62024e-316)
(-0.597829 0.880083 1.53548e-316)
(-0.727948 0.799256 1.42268e-316)
(-0.717037 0.52028 1.30416e-316)
(-0.767875 0.47324 1.15456e-316)
(-0.845058 0.191329 1.00904e-316)
(-0.834644 0.139585 8.3326e-317)
(-0.997209 -0.155577 6.6277e-317)
(-0.913093 -0.253923 4.60542e-317)
(-1.15297 -0.561361 2.53786e-317)
(-0.950384 -0.758631 8.72683e-319)
(-1.23623 -1.03715 -2.7361e-317)
(-0.841215 -1.3857 -6.00607e-317)
(-1.09185 -1.52952 -1.04038e-316)
(-0.42343 -1.98073 -1.51989e-316)
(-0.491658 -1.90846 -2.24303e-316)
(-0.455789 2.25577 -3.20148e-317)
(-0.0498811 1.81285 2.7083e-317)
(-0.567379 1.60407 6.10891e-317)
(-0.247418 1.20307 8.93307e-317)
(-0.501275 1.12848 1.02176e-316)
(-0.309313 0.775449 1.09246e-316)
(-0.422526 0.766142 1.08111e-316)
(-0.339701 0.451673 1.03365e-316)
(-0.382653 0.459283 9.4389e-317)
(-0.399778 0.158714 8.39324e-317)
(-0.398733 0.139519 7.13503e-317)
(-0.523367 -0.179691 5.88391e-317)
(-0.463089 -0.280167 4.55564e-317)
(-0.716078 -0.64068 3.37956e-317)
(-0.531086 -0.896305 2.24564e-317)
(-0.936831 -1.27782 1.49103e-317)
(-0.498379 -1.76406 8.53541e-318)
(-1.05173 -2.0626 9.96653e-318)
(-0.175215 -2.72405 1.17215e-317)
(-0.732846 -2.80679 2.32153e-317)
(-0.492036 2.59769 1.88903e-316)
(0.0131058 1.9464 1.65838e-316)
(-0.548649 1.78646 1.54006e-316)
(-0.200995 1.23842 1.3949e-316)
(-0.466389 1.22309 1.29973e-316)
(-0.297827 0.791308 1.19092e-316)
(-0.40521 0.830201 1.08852e-316)
(-0.374287 0.474407 9.79085e-317)
(-0.407329 0.536262 8.60927e-317)
(-0.497764 0.20626 7.38011e-317)
(-0.488389 0.26978 6.03388e-317)
(-0.710922 -0.0902374 4.63301e-317)
(-0.639694 -0.0539433 3.09272e-317)
(-1.02101 -0.49779 1.40414e-317)
(-0.801066 -0.538802 -4.92843e-318)
(-1.363 -1.09322 -2.86664e-317)
(-0.813474 -1.29621 -5.52844e-317)
(-1.51875 -1.91255 -9.5131e-317)
(-0.36904 -2.3723 -1.37506e-316)
(-0.980634 -2.92307 -2.09084e-316)
(-0.384952 2.75557 1.60844e-317)
(0.100652 1.87737 5.05876e-317)
(-0.345867 1.82918 6.98577e-317)
(0.005331 1.12244 8.64487e-317)
(-0.188259 1.23067 9.19251e-317)
(0.014379 0.714505 9.36597e-317)
(-0.0494112 0.845599 8.99405e-317)
(0.0423377 0.454058 8.36676e-317)
(0.0267128 0.585607 7.49667e-317)
(0.0212301 0.240611 6.51121e-317)
(0.0202576 0.35687 5.43128e-317)
(-0.0986272 -0.0270814 4.34371e-317)
(-0.0674709 0.0363269 3.2638e-317)
(-0.348259 -0.478717 2.29686e-317)
(-0.192209 -0.546028 1.45611e-317)
(-0.722538 -1.26836 9.6757e-318)
(-0.2265 -1.60128 7.30141e-318)
(-1.1116 -2.51764 1.34245e-317)
(0.078256 -3.26577 2.21076e-317)
(-1.07269 -4.17552 4.39651e-317)
(-0.269729 2.87875 2.12046e-316)
(0.175876 1.90664 1.71768e-316)
(-0.156068 1.88017 1.51196e-316)
(0.111124 1.08319 1.30397e-316)
(-0.0146054 1.21587 1.17237e-316)
(0.105004 0.65621 1.04206e-316)
(0.0872938 0.805796 9.31462e-317)
(0.102929 0.40221 8.20735e-317)
(0.114971 0.560455 7.1103e-317)
(0.0310373 0.215481 5.99775e-317)
(0.0381731 0.389343 4.85615e-317)
(-0.176612 -0.00297246 3.68953e-317)
(-0.157015 0.187266 2.48083e-317)
(-0.56701 -0.37984 1.17931e-317)
(-0.431959 -0.188377 -1.96033e-318)
(-1.12491 -1.07535 -1.93585e-317)
(-0.616069 -0.95352 -3.76255e-317)
(-1.62977 -2.24272 -6.70228e-317)
(-0.288106 -2.46929 -9.58964e-317)
(-1.31414 -3.93315 -1.47808e-316)
(-0.0470156 2.84971 4.40324e-317)
(0.162707 1.77717 7.26384e-317)
(0.103949 1.88975 8.38458e-317)
(0.277313 0.992739 9.38174e-317)
(0.292447 1.23494 9.3138e-317)
(0.410636 0.619502 9.01591e-317)
(0.461916 0.845134 8.32962e-317)
(0.532258 0.426222 7.50284e-317)
(0.571053 0.648426 6.55507e-317)
(0.593229 0.307782 5.56333e-317)
(0.592691 0.54362 4.55592e-317)
(0.5472 0.147927 3.57725e-317)
(0.515406 0.390937 2.66316e-317)
(0.350415 -0.230656 1.88713e-317)
(0.365409 -0.034729 1.3096e-317)
(-0.0316706 -1.10094 1.15334e-317)
(0.256825 -1.12835 1.40616e-317)
(-0.575548 -2.80852 2.85612e-317)
(0.416879 -3.52234 4.85797e-317)
(-0.968919 -5.60039 9.6936e-317)
(0.205761 2.78561 2.0113e-316)
(0.263351 1.77327 1.67503e-316)
(0.417433 1.78525 1.46558e-316)
(0.411731 0.919026 1.25748e-316)
(0.548534 1.1054 1.11032e-316)
(0.543041 0.511717 9.70196e-317)
(0.669619 0.707153 8.51372e-317)
(0.655377 0.313117 7.37444e-317)
(0.73447 0.516829 6.29752e-317)
(0.685539 0.205262 5.24793e-317)
(0.692813 0.440749 4.22655e-317)
(0.564454 0.0744547 3.22761e-317)
(0.500846 0.368897 2.25777e-317)
(0.210991 -0.241388 1.27563e-317)
(0.142782 0.145166 3.27004e-318)
(-0.445866 -0.983858 -8.17263e-318)
(-0.270395 -0.506222 -1.89085e-317)
(-1.29695 -2.41155 -3.67512e-317)
(-0.266908 -2.20201 -5.21847e-317)
(-1.43331 -4.48973 -7.71584e-317)
(0.33323 2.47869 5.48321e-317)
(0.137674 1.60822 1.01296e-316)
(0.609529 1.76595 1.06014e-316)
(0.543306 0.882728 1.10235e-316)
(0.843581 1.12302 1.02472e-316)
(0.849817 0.5164 9.40158e-317)
(1.04753 0.748662 8.33106e-317)
(1.08779 0.368869 7.24752e-317)
(1.19382 0.618808 6.15934e-317)
(1.25562 0.337191 5.10144e-317)
(1.26234 0.636956 4.08998e-317)
(1.3383 0.29965 3.14776e-317)
(1.23337 0.673798 2.31074e-317)
(1.30587 0.0565325 1.63664e-317)
(1.09748 0.498612 1.19838e-317)
(1.10929 -0.765625 1.24332e-317)
(0.907968 -0.421804 1.75844e-317)
(0.672658 -2.79479 3.79318e-317)
(0.784334 -3.35312 6.43256e-317)
(-0.138822 -6.89587 1.33077e-316)
(0.805498 2.42204 1.55826e-316)
(0.283541 1.55786 1.5043e-316)
(0.967405 1.4811 1.33985e-316)
(0.650623 0.740751 1.16329e-316)
(1.06464 0.877144 1.02043e-316)
(0.93986 0.359031 8.84052e-317)
(1.2126 0.532698 7.68469e-317)
(1.17782 0.208221 6.59839e-317)
(1.32398 0.400337 5.60059e-317)
(1.32789 0.165353 4.65335e-317)
(1.34281 0.395992 3.7651e-317)
(1.34812 0.115613 2.92769e-317)
(1.20728 0.419239 2.15622e-317)
(1.14923 -0.113775 1.42776e-317)
(0.828834 0.322853 7.74201e-318)
(0.563134 -0.820403 3.29809e-319)
(0.180117 -0.165221 -6.44737e-318)
(-0.566062 -2.33482 -1.84055e-317)
(-0.316877 -1.65499 -2.97833e-317)
(-1.52581 -4.1392 -4.74816e-317)
(0.492202 1.71106 1.63125e-316)
(0.186634 1.49031 1.9569e-316)
(1.10491 1.49034 1.71208e-316)
(0.935517 0.804062 1.52601e-316)
(1.50195 0.904267 1.29766e-316)
(1.43285 0.401886 1.10583e-316)
(1.76086 0.568936 9.32077e-317)
(1.77461 0.281883 7.77267e-317)
(1.93938 0.503106 6.37677e-317)
(2.04152 0.317639 5.09663e-317)
(2.06734 0.614523 3.92519e-317)
(2.27976 0.391664 2.85979e-317)
(2.13509 0.808382 1.92463e-317)
(2.50044 0.323765 1.16632e-317)
(2.08309 0.912925 6.54593e-318)
(2.6763 -0.300547 6.38952e-318)
(1.81838 0.397962 1.08251e-317)
(2.69901 -2.41344 3.11124e-317)
(1.18479 -2.58292 5.62037e-317)
(1.85869 -8.04942 1.22504e-316)
(1.4307 1.93446 8.71409e-317)
(0.23332 1.14582 8.7391e-317)
(1.22365 0.982552 8.22063e-317)
(0.722641 0.478095 7.23127e-317)
(1.26244 0.54678 6.60646e-317)
(1.09419 0.187929 5.87395e-317)
(1.43174 0.307757 5.2756e-317)
(1.39422 0.094458 4.66776e-317)
(1.57175 0.231578 4.09838e-317)
(1.61247 0.092948 3.54665e-317)
(1.64178 0.25664 3.02994e-317)
(1.74745 0.0945724 2.55413e-317)
(1.58668 0.305947 2.13493e-317)
(1.735 -0.0412433 1.75773e-317)
(1.26961 0.255551 1.42531e-317)
(1.36295 -0.598231 9.87764e-318)
(0.517974 -0.129636 4.42563e-318)
(0.144284 -1.90264 -8.53233e-318)
(-0.36297 -1.13297 -2.53569e-317)
(-2.18531 -2.32901 -6.29189e-317)
(0.289407 0.680693 6.2919e-316)
(0.636498 1.59988 4.58743e-316)
(1.92403 1.15319 3.44297e-316)
(1.87021 0.75876 2.60461e-316)
(2.71867 0.649236 2.05571e-316)
(2.59712 0.28155 1.64092e-316)
(3.04079 0.365507 1.32654e-316)
(3.01872 0.183568 1.06417e-316)
(3.22967 0.353102 8.4005e-317)
(3.37565 0.264612 6.39716e-317)
(3.44048 0.515906 4.58757e-317)
(3.82003 0.417817 2.93473e-317)
(3.70981 0.799337 1.45532e-317)
(4.43361 0.516102 1.89739e-318)
(3.92706 1.12644 -7.7853e-318)
(5.22153 0.172878 -1.19435e-317)
(3.66986 1.15311 -1.04388e-317)
(6.05569 -1.81584 7.3624e-318)
(1.8797 -1.02766 3.0773e-317)
(5.97396 -9.33363 8.70859e-317)
(1.9795 1.31617 -2.42979e-316)
(0.106553 0.200466 -1.87014e-316)
(0.641334 0.259041 -1.25741e-316)
(0.208765 0.0197367 -8.67774e-317)
(0.391984 0.119628 -5.89855e-317)
(0.311593 -0.000125279 -4.02798e-317)
(0.474053 0.0604468 -2.62491e-317)
(0.46022 -0.0126209 -1.56221e-317)
(0.561807 0.0290579 -6.98194e-318)
(0.56203 -0.0188286 2.91099e-319)
(0.582276 0.014392 6.75237e-318)
(0.583361 -0.0382237 1.27297e-317)
(0.487679 -0.0174304 1.83593e-317)
(0.473735 -0.123494 2.34992e-317)
(0.190435 -0.14264 2.76248e-317)
(0.0970936 -0.380743 2.8773e-317)
(-0.349962 -0.52576 2.5573e-317)
(-1.00313 -0.813975 9.05919e-318)
(-0.467916 -1.0542 -1.58692e-317)
(-4.78772 1.93535 -8.04159e-317)
(-0.384028 -0.450869 1.70964e-315)
(1.87658 2.26655 1.00512e-315)
(4.25978 1.04289 7.12637e-316)
(4.30746 0.852513 5.10684e-316)
(5.90023 0.55897 4.00293e-316)
(5.57264 0.216498 3.18199e-316)
(6.30216 0.263693 2.57738e-316)
(6.17564 0.122464 2.06749e-316)
(6.50818 0.27927 1.62649e-316)
(6.75755 0.239917 1.22747e-316)
(6.93256 0.481453 8.62029e-317)
(7.70448 0.452993 5.2427e-317)
(7.73578 0.826491 2.16922e-317)
(9.25993 0.661184 -5.40009e-318)
(8.79454 1.28523 -2.72918e-317)
(11.4766 0.466254 -4.07979e-317)
(9.0404 1.70063 -4.45753e-317)
(13.813 -1.66892 -2.77008e-317)
(4.47623 1.11161 -3.61128e-318)
(14.0956 -11.6358 4.82865e-317)
)
;

boundaryField
{
    cavity
    {
        type            myImplicitVelocity;
    }
    lid
    {
        type            fixedValue;
        value           uniform (1 0 0);
    }
    frontAndBack
    {
        type            empty;
    }
}


// ************************************************************************* //
