/*--------------------------------*- C++ -*----------------------------------*\
| =========                 |                                                 |
| \\      /  F ield         | foam-extend: Open Source CFD                    |
|  \\    /   O peration     | Version:  3.0                                   |
|   \\  /    A nd           | Web:         http://www.extend-project.de       |
|    \\/     M anipulation  |                                                 |
\*---------------------------------------------------------------------------*/
FoamFile
{
    version     2.0;
    format      ascii;
    class       volVectorField;
    location    "30";
    object      s;
}
// * * * * * * * * * * * * * * * * * * * * * * * * * * * * * * * * * * * * * //

dimensions      [0 1 -1 0 0 0 0];

internalField   nonuniform List<vector> 
400
(
(1.63234 0.130685 0)
(1.30819 0.104388 0)
(1.0759 0.0855498 0)
(0.903053 0.0716589 0)
(0.76939 0.0609841 0)
(0.663699 0.0525952 0)
(0.578034 0.0458405 0)
(0.507719 0.0403361 0)
(0.448953 0.0357465 0)
(0.398717 0.0317115 0)
(1.6099 0.386772 0)
(1.27876 0.307009 0)
(1.05011 0.252082 0)
(0.881045 0.2114 0)
(0.750574 0.18003 0)
(0.647451 0.155203 0)
(0.563987 0.135097 0)
(0.495759 0.118635 0)
(0.439791 0.105149 0)
(0.395751 0.0946803 0)
(1.51116 0.623482 0)
(1.21195 0.500306 0)
(0.997015 0.411828 0)
(0.836852 0.345745 0)
(0.71299 0.294564 0)
(0.614981 0.254004 0)
(0.5355 0.221074 0)
(0.470172 0.193986 0)
(0.415467 0.171354 0)
(0.368657 0.15221 0)
(1.38843 0.848694 0)
(1.11584 0.681556 0)
(0.919044 0.561391 0)
(0.771792 0.471488 0)
(0.657673 0.401783 0)
(0.567238 0.346498 0)
(0.493784 0.301588 0)
(0.433252 0.264606 0)
(0.382405 0.233648 0)
(0.33908 0.20749 0)
(1.23628 1.0543 0)
(0.993613 0.846377 0)
(0.818788 0.697201 0)
(0.687826 0.585635 0)
(0.586208 0.499107 0)
(0.505595 0.430475 0)
(0.440052 0.3747 0)
(0.385997 0.328759 0)
(0.340612 0.290288 0)
(0.302098 0.257794 0)
(1.0553 1.2344 0)
(0.847872 0.990617 0)
(0.698787 0.815955 0)
(0.587122 0.685392 0)
(0.500431 0.584146 0)
(0.431618 0.503839 0)
(0.375645 0.438577 0)
(0.329473 0.384818 0)
(0.290723 0.339794 0)
(0.257887 0.301748 0)
(0.848854 1.38415 0)
(0.681826 1.11056 0)
(0.561956 0.914681 0)
(0.472198 0.76831 0)
(0.4025 0.654821 0)
(0.347153 0.56481 0)
(0.302121 0.491659 0)
(0.264972 0.431397 0)
(0.233802 0.380918 0)
(0.2074 0.338246 0)
(0.621675 1.49974 0)
(0.499316 1.20319 0)
(0.411556 0.990922 0)
(0.34585 0.832334 0)
(0.294817 0.709385 0)
(0.254279 0.611875 0)
(0.221285 0.53263 0)
(0.194062 0.467346 0)
(0.171217 0.412653 0)
(0.151865 0.366408 0)
(0.379283 1.5783 0)
(0.304714 1.26619 0)
(0.251218 1.04278 0)
(0.211148 0.875886 0)
(0.180007 0.7465 0)
(0.155254 0.643888 0)
(0.135095 0.560494 0)
(0.118451 0.491789 0)
(0.104478 0.434225 0)
(0.0926354 0.385545 0)
(0.127641 1.61794 0)
(0.102746 1.29801 0)
(0.0848326 1.06898 0)
(0.0713691 0.897885 0)
(0.0608701 0.765247 0)
(0.0524961 0.660056 0)
(0.0456548 0.574565 0)
(0.0399894 0.504128 0)
(0.0352189 0.445111 0)
(0.0311632 0.395196 0)
(-0.127054 1.61773 0)
(-0.101648 1.29786 0)
(-0.0835372 1.06887 0)
(-0.0700723 0.897791 0)
(-0.0596839 0.765167 0)
(-0.0514847 0.659985 0)
(-0.0448507 0.574499 0)
(-0.0394091 0.504064 0)
(-0.034869 0.445045 0)
(-0.0310465 0.395126 0)
(-0.378539 1.5777 0)
(-0.303457 1.26577 0)
(-0.24977 1.04245 0)
(-0.209715 0.875607 0)
(-0.178704 0.74626 0)
(-0.154142 0.643676 0)
(-0.134205 0.5603 0)
(-0.117799 0.491601 0)
(-0.104068 0.434034 0)
(-0.0924686 0.38534 0)
(-0.620634 1.49885 0)
(-0.497728 1.20254 0)
(-0.409791 0.990385 0)
(-0.344137 0.831879 0)
(-0.293274 0.708994 0)
(-0.252962 0.611532 0)
(-0.22022 0.532317 0)
(-0.19326 0.467046 0)
(-0.170682 0.412348 0)
(-0.151597 0.36608 0)
(-0.847395 1.38313 0)
(-0.679693 1.10972 0)
(-0.559673 0.913953 0)
(-0.470043 0.767686 0)
(-0.400585 0.654285 0)
(-0.345522 0.564345 0)
(-0.300786 0.491241 0)
(-0.263941 0.431003 0)
(-0.233077 0.380522 0)
(-0.206982 0.33782 0)
(-1.05325 1.23341 0)
(-0.844884 0.989609 0)
(-0.695739 0.815039 0)
(-0.584342 0.684607 0)
(-0.498004 0.583481 0)
(-0.42955 0.503274 0)
(-0.373927 0.43808 0)
(-0.328108 0.384359 0)
(-0.289723 0.339339 0)
(-0.257263 0.301254 0)
(-1.23315 1.05336 0)
(-0.989245 0.845158 0)
(-0.814648 0.696078 0)
(-0.68423 0.584688 0)
(-0.583141 0.498323 0)
(-0.502984 0.429823 0)
(-0.437847 0.374143 0)
(-0.384186 0.328261 0)
(-0.339228 0.28981 0)
(-0.301206 0.257281 0)
(-1.38267 0.847407 0)
(-1.10923 0.679924 0)
(-0.913481 0.559995 0)
(-0.767253 0.470385 0)
(-0.653904 0.400906 0)
(-0.56402 0.345798 0)
(-0.490976 0.301003 0)
(-0.430798 0.264089 0)
(-0.380377 0.233153 0)
(-0.337732 0.206981 0)
(-1.49815 0.620626 0)
(-1.2019 0.497971 0)
(-0.98981 0.410141 0)
(-0.831373 0.344513 0)
(-0.708555 0.293628 0)
(-0.611161 0.253266 0)
(-0.532009 0.220457 0)
(-0.466798 0.193421 0)
(-0.412157 0.170761 0)
(-0.365942 0.151591 0)
(-1.57674 0.378589 0)
(-1.26497 0.303775 0)
(-1.04176 0.250201 0)
(-0.875014 0.210168 0)
(-0.745753 0.179127 0)
(-0.643246 0.154505 0)
(-0.559938 0.134489 0)
(-0.491301 0.117994 0)
(-0.433788 0.104169 0)
(-0.385143 0.0924729 0)
(-1.61652 0.127248 0)
(-1.29689 0.102112 0)
(-1.06806 0.0841095 0)
(-0.897105 0.070655 0)
(-0.764582 0.0602208 0)
(-0.659487 0.0519429 0)
(-0.574075 0.0452128 0)
(-0.503704 0.0396655 0)
(-0.444738 0.0350155 0)
(-0.394862 0.0310807 0)
(-1.61651 -0.127217 0)
(-1.29688 -0.102058 0)
(-1.06805 -0.0840479 0)
(-0.897103 -0.070594 0)
(-0.764581 -0.0601651 0)
(-0.659487 -0.0518953 0)
(-0.574075 -0.0451747 0)
(-0.503703 -0.039638 0)
(-0.444736 -0.0349989 0)
(-0.39486 -0.0310753 0)
(-1.5767 -0.378549 0)
(-1.26494 -0.303715 0)
(-1.04175 -0.250135 0)
(-0.875008 -0.210104 0)
(-0.745749 -0.179069 0)
(-0.643244 -0.154455 0)
(-0.559936 -0.134449 0)
(-0.491298 -0.117965 0)
(-0.433785 -0.104151 0)
(-0.385138 -0.0924662 0)
(-1.49809 -0.620568 0)
(-1.20186 -0.497898 0)
(-0.989792 -0.410066 0)
(-0.831364 -0.344442 0)
(-0.708551 -0.293564 0)
(-0.611158 -0.253213 0)
(-0.532007 -0.220414 0)
(-0.466794 -0.193389 0)
(-0.412152 -0.17074 0)
(-0.365934 -0.151582 0)
(-1.3826 -0.847323 0)
(-1.10919 -0.679832 0)
(-0.913461 -0.559906 0)
(-0.767245 -0.470304 0)
(-0.653901 -0.400835 0)
(-0.564019 -0.345738 0)
(-0.490974 -0.300954 0)
(-0.430794 -0.264053 0)
(-0.38037 -0.233128 0)
(-0.337721 -0.206967 0)
(-1.23306 -1.05324 0)
(-0.989203 -0.845042 0)
(-0.814631 -0.695971 0)
(-0.684226 -0.584593 0)
(-0.583143 -0.498242 0)
(-0.502987 -0.429755 0)
(-0.437848 -0.374088 0)
(-0.384184 -0.328218 0)
(-0.339221 -0.289778 0)
(-0.301193 -0.257261 0)
(-1.05316 -1.23325 0)
(-0.844848 -0.989463 0)
(-0.695732 -0.814911 0)
(-0.584349 -0.684497 0)
(-0.498016 -0.583387 0)
(-0.429561 -0.503195 0)
(-0.373934 -0.438015 0)
(-0.328109 -0.384307 0)
(-0.289717 -0.339299 0)
(-0.257248 -0.301226 0)
(-0.847316 -1.38293 0)
(-0.679673 -1.10954 0)
(-0.559685 -0.913801 0)
(-0.470068 -0.767556 0)
(-0.400614 -0.654175 0)
(-0.345547 -0.564252 0)
(-0.300804 -0.491163 0)
(-0.263949 -0.43094 0)
(-0.233075 -0.380471 0)
(-0.206967 -0.33778 0)
(-0.620579 -1.49859 0)
(-0.497738 -1.20233 0)
(-0.409834 -0.990205 0)
(-0.344193 -0.831726 0)
(-0.29333 -0.708864 0)
(-0.25301 -0.611422 0)
(-0.220256 -0.532224 0)
(-0.193281 -0.466968 0)
(-0.170687 -0.412283 0)
(-0.151585 -0.366027 0)
(-0.378523 -1.57739 0)
(-0.303513 -1.26552 0)
(-0.249861 -1.04224 0)
(-0.209816 -0.875428 0)
(-0.1788 -0.746106 0)
(-0.154224 -0.643545 0)
(-0.134268 -0.560188 0)
(-0.11784 -0.491506 0)
(-0.104087 -0.433952 0)
(-0.0924644 -0.38527 0)
(-0.127093 -1.61738 0)
(-0.101769 -1.29758 0)
(-0.0836967 -1.06863 0)
(-0.070238 -0.897582 0)
(-0.0598377 -0.764985 0)
(-0.0516139 -0.659829 0)
(-0.0449519 -0.574365 0)
(-0.03948 -0.50395 0)
(-0.0349092 -0.444945 0)
(-0.0310552 -0.395038 0)
(0.127532 -1.61758 0)
(0.102537 -1.2977 0)
(0.0845779 -1.06871 0)
(0.0711133 -0.89764 0)
(0.0606369 -0.765032 0)
(0.0523011 -0.659871 0)
(0.045501 -0.574406 0)
(0.0398778 -0.503992 0)
(0.035149 -0.444992 0)
(0.0311353 -0.395091 0)
(0.379095 -1.57795 0)
(0.304384 -1.26587 0)
(0.25083 -1.04247 0)
(0.210769 -0.875596 0)
(0.179668 -0.746242 0)
(0.154973 -0.643666 0)
(0.134873 -0.560306 0)
(0.118288 -0.491629 0)
(0.10437 -0.434088 0)
(0.0925825 -0.385426 0)
(0.621412 -1.49948 0)
(0.498815 -1.20286 0)
(0.410979 -0.990563 0)
(0.345303 -0.831987 0)
(0.294337 -0.709074 0)
(0.253883 -0.611609 0)
(0.220972 -0.532406 0)
(0.193827 -0.46716 0)
(0.171057 -0.412498 0)
(0.151779 -0.366275 0)
(0.848517 -1.38405 0)
(0.681051 -1.11022 0)
(0.561097 -0.914244 0)
(0.471418 -0.767876 0)
(0.401835 -0.654432 0)
(0.34661 -0.56448 0)
(0.30169 -0.491386 0)
(0.264646 -0.431179 0)
(0.233576 -0.380746 0)
(0.207275 -0.338106 0)
(1.05481 -1.23447 0)
(0.846624 -0.990184 0)
(0.697513 -0.815382 0)
(0.586033 -0.684834 0)
(0.499535 -0.583657 0)
(0.430884 -0.503434 0)
(0.375046 -0.43825 0)
(0.329002 -0.384564 0)
(0.290387 -0.339603 0)
(0.257702 -0.3016 0)
(1.23518 -1.0544 0)
(0.991479 -0.845709 0)
(0.816894 -0.696394 0)
(0.686348 -0.584888 0)
(0.585051 -0.498473 0)
(0.504651 -0.429955 0)
(0.439257 -0.374286 0)
(0.385333 -0.328447 0)
(0.34011 -0.290071 0)
(0.301831 -0.257653 0)
(1.38516 -0.848225 0)
(1.11212 -0.680307 0)
(0.916375 -0.560189 0)
(0.769939 -0.470491 0)
(0.656306 -0.400975 0)
(0.566112 -0.345857 0)
(0.49275 -0.301076 0)
(0.432254 -0.264209 0)
(0.381511 -0.233361 0)
(0.33856 -0.207326 0)
(1.50118 -0.621025 0)
(1.20572 -0.498053 0)
(0.99356 -0.41011 0)
(0.834759 -0.344432 0)
(0.711537 -0.293535 0)
(0.613751 -0.253164 0)
(0.534232 -0.220369 0)
(0.468657 -0.19338 0)
(0.41364 -0.170827 0)
(0.367041 -0.151855 0)
(1.58083 -0.378386 0)
(1.27024 -0.303345 0)
(1.04668 -0.249799 0)
(0.879278 -0.209819 0)
(0.749417 -0.178821 0)
(0.646422 -0.154223 0)
(0.562694 -0.134223 0)
(0.493664 -0.117763 0)
(0.435695 -0.104035 0)
(0.386516 -0.0925612 0)
(1.62377 -0.126356 0)
(1.30459 -0.100982 0)
(1.0744 -0.0832623 0)
(0.902246 -0.0699641 0)
(0.768873 -0.0596513 0)
(0.663201 -0.0514083 0)
(0.57741 -0.0446722 0)
(0.506756 -0.0390888 0)
(0.447464 -0.0344567 0)
(0.397013 -0.0307618 0)
)
;

boundaryField
{
    out
    {
        type            myHeatFlux;
        alpha           uniform 1;
        Theta_wall      uniform 1;
        value           nonuniform List<vector> 
40
(
(0.376828 0.029657 0)
(0.382281 0.0917775 -1.08655e-17)
(0.3483 0.144271 0)
(0.3214 0.196954 0)
(0.286523 0.244714 0)
(0.244624 0.286418 0)
(0.196735 0.321042 0)
(0.144046 0.347757 -2.0806e-17)
(0.0878468 0.365908 1.04001e-17)
(0.0295177 0.375058 0)
(-0.0295119 0.374985 0)
(-0.0877949 0.365692 -1.0394e-17)
(-0.143902 0.34741 0)
(-0.196457 0.320588 0)
(-0.244169 0.285885 0)
(-0.285867 0.244153 0)
(-0.320526 0.196419 0)
(-0.347295 0.143854 -2.07783e-17)
(-0.365515 0.0877523 1.03889e-17)
(-0.374737 0.0294925 0)
(-0.374735 -0.0294923 0)
(-0.365509 -0.087751 -1.03888e-17)
(-0.347286 -0.14385 0)
(-0.320513 -0.196411 0)
(-0.28585 -0.244139 0)
(-0.244149 -0.285862 0)
(-0.196435 -0.320553 0)
(-0.143882 -0.347361 -2.07823e-17)
(-0.0877792 -0.365627 1.03921e-17)
(-0.0295054 -0.374901 0)
(0.0295098 -0.374958 0)
(0.0878192 -0.365793 -1.03968e-17)
(0.143993 -0.34763 0)
(0.196654 -0.32091 0)
(0.244505 -0.286279 0)
(0.286378 -0.24459 0)
(0.321227 -0.196848 0)
(0.348231 -0.144242 -2.08343e-17)
(0.36663 -0.0880201 1.04206e-17)
(0.376469 -0.0296288 0)
)
;
    }
    in
    {
        type            myHeatFlux;
        alpha           uniform 1;
        Theta_wall      uniform 4;
        value           nonuniform List<vector> 
40
(
(1.87961 0.147929 -0)
(1.92722 0.462685 -8.55889e-18)
(1.73397 0.718233 1.62096e-17)
(1.60211 0.981773 -0)
(1.43026 1.22156 -0)
(1.22226 1.43109 -0)
(0.98359 1.60507 -0)
(0.720391 1.73918 -1.62583e-17)
(0.439398 1.83022 -0)
(0.147653 1.87611 -0)
(-0.147628 1.87579 -0)
(-0.439181 1.82932 -8.1241e-18)
(-0.719846 1.73786 1.6246e-17)
(-0.982731 1.60367 -0)
(-1.22138 1.43006 -0)
(-1.42994 1.22128 -0)
(-1.60328 0.982492 -0)
(-1.73715 0.719552 -1.62394e-17)
(-1.82826 0.438927 -0)
(-1.87437 0.147516 -0)
(-1.87436 -0.147515 -0)
(-1.82821 -0.438914 -8.11917e-18)
(-1.73707 -0.719517 1.62386e-17)
(-1.60317 -0.982425 -0)
(-1.42981 -1.22117 -0)
(-1.22124 -1.42989 -0)
(-0.982594 -1.60345 -0)
(-0.719726 -1.73757 -1.62433e-17)
(-0.439095 -1.82896 -0)
(-0.147595 -1.87537 -0)
(0.147616 -1.87564 -0)
(0.439285 -1.82975 -8.12602e-18)
(0.720245 -1.73883 1.6255e-17)
(0.983586 -1.60507 -0)
(1.2228 -1.43172 -0)
(1.43192 -1.22297 -0)
(1.60555 -0.983884 -0)
(1.73912 -0.720367 -1.62578e-17)
(1.8289 -0.439079 -0)
(1.8738 -0.147472 -0)
)
;
    }
    frontAndBack
    {
        type            empty;
    }
}


// ************************************************************************* //
